FOO
141312
    1MOL0     O    1   6.694   4.815   8.010 -0.7770 -0.6247  0.1539
    1MOL0     C    2   6.742   4.886   8.096 -0.3800  0.8240  1.1665
    1MOL0     O    3   6.681   5.004   8.139 -0.7757 -0.3967 -0.6918
    1MOL0     C    4   6.606   5.076   8.054 -0.3654 -0.2494 -0.3008
    1MOL0     C    5   6.534   5.181   8.112 -0.7799  0.4359 -0.4583
    1MOL0     C    6   6.441   5.253   8.039  0.9496  0.3939 -0.3196
    1MOL0     C    7   6.420   5.240   7.896 -0.4661  0.5066 -1.2939
    1MOL0     O    8   6.337   5.313   7.814  0.2386  0.5104  0.0859
    1MOL0     C    9   6.343   5.458   7.838  0.6166 -0.6620 -0.3045
    1MOL0     C   10   6.294   5.549   7.720 -0.3641 -0.3580 -0.2190
    1MOL0     C   11   6.149   5.530   7.696 -0.6757 -0.6077  0.2629
    1MOL0     C   12   6.094   5.578   7.554 -0.3595 -0.4000  0.7710
    1MOL0     C   13   5.943   5.562   7.543 -1.0704  0.3163 -0.2500
    1MOL0     C   14   5.880   5.413   7.558 -0.9232 -0.9024  0.1353
    1MOL0     C   15   5.950   5.305   7.479  0.2711 -0.1712 -0.6735
    1MOL0     C   16   5.886   5.278   7.339  0.1450  0.1577  0.2296
    1MOL0     N   17   5.941   5.369   7.238  0.2360  0.1180  0.0787
    1MOL0     C   18   6.074   5.378   7.201 -0.5118 -0.1006  0.6615
    1MOL0     C   19   6.070   5.470   7.109 -0.3242 -0.3763  0.1140
    1MOL0     C   20   6.194   5.515   7.031 -0.2162 -0.3683 -1.0858
    1MOL0     C   21   6.194   5.504   6.874 -0.8353  0.9190  0.2552
    1MOL0     C   22   6.104   5.600   6.817  0.5177 -0.3485 -0.0187
    1MOL0     C   23   6.170   5.715   6.738 -0.1031  0.3352 -0.4681
    1MOL0     O   24   6.237   5.795   6.837 -0.0392  0.0020 -0.6709
    1MOL0     C   25   6.357   5.851   6.796  0.3752  0.6337  0.1255
    1MOL0     C   26   6.441   5.897   6.894  0.0885 -0.3363 -0.5751
    1MOL0     C   27   6.566   5.955   6.872 -0.2125  0.1132  0.5990
    1MOL0     C   28   6.628   6.013   6.994 -0.1340  0.5066 -0.1696
    1MOL0     C   29   6.602   5.982   6.736  0.8320 -0.4341  0.4517
    1MOL0     C   30   6.722   6.061   6.693 -0.1276  0.2891  1.0114
    1MOL0     O   31   6.748   6.046   6.558 -0.2414  0.0099 -0.1939
    1MOL0     C   32   6.816   6.153   6.502  0.1725 -0.7587  0.8233
    1MOL0     C   33   6.740   6.244   6.423  0.4349  0.4392  0.3879
    1MOL0     C   34   6.806   6.349   6.364  0.7900  0.1110 -0.2690
    1MOL0     C   35   6.937   6.381   6.386 -0.2593 -0.4154  0.1064
    1MOL0     O   36   6.996   6.490   6.320  0.5058 -0.4214 -0.8100
    1MOL0     C   37   6.989   6.506   6.176  0.3454 -0.3190  0.0304
    1MOL0     C   38   7.074   6.620   6.118 -0.0485  0.4029  0.1080
    1MOL0     C   39   7.038   6.755   6.187  0.5310  0.2283 -0.2253
    1MOL0     C   40   7.157   6.844   6.218  1.0137 -0.2562 -0.5528
    1MOL0     C   41   7.105   6.994   6.222 -0.2579 -0.4552  0.1720
    1MOL0     C   42   7.222   7.102   6.239 -0.2946 -0.2691  0.8442
    1MOL0     C   43   7.321   7.069   6.353 -0.4920  0.2578  0.1546
    1MOL0     C   44   7.389   7.175   6.437  0.5167  0.3379 -0.3559
    1MOL0    Cl   45   7.490   7.095   6.565 -0.2407 -0.3374  0.1054
    1MOL0     C   46   7.015   6.289   6.452 -0.2042 -0.8328  0.0086
    1MOL0     C   47   6.954   6.177   6.508 -0.8555  0.1806 -0.4367
    1MOL0     O   48   6.784   6.132   6.764  0.1985 -0.1012  0.1987
    1MOL0     C   49   6.511   5.934   6.633 -0.6312  0.0294 -0.8558
    1MOL0     C   50   6.395   5.872   6.662 -1.3031 -0.2080 -0.1288
    1MOL0     N   51   5.944   5.515   7.086  0.2475  0.7466  0.3763
    1MOL0     N   52   5.858   5.448   7.156 -0.0641 -0.8366 -0.5696
    1MOL0     C   53   6.501   5.136   7.841  0.4465 -0.7478  0.0037
    1MOL0     C   54   6.598   5.064   7.918  0.4058 -0.3193  0.0782
    1MOL0     C   55   6.862   4.839   8.178  0.0997  0.6269  0.3965
    1MOL0     C   56   6.871   4.883   8.313 -0.1633 -0.4676  0.1083
    1MOL0     C   57   6.966   4.826   8.404 -0.2499 -0.0529 -0.9360
    1MOL0     C   58   7.056   4.727   8.367 -0.5393  0.2932  0.5493
    1MOL0     O   59   7.152   4.699   8.463 -0.1430  0.1289 -0.1676
    1MOL0     C   60   7.238   4.583   8.441  0.0094 -0.0352 -0.0515
    1MOL0     C   61   7.311   4.547   8.568  0.4770  0.7444 -1.0628
    1MOL0     C   62   7.222   4.514   8.691 -0.5408 -0.3049 -0.2957
    1MOL0     C   63   7.192   4.359   8.690 -0.1980 -0.3315 -0.2299
    1MOL0     C   64   7.316   4.289   8.719  0.4210 -1.0735 -0.7253
    1MOL0     C   65   7.417   4.232   8.729 -0.6170  0.5933 -0.1886
    1MOL0     C   66   7.047   4.688   8.235 -0.3803  0.4560 -0.1486
    1MOL0     C   67   6.960   4.746   8.142 -0.0586  0.4890 -0.1984
    1MOL0     C   68   6.986   4.708   8.005  0.0544 -0.0200 -0.2030
    1MOL0     H   69   6.538   5.199   8.219 -0.2051  1.5671 -0.6507
    1MOL0     H   70   6.383   5.329   8.090 -1.3729 -0.8897 -0.9037
    1MOL0     H   71   6.450   5.480   7.846  0.5186  1.8986 -3.6640
    1MOL0     H   72   6.295   5.494   7.929  4.1859  3.3758  0.2995
    1MOL0     H   73   6.325   5.646   7.758 -1.9888 -0.3036  1.1430
    1MOL0     H   74   6.354   5.521   7.633  2.6810  2.6684  0.7047
    1MOL0     H   75   6.126   5.423   7.704 -0.7738 -0.7437 -1.3625
    1MOL0     H   76   6.097   5.590   7.770 -1.6482 -0.0042 -0.8912
    1MOL0     H   77   6.111   5.684   7.534 -4.1055  0.9669  3.6497
    1MOL0     H   78   6.143   5.526   7.470 -3.9666 -0.5535 -1.4486
    1MOL0     H   79   5.914   5.590   7.441 -2.6129 -0.1561  0.0413
    1MOL0     H   80   5.888   5.624   7.615  1.0278  2.1144 -0.0819
    1MOL0     H   81   5.901   5.381   7.660  0.6541 -1.3487 -0.3011
    1MOL0     H   82   5.775   5.413   7.526 -0.4461 -2.4386 -1.5987
    1MOL0     H   83   5.926   5.208   7.523 -2.2512  0.2214 -1.0226
    1MOL0     H   84   6.059   5.313   7.475  0.1316  2.0648 -2.1854
    1MOL0     H   85   5.921   5.182   7.300 -0.2122  0.9105 -2.0711
    1MOL0     H   86   5.778   5.272   7.350  0.1795  2.2102  2.3789
    1MOL0     H   87   6.162   5.333   7.245 -1.3807 -1.3266  1.2430
    1MOL0     H   88   6.274   5.458   7.080 -0.9336  1.1431  2.1478
    1MOL0     H   89   6.222   5.619   7.054  2.2339 -0.5295 -3.0205
    1MOL0     H   90   6.291   5.525   6.829 -0.0487  1.9098  2.2814
    1MOL0     H   91   6.174   5.399   6.852  0.3079  0.4586  1.3020
    1MOL0     H   92   6.042   5.539   6.750  0.8839  1.2587 -1.9048
    1MOL0     H   93   6.033   5.638   6.891 -0.0968 -0.9157 -0.2949
    1MOL0     H   94   6.244   5.669   6.671 -1.4405  1.3659 -2.8049
    1MOL0     H   95   6.103   5.768   6.669  1.2593  1.6432 -0.8326
    1MOL0     H   96   6.407   5.867   6.992 -0.6731 -2.1456 -1.3594
    1MOL0     H   97   6.590   5.971   7.087  0.6658 -0.4568 -0.2735
    1MOL0     H   98   6.624   6.123   6.990  0.9822  0.5456 -3.2937
    1MOL0     H   99   6.735   5.992   6.991  0.0500  1.4916 -0.9908
    1MOL0     H  100   6.634   6.228   6.406 -0.0308  2.9434  0.6211
    1MOL0     H  101   6.761   6.404   6.282  3.4078 -3.7890 -4.8163
    1MOL0     H  102   7.016   6.414   6.124  1.1315  0.9148 -1.8464
    1MOL0     H  103   6.885   6.530   6.151  0.3266 -1.1693 -0.7635
    1MOL0     H  104   7.176   6.591   6.146 -0.9557 -3.2304  0.0972
    1MOL0     H  105   7.067   6.627   6.009 -0.9845  1.1590  0.2036
    1MOL0     H  106   6.991   6.732   6.283  0.2250  1.6466 -0.0189
    1MOL0     H  107   6.978   6.803   6.109  1.8409  0.8434 -0.8735
    1MOL0     H  108   7.237   6.830   6.145  0.1885 -3.6193 -0.9820
    1MOL0     H  109   7.195   6.821   6.318 -1.7542  1.8803  1.1508
    1MOL0     H  110   7.063   7.015   6.123 -0.0996 -1.3052 -0.0870
    1MOL0     H  111   7.037   6.998   6.308  1.2445 -1.5340  1.4495
    1MOL0     H  112   7.178   7.200   6.261 -2.5121 -0.9875 -0.0133
    1MOL0     H  113   7.273   7.121   6.144 -0.1014 -3.0766  0.3091
    1MOL0     H  114   7.394   7.007   6.300 -1.8376 -0.0005 -1.5162
    1MOL0     H  115   7.262   7.002   6.416  0.6403 -2.2552 -1.2681
    1MOL0     H  116   7.311   7.233   6.487  1.8897  0.9231  1.2414
    1MOL0     H  117   7.457   7.239   6.380  1.2497 -0.0748  0.0366
    1MOL0     H  118   7.120   6.309   6.469 -0.0336 -1.4555 -0.2666
    1MOL0     H  119   7.021   6.099   6.542  1.0732  1.4435 -1.1349
    1MOL0     H  120   6.527   5.961   6.529 -1.7048  3.0170 -0.3403
    1MOL0     H  121   6.346   5.836   6.571  0.5097  1.3800 -1.8108
    1MOL0     H  122   6.499   5.115   7.735 -0.1231  0.6534 -0.2833
    1MOL0     H  123   6.669   5.002   7.864  0.9735 -1.7162  2.2840
    1MOL0     H  124   6.809   4.965   8.348  3.5512  1.1845  3.6700
    1MOL0     H  125   6.974   4.852   8.509 -1.7402  2.3439 -1.3379
    1MOL0     H  126   7.177   4.499   8.406  0.2283 -1.1200  2.0069
    1MOL0     H  127   7.312   4.607   8.364 -0.5346 -0.8727 -0.8514
    1MOL0     H  128   7.389   4.616   8.603  0.6847 -0.9388  2.1171
    1MOL0     H  129   7.363   4.457   8.534 -0.7038  0.1811 -1.4120
    1MOL0     H  130   7.284   4.539   8.778  0.0435  1.9174 -1.2790
    1MOL0     H  131   7.131   4.573   8.694  1.2323  2.5784  1.8633
    1MOL0     H  132   7.149   4.326   8.595 -2.1239 -0.6756  0.6983
    1MOL0     H  133   7.122   4.325   8.768  0.9138  1.5121  1.6600
    1MOL0     H  134   7.503   4.170   8.741 -0.4339  0.9850  0.5746
    1MOL0     H  135   7.110   4.611   8.191 -3.9055 -1.1081 -2.9070
    1MOL0     H  136   6.952   4.778   7.928  0.7004  0.5440  0.0147
    1MOL0     H  137   7.092   4.686   7.990  0.5371  2.6810 -1.2789
    1MOL0     H  138   6.946   4.607   7.987  2.6420 -1.2752  0.5963
    2MOL0     O  139   2.507   5.828   1.921 -0.1075  1.0070 -0.7224
    2MOL0     C  140   2.507   5.938   1.868  1.3948  0.7767 -0.4480
    2MOL0     O  141   2.603   6.030   1.896  0.0663  0.0000  0.6913
    2MOL0     C  142   2.715   6.007   1.965  0.5979  0.0686  0.4512
    2MOL0     C  143   2.787   5.890   1.931  0.5423  0.6551  0.1712
    2MOL0     C  144   2.896   5.859   2.011 -0.1579 -0.0719 -0.7990
    2MOL0     C  145   2.939   5.944   2.111  0.0120 -0.1279 -0.1044
    2MOL0     O  146   3.049   5.897   2.182  0.0703 -0.7228  0.7616
    2MOL0     C  147   3.179   5.935   2.135 -0.1886  0.6977 -0.4247
    2MOL0     C  148   3.225   6.077   2.183 -0.1209  0.1932 -0.4204
    2MOL0     C  149   3.212   6.073   2.336 -0.1752 -0.0084  0.0202
    2MOL0     C  150   3.268   6.193   2.425 -0.3194 -0.7707  0.6067
    2MOL0     C  151   3.411   6.221   2.374 -0.1966  0.4738  0.2334
    2MOL0     C  152   3.483   6.318   2.474  0.6513  0.1999  0.2223
    2MOL0     C  153   3.627   6.328   2.427 -1.1703  0.1457 -0.4648
    2MOL0     C  154   3.641   6.419   2.309 -1.0569 -0.6728 -0.5371
    2MOL0     N  155   3.772   6.409   2.268 -0.2418  0.4797  0.5423
    2MOL0     C  156   3.874   6.472   2.328  1.0073 -0.3618  0.4403
    2MOL0     C  157   3.975   6.464   2.243 -0.8943 -0.1838 -0.7198
    2MOL0     C  158   4.102   6.548   2.252  0.2895 -0.9518  0.8840
    2MOL0     C  159   4.098   6.660   2.142  0.3975 -0.4142  0.0828
    2MOL0     C  160   4.222   6.752   2.147 -0.0700 -0.2839 -0.0506
    2MOL0     C  161   4.220   6.839   2.019  0.5799  0.0403  0.2638
    2MOL0     O  162   4.221   6.758   1.903  0.5930  0.3656  0.2855
    2MOL0     C  163   4.194   6.817   1.785 -0.9746 -0.3123 -0.2310
    2MOL0     C  164   4.151   6.948   1.765 -0.1908 -0.2730 -1.7363
    2MOL0     C  165   4.123   7.004   1.644  0.8538 -0.1096 -0.4514
    2MOL0     C  166   4.078   7.148   1.654  0.2375 -0.3362 -0.2669
    2MOL0     C  167   4.135   6.933   1.526  0.2989 -0.8536 -0.3842
    2MOL0     C  168   4.118   6.973   1.390 -0.5254  0.0534  0.0789
    2MOL0     O  169   4.123   6.886   1.291 -0.1577  0.1740 -0.3227
    2MOL0     C  170   4.100   6.939   1.169  0.0023  0.2424  0.0446
    2MOL0     C  171   3.992   6.894   1.087  0.8422 -0.1196 -0.3331
    2MOL0     C  172   3.986   6.934   0.958  0.5553 -0.4407  0.1902
    2MOL0     C  173   4.083   7.023   0.903  0.1895  0.1611 -0.1975
    2MOL0     O  174   4.092   7.067   0.772  0.0001  0.2158 -0.1049
    2MOL0     C  175   3.994   7.031   0.675  0.4757  0.6060  0.7069
    2MOL0     C  176   4.016   7.143   0.565 -0.7657 -0.8716 -0.3507
    2MOL0     C  177   4.144   7.107   0.486  0.2395 -1.6216 -0.6148
    2MOL0     C  178   4.200   7.228   0.400  0.2623  1.0233 -1.0065
    2MOL0     C  179   4.313   7.191   0.299  0.4928 -0.6643 -0.4960
    2MOL0     C  180   4.246   7.134   0.169 -0.3011 -0.3274 -0.5806
    2MOL0     C  181   4.340   7.129   0.050 -0.1809 -0.5693  0.0933
    2MOL0     C  182   4.458   7.028   0.060  1.6598 -0.1706 -0.0233
    2MOL0    Cl  183   4.385   6.865   0.069  0.4849 -0.0588  0.1231
    2MOL0     C  184   4.184   7.067   0.983 -1.0233 -0.2462  0.4439
    2MOL0     C  185   4.199   7.032   1.117  0.4584  0.2919  0.1796
    2MOL0     O  186   4.107   7.093   1.374  0.0282 -0.0995 -0.3927
    2MOL0     C  187   4.179   6.802   1.543 -1.1563  0.8087 -0.2867
    2MOL0     C  188   4.209   6.748   1.666 -0.4977  0.1450 -0.6747
    2MOL0     N  189   3.941   6.389   2.132  0.2466  0.0804 -0.4518
    2MOL0     N  190   3.820   6.347   2.152 -0.4372  0.0914  0.8912
    2MOL0     C  191   2.866   6.054   2.141 -0.2607  0.0342  0.0743
    2MOL0     C  192   2.755   6.091   2.066  0.2184  0.6428  0.1624
    2MOL0     C  193   2.417   5.972   1.755  0.1039 -0.1856  1.1663
    2MOL0     C  194   2.447   6.090   1.686 -0.6906 -0.0890 -0.0151
    2MOL0     C  195   2.379   6.136   1.574 -0.4809 -0.5158 -1.0982
    2MOL0     C  196   2.286   6.052   1.512 -0.0818 -0.8418  0.0581
    2MOL0     O  197   2.235   6.091   1.395 -0.2425 -0.0414  0.6630
    2MOL0     C  198   2.119   6.018   1.343 -0.8473 -0.7329  1.0714
    2MOL0     C  199   2.098   6.075   1.196  0.2714 -0.8946  1.0932
    2MOL0     C  200   2.203   6.019   1.096  0.1028  0.5227  0.7007
    2MOL0     C  201   2.327   6.117   1.080 -0.2544  0.0837  0.5966
    2MOL0     C  202   2.409   6.073   0.960  0.3265  0.1616  0.2898
    2MOL0     C  203   2.467   6.031   0.854 -0.2565 -0.1816  0.6972
    2MOL0     C  204   2.254   5.930   1.576 -0.0058 -0.7934  0.8665
    2MOL0     C  205   2.315   5.895   1.694 -0.6766  0.6903  0.5915
    2MOL0     C  206   2.298   5.758   1.754  0.3027 -0.2679  1.4662
    2MOL0     H  207   2.761   5.821   1.851  1.5232  0.5251 -0.0548
    2MOL0     H  208   2.957   5.773   1.984  1.0502 -0.4277  2.5386
    2MOL0     H  209   3.189   5.940   2.026 -1.5663  1.2301 -0.5449
    2MOL0     H  210   3.246   5.862   2.181 -1.5394  1.5783  3.2952
    2MOL0     H  211   3.328   6.100   2.154  0.0018  1.8930  1.1003
    2MOL0     H  212   3.166   6.160   2.143 -4.9612 -2.7843 -0.2486
    2MOL0     H  213   3.103   6.068   2.348 -0.1000  0.4740  1.0551
    2MOL0     H  214   3.266   5.985   2.371  1.1549  0.7100 -0.1623
    2MOL0     H  215   3.191   6.271   2.419  0.3289  0.0005  2.0467
    2MOL0     H  216   3.281   6.166   2.530  2.7801  0.1687  0.5595
    2MOL0     H  217   3.417   6.269   2.276 -1.4731 -1.9479 -1.1378
    2MOL0     H  218   3.469   6.129   2.361 -1.1224 -0.0225 -0.5230
    2MOL0     H  219   3.431   6.413   2.463  0.8541  0.2462 -0.3891
    2MOL0     H  220   3.481   6.291   2.580  1.1825  0.8958  0.4209
    2MOL0     H  221   3.676   6.233   2.402  0.0794  1.2965 -2.7353
    2MOL0     H  222   3.679   6.365   2.516  1.7787  0.6150 -2.2514
    2MOL0     H  223   3.581   6.392   2.222 -0.0103  1.0686 -1.8634
    2MOL0     H  224   3.620   6.523   2.336  0.4530 -0.3390 -0.5581
    2MOL0     H  225   3.859   6.530   2.419 -3.7345  2.8745 -1.9643
    2MOL0     H  226   4.196   6.495   2.232  2.2453  1.9252  1.8786
    2MOL0     H  227   4.111   6.597   2.349  1.6081 -2.5158  1.6078
    2MOL0     H  228   4.102   6.613   2.044 -1.6053  0.8359 -0.6623
    2MOL0     H  229   4.002   6.713   2.141 -1.2072 -3.0141  1.9515
    2MOL0     H  230   4.214   6.806   2.242  0.9300 -2.0337  1.0813
    2MOL0     H  231   4.310   6.687   2.144 -0.6437 -1.0557 -0.9825
    2MOL0     H  232   4.130   6.901   2.025  0.7877  0.4875 -1.1207
    2MOL0     H  233   4.309   6.901   2.011  0.4888  0.5052  2.1926
    2MOL0     H  234   4.140   7.014   1.850  0.1684 -0.9166 -1.1828
    2MOL0     H  235   4.157   7.205   1.604  1.4324 -2.1838 -0.5786
    2MOL0     H  236   4.076   7.185   1.756  1.8504 -1.8045  0.3528
    2MOL0     H  237   3.980   7.161   1.605  1.7449 -1.7541 -4.0778
    2MOL0     H  238   3.919   6.830   1.136 -0.0567  3.3798  3.5050
    2MOL0     H  239   3.898   6.899   0.904  1.6214 -1.4351 -0.9737
    2MOL0     H  240   4.005   6.929   0.637  1.3302  1.2892 -0.9765
    2MOL0     H  241   3.894   7.045   0.717  0.4940  0.6016  0.7520
    2MOL0     H  242   3.919   7.149   0.515 -0.7728  0.9084 -0.1782
    2MOL0     H  243   4.033   7.240   0.613  2.1139 -2.4752  2.2315
    2MOL0     H  244   4.136   7.014   0.429  2.6584 -2.6552  0.5659
    2MOL0     H  245   4.216   7.087   0.566 -0.2374 -0.6324  0.0771
    2MOL0     H  246   4.244   7.285   0.483 -2.1955 -1.5238  2.2635
    2MOL0     H  247   4.125   7.289   0.348  1.4836  2.5186 -1.1257
    2MOL0     H  248   4.373   7.278   0.269  0.6366 -0.6348 -0.1334
    2MOL0     H  249   4.384   7.120   0.342  0.7446 -0.9262 -1.3176
    2MOL0     H  250   4.173   7.207   0.136  0.1736 -0.9054 -3.1558
    2MOL0     H  251   4.200   7.036   0.189  4.0355 -2.5425 -0.1574
    2MOL0     H  252   4.382   7.229   0.042  0.3647 -0.8091 -0.1004
    2MOL0     H  253   4.286   7.102  -0.041 -4.2338 -0.8568  2.3390
    2MOL0     H  254   4.510   7.060   0.152  2.5948  1.4618 -1.0520
    2MOL0     H  255   4.529   7.042  -0.022  2.3957  3.4237  1.0378
    2MOL0     H  256   4.258   7.138   0.946  1.4187 -2.3543  0.9770
    2MOL0     H  257   4.282   7.072   1.173  0.7919 -0.8906  0.5661
    2MOL0     H  258   4.193   6.733   1.460  1.1300 -1.1218  1.5577
    2MOL0     H  259   4.227   6.642   1.678  1.1804  0.3254 -1.3822
    2MOL0     H  260   2.905   6.115   2.222 -0.8288  1.5627 -0.7579
    2MOL0     H  261   2.711   6.188   2.087 -1.6002 -0.3343  1.1445
    2MOL0     H  262   2.522   6.160   1.722 -1.8195  0.0996  2.1094
    2MOL0     H  263   2.406   6.232   1.529 -0.0906 -0.0950  0.0067
    2MOL0     H  264   2.120   5.910   1.327  0.3320 -0.3903 -1.7236
    2MOL0     H  265   2.033   6.051   1.403 -3.1690  0.4691 -2.5574
    2MOL0     H  266   2.101   6.184   1.198 -0.1527 -0.7270 -2.1164
    2MOL0     H  267   2.002   6.047   1.151  0.0002 -2.2030  2.4019
    2MOL0     H  268   2.229   5.917   1.126 -0.9523  0.6304  2.0391
    2MOL0     H  269   2.150   6.006   1.001  3.5757 -0.8470 -1.2448
    2MOL0     H  270   2.384   6.116   1.174 -2.2198  0.2882  1.8609
    2MOL0     H  271   2.289   6.219   1.069 -2.9721 -1.0034 -0.9016
    2MOL0     H  272   2.498   6.007   0.754 -2.0323  1.9193 -0.4460
    2MOL0     H  273   2.188   5.862   1.523  1.6700 -0.3644 -1.9517
    2MOL0     H  274   2.287   5.768   1.863  0.8231  1.4264  1.3865
    2MOL0     H  275   2.208   5.705   1.720  2.0108 -2.5577  0.2363
    2MOL0     H  276   2.377   5.683   1.748 -2.2701 -3.0294 -1.0589
    3MOL0     O  277   9.675   4.311   5.955  0.0259  0.1985  0.2690
    3MOL0     C  278   9.603   4.250   6.036 -0.0781 -0.5726 -0.3380
    3MOL0     O  279   9.646   4.159   6.124 -0.3143  0.1292 -0.1419
    3MOL0     C  280   9.779   4.169   6.161 -0.8169 -0.2334 -0.4463
    3MOL0     C  281   9.874   4.109   6.075 -0.4843 -0.0694 -0.0992
    3MOL0     C  282  10.007   4.096   6.115 -0.6093  0.0514 -0.7381
    3MOL0     C  283  10.050   4.145   6.238 -0.3575 -0.3100 -0.0085
    3MOL0     O  284  10.178   4.144   6.276  1.0462  0.3558  0.0511
    3MOL0     C  285  10.225   4.007   6.267 -0.8325 -0.0221 -0.1505
    3MOL0     C  286  10.373   4.010   6.325 -0.1374 -0.4156  1.2861
    3MOL0     C  287  10.428   3.866   6.350 -0.8653  0.3255 -0.2119
    3MOL0     C  288  10.341   3.778   6.441 -0.1930  0.0237 -1.1709
    3MOL0     C  289  10.422   3.647   6.463  1.3813 -0.4288 -0.6011
    3MOL0     C  290  10.362   3.570   6.584 -0.6487 -0.2872  0.2209
    3MOL0     C  291  10.458   3.449   6.613  1.3317  0.3842  0.0597
    3MOL0     C  292  10.417   3.321   6.555  0.0551  0.3949 -0.2158
    3MOL0     N  293  10.436   3.314   6.415 -0.3044  0.5293  0.6756
    3MOL0     C  294  10.563   3.296   6.353  0.4324  0.8059 -1.1084
    3MOL0     C  295  10.532   3.311   6.223 -0.7226 -0.1013 -0.6271
    3MOL0     C  296  10.637   3.299   6.118 -0.5122 -0.6901  0.1195
    3MOL0     C  297  10.644   3.420   6.028  0.0152  0.5017 -0.1419
    3MOL0     C  298  10.746   3.397   5.915  0.9697 -1.0381 -0.0849
    3MOL0     C  299  10.742   3.522   5.828  0.5633  0.2610  0.4069
    3MOL0     O  300  10.772   3.638   5.903 -0.5950 -0.1444  0.4016
    3MOL0     C  301  10.836   3.741   5.829 -0.3323  0.1786 -0.5813
    3MOL0     C  302  10.967   3.730   5.788  0.7822 -0.5757 -0.1859
    3MOL0     C  303  11.024   3.834   5.716  0.2109  0.5297  1.2722
    3MOL0     C  304  11.168   3.826   5.670 -0.5925 -0.5124 -0.2589
    3MOL0     C  305  10.944   3.948   5.678 -0.7544 -0.5381 -0.6532
    3MOL0     C  306  11.005   4.057   5.596 -0.0865 -0.5349 -0.0249
    3MOL0     O  307  10.982   4.191   5.627 -0.0051 -0.2071 -0.0406
    3MOL0     C  308  11.055   4.297   5.578 -0.0365 -1.1615 -0.2234
    3MOL0     C  309  11.001   4.426   5.572 -0.4280  0.4048  0.8898
    3MOL0     C  310  11.068   4.535   5.515  0.6032  0.4795 -0.5765
    3MOL0     C  311  11.197   4.521   5.470 -0.3034 -1.1410 -0.1436
    3MOL0     O  312  11.270   4.627   5.410  0.4238  0.4209 -0.3177
    3MOL0     C  313  11.196   4.698   5.310  0.6121  0.4351 -0.0334
    3MOL0     C  314  11.286   4.775   5.209  0.2195 -0.5366  0.0910
    3MOL0     C  315  11.190   4.840   5.112 -0.2945  0.2988  0.6072
    3MOL0     C  316  11.254   4.869   4.976  0.5032  0.4386 -0.4323
    3MOL0     C  317  11.158   4.952   4.890 -0.4455 -0.0765  0.6009
    3MOL0     C  318  11.039   4.878   4.811 -0.1478 -0.5058 -0.1361
    3MOL0     C  319  10.980   4.973   4.709  0.5805 -0.6872  0.8098
    3MOL0     C  320  10.901   4.892   4.600  1.3616  0.8072  0.2542
    3MOL0    Cl  321  10.874   4.983   4.459  0.8435  0.4493  0.4132
    3MOL0     C  322  11.263   4.400   5.491 -0.3221 -0.2407 -0.9383
    3MOL0     C  323  11.193   4.293   5.534  1.1238  0.3224  0.0616
    3MOL0     O  324  11.055   4.018   5.497  0.1373  0.9805  0.6379
    3MOL0     C  325  10.818   3.966   5.732  0.1794 -1.0942 -0.6037
    3MOL0     C  326  10.763   3.858   5.798  0.2901  0.5738  0.5100
    3MOL0     N  327  10.401   3.333   6.202  1.3684  0.2044 -0.8076
    3MOL0     N  328  10.340   3.335   6.316  0.0310 -0.4834  0.1769
    3MOL0     C  329   9.960   4.218   6.315 -0.7199  0.2978  1.3308
    3MOL0     C  330   9.820   4.219   6.286  0.1176 -0.1622  0.1600
    3MOL0     C  331   9.458   4.280   6.035 -0.0999 -0.5094 -0.5934
    3MOL0     C  332   9.399   4.345   6.145  0.0878 -0.4243  0.5698
    3MOL0     C  333   9.262   4.378   6.145 -1.0848 -0.1499  0.4986
    3MOL0     C  334   9.182   4.341   6.034 -0.0490 -0.2272 -0.8571
    3MOL0     O  335   9.052   4.369   6.038  0.1377 -0.3831  0.3206
    3MOL0     C  336   8.979   4.311   6.147  0.1093 -0.0894 -0.4225
    3MOL0     C  337   8.835   4.328   6.122  0.6738  0.0553 -0.0892
    3MOL0     C  338   8.780   4.274   5.991 -0.3129 -0.6968 -0.0349
    3MOL0     C  339   8.706   4.377   5.901 -0.4532 -0.0767  0.2181
    3MOL0     C  340   8.586   4.438   5.960 -0.0753 -0.0746  0.0262
    3MOL0     C  341   8.499   4.478   6.030 -0.6546 -1.3194 -1.1676
    3MOL0     C  342   9.240   4.277   5.928 -0.3262  0.5182 -0.6887
    3MOL0     C  343   9.378   4.241   5.929  0.2068 -0.0527  0.5321
    3MOL0     C  344   9.425   4.174   5.805 -0.8338  0.6962  0.4141
    3MOL0     H  345   9.841   4.077   5.977  0.7940  0.9344 -0.8989
    3MOL0     H  346  10.075   4.044   6.048 -0.1948  1.9416 -1.8984
    3MOL0     H  347  10.239   3.978   6.163 -3.0580  1.3476 -0.8948
    3MOL0     H  348  10.152   3.941   6.314  1.4318 -1.9292  0.8881
    3MOL0     H  349  10.447   4.062   6.265  2.8476 -3.1701  2.2876
    3MOL0     H  350  10.366   4.067   6.418  0.5451  0.6574  0.7003
    3MOL0     H  351  10.456   3.807   6.262  0.3454  0.7003 -0.1045
    3MOL0     H  352  10.520   3.887   6.405 -0.6212  0.1479 -0.5462
    3MOL0     H  353  10.325   3.820   6.541 -0.9224 -2.2876 -0.2558
    3MOL0     H  354  10.252   3.757   6.381 -1.9834  0.0414  1.3273
    3MOL0     H  355  10.526   3.677   6.480  0.5593  1.8826  0.7753
    3MOL0     H  356  10.423   3.581   6.376  0.1009 -0.0867 -0.9010
    3MOL0     H  357  10.358   3.647   6.662 -2.0906  1.5280 -1.5308
    3MOL0     H  358  10.258   3.540   6.564 -0.3089 -0.9235 -0.6517
    3MOL0     H  359  10.456   3.420   6.718 -1.3170  0.7578  0.1776
    3MOL0     H  360  10.563   3.474   6.596  1.6378  1.4224  2.9587
    3MOL0     H  361  10.477   3.248   6.611 -2.0901  0.6365  2.6060
    3MOL0     H  362  10.311   3.305   6.574 -0.4049 -0.6078 -3.2119
    3MOL0     H  363  10.655   3.273   6.405 -0.5582 -2.3333 -0.5229
    3MOL0     H  364  10.613   3.208   6.062  1.7464 -0.9986 -0.4845
    3MOL0     H  365  10.735   3.281   6.163 -0.1885  2.2239  0.7700
    3MOL0     H  366  10.542   3.426   5.987 -0.0792  1.9117  0.2461
    3MOL0     H  367  10.661   3.513   6.083  3.0119  2.5490 -4.0222
    3MOL0     H  368  10.846   3.370   5.949  2.1021  2.1679 -0.5245
    3MOL0     H  369  10.717   3.315   5.848 -0.5990  2.5091 -4.1990
    3MOL0     H  370  10.811   3.512   5.744 -0.4666  0.9226 -0.5494
    3MOL0     H  371  10.644   3.525   5.780  0.4417  0.2178  0.6492
    3MOL0     H  372  11.022   3.641   5.816 -2.4997 -2.5539  0.6008
    3MOL0     H  373  11.182   3.793   5.567 -1.6584 -4.3382  0.6485
    3MOL0     H  374  11.202   3.750   5.742 -0.8806  0.8314  1.3574
    3MOL0     H  375  11.219   3.922   5.683 -1.9932  0.1459  0.6006
    3MOL0     H  376  10.901   4.445   5.609 -0.2546  1.3875  0.8626
    3MOL0     H  377  11.021   4.633   5.507  3.3433  2.2210  2.3310
    3MOL0     H  378  11.134   4.641   5.239  1.1102  2.3220 -2.1189
    3MOL0     H  379  11.137   4.777   5.358  0.0069  0.5727 -0.9729
    3MOL0     H  380  11.351   4.845   5.262  3.0660 -1.2421 -2.1908
    3MOL0     H  381  11.358   4.714   5.154  0.5825  0.8130 -0.9806
    3MOL0     H  382  11.137   4.928   5.148  1.5022  1.9720 -0.6473
    3MOL0     H  383  11.111   4.771   5.079 -0.9332  1.1230  0.3840
    3MOL0     H  384  11.269   4.779   4.917  0.6793  0.4940 -0.4734
    3MOL0     H  385  11.350   4.922   4.983 -0.1421  1.5539  0.3423
    3MOL0     H  386  11.107   5.032   4.944 -2.9823 -1.2914  0.1427
    3MOL0     H  387  11.227   5.005   4.824 -1.6743 -0.7076 -1.2699
    3MOL0     H  388  10.959   4.846   4.878 -1.1929  2.0458 -0.0593
    3MOL0     H  389  11.085   4.797   4.754  2.2312  1.5864 -1.4039
    3MOL0     H  390  11.043   5.047   4.660  0.2626 -1.1136 -0.2801
    3MOL0     H  391  10.906   5.032   4.764 -1.7022 -1.6166 -1.0364
    3MOL0     H  392  10.811   4.844   4.639  1.8667  0.1713  0.6561
    3MOL0     H  393  10.966   4.814   4.559  0.5291  1.1081 -1.7750
    3MOL0     H  394  11.364   4.390   5.453 -0.0200 -0.1490 -0.1671
    3MOL0     H  395  11.258   4.206   5.534  1.6784  0.6907 -2.0584
    3MOL0     H  396  10.761   4.055   5.708  0.0697 -0.7853  0.7114
    3MOL0     H  397  10.659   3.858   5.830  0.4163  2.5117  1.0305
    3MOL0     H  398   9.992   4.260   6.410  2.2531  0.1798  0.4831
    3MOL0     H  399   9.743   4.262   6.349 -0.5426  0.5145 -1.0806
    3MOL0     H  400   9.456   4.394   6.224 -0.6647  0.4394  0.5930
    3MOL0     H  401   9.217   4.424   6.232  1.6988  3.9547  0.0514
    3MOL0     H  402   9.002   4.205   6.139 -1.2561 -0.6251  1.7856
    3MOL0     H  403   9.011   4.355   6.242  1.6166  1.0882 -1.4285
    3MOL0     H  404   8.809   4.434   6.131  3.5686  0.8643 -0.0564
    3MOL0     H  405   8.782   4.287   6.208 -1.9945  1.9703 -0.7059
    3MOL0     H  406   8.863   4.233   5.932 -0.2855 -0.1999 -0.3519
    3MOL0     H  407   8.711   4.194   6.018 -0.3362  0.3212  3.3269
    3MOL0     H  408   8.686   4.332   5.803 -1.4762  3.0796 -1.1145
    3MOL0     H  409   8.774   4.461   5.884  0.9388 -0.8948  1.5190
    3MOL0     H  410   8.435   4.510   6.110  0.5987 -0.0180 -0.6432
    3MOL0     H  411   9.169   4.238   5.856 -0.6979  0.7790 -0.4628
    3MOL0     H  412   9.512   4.110   5.817 -0.0908  0.6904 -3.5284
    3MOL0     H  413   9.347   4.115   5.756 -1.1406  0.5157  1.1111
    3MOL0     H  414   9.449   4.249   5.728  1.4895 -0.3886 -0.0010
    4MOL0     O  415   4.087   2.948   4.831 -0.2788  0.2416 -0.7760
    4MOL0     C  416   4.005   2.940   4.737 -0.3819 -0.5164  0.3824
    4MOL0     O  417   4.032   2.978   4.605  0.1140 -0.3763 -0.1464
    4MOL0     C  418   4.158   3.028   4.574  0.4360 -0.5254  0.1168
    4MOL0     C  419   4.268   2.943   4.553  0.3427 -0.0350  0.2955
    4MOL0     C  420   4.394   2.990   4.519  0.2142 -1.0093 -0.8544
    4MOL0     C  421   4.418   3.136   4.520 -0.6699 -0.2265 -0.3708
    4MOL0     O  422   4.541   3.180   4.485 -0.3937  0.2489  0.2217
    4MOL0     C  423   4.567   3.315   4.462 -1.4765 -0.8327 -0.6966
    4MOL0     C  424   4.724   3.336   4.461  1.0030  1.0295  0.8570
    4MOL0     C  425   4.768   3.478   4.450 -0.1443  0.5265 -0.0218
    4MOL0     C  426   4.753   3.557   4.583 -0.3292 -0.1395  0.2966
    4MOL0     C  427   4.814   3.698   4.582 -0.6822  0.1881  1.2365
    4MOL0     C  428   4.794   3.754   4.720  0.2372 -0.2678 -0.3520
    4MOL0     C  429   4.854   3.891   4.746  0.4423  0.1490  0.4862
    4MOL0     C  430   4.842   3.947   4.895  0.4402 -0.5262 -0.3443
    4MOL0     N  431   4.848   4.092   4.898  0.4516  0.1148  0.8163
    4MOL0     C  432   4.961   4.158   4.953  0.7609  0.5320 -0.1545
    4MOL0     C  433   4.921   4.287   4.946 -0.2049  0.2319 -0.4085
    4MOL0     C  434   4.998   4.391   5.011 -0.1031 -0.1874  0.0688
    4MOL0     C  435   5.112   4.451   4.933  0.3184 -1.0252  0.0402
    4MOL0     C  436   5.243   4.451   5.011  0.0856  0.5958 -0.4501
    4MOL0     C  437   5.370   4.445   4.917  0.6661  0.6012 -0.7878
    4MOL0     O  438   5.385   4.320   4.849 -0.5586  0.4533  0.8948
    4MOL0     C  439   5.462   4.320   4.727  1.1194 -0.3976  0.7566
    4MOL0     C  440   5.462   4.207   4.648  0.0938 -0.0975 -0.5989
    4MOL0     C  441   5.541   4.188   4.535  0.6806  0.4939 -0.0665
    4MOL0     C  442   5.518   4.050   4.480 -0.6023  0.5751 -0.1713
    4MOL0     C  443   5.636   4.284   4.499  0.7585 -0.3268 -0.2921
    4MOL0     C  444   5.745   4.257   4.402 -0.1214 -0.5453  0.8546
    4MOL0     O  445   5.813   4.366   4.368 -0.0036 -1.8265 -0.2694
    4MOL0     C  446   5.882   4.354   4.242  0.4638  0.3836 -0.7657
    4MOL0     C  447   6.003   4.425   4.230 -0.5937  0.9171 -0.9094
    4MOL0     C  448   6.068   4.423   4.113 -0.5983  0.2045  0.7766
    4MOL0     C  449   6.032   4.339   4.008 -0.2848  0.4809 -0.5342
    4MOL0     O  450   6.101   4.326   3.892 -0.9420  0.4570 -0.3249
    4MOL0     C  451   6.237   4.378   3.895 -0.7739  0.4095  0.4062
    4MOL0     C  452   6.308   4.320   3.774 -0.9755 -0.2134  0.8152
    4MOL0     C  453   6.456   4.360   3.785  0.9074  0.4949 -0.1948
    4MOL0     C  454   6.508   4.343   3.640 -0.6043  0.0374 -0.5538
    4MOL0     C  455   6.660   4.349   3.639  0.0794 -0.4528 -0.4173
    4MOL0     C  456   6.720   4.275   3.515 -0.0786  0.4000 -0.0753
    4MOL0     C  457   6.862   4.230   3.536 -0.1856  0.3617  0.0122
    4MOL0     C  458   6.933   4.168   3.407  1.0020  0.4793  0.4749
    4MOL0    Cl  459   7.102   4.132   3.465 -0.5912  0.1807  0.0711
    4MOL0     C  460   5.919   4.271   4.014  0.6981  0.2533  0.2674
    4MOL0     C  461   5.839   4.280   4.130  0.1490 -0.4930 -0.1252
    4MOL0     O  462   5.771   4.143   4.368 -0.2580  0.3911  0.1051
    4MOL0     C  463   5.624   4.409   4.560 -0.5303  0.4225 -0.8931
    4MOL0     C  464   5.538   4.428   4.672 -0.2252 -0.4817 -0.2987
    4MOL0     N  465   4.806   4.297   4.872 -0.5400 -0.2505 -0.0269
    4MOL0     N  466   4.761   4.176   4.835  0.1522 -0.6442  0.1937
    4MOL0     C  467   4.309   3.222   4.538 -0.2380 -0.0238 -0.0902
    4MOL0     C  468   4.178   3.168   4.555  0.1468  1.2264  1.2397
    4MOL0     C  469   3.868   2.894   4.767 -0.8223  0.7274  0.0156
    4MOL0     C  470   3.810   2.822   4.660  0.0803 -0.1366 -0.3319
    4MOL0     C  471   3.669   2.805   4.656  0.3084  0.0555 -0.0835
    4MOL0     C  472   3.590   2.834   4.767  0.1172 -0.4585  0.0615
    4MOL0     O  473   3.453   2.842   4.763  0.4958  0.0360 -0.1888
    4MOL0     C  474   3.391   2.970   4.792 -0.4034 -1.1213 -0.3807
    4MOL0     C  475   3.284   2.989   4.689  0.0902 -0.0881 -0.3620
    4MOL0     C  476   3.164   2.900   4.697 -0.5896 -0.4090 -0.7909
    4MOL0     C  477   3.071   2.928   4.578  0.4158 -0.1423 -0.0133
    4MOL0     C  478   2.996   3.048   4.596  0.4885  0.4913 -0.4088
    4MOL0     C  479   2.926   3.146   4.609 -0.3007  0.3228  0.3165
    4MOL0     C  480   3.655   2.890   4.878  0.4995 -0.3057  0.3237
    4MOL0     C  481   3.794   2.913   4.885 -0.2615 -0.7881 -0.4990
    4MOL0     C  482   3.849   2.968   5.013 -0.2375  0.0602 -0.3916
    4MOL0     H  483   4.249   2.838   4.573 -1.1887 -0.0191 -0.8647
    4MOL0     H  484   4.483   2.929   4.507  1.1945  0.2270 -0.1956
    4MOL0     H  485   4.529   3.371   4.548 -3.2017 -1.4598 -0.9981
    4MOL0     H  486   4.532   3.354   4.366 -1.8460 -0.2515 -0.3257
    4MOL0     H  487   4.769   3.297   4.553  1.0810  2.5536  1.4818
    4MOL0     H  488   4.766   3.277   4.378 -2.2543  0.6634 -0.6692
    4MOL0     H  489   4.868   3.487   4.406 -0.7781  0.8395 -1.4651
    4MOL0     H  490   4.709   3.532   4.376 -1.4437  2.4233  2.2532
    4MOL0     H  491   4.645   3.560   4.598 -0.4361 -2.4668  0.4183
    4MOL0     H  492   4.796   3.505   4.670 -0.2543  0.0280  0.3614
    4MOL0     H  493   4.768   3.754   4.499  2.0938 -1.4633 -1.6549
    4MOL0     H  494   4.919   3.696   4.553 -0.9534 -1.0443  0.2422
    4MOL0     H  495   4.688   3.763   4.747 -0.1926  1.1981 -2.3022
    4MOL0     H  496   4.836   3.695   4.802  0.2000 -1.4247 -1.1395
    4MOL0     H  497   4.804   3.965   4.682  0.3039  1.3346  1.9171
    4MOL0     H  498   4.961   3.881   4.728  1.0577  3.3878  1.6221
    4MOL0     H  499   4.752   3.919   4.951  1.4044  2.2963  2.9569
    4MOL0     H  500   4.930   3.912   4.949 -0.3227 -1.5709  0.2426
    4MOL0     H  501   5.030   4.113   5.023 -1.5058  0.3844  2.1600
    4MOL0     H  502   5.036   4.345   5.103  1.0093  1.8228  0.6926
    4MOL0     H  503   4.926   4.463   5.052  1.1424  0.4278  1.2220
    4MOL0     H  504   5.123   4.393   4.841 -1.6307 -3.7526  1.3962
    4MOL0     H  505   5.076   4.549   4.899 -2.1096 -2.3387 -1.3962
    4MOL0     H  506   5.254   4.538   5.077  2.0655 -1.4113  2.0902
    4MOL0     H  507   5.254   4.368   5.082  1.7160  2.4024  1.5278
    4MOL0     H  508   5.356   4.524   4.842 -4.1891  1.5673  0.7849
    4MOL0     H  509   5.457   4.467   4.979 -0.5750 -0.1663  1.3224
    4MOL0     H  510   5.398   4.123   4.673 -2.0304  0.9959 -2.1082
    4MOL0     H  511   5.510   4.047   4.371  2.1353 -0.3713 -0.4334
    4MOL0     H  512   5.433   4.003   4.530  1.5064 -2.0604  1.2416
    4MOL0     H  513   5.594   3.973   4.501 -2.4528 -1.1561  0.5166
    4MOL0     H  514   6.026   4.494   4.311 -1.1299  0.3266 -0.2405
    4MOL0     H  515   6.161   4.477   4.126 -2.1195  3.2361  0.1074
    4MOL0     H  516   6.231   4.487   3.904 -3.2673  0.4185 -0.5528
    4MOL0     H  517   6.286   4.340   3.985 -0.2011 -0.2349 -0.1661
    4MOL0     H  518   6.300   4.211   3.770 -0.7158 -0.2156 -1.6945
    4MOL0     H  519   6.259   4.355   3.683  1.3686  0.5175 -0.2605
    4MOL0     H  520   6.498   4.298   3.864  3.2259  2.2846  0.0731
    4MOL0     H  521   6.466   4.466   3.808  3.0892 -0.2938  3.1034
    4MOL0     H  522   6.464   4.424   3.580 -0.5430 -0.7032 -1.6320
    4MOL0     H  523   6.466   4.250   3.602 -0.6048 -0.4154  0.5291
    4MOL0     H  524   6.698   4.451   3.637 -0.5609 -0.1601  1.0637
    4MOL0     H  525   6.700   4.301   3.729  0.5861  2.6868  1.1619
    4MOL0     H  526   6.705   4.344   3.432  0.5736  0.3091 -0.2711
    4MOL0     H  527   6.659   4.187   3.491 -1.7947  0.9168  2.0451
    4MOL0     H  528   6.858   4.151   3.611  0.0723  0.1217 -0.2240
    4MOL0     H  529   6.929   4.306   3.578 -1.6781  0.8443  1.6626
    4MOL0     H  530   6.941   4.234   3.320 -2.4037  2.0952  1.2388
    4MOL0     H  531   6.886   4.074   3.375 -0.0579  1.3630 -0.6401
    4MOL0     H  532   5.890   4.206   3.931 -2.6407  0.9912  0.7085
    4MOL0     H  533   5.736   4.245   4.121 -1.3397  2.9330  1.4763
    4MOL0     H  534   5.679   4.496   4.524  1.3739  0.2165  1.3099
    4MOL0     H  535   5.550   4.525   4.720  1.0239 -0.2403 -1.0355
    4MOL0     H  536   4.320   3.330   4.536 -0.9690  0.0414 -1.0556
    4MOL0     H  537   4.092   3.233   4.566 -0.3690  0.6926  0.4681
    4MOL0     H  538   3.868   2.790   4.574  1.7791  1.6421  0.0840
    4MOL0     H  539   3.634   2.767   4.560 -0.4902  0.5361  0.0054
    4MOL0     H  540   3.343   2.962   4.890 -2.0626 -2.9717 -1.2716
    4MOL0     H  541   3.460   3.054   4.791 -2.8994  1.0444 -0.4394
    4MOL0     H  542   3.327   2.976   4.589 -0.1595 -0.3375 -0.4379
    4MOL0     H  543   3.247   3.092   4.688 -0.1877 -0.1890 -1.1166
    4MOL0     H  544   3.196   2.795   4.694  0.1661 -0.1674 -1.9892
    4MOL0     H  545   3.125   2.919   4.798  0.6859 -1.5449 -0.0486
    4MOL0     H  546   2.993   2.852   4.575  1.2485 -0.9908 -2.4055
    4MOL0     H  547   3.129   2.910   4.488  0.4332 -2.0178  0.3301
    4MOL0     H  548   2.852   3.224   4.611 -1.0886 -0.3756 -0.6727
    4MOL0     H  549   3.591   2.915   4.962  0.9614  1.5476  0.1741
    4MOL0     H  550   3.889   3.065   4.980  0.2909 -0.3131 -0.8552
    4MOL0     H  551   3.767   2.988   5.083  1.3946 -1.0994  1.9769
    4MOL0     H  552   3.935   2.919   5.060 -0.9226  0.4120  1.3310
    5MOL0     O  553  10.153   6.086  10.820 -0.2026 -0.2264 -0.5149
    5MOL0     C  554  10.152   5.968  10.791 -0.4644  0.7159 -0.1004
    5MOL0     O  555  10.263   5.886  10.781 -0.7174  0.7411 -0.6387
    5MOL0     C  556  10.378   5.930  10.842 -0.0571  0.5458 -0.3111
    5MOL0     C  557  10.473   5.996  10.767  0.1405  0.2616  0.2512
    5MOL0     C  558  10.599   6.016  10.826 -0.4234 -0.4411 -0.9571
    5MOL0     C  559  10.624   5.988  10.959  0.4476  0.1426  0.2539
    5MOL0     O  560  10.747   5.995  11.021 -0.2816  0.4116  0.1972
    5MOL0     C  561  10.855   6.042  10.938 -0.2150 -0.2246 -0.6888
    5MOL0     C  562  10.968   6.063  11.043  0.2001 -0.1044 -0.4349
    5MOL0     C  563  11.101   6.046  10.965 -0.9040 -0.6405 -0.8205
    5MOL0     C  564  11.229   6.061  11.056  0.2924  0.0213  0.6128
    5MOL0     C  565  11.361   6.070  10.975 -0.5252 -0.2302  0.0746
    5MOL0     C  566  11.486   6.103  11.074  0.2296 -0.4862  0.0504
    5MOL0     C  567  11.619   6.076  11.010 -0.1886 -0.6747 -0.1725
    5MOL0     C  568  11.650   6.196  10.915  0.2504 -0.1176 -0.8247
    5MOL0     N  569  11.794   6.186  10.888  0.6444  0.5082  0.1108
    5MOL0     C  570  11.895   6.267  10.927 -0.1476 -0.7361  1.2281
    5MOL0     C  571  12.006   6.201  10.891 -0.1408  0.3043 -0.0528
    5MOL0     C  572  12.141   6.252  10.941 -0.0768 -0.2787  0.5403
    5MOL0     C  573  12.260   6.154  10.912  0.0537 -0.1982 -0.0858
    5MOL0     C  574  12.395   6.200  10.967  0.6100 -0.1986  0.2916
    5MOL0     C  575  12.459   6.318  10.886 -0.0944 -0.2375  0.4932
    5MOL0     O  576  12.588   6.333  10.933 -0.0824 -0.5774 -0.2062
    5MOL0     C  577  12.671   6.405  10.850  0.6624 -0.3811 -0.3268
    5MOL0     C  578  12.661   6.545  10.836 -0.8982 -0.4008  0.4916
    5MOL0     C  579  12.735   6.624  10.754  0.1259  0.4528  0.7753
    5MOL0     C  580  12.683   6.768  10.740  0.1210 -1.3153 -0.5677
    5MOL0     C  581  12.823   6.559  10.660  0.4131 -0.8995 -0.1986
    5MOL0     C  582  12.892   6.623  10.546 -0.3323  0.0556 -0.1653
    5MOL0     O  583  12.988   6.550  10.474  0.3206 -0.2432 -0.6776
    5MOL0     C  584  13.079   6.601  10.377 -0.1175  0.2787 -0.6527
    5MOL0     C  585  13.138   6.516  10.280  0.1267 -0.2013 -0.2473
    5MOL0     C  586  13.243   6.556  10.189  0.5345  0.5992  0.2746
    5MOL0     C  587  13.294   6.682  10.194  0.6492  0.6064  0.1177
    5MOL0     O  588  13.393   6.706  10.100  0.0654 -0.0896 -0.6779
    5MOL0     C  589  13.450   6.839  10.086 -0.2200 -0.8982 -0.2031
    5MOL0     C  590  13.544   6.869  10.200  0.2794 -0.4626 -0.8418
    5MOL0     C  591  13.582   7.017  10.201 -0.2106  0.3613  0.0797
    5MOL0     C  592  13.692   7.041  10.100  0.0951  0.4491  0.2956
    5MOL0     C  593  13.720   7.193  10.087 -0.3684  0.9377 -0.3790
    5MOL0     C  594  13.811   7.208   9.962 -0.0917 -0.2435  0.8468
    5MOL0     C  595  13.818   7.362   9.940 -0.0233  0.1382 -0.1871
    5MOL0     C  596  13.898   7.419   9.820  0.8685 -0.8300 -0.1028
    5MOL0    Cl  597  13.908   7.296   9.693 -0.3694  0.0416 -0.0653
    5MOL0     C  598  13.235   6.776  10.285 -0.2745  0.1025  0.4962
    5MOL0     C  599  13.130   6.736  10.376  0.5811 -1.1989  0.2418
    5MOL0     O  600  12.871   6.740  10.529  0.6948 -0.1388 -0.2105
    5MOL0     C  601  12.842   6.420  10.679 -0.2258 -0.2094  0.0374
    5MOL0     C  602  12.766   6.344  10.778  0.0348  0.5100  1.1168
    5MOL0     N  603  11.975   6.093  10.811 -0.5304  0.3527  0.0313
    5MOL0     N  604  11.847   6.087  10.811 -0.1871  0.3769 -0.2964
    5MOL0     C  605  10.509   5.940  11.037 -0.5477  0.6237 -0.6446
    5MOL0     C  606  10.392   5.907  10.976 -0.3182  0.2526 -0.3682
    5MOL0     C  607  10.025   5.903  10.731 -0.0901 -0.2942 -0.0347
    5MOL0     C  608  10.023   5.813  10.625 -0.6752  0.5185  0.4531
    5MOL0     C  609   9.899   5.772  10.574 -0.5671  0.8785  0.2080
    5MOL0     C  610   9.781   5.819  10.618  0.3401  0.5470 -1.2204
    5MOL0     O  611   9.665   5.771  10.557 -0.0325 -0.1901 -0.3449
    5MOL0     C  612   9.547   5.836  10.592 -0.0063  0.3250 -0.8646
    5MOL0     C  613   9.443   5.812  10.472 -0.1778  0.4676  0.1008
    5MOL0     C  614   9.399   5.658  10.468  0.4136 -0.1755  0.0605
    5MOL0     C  615   9.336   5.607  10.335 -0.2082 -0.3748  0.0084
    5MOL0     C  616   9.198   5.658  10.308 -0.7455  0.0790 -0.7258
    5MOL0     C  617   9.086   5.673  10.269 -0.4628 -0.1074  0.0146
    5MOL0     C  618   9.783   5.901  10.734  0.0565 -0.0634 -0.1543
    5MOL0     C  619   9.902   5.930  10.796  0.7337 -0.0261  0.6942
    5MOL0     C  620   9.900   6.001  10.922 -0.2530  0.1471  0.1848
    5MOL0     H  621  10.456   6.011  10.661 -2.0326 -2.1485  0.1767
    5MOL0     H  622  10.679   6.059  10.766  0.9536 -3.1519 -1.2446
    5MOL0     H  623  10.836   6.139  10.892  1.3950  0.6103  0.3038
    5MOL0     H  624  10.889   5.960  10.874 -1.9682 -0.1837 -1.7373
    5MOL0     H  625  10.965   6.151  11.108  2.1791  0.4191 -0.9948
    5MOL0     H  626  10.959   5.979  11.113 -4.1198  0.5584  0.0797
    5MOL0     H  627  11.105   5.961  10.897  0.7933 -0.2849 -1.2178
    5MOL0     H  628  11.111   6.138  10.906 -0.5950  0.7902  1.3391
    5MOL0     H  629  11.229   6.163  11.097  0.3395 -0.7411  2.5617
    5MOL0     H  630  11.230   5.991  11.139  0.9435 -0.7850 -0.0665
    5MOL0     H  631  11.361   6.130  10.884 -1.7074  0.2043  0.3409
    5MOL0     H  632  11.386   5.969  10.942  0.8294 -0.0992  0.6513
    5MOL0     H  633  11.486   6.209  11.103 -0.3748  0.3346 -2.6651
    5MOL0     H  634  11.473   6.047  11.167  0.9153  0.4428  0.7281
    5MOL0     H  635  11.634   5.985  10.951 -0.7643 -1.1907  0.4517
    5MOL0     H  636  11.689   6.070  11.094 -0.2279  0.4265 -0.0555
    5MOL0     H  637  11.592   6.176  10.824  2.3557 -4.3731 -1.5146
    5MOL0     H  638  11.627   6.295  10.955  3.4674 -0.5711  2.7131
    5MOL0     H  639  11.888   6.356  10.990  0.0317 -0.2885  0.6296
    5MOL0     H  640  12.126   6.288  11.043  1.3869  2.5619 -0.1181
    5MOL0     H  641  12.160   6.339  10.877 -0.9855 -1.7535 -1.8425
    5MOL0     H  642  12.241   6.052  10.949  0.9736 -1.0136 -1.7843
    5MOL0     H  643  12.267   6.143  10.804 -2.0679 -2.3628 -0.0957
    5MOL0     H  644  12.389   6.224  11.074 -1.9096 -2.2820  0.7294
    5MOL0     H  645  12.465   6.117  10.956  2.1213  0.9790  0.6574
    5MOL0     H  646  12.463   6.286  10.782  2.4810  1.2997  0.0354
    5MOL0     H  647  12.402   6.409  10.909  0.7541 -0.2585  3.0486
    5MOL0     H  648  12.579   6.587  10.893  0.9383  3.7436  0.3803
    5MOL0     H  649  12.604   6.798  10.809  2.4354  3.7270  0.4052
    5MOL0     H  650  12.661   6.796  10.636 -2.9024 -0.9949  0.0749
    5MOL0     H  651  12.762   6.837  10.774 -0.0399 -1.0083 -0.8060
    5MOL0     H  652  13.106   6.415  10.258 -1.2637  0.5656 -1.9687
    5MOL0     H  653  13.305   6.490  10.130  1.2168  1.0424  0.4870
    5MOL0     H  654  13.512   6.840   9.996 -1.5846  2.0331 -1.2435
    5MOL0     H  655  13.370   6.913  10.071 -0.3663 -0.7824  1.1039
    5MOL0     H  656  13.498   6.850  10.298 -0.1981 -0.9799 -1.1580
    5MOL0     H  657  13.636   6.810  10.203  0.4426 -0.6591 -4.8265
    5MOL0     H  658  13.619   7.050  10.298 -2.1172  0.0563  0.9617
    5MOL0     H  659  13.496   7.072  10.160  0.2232  0.4680 -0.7041
    5MOL0     H  660  13.664   7.001  10.002 -1.5850  1.1620  0.4602
    5MOL0     H  661  13.790   7.000  10.126 -0.4125 -1.4797 -0.6831
    5MOL0     H  662  13.627   7.248  10.072 -1.9802 -1.4845  0.0889
    5MOL0     H  663  13.767   7.233  10.178 -1.2264  3.0876 -0.8062
    5MOL0     H  664  13.766   7.164   9.872 -2.2016  2.9614  0.1639
    5MOL0     H  665  13.912   7.167   9.967 -0.4897 -1.6206 -1.1192
    5MOL0     H  666  13.859   7.404  10.033  1.6958  0.7200 -1.1742
    5MOL0     H  667  13.716   7.395   9.919 -0.2747  2.3375  3.6113
    5MOL0     H  668  13.993   7.447   9.867 -0.5780  1.0350  1.8924
    5MOL0     H  669  13.847   7.508   9.782 -0.3442 -1.6511 -0.4565
    5MOL0     H  670  13.269   6.879  10.288 -1.3164  0.4411  1.4005
    5MOL0     H  671  13.110   6.809  10.454 -1.6700 -2.6568  1.1410
    5MOL0     H  672  12.929   6.383  10.626 -0.0745 -0.8376  0.7132
    5MOL0     H  673  12.769   6.236  10.787 -3.4523  0.2992  0.9868
    5MOL0     H  674  10.532   5.907  11.138  1.9661  0.5184 -1.1775
    5MOL0     H  675  10.312   5.862  11.034  0.9010 -0.2091  1.0282
    5MOL0     H  676  10.115   5.791  10.571  0.4938  2.2841  1.5975
    5MOL0     H  677   9.890   5.713  10.484 -2.2706  1.2934  0.0694
    5MOL0     H  678   9.517   5.792  10.687  2.2107  4.1636  1.9092
    5MOL0     H  679   9.548   5.943  10.614 -0.2962  0.1965 -0.2286
    5MOL0     H  680   9.504   5.833  10.383  0.5296  2.4387  0.9893
    5MOL0     H  681   9.356   5.877  10.476 -0.1749  0.7225 -2.3120
    5MOL0     H  682   9.482   5.593  10.496 -0.5202 -1.1266  0.7167
    5MOL0     H  683   9.320   5.648  10.543  1.0903  2.0932  1.1836
    5MOL0     H  684   9.337   5.498  10.337  2.1465 -0.7242 -4.8857
    5MOL0     H  685   9.401   5.648  10.258  2.8711 -0.1730  2.4987
    5MOL0     H  686   8.980   5.680  10.253 -0.5533  0.0978  0.6615
    5MOL0     H  687   9.692   5.924  10.789 -0.1718  1.0751 -0.9753
    5MOL0     H  688   9.984   5.962  10.980 -0.0175 -3.4734 -2.2117
    5MOL0     H  689   9.913   6.108  10.904  0.7092 -0.3525 -2.4976
    5MOL0     H  690   9.805   5.977  10.972 -1.1450  2.8389 -0.0839
    6MOL0     O  691   4.379   9.517   1.341  0.0492  1.0220  0.2073
    6MOL0     C  692   4.374   9.470   1.451 -0.6422  0.1984 -0.5956
    6MOL0     O  693   4.469   9.483   1.549  0.0890 -0.1764 -0.3616
    6MOL0     C  694   4.591   9.551   1.520  0.3163  0.4573 -0.9556
    6MOL0     C  695   4.627   9.655   1.605  0.7471  0.2587  0.5231
    6MOL0     C  696   4.752   9.718   1.590 -0.8495  0.0444 -0.7714
    6MOL0     C  697   4.841   9.678   1.480 -0.1839 -0.8879 -0.0052
    6MOL0     O  698   4.960   9.738   1.458 -0.6673  0.0088 -0.9384
    6MOL0     C  699   5.025   9.810   1.559  0.0399 -0.2476 -0.2745
    6MOL0     C  700   5.164   9.866   1.519  0.9524 -0.7917 -0.8038
    6MOL0     C  701   5.257   9.769   1.452  0.7241  0.5200 -0.1636
    6MOL0     C  702   5.393   9.825   1.456 -0.6048  0.0036 -0.0473
    6MOL0     C  703   5.484   9.733   1.382 -0.3530 -0.5221 -0.4792
    6MOL0     C  704   5.605   9.807   1.325 -0.1226 -0.8070  0.4706
    6MOL0     C  705   5.716   9.708   1.278 -0.4321 -0.1629  0.0048
    6MOL0     C  706   5.817   9.791   1.195  0.1492 -0.6128  0.3271
    6MOL0     N  707   5.940   9.723   1.168  0.4615 -0.9701  0.0117
    6MOL0     C  708   5.971   9.666   1.049 -0.1749 -0.0772  0.1431
    6MOL0     C  709   6.099   9.634   1.054  0.6807 -0.4491  0.6346
    6MOL0     C  710   6.195   9.588   0.950  0.7956 -0.6752 -0.0628
    6MOL0     C  711   6.267   9.459   0.981  0.2469 -0.3607 -0.2426
    6MOL0     C  712   6.380   9.432   0.888  0.2826  0.1005 -0.1476
    6MOL0     C  713   6.455   9.308   0.935 -1.0748  0.0806  0.5549
    6MOL0     O  714   6.501   9.239   0.823 -0.6674 -0.1920 -0.6572
    6MOL0     C  715   6.572   9.122   0.839 -0.0237 -0.5227  0.0727
    6MOL0     C  716   6.656   9.081   0.736  0.0479  0.2056 -1.1231
    6MOL0     C  717   6.733   8.964   0.732 -0.5562 -0.2492  0.3225
    6MOL0     C  718   6.817   8.935   0.615 -0.6343 -0.4690 -0.0826
    6MOL0     C  719   6.730   8.878   0.843  0.1777 -0.7207 -0.4378
    6MOL0     C  720   6.808   8.756   0.842 -0.0574 -0.2549 -0.1481
    6MOL0     O  721   6.833   8.693   0.725 -0.8776  0.1912  0.0247
    6MOL0     C  722   6.900   8.568   0.722  0.7339  0.0616 -0.0287
    6MOL0     C  723   6.863   8.480   0.619  0.0026  0.7405 -0.2339
    6MOL0     C  724   6.912   8.348   0.625  0.0638 -1.0026  0.1572
    6MOL0     C  725   7.012   8.308   0.721  0.4048  0.6146 -0.0127
    6MOL0     O  726   7.061   8.173   0.730  0.2236  0.5181 -0.0946
    6MOL0     C  727   6.952   8.064   0.709  0.1396 -1.0263 -0.4121
    6MOL0     C  728   6.992   7.942   0.779 -0.6999  0.1539 -0.5223
    6MOL0     C  729   6.914   7.816   0.742 -0.0172 -0.2487 -0.1740
    6MOL0     C  730   6.916   7.792   0.594  0.1360 -0.5912  0.3811
    6MOL0     C  731   6.866   7.649   0.566 -0.3274 -0.0701  0.2409
    6MOL0     C  732   6.719   7.613   0.585  0.5501  0.1107  0.8314
    6MOL0     C  733   6.688   7.460   0.559  0.1682 -0.1537 -1.2069
    6MOL0     C  734   6.654   7.380   0.686 -0.2304 -0.4747 -0.8975
    6MOL0    Cl  735   6.523   7.447   0.781  0.2071 -0.1451 -0.1747
    6MOL0     C  736   7.065   8.401   0.808 -0.8335 -0.2816  0.0633
    6MOL0     C  737   7.011   8.536   0.807  0.9894  0.1353  0.2689
    6MOL0     O  738   6.827   8.706   0.949  0.8563  0.4600  0.8969
    6MOL0     C  739   6.656   8.920   0.960 -0.7098 -0.3523  0.4687
    6MOL0     C  740   6.588   9.050   0.959  0.5420 -0.0840 -0.3823
    6MOL0     N  741   6.144   9.662   1.185  0.6106 -0.4916 -0.4004
    6MOL0     N  742   6.042   9.712   1.257  0.5675 -0.2432 -0.3459
    6MOL0     C  743   4.795   9.583   1.397 -0.1691  0.0831  1.1472
    6MOL0     C  744   4.676   9.516   1.420  0.0444 -0.1887  0.6795
    6MOL0     C  745   4.270   9.366   1.482  0.2053 -0.9578  0.4636
    6MOL0     C  746   4.307   9.255   1.555  0.8005 -0.4530 -0.0032
    6MOL0     C  747   4.207   9.159   1.588  0.3153  0.1591 -0.0859
    6MOL0     C  748   4.071   9.171   1.554  0.3701  0.2513 -0.0461
    6MOL0     O  749   3.974   9.086   1.599 -0.2240  0.3537  0.2386
    6MOL0     C  750   3.982   8.961   1.533 -0.5824  0.1401  0.5338
    6MOL0     C  751   3.858   8.879   1.567  0.4548 -0.6999 -1.0411
    6MOL0     C  752   3.845   8.857   1.723  0.1076  0.3881  0.5190
    6MOL0     C  753   3.974   8.800   1.798  0.6215  0.3013 -0.0040
    6MOL0     C  754   4.032   8.683   1.726  1.1223 -0.8206  0.9683
    6MOL0     C  755   4.043   8.574   1.674 -0.2627 -0.0337  0.0100
    6MOL0     C  756   4.044   9.274   1.465  0.4133  0.3646  0.2664
    6MOL0     C  757   4.141   9.374   1.427 -0.4105 -0.9145  0.9318
    6MOL0     C  758   4.094   9.474   1.320  0.1423  0.2594 -0.4241
    6MOL0     H  759   4.569   9.696   1.687 -1.6068 -0.5404 -0.6490
    6MOL0     H  760   4.785   9.792   1.662  0.7908 -1.5494  0.2146
    6MOL0     H  761   5.027   9.768   1.660 -0.8464  4.3008  1.8938
    6MOL0     H  762   4.970   9.904   1.563 -2.2131 -1.2598 -3.5210
    6MOL0     H  763   5.154   9.951   1.451  4.6210  1.4827  1.1876
    6MOL0     H  764   5.215   9.901   1.609  0.9377 -1.9451 -0.3321
    6MOL0     H  765   5.249   9.672   1.501 -1.5730  1.0164  0.5811
    6MOL0     H  766   5.222   9.753   1.349 -1.7357  0.0428  0.6807
    6MOL0     H  767   5.393   9.918   1.399 -1.8704 -0.5269 -0.9661
    6MOL0     H  768   5.427   9.844   1.558  0.1492  0.9814 -0.4630
    6MOL0     H  769   5.433   9.679   1.301 -0.3704 -0.7535 -0.3161
    6MOL0     H  770   5.530   9.657   1.446  3.3148  1.7756 -0.1529
    6MOL0     H  771   5.578   9.874   1.243  2.5286 -0.5611 -0.3278
    6MOL0     H  772   5.646   9.871   1.404  1.8313 -1.1705 -0.1728
    6MOL0     H  773   5.674   9.636   1.207 -0.4644 -2.9712  2.6427
    6MOL0     H  774   5.761   9.656   1.363 -6.0244 -3.2661  1.5569
    6MOL0     H  775   5.770   9.822   1.101  0.3110 -0.7605  0.1973
    6MOL0     H  776   5.852   9.887   1.235 -1.4517  1.1026 -2.1068
    6MOL0     H  777   5.916   9.662   0.956  0.0226 -1.2191  0.0642
    6MOL0     H  778   6.266   9.670   0.939  2.9015 -1.6067  4.4114
    6MOL0     H  779   6.128   9.560   0.868 -0.0756 -1.5269  0.9142
    6MOL0     H  780   6.301   9.458   1.085 -1.6194 -3.4720  0.4677
    6MOL0     H  781   6.179   9.394   0.981 -1.1804  1.4511 -0.0314
    6MOL0     H  782   6.339   9.433   0.786 -0.4628 -2.5533  0.0380
    6MOL0     H  783   6.443   9.521   0.896  4.6246 -2.6682  0.0201
    6MOL0     H  784   6.533   9.335   1.007  0.3781 -1.6675 -0.2600
    6MOL0     H  785   6.379   9.251   0.989 -1.6182  1.2382  1.0390
    6MOL0     H  786   6.647   9.130   0.639  3.0426 -1.6734 -2.5003
    6MOL0     H  787   6.911   8.880   0.630 -0.4602 -0.9734 -2.5405
    6MOL0     H  788   6.848   9.024   0.559  1.9136 -2.9656 -3.1041
    6MOL0     H  789   6.760   8.874   0.545 -1.7442 -1.3777  1.5466
    6MOL0     H  790   6.779   8.507   0.556 -1.4146  0.6162  1.4930
    6MOL0     H  791   6.876   8.274   0.553 -1.1585 -0.0073 -0.3110
    6MOL0     H  792   6.859   8.101   0.754  1.9975  0.3081  2.7145
    6MOL0     H  793   6.938   8.051   0.601  0.1438  0.4662 -0.6175
    6MOL0     H  794   7.097   7.922   0.753 -0.7430 -0.5207 -0.2045
    6MOL0     H  795   6.988   7.950   0.888  0.5021 -3.9791 -0.0156
    6MOL0     H  796   6.807   7.823   0.764 -0.5691  2.5123 -3.0940
    6MOL0     H  797   6.948   7.728   0.797  2.4635  0.4511 -0.4530
    6MOL0     H  798   7.011   7.816   0.546 -0.3005  2.6263  0.8884
    6MOL0     H  799   6.842   7.863   0.558  0.6048  0.2730  1.0788
    6MOL0     H  800   6.891   7.648   0.460 -0.9984  2.9054 -0.0445
    6MOL0     H  801   6.931   7.575   0.615 -2.5874 -0.3415  3.0852
    6MOL0     H  802   6.656   7.659   0.508 -2.7030 -3.7503  0.8119
    6MOL0     H  803   6.683   7.656   0.679  2.4092  1.3773  1.0127
    6MOL0     H  804   6.773   7.414   0.510 -0.0241 -1.7995 -0.0647
    6MOL0     H  805   6.599   7.453   0.496 -0.3638 -0.8312 -0.4038
    6MOL0     H  806   6.744   7.374   0.749 -0.9246  2.1556  0.5133
    6MOL0     H  807   6.621   7.280   0.658  1.0533 -1.1419 -0.1080
    6MOL0     H  808   7.151   8.369   0.865  0.8082  1.3388 -1.3561
    6MOL0     H  809   7.028   8.603   0.890  0.6265 -0.7820  1.1035
    6MOL0     H  810   6.668   8.866   1.054  0.2259  0.0869  0.6157
    6MOL0     H  811   6.534   9.099   1.039 -1.8150  2.6423 -3.3579
    6MOL0     H  812   4.850   9.542   1.313  1.6718 -3.2239  3.7225
    6MOL0     H  813   4.641   9.448   1.342  4.4509 -0.1907 -1.6240
    6MOL0     H  814   4.407   9.237   1.592  0.4509 -1.0472  0.6978
    6MOL0     H  815   4.244   9.067   1.632  2.5119  0.9083 -0.2106
    6MOL0     H  816   3.987   8.968   1.424  2.0211 -1.9194  0.4232
    6MOL0     H  817   4.064   8.894   1.560  0.2826 -0.5278 -3.2427
    6MOL0     H  818   3.861   8.783   1.515  1.4823 -2.1298  1.4866
    6MOL0     H  819   3.767   8.926   1.528 -0.7511 -0.7755  1.4652
    6MOL0     H  820   3.820   8.954   1.768  3.7271  1.7240  0.0026
    6MOL0     H  821   3.765   8.786   1.742  1.2807 -0.1967  4.1742
    6MOL0     H  822   3.945   8.773   1.900  0.6441  0.0266 -0.0713
    6MOL0     H  823   4.051   8.878   1.798 -0.5107  1.4659  0.4238
    6MOL0     H  824   4.040   8.474   1.634  0.5033 -0.0579 -0.0082
    6MOL0     H  825   3.941   9.276   1.430 -0.2843  1.3633  2.2400
    6MOL0     H  826   4.105   9.578   1.354  0.0012  0.1324  0.0087
    6MOL0     H  827   4.156   9.457   1.232  0.0499 -0.4910 -0.3479
    6MOL0     H  828   3.991   9.455   1.288  0.9406  1.3022 -4.1400
    7MOL0     O  829   7.179   1.039   9.854 -0.2004 -0.1493 -0.0408
    7MOL0     C  830   7.237   1.004   9.751 -0.1073  0.6553 -0.3635
    7MOL0     O  831   7.234   1.073   9.637 -0.8531 -0.2335 -0.2651
    7MOL0     C  832   7.153   1.184   9.628  0.2721 -0.1141 -1.2752
    7MOL0     C  833   7.190   1.303   9.685 -1.0006  0.3231  0.5647
    7MOL0     C  834   7.111   1.410   9.680 -0.7841  0.0838 -0.5594
    7MOL0     C  835   6.987   1.409   9.612  0.4764  0.6170  0.7704
    7MOL0     O  836   6.913   1.522   9.607 -0.0718 -0.8373 -0.1608
    7MOL0     C  837   6.779   1.513   9.570  0.0550  0.0581  0.2150
    7MOL0     C  838   6.698   1.634   9.606  0.3472  0.1110  0.0040
    7MOL0     C  839   6.693   1.677   9.753  0.2955 -0.8988  0.7175
    7MOL0     C  840   6.619   1.798   9.789  0.2792 -0.0186 -1.3865
    7MOL0     C  841   6.668   1.928   9.755  0.0430 -1.0045 -0.0733
    7MOL0     C  842   6.568   2.033   9.799  0.1658  0.6787 -0.0526
    7MOL0     C  843   6.595   2.166   9.718  0.1137 -0.6549 -0.0088
    7MOL0     C  844   6.474   2.263   9.729 -0.0611  0.4038  0.2540
    7MOL0     N  845   6.454   2.316   9.863 -0.1996  0.1379  0.1634
    7MOL0     C  846   6.329   2.357   9.917  0.2920  0.6284  0.5032
    7MOL0     C  847   6.362   2.385  10.045 -0.0121  0.4987 -0.9086
    7MOL0     C  848   6.259   2.427  10.155 -0.7274  0.1245  0.0694
    7MOL0     C  849   6.135   2.498  10.109 -0.1566  0.7698  0.6280
    7MOL0     C  850   6.029   2.396  10.070 -0.0097 -0.1818  0.2437
    7MOL0     C  851   5.892   2.463  10.033 -0.1119 -0.3789  0.3933
    7MOL0     O  852   5.805   2.350  10.011 -0.0332 -0.7200  0.2674
    7MOL0     C  853   5.671   2.377   9.977  0.0487 -0.2654  1.1678
    7MOL0     C  854   5.620   2.491   9.916 -0.3333 -0.6747 -0.1084
    7MOL0     C  855   5.485   2.518   9.882  0.3754 -0.3635 -0.1144
    7MOL0     C  856   5.457   2.649   9.802 -0.2971  1.0279  0.1766
    7MOL0     C  857   5.395   2.415   9.906  0.1218 -0.4692 -0.2587
    7MOL0     C  858   5.253   2.409   9.877  0.5005 -0.7479  0.7024
    7MOL0     O  859   5.180   2.298   9.918 -1.1167  0.5947  0.3247
    7MOL0     C  860   5.065   2.278   9.858  0.1567 -0.7996  0.5523
    7MOL0     C  861   4.946   2.300   9.931  0.0424  0.8253 -0.6629
    7MOL0     C  862   4.818   2.302   9.871 -0.4705 -0.2032  1.1170
    7MOL0     C  863   4.801   2.272   9.738  0.0897  0.8046 -0.0969
    7MOL0     O  864   4.669   2.258   9.692  0.2621  0.0485 -0.2613
    7MOL0     C  865   4.604   2.137   9.720  0.1713  0.4353 -1.0990
    7MOL0     C  866   4.505   2.103   9.611  0.5790  0.2103  0.6527
    7MOL0     C  867   4.383   2.203   9.612  0.5911 -0.4031 -0.1969
    7MOL0     C  868   4.283   2.143   9.511 -0.4994  0.6127  1.1340
    7MOL0     C  869   4.149   2.220   9.512  0.8700  0.0829 -0.7547
    7MOL0     C  870   4.042   2.169   9.415  0.7352  0.6257 -0.8561
    7MOL0     C  871   3.913   2.252   9.454 -0.0076 -0.5971  1.1753
    7MOL0     C  872   3.838   2.198   9.576 -0.1960  0.1581 -0.0032
    7MOL0    Cl  873   3.678   2.275   9.559 -0.1006  0.6742  0.3846
    7MOL0     C  874   4.915   2.252   9.662  1.2232  0.9023 -0.0246
    7MOL0     C  875   5.051   2.271   9.714  0.3689  0.1894  0.2429
    7MOL0     O  876   5.204   2.504   9.813 -0.1653 -0.0188  0.0859
    7MOL0     C  877   5.443   2.295   9.969 -0.4753  0.5691  0.1251
    7MOL0     C  878   5.581   2.286  10.001  1.1261 -0.2449  0.3269
    7MOL0     N  879   6.501   2.376  10.064 -0.9895 -0.3454 -0.2155
    7MOL0     N  880   6.554   2.332   9.951 -0.3172 -0.1541  0.1674
    7MOL0     C  881   6.959   1.294   9.536  0.0041 -0.8233  0.0378
    7MOL0     C  882   7.032   1.183   9.555 -0.5693 -0.7411  0.1448
    7MOL0     C  883   7.286   0.858   9.747 -0.2633 -0.0859  0.1299
    7MOL0     C  884   7.354   0.824   9.627  0.5684  0.3500  0.7780
    7MOL0     C  885   7.397   0.690   9.604  1.3764  1.0525 -0.2766
    7MOL0     C  886   7.382   0.587   9.698  0.0975  0.0157 -0.7913
    7MOL0     O  887   7.428   0.458   9.664 -0.4854 -0.4244 -0.1234
    7MOL0     C  888   7.324   0.375   9.603 -0.7344 -0.1134 -0.8683
    7MOL0     C  889   7.218   0.328   9.697 -0.6084 -0.3072 -0.7827
    7MOL0     C  890   7.141   0.210   9.643 -0.2784 -0.4741  0.1295
    7MOL0     C  891   7.036   0.168   9.746 -0.0861  0.0844 -0.4596
    7MOL0     C  892   7.085   0.143   9.887  0.2319 -0.1304  0.0933
    7MOL0     C  893   7.118   0.119  10.000 -0.2313  0.1342  0.4390
    7MOL0     C  894   7.326   0.617   9.825  0.4957 -0.5799 -0.4858
    7MOL0     C  895   7.276   0.752   9.849  0.0564 -0.3993 -0.0091
    7MOL0     C  896   7.200   0.783   9.971  0.5231  0.0019  0.1632
    7MOL0     H  897   7.284   1.309   9.738 -0.8177  1.6556  0.1311
    7MOL0     H  898   7.145   1.504   9.721  0.4956  0.5457 -2.5730
    7MOL0     H  899   6.732   1.432   9.625  0.7703  0.7488  1.9087
    7MOL0     H  900   6.770   1.488   9.463 -1.1823 -0.0041  0.3270
    7MOL0     H  901   6.732   1.716   9.541  0.1300 -1.1245 -1.7544
    7MOL0     H  902   6.596   1.605   9.579  0.2644  0.9068 -0.6048
    7MOL0     H  903   6.653   1.590   9.807 -0.2518 -1.5886 -0.7349
    7MOL0     H  904   6.794   1.687   9.794 -0.6623 -2.2180  3.6579
    7MOL0     H  905   6.524   1.778   9.738 -0.4238  1.1348 -0.5971
    7MOL0     H  906   6.603   1.797   9.897 -1.9568 -3.9849 -1.5912
    7MOL0     H  907   6.691   1.931   9.648 -0.1036  0.9204 -0.0960
    7MOL0     H  908   6.757   1.928   9.819 -1.5619 -1.8049  2.3311
    7MOL0     H  909   6.464   2.007   9.777  0.4020  1.7252 -3.0363
    7MOL0     H  910   6.564   2.050   9.907 -0.6091  0.1619  0.0021
    7MOL0     H  911   6.614   2.143   9.612 -0.3404 -0.0691 -0.2193
    7MOL0     H  912   6.689   2.215   9.747 -0.8497  2.0616 -1.1665
    7MOL0     H  913   6.493   2.350   9.665  1.9992 -2.3905 -3.3318
    7MOL0     H  914   6.381   2.228   9.683 -0.9562  2.2664  0.5828
    7MOL0     H  915   6.230   2.332   9.879 -0.7222 -0.8866  3.7592
    7MOL0     H  916   6.313   2.493  10.223  2.4775  1.7826 -3.7316
    7MOL0     H  917   6.245   2.337  10.216 -0.5498  0.6464  0.9042
    7MOL0     H  918   6.103   2.565  10.190 -4.3576  1.3910 -1.2871
    7MOL0     H  919   6.163   2.556  10.020  0.2379 -0.2575  0.0742
    7MOL0     H  920   6.068   2.330   9.991  3.0896  0.5251  1.0216
    7MOL0     H  921   6.018   2.322  10.150  1.0791 -1.4504 -0.7232
    7MOL0     H  922   5.850   2.529  10.109 -0.0617  1.1183 -0.8187
    7MOL0     H  923   5.900   2.534   9.950 -0.4725  0.7502  1.2985
    7MOL0     H  924   5.687   2.573   9.890  2.3770 -2.4951  0.8020
    7MOL0     H  925   5.503   2.639   9.703 -1.1653  0.5143 -0.1876
    7MOL0     H  926   5.510   2.735   9.843 -0.1661  1.8395 -1.6018
    7MOL0     H  927   5.354   2.682   9.787 -1.0930 -1.5664 -0.6650
    7MOL0     H  928   4.957   2.335  10.033 -1.0941  2.4796 -1.0613
    7MOL0     H  929   4.724   2.311   9.926 -0.0718 -1.5707  2.0809
    7MOL0     H  930   4.676   2.058   9.743 -0.7342  0.5383  3.0044
    7MOL0     H  931   4.551   2.145   9.816  0.5946 -0.9681 -0.7170
    7MOL0     H  932   4.556   2.110   9.515 -1.3423  1.8179 -0.3324
    7MOL0     H  933   4.464   2.002   9.614 -2.6181  1.3900  0.4836
    7MOL0     H  934   4.409   2.308   9.595 -0.4859 -0.0239  0.3548
    7MOL0     H  935   4.344   2.207   9.715 -0.4522  1.8626 -0.6062
    7MOL0     H  936   4.272   2.036   9.533 -0.1651  0.5283  0.9033
    7MOL0     H  937   4.327   2.159   9.412  0.1441  0.6488  1.4194
    7MOL0     H  938   4.118   2.213   9.616 -2.6675 -0.6312 -1.7029
    7MOL0     H  939   4.179   2.323   9.493  1.1589  0.4237  1.3369
    7MOL0     H  940   4.025   2.061   9.426 -2.1559  0.9335 -1.5641
    7MOL0     H  941   4.082   2.192   9.315  2.8360 -0.8349 -0.4211
    7MOL0     H  942   3.843   2.250   9.370  0.1264  0.5647  1.0157
    7MOL0     H  943   3.933   2.358   9.473  2.0923 -0.4728 -1.1586
    7MOL0     H  944   3.880   2.230   9.672  1.1988  0.4354 -0.6822
    7MOL0     H  945   3.829   2.089   9.568  2.6188 -0.1097 -0.5614
    7MOL0     H  946   4.899   2.251   9.555 -0.0553 -2.1701  0.0979
    7MOL0     H  947   5.142   2.261   9.655 -0.4502 -3.0006 -0.6775
    7MOL0     H  948   5.377   2.211   9.993  0.8086 -1.3923 -2.6996
    7MOL0     H  949   5.612   2.190  10.041 -0.1128 -0.5511  0.6044
    7MOL0     H  950   6.868   1.284   9.479  0.6503 -2.0580 -0.8315
    7MOL0     H  951   7.002   1.090   9.508 -1.9382  1.4570 -3.8844
    7MOL0     H  952   7.363   0.895   9.545  1.3666 -1.4974 -0.8120
    7MOL0     H  953   7.430   0.654   9.507 -0.5887  1.1668 -1.0394
    7MOL0     H  954   7.274   0.435   9.527 -1.0978  2.2116  1.1055
    7MOL0     H  955   7.371   0.284   9.564 -2.9925 -2.2863  1.1485
    7MOL0     H  956   7.150   0.413   9.715 -0.6033 -0.7093  1.2975
    7MOL0     H  957   7.274   0.301   9.786  0.7533  0.0782 -1.4920
    7MOL0     H  958   7.084   0.246   9.556 -0.8407  0.8692  1.0116
    7MOL0     H  959   7.202   0.122   9.621 -4.8134 -3.6858 -0.9189
    7MOL0     H  960   6.979   0.082   9.710 -2.3326  0.9273  0.8622
    7MOL0     H  961   6.966   0.252   9.754 -0.4330 -0.0861 -1.5110
    7MOL0     H  962   7.152   0.104  10.101  0.8043 -0.8111 -0.0280
    7MOL0     H  963   7.308   0.532   9.890 -1.4812 -1.2403 -1.8114
    7MOL0     H  964   7.171   0.695  10.028  1.3017 -0.0650  0.4633
    7MOL0     H  965   7.241   0.857  10.040 -2.0051  1.3740  0.3238
    7MOL0     H  966   7.103   0.822   9.937 -1.4246 -1.4334  3.5374
    8MOL0     O  967   9.172   7.540   0.453  0.2539  0.8929 -0.0112
    8MOL0     C  968   9.062   7.534   0.506 -0.1727 -0.7365  0.0248
    8MOL0     O  969   9.047   7.551   0.634  0.0117  0.0254  0.2164
    8MOL0     C  970   9.157   7.566   0.717  0.2954  0.8054 -0.1552
    8MOL0     C  971   9.162   7.679   0.797  0.1750 -0.3030 -0.6721
    8MOL0     C  972   9.274   7.707   0.871  0.0479  0.0582 -0.1373
    8MOL0     C  973   9.382   7.617   0.884  0.1433 -1.0491  0.2288
    8MOL0     O  974   9.484   7.649   0.970 -0.7456  0.1718 -0.3514
    8MOL0     C  975   9.579   7.749   0.920  0.3245 -0.7152 -0.0684
    8MOL0     C  976   9.693   7.764   1.023 -0.7127  0.0795  0.1198
    8MOL0     C  977   9.811   7.847   0.964  0.7645  0.3046  0.6752
    8MOL0     C  978   9.933   7.855   1.057  0.1408  0.1414  0.8566
    8MOL0     C  979   9.924   7.885   1.207 -0.3499 -0.6024 -0.2886
    8MOL0     C  980   9.843   8.007   1.236  0.3318  0.2452 -0.0038
    8MOL0     C  981   9.842   8.066   1.373 -0.7393 -0.3366 -0.4967
    8MOL0     C  982   9.725   8.163   1.404 -0.3870 -0.0955 -0.5252
    8MOL0     N  983   9.594   8.112   1.377 -0.9977  0.5784 -0.7573
    8MOL0     C  984   9.534   8.014   1.439  0.9057  0.8057  0.0646
    8MOL0     C  985   9.411   8.010   1.387  1.0142  0.1080  1.4473
    8MOL0     C  986   9.316   7.883   1.396  0.8629 -0.2391  0.2934
    8MOL0     C  987   9.188   7.924   1.471 -0.1555  0.4471 -0.2093
    8MOL0     C  988   9.064   7.868   1.415 -0.2202 -0.2957  0.2885
    8MOL0     C  989   8.944   7.948   1.443 -0.1971 -0.8427  0.2565
    8MOL0     O  990   8.928   7.945   1.581  0.0072  0.1514  0.1698
    8MOL0     C  991   8.818   7.992   1.642  0.1759 -0.2148  0.5512
    8MOL0     C  992   8.705   8.048   1.579  0.3243  0.0549 -0.1999
    8MOL0     C  993   8.591   8.072   1.657  0.3877 -0.3146  0.3817
    8MOL0     C  994   8.460   8.134   1.590 -0.3543 -0.5479  0.2952
    8MOL0     C  995   8.585   8.048   1.795 -0.4299  0.1480 -0.4592
    8MOL0     C  996   8.460   8.045   1.877  0.2275 -0.6204 -0.0113
    8MOL0     O  997   8.351   7.990   1.814  0.1560  0.0695 -0.4270
    8MOL0     C  998   8.225   8.046   1.851 -0.8009  0.0328  0.3935
    8MOL0     C  999   8.211   8.183   1.866 -0.9926 -0.0250 -0.1294
    8MOL0     C 1000   8.091   8.235   1.900 -0.0528 -0.2632 -0.2195
    8MOL0     C 1001   7.971   8.159   1.912 -0.7164  0.0457 -0.4053
    8MOL0     O 1002   7.859   8.225   1.940  0.2028 -0.1422 -0.2644
    8MOL0     C 1003   7.758   8.173   2.030 -0.6643 -0.2359  0.3819
    8MOL0     C 1004   7.626   8.254   2.006 -0.1105  0.3819 -0.1400
    8MOL0     C 1005   7.544   8.211   1.885  0.3670  0.5666  0.6364
    8MOL0     C 1006   7.408   8.285   1.878 -0.1376  0.0854  0.2689
    8MOL0     C 1007   7.409   8.437   1.863  0.2982  0.4603  0.2674
    8MOL0     C 1008   7.266   8.479   1.840 -0.1363 -0.5728 -0.7429
    8MOL0     C 1009   7.211   8.440   1.694  0.3511 -0.0118 -0.4691
    8MOL0     C 1010   7.075   8.366   1.691  1.1794 -1.2261 -0.1781
    8MOL0    Cl 1011   7.070   8.245   1.554 -0.0489 -0.0378 -0.2263
    8MOL0     C 1012   7.988   8.022   1.876  0.0767  0.6713 -0.6010
    8MOL0     C 1013   8.116   7.967   1.839  1.3240  0.6349  0.1822
    8MOL0     O 1014   8.457   8.098   1.986 -0.6527 -0.3739 -0.0478
    8MOL0     C 1015   8.708   8.010   1.856 -0.1829  0.4845  0.7075
    8MOL0     C 1016   8.822   7.978   1.778  0.1303 -0.1635  0.1624
    8MOL0     N 1017   9.401   8.107   1.291  0.1776 -0.1608 -0.5405
    8MOL0     N 1018   9.511   8.170   1.287  0.1678 -0.0532 -0.2834
    8MOL0     C 1019   9.381   7.502   0.804  0.0030 -0.1937  0.0974
    8MOL0     C 1020   9.268   7.482   0.727  0.0378  0.1491  0.0290
    8MOL0     C 1021   8.946   7.512   0.417 -0.1970 -0.2570  0.4459
    8MOL0     C 1022   8.951   7.542   0.276 -1.1865 -0.0479  0.2964
    8MOL0     C 1023   8.847   7.525   0.189 -0.1347  0.4908  0.2248
    8MOL0     C 1024   8.733   7.458   0.225 -0.2827  0.6345 -1.0234
    8MOL0     O 1025   8.636   7.440   0.128  0.0678 -0.4500 -0.0311
    8MOL0     C 1026   8.521   7.355   0.151 -0.0301 -0.0220  0.2290
    8MOL0     C 1027   8.558   7.208   0.126  0.3215 -0.2034 -1.0918
    8MOL0     C 1028   8.438   7.107   0.127  0.2015 -0.0458 -0.6156
    8MOL0     C 1029   8.379   7.103   0.271 -0.3242 -0.3103 -0.9386
    8MOL0     C 1030   8.288   6.987   0.299 -1.3030  0.6229  0.6282
    8MOL0     C 1031   8.213   6.898   0.321 -1.3683  0.1410 -0.5992
    8MOL0     C 1032   8.729   7.407   0.362 -0.3147 -0.0599  0.0873
    8MOL0     C 1033   8.836   7.431   0.451 -0.3276 -0.6091 -0.1334
    8MOL0     C 1034   8.836   7.351   0.582 -0.8735 -0.8820 -0.2693
    8MOL0     H 1035   9.076   7.745   0.792 -2.9767 -3.9718 -0.6386
    8MOL0     H 1036   9.276   7.796   0.934  2.4883 -0.7624  1.0541
    8MOL0     H 1037   9.529   7.844   0.898  0.7834 -0.2022  1.0095
    8MOL0     H 1038   9.620   7.708   0.828  1.9162 -1.2057  0.8203
    8MOL0     H 1039   9.655   7.811   1.115 -0.5712 -1.7780  1.1893
    8MOL0     H 1040   9.733   7.665   1.048 -1.6094 -0.1127  0.8668
    8MOL0     H 1041   9.854   7.813   0.869  1.2415 -1.9432  1.6323
    8MOL0     H 1042   9.773   7.949   0.951 -1.1956 -0.5446 -0.8655
    8MOL0     H 1043   9.986   7.759   1.058 -0.7897 -1.0057 -6.3639
    8MOL0     H 1044  10.003   7.931   1.021 -2.4076  0.2385 -4.8811
    8MOL0     H 1045  10.026   7.896   1.246 -0.7476 -1.5534  1.0963
    8MOL0     H 1046   9.877   7.801   1.259  1.7190 -1.1788  0.7790
    8MOL0     H 1047   9.879   8.093   1.179 -3.2881  0.7993 -1.7801
    8MOL0     H 1048   9.738   7.995   1.207  0.3540  1.0279 -0.4332
    8MOL0     H 1049   9.939   8.115   1.382  2.1933 -5.4932 -0.0180
    8MOL0     H 1050   9.851   7.990   1.451 -2.5544  0.5939  0.7029
    8MOL0     H 1051   9.736   8.191   1.510  0.0243  2.1022 -1.0966
    8MOL0     H 1052   9.743   8.256   1.349  0.9730 -1.6512 -2.8750
    8MOL0     H 1053   9.563   7.940   1.512 -0.8503  1.4650  1.5120
    8MOL0     H 1054   9.373   7.809   1.453 -0.0541 -0.9775  0.2718
    8MOL0     H 1055   9.302   7.836   1.298 -0.0759  1.5340 -0.4627
    8MOL0     H 1056   9.191   7.902   1.578  0.8848  1.2118 -0.0636
    8MOL0     H 1057   9.185   8.033   1.476 -0.1616  0.6573 -3.0297
    8MOL0     H 1058   9.072   7.865   1.306  2.1639 -0.1807  0.3878
    8MOL0     H 1059   9.064   7.763   1.446  3.7185 -0.8835 -1.1077
    8MOL0     H 1060   8.954   8.047   1.398 -0.8663 -1.5044 -1.4437
    8MOL0     H 1061   8.854   7.904   1.399 -0.0046 -1.3788  0.3908
    8MOL0     H 1062   8.718   8.049   1.471  1.3672  1.2287 -0.0880
    8MOL0     H 1063   8.382   8.060   1.569 -2.8768  2.0323 -0.0306
    8MOL0     H 1064   8.484   8.177   1.492  0.7351  3.0697  1.9535
    8MOL0     H 1065   8.417   8.205   1.662  0.3841 -0.7858  0.9793
    8MOL0     H 1066   8.303   8.241   1.856 -1.1597  0.6830  2.1010
    8MOL0     H 1067   8.083   8.341   1.923 -0.1371 -0.0224 -1.3109
    8MOL0     H 1068   7.738   8.069   2.003 -2.1888  0.9549 -3.8827
    8MOL0     H 1069   7.796   8.186   2.131 -1.3147  3.9514  0.2714
    8MOL0     H 1070   7.575   8.241   2.102 -0.2105 -0.0480 -0.2499
    8MOL0     H 1071   7.643   8.362   2.017 -1.7782  0.4587  2.6821
    8MOL0     H 1072   7.516   8.105   1.887  0.6160  0.4000 -1.8440
    8MOL0     H 1073   7.613   8.223   1.802  2.7209 -1.1216  2.2133
    8MOL0     H 1074   7.363   8.265   1.975  0.5967 -2.2913  0.1748
    8MOL0     H 1075   7.352   8.231   1.801  1.6394 -1.4372 -0.0269
    8MOL0     H 1076   7.454   8.478   1.954  0.2657  0.2816  0.3634
    8MOL0     H 1077   7.474   8.456   1.777 -1.1770 -2.7164 -1.7473
    8MOL0     H 1078   7.256   8.587   1.849  0.2790 -0.5827 -0.0786
    8MOL0     H 1079   7.193   8.446   1.915  1.6604 -3.2326 -0.0024
    8MOL0     H 1080   7.284   8.374   1.645  0.2438 -0.6191  0.1675
    8MOL0     H 1081   7.210   8.535   1.640 -0.3230  1.1602  1.4902
    8MOL0     H 1082   6.998   8.441   1.671  2.1167 -0.6582 -1.9333
    8MOL0     H 1083   7.056   8.318   1.787  1.1096 -0.7185  0.0675
    8MOL0     H 1084   7.909   7.947   1.870  1.0028 -0.5050  1.1069
    8MOL0     H 1085   8.118   7.860   1.819  0.2023  1.0334 -2.5064
    8MOL0     H 1086   8.710   7.984   1.961  0.2695 -1.2387  0.3008
    8MOL0     H 1087   8.922   7.951   1.809 -0.0937 -1.5168 -0.2638
    8MOL0     H 1088   9.461   7.431   0.820 -0.2255 -0.0072  2.3020
    8MOL0     H 1089   9.275   7.391   0.668 -0.4849  1.2197 -1.7638
    8MOL0     H 1090   9.036   7.593   0.232 -1.9570  3.1246  2.1788
    8MOL0     H 1091   8.866   7.548   0.085  0.9587  1.1400  0.5502
    8MOL0     H 1092   8.473   7.373   0.247 -0.2014 -2.7709  0.7302
    8MOL0     H 1093   8.457   7.379   0.066 -0.1428  0.5263  0.4637
    8MOL0     H 1094   8.624   7.173   0.207  0.6658  2.0303 -0.3354
    8MOL0     H 1095   8.614   7.193   0.033  0.9985 -0.3410 -0.6757
    8MOL0     H 1096   8.371   7.114   0.041  0.0335  0.2935 -0.4556
    8MOL0     H 1097   8.485   7.009   0.114  3.5685  1.3209  0.1874
    8MOL0     H 1098   8.329   7.199   0.285  2.9337  1.2831  0.7979
    8MOL0     H 1099   8.448   7.094   0.356  2.3770 -2.5176 -3.1606
    8MOL0     H 1100   8.131   6.829   0.325 -0.3698 -1.0255  0.8646
    8MOL0     H 1101   8.642   7.353   0.397 -2.4437  1.7503 -1.9742
    8MOL0     H 1102   8.769   7.265   0.570 -0.2197 -1.2978 -1.1059
    8MOL0     H 1103   8.938   7.318   0.605  0.1060  0.9401 -1.6930
    8MOL0     H 1104   8.802   7.405   0.670 -0.8624 -0.2941 -0.6197
    9MOL0     O 1105   0.609   2.439   6.401  0.5616  0.4312  0.3943
    9MOL0     C 1106   0.665   2.326   6.383  0.0803  0.7111  0.0038
    9MOL0     O 1107   0.588   2.210   6.386 -0.0470  0.3284 -0.2988
    9MOL0     C 1108   0.451   2.208   6.406 -0.5073  0.9275  1.0191
    9MOL0     C 1109   0.395   2.102   6.476 -0.7064 -0.2418 -0.7212
    9MOL0     C 1110   0.255   2.093   6.486 -0.4607 -0.2772 -0.0666
    9MOL0     C 1111   0.174   2.174   6.408  0.7382  0.5410 -0.5067
    9MOL0     O 1112   0.039   2.149   6.406 -0.9080 -0.5910  0.0245
    9MOL0     C 1113  -0.061   2.227   6.329  0.1048 -0.6405 -0.1198
    9MOL0     C 1114  -0.203   2.175   6.353 -0.1309 -0.4132  0.4561
    9MOL0     C 1115  -0.222   2.151   6.504  0.0423 -0.0418 -0.3439
    9MOL0     C 1116  -0.373   2.141   6.544 -0.6795 -0.3262  0.6902
    9MOL0     C 1117  -0.394   2.089   6.676 -0.0657  0.3780 -0.5782
    9MOL0     C 1118  -0.344   1.947   6.710  0.1349  0.1058  0.1215
    9MOL0     C 1119  -0.422   1.836   6.630  0.5318 -0.4003 -0.4441
    9MOL0     C 1120  -0.321   1.730   6.578  0.0907 -0.2882 -0.3645
    9MOL0     N 1121  -0.389   1.604   6.541 -0.2621 -0.0501  0.0266
    9MOL0     C 1122  -0.432   1.503   6.632 -0.6466 -0.5847 -0.0280
    9MOL0     C 1123  -0.494   1.409   6.551  0.3648 -0.6260 -0.1883
    9MOL0     C 1124  -0.587   1.289   6.583 -0.3993  1.1760 -0.1859
    9MOL0     C 1125  -0.498   1.158   6.606 -0.0540  0.8568  0.6320
    9MOL0     C 1126  -0.424   1.112   6.470 -0.5005  0.3135  0.1474
    9MOL0     C 1127  -0.290   1.053   6.515 -0.8173 -0.6454  0.1208
    9MOL0     O 1128  -0.212   1.154   6.592  0.0043 -0.4034 -0.7820
    9MOL0     C 1129  -0.075   1.138   6.602  1.1642  0.4207  0.5405
    9MOL0     C 1130   0.003   1.043   6.540 -1.3215  0.3606  0.0148
    9MOL0     C 1131   0.145   1.042   6.546 -0.5892  0.5682  0.3630
    9MOL0     C 1132   0.227   0.934   6.462  0.4046 -0.6286  0.3860
    9MOL0     C 1133   0.202   1.144   6.632 -0.4626 -0.5204 -0.4592
    9MOL0     C 1134   0.355   1.171   6.651  0.1402  0.7795  0.9217
    9MOL0     O 1135   0.455   1.091   6.586  0.3106 -0.6855  0.0858
    9MOL0     C 1136   0.587   1.127   6.605  0.3031 -0.7907  0.3878
    9MOL0     C 1137   0.635   1.231   6.527  0.3546  0.3333  0.3917
    9MOL0     C 1138   0.762   1.288   6.558 -0.8301  0.1753  0.2672
    9MOL0     C 1139   0.845   1.245   6.667  0.3912 -0.2156  0.6143
    9MOL0     O 1140   0.966   1.296   6.672 -0.3623 -0.2008  0.3279
    9MOL0     C 1141   0.995   1.353   6.794  1.0560  0.6577 -0.3126
    9MOL0     C 1142   1.128   1.421   6.794 -0.0884  0.1971 -0.3147
    9MOL0     C 1143   1.108   1.566   6.737  0.0383  0.1970 -0.6368
    9MOL0     C 1144   1.229   1.654   6.778 -0.5561 -0.6010  1.0006
    9MOL0     C 1145   1.199   1.793   6.727  0.2022 -0.4041  0.0214
    9MOL0     C 1146   1.309   1.897   6.754  0.1165  0.6849 -0.1369
    9MOL0     C 1147   1.286   2.033   6.688 -0.0606 -0.6321  0.4713
    9MOL0     C 1148   1.300   2.035   6.538 -0.4095 -0.7843 -0.3178
    9MOL0    Cl 1149   1.159   1.973   6.436 -0.1103 -0.6055 -0.3118
    9MOL0     C 1150   0.795   1.147   6.749  0.9150 -0.8980 -0.0505
    9MOL0     C 1151   0.673   1.082   6.711  0.1509  0.0797  0.4471
    9MOL0     O 1152   0.385   1.268   6.714  0.2863 -0.8673  0.4450
    9MOL0     C 1153   0.124   1.234   6.701 -1.4778 -0.2839 -0.6202
    9MOL0     C 1154  -0.014   1.226   6.690  0.8170  0.3938  0.4988
    9MOL0     N 1155  -0.494   1.466   6.423 -0.2510 -0.1226  0.0411
    9MOL0     N 1156  -0.424   1.579   6.415 -0.3881  0.0757  0.0495
    9MOL0     C 1157   0.228   2.284   6.339  0.4793 -0.0256  0.4907
    9MOL0     C 1158   0.371   2.294   6.340 -0.0940 -0.5984 -0.1636
    9MOL0     C 1159   0.802   2.315   6.329 -1.0904 -0.0583  0.4532
    9MOL0     C 1160   0.832   2.206   6.240  0.9670 -0.1555 -0.1475
    9MOL0     C 1161   0.962   2.190   6.180  0.1975 -0.1436 -0.0740
    9MOL0     C 1162   1.056   2.286   6.213 -0.7451  0.0610  0.3604
    9MOL0     O 1163   1.194   2.285   6.165  0.3427  0.9265 -0.2404
    9MOL0     C 1164   1.236   2.161   6.103 -0.5523  0.1409  0.3030
    9MOL0     C 1165   1.381   2.180   6.071 -0.3073  0.0073  0.2377
    9MOL0     C 1166   1.465   2.229   6.189  0.6312 -0.0055 -0.3621
    9MOL0     C 1167   1.608   2.188   6.174 -0.8124 -0.3353 -0.1918
    9MOL0     C 1168   1.692   2.240   6.288  0.3755  0.4904  0.5942
    9MOL0     C 1169   1.766   2.274   6.374  0.6024 -0.0512 -0.5461
    9MOL0     C 1170   1.031   2.392   6.293  1.0559 -0.7026 -0.4583
    9MOL0     C 1171   0.905   2.409   6.351  0.3956  0.5738  0.2980
    9MOL0     C 1172   0.889   2.529   6.444 -0.5711  0.1440 -0.0991
    9MOL0     H 1173   0.457   2.027   6.524 -0.5167  1.4394  1.8664
    9MOL0     H 1174   0.222   2.016   6.556 -2.2666  0.8067  0.3201
    9MOL0     H 1175  -0.037   2.222   6.223 -1.7122 -3.4756 -0.5083
    9MOL0     H 1176  -0.060   2.334   6.354  1.0830 -0.8392  0.7420
    9MOL0     H 1177  -0.277   2.244   6.311 -1.5960 -3.8733 -3.2827
    9MOL0     H 1178  -0.220   2.085   6.294 -1.1374  0.7073 -1.0546
    9MOL0     H 1179  -0.174   2.058   6.533  2.5995  0.5009 -2.4309
    9MOL0     H 1180  -0.175   2.237   6.553 -3.6663 -0.0557  3.8248
    9MOL0     H 1181  -0.428   2.231   6.516 -0.7775 -0.0387  1.7927
    9MOL0     H 1182  -0.409   2.068   6.470 -1.6885  0.2033  0.6478
    9MOL0     H 1183  -0.503   2.095   6.687 -0.0696 -0.3967 -0.1280
    9MOL0     H 1184  -0.337   2.153   6.744 -2.1115  3.3158 -1.3999
    9MOL0     H 1185  -0.235   1.953   6.704 -0.0195  2.5767 -4.0961
    9MOL0     H 1186  -0.361   1.930   6.817  3.1451 -0.1727  0.6260
    9MOL0     H 1187  -0.491   1.883   6.559  0.4582  0.4974  0.1981
    9MOL0     H 1188  -0.482   1.777   6.699  1.1573 -2.8171 -1.8509
    9MOL0     H 1189  -0.258   1.762   6.494  1.7627  0.3848  1.0765
    9MOL0     H 1190  -0.244   1.712   6.654 -0.8403  0.1419  0.7124
    9MOL0     H 1191  -0.408   1.503   6.738 -0.0695 -1.6253 -0.1437
    9MOL0     H 1192  -0.655   1.266   6.500  1.0712  0.9889 -1.3697
    9MOL0     H 1193  -0.645   1.313   6.673 -2.2279  0.5884 -1.1558
    9MOL0     H 1194  -0.432   1.173   6.692  0.2145 -0.0532  0.5968
    9MOL0     H 1195  -0.556   1.074   6.645  0.7660  1.0850  2.4105
    9MOL0     H 1196  -0.484   1.035   6.422  1.4819 -0.5669 -1.0727
    9MOL0     H 1197  -0.419   1.201   6.408 -0.3599  1.0731  1.2177
    9MOL0     H 1198  -0.316   0.972   6.584  0.8866 -0.0677  1.5132
    9MOL0     H 1199  -0.238   1.018   6.425 -3.0561 -0.5889 -1.2550
    9MOL0     H 1200  -0.039   0.973   6.469  0.4782 -1.4359  0.6223
    9MOL0     H 1201   0.163   0.854   6.423 -0.1320 -0.7827  1.5400
    9MOL0     H 1202   0.308   0.886   6.518  1.7484 -2.5434 -2.9017
    9MOL0     H 1203   0.262   1.003   6.384 -3.1537  1.8530  0.7819
    9MOL0     H 1204   0.572   1.273   6.450  0.8822 -1.2458 -0.9697
    9MOL0     H 1205   0.799   1.364   6.490 -3.3451 -0.1741 -1.6286
    9MOL0     H 1206   0.917   1.421   6.830  3.5586  2.8895  1.2295
    9MOL0     H 1207   0.994   1.267   6.862 -2.1600  1.5019  0.9247
    9MOL0     H 1208   1.173   1.430   6.893 -0.1551  4.3833 -0.4787
    9MOL0     H 1209   1.200   1.366   6.733  1.3612  1.6668  0.0050
    9MOL0     H 1210   1.018   1.611   6.781  0.8365  0.2707  1.0218
    9MOL0     H 1211   1.105   1.561   6.628 -0.1782 -0.3734 -0.6087
    9MOL0     H 1212   1.318   1.603   6.738 -0.9771 -1.1720  0.7769
    9MOL0     H 1213   1.247   1.671   6.884 -0.0949 -0.9913  0.9904
    9MOL0     H 1214   1.170   1.798   6.622  2.1696  0.1516 -0.5391
    9MOL0     H 1215   1.104   1.826   6.770  0.3875 -0.7085  0.6863
    9MOL0     H 1216   1.405   1.862   6.715 -0.2931  0.3232 -0.8556
    9MOL0     H 1217   1.322   1.909   6.862 -1.3953 -0.6503  0.2368
    9MOL0     H 1218   1.357   2.106   6.728  1.0074 -0.2046 -1.9701
    9MOL0     H 1219   1.187   2.076   6.704  0.2106  1.3947 -2.3991
    9MOL0     H 1220   1.383   1.967   6.515 -0.7195 -1.7561  1.2592
    9MOL0     H 1221   1.327   2.134   6.502  1.5426 -0.8226  0.8640
    9MOL0     H 1222   0.856   1.104   6.828  2.8382  0.6531 -0.6214
    9MOL0     H 1223   0.638   0.994   6.763 -2.6338 -0.3260 -1.8422
    9MOL0     H 1224   0.168   1.308   6.766  0.1563 -0.3476 -1.5645
    9MOL0     H 1225  -0.073   1.302   6.738  1.4511  1.7270 -0.7540
    9MOL0     H 1226   0.166   2.345   6.275  2.1530  1.2975  0.0583
    9MOL0     H 1227   0.402   2.387   6.293 -0.9213 -0.2771 -0.0978
    9MOL0     H 1228   0.751   2.139   6.213  0.9387 -0.8176  1.4776
    9MOL0     H 1229   0.990   2.107   6.116 -0.1754 -0.6109  0.3551
    9MOL0     H 1230   1.226   2.073   6.168  1.0963  0.0348  0.4586
    9MOL0     H 1231   1.179   2.136   6.014 -0.3093 -1.3222  0.5357
    9MOL0     H 1232   1.397   2.260   5.998 -0.6471  1.3154  1.5618
    9MOL0     H 1233   1.417   2.082   6.038 -1.9372  0.1000 -2.0326
    9MOL0     H 1234   1.448   2.337   6.198 -0.0436 -0.2864  2.4382
    9MOL0     H 1235   1.437   2.185   6.285 -0.0580 -3.7686 -2.1163
    9MOL0     H 1236   1.657   2.230   6.086 -0.6949 -1.0421 -0.4735
    9MOL0     H 1237   1.619   2.079   6.174  2.5856 -0.1004  0.3252
    9MOL0     H 1238   1.829   2.291   6.459 -0.6047 -2.4152  0.9336
    9MOL0     H 1239   1.106   2.464   6.324 -1.6963  1.1491  2.5515
    9MOL0     H 1240   0.792   2.577   6.429 -0.4789  0.9163  1.5774
    9MOL0     H 1241   0.896   2.502   6.550 -3.4426 -1.1745 -0.1385
    9MOL0     H 1242   0.962   2.605   6.415 -1.4138  0.6357 -0.9744
   10MOL0     O 1243   0.216   5.631   3.499 -0.2861  0.0514  0.0158
   10MOL0     C 1244   0.322   5.637   3.436  0.3368 -0.2720  0.2843
   10MOL0     O 1245   0.335   5.583   3.306  0.1107  0.4725 -0.7210
   10MOL0     C 1246   0.239   5.502   3.256  0.4662 -0.7605 -0.0390
   10MOL0     C 1247   0.249   5.359   3.253 -0.0800 -0.6487  0.2160
   10MOL0     C 1248   0.156   5.278   3.186 -1.0998  0.1131  0.0466
   10MOL0     C 1249   0.046   5.333   3.129  0.2719 -0.9681 -0.5908
   10MOL0     O 1250  -0.052   5.250   3.084 -0.4835  0.0882  0.1298
   10MOL0     C 1251  -0.186   5.299   3.061  0.7623 -0.3170  0.2073
   10MOL0     C 1252  -0.256   5.325   3.191 -0.0970  0.1866 -0.9685
   10MOL0     C 1253  -0.385   5.410   3.181 -1.2246  0.1637  1.0876
   10MOL0     C 1254  -0.447   5.427   3.315 -0.3680  0.0787 -0.0515
   10MOL0     C 1255  -0.556   5.537   3.309 -0.2157 -0.2992  0.1410
   10MOL0     C 1256  -0.592   5.603   3.439 -0.6010 -0.1398  0.1262
   10MOL0     C 1257  -0.688   5.722   3.404  0.0441 -0.5587 -0.2003
   10MOL0     C 1258  -0.688   5.808   3.530  0.1383 -0.1600  0.2612
   10MOL0     N 1259  -0.795   5.913   3.517 -0.5140 -1.0009 -0.4851
   10MOL0     C 1260  -0.879   5.959   3.615  0.4994 -0.6583  0.2964
   10MOL0     C 1261  -0.943   6.069   3.559 -0.5447 -0.6696 -0.1290
   10MOL0     C 1262  -1.033   6.173   3.622  0.4232 -0.3652  0.4859
   10MOL0     C 1263  -1.189   6.140   3.612  0.8004  0.7306 -0.0222
   10MOL0     C 1264  -1.243   6.160   3.475 -0.3367  0.5664 -0.4179
   10MOL0     C 1265  -1.398   6.198   3.470 -0.2030  0.5063  0.6630
   10MOL0     O 1266  -1.434   6.224   3.336 -0.2872  0.4597  0.1165
   10MOL0     C 1267  -1.558   6.268   3.312  0.2512 -0.4959 -0.0552
   10MOL0     C 1268  -1.572   6.299   3.177 -0.3496 -0.7036  0.8773
   10MOL0     C 1269  -1.699   6.325   3.112 -0.2025 -0.4257  0.4850
   10MOL0     C 1270  -1.701   6.340   2.959 -0.0222 -0.7978  0.5284
   10MOL0     C 1271  -1.813   6.309   3.193 -0.3617 -0.0915 -0.8593
   10MOL0     C 1272  -1.955   6.332   3.145 -0.6476  0.5758 -0.1424
   10MOL0     O 1273  -2.063   6.281   3.224 -0.5205  0.0604 -0.4743
   10MOL0     C 1274  -2.190   6.326   3.217 -0.1433 -0.6274  0.6950
   10MOL0     C 1275  -2.269   6.351   3.322 -0.4199  0.0188 -0.1883
   10MOL0     C 1276  -2.402   6.394   3.327 -0.4900  0.3653 -0.0054
   10MOL0     C 1277  -2.464   6.401   3.202  0.2843  0.7376  0.2018
   10MOL0     O 1278  -2.596   6.436   3.189  0.3147  0.4697 -0.2717
   10MOL0     C 1279  -2.655   6.472   3.313 -0.0644 -0.3325  0.0659
   10MOL0     C 1280  -2.806   6.473   3.285  0.1578 -0.6479 -0.4211
   10MOL0     C 1281  -2.861   6.594   3.204  0.1136 -0.0592 -0.6258
   10MOL0     C 1282  -2.998   6.567   3.147  0.3732 -0.5237  0.1822
   10MOL0     C 1283  -3.053   6.673   3.042  0.2600 -0.5615 -0.2650
   10MOL0     C 1284  -3.176   6.632   2.956 -0.9602 -0.3376  0.2034
   10MOL0     C 1285  -3.304   6.639   3.040  1.0412 -0.2775  0.5910
   10MOL0     C 1286  -3.435   6.576   2.973 -1.0258 -0.4760 -0.1710
   10MOL0    Cl 1287  -3.563   6.558   3.094 -0.0246 -0.1874 -0.3037
   10MOL0     C 1288  -2.398   6.377   3.077 -1.0191  0.3209  0.4899
   10MOL0     C 1289  -2.263   6.338   3.087 -0.6619 -0.5732 -0.5599
   10MOL0     O 1290  -1.968   6.393   3.045  0.4562 -0.7885 -1.1766
   10MOL0     C 1291  -1.794   6.282   3.329  0.5115  0.0544 -0.1480
   10MOL0     C 1292  -1.672   6.263   3.392  0.6129 -0.2805  0.6607
   10MOL0     N 1293  -0.904   6.080   3.422 -0.5095  0.1452 -0.8321
   10MOL0     N 1294  -0.812   5.989   3.410 -0.0009 -0.1182  0.4286
   10MOL0     C 1295   0.034   5.476   3.124 -0.5109 -0.2370 -0.5953
   10MOL0     C 1296   0.135   5.559   3.189 -0.0502  0.1669  0.0427
   10MOL0     C 1297   0.448   5.699   3.499  0.3935 -0.2710 -1.1050
   10MOL0     C 1298   0.444   5.751   3.631 -0.0568 -0.3092  0.6340
   10MOL0     C 1299   0.559   5.808   3.679  1.1158  0.7614 -0.4370
   10MOL0     C 1300   0.672   5.813   3.605 -0.6920  1.2350  1.0552
   10MOL0     O 1301   0.778   5.880   3.655  0.6258  0.7003 -0.0253
   10MOL0     C 1302   0.868   5.793   3.738  0.1664 -0.5375  0.7249
   10MOL0     C 1303   0.935   5.681   3.660  0.1693 -0.2971 -0.4461
   10MOL0     C 1304   1.035   5.594   3.736 -0.8578  0.6087 -0.4822
   10MOL0     C 1305   1.108   5.485   3.650  0.4217 -0.0657 -0.3487
   10MOL0     C 1306   1.187   5.399   3.740 -0.1283 -0.6549 -0.0625
   10MOL0     C 1307   1.246   5.321   3.812  0.4234 -0.0537 -1.2849
   10MOL0     C 1308   0.677   5.759   3.480  0.1292 -0.1503 -0.0863
   10MOL0     C 1309   0.562   5.718   3.415  0.4617  0.6321 -0.2914
   10MOL0     C 1310   0.581   5.694   3.272 -0.0263  0.5166  0.6867
   10MOL0     H 1311   0.343   5.312   3.282  2.2110  1.7790 -2.5530
   10MOL0     H 1312   0.156   5.169   3.187  2.8387 -0.0346 -0.7522
   10MOL0     H 1313  -0.243   5.226   3.003  1.8961 -2.9975  2.2534
   10MOL0     H 1314  -0.182   5.392   3.003  2.3451  1.1971  2.5799
   10MOL0     H 1315  -0.284   5.230   3.239 -0.7117 -0.8385 -3.2048
   10MOL0     H 1316  -0.192   5.381   3.260  2.5446  0.7639 -3.7019
   10MOL0     H 1317  -0.359   5.509   3.143 -0.4171  0.5719  2.6128
   10MOL0     H 1318  -0.459   5.365   3.115  2.1287 -0.3068 -2.7071
   10MOL0     H 1319  -0.494   5.335   3.350 -0.5778  0.3461  0.3796
   10MOL0     H 1320  -0.379   5.456   3.395 -0.7781 -2.1439  1.1684
   10MOL0     H 1321  -0.638   5.487   3.257  0.0324 -0.9964  0.4124
   10MOL0     H 1322  -0.521   5.623   3.251 -0.5749  0.2473  0.7173
   10MOL0     H 1323  -0.636   5.527   3.505  1.4901 -1.0700  0.5206
   10MOL0     H 1324  -0.497   5.630   3.485 -1.1601  0.9114  0.7262
   10MOL0     H 1325  -0.783   5.681   3.367  0.3579  1.4957 -3.7605
   10MOL0     H 1326  -0.643   5.782   3.324  1.2144 -1.1545 -0.0055
   10MOL0     H 1327  -0.718   5.748   3.616 -2.8946  1.7118  0.6732
   10MOL0     H 1328  -0.586   5.839   3.556  0.3495  0.6242 -1.3621
   10MOL0     H 1329  -0.884   5.940   3.722 -3.2826 -0.6504  0.2577
   10MOL0     H 1330  -1.005   6.266   3.571  1.3913  0.2114  1.9637
   10MOL0     H 1331  -1.008   6.187   3.728  2.9314  1.8374 -0.2658
   10MOL0     H 1332  -1.210   6.039   3.648 -1.2223  1.6306  1.5270
   10MOL0     H 1333  -1.248   6.197   3.684  1.0284  0.4015  0.4259
   10MOL0     H 1334  -1.192   6.241   3.422 -1.8018 -0.2133 -3.2391
   10MOL0     H 1335  -1.231   6.069   3.415  2.8419  0.5419  0.1186
   10MOL0     H 1336  -1.457   6.113   3.505 -0.0571  0.4706  0.8235
   10MOL0     H 1337  -1.422   6.281   3.537  2.5186  2.4936 -0.6564
   10MOL0     H 1338  -1.480   6.302   3.120 -0.4687 -0.1809  0.7022
   10MOL0     H 1339  -1.771   6.271   2.910 -1.1716  1.1339 -0.6634
   10MOL0     H 1340  -1.601   6.327   2.916 -0.8335 -0.4514 -1.5639
   10MOL0     H 1341  -1.732   6.441   2.934 -3.9574 -2.7572 -4.2555
   10MOL0     H 1342  -2.220   6.336   3.417 -0.2026  3.4027  0.3725
   10MOL0     H 1343  -2.443   6.413   3.426  0.7004  2.5220  0.1429
   10MOL0     H 1344  -2.637   6.396   3.389  4.9890  0.3029 -0.1512
   10MOL0     H 1345  -2.620   6.566   3.357 -0.7525 -1.0294  2.2223
   10MOL0     H 1346  -2.827   6.377   3.238  1.8862 -2.0657  1.5196
   10MOL0     H 1347  -2.849   6.476   3.386 -0.4147  1.2195 -0.6783
   10MOL0     H 1348  -2.802   6.623   3.117 -0.0203  2.7885  0.1418
   10MOL0     H 1349  -2.863   6.677   3.275  2.0196 -1.2434  0.8936
   10MOL0     H 1350  -3.072   6.565   3.228 -0.4021  1.4911 -0.4084
   10MOL0     H 1351  -3.004   6.471   3.097 -1.6882 -0.1268 -0.4017
   10MOL0     H 1352  -3.083   6.771   3.079 -0.4674 -0.0626 -2.0490
   10MOL0     H 1353  -2.969   6.701   2.977  2.4199  0.8097  2.8483
   10MOL0     H 1354  -3.167   6.529   2.921 -3.6658 -0.9989  1.1721
   10MOL0     H 1355  -3.189   6.693   2.867  1.5467  2.9351  1.8822
   10MOL0     H 1356  -3.326   6.738   3.081 -2.3190 -1.3711  1.7369
   10MOL0     H 1357  -3.294   6.573   3.126  1.0641 -0.4194  0.4798
   10MOL0     H 1358  -3.402   6.478   2.937  0.7222 -0.7447  2.0089
   10MOL0     H 1359  -3.471   6.635   2.888 -2.1188 -1.7542 -0.6411
   10MOL0     H 1360  -2.453   6.391   2.984 -1.1324  1.4574  0.7133
   10MOL0     H 1361  -2.202   6.325   2.998 -0.9123 -0.5318 -0.7392
   10MOL0     H 1362  -1.879   6.287   3.397  1.7569 -1.0292  1.5856
   10MOL0     H 1363  -1.668   6.232   3.496 -0.7315  1.3109  1.2211
   10MOL0     H 1364  -0.057   5.515   3.080 -1.0712 -0.9128 -0.0706
   10MOL0     H 1365   0.132   5.666   3.205 -1.5281 -0.1264  2.2751
   10MOL0     H 1366   0.353   5.748   3.691 -1.1652 -3.1075 -1.0030
   10MOL0     H 1367   0.546   5.839   3.782  2.2305  2.8790 -0.8719
   10MOL0     H 1368   0.955   5.849   3.772  1.6552 -2.2629 -0.0462
   10MOL0     H 1369   0.814   5.749   3.823  1.7960 -0.0700  2.0444
   10MOL0     H 1370   0.987   5.725   3.574 -1.1322  0.8704 -0.6602
   10MOL0     H 1371   0.864   5.609   3.619  2.0406 -3.1688  1.0421
   10MOL0     H 1372   1.115   5.658   3.776  0.1285 -0.9301  0.1079
   10MOL0     H 1373   0.993   5.560   3.831  0.0852  1.3777  0.2295
   10MOL0     H 1374   1.178   5.533   3.580 -1.1099  1.1178 -1.1226
   10MOL0     H 1375   1.038   5.418   3.599 -2.4281  1.4234  1.3685
   10MOL0     H 1376   1.289   5.254   3.883  2.2738  1.7771 -0.5905
   10MOL0     H 1377   0.771   5.777   3.429  0.9720  2.0843  2.0593
   10MOL0     H 1378   0.578   5.587   3.250  2.4318  0.4520  0.4386
   10MOL0     H 1379   0.506   5.732   3.202 -0.9507 -1.6902  0.3734
   10MOL0     H 1380   0.681   5.728   3.244  0.6123  0.0547  2.2714
   11MOL0     O 1381   1.741   1.776  11.096  0.0162  0.3287 -1.1747
   11MOL0     C 1382   1.781   1.683  11.029  0.4873  0.0490  0.1023
   11MOL0     O 1383   1.729   1.560  11.033  1.0867  0.5716 -0.8177
   11MOL0     C 1384   1.660   1.519  11.146  0.0554  0.4029 -0.1663
   11MOL0     C 1385   1.532   1.571  11.195 -0.3356 -0.7513  0.6289
   11MOL0     C 1386   1.482   1.510  11.307  0.4985 -1.0325 -0.0786
   11MOL0     C 1387   1.546   1.414  11.388  0.1771  0.6192 -0.3525
   11MOL0     O 1388   1.497   1.364  11.506 -0.8605 -0.3813 -1.0055
   11MOL0     C 1389   1.587   1.350  11.623  0.0596  0.4647 -0.6078
   11MOL0     C 1390   1.513   1.386  11.751  1.1906 -0.4308  0.2809
   11MOL0     C 1391   1.484   1.531  11.780 -0.2555 -0.1256  0.5737
   11MOL0     C 1392   1.440   1.558  11.921 -0.5520  0.3070 -0.0998
   11MOL0     C 1393   1.321   1.462  11.978  1.2485 -0.7252 -0.1440
   11MOL0     C 1394   1.301   1.487  12.127 -0.1257 -0.9513 -0.6473
   11MOL0     C 1395   1.177   1.397  12.167 -0.2455 -0.2259 -0.2302
   11MOL0     C 1396   1.155   1.386  12.316 -0.4036 -0.4216 -0.0000
   11MOL0     N 1397   1.008   1.373  12.352  0.1020  0.1660 -0.6787
   11MOL0     C 1398   0.921   1.261  12.340 -0.9017 -0.0126  0.7700
   11MOL0     C 1399   0.809   1.301  12.401  0.5807 -0.3653 -0.2020
   11MOL0     C 1400   0.707   1.199  12.430  0.2326  0.1856  0.3709
   11MOL0     C 1401   0.593   1.199  12.325  0.0802 -0.5307  0.3411
   11MOL0     C 1402   0.486   1.307  12.350  0.0197  0.0785  0.5235
   11MOL0     C 1403   0.413   1.302  12.494  0.2034  0.0219  0.2483
   11MOL0     O 1404   0.325   1.181  12.498 -0.1407  0.7998  0.1439
   11MOL0     C 1405   0.188   1.183  12.478  0.3851 -0.0053 -0.3340
   11MOL0     C 1406   0.110   1.079  12.523 -0.0636  0.9420 -0.7208
   11MOL0     C 1407  -0.029   1.072  12.508 -0.2085  0.2825 -0.3907
   11MOL0     C 1408  -0.100   0.955  12.569  0.7699  1.0387  0.4428
   11MOL0     C 1409  -0.091   1.180  12.444 -0.1280  0.4233 -0.5408
   11MOL0     C 1410  -0.227   1.197  12.422  0.1707 -0.2491 -0.5120
   11MOL0     O 1411  -0.251   1.221  12.293 -0.1224  0.3731  0.0430
   11MOL0     C 1412  -0.371   1.268  12.242  1.0112  0.9535 -0.1755
   11MOL0     C 1413  -0.390   1.278  12.098 -0.2300  0.1309  0.9452
   11MOL0     C 1414  -0.511   1.327  12.046 -0.8063 -1.1036 -0.5718
   11MOL0     C 1415  -0.612   1.371  12.126 -0.2165  0.1137 -0.0541
   11MOL0     O 1416  -0.729   1.418  12.060  0.0769 -0.1849  0.4513
   11MOL0     C 1417  -0.847   1.361  12.116  0.4392  0.7195 -0.4265
   11MOL0     C 1418  -0.959   1.413  12.026  0.4142  0.2405  0.1506
   11MOL0     C 1419  -1.003   1.555  12.070  0.7568 -0.2986  1.0907
   11MOL0     C 1420  -1.084   1.621  11.942 -0.1542 -0.4230  0.4980
   11MOL0     C 1421  -1.139   1.763  11.978  0.3248 -0.2372 -0.5972
   11MOL0     C 1422  -1.258   1.757  12.083  0.4075 -0.5768 -1.4311
   11MOL0     C 1423  -1.353   1.878  12.074 -0.3470 -0.3540  0.1143
   11MOL0     C 1424  -1.464   1.881  12.181  0.6608  0.0339  0.7272
   11MOL0    Cl 1425  -1.594   1.765  12.155  0.2106  0.0053 -0.2048
   11MOL0     C 1426  -0.592   1.350  12.264 -0.3831 -0.4630  0.9774
   11MOL0     C 1427  -0.471   1.320  12.322  0.4090  0.6365 -0.8588
   11MOL0     O 1428  -0.302   1.168  12.513  0.1771  0.0505 -0.0366
   11MOL0     C 1429  -0.007   1.273  12.382  0.6462 -1.3932 -0.5503
   11MOL0     C 1430   0.129   1.283  12.396 -0.5123 -0.3895 -0.9374
   11MOL0     N 1431   0.823   1.433  12.445  0.4355  0.1430  0.7146
   11MOL0     N 1432   0.941   1.477  12.414 -0.1299  0.3274  0.2468
   11MOL0     C 1433   1.667   1.366  11.345  0.4895  0.3374  0.6252
   11MOL0     C 1434   1.721   1.420  11.225  0.7772  0.1619  0.0638
   11MOL0     C 1435   1.888   1.703  10.929 -0.0851 -0.5405 -0.1322
   11MOL0     C 1436   1.921   1.835  10.902 -0.3092 -0.1453 -0.8129
   11MOL0     C 1437   2.033   1.858  10.817  0.7215 -0.0964  0.0952
   11MOL0     C 1438   2.102   1.755  10.751 -0.0139 -0.0391  0.1892
   11MOL0     O 1439   2.209   1.790  10.671 -0.1008  0.3058  0.2777
   11MOL0     C 1440   2.280   1.690  10.603 -0.7368  0.4374 -0.4458
   11MOL0     C 1441   2.216   1.654  10.470 -0.1894  0.9014 -1.0296
   11MOL0     C 1442   2.266   1.520  10.414  0.4409  0.2621 -0.6140
   11MOL0     C 1443   2.158   1.427  10.361  1.1492  0.5954  1.1739
   11MOL0     C 1444   2.134   1.317  10.457  0.3466 -1.1515 -0.2717
   11MOL0     C 1445   2.110   1.226  10.527 -0.5553  0.2540  0.5958
   11MOL0     C 1446   2.055   1.630  10.775  0.1806  0.3999  0.4165
   11MOL0     C 1447   1.948   1.600  10.853 -0.7381 -0.1441 -0.3115
   11MOL0     C 1448   1.917   1.456  10.860  0.3092  0.7787  0.4966
   11MOL0     H 1449   1.465   1.635  11.138 -1.5074 -1.8456  0.7143
   11MOL0     H 1450   1.380   1.534  11.334  0.0187  0.8956 -3.1426
   11MOL0     H 1451   1.677   1.410  11.610  1.0717 -1.2856 -2.1977
   11MOL0     H 1452   1.607   1.244  11.639  1.0808  0.6381 -0.6718
   11MOL0     H 1453   1.414   1.340  11.743 -0.3944  1.6878  4.7359
   11MOL0     H 1454   1.558   1.349  11.843  2.0182  3.3676  1.5945
   11MOL0     H 1455   1.579   1.584  11.768  0.2597 -1.1785 -0.1291
   11MOL0     H 1456   1.415   1.565  11.702  1.3344 -1.3478 -1.4565
   11MOL0     H 1457   1.530   1.539  11.980 -0.8794  3.3118  1.5157
   11MOL0     H 1458   1.426   1.663  11.944  3.0744  0.6639  1.1772
   11MOL0     H 1459   1.340   1.357  11.955 -0.2762 -0.8563 -0.9629
   11MOL0     H 1460   1.227   1.490  11.929  0.8528  2.8005  2.2983
   11MOL0     H 1461   1.388   1.458  12.187  0.5477  1.3101 -0.4517
   11MOL0     H 1462   1.296   1.596  12.137  0.8185 -0.8529 -1.0974
   11MOL0     H 1463   1.180   1.298  12.121 -0.2667 -0.4358  0.2140
   11MOL0     H 1464   1.092   1.445  12.118  1.5213  1.3927 -1.8512
   11MOL0     H 1465   1.218   1.310  12.362  0.3302  1.2785  1.9658
   11MOL0     H 1466   1.192   1.482  12.353 -0.6086  1.6740 -4.6128
   11MOL0     H 1467   0.952   1.168  12.293  2.9655  1.2409  0.5453
   11MOL0     H 1468   0.674   1.206  12.534 -1.0066 -2.2611  0.2160
   11MOL0     H 1469   0.743   1.098  12.407  0.4366  0.7411 -1.9977
   11MOL0     H 1470   0.634   1.214  12.225 -2.6693  1.1949 -0.6230
   11MOL0     H 1471   0.555   1.097  12.313  1.9514 -1.2116 -0.2673
   11MOL0     H 1472   0.535   1.402  12.330  1.1429 -0.3036  1.3750
   11MOL0     H 1473   0.402   1.298  12.280  0.1261 -1.2855  0.5415
   11MOL0     H 1474   0.493   1.298  12.569  1.8574  0.7606 -1.3949
   11MOL0     H 1475   0.360   1.395  12.518  1.8385  1.0863 -0.1040
   11MOL0     H 1476   0.159   1.006  12.586  0.8505  2.1461  0.0016
   11MOL0     H 1477  -0.134   0.895  12.484 -2.7606  0.2883  2.2056
   11MOL0     H 1478  -0.193   0.966  12.626  0.0077 -1.7837 -0.1014
   11MOL0     H 1479  -0.031   0.906  12.639 -0.2169 -1.9111 -0.5023
   11MOL0     H 1480  -0.313   1.240  12.031 -0.8201 -1.3064  1.0570
   11MOL0     H 1481  -0.529   1.355  11.942  1.4822  3.0248 -0.0825
   11MOL0     H 1482  -0.840   1.252  12.113 -2.0147  0.5328 -1.0084
   11MOL0     H 1483  -0.868   1.382  12.222 -3.3425  0.3128 -0.9687
   11MOL0     H 1484  -0.911   1.398  11.929  1.7179 -0.4686  0.8655
   11MOL0     H 1485  -1.041   1.342  12.036 -0.2118  1.0337  0.8158
   11MOL0     H 1486  -0.920   1.618  12.103  0.5570  0.8943 -0.5479
   11MOL0     H 1487  -1.077   1.550  12.150  0.4842  0.6265  0.9049
   11MOL0     H 1488  -1.161   1.552  11.906 -1.0639  0.1773  1.2555
   11MOL0     H 1489  -1.004   1.635  11.868  0.0646  1.6670  1.0460
   11MOL0     H 1490  -1.056   1.824  12.015 -0.9948  0.4462  1.4319
   11MOL0     H 1491  -1.177   1.805  11.885 -3.1704 -2.5055 -0.3519
   11MOL0     H 1492  -1.209   1.750  12.181  0.2754  1.5713 -1.1622
   11MOL0     H 1493  -1.317   1.666  12.068 -0.8383  0.1254 -0.8757
   11MOL0     H 1494  -1.385   1.902  11.972  0.5034  1.6070  0.2672
   11MOL0     H 1495  -1.293   1.962  12.107 -2.2950 -0.1376  3.6598
   11MOL0     H 1496  -1.513   1.978  12.187 -1.7517 -0.8473 -2.1111
   11MOL0     H 1497  -1.417   1.870  12.280  0.2304  1.4245  1.1090
   11MOL0     H 1498  -0.674   1.376  12.331 -3.1991 -2.5879 -1.3457
   11MOL0     H 1499  -0.472   1.306  12.430  2.8598  1.0461 -0.7178
   11MOL0     H 1500  -0.061   1.348  12.325  0.6244  1.9319  3.4212
   11MOL0     H 1501   0.189   1.363  12.355  0.2905 -0.0178  0.8378
   11MOL0     H 1502   1.731   1.313  11.414 -0.0831  1.0734  1.7497
   11MOL0     H 1503   1.822   1.387  11.201  1.3741  0.8998  1.4659
   11MOL0     H 1504   1.871   1.918  10.951  2.8925  0.7607  1.2381
   11MOL0     H 1505   2.057   1.962  10.798  0.1393  0.1252  0.5242
   11MOL0     H 1506   2.383   1.722  10.586 -0.2058  0.3392  2.1069
   11MOL0     H 1507   2.290   1.596  10.658  3.3136  1.1065  0.2677
   11MOL0     H 1508   2.245   1.740  10.409  1.7035  2.4402  1.8173
   11MOL0     H 1509   2.108   1.648  10.486 -0.0001 -0.3240 -0.1057
   11MOL0     H 1510   2.331   1.538  10.328  0.1956 -0.9091 -1.0699
   11MOL0     H 1511   2.336   1.477  10.486  1.2719  2.7750  0.1769
   11MOL0     H 1512   2.193   1.393  10.263  1.2539  0.7719  1.1496
   11MOL0     H 1513   2.062   1.475  10.341 -0.0498 -2.3111 -0.8225
   11MOL0     H 1514   2.077   1.138  10.578 -1.8557  0.8333  0.7919
   11MOL0     H 1515   2.108   1.546  10.732  2.4503  0.5421  2.6946
   11MOL0     H 1516   1.984   1.387  10.807 -2.6066 -0.5338 -1.7769
   11MOL0     H 1517   1.920   1.422  10.964  1.3401 -1.0816 -0.1001
   11MOL0     H 1518   1.820   1.436  10.814  0.8664 -1.8927  0.3236
   12MOL0     O 1519   0.477  10.365   5.114 -0.1598 -0.1767  0.2336
   12MOL0     C 1520   0.397  10.340   5.196 -0.8087 -0.1264 -0.1167
   12MOL0     O 1521   0.404  10.370   5.332  0.5067  0.1882  0.7714
   12MOL0     C 1522   0.488  10.467   5.374  1.3878  0.1631  0.7224
   12MOL0     C 1523   0.429  10.593   5.404  0.6372 -0.0777  0.7091
   12MOL0     C 1524   0.507  10.695   5.461  0.0472 -0.4537  0.2566
   12MOL0     C 1525   0.649  10.671   5.491  0.1148 -0.7221  0.3885
   12MOL0     O 1526   0.724  10.769   5.557  0.2381 -0.4153 -0.7541
   12MOL0     C 1527   0.855  10.735   5.605 -0.0039  0.3951  0.6646
   12MOL0     C 1528   0.915  10.850   5.691 -0.5959 -0.1286 -0.1136
   12MOL0     C 1529   0.892  10.995   5.629  0.3679  0.0185 -0.4958
   12MOL0     C 1530   1.003  11.083   5.683 -0.5646  0.1617  0.3344
   12MOL0     C 1531   0.991  11.223   5.618  0.7670  0.7778 -0.2453
   12MOL0     C 1532   1.095  11.328   5.667  0.0528 -0.1083  0.4562
   12MOL0     C 1533   1.095  11.465   5.589 -0.3729 -0.2988  0.0459
   12MOL0     C 1534   1.154  11.450   5.450  0.0871  0.1601 -0.0715
   12MOL0     N 1535   1.191  11.575   5.386 -0.5326 -0.0489  0.0647
   12MOL0     C 1536   1.306  11.658   5.398 -0.3373  0.0177  0.8650
   12MOL0     C 1537   1.279  11.769   5.322 -0.2552 -0.1647 -0.2001
   12MOL0     C 1538   1.359  11.899   5.308 -0.1986  0.0931 -0.8171
   12MOL0     C 1539   1.476  11.873   5.202  0.9241 -0.5824 -0.0180
   12MOL0     C 1540   1.553  12.005   5.190 -0.1278  0.6761 -0.4314
   12MOL0     C 1541   1.628  12.019   5.057 -0.1364  0.3550  0.0748
   12MOL0     O 1542   1.702  11.904   5.028  0.2882 -0.5057  0.3798
   12MOL0     C 1543   1.821  11.905   5.094  0.1968 -0.2839  0.2393
   12MOL0     C 1544   1.847  11.826   5.210 -0.5964 -1.1675 -0.0698
   12MOL0     C 1545   1.967  11.838   5.276  0.5018  0.0738 -0.2893
   12MOL0     C 1546   2.002  11.730   5.382 -0.3050 -0.1075  0.2362
   12MOL0     C 1547   2.060  11.942   5.245 -0.4423 -0.1856 -1.4811
   12MOL0     C 1548   2.191  11.968   5.310  0.6825 -0.9348 -0.8019
   12MOL0     O 1549   2.191  11.957   5.442 -0.2132  0.6710  0.3986
   12MOL0     C 1550   2.303  11.995   5.513  0.2810  0.0493  0.0661
   12MOL0     C 1551   2.392  11.897   5.553 -0.2008 -0.0893  0.2097
   12MOL0     C 1552   2.505  11.938   5.624  1.1293 -0.0319  0.1545
   12MOL0     C 1553   2.541  12.069   5.645 -0.0812 -0.4551  1.4218
   12MOL0     O 1554   2.642  12.116   5.725 -0.4075 -0.3058  0.7386
   12MOL0     C 1555   2.766  12.046   5.734 -0.0510 -0.7657 -0.3694
   12MOL0     C 1556   2.856  12.114   5.836 -0.0445 -0.3194 -0.3303
   12MOL0     C 1557   2.900  12.023   5.953  0.4872  0.3074 -0.3628
   12MOL0     C 1558   2.980  12.093   6.076  0.1792  0.0555  0.1216
   12MOL0     C 1559   2.896  12.153   6.186  0.3338 -0.0423  0.6405
   12MOL0     C 1560   2.993  12.234   6.267  0.2634 -1.1293  1.1732
   12MOL0     C 1561   2.939  12.299   6.388  0.5540 -0.0995  0.1471
   12MOL0     C 1562   3.032  12.314   6.515  0.2788 -0.5578 -0.1226
   12MOL0    Cl 1563   3.092  12.483   6.497  0.3170  0.1643 -0.2114
   12MOL0     C 1564   2.447  12.170   5.602  0.5034  0.5918  0.3382
   12MOL0     C 1565   2.325  12.132   5.543 -0.3872 -0.2212  0.1449
   12MOL0     O 1566   2.290  12.001   5.244 -1.2877  0.3046  0.4644
   12MOL0     C 1567   2.028  12.019   5.138  0.3087 -0.5813  0.2562
   12MOL0     C 1568   1.916  11.996   5.061  0.0367 -0.6878  1.0045
   12MOL0     N 1569   1.158  11.749   5.263 -0.0840  0.0552 -1.0893
   12MOL0     N 1570   1.108  11.631   5.295  0.7535 -0.1692  0.9234
   12MOL0     C 1571   0.702  10.546   5.447  0.5952 -0.3957  0.4812
   12MOL0     C 1572   0.619  10.446   5.402 -0.1210 -0.5620 -0.2788
   12MOL0     C 1573   0.264  10.299   5.148 -0.6816 -0.1535  0.0384
   12MOL0     C 1574   0.165  10.298   5.253  0.6163 -0.2093  0.8477
   12MOL0     C 1575   0.033  10.264   5.211 -0.5108  1.2349 -0.6705
   12MOL0     C 1576  -0.005  10.207   5.087 -0.6725 -0.0575  0.1482
   12MOL0     O 1577  -0.132  10.183   5.056  0.6784  0.3777  0.0003
   12MOL0     C 1578  -0.156  10.052   4.993  0.7558 -0.7719  0.4183
   12MOL0     C 1579  -0.203  10.073   4.845  1.0167 -0.3071 -0.3456
   12MOL0     C 1580  -0.251   9.934   4.796 -0.3883  0.6921  0.2515
   12MOL0     C 1581  -0.370   9.906   4.714 -0.2257  1.5141 -0.2657
   12MOL0     C 1582  -0.364   9.973   4.584  1.3754 -0.7541 -0.5246
   12MOL0     C 1583  -0.363  10.035   4.478 -0.3272 -0.8396 -0.1766
   12MOL0     C 1584   0.101  10.198   4.996  1.0978  0.6753 -0.1595
   12MOL0     C 1585   0.231  10.251   5.017  0.0717 -0.1853 -0.6154
   12MOL0     C 1586   0.333  10.241   4.912 -0.3623 -0.6287 -0.1772
   12MOL0     H 1587   0.324  10.595   5.380 -0.0408  1.5598  3.3674
   12MOL0     H 1588   0.459  10.791   5.476 -0.0671 -0.3201 -0.9295
   12MOL0     H 1589   0.932  10.723   5.528 -0.6629  1.5463 -0.2067
   12MOL0     H 1590   0.851  10.643   5.664 -1.9112 -1.2589 -1.8678
   12MOL0     H 1591   0.868  10.843   5.789 -0.7505 -0.8490 -0.2311
   12MOL0     H 1592   1.022  10.828   5.702 -0.1062  2.8179  2.2731
   12MOL0     H 1593   0.897  10.986   5.520 -2.4279  1.4559 -0.8577
   12MOL0     H 1594   0.795  11.041   5.654  0.4939 -0.0625  0.1706
   12MOL0     H 1595   0.987  11.091   5.791 -1.7935 -3.2098  0.5507
   12MOL0     H 1596   1.099  11.035   5.665 -2.1456 -3.0149 -0.4812
   12MOL0     H 1597   0.892  11.260   5.647  0.4953  0.5819 -0.9037
   12MOL0     H 1598   0.993  11.210   5.509  1.5912  0.1952 -0.1662
   12MOL0     H 1599   1.077  11.351   5.773 -1.3849  0.7177  0.0675
   12MOL0     H 1600   1.190  11.275   5.665  0.1603  0.0471  1.1143
   12MOL0     H 1601   1.161  11.534   5.643 -1.8217  0.3353  1.0698
   12MOL0     H 1602   0.995  11.508   5.581  0.0969  0.5711 -1.6157
   12MOL0     H 1603   1.246  11.392   5.457 -2.5915 -4.2522  3.3625
   12MOL0     H 1604   1.078  11.403   5.387 -0.2797  3.4085 -2.3115
   12MOL0     H 1605   1.393  11.640   5.460  0.2373 -3.3275 -0.6545
   12MOL0     H 1606   1.397  11.930   5.406 -0.1729  1.4298 -1.2250
   12MOL0     H 1607   1.295  11.982   5.277  1.0295  0.8453 -1.4085
   12MOL0     H 1608   1.534  11.797   5.255 -0.3864  0.3513  3.0357
   12MOL0     H 1609   1.439  11.835   5.107  2.0368 -0.6092 -0.4452
   12MOL0     H 1610   1.490  12.094   5.196 -0.1434  1.2874 -5.3118
   12MOL0     H 1611   1.626  11.995   5.270 -1.4576 -1.7406  0.6096
   12MOL0     H 1612   1.562  12.040   4.972  0.0921 -0.6440 -0.3575
   12MOL0     H 1613   1.690  12.110   5.063  0.2748  0.0549  0.4825
   12MOL0     H 1614   1.784  11.750   5.256  0.1223  0.6140  4.4078
   12MOL0     H 1615   2.103  11.693   5.363 -1.0650 -0.7848 -2.9561
   12MOL0     H 1616   1.935  11.643   5.379 -1.0197  0.4558 -0.5850
   12MOL0     H 1617   2.000  11.783   5.478  0.6487 -0.5401  0.5050
   12MOL0     H 1618   2.366  11.794   5.530 -0.6292 -0.1913  1.1357
   12MOL0     H 1619   2.560  11.851   5.661 -2.3613 -2.9253 -0.8577
   12MOL0     H 1620   2.764  11.939   5.754  4.1587 -0.8043  0.6959
   12MOL0     H 1621   2.813  12.059   5.636  0.0924 -1.7834 -0.4455
   12MOL0     H 1622   2.945  12.151   5.784  1.6913  0.9166  3.1500
   12MOL0     H 1623   2.812  12.207   5.872  1.9103  1.4614 -2.2201
   12MOL0     H 1624   2.983  11.966   5.910 -0.2992  0.4706 -2.1769
   12MOL0     H 1625   2.821  11.961   5.996  1.1973  0.9998  2.1085
   12MOL0     H 1626   3.059  12.157   6.034  0.4680 -0.6545 -0.4365
   12MOL0     H 1627   3.033  12.011   6.124 -0.5670 -1.0317 -0.8734
   12MOL0     H 1628   2.813  12.216   6.152  0.4268 -0.7187 -0.9141
   12MOL0     H 1629   2.851  12.079   6.253 -3.3821  3.8462  2.9819
   12MOL0     H 1630   3.016  12.326   6.212 -0.4438 -0.2241  2.3306
   12MOL0     H 1631   3.076  12.168   6.293  0.5486 -1.0261  0.5469
   12MOL0     H 1632   2.858  12.237   6.427  0.3192  0.0188 -0.1490
   12MOL0     H 1633   2.889  12.393   6.366  1.3259  0.2926  0.0476
   12MOL0     H 1634   3.111  12.238   6.515 -0.1211 -0.9796  0.3472
   12MOL0     H 1635   2.978  12.319   6.610  1.9481 -0.4364  0.8734
   12MOL0     H 1636   2.475  12.275   5.609 -0.3830  1.1731 -3.0544
   12MOL0     H 1637   2.255  12.211   5.519  1.8102  1.0504 -2.5708
   12MOL0     H 1638   2.092  12.101   5.105  0.9333 -0.7811  0.9307
   12MOL0     H 1639   1.910  12.051   4.967  0.0276 -1.6000  0.4609
   12MOL0     H 1640   0.808  10.529   5.462  1.1754  3.4301  1.8114
   12MOL0     H 1641   0.655  10.346   5.380  1.9550  0.2253 -0.7530
   12MOL0     H 1642   0.183  10.340   5.351  0.8223  1.4732  0.1280
   12MOL0     H 1643  -0.034  10.264   5.297  1.2435 -1.0318  0.8331
   12MOL0     H 1644  -0.063   9.996   5.001  2.7209  2.3518  1.1791
   12MOL0     H 1645  -0.231  10.003   5.055 -1.5602 -1.5927 -2.7429
   12MOL0     H 1646  -0.128  10.111   4.774  1.3514 -0.5983 -0.1528
   12MOL0     H 1647  -0.290  10.139   4.847  0.7583 -0.5883  3.0680
   12MOL0     H 1648  -0.161   9.894   4.748 -0.8981 -0.9080  0.5647
   12MOL0     H 1649  -0.264   9.879   4.889  1.2860  1.1596  0.7826
   12MOL0     H 1650  -0.452   9.940   4.779 -0.1031  1.0949  0.1143
   12MOL0     H 1651  -0.381   9.799   4.696  3.2368  0.9348  0.4092
   12MOL0     H 1652  -0.370  10.094   4.389 -0.2310  0.4791  0.6641
   12MOL0     H 1653   0.075  10.161   4.897 -1.2851 -1.5687  1.1757
   12MOL0     H 1654   0.406  10.161   4.922 -0.1248 -0.4464 -0.4213
   12MOL0     H 1655   0.284  10.228   4.815 -0.3459  1.2127 -0.4571
   12MOL0     H 1656   0.379  10.340   4.906 -0.0497 -0.5701  2.1983
   13MOL0     O 1657   8.308   1.773   6.049 -0.6500 -0.4538 -0.5918
   13MOL0     C 1658   8.350   1.718   5.948 -0.1575  0.2559 -0.5375
   13MOL0     O 1659   8.483   1.714   5.913  0.1311  0.6007 -0.4261
   13MOL0     C 1660   8.569   1.795   5.980 -0.2966  0.4570  1.0090
   13MOL0     C 1661   8.591   1.767   6.117  0.2485  0.3736 -0.1828
   13MOL0     C 1662   8.691   1.829   6.189 -0.1194  0.1091 -1.3133
   13MOL0     C 1663   8.770   1.927   6.127 -0.7723  0.6220 -0.9737
   13MOL0     O 1664   8.872   1.980   6.202  0.3178  1.1770  0.4558
   13MOL0     C 1665   8.845   2.121   6.240 -0.0460 -0.3642  0.7785
   13MOL0     C 1666   8.984   2.183   6.252 -0.7627  0.0770  0.0376
   13MOL0     C 1667   9.058   2.157   6.385  0.8389 -0.9186  0.5450
   13MOL0     C 1668   9.204   2.210   6.385  0.0765  0.0379  0.8373
   13MOL0     C 1669   9.284   2.158   6.509  0.0339  0.1635 -0.2555
   13MOL0     C 1670   9.424   2.231   6.512  0.4965 -0.5084 -0.4602
   13MOL0     C 1671   9.411   2.376   6.564  0.3926  0.0375 -1.0093
   13MOL0     C 1672   9.529   2.463   6.510 -0.0563  0.1149 -0.0754
   13MOL0     N 1673   9.517   2.490   6.367  0.2399 -0.2892 -0.4888
   13MOL0     C 1674   9.588   2.434   6.260  0.0488  0.5893 -0.5612
   13MOL0     C 1675   9.552   2.498   6.149 -0.6162  0.0153 -0.0713
   13MOL0     C 1676   9.614   2.479   6.009  0.0087 -0.1997 -0.0636
   13MOL0     C 1677   9.761   2.520   6.012  0.0263 -0.2581 -0.5150
   13MOL0     C 1678   9.816   2.517   5.864 -1.1069  0.7614 -0.7087
   13MOL0     C 1679   9.963   2.542   5.877  0.0742 -0.2548 -0.0858
   13MOL0     O 1680  10.003   2.674   5.917  0.8917  0.2625  0.1439
   13MOL0     C 1681  10.136   2.709   5.909 -0.1071  0.2035 -0.4695
   13MOL0     C 1682  10.235   2.611   5.870  0.7278  0.3906 -0.0446
   13MOL0     C 1683  10.368   2.651   5.861 -0.4407 -0.5208  0.3149
   13MOL0     C 1684  10.474   2.556   5.815 -0.0853 -0.5745  0.4572
   13MOL0     C 1685  10.402   2.783   5.906  0.7053 -0.8353  1.0198
   13MOL0     C 1686  10.542   2.835   5.907  0.4042  0.6830  0.1664
   13MOL0     O 1687  10.640   2.782   5.832 -0.2629  0.1406 -0.7371
   13MOL0     C 1688  10.772   2.804   5.857 -0.7546 -1.1948 -0.8533
   13MOL0     C 1689  10.847   2.756   5.973 -0.9085 -0.2509  0.9257
   13MOL0     C 1690  10.986   2.784   5.991  0.4485  0.3599 -0.6656
   13MOL0     C 1691  11.056   2.865   5.901  1.1634 -0.5707  0.0372
   13MOL0     O 1692  11.190   2.882   5.922 -0.2773  0.2220  0.3847
   13MOL0     C 1693  11.254   2.960   5.822  0.4600  0.6417  0.7074
   13MOL0     C 1694  11.404   2.971   5.851 -0.2462 -0.0833 -0.5032
   13MOL0     C 1695  11.474   3.047   5.736 -0.4745  0.8167 -0.0854
   13MOL0     C 1696  11.618   3.098   5.789 -0.2999 -0.1707 -0.6236
   13MOL0     C 1697  11.700   3.153   5.667 -0.3714  1.1190 -0.4756
   13MOL0     C 1698  11.817   3.248   5.711 -0.1184  0.7774 -0.1904
   13MOL0     C 1699  11.914   3.281   5.599  0.2194  1.1129  0.3873
   13MOL0     C 1700  12.049   3.322   5.652  0.2247 -0.2596  0.3298
   13MOL0    Cl 1701  12.122   3.424   5.526  0.1490 -0.4467  0.0108
   13MOL0     C 1702  10.979   2.922   5.794  0.9597 -0.7486  0.3087
   13MOL0     C 1703  10.841   2.897   5.777  0.6766  0.1257  0.4163
   13MOL0     O 1704  10.556   2.929   5.987  0.2344  0.8865 -0.0770
   13MOL0     C 1705  10.301   2.869   5.951 -0.1458  0.2744  0.6422
   13MOL0     C 1706  10.172   2.832   5.946  0.5374 -0.3018 -0.2047
   13MOL0     N 1707   9.451   2.589   6.186 -0.3268  0.0614 -0.2582
   13MOL0     N 1708   9.436   2.587   6.313 -0.5060  0.2105 -0.6403
   13MOL0     C 1709   8.730   1.973   6.004  0.0292  0.0421 -0.6550
   13MOL0     C 1710   8.629   1.909   5.927 -0.0427  0.0711  0.0691
   13MOL0     C 1711   8.250   1.652   5.862 -0.0741  0.2556  0.7971
   13MOL0     C 1712   8.133   1.606   5.929 -0.1617  0.0814 -0.0377
   13MOL0     C 1713   8.023   1.561   5.863  0.4313 -0.0304  0.4576
   13MOL0     C 1714   8.028   1.547   5.726  0.6094  0.6380 -0.7302
   13MOL0     O 1715   7.926   1.497   5.643  0.7576  0.0597 -0.0993
   13MOL0     C 1716   7.910   1.565   5.522  0.0452  0.0926  0.9495
   13MOL0     C 1717   7.760   1.585   5.483 -0.1229  0.2779  0.2517
   13MOL0     C 1718   7.681   1.669   5.579 -0.4222  0.3849  1.0177
   13MOL0     C 1719   7.537   1.665   5.519 -0.3881  0.1496 -0.2338
   13MOL0     C 1720   7.515   1.753   5.403  0.5647  0.2314 -0.3373
   13MOL0     C 1721   7.488   1.792   5.290 -0.1451 -0.1141 -1.5930
   13MOL0     C 1722   8.147   1.573   5.659 -0.5689  0.0834 -0.2830
   13MOL0     C 1723   8.262   1.629   5.724 -0.3781 -0.8739  0.1878
   13MOL0     C 1724   8.374   1.675   5.639 -1.2516 -0.2400 -1.1661
   13MOL0     H 1725   8.537   1.687   6.167  2.5606  0.2194  2.2429
   13MOL0     H 1726   8.696   1.797   6.292 -1.3575  0.0116 -1.2664
   13MOL0     H 1727   8.801   2.118   6.340 -0.0718 -0.4814  0.7636
   13MOL0     H 1728   8.773   2.177   6.180 -0.1391 -1.2684  0.0335
   13MOL0     H 1729   9.046   2.136   6.175  0.7742  0.0365  1.2367
   13MOL0     H 1730   8.983   2.292   6.239  0.8773  0.0741 -0.3627
   13MOL0     H 1731   8.999   2.206   6.462 -1.2722 -1.2402 -0.7792
   13MOL0     H 1732   9.066   2.050   6.407 -0.2671 -1.4415 -1.3495
   13MOL0     H 1733   9.269   2.184   6.300 -0.5193  1.8574 -0.2284
   13MOL0     H 1734   9.186   2.317   6.388 -1.4390 -0.2156  3.0506
   13MOL0     H 1735   9.296   2.050   6.520  2.9883  0.6599  3.3739
   13MOL0     H 1736   9.228   2.189   6.597 -2.3012  1.2595 -1.9959
   13MOL0     H 1737   9.514   2.182   6.551  0.7874 -0.3845 -0.9659
   13MOL0     H 1738   9.455   2.225   6.407  0.3843 -2.3199 -0.4132
   13MOL0     H 1739   9.420   2.370   6.673 -0.7745  3.3121 -0.6390
   13MOL0     H 1740   9.312   2.419   6.550  0.0535  0.6069  2.2834
   13MOL0     H 1741   9.543   2.559   6.561  1.6233  0.7181 -1.5565
   13MOL0     H 1742   9.627   2.415   6.522 -0.7581 -1.5407 -0.7790
   13MOL0     H 1743   9.674   2.369   6.264  1.7815  2.7251 -1.3348
   13MOL0     H 1744   9.556   2.545   5.943  1.4437  0.9572 -0.2370
   13MOL0     H 1745   9.602   2.373   5.989  0.4100 -0.2161 -0.2424
   13MOL0     H 1746   9.772   2.625   6.041  1.3035 -0.6982  0.7101
   13MOL0     H 1747   9.822   2.455   6.075  1.3506  1.0975 -0.3310
   13MOL0     H 1748   9.817   2.419   5.816  0.4901  0.3507  0.1054
   13MOL0     H 1749   9.754   2.586   5.805 -2.0479 -1.4764 -2.4665
   13MOL0     H 1750  10.014   2.473   5.946  0.8309  2.1286  1.9055
   13MOL0     H 1751   9.996   2.511   5.778 -0.8896 -2.0681  0.1290
   13MOL0     H 1752  10.210   2.511   5.835 -0.9831  1.1502 -1.1298
   13MOL0     H 1753  10.562   2.547   5.879  0.7840  0.4540 -0.5666
   13MOL0     H 1754  10.521   2.593   5.724 -1.3445 -1.0508 -0.4158
   13MOL0     H 1755  10.437   2.454   5.798 -1.1419 -0.7261  3.1466
   13MOL0     H 1756  10.808   2.700   6.058 -3.0531  0.6404  0.5599
   13MOL0     H 1757  11.035   2.738   6.076 -0.9032 -0.6593 -0.4056
   13MOL0     H 1758  11.249   2.908   5.726  0.7371  0.1098  0.9760
   13MOL0     H 1759  11.213   3.061   5.830 -0.6823  0.5105 -2.2988
   13MOL0     H 1760  11.409   3.023   5.947 -1.1694 -1.6114  0.4106
   13MOL0     H 1761  11.457   2.876   5.862  1.4983  0.9305  0.2836
   13MOL0     H 1762  11.408   3.127   5.702 -2.3558  1.1945  3.9282
   13MOL0     H 1763  11.490   2.964   5.666 -2.8566  0.1275  0.0956
   13MOL0     H 1764  11.674   3.016   5.833 -1.8624 -1.4994 -1.0299
   13MOL0     H 1765  11.608   3.180   5.861  1.5121 -0.7560  0.3397
   13MOL0     H 1766  11.737   3.064   5.616 -2.3875  0.0864 -0.2593
   13MOL0     H 1767  11.638   3.210   5.597  0.0543 -1.4828 -3.1729
   13MOL0     H 1768  11.872   3.206   5.795 -2.2795  0.3688  1.0887
   13MOL0     H 1769  11.783   3.347   5.741 -0.3046  0.6796 -0.0774
   13MOL0     H 1770  11.875   3.365   5.540  3.3666  3.1122  0.9135
   13MOL0     H 1771  11.927   3.198   5.529  1.3662  2.1664 -0.6974
   13MOL0     H 1772  12.102   3.229   5.671  1.7557  0.5688  0.2484
   13MOL0     H 1773  12.041   3.383   5.743 -1.0602  1.6743 -0.9981
   13MOL0     H 1774  11.018   2.983   5.714  1.5795 -1.6799 -0.1186
   13MOL0     H 1775  10.778   2.940   5.700  0.1862 -1.2949 -0.0072
   13MOL0     H 1776  10.328   2.969   5.983  1.7685  0.1344 -0.3442
   13MOL0     H 1777  10.096   2.904   5.974  1.6526  1.0655 -0.5870
   13MOL0     H 1778   8.793   2.046   5.955 -0.2086 -0.3372 -1.5328
   13MOL0     H 1779   8.610   1.947   5.828  1.3467 -0.3784 -0.3913
   13MOL0     H 1780   8.126   1.615   6.037 -1.9770 -0.0620 -0.0991
   13MOL0     H 1781   7.943   1.525   5.926  3.8548 -0.7339  4.9157
   13MOL0     H 1782   7.971   1.655   5.524  4.2027 -2.4817  2.1707
   13MOL0     H 1783   7.959   1.504   5.445  1.6154  0.2487  1.7968
   13MOL0     H 1784   7.711   1.489   5.462 -0.6969  0.8706 -1.2437
   13MOL0     H 1785   7.758   1.630   5.384 -2.0658 -1.2202 -0.4679
   13MOL0     H 1786   7.679   1.630   5.682 -0.3671  0.9646  1.2408
   13MOL0     H 1787   7.715   1.773   5.580 -1.3712  0.7618 -1.0722
   13MOL0     H 1788   7.469   1.690   5.602  1.3391  2.0927  0.6841
   13MOL0     H 1789   7.492   1.571   5.485 -0.3528 -0.3705  1.0817
   13MOL0     H 1790   7.461   1.832   5.195 -3.4440  1.4369 -0.1925
   13MOL0     H 1791   8.155   1.562   5.551  1.2501 -2.5421  0.0275
   13MOL0     H 1792   8.344   1.692   5.535  0.7950 -0.7734 -1.8803
   13MOL0     H 1793   8.423   1.768   5.669  0.1994 -0.7029 -1.9681
   13MOL0     H 1794   8.451   1.597   5.644 -0.6140  0.4538  1.4201
   14MOL0     O 1795   5.131   6.545   7.739 -0.4408 -0.5039 -0.1326
   14MOL0     C 1796   5.087   6.462   7.819  0.3157  0.1358  0.3237
   14MOL0     O 1797   5.072   6.496   7.950 -0.6470 -0.0287  0.0422
   14MOL0     C 1798   5.023   6.621   7.988 -0.1280  0.1894 -0.0742
   14MOL0     C 1799   4.929   6.688   7.903  0.2672 -0.9871 -0.4585
   14MOL0     C 1800   4.859   6.802   7.946  0.9400  0.7324 -0.1084
   14MOL0     C 1801   4.874   6.862   8.069 -0.1139  0.1426  0.7393
   14MOL0     O 1802   4.801   6.967   8.111 -0.7820 -0.5529 -0.4912
   14MOL0     C 1803   4.663   6.962   8.085  0.0055  0.0927 -0.1207
   14MOL0     C 1804   4.571   7.014   8.197  0.4352  0.0552  0.4449
   14MOL0     C 1805   4.601   7.157   8.245  0.5465 -0.3767  0.9237
   14MOL0     C 1806   4.460   7.219   8.281 -0.6412  0.2622  0.1637
   14MOL0     C 1807   4.387   7.136   8.385 -0.5740 -0.1157  0.0706
   14MOL0     C 1808   4.443   7.160   8.523  0.3933  0.2725 -0.5873
   14MOL0     C 1809   4.420   7.037   8.613 -0.1900 -0.6559  0.7161
   14MOL0     C 1810   4.501   6.906   8.591  0.7034 -1.0100 -0.2571
   14MOL0     N 1811   4.581   6.889   8.713 -0.3248 -0.6797 -0.4752
   14MOL0     C 1812   4.658   6.983   8.776  0.1838 -0.8662 -0.1383
   14MOL0     C 1813   4.704   6.921   8.886 -0.2307  0.3310 -0.3676
   14MOL0     C 1814   4.802   6.975   8.992 -0.2179  0.4238 -0.6999
   14MOL0     C 1815   4.748   6.937   9.135  0.0353 -0.2480  0.1606
   14MOL0     C 1816   4.840   6.998   9.248 -0.3794 -0.6118  0.5182
   14MOL0     C 1817   4.991   6.962   9.253  0.6089  0.2084  0.3981
   14MOL0     O 1818   5.009   6.827   9.275 -0.1935  0.4467 -0.0936
   14MOL0     C 1819   4.967   6.778   9.396  0.7942  1.1914  0.0331
   14MOL0     C 1820   4.999   6.832   9.511  0.2013 -0.4785 -0.5144
   14MOL0     C 1821   4.965   6.770   9.637 -0.2943  0.5285  0.3819
   14MOL0     C 1822   5.023   6.844   9.760  0.2812 -0.2326  0.6081
   14MOL0     C 1823   4.881   6.651   9.638  0.0204 -0.0725 -0.5303
   14MOL0     C 1824   4.818   6.589   9.755  0.0329 -0.3143 -0.2881
   14MOL0     O 1825   4.867   6.616   9.883  0.0850 -0.9578  0.8771
   14MOL0     C 1826   4.799   6.578   9.990 -0.1325  0.5340  0.3904
   14MOL0     C 1827   4.884   6.569  10.105  0.0338 -0.1712 -0.0848
   14MOL0     C 1828   4.832   6.539  10.233  1.5953 -0.5300 -0.0258
   14MOL0     C 1829   4.702   6.487  10.242 -0.0225  0.0076  0.1996
   14MOL0     O 1830   4.641   6.448  10.358  0.9329 -0.0009  1.0473
   14MOL0     C 1831   4.728   6.397  10.457  0.0730  0.1225  0.9432
   14MOL0     C 1832   4.641   6.324  10.561 -0.5449  0.2454  0.5745
   14MOL0     C 1833   4.722   6.295  10.691 -0.1392  0.7791  0.2440
   14MOL0     C 1834   4.655   6.183  10.767  0.4343 -0.7898  0.3805
   14MOL0     C 1835   4.702   6.190  10.908  0.3914  0.3557  0.0898
   14MOL0     C 1836   4.641   6.081  11.007 -0.7409 -0.7087 -0.8331
   14MOL0     C 1837   4.643   6.124  11.162  0.6253 -0.0608  1.0663
   14MOL0     C 1838   4.518   6.196  11.211  0.1859  0.1105  0.5418
   14MOL0    Cl 1839   4.478   6.225  11.385 -0.0725  0.2129  0.0388
   14MOL0     C 1840   4.620   6.501  10.131  0.2161  0.1406  0.4059
   14MOL0     C 1841   4.667   6.538  10.005 -0.3711  0.0060  0.2428
   14MOL0     O 1842   4.729   6.509   9.735  0.1770  0.1853  0.0215
   14MOL0     C 1843   4.842   6.598   9.515 -0.4628  0.5012  1.0370
   14MOL0     C 1844   4.894   6.656   9.397 -0.2959  0.8018  0.8218
   14MOL0     N 1845   4.677   6.786   8.883  0.6422  0.1534  0.0588
   14MOL0     N 1846   4.600   6.767   8.779  0.1003  0.5275 -0.5014
   14MOL0     C 1847   4.973   6.807   8.143  0.3215  0.2794  0.2166
   14MOL0     C 1848   5.046   6.686   8.110  0.1002 -0.1670  0.5862
   14MOL0     C 1849   5.061   6.327   7.776 -0.4560 -0.1841  0.0378
   14MOL0     C 1850   5.013   6.240   7.877  0.5181 -1.0559  0.1213
   14MOL0     C 1851   4.971   6.118   7.838  0.5268  0.4890 -0.0616
   14MOL0     C 1852   4.992   6.072   7.707  0.5215 -0.6609  0.5258
   14MOL0     O 1853   4.950   5.945   7.686 -0.1755  0.6731  0.4625
   14MOL0     C 1854   5.030   5.860   7.601 -0.9126  0.3170 -0.1970
   14MOL0     C 1855   4.966   5.720   7.585 -0.1306 -1.1217  0.0983
   14MOL0     C 1856   4.929   5.662   7.715  0.6893  0.1499 -0.8911
   14MOL0     C 1857   4.905   5.514   7.699  0.0048  0.5540  0.5917
   14MOL0     C 1858   4.891   5.449   7.835 -0.1080  0.1359  0.6427
   14MOL0     C 1859   4.869   5.342   8.000 -0.1107  0.4622  0.9131
   14MOL0     C 1860   5.045   6.159   7.612 -0.0871  0.6031 -0.3848
   14MOL0     C 1861   5.078   6.283   7.644 -0.1617 -0.2739  0.0718
   14MOL0     C 1862   5.129   6.362   7.527 -0.3785  0.9493 -0.2007
   14MOL0     H 1863   4.891   6.656   7.806  0.1065  2.7256 -1.7737
   14MOL0     H 1864   4.789   6.843   7.874 -1.0878  0.8442  1.8183
   14MOL0     H 1865   4.622   6.860   8.083  1.7037 -0.6856  1.9714
   14MOL0     H 1866   4.636   7.019   7.995 -1.3354 -2.1073 -1.2053
   14MOL0     H 1867   4.464   7.006   8.172  0.3098 -0.1890  1.0428
   14MOL0     H 1868   4.589   6.948   8.281  2.9190 -1.2706 -1.0104
   14MOL0     H 1869   4.666   7.167   8.333  1.2870  0.9941  0.2438
   14MOL0     H 1870   4.650   7.224   8.174 -0.7565  1.2436  1.4765
   14MOL0     H 1871   4.468   7.322   8.317 -2.1364 -0.1693  1.8520
   14MOL0     H 1872   4.403   7.217   8.188  3.1978  2.5449 -2.5415
   14MOL0     H 1873   4.381   7.028   8.369  0.5839 -0.1555 -0.2032
   14MOL0     H 1874   4.282   7.164   8.372 -0.0852  2.3053  0.9592
   14MOL0     H 1875   4.551   7.176   8.518  0.3147  0.4769 -2.8351
   14MOL0     H 1876   4.393   7.247   8.567 -1.1158 -1.4558  1.2984
   14MOL0     H 1877   4.314   7.013   8.610 -0.0437 -1.3940  1.1984
   14MOL0     H 1878   4.429   7.073   8.716  1.4894 -2.7108  1.3645
   14MOL0     H 1879   4.429   6.824   8.590  0.5203 -0.8811 -2.1658
   14MOL0     H 1880   4.546   6.922   8.492 -1.0883  0.8063 -0.8413
   14MOL0     H 1881   4.675   7.089   8.761 -3.2882 -0.2447 -0.4547
   14MOL0     H 1882   4.817   7.083   8.991  0.8471  0.4393  2.8426
   14MOL0     H 1883   4.901   6.932   8.978 -0.5765 -0.7981  0.2954
   14MOL0     H 1884   4.649   6.980   9.147  0.8347  0.9793  3.6182
   14MOL0     H 1885   4.752   6.827   9.135 -1.5062 -0.3346 -1.0172
   14MOL0     H 1886   4.838   7.105   9.228  0.8140 -1.0826 -2.7827
   14MOL0     H 1887   4.810   6.973   9.351 -1.1217  2.1862  1.0600
   14MOL0     H 1888   5.038   6.974   9.156  0.7220 -2.6369  0.0001
   14MOL0     H 1889   5.044   7.012   9.335  1.6953 -0.2067 -0.0320
   14MOL0     H 1890   5.054   6.925   9.519  0.3665 -0.3899 -2.2420
   14MOL0     H 1891   5.119   6.802   9.790  1.2855  0.1224 -1.8981
   14MOL0     H 1892   4.963   6.847   9.852  1.2470 -0.4760  1.2555
   14MOL0     H 1893   5.040   6.947   9.728  0.0660  0.7821  3.4897
   14MOL0     H 1894   4.987   6.596  10.085 -0.3421 -0.1383 -2.1489
   14MOL0     H 1895   4.893   6.554  10.321  1.3825  2.7931 -0.3339
   14MOL0     H 1896   4.795   6.322  10.413  0.5316  0.2870  1.3510
   14MOL0     H 1897   4.787   6.478  10.501  3.0198 -0.4286 -1.6389
   14MOL0     H 1898   4.553   6.388  10.571  0.7210  2.3126 -0.7982
   14MOL0     H 1899   4.610   6.227  10.522  1.3100 -0.8245  1.6056
   14MOL0     H 1900   4.732   6.386  10.752  1.3416  0.6967  0.1643
   14MOL0     H 1901   4.824   6.269  10.660  0.2909  1.4617  1.0263
   14MOL0     H 1902   4.674   6.091  10.712 -1.8496 -0.1539 -1.6611
   14MOL0     H 1903   4.546   6.182  10.771  0.4118  0.3520  0.4817
   14MOL0     H 1904   4.812   6.187  10.914  1.0849  5.0222 -3.9429
   14MOL0     H 1905   4.668   6.288  10.941  0.2731  0.1989  0.4370
   14MOL0     H 1906   4.700   5.991  10.989 -1.1777 -1.4992  1.3475
   14MOL0     H 1907   4.540   6.050  10.981 -1.5789 -1.2347  2.5420
   14MOL0     H 1908   4.735   6.179  11.185  2.3795 -2.0201 -0.8831
   14MOL0     H 1909   4.641   6.032  11.221  0.5410 -1.5583 -1.1857
   14MOL0     H 1910   4.430   6.149  11.165  0.3957  1.5742 -1.5133
   14MOL0     H 1911   4.520   6.295  11.166 -1.5165  0.6917  1.6661
   14MOL0     H 1912   4.519   6.461  10.136 -0.9312  2.9294  3.2053
   14MOL0     H 1913   4.591   6.564   9.932 -1.2896 -2.5899  0.1681
   14MOL0     H 1914   4.779   6.511   9.498 -0.3376  0.5480  0.3028
   14MOL0     H 1915   4.877   6.615   9.298 -4.5220  2.0308  0.8549
   14MOL0     H 1916   4.993   6.847   8.242 -0.3284  1.5616 -0.1460
   14MOL0     H 1917   5.124   6.649   8.175  1.4826  1.4158 -0.0964
   14MOL0     H 1918   4.991   6.277   7.977  2.7707  3.3940 -0.7424
   14MOL0     H 1919   4.928   6.048   7.910  0.4864  2.0175  1.4686
   14MOL0     H 1920   5.030   5.910   7.503  4.7777  1.1393 -0.1247
   14MOL0     H 1921   5.137   5.854   7.622 -0.2886  3.6378 -1.7192
   14MOL0     H 1922   5.051   5.667   7.540 -0.8755 -3.0080  0.7902
   14MOL0     H 1923   4.874   5.728   7.528 -0.1484  1.4505  0.3592
   14MOL0     H 1924   5.007   5.684   7.788 -0.6864  0.1392  0.6584
   14MOL0     H 1925   4.835   5.713   7.740  0.0395  0.0193 -2.9186
   14MOL0     H 1926   5.003   5.482   7.662 -0.4906  0.9990 -1.1670
   14MOL0     H 1927   4.823   5.487   7.633  2.0141 -0.0190 -1.8360
   14MOL0     H 1928   4.854   5.282   8.087 -1.4141 -1.7400 -0.7470
   14MOL0     H 1929   5.061   6.135   7.507  1.5165  3.1834 -0.8419
   14MOL0     H 1930   5.095   6.308   7.438 -2.2916 -0.1986  1.1477
   14MOL0     H 1931   5.077   6.458   7.526 -0.6713  0.8866  2.5360
   14MOL0     H 1932   5.236   6.379   7.540 -0.6079  1.9448  0.4357
   15MOL0     O 1933   5.146   3.212   5.809  0.4670 -0.3508 -0.0608
   15MOL0     C 1934   5.051   3.270   5.863  0.6404 -0.3313 -1.2395
   15MOL0     O 1935   5.064   3.369   5.965 -0.0029  0.0053 -0.2675
   15MOL0     C 1936   5.187   3.440   5.977  0.6652  0.3691 -0.5082
   15MOL0     C 1937   5.318   3.378   5.977 -0.2298 -0.0822  0.3122
   15MOL0     C 1938   5.436   3.455   5.991  0.6308  1.1801 -0.3586
   15MOL0     C 1939   5.431   3.590   6.012 -0.7916  0.8304 -0.1948
   15MOL0     O 1940   5.550   3.658   6.028 -0.1376  0.0187 -0.1240
   15MOL0     C 1941   5.682   3.619   5.980 -0.6174  0.1208  0.3056
   15MOL0     C 1942   5.794   3.713   6.035 -0.2250  0.1356 -0.1707
   15MOL0     C 1943   5.768   3.743   6.180 -1.1560  0.4565  0.2682
   15MOL0     C 1944   5.895   3.807   6.246  0.0675 -0.2821  0.0431
   15MOL0     C 1945   5.925   3.942   6.174  0.1851 -0.8866  0.9452
   15MOL0     C 1946   6.027   4.030   6.241  0.5967  0.5094 -0.1664
   15MOL0     C 1947   6.053   4.152   6.161  0.7828 -0.1098  0.1737
   15MOL0     C 1948   6.174   4.232   6.223  0.1889  0.2485  0.3657
   15MOL0     N 1949   6.177   4.374   6.176  0.4658 -0.6865 -0.1782
   15MOL0     C 1950   6.285   4.448   6.126  0.7975  0.5126  0.0064
   15MOL0     C 1951   6.269   4.584   6.135 -0.2684  0.1972  0.7131
   15MOL0     C 1952   6.377   4.673   6.085  0.0267 -0.1321 -0.0809
   15MOL0     C 1953   6.353   4.705   5.929  0.0146 -0.1915 -0.9546
   15MOL0     C 1954   6.488   4.734   5.868  1.3358  0.0484 -0.1719
   15MOL0     C 1955   6.552   4.861   5.915  0.3720 -0.0472  0.2611
   15MOL0     O 1956   6.691   4.883   5.866 -0.1643  0.2648 -0.6027
   15MOL0     C 1957   6.746   5.007   5.884  0.1950  0.7844  0.3264
   15MOL0     C 1958   6.855   5.034   5.805 -0.9166  0.1303  0.2439
   15MOL0     C 1959   6.918   5.164   5.806 -0.6905 -0.1179 -0.5468
   15MOL0     C 1960   7.051   5.176   5.744  0.4648  0.0393  0.2524
   15MOL0     C 1961   6.851   5.267   5.869  0.1842 -0.0049 -0.1819
   15MOL0     C 1962   6.892   5.409   5.866 -0.6074 -0.2584  1.0573
   15MOL0     O 1963   7.027   5.435   5.889  0.1890  0.1098 -0.9638
   15MOL0     C 1964   7.069   5.570   5.908  0.3965  0.1570  0.1356
   15MOL0     C 1965   7.013   5.648   6.015 -1.0184  0.3008 -0.0977
   15MOL0     C 1966   7.064   5.784   6.024  0.0615  0.5872  0.5336
   15MOL0     C 1967   7.177   5.825   5.949 -0.2418 -1.1173 -0.2196
   15MOL0     O 1968   7.222   5.953   5.956 -0.1808 -0.1852  0.0582
   15MOL0     C 1969   7.135   6.059   5.981 -0.1150 -0.9284 -0.2502
   15MOL0     C 1970   7.215   6.178   5.939  0.2082  0.4203  0.4946
   15MOL0     C 1971   7.299   6.231   6.051  0.1008 -0.2663 -0.2115
   15MOL0     C 1972   7.353   6.377   6.016 -0.2569  0.0196 -0.4805
   15MOL0     C 1973   7.476   6.434   6.092 -0.5929 -0.0525 -0.5961
   15MOL0     C 1974   7.444   6.508   6.221 -0.4851 -0.1957 -0.0271
   15MOL0     C 1975   7.566   6.571   6.292  0.2002 -0.0915  0.0738
   15MOL0     C 1976   7.515   6.655   6.400 -0.3265 -0.6388  0.1242
   15MOL0    Cl 1977   7.638   6.723   6.492 -0.2993  0.1655  0.1111
   15MOL0     C 1978   7.241   5.738   5.858  0.0711  0.6815 -0.2074
   15MOL0     C 1979   7.184   5.609   5.837 -0.2091 -0.0548 -0.0284
   15MOL0     O 1980   6.807   5.504   5.851 -0.6530  0.4557  0.0363
   15MOL0     C 1981   6.733   5.240   5.940 -0.0002 -1.0087 -0.7332
   15MOL0     C 1982   6.687   5.112   5.951  0.1105  0.0067  0.2353
   15MOL0     N 1983   6.147   4.597   6.212  0.3841  0.3537 -0.6974
   15MOL0     N 1984   6.100   4.474   6.235  0.4520 -0.7058 -0.6605
   15MOL0     C 1985   5.307   3.658   6.019  0.2627  0.2606 -0.9467
   15MOL0     C 1986   5.186   3.579   6.005  0.3638  0.2612  0.4238
   15MOL0     C 1987   4.910   3.240   5.820  0.0163  1.0155  0.4794
   15MOL0     C 1988   4.806   3.330   5.858 -0.1808  0.4302 -0.6763
   15MOL0     C 1989   4.669   3.301   5.835  0.7943  0.1165 -0.3177
   15MOL0     C 1990   4.636   3.180   5.766 -0.8180 -0.2019  0.7454
   15MOL0     O 1991   4.512   3.130   5.740  0.0412 -0.0526 -0.3148
   15MOL0     C 1992   4.401   3.181   5.802 -0.7038  0.1891  0.2212
   15MOL0     C 1993   4.291   3.081   5.765 -0.5439  0.1978 -0.4871
   15MOL0     C 1994   4.171   3.099   5.855  0.1040  0.0567 -0.1949
   15MOL0     C 1995   4.060   3.004   5.818 -0.2092  0.8924  0.5602
   15MOL0     C 1996   3.957   3.070   5.733  0.3149  0.4982 -0.7099
   15MOL0     C 1997   3.870   3.111   5.669  0.3528  0.2943  0.5709
   15MOL0     C 1998   4.741   3.095   5.724  1.1583  0.6540 -0.0693
   15MOL0     C 1999   4.872   3.125   5.752 -0.1134  0.5435 -0.0927
   15MOL0     C 2000   4.961   3.011   5.701 -0.0518  0.4192  0.2425
   15MOL0     H 2001   5.331   3.272   5.959  1.2822  0.1603 -0.1406
   15MOL0     H 2002   5.537   3.415   5.984 -0.0771 -0.3365 -3.7468
   15MOL0     H 2003   5.680   3.618   5.871  0.3515  0.7544  0.2752
   15MOL0     H 2004   5.716   3.517   6.004 -2.5986 -1.4618 -2.8967
   15MOL0     H 2005   5.889   3.662   6.018  0.3320  0.8072  0.8418
   15MOL0     H 2006   5.788   3.805   5.978  0.6826 -0.1357 -0.7264
   15MOL0     H 2007   5.678   3.806   6.181 -0.8186  0.9752  2.0425
   15MOL0     H 2008   5.725   3.655   6.227 -2.1095  1.3307  1.0800
   15MOL0     H 2009   5.885   3.819   6.354  0.2166 -1.0500  0.1493
   15MOL0     H 2010   5.980   3.741   6.226 -0.4549 -1.6656  2.1368
   15MOL0     H 2011   5.833   4.001   6.179  1.3652  1.2983 -1.0166
   15MOL0     H 2012   5.950   3.934   6.068 -0.0377  3.8972  0.3059
   15MOL0     H 2013   5.985   4.049   6.340 -1.1006 -0.5190 -0.6314
   15MOL0     H 2014   6.117   3.968   6.246  0.6106  0.1875 -2.8349
   15MOL0     H 2015   5.958   4.205   6.170  0.9285 -0.1761  2.6358
   15MOL0     H 2016   6.067   4.124   6.056  1.3107  0.0729  0.1926
   15MOL0     H 2017   6.182   4.224   6.332 -0.7490 -2.4201  0.3116
   15MOL0     H 2018   6.257   4.190   6.165 -0.2494  1.1489 -0.9827
   15MOL0     H 2019   6.372   4.415   6.070 -0.2964 -0.3815 -1.2550
   15MOL0     H 2020   6.473   4.621   6.096 -0.8921 -1.5995  1.5056
   15MOL0     H 2021   6.383   4.768   6.139 -0.3316  0.8904 -1.7688
   15MOL0     H 2022   6.310   4.616   5.881  0.0252 -0.4602 -0.4826
   15MOL0     H 2023   6.278   4.785   5.929 -1.2253 -1.3162 -0.6212
   15MOL0     H 2024   6.557   4.650   5.877 -2.3157 -2.9683  3.8243
   15MOL0     H 2025   6.463   4.751   5.763 -0.2139 -0.9452  0.0015
   15MOL0     H 2026   6.489   4.947   5.888  0.1870  0.4621  2.1874
   15MOL0     H 2027   6.546   4.860   6.024  1.7883 -0.7573  0.3575
   15MOL0     H 2028   6.898   4.947   5.757 -2.4772 -1.5881  1.8261
   15MOL0     H 2029   7.133   5.209   5.808  0.7505  0.5224 -0.3594
   15MOL0     H 2030   7.046   5.251   5.664  1.5578 -0.1064  0.0427
   15MOL0     H 2031   7.082   5.081   5.702 -2.9940 -0.2458 -2.1180
   15MOL0     H 2032   6.921   5.618   6.064 -1.1703 -0.2476 -0.6966
   15MOL0     H 2033   7.016   5.858   6.087 -2.4344 -0.9427  0.5949
   15MOL0     H 2034   7.059   6.045   5.903  2.1478  0.9695 -3.0431
   15MOL0     H 2035   7.095   6.065   6.082 -0.9825 -0.8955 -0.5855
   15MOL0     H 2036   7.289   6.162   5.860  0.4296  3.0199  0.0645
   15MOL0     H 2037   7.141   6.251   5.903 -1.0404 -1.3864 -0.7566
   15MOL0     H 2038   7.387   6.169   6.069  1.7498  2.5389  2.2666
   15MOL0     H 2039   7.237   6.252   6.139  1.1339  2.3243 -0.0174
   15MOL0     H 2040   7.268   6.445   6.020  1.1229  1.7382  1.5933
   15MOL0     H 2041   7.394   6.375   5.915 -2.4885  0.6490 -1.4487
   15MOL0     H 2042   7.548   6.353   6.107 -0.4122  0.1806 -0.1760
   15MOL0     H 2043   7.516   6.511   6.025  2.1988 -2.9323 -2.5143
   15MOL0     H 2044   7.380   6.452   6.290 -2.3761  1.1342 -0.6061
   15MOL0     H 2045   7.379   6.587   6.181 -1.1054  1.0840  3.2497
   15MOL0     H 2046   7.629   6.622   6.219 -1.3779  1.3357 -0.3543
   15MOL0     H 2047   7.618   6.487   6.339 -1.7223 -2.2044 -1.3284
   15MOL0     H 2048   7.461   6.603   6.479  2.0719  2.0725  3.9109
   15MOL0     H 2049   7.458   6.736   6.352  3.6042  2.0927 -0.4717
   15MOL0     H 2050   7.339   5.751   5.812  0.8277  4.1026  1.9842
   15MOL0     H 2051   7.233   5.535   5.775 -0.3126 -1.5717  1.6134
   15MOL0     H 2052   6.677   5.323   5.983  1.0865 -0.9667  0.6917
   15MOL0     H 2053   6.597   5.099   6.011  0.3891 -4.2532  0.0181
   15MOL0     H 2054   5.307   3.764   6.042  1.7220  0.0467  0.2096
   15MOL0     H 2055   5.094   3.633   6.025 -0.0618  0.1101 -1.0501
   15MOL0     H 2056   4.832   3.413   5.923 -0.0606  1.7089 -2.2902
   15MOL0     H 2057   4.583   3.357   5.873 -0.1497 -1.0231 -0.6988
   15MOL0     H 2058   4.407   3.186   5.911 -1.8565 -1.7854  0.4336
   15MOL0     H 2059   4.388   3.286   5.774  0.7625  1.2856  3.2670
   15MOL0     H 2060   4.334   2.984   5.791  2.7638  1.7033  0.2654
   15MOL0     H 2061   4.263   3.077   5.660 -0.8998 -0.4391 -0.3711
   15MOL0     H 2062   4.200   3.087   5.959  0.3455  0.3632 -0.2241
   15MOL0     H 2063   4.126   3.199   5.849 -3.6397 -1.3980  0.9814
   15MOL0     H 2064   4.018   2.982   5.917 -0.7043  1.5122  0.4950
   15MOL0     H 2065   4.089   2.918   5.758 -1.8229 -0.5649  1.7449
   15MOL0     H 2066   3.787   3.140   5.607 -0.7509  0.1347  1.9091
   15MOL0     H 2067   4.715   3.002   5.675 -0.0811 -0.2309  2.1446
   15MOL0     H 2068   4.974   2.934   5.778 -0.5495 -0.3313 -0.4154
   15MOL0     H 2069   4.924   2.958   5.613 -2.5191 -0.4004  1.6594
   15MOL0     H 2070   5.063   3.042   5.677 -0.6812  0.8188 -2.1393
   16MOL0     O 2071   6.553  10.732   8.599 -0.1926 -0.1377 -0.4864
   16MOL0     C 2072   6.455  10.799   8.636  1.0584 -0.2422  0.3414
   16MOL0     O 2073   6.403  10.912   8.576  0.2284 -0.2443  0.6165
   16MOL0     C 2074   6.485  11.009   8.515 -0.1594 -0.3052 -0.1134
   16MOL0     C 2075   6.419  11.104   8.436 -0.6753  0.0862 -0.2954
   16MOL0     C 2076   6.483  11.210   8.377  0.7979  0.8777  0.2207
   16MOL0     C 2077   6.618  11.223   8.403 -0.6181  0.1192 -0.2864
   16MOL0     O 2078   6.695  11.329   8.350  0.1571 -0.0860 -0.1078
   16MOL0     C 2079   6.637  11.394   8.231 -0.0080  0.7521 -0.2707
   16MOL0     C 2080   6.740  11.481   8.171 -0.6715 -0.0800  0.3632
   16MOL0     C 2081   6.754  11.617   8.248  0.3031  0.7410  0.4448
   16MOL0     C 2082   6.691  11.730   8.161  0.8861 -0.3610 -0.5835
   16MOL0     C 2083   6.723  11.868   8.210 -0.0160  1.1948  0.1887
   16MOL0     C 2084   6.640  11.972   8.137  0.7386 -0.8719 -0.2610
   16MOL0     C 2085   6.672  12.121   8.163  0.1227 -1.3310 -0.2778
   16MOL0     C 2086   6.816  12.160   8.116 -0.0987 -0.4468  0.1602
   16MOL0     N 2087   6.844  12.307   8.099  0.4481  1.0797 -0.4903
   16MOL0     C 2088   6.796  12.379   7.988 -0.1788 -0.0557 -0.1471
   16MOL0     C 2089   6.866  12.495   7.985  0.2309 -0.2427  0.0949
   16MOL0     C 2090   6.853  12.609   7.887 -0.4506  0.1764  0.5321
   16MOL0     C 2091   6.707  12.669   7.881 -0.7195  0.1585  0.8617
   16MOL0     C 2092   6.714  12.802   7.814  0.1234 -0.6163 -0.0520
   16MOL0     C 2093   6.583  12.871   7.801 -0.1415  0.0275 -0.0584
   16MOL0     O 2094   6.546  12.933   7.921 -0.2596 -0.1082  0.2652
   16MOL0     C 2095   6.449  13.030   7.924 -0.1095  0.2904  0.5801
   16MOL0     C 2096   6.431  13.091   8.046  0.1390  0.1413 -0.7132
   16MOL0     C 2097   6.333  13.180   8.076  0.2548 -0.5493 -0.1969
   16MOL0     C 2098   6.317  13.229   8.220  0.5988  0.1919 -0.1021
   16MOL0     C 2099   6.241  13.212   7.970 -0.2526 -0.4364  0.2785
   16MOL0     C 2100   6.141  13.320   7.986  0.0838 -0.3640 -0.4805
   16MOL0     O 2101   6.054  13.335   7.883  0.1418 -0.0622 -0.2045
   16MOL0     C 2102   5.968  13.441   7.879  0.0467  0.0609  0.4053
   16MOL0     C 2103   5.875  13.472   7.984 -0.1624 -0.4590 -0.1696
   16MOL0     C 2104   5.789  13.585   7.971 -0.0808 -0.2423 -0.6795
   16MOL0     C 2105   5.804  13.658   7.850 -0.6333 -0.2482 -0.4266
   16MOL0     O 2106   5.717  13.759   7.833 -0.1923 -0.5365 -0.8986
   16MOL0     C 2107   5.694  13.809   7.708  0.9546  0.0248  1.3267
   16MOL0     C 2108   5.574  13.902   7.716  0.8641 -0.0876  0.0588
   16MOL0     C 2109   5.442  13.821   7.707 -0.0341 -0.1925 -0.4175
   16MOL0     C 2110   5.324  13.901   7.750  0.3977  0.5396 -0.4777
   16MOL0     C 2111   5.205  13.804   7.743 -0.1844 -0.8140 -0.1150
   16MOL0     C 2112   5.074  13.864   7.794  0.3772 -0.2339  0.0470
   16MOL0     C 2113   4.955  13.842   7.702  0.5874  0.1432  0.4584
   16MOL0     C 2114   4.829  13.881   7.782 -0.0307 -0.1145  0.4026
   16MOL0    Cl 2115   4.824  14.055   7.815  0.1440  0.0173  0.9227
   16MOL0     C 2116   5.910  13.633   7.751 -0.1330  0.2187 -0.9623
   16MOL0     C 2117   5.988  13.519   7.764  0.7458 -0.5004 -0.7441
   16MOL0     O 2118   6.135  13.386   8.095 -0.1382  0.2331 -0.1350
   16MOL0     C 2119   6.260  13.151   7.837 -0.6345  0.1682  0.7538
   16MOL0     C 2120   6.361  13.058   7.814 -0.0335 -0.3450  0.2622
   16MOL0     N 2121   6.940  12.501   8.099 -0.8328 -0.7143 -0.2246
   16MOL0     N 2122   6.933  12.388   8.159  0.1850  0.2814 -1.1722
   16MOL0     C 2123   6.688  11.128   8.482  0.8705 -0.1236  0.2724
   16MOL0     C 2124   6.629  11.016   8.528  0.2654 -0.3077  0.1077
   16MOL0     C 2125   6.365  10.741   8.735 -0.2526  0.3150  0.2232
   16MOL0     C 2126   6.270  10.658   8.674  0.2291  0.0460  0.0202
   16MOL0     C 2127   6.187  10.574   8.757 -0.0450  0.8943 -1.0747
   16MOL0     C 2128   6.201  10.571   8.889  0.0051 -0.7221 -0.1686
   16MOL0     O 2129   6.130  10.496   8.978  0.7389  0.0980  0.1098
   16MOL0     C 2130   6.089  10.364   8.937  0.5097  0.4803  0.3328
   16MOL0     C 2131   6.200  10.254   8.944 -0.6250  0.3406 -0.4764
   16MOL0     C 2132   6.137  10.115   8.933 -0.5349 -0.4709 -0.6867
   16MOL0     C 2133   6.253  10.023   8.911 -0.1844  0.3445 -0.2656
   16MOL0     C 2134   6.223   9.885   8.912  0.8358  0.9426 -0.2746
   16MOL0     C 2135   6.199   9.767   8.912  0.2015  0.3464 -0.9028
   16MOL0     C 2136   6.289  10.662   8.943  0.0416 -0.2011  0.8868
   16MOL0     C 2137   6.368  10.754   8.871  0.7297 -0.0528  0.2533
   16MOL0     C 2138   6.458  10.854   8.948  0.3621 -0.1625 -0.4182
   16MOL0     H 2139   6.311  11.105   8.429 -0.6396  0.9135 -0.8435
   16MOL0     H 2140   6.435  11.293   8.328  0.6870  2.4326  2.7674
   16MOL0     H 2141   6.553  11.463   8.246 -0.7503 -0.1024 -0.4304
   16MOL0     H 2142   6.616  11.319   8.155 -0.5501 -0.0702  0.6696
   16MOL0     H 2143   6.842  11.445   8.179 -1.6491 -2.6912  2.8928
   16MOL0     H 2144   6.727  11.499   8.064 -1.8452  4.4654  1.0347
   16MOL0     H 2145   6.694  11.610   8.340 -3.1574 -2.4094 -1.7700
   16MOL0     H 2146   6.860  11.629   8.270  1.8695 -3.7102 -3.1297
   16MOL0     H 2147   6.725  11.717   8.058 -0.5113 -2.4742 -0.8419
   16MOL0     H 2148   6.582  11.721   8.161  1.0089 -2.2556 -1.0100
   16MOL0     H 2149   6.826  11.882   8.179 -0.7457  1.6299 -2.2429
   16MOL0     H 2150   6.705  11.871   8.318 -2.7609  1.3245 -0.1950
   16MOL0     H 2151   6.640  11.960   8.029 -0.7224 -0.7277 -0.2963
   16MOL0     H 2152   6.534  11.960   8.164  0.5838  0.4378 -0.2156
   16MOL0     H 2153   6.654  12.145   8.268  0.8101  1.5304 -0.7085
   16MOL0     H 2154   6.607  12.183   8.101  0.2972 -1.3323 -0.4642
   16MOL0     H 2155   6.884  12.127   8.195  0.0432 -0.2338  0.1262
   16MOL0     H 2156   6.838  12.095   8.030  2.3568  1.6584 -0.9361
   16MOL0     H 2157   6.729  12.332   7.917  0.8000 -2.9091  0.6884
   16MOL0     H 2158   6.870  12.551   7.796  0.0692  0.0637  0.7013
   16MOL0     H 2159   6.930  12.685   7.905  0.4807 -0.3462 -1.0593
   16MOL0     H 2160   6.643  12.603   7.822 -0.4887 -0.0730  0.8735
   16MOL0     H 2161   6.665  12.688   7.981  0.1809  1.9507  0.9329
   16MOL0     H 2162   6.779  12.879   7.856  1.2751  0.5748 -3.6314
   16MOL0     H 2163   6.758  12.785   7.715 -3.0409  0.1443 -1.7119
   16MOL0     H 2164   6.589  12.948   7.724 -0.9726  1.6394  1.4082
   16MOL0     H 2165   6.496  12.814   7.767 -0.5753  0.9834 -0.5903
   16MOL0     H 2166   6.504  13.064   8.121 -0.6129  2.0215  0.7799
   16MOL0     H 2167   6.216  13.204   8.256  1.3786 -0.2908  1.8486
   16MOL0     H 2168   6.319  13.337   8.238 -1.9763  0.3019  0.0225
   16MOL0     H 2169   6.385  13.181   8.291 -0.7737 -1.9152 -0.1120
   16MOL0     H 2170   5.860  13.417   8.076 -0.6008 -2.5115 -1.4059
   16MOL0     H 2171   5.710  13.612   8.039  0.0070 -1.1591 -0.1934
   16MOL0     H 2172   5.779  13.861   7.662  0.7851  1.2822  2.3771
   16MOL0     H 2173   5.662  13.720   7.653 -1.4323  0.7714  1.4026
   16MOL0     H 2174   5.584  13.956   7.811  0.3310 -1.5265  0.9489
   16MOL0     H 2175   5.576  13.974   7.633  1.8083 -0.5576 -0.3423
   16MOL0     H 2176   5.451  13.744   7.785  1.1957  1.4675  1.1846
   16MOL0     H 2177   5.427  13.788   7.604  1.1968  2.0672 -1.4016
   16MOL0     H 2178   5.314  13.993   7.693  1.7975  1.1020  0.1378
   16MOL0     H 2179   5.342  13.930   7.854 -2.3079 -1.9773  0.8665
   16MOL0     H 2180   5.177  13.759   7.647  0.3169 -0.3870 -0.4699
   16MOL0     H 2181   5.241  13.719   7.802  0.7937 -0.9515 -0.8813
   16MOL0     H 2182   5.086  13.972   7.781 -1.3386 -0.0549 -0.2150
   16MOL0     H 2183   5.057  13.824   7.894  2.2031 -0.6653  0.2229
   16MOL0     H 2184   4.932  13.739   7.672 -3.5862  1.3021 -1.0310
   16MOL0     H 2185   4.958  13.907   7.615 -0.8176  3.2107  2.5468
   16MOL0     H 2186   4.823  13.816   7.870 -2.0678  0.4289  0.7171
   16MOL0     H 2187   4.745  13.865   7.713 -0.1460 -0.0088  0.5173
   16MOL0     H 2188   5.923  13.694   7.662  1.5616 -1.8860 -2.2467
   16MOL0     H 2189   6.054  13.493   7.681  2.0372  0.6208 -0.1073
   16MOL0     H 2190   6.197  13.187   7.757 -0.3866 -1.6493 -0.3069
   16MOL0     H 2191   6.374  13.013   7.716  0.9657 -0.3997  0.4057
   16MOL0     H 2192   6.793  11.142   8.501  0.9460 -0.1070 -0.1526
   16MOL0     H 2193   6.674  10.946   8.598 -1.0985 -1.4513 -0.1211
   16MOL0     H 2194   6.270  10.650   8.566  3.2903 -0.3732 -0.0447
   16MOL0     H 2195   6.116  10.516   8.699 -0.4954  0.9206 -0.5568
   16MOL0     H 2196   6.013  10.333   9.009  0.9072  0.2302  0.6452
   16MOL0     H 2197   6.039  10.368   8.840 -2.4011 -1.9801  1.5678
   16MOL0     H 2198   6.245  10.263   9.043  0.6780 -1.3047 -0.8884
   16MOL0     H 2199   6.272  10.270   8.864 -2.1384  0.8406 -1.8062
   16MOL0     H 2200   6.066  10.091   9.013 -1.2143  1.0725 -0.7882
   16MOL0     H 2201   6.075  10.123   8.843  0.3162  0.9189 -1.1956
   16MOL0     H 2202   6.323  10.026   8.995  0.8184 -0.3955 -1.0479
   16MOL0     H 2203   6.309  10.044   8.819 -0.6064  1.4233 -0.2907
   16MOL0     H 2204   6.179   9.662   8.915 -2.4207  0.7995  1.1217
   16MOL0     H 2205   6.276  10.684   9.049  1.2094  1.0440  0.7870
   16MOL0     H 2206   6.398  10.945   8.951  0.2773 -0.2522  1.5904
   16MOL0     H 2207   6.478  10.834   9.053  0.9671  2.1479 -0.0560
   16MOL0     H 2208   6.552  10.874   8.896  0.4402 -1.6699 -0.9149
   17MOL0     O 2209   5.727   4.914   9.300  0.3372  0.1722  0.5247
   17MOL0     C 2210   5.762   4.792   9.301 -0.5645 -0.8449 -0.7766
   17MOL0     O 2211   5.894   4.749   9.329  0.5353 -0.0853 -0.3340
   17MOL0     C 2212   5.996   4.850   9.329 -0.3566  0.3534  0.4407
   17MOL0     C 2213   6.006   4.938   9.216 -1.0882  0.0784 -0.2483
   17MOL0     C 2214   6.121   5.025   9.212 -0.2661 -1.2347 -0.5600
   17MOL0     C 2215   6.210   5.031   9.319  0.1366 -0.2898 -0.0558
   17MOL0     O 2216   6.325   5.108   9.322 -0.0323  0.6243 -0.2629
   17MOL0     C 2217   6.373   5.164   9.200  0.0303 -0.0545  0.5522
   17MOL0     C 2218   6.500   5.245   9.226 -0.3241 -0.0730  0.0065
   17MOL0     C 2219   6.622   5.154   9.223 -0.3757 -0.8082 -0.1372
   17MOL0     C 2220   6.742   5.243   9.214  0.7790 -0.0594 -0.9101
   17MOL0     C 2221   6.876   5.155   9.180  0.4607 -0.0441 -0.6600
   17MOL0     C 2222   6.909   5.054   9.291  0.2159  0.4757  0.0055
   17MOL0     C 2223   6.934   5.098   9.440  0.8853 -0.2647 -0.3653
   17MOL0     C 2224   7.071   5.164   9.461  0.5963  0.0141  0.0852
   17MOL0     N 2225   7.063   5.307   9.492  0.0123  0.4459  0.0306
   17MOL0     C 2226   7.165   5.378   9.539 -0.7306 -0.7971 -0.4414
   17MOL0     C 2227   7.130   5.509   9.529  0.4167 -0.9514 -0.2956
   17MOL0     C 2228   7.214   5.622   9.573 -0.6861 -0.0111  0.0908
   17MOL0     C 2229   7.223   5.639   9.728  0.3687 -0.1786  0.8142
   17MOL0     C 2230   7.358   5.698   9.760 -0.2920 -0.5147  0.3198
   17MOL0     C 2231   7.358   5.758   9.898 -0.3460 -0.7355  0.2834
   17MOL0     O 2232   7.313   5.891   9.894  0.8415  0.0121  1.4987
   17MOL0     C 2233   7.315   5.962  10.013  0.2872 -0.5857  0.2430
   17MOL0     C 2234   7.249   6.087  10.003 -0.0481 -0.2620 -0.3813
   17MOL0     C 2235   7.250   6.176  10.110 -1.1489  0.5352 -0.1593
   17MOL0     C 2236   7.184   6.306  10.081  0.6183  0.4257  0.7092
   17MOL0     C 2237   7.313   6.132  10.231 -0.6532 -0.6132  0.1628
   17MOL0     C 2238   7.298   6.216  10.353  0.5832 -0.2952  0.8158
   17MOL0     O 2239   7.201   6.306  10.367  0.8035  0.2335 -0.3075
   17MOL0     C 2240   7.191   6.399  10.467 -0.3635 -0.8162  0.3490
   17MOL0     C 2241   7.125   6.522  10.440 -0.0081  0.2083  0.9001
   17MOL0     C 2242   7.091   6.623  10.532  0.0042  0.4501 -0.1704
   17MOL0     C 2243   7.130   6.599  10.674  0.1154 -0.3739 -0.1825
   17MOL0     O 2244   7.104   6.682  10.781 -0.4741  0.1708  0.1812
   17MOL0     C 2245   7.004   6.789  10.772  0.5977  0.5284  0.8354
   17MOL0     C 2246   7.002   6.841  10.915  0.2710  0.5495  0.7138
   17MOL0     C 2247   6.949   6.729  11.007 -0.5694 -0.2363 -0.2728
   17MOL0     C 2248   6.793   6.701  11.009 -0.9585 -0.5213 -0.8011
   17MOL0     C 2249   6.738   6.598  11.105 -0.5410  0.5510  0.0945
   17MOL0     C 2250   6.755   6.655  11.249  0.0860 -0.3301 -0.6655
   17MOL0     C 2251   6.647   6.591  11.345 -0.6977 -0.4363  0.0678
   17MOL0     C 2252   6.505   6.644  11.327 -0.2396 -0.0014  0.1403
   17MOL0    Cl 2253   6.415   6.535  11.421  0.1464 -0.1616  0.0967
   17MOL0     C 2254   7.194   6.479  10.703  0.4782 -0.3027  1.2816
   17MOL0     C 2255   7.229   6.384  10.600  0.7122 -0.1006  0.5446
   17MOL0     O 2256   7.383   6.193  10.441 -0.6792  0.8243 -0.0557
   17MOL0     C 2257   7.375   6.008  10.240 -1.0447 -0.3029  0.8398
   17MOL0     C 2258   7.377   5.920  10.138 -0.0211 -0.1091 -0.3528
   17MOL0     N 2259   7.007   5.518   9.465  0.0402  0.2305  0.0538
   17MOL0     N 2260   6.976   5.395   9.440  0.4748 -0.7279 -0.8484
   17MOL0     C 2261   6.188   4.944   9.431  0.5510  0.2914  0.6659
   17MOL0     C 2262   6.084   4.846   9.436 -0.1191  0.5827 -0.1575
   17MOL0     C 2263   5.659   4.689   9.281 -0.2388  0.1875 -0.5110
   17MOL0     C 2264   5.699   4.560   9.262  0.1186 -0.3844 -0.2184
   17MOL0     C 2265   5.604   4.454   9.250  0.2571  0.5260  0.6180
   17MOL0     C 2266   5.470   4.481   9.263  0.4655 -0.3793  0.8625
   17MOL0     O 2267   5.382   4.382   9.280 -0.3021 -0.2595 -0.7360
   17MOL0     C 2268   5.334   4.306   9.162 -0.3313  0.1238  0.6867
   17MOL0     C 2269   5.256   4.399   9.069 -0.2691  0.6352  0.2153
   17MOL0     C 2270   5.109   4.406   9.107 -0.0731 -0.4199 -0.9553
   17MOL0     C 2271   5.025   4.524   9.045 -0.3856  0.4019 -0.4370
   17MOL0     C 2272   4.897   4.542   9.123 -0.0470 -0.2495 -0.3988
   17MOL0     C 2273   4.795   4.540   9.191 -0.2638 -0.2318  0.4206
   17MOL0     C 2274   5.425   4.610   9.280  0.4976  0.0146  0.3521
   17MOL0     C 2275   5.514   4.720   9.283 -0.4465 -0.2436 -0.7065
   17MOL0     C 2276   5.454   4.856   9.309 -0.1128 -0.3250  0.8302
   17MOL0     H 2277   5.928   4.948   9.142 -2.0657  0.0046  0.7387
   17MOL0     H 2278   6.126   5.076   9.116 -0.6627 -2.0665 -1.0240
   17MOL0     H 2279   6.305   5.242   9.165  1.4443  1.0673  0.2151
   17MOL0     H 2280   6.376   5.083   9.126 -2.6733 -0.8610  1.2121
   17MOL0     H 2281   6.522   5.327   9.156  0.9563  0.1835  0.6877
   17MOL0     H 2282   6.499   5.300   9.320  2.0988  1.6940 -0.9222
   17MOL0     H 2283   6.644   5.087   9.307  3.1694 -1.0923 -1.0984
   17MOL0     H 2284   6.614   5.093   9.133  2.7621  0.6293 -1.5435
   17MOL0     H 2285   6.728   5.315   9.133 -0.0202 -0.7082 -1.3600
   17MOL0     H 2286   6.767   5.294   9.308 -2.0270 -3.1102  1.7633
   17MOL0     H 2287   6.965   5.216   9.158 -0.1216  1.8155  1.6994
   17MOL0     H 2288   6.844   5.110   9.086 -0.7534 -4.0796  1.4557
   17MOL0     H 2289   6.821   4.988   9.296  0.0457  0.7481  0.8606
   17MOL0     H 2290   6.999   5.001   9.260 -0.7586 -1.7397  0.7595
   17MOL0     H 2291   6.930   5.004   9.496 -1.5321  0.6826  1.2113
   17MOL0     H 2292   6.855   5.166   9.471 -0.0380  0.9108 -4.6449
   17MOL0     H 2293   7.121   5.111   9.543 -1.3198 -0.6387  0.8788
   17MOL0     H 2294   7.133   5.166   9.371  1.8037  1.7042  0.8966
   17MOL0     H 2295   7.256   5.338   9.583 -0.1672 -0.4872 -1.3016
   17MOL0     H 2296   7.174   5.715   9.531  1.4641  2.0136  2.1686
   17MOL0     H 2297   7.309   5.613   9.520 -1.6835  2.9380 -2.4914
   17MOL0     H 2298   7.149   5.712   9.761 -0.5752 -0.4815 -0.5330
   17MOL0     H 2299   7.215   5.540   9.774  0.3768 -2.1538 -3.0070
   17MOL0     H 2300   7.433   5.619   9.764 -0.5310 -0.8790 -1.3571
   17MOL0     H 2301   7.396   5.776   9.693  0.1134 -2.6517 -2.1209
   17MOL0     H 2302   7.309   5.694   9.971 -1.1097  2.0771  2.4268
   17MOL0     H 2303   7.465   5.755   9.923 -0.7165 -2.1865  1.8299
   17MOL0     H 2304   7.205   6.102   9.905  0.1191 -0.8353 -0.5470
   17MOL0     H 2305   7.244   6.385  10.126  1.7301  0.4447 -0.7400
   17MOL0     H 2306   7.089   6.305  10.135  0.8569 -2.4573  1.2497
   17MOL0     H 2307   7.176   6.314   9.972  0.5834  0.8765  0.7453
   17MOL0     H 2308   7.084   6.550  10.343 -1.6100 -1.0722  1.1852
   17MOL0     H 2309   7.015   6.693  10.502  2.3891  1.7773 -3.7205
   17MOL0     H 2310   7.040   6.862  10.699 -1.6652 -1.3580 -2.4329
   17MOL0     H 2311   6.905   6.753  10.744  0.2392  0.1420  2.4911
   17MOL0     H 2312   7.104   6.867  10.945  0.8239  2.1810 -2.2506
   17MOL0     H 2313   6.950   6.936  10.932 -0.9219 -0.2642  1.8233
   17MOL0     H 2314   6.975   6.754  11.111  1.2151  1.6701 -1.1209
   17MOL0     H 2315   6.997   6.637  10.973  1.1958 -1.6649  5.0469
   17MOL0     H 2316   6.764   6.661  10.911  0.9012  0.0924 -1.6402
   17MOL0     H 2317   6.730   6.790  11.014  0.0240  0.2475 -1.7610
   17MOL0     H 2318   6.634   6.585  11.076 -1.5795  1.6672  2.9768
   17MOL0     H 2319   6.793   6.505  11.087  0.7148  1.6263 -1.9795
   17MOL0     H 2320   6.747   6.764  11.249  1.1948 -0.2178 -2.0206
   17MOL0     H 2321   6.845   6.627  11.303 -1.6288  0.8866  3.1259
   17MOL0     H 2322   6.689   6.607  11.445  0.1396 -1.5703 -0.0801
   17MOL0     H 2323   6.643   6.482  11.334 -1.0722 -0.5685  1.3430
   17MOL0     H 2324   6.474   6.655  11.223 -1.2591  1.8484  0.5921
   17MOL0     H 2325   6.490   6.745  11.365 -0.9287 -0.7064  1.8783
   17MOL0     H 2326   7.217   6.445  10.804 -0.5408  0.4674  1.7951
   17MOL0     H 2327   7.280   6.292  10.626  2.5965  1.3872  2.4858
   17MOL0     H 2328   7.426   5.983  10.332 -1.2810  1.1988  1.3993
   17MOL0     H 2329   7.419   5.821  10.153 -2.0737 -1.1149 -0.9818
   17MOL0     H 2330   6.262   4.936   9.510 -0.6473 -1.0199  1.7055
   17MOL0     H 2331   6.051   4.773   9.510  0.0996 -1.3655 -1.8873
   17MOL0     H 2332   5.803   4.532   9.253  0.1262 -0.9880  1.4673
   17MOL0     H 2333   5.629   4.349   9.245  1.4553  0.8279 -3.4347
   17MOL0     H 2334   5.418   4.261   9.107 -1.0361  0.9143 -1.1414
   17MOL0     H 2335   5.275   4.220   9.194  2.5484 -2.3774 -0.1982
   17MOL0     H 2336   5.254   4.357   8.968 -1.8386  1.4852 -0.1320
   17MOL0     H 2337   5.304   4.497   9.061 -1.8806  1.3413 -1.1977
   17MOL0     H 2338   5.059   4.317   9.068  0.3492 -1.0444 -0.1172
   17MOL0     H 2339   5.098   4.405   9.216 -0.3182  2.2093 -0.8748
   17MOL0     H 2340   5.005   4.502   8.939 -1.9459  3.6856 -0.9324
   17MOL0     H 2341   5.074   4.621   9.053 -0.0078  0.2265 -0.5687
   17MOL0     H 2342   4.705   4.531   9.249 -0.6970  0.5805 -0.1167
   17MOL0     H 2343   5.320   4.626   9.300  0.0088  1.2596 -2.7013
   17MOL0     H 2344   5.348   4.854   9.334 -0.1536 -0.0657  0.6766
   17MOL0     H 2345   5.498   4.905   9.396  0.5731  0.4464  0.0681
   17MOL0     H 2346   5.478   4.921   9.225  0.8975 -0.1454  1.2393
   18MOL0     O 2347  10.634   1.010  10.802  0.6003 -0.6727 -0.4803
   18MOL0     C 2348  10.652   0.897  10.748  0.9364 -0.8454  0.4791
   18MOL0     O 2349  10.565   0.834  10.668 -0.0268  0.3612  1.1054
   18MOL0     C 2350  10.438   0.885  10.665  0.0206 -0.4020 -0.2801
   18MOL0     C 2351  10.401   0.967  10.556  0.1344  0.1031 -0.2277
   18MOL0     C 2352  10.270   1.022  10.551 -0.5688  0.2112  0.6000
   18MOL0     C 2353  10.176   1.000  10.651 -0.0170 -0.7947 -0.9615
   18MOL0     O 2354  10.060   1.070  10.633 -0.0256 -0.0377 -0.6901
   18MOL0     C 2355   9.945   0.995  10.655  0.6067 -0.5699  0.1632
   18MOL0     C 2356   9.813   1.042  10.581  0.0657  0.9285 -0.6386
   18MOL0     C 2357   9.739   1.141  10.661 -0.1181 -0.1931 -0.2707
   18MOL0     C 2358   9.659   1.219  10.556  0.1956  0.3172 -0.1981
   18MOL0     C 2359   9.522   1.266  10.608 -0.4116  0.0269 -0.3125
   18MOL0     C 2360   9.413   1.282  10.499 -0.1910 -0.0292  0.0029
   18MOL0     C 2361   9.278   1.301  10.570  0.0466  0.4007 -0.0086
   18MOL0     C 2362   9.168   1.333  10.476  0.6729  0.0978  0.5532
   18MOL0     N 2363   9.130   1.476  10.467 -0.4673  0.4624 -0.5504
   18MOL0     C 2364   9.210   1.571  10.396  0.3115 -0.3771 -0.3656
   18MOL0     C 2365   9.163   1.694  10.436  0.3849  0.0093 -1.0437
   18MOL0     C 2366   9.210   1.837  10.410  0.3533 -0.5004 -0.8153
   18MOL0     C 2367   9.087   1.918  10.367 -0.0131  0.0763  0.1537
   18MOL0     C 2368   9.005   1.980  10.481 -0.6985 -1.3993 -0.4441
   18MOL0     C 2369   9.096   2.074  10.574  0.2888  1.1042  0.1249
   18MOL0     O 2370   9.106   2.200  10.504  0.2837  0.1993 -0.3606
   18MOL0     C 2371   9.025   2.303  10.543  0.5168 -0.5384  0.2411
   18MOL0     C 2372   8.894   2.294  10.601  0.0948 -0.4202 -0.0130
   18MOL0     C 2373   8.819   2.409  10.639  1.2425 -0.3649 -0.0648
   18MOL0     C 2374   8.690   2.372  10.721  0.3292  0.8765  0.5889
   18MOL0     C 2375   8.874   2.539  10.615  0.0535 -0.0581 -0.3101
   18MOL0     C 2376   8.820   2.659  10.672 -0.4549 -0.6736 -0.1919
   18MOL0     O 2377   8.697   2.693  10.619 -0.1702 -0.4385 -0.3999
   18MOL0     C 2378   8.641   2.816  10.655  0.2142 -0.0171 -0.0572
   18MOL0     C 2379   8.651   2.939  10.577 -1.1589  0.1067 -0.1507
   18MOL0     C 2380   8.590   3.056  10.615  0.1100  0.7217 -0.1457
   18MOL0     C 2381   8.508   3.048  10.734 -0.4268 -0.0919 -0.0771
   18MOL0     O 2382   8.427   3.155  10.768 -0.3289 -0.5460  0.0828
   18MOL0     C 2383   8.348   3.201  10.659  0.3060 -0.5280  0.4482
   18MOL0     C 2384   8.229   3.266  10.729  0.0329 -0.3920  1.0904
   18MOL0     C 2385   8.131   3.165  10.790 -1.3302  0.4986 -0.3281
   18MOL0     C 2386   8.080   3.063  10.687 -0.4453  1.0409 -0.7910
   18MOL0     C 2387   7.980   2.965  10.738  0.4001 -0.6790 -0.5707
   18MOL0     C 2388   7.844   3.030  10.785 -0.4680  1.0674 -1.1751
   18MOL0     C 2389   7.783   3.119  10.674 -0.4206  0.1649 -1.1224
   18MOL0     C 2390   7.642   3.086  10.660  0.1281  1.0295  1.1917
   18MOL0    Cl 2391   7.599   2.926  10.583  0.0805 -0.0412 -0.1622
   18MOL0     C 2392   8.506   2.929  10.813  0.0109 -0.5543  0.0640
   18MOL0     C 2393   8.573   2.816  10.780  0.1189  0.8164  0.1082
   18MOL0     O 2394   8.884   2.723  10.752  0.1267  0.2258  0.4030
   18MOL0     C 2395   8.996   2.543  10.550 -0.3714  0.5495 -0.8056
   18MOL0     C 2396   9.073   2.431  10.518  0.7036  0.3792  0.8645
   18MOL0     N 2397   9.055   1.672  10.521 -0.2343  0.7406  0.5905
   18MOL0     N 2398   9.040   1.542  10.536 -0.1957  0.6482  0.1928
   18MOL0     C 2399  10.206   0.918  10.759 -0.7299  0.6692  1.2115
   18MOL0     C 2400  10.336   0.858  10.772 -0.6411  0.1459  0.0105
   18MOL0     C 2401  10.781   0.836  10.773 -0.9648  0.1945  0.1377
   18MOL0     C 2402  10.818   0.726  10.688  0.1148 -0.1040 -0.8014
   18MOL0     C 2403  10.924   0.636  10.706 -0.2344 -0.0609 -0.6510
   18MOL0     C 2404  10.995   0.657  10.821 -1.5307 -0.1931 -0.6618
   18MOL0     O 2405  11.083   0.555  10.860 -0.4219  0.2583  0.2281
   18MOL0     C 2406  11.222   0.595  10.857  0.3196  0.2456 -0.0874
   18MOL0     C 2407  11.302   0.520  10.953  1.1648  0.2449 -0.2154
   18MOL0     C 2408  11.294   0.368  10.912  0.0967 -0.3350  0.5298
   18MOL0     C 2409  11.404   0.325  10.817 -0.2451  0.5026  0.5104
   18MOL0     C 2410  11.537   0.346  10.874 -0.1375 -0.0476  0.1830
   18MOL0     C 2411  11.644   0.377  10.918 -0.3614  1.1039 -0.1150
   18MOL0     C 2412  10.979   0.775  10.893  0.5668  0.7822 -1.2281
   18MOL0     C 2413  10.877   0.866  10.873  0.4308  0.3670 -0.3566
   18MOL0     C 2414  10.872   0.991  10.969  0.9960  0.4229  0.2167
   18MOL0     H 2415  10.466   0.987  10.472 -0.0818  1.8557  0.0012
   18MOL0     H 2416  10.242   1.088  10.470 -0.6040  1.4416  1.5744
   18MOL0     H 2417   9.921   0.971  10.759 -2.1506 -6.0568 -1.3522
   18MOL0     H 2418   9.959   0.897  10.609 -1.7968 -0.4240 -1.0489
   18MOL0     H 2419   9.846   1.077  10.482  2.5859 -0.5427 -0.3787
   18MOL0     H 2420   9.743   0.960  10.565  2.0895 -1.5984  2.2684
   18MOL0     H 2421   9.673   1.090  10.732  1.9246 -0.7982  1.2980
   18MOL0     H 2422   9.810   1.207  10.711  0.5039 -1.4615  0.5680
   18MOL0     H 2423   9.724   1.303  10.530  0.4804  0.6883  1.6096
   18MOL0     H 2424   9.634   1.158  10.469 -3.9124 -1.5430  2.0236
   18MOL0     H 2425   9.532   1.365  10.653  1.0052  1.2976 -3.1552
   18MOL0     H 2426   9.476   1.201  10.683 -0.6863  0.1703 -0.3536
   18MOL0     H 2427   9.449   1.372  10.448  2.9377 -1.1684 -0.0139
   18MOL0     H 2428   9.409   1.201  10.426  2.2698 -0.7354  0.5390
   18MOL0     H 2429   9.288   1.391  10.630  1.8818  0.5187 -0.4456
   18MOL0     H 2430   9.258   1.218  10.638  0.1143  0.5097  0.1429
   18MOL0     H 2431   9.202   1.298  10.378  1.2914 -0.0761  0.8170
   18MOL0     H 2432   9.084   1.271  10.510  0.9780  0.3046  1.7487
   18MOL0     H 2433   9.292   1.555  10.326 -1.3766 -1.1247 -2.2536
   18MOL0     H 2434   9.285   1.831  10.330  0.3911 -2.4252 -0.6825
   18MOL0     H 2435   9.263   1.876  10.497  0.8737 -0.5699 -1.0941
   18MOL0     H 2436   9.113   2.006  10.307 -1.5180  0.7974  0.5302
   18MOL0     H 2437   9.032   1.858  10.294 -1.4148  1.6934 -0.1709
   18MOL0     H 2438   8.920   2.034  10.439  1.8738  0.3177 -4.0113
   18MOL0     H 2439   8.967   1.902  10.548 -1.0398  0.1704  1.2464
   18MOL0     H 2440   9.060   2.072  10.677 -0.3872 -3.0872 -0.0103
   18MOL0     H 2441   9.198   2.036  10.580 -1.0362 -2.8985  0.1577
   18MOL0     H 2442   8.856   2.194  10.623 -0.3660 -0.1039  0.6577
   18MOL0     H 2443   8.638   2.294  10.664 -2.0976  1.2390  2.1344
   18MOL0     H 2444   8.624   2.456  10.743  0.8211  1.0513  1.4289
   18MOL0     H 2445   8.715   2.335  10.821 -0.8285  2.2138  1.4020
   18MOL0     H 2446   8.703   2.928  10.483 -2.7336 -1.0100 -0.9365
   18MOL0     H 2447   8.607   3.141  10.550  2.7245  0.9600  0.7238
   18MOL0     H 2448   8.403   3.281  10.608  0.5336 -1.1675 -0.3256
   18MOL0     H 2449   8.321   3.129  10.581  0.7152  1.6343 -1.8317
   18MOL0     H 2450   8.257   3.342  10.803  1.9872 -0.4430  0.4787
   18MOL0     H 2451   8.179   3.322  10.649 -0.3879  0.5715  1.9927
   18MOL0     H 2452   8.054   3.203  10.858 -0.6354  0.5955  0.4347
   18MOL0     H 2453   8.189   3.098  10.855 -0.3480  1.8340  0.2385
   18MOL0     H 2454   8.169   3.006  10.658  0.1977  0.9337  1.2499
   18MOL0     H 2455   8.045   3.115  10.597 -3.4950 -1.3828 -1.1836
   18MOL0     H 2456   7.955   2.890  10.663  0.1079 -1.3095  0.1513
   18MOL0     H 2457   8.012   2.917  10.831 -2.2980  0.1960  0.9278
   18MOL0     H 2458   7.878   3.084  10.874 -0.0096 -0.1828 -0.5560
   18MOL0     H 2459   7.784   2.948  10.826  3.1676 -1.3727 -0.1806
   18MOL0     H 2460   7.832   3.113  10.577 -0.8883  4.1677 -1.7856
   18MOL0     H 2461   7.801   3.221  10.709  3.7452 -1.0447  0.9835
   18MOL0     H 2462   7.602   3.159  10.590 -1.7767 -1.3320 -0.3507
   18MOL0     H 2463   7.584   3.096  10.753  0.0897 -0.8100  1.4143
   18MOL0     H 2464   8.444   2.946  10.900 -0.0644  5.6217 -0.7437
   18MOL0     H 2465   8.572   2.722  10.834 -0.7067  1.3838  1.1140
   18MOL0     H 2466   9.032   2.641  10.522  0.6827  0.0619 -1.2362
   18MOL0     H 2467   9.170   2.430  10.470  0.7470 -2.3706  0.8667
   18MOL0     H 2468  10.130   0.892  10.832 -0.5828 -1.1955  0.7698
   18MOL0     H 2469  10.366   0.800  10.859 -1.8568  2.4975  2.1253
   18MOL0     H 2470  10.750   0.721  10.603 -0.8365  2.2817 -0.2536
   18MOL0     H 2471  10.949   0.551  10.643  1.3671 -0.5702  0.6116
   18MOL0     H 2472  11.273   0.564  10.765 -2.0478 -2.8165 -0.5348
   18MOL0     H 2473  11.237   0.702  10.877  0.0364  0.2707 -0.0083
   18MOL0     H 2474  11.250   0.524  11.049  0.4963 -0.4600 -0.5407
   18MOL0     H 2475  11.403   0.561  10.949  0.3594  2.7844  2.3882
   18MOL0     H 2476  11.320   0.317  11.005  3.6827  2.3027  1.2267
   18MOL0     H 2477  11.196   0.330  10.882  1.1723 -3.7166  0.8935
   18MOL0     H 2478  11.403   0.389  10.728  1.4205 -1.0654 -0.7085
   18MOL0     H 2479  11.396   0.219  10.793 -1.4780  0.6826  0.0488
   18MOL0     H 2480  11.731   0.401  10.975 -1.1667 -0.5297  1.9270
   18MOL0     H 2481  11.036   0.796  10.983 -2.6888  0.2144  1.1514
   18MOL0     H 2482  10.775   0.990  11.019  1.1584  0.3933  0.5321
   18MOL0     H 2483  10.951   0.970  11.042  0.9939 -3.1991 -0.6222
   18MOL0     H 2484  10.881   1.087  10.918 -2.7688  0.4618 -0.6566
   19MOL0     O 2485   0.971   2.409   6.879  0.6022  0.3652  0.5039
   19MOL0     C 2486   0.997   2.358   6.770  0.1793  0.2476  1.0034
   19MOL0     O 2487   1.099   2.396   6.682  0.5421 -0.2486 -0.1448
   19MOL0     C 2488   1.169   2.507   6.718 -0.6386 -0.1718 -0.4955
   19MOL0     C 2489   1.118   2.632   6.713  0.2697 -0.3884  0.4374
   19MOL0     C 2490   1.190   2.743   6.751 -0.5644 -0.4646  0.3961
   19MOL0     C 2491   1.331   2.736   6.796 -0.1817 -0.2902 -0.5833
   19MOL0     O 2492   1.390   2.843   6.854  0.1064 -0.3435 -1.3745
   19MOL0     C 2493   1.508   2.808   6.938 -0.0881 -0.1890  0.0479
   19MOL0     C 2494   1.526   2.896   7.055  0.1082 -0.5477 -0.8530
   19MOL0     C 2495   1.425   2.882   7.170 -0.7720 -0.5304  0.7199
   19MOL0     C 2496   1.463   2.763   7.268 -0.5558 -0.0031 -0.4797
   19MOL0     C 2497   1.365   2.718   7.384 -0.2612 -0.0267  0.9731
   19MOL0     C 2498   1.251   2.639   7.347 -0.2069  0.2857  0.0921
   19MOL0     C 2499   1.266   2.546   7.218  0.3410  0.8657  0.3254
   19MOL0     C 2500   1.134   2.466   7.179  0.4862 -0.4530 -0.1174
   19MOL0     N 2501   1.028   2.555   7.140 -0.0075  0.1266 -0.2882
   19MOL0     C 2502   1.032   2.676   7.086 -0.0020 -0.1427  0.5079
   19MOL0     C 2503   0.906   2.720   7.079  0.3377  0.7985 -0.2572
   19MOL0     C 2504   0.851   2.837   7.008  1.1428  0.2030  0.6890
   19MOL0     C 2505   0.954   2.950   7.007  0.4295 -0.0491  0.0971
   19MOL0     C 2506   0.918   3.067   6.911  0.4551  0.5519  0.4541
   19MOL0     C 2507   0.798   3.154   6.957  0.2666 -0.3303 -0.3203
   19MOL0     O 2508   0.845   3.241   7.063 -0.1077  0.6566  0.3744
   19MOL0     C 2509   0.775   3.357   7.083  0.2285 -0.2784 -0.0931
   19MOL0     C 2510   0.850   3.467   7.079  0.6982  0.5911  0.1030
   19MOL0     C 2511   0.798   3.601   7.088 -0.4607 -0.5364  0.3781
   19MOL0     C 2512   0.899   3.712   7.089 -0.6855  0.3299  0.2267
   19MOL0     C 2513   0.657   3.615   7.116  0.1849  0.8224 -0.2787
   19MOL0     C 2514   0.575   3.741   7.141 -0.0170 -0.2070  0.8487
   19MOL0     O 2515   0.450   3.734   7.183  0.0710 -0.2755  0.2995
   19MOL0     C 2516   0.364   3.842   7.153 -0.1021  0.2106  0.5284
   19MOL0     C 2517   0.303   3.838   7.023  0.1752  0.5352 -0.2677
   19MOL0     C 2518   0.201   3.939   6.996  0.1046  0.5494 -0.1038
   19MOL0     C 2519   0.169   4.030   7.094 -0.0849 -0.0308  0.2077
   19MOL0     O 2520   0.079   4.129   7.055  0.1240  0.1279  0.2235
   19MOL0     C 2521  -0.056   4.111   7.094 -0.4886 -0.0802  0.3475
   19MOL0     C 2522  -0.158   4.220   7.057 -0.5992  0.3759  0.3397
   19MOL0     C 2523  -0.201   4.313   7.175 -0.3559 -0.1589  0.4253
   19MOL0     C 2524  -0.342   4.300   7.225 -0.2381  0.0700  0.1545
   19MOL0     C 2525  -0.375   4.389   7.333  0.3118  0.2053  0.8893
   19MOL0     C 2526  -0.516   4.392   7.385  0.2554  1.3759 -0.4857
   19MOL0     C 2527  -0.547   4.470   7.513 -0.2083 -0.8022  0.7201
   19MOL0     C 2528  -0.539   4.629   7.481  0.7012 -0.3799  0.2760
   19MOL0    Cl 2529  -0.571   4.734   7.631 -0.7666 -0.0473 -0.1319
   19MOL0     C 2530   0.233   4.029   7.214 -0.0133  0.2377  0.6060
   19MOL0     C 2531   0.323   3.928   7.248 -0.0605  0.4395 -0.3317
   19MOL0     O 2532   0.638   3.842   7.125 -0.2084  0.1044  0.3790
   19MOL0     C 2533   0.577   3.492   7.121  0.8942  0.2853  1.0110
   19MOL0     C 2534   0.643   3.367   7.111 -0.0542  0.2106 -0.3182
   19MOL0     N 2535   0.831   2.623   7.131 -0.0022  0.1660 -0.5665
   19MOL0     N 2536   0.903   2.522   7.161  0.3848  0.7177 -0.4082
   19MOL0     C 2537   1.385   2.610   6.785  0.8022  0.1001 -0.2775
   19MOL0     C 2538   1.300   2.499   6.761 -0.5241 -0.6033 -0.3787
   19MOL0     C 2539   0.903   2.248   6.740 -0.2774  0.0789  1.2080
   19MOL0     C 2540   0.957   2.165   6.636  0.2366  0.3774 -0.1951
   19MOL0     C 2541   0.887   2.053   6.593  0.6491  0.4863 -1.0235
   19MOL0     C 2542   0.774   2.016   6.655 -1.0635  0.3355  0.1075
   19MOL0     O 2543   0.703   1.908   6.603 -0.5866  0.5542  0.4580
   19MOL0     C 2544   0.766   1.783   6.641  0.4917 -0.1576 -0.2475
   19MOL0     C 2545   0.690   1.669   6.557 -0.5560 -0.4229 -0.2968
   19MOL0     C 2546   0.550   1.705   6.509 -0.1160 -0.8650  0.4319
   19MOL0     C 2547   0.464   1.593   6.445  0.1785  0.0639 -0.2423
   19MOL0     C 2548   0.324   1.640   6.417  0.9867  0.2711 -0.4248
   19MOL0     C 2549   0.207   1.651   6.400 -0.1151  0.3917 -0.1318
   19MOL0     C 2550   0.724   2.086   6.764 -0.0879 -0.0645 -0.4353
   19MOL0     C 2551   0.790   2.202   6.812  0.8890 -0.3543 -0.0741
   19MOL0     C 2552   0.733   2.273   6.933  1.2941 -1.1284 -1.0054
   19MOL0     H 2553   1.010   2.636   6.701  0.2211 -0.8197  0.7221
   19MOL0     H 2554   1.134   2.835   6.763  1.9396  0.8875  2.8511
   19MOL0     H 2555   1.597   2.827   6.877  1.6031  1.5953  2.8357
   19MOL0     H 2556   1.497   2.706   6.976 -1.0475 -0.4083 -0.7703
   19MOL0     H 2557   1.625   2.890   7.101 -0.7729 -1.8474  0.9708
   19MOL0     H 2558   1.525   2.997   7.013 -1.0042 -0.5161 -0.7679
   19MOL0     H 2559   1.440   2.975   7.226 -1.0781 -0.3153  0.4498
   19MOL0     H 2560   1.320   2.878   7.141 -0.9414 -0.8405  1.3566
   19MOL0     H 2561   1.489   2.679   7.203 -1.8670  1.3099 -2.8288
   19MOL0     H 2562   1.562   2.781   7.310 -0.1016 -1.8362 -0.7008
   19MOL0     H 2563   1.332   2.802   7.445 -1.3093 -0.6100  1.2369
   19MOL0     H 2564   1.422   2.647   7.445  0.1960  1.4727  2.3627
   19MOL0     H 2565   1.219   2.576   7.431 -2.1327 -0.5419 -1.1724
   19MOL0     H 2566   1.174   2.713   7.326  0.8510  0.8604 -2.0325
   19MOL0     H 2567   1.343   2.470   7.237 -1.0292 -0.3908  1.1114
   19MOL0     H 2568   1.295   2.614   7.138 -2.1213  2.4376  0.6520
   19MOL0     H 2569   1.158   2.396   7.099 -1.0405 -0.8320 -0.2579
   19MOL0     H 2570   1.103   2.404   7.264 -1.3817 -1.3330 -1.3714
   19MOL0     H 2571   1.117   2.726   7.040  1.1728 -0.3007  2.3851
   19MOL0     H 2572   0.758   2.870   7.056 -1.3247 -1.2227 -2.6312
   19MOL0     H 2573   0.814   2.804   6.910 -0.9024  1.1038  1.1039
   19MOL0     H 2574   0.965   2.982   7.111  1.7428  0.2926 -0.1286
   19MOL0     H 2575   1.053   2.911   6.979  1.1856 -0.2043  2.7516
   19MOL0     H 2576   1.003   3.133   6.895  1.0710 -0.5448 -1.1554
   19MOL0     H 2577   0.900   3.013   6.817  1.6601 -1.0313  1.0761
   19MOL0     H 2578   0.788   3.214   6.866  2.3658  2.4027  1.0849
   19MOL0     H 2579   0.700   3.117   6.987  0.2452 -0.0067  0.0123
   19MOL0     H 2580   0.955   3.456   7.056  0.3297 -0.2858 -1.2926
   19MOL0     H 2581   1.003   3.679   7.093  0.2543  3.1220  0.6648
   19MOL0     H 2582   0.887   3.778   7.175  1.2305  0.3182  0.5472
   19MOL0     H 2583   0.875   3.764   6.996  1.0858  0.7531 -0.0240
   19MOL0     H 2584   0.333   3.763   6.950 -1.5766 -1.3981  0.8676
   19MOL0     H 2585   0.148   3.948   6.902 -0.0944  0.0096 -0.0442
   19MOL0     H 2586  -0.089   4.013   7.057 -0.7729  0.9924 -2.5439
   19MOL0     H 2587  -0.054   4.106   7.203  1.2309  2.2022  0.4993
   19MOL0     H 2588  -0.106   4.282   6.983 -1.0420 -1.1954 -1.3620
   19MOL0     H 2589  -0.247   4.177   7.011 -0.1869  1.3212 -1.4573
   19MOL0     H 2590  -0.190   4.417   7.142  0.9783  0.0158  1.3374
   19MOL0     H 2591  -0.130   4.305   7.258 -0.0521 -0.8321  0.1174
   19MOL0     H 2592  -0.361   4.196   7.251  3.1492 -1.2164 -1.9052
   19MOL0     H 2593  -0.405   4.316   7.137  2.0141  3.0647 -1.1139
   19MOL0     H 2594  -0.318   4.355   7.419 -1.5103 -1.8653  1.3786
   19MOL0     H 2595  -0.355   4.490   7.296  0.7708  0.7458  2.5270
   19MOL0     H 2596  -0.559   4.296   7.415 -1.3238  1.4910 -2.2107
   19MOL0     H 2597  -0.570   4.442   7.304 -1.0045  0.2087 -0.3909
   19MOL0     H 2598  -0.480   4.447   7.597  0.2348 -0.0872  0.5757
   19MOL0     H 2599  -0.647   4.442   7.546 -1.3282  1.7681 -0.2692
   19MOL0     H 2600  -0.620   4.645   7.409  0.8326 -2.5288 -0.4208
   19MOL0     H 2601  -0.446   4.654   7.428  0.6756 -1.9895 -0.5708
   19MOL0     H 2602   0.203   4.096   7.294  0.5199  1.0089  0.1689
   19MOL0     H 2603   0.364   3.925   7.348 -0.1567  1.2462 -0.2593
   19MOL0     H 2604   0.470   3.506   7.132  0.0305 -1.2312 -3.3055
   19MOL0     H 2605   0.584   3.275   7.117  3.2079 -2.4127 -3.8831
   19MOL0     H 2606   1.490   2.590   6.805  0.6874  0.9261  1.3691
   19MOL0     H 2607   1.353   2.405   6.774  0.0128 -0.2692 -0.1218
   19MOL0     H 2608   1.041   2.203   6.579 -0.4661 -0.8006 -2.0956
   19MOL0     H 2609   0.915   1.992   6.508  2.2123 -1.0472  0.5102
   19MOL0     H 2610   0.875   1.780   6.635  0.4519 -0.4340 -0.8583
   19MOL0     H 2611   0.735   1.769   6.745 -3.8205 -5.1960 -1.7546
   19MOL0     H 2612   0.691   1.578   6.616  0.3553  0.1384  0.5833
   19MOL0     H 2613   0.749   1.646   6.467 -0.6431  0.2302 -0.5262
   19MOL0     H 2614   0.489   1.751   6.588 -1.6448  1.6182 -2.0243
   19MOL0     H 2615   0.559   1.784   6.434  2.9757 -1.3013  0.2293
   19MOL0     H 2616   0.456   1.504   6.507  1.9663  1.1287  1.6554
   19MOL0     H 2617   0.517   1.567   6.352  1.4593  0.2986  0.3893
   19MOL0     H 2618   0.100   1.654   6.394 -0.3043 -1.1560  1.6564
   19MOL0     H 2619   0.636   2.045   6.814 -1.2451  4.2082  1.4616
   19MOL0     H 2620   0.637   2.237   6.971  1.7651 -0.0885  1.3405
   19MOL0     H 2621   0.799   2.273   7.021  0.9643 -0.9920 -0.7547
   19MOL0     H 2622   0.702   2.375   6.911 -1.6624 -1.8011 -0.4051
   20MOL0     O 2623   1.018   5.931   4.932 -0.5303  0.9892 -0.2944
   20MOL0     C 2624   1.052   5.918   5.055  0.4959 -0.1194 -0.1831
   20MOL0     O 2625   1.172   5.955   5.107 -0.1066  0.2695 -0.6025
   20MOL0     C 2626   1.262   6.015   5.022 -1.4644  0.1771 -0.4351
   20MOL0     C 2627   1.376   5.948   4.971  1.2280  0.0505 -0.1096
   20MOL0     C 2628   1.464   6.007   4.890 -0.0337  0.3596  1.4686
   20MOL0     C 2629   1.455   6.142   4.867 -0.5617 -0.3054 -0.9573
   20MOL0     O 2630   1.556   6.194   4.790 -0.8385  0.6267  0.0216
   20MOL0     C 2631   1.553   6.333   4.752 -1.3101 -0.6165  0.0819
   20MOL0     C 2632   1.444   6.336   4.639 -0.7733  0.2190  0.1081
   20MOL0     C 2633   1.477   6.244   4.527 -0.3195  1.2465  0.6354
   20MOL0     C 2634   1.350   6.197   4.441 -0.1062 -0.1644  0.2367
   20MOL0     C 2635   1.260   6.101   4.529  0.5208 -0.4672 -0.4414
   20MOL0     C 2636   1.127   6.055   4.461 -0.0094  0.5946 -0.2901
   20MOL0     C 2637   1.030   5.970   4.550 -0.6947  0.3283  0.9326
   20MOL0     C 2638   0.902   5.929   4.469  0.4949 -0.0858 -0.5576
   20MOL0     N 2639   0.801   5.851   4.543 -0.4175  0.5402 -0.7370
   20MOL0     C 2640   0.672   5.835   4.500 -0.3622  0.0952 -1.1498
   20MOL0     C 2641   0.612   5.757   4.590  0.6378  0.1374  0.0170
   20MOL0     C 2642   0.468   5.713   4.572  0.0721 -0.0984 -0.0502
   20MOL0     C 2643   0.482   5.563   4.535  0.5272  0.1518 -0.1463
   20MOL0     C 2644   0.349   5.491   4.530  0.4411  0.9431  0.2848
   20MOL0     C 2645   0.269   5.535   4.420  0.6646  0.1890 -0.3214
   20MOL0     O 2646   0.181   5.425   4.378  0.9558  0.6381 -0.8026
   20MOL0     C 2647   0.046   5.448   4.361 -0.4194  0.3203 -0.4250
   20MOL0     C 2648  -0.010   5.368   4.261  0.2774 -0.5492 -0.0381
   20MOL0     C 2649  -0.154   5.376   4.243  0.3725 -0.7480  0.7674
   20MOL0     C 2650  -0.210   5.281   4.141  0.0458 -0.3240  0.2993
   20MOL0     C 2651  -0.237   5.466   4.314  0.0607 -0.6313 -1.2289
   20MOL0     C 2652  -0.386   5.482   4.283 -0.0593  0.8941 -0.3242
   20MOL0     O 2653  -0.469   5.370   4.307  0.8392  0.3741  0.4154
   20MOL0     C 2654  -0.605   5.369   4.281 -1.2343 -0.0598 -0.2783
   20MOL0     C 2655  -0.692   5.480   4.304 -0.9518  0.0560 -0.3445
   20MOL0     C 2656  -0.821   5.476   4.258  0.7437 -0.7125 -0.6672
   20MOL0     C 2657  -0.878   5.362   4.216  1.4624  0.4460  0.1150
   20MOL0     O 2658  -1.011   5.370   4.185 -0.3211  0.1537  0.0190
   20MOL0     C 2659  -1.071   5.256   4.122  0.1334 -0.0165  0.2154
   20MOL0     C 2660  -1.186   5.310   4.052 -0.0197  0.3546  0.0189
   20MOL0     C 2661  -1.242   5.219   3.944 -0.1495  0.2588 -0.5081
   20MOL0     C 2662  -1.272   5.078   3.987 -0.7702 -0.1504 -0.0564
   20MOL0     C 2663  -1.381   5.015   3.900  0.5374 -0.6232  0.3848
   20MOL0     C 2664  -1.341   5.008   3.746 -0.1384 -0.9557  0.4781
   20MOL0     C 2665  -1.397   4.900   3.659  0.4751  0.3417 -1.2639
   20MOL0     C 2666  -1.403   4.932   3.512  0.1153  0.0836 -0.0370
   20MOL0    Cl 2667  -1.249   4.976   3.423 -0.1507 -0.5874  0.1548
   20MOL0     C 2668  -0.800   5.250   4.205  0.1876 -0.2096  0.3265
   20MOL0     C 2669  -0.664   5.252   4.235 -0.3154  0.1520 -0.1623
   20MOL0     O 2670  -0.413   5.587   4.230  0.2034 -0.0974 -0.1331
   20MOL0     C 2671  -0.180   5.544   4.418  0.1109 -0.4242 -0.4475
   20MOL0     C 2672  -0.040   5.544   4.437 -0.0688 -0.4761  0.5493
   20MOL0     N 2673   0.699   5.726   4.693  0.8875  0.6083 -0.0136
   20MOL0     N 2674   0.813   5.781   4.666 -0.0911 -0.1873  0.2649
   20MOL0     C 2675   1.359   6.214   4.931 -0.1907  0.6028 -0.1499
   20MOL0     C 2676   1.260   6.151   5.007 -0.5463  0.7217  1.1000
   20MOL0     C 2677   0.943   5.852   5.137  0.5330 -0.5540 -0.0274
   20MOL0     C 2678   0.845   5.771   5.078  0.7346 -0.2322  0.1698
   20MOL0     C 2679   0.749   5.700   5.159 -0.9063  0.2215 -0.5689
   20MOL0     C 2680   0.736   5.713   5.299  1.3779 -0.3417  0.3714
   20MOL0     O 2681   0.632   5.651   5.364  0.1868 -0.3988  0.0918
   20MOL0     C 2682   0.611   5.698   5.505  0.5798  0.4060  0.4917
   20MOL0     C 2683   0.478   5.640   5.562 -0.2690  0.3696 -0.0854
   20MOL0     C 2684   0.483   5.652   5.715  0.2531 -0.0295  0.1744
   20MOL0     C 2685   0.393   5.542   5.781  0.1133  0.1418  0.1807
   20MOL0     C 2686   0.440   5.534   5.923 -0.2085 -0.7940  0.5326
   20MOL0     C 2687   0.455   5.547   6.043  0.5406 -0.5428 -0.7054
   20MOL0     C 2688   0.828   5.805   5.359  0.1168  0.3610  0.0582
   20MOL0     C 2689   0.935   5.864   5.281 -0.4138  0.8914 -0.3729
   20MOL0     C 2690   1.046   5.927   5.365  0.6529  0.0524 -1.5095
   20MOL0     H 2691   1.388   5.847   5.008 -0.6984 -0.0926  0.2026
   20MOL0     H 2692   1.553   5.953   4.857  0.1110  1.7344 -0.5917
   20MOL0     H 2693   1.659   6.346   4.729 -1.1802 -0.9403  0.4964
   20MOL0     H 2694   1.536   6.409   4.829 -0.4345  0.7566 -1.0145
   20MOL0     H 2695   1.342   6.321   4.674 -1.6709 -0.7621 -2.6820
   20MOL0     H 2696   1.447   6.439   4.602  1.2496 -0.4259 -1.7512
   20MOL0     H 2697   1.551   6.284   4.456  1.7643  0.4294  2.2269
   20MOL0     H 2698   1.526   6.153   4.563 -1.2812  0.2658 -0.4553
   20MOL0     H 2699   1.303   6.290   4.408  1.5519  0.0067 -1.8085
   20MOL0     H 2700   1.379   6.142   4.351  0.2484 -0.4124  0.4973
   20MOL0     H 2701   1.227   6.146   4.623  2.2428 -1.6209  0.7767
   20MOL0     H 2702   1.307   6.006   4.556 -1.5284 -1.0650  1.2566
   20MOL0     H 2703   1.084   6.153   4.437  2.4767  1.7997 -0.1159
   20MOL0     H 2704   1.141   5.998   4.369 -2.9241 -1.9382  0.6819
   20MOL0     H 2705   1.002   6.031   4.637 -1.7929 -0.2090  0.9682
   20MOL0     H 2706   1.081   5.886   4.597  1.2087  1.4230  0.9300
   20MOL0     H 2707   0.853   6.021   4.434  0.2238 -0.7411 -1.9654
   20MOL0     H 2708   0.913   5.861   4.384  1.2784  1.8389 -2.0671
   20MOL0     H 2709   0.639   5.877   4.406 -1.3719 -4.2755 -2.9807
   20MOL0     H 2710   0.402   5.759   4.499 -1.0707 -0.6497  0.6030
   20MOL0     H 2711   0.416   5.714   4.669  1.4149  1.2323  0.6973
   20MOL0     H 2712   0.537   5.551   4.442  1.0272  1.8549 -0.0864
   20MOL0     H 2713   0.545   5.512   4.609  1.2357 -1.5824 -1.8596
   20MOL0     H 2714   0.381   5.388   4.510  2.6952  1.5394  0.5039
   20MOL0     H 2715   0.288   5.497   4.620  0.0598  2.6077 -0.0401
   20MOL0     H 2716   0.219   5.630   4.444 -2.9020 -1.3889 -0.8695
   20MOL0     H 2717   0.329   5.550   4.329 -2.2323 -0.0510 -2.4233
   20MOL0     H 2718   0.041   5.296   4.198  0.1160  0.1573 -0.9987
   20MOL0     H 2719  -0.300   5.234   4.183  0.8305 -1.4171  0.8024
   20MOL0     H 2720  -0.142   5.205   4.101  0.7221 -0.1955  1.1738
   20MOL0     H 2721  -0.236   5.326   4.045 -0.9125 -1.7693 -0.1695
   20MOL0     H 2722  -0.644   5.566   4.349  0.2206 -0.7328 -0.0443
   20MOL0     H 2723  -0.881   5.566   4.262  0.7523 -0.6135 -2.0971
   20MOL0     H 2724  -0.998   5.221   4.049  1.2375  1.9466  0.2971
   20MOL0     H 2725  -1.106   5.174   4.185 -2.3025 -0.3601 -1.4288
   20MOL0     H 2726  -1.268   5.333   4.120 -1.2607  3.3568 -2.2654
   20MOL0     H 2727  -1.163   5.408   4.009 -1.7152  1.0424  0.5833
   20MOL0     H 2728  -1.179   5.209   3.855 -2.0323 -0.0465 -1.8639
   20MOL0     H 2729  -1.334   5.268   3.908 -2.1078 -2.4125  0.5257
   20MOL0     H 2730  -1.289   5.084   4.095 -0.9093  0.2393 -0.0980
   20MOL0     H 2731  -1.179   5.022   3.975 -0.4101  0.3785  0.2098
   20MOL0     H 2732  -1.406   4.915   3.934 -0.9371 -0.7880 -1.0533
   20MOL0     H 2733  -1.478   5.065   3.895  0.4354 -0.9311 -2.8583
   20MOL0     H 2734  -1.233   5.011   3.729 -0.3169  0.4551 -0.7140
   20MOL0     H 2735  -1.372   5.102   3.698  4.7940  0.9197  0.3925
   20MOL0     H 2736  -1.499   4.890   3.697  1.2758  0.5514  1.1290
   20MOL0     H 2737  -1.342   4.806   3.663  0.5471  0.3905 -1.0553
   20MOL0     H 2738  -1.477   5.013   3.504 -2.0990 -1.6563  1.3799
   20MOL0     H 2739  -1.450   4.848   3.460 -0.0998  1.6401 -2.5484
   20MOL0     H 2740  -0.840   5.155   4.171  5.0105 -2.4538  0.1860
   20MOL0     H 2741  -0.610   5.157   4.237 -1.8212 -0.7915  3.3166
   20MOL0     H 2742  -0.248   5.608   4.473  0.1061 -1.9917  1.4987
   20MOL0     H 2743  -0.000   5.620   4.504 -1.8199 -0.2789  1.4326
   20MOL0     H 2744   1.338   6.314   4.894 -0.3181  0.3312 -0.8203
   20MOL0     H 2745   1.172   6.201   5.048 -3.1220 -1.1785 -1.6300
   20MOL0     H 2746   0.829   5.750   4.973 -1.7758 -1.3679  0.7026
   20MOL0     H 2747   0.681   5.633   5.107 -0.7732  0.2983 -0.8434
   20MOL0     H 2748   0.700   5.668   5.562 -0.1988 -0.8593  1.0768
   20MOL0     H 2749   0.614   5.808   5.508  2.2853  0.4533 -1.0616
   20MOL0     H 2750   0.470   5.536   5.528  0.2326 -0.3449  1.8959
   20MOL0     H 2751   0.394   5.692   5.514  0.6092 -1.2822 -3.8145
   20MOL0     H 2752   0.585   5.625   5.743  0.5606  2.3881  1.7244
   20MOL0     H 2753   0.467   5.755   5.749  1.5094  0.1294  0.3461
   20MOL0     H 2754   0.403   5.442   5.736  2.5192 -0.6198  2.1246
   20MOL0     H 2755   0.286   5.562   5.775 -0.4792 -2.7583 -0.4500
   20MOL0     H 2756   0.471   5.556   6.149  0.4534 -1.1891 -0.6326
   20MOL0     H 2757   0.831   5.817   5.467 -0.1581  0.5163  0.0483
   20MOL0     H 2758   1.015   5.952   5.467  1.9855  1.7764 -1.4694
   20MOL0     H 2759   1.137   5.867   5.376 -0.0757 -0.6462  1.8870
   20MOL0     H 2760   1.067   6.024   5.318 -2.2316  0.6995 -1.6728
   21MOL0     O 2761   2.144   9.226  10.685  0.3706  0.0855 -0.5836
   21MOL0     C 2762   2.260   9.183  10.709  0.8154 -0.8622 -0.2328
   21MOL0     O 2763   2.285   9.045  10.742 -0.9140  0.2711 -0.5954
   21MOL0     C 2764   2.185   8.953  10.723 -0.0263 -0.2307  0.7661
   21MOL0     C 2765   2.062   8.963  10.786 -0.3155 -0.2062  0.3158
   21MOL0     C 2766   1.960   8.872  10.753  0.6165 -0.4641 -0.0173
   21MOL0     C 2767   1.983   8.757  10.676 -0.4626 -0.3323 -0.7422
   21MOL0     O 2768   1.891   8.655  10.665  0.1184 -0.1285 -0.3053
   21MOL0     C 2769   1.774   8.645  10.747  0.6495  0.3838  0.1060
   21MOL0     C 2770   1.687   8.536  10.682 -0.0974 -0.1616 -0.0256
   21MOL0     C 2771   1.556   8.491  10.751 -0.4236  1.2100  0.1649
   21MOL0     C 2772   1.451   8.461  10.651  0.5033  0.6573 -0.4559
   21MOL0     C 2773   1.473   8.323  10.576 -0.3408 -0.3014  0.0032
   21MOL0     C 2774   1.473   8.187  10.654 -0.0779  0.0471 -0.1965
   21MOL0     C 2775   1.542   8.078  10.580  0.2920 -0.2458 -0.2571
   21MOL0     C 2776   1.443   8.025  10.476 -0.7174  0.7562  0.1998
   21MOL0     N 2777   1.428   8.097  10.342 -0.2589  0.4247 -0.0038
   21MOL0     C 2778   1.531   8.167  10.273 -0.1216  0.2969  0.8453
   21MOL0     C 2779   1.471   8.226  10.164  0.3411  0.5784 -0.8396
   21MOL0     C 2780   1.544   8.322  10.074  0.2117  0.4247  0.0049
   21MOL0     C 2781   1.541   8.264   9.937 -0.2892 -0.6012 -0.1227
   21MOL0     C 2782   1.632   8.131   9.932  0.2264 -0.1497 -0.1175
   21MOL0     C 2783   1.629   8.078   9.784  1.0424 -0.5835 -0.0963
   21MOL0     O 2784   1.706   8.159   9.695  0.5476  0.0933 -0.4792
   21MOL0     C 2785   1.846   8.157   9.688 -0.4904  0.2366  0.0172
   21MOL0     C 2786   1.928   8.080   9.774 -0.1769  0.7407  0.0222
   21MOL0     C 2787   2.073   8.099   9.766 -0.0483  0.8590 -0.2082
   21MOL0     C 2788   2.144   8.013   9.873 -0.8123  0.1091 -0.5597
   21MOL0     C 2789   2.129   8.200   9.684 -0.6128 -0.0716 -0.1105
   21MOL0     C 2790   2.274   8.224   9.673  1.0960 -0.7803 -0.0441
   21MOL0     O 2791   2.307   8.317   9.579  0.2666 -0.2355  0.1730
   21MOL0     C 2792   2.440   8.325   9.538  0.0899 -0.0024 -0.8908
   21MOL0     C 2793   2.495   8.279   9.417 -0.1439 -0.2976 -0.4866
   21MOL0     C 2794   2.628   8.284   9.384  0.3393 -0.7646 -0.6264
   21MOL0     C 2795   2.711   8.356   9.478 -0.4591 -0.2329 -0.2883
   21MOL0     O 2796   2.842   8.384   9.456 -0.1244 -0.5304  0.2065
   21MOL0     C 2797   2.903   8.298   9.362 -0.1619 -0.5095  0.2745
   21MOL0     C 2798   2.890   8.351   9.213 -1.1682  0.4996 -1.4928
   21MOL0     C 2799   2.969   8.485   9.202  0.0905  0.5477  0.7704
   21MOL0     C 2800   2.944   8.534   9.053 -0.4697  0.7165  0.5865
   21MOL0     C 2801   2.990   8.668   9.013  0.2493 -0.6723  0.8783
   21MOL0     C 2802   3.144   8.698   9.025  0.0563 -0.0384 -0.0385
   21MOL0     C 2803   3.221   8.609   8.925 -0.3210 -0.3009 -0.1057
   21MOL0     C 2804   3.347   8.670   8.869 -0.1035 -0.0688  0.2972
   21MOL0    Cl 2805   3.341   8.830   8.809  0.0188 -0.1922 -0.1019
   21MOL0     C 2806   2.657   8.397   9.597  0.5693 -0.1192 -0.0067
   21MOL0     C 2807   2.524   8.380   9.635 -0.1424  1.1623  1.2384
   21MOL0     O 2808   2.348   8.140   9.722 -0.4616  0.2430 -0.5636
   21MOL0     C 2809   2.041   8.268   9.598  0.3168 -0.8503  0.0480
   21MOL0     C 2810   1.902   8.246   9.597 -0.2142 -0.3056 -0.3667
   21MOL0     N 2811   1.338   8.189  10.171 -0.2288 -0.2794  0.1756
   21MOL0     N 2812   1.310   8.113  10.271  0.3472 -0.0312 -0.0727
   21MOL0     C 2813   2.114   8.740  10.629 -0.8016 -0.1814  0.1142
   21MOL0     C 2814   2.212   8.835  10.645  0.6263 -0.3147 -0.6126
   21MOL0     C 2815   2.374   9.282  10.708  0.7421  0.3136 -0.0966
   21MOL0     C 2816   2.341   9.417  10.723 -0.5453  0.4262  0.1318
   21MOL0     C 2817   2.445   9.507  10.750 -0.5759  0.3265  0.0914
   21MOL0     C 2818   2.580   9.463  10.754 -0.3762  1.0743  0.1116
   21MOL0     O 2819   2.687   9.555  10.771  0.0324  1.2062 -0.1128
   21MOL0     C 2820   2.723   9.614  10.649  0.6593  0.2361 -0.1407
   21MOL0     C 2821   2.863   9.665  10.665 -0.1681  0.2198  0.4946
   21MOL0     C 2822   2.883   9.779  10.563  0.5965  0.2824  0.3311
   21MOL0     C 2823   3.019   9.852  10.591 -0.0841 -0.6407 -0.1762
   21MOL0     C 2824   3.139   9.766  10.555  0.8673  0.2449  0.2094
   21MOL0     C 2825   3.227   9.687  10.521 -0.1121 -0.1655 -0.1823
   21MOL0     C 2826   2.613   9.331  10.725  0.1565 -1.0491  0.6646
   21MOL0     C 2827   2.510   9.242  10.710  0.4684  0.3221  0.0278
   21MOL0     C 2828   2.556   9.103  10.686  0.0642  0.5890 -0.5666
   21MOL0     H 2829   2.049   9.053  10.846  0.2711 -2.2513  3.7562
   21MOL0     H 2830   1.864   8.897  10.797 -0.8914 -3.0669 -1.5336
   21MOL0     H 2831   1.719   8.739  10.745  2.2121  1.4264 -3.5078
   21MOL0     H 2832   1.792   8.612  10.849 -1.7604 -1.7018 -0.0478
   21MOL0     H 2833   1.668   8.560  10.577  0.9379 -0.3619 -0.2643
   21MOL0     H 2834   1.747   8.444  10.676  0.2349  0.1168 -1.2797
   21MOL0     H 2835   1.578   8.406  10.815 -1.6883  1.9778  1.7059
   21MOL0     H 2836   1.524   8.568  10.821  0.3246  1.3512  0.3628
   21MOL0     H 2837   1.351   8.455  10.696 -1.5429 -2.5187 -4.6487
   21MOL0     H 2838   1.453   8.533  10.569 -0.3165  1.2483  0.0209
   21MOL0     H 2839   1.577   8.328  10.540 -0.6577  1.3302 -0.8175
   21MOL0     H 2840   1.400   8.327  10.495 -0.8350  0.6379  0.4797
   21MOL0     H 2841   1.521   8.202  10.752 -2.8939 -0.4035  1.3516
   21MOL0     H 2842   1.371   8.156  10.679  0.5196 -0.4214  1.8622
   21MOL0     H 2843   1.558   7.986  10.637  1.6858  0.2062  0.1292
   21MOL0     H 2844   1.642   8.107  10.546  2.1126 -1.9330  3.1477
   21MOL0     H 2845   1.481   7.926  10.447 -1.6508 -0.1583  1.9814
   21MOL0     H 2846   1.344   8.007  10.518 -0.6570  1.1481  0.5035
   21MOL0     H 2847   1.635   8.180  10.303  0.3657 -0.5880 -0.3938
   21MOL0     H 2848   1.649   8.336  10.099  0.3777  0.0990 -0.5065
   21MOL0     H 2849   1.499   8.422  10.071 -0.9195 -0.0623 -2.6294
   21MOL0     H 2850   1.441   8.223   9.914 -1.0490 -0.4266  2.5562
   21MOL0     H 2851   1.576   8.335   9.861 -0.8869 -1.2720 -1.0516
   21MOL0     H 2852   1.735   8.149   9.963  0.5850 -1.6052 -0.4226
   21MOL0     H 2853   1.580   8.061   9.997 -2.3521  2.6811  1.1436
   21MOL0     H 2854   1.664   7.974   9.791  1.7355 -0.2394  3.2031
   21MOL0     H 2855   1.525   8.075   9.751  1.1142  1.1900 -0.5681
   21MOL0     H 2856   1.884   8.021   9.853 -1.3119  0.9108 -0.4668
   21MOL0     H 2857   2.077   7.969   9.948 -0.7457  1.3337  0.2439
   21MOL0     H 2858   2.228   8.055   9.928 -1.3554  0.2654  0.1772
   21MOL0     H 2859   2.185   7.924   9.824  0.0301 -0.9820  1.9510
   21MOL0     H 2860   2.430   8.213   9.360 -1.6808 -1.0732  1.9849
   21MOL0     H 2861   2.670   8.230   9.300 -1.4143  0.0469 -2.0814
   21MOL0     H 2862   3.009   8.284   9.386  0.4123 -0.3112 -1.9036
   21MOL0     H 2863   2.874   8.192   9.365  3.2569 -1.5856 -0.1274
   21MOL0     H 2864   2.924   8.267   9.152 -1.1302 -1.0890  0.6000
   21MOL0     H 2865   2.783   8.362   9.192 -2.2164 -2.0425  1.6259
   21MOL0     H 2866   3.077   8.473   9.213  0.4757  1.4225 -1.5400
   21MOL0     H 2867   2.941   8.564   9.273  1.7245  1.1738  0.7631
   21MOL0     H 2868   2.838   8.535   9.029  0.3149 -1.8391 -4.1345
   21MOL0     H 2869   2.988   8.457   8.988 -2.7838 -3.0538  3.0954
   21MOL0     H 2870   2.967   8.680   8.907 -2.1198  0.0503  1.4014
   21MOL0     H 2871   2.929   8.736   9.074 -0.4604  0.6202 -1.1578
   21MOL0     H 2872   3.182   8.686   9.127  0.6577 -0.3381 -0.2925
   21MOL0     H 2873   3.160   8.805   9.012  0.6155 -0.2538 -1.3090
   21MOL0     H 2874   3.152   8.587   8.842 -2.4370  1.0878  1.1755
   21MOL0     H 2875   3.240   8.520   8.985 -0.6277  1.2823  2.4929
   21MOL0     H 2876   3.389   8.603   8.794  2.5523 -0.3978  1.9833
   21MOL0     H 2877   3.426   8.672   8.944  1.0328 -0.3765 -0.8548
   21MOL0     H 2878   2.722   8.444   9.670  0.6145  1.0484 -0.7794
   21MOL0     H 2879   2.482   8.406   9.731 -0.7721 -1.1778  1.6417
   21MOL0     H 2880   2.078   8.345   9.531  2.4860 -2.2147 -0.4504
   21MOL0     H 2881   1.838   8.296   9.525 -0.1983 -2.5915 -2.0848
   21MOL0     H 2882   2.126   8.661  10.556  0.1245  1.2313 -1.3349
   21MOL0     H 2883   2.313   8.818  10.608  0.9042 -1.0892  0.4501
   21MOL0     H 2884   2.238   9.451  10.717 -0.8624 -0.0827  1.8938
   21MOL0     H 2885   2.411   9.608  10.769 -2.7769 -0.6258  1.6054
   21MOL0     H 2886   2.714   9.555  10.557 -5.3199 -0.2249  0.3457
   21MOL0     H 2887   2.654   9.698  10.645 -1.6344 -1.2733  3.3393
   21MOL0     H 2888   2.944   9.594  10.650 -0.2997  0.4002 -1.3989
   21MOL0     H 2889   2.861   9.694  10.770  0.5684 -2.0289  1.1843
   21MOL0     H 2890   2.891   9.734  10.464 -1.8802  0.0029  0.1977
   21MOL0     H 2891   2.799   9.850  10.563  0.3146 -0.0461  0.6423
   21MOL0     H 2892   3.023   9.899  10.689  3.4714 -0.3763 -0.3341
   21MOL0     H 2893   3.032   9.935  10.520 -1.3281 -0.0800  0.2166
   21MOL0     H 2894   3.310   9.620  10.511 -0.9247 -1.5257  1.7095
   21MOL0     H 2895   2.717   9.304  10.715 -0.3787 -3.4865  1.1484
   21MOL0     H 2896   2.653   9.110  10.637 -0.7817 -5.3227 -4.0502
   21MOL0     H 2897   2.577   9.049  10.779 -0.6320 -2.1616 -1.8958
   21MOL0     H 2898   2.491   9.049  10.617 -0.8114 -0.2106  0.8356
   22MOL0     O 2899   8.919   6.649   1.191 -0.2397 -0.3463  0.7431
   22MOL0     C 2900   8.925   6.536   1.146 -1.3479  0.7046 -0.4947
   22MOL0     O 2901   9.017   6.450   1.182 -0.2319  0.2864 -0.3705
   22MOL0     C 2902   9.082   6.459   1.302  0.5580 -1.0595 -0.1404
   22MOL0     C 2903   9.222   6.450   1.316 -0.2145  0.1058  0.1013
   22MOL0     C 2904   9.285   6.441   1.440 -0.4475 -0.5163  0.1142
   22MOL0     C 2905   9.206   6.470   1.558  0.2762  0.1045  0.0398
   22MOL0     O 2906   9.264   6.467   1.687 -0.4333 -0.0204  0.1477
   22MOL0     C 2907   9.410   6.481   1.692  1.3831 -0.6125 -0.0321
   22MOL0     C 2908   9.436   6.498   1.841  0.1845  0.7002  0.4410
   22MOL0     C 2909   9.571   6.559   1.851  0.3783  0.3749 -0.3464
   22MOL0     C 2910   9.631   6.545   1.989  0.3557  0.9162 -0.1112
   22MOL0     C 2911   9.752   6.641   2.010 -0.3445  0.0127  0.0600
   22MOL0     C 2912   9.818   6.618   2.138  0.1356  0.8128 -0.2422
   22MOL0     C 2913   9.953   6.701   2.151  1.0227 -0.1981  0.2416
   22MOL0     C 2914  10.075   6.638   2.087 -0.4115  0.3969  0.9898
   22MOL0     N 2915  10.199   6.724   2.096  0.5789  0.2308 -0.1966
   22MOL0     C 2916  10.244   6.832   2.029  0.4511 -0.0788  0.1929
   22MOL0     C 2917  10.372   6.848   2.074  0.6063  0.7317  0.7237
   22MOL0     C 2918  10.480   6.946   2.030  0.5897 -0.8772 -0.2906
   22MOL0     C 2919  10.473   7.070   2.123 -0.4951 -0.2688  0.7013
   22MOL0     C 2920  10.568   7.176   2.062 -0.0256  0.3870  0.2386
   22MOL0     C 2921  10.553   7.310   2.131  0.3512 -0.0855  0.0461
   22MOL0     O 2922  10.633   7.293   2.247 -0.7138 -0.1856 -0.8747
   22MOL0     C 2923  10.580   7.298   2.374 -0.2688  0.2859 -0.0158
   22MOL0     C 2924  10.671   7.320   2.479 -1.2087 -0.4077 -0.5472
   22MOL0     C 2925  10.635   7.311   2.617  0.7050 -1.0520 -0.8702
   22MOL0     C 2926  10.734   7.353   2.727 -0.2054  0.5799 -0.1470
   22MOL0     C 2927  10.499   7.275   2.643  0.2571  0.5933 -0.5517
   22MOL0     C 2928  10.434   7.265   2.778  0.3326  0.6692 -0.4708
   22MOL0     O 2929  10.321   7.191   2.798 -0.2183 -0.8722 -1.1947
   22MOL0     C 2930  10.280   7.162   2.924 -0.8293  0.6595  0.4905
   22MOL0     C 2931  10.283   7.034   2.979 -0.7290 -0.7001 -0.3356
   22MOL0     C 2932  10.227   7.011   3.101 -0.0380  0.6681  0.4518
   22MOL0     C 2933  10.159   7.109   3.173 -1.3869 -0.7197 -0.4611
   22MOL0     O 2934  10.092   7.079   3.291 -0.5124 -0.3946 -0.0693
   22MOL0     C 2935  10.147   7.135   3.420  0.1800  0.4369  0.0416
   22MOL0     C 2936  10.236   7.040   3.502  0.0607 -0.1271  0.9357
   22MOL0     C 2937  10.336   7.124   3.592  0.0882  0.7644 -0.2673
   22MOL0     C 2938  10.435   7.028   3.658  0.5252  0.0774  0.0546
   22MOL0     C 2939  10.514   7.099   3.763 -0.3301 -1.0232  0.3406
   22MOL0     C 2940  10.621   7.011   3.832  0.1953  0.5055 -0.5014
   22MOL0     C 2941  10.708   7.097   3.930  0.2691 -0.8623 -0.3889
   22MOL0     C 2942  10.646   7.126   4.066 -0.1357 -0.7216 -0.9149
   22MOL0    Cl 2943  10.612   6.980   4.169  0.0337  0.0884 -0.2340
   22MOL0     C 2944  10.150   7.233   3.120  1.1446 -0.5503 -0.1211
   22MOL0     C 2945  10.210   7.263   2.996  0.5767 -0.6227 -0.4668
   22MOL0     O 2946  10.498   7.339   2.857  0.7843 -0.4775 -0.7265
   22MOL0     C 2947  10.404   7.271   2.537  0.1456 -0.6591 -0.4301
   22MOL0     C 2948  10.442   7.279   2.407 -0.3183 -1.1740  1.1056
   22MOL0     N 2949  10.409   6.747   2.161  0.4832  0.0582 -0.8986
   22MOL0     N 2950  10.297   6.677   2.178  0.2633 -0.5480 -0.1163
   22MOL0     C 2951   9.069   6.493   1.541  0.2541  0.5972 -0.6011
   22MOL0     C 2952   9.006   6.472   1.417  0.3444  0.7278 -0.7128
   22MOL0     C 2953   8.816   6.472   1.061 -0.5523 -0.6502 -0.8032
   22MOL0     C 2954   8.797   6.337   1.062 -0.2554  0.4579 -0.1684
   22MOL0     C 2955   8.680   6.276   1.008  0.3071  0.2351  0.4845
   22MOL0     C 2956   8.588   6.356   0.948 -0.6235 -0.7021 -0.1845
   22MOL0     O 2957   8.496   6.277   0.876 -0.1120  0.0436 -0.1712
   22MOL0     C 2958   8.393   6.344   0.799 -0.3419 -0.4775  0.0889
   22MOL0     C 2959   8.306   6.239   0.719 -0.0422  0.1617  0.3679
   22MOL0     C 2960   8.245   6.125   0.804  0.3221 -0.0658  0.0630
   22MOL0     C 2961   8.093   6.139   0.818 -0.2724  0.1775 -1.0843
   22MOL0     C 2962   8.024   6.083   0.706  0.3301 -0.5808  0.5939
   22MOL0     C 2963   7.953   6.052   0.612 -0.0419  0.5368  0.0609
   22MOL0     C 2964   8.603   6.491   0.946  0.6067  0.2716  0.9729
   22MOL0     C 2965   8.716   6.555   0.997  0.0166  0.5392 -0.3146
   22MOL0     C 2966   8.721   6.699   0.975  0.0614  0.0904  0.1797
   22MOL0     H 2967   9.292   6.428   1.236  0.5715 -0.0972  0.8250
   22MOL0     H 2968   9.385   6.401   1.451 -0.3118  0.0372  0.9744
   22MOL0     H 2969   9.440   6.576   1.647 -0.4106 -0.6356 -1.3777
   22MOL0     H 2970   9.463   6.391   1.661 -1.9534 -3.1973  1.0898
   22MOL0     H 2971   9.360   6.564   1.884 -1.5691 -1.5065  0.9279
   22MOL0     H 2972   9.432   6.402   1.893  1.0042 -0.9883 -2.4260
   22MOL0     H 2973   9.630   6.502   1.779  0.0053  2.1944 -2.1734
   22MOL0     H 2974   9.569   6.664   1.821  0.2716 -0.3127 -2.9386
   22MOL0     H 2975   9.550   6.560   2.061 -0.7331  0.3940 -1.1904
   22MOL0     H 2976   9.657   6.440   2.008  0.9384  1.0716 -0.0271
   22MOL0     H 2977   9.727   6.747   2.007  1.3568  0.6015  2.9391
   22MOL0     H 2978   9.820   6.603   1.932  0.5919 -0.5389  1.1086
   22MOL0     H 2979   9.741   6.633   2.215  0.6296 -0.2093  0.4746
   22MOL0     H 2980   9.855   6.515   2.136 -3.7742 -0.8244  0.7151
   22MOL0     H 2981   9.972   6.724   2.256  2.0298 -0.4843  0.1368
   22MOL0     H 2982   9.939   6.796   2.099  1.0959 -0.3152  0.0081
   22MOL0     H 2983  10.079   6.536   2.127 -3.2590 -0.3248 -0.2889
   22MOL0     H 2984  10.043   6.621   1.984 -2.0512 -2.0081  1.7988
   22MOL0     H 2985  10.204   6.890   1.947  1.0133 -0.5679 -0.4365
   22MOL0     H 2986  10.482   6.969   1.923  1.1043 -0.0947 -0.1213
   22MOL0     H 2987  10.580   6.902   2.041  1.1728  0.3148 -0.6193
   22MOL0     H 2988  10.374   7.115   2.120  0.7003  2.5360  0.3813
   22MOL0     H 2989  10.499   7.050   2.227  0.0089 -0.5952  0.5149
   22MOL0     H 2990  10.670   7.140   2.075 -0.5546 -1.1291  0.3706
   22MOL0     H 2991  10.535   7.189   1.958 -1.2739  3.5080  0.9051
   22MOL0     H 2992  10.605   7.383   2.069  1.7407  0.9487  2.3032
   22MOL0     H 2993  10.448   7.335   2.148  0.0036  0.6918 -2.7429
   22MOL0     H 2994  10.775   7.333   2.453 -0.5419 -2.1137  1.0497
   22MOL0     H 2995  10.839   7.346   2.699 -0.0969  0.8844  0.1710
   22MOL0     H 2996  10.725   7.276   2.804  0.3969 -0.7193 -1.3241
   22MOL0     H 2997  10.708   7.457   2.751 -1.0619  0.3759 -0.1426
   22MOL0     H 2998  10.331   6.961   2.915  0.3564  1.2619 -1.8976
   22MOL0     H 2999  10.239   6.908   3.133  1.6933  0.5539 -0.4187
   22MOL0     H 3000  10.208   7.222   3.394  0.9526 -0.7343 -2.4315
   22MOL0     H 3001  10.067   7.173   3.483 -0.0060 -2.1022  1.4535
   22MOL0     H 3002  10.178   6.977   3.569  1.0108 -1.2698  0.7262
   22MOL0     H 3003  10.295   6.974   3.437 -1.3498  1.5111 -2.2644
   22MOL0     H 3004  10.277   7.180   3.664 -4.0943 -0.6786 -2.2451
   22MOL0     H 3005  10.391   7.188   3.523 -1.7023 -0.4456 -3.0013
   22MOL0     H 3006  10.521   6.997   3.597  3.6479  2.1335  3.0088
   22MOL0     H 3007  10.385   6.939   3.696 -1.4923  0.8586 -0.6377
   22MOL0     H 3008  10.567   7.169   3.697 -0.5853  0.2808  1.4790
   22MOL0     H 3009  10.459   7.152   3.841 -1.4528 -3.2323  1.1458
   22MOL0     H 3010  10.679   6.945   3.766  0.1493 -0.6453  0.5717
   22MOL0     H 3011  10.565   6.940   3.893 -1.9219  0.7352 -2.0711
   22MOL0     H 3012  10.726   7.195   3.885  0.4670 -0.2864  0.8957
   22MOL0     H 3013  10.805   7.048   3.940  0.2170 -0.7379  0.8602
   22MOL0     H 3014  10.548   7.168   4.044 -0.3197 -0.9977 -0.6250
   22MOL0     H 3015  10.706   7.201   4.119 -0.5528  1.1081 -2.8884
   22MOL0     H 3016  10.102   7.313   3.177 -1.1918 -2.8977  1.4565
   22MOL0     H 3017  10.207   7.361   2.951  4.6948  0.0408  0.3155
   22MOL0     H 3018  10.296   7.261   2.547  0.0784 -1.6965 -1.7991
   22MOL0     H 3019  10.372   7.262   2.327  0.6667 -0.7287  0.1168
   22MOL0     H 3020   9.013   6.515   1.631 -1.4842 -0.7477 -1.2739
   22MOL0     H 3021   8.898   6.468   1.409  0.2655 -1.3168  0.6579
   22MOL0     H 3022   8.867   6.263   1.100 -0.7065  1.0303  1.8750
   22MOL0     H 3023   8.675   6.168   1.007  0.0825  0.1990 -2.8668
   22MOL0     H 3024   8.332   6.406   0.865  2.3512  1.5800  0.8305
   22MOL0     H 3025   8.453   6.416   0.742 -1.4155  0.4455  0.0851
   22MOL0     H 3026   8.375   6.186   0.653  1.0188 -1.3912  2.5965
   22MOL0     H 3027   8.226   6.288   0.664  0.0876  0.9522  0.8701
   22MOL0     H 3028   8.286   6.025   0.785 -0.3283 -1.0016  3.0329
   22MOL0     H 3029   8.275   6.140   0.908 -1.8001 -1.9019  1.0063
   22MOL0     H 3030   8.074   6.244   0.840 -0.3267  0.7118 -3.4682
   22MOL0     H 3031   8.054   6.085   0.905 -1.9898  1.4999 -0.9969
   22MOL0     H 3032   7.880   6.036   0.535  0.3667 -0.5420 -0.1263
   22MOL0     H 3033   8.526   6.550   0.897  0.2014 -1.4484 -0.5800
   22MOL0     H 3034   8.692   6.756   1.063  3.1253  0.6820  0.9415
   22MOL0     H 3035   8.827   6.726   0.970 -0.0705  0.4700 -0.7458
   22MOL0     H 3036   8.668   6.735   0.887  0.6110  0.7028  0.0924
   23MOL0     O 3037   2.618  10.527   9.751  0.0941 -0.1583  0.0924
   23MOL0     C 3038   2.577  10.425   9.813 -0.2990  0.0856 -0.4065
   23MOL0     O 3039   2.656  10.319   9.858  0.2077  0.0659  0.1162
   23MOL0     C 3040   2.789  10.309   9.832  0.2796  0.5188 -0.9360
   23MOL0     C 3041   2.847  10.219   9.741 -0.1565 -0.3645  0.5098
   23MOL0     C 3042   2.984  10.216   9.716 -0.8065  0.1743  0.2368
   23MOL0     C 3043   3.069  10.297   9.796 -1.2204 -0.1738 -0.6083
   23MOL0     O 3044   3.205  10.277   9.795 -0.3627 -0.0794 -0.3251
   23MOL0     C 3045   3.287  10.333   9.900  0.2481 -0.2576 -0.1801
   23MOL0     C 3046   3.428  10.280   9.880  1.3435 -0.1475  0.3396
   23MOL0     C 3047   3.533  10.337   9.976  0.3452  0.0415 -0.4153
   23MOL0     C 3048   3.662  10.254   9.968 -0.8373 -1.1348 -0.0978
   23MOL0     C 3049   3.769  10.289  10.079 -0.6205  0.2142 -0.0550
   23MOL0     C 3050   3.818  10.437  10.085 -0.1121  0.8885 -0.1402
   23MOL0     C 3051   3.924  10.445  10.198 -0.5189  0.1645  0.1345
   23MOL0     C 3052   3.931  10.576  10.274 -0.0382  0.2064  0.9061
   23MOL0     N 3053   4.042  10.578  10.370 -0.2312  0.1417 -0.2913
   23MOL0     C 3054   4.169  10.621  10.330  0.1688  0.2877 -0.2878
   23MOL0     C 3055   4.242  10.577  10.435 -0.0251  0.4392  0.5484
   23MOL0     C 3056   4.387  10.584  10.446  0.6391 -0.0305 -0.0795
   23MOL0     C 3057   4.468  10.651  10.340  0.1394  0.3916 -0.2182
   23MOL0     C 3058   4.440  10.797  10.293 -0.5990 -0.2054  0.0864
   23MOL0     C 3059   4.429  10.912  10.414 -0.4524  0.0004 -0.4275
   23MOL0     O 3060   4.562  10.916  10.476  0.1384 -0.5094 -0.1993
   23MOL0     C 3061   4.669  10.963  10.398 -0.0284  0.0771 -0.0655
   23MOL0     C 3062   4.663  11.042  10.279  0.3363  0.1290 -0.0811
   23MOL0     C 3063   4.782  11.089  10.212  0.2382 -0.2269 -0.1802
   23MOL0     C 3064   4.767  11.177  10.080  1.0969 -0.3110  0.2703
   23MOL0     C 3065   4.903  11.067  10.261  0.2555  0.4477 -0.5514
   23MOL0     C 3066   5.028  11.103  10.198  0.5433 -1.0159 -0.8473
   23MOL0     O 3067   5.120  11.007  10.209 -0.2173 -0.2764  0.2416
   23MOL0     C 3068   5.240  11.014  10.144  0.7589  0.2196 -1.1728
   23MOL0     C 3069   5.314  11.129  10.144  0.1285 -0.0160 -0.1296
   23MOL0     C 3070   5.430  11.138  10.072 -0.4298 -0.1766  0.6921
   23MOL0     C 3071   5.468  11.030   9.993 -0.1886 -0.5897 -0.5916
   23MOL0     O 3072   5.578  11.046   9.913  0.2928  0.3190  0.2833
   23MOL0     C 3073   5.702  11.065   9.983 -0.1199  0.2735  0.3371
   23MOL0     C 3074   5.803  11.059   9.879  0.0151 -0.2419  0.0639
   23MOL0     C 3075   5.824  11.202   9.819  1.1426  0.8802 -0.1377
   23MOL0     C 3076   5.931  11.189   9.702  0.5843  0.2482  0.1399
   23MOL0     C 3077   5.977  11.316   9.623 -0.0494 -0.0344  0.7030
   23MOL0     C 3078   5.846  11.379   9.566 -0.2278  0.3610 -0.0595
   23MOL0     C 3079   5.870  11.525   9.516  0.1282  0.7806  0.1576
   23MOL0     C 3080   6.011  11.538   9.449  0.4685  0.0718 -0.1411
   23MOL0    Cl 3081   6.014  11.687   9.357 -0.2318 -0.4775 -0.1918
   23MOL0     C 3082   5.394  10.914   9.986  0.8041 -0.4741  0.2436
   23MOL0     C 3083   5.287  10.899  10.077  0.4233  0.1068 -0.5516
   23MOL0     O 3084   5.039  11.212  10.137 -0.1231  0.0552  0.3499
   23MOL0     C 3085   4.908  10.994  10.382 -0.1417 -0.4907 -0.9030
   23MOL0     C 3086   4.802  10.945  10.444  0.3550 -0.4668 -0.2562
   23MOL0     N 3087   4.166  10.515  10.524 -0.6405  0.6496  0.9558
   23MOL0     N 3088   4.043  10.508  10.489 -0.4805 -0.4226  0.1472
   23MOL0     C 3089   3.013  10.386   9.884 -0.6471 -0.5706 -0.0960
   23MOL0     C 3090   2.877  10.399   9.904  0.2334  0.1087 -0.0030
   23MOL0     C 3091   2.434  10.410   9.845  0.1767  0.2106  0.5616
   23MOL0     C 3092   2.393  10.377   9.980 -0.2056 -0.6459  0.0938
   23MOL0     C 3093   2.268  10.372  10.017  0.3525 -0.2372  0.0284
   23MOL0     C 3094   2.161  10.399   9.925  0.2611  0.9007  0.9385
   23MOL0     O 3095   2.031  10.413   9.958 -0.0271 -0.1547 -0.3351
   23MOL0     C 3096   1.991  10.508  10.058  0.3379  0.5918  0.8383
   23MOL0     C 3097   2.061  10.648  10.071  0.4033  0.3218  0.7478
   23MOL0     C 3098   2.012  10.755   9.984 -0.2411 -0.5226  0.3139
   23MOL0     C 3099   2.085  10.892   9.991  0.2538 -0.1286 -0.1887
   23MOL0     C 3100   2.066  10.978   9.865  0.4715  0.5512 -0.1695
   23MOL0     C 3101   2.035  11.027   9.757  0.0597  0.2246 -0.6351
   23MOL0     C 3102   2.199  10.423   9.798 -0.7296 -1.5529 -0.1997
   23MOL0     C 3103   2.331  10.440   9.751 -1.2094  0.6224  0.2880
   23MOL0     C 3104   2.356  10.497   9.614 -0.7940  0.8356  0.2437
   23MOL0     H 3105   2.779  10.168   9.674  0.4617 -1.1158  0.4455
   23MOL0     H 3106   3.033  10.152   9.642  1.1406 -0.4500  1.9770
   23MOL0     H 3107   3.257  10.298  10.000 -0.6164 -1.5893 -0.8811
   23MOL0     H 3108   3.283  10.442   9.909  4.4062 -0.0558  1.5091
   23MOL0     H 3109   3.427  10.173   9.905 -1.7228  0.0549  1.4663
   23MOL0     H 3110   3.462  10.295   9.777 -3.9466  1.0151 -1.5416
   23MOL0     H 3111   3.571  10.437   9.956  2.7436 -1.0613 -1.8130
   23MOL0     H 3112   3.492  10.339  10.077  0.4538 -1.4771 -0.3200
   23MOL0     H 3113   3.636  10.149   9.983 -1.4006 -0.6860  2.5115
   23MOL0     H 3114   3.706  10.259   9.868  2.0509 -2.0124  1.0406
   23MOL0     H 3115   3.853  10.225  10.051 -1.5372 -2.0127  1.9096
   23MOL0     H 3116   3.732  10.261  10.178  0.3368  2.4538  1.0024
   23MOL0     H 3117   3.859  10.477   9.992  1.9911 -1.0917 -0.1732
   23MOL0     H 3118   3.731  10.499  10.108  0.7358  1.2934  2.2660
   23MOL0     H 3119   4.019  10.424  10.147 -0.1812  1.0841  0.3557
   23MOL0     H 3120   3.913  10.370  10.277  0.8363 -1.2058 -0.9118
   23MOL0     H 3121   3.950  10.660  10.206  2.6234 -1.0635 -0.0742
   23MOL0     H 3122   3.837  10.587  10.329  1.0847 -0.8223  3.2172
   23MOL0     H 3123   4.198  10.666  10.236  0.6677  0.3576 -0.1011
   23MOL0     H 3124   4.410  10.478  10.463 -2.9195 -0.4090  4.6105
   23MOL0     H 3125   4.398  10.648  10.534 -1.1736  0.2766 -0.0459
   23MOL0     H 3126   4.574  10.637  10.366  0.1182  2.1060  0.9302
   23MOL0     H 3127   4.459  10.594  10.247 -0.2054  0.9007 -0.4965
   23MOL0     H 3128   4.521  10.829  10.228 -1.0516  1.9440  0.5055
   23MOL0     H 3129   4.352  10.813  10.230 -0.7798  0.4168  0.4936
   23MOL0     H 3130   4.393  11.005  10.370 -1.4579  1.1404  2.5523
   23MOL0     H 3131   4.360  10.886  10.494  1.7536 -0.5318  1.4253
   23MOL0     H 3132   4.570  11.090  10.251  0.5474  2.1621  2.3209
   23MOL0     H 3133   4.661  11.191  10.060  1.1055 -0.4648  0.1122
   23MOL0     H 3134   4.813  11.116  10.001 -0.1819  0.1268 -0.8555
   23MOL0     H 3135   4.823  11.269  10.099  1.7957 -1.1226  2.4506
   23MOL0     H 3136   5.281  11.211  10.206 -3.7685 -2.3827  1.2644
   23MOL0     H 3137   5.491  11.228  10.077  2.6323 -2.1538  2.7542
   23MOL0     H 3138   5.699  11.164  10.030  0.7687  1.9782 -2.9082
   23MOL0     H 3139   5.727  10.975  10.040 -0.2334  1.1469  1.8259
   23MOL0     H 3140   5.898  11.032   9.926 -0.7914  0.4489  2.1795
   23MOL0     H 3141   5.774  10.985   9.803  3.3366 -0.0327 -1.6337
   23MOL0     H 3142   5.860  11.270   9.898 -1.3172  0.5380  1.3797
   23MOL0     H 3143   5.728  11.247   9.792  0.0015  1.1807  3.7602
   23MOL0     H 3144   5.880  11.121   9.633 -1.3614  1.2690  0.4850
   23MOL0     H 3145   6.019  11.134   9.734 -0.0325 -1.3259 -0.7300
   23MOL0     H 3146   6.043  11.373   9.688  0.0779 -0.7528  1.2211
   23MOL0     H 3147   6.041  11.273   9.546  1.2364  1.0463  1.1404
   23MOL0     H 3148   5.761  11.376   9.636 -1.6707  0.1541 -1.7602
   23MOL0     H 3149   5.811  11.314   9.486  0.9688 -0.1435 -0.1972
   23MOL0     H 3150   5.858  11.581   9.610  0.2763 -1.7715  1.7783
   23MOL0     H 3151   5.794  11.535   9.438  0.5808 -0.0703 -0.4028
   23MOL0     H 3152   6.033  11.456   9.380 -3.0134 -0.0112 -1.3507
   23MOL0     H 3153   6.088  11.539   9.527  1.9166 -0.1540 -1.5023
   23MOL0     H 3154   5.434  10.831   9.927  1.3698 -0.8486  1.1333
   23MOL0     H 3155   5.244  10.799  10.085  1.2114 -0.1604  0.5657
   23MOL0     H 3156   5.001  10.980  10.436 -0.8434 -0.3392  0.3925
   23MOL0     H 3157   4.821  10.883  10.531 -0.1216  1.8954  1.6542
   23MOL0     H 3158   3.078  10.449   9.945 -1.1981  1.8846 -1.8726
   23MOL0     H 3159   2.840  10.463   9.983  0.9305  2.9257 -1.8009
   23MOL0     H 3160   2.470  10.350  10.052  0.6693  2.4823  0.4761
   23MOL0     H 3161   2.240  10.340  10.117 -1.4201  0.2742 -0.2598
   23MOL0     H 3162   1.883  10.517  10.045  0.2628 -0.8980  0.2618
   23MOL0     H 3163   1.997  10.461  10.157  1.3407 -0.9731  0.0732
   23MOL0     H 3164   2.168  10.639  10.051  0.6491  0.8255  1.7525
   23MOL0     H 3165   2.049  10.687  10.173  1.1465  4.0139 -0.4294
   23MOL0     H 3166   2.026  10.731   9.878 -1.0527 -0.6035  0.2229
   23MOL0     H 3167   1.905  10.773   9.996  0.6142  4.8438  2.7114
   23MOL0     H 3168   2.192  10.880  10.009  0.0941 -0.2071  0.7946
   23MOL0     H 3169   2.048  10.944  10.081 -1.0971  0.7444 -1.2067
   23MOL0     H 3170   1.998  11.074   9.668  0.3485  1.7908  0.0548
   23MOL0     H 3171   2.122  10.448   9.725  1.0143  0.9136 -1.3234
   23MOL0     H 3172   2.326  10.602   9.621  1.0421  1.3384  1.3585
   23MOL0     H 3173   2.460  10.503   9.579 -0.9113 -1.1435 -0.6155
   23MOL0     H 3174   2.298  10.434   9.545 -2.2207 -1.7639  3.5299
   24MOL0     O 3175  10.983   1.379  10.861 -0.1734 -0.4082  0.4557
   24MOL0     C 3176  11.030   1.298  10.787 -0.3894  1.1239 -0.3492
   24MOL0     O 3177  11.017   1.282  10.646  0.5139 -0.4685 -0.3780
   24MOL0     C 3178  10.930   1.373  10.593 -0.2357  0.0462 -0.5173
   24MOL0     C 3179  10.793   1.340  10.589  0.1962  1.0329  0.4523
   24MOL0     C 3180  10.706   1.427  10.525 -0.2232 -0.2827 -0.1857
   24MOL0     C 3181  10.751   1.538  10.453 -0.4434  0.5911 -0.2187
   24MOL0     O 3182  10.654   1.608  10.380  0.0240 -0.7640 -0.0611
   24MOL0     C 3183  10.700   1.740  10.328 -0.2066 -0.1323 -0.0253
   24MOL0     C 3184  10.583   1.802  10.254  0.2408 -0.2247 -0.2040
   24MOL0     C 3185  10.536   1.713  10.136  0.0457  0.0439 -0.5082
   24MOL0     C 3186  10.430   1.789  10.044  0.0153  0.3751  0.1815
   24MOL0     C 3187  10.284   1.806  10.124 -0.3520  0.0435  0.0611
   24MOL0     C 3188  10.183   1.901  10.055 -0.5375 -0.7891  0.1598
   24MOL0     C 3189  10.034   1.872  10.077  0.5092 -0.0955  0.4584
   24MOL0     C 3190   9.979   1.750  10.003 -0.8127  0.2887  0.0668
   24MOL0     N 3191  10.049   1.705   9.879  0.4990  0.6624  0.4067
   24MOL0     C 3192  10.141   1.598   9.868  0.6438 -0.0891 -0.0500
   24MOL0     C 3193  10.166   1.588   9.734  0.3929 -1.3175  0.4448
   24MOL0     C 3194  10.262   1.506   9.664 -0.6695  0.7982  0.4146
   24MOL0     C 3195  10.368   1.584   9.585  0.4262  0.0713  0.1274
   24MOL0     C 3196  10.506   1.526   9.608  0.4024 -0.5942 -0.0307
   24MOL0     C 3197  10.604   1.609   9.536  0.0078  0.1310 -0.1510
   24MOL0     O 3198  10.606   1.746   9.595  0.1960  0.6998 -0.0467
   24MOL0     C 3199  10.677   1.784   9.706  0.9020  0.8509 -0.6033
   24MOL0     C 3200  10.667   1.909   9.760  0.0734 -0.1579  0.2317
   24MOL0     C 3201  10.736   1.955   9.868 -0.0193 -0.4501 -0.3406
   24MOL0     C 3202  10.729   2.105   9.908 -0.1457  0.8404  0.3260
   24MOL0     C 3203  10.826   1.865   9.929 -0.5349  0.1049  0.3514
   24MOL0     C 3204  10.895   1.901  10.058  0.8172  0.5048 -0.0683
   24MOL0     O 3205  11.001   1.819  10.081  0.4635  0.1237 -0.4778
   24MOL0     C 3206  11.065   1.824  10.212 -0.0166 -0.0139  0.1091
   24MOL0     C 3207  11.162   1.729  10.235 -1.1402  0.0928 -0.1672
   24MOL0     C 3208  11.218   1.720  10.367  0.3351 -0.3343 -0.2155
   24MOL0     C 3209  11.185   1.804  10.474 -0.2993  0.9514 -0.2413
   24MOL0     O 3210  11.262   1.796  10.588 -0.0857 -0.7022  0.2623
   24MOL0     C 3211  11.190   1.817  10.716  0.3378 -0.3321  0.3860
   24MOL0     C 3212  11.202   1.688  10.804 -0.4315  0.7332 -2.0205
   24MOL0     C 3213  11.343   1.659  10.862 -0.1561  0.1259 -0.6324
   24MOL0     C 3214  11.360   1.523  10.928  0.1551  0.3043 -0.8262
   24MOL0     C 3215  11.498   1.512  10.986 -0.0487 -0.4710  0.6723
   24MOL0     C 3216  11.513   1.375  11.062 -0.4453 -0.6460  0.1809
   24MOL0     C 3217  11.638   1.392  11.140 -0.3092  0.7397 -0.7482
   24MOL0     C 3218  11.677   1.258  11.214 -0.0472 -0.1172 -0.2231
   24MOL0    Cl 3219  11.555   1.202  11.337 -0.2874 -0.2352  0.1157
   24MOL0     C 3220  11.083   1.891  10.453 -0.5616  0.5565  0.4855
   24MOL0     C 3221  11.013   1.897  10.324 -0.7623 -0.0588 -0.5775
   24MOL0     O 3222  10.840   1.981  10.137 -0.0329  0.7412  0.3829
   24MOL0     C 3223  10.834   1.736   9.880 -0.0407  0.1548 -0.4891
   24MOL0     C 3224  10.767   1.698   9.760 -0.5798 -0.4237  0.3457
   24MOL0     N 3225  10.072   1.673   9.664 -0.4598  0.6349 -0.1426
   24MOL0     N 3226  10.003   1.738   9.755  0.1730  0.6481 -0.1565
   24MOL0     C 3227  10.883   1.573  10.476  0.3427  0.1689 -0.2803
   24MOL0     C 3228  10.982   1.487  10.538 -0.4412  0.1891  0.9256
   24MOL0     C 3229  11.120   1.200  10.861  0.2316 -0.7054 -0.2981
   24MOL0     C 3230  11.160   1.240  10.994  0.1345  0.2857 -0.5298
   24MOL0     C 3231  11.227   1.149  11.066  0.5099  0.8659 -0.5662
   24MOL0     C 3232  11.278   1.029  11.013 -0.8684 -0.3578 -0.0508
   24MOL0     O 3233  11.349   0.933  11.077 -0.2450  0.5949 -0.5229
   24MOL0     C 3234  11.349   0.934  11.224  0.5086  0.2430 -0.9985
   24MOL0     C 3235  11.414   0.811  11.273 -0.3070  0.3382  1.3975
   24MOL0     C 3236  11.564   0.796  11.243  0.4441 -0.5026  0.5098
   24MOL0     C 3237  11.595   0.656  11.190 -0.3831 -0.7834  1.1838
   24MOL0     C 3238  11.743   0.632  11.205 -0.2136  0.2362 -0.6869
   24MOL0     C 3239  11.868   0.621  11.235 -0.7691  0.6140 -0.2518
   24MOL0     C 3240  11.253   0.997  10.882  0.2717  0.1696 -0.4835
   24MOL0     C 3241  11.167   1.078  10.801  0.1325  0.2068 -0.4295
   24MOL0     C 3242  11.132   1.028  10.664 -1.1454 -0.0502 -0.7822
   24MOL0     H 3243  10.742   1.261  10.643 -1.2410 -0.0472 -2.2430
   24MOL0     H 3244  10.602   1.413  10.549  0.5334 -2.4581  2.3394
   24MOL0     H 3245  10.787   1.724  10.263 -0.8288  2.8123 -1.7995
   24MOL0     H 3246  10.735   1.804  10.410  1.8661  0.4279 -1.2486
   24MOL0     H 3247  10.502   1.818  10.325  1.6604 -1.9001  1.9424
   24MOL0     H 3248  10.615   1.900  10.217 -1.4063  1.1218  1.7053
   24MOL0     H 3249  10.627   1.693  10.078  0.7664  1.8509 -0.0488
   24MOL0     H 3250  10.504   1.612  10.165 -1.5932 -0.0040 -2.2751
   24MOL0     H 3251  10.456   1.891  10.013 -0.3470  0.0389 -1.3232
   24MOL0     H 3252  10.421   1.730   9.952  2.6938  1.2158 -0.7223
   24MOL0     H 3253  10.302   1.846  10.224  0.3783 -2.0255  0.8220
   24MOL0     H 3254  10.236   1.710  10.148 -0.6126  0.3537  0.7962
   24MOL0     H 3255  10.208   2.002  10.091  1.0873 -1.7264  1.8643
   24MOL0     H 3256  10.191   1.911   9.946 -0.9185  0.0870  0.2008
   24MOL0     H 3257   9.969   1.951  10.040  1.0301 -0.2149 -0.7527
   24MOL0     H 3258  10.016   1.862  10.185  1.9584  1.2803  0.8667
   24MOL0     H 3259   9.974   1.665  10.071 -1.8392 -0.7139 -1.2164
   24MOL0     H 3260   9.876   1.777   9.978 -0.8408 -0.3435 -0.5122
   24MOL0     H 3261  10.191   1.544   9.948  1.3046 -2.3197 -1.8848
   24MOL0     H 3262  10.214   1.442   9.590 -1.2370  0.9298  0.6675
   24MOL0     H 3263  10.301   1.437   9.739  2.6918  2.3194  0.2684
   24MOL0     H 3264  10.344   1.580   9.479  1.2674  0.6662 -0.0976
   24MOL0     H 3265  10.367   1.692   9.606  2.0316  0.6313 -2.2445
   24MOL0     H 3266  10.542   1.531   9.711  1.8796  0.9284 -0.5824
   24MOL0     H 3267  10.505   1.420   9.579 -1.2260 -0.9137  1.0465
   24MOL0     H 3268  10.704   1.564   9.535 -0.5397 -1.1020 -1.0480
   24MOL0     H 3269  10.578   1.618   9.430  2.3523  1.9909 -0.6704
   24MOL0     H 3270  10.600   1.979   9.709  0.8317  1.5261  1.4470
   24MOL0     H 3271  10.829   2.136   9.876 -0.8261  1.9771 -0.7876
   24MOL0     H 3272  10.700   2.119  10.013 -0.5127  1.6171  0.1344
   24MOL0     H 3273  10.658   2.158   9.844 -1.3078 -1.4528 -0.3662
   24MOL0     H 3274  11.209   1.674  10.155 -2.2277 -0.6995 -0.2823
   24MOL0     H 3275  11.305   1.656  10.375  0.9500  0.6501  1.3348
   24MOL0     H 3276  11.245   1.898  10.764  0.4351  0.8282 -1.5616
   24MOL0     H 3277  11.083   1.838  10.703  0.2633  3.6884  4.8129
   24MOL0     H 3278  11.124   1.693  10.881  1.2419  1.9284 -0.3076
   24MOL0     H 3279  11.184   1.600  10.742  1.9933 -0.9973 -0.4529
   24MOL0     H 3280  11.383   1.737  10.929  0.1681  0.3318 -1.0542
   24MOL0     H 3281  11.420   1.655  10.783  0.4563 -1.4788  0.0192
   24MOL0     H 3282  11.336   1.443  10.857  0.2044 -0.2229 -0.2607
   24MOL0     H 3283  11.283   1.510  11.005  0.7272  1.6352  0.0101
   24MOL0     H 3284  11.578   1.521  10.912 -2.5090  2.5762 -1.8405
   24MOL0     H 3285  11.519   1.588  11.062  3.1267  0.0907 -0.6058
   24MOL0     H 3286  11.521   1.292  10.991 -0.5198  1.8492 -2.9746
   24MOL0     H 3287  11.418   1.362  11.114 -0.9241  2.0934  0.1410
   24MOL0     H 3288  11.624   1.466  11.219 -3.9785 -1.5424  1.0337
   24MOL0     H 3289  11.716   1.420  11.070 -0.0872  0.7165 -0.5116
   24MOL0     H 3290  11.771   1.277  11.268 -1.4620  2.4090  1.5750
   24MOL0     H 3291  11.695   1.177  11.143 -1.7901 -2.0752  1.4497
   24MOL0     H 3292  11.047   1.950  10.537  0.6615 -0.4543  1.7559
   24MOL0     H 3293  10.931   1.965  10.341  1.2292  1.7219  3.3009
   24MOL0     H 3294  10.906   1.661   9.911  1.1812  0.8195 -1.6353
   24MOL0     H 3295  10.792   1.599   9.721 -0.1468  0.3997 -1.6166
   24MOL0     H 3296  10.920   1.668  10.439 -2.0807  0.3617 -2.4863
   24MOL0     H 3297  11.088   1.503  10.553 -0.7404  2.4161  0.9651
   24MOL0     H 3298  11.128   1.331  11.045 -1.7506 -1.1235  0.9464
   24MOL0     H 3299  11.240   1.161  11.173  2.2586 -0.6708 -0.5486
   24MOL0     H 3300  11.406   1.021  11.257 -0.3434  0.3551  0.1960
   24MOL0     H 3301  11.249   0.950  11.265  1.7604 -0.0025  2.4194
   24MOL0     H 3302  11.360   0.728  11.225  2.4133 -0.3100 -0.7797
   24MOL0     H 3303  11.399   0.782  11.377  0.3892 -1.9443  0.9275
   24MOL0     H 3304  11.594   0.879  11.178 -1.3667 -0.2185 -0.0189
   24MOL0     H 3305  11.625   0.814  11.332 -0.1204 -0.3546  0.8702
   24MOL0     H 3306  11.558   0.644  11.088  1.8118  2.6655 -0.1830
   24MOL0     H 3307  11.539   0.585  11.252 -0.6947 -0.4654  1.2663
   24MOL0     H 3308  11.969   0.601  11.263 -1.0609  1.4467  1.5127
   24MOL0     H 3309  11.299   0.910  10.837  0.2908  1.1247 -2.4152
   24MOL0     H 3310  11.174   0.927  10.660  1.2733  0.7616  1.5197
   24MOL0     H 3311  11.023   1.027  10.648 -1.0094  2.1188 -2.2456
   24MOL0     H 3312  11.173   1.091  10.585 -3.4497  1.3690 -0.9581
   25MOL0     O 3313   0.816   8.770   4.336  0.5060 -0.3226  0.1422
   25MOL0     C 3314   0.850   8.890   4.318 -0.0347  0.4684  0.1483
   25MOL0     O 3315   0.767   8.993   4.305  0.5680 -0.2737 -0.8202
   25MOL0     C 3316   0.630   8.966   4.287  0.4288  0.3817  0.1988
   25MOL0     C 3317   0.574   8.911   4.165 -0.2743  0.0616 -0.3775
   25MOL0     C 3318   0.453   8.836   4.165  0.2360 -0.5464 -0.0735
   25MOL0     C 3319   0.377   8.838   4.281  0.4998 -0.3351  0.3225
   25MOL0     O 3320   0.267   8.758   4.289 -0.1868  0.0853  1.0840
   25MOL0     C 3321   0.216   8.686   4.167  0.5503  0.7642  0.1135
   25MOL0     C 3322   0.163   8.789   4.057 -1.1809 -0.1009 -0.5118
   25MOL0     C 3323   0.056   8.747   3.955  0.5322  0.2865  0.6120
   25MOL0     C 3324   0.013   8.864   3.866 -0.1341  0.4163  0.8026
   25MOL0     C 3325  -0.043   8.802   3.729  0.4674 -0.1927 -0.2316
   25MOL0     C 3326  -0.075   8.916   3.639  0.0995  0.1875  0.1632
   25MOL0     C 3327  -0.119   8.860   3.503  0.2673  0.0063  0.3797
   25MOL0     C 3328  -0.170   8.974   3.412 -0.4508  0.1111  0.1884
   25MOL0     N 3329  -0.190   8.925   3.272  0.2452 -0.3809 -0.7927
   25MOL0     C 3330  -0.307   8.865   3.235 -0.0800  0.1458  0.5475
   25MOL0     C 3331  -0.323   8.885   3.105  0.6793  0.3957 -0.0674
   25MOL0     C 3332  -0.444   8.860   3.028 -0.7887 -1.1148  1.1754
   25MOL0     C 3333  -0.464   8.712   2.987  0.2840  0.0696 -0.3781
   25MOL0     C 3334  -0.350   8.658   2.902  0.0132  0.8121  0.3028
   25MOL0     C 3335  -0.354   8.513   2.893 -0.0119  0.4268  0.3970
   25MOL0     O 3336  -0.271   8.455   2.987  0.6177 -0.4607 -0.3698
   25MOL0     C 3337  -0.269   8.314   2.991 -0.6314  0.0938 -0.6903
   25MOL0     C 3338  -0.182   8.257   3.074  0.2533  0.2114 -1.1375
   25MOL0     C 3339  -0.164   8.118   3.076  0.8623  0.6928 -0.5559
   25MOL0     C 3340  -0.044   8.057   3.154 -1.0678  0.0119 -0.4619
   25MOL0     C 3341  -0.244   8.028   3.004  0.2837 -0.1133  0.8316
   25MOL0     C 3342  -0.241   7.880   3.014  0.3697 -0.2832 -0.9861
   25MOL0     O 3343  -0.119   7.823   3.033 -0.9724  0.3907 -0.2746
   25MOL0     C 3344  -0.083   7.689   3.031 -0.0960  0.1010  0.6439
   25MOL0     C 3345   0.038   7.642   3.090  0.9278 -0.2564  0.4294
   25MOL0     C 3346   0.062   7.510   3.096  0.9660 -0.7202 -0.1444
   25MOL0     C 3347  -0.023   7.412   3.042  0.1172 -0.9878 -0.0743
   25MOL0     O 3348  -0.012   7.278   3.056  0.5016  0.8222 -0.3980
   25MOL0     C 3349   0.088   7.223   3.143  0.0866 -0.3322  0.0024
   25MOL0     C 3350   0.058   7.244   3.289 -0.2969  0.5397  0.1026
   25MOL0     C 3351  -0.074   7.176   3.336 -0.4143 -0.1306  0.5523
   25MOL0     C 3352  -0.078   7.184   3.494  0.6613 -0.3430  0.3123
   25MOL0     C 3353  -0.218   7.140   3.561 -0.3409 -0.7386 -0.2594
   25MOL0     C 3354  -0.240   6.989   3.553 -0.7182  0.2393  0.2171
   25MOL0     C 3355  -0.244   6.912   3.697 -0.1885  0.1432  0.4427
   25MOL0     C 3356  -0.334   6.974   3.795  0.4013  0.3592  0.3407
   25MOL0    Cl 3357  -0.491   6.939   3.732  0.1044  0.1420  0.5795
   25MOL0     C 3358  -0.141   7.451   2.987 -0.1827 -0.2252 -0.7199
   25MOL0     C 3359  -0.176   7.586   2.979  0.3758 -0.2591 -0.0249
   25MOL0     O 3360  -0.352   7.825   3.012  0.1610  0.2306  0.1106
   25MOL0     C 3361  -0.336   8.086   2.915  0.3568 -0.3526  0.4185
   25MOL0     C 3362  -0.346   8.225   2.908 -0.5758  0.8463  0.4706
   25MOL0     N 3363  -0.207   8.947   3.059 -0.6996  0.8611 -0.1866
   25MOL0     N 3364  -0.124   8.971   3.156  0.3943  0.5058 -0.6085
   25MOL0     C 3365   0.407   8.902   4.395 -0.7439 -0.2997  0.0706
   25MOL0     C 3366   0.545   8.955   4.402  0.1606  0.5813  0.3450
   25MOL0     C 3367   0.994   8.922   4.323  0.5384 -0.0952 -0.7979
   25MOL0     C 3368   1.025   9.057   4.321 -0.1617 -1.2211  0.5510
   25MOL0     C 3369   1.152   9.111   4.344 -0.5152 -0.2519 -0.0408
   25MOL0     C 3370   1.258   9.011   4.362  0.5000 -0.2642  0.0981
   25MOL0     O 3371   1.377   9.067   4.400  0.0911  0.3373 -0.6527
   25MOL0     C 3372   1.497   8.987   4.418  0.3093 -0.6027  0.1340
   25MOL0     C 3373   1.615   9.064   4.474  0.5089  0.8060 -0.3517
   25MOL0     C 3374   1.669   9.169   4.381 -0.5490  0.2491 -0.6371
   25MOL0     C 3375   1.790   9.252   4.451 -0.6433  0.2474  0.6996
   25MOL0     C 3376   1.807   9.376   4.374 -0.9843 -0.1939 -1.0319
   25MOL0     C 3377   1.810   9.482   4.323  1.0436 -0.2367 -0.2901
   25MOL0     C 3378   1.234   8.877   4.346  0.4345 -0.3705 -0.6753
   25MOL0     C 3379   1.102   8.832   4.332  0.0620 -0.6241  1.2272
   25MOL0     C 3380   1.081   8.681   4.347  0.0562 -0.2897  0.7218
   25MOL0     H 3381   0.638   8.927   4.079  1.9159 -0.2322  1.1180
   25MOL0     H 3382   0.417   8.798   4.070 -1.8379  1.6844 -0.2695
   25MOL0     H 3383   0.130   8.625   4.196  2.1989 -0.4808  2.7738
   25MOL0     H 3384   0.292   8.615   4.135  0.2812  1.0798 -1.2849
   25MOL0     H 3385   0.133   8.886   4.098 -1.0594  0.6868 -2.2082
   25MOL0     H 3386   0.242   8.806   3.984 -0.8730 -1.5517 -0.5566
   25MOL0     H 3387   0.093   8.666   3.891 -0.4176  1.1910 -1.1345
   25MOL0     H 3388  -0.033   8.698   3.997  0.7038 -0.6812 -0.1150
   25MOL0     H 3389  -0.072   8.916   3.911 -2.6121 -1.4501 -1.3983
   25MOL0     H 3390   0.097   8.927   3.837  1.8216 -2.7118 -0.8142
   25MOL0     H 3391  -0.129   8.736   3.744  0.1369  0.5137  1.2217
   25MOL0     H 3392   0.038   8.754   3.674 -2.0286 -2.8075 -1.8672
   25MOL0     H 3393  -0.160   8.964   3.687 -1.3467 -3.5439  1.7552
   25MOL0     H 3394   0.004   8.992   3.637 -1.6767  2.2394  2.1999
   25MOL0     H 3395  -0.209   8.798   3.515  1.4722 -2.4273 -2.0163
   25MOL0     H 3396  -0.037   8.808   3.454 -0.7093 -0.8986 -0.3309
   25MOL0     H 3397  -0.258   9.026   3.453 -0.0793  0.8776  0.0309
   25MOL0     H 3398  -0.086   9.044   3.404 -0.2551  0.0219  1.3208
   25MOL0     H 3399  -0.380   8.829   3.306  0.0746  1.6974  1.5333
   25MOL0     H 3400  -0.455   8.933   2.947 -2.2173 -0.0820  2.2474
   25MOL0     H 3401  -0.518   8.892   3.102  1.4645  1.4018  2.5123
   25MOL0     H 3402  -0.466   8.651   3.078  0.4552  2.9395  1.6849
   25MOL0     H 3403  -0.564   8.707   2.944  0.4734  1.9474 -1.1044
   25MOL0     H 3404  -0.363   8.704   2.804  3.4347  1.0807 -0.1374
   25MOL0     H 3405  -0.251   8.683   2.942  0.2260 -1.5708  1.4879
   25MOL0     H 3406  -0.452   8.464   2.890  1.6427 -3.1859 -0.2195
   25MOL0     H 3407  -0.314   8.486   2.795 -0.3885  2.1796 -0.2803
   25MOL0     H 3408  -0.119   8.323   3.133 -0.3866 -0.1894  0.0200
   25MOL0     H 3409   0.008   8.138   3.206  2.9717 -0.9150 -2.6197
   25MOL0     H 3410   0.035   8.010   3.094 -1.8469 -3.2495  0.8402
   25MOL0     H 3411  -0.082   7.980   3.223  0.8279  1.0457  1.9036
   25MOL0     H 3412   0.108   7.712   3.134 -0.2577 -0.1833  2.2932
   25MOL0     H 3413   0.157   7.483   3.140  1.1980 -1.4831 -1.0813
   25MOL0     H 3414   0.094   7.116   3.123  3.1141  0.4662 -4.6797
   25MOL0     H 3415   0.180   7.275   3.116 -2.8532  3.5528 -3.8771
   25MOL0     H 3416   0.142   7.200   3.343 -0.3443  2.5102  1.9406
   25MOL0     H 3417   0.050   7.347   3.326 -0.0794  1.4296 -2.1837
   25MOL0     H 3418  -0.083   7.074   3.298  0.9578  0.8193 -2.6254
   25MOL0     H 3419  -0.157   7.237   3.299  0.8264  0.0048 -2.2017
   25MOL0     H 3420  -0.062   7.284   3.535 -2.0003 -0.0099  0.7357
   25MOL0     H 3421  -0.000   7.125   3.543  0.5262 -0.1611  0.7528
   25MOL0     H 3422  -0.243   7.180   3.660 -3.0846  2.7251 -2.1363
   25MOL0     H 3423  -0.291   7.179   3.490  0.6598  0.4514 -0.6632
   25MOL0     H 3424  -0.178   6.937   3.479 -2.0343 -2.0736  0.6193
   25MOL0     H 3425  -0.340   6.974   3.510 -0.0164 -0.2329 -1.3308
   25MOL0     H 3426  -0.141   6.908   3.735  0.5384  2.4366 -1.0386
   25MOL0     H 3427  -0.278   6.809   3.681 -1.2396  0.3206  1.4967
   25MOL0     H 3428  -0.319   7.081   3.807  0.0958  0.2861  1.5085
   25MOL0     H 3429  -0.317   6.928   3.893 -0.8600  0.7966  0.7797
   25MOL0     H 3430  -0.194   7.364   2.949  1.6239 -1.7975  0.1388
   25MOL0     H 3431  -0.272   7.606   2.933 -1.1571 -1.2592  2.5587
   25MOL0     H 3432  -0.417   8.030   2.870  1.4188 -3.5817  2.1863
   25MOL0     H 3433  -0.426   8.263   2.845 -0.1805 -0.1698 -0.6980
   25MOL0     H 3434   0.347   8.899   4.485  0.4211  0.3417  0.9008
   25MOL0     H 3435   0.576   9.000   4.495 -0.6851 -1.7205  1.8212
   25MOL0     H 3436   0.957   9.140   4.306  1.7971  0.6028  1.2349
   25MOL0     H 3437   1.165   9.218   4.359 -0.9406 -0.4423  1.8839
   25MOL0     H 3438   1.480   8.903   4.486  1.1947 -1.6421 -0.8960
   25MOL0     H 3439   1.527   8.939   4.325  0.6028 -0.9621  0.4092
   25MOL0     H 3440   1.695   8.994   4.502  0.4659  1.3485  1.2410
   25MOL0     H 3441   1.577   9.104   4.569  0.0204  0.2759 -0.3140
   25MOL0     H 3442   1.705   9.120   4.290 -1.9675 -2.1653  0.0008
   25MOL0     H 3443   1.587   9.238   4.359 -2.0702 -0.7908  1.4824
   25MOL0     H 3444   1.874   9.182   4.447 -0.5720  0.2908  1.3292
   25MOL0     H 3445   1.757   9.274   4.553 -1.8000 -0.4972  0.4985
   25MOL0     H 3446   1.833   9.567   4.262 -1.2584 -0.6339 -1.8293
   25MOL0     H 3447   1.314   8.805   4.359  2.4439  1.4528 -2.1588
   25MOL0     H 3448   1.009   8.665   4.427  0.6156 -2.7385  0.8294
   25MOL0     H 3449   1.057   8.634   4.251  0.8157  0.4043  0.1823
   25MOL0     H 3450   1.172   8.634   4.386  0.9503 -0.9093 -1.8862
   26MOL0     O 3451   7.107   6.741   1.802 -0.2670  0.7615  0.0799
   26MOL0     C 3452   7.049   6.684   1.894  0.3966 -1.0494  0.5975
   26MOL0     O 3453   7.097   6.595   1.984 -0.0369 -0.1957 -0.7391
   26MOL0     C 3454   7.192   6.499   1.963  0.2699  0.8669 -0.4410
   26MOL0     C 3455   7.238   6.424   2.068  0.9259 -0.1668 -0.2558
   26MOL0     C 3456   7.321   6.313   2.040 -0.3712  0.0893  1.3450
   26MOL0     C 3457   7.358   6.271   1.909  0.4439 -0.6809 -0.7533
   26MOL0     O 3458   7.426   6.159   1.868 -0.2544  0.6144 -0.0142
   26MOL0     C 3459   7.494   6.081   1.964  0.3732  0.8692  0.5452
   26MOL0     C 3460   7.583   5.959   1.900 -0.1029 -0.4774  0.5371
   26MOL0     C 3461   7.655   6.010   1.770 -0.3476  1.8853  0.6958
   26MOL0     C 3462   7.765   5.915   1.720  1.0734  0.9160  0.5105
   26MOL0     C 3463   7.859   5.956   1.611 -0.3497  0.6261 -0.9207
   26MOL0     C 3464   7.825   6.094   1.549 -0.4326  0.1010 -0.5675
   26MOL0     C 3465   7.894   6.125   1.413  0.5560  0.2478 -0.1608
   26MOL0     C 3466   8.041   6.132   1.417 -0.4836  0.4804 -0.6742
   26MOL0     N 3467   8.102   6.236   1.330 -1.0515  0.3531 -0.0682
   26MOL0     C 3468   8.145   6.362   1.374  1.0917  1.0032 -0.2352
   26MOL0     C 3469   8.179   6.429   1.261 -0.6234 -0.8964 -0.9968
   26MOL0     C 3470   8.207   6.575   1.263  0.2672 -0.4805  0.0021
   26MOL0     C 3471   8.343   6.618   1.200 -0.0549  0.8251  0.3761
   26MOL0     C 3472   8.381   6.757   1.235 -0.3585  0.5077  0.2754
   26MOL0     C 3473   8.451   6.762   1.372 -0.5153  0.1184  0.4634
   26MOL0     O 3474   8.578   6.673   1.369  0.5676 -1.1417 -0.1532
   26MOL0     C 3475   8.608   6.642   1.498 -0.2505  0.7298  0.1892
   26MOL0     C 3476   8.537   6.537   1.555 -0.0501  0.0078 -0.0637
   26MOL0     C 3477   8.579   6.492   1.682  0.6549 -0.2348 -0.8945
   26MOL0     C 3478   8.506   6.370   1.745 -0.0924  0.4899  0.4246
   26MOL0     C 3479   8.684   6.556   1.749  0.1255  0.1599  1.3564
   26MOL0     C 3480   8.747   6.509   1.872 -0.2245 -0.2668 -0.2716
   26MOL0     O 3481   8.779   6.607   1.962 -0.6298 -0.6901  1.1635
   26MOL0     C 3482   8.889   6.581   2.039  0.5239 -0.1549  0.8282
   26MOL0     C 3483   9.002   6.521   1.985 -0.0208 -0.5194 -0.6709
   26MOL0     C 3484   9.108   6.475   2.068 -0.6547 -0.2522  0.4714
   26MOL0     C 3485   9.101   6.492   2.210  0.1288 -0.0648 -0.0760
   26MOL0     O 3486   9.202   6.458   2.293  0.8583 -0.1116 -0.7403
   26MOL0     C 3487   9.279   6.342   2.262  0.0189  0.6236  0.0361
   26MOL0     C 3488   9.372   6.292   2.375  0.1937  0.3492 -0.6651
   26MOL0     C 3489   9.480   6.389   2.417  0.0243 -0.1427 -0.1184
   26MOL0     C 3490   9.520   6.356   2.566  0.1339 -0.2876 -0.0416
   26MOL0     C 3491   9.626   6.457   2.626 -0.8497 -0.0448 -1.1333
   26MOL0     C 3492   9.766   6.458   2.569  0.0875 -0.7991 -0.1729
   26MOL0     C 3493   9.853   6.334   2.575 -0.1635 -0.4585  0.7616
   26MOL0     C 3494  10.001   6.360   2.615  0.1216 -0.5259 -0.7483
   26MOL0    Cl 3495  10.081   6.448   2.476 -0.2283  0.5378 -1.0912
   26MOL0     C 3496   8.993   6.552   2.259  0.6745 -0.5148 -0.3050
   26MOL0     C 3497   8.889   6.605   2.175  1.2074  0.1144 -0.0602
   26MOL0     O 3498   8.749   6.392   1.896  0.0997 -0.6906  0.1440
   26MOL0     C 3499   8.750   6.663   1.684  0.4056 -0.3105 -0.0990
   26MOL0     C 3500   8.700   6.721   1.566 -0.5441 -0.3703 -0.9796
   26MOL0     N 3501   8.179   6.338   1.158 -0.4514  1.4821 -0.1858
   26MOL0     N 3502   8.133   6.226   1.194  0.3493 -0.0970  0.0986
   26MOL0     C 3503   7.302   6.338   1.803  0.4342 -0.4416  0.1074
   26MOL0     C 3504   7.240   6.462   1.833 -0.1625 -0.7824 -0.1834
   26MOL0     C 3505   6.904   6.735   1.927 -0.1438  0.0325  0.2042
   26MOL0     C 3506   6.830   6.658   2.021 -0.8678  0.4891  0.3036
   26MOL0     C 3507   6.703   6.699   2.063 -0.2783  0.8263  0.2176
   26MOL0     C 3508   6.637   6.813   2.019  0.4730  0.6422  1.2526
   26MOL0     O 3509   6.512   6.838   2.065 -0.2404  0.0014 -0.1174
   26MOL0     C 3510   6.468   6.971   2.060  0.3358 -1.0027 -0.3243
   26MOL0     C 3511   6.355   6.969   2.163  0.0984  0.1792  0.6761
   26MOL0     C 3512   6.398   6.944   2.309 -1.3169 -0.4018 -0.4870
   26MOL0     C 3513   6.314   7.006   2.426 -0.8186 -0.4873  0.3307
   26MOL0     C 3514   6.308   7.153   2.432  0.1611  0.4766  0.2434
   26MOL0     C 3515   6.326   7.265   2.465  0.3576 -0.8330 -0.8093
   26MOL0     C 3516   6.717   6.897   1.931 -0.1925  0.0851  0.2410
   26MOL0     C 3517   6.837   6.851   1.883  0.8271  0.0443  0.2388
   26MOL0     C 3518   6.896   6.938   1.762 -0.3176 -0.0596 -1.2092
   26MOL0     H 3519   7.190   6.436   2.165  0.2893  1.7571 -0.7632
   26MOL0     H 3520   7.362   6.251   2.119  0.0556  0.6299  1.5554
   26MOL0     H 3521   7.444   6.036   2.050 -0.7360  1.3571  0.1736
   26MOL0     H 3522   7.558   6.153   2.016 -1.7172  1.4457  2.4631
   26MOL0     H 3523   7.656   5.927   1.976  2.2569  0.0562 -1.3620
   26MOL0     H 3524   7.524   5.870   1.877 -1.0187 -0.5600  2.9469
   26MOL0     H 3525   7.580   6.008   1.691  2.3083  1.2669 -1.9686
   26MOL0     H 3526   7.711   6.100   1.795  0.8155  1.1474  0.8024
   26MOL0     H 3527   7.824   5.885   1.807 -0.0658  1.3986  1.4667
   26MOL0     H 3528   7.718   5.822   1.684  1.2705  1.3429 -0.9202
   26MOL0     H 3529   7.843   5.880   1.534 -0.7320 -2.1574  1.7132
   26MOL0     H 3530   7.964   5.937   1.633  0.1188 -0.1208 -3.5048
   26MOL0     H 3531   7.717   6.086   1.534 -0.6663  0.0849  0.9718
   26MOL0     H 3532   7.842   6.170   1.625 -3.4972  1.2216 -0.8814
   26MOL0     H 3533   7.851   6.218   1.377  0.1354 -0.5203 -1.7438
   26MOL0     H 3534   7.871   6.048   1.339 -0.5136  0.9029 -0.5302
   26MOL0     H 3535   8.070   6.164   1.517 -0.2472 -1.2342 -0.1559
   26MOL0     H 3536   8.079   6.031   1.397 -2.3044  0.1981 -3.2343
   26MOL0     H 3537   8.155   6.398   1.476  1.9126 -1.1177  0.4876
   26MOL0     H 3538   8.199   6.609   1.367 -1.1299  1.3961 -0.6549
   26MOL0     H 3539   8.123   6.615   1.206  0.5085 -0.3878 -0.2921
   26MOL0     H 3540   8.423   6.548   1.226 -0.0966  1.2216  1.6395
   26MOL0     H 3541   8.328   6.616   1.091 -3.1889  0.2496  0.7374
   26MOL0     H 3542   8.456   6.803   1.170  1.6934 -2.1759  0.5615
   26MOL0     H 3543   8.293   6.822   1.233 -1.4991 -0.9744  0.1231
   26MOL0     H 3544   8.485   6.865   1.388 -2.7090  1.1857 -1.1489
   26MOL0     H 3545   8.384   6.735   1.453 -0.5029  1.9170  1.1205
   26MOL0     H 3546   8.474   6.480   1.486  2.0905 -0.1256 -2.0475
   26MOL0     H 3547   8.493   6.400   1.850  0.2546  3.4466 -0.3034
   26MOL0     H 3548   8.569   6.281   1.733  1.8997  1.8533  0.3121
   26MOL0     H 3549   8.415   6.355   1.687  1.1122  0.3933 -1.5048
   26MOL0     H 3550   9.009   6.499   1.879  1.3105 -1.9004 -0.3315
   26MOL0     H 3551   9.195   6.436   2.015 -1.1069  2.6318 -2.7217
   26MOL0     H 3552   9.205   6.265   2.241 -0.9566  1.6437 -0.3219
   26MOL0     H 3553   9.333   6.365   2.169  2.7232 -2.9810  0.4750
   26MOL0     H 3554   9.307   6.269   2.460  0.3174  0.0394 -0.6528
   26MOL0     H 3555   9.417   6.199   2.342  1.0327 -0.0686  1.4951
   26MOL0     H 3556   9.465   6.497   2.413  2.3669  0.2976  1.2497
   26MOL0     H 3557   9.564   6.377   2.348 -0.2041 -0.3085 -0.3677
   26MOL0     H 3558   9.564   6.257   2.576  0.7295 -0.2132 -1.5621
   26MOL0     H 3559   9.432   6.365   2.629 -0.4431 -2.1755 -0.5126
   26MOL0     H 3560   9.588   6.560   2.627  2.4485  1.3318  1.5542
   26MOL0     H 3561   9.628   6.428   2.731 -1.2095  0.6488 -0.9273
   26MOL0     H 3562   9.822   6.536   2.621 -0.3884 -1.5551  1.5380
   26MOL0     H 3563   9.773   6.501   2.469 -1.2889  0.1238  0.0947
   26MOL0     H 3564   9.844   6.284   2.478  0.1829  0.2519  0.3530
   26MOL0     H 3565   9.800   6.272   2.648 -3.1074 -0.5745 -1.3202
   26MOL0     H 3566  10.053   6.265   2.627  0.0903 -0.3747  0.7603
   26MOL0     H 3567  10.009   6.417   2.708 -0.8605 -0.5232 -0.6539
   26MOL0     H 3568   8.991   6.575   2.365  1.2577 -0.6067 -0.2699
   26MOL0     H 3569   8.803   6.651   2.222  0.5944 -0.2128 -0.8307
   26MOL0     H 3570   8.836   6.700   1.739  0.4670 -3.2507  2.0310
   26MOL0     H 3571   8.738   6.807   1.511  0.3717 -0.1859 -0.0992
   26MOL0     H 3572   7.315   6.327   1.696 -1.6392  0.9228 -0.3416
   26MOL0     H 3573   7.213   6.521   1.746  1.9446  0.5192 -0.0069
   26MOL0     H 3574   6.861   6.559   2.053  1.2343  1.1550  0.4594
   26MOL0     H 3575   6.656   6.634   2.136 -1.0280 -0.5320 -1.3937
   26MOL0     H 3576   6.541   7.038   2.106  0.4954 -0.2936 -1.5773
   26MOL0     H 3577   6.437   7.002   1.960 -2.8414  2.2032  1.4293
   26MOL0     H 3578   6.290   6.887   2.130 -2.2045  3.2186 -3.2467
   26MOL0     H 3579   6.287   7.054   2.155  1.2267  0.9580 -1.4486
   26MOL0     H 3580   6.409   6.837   2.326  3.3342  0.1146  1.2692
   26MOL0     H 3581   6.500   6.981   2.318 -1.5947 -0.0801  2.1437
   26MOL0     H 3582   6.354   6.975   2.524  0.1560  1.5109  0.6133
   26MOL0     H 3583   6.217   6.957   2.435  0.7069 -3.7519  0.5637
   26MOL0     H 3584   6.336   7.370   2.486 -0.8081 -0.5580 -1.5413
   26MOL0     H 3585   6.678   6.994   1.903 -0.4277  1.0957  3.5462
   26MOL0     H 3586   6.869   6.901   1.663 -0.5725  2.6974 -2.2736
   26MOL0     H 3587   6.848   7.037   1.759 -2.4540 -0.9832  0.1402
   26MOL0     H 3588   7.005   6.950   1.766 -0.1269 -1.1770 -2.5890
   27MOL0     O 3589   7.086   4.155   9.950  0.1937 -0.2383 -1.2199
   27MOL0     C 3590   6.970   4.178   9.914  0.1361  0.0011 -0.1163
   27MOL0     O 3591   6.930   4.211   9.791  0.1533  0.0847 -0.1651
   27MOL0     C 3592   7.007   4.231   9.681 -0.3509  0.9048 -0.6600
   27MOL0     C 3593   6.951   4.182   9.557  0.3174 -0.4499 -0.1949
   27MOL0     C 3594   7.004   4.205   9.427  0.6290  0.5206  0.5926
   27MOL0     C 3595   7.135   4.253   9.422  0.0128 -0.1358 -0.3253
   27MOL0     O 3596   7.206   4.279   9.306  0.1536 -0.2253 -0.1857
   27MOL0     C 3597   7.139   4.312   9.189  0.1809 -0.7680  0.5734
   27MOL0     C 3598   7.231   4.382   9.078 -0.3941  0.0824 -0.0319
   27MOL0     C 3599   7.305   4.505   9.142  0.1099 -0.5818  0.1721
   27MOL0     C 3600   7.208   4.626   9.173  1.7125  0.6528 -0.1741
   27MOL0     C 3601   7.141   4.688   9.043 -0.3659 -0.0068 -0.1942
   27MOL0     C 3602   6.991   4.679   9.055  0.0264 -0.5209  0.0992
   27MOL0     C 3603   6.922   4.734   8.930  0.3815  0.4661  0.0652
   27MOL0     C 3604   6.777   4.683   8.899 -0.1570 -0.2474  0.3522
   27MOL0     N 3605   6.776   4.535   8.916 -0.2059 -0.5004  0.1320
   27MOL0     C 3606   6.716   4.466   9.027  0.1979 -0.2532  0.5861
   27MOL0     C 3607   6.749   4.332   9.015 -0.3954 -0.2211 -0.9853
   27MOL0     C 3608   6.737   4.222   9.109 -0.1260 -0.1273  0.6844
   27MOL0     C 3609   6.632   4.231   9.219 -0.7185  0.2016 -0.4236
   27MOL0     C 3610   6.655   4.318   9.345 -0.5801 -1.2105  0.9666
   27MOL0     C 3611   6.603   4.264   9.478  0.1813 -0.3207  0.3331
   27MOL0     O 3612   6.458   4.273   9.482 -0.1561 -0.4082 -0.2282
   27MOL0     C 3613   6.395   4.244   9.601 -0.3628 -0.0131  0.5235
   27MOL0     C 3614   6.266   4.203   9.596  0.2043  0.1899 -0.2155
   27MOL0     C 3615   6.197   4.172   9.711  0.3632  0.5282  0.2563
   27MOL0     C 3616   6.052   4.132   9.697 -0.6222  1.1597  0.1533
   27MOL0     C 3617   6.260   4.190   9.837 -0.4896 -0.0593 -0.3784
   27MOL0     C 3618   6.198   4.157   9.963  0.0996  0.3345  0.4488
   27MOL0     O 3619   6.262   4.201  10.073  0.3456 -0.5950  0.4862
   27MOL0     C 3620   6.242   4.155  10.200 -0.3362  0.0185  0.1113
   27MOL0     C 3621   6.235   4.256  10.301 -0.1583 -0.4865  0.3302
   27MOL0     C 3622   6.208   4.217  10.432  0.3751 -0.3395 -0.3133
   27MOL0     C 3623   6.185   4.089  10.468 -0.5455  0.3507 -0.2053
   27MOL0     O 3624   6.160   4.062  10.605  1.2455 -0.1328 -0.5801
   27MOL0     C 3625   6.207   3.936  10.657  0.0286 -0.4770 -0.9561
   27MOL0     C 3626   6.235   3.953  10.805  0.7088  0.1982  0.1407
   27MOL0     C 3627   6.321   4.074  10.831  0.3834 -0.4066  0.0612
   27MOL0     C 3628   6.369   4.092  10.974 -0.5926  0.1719 -0.3066
   27MOL0     C 3629   6.505   4.162  10.979 -0.8811 -0.5031  0.7273
   27MOL0     C 3630   6.538   4.190  11.129 -0.2742 -0.2669  0.4744
   27MOL0     C 3631   6.691   4.211  11.149 -0.1021 -0.3467 -0.7091
   27MOL0     C 3632   6.716   4.249  11.297 -0.7069  0.2546  0.6863
   27MOL0    Cl 3633   6.881   4.187  11.353 -0.0756  0.0820  0.4294
   27MOL0     C 3634   6.193   3.995  10.369  0.0819 -0.3050 -0.3049
   27MOL0     C 3635   6.224   4.028  10.233  0.7691  0.4840  0.3254
   27MOL0     O 3636   6.101   4.080   9.960  0.3443 -0.2277  0.2814
   27MOL0     C 3637   6.396   4.236   9.842 -1.4663 -0.2447  0.5693
   27MOL0     C 3638   6.459   4.264   9.728 -0.3376 -0.7334 -0.3808
   27MOL0     N 3639   6.831   4.322   8.901  0.0287  0.2657 -0.8740
   27MOL0     N 3640   6.828   4.435   8.838 -0.3803 -0.1669 -0.2863
   27MOL0     C 3641   7.190   4.301   9.543 -1.0835  0.1375 -0.4598
   27MOL0     C 3642   7.125   4.294   9.670 -0.1391  0.3648 -0.9587
   27MOL0     C 3643   6.875   4.136  10.011  0.1599 -0.5405  0.2012
   27MOL0     C 3644   6.881   4.010  10.062 -0.3351  0.0878  0.4482
   27MOL0     C 3645   6.785   3.956  10.151 -0.3869  0.3834 -0.4076
   27MOL0     C 3646   6.685   4.033  10.196 -0.3106  0.5761 -0.0240
   27MOL0     O 3647   6.596   3.986  10.299 -0.3567  0.1048 -0.6810
   27MOL0     C 3648   6.572   4.086  10.402 -1.0603 -0.0124 -0.1274
   27MOL0     C 3649   6.698   4.127  10.487 -0.2376  0.3360 -0.1361
   27MOL0     C 3650   6.658   4.156  10.633 -0.8426  0.5627  0.4605
   27MOL0     C 3651   6.771   4.211  10.719 -0.5236  0.1123  0.5485
   27MOL0     C 3652   6.873   4.111  10.737  0.4442  0.6210  0.9331
   27MOL0     C 3653   6.959   4.027  10.758 -0.1004 -0.3293  0.6688
   27MOL0     C 3654   6.673   4.171  10.142  0.0865  0.5975 -0.0312
   27MOL0     C 3655   6.775   4.224  10.058  0.6881 -0.4552 -0.2643
   27MOL0     C 3656   6.764   4.362  10.008  0.3675  0.2524  0.1114
   27MOL0     H 3657   6.853   4.137   9.566  1.1005 -1.7692  3.0466
   27MOL0     H 3658   6.948   4.180   9.338  0.3121 -0.0644  0.9469
   27MOL0     H 3659   7.053   4.377   9.211  1.3978  1.5974 -1.2020
   27MOL0     H 3660   7.092   4.226   9.140 -0.4241  2.3119 -5.0926
   27MOL0     H 3661   7.299   4.303   9.045  0.5775 -0.8181  3.6189
   27MOL0     H 3662   7.179   4.422   8.991  0.2759 -0.7459 -0.8219
   27MOL0     H 3663   7.341   4.481   9.242  1.7676 -1.5677 -0.6206
   27MOL0     H 3664   7.394   4.538   9.088 -0.0312  1.0021  0.8468
   27MOL0     H 3665   7.135   4.604   9.251  4.8395 -0.3048  2.7306
   27MOL0     H 3666   7.266   4.700   9.228  4.6116 -1.5767 -0.0060
   27MOL0     H 3667   7.185   4.625   8.965 -0.1215 -2.5450  1.8535
   27MOL0     H 3668   7.179   4.790   9.031  1.8298 -0.9042 -1.5278
   27MOL0     H 3669   6.965   4.573   9.068 -3.5611  0.1643 -0.4282
   27MOL0     H 3670   6.969   4.733   9.148 -0.3499  1.0487 -0.8815
   27MOL0     H 3671   6.976   4.694   8.845  1.4999  2.1579 -0.0611
   27MOL0     H 3672   6.931   4.843   8.937 -0.9541  0.5809  0.4069
   27MOL0     H 3673   6.703   4.726   8.968  1.0560 -0.9117  2.1457
   27MOL0     H 3674   6.750   4.713   8.797 -0.9675  1.0796  0.9149
   27MOL0     H 3675   6.647   4.511   9.097 -0.8989 -0.3080 -0.4189
   27MOL0     H 3676   6.834   4.211   9.157 -0.8610 -0.3219  2.1878
   27MOL0     H 3677   6.717   4.133   9.047  1.5412  0.5194 -0.8731
   27MOL0     H 3678   6.542   4.267   9.168  0.2598 -1.0359 -3.2684
   27MOL0     H 3679   6.624   4.130   9.262 -0.0970  0.5007  0.4234
   27MOL0     H 3680   6.756   4.346   9.376 -0.9999  2.4698 -0.4191
   27MOL0     H 3681   6.610   4.417   9.330 -0.6906 -1.8236 -5.1473
   27MOL0     H 3682   6.636   4.160   9.490  1.6829  0.1621  0.6147
   27MOL0     H 3683   6.646   4.319   9.562  0.5341 -1.0380  0.6341
   27MOL0     H 3684   6.211   4.180   9.505  0.0715 -1.1482  0.1784
   27MOL0     H 3685   6.025   4.162   9.595  2.8363  2.9764 -0.4136
   27MOL0     H 3686   5.986   4.191   9.760 -1.3861  2.1382 -1.5067
   27MOL0     H 3687   6.041   4.024   9.707  2.2959  0.5768 -1.5425
   27MOL0     H 3688   6.252   4.363  10.290 -1.4367 -0.3092 -0.0276
   27MOL0     H 3689   6.198   4.299  10.503 -2.8868 -1.2897  0.4851
   27MOL0     H 3690   6.139   3.851  10.658 -0.3287 -0.2008  0.3110
   27MOL0     H 3691   6.300   3.903  10.610  0.2477 -1.9723  0.4539
   27MOL0     H 3692   6.143   3.960  10.864 -0.0962  1.2062 -1.1522
   27MOL0     H 3693   6.297   3.870  10.839  3.6202  0.5780 -3.5622
   27MOL0     H 3694   6.263   4.166  10.818 -0.4536 -1.0011 -0.5051
   27MOL0     H 3695   6.409   4.081  10.766 -0.3888 -0.2832 -0.9840
   27MOL0     H 3696   6.362   3.996  11.026 -0.4544 -0.3580 -1.2460
   27MOL0     H 3697   6.300   4.156  11.029  0.1955 -0.8436  1.9626
   27MOL0     H 3698   6.586   4.094  10.951  1.2825  2.4635 -0.7780
   27MOL0     H 3699   6.510   4.257  10.927 -0.4567 -1.5169 -1.1631
   27MOL0     H 3700   6.504   4.102  11.185  0.3381 -0.7930  0.0344
   27MOL0     H 3701   6.484   4.277  11.166  2.6693  1.4978  0.9471
   27MOL0     H 3702   6.716   4.295  11.084  3.0977  0.8953  1.8221
   27MOL0     H 3703   6.758   4.128  11.123 -0.6313 -0.9737 -0.0929
   27MOL0     H 3704   6.649   4.186  11.357 -0.7235  0.7814  1.2331
   27MOL0     H 3705   6.719   4.354  11.330 -1.2693 -1.0417  5.6345
   27MOL0     H 3706   6.189   3.890  10.395 -0.2504 -0.3823 -0.6630
   27MOL0     H 3707   6.237   3.952  10.156 -3.4155 -1.2883  1.0716
   27MOL0     H 3708   6.452   4.235   9.935  0.6709  0.0047 -0.6450
   27MOL0     H 3709   6.562   4.293   9.745 -0.3900 -1.9798  2.6168
   27MOL0     H 3710   7.288   4.347   9.537 -1.1165  0.4268  1.0228
   27MOL0     H 3711   7.185   4.329   9.754  0.2005 -1.9673 -0.1676
   27MOL0     H 3712   6.966   3.952  10.025 -0.6407  1.4124 -2.6936
   27MOL0     H 3713   6.799   3.867  10.212 -0.4686 -0.6089 -1.7955
   27MOL0     H 3714   6.516   4.172  10.363 -0.7149  0.3265  0.1099
   27MOL0     H 3715   6.506   4.039  10.475 -2.5161  0.1315 -1.2989
   27MOL0     H 3716   6.744   4.220  10.453  1.3020  0.3095  1.6606
   27MOL0     H 3717   6.767   4.041  10.486  2.8556  2.4870 -4.5555
   27MOL0     H 3718   6.572   4.223  10.636 -0.0009  1.6262  1.8592
   27MOL0     H 3719   6.633   4.060  10.679  0.4110  0.7610  1.6330
   27MOL0     H 3720   6.731   4.242  10.816 -0.0896 -0.9892  1.0854
   27MOL0     H 3721   6.812   4.305  10.681  1.1689 -0.5855  0.5830
   27MOL0     H 3722   7.039   3.958  10.776 -0.4020 -0.4657  1.5200
   27MOL0     H 3723   6.585   4.230  10.163 -1.0787 -1.2719  0.6545
   27MOL0     H 3724   6.724   4.367   9.906  0.4260 -1.5993 -0.0460
   27MOL0     H 3725   6.701   4.420  10.075 -0.5578 -1.1339  0.4772
   27MOL0     H 3726   6.861   4.411  10.025  1.5605 -1.6845 -0.7569
   28MOL0     O 3727   0.054   6.851   3.383 -0.3043  0.4767  0.6406
   28MOL0     C 3728   0.117   6.831   3.275  0.2504  0.5646 -0.7626
   28MOL0     O 3729   0.064   6.842   3.150 -0.6737 -0.4856  0.1543
   28MOL0     C 3730  -0.072   6.870   3.129 -0.3166  0.0842  0.1722
   28MOL0     C 3731  -0.093   6.947   3.008 -0.8557 -0.3299 -0.3705
   28MOL0     C 3732  -0.227   6.988   2.967 -0.6194 -0.3736 -0.5237
   28MOL0     C 3733  -0.337   6.943   3.046 -0.7708 -1.2348 -0.2149
   28MOL0     O 3734  -0.465   6.979   3.020 -0.0962  0.3694 -0.0772
   28MOL0     C 3735  -0.540   6.867   2.972 -0.4818 -0.7806 -0.6520
   28MOL0     C 3736  -0.639   6.936   2.879 -0.3350  0.5914  0.0785
   28MOL0     C 3737  -0.741   6.836   2.823  0.1647  0.0368 -0.3627
   28MOL0     C 3738  -0.856   6.902   2.755  0.3220 -0.6150  0.6110
   28MOL0     C 3739  -0.948   6.803   2.694 -0.0202 -0.7204 -0.1991
   28MOL0     C 3740  -1.059   6.870   2.610  0.5390  0.0683  1.0790
   28MOL0     C 3741  -1.136   6.768   2.527  0.5812 -0.0077  0.4450
   28MOL0     C 3742  -1.255   6.810   2.456  0.4781 -0.0700  0.2431
   28MOL0     N 3743  -1.347   6.863   2.545  0.0560  0.1390 -0.1302
   28MOL0     C 3744  -1.382   7.002   2.562  0.8885  0.5285 -0.4989
   28MOL0     C 3745  -1.501   6.999   2.632 -0.1143 -0.0118  0.4414
   28MOL0     C 3746  -1.586   7.122   2.655  0.3960  0.1688 -0.7030
   28MOL0     C 3747  -1.522   7.216   2.761  0.0563 -0.2917  0.1075
   28MOL0     C 3748  -1.583   7.358   2.765 -0.8480 -0.1828  0.0174
   28MOL0     C 3749  -1.561   7.429   2.642 -0.7451 -0.1704  0.1637
   28MOL0     O 3750  -1.421   7.436   2.608  0.3323 -0.4643  0.3881
   28MOL0     C 3751  -1.371   7.566   2.611  0.1008  0.4579  0.7613
   28MOL0     C 3752  -1.242   7.571   2.647 -0.3417 -0.8426  0.1196
   28MOL0     C 3753  -1.170   7.697   2.669  0.1075  0.5465 -0.1911
   28MOL0     C 3754  -1.040   7.679   2.726 -0.2295  0.4681 -0.3931
   28MOL0     C 3755  -1.231   7.813   2.620 -0.7154 -1.4838  0.2505
   28MOL0     C 3756  -1.156   7.943   2.615 -0.4490  0.1950 -0.6518
   28MOL0     O 3757  -1.215   8.066   2.633 -0.0915 -0.8746  0.5315
   28MOL0     C 3758  -1.145   8.188   2.633  0.3192 -0.8770  0.0972
   28MOL0     C 3759  -1.214   8.298   2.578 -0.0881  1.5951 -0.1567
   28MOL0     C 3760  -1.155   8.428   2.564  0.5116  0.4229 -0.6818
   28MOL0     C 3761  -1.038   8.455   2.630  0.1910  0.2706 -1.0615
   28MOL0     O 3762  -1.001   8.587   2.642 -0.4984 -0.0696  0.1161
   28MOL0     C 3763  -0.871   8.612   2.695 -0.1639 -0.7258  0.5878
   28MOL0     C 3764  -0.829   8.759   2.690  1.1353  0.1287 -0.8660
   28MOL0     C 3765  -0.685   8.800   2.653  0.7313 -0.4693 -0.1483
   28MOL0     C 3766  -0.659   8.936   2.712 -0.3582  0.2130 -0.0847
   28MOL0     C 3767  -0.541   8.997   2.625 -0.2044  0.3243 -0.0398
   28MOL0     C 3768  -0.489   9.126   2.679  0.8821 -0.3326 -0.0010
   28MOL0     C 3769  -0.379   9.168   2.582  0.2494 -0.1301 -0.1016
   28MOL0     C 3770  -0.362   9.320   2.582 -0.4643 -0.1940 -0.8771
   28MOL0    Cl 3771  -0.237   9.374   2.696 -0.0398  0.0502  0.1803
   28MOL0     C 3772  -0.966   8.345   2.688 -0.2850 -1.5540  0.9961
   28MOL0     C 3773  -1.016   8.214   2.689  0.3599 -0.2206 -0.1188
   28MOL0     O 3774  -1.035   7.938   2.582  0.2912 -0.5359  0.7251
   28MOL0     C 3775  -1.369   7.813   2.593  0.8946  0.0104  0.5210
   28MOL0     C 3776  -1.433   7.689   2.581 -0.0040 -0.7399  0.4249
   28MOL0     N 3777  -1.519   6.864   2.674  0.2440 -0.7557  0.7159
   28MOL0     N 3778  -1.427   6.789   2.625  0.4405  0.0174  0.8379
   28MOL0     C 3779  -0.313   6.866   3.160  0.4079 -0.5318 -0.8742
   28MOL0     C 3780  -0.184   6.826   3.204  0.5953 -0.1895 -0.0493
   28MOL0     C 3781   0.268   6.804   3.296  0.4078 -0.1932  0.6779
   28MOL0     C 3782   0.322   6.729   3.186 -0.1904  0.1159  0.4116
   28MOL0     C 3783   0.454   6.677   3.200  0.0579 -0.2023  0.7952
   28MOL0     C 3784   0.528   6.718   3.301 -0.8666  0.7551 -0.9400
   28MOL0     O 3785   0.659   6.664   3.301  0.0239  0.2034 -0.1017
   28MOL0     C 3786   0.744   6.671   3.422 -0.1024  0.2188  0.8045
   28MOL0     C 3787   0.857   6.571   3.423 -0.3266  0.6145  0.1970
   28MOL0     C 3788   0.932   6.579   3.288  0.5803  0.2779  1.5052
   28MOL0     C 3789   0.988   6.722   3.253  0.1398  0.7839 -0.1476
   28MOL0     C 3790   1.073   6.704   3.132 -0.1719 -0.3380 -0.8442
   28MOL0     C 3791   1.168   6.669   3.068  0.2504 -0.2983 -0.2773
   28MOL0     C 3792   0.481   6.812   3.398  0.9030  0.1115  0.7874
   28MOL0     C 3793   0.347   6.854   3.404  0.2502  0.3739 -0.4313
   28MOL0     C 3794   0.292   6.949   3.511 -0.0353  0.1601  0.2070
   28MOL0     H 3795  -0.002   6.992   2.968 -1.7220  2.3132  0.4267
   28MOL0     H 3796  -0.244   7.061   2.889 -0.7634 -1.3673 -1.4495
   28MOL0     H 3797  -0.576   6.812   3.059  0.5818 -0.6935 -0.1423
   28MOL0     H 3798  -0.479   6.792   2.921 -1.3854 -1.1688 -1.2034
   28MOL0     H 3799  -0.687   7.023   2.926 -0.2063 -0.7293  2.8315
   28MOL0     H 3800  -0.576   6.972   2.796  1.1254 -1.7994  0.0671
   28MOL0     H 3801  -0.685   6.772   2.754  1.3598  1.1706 -0.4942
   28MOL0     H 3802  -0.782   6.769   2.899  1.9406 -1.4936 -0.6719
   28MOL0     H 3803  -0.909   6.967   2.825 -2.1506  0.5241 -2.0800
   28MOL0     H 3804  -0.826   6.966   2.671 -1.2810  0.1360  0.5614
   28MOL0     H 3805  -0.985   6.728   2.765  4.5789 -2.7829  0.3578
   28MOL0     H 3806  -0.882   6.754   2.621 -0.1515  1.0283 -1.5509
   28MOL0     H 3807  -1.131   6.919   2.675 -3.0522  1.4578 -3.4415
   28MOL0     H 3808  -1.029   6.956   2.550 -1.3033 -0.7566 -1.1598
   28MOL0     H 3809  -1.156   6.684   2.594  0.5266  0.0484  0.4990
   28MOL0     H 3810  -1.071   6.723   2.451 -0.0225  1.5028 -1.0223
   28MOL0     H 3811  -1.235   6.878   2.372 -3.3199 -0.0074 -0.7874
   28MOL0     H 3812  -1.299   6.720   2.412  1.1235  0.6220 -1.9498
   28MOL0     H 3813  -1.341   7.091   2.516  1.0208 -1.1245 -3.9444
   28MOL0     H 3814  -1.674   7.083   2.707  1.7386 -0.2049  1.3769
   28MOL0     H 3815  -1.624   7.162   2.560 -0.0362 -1.2478 -1.1446
   28MOL0     H 3816  -1.534   7.178   2.863  0.9510 -1.7799 -0.3130
   28MOL0     H 3817  -1.414   7.217   2.746 -0.0974 -0.4071 -1.2015
   28MOL0     H 3818  -1.691   7.360   2.783 -0.8251  1.6938  0.1830
   28MOL0     H 3819  -1.541   7.414   2.850 -0.3926 -0.3414 -0.0990
   28MOL0     H 3820  -1.606   7.386   2.552  0.7976  0.8704 -1.1781
   28MOL0     H 3821  -1.615   7.523   2.656 -0.0628  0.0517  1.3654
   28MOL0     H 3822  -1.205   7.477   2.685 -0.2520 -1.1391 -0.6772
   28MOL0     H 3823  -1.053   7.603   2.804  1.8844  1.3781  0.9643
   28MOL0     H 3824  -1.008   7.770   2.779 -1.4739 -0.6930  2.6045
   28MOL0     H 3825  -0.969   7.641   2.653  1.2421  1.7374  0.3065
   28MOL0     H 3826  -1.311   8.259   2.549 -1.0906 -1.9780  6.1652
   28MOL0     H 3827  -1.213   8.501   2.508 -0.2882 -2.3393 -3.7802
   28MOL0     H 3828  -0.856   8.579   2.799 -0.4161 -3.0879 -0.0538
   28MOL0     H 3829  -0.799   8.559   2.632 -0.3461  1.8009 -1.9190
   28MOL0     H 3830  -0.900   8.799   2.617 -0.7537 -1.6348 -0.0801
   28MOL0     H 3831  -0.861   8.792   2.789 -2.5991 -0.2534 -1.8081
   28MOL0     H 3832  -0.682   8.805   2.544  0.3407 -2.2220 -0.2722
   28MOL0     H 3833  -0.615   8.724   2.689  0.6748 -1.6300 -2.3181
   28MOL0     H 3834  -0.627   8.935   2.817  0.7214  4.6502 -0.1786
   28MOL0     H 3835  -0.746   9.000   2.694 -1.1070 -0.4337  1.1416
   28MOL0     H 3836  -0.460   8.926   2.638 -0.9659 -0.2598  1.8613
   28MOL0     H 3837  -0.585   9.001   2.524  1.2112 -1.8631 -0.7975
   28MOL0     H 3838  -0.457   9.116   2.783 -3.5498  1.9263  1.8449
   28MOL0     H 3839  -0.571   9.198   2.668  3.0668  1.9424 -3.5978
   28MOL0     H 3840  -0.410   9.146   2.479  3.9006 -0.1480 -1.3458
   28MOL0     H 3841  -0.280   9.122   2.596  1.8330  2.5078 -1.7411
   28MOL0     H 3842  -0.450   9.380   2.608 -0.0087  1.3847 -2.7357
   28MOL0     H 3843  -0.327   9.362   2.487  0.6057  1.5181  0.2094
   28MOL0     H 3844  -0.873   8.357   2.742  1.1537 -1.8856 -1.2469
   28MOL0     H 3845  -0.954   8.132   2.726  0.9348  0.0374 -0.4964
   28MOL0     H 3846  -1.418   7.908   2.571  2.2310  0.6479  0.1621
   28MOL0     H 3847  -1.535   7.682   2.545  1.1753 -0.3566 -3.4501
   28MOL0     H 3848  -0.396   6.827   3.218 -1.0944 -0.7590 -3.0217
   28MOL0     H 3849  -0.176   6.780   3.302  2.7333  0.9879  0.3962
   28MOL0     H 3850   0.278   6.698   3.092  1.2409 -0.0431 -0.2332
   28MOL0     H 3851   0.500   6.633   3.113 -0.9936  0.6937 -0.2511
   28MOL0     H 3852   0.769   6.774   3.450 -0.2420  0.0174  1.7230
   28MOL0     H 3853   0.680   6.650   3.509 -0.2427 -0.0405  0.6386
   28MOL0     H 3854   0.830   6.465   3.437  4.7272 -1.1960 -1.5410
   28MOL0     H 3855   0.934   6.595   3.497  0.0242  0.3818 -0.0895
   28MOL0     H 3856   1.025   6.522   3.297  0.0576 -0.4389  2.6504
   28MOL0     H 3857   0.874   6.534   3.208  1.8410 -1.8906  1.7207
   28MOL0     H 3858   1.036   6.768   3.340  0.3675 -1.8002  1.1722
   28MOL0     H 3859   0.908   6.789   3.219 -2.3538 -1.8679  0.0570
   28MOL0     H 3860   1.249   6.631   3.009  0.0180 -1.0604 -0.1121
   28MOL0     H 3861   0.546   6.851   3.476 -1.2410 -0.4963  2.9997
   28MOL0     H 3862   0.213   7.023   3.495  1.4638  1.7179 -0.2912
   28MOL0     H 3863   0.241   6.885   3.583  2.7734 -1.8179  0.6109
   28MOL0     H 3864   0.370   7.013   3.553  0.7870  0.2838 -1.4005
   29MOL0     O 3865  10.351   1.599   2.722  0.3113  0.3404 -0.6518
   29MOL0     C 3866  10.297   1.710   2.746  0.7473 -0.0850  0.4389
   29MOL0     O 3867  10.354   1.808   2.823 -0.0030 -1.0909  0.2278
   29MOL0     C 3868  10.472   1.790   2.882  0.2970  0.0821 -1.0977
   29MOL0     C 3869  10.589   1.804   2.816 -0.4640  0.4631  0.6563
   29MOL0     C 3870  10.708   1.798   2.880  0.3636  0.6230 -0.0969
   29MOL0     C 3871  10.723   1.772   3.015  0.9206  0.0078  0.9989
   29MOL0     O 3872  10.853   1.768   3.062 -0.0449 -0.3764 -0.4460
   29MOL0     C 3873  10.873   1.743   3.202  0.3286  0.4627  0.1763
   29MOL0     C 3874  11.021   1.717   3.221 -0.3061  0.6630 -0.1213
   29MOL0     C 3875  11.115   1.832   3.179  0.1120 -0.3390  0.0423
   29MOL0     C 3876  11.259   1.792   3.227 -0.1667  0.0504 -0.0876
   29MOL0     C 3877  11.377   1.881   3.178  0.2643 -0.4937 -0.2960
   29MOL0     C 3878  11.376   1.903   3.026  0.4252 -0.0824 -0.5083
   29MOL0     C 3879  11.490   1.986   2.986 -0.2546  0.0015  1.1793
   29MOL0     C 3880  11.490   2.021   2.837 -0.1361  0.3993  0.1786
   29MOL0     N 3881  11.427   2.149   2.814  0.2539 -0.2017  0.1821
   29MOL0     C 3882  11.300   2.163   2.774  0.2668  0.5930 -0.3053
   29MOL0     C 3883  11.273   2.294   2.798 -0.2739 -0.5705 -0.4326
   29MOL0     C 3884  11.133   2.359   2.776  0.0371  0.1097 -0.1082
   29MOL0     C 3885  11.052   2.355   2.900 -0.1752 -0.2017 -0.8746
   29MOL0     C 3886  11.029   2.219   2.975  0.5617  0.5053 -0.2721
   29MOL0     C 3887  10.916   2.238   3.078  0.1061 -0.3090  0.3612
   29MOL0     O 3888  10.862   2.110   3.114 -0.0647  0.4730  0.2149
   29MOL0     C 3889  10.723   2.116   3.113  0.2967  0.8999  0.5736
   29MOL0     C 3890  10.664   2.127   2.986  0.1844  0.4423 -0.3354
   29MOL0     C 3891  10.526   2.110   2.967  0.3154 -0.1067  0.4952
   29MOL0     C 3892  10.478   2.145   2.828  0.3070 -0.2393 -0.4789
   29MOL0     C 3893  10.438   2.092   3.075 -0.4221  0.6996 -0.8300
   29MOL0     C 3894  10.289   2.095   3.076  0.2782  0.8953  0.0809
   29MOL0     O 3895  10.225   2.030   3.183 -0.0925  0.7905 -0.0086
   29MOL0     C 3896  10.085   2.011   3.183 -0.1436 -0.0537  0.5506
   29MOL0     C 3897   9.993   2.114   3.156  0.9199  0.4656 -0.1351
   29MOL0     C 3898   9.857   2.084   3.147 -0.2819  0.2711 -0.2149
   29MOL0     C 3899   9.816   1.949   3.152  0.2383 -0.1190  0.5821
   29MOL0     O 3900   9.681   1.920   3.111 -0.0285 -0.1867  0.1537
   29MOL0     C 3901   9.626   1.795   3.135  0.5708  0.3339  0.3400
   29MOL0     C 3902   9.476   1.803   3.112 -0.0359 -0.5473  0.7440
   29MOL0     C 3903   9.398   1.906   3.179 -0.7175 -0.8235  0.5970
   29MOL0     C 3904   9.407   1.895   3.330  0.4893 -0.3997  0.3026
   29MOL0     C 3905   9.357   1.760   3.391 -0.6423  0.2162  0.2362
   29MOL0     C 3906   9.331   1.761   3.540  0.8787  0.2490 -0.1130
   29MOL0     C 3907   9.453   1.811   3.621 -0.1382  0.6385  0.9355
   29MOL0     C 3908   9.431   1.799   3.769  0.1707  0.2336  0.1708
   29MOL0    Cl 3909   9.282   1.891   3.818  0.1324 -0.4248 -0.0796
   29MOL0     C 3910   9.900   1.861   3.201 -0.7581 -0.2816 -0.4560
   29MOL0     C 3911  10.035   1.887   3.218 -0.4306  0.3506 -0.3135
   29MOL0     O 3912  10.225   2.158   2.991 -0.5319 -0.3665 -0.1039
   29MOL0     C 3913  10.503   2.085   3.204 -0.2438 -0.2070  0.6343
   29MOL0     C 3914  10.643   2.105   3.229 -0.1721  0.4234  0.1874
   29MOL0     N 3915  11.381   2.355   2.861  0.8967  0.3797 -0.3644
   29MOL0     N 3916  11.477   2.269   2.850  0.0764  0.3443 -0.6175
   29MOL0     C 3917  10.607   1.782   3.093  0.7505  1.2579  0.2428
   29MOL0     C 3918  10.480   1.783   3.025  0.2567 -0.5039  0.0357
   29MOL0     C 3919  10.147   1.741   2.717  0.5046  0.4598 -0.0740
   29MOL0     C 3920  10.077   1.812   2.817 -1.1363  0.9815 -0.4280
   29MOL0     C 3921   9.950   1.854   2.794 -0.0643 -0.2752 -0.2327
   29MOL0     C 3922   9.871   1.817   2.678 -0.2208  0.6102  0.1681
   29MOL0     O 3923   9.744   1.846   2.652  0.2803 -0.3696 -1.0485
   29MOL0     C 3924   9.675   1.916   2.767 -0.2508 -1.6256  0.1466
   29MOL0     C 3925   9.538   1.964   2.717  0.3806  0.1392  0.3002
   29MOL0     C 3926   9.456   1.838   2.656  0.4889 -0.0739  0.8939
   29MOL0     C 3927   9.311   1.868   2.638  0.7857 -0.3734  0.7400
   29MOL0     C 3928   9.251   1.908   2.764 -0.0495 -0.0611  0.2565
   29MOL0     C 3929   9.192   1.925   2.864  0.2128 -0.0857  0.2440
   29MOL0     C 3930   9.945   1.750   2.581  0.5474  0.1875  0.1874
   29MOL0     C 3931  10.080   1.708   2.590  0.1741 -0.3373 -0.3603
   29MOL0     C 3932  10.151   1.642   2.475  0.0858  0.0414 -0.0713
   29MOL0     H 3933  10.577   1.816   2.709 -1.7704 -0.2771  0.6960
   29MOL0     H 3934  10.793   1.792   2.813  0.2602  2.7300 -0.4664
   29MOL0     H 3935  10.825   1.650   3.234 -3.3264  1.4602 -1.8384
   29MOL0     H 3936  10.839   1.830   3.260  0.6203 -0.4527  1.7872
   29MOL0     H 3937  11.041   1.711   3.328 -1.1679  3.1838  0.2521
   29MOL0     H 3938  11.042   1.618   3.179 -0.8117  0.1875  0.7280
   29MOL0     H 3939  11.113   1.856   3.072  2.6749  1.9013  0.3811
   29MOL0     H 3940  11.098   1.924   3.236  1.2479 -1.5816  2.5194
   29MOL0     H 3941  11.257   1.799   3.336  0.1760 -2.3123  0.1363
   29MOL0     H 3942  11.283   1.688   3.201 -0.6308  0.2419 -1.3673
   29MOL0     H 3943  11.468   1.835   3.218  0.1674 -1.1146 -0.7659
   29MOL0     H 3944  11.369   1.981   3.220 -1.9273 -0.8039  0.1515
   29MOL0     H 3945  11.362   1.802   2.985  1.1172 -0.4349  0.1034
   29MOL0     H 3946  11.286   1.948   2.982  0.7415  1.4834  0.4058
   29MOL0     H 3947  11.576   1.925   3.014 -1.2617 -1.3435  1.4493
   29MOL0     H 3948  11.495   2.074   3.051  0.4336  0.8763  0.0009
   29MOL0     H 3949  11.593   2.023   2.801 -0.9703 -1.0616 -2.5638
   29MOL0     H 3950  11.444   1.945   2.773 -1.7794 -1.3138  3.1757
   29MOL0     H 3951  11.219   2.108   2.725 -1.6073  2.0455  1.0049
   29MOL0     H 3952  11.092   2.303   2.692  0.7879 -3.1236  1.5267
   29MOL0     H 3953  11.155   2.465   2.758 -2.5431  0.7711  0.2072
   29MOL0     H 3954  11.081   2.429   2.975 -1.0381  1.1964 -1.8671
   29MOL0     H 3955  10.952   2.386   2.867 -0.8704 -2.6462 -1.2726
   29MOL0     H 3956  11.010   2.131   2.915 -2.6907 -0.4007  1.8049
   29MOL0     H 3957  11.121   2.186   3.024 -0.9306 -1.1835  1.5669
   29MOL0     H 3958  10.956   2.291   3.165 -1.2410 -0.6165  1.1929
   29MOL0     H 3959  10.837   2.306   3.046  0.3954  0.2067  0.7280
   29MOL0     H 3960  10.727   2.137   2.898 -0.4832 -0.5181 -0.9320
   29MOL0     H 3961  10.409   2.065   2.797  1.9096 -1.1882 -1.8310
   29MOL0     H 3962  10.561   2.146   2.757  0.8282 -2.7263 -0.0054
   29MOL0     H 3963  10.421   2.238   2.828 -0.1350 -0.5028 -0.7912
   29MOL0     H 3964  10.011   2.212   3.112 -1.9649  0.3417 -1.8505
   29MOL0     H 3965   9.788   2.164   3.122 -1.6843 -1.0813 -0.9251
   29MOL0     H 3966   9.663   1.719   3.065 -1.5691 -1.7724  1.3546
   29MOL0     H 3967   9.647   1.775   3.240  2.0795  0.8475  0.1504
   29MOL0     H 3968   9.468   1.833   3.008  2.2071  3.0399  1.4001
   29MOL0     H 3969   9.432   1.704   3.128 -2.1419  0.6503  3.2442
   29MOL0     H 3970   9.292   1.896   3.153 -0.9144  0.4037  0.8626
   29MOL0     H 3971   9.432   2.006   3.151 -1.1665 -0.5381  1.0619
   29MOL0     H 3972   9.334   1.967   3.370 -2.2705 -3.2424  0.8076
   29MOL0     H 3973   9.506   1.919   3.368 -1.0722  3.6056  2.4588
   29MOL0     H 3974   9.259   1.733   3.349 -0.1913  1.2632 -1.5733
   29MOL0     H 3975   9.429   1.682   3.365  2.2857  2.9494 -0.5721
   29MOL0     H 3976   9.321   1.655   3.564  4.7602 -0.3428 -0.4566
   29MOL0     H 3977   9.245   1.828   3.551  0.2776  0.3117 -3.8625
   29MOL0     H 3978   9.483   1.912   3.592  3.0145  0.2395  2.3938
   29MOL0     H 3979   9.544   1.758   3.593  0.7150  1.9496  1.1337
   29MOL0     H 3980   9.517   1.847   3.816  0.5620  0.1527 -0.4403
   29MOL0     H 3981   9.413   1.701   3.812 -0.9985 -0.1167 -1.0223
   29MOL0     H 3982   9.857   1.764   3.225  0.9253 -0.8729  0.3600
   29MOL0     H 3983  10.109   1.813   3.246  0.2020  0.3936 -1.7794
   29MOL0     H 3984  10.436   2.073   3.289  1.2929 -0.1891  1.9056
   29MOL0     H 3985  10.673   2.086   3.332 -0.6762 -0.8756  0.1248
   29MOL0     H 3986  10.604   1.784   3.201  1.9830  1.7822  0.2903
   29MOL0     H 3987  10.391   1.802   3.083  0.5078 -1.3627  0.7174
   29MOL0     H 3988  10.129   1.849   2.905 -1.5995  3.0907 -0.9898
   29MOL0     H 3989   9.889   1.894   2.875  2.8941 -1.3579  2.7562
   29MOL0     H 3990   9.669   1.855   2.858  1.7775  0.4669  1.8244
   29MOL0     H 3991   9.735   2.002   2.799 -1.5678 -1.0008  1.0418
   29MOL0     H 3992   9.546   2.043   2.643 -3.0813 -0.7180 -1.2105
   29MOL0     H 3993   9.480   2.005   2.800 -0.7008  0.8049 -0.7513
   29MOL0     H 3994   9.490   1.816   2.554  3.3105 -0.5215  1.8320
   29MOL0     H 3995   9.474   1.742   2.706  0.3982 -1.7106 -1.9980
   29MOL0     H 3996   9.260   1.783   2.590 -0.6215  1.0727 -0.4417
   29MOL0     H 3997   9.286   1.954   2.575  1.8930  0.0842  0.9131
   29MOL0     H 3998   9.126   1.927   2.949 -2.9508 -0.7797 -1.9969
   29MOL0     H 3999   9.889   1.744   2.488 -2.3942  0.1921  1.8459
   29MOL0     H 4000  10.099   1.549   2.452  3.9427 -1.9677 -1.5605
   29MOL0     H 4001  10.147   1.708   2.388  1.3380 -2.0388 -1.7978
   29MOL0     H 4002  10.251   1.606   2.501 -0.6773  0.7630  4.9195
   30MOL0     O 4003   5.892  10.334   0.596 -0.1778  0.3575 -0.3795
   30MOL0     C 4004   5.934  10.275   0.494 -0.3530  0.0138 -0.6910
   30MOL0     O 4005   5.863  10.183   0.426  0.6708  0.8615  0.3484
   30MOL0     C 4006   5.736  10.156   0.461  0.1586 -0.0491  0.5321
   30MOL0     C 4007   5.691  10.065   0.556 -0.0755 -0.6894  0.0046
   30MOL0     C 4008   5.558  10.058   0.583  0.0229 -0.1184 -0.5264
   30MOL0     C 4009   5.458  10.118   0.507 -0.3139  0.7751 -0.2530
   30MOL0     O 4010   5.332  10.109   0.554  0.6136  0.8076 -0.1392
   30MOL0     C 4011   5.229  10.178   0.478 -0.0372  0.5373 -0.1570
   30MOL0     C 4012   5.100  10.198   0.565 -0.2465 -0.4826  0.0722
   30MOL0     C 4013   5.046  10.073   0.628 -0.0424 -0.8089 -0.2735
   30MOL0     C 4014   4.904  10.090   0.692  0.0963  0.8772 -0.0853
   30MOL0     C 4015   4.857   9.950   0.724  0.5457 -0.4661 -0.0786
   30MOL0     C 4016   4.733   9.937   0.810 -1.0920 -1.1151 -0.1491
   30MOL0     C 4017   4.600   9.961   0.741 -0.8441 -1.3521  0.0688
   30MOL0     C 4018   4.485   9.918   0.821 -0.9515 -0.0078 -0.9089
   30MOL0     N 4019   4.366   9.893   0.744 -0.0265  0.7797 -0.1339
   30MOL0     C 4020   4.279  10.008   0.722  0.4177 -0.5780 -0.1094
   30MOL0     C 4021   4.159   9.950   0.689  0.6430  0.1222 -0.0603
   30MOL0     C 4022   4.034  10.023   0.647 -0.3804  0.2460 -0.3405
   30MOL0     C 4023   3.960  10.105   0.759  0.3633 -0.2315 -0.3579
   30MOL0     C 4024   3.925  10.248   0.716  0.1297 -0.4478 -0.1545
   30MOL0     C 4025   4.040  10.338   0.660 -0.3987  0.5302  0.3139
   30MOL0     O 4026   4.149  10.331   0.758  0.0248  0.5391 -0.4501
   30MOL0     C 4027   4.261  10.405   0.748  0.7451  0.1192 -0.2232
   30MOL0     C 4028   4.289  10.491   0.640  0.2029  0.8582  0.7182
   30MOL0     C 4029   4.399  10.566   0.637 -0.3497 -0.0866  1.2072
   30MOL0     C 4030   4.425  10.637   0.512 -0.1241  0.2400  0.1821
   30MOL0     C 4031   4.490  10.562   0.750 -0.5473 -0.5715  0.3494
   30MOL0     C 4032   4.623  10.632   0.750  0.4191 -0.5296 -0.1874
   30MOL0     O 4033   4.682  10.629   0.865 -0.4680  0.5487  0.4556
   30MOL0     C 4034   4.809  10.672   0.880  0.0486  0.1285 -0.4511
   30MOL0     C 4035   4.830  10.780   0.963 -0.4372  0.5339  0.1286
   30MOL0     C 4036   4.956  10.826   0.982  0.1115 -0.0191  0.9644
   30MOL0     C 4037   5.071  10.759   0.936 -0.2877 -1.0334 -0.4034
   30MOL0     O 4038   5.197  10.786   0.979 -0.1867 -0.6410  0.2850
   30MOL0     C 4039   5.219  10.887   1.076 -0.3888 -0.3259 -0.4591
   30MOL0     C 4040   5.201  10.836   1.220 -0.4316 -0.0119  0.0681
   30MOL0     C 4041   5.303  10.727   1.260  0.4219  1.0977  0.4069
   30MOL0     C 4042   5.331  10.716   1.408 -0.8327 -0.7893  0.8552
   30MOL0     C 4043   5.431  10.606   1.455 -0.4566 -1.5264 -0.3096
   30MOL0     C 4044   5.373  10.461   1.441 -0.2707  0.0909  0.2790
   30MOL0     C 4045   5.483  10.357   1.483 -0.3007  0.3501 -1.0223
   30MOL0     C 4046   5.436  10.211   1.505  0.0457  0.7821  0.7382
   30MOL0    Cl 4047   5.343  10.209   1.654 -0.3513 -0.1340  0.0105
   30MOL0     C 4048   5.045  10.653   0.857  0.4353  1.2729 -0.4908
   30MOL0     C 4049   4.916  10.602   0.835 -0.9666 -0.0802  0.3015
   30MOL0     O 4050   4.674  10.682   0.651  0.3282  1.2135 -0.2339
   30MOL0     C 4051   4.457  10.490   0.864  0.8879 -0.0904 -0.0976
   30MOL0     C 4052   4.350  10.404   0.856 -0.0599 -0.0046  0.4671
   30MOL0     N 4053   4.170   9.812   0.698 -0.5409 -0.5267  0.0542
   30MOL0     N 4054   4.288   9.780   0.732 -0.8596  0.3773  0.4317
   30MOL0     C 4055   5.504  10.186   0.393 -0.2012  0.1014  0.2751
   30MOL0     C 4056   5.643  10.213   0.372  0.3072  0.1507  0.0030
   30MOL0     C 4057   6.074  10.292   0.450 -0.6500 -0.4084 -0.4918
   30MOL0     C 4058   6.148  10.181   0.430  0.0006  0.3034 -0.3804
   30MOL0     C 4059   6.264  10.190   0.354  0.2279 -0.2790  0.0196
   30MOL0     C 4060   6.322  10.316   0.339 -0.4944  0.5199  1.1638
   30MOL0     O 4061   6.436  10.308   0.270 -0.3079 -0.2328  0.2484
   30MOL0     C 4062   6.504  10.424   0.249  0.7320 -0.0168 -0.7529
   30MOL0     C 4063   6.622  10.397   0.163 -0.0451 -0.3246 -0.1854
   30MOL0     C 4064   6.694  10.527   0.128 -0.2895  0.3828  0.2897
   30MOL0     C 4065   6.827  10.494   0.051 -0.0438  0.6148 -0.4171
   30MOL0     C 4066   6.789  10.449  -0.086 -0.2308  0.0250 -0.5263
   30MOL0     C 4067   6.770  10.396  -0.193 -0.6846 -0.4251  0.6193
   30MOL0     C 4068   6.254  10.431   0.389 -0.2100 -0.5606 -0.3079
   30MOL0     C 4069   6.125  10.425   0.440 -0.1688  1.0372 -0.4136
   30MOL0     C 4070   6.046  10.549   0.466  0.3652  0.5346  0.1976
   30MOL0     H 4071   5.760  10.006   0.614 -2.5819 -2.3850  1.4821
   30MOL0     H 4072   5.542   9.999   0.672  1.0064  0.0224 -0.2435
   30MOL0     H 4073   5.190  10.124   0.392 -1.8305  0.2024  0.7976
   30MOL0     H 4074   5.266  10.279   0.457 -4.2634  1.7822 -2.8603
   30MOL0     H 4075   5.109  10.273   0.644 -0.1891 -0.4948  0.0774
   30MOL0     H 4076   5.032  10.240   0.491  0.1039 -0.1806 -0.0821
   30MOL0     H 4077   5.035  10.006   0.542  1.0583  1.1804 -2.0502
   30MOL0     H 4078   5.124  10.041   0.699  0.7443  1.4172 -0.0532
   30MOL0     H 4079   4.898  10.151   0.783  1.6458 -0.7832  1.1947
   30MOL0     H 4080   4.832  10.132   0.621 -1.0365  0.0327  0.5309
   30MOL0     H 4081   4.937   9.905   0.782  0.8561  0.8661  0.5743
   30MOL0     H 4082   4.835   9.895   0.632  0.1814 -1.5403  0.6285
   30MOL0     H 4083   4.732   9.835   0.848 -1.2933 -1.0106  0.1263
   30MOL0     H 4084   4.755  10.004   0.893  2.1950  0.4925 -2.0902
   30MOL0     H 4085   4.598   9.898   0.651  0.6781  0.4467 -1.3110
   30MOL0     H 4086   4.583  10.065   0.710  0.5521 -0.9212  0.6590
   30MOL0     H 4087   4.520   9.825   0.867 -1.4342  0.9510  1.5881
   30MOL0     H 4088   4.462   9.998   0.892 -1.9360 -0.8753 -0.2150
   30MOL0     H 4089   4.300  10.115   0.717 -0.9098 -0.2915  0.1925
   30MOL0     H 4090   3.976   9.938   0.609 -2.0924  0.5164  1.4946
   30MOL0     H 4091   4.069  10.083   0.563 -0.1402 -2.1394 -2.0458
   30MOL0     H 4092   3.864  10.055   0.776  1.3063 -1.7904  0.7149
   30MOL0     H 4093   4.002  10.108   0.861 -0.4418  1.6243 -0.0367
   30MOL0     H 4094   3.870  10.228   0.623 -0.5102 -0.9138  0.3099
   30MOL0     H 4095   3.862  10.296   0.791  0.9607 -1.6381  1.3699
   30MOL0     H 4096   4.076  10.313   0.560 -3.3992 -3.3221 -0.0376
   30MOL0     H 4097   4.009  10.442   0.645 -0.2649  0.3791 -1.2358
   30MOL0     H 4098   4.243  10.479   0.542  1.6909  1.1305 -0.0461
   30MOL0     H 4099   4.493  10.723   0.514 -0.9393  0.8841  1.0770
   30MOL0     H 4100   4.337  10.681   0.465 -1.3720  1.2470  3.2407
   30MOL0     H 4101   4.469  10.570   0.437  0.5222  1.3691 -0.4841
   30MOL0     H 4102   4.744  10.830   1.005 -1.1645 -1.3841  1.0621
   30MOL0     H 4103   4.962  10.913   1.045  1.2982  2.4544 -2.2724
   30MOL0     H 4104   5.321  10.926   1.066  0.4069 -1.5281  2.1180
   30MOL0     H 4105   5.156  10.976   1.070 -4.6812 -3.1047 -1.2451
   30MOL0     H 4106   5.198  10.929   1.277  0.3057 -0.0575  0.1838
   30MOL0     H 4107   5.100  10.793   1.224 -0.7488  0.7998  1.9762
   30MOL0     H 4108   5.393  10.749   1.201 -1.7667  1.1059 -3.2849
   30MOL0     H 4109   5.263  10.629   1.230  0.9808 -0.1596  3.4438
   30MOL0     H 4110   5.234  10.701   1.457 -2.7160  2.1070 -1.6673
   30MOL0     H 4111   5.377  10.806   1.448  2.2968 -2.7911  2.1798
   30MOL0     H 4112   5.529  10.612   1.407  0.1621 -1.3312  0.9567
   30MOL0     H 4113   5.446  10.627   1.561 -1.2812  1.7280 -0.7268
   30MOL0     H 4114   5.341  10.440   1.339  1.7670  3.2052 -1.1589
   30MOL0     H 4115   5.288  10.444   1.507 -0.0369 -0.4785  0.4376
   30MOL0     H 4116   5.524  10.389   1.579  2.2987 -0.0363 -1.9117
   30MOL0     H 4117   5.570  10.348   1.418 -0.4934 -1.2517 -1.1109
   30MOL0     H 4118   5.525  10.151   1.526 -0.7701 -0.1297  1.7448
   30MOL0     H 4119   5.391  10.170   1.414  1.6128  1.6402 -0.4679
   30MOL0     H 4120   5.119  10.586   0.813 -0.9282 -1.3689  0.9602
   30MOL0     H 4121   4.901  10.512   0.777  0.7931  0.9400 -1.9145
   30MOL0     H 4122   4.511  10.496   0.957 -0.1277 -0.7196  0.5591
   30MOL0     H 4123   4.324  10.342   0.941 -1.4765 -0.4273 -0.2374
   30MOL0     H 4124   5.427  10.236   0.336 -0.7284  0.3069  1.1571
   30MOL0     H 4125   5.686  10.267   0.288  1.9895 -0.9689  0.0893
   30MOL0     H 4126   6.107  10.082   0.446 -0.7845  0.4448 -1.3822
   30MOL0     H 4127   6.311  10.097   0.326  2.8391  0.0361  2.8160
   30MOL0     H 4128   6.447  10.505   0.202  0.6406 -0.0356 -0.6759
   30MOL0     H 4129   6.526  10.472   0.345 -2.5349  3.7006 -1.6129
   30MOL0     H 4130   6.601  10.334   0.076  2.3062 -0.9568 -0.3640
   30MOL0     H 4131   6.681  10.337   0.233  0.4486 -1.7196 -1.7297
   30MOL0     H 4132   6.626  10.590   0.070  0.1899 -1.3965 -2.4282
   30MOL0     H 4133   6.718  10.574   0.223  1.8463 -0.5916  0.2928
   30MOL0     H 4134   6.885  10.418   0.105 -1.5357  0.2049  0.7048
   30MOL0     H 4135   6.883  10.587   0.038  0.4623 -0.0503 -3.7080
   30MOL0     H 4136   6.759  10.343  -0.286 -1.6403 -0.0261  0.4920
   30MOL0     H 4137   6.304  10.525   0.370 -1.8531  0.2744 -0.6752
   30MOL0     H 4138   6.050  10.573   0.573 -0.9883 -1.7461  0.8377
   30MOL0     H 4139   6.091  10.635   0.417  0.1781  0.2717 -0.4442
   30MOL0     H 4140   5.945  10.552   0.423  1.3481  0.4797 -2.2774
   31MOL0     O 4141   2.421   8.666   3.426 -0.2582 -0.0641 -0.1134
   31MOL0     C 4142   2.431   8.767   3.491  0.1340 -1.3179  0.5688
   31MOL0     O 4143   2.396   8.892   3.446 -0.3385  0.3233 -0.1641
   31MOL0     C 4144   2.331   8.896   3.324  0.1033 -0.2092 -0.5016
   31MOL0     C 4145   2.385   8.951   3.212  0.1812 -0.6477  0.1011
   31MOL0     C 4146   2.317   8.957   3.090 -0.5108 -0.8659 -0.5771
   31MOL0     C 4147   2.188   8.912   3.083  0.6739 -0.0421 -0.1175
   31MOL0     O 4148   2.130   8.922   2.951  0.0339  0.1314 -0.1438
   31MOL0     C 4149   1.995   8.875   2.937  0.3103  0.0191 -0.4584
   31MOL0     C 4150   1.945   8.855   2.796 -0.1169 -0.7049  0.7895
   31MOL0     C 4151   1.804   8.795   2.785  0.6471 -0.5307 -0.7190
   31MOL0     C 4152   1.763   8.776   2.642 -0.2321 -0.3925 -0.7112
   31MOL0     C 4153   1.641   8.684   2.633  0.2563 -0.4129  0.5397
   31MOL0     C 4154   1.576   8.708   2.499 -0.0323  0.0835  0.2814
   31MOL0     C 4155   1.444   8.631   2.471 -0.3474  0.5385 -0.2027
   31MOL0     C 4156   1.320   8.700   2.502 -0.0708 -0.5852  0.4021
   31MOL0     N 4157   1.328   8.728   2.647  0.1847 -0.0405  0.5557
   31MOL0     C 4158   1.273   8.643   2.741 -0.4524  0.3582  0.2682
   31MOL0     C 4159   1.266   8.718   2.854 -0.1145 -0.2734  1.0026
   31MOL0     C 4160   1.202   8.675   2.986 -0.4486 -0.3673  0.2776
   31MOL0     C 4161   1.263   8.747   3.111  0.0546  0.2282 -0.1637
   31MOL0     C 4162   1.203   8.696   3.246  0.2159  0.9672  0.1677
   31MOL0     C 4163   1.222   8.769   3.375  0.0396 -0.2221  0.3561
   31MOL0     O 4164   1.362   8.766   3.409  0.2043  0.0724  0.2916
   31MOL0     C 4165   1.395   8.787   3.543 -0.3373 -0.1568  0.9461
   31MOL0     C 4166   1.507   8.728   3.606  0.2450  0.4242  0.6770
   31MOL0     C 4167   1.534   8.742   3.747  0.2749  0.0450  0.1382
   31MOL0     C 4168   1.650   8.669   3.803 -0.9101  0.5036  0.0331
   31MOL0     C 4169   1.449   8.817   3.828 -1.0195 -0.5495  0.3283
   31MOL0     C 4170   1.491   8.852   3.964 -0.1890  0.2710 -0.1149
   31MOL0     O 4171   1.476   8.747   4.052  0.5124  0.3713 -0.6917
   31MOL0     C 4172   1.571   8.729   4.151 -0.1529  1.2079  1.1897
   31MOL0     C 4173   1.703   8.783   4.153 -0.1319 -0.0227 -0.0377
   31MOL0     C 4174   1.795   8.760   4.257  0.0329 -0.3652  0.1731
   31MOL0     C 4175   1.756   8.688   4.373  0.1347  0.0419  0.7790
   31MOL0     O 4176   1.856   8.678   4.465  0.3018  0.8131  0.2403
   31MOL0     C 4177   1.809   8.639   4.600  0.2329  1.1610  0.8712
   31MOL0     C 4178   1.910   8.698   4.695 -0.2873  0.3608  0.6567
   31MOL0     C 4179   1.899   8.859   4.696  0.8031 -0.6408  0.6219
   31MOL0     C 4180   2.012   8.925   4.762 -0.2008  0.9242  0.5564
   31MOL0     C 4181   2.001   9.074   4.780 -0.2607 -0.6294  0.2521
   31MOL0     C 4182   2.130   9.122   4.851 -0.4148 -0.0496  0.1104
   31MOL0     C 4183   2.126   9.259   4.927 -0.6698  0.0240  0.7146
   31MOL0     C 4184   2.269   9.299   4.961  0.5215  0.3954  0.2196
   31MOL0    Cl 4185   2.255   9.473   5.023 -0.9316  0.3229 -0.0768
   31MOL0     C 4186   1.634   8.621   4.366  0.4635 -0.2793 -0.1507
   31MOL0     C 4187   1.537   8.651   4.264  0.2188  0.0567  0.0675
   31MOL0     O 4188   1.527   8.970   3.993  0.6495  0.3193  0.4136
   31MOL0     C 4189   1.338   8.880   3.768 -0.3303 -0.9656 -0.0452
   31MOL0     C 4190   1.309   8.857   3.632  0.1005 -0.0081  0.2574
   31MOL0     N 4191   1.325   8.837   2.826  0.3183 -0.8798 -0.0363
   31MOL0     N 4192   1.355   8.849   2.705  1.0807 -0.0553 -0.3861
   31MOL0     C 4193   2.128   8.868   3.199 -0.0874  0.1668 -0.2339
   31MOL0     C 4194   2.200   8.860   3.320  0.5598 -0.2618  0.9327
   31MOL0     C 4195   2.469   8.754   3.634  0.3436 -0.0866 -0.7728
   31MOL0     C 4196   2.387   8.807   3.732 -0.6726 -0.3971 -0.9197
   31MOL0     C 4197   2.417   8.816   3.865 -0.3125 -0.0904  0.8912
   31MOL0     C 4198   2.538   8.760   3.908  0.3911 -0.5843  0.3188
   31MOL0     O 4199   2.558   8.766   4.042 -0.8419 -0.8515  0.1232
   31MOL0     C 4200   2.687   8.736   4.102 -0.3538 -0.0861  0.1505
   31MOL0     C 4201   2.688   8.604   4.185  0.1451 -0.3415 -0.3082
   31MOL0     C 4202   2.798   8.623   4.292  0.0516 -0.6322  0.2248
   31MOL0     C 4203   2.787   8.514   4.401  0.2416  0.2258  0.1558
   31MOL0     C 4204   2.894   8.529   4.496  0.4782 -0.0002  0.1902
   31MOL0     C 4205   2.976   8.530   4.586  0.3831  0.2853 -0.0074
   31MOL0     C 4206   2.610   8.678   3.816 -0.5380 -0.2946 -0.4712
   31MOL0     C 4207   2.572   8.669   3.677 -0.2850 -0.2050  0.5547
   31MOL0     C 4208   2.640   8.575   3.584  0.4466  0.7467  0.5449
   31MOL0     H 4209   2.491   8.975   3.213  0.4990 -1.5723 -2.7382
   31MOL0     H 4210   2.373   8.993   3.005 -1.4452  1.2037 -0.3755
   31MOL0     H 4211   1.914   8.933   2.983  0.3425  2.4481 -3.1369
   31MOL0     H 4212   1.995   8.778   2.987 -0.3921  0.9944  1.5644
   31MOL0     H 4213   1.933   8.958   2.760 -4.3946 -0.8580  1.2469
   31MOL0     H 4214   2.027   8.806   2.743  1.0266  1.0801  0.8547
   31MOL0     H 4215   1.814   8.703   2.843  2.0331  0.0148 -0.0247
   31MOL0     H 4216   1.734   8.865   2.832  1.6295 -2.0266  3.3842
   31MOL0     H 4217   1.745   8.875   2.599  1.0491  0.3745  0.4549
   31MOL0     H 4218   1.836   8.721   2.583  1.7614  1.2918  0.0941
   31MOL0     H 4219   1.579   8.710   2.719 -0.2344  0.4507 -0.0635
   31MOL0     H 4220   1.679   8.582   2.643  3.1284  0.4449 -0.5910
   31MOL0     H 4221   1.574   8.816   2.478  0.4299  0.1579  0.5985
   31MOL0     H 4222   1.646   8.669   2.425 -0.1488  2.2205 -1.0449
   31MOL0     H 4223   1.452   8.542   2.534  0.3317  0.1005 -0.8917
   31MOL0     H 4224   1.438   8.601   2.366 -0.9440  1.4537 -0.4418
   31MOL0     H 4225   1.320   8.792   2.442  0.3129 -1.5940 -1.2295
   31MOL0     H 4226   1.232   8.640   2.477 -1.5211  1.6234 -0.1731
   31MOL0     H 4227   1.220   8.549   2.727  1.9421 -1.4705  2.5825
   31MOL0     H 4228   1.220   8.567   2.994 -1.6705 -0.7953 -1.9121
   31MOL0     H 4229   1.094   8.689   2.976 -0.7801 -1.4301  1.9372
   31MOL0     H 4230   1.372   8.746   3.113  0.1020 -1.4614  2.5711
   31MOL0     H 4231   1.244   8.854   3.106 -0.8106  0.2262  1.8750
   31MOL0     H 4232   1.094   8.690   3.238  0.1423  0.6069  1.3352
   31MOL0     H 4233   1.241   8.597   3.270  0.5215  1.3661  1.4181
   31MOL0     H 4234   1.205   8.875   3.358 -0.2349 -0.2940  0.1838
   31MOL0     H 4235   1.170   8.726   3.462 -1.6987 -0.6777 -0.8556
   31MOL0     H 4236   1.575   8.668   3.546 -1.1506 -0.6525  0.1108
   31MOL0     H 4237   1.626   8.569   3.839 -0.7072 -0.3714 -2.0768
   31MOL0     H 4238   1.701   8.738   3.871 -3.9604  2.2784  0.7277
   31MOL0     H 4239   1.723   8.657   3.722 -0.8196  0.1457  0.1691
   31MOL0     H 4240   1.733   8.837   4.064  0.3179  0.3319  0.3136
   31MOL0     H 4241   1.887   8.817   4.263 -0.0581  0.1140 -2.1728
   31MOL0     H 4242   1.708   8.678   4.613  0.4001  2.4836 -1.3640
   31MOL0     H 4243   1.807   8.530   4.615  0.7264  0.5229 -2.6748
   31MOL0     H 4244   1.894   8.655   4.794  0.6142  0.6971  0.9551
   31MOL0     H 4245   2.007   8.670   4.653  0.1902 -0.0733  1.9933
   31MOL0     H 4246   1.802   8.886   4.739  0.5983 -0.6760  0.1853
   31MOL0     H 4247   1.903   8.906   4.598  1.5674 -0.6714  0.6265
   31MOL0     H 4248   2.103   8.896   4.709 -0.2580  1.4691  0.1600
   31MOL0     H 4249   2.021   8.880   4.862  4.3614 -0.2622 -0.1868
   31MOL0     H 4250   1.988   9.136   4.690  0.2383  1.1266  1.3337
   31MOL0     H 4251   1.914   9.089   4.844 -2.0691 -2.4963 -1.6015
   31MOL0     H 4252   2.214   9.121   4.780  1.4466 -2.9065  2.1452
   31MOL0     H 4253   2.170   9.048   4.920 -0.1331 -1.2925 -1.3234
   31MOL0     H 4254   2.060   9.248   5.014 -1.1254  0.2780  0.4058
   31MOL0     H 4255   2.081   9.331   4.859  0.7063  0.3352  0.1064
   31MOL0     H 4256   2.344   9.304   4.882 -0.3296 -1.0834 -0.7249
   31MOL0     H 4257   2.312   9.231   5.035  3.7002  3.2033  1.2389
   31MOL0     H 4258   1.619   8.537   4.434 -0.9971  0.5215  0.5697
   31MOL0     H 4259   1.440   8.605   4.256  0.3582 -0.5385  1.4101
   31MOL0     H 4260   1.272   8.953   3.815 -0.5938 -0.4356 -1.2096
   31MOL0     H 4261   1.224   8.914   3.597  0.1031 -0.3713 -0.3604
   31MOL0     H 4262   2.027   8.829   3.199  0.0049 -0.1646 -2.0917
   31MOL0     H 4263   2.148   8.825   3.409 -1.4363  3.8744  1.6162
   31MOL0     H 4264   2.290   8.847   3.702 -2.4974 -3.1744  0.7861
   31MOL0     H 4265   2.345   8.867   3.929 -0.4899 -0.0255  0.6410
   31MOL0     H 4266   2.769   8.725   4.032  0.9269  0.9173  1.4373
   31MOL0     H 4267   2.715   8.820   4.167 -3.2231  3.4743 -2.7743
   31MOL0     H 4268   2.712   8.517   4.124  3.1225  0.7578 -0.8559
   31MOL0     H 4269   2.592   8.575   4.229 -1.3616  3.1621 -0.9424
   31MOL0     H 4270   2.896   8.601   4.250  0.8926  0.8101  1.3281
   31MOL0     H 4271   2.798   8.725   4.333  1.2639  1.3379 -4.0471
   31MOL0     H 4272   2.812   8.417   4.358 -0.8464  0.2140 -0.4934
   31MOL0     H 4273   2.693   8.514   4.458  0.3404  2.8800  0.4419
   31MOL0     H 4274   3.043   8.531   4.670 -0.3852 -1.8024  0.6949
   31MOL0     H 4275   2.700   8.636   3.860  0.1607  1.3742 -0.2430
   31MOL0     H 4276   2.576   8.498   3.539 -0.2138  2.5472 -1.7892
   31MOL0     H 4277   2.695   8.623   3.503  0.5445 -3.6424 -2.3240
   31MOL0     H 4278   2.718   8.532   3.648 -2.4825 -0.6613  3.4836
   32MOL0     O 4279   5.628   1.485   3.691  0.0738  0.1656  0.3633
   32MOL0     C 4280   5.592   1.531   3.585  0.8770  0.6856  0.0654
   32MOL0     O 4281   5.670   1.582   3.492 -0.1079 -0.1045 -1.0849
   32MOL0     C 4282   5.801   1.605   3.517  0.0913 -0.6331  0.4841
   32MOL0     C 4283   5.887   1.523   3.596 -0.1894 -0.2515 -0.2809
   32MOL0     C 4284   6.004   1.574   3.641  1.7129 -0.0460  0.0999
   32MOL0     C 4285   6.054   1.692   3.582  0.3669  0.3470 -0.4398
   32MOL0     O 4286   6.174   1.746   3.619  0.0501 -0.5173  0.2812
   32MOL0     C 4287   6.265   1.680   3.706 -0.3881  0.7793 -0.4315
   32MOL0     C 4288   6.337   1.557   3.649  0.6050 -0.0078  0.6132
   32MOL0     C 4289   6.415   1.480   3.762 -0.7755  0.2383  0.4530
   32MOL0     C 4290   6.525   1.564   3.834 -0.3253  0.1435  0.6382
   32MOL0     C 4291   6.616   1.468   3.917 -0.8309  0.6820 -0.0837
   32MOL0     C 4292   6.730   1.538   4.004  0.0576  0.5901 -0.3811
   32MOL0     C 4293   6.810   1.445   4.103  0.3432  0.1675  0.5547
   32MOL0     C 4294   6.728   1.419   4.228 -0.2033  0.4382 -0.6983
   32MOL0     N 4295   6.800   1.364   4.339 -0.0447  0.1119 -0.1714
   32MOL0     C 4296   6.865   1.242   4.336  0.1319  0.3105 -0.2568
   32MOL0     C 4297   6.954   1.243   4.442 -0.5324 -0.8121  0.3324
   32MOL0     C 4298   7.046   1.134   4.474  0.8683 -0.3463  0.6546
   32MOL0     C 4299   7.181   1.182   4.517 -0.2518  0.0237 -0.0042
   32MOL0     C 4300   7.290   1.073   4.543  0.1427  0.4650  0.1599
   32MOL0     C 4301   7.427   1.146   4.554  0.4598 -0.0264 -0.3871
   32MOL0     O 4302   7.447   1.176   4.692  0.1909  0.2178  0.4994
   32MOL0     C 4303   7.555   1.255   4.725  0.7391  0.3602 -0.3023
   32MOL0     C 4304   7.677   1.246   4.667 -0.2529  0.2083  0.9205
   32MOL0     C 4305   7.790   1.329   4.704  0.0296 -0.3791 -0.4430
   32MOL0     C 4306   7.920   1.306   4.631  0.5959  1.2067  0.3201
   32MOL0     C 4307   7.777   1.421   4.808 -0.0762  0.2960  0.4273
   32MOL0     C 4308   7.889   1.519   4.847 -0.2590 -0.3556  0.2242
   32MOL0     O 4309   8.003   1.527   4.774 -0.0437  0.4938 -0.1312
   32MOL0     C 4310   8.108   1.611   4.815  0.3294  0.1590 -0.6147
   32MOL0     C 4311   8.106   1.739   4.773 -0.6573  0.4016 -0.0650
   32MOL0     C 4312   8.214   1.824   4.805 -0.2214 -0.0472 -0.1100
   32MOL0     C 4313   8.329   1.776   4.874 -0.1568 -0.2560  0.3013
   32MOL0     O 4314   8.424   1.864   4.929 -0.2563 -0.9922 -0.1139
   32MOL0     C 4315   8.476   1.965   4.844  0.1638 -0.1815 -0.2925
   32MOL0     C 4316   8.406   2.103   4.871  0.0957 -0.4365  0.1687
   32MOL0     C 4317   8.376   2.132   5.022  0.1432 -0.4239 -0.5813
   32MOL0     C 4318   8.362   2.282   5.051  0.0542 -0.0792 -0.3788
   32MOL0     C 4319   8.353   2.315   5.202  0.3218  0.4974 -0.4143
   32MOL0     C 4320   8.477   2.294   5.279  0.0534  0.0951 -0.1939
   32MOL0     C 4321   8.588   2.399   5.240 -0.3220 -0.0277  0.0035
   32MOL0     C 4322   8.712   2.368   5.322 -0.4944 -0.6121  0.3395
   32MOL0    Cl 4323   8.782   2.223   5.255  0.2035 -0.3680 -0.0442
   32MOL0     C 4324   8.316   1.643   4.922  1.1353 -0.4891 -0.3756
   32MOL0     C 4325   8.215   1.561   4.888 -0.9724  0.2562 -0.8446
   32MOL0     O 4326   7.860   1.599   4.940 -0.0606  0.6430  0.5162
   32MOL0     C 4327   7.654   1.422   4.875  0.0269  0.2142 -0.1315
   32MOL0     C 4328   7.546   1.344   4.827 -0.4139 -0.7788 -0.3508
   32MOL0     N 4329   6.926   1.363   4.516 -0.8079 -0.2413  0.6975
   32MOL0     N 4330   6.845   1.438   4.448  0.8996  0.0281  0.3250
   32MOL0     C 4331   5.979   1.767   3.490  0.9120  0.4507  0.0267
   32MOL0     C 4332   5.844   1.727   3.468 -0.6995  0.8299 -0.2193
   32MOL0     C 4333   5.441   1.551   3.551 -0.1996  0.0384  0.2376
   32MOL0     C 4334   5.399   1.560   3.415  0.4874 -0.1177 -0.0640
   32MOL0     C 4335   5.262   1.559   3.376 -0.2007 -0.5596  0.2124
   32MOL0     C 4336   5.171   1.569   3.477 -0.4306  0.1654  0.6175
   32MOL0     O 4337   5.034   1.585   3.474 -0.5254  0.6590 -1.0728
   32MOL0     C 4338   4.959   1.577   3.348  0.0033  0.3152 -0.4387
   32MOL0     C 4339   4.806   1.601   3.369 -0.1183  0.0699 -0.3352
   32MOL0     C 4340   4.767   1.753   3.380  0.6558  0.2807  0.1188
   32MOL0     C 4341   4.624   1.806   3.364  0.3120 -0.3578 -0.8470
   32MOL0     C 4342   4.561   1.724   3.262 -0.1107 -0.4987 -0.7288
   32MOL0     C 4343   4.495   1.651   3.199  0.3327  0.7295  0.7330
   32MOL0     C 4344   5.206   1.572   3.607 -0.8677 -0.8146 -1.4378
   32MOL0     C 4345   5.341   1.555   3.648 -0.6243 -0.3592 -0.3929
   32MOL0     C 4346   5.362   1.563   3.802 -0.0156 -0.4116  0.3315
   32MOL0     H 4347   5.859   1.423   3.627 -0.4630  0.1171  0.6986
   32MOL0     H 4348   6.067   1.526   3.715 -1.3149 -0.0851  2.8764
   32MOL0     H 4349   6.224   1.636   3.797  0.9209 -0.8143 -0.5671
   32MOL0     H 4350   6.343   1.747   3.743  0.3510 -0.9833  1.3933
   32MOL0     H 4351   6.262   1.493   3.603 -1.9032  3.8092 -1.1589
   32MOL0     H 4352   6.407   1.588   3.571 -1.2748  2.2141 -0.2935
   32MOL0     H 4353   6.339   1.445   3.833 -3.1183  0.4996 -1.7994
   32MOL0     H 4354   6.459   1.388   3.721 -0.0920  1.1981 -1.0654
   32MOL0     H 4355   6.578   1.626   3.761 -2.1391  1.5042  0.4057
   32MOL0     H 4356   6.487   1.639   3.904 -2.8804  0.6497 -1.1467
   32MOL0     H 4357   6.664   1.391   3.856  1.4484  1.2533  0.9180
   32MOL0     H 4358   6.543   1.414   3.979 -1.1008 -0.5536 -1.4055
   32MOL0     H 4359   6.798   1.592   3.938 -2.0024  0.9305 -2.3056
   32MOL0     H 4360   6.686   1.621   4.059 -1.3999 -0.4988  0.1622
   32MOL0     H 4361   6.903   1.498   4.125  1.9725 -2.7879  1.4343
   32MOL0     H 4362   6.832   1.348   4.056 -2.0264  0.8767 -2.3957
   32MOL0     H 4363   6.685   1.510   4.270 -1.4112 -1.2139  1.8558
   32MOL0     H 4364   6.645   1.350   4.210  1.2090 -1.2907 -0.8216
   32MOL0     H 4365   6.862   1.160   4.265  0.8695  1.6517 -1.9127
   32MOL0     H 4366   7.059   1.063   4.392 -1.8601 -0.0264 -0.1312
   32MOL0     H 4367   7.008   1.077   4.559  0.8763  1.2309  1.7603
   32MOL0     H 4368   7.220   1.244   4.436  4.5163 -2.3058  0.1823
   32MOL0     H 4369   7.164   1.237   4.611 -0.9389  1.1781 -0.7712
   32MOL0     H 4370   7.273   1.010   4.630  0.2511 -0.6025 -0.5788
   32MOL0     H 4371   7.290   1.008   4.454 -1.3354  1.2178 -0.4207
   32MOL0     H 4372   7.504   1.080   4.513  0.2578  0.4227 -1.5576
   32MOL0     H 4373   7.423   1.231   4.484  0.0775 -1.7649 -2.5885
   32MOL0     H 4374   7.706   1.163   4.603 -0.3859 -1.5479  2.9961
   32MOL0     H 4375   8.003   1.258   4.684 -0.2503  0.6523  1.1599
   32MOL0     H 4376   7.959   1.396   4.582  3.1206 -0.1824 -0.4212
   32MOL0     H 4377   7.897   1.241   4.546  2.1650  2.2245 -0.9573
   32MOL0     H 4378   8.027   1.774   4.707 -1.3739 -0.6901  0.1993
   32MOL0     H 4379   8.210   1.927   4.771  2.5278  0.0508 -0.3377
   32MOL0     H 4380   8.582   1.971   4.873  0.2747 -2.6102  0.0178
   32MOL0     H 4381   8.470   1.943   4.737 -2.1011  3.5372 -1.0939
   32MOL0     H 4382   8.479   2.173   4.830 -2.0653  0.1611 -2.9848
   32MOL0     H 4383   8.308   2.118   4.825 -2.0186  0.0824  4.3634
   32MOL0     H 4384   8.451   2.077   5.080  0.4562 -1.5587 -1.9945
   32MOL0     H 4385   8.273   2.100   5.041 -0.7516  3.7769  3.5086
   32MOL0     H 4386   8.269   2.321   5.007 -0.9951 -0.3442  1.4894
   32MOL0     H 4387   8.436   2.341   4.995  0.8097 -1.5101 -0.9197
   32MOL0     H 4388   8.321   2.419   5.213 -5.5305 -0.8784 -0.9723
   32MOL0     H 4389   8.275   2.255   5.250  2.2980 -0.6803  1.5275
   32MOL0     H 4390   8.509   2.190   5.264 -2.2791 -0.7965  0.4707
   32MOL0     H 4391   8.459   2.312   5.386  2.9972 -2.3805  0.9025
   32MOL0     H 4392   8.558   2.501   5.265  3.4650  1.5455 -1.1940
   32MOL0     H 4393   8.620   2.397   5.136  0.6474  3.1163  0.1604
   32MOL0     H 4394   8.698   2.348   5.429  0.2566 -0.2007  0.5254
   32MOL0     H 4395   8.784   2.450   5.320  0.2887 -1.2583  1.1904
   32MOL0     H 4396   8.388   1.607   4.995  0.6567 -3.1935 -1.1420
   32MOL0     H 4397   8.209   1.464   4.937  2.1330  0.9409  1.1684
   32MOL0     H 4398   7.650   1.473   4.971  1.3703  0.2374 -0.0691
   32MOL0     H 4399   7.449   1.353   4.874  0.5277 -1.7101  1.9254
   32MOL0     H 4400   6.025   1.855   3.445 -0.2326  1.8003  1.3954
   32MOL0     H 4401   5.780   1.792   3.409 -2.1430  2.6030  3.0208
   32MOL0     H 4402   5.469   1.560   3.332 -0.3504 -2.3717 -0.8244
   32MOL0     H 4403   5.234   1.563   3.271  0.8698 -0.1238 -0.0751
   32MOL0     H 4404   5.001   1.653   3.282 -2.7529  0.0090 -2.7532
   32MOL0     H 4405   4.971   1.484   3.292  1.3844  0.2562 -0.0726
   32MOL0     H 4406   4.778   1.553   3.463  0.8822 -0.0251 -0.0763
   32MOL0     H 4407   4.756   1.558   3.282 -1.9076  0.9224  0.2153
   32MOL0     H 4408   4.812   1.800   3.468 -1.0991 -0.6336  1.5557
   32MOL0     H 4409   4.821   1.796   3.295  0.8879 -0.2134  0.0123
   32MOL0     H 4410   4.632   1.912   3.342 -4.0135 -0.0956 -2.1106
   32MOL0     H 4411   4.570   1.786   3.458 -1.5191 -0.5515 -1.8917
   32MOL0     H 4412   4.440   1.590   3.131  0.1080  0.1166  1.4562
   32MOL0     H 4413   5.139   1.586   3.691  1.9283 -1.2975  1.0321
   32MOL0     H 4414   5.425   1.647   3.833 -0.2979  0.7207 -1.9561
   32MOL0     H 4415   5.266   1.565   3.855  1.7741  1.8047  3.8093
   32MOL0     H 4416   5.413   1.470   3.830 -1.9402 -2.1445 -1.5126
   33MOL0     O 4417   5.868   0.661  10.353  0.3847 -0.3950  0.5477
   33MOL0     C 4418   5.904   0.668  10.233  0.6881  0.5710  0.7037
   33MOL0     O 4419   5.972   0.567  10.166  0.2923 -0.3823 -0.8039
   33MOL0     C 4420   6.031   0.470  10.240  0.8684 -0.6514 -0.1787
   33MOL0     C 4421   6.113   0.506  10.342  0.1215  0.8993  0.7683
   33MOL0     C 4422   6.170   0.409  10.419 -0.1136  0.4185  0.7412
   33MOL0     C 4423   6.140   0.273  10.407  0.1689  0.3485  0.0585
   33MOL0     O 4424   6.195   0.178  10.492  0.2897 -0.1315  0.0367
   33MOL0     C 4425   6.185   0.198  10.635  0.1602  0.6031 -0.9589
   33MOL0     C 4426   6.191   0.062  10.701  0.1170  0.2923  0.1765
   33MOL0     C 4427   6.173   0.054  10.852  0.1640 -0.1124  0.0782
   33MOL0     C 4428   6.302   0.106  10.923  0.0682  0.0494  0.7489
   33MOL0     C 4429   6.288   0.119  11.073  0.4566 -0.1860 -0.2054
   33MOL0     C 4430   6.414   0.124  11.139  0.0578  0.0369 -0.1612
   33MOL0     C 4431   6.410   0.170  11.287 -0.5939  0.0902 -0.2391
   33MOL0     C 4432   6.356   0.070  11.378  0.4919  0.3411 -1.1338
   33MOL0     N 4433   6.459  -0.028  11.431 -0.1821  0.0697  1.3166
   33MOL0     C 4434   6.467  -0.162  11.382 -0.1009  0.2302  0.4797
   33MOL0     C 4435   6.572  -0.216  11.453  0.5166  0.0427 -0.6640
   33MOL0     C 4436   6.594  -0.365  11.446 -0.5433 -0.5639  0.4807
   33MOL0     C 4437   6.688  -0.412  11.556  0.0639  0.2114  0.0399
   33MOL0     C 4438   6.751  -0.560  11.536  0.5409  0.0561 -0.0186
   33MOL0     C 4439   6.868  -0.564  11.436 -0.3456  0.3248 -0.0836
   33MOL0     O 4440   6.983  -0.495  11.479  0.0736 -0.2674  0.1029
   33MOL0     C 4441   7.093  -0.561  11.514 -0.2023 -0.6694 -0.5258
   33MOL0     C 4442   7.090  -0.664  11.607 -0.3006 -0.0584  0.2900
   33MOL0     C 4443   7.212  -0.728  11.645  0.5286  0.3059  0.7340
   33MOL0     C 4444   7.203  -0.861  11.726 -0.0829 -1.9786 -0.0639
   33MOL0     C 4445   7.331  -0.679  11.588  0.2479  0.7404 -0.0653
   33MOL0     C 4446   7.468  -0.735  11.630  0.1802  0.6134 -0.0474
   33MOL0     O 4447   7.480  -0.763  11.764 -0.7662  0.6274  0.3859
   33MOL0     C 4448   7.604  -0.790  11.811 -0.0352 -0.3447  0.6818
   33MOL0     C 4449   7.668  -0.915  11.787  0.4609 -0.3312 -0.2366
   33MOL0     C 4450   7.796  -0.936  11.832  0.5065  0.1950  1.1824
   33MOL0     C 4451   7.871  -0.831  11.885 -0.2153 -0.5659 -0.6164
   33MOL0     O 4452   7.992  -0.829  11.936 -0.7246  0.9749 -0.2721
   33MOL0     C 4453   8.046  -0.960  11.988 -0.4218  0.6648  0.2383
   33MOL0     C 4454   8.187  -0.941  12.042  0.0930 -0.2845 -0.3320
   33MOL0     C 4455   8.275  -1.067  12.035 -0.8189 -0.0135 -0.6961
   33MOL0     C 4456   8.215  -1.185  12.116 -0.7690  0.9501  0.6777
   33MOL0     C 4457   8.317  -1.298  12.130 -0.4035  0.3161 -0.3987
   33MOL0     C 4458   8.419  -1.278  12.242  0.0152  0.4888 -0.6276
   33MOL0     C 4459   8.486  -1.419  12.273  0.0968 -0.3354 -0.3033
   33MOL0     C 4460   8.621  -1.406  12.330  1.0867  0.0584 -0.7312
   33MOL0    Cl 4461   8.662  -1.556  12.389 -0.0990  0.3752  0.3503
   33MOL0     C 4462   7.813  -0.709  11.909 -0.5959  0.2328  0.3250
   33MOL0     C 4463   7.682  -0.687  11.870  0.2356 -0.4070  0.5926
   33MOL0     O 4464   7.566  -0.719  11.550 -0.0601  1.2955  0.3459
   33MOL0     C 4465   7.337  -0.568  11.500 -0.0864  0.3542 -0.1061
   33MOL0     C 4466   7.217  -0.504  11.465  0.3078 -0.0333 -0.1921
   33MOL0     N 4467   6.628  -0.112  11.534  0.1365 -0.0022 -0.6063
   33MOL0     N 4468   6.559  -0.003  11.520  0.2330 -1.1149 -0.1498
   33MOL0     C 4469   6.064   0.227  10.291  0.1063 -0.2506 -0.0592
   33MOL0     C 4470   6.006   0.325  10.208 -0.1733  0.2926 -0.5471
   33MOL0     C 4471   5.854   0.780  10.159  0.4989  0.3591 -0.2675
   33MOL0     C 4472   5.774   0.750  10.048 -0.3751 -0.7771 -0.1619
   33MOL0     C 4473   5.726   0.845   9.961 -0.4479 -0.5728  0.2610
   33MOL0     C 4474   5.749   0.982   9.989 -0.0457 -0.0644 -0.6047
   33MOL0     O 4475   5.706   1.073   9.901  0.4214 -0.1064  0.2814
   33MOL0     C 4476   5.653   1.200   9.941  0.2505 -0.3337 -0.3720
   33MOL0     C 4477   5.500   1.192   9.979 -0.8099 -0.8297  0.3882
   33MOL0     C 4478   5.422   1.109   9.873  0.5111  0.9788  0.4244
   33MOL0     C 4479   5.271   1.100   9.906 -0.5558  0.6393  0.4934
   33MOL0     C 4480   5.243   1.016  10.027 -0.8606  0.0426 -0.1842
   33MOL0     C 4481   5.229   0.959  10.134 -0.1793 -0.1728  1.1639
   33MOL0     C 4482   5.838   1.006  10.099  0.1045  0.4541 -0.0272
   33MOL0     C 4483   5.885   0.909  10.187  0.3853  0.0811  0.9241
   33MOL0     C 4484   5.984   0.960  10.282  0.6749 -0.0445  0.3947
   33MOL0     H 4485   6.133   0.612  10.354 -2.0716  1.2582  1.6451
   33MOL0     H 4486   6.242   0.443  10.493 -0.9269  0.2930  1.6249
   33MOL0     H 4487   6.090   0.249  10.652  0.3529  1.5263 -2.4466
   33MOL0     H 4488   6.261   0.260  10.684  1.6022 -2.0804  0.4283
   33MOL0     H 4489   6.111  -0.003  10.662 -1.8740 -0.3474  4.6521
   33MOL0     H 4490   6.286   0.014  10.678  1.8639  2.4341  2.4455
   33MOL0     H 4491   6.091   0.112  10.895  1.1024  0.1413  1.6442
   33MOL0     H 4492   6.153  -0.052  10.874  1.2056 -0.4485 -0.4856
   33MOL0     H 4493   6.388   0.044  10.896  0.9759  0.5254  2.4079
   33MOL0     H 4494   6.328   0.204  10.882  1.8539 -1.4417 -1.9858
   33MOL0     H 4495   6.235   0.030  11.107  0.6835 -0.3952 -0.4007
   33MOL0     H 4496   6.215   0.197  11.099 -0.2525 -0.3496 -1.5980
   33MOL0     H 4497   6.467   0.029  11.137  1.7787  0.9659 -0.4401
   33MOL0     H 4498   6.481   0.195  11.090  2.1744 -0.9245  1.1986
   33MOL0     H 4499   6.354   0.263  11.300  1.8925  1.5062  1.1882
   33MOL0     H 4500   6.512   0.195  11.321 -0.4266  1.5417 -1.6837
   33MOL0     H 4501   6.305   0.119  11.461 -1.6259 -2.4042 -0.6847
   33MOL0     H 4502   6.279   0.016  11.322  0.7982 -1.9474  0.4666
   33MOL0     H 4503   6.403  -0.209  11.308  1.6397 -0.6371 -0.5709
   33MOL0     H 4504   6.637  -0.400  11.352  0.4001  1.3894  0.1260
   33MOL0     H 4505   6.500  -0.417  11.468 -1.7103  1.1708 -0.1297
   33MOL0     H 4506   6.773  -0.343  11.557  0.3398 -0.1164 -0.2009
   33MOL0     H 4507   6.646  -0.411  11.657  2.6208 -1.7127  1.2570
   33MOL0     H 4508   6.783  -0.597  11.634  2.3948 -1.7660 -1.2203
   33MOL0     H 4509   6.671  -0.617  11.488 -0.3197  1.2093 -0.0063
   33MOL0     H 4510   6.889  -0.666  11.401 -0.5306  1.0827 -2.5451
   33MOL0     H 4511   6.844  -0.501  11.350  1.3584 -1.2147 -1.7758
   33MOL0     H 4512   6.995  -0.689  11.654  0.8977 -0.3599  2.6953
   33MOL0     H 4513   7.245  -0.831  11.823  1.5534  0.9422 -1.5128
   33MOL0     H 4514   7.261  -0.935  11.671 -1.7654 -2.3327 -1.4252
   33MOL0     H 4515   7.100  -0.897  11.737 -1.7870  2.0555 -0.7124
   33MOL0     H 4516   7.616  -0.995  11.735  0.2815 -0.2805 -0.1360
   33MOL0     H 4517   7.852  -1.029  11.830  0.9217  0.3441  3.3898
   33MOL0     H 4518   7.978  -1.001  12.063 -1.1299  4.7570  2.0943
   33MOL0     H 4519   8.061  -1.036  11.911  0.8882 -0.0339  1.1363
   33MOL0     H 4520   8.232  -0.858  11.988 -0.7030  1.1231  1.0934
   33MOL0     H 4521   8.172  -0.912  12.146 -2.2273  0.7253 -0.8910
   33MOL0     H 4522   8.376  -1.046  12.073 -0.7005 -0.6071 -0.6775
   33MOL0     H 4523   8.283  -1.104  11.933  1.6213 -4.1323  0.7549
   33MOL0     H 4524   8.135  -1.230  12.056  1.5681 -4.0675  0.7621
   33MOL0     H 4525   8.164  -1.169  12.211 -1.4684  3.3601 -0.0310
   33MOL0     H 4526   8.265  -1.394  12.146 -2.7983  1.5874 -0.0657
   33MOL0     H 4527   8.367  -1.300  12.033 -1.0636  0.1599 -0.7423
   33MOL0     H 4528   8.357  -1.262  12.331  0.4719 -2.9820  0.4622
   33MOL0     H 4529   8.485  -1.194  12.217 -1.6244  2.0051 -0.0953
   33MOL0     H 4530   8.488  -1.478  12.180 -0.4819 -0.6345 -0.1342
   33MOL0     H 4531   8.415  -1.472  12.337 -0.0535  1.9925  1.5691
   33MOL0     H 4532   8.615  -1.341  12.418  1.4675 -0.6081 -0.2022
   33MOL0     H 4533   8.692  -1.376  12.252  1.3358  2.5438  0.3516
   33MOL0     H 4534   7.865  -0.628  11.958 -1.2311  1.5610 -1.0939
   33MOL0     H 4535   7.638  -0.591  11.895 -2.2578 -1.4826  0.6236
   33MOL0     H 4536   7.430  -0.523  11.466 -1.2041  1.1767 -2.2529
   33MOL0     H 4537   7.227  -0.427  11.390  1.5356  2.2047  2.0941
   33MOL0     H 4538   6.043   0.122  10.278  0.7047 -0.7138  2.2441
   33MOL0     H 4539   5.948   0.309  10.117 -1.2146 -0.0440  0.1597
   33MOL0     H 4540   5.753   0.644  10.035 -1.6789 -0.3927 -1.5803
   33MOL0     H 4541   5.670   0.801   9.879 -0.8443 -1.3328  0.9318
   33MOL0     H 4542   5.702   1.238  10.031  3.2074 -0.4929 -1.8069
   33MOL0     H 4543   5.657   1.267   9.855 -4.8084  0.6593 -0.1931
   33MOL0     H 4544   5.454   1.287  10.009 -0.4676 -1.1116  1.8998
   33MOL0     H 4545   5.488   1.132  10.069 -1.5447 -0.1199  0.7730
   33MOL0     H 4546   5.441   1.157   9.776 -0.6531 -0.6228 -0.6398
   33MOL0     H 4547   5.465   1.009   9.862 -0.6234  0.2993  1.8217
   33MOL0     H 4548   5.218   1.060   9.819  3.1438  1.6123 -2.5017
   33MOL0     H 4549   5.238   1.201   9.931  2.4846  1.8303  0.1339
   33MOL0     H 4550   5.221   0.892  10.217  1.9816  0.3048  1.8089
   33MOL0     H 4551   5.857   1.110  10.123 -1.0155  0.4635  0.9290
   33MOL0     H 4552   5.997   1.069  10.279 -2.6413  0.4236 -0.6975
   33MOL0     H 4553   5.975   0.920  10.383 -2.1660 -0.2856  0.1052
   33MOL0     H 4554   6.084   0.923  10.256  0.8396 -0.7648  1.9120
   34MOL0     O 4555  11.456   2.729   9.587  0.2040 -0.0075 -0.4051
   34MOL0     C 4556  11.370   2.749   9.495  0.2082  0.7201 -0.6603
   34MOL0     O 4557  11.400   2.754   9.360  0.5246  0.3085 -0.0102
   34MOL0     C 4558  11.526   2.755   9.312 -0.2970 -0.5342  0.2577
   34MOL0     C 4559  11.635   2.678   9.357  0.0221 -0.0543 -0.7614
   34MOL0     C 4560  11.754   2.669   9.292  0.0516 -0.0577  0.1922
   34MOL0     C 4561  11.772   2.749   9.180 -0.1508 -0.0408 -0.0896
   34MOL0     O 4562  11.888   2.747   9.112 -0.2196 -0.5313  0.4250
   34MOL0     C 4563  11.990   2.653   9.142 -0.1182 -0.2767  0.4407
   34MOL0     C 4564  12.094   2.673   9.023 -0.4048  0.1688  0.0353
   34MOL0     C 4565  12.161   2.806   9.018 -0.2987 -0.6123 -0.8828
   34MOL0     C 4566  12.288   2.796   8.935  0.7055  0.2479  0.6449
   34MOL0     C 4567  12.280   2.777   8.787 -0.1560 -0.0178  0.0744
   34MOL0     C 4568  12.375   2.663   8.740 -0.6213 -0.4898  0.0706
   34MOL0     C 4569  12.397   2.656   8.585 -0.4799 -0.1736  0.2383
   34MOL0     C 4570  12.290   2.613   8.500  0.4825  0.7575 -0.3161
   34MOL0     N 4571  12.257   2.469   8.521 -0.4675  0.7931  0.4894
   34MOL0     C 4572  12.156   2.428   8.614  0.7857  0.1560 -0.2948
   34MOL0     C 4573  12.166   2.297   8.599 -0.8839  0.4694 -0.6301
   34MOL0     C 4574  12.104   2.192   8.683  0.7541  0.5416 -0.4944
   34MOL0     C 4575  12.144   2.195   8.830  0.4213 -0.0213 -0.4181
   34MOL0     C 4576  12.279   2.133   8.871 -0.0365 -0.8087  0.6578
   34MOL0     C 4577  12.398   2.198   8.796 -0.6679 -0.0675  0.3278
   34MOL0     O 4578  12.522   2.175   8.871  0.6269  0.6174  0.6868
   34MOL0     C 4579  12.641   2.221   8.817  0.3110  0.1125  0.7498
   34MOL0     C 4580  12.657   2.302   8.702 -0.1961  0.7296  0.3348
   34MOL0     C 4581  12.784   2.321   8.647 -0.5994 -0.1435 -0.8538
   34MOL0     C 4582  12.797   2.413   8.523 -0.0585 -1.1423  0.0359
   34MOL0     C 4583  12.903   2.268   8.710  0.1668 -0.1766  0.0026
   34MOL0     C 4584  13.037   2.261   8.642  0.5327 -0.3930 -0.1376
   34MOL0     O 4585  13.143   2.278   8.719 -0.3938 -0.1966 -0.5792
   34MOL0     C 4586  13.264   2.304   8.671 -0.6932 -0.1581 -0.3487
   34MOL0     C 4587  13.308   2.337   8.542  0.5849 -0.2620  0.0072
   34MOL0     C 4588  13.444   2.373   8.506  0.0921 -0.1116  0.1111
   34MOL0     C 4589  13.540   2.373   8.606  0.6651 -1.3733  0.4997
   34MOL0     O 4590  13.662   2.410   8.563  0.2560  0.1485  0.3386
   34MOL0     C 4591  13.769   2.407   8.654 -0.3980  0.2026  0.4050
   34MOL0     C 4592  13.881   2.475   8.584  0.0193 -0.0104  0.2988
   34MOL0     C 4593  14.015   2.439   8.649  0.3521 -0.6180  0.1422
   34MOL0     C 4594  14.043   2.285   8.636  0.1102 -0.1919  0.2043
   34MOL0     C 4595  14.176   2.244   8.726 -0.4418 -0.6488  0.2098
   34MOL0     C 4596  14.211   2.099   8.705  0.4846 -0.3896  0.7558
   34MOL0     C 4597  14.298   2.051   8.823 -0.8113  0.9578  0.1575
   34MOL0     C 4598  14.405   1.951   8.778 -0.3271  0.1361 -0.3524
   34MOL0    Cl 4599  14.329   1.801   8.716  0.1204  0.5352  0.0046
   34MOL0     C 4600  13.507   2.338   8.738  1.0074  0.0515  0.4567
   34MOL0     C 4601  13.371   2.296   8.763  0.5217 -0.2311 -0.7167
   34MOL0     O 4602  13.033   2.242   8.516 -0.6984  0.2925 -0.5887
   34MOL0     C 4603  12.886   2.205   8.834 -0.0376 -0.3174  0.1140
   34MOL0     C 4604  12.757   2.181   8.884  0.1578  0.1542  0.0706
   34MOL0     N 4605  12.264   2.262   8.494  0.3095  0.4695 -0.1268
   34MOL0     N 4606  12.313   2.369   8.444  0.1555  0.6630 -0.3252
   34MOL0     C 4607  11.669   2.831   9.129 -0.2308  0.3623 -0.2220
   34MOL0     C 4608  11.550   2.830   9.197 -0.3557  0.4705  0.3498
   34MOL0     C 4609  11.227   2.735   9.534  1.5939 -1.1380 -0.2217
   34MOL0     C 4610  11.130   2.732   9.436 -0.1849  0.0282 -0.0622
   34MOL0     C 4611  10.993   2.707   9.462 -0.3838  0.0187 -0.1061
   34MOL0     C 4612  10.948   2.704   9.596 -0.6460  0.8041 -0.4551
   34MOL0     O 4613  10.817   2.690   9.616  0.3748 -0.2935  0.1420
   34MOL0     C 4614  10.776   2.664   9.745 -0.2468 -0.7675  0.0486
   34MOL0     C 4615  10.636   2.596   9.749 -0.1319  0.1458 -0.3155
   34MOL0     C 4616  10.631   2.454   9.711 -0.1473  0.2385 -0.2365
   34MOL0     C 4617  10.608   2.425   9.561 -0.3693 -0.1533  0.6877
   34MOL0     C 4618  10.571   2.286   9.543  0.1360 -0.5876 -0.1553
   34MOL0     C 4619  10.546   2.169   9.535  0.1209  0.0724  0.3444
   34MOL0     C 4620  11.051   2.708   9.700 -0.2022  0.0072  0.0203
   34MOL0     C 4621  11.182   2.737   9.667 -0.1510 -0.0528 -0.5117
   34MOL0     C 4622  11.267   2.769   9.786  0.3979  0.0973 -0.5817
   34MOL0     H 4623  11.621   2.618   9.446 -2.1310 -1.6998 -2.0882
   34MOL0     H 4624  11.841   2.622   9.337 -0.3117  0.1231  1.1112
   34MOL0     H 4625  11.965   2.547   9.143  1.7685 -0.7557  0.6514
   34MOL0     H 4626  12.040   2.674   9.237 -0.2214  1.6887  0.1030
   34MOL0     H 4627  12.171   2.601   9.049  1.3546  1.5048 -1.1939
   34MOL0     H 4628  12.056   2.645   8.924 -0.7380  1.3548 -0.2015
   34MOL0     H 4629  12.100   2.891   8.984 -2.0677 -1.1940  0.6388
   34MOL0     H 4630  12.203   2.838   9.115 -2.2888  2.4025 -0.8596
   34MOL0     H 4631  12.346   2.887   8.949  0.1626  0.7741 -0.4808
   34MOL0     H 4632  12.342   2.709   8.975  1.2692 -0.2244 -1.0763
   34MOL0     H 4633  12.306   2.869   8.735 -1.8480  1.4269  1.6461
   34MOL0     H 4634  12.179   2.744   8.763  0.3177  0.0917 -2.2640
   34MOL0     H 4635  12.479   2.691   8.763  1.1105 -0.3236 -6.2403
   34MOL0     H 4636  12.352   2.573   8.798 -0.0206  1.1646  3.1457
   34MOL0     H 4637  12.485   2.591   8.579  0.9724  1.7256 -0.0527
   34MOL0     H 4638  12.431   2.756   8.554  2.5610 -0.6910  1.4875
   34MOL0     H 4639  12.207   2.679   8.523  1.0354  1.2950  0.1781
   34MOL0     H 4640  12.319   2.624   8.395 -1.5054  1.4249 -0.8346
   34MOL0     H 4641  12.094   2.495   8.673 -0.4769 -1.3117  0.1220
   34MOL0     H 4642  12.130   2.091   8.650  3.0071  1.3082 -1.2901
   34MOL0     H 4643  11.995   2.198   8.679  0.5077 -2.5893 -1.2348
   34MOL0     H 4644  12.135   2.296   8.871 -1.0943 -0.2534 -0.1092
   34MOL0     H 4645  12.062   2.139   8.876 -0.6857 -0.4588 -2.7752
   34MOL0     H 4646  12.305   2.146   8.977  3.8441  0.8741 -0.3546
   34MOL0     H 4647  12.259   2.032   8.834 -0.2514 -0.1967 -0.9353
   34MOL0     H 4648  12.387   2.136   8.706 -3.8611 -1.7197  1.6880
   34MOL0     H 4649  12.382   2.304   8.778  1.1233 -0.1300 -2.1993
   34MOL0     H 4650  12.568   2.341   8.653  1.1902  2.5928 -0.8568
   34MOL0     H 4651  12.783   2.359   8.429  0.6103 -0.7986 -0.2720
   34MOL0     H 4652  12.884   2.480   8.528 -0.9519  0.1526 -1.0729
   34MOL0     H 4653  12.716   2.485   8.527  0.8452  0.0160 -1.4649
   34MOL0     H 4654  13.241   2.333   8.456 -0.7035 -0.3753  0.9919
   34MOL0     H 4655  13.464   2.396   8.402 -4.4391 -0.0428 -0.9755
   34MOL0     H 4656  13.745   2.456   8.749 -1.0072 -0.8622  0.8233
   34MOL0     H 4657  13.787   2.301   8.673 -2.0303  0.0202  1.0730
   34MOL0     H 4658  13.886   2.447   8.479 -1.7657 -0.6845  0.3564
   34MOL0     H 4659  13.859   2.582   8.594  1.7832  0.4001  0.0830
   34MOL0     H 4660  14.012   2.468   8.754 -3.3301  0.2128 -0.0619
   34MOL0     H 4661  14.094   2.488   8.589 -1.8581  0.4114 -2.1225
   34MOL0     H 4662  14.066   2.258   8.533  0.8849  1.2278 -0.0132
   34MOL0     H 4663  13.959   2.221   8.665 -1.9422  1.2122 -2.2669
   34MOL0     H 4664  14.262   2.306   8.699 -1.7148 -0.1873 -3.3345
   34MOL0     H 4665  14.146   2.255   8.831  2.4323  3.9757  0.8182
   34MOL0     H 4666  14.267   2.098   8.611  0.6712  0.3955  0.8481
   34MOL0     H 4667  14.121   2.041   8.682 -0.0245  0.5694  0.2840
   34MOL0     H 4668  14.238   2.004   8.901  2.6895 -0.1286  2.4071
   34MOL0     H 4669  14.349   2.135   8.871  0.4083 -0.9898  2.5080
   34MOL0     H 4670  14.456   1.923   8.870 -0.4650  2.2076  0.4083
   34MOL0     H 4671  14.481   1.998   8.714 -0.0918  0.7330  0.3440
   34MOL0     H 4672  13.578   2.346   8.820 -1.3092  0.8815  2.4940
   34MOL0     H 4673  13.349   2.258   8.863 -2.8254 -0.6452 -1.5127
   34MOL0     H 4674  12.968   2.164   8.892  1.0584  1.2396 -0.2692
   34MOL0     H 4675  12.733   2.121   8.971  1.5175 -0.0741  0.3063
   34MOL0     H 4676  11.688   2.896   9.045 -0.7210  0.8580  0.0463
   34MOL0     H 4677  11.471   2.892   9.154 -1.5276 -0.6430  0.8195
   34MOL0     H 4678  11.143   2.728   9.328 -0.9202 -2.1232 -0.1132
   34MOL0     H 4679  10.924   2.681   9.383 -1.4241  0.8395  0.5026
   34MOL0     H 4680  10.841   2.599   9.804 -1.9226 -0.1763  2.6921
   34MOL0     H 4681  10.774   2.759   9.799  3.2218  1.2910 -3.0053
   34MOL0     H 4682  10.574   2.664   9.691  1.7345  2.8674  0.6595
   34MOL0     H 4683  10.598   2.595   9.852 -1.0428 -0.7636 -0.6414
   34MOL0     H 4684  10.718   2.396   9.741 -1.7594 -1.2602  1.8736
   34MOL0     H 4685  10.545   2.419   9.769  0.0858  2.5763  1.6480
   34MOL0     H 4686  10.684   2.467   9.494  1.0020 -1.0855  1.5953
   34MOL0     H 4687  10.514   2.473   9.532 -0.9371 -1.4378  0.3545
   34MOL0     H 4688  10.504   2.071   9.526 -1.8688  0.8808  0.4124
   34MOL0     H 4689  11.014   2.711   9.802 -0.1694  2.0586  0.0073
   34MOL0     H 4690  11.217   2.790   9.882  2.8997  1.3503  0.5404
   34MOL0     H 4691  11.346   2.694   9.799 -0.1653 -0.2870  0.8242
   34MOL0     H 4692  11.305   2.871   9.768 -0.9728  0.9926  1.1967
   35MOL0     O 4693   4.112   4.968   5.285  0.3267 -0.3187  0.5384
   35MOL0     C 4694   4.071   4.874   5.349 -0.0249 -0.6280  0.7839
   35MOL0     O 4695   3.945   4.855   5.382  1.9354  0.2361  0.5112
   35MOL0     C 4696   3.838   4.927   5.344  1.2011 -1.5824  0.0853
   35MOL0     C 4697   3.728   4.928   5.424 -0.6289  0.2468 -0.3568
   35MOL0     C 4698   3.608   5.000   5.388 -0.6977  0.3633 -0.0980
   35MOL0     C 4699   3.597   5.051   5.267  0.2218 -0.4576 -0.2847
   35MOL0     O 4700   3.477   5.114   5.237  0.0814  0.9204 -0.0797
   35MOL0     C 4701   3.476   5.257   5.257 -0.1019 -0.7277  0.7718
   35MOL0     C 4702   3.354   5.323   5.209  0.1598 -0.4040 -0.7647
   35MOL0     C 4703   3.364   5.472   5.198  0.2955  0.4025  0.0822
   35MOL0     C 4704   3.223   5.543   5.190  0.6302  0.3333  0.2663
   35MOL0     C 4705   3.236   5.691   5.182  0.5630  0.0436  0.4619
   35MOL0     C 4706   3.094   5.759   5.193 -0.3750 -0.1263 -0.2345
   35MOL0     C 4707   3.124   5.914   5.190  0.5046 -0.1125  0.8133
   35MOL0     C 4708   2.987   5.984   5.155 -1.4259 -0.2400 -0.0850
   35MOL0     N 4709   2.949   5.950   5.016 -0.1082 -0.0803 -0.2112
   35MOL0     C 4710   3.016   5.965   4.905 -0.0458 -1.4157  2.1930
   35MOL0     C 4711   2.923   5.938   4.807  0.1530 -0.2485 -1.0763
   35MOL0     C 4712   2.950   5.913   4.664  0.1169  0.0946 -1.2216
   35MOL0     C 4713   2.993   6.043   4.597  0.1821  0.0623 -0.4353
   35MOL0     C 4714   2.871   6.114   4.550  0.2925 -0.0309  0.7965
   35MOL0     C 4715   2.834   6.059   4.412  0.0999 -0.6721 -0.0119
   35MOL0     O 4716   2.914   6.127   4.311  0.0322 -0.7128  0.0713
   35MOL0     C 4717   2.851   6.167   4.197 -0.7233 -0.4035  0.8102
   35MOL0     C 4718   2.747   6.257   4.214 -0.6771 -0.1946 -0.9877
   35MOL0     C 4719   2.685   6.303   4.105  0.3832  0.7745 -0.3482
   35MOL0     C 4720   2.564   6.394   4.131 -0.2528 -0.3122 -0.2401
   35MOL0     C 4721   2.722   6.272   3.974  0.4232 -0.3169 -0.6420
   35MOL0     C 4722   2.638   6.305   3.860 -0.2250 -0.6941  0.0353
   35MOL0     O 4723   2.610   6.438   3.835 -0.5561  0.2021  0.3024
   35MOL0     C 4724   2.550   6.468   3.717 -0.7847  0.1119  0.0518
   35MOL0     C 4725   2.411   6.455   3.707 -0.6640 -0.3588 -0.3586
   35MOL0     C 4726   2.341   6.504   3.591  0.3112 -0.2156 -0.0272
   35MOL0     C 4727   2.418   6.539   3.474  0.0331 -0.6791  0.2777
   35MOL0     O 4728   2.368   6.581   3.353  0.0482  0.0718  0.1461
   35MOL0     C 4729   2.247   6.497   3.327  0.2778 -0.1392 -0.0290
   35MOL0     C 4730   2.198   6.522   3.177  0.1269  0.0769 -0.2450
   35MOL0     C 4731   2.111   6.405   3.128  0.2333 -0.1116  0.5822
   35MOL0     C 4732   1.972   6.406   3.191 -0.2552 -0.3200  0.5417
   35MOL0     C 4733   1.912   6.268   3.208  0.9779 -0.1251 -0.1144
   35MOL0     C 4734   1.821   6.253   3.330  0.4438  0.5720 -0.0514
   35MOL0     C 4735   1.752   6.117   3.357 -0.6696 -0.9583  1.4927
   35MOL0     C 4736   1.703   6.103   3.498  0.5671 -0.3325 -0.6245
   35MOL0    Cl 4737   1.535   6.147   3.502 -0.4970 -0.3882 -0.2049
   35MOL0     C 4738   2.556   6.536   3.488  0.0934  0.1501  0.5235
   35MOL0     C 4739   2.620   6.497   3.603  0.1079 -0.4573 -0.3774
   35MOL0     O 4740   2.593   6.209   3.795 -0.2833  0.0625  0.3359
   35MOL0     C 4741   2.815   6.177   3.962  0.3829  0.4571  0.8131
   35MOL0     C 4742   2.882   6.111   4.070  0.2065 -0.4289 -0.3500
   35MOL0     N 4743   2.803   5.912   4.860 -0.1030  0.1121 -0.3957
   35MOL0     N 4744   2.821   5.921   4.993  0.4194 -0.2086 -0.2505
   35MOL0     C 4745   3.711   5.051   5.180  0.7902  0.0214 -0.6079
   35MOL0     C 4746   3.829   4.994   5.216 -0.2392  0.5068 -0.2830
   35MOL0     C 4747   4.171   4.778   5.409  1.1605 -0.7586  0.9506
   35MOL0     C 4748   4.124   4.645   5.447  0.7252 -0.2835  0.1568
   35MOL0     C 4749   4.202   4.562   5.519  0.1552  0.5835 -0.0233
   35MOL0     C 4750   4.334   4.595   5.541 -0.6549  0.0122  0.1849
   35MOL0     O 4751   4.407   4.499   5.609  0.2283  0.1969 -0.3929
   35MOL0     C 4752   4.436   4.373   5.535  0.4713  0.0092  0.3761
   35MOL0     C 4753   4.558   4.310   5.616 -0.1287  0.6461 -0.1193
   35MOL0     C 4754   4.694   4.380   5.588 -0.2242 -0.1881 -0.7216
   35MOL0     C 4755   4.809   4.296   5.645 -0.4995  0.0066  0.3842
   35MOL0     C 4756   4.939   4.356   5.603  1.2846 -0.8528  0.4998
   35MOL0     C 4757   5.040   4.393   5.551  0.2266  0.0475 -0.3938
   35MOL0     C 4758   4.386   4.721   5.505  0.3300  0.3256 -0.6579
   35MOL0     C 4759   4.303   4.816   5.436  1.0129 -0.3125 -0.6671
   35MOL0     C 4760   4.377   4.943   5.412  0.5858  0.5705  0.1807
   35MOL0     H 4761   3.744   4.885   5.522  1.1223 -0.3693 -0.8802
   35MOL0     H 4762   3.529   5.011   5.462  0.4949  0.6001  1.1787
   35MOL0     H 4763   3.566   5.300   5.212 -0.9637 -0.6898 -1.0030
   35MOL0     H 4764   3.490   5.271   5.365 -0.5816 -0.7522  0.8376
   35MOL0     H 4765   3.323   5.280   5.113 -3.6048  0.2507 -0.0074
   35MOL0     H 4766   3.266   5.306   5.271  0.5017  0.5810 -0.0072
   35MOL0     H 4767   3.424   5.517   5.278  3.5523 -0.6844 -1.5464
   35MOL0     H 4768   3.417   5.495   5.105 -2.9402 -0.0055 -2.0312
   35MOL0     H 4769   3.168   5.505   5.104 -1.6894  0.0369  1.7825
   35MOL0     H 4770   3.159   5.522   5.277  1.0588 -1.1480  0.2442
   35MOL0     H 4771   3.287   5.715   5.088 -1.5996  0.6475 -0.6143
   35MOL0     H 4772   3.297   5.726   5.266  0.4073 -2.5599  1.7647
   35MOL0     H 4773   3.047   5.727   5.100  3.6792  0.9746 -2.9702
   35MOL0     H 4774   3.030   5.735   5.279 -0.5630  3.5320  0.8421
   35MOL0     H 4775   3.207   5.944   5.127 -2.9090  4.2161 -2.2878
   35MOL0     H 4776   3.153   5.947   5.290  1.3725 -2.5371  1.4253
   35MOL0     H 4777   2.906   5.961   5.224 -2.3471  0.6015 -0.8612
   35MOL0     H 4778   3.029   6.085   5.155 -2.1695  0.0783 -0.6653
   35MOL0     H 4779   3.122   5.974   4.885 -0.3210 -2.4859  0.0678
   35MOL0     H 4780   2.868   5.865   4.611  1.3217 -1.0718 -2.1078
   35MOL0     H 4781   3.022   5.830   4.663 -0.7373 -0.6610 -0.8546
   35MOL0     H 4782   3.050   6.110   4.661  0.0839 -3.0967  3.3622
   35MOL0     H 4783   3.071   6.019   4.524  2.9888  4.1122  0.9269
   35MOL0     H 4784   2.788   6.090   4.616 -0.2108 -0.0203  0.1790
   35MOL0     H 4785   2.898   6.220   4.559  3.6451 -0.9322  3.4373
   35MOL0     H 4786   2.857   5.952   4.404  1.7444 -0.2280 -2.3119
   35MOL0     H 4787   2.726   6.065   4.398 -0.1152 -0.4821  1.5745
   35MOL0     H 4788   2.723   6.288   4.315  1.2318 -1.0000 -0.2367
   35MOL0     H 4789   2.576   6.487   4.075 -1.7587 -1.2142 -2.1908
   35MOL0     H 4790   2.538   6.408   4.236 -0.3187 -1.8685 -0.0211
   35MOL0     H 4791   2.468   6.360   4.091 -0.7958 -0.0587  0.8194
   35MOL0     H 4792   2.361   6.414   3.794  0.7549  0.6867  0.9828
   35MOL0     H 4793   2.234   6.512   3.581  0.1406 -3.9241 -3.4064
   35MOL0     H 4794   2.268   6.392   3.345 -1.5838 -0.2461  1.7932
   35MOL0     H 4795   2.167   6.531   3.393  0.3368  1.2414 -0.6126
   35MOL0     H 4796   2.140   6.615   3.183  0.4124  0.2797 -0.6114
   35MOL0     H 4797   2.280   6.530   3.105 -0.9768  1.9360 -1.3790
   35MOL0     H 4798   2.163   6.309   3.137 -0.4791 -0.4171  1.6830
   35MOL0     H 4799   2.095   6.429   3.023 -2.0028 -2.2528  0.3517
   35MOL0     H 4800   1.909   6.464   3.123 -0.5829  0.0106  1.1163
   35MOL0     H 4801   1.979   6.452   3.290  1.6675  0.1563  0.2227
   35MOL0     H 4802   1.856   6.250   3.116 -0.3219  1.6818  0.2778
   35MOL0     H 4803   1.997   6.201   3.228 -0.4311 -2.0778 -0.4558
   35MOL0     H 4804   1.741   6.321   3.299 -0.2607 -0.5517 -0.7723
   35MOL0     H 4805   1.868   6.294   3.420  0.6762 -1.5149  0.8395
   35MOL0     H 4806   1.827   6.040   3.336 -0.8443 -0.4226 -1.4549
   35MOL0     H 4807   1.672   6.093   3.286  1.0622 -0.5290 -0.7127
   35MOL0     H 4808   1.766   6.161   3.565 -0.4708  0.6242 -0.4421
   35MOL0     H 4809   1.695   5.998   3.529 -0.8855  0.2964  1.4081
   35MOL0     H 4810   2.612   6.583   3.408  0.8954 -0.4839  0.6982
   35MOL0     H 4811   2.728   6.491   3.604  0.0700 -1.8684 -1.5955
   35MOL0     H 4812   2.853   6.145   3.865 -1.2407  4.0925 -1.2260
   35MOL0     H 4813   2.960   6.037   4.054  0.7923 -0.4907  2.3228
   35MOL0     H 4814   3.701   5.090   5.079  0.5559  0.1223 -0.5455
   35MOL0     H 4815   3.909   4.981   5.143 -1.1748  0.0332 -1.2510
   35MOL0     H 4816   4.022   4.608   5.441  0.7302 -0.1674 -0.9118
   35MOL0     H 4817   4.155   4.479   5.570 -0.0984 -0.3150 -1.6571
   35MOL0     H 4818   4.342   4.319   5.523  0.9629 -0.6310 -0.7713
   35MOL0     H 4819   4.467   4.415   5.439 -1.3633  1.0915  0.2020
   35MOL0     H 4820   4.564   4.210   5.571 -1.8249  1.4697 -2.3372
   35MOL0     H 4821   4.534   4.293   5.721  0.3131  2.0278  0.2263
   35MOL0     H 4822   4.708   4.376   5.480 -0.4268 -0.1361 -0.7516
   35MOL0     H 4823   4.708   4.484   5.616 -1.4687 -0.8616  2.9844
   35MOL0     H 4824   4.804   4.196   5.602 -1.1628  1.5467 -3.5435
   35MOL0     H 4825   4.809   4.297   5.755 -0.3720 -2.2869  0.4445
   35MOL0     H 4826   5.126   4.434   5.503 -1.3130  4.4531  0.1347
   35MOL0     H 4827   4.487   4.758   5.524 -0.6957  3.5354 -0.8909
   35MOL0     H 4828   4.482   4.953   5.439  1.5799  0.3319 -3.1154
   35MOL0     H 4829   4.372   4.950   5.303  1.6959 -1.1382 -0.0177
   35MOL0     H 4830   4.327   5.025   5.464  0.6534  0.0660  1.0605
   36MOL0     O 4831   7.853   3.887   6.601  0.2796  0.4428  0.1583
   36MOL0     C 4832   7.963   3.927   6.640 -0.3900 -0.5766  0.6241
   36MOL0     O 4833   8.041   3.871   6.730 -0.2125 -0.2767 -0.0497
   36MOL0     C 4834   8.013   3.746   6.782  0.5739  0.5108 -0.2425
   36MOL0     C 4835   7.967   3.734   6.913  0.3506  0.1737  0.0381
   36MOL0     C 4836   7.957   3.602   6.975 -0.5394 -0.3716 -0.1378
   36MOL0     C 4837   7.977   3.488   6.900 -0.8199  1.1377  0.7311
   36MOL0     O 4838   7.961   3.355   6.948 -0.2480 -0.8319  0.3397
   36MOL0     C 4839   7.903   3.346   7.078 -0.0537 -0.5470  0.2889
   36MOL0     C 4840   7.863   3.201   7.112  0.1412 -0.3788  0.5326
   36MOL0     C 4841   7.776   3.123   7.003 -0.2292  0.6199 -0.2670
   36MOL0     C 4842   7.703   2.996   7.049 -0.3369  0.0522  0.9381
   36MOL0     C 4843   7.606   2.932   6.956 -0.4337 -1.1123 -0.4768
   36MOL0     C 4844   7.670   2.916   6.813  0.7528  0.0855 -0.8783
   36MOL0     C 4845   7.616   3.031   6.724 -0.8346 -0.1039 -1.0730
   36MOL0     C 4846   7.675   3.026   6.588  0.3716  0.1127 -0.5899
   36MOL0     N 4847   7.813   3.055   6.570 -0.0018 -0.0443  0.2805
   36MOL0     C 4848   7.919   2.965   6.568  0.6387  0.2959 -0.8065
   36MOL0     C 4849   8.028   3.041   6.564  0.6318 -0.4003  0.0859
   36MOL0     C 4850   8.168   2.987   6.581 -0.7032 -0.5925 -0.2963
   36MOL0     C 4851   8.214   2.905   6.462  0.4955 -0.0988  0.4493
   36MOL0     C 4852   8.365   2.858   6.475 -0.2845 -0.2673  0.5328
   36MOL0     C 4853   8.406   2.755   6.369 -0.0696 -0.7426 -0.1475
   36MOL0     O 4854   8.332   2.775   6.247  0.1103  0.5201 -0.2908
   36MOL0     C 4855   8.378   2.868   6.166 -0.2320 -0.6664 -0.0980
   36MOL0     C 4856   8.294   2.902   6.059  0.5979  0.3031  0.4092
   36MOL0     C 4857   8.336   2.989   5.960  0.5034 -0.4127 -0.0954
   36MOL0     C 4858   8.243   3.014   5.847 -0.3076 -0.2140 -0.0642
   36MOL0     C 4859   8.458   3.057   5.961 -0.6831 -0.0728 -0.6144
   36MOL0     C 4860   8.503   3.158   5.871 -0.2560  0.0681 -0.1413
   36MOL0     O 4861   8.570   3.272   5.922 -0.4512  0.0217 -0.6974
   36MOL0     C 4862   8.567   3.394   5.862 -0.5293 -0.5452 -0.0503
   36MOL0     C 4863   8.478   3.493   5.891 -0.8669 -0.4441  0.0553
   36MOL0     C 4864   8.499   3.626   5.841  0.9770 -0.0627 -0.0040
   36MOL0     C 4865   8.615   3.659   5.775  0.9283 -0.3223  1.6727
   36MOL0     O 4866   8.624   3.790   5.743 -0.9061  1.5447 -0.8438
   36MOL0     C 4867   8.742   3.842   5.688  0.2314 -1.2961  0.6416
   36MOL0     C 4868   8.793   3.959   5.776 -0.2467 -0.0301  0.2095
   36MOL0     C 4869   8.837   3.900   5.910 -0.2820  0.8655  0.5980
   36MOL0     C 4870   8.949   3.786   5.916  0.2556  0.0392  0.5449
   36MOL0     C 4871   9.093   3.836   5.955  0.5319  0.0498  0.3130
   36MOL0     C 4872   9.150   3.933   5.850  0.0651  0.0053  0.7076
   36MOL0     C 4873   9.181   3.865   5.717  0.3120  0.3296 -0.6039
   36MOL0     C 4874   9.296   3.772   5.727 -0.5624  0.0145 -0.2810
   36MOL0    Cl 4875   9.320   3.703   5.562  0.1450 -0.0227 -0.0615
   36MOL0     C 4876   8.711   3.561   5.754 -0.2403  0.0437  1.3034
   36MOL0     C 4877   8.687   3.433   5.792 -0.1022  0.6845  0.1136
   36MOL0     O 4878   8.499   3.129   5.751  0.6346 -0.4306 -0.0351
   36MOL0     C 4879   8.547   3.027   6.070 -0.2322 -0.2751  0.1853
   36MOL0     C 4880   8.504   2.935   6.169 -0.2177 -0.0160 -0.2081
   36MOL0     N 4881   7.982   3.166   6.544 -0.8104  0.3909  0.3435
   36MOL0     N 4882   7.855   3.174   6.553 -0.8915 -0.1593  0.6955
   36MOL0     C 4883   8.031   3.508   6.768 -0.0028  0.1037 -0.7543
   36MOL0     C 4884   8.045   3.632   6.709  0.0590  0.2108 -0.1612
   36MOL0     C 4885   8.016   4.053   6.579 -0.0275  0.0156  0.0271
   36MOL0     C 4886   8.126   4.122   6.645 -0.8152 -0.0155 -0.1925
   36MOL0     C 4887   8.160   4.253   6.616  0.4708 -0.2058  1.0444
   36MOL0     C 4888   8.098   4.329   6.517 -0.3785  0.1004 -0.6403
   36MOL0     O 4889   8.149   4.450   6.506 -0.5710 -1.0074  0.4061
   36MOL0     C 4890   8.103   4.534   6.392  0.3505  0.1675 -0.2490
   36MOL0     C 4891   8.212   4.641   6.358  0.1597  0.9277  0.1096
   36MOL0     C 4892   8.163   4.734   6.240 -0.6625 -0.1703  0.6004
   36MOL0     C 4893   8.270   4.813   6.167 -0.0888  0.3782  0.7733
   36MOL0     C 4894   8.324   4.912   6.255  1.5187 -0.1957  0.7786
   36MOL0     C 4895   8.356   4.993   6.338 -0.1047  0.4249  0.0398
   36MOL0     C 4896   7.985   4.272   6.462 -0.0869  0.4894  0.3262
   36MOL0     C 4897   7.946   4.139   6.481  0.2019  0.5497 -0.4700
   36MOL0     C 4898   7.815   4.092   6.413 -0.2040 -1.1605  0.7625
   36MOL0     H 4899   7.941   3.821   6.971 -1.1018 -1.0904  1.3915
   36MOL0     H 4900   7.919   3.589   7.076  0.4436 -3.0249 -0.0206
   36MOL0     H 4901   7.813   3.408   7.081  1.3785  1.7529 -1.3206
   36MOL0     H 4902   7.972   3.390   7.149  0.9618  1.9847 -2.0655
   36MOL0     H 4903   7.949   3.135   7.125 -1.4327 -2.4555  0.9769
   36MOL0     H 4904   7.808   3.215   7.206 -1.9429 -0.1422 -0.6668
   36MOL0     H 4905   7.700   3.191   6.962 -2.1488 -0.9139  0.6034
   36MOL0     H 4906   7.843   3.100   6.919  2.2718 -0.9091  2.0086
   36MOL0     H 4907   7.780   2.921   7.069  0.2342 -0.1226 -1.6620
   36MOL0     H 4908   7.644   3.020   7.138 -2.9130  0.6129 -0.7991
   36MOL0     H 4909   7.516   2.995   6.953 -0.1092 -0.3475  2.5456
   36MOL0     H 4910   7.585   2.833   6.996  1.5195 -1.3150  0.1546
   36MOL0     H 4911   7.779   2.921   6.815  0.6764  2.1242 -0.1764
   36MOL0     H 4912   7.644   2.816   6.774  0.9802  0.2773 -1.5446
   36MOL0     H 4913   7.641   3.128   6.768  0.3421 -0.6459 -0.5247
   36MOL0     H 4914   7.507   3.024   6.717 -0.9121 -0.9398  0.6144
   36MOL0     H 4915   7.660   2.923   6.553 -4.3583  0.9164 -1.5635
   36MOL0     H 4916   7.612   3.084   6.520  0.7383 -1.2962 -2.2073
   36MOL0     H 4917   7.919   2.859   6.593 -0.0322  0.5080  0.1525
   36MOL0     H 4918   8.163   2.928   6.673 -0.6570  3.5519  2.6217
   36MOL0     H 4919   8.241   3.068   6.591 -4.1509  2.9973 -1.4962
   36MOL0     H 4920   8.148   2.820   6.445  1.0566  0.1302 -4.2070
   36MOL0     H 4921   8.199   2.967   6.373  1.8013 -4.2025 -2.9555
   36MOL0     H 4922   8.430   2.946   6.465  1.1222 -1.3706 -0.4326
   36MOL0     H 4923   8.390   2.817   6.574  0.5491  3.1037  1.8576
   36MOL0     H 4924   8.514   2.755   6.355 -0.0313  2.1646 -0.3963
   36MOL0     H 4925   8.386   2.657   6.413  0.5356 -0.2979  1.1676
   36MOL0     H 4926   8.196   2.855   6.057  1.8145 -2.4540 -2.1040
   36MOL0     H 4927   8.145   2.968   5.867 -0.1923 -0.4137  0.0409
   36MOL0     H 4928   8.297   2.970   5.763 -1.5922  0.6950 -1.4277
   36MOL0     H 4929   8.226   3.121   5.830 -0.9354 -0.0134  1.6714
   36MOL0     H 4930   8.385   3.475   5.945 -1.1973 -0.7957 -0.6181
   36MOL0     H 4931   8.420   3.699   5.860  0.1288 -1.1678  0.8232
   36MOL0     H 4932   8.835   3.790   5.662  1.8936  3.0528 -3.5883
   36MOL0     H 4933   8.711   3.880   5.590  1.1686  1.5505  1.3376
   36MOL0     H 4934   8.880   4.001   5.724 -1.8284  2.0098 -0.9036
   36MOL0     H 4935   8.714   4.034   5.777 -1.2232 -0.9636 -1.3804
   36MOL0     H 4936   8.748   3.856   5.955 -1.2790  1.5512 -0.6216
   36MOL0     H 4937   8.875   3.980   5.975  0.2538 -0.0409  1.4164
   36MOL0     H 4938   8.952   3.741   5.816 -0.8194  0.7814  0.1535
   36MOL0     H 4939   8.925   3.710   5.992 -1.8597  0.7138  0.6022
   36MOL0     H 4940   9.089   3.891   6.049  1.9244 -0.3077  0.5996
   36MOL0     H 4941   9.164   3.754   5.970  1.9581  1.2106  0.1750
   36MOL0     H 4942   9.243   3.960   5.901  0.8277 -2.0044  0.4665
   36MOL0     H 4943   9.090   4.022   5.829  2.5158  1.5921  0.0906
   36MOL0     H 4944   9.204   3.941   5.641 -1.2168  2.2545  0.7298
   36MOL0     H 4945   9.092   3.818   5.676 -0.8511 -1.2093  3.2368
   36MOL0     H 4946   9.283   3.692   5.800 -3.2681  2.3864  2.0752
   36MOL0     H 4947   9.380   3.829   5.767 -1.6588  1.7440 -0.3128
   36MOL0     H 4948   8.805   3.580   5.704  1.4769 -4.2202  2.5246
   36MOL0     H 4949   8.769   3.362   5.789 -1.9790 -1.7343  1.7186
   36MOL0     H 4950   8.643   3.077   6.076 -2.0255  3.8720 -1.6555
   36MOL0     H 4951   8.572   2.898   6.246 -0.2002 -0.9359 -0.6477
   36MOL0     H 4952   8.057   3.425   6.705  4.1716  1.3639 -0.9635
   36MOL0     H 4953   8.080   3.635   6.606 -1.3376  2.1619 -0.6485
   36MOL0     H 4954   8.182   4.064   6.718  0.4424 -0.4800 -1.4753
   36MOL0     H 4955   8.240   4.309   6.664  1.1680 -0.9060  0.7157
   36MOL0     H 4956   8.096   4.474   6.301  1.8887  1.3423 -1.1891
   36MOL0     H 4957   8.006   4.576   6.423  1.3429  0.0191  3.6237
   36MOL0     H 4958   8.301   4.583   6.332  0.1806  1.1133 -0.2413
   36MOL0     H 4959   8.232   4.703   6.446 -1.5791  0.7826  0.6453
   36MOL0     H 4960   8.109   4.685   6.158  0.0736  0.6775 -0.4209
   36MOL0     H 4961   8.095   4.808   6.282  1.0909  2.0146 -0.2081
   36MOL0     H 4962   8.232   4.865   6.079  2.5198 -0.8950 -1.2332
   36MOL0     H 4963   8.348   4.741   6.139 -0.5047  0.3551 -0.3671
   36MOL0     H 4964   8.392   5.057   6.416 -1.6424 -0.0300  1.1730
   36MOL0     H 4965   7.934   4.313   6.375  1.3097  1.2940 -0.1382
   36MOL0     H 4966   7.781   4.170   6.344  0.9277 -0.0770  1.3829
   36MOL0     H 4967   7.843   4.008   6.349 -3.3603 -0.9576 -1.0787
   36MOL0     H 4968   7.731   4.084   6.483  0.2077  5.9832  2.9357
   37MOL0     O 4969  10.672   1.686   6.118  0.5596 -0.8400  0.6047
   37MOL0     C 4970  10.661   1.786   6.188 -0.4180  0.8338  0.2658
   37MOL0     O 4971  10.760   1.875   6.205 -0.8109  0.4907  0.0578
   37MOL0     C 4972  10.885   1.871   6.131  0.6787  0.0234 -0.7095
   37MOL0     C 4973  10.965   1.755   6.134  0.5038  0.1209  0.0696
   37MOL0     C 4974  11.080   1.755   6.047 -0.5106  0.9870 -0.1796
   37MOL0     C 4975  11.131   1.873   5.992 -1.0317 -0.5485  0.2833
   37MOL0     O 4976  11.253   1.894   5.928  0.5999  0.4754  0.0178
   37MOL0     C 4977  11.352   1.826   5.993 -0.1301  0.3510 -0.8552
   37MOL0     C 4978  11.386   1.902   6.132  0.1262  0.0880  0.3315
   37MOL0     C 4979  11.530   1.856   6.178  0.0903 -0.4508  0.9861
   37MOL0     C 4980  11.639   1.938   6.105 -0.1256 -0.4272  0.0857
   37MOL0     C 4981  11.771   1.899   6.169  0.5359  0.7508 -0.6862
   37MOL0     C 4982  11.870   1.990   6.093 -0.0322 -0.2646  0.4282
   37MOL0     C 4983  12.011   1.954   6.149 -0.0308 -1.0953 -0.2569
   37MOL0     C 4984  12.059   1.817   6.121  0.2608  0.1812  0.2347
   37MOL0     N 4985  12.196   1.787   6.162  0.0276 -0.4324 -0.4349
   37MOL0     C 4986  12.273   1.680   6.129  0.7033  0.0105 -0.1103
   37MOL0     C 4987  12.399   1.706   6.182 -0.5494  0.0998 -0.4866
   37MOL0     C 4988  12.520   1.610   6.176 -0.5001 -0.2016 -0.6164
   37MOL0     C 4989  12.607   1.585   6.303 -0.0809 -0.2183  0.3837
   37MOL0     C 4990  12.750   1.643   6.288  1.0066  0.0813  0.9415
   37MOL0     C 4991  12.832   1.621   6.419 -0.4616 -0.5885  0.1179
   37MOL0     O 4992  12.950   1.701   6.392  0.0796 -0.1226 -0.0634
   37MOL0     C 4993  13.052   1.709   6.484 -0.0874  0.0546 -0.2066
   37MOL0     C 4994  13.060   1.639   6.608 -0.4002 -0.1973  0.2236
   37MOL0     C 4995  13.164   1.662   6.700  0.4477 -0.0632 -0.0282
   37MOL0     C 4996  13.165   1.575   6.819  0.4874  1.2589 -0.5710
   37MOL0     C 4997  13.273   1.744   6.662 -0.0252  0.3872  0.4356
   37MOL0     C 4998  13.399   1.757   6.737 -0.5227 -0.7291  0.6231
   37MOL0     O 4999  13.471   1.867   6.716 -0.2174  0.7717  0.1222
   37MOL0     C 5000  13.570   1.896   6.804  0.3937 -0.6016  0.0273
   37MOL0     C 5001  13.547   1.922   6.936 -0.6924  0.3269  0.3622
   37MOL0     C 5002  13.648   1.945   7.019 -0.9786  0.7189  0.9278
   37MOL0     C 5003  13.784   1.920   6.988  0.2794 -0.7137  0.3262
   37MOL0     O 5004  13.886   1.947   7.070  0.8529  0.2821  0.0342
   37MOL0     C 5005  13.870   1.882   7.195 -0.0603 -0.3726 -0.3483
   37MOL0     C 5006  14.014   1.859   7.242 -1.5567 -0.0345 -0.3623
   37MOL0     C 5007  14.097   1.975   7.288  0.4395 -0.1814 -0.4230
   37MOL0     C 5008  14.234   1.928   7.335 -0.5876 -0.5232  0.1596
   37MOL0     C 5009  14.316   2.045   7.381  0.7570 -0.4673  0.6006
   37MOL0     C 5010  14.456   2.005   7.413 -0.4488 -0.0342 -0.0858
   37MOL0     C 5011  14.531   2.118   7.490  0.1445 -0.6836 -0.1832
   37MOL0     C 5012  14.547   2.242   7.413 -0.2085  0.6148  0.3511
   37MOL0    Cl 5013  14.679   2.334   7.490  0.5370 -0.0828  0.0353
   37MOL0     C 5014  13.804   1.882   6.851 -1.3399 -0.7687  0.4161
   37MOL0     C 5015  13.701   1.877   6.760 -0.0547  0.4620  0.2435
   37MOL0     O 5016  13.432   1.675   6.819 -0.6111 -0.1946  0.3620
   37MOL0     C 5017  13.255   1.818   6.538  0.0939 -0.8134 -1.2462
   37MOL0     C 5018  13.155   1.794   6.443  0.9176  0.0978 -0.3406
   37MOL0     N 5019  12.400   1.833   6.239 -0.3283 -0.1613  0.0375
   37MOL0     N 5020  12.283   1.878   6.222  0.4006  0.5497  0.1666
   37MOL0     C 5021  11.053   1.988   6.005 -1.3395 -0.6970  0.2602
   37MOL0     C 5022  10.936   1.987   6.076 -0.0508 -0.0266  0.0823
   37MOL0     C 5023  10.535   1.815   6.254 -0.0535  0.1918  0.4242
   37MOL0     C 5024  10.534   1.898   6.367  1.1433 -0.6413 -0.5700
   37MOL0     C 5025  10.417   1.937   6.443  0.2824  0.1047  0.9793
   37MOL0     C 5026  10.293   1.895   6.400  0.4314 -0.7744  0.3496
   37MOL0     O 5027  10.170   1.939   6.451 -0.1413  0.0937  0.1623
   37MOL0     C 5028  10.176   2.046   6.546 -0.4864  0.0886 -0.0071
   37MOL0     C 5029  10.036   2.100   6.565  0.0827 -0.0286  0.5143
   37MOL0     C 5030  10.009   2.185   6.685 -0.2686 -0.1560  0.3039
   37MOL0     C 5031   9.927   2.307   6.665  0.4738 -0.0316  0.0728
   37MOL0     C 5032   9.783   2.283   6.698 -0.6588  0.3682 -0.0002
   37MOL0     C 5033   9.669   2.270   6.729 -0.0468  0.0144  0.3450
   37MOL0     C 5034  10.287   1.822   6.283  0.4352  0.3215 -0.3316
   37MOL0     C 5035  10.404   1.783   6.215  0.0746  0.6167 -0.0950
   37MOL0     C 5036  10.382   1.726   6.072 -0.2774  1.0721  0.5006
   37MOL0     H 5037  10.935   1.664   6.184 -0.4454  1.1422  1.4161
   37MOL0     H 5038  11.131   1.660   6.037 -1.7517  0.1826  0.8064
   37MOL0     H 5039  11.437   1.837   5.926  0.4952 -0.3719 -0.2138
   37MOL0     H 5040  11.333   1.720   6.015 -1.0938  0.4970 -0.9443
   37MOL0     H 5041  11.389   2.009   6.108  2.7184 -0.3666 -1.8074
   37MOL0     H 5042  11.308   1.881   6.206  1.6808  0.5447  2.2021
   37MOL0     H 5043  11.546   1.883   6.283  1.8175 -0.6127  0.7975
   37MOL0     H 5044  11.547   1.750   6.159 -1.2727 -0.0452 -3.4065
   37MOL0     H 5045  11.642   1.905   6.001 -2.1842 -1.1515  0.2009
   37MOL0     H 5046  11.629   2.046   6.114  0.1590 -0.4060  0.1420
   37MOL0     H 5047  11.786   1.793   6.149  0.3454  0.7076 -0.6074
   37MOL0     H 5048  11.768   1.913   6.277 -2.1236 -0.1768 -0.5710
   37MOL0     H 5049  11.875   1.979   5.985  1.5012  1.4128  0.2563
   37MOL0     H 5050  11.855   2.098   6.101  0.9144 -0.0763 -0.1333
   37MOL0     H 5051  12.001   1.983   6.254 -3.4342  0.6045 -0.8881
   37MOL0     H 5052  12.084   2.021   6.103  0.1677  0.3379  1.9806
   37MOL0     H 5053  12.003   1.743   6.179 -0.8882 -0.9372 -2.1773
   37MOL0     H 5054  12.042   1.796   6.015  0.5654 -1.4536  0.4932
   37MOL0     H 5055  12.233   1.596   6.073 -0.9823  0.3649  0.5166
   37MOL0     H 5056  12.581   1.667   6.105 -2.7457  3.8558  0.3933
   37MOL0     H 5057  12.496   1.511   6.136  0.0483 -1.4966  2.0462
   37MOL0     H 5058  12.557   1.620   6.394  0.0181  1.3999 -0.1462
   37MOL0     H 5059  12.609   1.477   6.323 -1.7493 -1.0320 -3.0702
   37MOL0     H 5060  12.803   1.597   6.204  0.8733 -1.6213  1.7396
   37MOL0     H 5061  12.740   1.751   6.274 -1.1289  0.2378  3.0002
   37MOL0     H 5062  12.780   1.672   6.500  2.5060 -0.0644  1.8234
   37MOL0     H 5063  12.851   1.513   6.424  0.4258 -0.4000  1.0437
   37MOL0     H 5064  12.980   1.574   6.643  0.6282 -1.3557  0.4912
   37MOL0     H 5065  13.230   1.488   6.812 -0.6852  0.2206  0.8980
   37MOL0     H 5066  13.068   1.526   6.833  0.8730  0.5736 -0.2501
   37MOL0     H 5067  13.178   1.637   6.907  1.2222 -0.8500  0.8733
   37MOL0     H 5068  13.447   1.940   6.974 -1.9949  1.2028 -3.1434
   37MOL0     H 5069  13.614   1.992   7.111  0.9376  0.1987  1.9432
   37MOL0     H 5070  13.803   1.933   7.265  1.3074 -0.2232  0.9024
   37MOL0     H 5071  13.816   1.788   7.178 -1.9769  0.1879  1.9996
   37MOL0     H 5072  14.004   1.785   7.322  2.0191  0.3364  0.6031
   37MOL0     H 5073  14.064   1.805   7.160 -0.5153 -2.0581  1.4880
   37MOL0     H 5074  14.048   2.022   7.374 -0.3241 -2.0435  0.2051
   37MOL0     H 5075  14.106   2.053   7.211  1.0934  0.0884 -0.0834
   37MOL0     H 5076  14.284   1.876   7.252  2.0016  2.3055 -0.2357
   37MOL0     H 5077  14.224   1.858   7.418  4.3750 -1.5566  0.2219
   37MOL0     H 5078  14.306   2.125   7.307 -0.4390 -1.6127 -0.5303
   37MOL0     H 5079  14.275   2.087   7.473  1.4202 -1.6195  1.4431
   37MOL0     H 5080  14.513   1.976   7.324  1.5752 -0.3237  1.2456
   37MOL0     H 5081  14.436   1.920   7.478  1.8706  0.2421  1.1038
   37MOL0     H 5082  14.627   2.072   7.517  1.0843  1.9875  1.3214
   37MOL0     H 5083  14.478   2.153   7.578 -0.2602  4.2299 -2.0759
   37MOL0     H 5084  14.449   2.291   7.412  0.2113  1.5775 -2.3471
   37MOL0     H 5085  14.569   2.235   7.306  2.1481  0.0486  0.8130
   37MOL0     H 5086  13.901   1.854   6.811 -1.1839 -0.7762  0.7946
   37MOL0     H 5087  13.725   1.853   6.656 -1.9321 -0.2908 -0.0545
   37MOL0     H 5088  13.336   1.884   6.510  0.8165 -0.9877  0.3139
   37MOL0     H 5089  13.148   1.850   6.350  0.8452 -1.8755 -1.5865
   37MOL0     H 5090  11.100   2.076   5.961 -0.7130 -0.3328  1.6025
   37MOL0     H 5091  10.875   2.076   6.084 -1.2341 -0.8184  0.0995
   37MOL0     H 5092  10.622   1.942   6.412  1.6679 -1.6859 -0.5289
   37MOL0     H 5093  10.428   1.997   6.532  0.2260 -1.7058  2.2645
   37MOL0     H 5094  10.203   2.009   6.645  3.0085  1.0282 -0.4661
   37MOL0     H 5095  10.254   2.120   6.527 -0.8137  0.8547  1.5456
   37MOL0     H 5096   9.968   2.015   6.579 -2.5820  1.6188 -1.4384
   37MOL0     H 5097  10.005   2.156   6.476  1.4117 -1.3951 -0.8700
   37MOL0     H 5098   9.959   2.130   6.765 -2.0569  2.4661  1.1192
   37MOL0     H 5099  10.102   2.233   6.717 -0.0101 -0.1856 -0.3809
   37MOL0     H 5100   9.930   2.333   6.559  0.9507 -2.1690 -0.4959
   37MOL0     H 5101   9.966   2.389   6.726  1.1767  0.0313 -0.4501
   37MOL0     H 5102   9.566   2.259   6.757 -0.5725 -1.4004 -1.8318
   37MOL0     H 5103  10.191   1.791   6.243 -1.6522 -0.3870  4.5938
   37MOL0     H 5104  10.417   1.623   6.063 -0.4363  1.1253 -0.9342
   37MOL0     H 5105  10.276   1.727   6.045 -0.5863 -2.0188  1.3173
   37MOL0     H 5106  10.437   1.787   5.999 -2.0161  0.9857 -0.9682
   38MOL0     O 5107   6.215   5.790   4.271  0.1462  0.2162  0.1971
   38MOL0     C 5108   6.235   5.857   4.170  0.4574 -0.1400 -0.9579
   38MOL0     O 5109   6.354   5.873   4.113  0.1762  0.1119  0.3513
   38MOL0     C 5110   6.468   5.835   4.177  0.0010 -0.1731 -0.0920
   38MOL0     C 5111   6.560   5.924   4.230 -0.2691 -0.1673 -0.1034
   38MOL0     C 5112   6.681   5.875   4.272 -0.8815  0.0513 -1.0426
   38MOL0     C 5113   6.703   5.739   4.302 -0.4710 -0.4616  0.5574
   38MOL0     O 5114   6.806   5.709   4.384  0.2068 -1.0426 -0.1638
   38MOL0     C 5115   6.800   5.596   4.468  0.0518 -0.5322  0.4805
   38MOL0     C 5116   6.846   5.464   4.398  0.2039 -0.0484 -0.1539
   38MOL0     C 5117   6.994   5.473   4.364 -0.5864  0.3151  0.5236
   38MOL0     C 5118   7.049   5.350   4.295  0.1097  0.7341  0.2094
   38MOL0     C 5119   7.202   5.363   4.262  1.3035  0.5364 -0.1607
   38MOL0     C 5120   7.255   5.240   4.174  0.8325 -0.1992  0.1007
   38MOL0     C 5121   7.404   5.247   4.147 -0.5134  0.3750 -0.7634
   38MOL0     C 5122   7.438   5.348   4.041 -0.6074  0.4237  0.5863
   38MOL0     N 5123   7.587   5.370   4.042 -0.6125 -0.8648  0.2467
   38MOL0     C 5124   7.666   5.350   3.934  0.2168 -0.0853  0.1389
   38MOL0     C 5125   7.790   5.379   3.975 -0.3612  0.4402 -0.2004
   38MOL0     C 5126   7.906   5.364   3.880 -0.4083  0.2972 -0.2890
   38MOL0     C 5127   7.955   5.209   3.903  0.6616  0.2035 -0.2088
   38MOL0     C 5128   8.079   5.177   3.836  0.7488  0.3907 -0.3741
   38MOL0     C 5129   8.046   5.124   3.694  0.7259 -0.3932  0.0473
   38MOL0     O 5130   8.171   5.096   3.631  0.0248 -0.0696 -0.4793
   38MOL0     C 5131   8.183   5.045   3.501 -0.3838  0.0140 -0.2393
   38MOL0     C 5132   8.065   5.005   3.435  0.5535 -0.1405  0.5397
   38MOL0     C 5133   8.065   4.939   3.313 -0.0182  0.1515 -0.1373
   38MOL0     C 5134   7.939   4.899   3.246 -0.1459 -0.6002 -0.7273
   38MOL0     C 5135   8.192   4.910   3.264  0.1099 -1.7230 -0.7302
   38MOL0     C 5136   8.192   4.838   3.141 -0.1050 -0.4835  0.1725
   38MOL0     O 5137   8.143   4.707   3.140 -0.3787  0.2341 -0.2522
   38MOL0     C 5138   8.134   4.641   3.017 -0.8115 -1.2940 -0.3080
   38MOL0     C 5139   8.011   4.639   2.954 -0.1562 -0.3752  0.9904
   38MOL0     C 5140   7.993   4.549   2.845 -0.1399 -0.0549  0.2078
   38MOL0     C 5141   8.096   4.479   2.793 -0.4545 -0.3397  0.6337
   38MOL0     O 5142   8.097   4.400   2.679 -0.4878  0.6714  0.7408
   38MOL0     C 5143   7.972   4.394   2.611 -0.7736  0.2134 -0.1113
   38MOL0     C 5144   7.988   4.285   2.506 -0.2017 -0.1895 -0.2262
   38MOL0     C 5145   7.991   4.148   2.565 -0.1691 -0.6056 -0.1069
   38MOL0     C 5146   7.993   4.053   2.450 -0.1290  0.0986 -0.7540
   38MOL0     C 5147   7.982   3.910   2.507 -0.0416 -0.2075  0.1147
   38MOL0     C 5148   7.907   3.810   2.409  0.1907 -0.2225  0.2190
   38MOL0     C 5149   7.934   3.667   2.449  0.0321 -0.8420  0.1856
   38MOL0     C 5150   7.838   3.575   2.384 -0.4591  0.8733 -0.8474
   38MOL0    Cl 5151   7.819   3.590   2.203 -0.3198  0.6495  0.0879
   38MOL0     C 5152   8.217   4.483   2.856 -0.1155  0.5495  0.4281
   38MOL0     C 5153   8.229   4.557   2.967 -0.7458  0.5805  0.1342
   38MOL0     O 5154   8.248   4.895   3.045 -0.7444 -0.0394 -0.0797
   38MOL0     C 5155   8.317   4.960   3.315  0.2126 -0.3587  0.5543
   38MOL0     C 5156   8.311   5.030   3.435  0.8106 -0.0291 -0.0079
   38MOL0     N 5157   7.781   5.416   4.108 -0.3163 -0.2017  0.3566
   38MOL0     N 5158   7.659   5.419   4.150 -0.7364  0.6812  0.1451
   38MOL0     C 5159   6.600   5.645   4.258 -0.3121 -0.6033 -0.5568
   38MOL0     C 5160   6.486   5.697   4.202  0.2336  1.4246  0.3817
   38MOL0     C 5161   6.120   5.922   4.102  0.5252 -1.0701 -0.7528
   38MOL0     C 5162   6.139   5.962   3.969 -0.2232 -0.8657  0.6334
   38MOL0     C 5163   6.041   6.035   3.911  0.7969 -0.5225  0.5061
   38MOL0     C 5164   5.918   6.071   3.974 -1.3167  0.2798  0.0751
   38MOL0     O 5165   5.826   6.142   3.896 -0.6538  0.0144  0.2443
   38MOL0     C 5166   5.686   6.108   3.913 -1.3579  0.5415 -0.2989
   38MOL0     C 5167   5.651   5.958   3.884 -0.5831  0.3839  0.1993
   38MOL0     C 5168   5.704   5.907   3.749  0.5633 -0.4284  0.2321
   38MOL0     C 5169   5.599   5.912   3.635  0.5503 -0.4034  0.1139
   38MOL0     C 5170   5.653   5.859   3.509  0.0946 -0.2956  0.2183
   38MOL0     C 5171   5.716   5.818   3.411  0.0603  1.1146 -0.1084
   38MOL0     C 5172   5.895   6.022   4.108  0.1116 -0.7676 -0.0411
   38MOL0     C 5173   5.999   5.952   4.171  0.0495 -0.3333 -0.0740
   38MOL0     C 5174   5.980   5.930   4.318  0.0786 -0.3287 -0.1296
   38MOL0     H 5175   6.540   6.030   4.217 -1.9732 -0.4944 -0.3838
   38MOL0     H 5176   6.762   5.941   4.304  0.3502 -0.4103 -3.0217
   38MOL0     H 5177   6.698   5.564   4.492  0.4771 -2.5270 -0.1997
   38MOL0     H 5178   6.854   5.628   4.558  1.4075 -0.4054 -0.3455
   38MOL0     H 5179   6.829   5.381   4.467  1.2915 -0.1427  0.0192
   38MOL0     H 5180   6.799   5.454   4.300  1.2440 -0.7116 -0.5995
   38MOL0     H 5181   7.016   5.557   4.297 -2.4186 -0.2254 -0.8230
   38MOL0     H 5182   7.045   5.483   4.460 -2.2591  0.0623  1.4860
   38MOL0     H 5183   7.052   5.265   4.364 -0.0857 -1.9230 -2.8665
   38MOL0     H 5184   6.986   5.336   4.207 -1.7777  1.4597  1.3794
   38MOL0     H 5185   7.259   5.375   4.355  0.0070  1.0265  0.6111
   38MOL0     H 5186   7.217   5.456   4.207  3.9821  1.3647  1.7731
   38MOL0     H 5187   7.232   5.144   4.220 -2.0135 -0.8776 -2.4294
   38MOL0     H 5188   7.204   5.230   4.078  0.5170 -0.3329  0.2820
   38MOL0     H 5189   7.448   5.152   4.115 -2.3644 -0.9647  0.4817
   38MOL0     H 5190   7.448   5.285   4.240 -2.2526 -0.6197  0.5165
   38MOL0     H 5191   7.399   5.309   3.946  1.6454 -2.2101  0.5978
   38MOL0     H 5192   7.394   5.444   4.066  0.1359  0.4463  1.9114
   38MOL0     H 5193   7.626   5.317   3.839 -0.3191 -2.5138  1.1458
   38MOL0     H 5194   7.979   5.440   3.910  0.1235 -0.8778  1.6313
   38MOL0     H 5195   7.868   5.387   3.780  0.6532 -1.2430 -1.0894
   38MOL0     H 5196   7.971   5.207   4.011  2.1187 -0.5696 -0.4147
   38MOL0     H 5197   7.871   5.141   3.886  0.9874  0.3798 -2.9775
   38MOL0     H 5198   8.148   5.261   3.835  1.2472  0.3264  4.5276
   38MOL0     H 5199   8.127   5.096   3.892 -1.7094 -1.1544 -0.3139
   38MOL0     H 5200   7.975   5.041   3.705  1.2836 -0.8033  0.6517
   38MOL0     H 5201   7.994   5.201   3.636  1.2501  0.8466  1.1824
   38MOL0     H 5202   7.966   5.024   3.474  0.6821 -1.6878  1.7191
   38MOL0     H 5203   7.853   4.941   3.300  2.1249 -1.0106  3.6340
   38MOL0     H 5204   7.937   4.790   3.245 -0.1054 -0.6318  0.5979
   38MOL0     H 5205   7.947   4.939   3.145  1.6168 -0.4566 -0.5469
   38MOL0     H 5206   7.929   4.705   2.981  0.1184  1.9282 -2.9481
   38MOL0     H 5207   7.896   4.561   2.799  0.3651  3.3447 -0.2770
   38MOL0     H 5208   7.894   4.358   2.678 -2.1052  1.2784 -1.0292
   38MOL0     H 5209   7.943   4.487   2.560 -0.3473 -0.5373 -1.8035
   38MOL0     H 5210   7.914   4.294   2.426 -1.7830 -2.9064  0.8018
   38MOL0     H 5211   8.074   4.308   2.443  1.1286  2.2966  2.2769
   38MOL0     H 5212   7.904   4.136   2.629  0.0963 -1.4969  0.1008
   38MOL0     H 5213   8.079   4.137   2.629 -0.3582 -3.3727 -0.1961
   38MOL0     H 5214   8.086   4.057   2.393 -0.5214 -2.3370 -1.6882
   38MOL0     H 5215   7.909   4.061   2.380 -0.4098 -0.4602 -0.4869
   38MOL0     H 5216   8.080   3.872   2.539 -0.1212 -1.2781 -0.8314
   38MOL0     H 5217   7.938   3.913   2.607 -0.4122  0.6978 -0.0688
   38MOL0     H 5218   7.946   3.827   2.309  0.7803 -1.9334  0.1268
   38MOL0     H 5219   7.798   3.824   2.409  0.3781  1.4262 -0.6557
   38MOL0     H 5220   7.920   3.649   2.556 -1.6957 -0.5686  0.0390
   38MOL0     H 5221   8.036   3.638   2.424  0.5984  1.4329 -0.3692
   38MOL0     H 5222   7.739   3.591   2.426 -0.3167 -0.6531  0.1179
   38MOL0     H 5223   7.871   3.476   2.417  1.8051  2.3403  1.7589
   38MOL0     H 5224   8.292   4.412   2.823 -3.8788 -2.3842 -2.9779
   38MOL0     H 5225   8.325   4.550   3.016 -0.2264 -1.0046 -1.0191
   38MOL0     H 5226   8.399   4.946   3.246 -0.6189  0.5968 -0.6850
   38MOL0     H 5227   8.394   5.088   3.475  0.4047 -0.2651  1.2334
   38MOL0     H 5228   6.613   5.539   4.277 -0.8957 -0.9328 -1.9061
   38MOL0     H 5229   6.426   5.614   4.166  0.2683  1.9269 -0.8938
   38MOL0     H 5230   6.232   5.950   3.914 -0.3968  2.2408 -0.5371
   38MOL0     H 5231   6.068   6.072   3.812  1.3110  0.3351  0.9477
   38MOL0     H 5232   5.659   6.128   4.017  0.5094  0.2843  0.2797
   38MOL0     H 5233   5.631   6.175   3.847 -1.4336 -0.2339 -1.0440
   38MOL0     H 5234   5.543   5.945   3.880 -0.3201 -2.1892 -2.8668
   38MOL0     H 5235   5.683   5.891   3.964 -2.0547  0.1562  0.6124
   38MOL0     H 5236   5.789   5.963   3.708 -0.6528 -0.9858 -3.4381
   38MOL0     H 5237   5.709   5.798   3.764 -1.6298 -0.9119 -1.9487
   38MOL0     H 5238   5.550   6.010   3.622  1.1806  0.0552  1.1247
   38MOL0     H 5239   5.520   5.846   3.671 -0.5016  0.3878 -0.6513
   38MOL0     H 5240   5.784   5.784   3.336  0.3431 -0.9576  1.0046
   38MOL0     H 5241   5.805   6.055   4.158  1.0775  4.1651 -1.0829
   38MOL0     H 5242   6.061   5.966   4.381 -1.6542  2.3576  0.7218
   38MOL0     H 5243   5.886   5.978   4.346 -0.1339 -1.1115  0.5779
   38MOL0     H 5244   5.969   5.821   4.331 -0.3100 -0.6569 -2.7556
   39MOL0     O 5245  10.623   2.406  10.102  0.0167 -0.1498 -0.6105
   39MOL0     C 5246  10.580   2.473  10.197  0.5649 -0.1734 -0.4383
   39MOL0     O 5247  10.583   2.604  10.204 -0.2406  0.1715 -0.7161
   39MOL0     C 5248  10.671   2.680  10.138  0.2255  0.4902 -0.8422
   39MOL0     C 5249  10.623   2.810  10.110 -0.0249  0.4740  0.1609
   39MOL0     C 5250  10.723   2.892  10.051  0.1859 -0.4185 -0.2371
   39MOL0     C 5251  10.855   2.857  10.032 -0.1599  0.1950  0.6211
   39MOL0     O 5252  10.943   2.941   9.971 -1.4359  0.3090 -0.5349
   39MOL0     C 5253  10.937   3.075  10.034 -0.1623  0.6493  0.8641
   39MOL0     C 5254  11.032   3.173   9.964 -1.3852 -1.1190 -0.6130
   39MOL0     C 5255  10.995   3.322   9.990 -0.4546 -0.5656  0.1556
   39MOL0     C 5256  11.035   3.416   9.878 -0.1131  0.1980  1.0458
   39MOL0     C 5257  10.986   3.556   9.900 -0.3593 -0.3799 -0.1929
   39MOL0     C 5258  11.003   3.617  10.045 -0.0277 -0.6107 -0.5525
   39MOL0     C 5259  11.144   3.647  10.090  0.3342 -0.1353 -0.3328
   39MOL0     C 5260  11.216   3.742  10.003  0.7238 -0.4371  0.5532
   39MOL0     N 5261  11.343   3.787  10.071  0.4986  0.5305  0.5361
   39MOL0     C 5262  11.352   3.841  10.199 -0.6047  0.1506 -0.4207
   39MOL0     C 5263  11.488   3.861  10.214  0.2118  0.2814 -0.1703
   39MOL0     C 5264  11.558   3.916  10.336 -0.4614  0.3879 -0.4732
   39MOL0     C 5265  11.551   3.809  10.448 -0.7322 -0.6679 -0.0867
   39MOL0     C 5266  11.447   3.843  10.544 -0.5975 -0.1865 -0.2281
   39MOL0     C 5267  11.413   3.727  10.639  0.1238  0.3843 -0.4554
   39MOL0     O 5268  11.327   3.633  10.566  0.3076  0.1676 -0.2222
   39MOL0     C 5269  11.242   3.571  10.647  1.3177  0.8769 -0.0506
   39MOL0     C 5270  11.272   3.536  10.780  0.6500  0.0695 -0.1637
   39MOL0     C 5271  11.169   3.475  10.855 -0.1176  0.9130  0.1450
   39MOL0     C 5272  11.203   3.439  10.994  0.1546  0.2194  0.2285
   39MOL0     C 5273  11.038   3.459  10.792 -0.2895 -0.2787  0.3879
   39MOL0     C 5274  10.922   3.428  10.875 -0.8263  0.4757 -0.1023
   39MOL0     O 5275  10.827   3.356  10.804 -1.2906 -0.5454  0.4443
   39MOL0     C 5276  10.735   3.277  10.870  0.3207  0.4201  0.0009
   39MOL0     C 5277  10.608   3.257  10.824 -0.3124 -0.1802  0.0441
   39MOL0     C 5278  10.501   3.201  10.898  0.7700  0.5991 -0.4412
   39MOL0     C 5279  10.534   3.152  11.026  0.9810  0.4431  0.4525
   39MOL0     O 5280  10.438   3.090  11.100  0.1214 -0.5574 -0.6278
   39MOL0     C 5281  10.465   2.987  11.191 -0.8363  0.1764 -0.2802
   39MOL0     C 5282  10.336   2.899  11.181 -0.8681 -0.0800 -0.3386
   39MOL0     C 5283  10.348   2.751  11.216  0.6544 -0.1228 -0.2744
   39MOL0     C 5284  10.210   2.672  11.190 -0.7927  0.3199 -1.0299
   39MOL0     C 5285  10.251   2.522  11.180 -0.1454 -0.1368  0.3075
   39MOL0     C 5286  10.138   2.423  11.219 -0.5052  0.3872 -0.3706
   39MOL0     C 5287  10.189   2.279  11.242  0.6256  0.2897 -0.5340
   39MOL0     C 5288  10.091   2.181  11.186  0.5845  0.0913 -0.1854
   39MOL0    Cl 5289   9.932   2.216  11.248 -0.3639 -0.6449 -0.2385
   39MOL0     C 5290  10.668   3.157  11.071  0.1861  0.0625  0.5634
   39MOL0     C 5291  10.769   3.211  10.991  0.1500  0.2356  0.0021
   39MOL0     O 5292  10.909   3.479  10.986 -0.4814 -0.3604 -0.2757
   39MOL0     C 5293  11.021   3.492  10.655 -0.1504  0.5412 -0.6500
   39MOL0     C 5294  11.119   3.554  10.586 -0.0269 -0.4207  0.2833
   39MOL0     N 5295  11.556   3.807  10.104 -0.2245  0.0228  1.2840
   39MOL0     N 5296  11.466   3.766  10.017 -1.0105  0.0063 -0.4327
   39MOL0     C 5297  10.900   2.731  10.082  0.1725  0.2010  0.5041
   39MOL0     C 5298  10.805   2.639  10.114  0.2853  0.4075 -0.2316
   39MOL0     C 5299  10.504   2.410  10.315  1.0037 -0.1971  0.4508
   39MOL0     C 5300  10.501   2.487  10.436  0.6131  0.2790  0.1873
   39MOL0     C 5301  10.448   2.439  10.558  0.3152  0.1280  0.0176
   39MOL0     C 5302  10.378   2.322  10.559 -1.2585  0.0308  0.7327
   39MOL0     O 5303  10.329   2.284  10.678 -0.2415  0.2284 -0.1046
   39MOL0     C 5304  10.236   2.178  10.705  0.4913  1.7820  0.7334
   39MOL0     C 5305  10.320   2.050  10.730 -0.1784  0.4572 -0.3872
   39MOL0     C 5306  10.240   1.943  10.822  0.4111  0.1514  0.5528
   39MOL0     C 5307  10.324   1.814  10.841  0.3233  0.5105  1.0929
   39MOL0     C 5308  10.357   1.745  10.712 -0.0969  0.0719  0.0576
   39MOL0     C 5309  10.383   1.685  10.610  0.0898 -0.0873 -0.1326
   39MOL0     C 5310  10.371   2.247  10.445 -0.2239  0.5504 -0.1726
   39MOL0     C 5311  10.435   2.284  10.327 -0.1068 -0.5069  0.5407
   39MOL0     C 5312  10.430   2.186  10.212 -0.1508  0.7490 -0.4490
   39MOL0     H 5313  10.518   2.837  10.118 -0.0300 -0.0446  3.0558
   39MOL0     H 5314  10.695   2.986  10.006  0.4928  0.2755  0.9871
   39MOL0     H 5315  10.963   3.058  10.139 -2.5149 -0.1600  1.3638
   39MOL0     H 5316  10.836   3.115  10.044 -0.2099  0.3830  1.5019
   39MOL0     H 5317  11.135   3.161  10.000 -1.7327  1.3511  1.6334
   39MOL0     H 5318  11.036   3.153   9.857  0.1198 -1.1915 -0.5705
   39MOL0     H 5319  10.888   3.336  10.009 -0.0336  1.1940  1.3977
   39MOL0     H 5320  11.052   3.351  10.078  0.0798  1.9302 -0.9402
   39MOL0     H 5321  11.143   3.418   9.859  0.1737  1.8877  2.5846
   39MOL0     H 5322  10.984   3.381   9.787 -2.1492  3.1716  0.8944
   39MOL0     H 5323  10.879   3.547   9.880  0.1551 -2.2951 -2.6414
   39MOL0     H 5324  11.013   3.631   9.825 -0.8921  0.8439  0.8120
   39MOL0     H 5325  10.945   3.710  10.041  0.0757 -0.5209 -0.0425
   39MOL0     H 5326  10.952   3.554  10.118  0.1248 -2.7242 -2.1785
   39MOL0     H 5327  11.199   3.553  10.083 -0.5032 -0.9324  2.5321
   39MOL0     H 5328  11.151   3.671  10.196 -1.9503  2.4059 -0.6477
   39MOL0     H 5329  11.238   3.692   9.908 -4.2527 -0.9699 -0.6074
   39MOL0     H 5330  11.144   3.823   9.987 -0.6194 -1.8759 -1.0447
   39MOL0     H 5331  11.278   3.867  10.273  0.5758  0.3813  0.7095
   39MOL0     H 5332  11.500   4.005  10.362 -1.2460 -0.3579  0.3948
   39MOL0     H 5333  11.662   3.944  10.318  0.3652 -2.9812 -1.7116
   39MOL0     H 5334  11.530   3.709  10.409 -3.3053 -1.1021  2.1146
   39MOL0     H 5335  11.648   3.802  10.498 -0.0969 -1.4558 -1.3703
   39MOL0     H 5336  11.470   3.928  10.608 -2.6989 -0.6293  1.2168
   39MOL0     H 5337  11.358   3.864  10.484 -1.8239 -3.7031  0.1041
   39MOL0     H 5338  11.506   3.679  10.671  0.9683  3.4379  2.2588
   39MOL0     H 5339  11.376   3.773  10.731  3.4357  2.1057  0.2101
   39MOL0     H 5340  11.363   3.567  10.830  3.6398 -4.0359 -2.4011
   39MOL0     H 5341  11.312   3.428  10.993  0.3260  1.2916 -2.9676
   39MOL0     H 5342  11.160   3.342  11.020  0.6152 -0.5559 -1.7067
   39MOL0     H 5343  11.162   3.520  11.055 -2.1488 -1.2387  0.7213
   39MOL0     H 5344  10.569   3.314  10.740 -1.0062 -0.4866  0.1527
   39MOL0     H 5345  10.400   3.193  10.858  0.7955 -0.4065 -0.3304
   39MOL0     H 5346  10.556   2.935  11.158  0.2868  1.0632  1.2932
   39MOL0     H 5347  10.486   3.031  11.289  3.3726  0.1763 -0.9651
   39MOL0     H 5348  10.253   2.933  11.244  0.0771  1.6643  0.0402
   39MOL0     H 5349  10.291   2.911  11.082 -2.1392 -0.4712  0.1760
   39MOL0     H 5350  10.373   2.740  11.322 -2.3659 -0.0334  0.5279
   39MOL0     H 5351  10.430   2.708  11.157  0.2219  0.2059 -1.1402
   39MOL0     H 5352  10.161   2.705  11.098 -3.0321 -2.5329 -0.9895
   39MOL0     H 5353  10.139   2.699  11.268 -2.0108  0.7961 -2.2556
   39MOL0     H 5354  10.297   2.495  11.084  0.4086 -1.7678  1.0092
   39MOL0     H 5355  10.323   2.496  11.258  0.7592 -0.5984 -0.6585
   39MOL0     H 5356  10.062   2.436  11.142  0.2608  0.4846 -1.1172
   39MOL0     H 5357  10.087   2.462  11.307 -0.9786  1.8647 -1.2696
   39MOL0     H 5358  10.182   2.269  11.350 -1.0274  2.9202 -0.2928
   39MOL0     H 5359  10.294   2.266  11.215  0.6869  0.8795 -0.6005
   39MOL0     H 5360  10.119   2.077  11.206  0.5937 -0.3356 -2.2206
   39MOL0     H 5361  10.091   2.184  11.076  2.2631  0.4644 -0.2115
   39MOL0     H 5362  10.694   3.114  11.167 -1.0299 -0.6445  0.5918
   39MOL0     H 5363  10.872   3.188  11.016  0.0529 -0.5607 -0.2833
   39MOL0     H 5364  10.925   3.482  10.604 -2.2445 -0.9864  3.1628
   39MOL0     H 5365  11.097   3.590  10.486 -2.0458 -1.1332  0.4254
   39MOL0     H 5366  11.007   2.714  10.079  0.5290  1.5041  2.8462
   39MOL0     H 5367  10.820   2.535  10.138 -2.4025 -0.3449 -1.3615
   39MOL0     H 5368  10.552   2.583  10.440  1.1348 -0.0241  3.4880
   39MOL0     H 5369  10.437   2.510  10.639 -3.4802 -2.2626  1.9190
   39MOL0     H 5370  10.183   2.199  10.797 -0.1622  1.3780  0.4556
   39MOL0     H 5371  10.161   2.159  10.627  2.3996  0.4913 -0.9100
   39MOL0     H 5372  10.417   2.064  10.778  0.4706  0.4106 -1.6275
   39MOL0     H 5373  10.329   2.007  10.629  0.5098 -0.4716  0.0556
   39MOL0     H 5374  10.214   1.992  10.916 -2.1011 -1.3902  0.7566
   39MOL0     H 5375  10.150   1.907  10.771  0.8020 -0.8105  0.5116
   39MOL0     H 5376  10.262   1.748  10.902 -1.9945  0.9396 -0.6669
   39MOL0     H 5377  10.418   1.834  10.892  0.7063  1.4002  0.0824
   39MOL0     H 5378  10.406   1.645  10.513 -1.2333 -1.1038 -0.0617
   39MOL0     H 5379  10.328   2.149  10.461 -0.3078  0.8655  1.7233
   39MOL0     H 5380  10.349   2.205  10.140 -0.0063 -0.2682 -0.8930
   39MOL0     H 5381  10.526   2.178  10.160 -1.4017  0.5151 -2.8889
   39MOL0     H 5382  10.396   2.086  10.240  0.3327  1.1060  1.5121
   40MOL0     O 5383   1.953   3.324   7.490  0.3845  0.2268 -0.0932
   40MOL0     C 5384   1.926   3.207   7.512 -0.5856 -0.6258  0.5420
   40MOL0     O 5385   2.016   3.104   7.515  0.5281  0.4214 -0.2286
   40MOL0     C 5386   2.144   3.131   7.476  0.5831  0.3943 -0.7169
   40MOL0     C 5387   2.189   3.060   7.365  0.2295  0.0568  0.1883
   40MOL0     C 5388   2.317   3.076   7.315 -0.5923 -0.3612 -0.3452
   40MOL0     C 5389   2.405   3.166   7.390 -0.4679  1.1567  0.1221
   40MOL0     O 5390   2.524   3.187   7.330  0.3116 -0.3294 -0.1922
   40MOL0     C 5391   2.624   3.091   7.358  0.1091 -0.4568 -0.0332
   40MOL0     C 5392   2.678   3.127   7.490 -0.1045  0.8237  0.0179
   40MOL0     C 5393   2.822   3.070   7.506 -0.6506  0.0872  0.3111
   40MOL0     C 5394   2.929   3.151   7.427  0.1207 -0.3692 -0.3326
   40MOL0     C 5395   3.068   3.128   7.499 -0.1696 -0.5424 -0.5722
   40MOL0     C 5396   3.162   3.177   7.396 -0.1650  0.0106  0.3750
   40MOL0     C 5397   3.303   3.137   7.437  0.1127  0.6461  0.1239
   40MOL0     C 5398   3.412   3.214   7.359 -0.0102  0.5947 -0.6897
   40MOL0     N 5399   3.399   3.354   7.373  0.1618 -0.8611 -0.3249
   40MOL0     C 5400   3.425   3.428   7.482  0.3195  0.4154 -0.5434
   40MOL0     C 5401   3.422   3.555   7.438  0.0267 -0.9402 -0.0405
   40MOL0     C 5402   3.451   3.679   7.522 -0.7757 -0.3993 -0.0577
   40MOL0     C 5403   3.543   3.787   7.443  0.2750 -0.9245 -0.6768
   40MOL0     C 5404   3.684   3.747   7.447 -0.8394 -0.4535 -0.4219
   40MOL0     C 5405   3.753   3.753   7.592 -0.0734  0.0945 -0.4283
   40MOL0     O 5406   3.891   3.746   7.567  0.1996 -0.5299 -0.0759
   40MOL0     C 5407   3.971   3.726   7.680 -0.3260 -1.1242 -0.4908
   40MOL0     C 5408   4.079   3.811   7.708  0.5593  1.0991 -0.5976
   40MOL0     C 5409   4.156   3.789   7.826  0.2466 -0.3319 -0.5826
   40MOL0     C 5410   4.274   3.887   7.852 -0.3275  0.1712 -0.4208
   40MOL0     C 5411   4.131   3.677   7.920  0.0734 -0.8799 -0.0987
   40MOL0     C 5412   4.200   3.649   8.049 -0.2234  0.2007  0.0618
   40MOL0     O 5413   4.150   3.541   8.109  0.8304  0.3376 -0.1321
   40MOL0     C 5414   4.216   3.487   8.212  0.1730 -0.2487 -0.7878
   40MOL0     C 5415   4.292   3.369   8.195 -0.5293  0.1321  0.2853
   40MOL0     C 5416   4.361   3.306   8.301  0.3723  0.3301 -0.6655
   40MOL0     C 5417   4.364   3.377   8.426  0.5033 -0.5099 -0.2667
   40MOL0     O 5418   4.441   3.331   8.533 -0.4865 -0.2242  0.2014
   40MOL0     C 5419   4.559   3.408   8.563 -0.4579 -1.2995  0.2472
   40MOL0     C 5420   4.603   3.371   8.705  0.0254 -0.3848 -1.3425
   40MOL0     C 5421   4.509   3.436   8.806 -0.2022  0.3937  0.6765
   40MOL0     C 5422   4.558   3.385   8.943  0.3769  0.0263 -0.8149
   40MOL0     C 5423   4.511   3.491   9.047  1.0185 -0.7675 -0.2095
   40MOL0     C 5424   4.534   3.459   9.185  0.5729 -1.1212  0.0528
   40MOL0     C 5425   4.467   3.558   9.287  0.5199  0.2577 -0.0815
   40MOL0     C 5426   4.541   3.691   9.277 -0.6816 -0.1735  0.2891
   40MOL0    Cl 5427   4.477   3.797   9.405 -0.2762  0.4015  0.0309
   40MOL0     C 5428   4.298   3.497   8.446 -0.1256 -0.2764  0.4207
   40MOL0     C 5429   4.233   3.561   8.340 -0.2467  0.5820  0.2731
   40MOL0     O 5430   4.301   3.718   8.085  0.5185 -0.1697  0.2046
   40MOL0     C 5431   4.019   3.600   7.890 -0.4064  0.6396 -0.1045
   40MOL0     C 5432   3.945   3.622   7.772  0.0008  0.6218 -0.8387
   40MOL0     N 5433   3.392   3.558   7.306 -0.1870  0.9012  0.1611
   40MOL0     N 5434   3.371   3.442   7.270  0.2180 -0.0431  0.2048
   40MOL0     C 5435   2.358   3.239   7.498  0.0771 -0.0815  0.3386
   40MOL0     C 5436   2.224   3.228   7.539 -0.4605 -0.7356  0.1230
   40MOL0     C 5437   1.783   3.169   7.520 -0.1885 -0.8415  0.4326
   40MOL0     C 5438   1.687   3.236   7.433 -0.2536  0.8129  0.1927
   40MOL0     C 5439   1.555   3.196   7.430 -0.2931  0.7329  0.2487
   40MOL0     C 5440   1.501   3.113   7.534  0.0565  0.0933  0.4835
   40MOL0     O 5441   1.364   3.089   7.549 -0.3928  0.3133  0.9089
   40MOL0     C 5442   1.324   3.030   7.672  1.1477  0.7872 -0.1546
   40MOL0     C 5443   1.171   3.013   7.676 -0.0294  0.2688 -0.4180
   40MOL0     C 5444   1.133   2.921   7.796  0.9986  0.4362  0.8399
   40MOL0     C 5445   0.998   2.843   7.783 -0.1414  0.1231  0.8237
   40MOL0     C 5446   1.002   2.751   7.665 -0.0342 -0.6342  0.2043
   40MOL0     C 5447   0.971   2.687   7.571  0.2668  0.5695  0.5391
   40MOL0     C 5448   1.596   3.053   7.620  0.3618 -0.3606 -0.5557
   40MOL0     C 5449   1.734   3.076   7.609 -0.2290 -0.8339  0.1335
   40MOL0     C 5450   1.809   3.005   7.719  0.1307  0.8631 -0.5082
   40MOL0     H 5451   2.128   2.983   7.317  1.9299 -0.3220 -1.5191
   40MOL0     H 5452   2.358   3.025   7.228  2.6789  2.7486 -0.8625
   40MOL0     H 5453   2.705   3.101   7.285  0.7994 -1.8044  0.4997
   40MOL0     H 5454   2.569   2.996   7.351 -0.7431  0.0482 -0.3235
   40MOL0     H 5455   2.685   3.235   7.502  2.3060  0.8102 -0.8308
   40MOL0     H 5456   2.615   3.087   7.570  1.6223 -1.4231  0.3623
   40MOL0     H 5457   2.853   3.087   7.609  0.4565  1.8430 -0.2643
   40MOL0     H 5458   2.816   2.967   7.470 -1.2065 -0.1953  1.1966
   40MOL0     H 5459   2.934   3.121   7.322  0.0260  1.2794 -0.8497
   40MOL0     H 5460   2.898   3.256   7.428  0.2314 -0.3004  2.3489
   40MOL0     H 5461   3.079   3.021   7.517 -1.5926 -1.0315 -2.3915
   40MOL0     H 5462   3.082   3.175   7.597  0.5158  2.4486 -1.9764
   40MOL0     H 5463   3.150   3.143   7.292 -0.4177  1.0090  0.0709
   40MOL0     H 5464   3.152   3.285   7.410 -0.9014  0.4619 -2.8187
   40MOL0     H 5465   3.303   3.029   7.426  0.5239  0.2540  3.1607
   40MOL0     H 5466   3.331   3.157   7.540 -1.3382  0.4811  0.5811
   40MOL0     H 5467   3.507   3.186   7.406 -0.5422  2.7038  1.8773
   40MOL0     H 5468   3.406   3.188   7.253 -1.1264 -0.5016 -0.3843
   40MOL0     H 5469   3.435   3.404   7.587 -0.7960 -0.7669 -0.6759
   40MOL0     H 5470   3.509   3.649   7.610  1.4095 -2.0125 -1.9057
   40MOL0     H 5471   3.355   3.724   7.549 -0.4156 -0.7780  2.0149
   40MOL0     H 5472   3.517   3.795   7.337  1.0045 -0.9083 -0.8592
   40MOL0     H 5473   3.527   3.889   7.481 -0.3046 -1.8698  1.7995
   40MOL0     H 5474   3.715   3.654   7.398 -1.1692 -1.0821  0.5515
   40MOL0     H 5475   3.739   3.821   7.388 -0.6150 -0.4590 -0.2186
   40MOL0     H 5476   3.739   3.852   7.637 -2.4623 -0.2629 -0.2556
   40MOL0     H 5477   3.718   3.669   7.652  1.9653 -2.6621 -2.8487
   40MOL0     H 5478   4.102   3.886   7.633 -2.2640  1.6938 -1.0025
   40MOL0     H 5479   4.268   3.978   7.791 -1.2837  0.9750  0.8113
   40MOL0     H 5480   4.364   3.827   7.838 -1.7533 -1.7123 -2.2764
   40MOL0     H 5481   4.263   3.923   7.954  3.2999  0.2906  0.0507
   40MOL0     H 5482   4.297   3.323   8.097 -2.4972 -0.5373  0.4488
   40MOL0     H 5483   4.392   3.203   8.295 -0.6029  0.0941 -3.2376
   40MOL0     H 5484   4.647   3.386   8.503  1.9535  2.7781  1.8415
   40MOL0     H 5485   4.544   3.516   8.570 -0.3898 -1.3526  1.4159
   40MOL0     H 5486   4.593   3.263   8.721 -2.2486  0.2134  2.6408
   40MOL0     H 5487   4.701   3.406   8.739 -0.4650 -0.2080 -0.0508
   40MOL0     H 5488   4.407   3.399   8.797 -0.3623  0.4251  2.0815
   40MOL0     H 5489   4.518   3.544   8.791 -3.2032  1.1739  3.5247
   40MOL0     H 5490   4.667   3.379   8.943  0.4039  0.4364 -1.2643
   40MOL0     H 5491   4.517   3.289   8.974  1.1811 -0.4639 -1.2528
   40MOL0     H 5492   4.565   3.583   9.021 -1.1349  0.5255 -0.3119
   40MOL0     H 5493   4.406   3.519   9.035  1.2369 -0.0818 -0.5771
   40MOL0     H 5494   4.643   3.458   9.194  0.8227 -1.5298 -2.2926
   40MOL0     H 5495   4.494   3.357   9.190  1.7445 -1.8456 -3.1522
   40MOL0     H 5496   4.480   3.512   9.386 -1.1399 -1.9899 -0.8315
   40MOL0     H 5497   4.362   3.565   9.257  0.3560 -2.4657 -0.4733
   40MOL0     H 5498   4.522   3.744   9.183  1.0620  0.1196  0.0782
   40MOL0     H 5499   4.648   3.681   9.293 -0.1917  3.6729  0.4734
   40MOL0     H 5500   4.300   3.535   8.547  1.2470  2.0866 -0.4226
   40MOL0     H 5501   4.179   3.653   8.359 -0.2521  0.4607  0.8760
   40MOL0     H 5502   3.982   3.516   7.948  0.7472 -1.0275 -1.6894
   40MOL0     H 5503   3.861   3.556   7.757  1.6970 -1.6925 -0.7290
   40MOL0     H 5504   2.421   3.312   7.548  0.1399 -0.7170  1.2137
   40MOL0     H 5505   2.190   3.288   7.623 -1.3873 -0.8435 -0.1725
   40MOL0     H 5506   1.728   3.290   7.347  2.6810  0.3394  1.1928
   40MOL0     H 5507   1.491   3.239   7.353  2.1313  2.6963 -0.8046
   40MOL0     H 5508   1.357   2.926   7.670  0.3140  0.5062  0.0698
   40MOL0     H 5509   1.367   3.072   7.763  1.1141  1.9081 -0.6504
   40MOL0     H 5510   1.142   2.964   7.582 -0.0163  0.4439 -0.5131
   40MOL0     H 5511   1.112   3.104   7.684 -2.7014 -1.4269  0.7663
   40MOL0     H 5512   1.209   2.846   7.818 -1.8601 -1.9485  3.5698
   40MOL0     H 5513   1.112   2.985   7.882  2.9528  0.3841  1.3917
   40MOL0     H 5514   0.913   2.912   7.784  0.5904  1.0338  1.9305
   40MOL0     H 5515   0.977   2.783   7.872 -0.2460  0.3958  0.9831
   40MOL0     H 5516   0.947   2.621   7.489  2.7061 -0.8120  0.8549
   40MOL0     H 5517   1.569   2.992   7.705  2.1603  1.7580  1.6904
   40MOL0     H 5518   1.846   3.077   7.792  2.5376 -1.6504  0.9497
   40MOL0     H 5519   1.751   2.918   7.751 -1.0079  0.2057 -3.9057
   40MOL0     H 5520   1.902   2.961   7.682 -1.3303 -2.8788 -0.1711
   41MOL0     O 5521   8.520   7.846   1.309 -0.4387  0.1931 -0.4087
   41MOL0     C 5522   8.419   7.824   1.381  0.6173  0.0555  0.4157
   41MOL0     O 5523   8.423   7.745   1.491 -0.2065  0.7240  0.1729
   41MOL0     C 5524   8.541   7.663   1.510  0.9153  0.2656 -0.4493
   41MOL0     C 5525   8.602   7.684   1.633 -0.2725  0.6817 -0.4651
   41MOL0     C 5526   8.719   7.616   1.658 -0.6985  0.1040  0.3923
   41MOL0     C 5527   8.771   7.522   1.566  0.8925  0.5118 -0.3035
   41MOL0     O 5528   8.875   7.442   1.603  0.7104  0.2956  0.8318
   41MOL0     C 5529   9.003   7.514   1.599 -0.9869 -0.4873 -0.0898
   41MOL0     C 5530   9.126   7.420   1.610 -0.7896 -0.4824  0.1227
   41MOL0     C 5531   9.138   7.360   1.762 -1.1473  0.6130  0.2549
   41MOL0     C 5532   9.275   7.295   1.769 -1.0194 -0.6163 -0.0353
   41MOL0     C 5533   9.306   7.255   1.909 -0.3406  0.2573 -0.2843
   41MOL0     C 5534   9.380   7.121   1.913  0.2474  0.0339 -0.7913
   41MOL0     C 5535   9.511   7.114   1.826  0.4740  0.1887  0.1793
   41MOL0     C 5536   9.624   7.168   1.922  0.3243  0.1287  0.0972
   41MOL0     N 5537   9.749   7.113   1.872 -0.3428  0.5017 -0.7748
   41MOL0     C 5538   9.820   7.144   1.754  0.1638 -0.4832  0.3026
   41MOL0     C 5539   9.929   7.060   1.744  0.7939  0.5159  0.6893
   41MOL0     C 5540  10.036   7.086   1.649  0.0158 -0.1587  0.4155
   41MOL0     C 5541  10.068   6.959   1.562 -0.6055 -0.7648 -0.9562
   41MOL0     C 5542  10.201   6.886   1.609 -0.0702 -0.2004  0.1934
   41MOL0     C 5543  10.257   6.817   1.494 -1.1212 -0.2953 -0.1780
   41MOL0     O 5544  10.165   6.720   1.453  0.5537 -0.7744  0.0148
   41MOL0     C 5545  10.175   6.678   1.325 -0.0733 -0.4121  0.7849
   41MOL0     C 5546  10.305   6.641   1.275  0.0163 -0.2488  0.3535
   41MOL0     C 5547  10.325   6.602   1.143 -0.2447  0.4964  0.3259
   41MOL0     C 5548  10.464   6.552   1.106  0.2069 -0.3396  0.7115
   41MOL0     C 5549  10.211   6.591   1.067 -0.2052  1.1019  0.6011
   41MOL0     C 5550  10.221   6.542   0.931  1.1390 -0.5957 -0.3683
   41MOL0     O 5551  10.167   6.417   0.925 -0.5075 -0.6880 -0.4266
   41MOL0     C 5552  10.159   6.361   0.802 -0.9354  0.9510  0.1340
   41MOL0     C 5553  10.027   6.355   0.750  0.6730  0.4402 -0.2173
   41MOL0     C 5554  10.002   6.314   0.621  0.7854 -0.1944 -0.1091
   41MOL0     C 5555  10.105   6.269   0.539 -0.9903 -0.3483 -0.2159
   41MOL0     O 5556  10.073   6.230   0.415  0.1747 -0.1494  0.1404
   41MOL0     C 5557  10.169   6.196   0.319  0.7849  0.5173  1.4074
   41MOL0     C 5558  10.120   6.102   0.204 -0.6592 -0.7464 -0.0316
   41MOL0     C 5559  10.031   6.171   0.109 -0.4336  0.8011  0.1683
   41MOL0     C 5560  10.101   6.195  -0.031  0.7370 -0.8376 -0.5249
   41MOL0     C 5561   9.997   6.263  -0.116  0.4778  0.3996  0.5127
   41MOL0     C 5562  10.054   6.283  -0.257  0.5931 -0.0305 -1.0135
   41MOL0     C 5563   9.945   6.326  -0.353  0.3161  0.5838 -0.1367
   41MOL0     C 5564  10.000   6.373  -0.499  0.7872  0.0326  0.4076
   41MOL0    Cl 5565  10.128   6.502  -0.478 -0.2490 -0.2997  0.5077
   41MOL0     C 5566  10.239   6.269   0.590  0.2797  0.3858 -0.4197
   41MOL0     C 5567  10.268   6.321   0.719  0.0687 -0.3740 -0.7013
   41MOL0     O 5568  10.276   6.607   0.839 -0.3971 -0.1420 -0.3706
   41MOL0     C 5569  10.081   6.618   1.120 -0.3040  0.6407  0.6422
   41MOL0     C 5570  10.062   6.662   1.248  0.3324 -0.4918  0.4794
   41MOL0     N 5571   9.925   6.980   1.856 -0.6594 -0.7907 -0.0872
   41MOL0     N 5572   9.826   7.016   1.933 -0.8449  0.3903 -0.4018
   41MOL0     C 5573   8.701   7.489   1.451 -0.2691  0.0928  1.0452
   41MOL0     C 5574   8.584   7.558   1.424 -0.2439 -0.9024  0.0660
   41MOL0     C 5575   8.283   7.887   1.349 -0.1523  1.0357  0.4513
   41MOL0     C 5576   8.181   7.864   1.456  0.0784  0.5296  0.0320
   41MOL0     C 5577   8.049   7.898   1.429  0.6155  0.6060  1.1539
   41MOL0     C 5578   8.014   7.964   1.312  0.2902 -0.5625  0.1930
   41MOL0     O 5579   7.880   7.994   1.293  0.1876  0.3465 -0.5712
   41MOL0     C 5580   7.818   8.063   1.180 -0.2459  0.1750  0.1868
   41MOL0     C 5581   7.822   7.982   1.050 -0.3528  0.4238 -0.7932
   41MOL0     C 5582   7.809   8.071   0.928 -0.3695  0.0394  0.1464
   41MOL0     C 5583   7.943   8.118   0.884  1.4437  0.2247 -0.3803
   41MOL0     C 5584   7.956   8.151   0.746  0.3555 -0.4744  1.3452
   41MOL0     C 5585   7.975   8.178   0.632 -0.2077 -0.4727  0.5367
   41MOL0     C 5586   8.106   7.996   1.219 -0.7733 -0.2634  0.3855
   41MOL0     C 5587   8.240   7.960   1.233 -0.8702  0.2196  0.2224
   41MOL0     C 5588   8.339   8.006   1.126 -0.0486 -0.5996 -0.7614
   41MOL0     H 5589   8.555   7.756   1.700  1.9416  1.3183  0.4882
   41MOL0     H 5590   8.779   7.647   1.743  0.6405  2.0185 -1.1600
   41MOL0     H 5591   9.008   7.591   1.676 -0.9388 -1.8678  1.3222
   41MOL0     H 5592   9.006   7.562   1.500  2.6553  1.5404  0.8092
   41MOL0     H 5593   9.122   7.345   1.530 -1.3567 -1.0343  0.6590
   41MOL0     H 5594   9.211   7.488   1.595 -1.3217  0.9954  3.0206
   41MOL0     H 5595   9.129   7.443   1.832  2.0488  1.3779 -0.1016
   41MOL0     H 5596   9.053   7.293   1.777 -0.9705  0.9667  3.4061
   41MOL0     H 5597   9.275   7.219   1.689  2.3484  2.3212 -3.2172
   41MOL0     H 5598   9.360   7.361   1.748 -1.1462 -0.8623 -1.4343
   41MOL0     H 5599   9.211   7.228   1.956  0.6962  0.6002  2.1602
   41MOL0     H 5600   9.353   7.330   1.974  0.4252  1.2830 -1.9335
   41MOL0     H 5601   9.405   7.099   2.017 -1.0886 -2.1354 -0.8727
   41MOL0     H 5602   9.314   7.041   1.880  0.1345  0.4434 -1.5708
   41MOL0     H 5603   9.499   7.170   1.733  1.5857  2.3640  1.2920
   41MOL0     H 5604   9.519   7.007   1.803  0.0807 -0.4425  2.6592
   41MOL0     H 5605   9.623   7.277   1.915 -2.4400  0.1059 -1.5844
   41MOL0     H 5606   9.610   7.132   2.024  1.0475  1.1508  0.5708
   41MOL0     H 5607   9.799   7.219   1.678  0.5276 -1.2273 -0.5623
   41MOL0     H 5608  10.122   7.115   1.710  0.1489 -0.4680  0.3731
   41MOL0     H 5609  10.025   7.173   1.583  4.9072 -0.3356 -0.9803
   41MOL0     H 5610   9.987   6.888   1.582  0.6848 -2.0733 -0.1579
   41MOL0     H 5611  10.075   6.983   1.455  0.6011 -0.7695 -0.8836
   41MOL0     H 5612  10.276   6.957   1.646  1.0370 -0.8332 -0.7786
   41MOL0     H 5613  10.183   6.807   1.682 -0.6165 -1.0005 -0.7865
   41MOL0     H 5614  10.291   6.886   1.416 -2.4361 -0.1496 -0.6575
   41MOL0     H 5615  10.351   6.770   1.525 -0.4190  0.9425 -0.3516
   41MOL0     H 5616  10.391   6.648   1.341 -1.0726  2.4960  1.6390
   41MOL0     H 5617  10.543   6.565   1.181  2.6383 -2.5248 -1.2953
   41MOL0     H 5618  10.498   6.590   1.009  1.3541 -1.9884  0.4299
   41MOL0     H 5619  10.458   6.443   1.096 -0.0452 -0.2091 -0.6987
   41MOL0     H 5620   9.946   6.406   0.801  0.6878  0.0120  0.2398
   41MOL0     H 5621   9.901   6.319   0.581  0.2496 -0.5916  1.1508
   41MOL0     H 5622  10.212   6.289   0.281  1.3704 -0.4621 -0.4481
   41MOL0     H 5623  10.253   6.148   0.370  1.4457  0.9951  0.7731
   41MOL0     H 5624  10.204   6.061   0.146 -0.6209 -2.9889  1.4879
   41MOL0     H 5625  10.083   6.007   0.243 -0.9838 -0.4150  0.4795
   41MOL0     H 5626   9.999   6.268   0.149  1.0797  1.0315  0.8843
   41MOL0     H 5627   9.943   6.107   0.098  0.0201  0.5893 -3.4608
   41MOL0     H 5628  10.128   6.099  -0.076 -1.0244  0.6215 -5.2613
   41MOL0     H 5629  10.192   6.255  -0.021 -1.6961  2.9797  1.6063
   41MOL0     H 5630   9.913   6.193  -0.113  1.7302 -1.1129  1.8649
   41MOL0     H 5631   9.968   6.358  -0.068  0.4149 -0.6323  2.6513
   41MOL0     H 5632  10.112   6.194  -0.285 -0.0117 -0.5184 -0.7306
   41MOL0     H 5633  10.134   6.357  -0.247 -0.1326  0.5793  0.4857
   41MOL0     H 5634   9.873   6.397  -0.312 -0.5561 -0.7841  0.8022
   41MOL0     H 5635   9.882   6.241  -0.382  0.4722  1.7167 -4.7165
   41MOL0     H 5636   9.914   6.395  -0.564  2.2351  1.1882 -1.1922
   41MOL0     H 5637  10.052   6.292  -0.551  0.7013  0.7155 -0.7904
   41MOL0     H 5638  10.322   6.234   0.531  1.5740  3.3794 -0.5863
   41MOL0     H 5639  10.371   6.319   0.754 -0.0216  0.1540 -0.3927
   41MOL0     H 5640   9.999   6.622   1.049  1.8090 -0.2451 -2.0166
   41MOL0     H 5641   9.959   6.667   1.282 -0.1529  0.1309 -0.9997
   41MOL0     H 5642   8.737   7.408   1.387  1.2855  2.9615 -2.0059
   41MOL0     H 5643   8.533   7.537   1.330 -0.7873 -0.0134  0.1559
   41MOL0     H 5644   8.203   7.800   1.541 -0.3995  0.5568  0.1772
   41MOL0     H 5645   7.973   7.868   1.501 -3.2357 -0.0149 -2.7671
   41MOL0     H 5646   7.714   8.089   1.201 -0.5283  0.1517 -1.0955
   41MOL0     H 5647   7.887   8.147   1.167  1.9281 -1.8490 -2.7318
   41MOL0     H 5648   7.736   7.916   1.064 -0.6627  0.8917 -0.4660
   41MOL0     H 5649   7.911   7.918   1.055 -1.3790 -0.9742  1.2243
   41MOL0     H 5650   7.775   8.019   0.837 -0.3110  1.1904 -0.5584
   41MOL0     H 5651   7.744   8.159   0.933  2.0368  1.9413 -0.5052
   41MOL0     H 5652   8.020   8.043   0.906  1.0783 -0.6877 -2.0501
   41MOL0     H 5653   7.958   8.213   0.937 -0.4577  1.3924 -1.8369
   41MOL0     H 5654   7.979   8.212   0.530 -2.1624  1.6056  1.0660
   41MOL0     H 5655   8.081   8.047   1.127 -1.3272  2.0759  1.7521
   41MOL0     H 5656   8.289   8.051   1.040  1.0801  1.1409 -0.5608
   41MOL0     H 5657   8.394   8.090   1.169 -1.5433 -0.9069  2.0081
   41MOL0     H 5658   8.409   7.929   1.094  2.0383  1.5066 -1.5620
   42MOL0     O 5659   3.160   3.929   5.132  0.0428 -0.0007  0.5741
   42MOL0     C 5660   3.114   3.816   5.109  0.1855 -0.0769  0.3711
   42MOL0     O 5661   3.115   3.708   5.193 -0.3315  0.4449  0.5187
   42MOL0     C 5662   3.225   3.700   5.275 -0.7032 -0.0283 -0.4688
   42MOL0     C 5663   3.214   3.650   5.408  0.5181  0.0719 -0.0294
   42MOL0     C 5664   3.316   3.622   5.496 -0.4096 -0.1965  0.3996
   42MOL0     C 5665   3.445   3.648   5.447  0.3834  0.5847  0.3930
   42MOL0     O 5666   3.554   3.634   5.522 -0.1653 -0.6370  0.2338
   42MOL0     C 5667   3.561   3.526   5.621 -0.0418  0.2024 -0.7118
   42MOL0     C 5668   3.696   3.464   5.624 -1.1468 -0.5564 -0.3824
   42MOL0     C 5669   3.797   3.569   5.649 -0.2901  0.2974  0.0727
   42MOL0     C 5670   3.950   3.529   5.618 -0.1111 -0.3901  0.1260
   42MOL0     C 5671   4.055   3.631   5.672  0.4640  0.8724  0.6368
   42MOL0     C 5672   4.084   3.625   5.823 -0.4430 -0.1803  0.0265
   42MOL0     C 5673   4.060   3.494   5.904 -0.2902  0.1808  0.2359
   42MOL0     C 5674   4.095   3.501   6.053  0.2074 -0.7016  0.4292
   42MOL0     N 5675   4.236   3.492   6.099 -0.2664  0.1094  0.5072
   42MOL0     C 5676   4.299   3.576   6.189  0.0290  0.6597  0.5329
   42MOL0     C 5677   4.424   3.523   6.202  0.5804  0.7055 -0.5996
   42MOL0     C 5678   4.536   3.578   6.291  0.0992  0.4976 -0.3318
   42MOL0     C 5679   4.617   3.689   6.221  0.7717  0.5139 -0.1557
   42MOL0     C 5680   4.744   3.635   6.152  0.5145 -0.9470  0.1682
   42MOL0     C 5681   4.869   3.639   6.235 -0.4065  0.2687 -0.7443
   42MOL0     O 5682   4.854   3.629   6.384 -0.3308 -0.0803  0.1232
   42MOL0     C 5683   4.959   3.593   6.464  0.4263 -0.4177 -0.1036
   42MOL0     C 5684   5.085   3.615   6.435 -0.3071  0.6164  0.0886
   42MOL0     C 5685   5.182   3.575   6.530  0.3151  1.1902 -0.0757
   42MOL0     C 5686   5.329   3.594   6.501 -0.8157  0.3404 -0.3118
   42MOL0     C 5687   5.146   3.506   6.647  0.1615  0.7361 -0.4647
   42MOL0     C 5688   5.243   3.440   6.735 -0.0584 -0.2030  0.0244
   42MOL0     O 5689   5.343   3.510   6.785  0.5597  0.1505 -0.6235
   42MOL0     C 5690   5.432   3.444   6.871  0.7770 -0.1778 -0.8296
   42MOL0     C 5691   5.567   3.448   6.848  0.0554 -0.2591  0.2285
   42MOL0     C 5692   5.659   3.409   6.947 -0.5255  0.1198  0.2365
   42MOL0     C 5693   5.613   3.328   7.053 -0.2062 -0.5961 -0.8200
   42MOL0     O 5694   5.693   3.248   7.132  0.2525 -0.0125  0.3175
   42MOL0     C 5695   5.831   3.250   7.107  0.8982  0.0125 -0.6295
   42MOL0     C 5696   5.902   3.166   7.209 -0.3166 -1.1623  0.2239
   42MOL0     C 5697   5.869   3.019   7.194  1.1335  0.2093 -0.2123
   42MOL0     C 5698   5.946   2.939   7.293 -0.0426  0.2570 -0.2271
   42MOL0     C 5699   6.071   2.887   7.228 -0.3728  0.1436  0.5881
   42MOL0     C 5700   6.190   2.921   7.313 -0.0833 -0.4579 -0.9102
   42MOL0     C 5701   6.203   2.826   7.439 -0.5980 -0.0686 -0.2684
   42MOL0     C 5702   6.292   2.875   7.548  0.3175  0.2620  0.1769
   42MOL0    Cl 5703   6.215   3.003   7.656  0.0999 -0.1513  0.3443
   42MOL0     C 5704   5.472   3.313   7.070  0.0052 -0.0006  0.0344
   42MOL0     C 5705   5.378   3.376   6.990 -0.1753 -0.8074  0.8421
   42MOL0     O 5706   5.219   3.323   6.748  0.3378  0.2210 -0.0029
   42MOL0     C 5707   5.009   3.489   6.665  0.1509  0.9702 -0.5110
   42MOL0     C 5708   4.918   3.530   6.580  0.6256 -0.1848  0.9633
   42MOL0     N 5709   4.424   3.411   6.124  0.7929  0.6117  0.3345
   42MOL0     N 5710   4.304   3.388   6.067  0.2649 -0.2048  0.1486
   42MOL0     C 5711   3.466   3.696   5.318  0.3565  0.1401 -0.1464
   42MOL0     C 5712   3.353   3.711   5.230 -0.0454 -0.4777 -0.6818
   42MOL0     C 5713   3.049   3.787   4.981 -0.3158  0.2291  0.7798
   42MOL0     C 5714   3.040   3.656   4.925 -0.1283 -0.2665 -0.7621
   42MOL0     C 5715   2.982   3.633   4.796  0.0558  1.0497  0.3769
   42MOL0     C 5716   2.926   3.736   4.716 -0.4206  1.0481 -0.2131
   42MOL0     O 5717   2.873   3.724   4.592 -0.0871 -0.6985 -0.6217
   42MOL0     C 5718   2.851   3.604   4.514 -0.4191  1.3712  0.0545
   42MOL0     C 5719   2.978   3.559   4.435 -0.1956  1.1277 -0.7542
   42MOL0     C 5720   2.993   3.620   4.287 -0.2006 -0.9841 -0.1256
   42MOL0     C 5721   2.956   3.774   4.278  0.6580 -0.0767 -0.1054
   42MOL0     C 5722   3.048   3.832   4.186 -0.1047  0.3459  0.0270
   42MOL0     C 5723   3.137   3.882   4.111  0.9180  0.3225  0.1475
   42MOL0     C 5724   2.927   3.859   4.773 -0.2558  0.5602 -0.1317
   42MOL0     C 5725   2.979   3.884   4.908  0.0840  0.1932 -0.1249
   42MOL0     C 5726   2.982   4.028   4.946 -0.2404  0.0890 -0.0907
   42MOL0     H 5727   3.113   3.619   5.434  0.9255 -1.5795 -0.3307
   42MOL0     H 5728   3.304   3.580   5.595 -0.9803  1.0647  0.8858
   42MOL0     H 5729   3.487   3.448   5.601 -0.0313 -0.0993  0.3592
   42MOL0     H 5730   3.539   3.569   5.719 -0.6770  0.1823 -0.8469
   42MOL0     H 5731   3.717   3.385   5.697  0.0428  0.6676  0.6471
   42MOL0     H 5732   3.721   3.421   5.526  2.3904 -0.7488  0.4727
   42MOL0     H 5733   3.779   3.656   5.585  1.2527  0.3964 -0.2799
   42MOL0     H 5734   3.786   3.600   5.754 -0.5886  0.3892  0.0143
   42MOL0     H 5735   3.960   3.433   5.668  0.5388 -0.7603 -0.6890
   42MOL0     H 5736   3.960   3.510   5.510  2.1654 -2.1430  0.5773
   42MOL0     H 5737   4.031   3.734   5.644 -1.1178 -0.2034 -2.4711
   42MOL0     H 5738   4.151   3.605   5.627 -0.5828  0.8636 -1.7241
   42MOL0     H 5739   4.189   3.656   5.833 -0.4086 -0.1320 -0.4693
   42MOL0     H 5740   4.029   3.705   5.874  1.2259 -0.4301  2.3862
   42MOL0     H 5741   4.118   3.417   5.852 -1.2017 -0.9725  0.8840
   42MOL0     H 5742   3.953   3.471   5.900 -0.1068 -0.8419  0.7262
   42MOL0     H 5743   4.053   3.595   6.091  0.4693  0.4740 -1.9841
   42MOL0     H 5744   4.043   3.416   6.097 -1.7086  1.1189  1.9186
   42MOL0     H 5745   4.256   3.669   6.224  1.0120  1.0635  0.6847
   42MOL0     H 5746   4.606   3.496   6.307  0.5586  0.8324 -0.6287
   42MOL0     H 5747   4.485   3.616   6.380 -0.1999 -0.1755 -0.2087
   42MOL0     H 5748   4.552   3.744   6.152 -0.8665 -0.7070  0.3427
   42MOL0     H 5749   4.654   3.764   6.291 -2.2065  3.4815 -1.5152
   42MOL0     H 5750   4.723   3.528   6.141  0.8058 -1.1799  1.6760
   42MOL0     H 5751   4.767   3.679   6.054 -1.5059 -4.8947 -2.3640
   42MOL0     H 5752   4.939   3.556   6.223 -0.8022 -0.4085  1.2471
   42MOL0     H 5753   4.921   3.735   6.221  0.5428 -0.4089 -2.0409
   42MOL0     H 5754   5.113   3.666   6.344  0.4986 -0.0338 -0.0359
   42MOL0     H 5755   5.386   3.502   6.516 -1.4651 -0.3606 -1.9716
   42MOL0     H 5756   5.378   3.663   6.570  1.9624 -3.0544  1.4341
   42MOL0     H 5757   5.333   3.621   6.395 -0.6365 -3.1562 -1.3172
   42MOL0     H 5758   5.607   3.496   6.759  1.0115 -3.0138 -0.9229
   42MOL0     H 5759   5.762   3.434   6.926 -1.0464  0.7233 -1.7579
   42MOL0     H 5760   5.848   3.197   7.013  2.1957 -0.5347 -0.1009
   42MOL0     H 5761   5.882   3.347   7.111  3.1093 -1.0807 -1.0838
   42MOL0     H 5762   6.010   3.183   7.201 -0.6719  0.9305 -0.8172
   42MOL0     H 5763   5.874   3.203   7.308  0.6125  2.3705 -0.6988
   42MOL0     H 5764   5.868   2.979   7.092  0.9198 -0.8582  0.2019
   42MOL0     H 5765   5.767   3.020   7.234  0.3966  0.5163 -2.0094
   42MOL0     H 5766   5.899   2.846   7.327  1.4624 -0.2313  0.6676
   42MOL0     H 5767   5.970   3.002   7.379 -2.1491  0.4038  0.3073
   42MOL0     H 5768   6.067   2.784   7.191  0.0810  0.9105 -1.7666
   42MOL0     H 5769   6.080   2.944   7.135 -1.1641 -2.1870 -1.0071
   42MOL0     H 5770   6.191   3.024   7.349 -0.4523 -1.4287  2.1762
   42MOL0     H 5771   6.277   2.904   7.249  0.7030 -3.2057  0.7031
   42MOL0     H 5772   6.244   2.732   7.402 -1.3512 -0.4826 -0.0584
   42MOL0     H 5773   6.101   2.814   7.475 -1.7301  3.8478 -1.6320
   42MOL0     H 5774   6.391   2.898   7.507  0.4837 -1.8120 -0.7142
   42MOL0     H 5775   6.310   2.789   7.613 -1.3248  1.9657  3.1047
   42MOL0     H 5776   5.425   3.251   7.145 -2.3734 -0.1452 -1.4674
   42MOL0     H 5777   5.270   3.381   7.004 -0.6041  1.1574 -2.2153
   42MOL0     H 5778   4.968   3.440   6.753 -0.3846  0.6880 -0.9078
   42MOL0     H 5779   4.811   3.533   6.600 -0.0287  1.1785 -2.0341
   42MOL0     H 5780   3.568   3.712   5.285 -0.8299  3.0190 -2.8536
   42MOL0     H 5781   3.378   3.728   5.126  2.4664 -2.3745 -0.4738
   42MOL0     H 5782   3.099   3.580   4.976  1.2348  1.9415  1.2272
   42MOL0     H 5783   2.964   3.536   4.751  1.0934  1.0334 -0.0347
   42MOL0     H 5784   2.816   3.528   4.585 -1.5444  3.5863  2.0104
   42MOL0     H 5785   2.778   3.625   4.436  0.3170  0.1138 -1.0184
   42MOL0     H 5786   2.966   3.450   4.440  1.6807  0.9275  0.2789
   42MOL0     H 5787   3.057   3.596   4.501 -1.8031  2.6684  0.3647
   42MOL0     H 5788   3.096   3.596   4.256 -0.0977 -1.2831  0.4303
   42MOL0     H 5789   2.940   3.563   4.210 -0.9156  1.2317 -1.3403
   42MOL0     H 5790   2.967   3.812   4.380 -3.2102  0.5697  0.2057
   42MOL0     H 5791   2.855   3.799   4.245  0.1219  3.2999  3.4319
   42MOL0     H 5792   3.219   3.925   4.058  2.3473  1.5513  3.1017
   42MOL0     H 5793   2.878   3.932   4.710  0.6034  0.7440 -0.5987
   42MOL0     H 5794   3.079   4.077   4.933  0.9014 -1.7058  1.2735
   42MOL0     H 5795   2.918   4.096   4.889  0.3570  1.2225  0.5766
   42MOL0     H 5796   2.943   4.038   5.047  0.4698  2.0660  0.0215
   43MOL0     O 5797  10.065   4.151   5.493  0.3431  0.0466 -0.3308
   43MOL0     C 5798  10.012   4.250   5.550 -0.4844  0.2958  0.3935
   43MOL0     O 5799  10.074   4.319   5.655 -0.6734  0.0008 -0.0730
   43MOL0     C 5800  10.185   4.268   5.702 -0.4702  0.2686  0.3185
   43MOL0     C 5801  10.184   4.190   5.818  0.3599  0.3842 -0.1930
   43MOL0     C 5802  10.308   4.158   5.879 -0.1349  0.4781  0.8273
   43MOL0     C 5803  10.429   4.202   5.818 -0.8271 -0.8356 -0.4358
   43MOL0     O 5804  10.540   4.162   5.888 -0.3363  0.2001 -0.5222
   43MOL0     C 5805  10.629   4.276   5.921 -0.0144  1.0177  0.0571
   43MOL0     C 5806  10.778   4.232   5.951  0.0979 -0.6914  0.3665
   43MOL0     C 5807  10.778   4.127   6.064  0.0220  0.3127  0.0104
   43MOL0     C 5808  10.923   4.078   6.104 -0.3356  0.5223  0.4753
   43MOL0     C 5809  10.932   3.946   6.185 -0.1146  0.8911  0.6650
   43MOL0     C 5810  10.847   3.937   6.312  0.2925  0.2143  0.8213
   43MOL0     C 5811  10.881   3.815   6.396 -0.0093 -0.6074  0.1032
   43MOL0     C 5812  10.813   3.686   6.366 -0.3596  1.5880 -0.0951
   43MOL0     N 5813  10.844   3.591   6.477  0.3528 -0.3217 -0.0479
   43MOL0     C 5814  10.865   3.453   6.456  0.9835  0.6808  0.1250
   43MOL0     C 5815  10.850   3.396   6.579 -1.0656 -0.1566 -0.9561
   43MOL0     C 5816  10.906   3.259   6.629 -0.0194 -0.2696 -0.1706
   43MOL0     C 5817  10.796   3.159   6.663 -0.6069 -0.0610  0.3043
   43MOL0     C 5818  10.719   3.196   6.797 -0.0845  0.7268 -0.4807
   43MOL0     C 5819  10.609   3.099   6.832 -0.7041 -0.6861  0.4697
   43MOL0     O 5820  10.668   2.974   6.877 -0.2787  0.1393 -0.0209
   43MOL0     C 5821  10.611   2.853   6.851 -1.3852 -0.5290 -0.1467
   43MOL0     C 5822  10.472   2.831   6.830  0.1501  0.2767 -0.1016
   43MOL0     C 5823  10.426   2.702   6.819 -0.1196  0.1657  0.1438
   43MOL0     C 5824  10.272   2.680   6.811 -0.1241  0.2955  0.2264
   43MOL0     C 5825  10.517   2.589   6.818  0.6611 -0.4592  0.1308
   43MOL0     C 5826  10.486   2.446   6.786  0.9909  0.0011  0.4202
   43MOL0     O 5827  10.600   2.363   6.775 -0.6499  0.0436  0.3723
   43MOL0     C 5828  10.575   2.225   6.780 -0.6489  1.0658 -0.0879
   43MOL0     C 5829  10.669   2.137   6.716 -0.4565  0.1434  0.3867
   43MOL0     C 5830  10.664   1.993   6.724  0.1364 -0.2682  0.4149
   43MOL0     C 5831  10.569   1.934   6.798  0.0775 -0.3753  0.1956
   43MOL0     O 5832  10.543   1.803   6.807 -0.2923  0.3315  0.2400
   43MOL0     C 5833  10.651   1.710   6.832 -0.0582 -0.1635  0.6887
   43MOL0     C 5834  10.704   1.649   6.705  0.8136  0.1323 -0.4351
   43MOL0     C 5835  10.629   1.527   6.647 -0.3158 -0.6795 -0.4523
   43MOL0     C 5836  10.532   1.564   6.541 -0.3653  0.1497  0.1282
   43MOL0     C 5837  10.428   1.455   6.505  0.7656 -0.3693  0.2725
   43MOL0     C 5838  10.349   1.475   6.379  0.3666 -0.2439  0.2117
   43MOL0     C 5839  10.212   1.400   6.368 -0.6555  0.9114  1.3509
   43MOL0     C 5840  10.170   1.392   6.219  0.1593 -0.0819  0.0604
   43MOL0    Cl 5841  10.023   1.283   6.178  0.1395  0.3713 -0.7707
   43MOL0     C 5842  10.473   2.014   6.870 -0.1411 -0.3675 -0.4119
   43MOL0     C 5843  10.479   2.158   6.861 -0.5004  0.2190 -0.6854
   43MOL0     O 5844  10.364   2.415   6.778 -0.2089 -0.3915 -0.7861
   43MOL0     C 5845  10.656   2.625   6.849 -0.0960  0.5965  0.5936
   43MOL0     C 5846  10.696   2.753   6.869 -0.1745  0.0918  0.1062
   43MOL0     N 5847  10.805   3.483   6.675  0.6743  0.0842 -0.2187
   43MOL0     N 5848  10.806   3.601   6.611 -0.3017 -0.0097 -0.4685
   43MOL0     C 5849  10.423   4.258   5.695 -0.3828 -1.1572  0.2304
   43MOL0     C 5850  10.304   4.300   5.634  0.7477  0.7858  1.2080
   43MOL0     C 5851   9.883   4.302   5.520 -0.1262 -0.5495  0.0001
   43MOL0     C 5852   9.807   4.363   5.623  0.1141 -0.3638  0.3234
   43MOL0     C 5853   9.674   4.401   5.608 -0.6716 -0.3484  0.5207
   43MOL0     C 5854   9.610   4.372   5.492  0.1775  0.5153 -0.2093
   43MOL0     O 5855   9.478   4.413   5.488  0.0771 -0.1169  0.6789
   43MOL0     C 5856   9.403   4.432   5.367 -0.1742 -1.1706  0.6585
   43MOL0     C 5857   9.281   4.519   5.392 -0.2735  0.1820 -0.7316
   43MOL0     C 5858   9.166   4.434   5.443 -0.0082 -0.0537  0.3002
   43MOL0     C 5859   9.175   4.397   5.597  0.0568  0.2801  0.7216
   43MOL0     C 5860   9.066   4.307   5.631 -0.3535  0.2553 -0.4893
   43MOL0     C 5861   8.959   4.252   5.642 -0.1534  0.1865  0.7830
   43MOL0     C 5862   9.682   4.320   5.383 -0.0428 -0.0213  0.2813
   43MOL0     C 5863   9.824   4.288   5.393  0.1256  0.0593 -0.5570
   43MOL0     C 5864   9.904   4.264   5.260  0.4323 -0.0137 -0.0659
   43MOL0     H 5865  10.090   4.149   5.855  1.6034 -4.7204 -1.8055
   43MOL0     H 5866  10.311   4.101   5.972 -0.6540 -0.8657  0.0446
   43MOL0     H 5867  10.588   4.312   6.016  1.9973  0.2441  1.2804
   43MOL0     H 5868  10.625   4.356   5.846 -0.9911 -0.1485 -1.1683
   43MOL0     H 5869  10.806   4.198   5.851 -0.0499  4.0460 -1.5242
   43MOL0     H 5870  10.839   4.317   5.983  1.2896 -1.9110  1.4624
   43MOL0     H 5871  10.724   4.164   6.152  1.0822  0.3834  0.6397
   43MOL0     H 5872  10.726   4.038   6.027  1.1505 -0.7262  0.8372
   43MOL0     H 5873  10.983   4.066   6.013 -0.3922  0.5396  0.4350
   43MOL0     H 5874  10.975   4.157   6.159  1.8941 -0.7718  0.3082
   43MOL0     H 5875  11.036   3.925   6.213 -1.0154 -0.4301  3.3536
   43MOL0     H 5876  10.906   3.870   6.110  2.1408  2.2251 -1.6473
   43MOL0     H 5877  10.863   4.024   6.376  0.2037  1.8206 -1.2671
   43MOL0     H 5878  10.743   3.941   6.279  0.9937  2.3302 -1.3580
   43MOL0     H 5879  10.848   3.833   6.498 -1.8660 -1.9728 -0.2044
   43MOL0     H 5880  10.990   3.824   6.388 -0.0312  1.5953  1.6319
   43MOL0     H 5881  10.704   3.694   6.372 -0.3536  1.7726 -0.2049
   43MOL0     H 5882  10.844   3.655   6.266  2.9817 -1.4533  1.6547
   43MOL0     H 5883  10.899   3.420   6.358 -0.7636  0.4741 -0.4511
   43MOL0     H 5884  10.969   3.277   6.716 -0.8605 -0.6023  0.5241
   43MOL0     H 5885  10.974   3.230   6.548 -0.2647  0.8935 -0.8151
   43MOL0     H 5886  10.731   3.156   6.574  1.4167  1.6668 -1.3356
   43MOL0     H 5887  10.843   3.061   6.675 -1.7805 -0.7325 -0.3840
   43MOL0     H 5888  10.794   3.216   6.874  0.1587  1.1718 -0.8209
   43MOL0     H 5889  10.674   3.296   6.788  2.0024  1.9074  1.2655
   43MOL0     H 5890  10.558   3.137   6.922 -0.1098 -0.4152  0.6967
   43MOL0     H 5891  10.532   3.096   6.754 -0.5018 -0.9184  0.2767
   43MOL0     H 5892  10.402   2.914   6.827  0.1375  0.4251  2.2475
   43MOL0     H 5893  10.231   2.645   6.906 -2.6912  0.5766 -0.7010
   43MOL0     H 5894  10.241   2.616   6.728  0.1172  0.6708 -0.1621
   43MOL0     H 5895  10.211   2.767   6.787  0.5712  0.3181 -1.6592
   43MOL0     H 5896  10.751   2.173   6.655  0.3996 -1.6318  0.4183
   43MOL0     H 5897  10.726   1.925   6.667  0.5457  0.3164  0.1483
   43MOL0     H 5898  10.735   1.757   6.884 -0.3393  0.2758  0.7528
   43MOL0     H 5899  10.614   1.631   6.899  0.4560  0.2869  1.5320
   43MOL0     H 5900  10.698   1.727   6.628 -3.3579  0.5342  0.0979
   43MOL0     H 5901  10.809   1.619   6.714  0.6708 -0.0440  0.7360
   43MOL0     H 5902  10.578   1.467   6.724 -1.7440  0.8161 -0.1678
   43MOL0     H 5903  10.695   1.461   6.591 -0.7492 -0.8188 -0.8080
   43MOL0     H 5904  10.580   1.587   6.445  0.9939 -4.6163 -0.6239
   43MOL0     H 5905  10.473   1.653   6.565 -1.8542 -0.8297  0.2697
   43MOL0     H 5906  10.475   1.356   6.510 -2.6058 -2.0760  1.2991
   43MOL0     H 5907  10.364   1.455   6.593  1.0312 -0.8602  0.4711
   43MOL0     H 5908  10.411   1.455   6.291  0.3024  3.0127 -0.7259
   43MOL0     H 5909  10.312   1.578   6.374 -0.7596 -0.6623 -0.5379
   43MOL0     H 5910  10.142   1.452   6.435  0.0374  0.6064  2.3472
   43MOL0     H 5911  10.232   1.297   6.401  0.9798 -0.0429 -2.2066
   43MOL0     H 5912  10.248   1.354   6.152 -0.7055 -0.6181 -0.6608
   43MOL0     H 5913  10.143   1.491   6.180  0.8272  0.0165 -0.1758
   43MOL0     H 5914  10.397   1.962   6.928  1.7612 -0.0276  2.6377
   43MOL0     H 5915  10.420   2.218   6.930  0.3705  1.0720 -0.6484
   43MOL0     H 5916  10.725   2.541   6.854 -0.0989  0.5003 -0.7066
   43MOL0     H 5917  10.800   2.767   6.896  0.8201  0.8011 -3.5460
   43MOL0     H 5918  10.512   4.276   5.636 -1.2861  0.7552 -0.6068
   43MOL0     H 5919  10.300   4.347   5.537  0.0732  1.9275  1.7658
   43MOL0     H 5920   9.836   4.377   5.727 -2.9201  0.5663  1.1322
   43MOL0     H 5921   9.627   4.445   5.696 -0.4414 -0.2169  0.5769
   43MOL0     H 5922   9.467   4.491   5.301 -1.3034  0.3180  0.8411
   43MOL0     H 5923   9.374   4.341   5.314  0.0732 -0.0045 -1.6189
   43MOL0     H 5924   9.253   4.569   5.299 -0.3858 -1.1058 -1.4201
   43MOL0     H 5925   9.310   4.600   5.458  2.1067 -1.9138  1.0200
   43MOL0     H 5926   9.079   4.500   5.431  2.7258  3.8818  0.1561
   43MOL0     H 5927   9.157   4.345   5.381  4.4386  0.0844 -0.9166
   43MOL0     H 5928   9.165   4.489   5.656 -2.0407  1.0691 -0.7388
   43MOL0     H 5929   9.272   4.354   5.625  0.6755  2.7915  2.8403
   43MOL0     H 5930   8.864   4.205   5.654  0.4419 -1.5528 -0.8148
   43MOL0     H 5931   9.637   4.311   5.284  0.3205  1.1893 -0.0235
   43MOL0     H 5932   9.838   4.222   5.183 -2.6340  0.3528  2.1632
   43MOL0     H 5933   9.955   4.353   5.222  3.3432 -0.2511  2.7866
   43MOL0     H 5934   9.979   4.185   5.263 -1.7876 -2.2993 -0.9560
   44MOL0     O 5935   7.265   3.048   0.629 -0.3148  0.8968 -0.8087
   44MOL0     C 5936   7.249   2.938   0.678  0.0526  0.5433 -0.4998
   44MOL0     O 5937   7.302   2.904   0.799  0.3237 -0.0214  0.2404
   44MOL0     C 5938   7.378   2.990   0.870 -0.2317 -0.7311  0.2525
   44MOL0     C 5939   7.515   3.013   0.851 -0.6108  0.0216  0.4092
   44MOL0     C 5940   7.583   3.106   0.926  0.1169  0.2106 -0.7512
   44MOL0     C 5941   7.529   3.169   1.036 -0.1326  0.2716  0.4393
   44MOL0     O 5942   7.614   3.251   1.111 -1.2967 -0.4151  0.1880
   44MOL0     C 5943   7.740   3.194   1.160  0.2968 -0.2524  0.1319
   44MOL0     C 5944   7.810   3.312   1.232  0.6437  0.0665 -0.1881
   44MOL0     C 5945   7.920   3.256   1.337 -0.4104 -0.8030 -0.5193
   44MOL0     C 5946   8.021   3.156   1.285 -0.1062 -0.2957 -0.1181
   44MOL0     C 5947   8.153   3.148   1.379 -0.2101 -0.4669  0.3682
   44MOL0     C 5948   8.120   3.115   1.532 -0.1536 -0.7893  0.3341
   44MOL0     C 5949   8.067   2.972   1.556 -1.4418  0.3839 -1.4698
   44MOL0     C 5950   8.010   2.968   1.705 -0.7614 -0.4988 -0.3394
   44MOL0     N 5951   8.031   2.831   1.753  0.2521  1.1752 -0.9839
   44MOL0     C 5952   7.945   2.723   1.740  0.1564 -0.1610 -0.2681
   44MOL0     C 5953   8.002   2.621   1.814  0.5432 -0.0334  0.3384
   44MOL0     C 5954   7.952   2.478   1.817  0.3857 -0.1759 -1.0905
   44MOL0     C 5955   8.065   2.379   1.811  0.5038  0.7489  0.5790
   44MOL0     C 5956   8.025   2.232   1.802  0.3847  0.5115 -0.3588
   44MOL0     C 5957   8.062   2.148   1.928  1.0646 -0.2891  0.0826
   44MOL0     O 5958   8.204   2.147   1.941  0.6015  0.5256 -0.3950
   44MOL0     C 5959   8.251   2.101   2.063 -0.3752  0.1579 -0.3073
   44MOL0     C 5960   8.385   2.124   2.100 -0.1371 -0.2867 -0.3916
   44MOL0     C 5961   8.434   2.066   2.218  0.5656 -0.4020  0.2821
   44MOL0     C 5962   8.574   2.121   2.256  0.7243  0.9114 -0.3450
   44MOL0     C 5963   8.361   1.975   2.295  0.1408 -0.4841  0.2590
   44MOL0     C 5964   8.409   1.919   2.434 -0.4075  0.5055  0.2288
   44MOL0     O 5965   8.356   1.816   2.483 -0.1589  0.0483 -0.0246
   44MOL0     C 5966   8.422   1.763   2.586  0.7891 -0.0903  0.0244
   44MOL0     C 5967   8.536   1.681   2.560  0.3991 -0.3654  0.8508
   44MOL0     C 5968   8.595   1.615   2.670 -0.1353 -0.5820 -0.2129
   44MOL0     C 5969   8.552   1.641   2.805  0.2188  0.6168  0.2610
   44MOL0     O 5970   8.624   1.582   2.912 -0.1640  0.9555 -0.6049
   44MOL0     C 5971   8.616   1.655   3.043  0.4438 -0.3306 -0.7814
   44MOL0     C 5972   8.750   1.625   3.119  0.1341  0.1639 -1.9479
   44MOL0     C 5973   8.878   1.643   3.038  0.4846 -0.2113  0.2874
   44MOL0     C 5974   8.993   1.583   3.120  0.4784  0.2036  0.9344
   44MOL0     C 5975   9.129   1.601   3.051  0.9417 -0.0315  0.2622
   44MOL0     C 5976   9.133   1.561   2.902  0.2804 -0.7176 -0.8894
   44MOL0     C 5977   9.100   1.419   2.866  0.4330 -0.0769  1.2983
   44MOL0     C 5978   9.082   1.405   2.720 -0.3835 -0.4814 -0.2810
   44MOL0    Cl 5979   8.947   1.502   2.650  0.2833  0.5048  0.1453
   44MOL0     C 5980   8.433   1.716   2.824 -0.3679  0.5418  0.4362
   44MOL0     C 5981   8.367   1.779   2.717  0.2345 -0.0437  0.0195
   44MOL0     O 5982   8.488   1.990   2.495  0.0942  0.3227  0.1077
   44MOL0     C 5983   8.239   1.932   2.246 -0.1633  0.4940  0.6619
   44MOL0     C 5984   8.183   1.998   2.132  0.5065  0.5917 -0.4148
   44MOL0     N 5985   8.126   2.672   1.862  0.6842  0.7487 -0.7508
   44MOL0     N 5986   8.141   2.792   1.825  0.9033 -0.1082 -1.2472
   44MOL0     C 5987   7.388   3.156   1.060 -0.1760  0.0917  0.0010
   44MOL0     C 5988   7.318   3.069   0.971  0.1892 -1.0533  0.4565
   44MOL0     C 5989   7.161   2.851   0.605  0.0645 -0.3732 -0.1998
   44MOL0     C 5990   7.042   2.802   0.671  0.3947  0.1468  0.7365
   44MOL0     C 5991   6.949   2.716   0.600  0.5930 -0.3732 -0.0994
   44MOL0     C 5992   6.966   2.684   0.457  0.5899  0.2644 -0.8318
   44MOL0     O 5993   6.874   2.619   0.381  0.4384  0.0015  0.2976
   44MOL0     C 5994   6.748   2.580   0.440 -0.3988  0.5791 -0.3203
   44MOL0     C 5995   6.673   2.461   0.368 -0.1657 -0.2539  1.0113
   44MOL0     C 5996   6.637   2.494   0.220 -0.1520  0.4531  0.4422
   44MOL0     C 5997   6.536   2.394   0.159 -0.6947 -0.3286  0.2324
   44MOL0     C 5998   6.480   2.440   0.036  0.6664 -0.5477 -0.0407
   44MOL0     C 5999   6.433   2.479  -0.071  0.3024 -0.2612  0.8364
   44MOL0     C 6000   7.085   2.730   0.402  0.4143 -0.2906  0.2680
   44MOL0     C 6001   7.176   2.812   0.470  0.1452  0.4194  0.8278
   44MOL0     C 6002   7.284   2.859   0.372 -0.3925  0.7508  0.1455
   44MOL0     H 6003   7.560   2.961   0.767 -2.9434 -1.3292 -0.0981
   44MOL0     H 6004   7.683   3.145   0.906  0.2444  1.2549  1.5894
   44MOL0     H 6005   7.812   3.166   1.082  3.4675  0.8135  2.4714
   44MOL0     H 6006   7.731   3.104   1.223 -0.4704 -0.0794  0.2712
   44MOL0     H 6007   7.855   3.368   1.150 -0.8805  1.2901 -0.2211
   44MOL0     H 6008   7.740   3.379   1.283 -0.3645 -1.1553  0.0969
   44MOL0     H 6009   7.982   3.343   1.358 -0.7573 -1.0197  1.6361
   44MOL0     H 6010   7.873   3.208   1.424  2.5702 -2.7486  0.1517
   44MOL0     H 6011   7.973   3.057   1.286  1.8151 -1.3076  2.2297
   44MOL0     H 6012   8.055   3.179   1.184  1.4509  1.1506  0.6958
   44MOL0     H 6013   8.213   3.238   1.366 -1.4297  0.5733  1.7413
   44MOL0     H 6014   8.220   3.072   1.336  1.1336  0.8873  0.0049
   44MOL0     H 6015   8.213   3.130   1.587 -0.0822 -1.3313  0.3599
   44MOL0     H 6016   8.056   3.198   1.565 -0.4688 -0.4772 -1.0084
   44MOL0     H 6017   8.155   2.907   1.547 -1.2261  0.5162 -0.4567
   44MOL0     H 6018   7.985   2.937   1.493 -2.6212 -0.6287  0.5446
   44MOL0     H 6019   8.077   3.032   1.763 -0.1506 -2.6715  1.5134
   44MOL0     H 6020   7.913   3.019   1.712  0.0977  1.0966  0.5061
   44MOL0     H 6021   7.845   2.718   1.699 -0.7353  0.5513  1.7058
   44MOL0     H 6022   7.900   2.451   1.724  1.9519 -4.8291 -0.8495
   44MOL0     H 6023   7.892   2.466   1.907  1.0182  2.7488 -0.1741
   44MOL0     H 6024   8.134   2.415   1.734  1.4041  0.8885  1.4301
   44MOL0     H 6025   8.124   2.388   1.903 -1.0693  0.6506  1.6444
   44MOL0     H 6026   7.916   2.230   1.791  0.2943 -1.7671  0.4437
   44MOL0     H 6027   8.057   2.179   1.711  0.7455  2.0663 -1.1717
   44MOL0     H 6028   8.019   2.189   2.019  0.4483  0.4083 -0.5127
   44MOL0     H 6029   8.026   2.049   1.898 -3.0900  2.0179 -3.9197
   44MOL0     H 6030   8.435   2.202   2.043  1.3434  1.6898  3.2755
   44MOL0     H 6031   8.646   2.042   2.281  1.0377  1.5897  0.9774
   44MOL0     H 6032   8.567   2.193   2.338 -1.2376  1.2560 -0.7837
   44MOL0     H 6033   8.611   2.178   2.171  1.4705  0.3825 -0.3892
   44MOL0     H 6034   8.561   1.671   2.455  0.7660 -0.1690  0.9139
   44MOL0     H 6035   8.679   1.547   2.663  0.8767  0.2493  2.6826
   44MOL0     H 6036   8.622   1.762   3.021 -0.7182  0.6179  2.8822
   44MOL0     H 6037   8.527   1.638   3.103 -3.4229  1.2644 -5.4268
   44MOL0     H 6038   8.750   1.686   3.210  3.6446 -3.3306  0.7528
   44MOL0     H 6039   8.733   1.523   3.154  1.0602  0.8243  0.6126
   44MOL0     H 6040   8.892   1.751   3.029  2.0949 -0.0723  3.0796
   44MOL0     H 6041   8.880   1.593   2.941  0.9940 -0.4801  0.4310
   44MOL0     H 6042   8.981   1.475   3.134  1.3778 -0.4324 -2.3737
   44MOL0     H 6043   9.006   1.620   3.222  0.8088 -1.2814  1.4578
   44MOL0     H 6044   9.178   1.698   3.054 -0.2850  0.6604 -0.9815
   44MOL0     H 6045   9.196   1.539   3.111  1.0755 -0.3415 -0.2098
   44MOL0     H 6046   9.238   1.566   2.873 -0.1479 -0.5113 -2.5357
   44MOL0     H 6047   9.077   1.622   2.831 -0.9850 -2.8419 -1.7999
   44MOL0     H 6048   9.006   1.385   2.911 -1.3857  0.4137 -1.8688
   44MOL0     H 6049   9.182   1.354   2.900  0.8126  0.5532  1.5949
   44MOL0     H 6050   9.054   1.302   2.697 -0.0725 -1.0430  1.6375
   44MOL0     H 6051   9.178   1.438   2.680 -1.4225  2.2991 -0.7313
   44MOL0     H 6052   8.384   1.717   2.921 -1.8684 -0.1729 -0.2810
   44MOL0     H 6053   8.274   1.832   2.737  0.2022  1.8058 -4.0301
   44MOL0     H 6054   8.179   1.856   2.295  1.1669 -1.3702 -0.4384
   44MOL0     H 6055   8.088   1.966   2.089  1.2772 -1.0237 -1.0320
   44MOL0     H 6056   7.343   3.222   1.133 -2.7488 -0.7561 -0.7065
   44MOL0     H 6057   7.211   3.084   0.971  0.5245  2.2700  2.0171
   44MOL0     H 6058   7.029   2.826   0.776 -0.8093  0.9379  0.4351
   44MOL0     H 6059   6.855   2.690   0.649  0.5391 -0.5857 -0.3127
   44MOL0     H 6060   6.763   2.535   0.539 -1.5852  0.9072  0.0235
   44MOL0     H 6061   6.682   2.667   0.445 -1.3257 -0.1684  1.2148
   44MOL0     H 6062   6.573   2.445   0.410 -2.3329 -0.8821 -3.6881
   44MOL0     H 6063   6.732   2.369   0.378 -1.4168 -0.8477  4.0735
   44MOL0     H 6064   6.597   2.594   0.207 -1.4756  0.0806  1.4705
   44MOL0     H 6065   6.733   2.490   0.166 -0.3024 -0.1027  0.2041
   44MOL0     H 6066   6.448   2.386   0.224  0.5532  4.1628  2.9457
   44MOL0     H 6067   6.577   2.296   0.135 -0.1333 -0.7658  2.7153
   44MOL0     H 6068   6.383   2.509  -0.161 -0.4809 -0.7860  1.0882
   44MOL0     H 6069   7.101   2.694   0.301 -5.3305 -1.1022 -0.6863
   44MOL0     H 6070   7.266   2.936   0.296  0.3388  0.8203  0.0285
   44MOL0     H 6071   7.371   2.894   0.429 -0.6750  3.9094 -1.0996
   44MOL0     H 6072   7.316   2.764   0.328 -0.7804  0.5407  0.3185
   45MOL0     O 6073   4.326   7.667   6.618 -0.0382  0.3548  0.5649
   45MOL0     C 6074   4.359   7.764   6.556  1.0166  0.2400  0.1201
   45MOL0     O 6075   4.306   7.888   6.562  0.2413 -0.3612 -0.2125
   45MOL0     C 6076   4.215   7.922   6.664 -0.1823  0.7365 -1.1342
   45MOL0     C 6077   4.101   7.994   6.625  0.4207 -0.9052  0.2547
   45MOL0     C 6078   4.000   8.029   6.721  0.5394 -0.0581 -0.6272
   45MOL0     C 6079   4.018   7.991   6.856  0.0654 -0.6825  0.2605
   45MOL0     O 6080   3.931   8.018   6.953  0.0362  0.1155  0.6119
   45MOL0     C 6081   3.789   8.017   6.918 -0.1200 -0.8187  0.0779
   45MOL0     C 6082   3.699   8.027   7.043  0.3675  0.0145  0.3399
   45MOL0     C 6083   3.720   8.151   7.134  1.4511  0.5071  0.8971
   45MOL0     C 6084   3.819   8.132   7.243  0.2250  0.1342 -0.0438
   45MOL0     C 6085   3.876   8.269   7.292 -0.7637  0.7653 -0.4378
   45MOL0     C 6086   3.984   8.260   7.407 -0.9015  0.4458  1.1877
   45MOL0     C 6087   3.933   8.169   7.521 -0.9768  0.5453 -0.1510
   45MOL0     C 6088   3.815   8.229   7.586 -0.2987  0.2979 -0.9037
   45MOL0     N 6089   3.827   8.338   7.686  0.2491  0.5424 -0.6848
   45MOL0     C 6090   3.726   8.425   7.723  0.5076 -0.3600 -0.2789
   45MOL0     C 6091   3.771   8.497   7.826  0.5135 -0.7882 -0.4967
   45MOL0     C 6092   3.693   8.601   7.905 -0.6224 -0.3896  0.1876
   45MOL0     C 6093   3.542   8.580   7.893  0.5512 -0.7044  0.0080
   45MOL0     C 6094   3.463   8.688   7.975 -0.3610 -0.1083  0.3769
   45MOL0     C 6095   3.307   8.659   7.959 -0.5004  0.3367 -0.1916
   45MOL0     O 6096   3.239   8.761   8.049 -0.5301  0.8313  0.3919
   45MOL0     C 6097   3.106   8.733   8.076 -0.2449  0.2931  0.6598
   45MOL0     C 6098   3.004   8.802   8.012  0.0686  0.2960 -0.4981
   45MOL0     C 6099   2.865   8.781   8.035 -0.1954 -0.2044  0.5335
   45MOL0     C 6100   2.781   8.859   7.941  0.4894  0.1224 -0.2924
   45MOL0     C 6101   2.831   8.681   8.131  0.8739  0.6064 -0.3743
   45MOL0     C 6102   2.692   8.623   8.150 -0.6291 -0.3643  0.5078
   45MOL0     O 6103   2.681   8.517   8.228  0.1904 -0.2456  0.4062
   45MOL0     C 6104   2.572   8.430   8.228 -0.1330 -0.4781 -0.5229
   45MOL0     C 6105   2.526   8.366   8.116  0.7361  0.4352  0.7358
   45MOL0     C 6106   2.424   8.268   8.115  0.8579  0.5148  0.7162
   45MOL0     C 6107   2.371   8.222   8.233 -0.0096  0.6354 -0.2175
   45MOL0     O 6108   2.270   8.126   8.239 -0.5564  0.2898  0.7740
   45MOL0     C 6109   2.278   8.037   8.354 -0.6051  0.6338  0.3448
   45MOL0     C 6110   2.157   7.938   8.360 -0.0302  0.5577  0.0142
   45MOL0     C 6111   2.177   7.825   8.255  0.0440 -0.8894  0.1626
   45MOL0     C 6112   2.047   7.749   8.237  0.4165 -0.1815  0.8311
   45MOL0     C 6113   2.049   7.648   8.119  0.6016  0.8490  0.2652
   45MOL0     C 6114   2.002   7.707   7.994  0.6690  0.0298  0.7656
   45MOL0     C 6115   2.043   7.644   7.857 -0.1103 -0.2126 -0.4123
   45MOL0     C 6116   2.000   7.501   7.842 -0.3285  0.0102 -0.3246
   45MOL0    Cl 6117   1.824   7.486   7.872 -0.3560  0.2993 -0.2922
   45MOL0     C 6118   2.410   8.290   8.350 -0.6079  0.7084  0.2596
   45MOL0     C 6119   2.506   8.397   8.350 -0.1042  0.1034  0.2872
   45MOL0     O 6120   2.600   8.675   8.091  0.6784 -0.2010  0.5111
   45MOL0     C 6121   2.936   8.617   8.198  0.6067 -0.4675 -0.9898
   45MOL0     C 6122   3.070   8.634   8.174  0.0941 -0.0651  0.4030
   45MOL0     N 6123   3.905   8.460   7.847  0.0123 -0.3661 -0.4842
   45MOL0     N 6124   3.934   8.361   7.765  0.1515  0.1045 -0.6905
   45MOL0     C 6125   4.138   7.941   6.894  0.4642  0.5908 -0.0902
   45MOL0     C 6126   4.236   7.900   6.803  0.2643  0.5611 -0.6437
   45MOL0     C 6127   4.463   7.738   6.451 -0.0571  0.5753 -0.0500
   45MOL0     C 6128   4.585   7.803   6.454 -0.5170  0.3230 -0.3218
   45MOL0     C 6129   4.679   7.793   6.351  0.1126 -0.1520  0.0587
   45MOL0     C 6130   4.652   7.707   6.245  0.0010  0.9306  0.2466
   45MOL0     O 6131   4.739   7.686   6.137  0.3349  0.0469 -0.3830
   45MOL0     C 6132   4.871   7.744   6.132  1.2832  0.5946  0.4848
   45MOL0     C 6133   4.964   7.667   6.027  0.5876  0.0309 -0.3600
   45MOL0     C 6134   4.932   7.687   5.875  0.1041 -0.6274 -0.9706
   45MOL0     C 6135   5.045   7.624   5.797 -1.2822  0.1889 -0.5559
   45MOL0     C 6136   5.154   7.723   5.797 -1.0492  0.1545  0.7917
   45MOL0     C 6137   5.243   7.810   5.790  0.7003  0.9723 -0.3929
   45MOL0     C 6138   4.542   7.628   6.241  0.1249 -0.2662 -0.7999
   45MOL0     C 6139   4.449   7.640   6.347  0.2498  0.1134  0.2263
   45MOL0     C 6140   4.320   7.563   6.318 -0.2572 -0.4104 -0.2860
   45MOL0     H 6141   4.087   8.028   6.523  0.4046  1.2316  0.9045
   45MOL0     H 6142   3.911   8.085   6.694 -1.4872 -2.8493 -0.1479
   45MOL0     H 6143   3.771   7.931   6.853  2.6078 -1.0143 -0.5378
   45MOL0     H 6144   3.762   8.099   6.850 -0.9587 -0.1140  1.2233
   45MOL0     H 6145   3.594   8.032   7.014 -0.2048  1.2070  2.3815
   45MOL0     H 6146   3.708   7.933   7.098  1.9553 -0.7644 -1.1526
   45MOL0     H 6147   3.757   8.237   7.077  0.8441 -0.8110 -1.6467
   45MOL0     H 6148   3.620   8.181   7.167  1.2306  0.2359  0.4933
   45MOL0     H 6149   3.772   8.092   7.333  0.7032 -0.1205  0.0964
   45MOL0     H 6150   3.904   8.073   7.207  0.9132  1.4176 -0.6024
   45MOL0     H 6151   3.799   8.334   7.334 -1.7306 -1.8417  2.1763
   45MOL0     H 6152   3.924   8.310   7.202 -3.0810 -2.0112 -3.1711
   45MOL0     H 6153   4.075   8.222   7.359 -0.1980  2.9228  0.4123
   45MOL0     H 6154   4.005   8.357   7.454  1.2612  0.7787 -0.3083
   45MOL0     H 6155   4.017   8.170   7.592 -0.9900 -1.9630 -0.0054
   45MOL0     H 6156   3.908   8.068   7.488 -2.7924  0.9995 -0.2265
   45MOL0     H 6157   3.746   8.276   7.516 -0.5731  0.2827 -0.6479
   45MOL0     H 6158   3.768   8.140   7.629  0.5995 -0.5901 -1.7109
   45MOL0     H 6159   3.627   8.424   7.681 -0.0622 -0.9538  1.0058
   45MOL0     H 6160   3.718   8.696   7.858 -3.7109 -0.6917 -2.4235
   45MOL0     H 6161   3.725   8.602   8.010 -0.2656  2.0911  0.0997
   45MOL0     H 6162   3.512   8.608   7.791 -1.9350 -0.1632  0.8244
   45MOL0     H 6163   3.515   8.478   7.922  0.7426 -1.1335 -1.2518
   45MOL0     H 6164   3.496   8.672   8.079 -0.8783 -2.1488  0.2675
   45MOL0     H 6165   3.489   8.790   7.945  0.9991 -0.2581  0.9710
   45MOL0     H 6166   3.276   8.669   7.855 -0.3470 -1.8211 -0.4814
   45MOL0     H 6167   3.281   8.561   8.002  2.6311 -0.5403 -0.0940
   45MOL0     H 6168   3.032   8.857   7.923  1.6795 -1.9577 -1.4926
   45MOL0     H 6169   2.795   8.967   7.953  0.1906  0.1666 -0.3134
   45MOL0     H 6170   2.674   8.854   7.963  0.3660  3.0509  0.1609
   45MOL0     H 6171   2.807   8.824   7.840  4.2544  2.2743 -0.2559
   45MOL0     H 6172   2.558   8.406   8.020 -0.1819  1.4703  0.8392
   45MOL0     H 6173   2.388   8.228   8.021 -0.7410 -0.3389  1.6532
   45MOL0     H 6174   2.360   7.964   8.351 -0.1902  1.0852  0.5764
   45MOL0     H 6175   2.294   8.095   8.445 -0.0940  0.6164  0.2725
   45MOL0     H 6176   2.158   7.904   8.464  2.7972 -0.8375 -0.3876
   45MOL0     H 6177   2.070   8.002   8.341 -0.2106  1.0791  2.3485
   45MOL0     H 6178   2.246   7.753   8.299 -0.7311 -0.6753  1.8301
   45MOL0     H 6179   2.211   7.863   8.158 -1.8945  0.5629 -0.0118
   45MOL0     H 6180   1.969   7.821   8.209  1.9907  0.7608 -1.4636
   45MOL0     H 6181   2.021   7.688   8.324 -3.0819 -0.4899 -0.2877
   45MOL0     H 6182   2.151   7.610   8.108  0.1441 -0.6146  0.8632
   45MOL0     H 6183   1.983   7.565   8.145  1.6130 -0.2592 -0.5714
   45MOL0     H 6184   2.048   7.807   7.996 -0.7390  0.7197  3.6945
   45MOL0     H 6185   1.895   7.728   7.996  0.3609 -0.8863 -1.9041
   45MOL0     H 6186   2.153   7.648   7.862 -0.1337  0.0965 -0.0701
   45MOL0     H 6187   2.015   7.708   7.773  3.0271 -0.0945 -1.5039
   45MOL0     H 6188   2.062   7.436   7.904 -1.0502  1.3652  1.9624
   45MOL0     H 6189   2.001   7.471   7.737 -2.3791  1.2540 -0.7599
   45MOL0     H 6190   2.359   8.278   8.445  2.1871 -0.5516  1.7236
   45MOL0     H 6191   2.520   8.449   8.445 -3.2219 -2.3285  2.2725
   45MOL0     H 6192   2.930   8.540   8.274  1.6662 -1.6416 -2.0419
   45MOL0     H 6193   3.158   8.586   8.214  0.8964  0.8196 -0.2430
   45MOL0     H 6194   4.163   7.918   6.997 -0.7517  1.5599  0.4480
   45MOL0     H 6195   4.327   7.852   6.839  0.9571  1.5671 -1.0126
   45MOL0     H 6196   4.599   7.868   6.540 -0.9562 -0.1927  0.1431
   45MOL0     H 6197   4.767   7.856   6.359 -1.0455  1.3062  3.1343
   45MOL0     H 6198   4.883   7.852   6.126  0.9680  0.5817 -0.7813
   45MOL0     H 6199   4.917   7.716   6.227  2.1192  0.1302 -0.0461
   45MOL0     H 6200   4.958   7.560   6.048 -0.1860  0.3492  1.2018
   45MOL0     H 6201   5.068   7.698   6.039  0.2166  1.9616 -1.7107
   45MOL0     H 6202   4.832   7.647   5.853 -1.0508  1.0388  0.9072
   45MOL0     H 6203   4.915   7.793   5.852  1.5484 -0.7455 -2.7608
   45MOL0     H 6204   5.018   7.599   5.694 -3.3406  0.6861 -0.1992
   45MOL0     H 6205   5.079   7.531   5.844  1.0030 -0.1787 -2.7480
   45MOL0     H 6206   5.324   7.881   5.785  0.8920  0.8857  1.0181
   45MOL0     H 6207   4.519   7.566   6.155 -4.2240  1.8814 -1.4296
   45MOL0     H 6208   4.326   7.527   6.215 -1.0232  1.1091 -0.8927
   45MOL0     H 6209   4.300   7.483   6.390  1.0409  0.1270  0.7115
   45MOL0     H 6210   4.237   7.634   6.326 -0.3417 -0.5099 -0.2800
   46MOL0     O 6211   6.043   8.099   6.252  0.0218 -0.1949 -0.4471
   46MOL0     C 6212   5.943   8.176   6.238 -0.9895  0.1037  0.4978
   46MOL0     O 6213   5.937   8.288   6.168 -0.0989 -0.5290  0.6311
   46MOL0     C 6214   6.051   8.328   6.094 -0.7294  0.2340  0.4356
   46MOL0     C 6215   6.143   8.413   6.149 -0.2561 -0.1603  0.3037
   46MOL0     C 6216   6.242   8.473   6.072 -1.3662  0.2603  0.3196
   46MOL0     C 6217   6.246   8.438   5.933  0.2274  0.2883 -0.1662
   46MOL0     O 6218   6.346   8.507   5.864  0.0838  0.5327  0.5418
   46MOL0     C 6219   6.365   8.461   5.734 -0.1649  0.1179 -0.1242
   46MOL0     C 6220   6.253   8.494   5.626 -0.5348  0.5009 -0.9577
   46MOL0     C 6221   6.286   8.518   5.479 -0.8979  0.2181  0.4636
   46MOL0     C 6222   6.366   8.398   5.415  0.1990 -0.2043  0.5163
   46MOL0     C 6223   6.390   8.434   5.267  0.2427 -0.5567  0.2447
   46MOL0     C 6224   6.430   8.308   5.194  0.2702  0.0446 -0.1629
   46MOL0     C 6225   6.492   8.327   5.059  0.7815 -0.3800 -0.4160
   46MOL0     C 6226   6.389   8.389   4.957 -0.5119  0.3982  0.4926
   46MOL0     N 6227   6.440   8.361   4.815 -0.1175  0.4008  0.0406
   46MOL0     C 6228   6.569   8.388   4.763 -0.1682  0.3975  0.2373
   46MOL0     C 6229   6.559   8.340   4.635 -0.3997  0.5110  0.1803
   46MOL0     C 6230   6.663   8.320   4.528  0.3884 -0.1964 -0.6798
   46MOL0     C 6231   6.779   8.422   4.571 -0.5633  0.0954 -0.0960
   46MOL0     C 6232   6.886   8.415   4.464  0.2269 -0.8419  0.0362
   46MOL0     C 6233   7.007   8.497   4.504  0.1080 -0.1314  0.3204
   46MOL0     O 6234   6.987   8.638   4.506 -0.6084  0.1870  0.6261
   46MOL0     C 6235   7.006   8.710   4.391  0.5207  0.4045 -0.2081
   46MOL0     C 6236   7.126   8.776   4.377  0.8521 -0.6417  1.2578
   46MOL0     C 6237   7.144   8.858   4.264 -0.6980 -0.1645  1.1827
   46MOL0     C 6238   7.281   8.934   4.260 -0.1140 -0.0096  0.3776
   46MOL0     C 6239   7.044   8.872   4.163  0.2076 -0.0425 -0.1930
   46MOL0     C 6240   7.051   8.955   4.040 -0.3966 -0.8302 -0.3709
   46MOL0     O 6241   6.973   8.921   3.932 -0.2424  0.0996  0.4950
   46MOL0     C 6242   6.986   8.995   3.818 -0.3540  0.8962  0.0436
   46MOL0     C 6243   6.916   9.115   3.795  0.1959  0.1162 -0.1321
   46MOL0     C 6244   6.943   9.189   3.682 -1.1701 -0.4321 -0.3705
   46MOL0     C 6245   7.043   9.144   3.583  0.7298  0.5970 -0.1197
   46MOL0     O 6246   7.083   9.220   3.467  0.5504  0.1533  0.0610
   46MOL0     C 6247   7.060   9.361   3.448  0.2163  0.3103  0.1578
   46MOL0     C 6248   6.921   9.384   3.385 -0.2848  0.0607  0.1034
   46MOL0     C 6249   6.899   9.320   3.247  0.3377 -1.1370 -0.5633
   46MOL0     C 6250   6.764   9.358   3.192  0.3624 -0.3733  0.1665
   46MOL0     C 6251   6.745   9.314   3.050 -0.0264  0.9178  0.0587
   46MOL0     C 6252   6.599   9.328   2.993 -0.1275  0.0442  0.5168
   46MOL0     C 6253   6.551   9.472   2.997  0.0896  0.2623  0.2944
   46MOL0     C 6254   6.428   9.510   2.914 -0.5950  0.1262  0.2930
   46MOL0    Cl 6255   6.312   9.379   2.859  0.2956 -0.2997  0.0339
   46MOL0     C 6256   7.110   9.024   3.607 -0.1370  0.3750  0.3715
   46MOL0     C 6257   7.084   8.953   3.721 -0.0904 -0.2497 -0.1816
   46MOL0     O 6258   7.125   9.055   4.043 -1.0817  0.5648 -0.5898
   46MOL0     C 6259   6.931   8.796   4.184  0.5154  0.2193 -0.0320
   46MOL0     C 6260   6.908   8.717   4.297 -0.3634 -0.2985  0.7229
   46MOL0     N 6261   6.429   8.288   4.616 -0.7586  1.0571 -0.4847
   46MOL0     N 6262   6.359   8.295   4.726 -0.0399 -0.3783 -0.2923
   46MOL0     C 6263   6.158   8.335   5.888 -0.6142 -0.6071  0.2509
   46MOL0     C 6264   6.053   8.282   5.961  0.4442  0.3898  0.8388
   46MOL0     C 6265   5.827   8.134   6.309 -0.9495  0.0100 -0.6236
   46MOL0     C 6266   5.822   7.997   6.321 -0.4092  0.3839  0.0193
   46MOL0     C 6267   5.731   7.932   6.399  0.5161  0.2208 -0.6057
   46MOL0     C 6268   5.640   8.016   6.468 -0.2747  0.1474  0.4797
   46MOL0     O 6269   5.531   7.969   6.537  0.4617 -0.1398 -0.0711
   46MOL0     C 6270   5.531   7.831   6.580 -0.7177  0.6445 -0.5176
   46MOL0     C 6271   5.468   7.808   6.723  0.7499  0.1277 -0.1039
   46MOL0     C 6272   5.320   7.798   6.690  0.2282 -0.7075 -0.7561
   46MOL0     C 6273   5.227   7.772   6.812 -0.7155 -0.8502 -0.4337
   46MOL0     C 6274   5.230   7.630   6.862  0.3512 -0.3440  0.6623
   46MOL0     C 6275   5.230   7.511   6.913 -0.7297 -0.8330  0.2510
   46MOL0     C 6276   5.657   8.156   6.472  0.2277 -0.0499 -0.2193
   46MOL0     C 6277   5.750   8.222   6.391 -0.8355  0.1622 -0.8648
   46MOL0     C 6278   5.785   8.372   6.411 -0.1227  0.0034 -0.5898
   46MOL0     H 6279   6.136   8.453   6.250 -2.8269  1.7195 -0.5121
   46MOL0     H 6280   6.311   8.550   6.105 -0.4907 -1.0560  1.7083
   46MOL0     H 6281   6.387   8.354   5.735  0.2593  0.2024 -0.0959
   46MOL0     H 6282   6.458   8.507   5.699  0.7419 -1.8683 -0.4580
   46MOL0     H 6283   6.173   8.420   5.617  0.9347 -1.0332 -1.8151
   46MOL0     H 6284   6.203   8.582   5.669 -0.9509  0.3380 -1.1013
   46MOL0     H 6285   6.189   8.546   5.437  0.1240  2.2009 -0.6568
   46MOL0     H 6286   6.345   8.610   5.474 -1.6821  0.6681 -1.7302
   46MOL0     H 6287   6.466   8.382   5.457  2.0331  0.1185 -3.3282
   46MOL0     H 6288   6.314   8.303   5.425  1.1920 -0.8408 -0.2379
   46MOL0     H 6289   6.469   8.510   5.264  0.6884 -1.0405 -1.0801
   46MOL0     H 6290   6.302   8.478   5.217  1.3782  0.7035 -0.7397
   46MOL0     H 6291   6.502   8.247   5.249 -0.8208 -0.7923  0.3702
   46MOL0     H 6292   6.339   8.249   5.180 -0.6092  0.8923  1.5976
   46MOL0     H 6293   6.520   8.229   5.018  0.3172 -1.6685  2.1520
   46MOL0     H 6294   6.590   8.373   5.066 -0.7656  2.9059  2.9429
   46MOL0     H 6295   6.286   8.353   4.966  0.1027 -2.2760 -1.5722
   46MOL0     H 6296   6.386   8.498   4.964 -0.1166  0.6073 -1.7215
   46MOL0     H 6297   6.651   8.433   4.819  0.4928 -1.8259  1.1736
   46MOL0     H 6298   6.630   8.340   4.425  3.2644  2.3475 -1.2468
   46MOL0     H 6299   6.695   8.215   4.529  2.0200  0.2822  0.4540
   46MOL0     H 6300   6.740   8.524   4.576 -1.2690 -0.2166  1.3304
   46MOL0     H 6301   6.815   8.404   4.673 -1.3864 -1.3233 -0.0333
   46MOL0     H 6302   6.919   8.311   4.451  3.6913  0.0748  0.5447
   46MOL0     H 6303   6.849   8.459   4.371  0.3041 -1.7123 -0.4229
   46MOL0     H 6304   7.060   8.470   4.595 -0.9547  1.1331  1.3589
   46MOL0     H 6305   7.076   8.474   4.422 -4.3753 -2.4820 -3.2607
   46MOL0     H 6306   7.197   8.770   4.459 -0.5292 -0.1396  2.5423
   46MOL0     H 6307   7.315   8.930   4.156 -0.8207 -0.8709  0.1630
   46MOL0     H 6308   7.355   8.895   4.331  0.7097 -2.0541 -1.4890
   46MOL0     H 6309   7.247   9.036   4.276 -1.8881 -0.3423 -0.9621
   46MOL0     H 6310   6.838   9.135   3.868 -0.4159 -0.8984 -0.4844
   46MOL0     H 6311   6.885   9.277   3.657 -0.6143 -0.4614 -1.8794
   46MOL0     H 6312   7.074   9.402   3.548 -1.8122 -2.3066  1.6229
   46MOL0     H 6313   7.145   9.384   3.383  1.6913 -2.2796  1.0342
   46MOL0     H 6314   6.846   9.338   3.450 -1.5847  1.4424 -0.3630
   46MOL0     H 6315   6.899   9.491   3.377 -1.8553 -0.2161  0.5192
   46MOL0     H 6316   6.919   9.212   3.247 -0.2503 -1.3177  2.0552
   46MOL0     H 6317   6.983   9.368   3.197  0.9742 -0.3613  1.1885
   46MOL0     H 6318   6.751   9.467   3.200  0.8872 -0.0959 -1.9113
   46MOL0     H 6319   6.692   9.323   3.266 -0.7681  1.8410  0.2220
   46MOL0     H 6320   6.827   9.366   2.999  3.5618 -4.0072  0.0474
   46MOL0     H 6321   6.772   9.208   3.043  2.1756  1.1157  3.2709
   46MOL0     H 6322   6.527   9.267   3.048 -2.4363  2.2868  0.1476
   46MOL0     H 6323   6.612   9.300   2.888 -1.9756  0.2807  0.1979
   46MOL0     H 6324   6.630   9.535   2.955  1.1562 -0.5780  0.9706
   46MOL0     H 6325   6.539   9.497   3.103 -0.4522  2.2745 -0.1906
   46MOL0     H 6326   6.458   9.556   2.819 -0.1118 -1.0731 -0.1558
   46MOL0     H 6327   6.382   9.589   2.974  1.7314  0.7114  1.4660
   46MOL0     H 6328   7.190   9.010   3.535  3.8897  1.8162  4.0961
   46MOL0     H 6329   7.134   8.858   3.738  1.0895  0.5379  0.9950
   46MOL0     H 6330   6.861   8.800   4.101 -0.4775  2.0754  0.8296
   46MOL0     H 6331   6.822   8.652   4.299  0.0481 -0.9420  4.3461
   46MOL0     H 6332   6.178   8.296   5.789 -0.3305 -0.1934  0.1446
   46MOL0     H 6333   5.994   8.200   5.923  0.3250  0.8234  0.0641
   46MOL0     H 6334   5.884   7.934   6.258  0.1608  1.3565 -0.4126
   46MOL0     H 6335   5.729   7.824   6.407  0.5578  0.3893  3.1384
   46MOL0     H 6336   5.475   7.776   6.504  1.8029 -2.9686 -0.0288
   46MOL0     H 6337   5.635   7.796   6.590 -1.7409 -2.6182 -0.1214
   46MOL0     H 6338   5.483   7.885   6.799 -1.9151  0.6521 -0.0177
   46MOL0     H 6339   5.501   7.714   6.769  0.7621 -0.8096 -1.9478
   46MOL0     H 6340   5.286   7.886   6.636  2.3868 -0.7713 -2.3583
   46MOL0     H 6341   5.317   7.713   6.621 -2.0256 -1.4660  0.1797
   46MOL0     H 6342   5.123   7.793   6.788 -0.9027  1.2125  1.8436
   46MOL0     H 6343   5.244   7.837   6.898 -3.4209  0.2758 -0.6609
   46MOL0     H 6344   5.239   7.414   6.956  2.6924  0.1625  2.1305
   46MOL0     H 6345   5.607   8.220   6.544  0.1484 -1.0938  0.6743
   46MOL0     H 6346   5.736   8.399   6.505  2.4092 -1.4606  1.2788
   46MOL0     H 6347   5.891   8.398   6.422 -0.4076  1.7290 -1.6166
   46MOL0     H 6348   5.749   8.421   6.320 -4.1928 -0.7093  0.4394
   47MOL0     O 6349   0.912   9.968   5.321 -0.4020 -0.3679 -0.2744
   47MOL0     C 6350   0.800  10.023   5.311  0.5766 -0.5855 -0.1564
   47MOL0     O 6351   0.783  10.156   5.280  0.0195 -0.2911  0.7493
   47MOL0     C 6352   0.878  10.246   5.309 -0.0984 -0.7626  0.6791
   47MOL0     C 6353   0.964  10.238   5.423  0.0827  0.1018 -0.3724
   47MOL0     C 6354   1.060  10.336   5.441  0.3887  0.0669 -0.3111
   47MOL0     C 6355   1.076  10.438   5.352 -0.0931  0.5555  0.3869
   47MOL0     O 6356   1.176  10.521   5.391 -0.1883 -0.3908 -0.0621
   47MOL0     C 6357   1.192  10.649   5.329 -0.3833 -0.1617 -0.0378
   47MOL0     C 6358   1.239  10.742   5.442 -0.0758 -0.2697 -0.5617
   47MOL0     C 6359   1.313  10.862   5.387 -0.4751 -0.2737  0.6279
   47MOL0     C 6360   1.217  10.971   5.330  0.7775 -1.2819  0.4031
   47MOL0     C 6361   1.267  11.114   5.365 -0.2357 -0.0286  0.0560
   47MOL0     C 6362   1.359  11.168   5.246  0.7201  0.3239 -0.7268
   47MOL0     C 6363   1.289  11.257   5.134 -0.1566 -0.0846 -0.2060
   47MOL0     C 6364   1.394  11.293   5.020  0.3856 -0.4165  0.6589
   47MOL0     N 6365   1.511  11.378   5.056 -0.0305 -0.2072 -0.4301
   47MOL0     C 6366   1.641  11.351   5.030 -0.5222  0.3175 -0.3160
   47MOL0     C 6367   1.713  11.455   5.074 -0.3706 -0.9362  0.1585
   47MOL0     C 6368   1.870  11.465   5.061  0.9761  0.8241  0.4855
   47MOL0     C 6369   1.951  11.339   5.053  0.8699  0.7053 -0.1681
   47MOL0     C 6370   1.965  11.273   5.188  0.1823  0.0692  1.4003
   47MOL0     C 6371   2.072  11.331   5.272 -0.2764 -0.1021  0.1365
   47MOL0     O 6372   2.200  11.345   5.201 -0.0855  0.9698 -0.1603
   47MOL0     C 6373   2.305  11.253   5.201  0.3780 -0.2261 -0.7467
   47MOL0     C 6374   2.319  11.148   5.292 -0.0272  0.6250 -0.3320
   47MOL0     C 6375   2.422  11.049   5.271  0.3706  0.4686  0.4097
   47MOL0     C 6376   2.446  10.955   5.388  0.2207 -0.6490 -0.8281
   47MOL0     C 6377   2.516  11.059   5.166 -0.6696 -0.5493  0.2161
   47MOL0     C 6378   2.635  10.975   5.138  0.6245  0.6213 -0.5475
   47MOL0     O 6379   2.706  10.925   5.242  0.7083  0.4743 -0.1767
   47MOL0     C 6380   2.809  10.838   5.228 -0.3719  0.7203  0.5002
   47MOL0     C 6381   2.793  10.706   5.190  0.1978 -0.2404 -0.6437
   47MOL0     C 6382   2.896  10.616   5.168  0.0182 -0.2652 -0.9433
   47MOL0     C 6383   3.028  10.658   5.186  0.1414  0.8365  0.2263
   47MOL0     O 6384   3.123  10.565   5.149  0.7078 -0.0327  0.4524
   47MOL0     C 6385   3.243  10.621   5.087 -0.1035  0.1409 -0.4726
   47MOL0     C 6386   3.325  10.501   5.031  0.4416 -0.4541  0.5656
   47MOL0     C 6387   3.423  10.538   4.918 -1.0047 -0.3649  0.0187
   47MOL0     C 6388   3.515  10.660   4.971  1.0797  0.6495 -0.9231
   47MOL0     C 6389   3.654  10.667   4.891  0.0657  0.0948  0.5727
   47MOL0     C 6390   3.717  10.803   4.905  0.2711  0.1443 -0.2339
   47MOL0     C 6391   3.843  10.801   4.815  0.6677 -1.2083 -0.2411
   47MOL0     C 6392   3.968  10.722   4.851  0.2847 -0.3017 -0.1724
   47MOL0    Cl 6393   4.013  10.749   5.020 -0.1052  0.0627  0.1489
   47MOL0     C 6394   3.051  10.792   5.236 -0.4260  0.0876 -0.2332
   47MOL0     C 6395   2.939  10.874   5.265  0.4959  1.1219 -0.0149
   47MOL0     O 6396   2.657  10.961   5.019 -1.0435  0.2105  0.2364
   47MOL0     C 6397   2.505  11.175   5.084  0.5787 -0.0068  0.0153
   47MOL0     C 6398   2.407  11.266   5.110  0.5665  0.3135  0.0633
   47MOL0     N 6399   1.624  11.554   5.125 -0.2870 -0.2924 -0.5546
   47MOL0     N 6400   1.510  11.507   5.098 -0.1379  0.6779 -0.5929
   47MOL0     C 6401   1.005  10.445   5.234  1.1706 -0.6797  0.2561
   47MOL0     C 6402   0.909  10.343   5.211 -0.0288  0.7688 -0.3219
   47MOL0     C 6403   0.669   9.963   5.347 -0.5193 -0.4952  1.0294
   47MOL0     C 6404   0.556  10.045   5.369  0.0412  0.5894 -0.8635
   47MOL0     C 6405   0.428   9.988   5.394  0.2205  0.6245 -0.1591
   47MOL0     C 6406   0.415   9.851   5.401  0.1511 -0.1779 -0.5650
   47MOL0     O 6407   0.295   9.788   5.427 -0.8189  0.0120 -0.5523
   47MOL0     C 6408   0.226   9.745   5.311 -0.5463 -0.4054 -0.4575
   47MOL0     C 6409   0.102   9.833   5.298  0.4641 -0.3201 -0.8024
   47MOL0     C 6410  -0.004   9.774   5.385  0.1856 -0.1158  0.4280
   47MOL0     C 6411  -0.135   9.853   5.368  0.5249  0.5610 -1.1577
   47MOL0     C 6412  -0.243   9.784   5.433  0.1767  0.1686  0.5901
   47MOL0     C 6413  -0.343   9.719   5.465 -0.2812  0.6191 -0.4824
   47MOL0     C 6414   0.525   9.771   5.395  0.1373  0.7914 -0.3456
   47MOL0     C 6415   0.654   9.821   5.362 -0.4323 -0.0511  0.1647
   47MOL0     C 6416   0.770   9.725   5.337  0.1439 -0.3225  0.0349
   47MOL0     H 6417   0.958  10.167   5.505  0.4274  0.6409  0.1247
   47MOL0     H 6418   1.126  10.335   5.528  0.3907  1.2439 -0.2821
   47MOL0     H 6419   1.100  10.690   5.285 -0.6652 -0.1047  0.5952
   47MOL0     H 6420   1.269  10.636   5.253 -0.1469  1.5709 -0.1315
   47MOL0     H 6421   1.151  10.779   5.494 -2.6906 -1.5510 -3.7274
   47MOL0     H 6422   1.314  10.686   5.499 -1.2317 -2.2155 -0.8421
   47MOL0     H 6423   1.345  10.911   5.479 -0.8722  1.9484 -0.3664
   47MOL0     H 6424   1.388  10.833   5.313  1.9218  2.6539  1.7192
   47MOL0     H 6425   1.210  10.953   5.222  1.2866 -1.7387  0.4447
   47MOL0     H 6426   1.117  10.969   5.376 -0.1714  1.6381 -1.2550
   47MOL0     H 6427   1.314  11.128   5.463  1.6309 -0.6466 -0.7116
   47MOL0     H 6428   1.175  11.172   5.356  0.7352  1.4006 -0.9184
   47MOL0     H 6429   1.431  11.231   5.300  0.5475 -0.3114  0.2690
   47MOL0     H 6430   1.412  11.085   5.199  0.6132 -0.6146  0.7405
   47MOL0     H 6431   1.244  11.346   5.178  0.9686 -0.3735  1.6853
   47MOL0     H 6432   1.206  11.200   5.091 -1.2178  1.2744 -0.0377
   47MOL0     H 6433   1.426  11.197   4.977  0.2888  0.1985 -0.8410
   47MOL0     H 6434   1.357  11.347   4.933  2.1841  1.8431  1.2088
   47MOL0     H 6435   1.680  11.265   4.977  1.0732  0.4053  0.6445
   47MOL0     H 6436   1.907  11.530   5.141 -0.4933  0.3329  1.6093
   47MOL0     H 6437   1.887  11.508   4.962  0.2018  0.7815  0.3311
   47MOL0     H 6438   1.913  11.265   4.983  0.4275  0.8452 -0.0832
   47MOL0     H 6439   2.045  11.373   5.009  0.5220  1.9854  0.0335
   47MOL0     H 6440   1.878  11.270   5.254 -0.8208  2.1913  0.2702
   47MOL0     H 6441   2.002  11.172   5.172  0.4887  0.4934 -0.7610
   47MOL0     H 6442   2.045  11.434   5.295  0.9264  0.2499 -0.0030
   47MOL0     H 6443   2.086  11.271   5.363  1.2727 -0.3931 -0.2686
   47MOL0     H 6444   2.238  11.133   5.362 -1.6516 -0.2290 -2.2977
   47MOL0     H 6445   2.478  10.853   5.364  0.9043 -0.7093  0.2598
   47MOL0     H 6446   2.358  10.933   5.449  2.0152 -2.6304  1.2215
   47MOL0     H 6447   2.519  11.006   5.451 -0.7901  2.2505 -1.8324
   47MOL0     H 6448   2.692  10.670   5.170  0.3533  0.0502 -1.9963
   47MOL0     H 6449   2.864  10.519   5.132 -0.1642 -0.6513  0.2104
   47MOL0     H 6450   3.219  10.693   5.009  2.0297  0.6019 -0.7726
   47MOL0     H 6451   3.301  10.682   5.158  2.9966 -4.2862  1.3021
   47MOL0     H 6452   3.378  10.453   5.114  0.2676  1.6923  1.9913
   47MOL0     H 6453   3.249  10.435   4.987  0.0585  1.2822 -1.5568
   47MOL0     H 6454   3.374  10.576   4.828  0.0836  1.6289  0.2241
   47MOL0     H 6455   3.464  10.440   4.890 -1.0500 -0.6026  0.7726
   47MOL0     H 6456   3.540  10.640   5.076  0.7935 -1.6140 -1.2425
   47MOL0     H 6457   3.451  10.747   4.986  0.3325 -0.0586  0.1737
   47MOL0     H 6458   3.720  10.588   4.926 -2.0756 -1.3768  1.5398
   47MOL0     H 6459   3.631  10.652   4.785 -1.7373  1.6535  0.6785
   47MOL0     H 6460   3.744  10.801   5.011  0.4987 -2.5143 -0.2843
   47MOL0     H 6461   3.645  10.880   4.876 -2.5987 -2.0409  0.6260
   47MOL0     H 6462   3.882  10.902   4.802 -1.6157 -0.2111  0.3477
   47MOL0     H 6463   3.816  10.774   4.712 -0.0311 -1.5250  0.0215
   47MOL0     H 6464   4.058  10.758   4.800  1.3145 -3.2407 -0.5910
   47MOL0     H 6465   3.946  10.620   4.820 -2.1764  0.4933 -1.3070
   47MOL0     H 6466   3.153  10.828   5.247 -1.2357  2.5027  0.1274
   47MOL0     H 6467   2.961  10.973   5.304  0.1071  1.6828 -1.1950
   47MOL0     H 6468   2.570  11.195   5.000  1.8488 -0.7080  0.8056
   47MOL0     H 6469   2.416  11.353   5.046 -0.7406 -0.2156 -0.8891
   47MOL0     H 6470   1.025  10.511   5.150 -1.4989 -0.5637 -0.3904
   47MOL0     H 6471   0.854  10.349   5.118 -0.5336  2.2077  0.0533
   47MOL0     H 6472   0.568  10.152   5.355 -3.2076  1.2675  0.4672
   47MOL0     H 6473   0.354  10.063   5.419 -0.2262  0.1128  0.0750
   47MOL0     H 6474   0.273   9.759   5.213 -1.5535  1.5637 -0.7074
   47MOL0     H 6475   0.210   9.638   5.330  3.0350 -0.6868  1.8102
   47MOL0     H 6476   0.070   9.840   5.193  0.1612 -1.7560 -0.8252
   47MOL0     H 6477   0.125   9.936   5.328 -1.8906 -0.3032  1.2415
   47MOL0     H 6478  -0.030   9.674   5.351 -0.2988 -0.2639  1.1970
   47MOL0     H 6479   0.022   9.768   5.492 -1.2408  1.1933  0.8907
   47MOL0     H 6480  -0.166   9.857   5.263  1.1394 -0.5520 -1.4027
   47MOL0     H 6481  -0.136   9.953   5.411 -3.7283  0.1012  0.3760
   47MOL0     H 6482  -0.430   9.664   5.495 -0.6236  1.6246  0.4627
   47MOL0     H 6483   0.500   9.666   5.407 -1.2715  1.2827  1.2415
   47MOL0     H 6484   0.804   9.745   5.234 -3.9116  0.8534 -1.2881
   47MOL0     H 6485   0.854   9.746   5.404 -0.7949  1.0029  0.8480
   47MOL0     H 6486   0.745   9.621   5.356 -1.0202  0.1445  1.2188
   48MOL0     O 6487   4.539   0.135   1.920 -0.4862  0.3687  0.0266
   48MOL0     C 6488   4.460   0.112   2.014  0.3034  0.5497  0.5286
   48MOL0     O 6489   4.492   0.053   2.134 -0.1948 -0.1699 -1.3756
   48MOL0     C 6490   4.619   0.047   2.179 -0.8864  0.3493  1.0199
   48MOL0     C 6491   4.689   0.149   2.239  0.5038  0.4378 -1.0314
   48MOL0     C 6492   4.824   0.131   2.281 -0.0231  0.1546  1.3915
   48MOL0     C 6493   4.876   0.002   2.275  0.1102  0.4650 -1.2031
   48MOL0     O 6494   5.000  -0.036   2.320 -0.4040 -0.4023  0.2057
   48MOL0     C 6495   5.078   0.065   2.385 -0.1375  0.6696  0.3272
   48MOL0     C 6496   5.205   0.006   2.462 -0.2685 -0.1769  0.4514
   48MOL0     C 6497   5.203  -0.140   2.477 -0.2550 -0.2652 -0.3153
   48MOL0     C 6498   5.317  -0.175   2.576 -1.1679 -0.2467 -1.1143
   48MOL0     C 6499   5.358  -0.319   2.584  0.6257  0.8649 -0.1654
   48MOL0     C 6500   5.483  -0.330   2.496 -0.0277  0.9307  0.4924
   48MOL0     C 6501   5.543  -0.466   2.490  0.4245  0.3671 -0.0327
   48MOL0     C 6502   5.672  -0.485   2.408 -0.0580  0.1740  0.2853
   48MOL0     N 6503   5.733  -0.610   2.438  0.6898  0.4661  0.4405
   48MOL0     C 6504   5.834  -0.640   2.530  1.1050 -1.1475 -1.0512
   48MOL0     C 6505   5.858  -0.770   2.514  0.4191 -0.2905 -1.3278
   48MOL0     C 6506   5.968  -0.852   2.589  0.6898  0.1308  0.5587
   48MOL0     C 6507   6.090  -0.864   2.496  0.1585 -0.4174 -0.5344
   48MOL0     C 6508   6.208  -0.914   2.574 -0.2259 -0.1715  0.1587
   48MOL0     C 6509   6.238  -1.058   2.576 -0.6137 -0.0110 -0.3946
   48MOL0     O 6510   6.360  -1.076   2.657  0.5984 -0.0790 -0.2236
   48MOL0     C 6511   6.409  -1.200   2.674  1.3779  0.4900 -0.4065
   48MOL0     C 6512   6.376  -1.312   2.598  0.3547  0.4313 -0.4291
   48MOL0     C 6513   6.411  -1.444   2.638 -0.3084 -0.4526 -1.4363
   48MOL0     C 6514   6.375  -1.568   2.551  0.6529  0.3829  0.9421
   48MOL0     C 6515   6.495  -1.451   2.755  0.3354  0.2889  0.0923
   48MOL0     C 6516   6.554  -1.574   2.794  0.0521 -0.5365  1.0634
   48MOL0     O 6517   6.690  -1.556   2.830 -0.6448  0.6440  0.1520
   48MOL0     C 6518   6.763  -1.668   2.867 -0.1538  0.1253 -1.1011
   48MOL0     C 6519   6.810  -1.679   2.997  0.5910 -0.0433 -0.4680
   48MOL0     C 6520   6.902  -1.778   3.035 -0.1037 -0.3416  0.1129
   48MOL0     C 6521   6.937  -1.874   2.941 -0.2072  0.6039  0.2256
   48MOL0     O 6522   7.045  -1.945   2.990  0.6114 -0.0137  0.6195
   48MOL0     C 6523   7.134  -1.997   2.889 -0.8245 -0.0086 -0.5787
   48MOL0     C 6524   7.213  -1.887   2.814  0.3061 -0.3898 -0.2227
   48MOL0     C 6525   7.347  -1.930   2.774 -0.0634 -0.1084  0.3976
   48MOL0     C 6526   7.401  -1.816   2.686  0.1290  0.3679  0.2966
   48MOL0     C 6527   7.549  -1.862   2.657 -0.8724 -0.4208 -0.4790
   48MOL0     C 6528   7.620  -1.776   2.554 -0.5115  0.2197  0.5989
   48MOL0     C 6529   7.770  -1.813   2.540  0.2165 -0.6485  0.2679
   48MOL0     C 6530   7.832  -1.764   2.408  0.6041 -0.2248  0.3846
   48MOL0    Cl 6531   7.996  -1.827   2.401 -0.1112  0.1679 -0.4392
   48MOL0     C 6532   6.887  -1.866   2.812 -0.5466 -0.5648 -0.0652
   48MOL0     C 6533   6.806  -1.759   2.770 -1.5078  0.1094  0.5115
   48MOL0     O 6534   6.485  -1.678   2.788 -0.4873 -0.2341  1.0950
   48MOL0     C 6535   6.542  -1.330   2.818 -0.4730 -0.5875 -0.2953
   48MOL0     C 6536   6.496  -1.208   2.780  0.1295  0.9773 -0.1767
   48MOL0     N 6537   5.783  -0.820   2.405 -0.5305  0.3936 -0.4546
   48MOL0     N 6538   5.710  -0.718   2.366 -0.6190 -0.7658  0.0689
   48MOL0     C 6539   4.806  -0.100   2.219  0.3697  0.5221 -0.5499
   48MOL0     C 6540   4.679  -0.081   2.162 -0.1775 -0.0113 -0.3812
   48MOL0     C 6541   4.323   0.145   1.973  0.1707 -0.1604 -0.0199
   48MOL0     C 6542   4.306   0.252   1.889  0.5092 -0.5055  0.2736
   48MOL0     C 6543   4.177   0.302   1.845 -0.1235 -0.2209  0.5652
   48MOL0     C 6544   4.063   0.240   1.891  0.0091 -0.0129 -0.5057
   48MOL0     O 6545   3.934   0.283   1.859  0.3210 -0.7702  0.6334
   48MOL0     C 6546   3.815   0.203   1.897  0.0417 -0.4362 -0.2550
   48MOL0     C 6547   3.699   0.274   1.828  0.9897  0.6090  0.0928
   48MOL0     C 6548   3.661   0.208   1.697 -0.3586 -0.0332 -0.1527
   48MOL0     C 6549   3.566   0.077   1.717 -1.0399  0.2809  0.0937
   48MOL0     C 6550   3.433   0.106   1.790  0.0313  0.4748  1.2967
   48MOL0     C 6551   3.339   0.128   1.859  0.8908 -0.2111 -0.4023
   48MOL0     C 6552   4.078   0.126   1.973  0.4695 -1.2730  0.0358
   48MOL0     C 6553   4.205   0.081   2.028 -0.6441  0.0389 -0.1999
   48MOL0     C 6554   4.201  -0.024   2.133 -0.5347 -0.0296  0.2280
   48MOL0     H 6555   4.652   0.251   2.239  1.3033  0.8085  1.8863
   48MOL0     H 6556   4.878   0.221   2.311 -2.0923  2.2084 -0.5989
   48MOL0     H 6557   5.034   0.104   2.477 -0.1815 -3.0655  2.1033
   48MOL0     H 6558   5.108   0.147   2.319 -0.3465  1.0151  0.6550
   48MOL0     H 6559   5.288   0.047   2.405 -1.4873  1.3485 -0.3223
   48MOL0     H 6560   5.211   0.055   2.560  1.5913  0.7719 -0.0841
   48MOL0     H 6561   5.103  -0.160   2.516 -1.1792  3.8913 -0.1150
   48MOL0     H 6562   5.223  -0.203   2.389 -0.3812 -1.8113  0.7158
   48MOL0     H 6563   5.406  -0.116   2.554  0.5610 -2.4976 -0.4773
   48MOL0     H 6564   5.291  -0.153   2.680  1.4024 -0.8456 -0.2849
   48MOL0     H 6565   5.283  -0.393   2.553  0.6450  0.1304  1.4641
   48MOL0     H 6566   5.381  -0.341   2.688  0.7847  3.9984  0.5845
   48MOL0     H 6567   5.458  -0.299   2.394  5.0972 -0.3269 -1.4226
   48MOL0     H 6568   5.558  -0.256   2.525 -0.0552  1.3907 -0.5794
   48MOL0     H 6569   5.463  -0.521   2.438  0.0763  0.9298 -0.1013
   48MOL0     H 6570   5.550  -0.492   2.596  2.1289 -0.8158 -0.3916
   48MOL0     H 6571   5.651  -0.476   2.301 -3.0177  1.9018  0.8943
   48MOL0     H 6572   5.739  -0.400   2.424  1.4235 -1.3183  2.4569
   48MOL0     H 6573   5.871  -0.561   2.595  1.2032 -1.4720 -0.7126
   48MOL0     H 6574   5.927  -0.948   2.623  0.5305  0.3973  1.1509
   48MOL0     H 6575   6.000  -0.804   2.683 -0.6893  2.1765  0.0369
   48MOL0     H 6576   6.063  -0.918   2.405  1.0802 -1.4897 -0.2019
   48MOL0     H 6577   6.114  -0.760   2.471 -3.7710  1.2873  1.8155
   48MOL0     H 6578   6.293  -0.864   2.525 -1.7350  1.0602 -1.3687
   48MOL0     H 6579   6.196  -0.865   2.671  0.2508  1.9790 -0.7877
   48MOL0     H 6580   6.153  -1.116   2.614  0.3760 -1.4989 -0.3773
   48MOL0     H 6581   6.256  -1.097   2.476  0.6035  3.5477 -1.7130
   48MOL0     H 6582   6.316  -1.287   2.510 -3.7265  2.4143  2.5703
   48MOL0     H 6583   6.305  -1.541   2.471  0.4364 -1.3048  0.5118
   48MOL0     H 6584   6.325  -1.642   2.614  0.1825  0.2297  0.3987
   48MOL0     H 6585   6.464  -1.608   2.503 -0.6236 -1.6474  0.1534
   48MOL0     H 6586   6.788  -1.598   3.065  2.3793 -0.1712  0.3250
   48MOL0     H 6587   6.952  -1.775   3.131 -0.8104  1.2628  0.4518
   48MOL0     H 6588   7.206  -2.055   2.948 -0.5859  0.9905  0.1270
   48MOL0     H 6589   7.083  -2.071   2.827 -2.3535 -2.4035  3.1458
   48MOL0     H 6590   7.158  -1.864   2.723 -2.0579 -1.1262  0.9264
   48MOL0     H 6591   7.223  -1.793   2.869 -0.5032  0.1793 -1.0151
   48MOL0     H 6592   7.360  -2.026   2.721  2.8085 -0.4139  1.4716
   48MOL0     H 6593   7.407  -1.928   2.865  2.4994  3.5500 -1.1504
   48MOL0     H 6594   7.408  -1.724   2.746  0.1252  0.6614 -0.1499
   48MOL0     H 6595   7.338  -1.799   2.598 -0.9360  0.6318  1.0884
   48MOL0     H 6596   7.613  -1.843   2.743 -0.9833  0.3117 -0.5531
   48MOL0     H 6597   7.551  -1.961   2.610  0.9405  0.2028 -1.8224
   48MOL0     H 6598   7.611  -1.671   2.585 -1.6773  0.7762 -1.4318
   48MOL0     H 6599   7.567  -1.787   2.459  2.9842 -2.9788 -1.2381
   48MOL0     H 6600   7.776  -1.922   2.551  0.5826 -0.5460  1.1530
   48MOL0     H 6601   7.818  -1.764   2.626  1.6216  1.8303 -1.7963
   48MOL0     H 6602   7.833  -1.655   2.399 -1.5765 -0.2811 -1.2227
   48MOL0     H 6603   7.790  -1.806   2.316 -1.8663 -2.6188  2.4108
   48MOL0     H 6604   6.922  -1.945   2.747 -0.8421 -0.6480 -0.1281
   48MOL0     H 6605   6.768  -1.730   2.672 -2.6431 -0.5317  0.7394
   48MOL0     H 6606   6.606  -1.328   2.906 -0.3264 -4.8374 -0.0904
   48MOL0     H 6607   6.535  -1.122   2.834  2.1118 -0.8073  1.4628
   48MOL0     H 6608   4.841  -0.203   2.214 -0.0512  0.3560 -0.1848
   48MOL0     H 6609   4.621  -0.162   2.120  1.0968  0.1005 -2.4629
   48MOL0     H 6610   4.394   0.311   1.868  2.3759 -3.6947 -1.6454
   48MOL0     H 6611   4.167   0.380   1.771 -2.5054 -1.6603 -0.8038
   48MOL0     H 6612   3.824   0.099   1.863 -1.1402 -0.4341 -0.6215
   48MOL0     H 6613   3.800   0.213   2.005  1.4410 -2.5337  0.1956
   48MOL0     H 6614   3.733   0.376   1.807  0.6409  0.8085  0.4749
   48MOL0     H 6615   3.612   0.281   1.894  2.8042  3.1919  2.4521
   48MOL0     H 6616   3.603   0.286   1.648 -0.9784 -0.7231 -0.5301
   48MOL0     H 6617   3.750   0.191   1.635 -0.0618  0.1964  0.2005
   48MOL0     H 6618   3.639   0.019   1.775 -1.1856  1.2903  1.3410
   48MOL0     H 6619   3.545   0.025   1.623 -3.2922 -0.1076  0.7640
   48MOL0     H 6620   3.267   0.160   1.931  1.5199  0.8819 -0.2395
   48MOL0     H 6621   3.993   0.075   2.017 -1.6654 -0.3548 -2.7136
   48MOL0     H 6622   4.253   0.004   2.225 -1.3957 -3.1865  1.8355
   48MOL0     H 6623   4.100  -0.053   2.164 -0.5381 -1.0360 -0.6586
   48MOL0     H 6624   4.255  -0.110   2.093 -1.1827 -0.7149  0.7939
   49MOL0     O 6625   5.179   3.775   8.145 -0.0870 -0.0975  1.2354
   49MOL0     C 6626   5.266   3.822   8.223  0.0314 -0.0276  0.5275
   49MOL0     O 6627   5.360   3.744   8.289 -0.0567 -0.3920 -0.3239
   49MOL0     C 6628   5.408   3.633   8.225  0.4648 -0.2709 -1.2289
   49MOL0     C 6629   5.331   3.532   8.157  0.1224  0.5965 -0.0009
   49MOL0     C 6630   5.395   3.414   8.114 -0.3887  0.0845 -0.5327
   49MOL0     C 6631   5.537   3.391   8.145  0.0452 -0.3913  0.0674
   49MOL0     O 6632   5.598   3.271   8.110 -0.8566 -0.9990 -0.1472
   49MOL0     C 6633   5.567   3.229   7.974 -1.1137  0.0038 -0.2414
   49MOL0     C 6634   5.661   3.112   7.927  0.6927 -0.3865 -0.0969
   49MOL0     C 6635   5.777   3.182   7.842  0.5430 -0.3112 -0.2536
   49MOL0     C 6636   5.870   3.079   7.773  0.0214  0.4559 -0.1992
   49MOL0     C 6637   5.799   2.974   7.678 -0.4204 -0.0275 -0.5379
   49MOL0     C 6638   5.742   2.848   7.749  0.1693 -0.3668  0.0588
   49MOL0     C 6639   5.837   2.746   7.814 -0.1594 -0.3285  0.6179
   49MOL0     C 6640   5.926   2.690   7.700  0.5306  0.3896  0.1970
   49MOL0     N 6641   6.033   2.606   7.748 -0.6916  1.1921 -0.2808
   49MOL0     C 6642   6.097   2.600   7.868 -0.0137  0.0172  0.1758
   49MOL0     C 6643   6.193   2.511   7.859  0.2388  0.2944 -1.0078
   49MOL0     C 6644   6.286   2.470   7.974  0.6318  0.1003  0.1435
   49MOL0     C 6645   6.256   2.330   8.038  0.5813 -0.4570  0.1022
   49MOL0     C 6646   6.365   2.274   8.120 -0.3069 -0.6522  0.3189
   49MOL0     C 6647   6.418   2.367   8.231 -0.4967  0.0003 -0.6093
   49MOL0     O 6648   6.530   2.316   8.310 -0.2505  0.1710 -0.2389
   49MOL0     C 6649   6.663   2.339   8.277 -0.3605  1.0005  0.3971
   49MOL0     C 6650   6.704   2.392   8.159  0.2041  0.8116  0.0324
   49MOL0     C 6651   6.832   2.429   8.133  0.3274  0.0577 -0.0159
   49MOL0     C 6652   6.864   2.486   8.000 -0.7241  0.5039  0.3951
   49MOL0     C 6653   6.929   2.413   8.234  0.2483  0.1260  0.1188
   49MOL0     C 6654   7.072   2.455   8.217  0.6335  0.5208  0.2513
   49MOL0     O 6655   7.138   2.451   8.333 -0.6819 -0.3083  0.1911
   49MOL0     C 6656   7.283   2.466   8.324  0.7984 -0.3762  0.3352
   49MOL0     C 6657   7.371   2.354   8.331 -0.5781 -0.3444 -1.4640
   49MOL0     C 6658   7.513   2.378   8.320 -0.9542 -0.4264 -0.0332
   49MOL0     C 6659   7.559   2.512   8.302  0.1394  0.0231 -0.4556
   49MOL0     O 6660   7.693   2.529   8.293 -0.4093 -0.1668  0.5410
   49MOL0     C 6661   7.732   2.612   8.180  0.0332  0.1988 -0.2439
   49MOL0     C 6662   7.710   2.530   8.053 -0.1174 -0.7235 -0.8131
   49MOL0     C 6663   7.617   2.606   7.956  0.1532 -0.9750 -0.6606
   49MOL0     C 6664   7.563   2.506   7.842  0.1464  0.1446  0.0936
   49MOL0     C 6665   7.540   2.350   7.872 -0.4093 -0.4251 -0.0799
   49MOL0     C 6666   7.406   2.328   7.940  0.0053 -1.0803 -0.6609
   49MOL0     C 6667   7.388   2.193   7.992 -0.6208 -0.5813 -0.8978
   49MOL0     C 6668   7.237   2.179   8.021  0.5326 -0.1190  0.8055
   49MOL0    Cl 6669   7.183   2.014   8.067 -0.2530 -0.1217  0.3934
   49MOL0     C 6670   7.470   2.622   8.296  0.3787  0.3597 -0.3301
   49MOL0     C 6671   7.334   2.592   8.303 -0.0673 -0.3900  0.2613
   49MOL0     O 6672   7.114   2.480   8.104  0.0041 -0.8039  0.1505
   49MOL0     C 6673   6.887   2.351   8.356  0.1108  0.3260  0.3207
   49MOL0     C 6674   6.759   2.314   8.371  0.1065  0.2267 -0.7189
   49MOL0     N 6675   6.198   2.449   7.739  0.7419  0.6421  0.3666
   49MOL0     N 6676   6.108   2.517   7.671 -0.4874  0.0476  0.1173
   49MOL0     C 6677   5.606   3.486   8.225  0.5915 -0.4742  1.0039
   49MOL0     C 6678   5.539   3.602   8.260  0.3753 -0.3546 -0.1148
   49MOL0     C 6679   5.267   3.965   8.262  0.7567  0.5538 -0.0288
   49MOL0     C 6680   5.373   4.001   8.351 -0.3773 -0.5303 -0.4821
   49MOL0     C 6681   5.389   4.136   8.378  0.4716  0.2897  0.2549
   49MOL0     C 6682   5.297   4.240   8.331 -0.2070  0.9189 -0.4460
   49MOL0     O 6683   5.296   4.374   8.366  0.4905 -0.2203 -0.5183
   49MOL0     C 6684   5.398   4.415   8.456  0.4565 -0.6388 -1.1821
   49MOL0     C 6685   5.398   4.573   8.459 -0.2426 -0.0439 -0.8627
   49MOL0     C 6686   5.266   4.638   8.490  0.6300  0.2525 -0.4533
   49MOL0     C 6687   5.241   4.626   8.644  0.2546 -0.0372 -1.2447
   49MOL0     C 6688   5.118   4.693   8.701 -0.2437 -0.5169 -0.1806
   49MOL0     C 6689   5.014   4.749   8.733  0.1053  0.7252 -0.0351
   49MOL0     C 6690   5.203   4.200   8.236 -1.2736 -0.4412  0.1496
   49MOL0     C 6691   5.178   4.065   8.207 -0.4112 -0.1130 -0.2026
   49MOL0     C 6692   5.071   4.025   8.108  0.2090 -0.3178  0.4672
   49MOL0     H 6693   5.223   3.539   8.149 -0.1932  0.9028  3.2650
   49MOL0     H 6694   5.344   3.330   8.067 -3.8491  1.0121  1.1622
   49MOL0     H 6695   5.548   3.314   7.908 -2.0940  1.8955  2.2901
   49MOL0     H 6696   5.469   3.181   7.977 -0.3038 -1.8828 -2.1365
   49MOL0     H 6697   5.703   3.043   8.001 -1.0470 -1.9267 -0.4614
   49MOL0     H 6698   5.586   3.053   7.875 -1.6304 -1.2996  3.8227
   49MOL0     H 6699   5.739   3.248   7.764 -1.6439 -1.4076 -0.2072
   49MOL0     H 6700   5.837   3.244   7.909 -0.3100  2.0851 -1.5933
   49MOL0     H 6701   5.937   3.132   7.704 -1.1428 -0.0682 -1.7638
   49MOL0     H 6702   5.927   3.022   7.848 -1.2908 -2.9541 -1.6038
   49MOL0     H 6703   5.863   2.958   7.591 -1.1756 -1.3875 -0.8665
   49MOL0     H 6704   5.711   3.029   7.644  1.2077  2.6282 -0.7394
   49MOL0     H 6705   5.675   2.872   7.832  0.4826 -2.4518  0.9917
   49MOL0     H 6706   5.680   2.810   7.667  1.8341  3.7359 -3.4756
   49MOL0     H 6707   5.784   2.665   7.865  3.0151 -1.9797  1.5386
   49MOL0     H 6708   5.898   2.788   7.895 -2.4964 -0.7853  2.7599
   49MOL0     H 6709   5.869   2.628   7.629  0.4161 -1.6470  1.9483
   49MOL0     H 6710   5.966   2.779   7.652 -2.2905  1.6998  0.1224
   49MOL0     H 6711   6.077   2.656   7.959 -0.7662 -1.1940  0.7834
   49MOL0     H 6712   6.271   2.532   8.063 -0.6046 -0.9809  0.7275
   49MOL0     H 6713   6.385   2.487   7.931  1.8206 -0.3864  2.5344
   49MOL0     H 6714   6.183   2.354   8.116  1.2720  2.9091 -0.1435
   49MOL0     H 6715   6.222   2.256   7.965  0.2292  0.1367 -0.3406
   49MOL0     H 6716   6.325   2.182   8.163  2.1767 -1.0770  1.9563
   49MOL0     H 6717   6.451   2.253   8.056 -1.1159 -1.3360 -0.5760
   49MOL0     H 6718   6.437   2.468   8.195 -2.9466  0.7204 -0.0325
   49MOL0     H 6719   6.335   2.381   8.300 -4.4009 -3.8897 -3.9252
   49MOL0     H 6720   6.621   2.393   8.089 -0.2507  0.0789  0.5359
   49MOL0     H 6721   6.931   2.419   7.945 -4.1462 -0.7420 -2.6743
   49MOL0     H 6722   6.914   2.583   8.002 -1.4425  0.9743 -1.5300
   49MOL0     H 6723   6.777   2.495   7.934  0.6482 -1.1194 -1.7547
   49MOL0     H 6724   7.332   2.253   8.338  1.0684 -1.0993 -2.4750
   49MOL0     H 6725   7.591   2.303   8.319  1.2990  1.7554 -0.2289
   49MOL0     H 6726   7.675   2.705   8.175 -1.4625 -0.7503 -2.2632
   49MOL0     H 6727   7.836   2.643   8.194 -0.3015  0.3059  2.7295
   49MOL0     H 6728   7.798   2.500   7.995 -0.8183  0.1916 -2.4123
   49MOL0     H 6729   7.654   2.440   8.081 -4.4000  2.3175  1.5328
   49MOL0     H 6730   7.665   2.697   7.920  2.4701 -0.9803  2.0523
   49MOL0     H 6731   7.525   2.634   8.008 -0.4356  1.2826 -2.7471
   49MOL0     H 6732   7.645   2.509   7.769  0.7644 -1.7292  0.6698
   49MOL0     H 6733   7.468   2.537   7.798  1.0725 -1.3481 -3.2763
   49MOL0     H 6734   7.536   2.305   7.772  1.0172  1.2192 -0.9375
   49MOL0     H 6735   7.621   2.308   7.933 -1.2610  1.4406  2.5180
   49MOL0     H 6736   7.329   2.358   7.869  1.7448  0.7660 -1.8864
   49MOL0     H 6737   7.396   2.396   8.025 -0.1076 -0.1511 -1.3941
   49MOL0     H 6738   7.440   2.177   8.086 -3.3229 -0.9474  0.6570
   49MOL0     H 6739   7.439   2.120   7.927 -0.5302  0.1111 -1.6154
   49MOL0     H 6740   7.179   2.220   7.937  0.8474  0.4824  0.8752
   49MOL0     H 6741   7.219   2.254   8.099 -1.3740  0.1647  0.1649
   49MOL0     H 6742   7.503   2.720   8.265 -0.4903  0.2168 -1.7904
   49MOL0     H 6743   7.252   2.663   8.304 -0.2182 -0.5635  0.6466
   49MOL0     H 6744   6.952   2.340   8.443 -0.2135  0.1961  0.5492
   49MOL0     H 6745   6.734   2.269   8.466  0.5289  1.0247 -0.2204
   49MOL0     H 6746   5.706   3.456   8.257  1.1489 -0.4936 -0.6944
   49MOL0     H 6747   5.591   3.676   8.320 -1.2580 -0.2421  1.2391
   49MOL0     H 6748   5.433   3.924   8.399 -1.4851 -0.8776  0.4013
   49MOL0     H 6749   5.481   4.154   8.431  1.5265 -5.0909  0.8607
   49MOL0     H 6750   5.370   4.374   8.554 -0.5824  3.2032  0.3152
   49MOL0     H 6751   5.497   4.391   8.417 -0.4907 -1.8998 -2.9813
   49MOL0     H 6752   5.418   4.605   8.357 -1.1319 -2.6164 -1.9192
   49MOL0     H 6753   5.475   4.603   8.531 -1.7631 -3.8926  2.8154
   49MOL0     H 6754   5.274   4.746   8.475 -2.9635  0.8004  0.6612
   49MOL0     H 6755   5.181   4.591   8.440  2.0553 -4.5988  1.1667
   49MOL0     H 6756   5.335   4.658   8.691 -0.7067 -1.5024  1.9920
   49MOL0     H 6757   5.214   4.524   8.670  0.3689 -0.2822 -2.0700
   49MOL0     H 6758   4.913   4.781   8.750 -0.0290 -0.7423  2.4005
   49MOL0     H 6759   5.150   4.277   8.181  0.9040  1.2232  0.1917
   49MOL0     H 6760   4.997   4.106   8.107 -1.7763 -1.9770  2.0602
   49MOL0     H 6761   5.112   3.998   8.010  1.1665  0.0145  0.7713
   49MOL0     H 6762   5.013   3.940   8.146 -1.0701 -0.7801 -2.2964
   50MOL0     O 6763   1.785  11.293   5.536  0.1353 -0.4477  0.1949
   50MOL0     C 6764   1.810  11.385   5.614  0.0400 -0.1111  0.4669
   50MOL0     O 6765   1.935  11.427   5.647  0.5902  1.0741 -0.3774
   50MOL0     C 6766   2.027  11.320   5.672  0.4617 -1.9408 -0.2184
   50MOL0     C 6767   2.160  11.352   5.641  0.1475  0.7054 -0.4766
   50MOL0     C 6768   2.262  11.259   5.657 -0.3501  0.0977 -1.0437
   50MOL0     C 6769   2.235  11.125   5.709  1.4008  0.2157  0.5119
   50MOL0     O 6770   2.337  11.029   5.728  0.2897 -0.5068 -0.6171
   50MOL0     C 6771   2.403  11.033   5.854 -0.4205 -0.5127 -0.3711
   50MOL0     C 6772   2.538  11.114   5.839  0.1386  0.6808 -0.1464
   50MOL0     C 6773   2.651  11.068   5.923  0.6078 -0.7049  0.8311
   50MOL0     C 6774   2.624  11.051   6.075  0.1955 -0.0855  0.4104
   50MOL0     C 6775   2.740  10.959   6.120 -1.0294 -0.1446 -0.7955
   50MOL0     C 6776   2.855  11.037   6.179 -0.2285 -1.2696 -0.5555
   50MOL0     C 6777   2.968  10.960   6.242 -0.2535 -1.3334  0.4144
   50MOL0     C 6778   3.096  11.036   6.304 -0.7312  0.0254  0.4175
   50MOL0     N 6779   3.174  11.126   6.210  0.7251 -0.3408 -0.5642
   50MOL0     C 6780   3.155  11.264   6.216 -0.3931 -0.1563 -0.8606
   50MOL0     C 6781   3.261  11.313   6.141 -0.3853  0.4542 -0.1622
   50MOL0     C 6782   3.289  11.457   6.117 -0.7812 -0.9905 -0.3829
   50MOL0     C 6783   3.212  11.515   6.001  0.5624  0.1312 -0.3348
   50MOL0     C 6784   3.190  11.661   6.011  0.8165 -0.5030  0.2978
   50MOL0     C 6785   3.295  11.736   5.938 -0.5042  0.2882 -0.5562
   50MOL0     O 6786   3.265  11.876   5.953 -0.4780  0.1616  1.0628
   50MOL0     C 6787   3.345  11.947   6.043  0.5790 -1.0168  0.7219
   50MOL0     C 6788   3.340  12.090   6.039  0.4892  0.0366 -0.4108
   50MOL0     C 6789   3.405  12.166   6.141  0.3067  0.6912  0.6604
   50MOL0     C 6790   3.392  12.317   6.123  0.2594  0.3461 -0.6940
   50MOL0     C 6791   3.475  12.097   6.242 -0.1128  0.2524 -0.1464
   50MOL0     C 6792   3.560  12.167   6.348 -0.3829  0.0145 -1.0332
   50MOL0     O 6793   3.647  12.271   6.301 -0.2027 -0.6381  0.0240
   50MOL0     C 6794   3.733  12.333   6.386 -0.3979 -0.3799 -0.6319
   50MOL0     C 6795   3.831  12.409   6.315  0.0930 -0.1529 -0.2640
   50MOL0     C 6796   3.932  12.472   6.391 -0.8706  1.1432 -0.7412
   50MOL0     C 6797   3.934  12.468   6.530 -0.2025  0.0578 -0.5672
   50MOL0     O 6798   4.041  12.529   6.586 -0.0202  0.3274 -1.0389
   50MOL0     C 6799   4.017  12.563   6.725  0.3670 -0.4440  0.1387
   50MOL0     C 6800   4.133  12.656   6.744 -0.6343 -0.7466 -0.2765
   50MOL0     C 6801   4.124  12.714   6.885 -0.1199 -0.0338  0.7637
   50MOL0     C 6802   4.232  12.823   6.903  0.5204 -0.0347 -0.2910
   50MOL0     C 6803   4.367  12.760   6.873 -0.3964 -1.2117 -0.2428
   50MOL0     C 6804   4.475  12.852   6.924 -0.3432  0.0173 -0.6596
   50MOL0     C 6805   4.617  12.796   6.933  0.1497  0.4305 -0.0209
   50MOL0     C 6806   4.712  12.909   6.909 -0.0644 -0.5602 -0.5775
   50MOL0    Cl 6807   4.876  12.857   6.958  0.2460  0.1980 -0.2059
   50MOL0     C 6808   3.831  12.406   6.599  0.0259 -0.4917 -0.3215
   50MOL0     C 6809   3.731  12.339   6.525 -0.3850 -0.1475 -0.5951
   50MOL0     O 6810   3.571  12.108   6.451  0.2420 -0.3585 -0.1004
   50MOL0     C 6811   3.465  11.954   6.245  0.0130 -0.3561 -1.0230
   50MOL0     C 6812   3.398  11.884   6.153 -0.9789 -0.1915 -1.1620
   50MOL0     N 6813   3.334  11.209   6.096 -0.3350 -0.9635  0.1440
   50MOL0     N 6814   3.278  11.096   6.134  0.6288 -0.1809 -0.2534
   50MOL0     C 6815   2.097  11.101   5.753 -0.3973  0.8715  0.7188
   50MOL0     C 6816   1.996  11.199   5.730  1.2441 -0.5181  0.1115
   50MOL0     C 6817   1.695  11.467   5.680  0.6023 -0.4008  0.2524
   50MOL0     C 6818   1.716  11.605   5.709  0.0939  0.5038 -0.2523
   50MOL0     C 6819   1.612  11.674   5.773  0.8489 -0.2987 -0.2047
   50MOL0     C 6820   1.492  11.611   5.808  0.3276 -0.0198 -0.3760
   50MOL0     O 6821   1.392  11.659   5.886  0.1562  0.0090  0.6349
   50MOL0     C 6822   1.398  11.800   5.935  0.4848  1.2305  0.1070
   50MOL0     C 6823   1.354  11.892   5.831 -0.1072 -0.0232  0.4118
   50MOL0     C 6824   1.424  12.028   5.836  0.3103 -0.0604  0.1289
   50MOL0     C 6825   1.429  12.092   5.698  1.2870  0.8146  0.4837
   50MOL0     C 6826   1.538  12.033   5.612  0.4831  0.7704  0.5823
   50MOL0     C 6827   1.622  11.967   5.548  0.4640  0.1717 -0.3691
   50MOL0     C 6828   1.472  11.481   5.761 -0.2179 -0.5522  0.6981
   50MOL0     C 6829   1.567  11.408   5.697  0.3394  0.0067  0.1491
   50MOL0     C 6830   1.542  11.261   5.687  0.9924  0.9189  0.1902
   50MOL0     H 6831   2.186  11.451   5.605  0.6768  1.2941  1.4038
   50MOL0     H 6832   2.365  11.278   5.628 -0.9563  0.8080 -2.9232
   50MOL0     H 6833   2.427  10.928   5.874  1.7752  0.0755  0.4478
   50MOL0     H 6834   2.341  11.067   5.938  3.0259  0.3243  2.0893
   50MOL0     H 6835   2.570  11.111   5.735  2.9544  1.0572  0.6133
   50MOL0     H 6836   2.514  11.214   5.879 -1.0127 -1.2486  4.7741
   50MOL0     H 6837   2.681  10.971   5.883  2.3639  0.0608  0.1654
   50MOL0     H 6838   2.737  11.135   5.910  1.5530 -2.2336 -1.6166
   50MOL0     H 6839   2.610  11.138   6.140 -0.9565  0.4700 -0.5412
   50MOL0     H 6840   2.532  10.993   6.088  0.1489 -0.0696  0.1425
   50MOL0     H 6841   2.781  10.894   6.042  2.3261  2.1783 -1.2123
   50MOL0     H 6842   2.702  10.901   6.205 -4.5358  0.2882 -1.9003
   50MOL0     H 6843   2.888  11.112   6.106 -0.5773  1.5918  2.0059
   50MOL0     H 6844   2.812  11.098   6.259  1.8619  2.5832 -2.0636
   50MOL0     H 6845   3.010  10.888   6.171  0.9870  0.8083 -1.1732
   50MOL0     H 6846   2.928  10.903   6.326 -0.0877  0.8333  2.0658
   50MOL0     H 6847   3.070  11.101   6.388  1.9330 -3.0248  3.9289
   50MOL0     H 6848   3.158  10.950   6.330 -1.6711 -0.2761  1.7333
   50MOL0     H 6849   3.083  11.328   6.264  0.8547  0.2903  0.4942
   50MOL0     H 6850   3.397  11.471   6.104 -0.5944 -0.7231  1.2560
   50MOL0     H 6851   3.268  11.517   6.206  1.1057  0.2974 -0.7433
   50MOL0     H 6852   3.258  11.489   5.905 -0.6007  3.5728 -1.9593
   50MOL0     H 6853   3.117  11.462   6.003  1.7765 -2.1903  0.8646
   50MOL0     H 6854   3.097  11.682   5.957  1.4859  1.6172 -0.1273
   50MOL0     H 6855   3.182  11.699   6.113 -0.5891  0.9200 -0.2995
   50MOL0     H 6856   3.395  11.710   5.976 -0.7909 -1.1648 -0.7360
   50MOL0     H 6857   3.300  11.713   5.831 -3.2346  1.0414 -0.9185
   50MOL0     H 6858   3.281  12.133   5.959  0.6539 -1.2218 -1.2322
   50MOL0     H 6859   3.466  12.369   6.062  0.6308  3.9011  2.3791
   50MOL0     H 6860   3.413  12.354   6.224 -1.7567 -1.5603  0.5121
   50MOL0     H 6861   3.287  12.333   6.096  0.9236  2.0343 -2.5248
   50MOL0     H 6862   3.833  12.412   6.207 -1.6551  2.3245 -0.3370
   50MOL0     H 6863   4.014  12.523   6.343  0.6637 -0.9779 -0.5560
   50MOL0     H 6864   3.925  12.613   6.756  0.9074  0.6003  0.1203
   50MOL0     H 6865   4.030  12.478   6.793 -0.2189 -0.2399  0.5165
   50MOL0     H 6866   4.226  12.601   6.726 -1.3781 -2.1561  0.0390
   50MOL0     H 6867   4.122  12.741   6.677  1.2701  1.4756  2.0166
   50MOL0     H 6868   4.142  12.641   6.964  0.3258  0.4623  1.1244
   50MOL0     H 6869   4.027  12.760   6.908 -1.8562 -2.3521 -1.2621
   50MOL0     H 6870   4.226  12.860   7.006  0.5102  1.6522 -0.8710
   50MOL0     H 6871   4.214  12.908   6.836 -1.5473  0.1247  0.4062
   50MOL0     H 6872   4.390  12.664   6.920  1.7554  0.5643  2.7851
   50MOL0     H 6873   4.389  12.743   6.767 -2.2212  1.9763 -1.2473
   50MOL0     H 6874   4.448  12.887   7.024 -0.0609 -0.2702 -0.4806
   50MOL0     H 6875   4.464  12.940   6.860 -0.4537 -0.8521 -1.8767
   50MOL0     H 6876   4.635  12.720   6.855  0.9758 -1.1009  1.5885
   50MOL0     H 6877   4.624  12.755   7.034 -0.1772  0.1433 -0.1099
   50MOL0     H 6878   4.676  12.986   6.977  1.2323  0.7144 -1.2616
   50MOL0     H 6879   4.700  12.932   6.803 -0.3109 -1.0002 -0.6488
   50MOL0     H 6880   3.811  12.412   6.706 -0.0459 -2.3680 -0.1970
   50MOL0     H 6881   3.644  12.300   6.577  0.1635  1.7466  1.9547
   50MOL0     H 6882   3.506  11.897   6.328 -0.2664 -1.1586 -1.4256
   50MOL0     H 6883   3.401  11.779   6.180  2.9917  0.1569  0.4642
   50MOL0     H 6884   2.073  10.999   5.782 -0.6655  0.8334  0.3765
   50MOL0     H 6885   1.895  11.184   5.766  1.2947  1.3205  1.1410
   50MOL0     H 6886   1.806  11.659   5.679  1.4482 -1.1917  0.5808
   50MOL0     H 6887   1.636  11.776   5.801  5.6043 -1.4636  0.9276
   50MOL0     H 6888   1.320  11.793   6.012 -2.1710 -0.9165 -2.5101
   50MOL0     H 6889   1.489  11.825   5.989  1.0619  0.3904 -0.4446
   50MOL0     H 6890   1.245  11.892   5.824  0.0001  0.0006 -2.0161
   50MOL0     H 6891   1.378  11.853   5.732 -0.8292  0.4604  0.0320
   50MOL0     H 6892   1.370  12.084   5.913  0.2338 -1.0009  0.7936
   50MOL0     H 6893   1.527  12.019   5.872  0.2654 -0.8915  0.0900
   50MOL0     H 6894   1.452  12.198   5.706  3.1487  0.5235 -0.4299
   50MOL0     H 6895   1.333  12.083   5.645  1.3518  2.1813  0.1090
   50MOL0     H 6896   1.702  11.930   5.486  1.8814 -0.1745  1.5886
   50MOL0     H 6897   1.373  11.442   5.783 -0.2905  0.2299  1.8407
   50MOL0     H 6898   1.601  11.203   5.759  0.7330 -0.6723 -0.8338
   50MOL0     H 6899   1.438  11.240   5.712 -0.2187  2.5858 -2.8897
   50MOL0     H 6900   1.551  11.228   5.583  1.9102  0.1626  0.5004
   51MOL0     O 6901   5.516   2.302   5.125  0.8634  0.5163 -0.6533
   51MOL0     C 6902   5.595   2.339   5.205  0.2842 -0.0635  0.0545
   51MOL0     O 6903   5.630   2.276   5.323  0.0111  0.0968  0.7763
   51MOL0     C 6904   5.589   2.147   5.355  0.6822 -0.7485  0.1307
   51MOL0     C 6905   5.458   2.108   5.364 -0.6377  0.4664 -0.3279
   51MOL0     C 6906   5.423   1.981   5.389 -0.2312 -0.4990 -0.0208
   51MOL0     C 6907   5.527   1.889   5.419  0.0416  0.3390 -0.3747
   51MOL0     O 6908   5.504   1.752   5.447 -0.8617 -0.5805  0.8004
   51MOL0     C 6909   5.373   1.705   5.436 -0.1263  0.4341 -0.1260
   51MOL0     C 6910   5.384   1.554   5.480 -0.0295  0.2455  0.1269
   51MOL0     C 6911   5.417   1.535   5.629 -0.0847 -0.0605  0.3119
   51MOL0     C 6912   5.418   1.389   5.673  0.8108 -0.3058 -1.0768
   51MOL0     C 6913   5.521   1.315   5.598  0.3170  0.0067 -0.3788
   51MOL0     C 6914   5.528   1.169   5.638  0.2846  0.6529  0.2997
   51MOL0     C 6915   5.652   1.146   5.728  0.9869 -0.1809 -0.6395
   51MOL0     C 6916   5.665   1.002   5.785 -0.6136 -0.2279 -0.7572
   51MOL0     N 6917   5.795   0.993   5.860  1.1393  0.1493  0.2120
   51MOL0     C 6918   5.797   0.973   5.993  0.4224 -0.0237 -0.4182
   51MOL0     C 6919   5.923   0.940   6.019  0.3027  1.3261  0.0370
   51MOL0     C 6920   5.975   0.927   6.162  0.4987 -0.0210 -0.3430
   51MOL0     C 6921   5.998   0.786   6.221 -0.4906 -1.1622 -0.0255
   51MOL0     C 6922   6.038   0.794   6.373 -0.3149 -0.6803  0.4308
   51MOL0     C 6923   6.177   0.867   6.378 -0.0091  0.7182 -0.0392
   51MOL0     O 6924   6.235   0.821   6.504 -0.4215 -0.0806 -0.0650
   51MOL0     C 6925   6.330   0.888   6.565 -0.2943 -0.6581  0.0078
   51MOL0     C 6926   6.392   0.807   6.668  0.1279 -0.0464 -0.5994
   51MOL0     C 6927   6.499   0.858   6.749  0.1813  0.6850  0.1310
   51MOL0     C 6928   6.543   0.778   6.871 -0.1658  0.4218 -0.0994
   51MOL0     C 6929   6.544   0.987   6.713 -0.4220 -0.7180 -0.5080
   51MOL0     C 6930   6.662   1.054   6.797 -0.4563 -0.1263  0.0009
   51MOL0     O 6931   6.756   0.967   6.851 -0.0029  0.9735 -0.1925
   51MOL0     C 6932   6.847   1.013   6.947  1.0129 -1.1969 -0.0932
   51MOL0     C 6933   6.981   0.966   6.952 -0.0837  0.7040 -0.4515
   51MOL0     C 6934   7.070   1.003   7.059  0.7860 -0.2872 -0.3551
   51MOL0     C 6935   7.026   1.094   7.162  0.6534 -0.1045  0.0764
   51MOL0     O 6936   7.114   1.126   7.261 -0.3777 -0.4487 -0.2937
   51MOL0     C 6937   7.127   1.272   7.302  0.2672 -0.1190  1.2876
   51MOL0     C 6938   7.229   1.348   7.223 -0.1369 -0.4217  0.6125
   51MOL0     C 6939   7.265   1.476   7.298  0.2875 -0.9341 -0.5058
   51MOL0     C 6940   7.336   1.569   7.192  0.2462  0.3248 -0.1979
   51MOL0     C 6941   7.430   1.671   7.264  0.2961  1.0126 -0.1496
   51MOL0     C 6942   7.355   1.770   7.354  0.0906  0.0015 -0.7942
   51MOL0     C 6943   7.457   1.863   7.415  0.0352 -0.4533 -0.0518
   51MOL0     C 6944   7.403   1.981   7.485 -0.6574 -0.6145  0.0496
   51MOL0    Cl 6945   7.526   2.082   7.564 -0.0242  0.2656  0.4086
   51MOL0     C 6946   6.893   1.140   7.149  0.3915 -0.3466 -0.9750
   51MOL0     C 6947   6.809   1.102   7.046  0.4928  0.6427 -0.0602
   51MOL0     O 6948   6.666   1.175   6.808 -0.6260 -0.2701 -0.8299
   51MOL0     C 6949   6.486   1.062   6.613 -0.9890 -0.1898 -0.1433
   51MOL0     C 6950   6.381   1.012   6.534 -0.3573 -0.7810  0.6179
   51MOL0     N 6951   5.996   0.923   5.902  0.4680  0.1486  0.1733
   51MOL0     N 6952   5.906   0.945   5.809  0.5746  0.8590 -0.5237
   51MOL0     C 6953   5.662   1.931   5.396 -0.2589 -0.7484 -0.2263
   51MOL0     C 6954   5.688   2.061   5.358 -0.2578  0.6597 -0.1606
   51MOL0     C 6955   5.663   2.467   5.187  0.0287  0.1871 -0.0368
   51MOL0     C 6956   5.607   2.568   5.102  0.3149  0.0620 -0.7407
   51MOL0     C 6957   5.662   2.690   5.090  0.3535  0.8106  0.1542
   51MOL0     C 6958   5.780   2.727   5.152  0.3084  0.2274 -0.4523
   51MOL0     O 6959   5.828   2.847   5.148  0.5586  0.5193  0.1509
   51MOL0     C 6960   5.938   2.865   5.048  0.8090  1.0655 -0.9006
   51MOL0     C 6961   5.887   2.857   4.898  0.3706 -0.4311 -0.2153
   51MOL0     C 6962   6.004   2.900   4.819  0.3463 -0.0800 -0.3968
   51MOL0     C 6963   5.998   2.863   4.676  0.4347 -1.0706 -0.0110
   51MOL0     C 6964   6.104   2.929   4.603  0.0794  0.2673  0.1401
   51MOL0     C 6965   6.212   2.958   4.551  0.1074  0.1553 -0.2782
   51MOL0     C 6966   5.848   2.626   5.230 -0.7882  0.2740 -0.3691
   51MOL0     C 6967   5.788   2.495   5.252 -0.9561  0.2274  0.6056
   51MOL0     C 6968   5.869   2.405   5.347  0.1533  0.4284  0.9322
   51MOL0     H 6969   5.381   2.184   5.357  1.1503  2.3746 -0.2791
   51MOL0     H 6970   5.319   1.950   5.389  0.0701 -1.6247 -1.4930
   51MOL0     H 6971   5.346   1.714   5.330 -0.4597 -1.3650 -0.2180
   51MOL0     H 6972   5.310   1.767   5.500  1.0653  1.4736  0.0923
   51MOL0     H 6973   5.296   1.493   5.454 -1.0292  1.0775  1.4324
   51MOL0     H 6974   5.468   1.519   5.419  0.1430 -0.9928  1.0387
   51MOL0     H 6975   5.515   1.579   5.646 -0.6782  1.9351 -1.0851
   51MOL0     H 6976   5.336   1.583   5.684  0.7895  3.3040 -1.0882
   51MOL0     H 6977   5.436   1.394   5.780  3.1049  1.6094 -1.4704
   51MOL0     H 6978   5.313   1.360   5.658  1.0166 -2.7923  1.5360
   51MOL0     H 6979   5.620   1.361   5.592  0.6891 -0.9011 -3.1556
   51MOL0     H 6980   5.490   1.317   5.493 -3.7130  2.1428  0.6492
   51MOL0     H 6981   5.443   1.160   5.705  0.6583  0.0932  0.7036
   51MOL0     H 6982   5.522   1.124   5.538 -0.0636  3.2308 -0.9500
   51MOL0     H 6983   5.654   1.218   5.810  1.4909  0.0787 -0.8717
   51MOL0     H 6984   5.737   1.177   5.666  1.9720  1.5215  1.4256
   51MOL0     H 6985   5.583   0.989   5.856 -0.0074  1.9941  0.4557
   51MOL0     H 6986   5.658   0.919   5.714  1.0399 -0.2722 -0.9032
   51MOL0     H 6987   5.710   0.994   6.055 -2.6686  0.5371 -4.4773
   51MOL0     H 6988   5.901   0.980   6.223  1.9301  2.1732 -0.4278
   51MOL0     H 6989   6.065   0.988   6.161  2.4036 -2.6288 -2.7247
   51MOL0     H 6990   5.897   0.748   6.207 -1.6962  1.7790 -0.1082
   51MOL0     H 6991   6.075   0.734   6.164  0.3446 -0.9231  0.8476
   51MOL0     H 6992   5.955   0.846   6.422  1.5019  1.4758  1.4041
   51MOL0     H 6993   6.033   0.702   6.431  0.2248  1.7393  4.6895
   51MOL0     H 6994   6.235   0.834   6.291 -1.2275 -1.5249 -0.0948
   51MOL0     H 6995   6.166   0.976   6.379 -0.2114  0.7260 -1.5733
   51MOL0     H 6996   6.353   0.709   6.691  2.7899 -1.4957 -1.7180
   51MOL0     H 6997   6.620   0.706   6.841 -1.3472 -0.2535 -1.6325
   51MOL0     H 6998   6.465   0.716   6.916 -0.3458  0.9556  0.3318
   51MOL0     H 6999   6.590   0.847   6.942  1.2255  2.3584 -2.7574
   51MOL0     H 7000   7.022   0.892   6.884  4.0935  0.7734  1.6603
   51MOL0     H 7001   7.171   0.969   7.076  1.3758  2.3678  2.1772
   51MOL0     H 7002   7.031   1.322   7.288  0.5467 -0.3198 -2.1251
   51MOL0     H 7003   7.141   1.270   7.410 -1.4797 -0.8987  1.5247
   51MOL0     H 7004   7.321   1.291   7.208 -0.1548 -0.7600  1.6970
   51MOL0     H 7005   7.182   1.358   7.124 -0.9870  0.0634  1.0593
   51MOL0     H 7006   7.335   1.465   7.382  1.0739  2.3563 -0.5862
   51MOL0     H 7007   7.175   1.530   7.331 -0.1544 -1.5800 -0.6424
   51MOL0     H 7008   7.266   1.621   7.126 -0.4622 -1.2027 -0.6755
   51MOL0     H 7009   7.401   1.508   7.130 -0.3818  0.7327 -1.2803
   51MOL0     H 7010   7.501   1.617   7.327  2.4808 -1.7738 -4.5584
   51MOL0     H 7011   7.489   1.724   7.189 -2.0741 -1.4892 -4.1144
   51MOL0     H 7012   7.300   1.705   7.423  2.0542  0.8262  1.7342
   51MOL0     H 7013   7.280   1.823   7.294  0.7156 -1.0086 -2.5229
   51MOL0     H 7014   7.523   1.894   7.334  0.2060 -0.6736  0.0040
   51MOL0     H 7015   7.516   1.810   7.489  0.0104  1.8433  1.7341
   51MOL0     H 7016   7.326   1.942   7.553  0.5218 -0.2072  1.6980
   51MOL0     H 7017   7.350   2.045   7.414  0.9090 -1.8047 -2.3206
   51MOL0     H 7018   6.856   1.204   7.229  1.7752 -0.5965 -0.0992
   51MOL0     H 7019   6.706   1.136   7.044  0.2225 -0.1114 -2.1811
   51MOL0     H 7020   6.518   1.165   6.597  0.6790 -0.1707  2.5765
   51MOL0     H 7021   6.324   1.088   6.482 -4.7077 -0.7221  4.7733
   51MOL0     H 7022   5.738   1.853   5.405 -1.8600 -2.6400 -2.0573
   51MOL0     H 7023   5.789   2.096   5.336  0.0121  1.1969  1.7315
   51MOL0     H 7024   5.503   2.559   5.070 -0.9350  2.2493  2.2381
   51MOL0     H 7025   5.602   2.764   5.039  0.3845  0.2839 -0.6592
   51MOL0     H 7026   5.986   2.960   5.073 -0.5084  1.1485  1.6728
   51MOL0     H 7027   6.003   2.781   5.071  1.9925  0.9557 -4.1973
   51MOL0     H 7028   5.798   2.919   4.889 -0.0956 -0.8417  1.2935
   51MOL0     H 7029   5.860   2.753   4.876  2.2891 -1.1213  0.4294
   51MOL0     H 7030   6.000   3.008   4.840 -1.8536 -0.8829  4.9746
   51MOL0     H 7031   6.095   2.867   4.869 -0.3013 -1.0750  0.1513
   51MOL0     H 7032   5.898   2.890   4.643  0.6915  3.1504  1.9730
   51MOL0     H 7033   6.012   2.757   4.654 -0.6922 -1.5606  1.4693
   51MOL0     H 7034   6.307   2.989   4.511 -0.1903  2.6874  0.8026
   51MOL0     H 7035   5.936   2.648   5.291 -1.2822 -1.4572  1.0466
   51MOL0     H 7036   5.824   2.398   5.447 -2.3078 -4.6954 -0.2056
   51MOL0     H 7037   5.876   2.302   5.312  2.5833  1.5013 -2.2253
   51MOL0     H 7038   5.973   2.436   5.363  0.8029 -1.6583  1.0849
   52MOL0     O 7039  11.176   3.191   3.949 -0.1236  0.1045  0.2696
   52MOL0     C 7040  11.203   3.191   3.827  0.5042  0.0265 -0.5720
   52MOL0     O 7041  11.313   3.254   3.780  0.1030  0.7843  0.0355
   52MOL0     C 7042  11.385   3.337   3.855 -0.4384  0.0389 -0.8459
   52MOL0     C 7043  11.513   3.299   3.893 -0.5370  0.0421  0.0741
   52MOL0     C 7044  11.603   3.395   3.953 -0.0360 -0.2092  0.2087
   52MOL0     C 7045  11.554   3.523   3.984  0.5740  0.1775  1.0001
   52MOL0     O 7046  11.631   3.627   4.035  0.0893  0.0778 -0.1889
   52MOL0     C 7047  11.778   3.616   4.029 -0.0946  0.0164  0.5584
   52MOL0     C 7048  11.826   3.695   3.904  0.8382 -0.5343  0.7244
   52MOL0     C 7049  11.975   3.704   3.894 -0.1862 -0.5540  0.1037
   52MOL0     C 7050  12.030   3.596   3.810  0.0109  0.1933 -0.9238
   52MOL0     C 7051  12.178   3.616   3.804 -0.8893 -0.0070  0.4662
   52MOL0     C 7052  12.261   3.538   3.693 -0.0137  0.8884 -0.6544
   52MOL0     C 7053  12.404   3.510   3.739  0.5410 -0.1986 -0.2173
   52MOL0     C 7054  12.497   3.445   3.641  0.0237  0.5040  0.2911
   52MOL0     N 7055  12.625   3.396   3.696  0.1401  0.1580 -0.4953
   52MOL0     C 7056  12.744   3.443   3.656 -0.1752 -0.5173 -0.5565
   52MOL0     C 7057  12.835   3.345   3.690  0.3090  0.0670 -0.4887
   52MOL0     C 7058  12.981   3.351   3.637  0.4319  0.3697 -0.2102
   52MOL0     C 7059  13.070   3.425   3.738 -0.7010 -0.0708 -0.4514
   52MOL0     C 7060  13.056   3.390   3.884 -0.0686  0.3371 -0.8912
   52MOL0     C 7061  13.119   3.262   3.935 -0.5111  0.4867 -0.1095
   52MOL0     O 7062  13.261   3.264   3.894  0.0740  0.0641 -0.6117
   52MOL0     C 7063  13.341   3.179   3.950  0.0751  0.5790 -0.2160
   52MOL0     C 7064  13.477   3.178   3.921  0.4106 -0.6003 -0.1428
   52MOL0     C 7065  13.576   3.089   3.977 -0.3961 -0.0617  0.3985
   52MOL0     C 7066  13.725   3.123   3.944 -0.1447  0.0851 -0.2015
   52MOL0     C 7067  13.521   2.983   4.057  0.0146  0.0639  0.0501
   52MOL0     C 7068  13.608   2.882   4.122 -0.0967  0.3282  0.5019
   52MOL0     O 7069  13.536   2.769   4.140 -0.1158  0.4128 -0.2324
   52MOL0     C 7070  13.579   2.652   4.195  1.0697  0.0114 -0.7120
   52MOL0     C 7071  13.711   2.613   4.226  0.9577  1.0554 -0.1446
   52MOL0     C 7072  13.737   2.484   4.292 -0.2237 -0.0226  1.6290
   52MOL0     C 7073  13.626   2.401   4.321  0.2692  0.0484 -1.0641
   52MOL0     O 7074  13.654   2.291   4.389 -0.7099  0.8915 -1.1677
   52MOL0     C 7075  13.558   2.200   4.440 -0.6253 -0.3021  0.1121
   52MOL0     C 7076  13.630   2.076   4.486 -0.6125 -0.0407 -0.1836
   52MOL0     C 7077  13.529   1.964   4.512  0.6924 -0.9269  0.3116
   52MOL0     C 7078  13.597   1.849   4.583  0.3718 -0.1064 -1.0556
   52MOL0     C 7079  13.493   1.753   4.635  0.8657  0.5134  0.4132
   52MOL0     C 7080  13.561   1.631   4.706 -0.2227  0.2341  0.3281
   52MOL0     C 7081  13.456   1.545   4.765 -0.0331  0.4796 -0.1638
   52MOL0     C 7082  13.519   1.423   4.829 -0.6641  0.7239  0.2227
   52MOL0    Cl 7083  13.424   1.332   4.950  0.0778  0.1851 -0.0434
   52MOL0     C 7084  13.497   2.447   4.307  0.3665 -0.0751 -0.5774
   52MOL0     C 7085  13.472   2.569   4.237  0.2164 -0.4780 -0.6682
   52MOL0     O 7086  13.726   2.900   4.155 -0.1055 -0.6885  0.4734
   52MOL0     C 7087  13.383   2.969   4.077  0.7960 -0.0811  0.7633
   52MOL0     C 7088  13.302   3.065   4.026  0.8551 -0.3910  0.2244
   52MOL0     N 7089  12.765   3.254   3.779  0.3002 -0.0453 -0.4421
   52MOL0     N 7090  12.638   3.280   3.769  0.3515  0.4816 -0.5740
   52MOL0     C 7091  11.421   3.561   3.950  0.4949  0.3496 -0.3702
   52MOL0     C 7092  11.344   3.467   3.882  0.3907 -0.0851  0.0019
   52MOL0     C 7093  11.099   3.126   3.734  0.2253  0.4359  0.4825
   52MOL0     C 7094  10.964   3.119   3.783  0.1656  0.4709  0.0439
   52MOL0     C 7095  10.856   3.077   3.697 -0.3457 -0.1033  0.3030
   52MOL0     C 7096  10.884   3.046   3.562  0.3703 -0.6512 -0.5808
   52MOL0     O 7097  10.801   3.012   3.468  0.1041  0.0050  0.1252
   52MOL0     C 7098  10.662   3.011   3.508  0.1506 -0.4310  0.1682
   52MOL0     C 7099  10.577   2.962   3.401  0.2674  0.7917  0.0251
   52MOL0     C 7100  10.447   2.929   3.458  0.5776  0.2878  0.9481
   52MOL0     C 7101  10.349   2.855   3.358 -1.1420 -0.7533 -0.7541
   52MOL0     C 7102  10.273   2.955   3.278 -0.1179  0.0864  0.4685
   52MOL0     C 7103  10.223   3.047   3.211 -0.2008  0.8004 -0.8697
   52MOL0     C 7104  11.022   3.039   3.520  0.4112  0.6921  0.6047
   52MOL0     C 7105  11.129   3.068   3.606 -1.3073 -0.9117 -0.6742
   52MOL0     C 7106  11.269   3.063   3.550  0.3703  0.5283 -0.9058
   52MOL0     H 7107  11.542   3.199   3.864  0.5423  0.7263 -1.3598
   52MOL0     H 7108  11.705   3.364   3.975  0.0349 -0.5876 -0.6281
   52MOL0     H 7109  11.815   3.514   4.042 -1.1225 -0.3389  0.8034
   52MOL0     H 7110  11.818   3.659   4.122 -0.9434 -0.3139  1.0994
   52MOL0     H 7111  11.795   3.646   3.812 -0.4820  0.3758  0.6536
   52MOL0     H 7112  11.781   3.795   3.911 -1.1176 -1.2326 -0.9408
   52MOL0     H 7113  12.009   3.798   3.849  3.2860  0.1182  3.5337
   52MOL0     H 7114  12.018   3.702   3.995  3.1834  2.8851 -1.0083
   52MOL0     H 7115  12.007   3.494   3.843 -0.5981  1.1108  1.7449
   52MOL0     H 7116  11.992   3.586   3.708 -4.1404 -4.0272  0.6713
   52MOL0     H 7117  12.206   3.582   3.904  2.6138 -0.0709 -0.3864
   52MOL0     H 7118  12.215   3.719   3.800  0.9651 -0.5225  2.4638
   52MOL0     H 7119  12.209   3.443   3.681 -1.1866  1.6387 -1.8631
   52MOL0     H 7120  12.256   3.596   3.601  3.5208 -0.1431 -1.6083
   52MOL0     H 7121  12.415   3.453   3.831  0.9648  0.7454  0.3353
   52MOL0     H 7122  12.448   3.607   3.765 -0.9654  0.5421 -0.3521
   52MOL0     H 7123  12.443   3.355   3.613  0.0014  0.9317 -1.1670
   52MOL0     H 7124  12.507   3.504   3.549 -3.6554  0.7027 -0.1277
   52MOL0     H 7125  12.774   3.531   3.600  0.4464 -0.8532 -0.7587
   52MOL0     H 7126  12.974   3.405   3.542 -1.4801 -1.4169 -1.1587
   52MOL0     H 7127  13.008   3.247   3.615 -1.8322 -0.1277 -0.8836
   52MOL0     H 7128  13.175   3.435   3.708 -0.8320  0.9403 -0.6019
   52MOL0     H 7129  13.041   3.530   3.741 -0.0181  0.1099  0.0784
   52MOL0     H 7130  13.097   3.466   3.952 -1.5887 -0.8577  1.4974
   52MOL0     H 7131  12.950   3.389   3.911 -0.0048 -0.6039 -0.6396
   52MOL0     H 7132  13.103   3.254   4.043  1.6478  3.0625  0.5062
   52MOL0     H 7133  13.077   3.170   3.893  1.6964 -0.4523 -0.4192
   52MOL0     H 7134  13.515   3.263   3.866 -0.7850  1.3786  1.8971
   52MOL0     H 7135  13.788   3.103   4.031 -1.4902  2.4084  1.4148
   52MOL0     H 7136  13.736   3.232   3.937 -1.7572  0.4845  2.1123
   52MOL0     H 7137  13.752   3.076   3.849 -0.2990 -0.0196 -0.1927
   52MOL0     H 7138  13.790   2.681   4.194  2.0430  0.5041  1.2672
   52MOL0     H 7139  13.837   2.445   4.306 -0.1180 -0.7783 -0.7604
   52MOL0     H 7140  13.516   2.242   4.532  0.7899  0.8156  0.2833
   52MOL0     H 7141  13.475   2.183   4.370  1.3192  0.5549 -2.5645
   52MOL0     H 7142  13.704   2.050   4.410 -0.7284  2.6968 -1.3776
   52MOL0     H 7143  13.683   2.089   4.581 -3.1639 -1.3208  1.5169
   52MOL0     H 7144  13.486   1.929   4.418  2.4503 -0.5057 -0.7034
   52MOL0     H 7145  13.452   2.001   4.581 -0.4891 -2.4303 -0.1617
   52MOL0     H 7146  13.653   1.882   4.672  0.8903  3.1603 -2.4651
   52MOL0     H 7147  13.665   1.797   4.516  2.3822 -1.5489  1.8542
   52MOL0     H 7148  13.437   1.821   4.701  1.5275  1.8517 -0.3665
   52MOL0     H 7149  13.426   1.708   4.560  0.7763  1.3236 -0.0049
   52MOL0     H 7150  13.630   1.668   4.781  1.1424  0.1336 -0.8430
   52MOL0     H 7151  13.615   1.567   4.636  0.1700  0.5580  0.3332
   52MOL0     H 7152  13.390   1.503   4.688  1.3349 -1.8580 -0.1449
   52MOL0     H 7153  13.410   1.606   4.843  1.2837  0.7007  0.4511
   52MOL0     H 7154  13.609   1.454   4.884 -1.7087  2.2166  1.1588
   52MOL0     H 7155  13.558   1.352   4.756  2.1151  0.4888  1.7783
   52MOL0     H 7156  13.412   2.396   4.350  0.4436 -0.6959 -1.1379
   52MOL0     H 7157  13.372   2.595   4.202  0.5826  1.5303 -0.2966
   52MOL0     H 7158  13.335   2.894   4.139 -1.7119  1.4640  0.8351
   52MOL0     H 7159  13.201   3.050   4.062  1.2187 -2.1204  0.6242
   52MOL0     H 7160  11.378   3.659   3.968  0.9501  0.5467 -0.3656
   52MOL0     H 7161  11.238   3.482   3.864 -0.0006 -0.9776  1.4347
   52MOL0     H 7162  10.931   3.140   3.884 -2.2938 -2.6997  0.0529
   52MOL0     H 7163  10.758   3.061   3.739 -0.7081 -0.7105 -0.7347
   52MOL0     H 7164  10.646   2.940   3.590 -1.1940 -1.0005 -0.5590
   52MOL0     H 7165  10.632   3.107   3.551 -2.5377 -1.0510 -0.1576
   52MOL0     H 7166  10.613   2.866   3.363 -2.0850 -0.4853  0.7962
   52MOL0     H 7167  10.567   3.033   3.318 -0.6729  0.0829 -0.4914
   52MOL0     H 7168  10.449   2.869   3.549 -0.3506  2.6317  2.5993
   52MOL0     H 7169  10.401   3.020   3.495  1.9145  0.9634  1.0078
   52MOL0     H 7170  10.272   2.801   3.413 -2.7827  2.1153 -0.0057
   52MOL0     H 7171  10.404   2.790   3.290 -0.7652 -1.9816  0.6715
   52MOL0     H 7172  10.164   3.126   3.168 -1.2209  1.4030  1.4821
   52MOL0     H 7173  11.049   2.999   3.422  0.2936  0.1967  0.7726
   52MOL0     H 7174  11.349   3.078   3.623 -0.6195  1.5387  0.0129
   52MOL0     H 7175  11.278   2.961   3.510  0.6672 -1.5071  3.7167
   52MOL0     H 7176  11.281   3.143   3.476  0.7994  0.6755 -0.6838
   53MOL0     O 7177   6.534   3.115   0.250 -0.4029  0.2321 -0.0324
   53MOL0     C 7178   6.530   3.028   0.339  0.2843  0.0016 -0.2521
   53MOL0     O 7179   6.613   3.028   0.450 -0.5213 -0.2392 -0.2879
   53MOL0     C 7180   6.721   3.115   0.452  0.3855 -0.0396 -0.2792
   53MOL0     C 7181   6.689   3.254   0.474  0.0164  0.9533  0.7615
   53MOL0     C 7182   6.802   3.347   0.476 -0.3653  0.6038 -0.9213
   53MOL0     C 7183   6.939   3.298   0.485  0.5156 -0.3807  0.0288
   53MOL0     O 7184   7.036   3.392   0.506  0.1258 -0.8044  0.9987
   53MOL0     C 7185   7.155   3.353   0.579  0.1691  0.2442 -0.0211
   53MOL0     C 7186   7.215   3.482   0.630 -0.8023 -0.0873 -0.2737
   53MOL0     C 7187   7.332   3.452   0.723 -0.0223  0.1611  0.2181
   53MOL0     C 7188   7.391   3.590   0.774 -0.5019  0.3122 -0.2130
   53MOL0     C 7189   7.490   3.585   0.888 -0.4216  0.4548 -0.5366
   53MOL0     C 7190   7.437   3.542   1.028  0.0645 -0.0650 -0.6905
   53MOL0     C 7191   7.353   3.647   1.115 -0.0539 -0.5546  0.3375
   53MOL0     C 7192   7.330   3.596   1.254  0.4751 -0.1335  0.6255
   53MOL0     N 7193   7.231   3.685   1.318 -0.1110 -0.2163 -0.1974
   53MOL0     C 7194   7.270   3.795   1.390  0.8279 -0.5257 -0.5537
   53MOL0     C 7195   7.148   3.825   1.460 -0.6002  0.2698  0.2678
   53MOL0     C 7196   7.126   3.941   1.556 -0.3505  0.3984 -0.2603
   53MOL0     C 7197   7.254   3.993   1.637 -0.1215  0.3340  0.3859
   53MOL0     C 7198   7.231   4.120   1.717  0.6116  0.4742 -0.0865
   53MOL0     C 7199   7.375   4.179   1.737  0.7131  0.2332  0.5287
   53MOL0     O 7200   7.454   4.092   1.818 -0.1140  0.2898  0.2885
   53MOL0     C 7201   7.586   4.107   1.799  0.8555  0.5449  0.1896
   53MOL0     C 7202   7.644   4.231   1.818  0.3731 -0.2981  1.3045
   53MOL0     C 7203   7.777   4.258   1.789  0.6923 -0.6307  0.5252
   53MOL0     C 7204   7.815   4.409   1.782 -0.6649 -0.2090  0.5748
   53MOL0     C 7205   7.860   4.146   1.755  0.1385  1.3332  0.4017
   53MOL0     C 7206   7.994   4.152   1.695 -0.0234  0.1286 -0.1501
   53MOL0     O 7207   8.058   4.035   1.643  0.0742 -0.3272 -0.2937
   53MOL0     C 7208   8.065   4.038   1.502 -0.1936 -0.2776 -0.2887
   53MOL0     C 7209   7.972   4.119   1.428  0.2444  0.1500 -0.7930
   53MOL0     C 7210   7.984   4.128   1.291 -0.2580  0.2451  0.0125
   53MOL0     C 7211   8.084   4.063   1.226 -0.6009 -0.4560  0.5170
   53MOL0     O 7212   8.102   4.079   1.089 -0.0448  0.3774 -0.7375
   53MOL0     C 7213   8.167   4.203   1.056  0.5139 -0.0072  0.4002
   53MOL0     C 7214   8.304   4.240   1.117 -0.1091 -0.1100 -0.2268
   53MOL0     C 7215   8.380   4.341   1.042 -0.1333 -0.2602  0.1678
   53MOL0     C 7216   8.431   4.308   0.905 -0.8555  0.0805  0.4683
   53MOL0     C 7217   8.527   4.420   0.852  0.2638 -0.9235  0.3382
   53MOL0     C 7218   8.582   4.402   0.711  0.0666 -0.2481  0.1693
   53MOL0     C 7219   8.679   4.512   0.664  0.5140 -0.3555  0.3628
   53MOL0     C 7220   8.738   4.464   0.518  0.2907 -0.5332 -0.7153
   53MOL0    Cl 7221   8.911   4.544   0.505 -0.2660 -0.0497  0.1465
   53MOL0     C 7222   8.191   3.995   1.295  0.2241 -0.0444  0.2826
   53MOL0     C 7223   8.169   3.978   1.437  0.3425  0.7887  0.8411
   53MOL0     O 7224   8.046   4.264   1.682 -0.4805  0.2030 -0.3488
   53MOL0     C 7225   7.805   4.015   1.756 -0.3071  0.7334 -0.9587
   53MOL0     C 7226   7.667   3.999   1.780 -0.0674 -0.8692 -0.6986
   53MOL0     N 7227   7.049   3.729   1.438 -0.2727 -0.7616 -0.2068
   53MOL0     N 7228   7.100   3.648   1.357 -0.2813  0.7460  0.4979
   53MOL0     C 7229   6.963   3.154   0.482  0.3848  0.2166  0.2443
   53MOL0     C 7230   6.851   3.070   0.446  0.6406  0.3050  0.2819
   53MOL0     C 7231   6.434   2.913   0.314  0.1254 -0.6350  0.3731
   53MOL0     C 7232   6.383   2.856   0.436 -0.1711  0.0937  0.1321
   53MOL0     C 7233   6.291   2.747   0.431 -0.0781 -0.5934  0.3807
   53MOL0     C 7234   6.250   2.691   0.308  0.0106 -0.1474 -0.5249
   53MOL0     O 7235   6.151   2.589   0.319  0.0706  0.8254  0.4177
   53MOL0     C 7236   6.098   2.545   0.187 -0.4432 -0.4352 -0.3443
   53MOL0     C 7237   5.993   2.430   0.206  0.5772 -0.2693 -1.5552
   53MOL0     C 7238   6.046   2.328   0.298  0.1987  1.0342 -0.4143
   53MOL0     C 7239   5.966   2.194   0.293 -0.3769 -0.1122  0.2355
   53MOL0     C 7240   5.829   2.198   0.343 -0.5740  0.2354 -0.4407
   53MOL0     C 7241   5.728   2.208   0.401 -0.2547 -1.1729  0.5717
   53MOL0     C 7242   6.295   2.760   0.193 -1.3740 -0.2411  0.1900
   53MOL0     C 7243   6.398   2.854   0.190 -0.8723  0.5325  0.0445
   53MOL0     C 7244   6.439   2.907   0.053 -0.0186  0.1909  0.1268
   53MOL0     H 7245   6.586   3.285   0.465 -0.1945 -0.1414 -1.0670
   53MOL0     H 7246   6.793   3.455   0.481  1.1016  0.6908  1.7808
   53MOL0     H 7247   7.224   3.299   0.513  0.6084  0.5262  0.2030
   53MOL0     H 7248   7.132   3.291   0.666 -1.4247  1.8841  0.7751
   53MOL0     H 7249   7.255   3.544   0.549  1.1287  1.5240  1.7500
   53MOL0     H 7250   7.147   3.548   0.686 -0.2485 -1.5207  2.2343
   53MOL0     H 7251   7.304   3.407   0.818  0.8291  1.8666  1.3256
   53MOL0     H 7252   7.404   3.389   0.671 -2.2430 -0.5812 -2.1861
   53MOL0     H 7253   7.436   3.635   0.685 -2.4784  0.4461 -1.2087
   53MOL0     H 7254   7.307   3.653   0.805 -0.7949  0.5102 -1.3673
   53MOL0     H 7255   7.531   3.685   0.902 -1.4144  0.6411  1.4315
   53MOL0     H 7256   7.574   3.524   0.854 -1.2403 -0.4059 -1.0754
   53MOL0     H 7257   7.380   3.449   1.019 -0.4922 -0.2058  2.7608
   53MOL0     H 7258   7.526   3.523   1.090 -1.1245  0.8748  1.4131
   53MOL0     H 7259   7.256   3.673   1.072 -0.7810 -2.6079  0.6361
   53MOL0     H 7260   7.411   3.735   1.146 -0.3151 -1.5092  3.8920
   53MOL0     H 7261   7.282   3.499   1.241 -0.4195  0.3029  0.6073
   53MOL0     H 7262   7.423   3.591   1.312  0.5383 -0.7855  0.4827
   53MOL0     H 7263   7.361   3.855   1.391 -0.6820  1.9292 -0.1464
   53MOL0     H 7264   7.042   3.917   1.623 -0.6976 -2.8517 -1.6789
   53MOL0     H 7265   7.085   4.023   1.496  3.0589  0.3890 -2.8920
   53MOL0     H 7266   7.284   3.921   1.714  0.2245 -2.0455 -1.8318
   53MOL0     H 7267   7.333   4.012   1.564 -0.7850  5.7907  0.7141
   53MOL0     H 7268   7.158   4.181   1.663 -2.6587 -3.6017 -0.8192
   53MOL0     H 7269   7.175   4.089   1.806  1.1174 -1.1198 -0.2928
   53MOL0     H 7270   7.411   4.203   1.637 -0.6973  1.8593  0.3563
   53MOL0     H 7271   7.365   4.268   1.800 -0.9297  0.6103 -0.2102
   53MOL0     H 7272   7.581   4.315   1.848 -1.5112 -0.9268 -0.6516
   53MOL0     H 7273   7.820   4.445   1.679  0.6739 -0.9358  0.3572
   53MOL0     H 7274   7.914   4.430   1.824 -0.6599  2.6818 -0.6705
   53MOL0     H 7275   7.740   4.461   1.843 -3.1188 -0.0469 -2.3308
   53MOL0     H 7276   7.881   4.151   1.477  0.5462 -0.0527 -0.0824
   53MOL0     H 7277   7.923   4.195   1.231 -1.2017 -1.5600 -1.1337
   53MOL0     H 7278   8.169   4.186   0.948 -2.6376  2.8827 -0.3038
   53MOL0     H 7279   8.094   4.284   1.065 -3.1811 -2.6808 -2.1629
   53MOL0     H 7280   8.286   4.259   1.223  2.0112 -1.7441  0.4853
   53MOL0     H 7281   8.371   4.153   1.119  1.9199  1.3587 -1.0979
   53MOL0     H 7282   8.473   4.359   1.097  0.1080  2.8563 -1.1125
   53MOL0     H 7283   8.317   4.430   1.055  0.3441 -0.1185  1.8261
   53MOL0     H 7284   8.351   4.294   0.833 -1.1951 -0.4976  0.9430
   53MOL0     H 7285   8.483   4.213   0.920 -1.6771 -0.5293 -0.4116
   53MOL0     H 7286   8.484   4.521   0.855  0.1136 -1.0038  1.1609
   53MOL0     H 7287   8.619   4.424   0.911  0.6756 -4.0655  0.0560
   53MOL0     H 7288   8.499   4.396   0.640 -0.1906  1.4781  0.2957
   53MOL0     H 7289   8.644   4.312   0.706  0.0281 -0.2289 -0.8231
   53MOL0     H 7290   8.764   4.524   0.732  1.5703 -0.3129 -0.9246
   53MOL0     H 7291   8.628   4.609   0.656  0.2937 -0.5614 -1.0596
   53MOL0     H 7292   8.674   4.501   0.438  0.9608  2.6852  0.1227
   53MOL0     H 7293   8.769   4.359   0.505 -0.5769 -0.8933  0.0437
   53MOL0     H 7294   8.281   3.945   1.259 -0.4537 -1.4063  0.4233
   53MOL0     H 7295   8.238   3.926   1.502 -0.9384 -0.0988  1.5217
   53MOL0     H 7296   7.862   3.926   1.730 -1.8267 -0.2286 -1.1849
   53MOL0     H 7297   7.632   3.897   1.791 -2.0131 -0.1363  0.4870
   53MOL0     H 7298   7.064   3.113   0.479  0.4935  0.5494 -1.1253
   53MOL0     H 7299   6.858   2.965   0.422  2.2715 -0.0926  2.1774
   53MOL0     H 7300   6.408   2.893   0.535 -0.8156 -1.3657  0.8813
   53MOL0     H 7301   6.246   2.701   0.518  0.4884 -1.7092  0.1076
   53MOL0     H 7302   6.053   2.628   0.132  0.0290  0.4838  0.6276
   53MOL0     H 7303   6.183   2.506   0.130  1.6134 -2.5393  3.7450
   53MOL0     H 7304   5.970   2.379   0.112  1.2228 -1.5835 -1.0247
   53MOL0     H 7305   5.897   2.470   0.240  1.2002 -1.5922  2.2287
   53MOL0     H 7306   6.152   2.311   0.279 -0.0285  1.0941 -1.8608
   53MOL0     H 7307   6.052   2.367   0.400  0.6306  0.8213 -0.3539
   53MOL0     H 7308   6.026   2.125   0.353  0.1373  0.4411  0.3762
   53MOL0     H 7309   5.967   2.155   0.191 -1.9378  2.9808 -1.0838
   53MOL0     H 7310   5.630   2.213   0.445  0.7053  1.5009  2.7209
   53MOL0     H 7311   6.264   2.723   0.095  2.1079 -1.8002 -0.5071
   53MOL0     H 7312   6.394   3.006   0.051 -3.9253 -1.3813  1.7418
   53MOL0     H 7313   6.547   2.925   0.040  0.3897 -1.5461  0.7826
   53MOL0     H 7314   6.401   2.836  -0.021  1.7962 -0.7070 -0.0229
   54MOL0     O 7315   1.160   1.943   2.864  0.2850  0.2632  0.5650
   54MOL0     C 7316   1.172   1.945   2.985 -0.0057 -0.9120 -0.8879
   54MOL0     O 7317   1.092   2.009   3.075 -0.4458 -0.0549 -0.1865
   54MOL0     C 7318   0.998   2.103   3.028 -0.1116  0.3049  0.6701
   54MOL0     C 7319   0.870   2.099   3.082 -0.5175 -0.6822 -0.0903
   54MOL0     C 7320   0.765   2.193   3.040 -0.1361  0.1561 -0.2951
   54MOL0     C 7321   0.795   2.298   2.947 -1.1312  0.6055 -0.0781
   54MOL0     O 7322   0.716   2.397   2.909  0.8592 -0.0274  0.4005
   54MOL0     C 7323   0.598   2.425   2.981 -0.2294  0.0826 -0.1908
   54MOL0     C 7324   0.519   2.522   2.895 -0.3092 -0.1173  1.1485
   54MOL0     C 7325   0.580   2.663   2.899  0.7763  0.5732  0.4280
   54MOL0     C 7326   0.490   2.757   2.824  0.3207  0.4264 -0.2678
   54MOL0     C 7327   0.360   2.788   2.900 -0.2456  0.3343 -0.3304
   54MOL0     C 7328   0.303   2.922   2.841 -0.2179  0.2030 -0.5620
   54MOL0     C 7329   0.227   2.909   2.705 -0.0656 -0.2114 -0.2123
   54MOL0     C 7330   0.212   3.047   2.632 -0.7336 -0.4067  0.8751
   54MOL0     N 7331   0.327   3.081   2.546 -0.0002 -0.0929 -0.0918
   54MOL0     C 7332   0.433   3.160   2.579 -0.5006 -0.0662 -0.4825
   54MOL0     C 7333   0.500   3.186   2.463 -0.8543 -0.3223  0.9255
   54MOL0     C 7334   0.629   3.262   2.460 -0.4759  0.3505 -0.8235
   54MOL0     C 7335   0.621   3.394   2.385 -0.2822 -0.3540  0.5673
   54MOL0     C 7336   0.740   3.494   2.367 -0.6616  0.3600  0.3822
   54MOL0     C 7337   0.760   3.597   2.479  0.4003  1.0669  0.5190
   54MOL0     O 7338   0.904   3.641   2.473  0.9594  0.4183 -0.3915
   54MOL0     C 7339   0.943   3.758   2.542  0.3173  0.3234  0.6498
   54MOL0     C 7340   1.082   3.776   2.556 -0.4074 -0.0176 -0.3806
   54MOL0     C 7341   1.136   3.878   2.624  0.7003  0.0976  0.0364
   54MOL0     C 7342   1.285   3.903   2.607 -0.9406  0.1118 -0.1207
   54MOL0     C 7343   1.049   3.972   2.683  0.6642 -1.1098 -0.4124
   54MOL0     C 7344   1.094   4.094   2.749  0.5098 -0.6460  0.2071
   54MOL0     O 7345   1.004   4.191   2.779 -0.8491  0.0819 -0.5740
   54MOL0     C 7346   1.024   4.295   2.873  0.8292 -0.1961  0.9867
   54MOL0     C 7347   1.145   4.366   2.879 -0.0617  0.8175  0.2310
   54MOL0     C 7348   1.152   4.464   2.982 -0.1002  0.7607 -0.2902
   54MOL0     C 7349   1.042   4.498   3.065  0.9202 -0.0349 -0.0589
   54MOL0     O 7350   1.062   4.603   3.144  0.6859  0.1470 -0.2721
   54MOL0     C 7351   0.956   4.678   3.202 -0.5853 -0.0903 -0.4622
   54MOL0     C 7352   1.010   4.787   3.286  0.1016  0.0221 -0.3961
   54MOL0     C 7353   0.950   4.804   3.427  0.6046  0.4172 -0.1191
   54MOL0     C 7354   0.988   4.937   3.500 -0.6032  0.0908  0.6000
   54MOL0     C 7355   0.959   4.913   3.651 -0.1134  0.1693 -0.2903
   54MOL0     C 7356   0.811   4.927   3.686 -0.6088  0.1826  0.8811
   54MOL0     C 7357   0.790   4.881   3.831  0.0217 -0.0288  0.3367
   54MOL0     C 7358   0.648   4.896   3.880 -0.0724 -0.4921 -0.4638
   54MOL0    Cl 7359   0.552   4.752   3.827 -0.2560 -0.4709  0.5201
   54MOL0     C 7360   0.919   4.436   3.047 -0.0415  0.0649 -0.5134
   54MOL0     C 7361   0.912   4.332   2.956 -0.3502 -0.5741 -0.8399
   54MOL0     O 7362   1.215   4.113   2.756  0.1902 -0.1640  0.5965
   54MOL0     C 7363   0.908   3.945   2.685  0.2815  0.1178 -0.5160
   54MOL0     C 7364   0.853   3.834   2.623  0.2746 -0.5838  0.0862
   54MOL0     N 7365   0.432   3.124   2.358 -1.2582  0.2297 -0.4111
   54MOL0     N 7366   0.328   3.068   2.409  0.6806 -0.1649  0.9151
   54MOL0     C 7367   0.922   2.290   2.889 -0.1543 -0.1804  0.3712
   54MOL0     C 7368   1.021   2.198   2.919 -0.2049 -0.1614 -0.1389
   54MOL0     C 7369   1.296   1.883   3.046  0.0731  0.6468 -0.4493
   54MOL0     C 7370   1.292   1.853   3.185  0.3412 -0.7453  0.4537
   54MOL0     C 7371   1.398   1.801   3.244  0.1045  1.4352 -0.4171
   54MOL0     C 7372   1.514   1.758   3.178 -0.6146  0.2480  0.3699
   54MOL0     O 7373   1.613   1.671   3.232  0.5245  0.0446 -0.8224
   54MOL0     C 7374   1.719   1.730   3.302  0.8415 -0.4671  0.0218
   54MOL0     C 7375   1.848   1.662   3.292 -0.9003 -0.0291 -1.1101
   54MOL0     C 7376   1.842   1.516   3.347 -0.2550 -0.1080  0.1320
   54MOL0     C 7377   1.983   1.478   3.385  0.0408  0.4149 -0.6832
   54MOL0     C 7378   2.057   1.466   3.261 -1.1416 -0.5613 -0.9565
   54MOL0     C 7379   2.120   1.473   3.158 -0.0187 -0.7662 -0.4606
   54MOL0     C 7380   1.523   1.796   3.044  0.2845  0.3063 -0.1978
   54MOL0     C 7381   1.418   1.855   2.972  0.4208 -1.0931  0.1156
   54MOL0     C 7382   1.449   1.901   2.833 -0.1640 -0.5864  0.0441
   54MOL0     H 7383   0.855   2.019   3.154  1.2120 -0.7811  0.2017
   54MOL0     H 7384   0.667   2.189   3.087  0.1381  0.8549  0.3399
   54MOL0     H 7385   0.624   2.455   3.083  0.5109 -0.6629 -0.1504
   54MOL0     H 7386   0.538   2.334   2.995 -0.4927  0.5785  2.5188
   54MOL0     H 7387   0.519   2.490   2.790  1.3592 -3.1470  1.9588
   54MOL0     H 7388   0.413   2.521   2.924 -0.9859 -2.7181 -1.0643
   54MOL0     H 7389   0.586   2.694   3.004  1.1110 -1.0393  0.9002
   54MOL0     H 7390   0.675   2.663   2.845  0.3098  0.1561 -0.4047
   54MOL0     H 7391   0.543   2.851   2.806  0.3163 -0.1469 -4.0682
   54MOL0     H 7392   0.462   2.705   2.732  0.8936 -2.0620  0.8707
   54MOL0     H 7393   0.388   2.800   3.005 -1.0595 -0.1147 -0.0495
   54MOL0     H 7394   0.287   2.707   2.890  0.2470 -0.2206  0.4472
   54MOL0     H 7395   0.241   2.967   2.919 -0.5824  0.6974 -1.1264
   54MOL0     H 7396   0.384   2.993   2.820  0.1043  1.6201  4.1771
   54MOL0     H 7397   0.129   2.866   2.726  0.9340 -1.8727  1.3643
   54MOL0     H 7398   0.293   2.843   2.647 -1.9412 -1.1210 -1.4200
   54MOL0     H 7399   0.119   3.056   2.574 -0.6766 -0.6484  0.7429
   54MOL0     H 7400   0.197   3.118   2.714  2.0328 -2.1046  3.0439
   54MOL0     H 7401   0.451   3.187   2.682 -1.9763 -1.9835  0.3313
   54MOL0     H 7402   0.704   3.194   2.417  1.8473  2.0868  0.2843
   54MOL0     H 7403   0.660   3.290   2.561  0.6424 -1.6674 -0.5430
   54MOL0     H 7404   0.588   3.367   2.285  1.5206  3.5601 -1.2972
   54MOL0     H 7405   0.538   3.461   2.411  1.0449  2.5202 -1.9026
   54MOL0     H 7406   0.831   3.437   2.346 -0.3556  1.0094 -0.0829
   54MOL0     H 7407   0.731   3.556   2.277 -0.3228  3.8866  2.5980
   54MOL0     H 7408   0.693   3.681   2.458 -0.4583 -0.1181 -1.8514
   54MOL0     H 7409   0.736   3.559   2.578  4.4172  1.8887  1.9825
   54MOL0     H 7410   1.143   3.700   2.510  1.6816  2.3712 -1.7996
   54MOL0     H 7411   1.337   3.927   2.700  0.0860 -0.6071 -0.4963
   54MOL0     H 7412   1.285   3.983   2.532  0.7585  1.0277  0.7956
   54MOL0     H 7413   1.349   3.826   2.563 -1.9004 -1.5726  1.3033
   54MOL0     H 7414   1.220   4.348   2.804 -0.9563 -3.2909  0.1144
   54MOL0     H 7415   1.239   4.529   2.986  1.1831 -0.9329  1.6205
   54MOL0     H 7416   0.892   4.731   3.132 -0.1680 -1.5615 -2.0089
   54MOL0     H 7417   0.896   4.619   3.272  1.0317 -0.2913  0.8311
   54MOL0     H 7418   1.116   4.769   3.304 -0.7544 -2.8190  2.8616
   54MOL0     H 7419   0.985   4.879   3.231  1.7754  0.0137 -1.2126
   54MOL0     H 7420   0.977   4.714   3.484 -0.6713 -0.0602 -0.2317
   54MOL0     H 7421   0.842   4.784   3.425  1.0402 -2.2971 -0.9288
   54MOL0     H 7422   0.938   5.026   3.463  0.1263 -1.2229 -4.1338
   54MOL0     H 7423   1.096   4.953   3.485 -0.6898  0.0503 -0.0785
   54MOL0     H 7424   0.998   4.815   3.681 -1.0888 -0.1127  0.1172
   54MOL0     H 7425   1.015   4.993   3.699 -4.4816  0.9355  4.4481
   54MOL0     H 7426   0.740   4.872   3.625  0.8001 -0.7843  0.0545
   54MOL0     H 7427   0.791   5.035   3.682  2.5010  0.9722 -5.0968
   54MOL0     H 7428   0.853   4.943   3.896 -0.7088 -1.5365  2.6321
   54MOL0     H 7429   0.816   4.775   3.843 -1.2904 -0.2404  1.5914
   54MOL0     H 7430   0.603   4.992   3.853  2.4121  0.4127 -1.7175
   54MOL0     H 7431   0.639   4.904   3.988  0.9445  3.1670 -0.5306
   54MOL0     H 7432   0.832   4.457   3.108 -1.6440 -3.4621 -1.3217
   54MOL0     H 7433   0.824   4.268   2.957 -0.9224  0.1855 -1.6252
   54MOL0     H 7434   0.843   4.007   2.745 -2.8341  1.3361 -4.6822
   54MOL0     H 7435   0.750   3.799   2.626  0.8904 -2.6094 -0.4600
   54MOL0     H 7436   0.944   2.355   2.804 -1.5447 -1.7153 -1.2603
   54MOL0     H 7437   1.118   2.199   2.870 -0.1090 -1.5637 -0.0149
   54MOL0     H 7438   1.203   1.873   3.244 -0.3745 -2.3431 -0.0578
   54MOL0     H 7439   1.381   1.773   3.347  1.8377 -1.1212 -0.7435
   54MOL0     H 7440   1.727   1.837   3.281 -1.4124 -0.4332 -0.9117
   54MOL0     H 7441   1.699   1.738   3.409  1.7048  0.1007  0.1566
   54MOL0     H 7442   1.919   1.730   3.340 -0.4321 -2.5652  2.1193
   54MOL0     H 7443   1.877   1.655   3.186  0.7785 -3.0402 -0.5615
   54MOL0     H 7444   1.776   1.513   3.434  0.3868 -1.9942  0.6046
   54MOL0     H 7445   1.806   1.445   3.271  1.6157 -0.0197 -0.8814
   54MOL0     H 7446   1.981   1.374   3.419  1.2711  0.7664  0.5287
   54MOL0     H 7447   2.026   1.536   3.467  1.2300  0.3148 -1.2174
   54MOL0     H 7448   2.157   1.470   3.058 -3.0849 -3.2357 -1.7049
   54MOL0     H 7449   1.604   1.759   2.982 -0.0000  0.5274 -0.7090
   54MOL0     H 7450   1.558   1.908   2.825  0.1663  2.8903  4.0779
   54MOL0     H 7451   1.416   1.830   2.757 -1.2222  1.7780 -1.8467
   54MOL0     H 7452   1.400   1.996   2.808 -1.1679 -1.4821 -1.6025
   55MOL0     O 7453   4.640   2.913   0.553  0.1557  0.0714 -0.5514
   55MOL0     C 7454   4.646   2.800   0.499  0.0684 -0.1399  0.3725
   55MOL0     O 7455   4.766   2.736   0.482 -0.1776 -0.0328  0.5175
   55MOL0     C 7456   4.892   2.796   0.492  0.3044 -0.5825  0.9968
   55MOL0     C 7457   4.989   2.701   0.533 -0.2987  0.8713 -0.0804
   55MOL0     C 7458   5.125   2.734   0.542  0.3448 -0.1005  0.2138
   55MOL0     C 7459   5.167   2.864   0.495 -0.2035 -0.0968  0.2402
   55MOL0     O 7460   5.296   2.905   0.513  0.1341 -0.0681 -0.3036
   55MOL0     C 7461   5.399   2.809   0.516 -1.0094 -0.2373 -0.4496
   55MOL0     C 7462   5.537   2.877   0.497 -0.3991 -0.1852  0.3757
   55MOL0     C 7463   5.648   2.781   0.523  0.1870 -0.3964  0.0199
   55MOL0     C 7464   5.773   2.843   0.457 -0.4014  0.2525 -0.4886
   55MOL0     C 7465   5.900   2.759   0.477 -0.6065  0.6044  0.5687
   55MOL0     C 7466   5.948   2.754   0.629 -0.3378  0.5559  0.3735
   55MOL0     C 7467   5.973   2.894   0.685  0.1629 -0.2210  0.1643
   55MOL0     C 7468   6.055   2.884   0.824 -0.3693 -0.7306 -0.1019
   55MOL0     N 7469   6.199   2.889   0.806  0.0323  0.3124  0.2805
   55MOL0     C 7470   6.289   2.992   0.806 -0.5726 -0.9616  0.2329
   55MOL0     C 7471   6.409   2.939   0.805 -0.1559  0.0362 -0.4954
   55MOL0     C 7472   6.552   2.999   0.833 -0.0193 -0.0101 -0.0177
   55MOL0     C 7473   6.573   2.996   0.992  0.2269 -0.2714 -0.4797
   55MOL0     C 7474   6.626   2.856   1.035 -0.3627  1.0331  0.5962
   55MOL0     C 7475   6.602   2.845   1.178 -1.0977  0.2014  0.5561
   55MOL0     O 7476   6.661   2.716   1.237  0.4131 -0.1708  1.4056
   55MOL0     C 7477   6.747   2.749   1.335 -0.6231 -0.2038  0.2097
   55MOL0     C 7478   6.691   2.804   1.453 -1.0044  0.0979  0.1274
   55MOL0     C 7479   6.774   2.854   1.557  0.0519 -0.0364  0.1580
   55MOL0     C 7480   6.697   2.918   1.670  0.0518 -0.0118  0.0179
   55MOL0     C 7481   6.915   2.841   1.550  0.0328  0.0092  0.3093
   55MOL0     C 7482   7.001   2.881   1.662  0.0526  0.3226 -0.3795
   55MOL0     O 7483   6.987   3.014   1.708  0.1363  0.6823  0.5679
   55MOL0     C 7484   7.091   3.067   1.776 -0.4193 -0.2463 -0.9126
   55MOL0     C 7485   7.076   3.071   1.918 -0.4382  1.4802 -0.3703
   55MOL0     C 7486   7.180   3.126   1.991 -0.2841  0.2311 -0.4132
   55MOL0     C 7487   7.289   3.189   1.938 -0.4829 -1.3588  0.1440
   55MOL0     O 7488   7.386   3.240   2.026 -0.0785  0.1850 -0.3439
   55MOL0     C 7489   7.497   3.314   1.976 -0.5845 -0.4608  0.1092
   55MOL0     C 7490   7.604   3.354   2.075 -0.6600 -0.3865 -0.7493
   55MOL0     C 7491   7.676   3.230   2.126 -0.2929 -0.3465 -0.7696
   55MOL0     C 7492   7.676   3.220   2.275  0.3173 -0.5945  0.1699
   55MOL0     C 7493   7.770   3.110   2.321  0.2512  0.8549 -0.3593
   55MOL0     C 7494   7.754   3.089   2.475 -0.0684 -0.5776 -0.0970
   55MOL0     C 7495   7.841   2.965   2.510  0.9651  0.2228 -0.0283
   55MOL0     C 7496   7.819   2.919   2.654 -0.4216  0.9320 -0.0701
   55MOL0    Cl 7497   7.902   2.766   2.675  0.0612  0.7438 -0.2526
   55MOL0     C 7498   7.303   3.186   1.799 -0.4170 -0.4369 -0.3206
   55MOL0     C 7499   7.205   3.121   1.724  0.5276 -0.3519 -0.1267
   55MOL0     O 7500   7.082   2.796   1.711 -0.4410 -0.1943  0.1481
   55MOL0     C 7501   6.968   2.785   1.434 -0.1518 -0.1464 -0.1811
   55MOL0     C 7502   6.883   2.724   1.328  0.4617  0.2684  0.6236
   55MOL0     N 7503   6.389   2.802   0.789  0.0111 -0.0997 -0.4988
   55MOL0     N 7504   6.261   2.769   0.783 -0.1751 -0.1886  0.1157
   55MOL0     C 7505   5.073   2.963   0.460 -0.6786  0.2360 -0.0281
   55MOL0     C 7506   4.933   2.929   0.460  0.3250 -0.1383  0.0313
   55MOL0     C 7507   4.511   2.749   0.466  0.6288  0.6058  0.1082
   55MOL0     C 7508   4.410   2.844   0.441  0.0297 -0.0342 -0.3197
   55MOL0     C 7509   4.276   2.803   0.404  0.1910  0.5621  0.1868
   55MOL0     C 7510   4.244   2.665   0.393  0.8749 -0.4843  0.1082
   55MOL0     O 7511   4.121   2.614   0.351 -0.3725 -0.2388  0.8277
   55MOL0     C 7512   4.008   2.694   0.389  0.7765  0.9720 -0.0915
   55MOL0     C 7513   3.885   2.600   0.409  0.0351 -0.3464  0.7946
   55MOL0     C 7514   3.749   2.677   0.420 -0.6708  0.2444  0.1444
   55MOL0     C 7515   3.624   2.577   0.411  0.4874  0.6742 -0.3623
   55MOL0     C 7516   3.607   2.527   0.278 -0.1931  0.8199  0.2643
   55MOL0     C 7517   3.585   2.487   0.166 -0.0464 -0.0361  1.3045
   55MOL0     C 7518   4.347   2.577   0.398  0.3680 -0.3438  0.6141
   55MOL0     C 7519   4.480   2.612   0.439  0.3745 -0.3396  0.6220
   55MOL0     C 7520   4.587   2.503   0.445 -0.9702 -0.3077  0.0807
   55MOL0     H 7521   4.959   2.601   0.563  2.2282  0.3561  1.0211
   55MOL0     H 7522   5.187   2.657   0.588  0.2061 -0.3117  0.0491
   55MOL0     H 7523   5.383   2.740   0.433 -0.3375  3.6478 -4.1700
   55MOL0     H 7524   5.398   2.770   0.618  0.3097  0.5594 -0.1002
   55MOL0     H 7525   5.540   2.902   0.391  1.4644 -0.9674  0.2047
   55MOL0     H 7526   5.551   2.971   0.551  1.0555 -0.1322 -0.0395
   55MOL0     H 7527   5.665   2.774   0.631 -0.8510 -1.1243  0.1596
   55MOL0     H 7528   5.631   2.686   0.470  2.9005 -0.4417 -0.8894
   55MOL0     H 7529   5.748   2.858   0.352 -0.4545  0.3883 -0.4576
   55MOL0     H 7530   5.792   2.948   0.482 -1.1554 -0.0222  1.4279
   55MOL0     H 7531   5.985   2.802   0.424 -0.7265  3.2735  2.3545
   55MOL0     H 7532   5.895   2.657   0.438  2.5398  0.9087 -0.9353
   55MOL0     H 7533   5.879   2.697   0.692 -0.8769 -1.9829 -2.3200
   55MOL0     H 7534   6.038   2.693   0.639 -0.3569  0.3984 -0.3696
   55MOL0     H 7535   5.876   2.939   0.708  1.6173  3.1915  0.2394
   55MOL0     H 7536   6.022   2.968   0.622 -0.8694  3.7039  3.5073
   55MOL0     H 7537   6.031   2.969   0.889 -1.0109  0.3568 -1.6975
   55MOL0     H 7538   6.042   2.800   0.893 -2.2421  0.9570  1.7480
   55MOL0     H 7539   6.273   3.098   0.821  1.1238 -0.7083  0.4569
   55MOL0     H 7540   6.554   3.106   0.813  0.8879 -0.5269 -3.1746
   55MOL0     H 7541   6.629   2.948   0.775  0.0613  3.1599 -2.9491
   55MOL0     H 7542   6.654   3.068   1.010 -0.0036  0.1774 -1.2052
   55MOL0     H 7543   6.479   3.023   1.042 -1.0768 -0.2000 -2.8474
   55MOL0     H 7544   6.557   2.788   0.986  0.2831  1.1197 -0.4556
   55MOL0     H 7545   6.730   2.837   1.006 -2.0794 -3.7220 -4.0948
   55MOL0     H 7546   6.634   2.940   1.223 -1.3025 -0.2500  1.7069
   55MOL0     H 7547   6.495   2.832   1.198 -1.3463 -1.0203 -1.3718
   55MOL0     H 7548   6.584   2.818   1.456 -0.9963 -0.0500  1.3065
   55MOL0     H 7549   6.727   3.023   1.668  0.1736 -0.0533 -2.1135
   55MOL0     H 7550   6.712   2.860   1.762 -2.4542 -0.1469  0.4039
   55MOL0     H 7551   6.589   2.906   1.663  0.0867 -0.8926  0.7228
   55MOL0     H 7552   6.991   3.032   1.974 -1.1288  1.3768 -1.4449
   55MOL0     H 7553   7.170   3.122   2.099 -1.4606 -2.2428 -0.5532
   55MOL0     H 7554   7.550   3.260   1.897  3.2864  2.6036  0.2742
   55MOL0     H 7555   7.465   3.408   1.930 -1.5942 -1.1500 -0.6221
   55MOL0     H 7556   7.677   3.420   2.025  0.1218 -0.4973  0.2194
   55MOL0     H 7557   7.566   3.401   2.165 -0.2365 -1.6570  0.1169
   55MOL0     H 7558   7.780   3.238   2.093 -1.2062  2.4326 -3.4672
   55MOL0     H 7559   7.636   3.143   2.075 -2.0001  0.6227 -1.1479
   55MOL0     H 7560   7.579   3.209   2.322  0.4207  1.2159  0.8851
   55MOL0     H 7561   7.715   3.314   2.317 -1.6497  0.2109  0.2999
   55MOL0     H 7562   7.746   3.014   2.274 -0.6591  0.8616  0.0779
   55MOL0     H 7563   7.876   3.126   2.298  1.0703  0.2985  2.5293
   55MOL0     H 7564   7.650   3.073   2.504  0.1826 -1.4401  0.3697
   55MOL0     H 7565   7.787   3.184   2.517  0.6747  0.3618 -2.6389
   55MOL0     H 7566   7.943   3.004   2.497  1.5596 -1.1518  0.3181
   55MOL0     H 7567   7.814   2.884   2.441  0.0798 -1.5643  2.3042
   55MOL0     H 7568   7.715   2.892   2.672 -0.1590 -1.7934 -1.9650
   55MOL0     H 7569   7.851   2.993   2.727 -2.9939  2.3611 -0.2833
   55MOL0     H 7570   7.387   3.230   1.747 -0.4453 -1.1308 -0.9625
   55MOL0     H 7571   7.223   3.105   1.618 -0.0668  2.2574 -0.6944
   55MOL0     H 7572   7.073   2.772   1.409  1.7634  2.7825  4.9231
   55MOL0     H 7573   6.915   2.682   1.233  0.8043 -0.3005  0.9795
   55MOL0     H 7574   5.107   3.062   0.432  0.3536  0.0825  0.6519
   55MOL0     H 7575   4.853   2.988   0.418  0.9368 -1.5969 -3.5943
   55MOL0     H 7576   4.427   2.951   0.449 -0.6598  0.4309 -3.7903
   55MOL0     H 7577   4.206   2.885   0.395 -1.4681 -0.5550  2.1227
   55MOL0     H 7578   4.023   2.756   0.479 -0.6678  3.4511 -1.4341
   55MOL0     H 7579   3.991   2.760   0.303  2.2623  0.2827 -0.9533
   55MOL0     H 7580   3.889   2.535   0.497 -3.1325 -1.0476  0.5591
   55MOL0     H 7581   3.878   2.539   0.318 -0.9250  0.8638  0.0120
   55MOL0     H 7582   3.756   2.727   0.517  0.0685  1.7401 -0.6385
   55MOL0     H 7583   3.727   2.755   0.346  0.5389  1.7651  1.3218
   55MOL0     H 7584   3.536   2.636   0.439 -0.4256 -0.9461  0.3768
   55MOL0     H 7585   3.632   2.491   0.478 -0.4401 -1.0572 -2.3555
   55MOL0     H 7586   3.582   2.457   0.063  2.6861 -0.1394  1.1978
   55MOL0     H 7587   4.314   2.478   0.369  2.8316 -1.8695  2.5809
   55MOL0     H 7588   4.664   2.523   0.370  0.1141  1.1707  1.5020
   55MOL0     H 7589   4.636   2.509   0.543 -0.9978  3.3560  0.0029
   55MOL0     H 7590   4.538   2.407   0.425 -2.1160  0.3350 -0.3328
   56MOL0     O 7591   1.173   1.419   9.412 -0.2085  0.4329 -0.1018
   56MOL0     C 7592   1.205   1.490   9.500  0.1494  0.4484 -0.0179
   56MOL0     O 7593   1.138   1.495   9.624  0.3047  0.9109 -0.2240
   56MOL0     C 7594   1.022   1.420   9.648  0.7442  0.9212 -0.1047
   56MOL0     C 7595   1.012   1.279   9.614 -0.5162 -0.3436  0.4684
   56MOL0     C 7596   0.912   1.214   9.681  1.0381  0.1484 -0.3270
   56MOL0     C 7597   0.819   1.278   9.761  0.5349  0.0370  0.5720
   56MOL0     O 7598   0.707   1.219   9.822 -0.3740  0.1348 -0.1314
   56MOL0     C 7599   0.734   1.080   9.859 -0.8848 -0.3054 -0.3441
   56MOL0     C 7600   0.690   1.043  10.000 -0.4613  0.2538  0.3526
   56MOL0     C 7601   0.547   1.077  10.017 -1.4769 -0.0038  0.6768
   56MOL0     C 7602   0.500   1.032  10.159 -0.0988  0.2112  1.3093
   56MOL0     C 7603   0.364   1.094  10.187 -0.3109 -0.1254 -0.1031
   56MOL0     C 7604   0.299   1.031  10.307  0.2684  0.0729  0.5674
   56MOL0     C 7605   0.159   1.082  10.312 -0.9210  0.0238  0.1892
   56MOL0     C 7606   0.085   1.051  10.446 -0.0309 -0.0056 -0.5119
   56MOL0     N 7607   0.045   0.907  10.466 -0.2795  0.1681 -0.0149
   56MOL0     C 7608   0.005   0.803  10.381 -0.5671 -0.0746 -0.4524
   56MOL0     C 7609  -0.022   0.695  10.454  0.0252  0.4193 -0.5276
   56MOL0     C 7610  -0.089   0.566  10.412  0.1607  0.3454 -0.5247
   56MOL0     C 7611  -0.237   0.568  10.401  0.4947 -0.0117  1.0549
   56MOL0     C 7612  -0.285   0.432  10.366 -0.0765  0.3397 -0.0932
   56MOL0     C 7613  -0.430   0.436  10.304 -0.7203  0.2325 -0.2325
   56MOL0     O 7614  -0.520   0.495  10.389  0.0619 -0.4282  0.2520
   56MOL0     C 7615  -0.602   0.588  10.329 -0.1659  0.5318  0.6289
   56MOL0     C 7616  -0.604   0.723  10.351 -0.1536 -0.3000  0.3847
   56MOL0     C 7617  -0.709   0.802  10.302  0.7596 -0.4790 -0.0555
   56MOL0     C 7618  -0.702   0.954  10.332  0.1452  0.8600  0.4832
   56MOL0     C 7619  -0.797   0.744  10.205 -0.5393  1.1136  0.2986
   56MOL0     C 7620  -0.906   0.811  10.149  0.7491 -0.4402 -0.3046
   56MOL0     O 7621  -0.943   0.784  10.024  0.0852 -0.1321 -0.1286
   56MOL0     C 7622  -1.032   0.860   9.954 -0.8112  0.8054  0.5008
   56MOL0     C 7623  -1.008   0.984   9.896  0.1705  0.8839 -0.1514
   56MOL0     C 7624  -1.104   1.044   9.817  0.4461 -0.8795 -0.0066
   56MOL0     C 7625  -1.233   0.980   9.802 -0.2089  0.7352  0.1677
   56MOL0     O 7626  -1.320   1.054   9.723 -0.2632 -0.2712 -0.6319
   56MOL0     C 7627  -1.407   0.976   9.649 -0.1202 -0.4658 -0.5726
   56MOL0     C 7628  -1.467   1.072   9.533  0.1604 -0.0061  0.1565
   56MOL0     C 7629  -1.535   1.201   9.583 -0.7951 -0.5669 -0.0749
   56MOL0     C 7630  -1.604   1.290   9.475 -0.1509 -0.1125 -1.1693
   56MOL0     C 7631  -1.602   1.436   9.515 -0.2493  0.0325  0.0919
   56MOL0     C 7632  -1.695   1.505   9.422  0.2295 -0.5919 -0.6164
   56MOL0     C 7633  -1.714   1.649   9.486 -0.0057  0.0540  1.2242
   56MOL0     C 7634  -1.842   1.651   9.572  0.6606  0.0391  0.1788
   56MOL0    Cl 7635  -1.893   1.822   9.608  0.1244 -0.3609  0.4604
   56MOL0     C 7636  -1.259   0.856   9.863  0.5952  0.4143 -0.7550
   56MOL0     C 7637  -1.152   0.793   9.935  0.4772 -1.3660 -0.2452
   56MOL0     O 7638  -0.972   0.888  10.217 -0.2397 -0.3945  0.2282
   56MOL0     C 7639  -0.797   0.604  10.182 -0.1773  0.2906  1.1633
   56MOL0     C 7640  -0.703   0.533  10.248  0.7052 -0.1572  0.0303
   56MOL0     N 7641   0.006   0.727  10.586  0.0360 -0.1818  0.4721
   56MOL0     N 7642   0.047   0.851  10.589 -0.3851  0.8864  0.1043
   56MOL0     C 7643   0.825   1.409   9.782 -0.1915  0.6467  0.2863
   56MOL0     C 7644   0.930   1.486   9.731 -0.0398 -1.5848  0.0582
   56MOL0     C 7645   1.335   1.569   9.484 -0.5326 -0.1127 -0.5571
   56MOL0     C 7646   1.392   1.615   9.614 -0.3118 -0.0155 -0.1931
   56MOL0     C 7647   1.513   1.675   9.620 -0.4134 -0.0789  0.7184
   56MOL0     C 7648   1.579   1.706   9.500 -0.0872  1.2497 -0.3426
   56MOL0     O 7649   1.702   1.759   9.509  0.1101 -0.3150 -0.8337
   56MOL0     C 7650   1.809   1.672   9.499 -0.6703  0.5462  0.0195
   56MOL0     C 7651   1.938   1.751   9.504 -0.8477 -0.0061  0.7326
   56MOL0     C 7652   1.925   1.844   9.629 -0.1710  0.5140 -0.5506
   56MOL0     C 7653   2.060   1.867   9.695 -0.2884  0.1061  0.4351
   56MOL0     C 7654   2.025   1.986   9.787 -0.5087  0.4768  0.2539
   56MOL0     C 7655   1.996   2.082   9.855 -0.2529 -0.1302  0.3583
   56MOL0     C 7656   1.529   1.688   9.377  0.2211 -0.3230  0.5347
   56MOL0     C 7657   1.409   1.607   9.370  0.4521  1.2476  1.0852
   56MOL0     C 7658   1.357   1.557   9.233 -1.0131 -0.1119 -0.7855
   56MOL0     H 7659   1.083   1.226   9.553 -1.1442 -0.0275 -0.5667
   56MOL0     H 7660   0.902   1.108   9.659 -0.2347 -0.1011  1.2897
   56MOL0     H 7661   0.840   1.052   9.856 -0.4821  0.7635  2.0247
   56MOL0     H 7662   0.684   1.014   9.787  0.3380  0.6581 -2.1860
   56MOL0     H 7663   0.706   0.936  10.017 -2.4997  0.3949  4.2906
   56MOL0     H 7664   0.752   1.101  10.069 -1.5427 -1.7271  3.1605
   56MOL0     H 7665   0.548   1.184   9.997  1.8204 -0.2339 -1.1979
   56MOL0     H 7666   0.501   1.026   9.932  0.9105  0.3509 -0.9103
   56MOL0     H 7667   0.504   0.922  10.158  1.5523  0.1121 -2.9899
   56MOL0     H 7668   0.574   1.061  10.235  0.0481 -0.1643  1.3119
   56MOL0     H 7669   0.297   1.073  10.103 -0.6571  1.8672 -0.3624
   56MOL0     H 7670   0.378   1.202  10.197 -1.7609  0.3273 -2.1660
   56MOL0     H 7671   0.302   0.921  10.309  1.4451  0.0924  1.7039
   56MOL0     H 7672   0.361   1.065  10.390  1.0571 -0.6530  0.2960
   56MOL0     H 7673   0.097   1.050  10.228 -1.4419  0.2924  0.4674
   56MOL0     H 7674   0.169   1.191  10.302 -1.8270  0.2805  1.7185
   56MOL0     H 7675   0.153   1.080  10.526  0.9434 -0.6555 -1.0778
   56MOL0     H 7676  -0.008   1.108  10.454  0.2847  0.7588 -1.8346
   56MOL0     H 7677  -0.007   0.816  10.274  0.3585  5.9302 -0.1336
   56MOL0     H 7678  -0.055   0.495  10.488 -3.0430  0.2954  0.9990
   56MOL0     H 7679  -0.031   0.539  10.323  3.3617 -1.2888  1.8497
   56MOL0     H 7680  -0.278   0.607  10.494 -2.5803  1.1334 -0.6564
   56MOL0     H 7681  -0.267   0.637  10.321 -1.4609 -1.0272  0.8521
   56MOL0     H 7682  -0.223   0.377  10.295  0.3815 -0.8518  1.2022
   56MOL0     H 7683  -0.286   0.381  10.462  1.8728  0.2126 -0.1147
   56MOL0     H 7684  -0.428   0.496  10.213  1.3783 -0.4522 -0.6907
   56MOL0     H 7685  -0.466   0.336  10.275  0.0434  0.6468 -2.8461
   56MOL0     H 7686  -0.521   0.756  10.414  1.7214 -1.9103 -1.0964
   56MOL0     H 7687  -0.790   0.983  10.391  0.1078 -0.2352  0.9892
   56MOL0     H 7688  -0.698   0.998  10.232 -0.1916 -1.6815 -0.7069
   56MOL0     H 7689  -0.617   0.973  10.399  1.6258 -3.3807  0.0840
   56MOL0     H 7690  -0.904   1.014   9.903 -0.0626  1.3926  2.4960
   56MOL0     H 7691  -1.089   1.136   9.762  0.3900 -1.2801 -0.7126
   56MOL0     H 7692  -1.364   0.888   9.601 -0.9032 -0.5791 -1.0945
   56MOL0     H 7693  -1.493   0.941   9.708 -0.3969  0.8566 -0.1526
   56MOL0     H 7694  -1.396   1.098   9.454 -0.6751  0.3609 -0.4997
   56MOL0     H 7695  -1.550   1.027   9.478  1.2558 -2.2542  0.2522
   56MOL0     H 7696  -1.458   1.258   9.635  0.7386 -0.4213 -2.3887
   56MOL0     H 7697  -1.604   1.176   9.664 -1.0786  0.4994  0.0196
   56MOL0     H 7698  -1.706   1.251   9.469  0.4078 -1.9761  0.2561
   56MOL0     H 7699  -1.560   1.288   9.375  0.8951  3.3803 -0.9020
   56MOL0     H 7700  -1.625   1.451   9.620 -1.8326 -0.4899 -0.1573
   56MOL0     H 7701  -1.503   1.475   9.488 -0.7426 -1.8111 -6.1361
   56MOL0     H 7702  -1.797   1.467   9.411 -0.2610  0.8302 -1.1464
   56MOL0     H 7703  -1.640   1.531   9.331  1.0093  0.7927  0.2060
   56MOL0     H 7704  -1.703   1.725   9.408 -2.3437  0.7166  1.4421
   56MOL0     H 7705  -1.635   1.669   9.558  1.9384 -0.4125 -0.6966
   56MOL0     H 7706  -1.823   1.587   9.659 -2.9459 -1.4137  0.0387
   56MOL0     H 7707  -1.922   1.600   9.518  1.2756 -1.6589  0.7855
   56MOL0     H 7708  -1.340   0.786   9.846 -1.0058  2.4318 -1.7479
   56MOL0     H 7709  -1.157   0.691   9.972  1.2458 -1.6518 -0.9131
   56MOL0     H 7710  -0.873   0.552  10.125  0.0831 -0.9519  1.9194
   56MOL0     H 7711  -0.701   0.426  10.232  0.5109  0.1736 -2.6273
   56MOL0     H 7712   0.758   1.467   9.845 -2.3245 -0.4221 -0.8810
   56MOL0     H 7713   0.970   1.582   9.765  1.3537 -1.8564 -0.7319
   56MOL0     H 7714   1.332   1.609   9.704 -0.2592  0.5220 -0.1207
   56MOL0     H 7715   1.566   1.712   9.707  0.7376  1.9524 -0.7686
   56MOL0     H 7716   1.810   1.587   9.567  1.8580 -0.1366 -0.7484
   56MOL0     H 7717   1.812   1.631   9.397  1.3342  0.9390 -0.1137
   56MOL0     H 7718   1.951   1.805   9.410  0.1337 -1.2026  0.1498
   56MOL0     H 7719   2.027   1.688   9.514  1.1657  2.2430 -1.6645
   56MOL0     H 7720   1.904   1.946   9.598  1.9566  2.1316  2.8030
   56MOL0     H 7721   1.853   1.821   9.708  1.5489  1.2820  1.3093
   56MOL0     H 7722   2.144   1.904   9.635  0.3025 -2.8142 -0.7256
   56MOL0     H 7723   2.091   1.772   9.740 -3.9376 -1.5913 -0.2328
   56MOL0     H 7724   1.963   2.161   9.920  2.3227  0.0220  1.6163
   56MOL0     H 7725   1.582   1.705   9.284 -3.1929  1.0384 -1.3409
   56MOL0     H 7726   1.248   1.551   9.228 -1.0199  0.7764 -4.9570
   56MOL0     H 7727   1.394   1.627   9.158  0.6253 -0.0704  0.0048
   56MOL0     H 7728   1.403   1.458   9.221 -0.7080 -0.5961  3.1336
   57MOL0     O 7729   7.616   8.027   8.728  0.2086  0.0175  0.1313
   57MOL0     C 7730   7.603   8.040   8.844 -0.1166 -0.5249 -0.0425
   57MOL0     O 7731   7.696   8.014   8.943 -0.2191  0.4484  0.0791
   57MOL0     C 7732   7.796   7.927   8.915 -1.1173 -0.1943  0.7878
   57MOL0     C 7733   7.927   7.973   8.877 -0.7594  0.4294  0.3681
   57MOL0     C 7734   8.032   7.885   8.864 -0.9339  0.3244 -0.2396
   57MOL0     C 7735   8.020   7.749   8.888  0.0428 -0.0530 -0.0963
   57MOL0     O 7736   8.126   7.656   8.883  0.6482  0.5989  0.6065
   57MOL0     C 7737   8.249   7.705   8.840 -0.5806 -0.1353 -0.1999
   57MOL0     C 7738   8.353   7.592   8.828  0.5811 -0.2522 -0.1696
   57MOL0     C 7739   8.505   7.632   8.810 -0.0250 -0.9015  1.7613
   57MOL0     C 7740   8.613   7.524   8.779 -0.3102  0.7324  1.0933
   57MOL0     C 7741   8.663   7.455   8.897  0.2253  0.9478 -0.0545
   57MOL0     C 7742   8.762   7.344   8.862 -0.0068  0.5232 -0.4588
   57MOL0     C 7743   8.798   7.245   8.977 -0.2466  0.1787 -0.7860
   57MOL0     C 7744   8.894   7.140   8.923  0.3260 -0.6881  0.1774
   57MOL0     N 7745   9.029   7.194   8.908 -0.1279  0.0791 -0.4764
   57MOL0     C 7746   9.115   7.265   8.992 -0.3737 -0.0603  0.6448
   57MOL0     C 7747   9.225   7.299   8.926 -0.7876 -1.5496  0.4270
   57MOL0     C 7748   9.335   7.393   8.966 -0.6372  0.8141  0.5334
   57MOL0     C 7749   9.461   7.326   9.018 -0.2614 -0.1645  0.4836
   57MOL0     C 7750   9.535   7.263   8.891  0.2916  0.1322 -0.5804
   57MOL0     C 7751   9.653   7.168   8.939 -1.0048 -0.7092 -0.0451
   57MOL0     O 7752   9.740   7.264   9.002 -0.0465  0.7627 -0.3053
   57MOL0     C 7753   9.859   7.213   9.046 -0.0164 -0.5258 -0.6561
   57MOL0     C 7754   9.932   7.301   9.120 -0.6169 -0.2563  0.5429
   57MOL0     C 7755  10.053   7.268   9.176  0.5320  0.1063  0.2883
   57MOL0     C 7756  10.121   7.387   9.243 -0.5143 -0.0399 -0.7285
   57MOL0     C 7757  10.102   7.143   9.164  0.1874 -0.8172  1.2629
   57MOL0     C 7758  10.234   7.092   9.222 -0.5744 -0.4546  0.3689
   57MOL0     O 7759  10.272   6.964   9.192  0.2785  0.4917  0.2294
   57MOL0     C 7760  10.399   6.916   9.213  0.0009  0.6165 -0.4356
   57MOL0     C 7761  10.520   6.980   9.229  0.4168  0.7175 -0.5674
   57MOL0     C 7762  10.639   6.920   9.247  0.7565  0.7223 -0.0912
   57MOL0     C 7763  10.643   6.781   9.244  0.0663 -0.1353  0.4440
   57MOL0     O 7764  10.769   6.731   9.252  0.8529  0.7528 -0.3099
   57MOL0     C 7765  10.773   6.589   9.264  0.7853  0.7075  0.4596
   57MOL0     C 7766  10.911   6.538   9.287  0.4007  0.2264  0.0105
   57MOL0     C 7767  10.915   6.383   9.289 -0.0128 -0.6099  0.3079
   57MOL0     C 7768  11.014   6.327   9.398 -0.1083  0.5189 -0.0207
   57MOL0     C 7769  11.069   6.183   9.369  0.1088  0.6968  0.0841
   57MOL0     C 7770  10.951   6.088   9.403  0.1990  0.0228 -0.4357
   57MOL0     C 7771  10.980   5.948   9.365  0.0620  0.0287  0.6228
   57MOL0     C 7772  10.857   5.873   9.312  1.2584 -0.3950 -1.0983
   57MOL0    Cl 7773  10.841   5.931   9.143 -0.1438 -0.0664 -0.3068
   57MOL0     C 7774  10.526   6.703   9.210 -0.4537 -0.0497 -0.9013
   57MOL0     C 7775  10.408   6.778   9.200  0.0992 -0.0541  0.2202
   57MOL0     O 7776  10.295   7.164   9.302  0.7057 -0.5144  0.0746
   57MOL0     C 7777  10.020   7.052   9.090 -0.7200 -0.0685 -0.4527
   57MOL0     C 7778   9.907   7.088   9.020 -0.8845 -0.3652 -0.0729
   57MOL0     N 7779   9.218   7.230   8.807  0.7364 -0.6531 -0.1209
   57MOL0     N 7780   9.110   7.161   8.804  0.1092  0.9581  0.2680
   57MOL0     C 7781   7.891   7.705   8.934 -0.7735  0.0021 -0.1241
   57MOL0     C 7782   7.788   7.793   8.953  0.0103 -0.2564 -0.1984
   57MOL0     C 7783   7.475   8.104   8.885  0.2921 -0.0786  0.3322
   57MOL0     C 7784   7.361   8.052   8.820 -0.9407 -0.3696  0.2353
   57MOL0     C 7785   7.235   8.094   8.866 -0.4006 -0.0647  0.4090
   57MOL0     C 7786   7.223   8.207   8.946  0.0112 -0.3464 -0.1214
   57MOL0     O 7787   7.102   8.260   8.987 -0.1886  0.4565 -0.0549
   57MOL0     C 7788   6.981   8.195   8.948 -1.5096 -1.4577 -0.3150
   57MOL0     C 7789   6.871   8.265   9.020 -0.6504  0.4078 -0.1816
   57MOL0     C 7790   6.740   8.219   8.962 -0.1717 -0.1291  0.2883
   57MOL0     C 7791   6.610   8.279   9.010 -0.7324  0.6584  0.0266
   57MOL0     C 7792   6.580   8.265   9.155  0.2998  0.2572  0.0355
   57MOL0     C 7793   6.539   8.224   9.261  0.2193 -0.0595  0.2374
   57MOL0     C 7794   7.332   8.276   8.982  0.6018 -0.1518  0.2434
   57MOL0     C 7795   7.456   8.219   8.963 -0.2777 -0.5460 -0.7784
   57MOL0     C 7796   7.574   8.294   9.029 -0.0680  0.2177 -0.1930
   57MOL0     H 7797   7.936   8.077   8.846 -4.0456  1.1628  1.4205
   57MOL0     H 7798   8.130   7.917   8.830 -0.0582 -2.0404 -0.1322
   57MOL0     H 7799   8.290   7.782   8.905  1.6940 -1.8013  0.4511
   57MOL0     H 7800   8.246   7.761   8.746  0.0251  1.1159  0.5063
   57MOL0     H 7801   8.335   7.531   8.917 -0.6705  0.5392  0.1478
   57MOL0     H 7802   8.321   7.531   8.742  1.5982 -1.8599  0.5378
   57MOL0     H 7803   8.500   7.689   8.717  1.0466 -1.3307  1.4210
   57MOL0     H 7804   8.541   7.710   8.877  1.4320  1.1212 -1.1519
   57MOL0     H 7805   8.573   7.448   8.712  0.3842 -0.3482  1.8701
   57MOL0     H 7806   8.699   7.566   8.727  2.3337  0.2390  4.6421
   57MOL0     H 7807   8.579   7.415   8.954 -0.3396 -1.6916 -2.5501
   57MOL0     H 7808   8.713   7.532   8.958  0.0443 -0.2343  1.6781
   57MOL0     H 7809   8.723   7.279   8.783 -0.6209 -0.6706  0.7763
   57MOL0     H 7810   8.859   7.388   8.837  0.5726  0.0732  0.9285
   57MOL0     H 7811   8.714   7.200   9.032  0.5837  0.0809  0.4442
   57MOL0     H 7812   8.841   7.301   9.061 -4.4458  1.1795  0.9893
   57MOL0     H 7813   8.910   7.055   8.991 -1.8824 -1.5088 -0.2454
   57MOL0     H 7814   8.855   7.101   8.829 -0.0220  0.2913 -0.0924
   57MOL0     H 7815   9.098   7.296   9.095  0.7937  1.4781  0.4146
   57MOL0     H 7816   9.287   7.461   9.037 -2.1432  0.9243 -0.5439
   57MOL0     H 7817   9.357   7.461   8.884  0.1374  0.4221  0.4036
   57MOL0     H 7818   9.536   7.395   9.058  1.0734 -0.6012 -1.1745
   57MOL0     H 7819   9.459   7.241   9.087 -0.6161 -2.3642 -2.0828
   57MOL0     H 7820   9.461   7.205   8.836  0.5612  0.1767 -0.9925
   57MOL0     H 7821   9.579   7.344   8.832 -0.3278  1.1586  0.3084
   57MOL0     H 7822   9.637   7.097   9.021  1.0776 -0.7670  0.3657
   57MOL0     H 7823   9.700   7.124   8.851  3.6923 -0.6759  2.1412
   57MOL0     H 7824   9.896   7.403   9.133  0.3633  0.6948 -3.1078
   57MOL0     H 7825  10.228   7.389   9.221 -0.0553  1.2614  1.3440
   57MOL0     H 7826  10.100   7.381   9.350 -1.7018  1.6456 -0.8152
   57MOL0     H 7827  10.066   7.477   9.212  1.7838  0.9296 -2.2516
   57MOL0     H 7828  10.511   7.088   9.228 -0.1751  0.6801 -1.8197
   57MOL0     H 7829  10.732   6.975   9.256  0.1328  2.0576 -1.3424
   57MOL0     H 7830  10.705   6.558   9.344  3.3144 -3.8411  1.2400
   57MOL0     H 7831  10.732   6.539   9.175  0.7336  0.1119  0.8122
   57MOL0     H 7832  10.977   6.570   9.205  2.5625  2.1120  2.3089
   57MOL0     H 7833  10.957   6.576   9.378  0.3627  2.7458 -0.9284
   57MOL0     H 7834  10.948   6.338   9.196  1.3101 -1.2738  1.0758
   57MOL0     H 7835  10.817   6.341   9.315 -0.1750 -1.4651 -1.5514
   57MOL0     H 7836  10.964   6.335   9.495  0.0747  2.5917 -0.0445
   57MOL0     H 7837  11.101   6.392   9.413  1.7288 -1.6411 -0.7328
   57MOL0     H 7838  11.110   6.178   9.267 -0.1592 -1.2057  0.0226
   57MOL0     H 7839  11.152   6.160   9.436 -0.8601  0.0393  1.0896
   57MOL0     H 7840  10.862   6.118   9.346 -0.1332  0.6729  0.4058
   57MOL0     H 7841  10.920   6.097   9.507 -0.5958 -0.7018 -0.5949
   57MOL0     H 7842  11.021   5.882   9.442 -2.1937 -1.5453  0.5948
   57MOL0     H 7843  11.061   5.946   9.291 -0.0446  1.7439  0.4125
   57MOL0     H 7844  10.764   5.898   9.364  0.5954 -3.6625 -0.5244
   57MOL0     H 7845  10.865   5.765   9.322  1.9665 -0.2905 -0.4951
   57MOL0     H 7846  10.524   6.595   9.199  2.3111 -0.2033 -0.6179
   57MOL0     H 7847  10.310   6.737   9.177  0.1369  0.1253 -0.2806
   57MOL0     H 7848  10.066   6.955   9.075  0.6625  0.3603  0.7674
   57MOL0     H 7849   9.862   7.002   8.972  0.1825 -1.7152  1.2285
   57MOL0     H 7850   7.877   7.599   8.955 -0.2270 -0.2476 -0.9589
   57MOL0     H 7851   7.689   7.750   8.972 -0.4684 -0.4128 -2.7155
   57MOL0     H 7852   7.357   7.973   8.746 -2.8820  2.3591 -2.8109
   57MOL0     H 7853   7.153   8.039   8.821  0.6478 -1.0655 -0.3423
   57MOL0     H 7854   6.965   8.188   8.840 -2.0407  1.8301 -0.5390
   57MOL0     H 7855   6.989   8.095   8.994  2.9176 -0.6051  1.2253
   57MOL0     H 7856   6.887   8.372   9.009 -0.6044  0.4520  0.2843
   57MOL0     H 7857   6.864   8.238   9.126 -1.5472  1.9175  0.1676
   57MOL0     H 7858   6.737   8.233   8.853 -2.0218  1.2433  0.4650
   57MOL0     H 7859   6.740   8.115   8.994 -1.5520  0.6012  3.0082
   57MOL0     H 7860   6.529   8.239   8.949  1.2230  1.1635 -3.1457
   57MOL0     H 7861   6.599   8.386   8.987  0.2339  0.6503 -0.5591
   57MOL0     H 7862   6.477   8.178   9.334  0.0785 -2.0470 -1.0485
   57MOL0     H 7863   7.327   8.366   9.043  1.5041 -0.3705  0.6694
   57MOL0     H 7864   7.636   8.235   9.097 -0.7214 -1.8363 -1.2847
   57MOL0     H 7865   7.632   8.315   8.938  0.6554 -1.4038 -0.1277
   57MOL0     H 7866   7.542   8.385   9.080  1.5572  0.4754  0.4030
   58MOL0     O 7867   0.842   6.885   0.438 -0.3983 -0.5020 -0.3472
   58MOL0     C 7868   0.805   6.899   0.320 -0.6981  0.8445 -0.1082
   58MOL0     O 7869   0.881   6.900   0.205 -0.0376  0.0205  0.5452
   58MOL0     C 7870   1.018   6.873   0.227 -0.2136 -0.8127 -0.4825
   58MOL0     C 7871   1.084   6.782   0.138  0.4269  0.5038 -1.2909
   58MOL0     C 7872   1.220   6.767   0.138  0.2969  0.2962 -0.5783
   58MOL0     C 7873   1.298   6.829   0.244 -0.7801 -0.6122 -0.1141
   58MOL0     O 7874   1.428   6.810   0.263 -1.0673 -0.1923  0.8813
   58MOL0     C 7875   1.509   6.733   0.165  0.3874 -0.1641  0.1540
   58MOL0     C 7876   1.639   6.804   0.155  0.1341  0.8217 -0.0676
   58MOL0     C 7877   1.732   6.748   0.261  0.2208  0.1858 -0.0336
   58MOL0     C 7878   1.882   6.793   0.250  0.4054  1.4230  0.1048
   58MOL0     C 7879   1.966   6.705   0.346  0.0833 -1.1972 -0.0996
   58MOL0     C 7880   2.108   6.762   0.353 -0.1409  0.1698 -0.3748
   58MOL0     C 7881   2.171   6.764   0.217  1.0193  0.0417 -0.4188
   58MOL0     C 7882   2.207   6.632   0.149 -0.2272  0.6926 -0.2288
   58MOL0     N 7883   2.168   6.640   0.009 -0.3173 -0.1747  0.8613
   58MOL0     C 7884   2.251   6.675  -0.095  0.0693  0.3929 -0.3679
   58MOL0     C 7885   2.178   6.649  -0.208  0.4222  0.3807 -1.2146
   58MOL0     C 7886   2.215   6.700  -0.346  0.5204  0.3994 -0.6019
   58MOL0     C 7887   2.304   6.582  -0.407 -0.6172 -0.3435 -0.7880
   58MOL0     C 7888   2.252   6.548  -0.543  1.0520 -0.1607  0.0237
   58MOL0     C 7889   2.113   6.480  -0.526  0.6181  0.4547  0.0721
   58MOL0     O 7890   2.142   6.343  -0.471  0.0370  0.2877 -0.6128
   58MOL0     C 7891   2.039   6.270  -0.425  0.1575  0.2651  0.4068
   58MOL0     C 7892   2.070   6.146  -0.370 -0.0682  0.0178 -0.4917
   58MOL0     C 7893   1.981   6.070  -0.310 -0.0255  0.2009  0.4831
   58MOL0     C 7894   2.039   5.961  -0.221  0.2600  0.1773 -0.0245
   58MOL0     C 7895   1.842   6.094  -0.339  0.6124 -0.3497  0.1857
   58MOL0     C 7896   1.730   6.007  -0.292 -0.1306  0.8877  0.1940
   58MOL0     O 7897   1.599   6.046  -0.311 -0.7854 -0.1942  0.7233
   58MOL0     C 7898   1.483   5.988  -0.285 -0.8680 -0.3903 -0.1837
   58MOL0     C 7899   1.453   5.869  -0.220 -0.6835 -0.1576 -1.0979
   58MOL0     C 7900   1.323   5.827  -0.206 -0.1969  1.0621  0.2070
   58MOL0     C 7901   1.215   5.901  -0.266  1.0318  0.9753  0.0288
   58MOL0     O 7902   1.082   5.849  -0.266 -0.8551 -0.3766  0.3313
   58MOL0     C 7903   1.051   5.727  -0.202  0.2607  0.2595 -0.6173
   58MOL0     C 7904   0.899   5.725  -0.189 -0.3493  0.1467  0.3656
   58MOL0     C 7905   0.823   5.747  -0.320  0.2667  0.2102 -0.3228
   58MOL0     C 7906   0.686   5.716  -0.300  0.0704 -0.0158  0.3801
   58MOL0     C 7907   0.600   5.779  -0.404 -0.1224  0.0221  0.6270
   58MOL0     C 7908   0.592   5.700  -0.545  0.3798 -0.4310 -0.1476
   58MOL0     C 7909   0.462   5.743  -0.619 -0.8430  0.4106  0.4687
   58MOL0     C 7910   0.411   5.619  -0.690  0.4810 -0.8375  0.3030
   58MOL0    Cl 7911   0.476   5.602  -0.857 -0.2372 -0.2926 -0.3811
   58MOL0     C 7912   1.244   6.013  -0.335  0.1165 -0.3824  0.3733
   58MOL0     C 7913   1.381   6.052  -0.349  0.8672 -0.0251  1.0012
   58MOL0     O 7914   1.761   5.906  -0.226  0.2569 -0.0913  0.0795
   58MOL0     C 7915   1.806   6.210  -0.415 -0.2157  0.0052 -0.2831
   58MOL0     C 7916   1.907   6.298  -0.452  0.6743 -1.2367  0.0060
   58MOL0     N 7917   2.056   6.593  -0.181  0.3552  0.4822 -0.9318
   58MOL0     N 7918   2.049   6.600  -0.051 -0.1209 -0.6794 -0.6991
   58MOL0     C 7919   1.232   6.915   0.336 -0.1930  0.5119 -0.8016
   58MOL0     C 7920   1.093   6.944   0.323  0.2270 -0.0074 -0.0921
   58MOL0     C 7921   0.659   6.886   0.309  0.4336 -0.0637 -0.6376
   58MOL0     C 7922   0.611   6.832   0.191  0.3099  0.0178  0.2142
   58MOL0     C 7923   0.474   6.818   0.169 -0.2664  0.0022 -0.0655
   58MOL0     C 7924   0.383   6.871   0.269  0.3521  0.6394  0.1258
   58MOL0     O 7925   0.251   6.853   0.257 -0.1133 -0.3028 -0.3494
   58MOL0     C 7926   0.200   6.757   0.167  0.9459 -0.4309  0.3162
   58MOL0     C 7927   0.065   6.703   0.201  1.2077  0.1348  0.0255
   58MOL0     C 7928  -0.065   6.791   0.169 -0.2683 -0.5259 -0.4289
   58MOL0     C 7929  -0.073   6.803   0.023 -0.5143  0.2078 -0.2577
   58MOL0     C 7930  -0.214   6.821  -0.025 -0.0756 -0.1381 -0.5688
   58MOL0     C 7931  -0.324   6.822  -0.062  0.4129  0.4596 -0.0404
   58MOL0     C 7932   0.431   6.926   0.385 -0.0364  0.4395 -1.1961
   58MOL0     C 7933   0.565   6.941   0.407  0.2209 -0.7105 -0.1306
   58MOL0     C 7934   0.615   7.012   0.539  0.5925 -0.6145  0.2552
   58MOL0     H 7935   1.018   6.733   0.067  1.0816  2.4891 -3.3867
   58MOL0     H 7936   1.253   6.701   0.058 -1.6050  0.5833 -1.6503
   58MOL0     H 7937   1.460   6.723   0.068  1.8312 -2.0080 -0.4472
   58MOL0     H 7938   1.525   6.630   0.199 -1.8225 -1.5888 -2.6661
   58MOL0     H 7939   1.697   6.791   0.063  0.1343  1.0637 -0.1009
   58MOL0     H 7940   1.622   6.912   0.156  0.1806  1.0046 -4.1304
   58MOL0     H 7941   1.709   6.782   0.363 -0.5157  1.0071 -0.4646
   58MOL0     H 7942   1.742   6.639   0.265  1.0415  0.2005 -1.2049
   58MOL0     H 7943   1.922   6.770   0.151  1.2233 -2.6543  1.1851
   58MOL0     H 7944   1.891   6.900   0.272 -0.2688  1.3354  0.8476
   58MOL0     H 7945   1.980   6.600   0.321  3.5731 -0.4502 -1.8034
   58MOL0     H 7946   1.922   6.713   0.446  0.8230  0.4029  0.1327
   58MOL0     H 7947   2.123   6.864   0.389  5.1086 -0.2551 -0.6081
   58MOL0     H 7948   2.175   6.705   0.419 -0.6120 -2.4196 -1.9684
   58MOL0     H 7949   2.262   6.826   0.223  1.0693  0.3966 -3.3326
   58MOL0     H 7950   2.112   6.833   0.156 -0.5451 -2.0116 -1.3356
   58MOL0     H 7951   2.315   6.617   0.157 -0.3930  0.3237  2.6175
   58MOL0     H 7952   2.159   6.551   0.204 -0.1997 -0.4661 -1.8495
   58MOL0     H 7953   2.339   6.738  -0.085  0.7635 -0.6462  0.2825
   58MOL0     H 7954   2.276   6.789  -0.328 -0.8697  1.2552  0.0824
   58MOL0     H 7955   2.133   6.729  -0.412  3.0285 -0.0204 -4.2126
   58MOL0     H 7956   2.412   6.597  -0.413 -0.7095 -0.1731 -3.3254
   58MOL0     H 7957   2.292   6.492  -0.345 -0.4639  1.4492  2.0029
   58MOL0     H 7958   2.237   6.637  -0.606 -0.4325 -0.1116  0.4128
   58MOL0     H 7959   2.313   6.479  -0.603 -1.0690  0.2062 -2.7604
   58MOL0     H 7960   2.039   6.540  -0.473  0.0965 -0.2011  0.1112
   58MOL0     H 7961   2.071   6.469  -0.626  2.1624  0.0984 -0.5565
   58MOL0     H 7962   2.174   6.128  -0.347  1.1502  4.4798 -1.5666
   58MOL0     H 7963   1.993   5.865  -0.244  1.5211 -0.4007 -0.2503
   58MOL0     H 7964   2.016   5.982  -0.116 -0.3311  2.2212 -0.5177
   58MOL0     H 7965   2.148   5.956  -0.234  0.8307  4.0264  1.6478
   58MOL0     H 7966   1.522   5.798  -0.175 -0.3303  0.3568 -0.8175
   58MOL0     H 7967   1.314   5.736  -0.148  0.0560  1.7431  1.3474
   58MOL0     H 7968   1.069   5.637  -0.261  0.1971 -0.8585  0.9757
   58MOL0     H 7969   1.097   5.716  -0.103  3.3087 -0.1214 -1.9578
   58MOL0     H 7970   0.868   5.632  -0.141  1.8774 -0.1739  1.3473
   58MOL0     H 7971   0.876   5.808  -0.121  3.7879  3.7338 -2.1016
   58MOL0     H 7972   0.852   5.668  -0.391 -0.6411 -0.5222  0.0961
   58MOL0     H 7973   0.838   5.846  -0.362  1.8551  2.1101  4.1262
   58MOL0     H 7974   0.649   5.754  -0.204 -0.9275 -2.9358  1.2522
   58MOL0     H 7975   0.674   5.608  -0.287 -2.0395  0.2598  1.1331
   58MOL0     H 7976   0.503   5.770  -0.354 -0.3816 -0.6536  0.0247
   58MOL0     H 7977   0.618   5.885  -0.425 -1.2821 -0.0453 -0.8782
   58MOL0     H 7978   0.597   5.595  -0.515  0.1959 -1.1417 -2.4148
   58MOL0     H 7979   0.675   5.729  -0.610  1.7237 -1.6641  0.9524
   58MOL0     H 7980   0.477   5.830  -0.683  0.9720  0.6147  1.0910
   58MOL0     H 7981   0.395   5.780  -0.541  1.8793 -0.9855  3.7841
   58MOL0     H 7982   0.306   5.645  -0.706  0.8557 -0.4844 -1.8500
   58MOL0     H 7983   0.432   5.526  -0.635  3.2564 -0.2006  0.4983
   58MOL0     H 7984   1.161   6.075  -0.368 -1.8720 -1.0808  3.6471
   58MOL0     H 7985   1.401   6.146  -0.400 -1.7636 -0.4371 -0.9894
   58MOL0     H 7986   1.701   6.223  -0.442 -0.0247 -0.7624 -1.4481
   58MOL0     H 7987   1.876   6.390  -0.501  1.9197 -0.9750 -0.3163
   58MOL0     H 7988   1.296   6.954   0.415 -0.3141  2.2840 -1.5277
   58MOL0     H 7989   1.047   7.014   0.392  1.3575 -0.9595  1.7061
   58MOL0     H 7990   0.687   6.797   0.122 -1.0872  0.0126 -1.3775
   58MOL0     H 7991   0.462   6.772   0.072  1.1982  3.0042 -1.8333
   58MOL0     H 7992   0.188   6.797   0.066 -1.4009  1.4695  1.2562
   58MOL0     H 7993   0.275   6.678   0.160 -0.2798 -1.4574 -3.2056
   58MOL0     H 7994   0.061   6.663   0.303 -0.9057  0.9653  0.3309
   58MOL0     H 7995   0.051   6.607   0.150 -0.8285  0.0575  0.6236
   58MOL0     H 7996  -0.153   6.736   0.203  1.2488 -1.3167  2.6966
   58MOL0     H 7997  -0.059   6.882   0.231  0.6647 -1.1235  0.3939
   58MOL0     H 7998  -0.031   6.717  -0.030 -0.6083 -0.4870  0.7583
   58MOL0     H 7999  -0.020   6.895  -0.001  2.8037 -1.5595 -0.2730
   58MOL0     H 8000  -0.423   6.835  -0.101  0.1567 -0.1178  0.4049
   58MOL0     H 8001   0.364   6.951   0.467  1.5359 -3.5723  1.6106
   58MOL0     H 8002   0.675   7.100   0.515 -0.2935 -0.7802 -3.0169
   58MOL0     H 8003   0.524   7.048   0.588 -2.0313 -0.1683 -4.3597
   58MOL0     H 8004   0.683   6.953   0.601  1.2486 -1.3537 -1.1247
   59MOL0     O 8005   1.726   1.894   4.436  1.3485  0.3825 -0.7099
   59MOL0     C 8006   1.604   1.917   4.441  0.2563  0.5662 -0.4275
   59MOL0     O 8007   1.510   1.824   4.451  0.2548  0.0958 -0.5119
   59MOL0     C 8008   1.542   1.701   4.493 -0.1465  0.4648  0.1906
   59MOL0     C 8009   1.505   1.594   4.404  0.0675 -0.2716  0.1942
   59MOL0     C 8010   1.523   1.466   4.432 -0.0187 -0.5511  0.0210
   59MOL0     C 8011   1.575   1.431   4.557 -0.6800 -0.2076  0.2249
   59MOL0     O 8012   1.583   1.303   4.598 -0.3646  0.2826  0.1557
   59MOL0     C 8013   1.653   1.197   4.521  0.4784  0.8563 -0.4375
   59MOL0     C 8014   1.793   1.200   4.565 -0.0739 -1.1173 -0.4109
   59MOL0     C 8015   1.879   1.088   4.505  0.1767 -0.0096 -0.0381
   59MOL0     C 8016   2.016   1.090   4.577 -0.0121  0.8198 -0.4210
   59MOL0     C 8017   2.116   0.985   4.527 -1.2343  0.2369  0.4329
   59MOL0     C 8018   2.250   0.990   4.593  0.0294  0.3197  0.7090
   59MOL0     C 8019   2.330   1.110   4.558  0.7960 -0.2230  0.0606
   59MOL0     C 8020   2.463   1.101   4.637  0.6600 -0.9128 -0.2768
   59MOL0     N 8021   2.442   1.150   4.769 -0.0762 -0.8311  0.0323
   59MOL0     C 8022   2.501   1.097   4.875  0.0155  0.5089  0.0035
   59MOL0     C 8023   2.468   1.175   4.982 -0.0010 -0.4378 -0.3694
   59MOL0     C 8024   2.521   1.155   5.116  0.3819  0.5025 -0.1419
   59MOL0     C 8025   2.483   1.268   5.224 -0.3390  0.1434  0.1925
   59MOL0     C 8026   2.610   1.334   5.292  0.4331  0.2206 -0.1766
   59MOL0     C 8027   2.573   1.404   5.416 -0.5079 -0.0771 -0.6033
   59MOL0     O 8028   2.697   1.409   5.488  0.3218 -0.3571  0.0713
   59MOL0     C 8029   2.674   1.395   5.622  0.6629 -0.2401  0.4087
   59MOL0     C 8030   2.663   1.268   5.690  0.8351 -0.2002  0.1782
   59MOL0     C 8031   2.639   1.251   5.831 -0.4569 -0.2869 -0.2923
   59MOL0     C 8032   2.630   1.103   5.877 -0.0083 -0.2834  0.4219
   59MOL0     C 8033   2.634   1.371   5.914  0.6038 -0.1719  0.1558
   59MOL0     C 8034   2.630   1.364   6.064  0.4370  0.5649 -0.3871
   59MOL0     O 8035   2.638   1.235   6.117 -0.0663 -0.4070  0.2583
   59MOL0     C 8036   2.662   1.196   6.242 -0.4537 -0.4000 -0.4139
   59MOL0     C 8037   2.629   1.069   6.283  0.4333 -0.3060 -0.1348
   59MOL0     C 8038   2.629   1.019   6.419  0.6508 -0.6610 -0.2682
   59MOL0     C 8039   2.664   1.102   6.521 -1.0909 -0.3631  0.3386
   59MOL0     O 8040   2.657   1.055   6.654  0.5763  0.2212  0.3878
   59MOL0     C 8041   2.630   1.152   6.754 -0.4153 -0.4294 -0.1507
   59MOL0     C 8042   2.768   1.197   6.820  0.0196  0.2114  0.7838
   59MOL0     C 8043   2.849   1.083   6.863 -0.5087  0.4305 -0.3666
   59MOL0     C 8044   2.984   1.124   6.907 -0.2698 -0.0044 -0.8302
   59MOL0     C 8045   3.037   1.011   7.001 -0.2172 -0.5896 -0.5787
   59MOL0     C 8046   3.074   0.890   6.928  0.3210  0.0294 -0.2472
   59MOL0     C 8047   3.104   0.772   7.026  0.3911  0.1164 -0.2145
   59MOL0     C 8048   3.081   0.629   6.977 -0.6937 -0.3358 -0.7186
   59MOL0    Cl 8049   2.916   0.599   6.981  0.3381 -0.2676 -0.1999
   59MOL0     C 8050   2.703   1.234   6.483 -0.7824 -0.5621 -0.4055
   59MOL0     C 8051   2.700   1.276   6.348 -0.4126 -0.8594  0.6189
   59MOL0     O 8052   2.606   1.463   6.128  0.0766  0.3796 -0.1673
   59MOL0     C 8053   2.646   1.492   5.849 -0.3751 -0.3666  0.5284
   59MOL0     C 8054   2.660   1.499   5.705 -0.2688 -0.8682 -0.4057
   59MOL0     N 8055   2.377   1.276   4.938  0.1749  0.5587 -0.9959
   59MOL0     N 8056   2.366   1.267   4.806 -0.1012  0.3773 -0.0026
   59MOL0     C 8057   1.621   1.530   4.649 -0.3106 -0.1842  1.0142
   59MOL0     C 8058   1.603   1.669   4.617  0.3668  0.1627  0.2211
   59MOL0     C 8059   1.574   2.060   4.438  0.0137  0.0947  0.9008
   59MOL0     C 8060   1.650   2.149   4.522  0.7284  0.2831 -0.4105
   59MOL0     C 8061   1.633   2.282   4.498  0.0245  0.6131  0.1466
   59MOL0     C 8062   1.547   2.338   4.405  0.5918 -0.3915 -0.5913
   59MOL0     O 8063   1.538   2.471   4.385  0.8138 -0.0500 -0.2923
   59MOL0     C 8064   1.627   2.572   4.444  0.7427 -0.6678  0.2092
   59MOL0     C 8065   1.631   2.705   4.366  0.3075 -0.5607  0.5006
   59MOL0     C 8066   1.499   2.775   4.349  0.0169  0.1612 -0.7710
   59MOL0     C 8067   1.507   2.899   4.254  0.5721  0.1255  0.5718
   59MOL0     C 8068   1.594   3.004   4.301 -0.0909 -0.2777  0.3067
   59MOL0     C 8069   1.672   3.089   4.339 -0.4919 -0.2978  0.1762
   59MOL0     C 8070   1.464   2.252   4.335 -1.7166  0.3702  1.7443
   59MOL0     C 8071   1.475   2.117   4.348 -0.0452 -0.7574 -0.3468
   59MOL0     C 8072   1.374   2.035   4.263 -0.3622 -0.1876 -0.0737
   59MOL0     H 8073   1.463   1.616   4.306  3.3338  0.1119 -1.2619
   59MOL0     H 8074   1.497   1.384   4.366  1.0442  0.1916 -1.3718
   59MOL0     H 8075   1.645   1.215   4.414  0.0438  1.4055 -0.3183
   59MOL0     H 8076   1.617   1.097   4.549 -1.9800  1.2273 -1.9238
   59MOL0     H 8077   1.836   1.296   4.535  0.6702 -1.3439 -0.1046
   59MOL0     H 8078   1.790   1.194   4.674 -1.9924  1.0210 -0.2748
   59MOL0     H 8079   1.826   0.992   4.503  0.8885 -0.4610  1.2012
   59MOL0     H 8080   1.887   1.120   4.401 -1.9467 -0.3152 -0.3262
   59MOL0     H 8081   2.063   1.188   4.571 -1.5808  1.6061 -0.5051
   59MOL0     H 8082   1.993   1.068   4.682 -0.0491 -0.8595 -0.7480
   59MOL0     H 8083   2.140   1.007   4.423  2.7942  1.8093  1.5070
   59MOL0     H 8084   2.071   0.887   4.544 -0.8598 -0.5942 -2.7349
   59MOL0     H 8085   2.234   0.986   4.701  1.3784  0.6251  0.9311
   59MOL0     H 8086   2.303   0.905   4.549 -0.7637  0.1307  0.0960
   59MOL0     H 8087   2.277   1.205   4.573  0.5817 -0.7960  3.9693
   59MOL0     H 8088   2.354   1.111   4.452 -0.7652 -0.9862 -0.3410
   59MOL0     H 8089   2.503   0.999   4.638 -2.1868 -2.1195 -0.0084
   59MOL0     H 8090   2.539   1.161   4.586  1.5323 -1.5080  0.3037
   59MOL0     H 8091   2.568   1.012   4.878  0.6732  0.8732 -2.3760
   59MOL0     H 8092   2.629   1.142   5.114  0.6087  0.1466  4.3372
   59MOL0     H 8093   2.486   1.057   5.150 -1.2318  0.7154 -1.0488
   59MOL0     H 8094   2.429   1.348   5.173 -1.9617 -1.8636 -1.3849
   59MOL0     H 8095   2.417   1.231   5.303  0.7216 -0.3505  0.8805
   59MOL0     H 8096   2.674   1.248   5.313 -1.1198 -0.7610  0.7527
   59MOL0     H 8097   2.669   1.393   5.221  0.7491 -0.0424 -0.1364
   59MOL0     H 8098   2.534   1.500   5.381  1.4761  0.2199 -2.2072
   59MOL0     H 8099   2.503   1.348   5.478 -0.6162  2.0658  1.3444
   59MOL0     H 8100   2.674   1.182   5.625 -0.3688 -0.7069  0.6229
   59MOL0     H 8101   2.599   1.048   5.788  0.9974  2.1420 -1.5385
   59MOL0     H 8102   2.562   1.068   5.956 -0.5361 -4.1741 -1.5154
   59MOL0     H 8103   2.731   1.073   5.904 -0.1899  1.1090  2.9906
   59MOL0     H 8104   2.603   1.003   6.201  3.7767 -1.2514 -0.5430
   59MOL0     H 8105   2.603   0.916   6.441 -0.2843 -0.4743 -0.4601
   59MOL0     H 8106   2.563   1.234   6.724  0.2611 -0.7113 -2.6864
   59MOL0     H 8107   2.579   1.097   6.833  4.0990 -2.1183  1.9430
   59MOL0     H 8108   2.817   1.262   6.748 -1.4609 -1.8651 -2.3306
   59MOL0     H 8109   2.745   1.244   6.916 -1.2761  1.8902 -0.3018
   59MOL0     H 8110   2.858   1.007   6.784 -0.7389  1.4674 -1.4152
   59MOL0     H 8111   2.788   1.032   6.938 -1.2495 -0.0740 -1.2897
   59MOL0     H 8112   2.985   1.217   6.965 -2.4500 -0.2688 -0.2620
   59MOL0     H 8113   3.055   1.118   6.824  1.3095 -0.9754  0.5173
   59MOL0     H 8114   3.125   1.034   7.063 -0.5205 -2.2924  0.5428
   59MOL0     H 8115   2.964   0.997   7.081 -1.0453  0.0449 -1.1993
   59MOL0     H 8116   3.165   0.908   6.870  0.3404  0.5719 -0.0511
   59MOL0     H 8117   2.994   0.862   6.859 -0.5334 -1.5104  1.2843
   59MOL0     H 8118   3.036   0.785   7.110  1.9038 -0.6994  1.1945
   59MOL0     H 8119   3.204   0.779   7.071  0.8650  0.8457 -1.3322
   59MOL0     H 8120   3.126   0.551   7.040 -1.2719 -1.2935 -1.4709
   59MOL0     H 8121   3.128   0.613   6.879  1.5692 -2.3992  0.5840
   59MOL0     H 8122   2.728   1.306   6.560 -1.9764 -1.1678  0.5815
   59MOL0     H 8123   2.725   1.378   6.318 -0.8725 -1.6176 -2.8005
   59MOL0     H 8124   2.657   1.589   5.896  0.1624 -0.4928  0.6805
   59MOL0     H 8125   2.673   1.604   5.678  2.3306 -1.0563 -0.1255
   59MOL0     H 8126   1.649   1.495   4.748 -0.8440 -2.3303  0.4535
   59MOL0     H 8127   1.629   1.747   4.687 -2.5993  1.1677  0.3424
   59MOL0     H 8128   1.715   2.098   4.593  1.1509 -1.6832 -2.1099
   59MOL0     H 8129   1.691   2.336   4.573  1.2556 -0.3729 -0.0640
   59MOL0     H 8130   1.596   2.587   4.547 -0.1983  0.3490 -0.2002
   59MOL0     H 8131   1.728   2.531   4.447  1.0576  0.1417  1.1356
   59MOL0     H 8132   1.660   2.678   4.264  0.2741  0.0257  0.3345
   59MOL0     H 8133   1.709   2.773   4.400 -1.1377  1.1909  0.4564
   59MOL0     H 8134   1.413   2.719   4.311 -2.4312  0.5364  3.6204
   59MOL0     H 8135   1.465   2.803   4.449  0.7615 -0.8102 -0.2372
   59MOL0     H 8136   1.408   2.933   4.223  1.0165  2.1987  1.2669
   59MOL0     H 8137   1.551   2.864   4.160  4.8706  1.0004  2.0445
   59MOL0     H 8138   1.748   3.151   4.381 -0.4067 -1.6055  2.0814
   59MOL0     H 8139   1.388   2.293   4.269  2.5391 -0.4381 -4.5693
   59MOL0     H 8140   1.274   2.063   4.297 -1.8120  0.5638 -4.3445
   59MOL0     H 8141   1.376   2.061   4.157  0.7532  1.9786  0.4293
   59MOL0     H 8142   1.378   1.926   4.270 -1.2699 -0.1171  2.7927
   60MOL0     O 8143   2.982   7.725   4.525  0.0466 -0.7001 -0.4953
   60MOL0     C 8144   2.952   7.756   4.642 -0.7010  0.1829  0.7136
   60MOL0     O 8145   2.992   7.874   4.702 -0.1429 -0.4937 -1.0630
   60MOL0     C 8146   3.042   7.972   4.615  0.6937 -0.4876 -0.1890
   60MOL0     C 8147   3.168   7.954   4.569  0.1882 -0.1361 -0.4045
   60MOL0     C 8148   3.221   8.059   4.486 -0.2037 -1.1796  0.0293
   60MOL0     C 8149   3.157   8.174   4.448 -0.3641  0.3874  0.5844
   60MOL0     O 8150   3.219   8.260   4.362 -0.8636  0.5026  0.2118
   60MOL0     C 8151   3.256   8.390   4.414  0.0336  0.0880 -0.1929
   60MOL0     C 8152   3.407   8.427   4.390  0.4079 -0.0425  0.4782
   60MOL0     C 8153   3.461   8.432   4.242  0.5840  0.1232  0.5132
   60MOL0     C 8154   3.602   8.493   4.239  0.8777 -0.3282 -0.2052
   60MOL0     C 8155   3.701   8.393   4.274  0.9904  0.7838 -0.0660
   60MOL0     C 8156   3.844   8.445   4.304 -0.4741  0.6456 -0.5420
   60MOL0     C 8157   3.935   8.334   4.274 -0.7955  0.2683 -0.1290
   60MOL0     C 8158   3.940   8.302   4.128 -0.1893 -0.1869  0.3652
   60MOL0     N 8159   4.079   8.256   4.097  0.6161 -0.0427 -0.2888
   60MOL0     C 8160   4.184   8.343   4.061  0.4398 -0.3048 -0.7933
   60MOL0     C 8161   4.280   8.256   4.024 -0.2727 -0.3478 -0.3440
   60MOL0     C 8162   4.413   8.287   3.947 -0.5478 -0.2902  0.6376
   60MOL0     C 8163   4.542   8.261   4.035 -0.1808  0.8103  0.1249
   60MOL0     C 8164   4.533   8.312   4.179  0.5349 -0.0075  0.1515
   60MOL0     C 8165   4.661   8.271   4.249  0.4027 -0.1210 -0.3243
   60MOL0     O 8166   4.770   8.315   4.175 -0.2636  0.6864  0.2786
   60MOL0     C 8167   4.900   8.268   4.204 -0.8228 -0.7980 -0.8466
   60MOL0     C 8168   4.945   8.192   4.313 -0.7620  0.0824 -0.5444
   60MOL0     C 8169   5.079   8.155   4.333  0.4088 -0.7276  0.1972
   60MOL0     C 8170   5.112   8.089   4.463 -1.0675 -0.1355 -0.1661
   60MOL0     C 8171   5.175   8.196   4.236  0.9000 -0.0680 -0.3266
   60MOL0     C 8172   5.316   8.153   4.245  0.8429 -0.2405 -0.1515
   60MOL0     O 8173   5.348   8.047   4.318 -0.8568  0.8186  0.7054
   60MOL0     C 8174   5.479   8.030   4.351  0.8757  0.0858 -0.2681
   60MOL0     C 8175   5.535   7.931   4.270 -0.1853 -0.3058 -0.5960
   60MOL0     C 8176   5.668   7.895   4.288  0.3273 -0.0183  0.0865
   60MOL0     C 8177   5.752   7.965   4.383 -0.1431  0.0349 -0.9520
   60MOL0     O 8178   5.885   7.931   4.399 -0.4553 -0.1042 -0.3605
   60MOL0     C 8179   5.982   8.024   4.458 -0.4305 -0.9659  0.4925
   60MOL0     C 8180   6.118   7.953   4.443 -0.8422  0.8724  0.5145
   60MOL0     C 8181   6.144   7.831   4.541 -0.1240  0.0774  0.2492
   60MOL0     C 8182   6.151   7.893   4.689 -0.3729  0.1881 -0.2156
   60MOL0     C 8183   6.191   7.805   4.809 -0.0440  0.0143 -0.5830
   60MOL0     C 8184   6.192   7.874   4.940 -0.1767  0.4215  0.5428
   60MOL0     C 8185   6.302   7.977   4.954  0.0062 -0.3178  0.7157
   60MOL0     C 8186   6.421   7.936   5.037  0.2540  0.1403  0.1601
   60MOL0    Cl 8187   6.493   7.779   4.997 -0.0267  0.8672 -0.1071
   60MOL0     C 8188   5.688   8.073   4.454  0.1358 -0.6197 -0.6850
   60MOL0     C 8189   5.550   8.111   4.443 -0.9498 -0.1022  0.1159
   60MOL0     O 8190   5.397   8.213   4.178  0.0635 -0.6456 -0.2587
   60MOL0     C 8191   5.134   8.276   4.131 -0.1236  0.3673 -0.3638
   60MOL0     C 8192   4.999   8.308   4.113 -0.9903 -0.0571 -0.5041
   60MOL0     N 8193   4.236   8.122   4.059 -0.3011 -0.1973  0.6728
   60MOL0     N 8194   4.110   8.126   4.097 -0.3980 -0.6378 -0.3461
   60MOL0     C 8195   3.025   8.189   4.501 -0.1733  0.3611 -0.2015
   60MOL0     C 8196   2.967   8.083   4.575  0.1358 -0.5873  0.3540
   60MOL0     C 8197   2.893   7.646   4.726  0.3171  0.6400  0.2201
   60MOL0     C 8198   2.904   7.664   4.864  0.3658  0.3147 -0.3783
   60MOL0     C 8199   2.858   7.577   4.954 -0.0267  0.1472  0.7064
   60MOL0     C 8200   2.777   7.462   4.913 -0.4413 -0.8268  1.0692
   60MOL0     O 8201   2.746   7.371   5.011 -0.0009  0.2193 -0.3891
   60MOL0     C 8202   2.684   7.240   4.981 -0.3905 -0.0881  0.7202
   60MOL0     C 8203   2.777   7.153   4.898  0.6215  0.0092  0.4922
   60MOL0     C 8204   2.903   7.130   4.980 -0.6032  0.5742  0.5833
   60MOL0     C 8205   2.978   7.030   4.896 -0.3111 -0.4249  0.2555
   60MOL0     C 8206   2.906   6.903   4.886  0.2834 -0.4218  0.1123
   60MOL0     C 8207   2.861   6.792   4.881 -0.9227  0.2198  1.2690
   60MOL0     C 8208   2.757   7.454   4.775 -0.5002 -0.2308  0.6573
   60MOL0     C 8209   2.817   7.538   4.675  0.3997  0.6755  0.4563
   60MOL0     C 8210   2.813   7.505   4.522  0.0326 -0.2497 -1.1042
   60MOL0     H 8211   3.230   7.868   4.594 -1.8943 -1.9397 -1.1414
   60MOL0     H 8212   3.320   8.050   4.444 -0.2621  0.2127 -0.4542
   60MOL0     H 8213   3.225   8.404   4.518  2.2042 -0.8128  0.6413
   60MOL0     H 8214   3.196   8.465   4.361 -0.9571 -1.2912 -1.1022
   60MOL0     H 8215   3.426   8.527   4.429 -1.5610  1.0212 -1.1221
   60MOL0     H 8216   3.459   8.361   4.461 -2.4409 -0.7865  2.0484
   60MOL0     H 8217   3.468   8.328   4.208  0.3063 -0.3867  1.9188
   60MOL0     H 8218   3.387   8.491   4.187  0.4157  0.0576  0.6633
   60MOL0     H 8219   3.632   8.545   4.147  2.6192  0.3769  0.7098
   60MOL0     H 8220   3.614   8.568   4.318 -1.8234  0.5402 -0.5071
   60MOL0     H 8221   3.702   8.331   4.184 -2.0045 -0.1936  0.4663
   60MOL0     H 8222   3.665   8.327   4.353 -4.0524  0.6146 -2.1505
   60MOL0     H 8223   3.875   8.533   4.247 -0.5271 -0.2275 -1.9592
   60MOL0     H 8224   3.852   8.483   4.406 -1.4685 -0.6339  0.0353
   60MOL0     H 8225   3.906   8.241   4.324 -0.2518 -0.9471 -1.9653
   60MOL0     H 8226   4.029   8.372   4.314 -2.1643 -0.2316  4.0500
   60MOL0     H 8227   3.868   8.224   4.103 -2.0883  1.0826  1.6065
   60MOL0     H 8228   3.917   8.391   4.068  0.3851  0.4079  0.9955
   60MOL0     H 8229   4.191   8.451   4.055  0.6541 -0.2211  0.5061
   60MOL0     H 8230   4.410   8.394   3.928  0.6643 -0.3319  0.1218
   60MOL0     H 8231   4.435   8.234   3.854 -1.7787 -2.6058  1.5789
   60MOL0     H 8232   4.564   8.154   4.033  0.1896  0.8241  1.9877
   60MOL0     H 8233   4.624   8.318   3.991 -0.5144  2.7000  1.8290
   60MOL0     H 8234   4.522   8.421   4.176 -3.1457 -0.2601 -0.0477
   60MOL0     H 8235   4.441   8.278   4.226  0.3476 -0.4987 -0.5560
   60MOL0     H 8236   4.656   8.321   4.346 -2.2565 -0.0995 -0.4108
   60MOL0     H 8237   4.667   8.161   4.253  1.2491 -0.0730 -0.0521
   60MOL0     H 8238   4.878   8.167   4.395 -0.5738  0.7141 -0.1893
   60MOL0     H 8239   5.171   7.997   4.453  1.0182  1.2445 -1.4567
   60MOL0     H 8240   5.026   8.059   4.523 -1.0082  0.9329  0.4731
   60MOL0     H 8241   5.183   8.152   4.516  0.4919  0.1200 -2.4187
   60MOL0     H 8242   5.480   7.875   4.194 -1.8251 -1.3242  1.2716
   60MOL0     H 8243   5.715   7.811   4.238 -0.7232  1.4967 -3.7356
   60MOL0     H 8244   5.988   8.110   4.391 -3.3632 -0.9145  0.2012
   60MOL0     H 8245   5.963   8.049   4.563 -1.1408 -3.0793  0.9233
   60MOL0     H 8246   6.144   7.913   4.345 -1.7314 -1.2328  1.0796
   60MOL0     H 8247   6.198   8.022   4.471 -0.0810  0.2362 -0.0763
   60MOL0     H 8248   6.236   7.776   4.523 -0.1678 -0.6332  1.9943
   60MOL0     H 8249   6.061   7.761   4.531  1.1155 -1.1479 -1.8927
   60MOL0     H 8250   6.059   7.946   4.719  0.2418 -0.1651  2.6415
   60MOL0     H 8251   6.234   7.963   4.680 -0.7442  0.4825 -1.5075
   60MOL0     H 8252   6.129   7.715   4.813  2.2087 -1.6649  4.2205
   60MOL0     H 8253   6.295   7.772   4.798 -0.3046 -1.1718  0.2437
   60MOL0     H 8254   6.196   7.796   5.018 -1.1779  1.3220  1.5282
   60MOL0     H 8255   6.098   7.923   4.964 -0.1740  0.4208  0.5543
   60MOL0     H 8256   6.256   8.068   4.993  3.0288  1.1830  1.1485
   60MOL0     H 8257   6.338   8.012   4.857 -1.5280 -3.8067 -1.2933
   60MOL0     H 8258   6.398   7.929   5.144 -3.1695  2.4314 -0.2668
   60MOL0     H 8259   6.502   8.009   5.027  2.9669 -2.6443  0.2692
   60MOL0     H 8260   5.758   8.130   4.514 -0.2146  1.0920 -1.8070
   60MOL0     H 8261   5.498   8.190   4.497 -0.1668  0.2257  0.4018
   60MOL0     H 8262   5.203   8.321   4.060 -0.6622  0.5665 -0.7756
   60MOL0     H 8263   4.975   8.365   4.023 -1.7106  1.9864  0.9233
   60MOL0     H 8264   2.967   8.280   4.485 -2.9512 -1.1448  0.5246
   60MOL0     H 8265   2.870   8.093   4.624  0.4297  1.0233  0.6637
   60MOL0     H 8266   2.966   7.741   4.909 -1.8133  0.5906  2.4800
   60MOL0     H 8267   2.886   7.594   5.057  1.2869  1.2471  0.1940
   60MOL0     H 8268   2.675   7.189   5.078 -0.6201  0.0566  0.7770
   60MOL0     H 8269   2.584   7.251   4.939 -0.1195 -1.3136 -0.2918
   60MOL0     H 8270   2.781   7.201   4.799 -0.6098  1.6637  1.2083
   60MOL0     H 8271   2.720   7.060   4.892  0.1164  0.3980 -1.2950
   60MOL0     H 8272   2.954   7.226   4.973  0.1831  0.0241 -1.8137
   60MOL0     H 8273   2.877   7.097   5.081 -3.9085 -0.5243 -0.4971
   60MOL0     H 8274   3.081   7.022   4.933  0.3616 -0.5504 -1.5053
   60MOL0     H 8275   2.988   7.066   4.793 -0.5672 -0.9126  0.0608
   60MOL0     H 8276   2.822   6.692   4.880  1.8549 -0.9559  1.1392
   60MOL0     H 8277   2.687   7.377   4.745  0.0360 -0.4489 -0.0571
   60MOL0     H 8278   2.753   7.416   4.504 -2.9991  2.0318 -3.3573
   60MOL0     H 8279   2.747   7.575   4.471 -1.8688 -0.6650  0.6689
   60MOL0     H 8280   2.913   7.478   4.484  0.8869  1.3439 -0.0711
   61MOL0     O 8281   1.630   0.587   8.301  0.0366 -0.0944  0.2063
   61MOL0     C 8282   1.648   0.470   8.308 -0.0535  0.4883  0.2646
   61MOL0     O 8283   1.568   0.367   8.264  0.0755  0.7559  0.4078
   61MOL0     C 8284   1.456   0.384   8.185  0.6861 -0.4226 -0.1079
   61MOL0     C 8285   1.374   0.493   8.182 -0.5356 -0.5137  0.2259
   61MOL0     C 8286   1.263   0.495   8.093  0.1070  0.1409 -0.6170
   61MOL0     C 8287   1.227   0.384   8.011  0.0351 -0.2283  1.1103
   61MOL0     O 8288   1.126   0.395   7.927 -0.1502 -1.0978 -1.0960
   61MOL0     C 8289   1.068   0.270   7.888  0.0171 -0.0172 -0.4210
   61MOL0     C 8290   0.940   0.308   7.806 -0.6726  0.0190 -0.1068
   61MOL0     C 8291   0.974   0.403   7.690  0.9263 -0.6016  0.3695
   61MOL0     C 8292   1.028   0.345   7.557  0.6036  0.2282 -0.5664
   61MOL0     C 8293   1.035   0.461   7.458 -0.2701  0.9246 -0.1360
   61MOL0     C 8294   0.904   0.527   7.419  0.6874 -0.2813  0.0848
   61MOL0     C 8295   0.913   0.590   7.279 -0.3778  0.2363 -0.3098
   61MOL0     C 8296   0.786   0.661   7.236 -0.6347 -0.0683  0.4959
   61MOL0     N 8297   0.655   0.595   7.267 -0.6886  0.8095 -0.1015
   61MOL0     C 8298   0.549   0.655   7.324  0.0138 -0.5155 -0.3179
   61MOL0     C 8299   0.452   0.563   7.305 -0.0771 -0.0765  1.1775
   61MOL0     C 8300   0.306   0.589   7.353 -0.3537 -0.2052 -0.1396
   61MOL0     C 8301   0.233   0.694   7.264 -0.4699  0.4485  0.1480
   61MOL0     C 8302   0.083   0.711   7.300 -0.4548  0.4417  1.2602
   61MOL0     C 8303   0.063   0.768   7.446 -0.5574  0.5773 -0.1016
   61MOL0     O 8304  -0.079   0.767   7.479  0.0443  1.0642 -0.1316
   61MOL0     C 8305  -0.141   0.650   7.510  0.2130  0.1963  0.8429
   61MOL0     C 8306  -0.076   0.522   7.509 -0.0431 -0.8701 -0.8953
   61MOL0     C 8307  -0.132   0.409   7.558 -0.0440 -0.7335 -0.4500
   61MOL0     C 8308  -0.048   0.278   7.552  0.1456  0.3042 -0.3915
   61MOL0     C 8309  -0.267   0.410   7.607 -0.6676 -0.3555  0.7598
   61MOL0     C 8310  -0.342   0.300   7.676  0.0611 -0.7046  0.2015
   61MOL0     O 8311  -0.476   0.303   7.657 -0.4860  0.4431 -0.4243
   61MOL0     C 8312  -0.564   0.236   7.729  0.3150  0.0722  0.1627
   61MOL0     C 8313  -0.549   0.110   7.796 -0.0776 -0.8064  0.0677
   61MOL0     C 8314  -0.659   0.058   7.855  0.1616  0.1537 -1.1155
   61MOL0     C 8315  -0.792   0.113   7.840 -0.1184 -0.8410  0.9202
   61MOL0     O 8316  -0.902   0.059   7.904 -0.4364  0.6811 -0.3909
   61MOL0     C 8317  -0.880  -0.077   7.945  0.3509  0.4289 -0.3163
   61MOL0     C 8318  -1.030  -0.118   7.970 -0.5240  0.3378  0.3255
   61MOL0     C 8319  -1.031  -0.275   7.973 -0.3921  1.2633 -0.4267
   61MOL0     C 8320  -1.156  -0.345   8.023  0.7842  0.3679  0.4302
   61MOL0     C 8321  -1.153  -0.483   8.075 -0.1093 -0.2288 -0.0824
   61MOL0     C 8322  -1.084  -0.576   7.978  0.0419  0.7460  0.1824
   61MOL0     C 8323  -1.107  -0.724   8.020  0.5511 -0.2742  0.7754
   61MOL0     C 8324  -1.057  -0.819   7.913 -0.9854  0.3736 -0.2053
   61MOL0    Cl 8325  -0.876  -0.830   7.906 -0.3622  0.2686  0.3640
   61MOL0     C 8326  -0.806   0.232   7.774 -0.9677 -0.5543  0.5841
   61MOL0     C 8327  -0.694   0.287   7.712 -0.7240 -0.3859  0.1027
   61MOL0     O 8328  -0.279   0.231   7.758  0.7585 -0.9052 -0.6041
   61MOL0     C 8329  -0.338   0.530   7.578  0.5844 -0.0024 -0.3680
   61MOL0     C 8330  -0.271   0.655   7.540  0.9191  0.2930 -0.6654
   61MOL0     N 8331   0.506   0.452   7.244  0.8530  0.1470 -0.5315
   61MOL0     N 8332   0.636   0.472   7.235  0.1357  1.0198  0.9312
   61MOL0     C 8333   1.300   0.270   8.034 -0.7378 -0.1578 -0.5648
   61MOL0     C 8334   1.415   0.271   8.119  0.0052 -0.1922  0.0042
   61MOL0     C 8335   1.765   0.418   8.383  0.2189 -0.6521  0.7133
   61MOL0     C 8336   1.802   0.282   8.382 -1.1886  0.3299  0.0868
   61MOL0     C 8337   1.935   0.235   8.430 -0.5099  0.6207 -0.2528
   61MOL0     C 8338   2.016   0.328   8.495  0.2993  0.0108 -1.3034
   61MOL0     O 8339   2.140   0.305   8.543  0.2641 -0.1471  0.5474
   61MOL0     C 8340   2.251   0.360   8.463 -1.0084  0.5023  0.2182
   61MOL0     C 8341   2.317   0.259   8.363 -1.1994 -0.1016 -0.2934
   61MOL0     C 8342   2.410   0.170   8.452  0.8334  0.3245  0.1990
   61MOL0     C 8343   2.398   0.022   8.408 -0.2619  0.2218 -0.8766
   61MOL0     C 8344   2.261  -0.024   8.439 -0.8410  0.2463  0.6624
   61MOL0     C 8345   2.159  -0.082   8.463 -0.1743 -0.2113  0.3905
   61MOL0     C 8346   1.974   0.461   8.497  0.0827 -0.0362 -0.1083
   61MOL0     C 8347   1.855   0.507   8.447 -0.1511  0.8601  0.2333
   61MOL0     C 8348   1.820   0.644   8.497  0.2450  0.5452  0.6777
   61MOL0     H 8349   1.383   0.581   8.244 -3.3412 -0.3618  0.5684
   61MOL0     H 8350   1.201   0.583   8.083  3.0691  2.3561 -0.7393
   61MOL0     H 8351   1.038   0.218   7.979  0.9523  2.8803  1.6878
   61MOL0     H 8352   1.138   0.215   7.824 -1.6529 -0.1825 -2.2086
   61MOL0     H 8353   0.881   0.220   7.776 -1.1112 -1.3225  3.9906
   61MOL0     H 8354   0.876   0.363   7.876  0.3725 -0.8772  1.6224
   61MOL0     H 8355   0.881   0.460   7.683  1.3522 -0.0049 -0.5258
   61MOL0     H 8356   1.044   0.482   7.718  1.2533 -0.9835  0.6485
   61MOL0     H 8357   1.129   0.305   7.569  1.2812  2.3573  1.9746
   61MOL0     H 8358   0.956   0.272   7.520  0.3001 -1.4511  2.9198
   61MOL0     H 8359   1.086   0.436   7.365  2.9543  1.0457  1.4785
   61MOL0     H 8360   1.097   0.536   7.508  0.6233  0.5783 -0.7068
   61MOL0     H 8361   0.834   0.445   7.399  1.7952 -0.7131 -2.4953
   61MOL0     H 8362   0.886   0.597   7.501  1.2698 -3.1424  2.8587
   61MOL0     H 8363   0.942   0.522   7.199 -2.1911  1.3671 -2.0489
   61MOL0     H 8364   1.002   0.654   7.287  1.8815 -2.7984  0.4508
   61MOL0     H 8365   0.799   0.758   7.285  2.7471  0.0731 -0.4076
   61MOL0     H 8366   0.795   0.684   7.129 -2.2135  2.2292  0.7605
   61MOL0     H 8367   0.541   0.750   7.375 -0.5843 -0.2576 -0.8723
   61MOL0     H 8368   0.314   0.641   7.449 -2.5401 -1.1286  0.6110
   61MOL0     H 8369   0.253   0.494   7.360 -0.0586 -0.2931  1.2211
   61MOL0     H 8370   0.295   0.784   7.277  1.9395 -1.2534  1.2226
   61MOL0     H 8371   0.247   0.656   7.162 -0.0193  0.9099  0.0312
   61MOL0     H 8372   0.043   0.778   7.224  1.2475 -0.8863 -0.9275
   61MOL0     H 8373   0.037   0.612   7.295 -0.3431  0.4399  0.0747
   61MOL0     H 8374   0.108   0.707   7.525 -2.0934  2.6072  2.5002
   61MOL0     H 8375   0.115   0.864   7.448 -1.1610  0.8882  0.5628
   61MOL0     H 8376   0.026   0.501   7.478 -0.6035 -4.8991 -0.5384
   61MOL0     H 8377  -0.095   0.202   7.490  3.1058 -0.7065 -1.6197
   61MOL0     H 8378  -0.024   0.247   7.654 -1.3838  0.4549  0.0375
   61MOL0     H 8379   0.055   0.295   7.518  0.3642  0.0055  0.1219
   61MOL0     H 8380  -0.459   0.055   7.823 -1.0377 -1.4548  2.2037
   61MOL0     H 8381  -0.646  -0.028   7.919 -1.2148  0.5186 -0.2975
   61MOL0     H 8382  -0.827  -0.135   7.869  0.4635 -2.5410  1.8482
   61MOL0     H 8383  -0.822  -0.089   8.037  0.7185 -1.4466 -0.7569
   61MOL0     H 8384  -1.062  -0.076   8.066 -2.1547  0.4105 -0.2165
   61MOL0     H 8385  -1.102  -0.087   7.894 -2.5973 -0.5786  1.8063
   61MOL0     H 8386  -0.944  -0.320   8.021 -0.4588  0.3162 -1.1617
   61MOL0     H 8387  -1.028  -0.305   7.868  1.6484  1.3335 -0.4195
   61MOL0     H 8388  -1.234  -0.354   7.947 -0.4148  0.1352  1.6480
   61MOL0     H 8389  -1.212  -0.292   8.100 -4.0074 -0.9259 -1.7581
   61MOL0     H 8390  -1.091  -0.483   8.165  0.7016 -3.0550 -0.5488
   61MOL0     H 8391  -1.257  -0.513   8.090  0.1413 -0.6346  0.8996
   61MOL0     H 8392  -0.980  -0.546   7.965  0.6989 -0.2461  2.5161
   61MOL0     H 8393  -1.132  -0.551   7.883 -0.1187 -0.4553 -0.0626
   61MOL0     H 8394  -1.216  -0.734   8.018  0.3354  1.6121  1.4225
   61MOL0     H 8395  -1.067  -0.759   8.115  0.9454 -0.6072  0.4942
   61MOL0     H 8396  -1.075  -0.782   7.812  1.5300 -0.8673 -1.2001
   61MOL0     H 8397  -1.100  -0.919   7.922 -1.1370  0.4319 -0.2835
   61MOL0     H 8398  -0.909   0.265   7.760  0.1421  2.5968 -0.9709
   61MOL0     H 8399  -0.716   0.377   7.655 -1.0471 -0.3093  0.3427
   61MOL0     H 8400  -0.441   0.548   7.605  1.1335  2.0930  0.5352
   61MOL0     H 8401  -0.320   0.752   7.541 -0.5346 -0.4131 -1.6795
   61MOL0     H 8402   1.267   0.172   7.999 -1.0022 -0.2810  0.0003
   61MOL0     H 8403   1.468   0.176   8.124  0.3132 -0.4272 -4.1684
   61MOL0     H 8404   1.731   0.209   8.346 -1.0240  0.0066  0.4111
   61MOL0     H 8405   1.953   0.128   8.421 -0.1994  0.5677  0.8391
   61MOL0     H 8406   2.215   0.448   8.409  6.6144  2.8048 -2.4118
   61MOL0     H 8407   2.321   0.403   8.535 -0.4204  2.5022 -1.4532
   61MOL0     H 8408   2.380   0.329   8.308 -1.4382  0.7669  0.5198
   61MOL0     H 8409   2.244   0.191   8.317 -1.1256 -1.6696  1.7415
   61MOL0     H 8410   2.511   0.203   8.422  2.1890 -5.1478 -2.5166
   61MOL0     H 8411   2.403   0.183   8.560  0.5271 -2.5600  0.5906
   61MOL0     H 8412   2.471  -0.042   8.458 -0.6361  1.0806  0.8594
   61MOL0     H 8413   2.416   0.009   8.301 -1.1221  1.0755 -1.1370
   61MOL0     H 8414   2.067  -0.133   8.481 -1.5987  3.2258  5.0593
   61MOL0     H 8415   2.039   0.526   8.555 -2.3292  0.6577  2.0012
   61MOL0     H 8416   1.901   0.688   8.555 -2.6893  0.9249  4.9524
   61MOL0     H 8417   1.807   0.716   8.415 -1.3443 -0.7922 -0.3182
   61MOL0     H 8418   1.726   0.638   8.553 -0.3649 -0.3300 -0.4006
   62MOL0     O 8419   6.581   3.229   6.450  0.0180  0.5304 -0.4048
   62MOL0     C 8420   6.599   3.108   6.434 -1.0140  0.1347 -0.2020
   62MOL0     O 8421   6.683   3.025   6.504  0.3583 -0.0703  0.0030
   62MOL0     C 8422   6.763   3.081   6.599  0.1146 -0.3632  0.2977
   62MOL0     C 8423   6.720   3.089   6.734 -0.4064  0.9609 -0.2834
   62MOL0     C 8424   6.813   3.135   6.831  0.1653 -0.3056 -0.6047
   62MOL0     C 8425   6.937   3.197   6.799 -0.0843 -0.3877  0.0952
   62MOL0     O 8426   6.999   3.253   6.914  0.0452 -0.0536  0.5416
   62MOL0     C 8427   7.123   3.328   6.894  0.7665  0.0149 -0.2815
   62MOL0     C 8428   7.205   3.355   7.025  0.4732  1.0455  0.2186
   62MOL0     C 8429   7.308   3.465   7.003  0.0878  0.2626 -0.2913
   62MOL0     C 8430   7.456   3.420   6.970 -0.6360  0.3038 -0.6066
   62MOL0     C 8431   7.534   3.538   6.916  0.2967 -0.4046 -0.7385
   62MOL0     C 8432   7.495   3.675   6.974  0.3459  0.3588  0.0547
   62MOL0     C 8433   7.572   3.793   6.909 -0.4557 -0.3931 -0.3882
   62MOL0     C 8434   7.537   3.938   6.947 -0.9318 -0.3214  0.0855
   62MOL0     N 8435   7.466   4.007   6.841  0.7084 -0.1225 -0.1905
   62MOL0     C 8436   7.499   4.037   6.709  0.5027  0.3170  0.1796
   62MOL0     C 8437   7.397   4.112   6.659 -0.6481  0.6827  0.1256
   62MOL0     C 8438   7.381   4.164   6.522 -0.8046  0.2258 -0.3824
   62MOL0     C 8439   7.336   4.308   6.510  0.0332  0.4322 -0.2875
   62MOL0     C 8440   7.337   4.374   6.370 -1.2685 -0.1500  0.5810
   62MOL0     C 8441   7.472   4.389   6.311  0.7938 -1.0045 -0.2298
   62MOL0     O 8442   7.542   4.495   6.376  0.0156  0.3480  0.1258
   62MOL0     C 8443   7.547   4.610   6.315  0.2749  0.2036  0.2325
   62MOL0     C 8444   7.658   4.642   6.239  0.7005 -0.5743  0.6229
   62MOL0     C 8445   7.672   4.765   6.172 -0.0629 -0.2962  0.1735
   62MOL0     C 8446   7.813   4.786   6.121  0.8463  0.5496  0.2748
   62MOL0     C 8447   7.562   4.858   6.170  0.6785  1.1746 -0.2300
   62MOL0     C 8448   7.574   4.990   6.106 -0.8291  0.3813  0.5893
   62MOL0     O 8449   7.662   4.998   6.001 -0.4236 -0.7057 -0.3892
   62MOL0     C 8450   7.709   5.116   5.952  0.9503 -0.6050 -0.4879
   62MOL0     C 8451   7.746   5.128   5.818  0.7158  0.2186 -0.2763
   62MOL0     C 8452   7.779   5.253   5.765 -0.7555  0.3200  0.2074
   62MOL0     C 8453   7.795   5.359   5.851 -0.1389 -0.9392  0.7364
   62MOL0     O 8454   7.840   5.477   5.804  0.0740 -0.3884  0.5342
   62MOL0     C 8455   7.959   5.482   5.720  0.8512  0.8285 -0.1665
   62MOL0     C 8456   8.090   5.450   5.793  0.0888 -0.1943 -0.0645
   62MOL0     C 8457   8.213   5.417   5.703 -0.1243  0.9389 -0.3550
   62MOL0     C 8458   8.259   5.534   5.617 -0.0221  0.1583  0.7713
   62MOL0     C 8459   8.352   5.484   5.507 -0.7217  0.9482  0.3538
   62MOL0     C 8460   8.490   5.437   5.565 -0.0326 -0.8089 -0.4973
   62MOL0     C 8461   8.573   5.350   5.464  0.0561 -0.2800 -0.6271
   62MOL0     C 8462   8.626   5.434   5.349 -1.0919  0.0670 -0.4682
   62MOL0    Cl 8463   8.680   5.327   5.226  0.3389 -0.2685  0.0972
   62MOL0     C 8464   7.764   5.355   5.988  0.2754  0.0089  0.9239
   62MOL0     C 8465   7.718   5.232   6.042  0.3830  0.4531  0.1809
   62MOL0     O 8466   7.505   5.082   6.152 -0.3794  0.0005  0.4092
   62MOL0     C 8467   7.452   4.826   6.256 -1.0743 -0.1150  0.5122
   62MOL0     C 8468   7.443   4.709   6.321  0.2631  0.2528  0.3843
   62MOL0     N 8469   7.301   4.113   6.758  0.3683  0.1071  0.4843
   62MOL0     N 8470   7.336   4.044   6.857 -0.1888 -0.2632  0.0661
   62MOL0     C 8471   6.978   3.192   6.670  0.2695  0.2508 -0.1717
   62MOL0     C 8472   6.898   3.125   6.574 -0.0958 -0.0038 -0.1582
   62MOL0     C 8473   6.504   3.039   6.346  0.7656  0.3729  0.0697
   62MOL0     C 8474   6.501   2.891   6.353 -0.9989  0.3859  0.7855
   62MOL0     C 8475   6.418   2.815   6.276 -0.4684  0.1830 -0.3793
   62MOL0     C 8476   6.328   2.884   6.198  0.3231 -0.3239  0.7371
   62MOL0     O 8477   6.242   2.819   6.116 -0.6334  0.9726 -0.1650
   62MOL0     C 8478   6.100   2.834   6.133 -0.2651  0.4347 -0.0314
   62MOL0     C 8479   6.059   2.836   6.287 -0.0034  0.0224  1.3687
   62MOL0     C 8480   5.906   2.830   6.285 -0.8163 -0.4068  0.0145
   62MOL0     C 8481   5.848   2.970   6.287  0.4036  0.3624  0.7221
   62MOL0     C 8482   5.863   3.032   6.415 -0.6485  0.7323 -0.5244
   62MOL0     C 8483   5.905   3.071   6.523  0.6627  0.9568  0.4623
   62MOL0     C 8484   6.321   3.020   6.188  0.3947  0.2446 -0.6963
   62MOL0     C 8485   6.412   3.099   6.259 -0.1942 -0.1138  0.9253
   62MOL0     C 8486   6.389   3.249   6.238  0.5384 -0.3647 -0.1194
   62MOL0     H 8487   6.617   3.061   6.748  0.4686 -2.6754 -0.1068
   62MOL0     H 8488   6.778   3.144   6.933 -1.5389  0.4149 -1.2129
   62MOL0     H 8489   7.095   3.421   6.843 -1.2212 -2.2432 -3.7370
   62MOL0     H 8490   7.190   3.281   6.822  2.9601 -3.1371  3.3846
   62MOL0     H 8491   7.140   3.381   7.109 -0.5252  1.7006 -0.7251
   62MOL0     H 8492   7.254   3.261   7.052  0.0719  1.6238  3.3030
   62MOL0     H 8493   7.271   3.522   6.917  1.0629  1.0322 -0.2177
   62MOL0     H 8494   7.319   3.532   7.089 -1.3681  4.3362 -2.9540
   62MOL0     H 8495   7.518   3.375   7.047 -2.4349  1.7368  1.8271
   62MOL0     H 8496   7.446   3.347   6.889 -0.5943  0.5853 -0.8707
   62MOL0     H 8497   7.515   3.554   6.809  1.4165  0.6496 -0.8000
   62MOL0     H 8498   7.643   3.535   6.921  0.4004  2.5839  0.9168
   62MOL0     H 8499   7.389   3.702   6.970  0.2192  0.0845  1.1900
   62MOL0     H 8500   7.526   3.683   7.079 -1.5668  0.9412  0.6246
   62MOL0     H 8501   7.580   3.776   6.801  2.7899  1.3459 -0.5570
   62MOL0     H 8502   7.678   3.783   6.936 -0.3278 -1.3152 -1.1868
   62MOL0     H 8503   7.479   3.946   7.039  1.1341  1.6617  1.3191
   62MOL0     H 8504   7.627   3.997   6.967 -2.5252  1.8181  1.3443
   62MOL0     H 8505   7.587   4.032   6.645  0.6324  2.3500  0.1211
   62MOL0     H 8506   7.305   4.107   6.469 -0.4703 -0.5551 -0.0379
   62MOL0     H 8507   7.479   4.158   6.473  0.8144  1.3623  2.4455
   62MOL0     H 8508   7.233   4.320   6.544 -1.1752 -0.1673 -3.3700
   62MOL0     H 8509   7.392   4.363   6.585  0.7729  1.9467 -1.8784
   62MOL0     H 8510   7.283   4.308   6.301  2.0956 -0.2147 -2.2993
   62MOL0     H 8511   7.288   4.472   6.366 -4.6061 -1.6929 -0.6581
   62MOL0     H 8512   7.522   4.295   6.336  3.6761  0.1039 -1.3964
   62MOL0     H 8513   7.469   4.398   6.202  0.9817 -0.8870 -0.2260
   62MOL0     H 8514   7.747   4.580   6.236  0.2563 -1.1950 -0.8329
   62MOL0     H 8515   7.829   4.800   6.014  1.5581  0.7195  0.3968
   62MOL0     H 8516   7.881   4.702   6.138  2.3789  1.5972 -0.3816
   62MOL0     H 8517   7.846   4.872   6.180 -1.2935  0.8832  1.0615
   62MOL0     H 8518   7.730   5.043   5.752 -0.3755  1.5381 -1.7944
   62MOL0     H 8519   7.792   5.274   5.659  0.9564 -0.3976  0.2421
   62MOL0     H 8520   7.940   5.410   5.640  1.3112 -1.2919  1.5619
   62MOL0     H 8521   7.961   5.587   5.689 -0.1831  1.4964  1.8582
   62MOL0     H 8522   8.122   5.530   5.860 -0.1593 -2.2940  2.7653
   62MOL0     H 8523   8.075   5.374   5.871  1.1810 -1.2382 -0.8296
   62MOL0     H 8524   8.188   5.336   5.634 -0.7843  0.7906  0.0473
   62MOL0     H 8525   8.284   5.389   5.782  0.9753  0.8852 -1.3389
   62MOL0     H 8526   8.301   5.611   5.683 -1.0406  1.5227 -0.1314
   62MOL0     H 8527   8.181   5.578   5.554  1.4118  1.1658 -0.3589
   62MOL0     H 8528   8.318   5.396   5.452  2.6138 -1.1918  1.4197
   62MOL0     H 8529   8.372   5.575   5.450 -1.0314 -1.0713 -3.3614
   62MOL0     H 8530   8.464   5.368   5.645 -0.5847 -1.4684 -1.2244
   62MOL0     H 8531   8.540   5.528   5.600  1.4875 -1.1489 -1.6655
   62MOL0     H 8532   8.498   5.278   5.430  0.1808 -0.3510 -0.7542
   62MOL0     H 8533   8.656   5.299   5.514 -1.8139 -1.7437  1.1614
   62MOL0     H 8534   8.713   5.491   5.384  0.0704 -1.0543 -1.4430
   62MOL0     H 8535   8.556   5.502   5.299 -1.1999 -2.1972 -3.6419
   62MOL0     H 8536   7.758   5.448   6.045 -0.0443  1.3115 -1.1215
   62MOL0     H 8537   7.690   5.227   6.147  1.8424  0.1617  0.5693
   62MOL0     H 8538   7.360   4.882   6.269 -1.2843 -0.4138  0.3217
   62MOL0     H 8539   7.355   4.681   6.378 -0.4504  1.7040  0.0427
   62MOL0     H 8540   7.075   3.227   6.638  0.0338  1.1316  0.0553
   62MOL0     H 8541   6.942   3.106   6.476  0.2084 -1.2250  0.1968
   62MOL0     H 8542   6.575   2.840   6.413 -0.1576 -2.4540 -2.3141
   62MOL0     H 8543   6.419   2.707   6.283 -1.8494  0.2394  1.9609
   62MOL0     H 8544   6.067   2.926   6.085  0.9288  1.6266  1.3500
   62MOL0     H 8545   6.048   2.745   6.095  0.1035  0.0379  0.3820
   62MOL0     H 8546   6.099   2.924   6.338  1.8364  0.8488 -1.2462
   62MOL0     H 8547   6.096   2.743   6.330 -1.1170 -1.0531  0.0903
   62MOL0     H 8548   5.861   2.782   6.197 -1.1875 -0.0579  0.0099
   62MOL0     H 8549   5.882   2.770   6.374  1.7695  3.1223  3.4264
   62MOL0     H 8550   5.743   2.969   6.256  1.3017 -0.5610 -2.7897
   62MOL0     H 8551   5.889   3.036   6.209 -2.6449 -0.7388 -2.0776
   62MOL0     H 8552   5.947   3.100   6.618 -0.1894  2.0093  0.5360
   62MOL0     H 8553   6.254   3.069   6.118  1.7148  2.7294 -0.3466
   62MOL0     H 8554   6.479   3.300   6.201  0.0989  0.2954 -0.2989
   62MOL0     H 8555   6.301   3.259   6.175  0.1351 -0.4951  0.4190
   62MOL0     H 8556   6.365   3.290   6.336  0.0842 -2.3143  0.6112
   63MOL0     O 8557   1.060  11.463   1.123 -0.1021 -0.8720 -0.3358
   63MOL0     C 8558   1.039  11.503   1.244 -0.5899  0.1487  0.8899
   63MOL0     O 8559   1.125  11.466   1.346 -0.4488 -0.4534  0.2172
   63MOL0     C 8560   1.255  11.422   1.318 -0.6921  0.0833 -0.2774
   63MOL0     C 8561   1.347  11.468   1.412  0.1369  0.3177  0.3874
   63MOL0     C 8562   1.477  11.420   1.408  0.1911 -0.1167  1.1810
   63MOL0     C 8563   1.519  11.317   1.324 -0.2284 -0.3489 -0.1052
   63MOL0     O 8564   1.641  11.263   1.326  0.0181 -0.7597  0.1177
   63MOL0     C 8565   1.742  11.333   1.404 -0.0357  0.0082 -0.9694
   63MOL0     C 8566   1.876  11.266   1.395 -0.9080 -0.1003  0.6914
   63MOL0     C 8567   1.937  11.294   1.253  0.4866  0.2391  0.2096
   63MOL0     C 8568   2.029  11.177   1.226 -0.6814  0.2636 -0.1470
   63MOL0     C 8569   2.115  11.193   1.100  0.8718 -0.5209 -0.2946
   63MOL0     C 8570   2.041  11.255   0.979 -0.1375 -0.0082  0.9533
   63MOL0     C 8571   1.929  11.171   0.922 -0.4690 -0.0078  0.1318
   63MOL0     C 8572   1.860  11.231   0.797 -0.0160  0.3604  0.1105
   63MOL0     N 8573   1.798  11.363   0.820 -0.6301 -0.2085  0.1358
   63MOL0     C 8574   1.722  11.404   0.938 -0.9826  0.4353 -0.6365
   63MOL0     C 8575   1.699  11.537   0.910 -0.0134  0.0264 -0.0902
   63MOL0     C 8576   1.610  11.618   1.004 -0.8728 -0.2338  1.3209
   63MOL0     C 8577   1.670  11.654   1.135 -0.3650  0.5575 -0.3558
   63MOL0     C 8578   1.800  11.733   1.124  1.3517  0.0418 -0.1246
   63MOL0     C 8579   1.850  11.782   1.258  0.7057 -0.2444  0.1461
   63MOL0     O 8580   1.919  11.672   1.320  0.0203 -0.1202  0.3936
   63MOL0     C 8581   2.038  11.707   1.382 -0.6519 -0.0887 -0.6908
   63MOL0     C 8582   2.042  11.766   1.508  0.4778 -0.3833 -0.4921
   63MOL0     C 8583   2.156  11.829   1.555 -0.4072 -1.0774  1.3649
   63MOL0     C 8584   2.152  11.888   1.694 -0.4793  0.7672 -1.9511
   63MOL0     C 8585   2.272  11.828   1.472  0.7981  0.4316 -0.6586
   63MOL0     C 8586   2.398  11.890   1.512  0.6668  0.6178 -0.3499
   63MOL0     O 8587   2.509  11.823   1.466 -0.0623  0.0727  0.2365
   63MOL0     C 8588   2.619  11.897   1.436 -0.4502  0.1095  0.4002
   63MOL0     C 8589   2.741  11.868   1.509 -0.3469  0.4098  0.7255
   63MOL0     C 8590   2.857  11.947   1.475 -0.2422 -1.0838 -0.3391
   63MOL0     C 8591   2.849  12.053   1.380 -0.7171 -0.3066  0.2329
   63MOL0     O 8592   2.958  12.136   1.369 -0.0424  0.0190  0.5209
   63MOL0     C 8593   3.026  12.137   1.240 -0.6821  0.1577  0.3886
   63MOL0     C 8594   3.167  12.191   1.251  0.3705 -0.2602  0.4615
   63MOL0     C 8595   3.223  12.211   1.116  0.1221 -0.1520 -0.3621
   63MOL0     C 8596   3.370  12.195   1.116 -1.0475 -0.2972 -0.9304
   63MOL0     C 8597   3.437  12.230   0.983  0.9316 -0.1894  0.0140
   63MOL0     C 8598   3.373  12.162   0.866 -0.2819  0.1857  0.3896
   63MOL0     C 8599   3.472  12.131   0.759  0.5672 -0.0921 -0.2500
   63MOL0     C 8600   3.393  12.083   0.628 -0.2412  0.3344 -0.2932
   63MOL0    Cl 8601   3.333  11.923   0.635  0.2047  0.0606  0.1118
   63MOL0     C 8602   2.738  12.072   1.302  1.1484  0.0162 -0.5214
   63MOL0     C 8603   2.629  11.991   1.329 -0.6107 -0.2953 -0.1155
   63MOL0     O 8604   2.402  11.994   1.583 -0.8585 -0.3617  0.4588
   63MOL0     C 8605   2.269  11.758   1.344 -0.1135  0.1123 -0.1968
   63MOL0     C 8606   2.152  11.706   1.299 -0.1938 -0.6589  0.1609
   63MOL0     N 8607   1.768  11.574   0.801 -0.3433 -0.6918 -0.2122
   63MOL0     N 8608   1.832  11.476   0.757 -0.4822 -0.4730 -0.2526
   63MOL0     C 8609   1.422  11.265   1.234  0.4282 -0.2138  0.6482
   63MOL0     C 8610   1.297  11.321   1.229 -0.1421 -0.5498  0.1028
   63MOL0     C 8611   0.938  11.607   1.278 -0.1980  0.6471 -0.3595
   63MOL0     C 8612   0.939  11.650   1.412 -0.0646  0.2733 -0.3648
   63MOL0     C 8613   0.841  11.738   1.460  0.8998  1.2460 -0.3886
   63MOL0     C 8614   0.734  11.788   1.378 -0.6353 -0.9862  0.3821
   63MOL0     O 8615   0.645  11.872   1.436  0.3014  0.3188  0.1203
   63MOL0     C 8616   0.539  11.921   1.352  0.0850 -0.2431  0.0167
   63MOL0     C 8617   0.419  11.975   1.436 -0.7393  0.1443 -0.7447
   63MOL0     C 8618   0.450  12.116   1.499  0.4858 -0.6247  0.0528
   63MOL0     C 8619   0.328  12.180   1.574  0.5128  0.1246 -0.7080
   63MOL0     C 8620   0.237  12.244   1.478  0.2566 -0.1465 -0.0078
   63MOL0     C 8621   0.151  12.290   1.405  0.1746  0.1403 -0.5151
   63MOL0     C 8622   0.738  11.731   1.252  0.6129  0.3143 -0.9232
   63MOL0     C 8623   0.834  11.650   1.199  0.2977 -0.2066  0.3741
   63MOL0     C 8624   0.820  11.616   1.051 -0.9905 -0.4232  0.1389
   63MOL0     H 8625   1.323  11.555   1.473 -0.5427 -0.2390  0.9267
   63MOL0     H 8626   1.548  11.472   1.471  1.6271  1.6694 -1.7077
   63MOL0     H 8627   1.716  11.322   1.509  0.9043 -1.1386 -0.8344
   63MOL0     H 8628   1.748  11.441   1.383 -1.7740  1.0954  3.1520
   63MOL0     H 8629   1.943  11.296   1.476  0.8469 -2.5793  0.2965
   63MOL0     H 8630   1.866  11.157   1.401  1.5836 -0.4449 -0.0368
   63MOL0     H 8631   1.865  11.304   1.171  1.2951 -4.4024 -1.4330
   63MOL0     H 8632   1.980  11.394   1.243  2.0186 -0.5254 -1.3772
   63MOL0     H 8633   2.111  11.170   1.299  2.3886  0.9535 -3.2257
   63MOL0     H 8634   1.969  11.086   1.215  0.3662 -0.4746 -0.0247
   63MOL0     H 8635   2.162  11.101   1.063  0.4549 -0.0886 -1.9534
   63MOL0     H 8636   2.199  11.258   1.124 -1.4868  1.9748  1.7516
   63MOL0     H 8637   2.004  11.353   1.009  0.7196  0.5081  0.3753
   63MOL0     H 8638   2.115  11.278   0.901 -0.4903 -1.9444 -0.0260
   63MOL0     H 8639   1.847  11.148   0.991 -0.4547 -0.2271  0.0741
   63MOL0     H 8640   1.982  11.079   0.895 -1.5441 -1.0654  1.4906
   63MOL0     H 8641   1.915  11.246   0.704  1.2973  0.1978  0.8364
   63MOL0     H 8642   1.780  11.161   0.773  1.4471 -1.8623  1.3235
   63MOL0     H 8643   1.691  11.338   1.018  3.7170 -2.7800 -1.1185
   63MOL0     H 8644   1.512  11.571   1.021 -0.3476 -0.9309  2.5824
   63MOL0     H 8645   1.600  11.711   0.948  3.2138 -0.0499  0.6104
   63MOL0     H 8646   1.596  11.706   1.197  0.6684 -0.7854  2.1695
   63MOL0     H 8647   1.701  11.563   1.189  1.9714  1.4728 -0.0372
   63MOL0     H 8648   1.868  11.664   1.073  0.1130 -1.8111  0.6700
   63MOL0     H 8649   1.770  11.827   1.076  0.8862  1.7899  3.3007
   63MOL0     H 8650   1.904  11.875   1.239  0.7537  0.2170  2.2778
   63MOL0     H 8651   1.767  11.813   1.323 -0.1086  5.1666 -2.8609
   63MOL0     H 8652   1.956  11.769   1.573  0.8334  1.6501 -0.0405
   63MOL0     H 8653   2.056  11.869   1.743  0.6327  2.2739  1.0725
   63MOL0     H 8654   2.169  11.996   1.705 -2.1206  1.0080 -1.5145
   63MOL0     H 8655   2.223  11.845   1.766 -2.2340  3.5201  1.8198
   63MOL0     H 8656   2.742  11.797   1.590 -0.3008 -0.5015 -0.0516
   63MOL0     H 8657   2.948  11.925   1.531 -1.5622 -1.4060  1.8263
   63MOL0     H 8658   3.031  12.036   1.198 -0.7563  0.6250 -0.7790
   63MOL0     H 8659   2.984  12.200   1.162  3.5130 -0.1248 -2.3832
   63MOL0     H 8660   3.162  12.283   1.309  1.1466  0.7237 -0.9654
   63MOL0     H 8661   3.222  12.117   1.310 -3.0496 -3.5576 -0.0966
   63MOL0     H 8662   3.187  12.314   1.109 -0.8228 -0.4232  0.2385
   63MOL0     H 8663   3.176  12.139   1.048 -3.1890  2.5358 -1.2003
   63MOL0     H 8664   3.391  12.091   1.141 -1.6388 -0.4653 -1.1112
   63MOL0     H 8665   3.414  12.258   1.193 -0.2375 -2.0712  0.1032
   63MOL0     H 8666   3.432  12.339   0.970 -1.6276  0.0439  2.1209
   63MOL0     H 8667   3.544  12.206   0.980  0.8388 -0.7278  0.6974
   63MOL0     H 8668   3.296  12.227   0.824  1.3611  2.0875  0.1923
   63MOL0     H 8669   3.331  12.064   0.892  2.0214 -2.0697 -3.3710
   63MOL0     H 8670   3.541  12.049   0.785 -0.6166 -1.0228  0.0670
   63MOL0     H 8671   3.522  12.225   0.737  1.3701 -0.6716 -0.9821
   63MOL0     H 8672   3.462  12.082   0.543  2.1502  1.1498  1.5461
   63MOL0     H 8673   3.309  12.150   0.605 -1.3314 -1.8938 -3.5003
   63MOL0     H 8674   2.726  12.150   1.227 -1.9782  0.0098 -0.1629
   63MOL0     H 8675   2.530  12.008   1.287 -0.7663 -1.4346 -0.2559
   63MOL0     H 8676   2.353  11.766   1.276 -0.5083 -1.9778 -1.0083
   63MOL0     H 8677   2.143  11.661   1.200 -0.5865 -0.2722  0.0129
   63MOL0     H 8678   1.444  11.178   1.173  0.7754  0.6745 -0.5329
   63MOL0     H 8679   1.225  11.275   1.162 -2.9851 -0.1967  2.6746
   63MOL0     H 8680   1.011  11.614   1.484 -0.5824  0.3501  0.2080
   63MOL0     H 8681   0.843  11.758   1.567 -0.0187  0.2393 -0.1749
   63MOL0     H 8682   0.588  11.999   1.292  1.8883  0.2650  2.0400
   63MOL0     H 8683   0.496  11.848   1.282 -0.6921 -0.4365  0.6876
   63MOL0     H 8684   0.412  11.912   1.525  2.0982  1.0823  0.2536
   63MOL0     H 8685   0.326  11.965   1.378 -2.8301 -1.2425  2.5387
   63MOL0     H 8686   0.530  12.097   1.570 -0.3898  0.0430  1.2500
   63MOL0     H 8687   0.487  12.187   1.424 -1.5632  0.0980 -0.3298
   63MOL0     H 8688   0.358  12.254   1.648 -1.9430 -0.4235  0.9823
   63MOL0     H 8689   0.280  12.097   1.627  1.0282 -1.7244 -2.9770
   63MOL0     H 8690   0.070  12.331   1.348  1.1755  0.0896 -2.0388
   63MOL0     H 8691   0.651  11.751   1.190 -0.5129  0.3272  0.6029
   63MOL0     H 8692   0.913  11.591   1.000 -0.2143 -0.7086  1.6476
   63MOL0     H 8693   0.757  11.530   1.027 -1.1007  0.0196 -1.2509
   63MOL0     H 8694   0.772  11.703   1.005 -0.0750  0.5939  1.0455
   64MOL0     O 8695   7.244   8.865   5.559 -0.2915  0.0997 -0.2871
   64MOL0     C 8696   7.156   8.807   5.505  0.1558  0.6180  0.2514
   64MOL0     O 8697   7.032   8.792   5.556  0.2135 -0.0586 -0.5806
   64MOL0     C 8698   7.031   8.778   5.695 -0.2657  0.5459  0.6884
   64MOL0     C 8699   7.036   8.649   5.756  0.2561 -0.2885  0.3429
   64MOL0     C 8700   7.033   8.635   5.892  0.7138 -0.7014 -0.0105
   64MOL0     C 8701   7.032   8.749   5.974  0.1598 -0.2386 -0.7513
   64MOL0     O 8702   7.014   8.730   6.111 -0.2242  0.8976  0.9107
   64MOL0     C 8703   7.114   8.779   6.197 -0.5304  0.2621  0.5992
   64MOL0     C 8704   7.138   8.661   6.301  0.9421  0.1158  0.1464
   64MOL0     C 8705   7.013   8.637   6.396  0.3173  0.7320  0.2871
   64MOL0     C 8706   6.983   8.757   6.485  0.2338 -0.0399  0.0677
   64MOL0     C 8707   6.878   8.721   6.593 -0.0659  0.6334 -0.2454
   64MOL0     C 8708   6.865   8.839   6.693 -0.6297  0.3997  0.1373
   64MOL0     C 8709   6.769   8.797   6.798 -0.0922 -0.8198 -0.0113
   64MOL0     C 8710   6.768   8.887   6.912 -1.2151 -0.4268  0.0248
   64MOL0     N 8711   6.890   8.875   6.994 -0.9588 -0.4575  0.0275
   64MOL0     C 8712   6.928   8.777   7.089 -0.5309 -0.0150  1.0839
   64MOL0     C 8713   7.060   8.798   7.119  0.0892 -0.3802  0.4829
   64MOL0     C 8714   7.156   8.720   7.194  0.2022  0.5021 -0.2642
   64MOL0     C 8715   7.200   8.802   7.310 -0.4407  0.0735 -0.1379
   64MOL0     C 8716   7.338   8.769   7.371 -0.1553 -0.6525 -0.4134
   64MOL0     C 8717   7.380   8.855   7.493 -0.4376  0.3826  0.1894
   64MOL0     O 8718   7.273   8.920   7.562 -0.4347 -0.0756 -0.2906
   64MOL0     C 8719   7.291   9.019   7.653  1.3840  0.2025 -0.1114
   64MOL0     C 8720   7.190   9.043   7.742 -0.1537 -0.8463  0.1604
   64MOL0     C 8721   7.202   9.123   7.854  0.8008  0.2814  0.3062
   64MOL0     C 8722   7.082   9.145   7.948  0.1799 -0.8237  0.3084
   64MOL0     C 8723   7.322   9.199   7.865  0.9105  1.4475  0.9362
   64MOL0     C 8724   7.344   9.306   7.964  0.5487 -0.5545  0.6106
   64MOL0     O 8725   7.445   9.389   7.929  0.0262  0.4235  0.3119
   64MOL0     C 8726   7.483   9.498   8.000 -0.6028 -0.7923 -0.8424
   64MOL0     C 8727   7.619   9.539   8.001  0.6070 -0.3313 -0.0786
   64MOL0     C 8728   7.669   9.654   8.070 -0.2416 -0.0614  1.1748
   64MOL0     C 8729   7.581   9.743   8.122  1.0866  0.0695 -1.5660
   64MOL0     O 8730   7.640   9.861   8.171  0.3378 -0.1960  0.0395
   64MOL0     C 8731   7.560   9.943   8.260 -0.2603  0.4645  0.5496
   64MOL0     C 8732   7.638  10.053   8.322 -0.3619  0.1767 -0.5436
   64MOL0     C 8733   7.688  10.146   8.210 -0.1178 -0.1921 -0.1178
   64MOL0     C 8734   7.754  10.264   8.270 -0.4377  0.1173  0.6213
   64MOL0     C 8735   7.762  10.378   8.176 -0.4228  0.4451  0.0432
   64MOL0     C 8736   7.815  10.507   8.238 -0.5744 -0.2858  0.7408
   64MOL0     C 8737   7.712  10.556   8.341  0.5287 -0.0705 -0.7897
   64MOL0     C 8738   7.753  10.700   8.379 -0.0395 -0.0062  1.0010
   64MOL0    Cl 8739   7.697  10.812   8.246  0.3071  0.0123 -0.0971
   64MOL0     C 8740   7.441   9.700   8.133  0.8531 -1.0254  0.5744
   64MOL0     C 8741   7.404   9.573   8.092 -0.4963  0.7254 -0.6714
   64MOL0     O 8742   7.300   9.296   8.078 -0.0847  0.1149 -0.2407
   64MOL0     C 8743   7.421   9.179   7.769  0.0226 -0.1490  0.4031
   64MOL0     C 8744   7.409   9.081   7.665 -0.5882 -0.4509 -1.5656
   64MOL0     N 8745   7.096   8.903   7.038 -0.0386 -0.4675  0.3094
   64MOL0     N 8746   6.996   8.953   6.974  0.3082 -0.0481  0.6088
   64MOL0     C 8747   7.025   8.879   5.923 -0.8659  0.3528  0.1351
   64MOL0     C 8748   7.031   8.890   5.784 -0.4674  0.6110 -0.6031
   64MOL0     C 8749   7.164   8.749   5.370  0.1169 -1.3111  0.4222
   64MOL0     C 8750   7.041   8.714   5.306 -0.3381  0.1973  0.1753
   64MOL0     C 8751   7.044   8.657   5.177  0.2820 -0.4379  0.1970
   64MOL0     C 8752   7.163   8.645   5.116  0.6751  0.4829 -0.3904
   64MOL0     O 8753   7.170   8.583   4.997  0.3907 -0.2234  0.4393
   64MOL0     C 8754   7.181   8.673   4.877 -0.3401  0.5786  0.3854
   64MOL0     C 8755   7.101   8.802   4.886 -0.0572 -0.2602 -0.5502
   64MOL0     C 8756   7.094   8.872   4.751 -0.3216 -0.3825 -0.1140
   64MOL0     C 8757   7.205   8.974   4.714 -0.7776  1.0775 -0.4372
   64MOL0     C 8758   7.329   8.894   4.698 -0.0762  0.2656  0.3593
   64MOL0     C 8759   7.438   8.836   4.690  0.4040  0.1819  0.5622
   64MOL0     C 8760   7.283   8.683   5.175 -0.4191  0.0544 -0.0805
   64MOL0     C 8761   7.283   8.741   5.302  0.5319 -0.0678 -0.1894
   64MOL0     C 8762   7.413   8.771   5.362 -0.4375 -0.0331  0.0098
   64MOL0     H 8763   7.021   8.565   5.689 -1.2231  1.8304 -2.2088
   64MOL0     H 8764   7.025   8.541   5.946  1.1612  0.1037  1.5166
   64MOL0     H 8765   7.083   8.873   6.243  0.5281  1.3541 -0.8226
   64MOL0     H 8766   7.211   8.795   6.148 -0.4297  1.4763  1.1560
   64MOL0     H 8767   7.168   8.569   6.251 -2.9355 -1.6163  0.6805
   64MOL0     H 8768   7.218   8.693   6.369  1.1640  2.3453 -1.0794
   64MOL0     H 8769   6.924   8.603   6.343  0.7155  1.3984 -0.8562
   64MOL0     H 8770   7.032   8.556   6.467 -3.2077  0.5359  1.2023
   64MOL0     H 8771   7.076   8.780   6.539 -0.2231 -1.1686  1.3948
   64MOL0     H 8772   6.960   8.852   6.436 -2.6015  1.0903  3.1853
   64MOL0     H 8773   6.912   8.638   6.656 -1.5825  1.8540  2.3677
   64MOL0     H 8774   6.778   8.701   6.555  0.5803 -2.2801 -0.6335
   64MOL0     H 8775   6.963   8.856   6.738  0.0035 -0.6279 -0.7797
   64MOL0     H 8776   6.832   8.931   6.643 -1.2972  0.4705  0.6970
   64MOL0     H 8777   6.785   8.694   6.831 -2.8327 -1.1052  0.7011
   64MOL0     H 8778   6.669   8.796   6.752 -1.4752 -4.5078  2.5730
   64MOL0     H 8779   6.773   8.988   6.871  0.6207 -0.2356  0.6417
   64MOL0     H 8780   6.686   8.874   6.984  0.0953 -0.0828  1.6262
   64MOL0     H 8781   6.865   8.699   7.132 -0.8143  0.6510  1.9288
   64MOL0     H 8782   7.240   8.703   7.127 -1.2113  2.3938 -2.6684
   64MOL0     H 8783   7.114   8.625   7.229 -0.1009 -0.3710 -2.8268
   64MOL0     H 8784   7.192   8.909   7.291 -1.0272  0.0164 -0.2286
   64MOL0     H 8785   7.118   8.787   7.381 -1.3029  0.1743 -1.0978
   64MOL0     H 8786   7.335   8.666   7.407 -1.5253  0.1444  1.9356
   64MOL0     H 8787   7.405   8.788   7.287  0.3587 -0.7038 -0.0187
   64MOL0     H 8788   7.437   8.792   7.562  2.0137  0.2598 -1.8019
   64MOL0     H 8789   7.454   8.929   7.461 -0.6702  0.2237 -0.7228
   64MOL0     H 8790   7.104   8.980   7.724  0.1579 -0.8638 -1.3929
   64MOL0     H 8791   7.066   9.250   7.973  2.7889 -0.7443  2.0771
   64MOL0     H 8792   7.084   9.096   8.045 -1.7641 -0.1074  0.7474
   64MOL0     H 8793   6.984   9.123   7.904 -1.4824  2.0173  2.2809
   64MOL0     H 8794   7.681   9.468   7.947  0.5412 -0.0136 -0.5796
   64MOL0     H 8795   7.775   9.676   8.069 -0.6564  2.3484  1.8698
   64MOL0     H 8796   7.482   9.982   8.193 -1.0033 -0.0404  1.0994
   64MOL0     H 8797   7.506   9.893   8.341  0.4272  1.6227  1.7596
   64MOL0     H 8798   7.563  10.101   8.385 -0.5322  1.4656 -1.6737
   64MOL0     H 8799   7.725  10.011   8.374  2.8257  2.6411 -3.3809
   64MOL0     H 8800   7.598  10.175   8.156 -0.7953 -0.5127  0.8186
   64MOL0     H 8801   7.761  10.089   8.152 -1.4156 -2.4258  0.3164
   64MOL0     H 8802   7.848  10.218   8.302 -0.0292 -0.8595 -1.7812
   64MOL0     H 8803   7.697  10.295   8.358 -0.6690  1.3900  0.0433
   64MOL0     H 8804   7.827  10.358   8.091  1.4515  0.9044  1.3147
   64MOL0     H 8805   7.663  10.394   8.133 -0.1208 -2.1983 -1.8268
   64MOL0     H 8806   7.837  10.579   8.159 -0.5794  0.1493  1.1357
   64MOL0     H 8807   7.908  10.495   8.293 -0.8334 -0.0714  1.2348
   64MOL0     H 8808   7.714  10.492   8.431 -3.5447  1.4635  0.6243
   64MOL0     H 8809   7.610  10.553   8.301  0.9411 -1.1852 -1.8175
   64MOL0     H 8810   7.862  10.706   8.384  0.0578  0.3877 -0.7329
   64MOL0     H 8811   7.703  10.726   8.473  0.4033  0.3061  1.1475
   64MOL0     H 8812   7.365   9.752   8.190  1.1442 -1.0905  1.0310
   64MOL0     H 8813   7.307   9.529   8.116  0.2329  0.3319  1.8783
   64MOL0     H 8814   7.518   9.227   7.775  0.6052 -0.9845 -1.4487
   64MOL0     H 8815   7.498   9.073   7.604 -1.1082  0.4376 -2.4622
   64MOL0     H 8816   7.010   8.954   6.000  0.0852 -1.3386  2.0885
   64MOL0     H 8817   7.052   8.983   5.733  0.1910 -0.0780 -1.6024
   64MOL0     H 8818   6.945   8.702   5.356 -1.7569 -0.8788 -2.5858
   64MOL0     H 8819   6.959   8.605   5.134  0.8893 -1.1348 -0.1860
   64MOL0     H 8820   7.283   8.697   4.845 -0.4388  0.3358 -0.1256
   64MOL0     H 8821   7.148   8.608   4.796 -0.2138 -0.2323  0.9733
   64MOL0     H 8822   7.160   8.865   4.953 -0.1874 -1.1475  0.4241
   64MOL0     H 8823   7.002   8.780   4.927 -0.2381  0.3891 -0.6277
   64MOL0     H 8824   7.094   8.791   4.678 -0.5508 -1.6080  1.1800
   64MOL0     H 8825   6.994   8.914   4.735 -0.3166  0.1436  1.0942
   64MOL0     H 8826   7.215   9.049   4.794 -1.6954  1.0830 -0.3155
   64MOL0     H 8827   7.174   9.021   4.620 -0.7152  2.6301  0.2727
   64MOL0     H 8828   7.525   8.776   4.702 -0.9214 -1.7062  1.3394
   64MOL0     H 8829   7.373   8.651   5.124  0.1653 -0.5547  1.2776
   64MOL0     H 8830   7.497   8.759   5.294 -3.1390 -1.0272 -3.4356
   64MOL0     H 8831   7.418   8.880   5.369  0.2774  0.0215 -1.1645
   64MOL0     H 8832   7.428   8.725   5.460  2.0956  0.2662 -0.1832
   65MOL0     O 8833   5.978   5.157   8.422 -0.2138  0.4775  0.4301
   65MOL0     C 8834   5.947   5.159   8.306 -0.4346 -0.1304 -0.6020
   65MOL0     O 8835   6.012   5.091   8.202  0.4259 -0.4535 -0.1923
   65MOL0     C 8836   6.112   5.001   8.224 -0.1287  1.1253 -0.1915
   65MOL0     C 8837   6.211   4.990   8.126  0.8517 -0.5159 -0.1442
   65MOL0     C 8838   6.333   4.927   8.154 -0.0054 -0.0878  0.1045
   65MOL0     C 8839   6.356   4.850   8.264  0.5308 -0.6306  0.8042
   65MOL0     O 8840   6.471   4.777   8.276 -0.1596 -0.5847 -0.8930
   65MOL0     C 8841   6.487   4.665   8.366 -0.1332 -0.6709  0.0907
   65MOL0     C 8842   6.537   4.707   8.504  0.5149  0.3412 -0.2563
   65MOL0     C 8843   6.478   4.623   8.604 -0.5900  0.3632  0.5873
   65MOL0     C 8844   6.539   4.483   8.605 -0.0037  0.0610 -0.0470
   65MOL0     C 8845   6.472   4.395   8.708  0.6499 -0.0213  0.0573
   65MOL0     C 8846   6.498   4.248   8.706  0.2283  0.0306 -0.3595
   65MOL0     C 8847   6.436   4.185   8.830 -0.2049  0.6921 -0.1747
   65MOL0     C 8848   6.477   4.031   8.841 -0.2647 -0.1492  0.5302
   65MOL0     N 8849   6.397   3.974   8.954 -0.9352 -0.2848 -0.0139
   65MOL0     C 8850   6.330   3.857   8.943  0.4641  0.2397 -1.1337
   65MOL0     C 8851   6.300   3.824   9.069 -0.2901  0.4800  1.1514
   65MOL0     C 8852   6.239   3.703   9.110 -0.0356  0.4872  0.4377
   65MOL0     C 8853   6.350   3.603   9.145  0.0432 -0.4470  0.4803
   65MOL0     C 8854   6.287   3.462   9.154 -0.3737 -0.5846  0.5643
   65MOL0     C 8855   6.404   3.361   9.185 -0.1861  0.0185 -0.2118
   65MOL0     O 8856   6.486   3.370   9.078 -0.2586  0.2519  1.4209
   65MOL0     C 8857   6.552   3.249   9.062  0.4569  0.2527  1.1537
   65MOL0     C 8858   6.516   3.157   8.958 -0.0996 -0.4662 -0.7076
   65MOL0     C 8859   6.588   3.038   8.929  0.4964 -0.0466  0.9793
   65MOL0     C 8860   6.531   2.950   8.819  0.6504  0.2121  0.1883
   65MOL0     C 8861   6.714   3.022   8.994 -0.8461 -0.0717 -0.5748
   65MOL0     C 8862   6.823   2.928   8.962  0.9298 -0.0188 -0.0284
   65MOL0     O 8863   6.946   2.953   9.007 -0.2422  0.6371  0.3490
   65MOL0     C 8864   7.056   2.872   8.993 -0.4737 -0.3988 -0.4902
   65MOL0     C 8865   7.063   2.737   8.958 -0.3899 -0.8189 -0.3660
   65MOL0     C 8866   7.186   2.679   8.949 -0.2325  0.3629 -0.4216
   65MOL0     C 8867   7.302   2.746   8.981  0.6381 -0.2921  0.3255
   65MOL0     O 8868   7.429   2.689   8.982  0.1897  0.0356  0.0437
   65MOL0     C 8869   7.426   2.547   9.002  0.2549  0.7409 -0.4611
   65MOL0     C 8870   7.547   2.503   9.091  0.1626  0.3646 -0.0777
   65MOL0     C 8871   7.674   2.542   9.012 -0.0110 -0.7912  0.3950
   65MOL0     C 8872   7.739   2.422   8.940 -0.0935 -0.0782 -0.4279
   65MOL0     C 8873   7.669   2.357   8.823 -0.0246  0.3304 -0.3305
   65MOL0     C 8874   7.736   2.229   8.775 -0.3129  1.0162 -0.1767
   65MOL0     C 8875   7.667   2.162   8.648  0.4065  0.0188  0.3249
   65MOL0     C 8876   7.632   2.016   8.671 -0.5259  0.5081  0.1526
   65MOL0    Cl 8877   7.780   1.934   8.702 -0.1277 -0.4355 -0.3348
   65MOL0     C 8878   7.298   2.882   9.010 -0.5180 -0.2573  0.9198
   65MOL0     C 8879   7.172   2.948   9.012  0.4255 -0.0856  0.7813
   65MOL0     O 8880   6.786   2.831   8.890  0.4517  0.3420 -0.0048
   65MOL0     C 8881   6.747   3.100   9.105 -0.3694 -0.4471 -0.2506
   65MOL0     C 8882   6.667   3.210   9.137  0.4912 -0.1789 -0.2944
   65MOL0     N 8883   6.345   3.925   9.154 -0.3507  0.5051 -0.6443
   65MOL0     N 8884   6.403   4.016   9.084 -0.2285  0.6099  0.1319
   65MOL0     C 8885   6.256   4.847   8.356  0.4473 -0.7629 -0.4618
   65MOL0     C 8886   6.136   4.923   8.338 -0.2223 -0.1598 -0.9399
   65MOL0     C 8887   5.846   5.262   8.275 -0.2905  0.4147 -0.7414
   65MOL0     C 8888   5.861   5.342   8.158  0.6775  0.1037 -0.7230
   65MOL0     C 8889   5.774   5.448   8.136 -0.6843 -0.2958 -0.3316
   65MOL0     C 8890   5.668   5.479   8.220 -0.8865  0.1017 -0.1004
   65MOL0     O 8891   5.580   5.578   8.184  0.3426  0.3264 -0.0140
   65MOL0     C 8892   5.465   5.618   8.263 -0.1333 -0.6675 -0.5347
   65MOL0     C 8893   5.521   5.703   8.375  0.1495  0.4731  0.1027
   65MOL0     C 8894   5.426   5.825   8.415  0.4901 -0.0967  0.1583
   65MOL0     C 8895   5.496   5.921   8.511 -0.5547 -0.9488 -0.4622
   65MOL0     C 8896   5.543   5.849   8.635 -0.5640  0.3204  0.4204
   65MOL0     C 8897   5.588   5.778   8.727 -0.9271 -0.5633  0.5229
   65MOL0     C 8898   5.653   5.390   8.333  0.5148  0.0593  0.0677
   65MOL0     C 8899   5.739   5.288   8.359 -0.4859  0.2027  0.8815
   65MOL0     C 8900   5.693   5.192   8.461  0.0966  1.1879  0.1890
   65MOL0     H 8901   6.204   5.065   8.048  0.3790  2.7424  2.8146
   65MOL0     H 8902   6.410   4.937   8.078  0.0010 -3.7736 -0.5621
   65MOL0     H 8903   6.576   4.616   8.326  1.4205  0.8979  1.4799
   65MOL0     H 8904   6.397   4.603   8.366 -0.7472  0.1924  0.7531
   65MOL0     H 8905   6.647   4.711   8.504  0.5139  0.5388  0.9528
   65MOL0     H 8906   6.514   4.812   8.523  1.7184  0.5009  0.4721
   65MOL0     H 8907   6.494   4.669   8.702  1.5821 -0.9811  0.9295
   65MOL0     H 8908   6.370   4.606   8.593 -0.5262  0.0334  0.4632
   65MOL0     H 8909   6.544   4.432   8.509 -1.3231  1.4670 -0.9014
   65MOL0     H 8910   6.644   4.499   8.629  0.6003 -0.2158 -2.2901
   65MOL0     H 8911   6.365   4.414   8.722  0.9281  0.2507  2.2071
   65MOL0     H 8912   6.514   4.438   8.800  1.5061  0.6321 -0.6162
   65MOL0     H 8913   6.456   4.206   8.614 -0.0524 -2.2106  0.7202
   65MOL0     H 8914   6.605   4.227   8.700 -0.3060 -2.9817 -0.8088
   65MOL0     H 8915   6.328   4.187   8.847 -0.4314  0.1859 -1.4238
   65MOL0     H 8916   6.486   4.234   8.914  2.8124 -3.1360  0.5801
   65MOL0     H 8917   6.453   3.987   8.744 -0.8502  2.7805 -0.7618
   65MOL0     H 8918   6.578   4.017   8.881  0.9732  2.2049 -1.5441
   65MOL0     H 8919   6.302   3.812   8.849 -1.7909 -1.6619  0.3345
   65MOL0     H 8920   6.184   3.657   9.027 -1.9593  1.5054  1.0914
   65MOL0     H 8921   6.172   3.724   9.193 -4.0319  0.4598 -2.4995
   65MOL0     H 8922   6.427   3.613   9.068  1.8085  5.0837  2.4476
   65MOL0     H 8923   6.408   3.641   9.230 -1.1651  2.0111  0.3076
   65MOL0     H 8924   6.208   3.439   9.227  0.0441 -2.7991  0.4141
   65MOL0     H 8925   6.262   3.424   9.055  4.5105  1.0445 -1.5923
   65MOL0     H 8926   6.462   3.387   9.274  1.7172 -0.8696 -1.1527
   65MOL0     H 8927   6.360   3.262   9.201 -3.3562  1.3125 -0.0812
   65MOL0     H 8928   6.419   3.180   8.914 -1.1640  0.7549  2.0489
   65MOL0     H 8929   6.541   2.846   8.854  1.5103 -1.5087 -4.4771
   65MOL0     H 8930   6.570   2.958   8.717  0.2038 -1.0447 -0.0943
   65MOL0     H 8931   6.425   2.972   8.807  0.6929 -0.8435 -2.9972
   65MOL0     H 8932   6.975   2.692   8.913 -0.8336 -0.7892  0.4504
   65MOL0     H 8933   7.183   2.574   8.922  1.3757  0.2007 -0.0189
   65MOL0     H 8934   7.337   2.520   9.059  0.7975 -2.7061 -1.0628
   65MOL0     H 8935   7.425   2.498   8.904  1.5441 -0.9636  0.3213
   65MOL0     H 8936   7.548   2.545   9.192  1.6388 -0.6618  0.3641
   65MOL0     H 8937   7.547   2.394   9.104 -1.9544  0.4558  1.2366
   65MOL0     H 8938   7.744   2.575   9.089 -0.3953 -0.9154  0.8061
   65MOL0     H 8939   7.658   2.618   8.935 -0.4524  0.1761  1.4116
   65MOL0     H 8940   7.754   2.339   9.011 -2.2584 -0.9953 -0.9367
   65MOL0     H 8941   7.842   2.452   8.921  0.0094 -1.0032 -1.4421
   65MOL0     H 8942   7.562   2.346   8.840  0.2836 -2.9439  0.2377
   65MOL0     H 8943   7.682   2.439   8.751 -0.4554  2.8141  2.2484
   65MOL0     H 8944   7.745   2.152   8.852  1.5954  1.2711 -0.0848
   65MOL0     H 8945   7.835   2.257   8.736  1.0670 -1.5632  1.2033
   65MOL0     H 8946   7.732   2.171   8.561  2.2169 -1.1397  1.4947
   65MOL0     H 8947   7.578   2.220   8.621  0.4009  0.3917  1.1248
   65MOL0     H 8948   7.585   1.967   8.585  1.6803 -0.9018 -0.3273
   65MOL0     H 8949   7.565   2.014   8.758 -0.7922  0.0232 -0.0603
   65MOL0     H 8950   7.390   2.933   9.035 -2.0296  2.8486  0.5940
   65MOL0     H 8951   7.170   3.049   9.052 -1.9835  0.5327 -0.7131
   65MOL0     H 8952   6.829   3.084   9.173 -1.5879 -0.9120  1.1604
   65MOL0     H 8953   6.706   3.276   9.215  3.8009 -0.4651 -1.5461
   65MOL0     H 8954   6.260   4.795   8.451 -0.5012 -0.6571 -0.3525
   65MOL0     H 8955   6.058   4.921   8.414  1.3198 -3.2539  0.7477
   65MOL0     H 8956   5.947   5.310   8.099  2.0628 -1.2972  1.8458
   65MOL0     H 8957   5.808   5.513   8.056  2.9180 -1.1518  0.3349
   65MOL0     H 8958   5.413   5.690   8.199  2.5238  3.0507  1.1052
   65MOL0     H 8959   5.394   5.544   8.301 -0.9833  1.7003  2.9866
   65MOL0     H 8960   5.615   5.744   8.339 -0.0838  0.5924 -0.3891
   65MOL0     H 8961   5.537   5.640   8.463  1.4196  2.9138  1.7152
   65MOL0     H 8962   5.398   5.885   8.327  0.5066 -2.2043 -1.3603
   65MOL0     H 8963   5.337   5.778   8.458 -0.4672  0.2110 -1.3958
   65MOL0     H 8964   5.431   6.003   8.542  0.5285 -0.3907  0.4247
   65MOL0     H 8965   5.588   5.957   8.464 -0.7424  0.7506  0.4040
   65MOL0     H 8966   5.611   5.707   8.803 -3.8862 -4.1187 -1.5598
   65MOL0     H 8967   5.566   5.408   8.395  1.2478  4.4187  0.1542
   65MOL0     H 8968   5.585   5.196   8.472  0.1668  2.6641  0.5966
   65MOL0     H 8969   5.709   5.090   8.427  1.6607  1.7293 -0.8189
   65MOL0     H 8970   5.737   5.224   8.556  1.1910 -1.6039  0.7314
   66MOL0     O 8971   7.158   1.099   3.387 -0.1223  0.0885  0.0783
   66MOL0     C 8972   7.231   1.107   3.289  0.7397  1.0097  0.1088
   66MOL0     O 8973   7.318   1.010   3.245  0.1969 -0.5603 -0.4749
   66MOL0     C 8974   7.323   0.879   3.299 -0.1482 -0.0611 -0.8028
   66MOL0     C 8975   7.248   0.820   3.404  0.6658 -0.4575  1.2340
   66MOL0     C 8976   7.264   0.683   3.436 -0.1918 -0.0323  0.0020
   66MOL0     C 8977   7.366   0.603   3.381 -0.1933 -0.6441  0.0513
   66MOL0     O 8978   7.385   0.474   3.415  0.6643  0.2843  0.1223
   66MOL0     C 8979   7.508   0.437   3.489  0.3238  0.4152  0.7302
   66MOL0     C 8980   7.503   0.300   3.564 -0.8232 -0.3993 -0.3439
   66MOL0     C 8981   7.492   0.175   3.467 -0.3338 -0.1707 -0.1472
   66MOL0     C 8982   7.415   0.058   3.521 -0.5540 -0.5921 -0.3799
   66MOL0     C 8983   7.440  -0.068   3.437 -0.1023 -0.6258 -0.1162
   66MOL0     C 8984   7.349  -0.186   3.494 -0.8615  0.4651  0.3357
   66MOL0     C 8985   7.339  -0.314   3.394  0.2240 -0.5060  0.5337
   66MOL0     C 8986   7.484  -0.366   3.362 -0.9643  0.3606 -0.1948
   66MOL0     N 8987   7.555  -0.413   3.480  0.0808 -0.2742 -0.4182
   66MOL0     C 8988   7.517  -0.512   3.562 -0.2090  1.0389  0.1939
   66MOL0     C 8989   7.617  -0.517   3.655 -0.3530  0.4508  0.3458
   66MOL0     C 8990   7.634  -0.612   3.770  0.2138  0.3395 -0.2066
   66MOL0     C 8991   7.522  -0.606   3.878 -0.4149  0.3172  0.1455
   66MOL0     C 8992   7.525  -0.473   3.963 -0.1270  0.4379  0.3862
   66MOL0     C 8993   7.480  -0.485   4.110 -0.3382 -0.0609 -0.3689
   66MOL0     O 8994   7.370  -0.573   4.137 -0.0577  0.4973 -0.0675
   66MOL0     C 8995   7.321  -0.569   4.261  0.0306  0.4586  0.5355
   66MOL0     C 8996   7.346  -0.477   4.367 -0.9319  0.3641  0.0452
   66MOL0     C 8997   7.263  -0.474   4.482 -0.5606 -0.0816 -0.5313
   66MOL0     C 8998   7.302  -0.392   4.603  0.3349 -0.7809 -0.3428
   66MOL0     C 8999   7.154  -0.560   4.497  0.8479  0.7214  0.1740
   66MOL0     C 9000   7.067  -0.567   4.617  0.0987 -0.8135  0.8247
   66MOL0     O 9001   7.003  -0.679   4.646  0.8640  0.4470 -1.1122
   66MOL0     C 9002   6.920  -0.709   4.759 -0.3595 -0.8611  0.0144
   66MOL0     C 9003   6.788  -0.677   4.753  0.4233  0.7435 -0.0669
   66MOL0     C 9004   6.699  -0.727   4.850 -0.0755  0.1880  0.2395
   66MOL0     C 9005   6.744  -0.824   4.955 -0.2628 -0.2496 -0.8425
   66MOL0     O 9006   6.658  -0.883   5.041 -0.3939 -0.5263  0.4678
   66MOL0     C 9007   6.529  -0.835   5.065 -0.0314  0.0434 -0.0420
   66MOL0     C 9008   6.523  -0.711   5.151 -0.0454  0.8470 -0.2420
   66MOL0     C 9009   6.578  -0.736   5.295 -0.0600 -1.1929 -0.4490
   66MOL0     C 9010   6.490  -0.828   5.382  0.1256 -0.1430  1.1546
   66MOL0     C 9011   6.563  -0.867   5.499 -0.2704 -0.7469 -0.0938
   66MOL0     C 9012   6.508  -0.993   5.568 -0.1450 -0.5590 -0.1655
   66MOL0     C 9013   6.404  -0.964   5.680 -0.0893  1.0314 -0.5530
   66MOL0     C 9014   6.356  -1.101   5.711  0.9307  0.8252 -0.2179
   66MOL0    Cl 9015   6.240  -1.158   5.590  0.8093  0.5955 -0.3310
   66MOL0     C 9016   6.879  -0.862   4.957 -0.5983 -0.3828  0.3004
   66MOL0     C 9017   6.970  -0.801   4.862  0.3356  0.3321  0.2694
   66MOL0     O 9018   7.043  -0.457   4.672  0.5062 -0.7215  0.3760
   66MOL0     C 9019   7.136  -0.649   4.390 -0.2218 -0.0151  0.4622
   66MOL0     C 9020   7.209  -0.648   4.277 -0.1383 -0.3312  1.0659
   66MOL0     N 9021   7.719  -0.421   3.632  0.6136  0.7597 -0.1985
   66MOL0     N 9022   7.681  -0.363   3.521  0.6105 -0.2078 -0.6554
   66MOL0     C 9023   7.443   0.669   3.288  0.0825  0.5915  0.3542
   66MOL0     C 9024   7.424   0.797   3.244 -0.2435 -0.4660  0.2628
   66MOL0     C 9025   7.229   1.243   3.232 -0.0395 -0.3601  1.2197
   66MOL0     C 9026   7.114   1.327   3.237  0.1095 -0.0168 -0.3821
   66MOL0     C 9027   7.107   1.455   3.187 -0.2197 -0.2481  0.0333
   66MOL0     C 9028   7.222   1.513   3.130 -0.0453  0.0739  0.1647
   66MOL0     O 9029   7.210   1.644   3.089  0.2445  0.0431 -0.0978
   66MOL0     C 9030   7.336   1.709   3.058  0.3207 -0.0095  0.9180
   66MOL0     C 9031   7.316   1.844   2.988 -0.6632  0.3380 -0.6644
   66MOL0     C 9032   7.300   1.818   2.835 -0.1917  0.7665 -0.1629
   66MOL0     C 9033   7.270   1.952   2.778  0.6054 -0.6892 -0.0472
   66MOL0     C 9034   7.218   1.959   2.640 -0.0115  0.2217  0.0896
   66MOL0     C 9035   7.147   1.941   2.544  0.9846  0.2714 -0.4125
   66MOL0     C 9036   7.340   1.440   3.152 -0.0649  0.6017  0.7307
   66MOL0     C 9037   7.343   1.307   3.193 -0.2734  0.7915  0.1668
   66MOL0     C 9038   7.483   1.244   3.211 -0.2403 -1.0304 -0.0980
   66MOL0     H 9039   7.170   0.871   3.459  1.8351  1.3211  1.3397
   66MOL0     H 9040   7.190   0.646   3.505  1.1123 -0.4286  1.2440
   66MOL0     H 9041   7.540   0.511   3.564  0.5920  2.7466 -1.5489
   66MOL0     H 9042   7.584   0.435   3.411  0.2981  2.0439  0.6169
   66MOL0     H 9043   7.590   0.276   3.626 -1.3503 -1.8172 -0.1110
   66MOL0     H 9044   7.419   0.292   3.634  2.2010 -2.0626  3.4648
   66MOL0     H 9045   7.452   0.210   3.371 -2.7432 -1.0547  0.4588
   66MOL0     H 9046   7.599   0.156   3.451 -0.0770  1.2305 -0.3072
   66MOL0     H 9047   7.434   0.040   3.627  1.9815  1.7689 -0.3184
   66MOL0     H 9048   7.307   0.076   3.515 -1.0159 -3.2637 -1.0013
   66MOL0     H 9049   7.545  -0.096   3.450 -0.2083 -1.3548 -0.7361
   66MOL0     H 9050   7.423  -0.054   3.330  0.9982  1.2843 -0.0833
   66MOL0     H 9051   7.384  -0.226   3.589 -1.8817 -2.3561 -0.3567
   66MOL0     H 9052   7.247  -0.149   3.513 -1.4569  0.3506 -2.2505
   66MOL0     H 9053   7.296  -0.279   3.299 -0.4499 -0.1538  0.9612
   66MOL0     H 9054   7.276  -0.397   3.427 -2.9947  1.0995 -1.0803
   66MOL0     H 9055   7.470  -0.457   3.303  0.3777 -0.0586  0.0958
   66MOL0     H 9056   7.557  -0.303   3.310 -1.3400  1.4556  0.5701
   66MOL0     H 9057   7.433  -0.580   3.561 -1.0285  2.0249 -0.0619
   66MOL0     H 9058   7.727  -0.607   3.828 -0.6740  0.2116  1.2907
   66MOL0     H 9059   7.620  -0.714   3.734  1.6228 -0.2314  0.7589
   66MOL0     H 9060   7.432  -0.615   3.817  1.4963  2.8210 -3.3859
   66MOL0     H 9061   7.534  -0.695   3.941 -0.2532  0.1227 -0.1578
   66MOL0     H 9062   7.631  -0.449   3.978  0.1654 -0.5382 -0.0191
   66MOL0     H 9063   7.482  -0.382   3.920  0.0247  0.7818  0.9492
   66MOL0     H 9064   7.571  -0.513   4.164  0.3646 -1.7683 -2.2795
   66MOL0     H 9065   7.446  -0.386   4.140  0.2358  0.3407 -1.0164
   66MOL0     H 9066   7.433  -0.412   4.373  2.0669 -3.4124  0.7045
   66MOL0     H 9067   7.224  -0.319   4.626  1.2393 -0.5199  2.2139
   66MOL0     H 9068   7.398  -0.339   4.598  0.0390 -0.1916  0.1240
   66MOL0     H 9069   7.302  -0.466   4.683  2.9493 -3.0447 -2.2407
   66MOL0     H 9070   6.752  -0.626   4.664 -1.9834 -3.1246 -1.6019
   66MOL0     H 9071   6.594  -0.698   4.855  0.2668  1.3239  3.7746
   66MOL0     H 9072   6.471  -0.815   4.974 -0.0560 -1.0029 -0.2730
   66MOL0     H 9073   6.478  -0.916   5.118 -0.6368 -0.8070 -1.8175
   66MOL0     H 9074   6.566  -0.623   5.103  1.6448  1.4756  2.2460
   66MOL0     H 9075   6.420  -0.675   5.164 -0.4227 -1.0312  2.9414
   66MOL0     H 9076   6.590  -0.643   5.352  5.5263  0.0327 -2.9011
   66MOL0     H 9077   6.682  -0.771   5.293  0.1041 -0.8627  0.9830
   66MOL0     H 9078   6.480  -0.924   5.330  2.9289 -0.2648  0.6564
   66MOL0     H 9079   6.395  -0.783   5.410  0.7436  3.6137 -1.8812
   66MOL0     H 9080   6.665  -0.890   5.464 -1.4384 -0.9114 -3.8883
   66MOL0     H 9081   6.580  -0.782   5.565  1.6757  1.8683 -3.5720
   66MOL0     H 9082   6.586  -1.060   5.605  0.6636  1.0254  1.1622
   66MOL0     H 9083   6.461  -1.048   5.487  1.2733 -3.1168  0.6193
   66MOL0     H 9084   6.317  -0.904   5.651 -0.2469  0.0854 -2.1796
   66MOL0     H 9085   6.450  -0.919   5.768 -4.5836  0.1191  2.6339
   66MOL0     H 9086   6.303  -1.095   5.807  0.2631 -3.0572 -0.1560
   66MOL0     H 9087   6.439  -1.168   5.734  1.1446  2.1095  3.2142
   66MOL0     H 9088   6.921  -0.932   5.029  0.0112  1.5821  1.9671
   66MOL0     H 9089   7.073  -0.836   4.860  0.8102  1.6396 -2.5229
   66MOL0     H 9090   7.061  -0.728   4.388  0.1877 -0.4170  0.5993
   66MOL0     H 9091   7.196  -0.716   4.193  1.9678 -2.4047  2.3139
   66MOL0     H 9092   7.522   0.619   3.234  2.2291  0.9798  2.9002
   66MOL0     H 9093   7.490   0.840   3.170 -2.7543  0.3337 -1.6417
   66MOL0     H 9094   7.022   1.279   3.268  0.4500 -0.6012 -0.2528
   66MOL0     H 9095   7.023   1.523   3.176  0.4716  0.5026 -0.7309
   66MOL0     H 9096   7.388   1.731   3.152  1.5155  0.4010  0.1912
   66MOL0     H 9097   7.397   1.639   2.999 -0.3786 -0.8172  1.1307
   66MOL0     H 9098   7.406   1.904   3.003 -1.6601  2.8322 -3.6767
   66MOL0     H 9099   7.237   1.901   3.037  0.9331  0.2570  2.1891
   66MOL0     H 9100   7.386   1.790   2.774 -1.2098  3.0219 -2.8537
   66MOL0     H 9101   7.218   1.747   2.818  0.2863 -0.0983  1.0135
   66MOL0     H 9102   7.350   2.026   2.794 -0.6638  0.2287  2.8980
   66MOL0     H 9103   7.189   1.988   2.843  1.0724  3.2019 -1.3657
   66MOL0     H 9104   7.088   1.917   2.459  2.7674 -0.5899 -1.4697
   66MOL0     H 9105   7.439   1.478   3.126 -0.2334 -0.7562 -2.1774
   66MOL0     H 9106   7.494   1.174   3.294 -1.0325  0.7611  1.6131
   66MOL0     H 9107   7.495   1.185   3.120 -0.5605 -3.2329  1.2073
   66MOL0     H 9108   7.563   1.319   3.218  1.4634 -2.9317  2.6861
   67MOL0     O 9109   5.195   5.196   6.717  1.1214 -0.6906 -0.3970
   67MOL0     C 9110   5.096   5.265   6.706 -0.3457  0.0110 -0.3174
   67MOL0     O 9111   5.063   5.362   6.609 -0.2884  0.4267 -0.6408
   67MOL0     C 9112   5.126   5.358   6.489 -1.1036  0.4965 -0.5299
   67MOL0     C 9113   5.174   5.241   6.432  0.0331 -0.1162 -0.9584
   67MOL0     C 9114   5.248   5.235   6.316  0.9965 -0.3683 -0.6155
   67MOL0     C 9115   5.266   5.356   6.248  0.3469 -0.6497 -0.2254
   67MOL0     O 9116   5.333   5.356   6.130 -0.8954 -0.4521 -0.0521
   67MOL0     C 9117   5.475   5.354   6.149 -0.2770 -0.3230 -0.4517
   67MOL0     C 9118   5.529   5.268   6.030 -0.6458 -0.5778 -0.5604
   67MOL0     C 9119   5.681   5.250   6.076 -0.6202 -0.4903  0.4094
   67MOL0     C 9120   5.772   5.157   5.991 -0.2417 -0.0098  0.3640
   67MOL0     C 9121   5.875   5.227   5.907 -0.4775  0.1225  0.6532
   67MOL0     C 9122   5.823   5.306   5.788  0.8027  0.2907 -0.3513
   67MOL0     C 9123   5.940   5.333   5.684 -0.3937  0.1135 -0.6109
   67MOL0     C 9124   5.887   5.354   5.545 -0.3514  0.0984  0.2663
   67MOL0     N 9125   5.813   5.476   5.523  0.1876  0.5117  0.0227
   67MOL0     C 9126   5.872   5.599   5.511 -0.3770  0.3676  0.2960
   67MOL0     C 9127   5.765   5.684   5.498  0.4876  0.3712 -0.3476
   67MOL0     C 9128   5.775   5.824   5.452 -0.0945 -0.0972  0.5901
   67MOL0     C 9129   5.743   5.806   5.302 -1.0885 -0.5777  0.4938
   67MOL0     C 9130   5.751   5.936   5.223  0.7847 -0.0351 -0.8643
   67MOL0     C 9131   5.891   5.988   5.192  0.5744  0.0621 -0.4482
   67MOL0     O 9132   5.960   5.876   5.132 -0.2493 -0.3673  0.2266
   67MOL0     C 9133   5.938   5.853   5.000  0.4225  0.4537 -0.4300
   67MOL0     C 9134   5.925   5.946   4.894 -0.8726  0.8245 -0.7516
   67MOL0     C 9135   5.907   5.908   4.762 -0.1683 -0.3437 -0.0202
   67MOL0     C 9136   5.900   6.029   4.663  0.5724 -0.1919  0.2666
   67MOL0     C 9137   5.895   5.772   4.739  0.3716  0.6679 -0.0229
   67MOL0     C 9138   5.858   5.721   4.599  0.2371  0.2461  1.3724
   67MOL0     O 9139   5.879   5.582   4.583  0.0145  0.2054  0.2585
   67MOL0     C 9140   5.862   5.528   4.458  0.0955 -0.2608 -0.2741
   67MOL0     C 9141   5.954   5.561   4.353 -0.5468  1.0247  0.0180
   67MOL0     C 9142   5.948   5.495   4.231 -0.2197 -0.2295 -0.3178
   67MOL0     C 9143   5.849   5.395   4.196  0.5769 -0.5881 -0.0562
   67MOL0     O 9144   5.850   5.329   4.069  0.6845 -0.2872 -0.5342
   67MOL0     C 9145   5.806   5.189   4.060  0.4710 -0.9624  0.0439
   67MOL0     C 9146   5.831   5.132   3.922  0.6043 -0.1458  0.9176
   67MOL0     C 9147   5.741   5.191   3.812  0.2699 -0.1935 -0.3639
   67MOL0     C 9148   5.835   5.284   3.722  0.2233 -0.0607  1.0780
   67MOL0     C 9149   5.751   5.401   3.662 -0.3295  0.2979 -1.1385
   67MOL0     C 9150   5.645   5.342   3.562 -0.9721 -0.5024  0.4066
   67MOL0     C 9151   5.583   5.454   3.470 -1.1215  0.1722  0.2890
   67MOL0     C 9152   5.536   5.398   3.327  0.1306  0.4650  0.3028
   67MOL0    Cl 9153   5.680   5.385   3.233  0.1359  0.1413  0.3823
   67MOL0     C 9154   5.758   5.365   4.296 -0.0957  0.2577  0.1986
   67MOL0     C 9155   5.765   5.429   4.430  0.0788  0.5381 -0.3023
   67MOL0     O 9156   5.792   5.793   4.523 -0.2062  0.9304  0.2449
   67MOL0     C 9157   5.927   5.673   4.838  0.2460  0.2837 -0.0712
   67MOL0     C 9158   5.933   5.717   4.969 -0.0992  0.4708 -0.8924
   67MOL0     N 9159   5.646   5.610   5.523  0.6779 -0.7654  0.3080
   67MOL0     N 9160   5.678   5.488   5.554 -0.4591  0.1163 -0.4800
   67MOL0     C 9161   5.204   5.476   6.297  0.1840 -0.6058  0.3846
   67MOL0     C 9162   5.151   5.475   6.422 -0.0795  0.3297 -0.0029
   67MOL0     C 9163   4.997   5.231   6.803 -0.2985 -0.1972  0.3627
   67MOL0     C 9164   4.864   5.215   6.763  0.8125  0.0159 -0.4555
   67MOL0     C 9165   4.761   5.191   6.856  0.0913  0.4134 -0.6261
   67MOL0     C 9166   4.787   5.172   6.989 -0.0085  1.5520 -0.4035
   67MOL0     O 9167   4.675   5.145   7.063 -0.7317 -0.0018 -0.3876
   67MOL0     C 9168   4.697   5.075   7.185  0.0613 -0.2116 -0.1505
   67MOL0     C 9169   4.561   5.033   7.242 -0.4840 -0.3945 -0.4842
   67MOL0     C 9170   4.471   4.976   7.134  0.0582 -0.7784  0.7472
   67MOL0     C 9171   4.329   4.938   7.187  0.4025  0.5334 -0.1628
   67MOL0     C 9172   4.259   5.055   7.226 -0.1413 -0.5437 -0.6915
   67MOL0     C 9173   4.183   5.145   7.268 -0.7703 -0.5771  0.1215
   67MOL0     C 9174   4.921   5.174   7.033 -0.1264  0.4003 -0.1186
   67MOL0     C 9175   5.018   5.212   6.944 -0.6808 -0.2356 -0.7819
   67MOL0     C 9176   5.154   5.229   7.008  0.5147  0.0781 -0.0702
   67MOL0     H 9177   5.168   5.144   6.481 -0.8120 -0.0882 -0.9995
   67MOL0     H 9178   5.290   5.139   6.288  1.3782 -1.1329  2.2835
   67MOL0     H 9179   5.503   5.297   6.238 -2.3564 -1.1791 -0.2956
   67MOL0     H 9180   5.519   5.453   6.167  1.8756 -1.4111  0.6220
   67MOL0     H 9181   5.464   5.180   6.020 -1.8775  0.5352 -3.2108
   67MOL0     H 9182   5.541   5.322   5.936 -0.2928  0.0849 -0.1381
   67MOL0     H 9183   5.737   5.340   6.102 -0.3921 -0.7623  0.8858
   67MOL0     H 9184   5.678   5.201   6.174  3.5317 -1.5526  0.1758
   67MOL0     H 9185   5.824   5.085   6.054  2.2305  2.3120  1.1588
   67MOL0     H 9186   5.708   5.106   5.918  0.7277 -2.5842  1.1979
   67MOL0     H 9187   5.949   5.152   5.877 -2.0422 -1.5814  0.8678
   67MOL0     H 9188   5.939   5.293   5.967 -0.6811  2.8581 -1.9049
   67MOL0     H 9189   5.750   5.246   5.733  1.1547 -0.5674  0.1027
   67MOL0     H 9190   5.779   5.404   5.811  0.8115  0.7384 -2.0634
   67MOL0     H 9191   6.020   5.259   5.669  0.7168  1.5549 -2.2113
   67MOL0     H 9192   5.990   5.424   5.722 -1.5675  1.3657 -1.9636
   67MOL0     H 9193   5.965   5.352   5.468 -1.5749 -0.4843 -0.9959
   67MOL0     H 9194   5.821   5.277   5.505  0.9928 -0.0558 -1.7745
   67MOL0     H 9195   5.976   5.628   5.495  0.3911 -1.3804  1.8123
   67MOL0     H 9196   5.881   5.850   5.459 -0.3507  0.5428  2.9382
   67MOL0     H 9197   5.718   5.896   5.511 -1.0698  1.4583 -2.0670
   67MOL0     H 9198   5.814   5.738   5.254  0.3981  1.9772 -1.1607
   67MOL0     H 9199   5.644   5.762   5.287 -1.7387  0.8622  0.4020
   67MOL0     H 9200   5.702   5.919   5.127 -2.8819  0.3616  0.7585
   67MOL0     H 9201   5.688   6.008   5.276 -1.0052 -1.9708 -0.2362
   67MOL0     H 9202   5.885   6.084   5.139  0.9327  1.0143  1.1550
   67MOL0     H 9203   5.946   6.014   5.283  0.4441  2.1224 -0.9051
   67MOL0     H 9204   5.950   6.051   4.911 -1.9702  0.7512  1.7333
   67MOL0     H 9205   5.984   6.015   4.594  0.4024  0.0472  0.0121
   67MOL0     H 9206   5.913   6.126   4.714  5.3189 -1.4097  1.9487
   67MOL0     H 9207   5.807   6.035   4.606  0.3430 -0.4820  0.6116
   67MOL0     H 9208   6.039   5.623   4.380 -0.3289  0.8085 -0.1742
   67MOL0     H 9209   6.021   5.533   4.160 -1.5192  2.2823 -0.4604
   67MOL0     H 9210   5.869   5.134   4.130 -0.3320  0.9360  2.3937
   67MOL0     H 9211   5.700   5.169   4.081  0.4543 -4.4621 -2.6064
   67MOL0     H 9212   5.937   5.149   3.902  0.7081  0.4985  1.9207
   67MOL0     H 9213   5.802   5.027   3.915 -1.6824  0.4854  0.0706
   67MOL0     H 9214   5.657   5.252   3.847  0.3122 -0.8636  0.9621
   67MOL0     H 9215   5.693   5.108   3.760  0.0938 -1.2775  1.4342
   67MOL0     H 9216   5.882   5.222   3.645 -1.0888 -3.3595  2.7203
   67MOL0     H 9217   5.909   5.322   3.793  1.0707 -2.1106  1.3664
   67MOL0     H 9218   5.689   5.456   3.734  1.3589  0.0119  0.6079
   67MOL0     H 9219   5.821   5.471   3.616  2.4808 -2.0057 -0.6004
   67MOL0     H 9220   5.570   5.283   3.614 -0.7262  0.1448  1.5291
   67MOL0     H 9221   5.696   5.270   3.498 -2.6833 -0.9997 -0.4630
   67MOL0     H 9222   5.655   5.536   3.463 -2.2455  1.2048  0.5112
   67MOL0     H 9223   5.499   5.501   3.521 -1.0570  0.6508 -0.0434
   67MOL0     H 9224   5.462   5.471   3.291  0.7446  1.6318  1.2991
   67MOL0     H 9225   5.484   5.303   3.343  0.6295  0.6245  3.2734
   67MOL0     H 9226   5.680   5.292   4.276 -0.3282  0.2806  1.0214
   67MOL0     H 9227   5.704   5.389   4.511 -1.2170  0.7532 -1.1504
   67MOL0     H 9228   5.934   5.567   4.816  1.6689  0.0440  1.3551
   67MOL0     H 9229   5.965   5.643   5.042 -0.9745  1.0908  0.1342
   67MOL0     H 9230   5.209   5.568   6.240 -3.1462  0.3179  1.3658
   67MOL0     H 9231   5.117   5.567   6.468  0.0212  0.2281  0.2734
   67MOL0     H 9232   4.837   5.230   6.658  1.3298  1.6152 -0.3899
   67MOL0     H 9233   4.654   5.190   6.834 -0.4566  1.3490  1.6644
   67MOL0     H 9234   4.751   4.980   7.179 -0.6393 -0.7233  1.1445
   67MOL0     H 9235   4.740   5.140   7.263  0.9185  0.6218 -1.2720
   67MOL0     H 9236   4.509   5.119   7.284 -0.0147  0.4231 -1.5313
   67MOL0     H 9237   4.578   4.951   7.312 -0.2430  0.3107  0.2890
   67MOL0     H 9238   4.461   5.040   7.046  4.1848 -2.2123 -1.0259
   67MOL0     H 9239   4.525   4.882   7.113  1.1782 -0.4331  1.9349
   67MOL0     H 9240   4.336   4.877   7.277  4.6183  1.9821  0.7401
   67MOL0     H 9241   4.286   4.877   7.107  1.2865 -0.5359  0.1436
   67MOL0     H 9242   4.108   5.215   7.299 -0.0251  0.7856 -1.0119
   67MOL0     H 9243   4.953   5.155   7.135  1.0447  0.7247 -0.4078
   67MOL0     H 9244   5.148   5.240   7.116  0.6520 -0.1758 -0.0352
   67MOL0     H 9245   5.215   5.145   6.972  0.5527  0.1055 -0.0707
   67MOL0     H 9246   5.195   5.321   6.966 -1.4325  1.2134  0.4166
   68MOL0     O 9247   1.524   1.371   3.984  0.6988 -0.1697  0.9796
   68MOL0     C 9248   1.456   1.472   3.988 -0.1904  0.5617 -0.0109
   68MOL0     O 9249   1.463   1.567   3.895  0.1252 -0.1714  0.2508
   68MOL0     C 9250   1.568   1.602   3.819 -0.2731 -1.1378 -0.3347
   68MOL0     C 9251   1.600   1.732   3.807 -1.0163  0.4462  0.0036
   68MOL0     C 9252   1.716   1.768   3.749  0.5686  1.2586 -0.0947
   68MOL0     C 9253   1.805   1.675   3.693 -0.2115 -0.1175  0.0381
   68MOL0     O 9254   1.934   1.695   3.642  0.6864  0.3466  0.0720
   68MOL0     C 9255   2.013   1.814   3.671  0.5485  0.2494 -0.1404
   68MOL0     C 9256   2.155   1.808   3.617  0.0709  0.3996 -0.1893
   68MOL0     C 9257   2.246   1.925   3.657  0.3114  0.1838  0.1805
   68MOL0     C 9258   2.383   1.907   3.581 -0.5022  0.4985 -0.2831
   68MOL0     C 9259   2.491   1.990   3.645  0.6823 -0.6521 -0.4088
   68MOL0     C 9260   2.496   2.140   3.600  0.5606  0.0416  0.2606
   68MOL0     C 9261   2.631   2.201   3.638 -0.9262 -0.4838  0.0125
   68MOL0     C 9262   2.622   2.352   3.622 -1.0799  0.4945  1.1039
   68MOL0     N 9263   2.757   2.406   3.666 -0.0557 -0.1463 -0.0431
   68MOL0     C 9264   2.800   2.400   3.799  0.1705 -0.1289 -0.5675
   68MOL0     C 9265   2.896   2.493   3.813 -0.0721 -0.2339  0.4015
   68MOL0     C 9266   2.980   2.521   3.931 -0.1013  1.1025 -0.7546
   68MOL0     C 9267   3.030   2.669   3.938 -0.6103 -0.5697 -0.0016
   68MOL0     C 9268   3.086   2.699   4.076 -0.3525 -0.4922  0.0555
   68MOL0     C 9269   3.226   2.759   4.080 -1.2407 -0.4053  0.1466
   68MOL0     O 9270   3.229   2.905   4.054 -0.0588  0.7629  0.5980
   68MOL0     C 9271   3.297   2.979   4.145  0.5226 -0.2553  0.2427
   68MOL0     C 9272   3.222   3.071   4.219 -0.0073 -0.4965 -0.4690
   68MOL0     C 9273   3.281   3.158   4.318  0.8123  0.1642  0.6599
   68MOL0     C 9274   3.188   3.263   4.381 -0.4828  1.1368  0.4328
   68MOL0     C 9275   3.411   3.132   4.357 -0.9182  0.5334  0.3820
   68MOL0     C 9276   3.485   3.210   4.473 -0.8946  0.3003  0.4899
   68MOL0     O 9277   3.619   3.213   4.452  0.5334 -0.0304  0.2215
   68MOL0     C 9278   3.710   3.268   4.544 -0.4857 -0.2060  0.0096
   68MOL0     C 9279   3.711   3.208   4.662  0.0229 -0.0876 -0.1723
   68MOL0     C 9280   3.787   3.256   4.768  0.2116  0.4272 -0.9849
   68MOL0     C 9281   3.874   3.363   4.751 -0.6786  0.0450  0.0841
   68MOL0     O 9282   3.955   3.412   4.853  0.1036 -0.1249  0.1114
   68MOL0     C 9283   4.027   3.327   4.942 -1.0411  0.1516  0.7522
   68MOL0     C 9284   4.178   3.330   4.898 -0.0499 -0.0128  0.1780
   68MOL0     C 9285   4.260   3.234   4.983  0.7644 -0.0270 -0.5278
   68MOL0     C 9286   4.388   3.186   4.921  0.7446 -0.2799  0.2693
   68MOL0     C 9287   4.443   3.071   4.997 -0.0443  0.6798 -0.0349
   68MOL0     C 9288   4.571   3.015   4.932  0.6842 -0.0589  0.0302
   68MOL0     C 9289   4.667   3.125   4.894  0.0560 -0.1460  1.5807
   68MOL0     C 9290   4.813   3.097   4.903  0.1477  0.4111  0.0869
   68MOL0    Cl 9291   4.913   3.246   4.852  0.5171 -0.0974  0.0474
   68MOL0     C 9292   3.866   3.426   4.632 -0.2415  0.1094  0.2138
   68MOL0     C 9293   3.796   3.377   4.521  0.7789  0.3716 -0.1393
   68MOL0     O 9294   3.425   3.246   4.576  0.4043 -0.6821 -0.4750
   68MOL0     C 9295   3.488   3.037   4.288 -0.2670  0.1880 -0.9216
   68MOL0     C 9296   3.424   2.962   4.186  0.5783 -0.2561  0.0263
   68MOL0     N 9297   2.925   2.540   3.689 -0.3859  0.2147  0.1776
   68MOL0     N 9298   2.850   2.484   3.601 -0.0675 -0.3108 -0.3466
   68MOL0     C 9299   1.767   1.545   3.683  0.2625 -0.5729 -0.1149
   68MOL0     C 9300   1.643   1.508   3.754 -0.2786  0.1141  0.5941
   68MOL0     C 9301   1.351   1.463   4.098  0.7347 -0.2355  0.3072
   68MOL0     C 9302   1.320   1.341   4.165 -0.0090 -0.2611 -0.8182
   68MOL0     C 9303   1.213   1.324   4.258 -0.5547  0.2546  0.3156
   68MOL0     C 9304   1.124   1.438   4.279 -0.0281  0.2104 -0.1162
   68MOL0     O 9305   1.014   1.392   4.350 -0.3995 -0.8677  0.4804
   68MOL0     C 9306   0.937   1.506   4.400 -0.3292 -0.2731 -0.6462
   68MOL0     C 9307   0.812   1.463   4.476  0.8675  0.2682  0.7585
   68MOL0     C 9308   0.721   1.362   4.403  0.8416  0.1217 -0.0213
   68MOL0     C 9309   0.605   1.320   4.484 -0.2119  0.7817 -1.1719
   68MOL0     C 9310   0.526   1.213   4.411  0.2229 -0.6165 -0.3978
   68MOL0     C 9311   0.445   1.141   4.357 -0.6777  0.2739  0.2247
   68MOL0     C 9312   1.151   1.563   4.215  0.2088 -0.1916  0.3057
   68MOL0     C 9313   1.265   1.576   4.132 -0.5847 -0.0450  0.2568
   68MOL0     C 9314   1.291   1.708   4.066 -0.1196  1.0427  0.1345
   68MOL0     H 9315   1.526   1.801   3.848  0.3481  0.2638  3.0559
   68MOL0     H 9316   1.750   1.870   3.764 -0.2318  1.4419  0.5071
   68MOL0     H 9317   2.018   1.831   3.779 -0.5531 -1.8131  0.2861
   68MOL0     H 9318   1.970   1.899   3.618 -0.3919 -1.2042 -1.8150
   68MOL0     H 9319   2.202   1.715   3.651 -2.3806 -0.5226  0.8431
   68MOL0     H 9320   2.141   1.802   3.509 -3.1783 -2.6012  0.2425
   68MOL0     H 9321   2.195   2.012   3.616 -2.6964 -3.2230 -4.2017
   68MOL0     H 9322   2.253   1.933   3.766  1.2129 -1.4737  0.2912
   68MOL0     H 9323   2.394   1.798   3.584 -1.4231  0.3969 -0.1296
   68MOL0     H 9324   2.381   1.933   3.475  0.5995  0.3548 -0.3476
   68MOL0     H 9325   2.581   1.940   3.610  1.7151  0.5417  0.4652
   68MOL0     H 9326   2.493   1.974   3.753 -5.1091 -0.0922  0.0881
   68MOL0     H 9327   2.476   2.151   3.494 -1.5616  2.8293  0.8377
   68MOL0     H 9328   2.404   2.178   3.644 -1.2527 -0.2247 -3.0317
   68MOL0     H 9329   2.712   2.167   3.573  0.0691 -0.2004  1.0873
   68MOL0     H 9330   2.655   2.172   3.740  2.0820 -2.1328 -1.0429
   68MOL0     H 9331   2.606   2.383   3.518  1.3677 -0.3541  0.4058
   68MOL0     H 9332   2.549   2.393   3.692  3.1380  4.7860  3.6058
   68MOL0     H 9333   2.755   2.345   3.881 -1.7475  0.8125 -0.9201
   68MOL0     H 9334   3.064   2.451   3.924 -1.8109 -0.8632 -4.7316
   68MOL0     H 9335   2.918   2.489   4.016  0.4163  1.3258 -0.2822
   68MOL0     H 9336   3.099   2.676   3.854 -0.6796 -0.2509 -0.0315
   68MOL0     H 9337   2.950   2.740   3.914 -1.2184 -1.4786 -0.8110
   68MOL0     H 9338   3.006   2.755   4.124 -0.0630 -0.4960  0.5488
   68MOL0     H 9339   3.109   2.603   4.124  0.5728  1.3357  3.5924
   68MOL0     H 9340   3.255   2.746   4.185  2.3093  1.3057 -0.4506
   68MOL0     H 9341   3.289   2.711   4.005 -1.0120  2.4923 -1.6618
   68MOL0     H 9342   3.116   3.081   4.195 -0.2408  0.3171  0.8384
   68MOL0     H 9343   3.100   3.266   4.316  3.3300 -1.0120 -5.7956
   68MOL0     H 9344   3.237   3.361   4.375  2.4909 -0.2049  0.5961
   68MOL0     H 9345   3.178   3.231   4.485  1.5684 -1.5439 -0.0890
   68MOL0     H 9346   3.652   3.120   4.683  0.2979 -0.1733  0.2546
   68MOL0     H 9347   3.785   3.207   4.865  2.7396 -1.0420 -1.5707
   68MOL0     H 9348   4.011   3.354   5.047  1.8068  3.6193  0.4720
   68MOL0     H 9349   3.985   3.227   4.934 -1.0415  0.1404  0.8961
   68MOL0     H 9350   4.193   3.308   4.792 -1.5301  2.5094 -0.6436
   68MOL0     H 9351   4.214   3.429   4.925 -0.1369 -0.0160  0.3074
   68MOL0     H 9352   4.195   3.149   5.005 -1.6375  1.9395  0.5401
   68MOL0     H 9353   4.287   3.282   5.078 -0.2809 -1.0442  0.3068
   68MOL0     H 9354   4.456   3.271   4.918 -0.1239  0.4079 -0.4819
   68MOL0     H 9355   4.370   3.149   4.820 -0.7277 -2.5780  1.2836
   68MOL0     H 9356   4.464   3.104   5.099 -1.0723  0.2406  0.3336
   68MOL0     H 9357   4.371   2.989   5.010  0.7113 -0.1398 -0.8410
   68MOL0     H 9358   4.544   2.961   4.841  1.5417 -1.0533  0.3416
   68MOL0     H 9359   4.626   2.954   5.005  1.0317  1.2097  0.8750
   68MOL0     H 9360   4.658   3.209   4.964 -1.1565 -1.4901  3.1264
   68MOL0     H 9361   4.646   3.171   4.797  2.6273  1.0318  1.5192
   68MOL0     H 9362   4.841   3.006   4.849 -0.0689 -2.0445  3.7390
   68MOL0     H 9363   4.849   3.067   5.002 -1.2652 -0.3645  0.3839
   68MOL0     H 9364   3.934   3.509   4.615 -0.7363  0.5638  0.4194
   68MOL0     H 9365   3.796   3.438   4.430  2.4754 -0.3644 -0.6617
   68MOL0     H 9366   3.593   3.014   4.302 -0.2965  0.6751  0.2354
   68MOL0     H 9367   3.491   2.891   4.138  0.2714  0.1515 -1.0290
   68MOL0     H 9368   1.828   1.464   3.644  2.1345  0.4719  0.5237
   68MOL0     H 9369   1.615   1.403   3.756  1.2772 -0.3935 -1.0752
   68MOL0     H 9370   1.383   1.258   4.135  1.7953  1.1424 -1.1114
   68MOL0     H 9371   1.210   1.225   4.302  3.0902 -1.2587 -2.4076
   68MOL0     H 9372   1.004   1.557   4.469  0.1180 -2.4480  0.6323
   68MOL0     H 9373   0.909   1.576   4.320 -0.9739  2.5577  1.9002
   68MOL0     H 9374   0.747   1.548   4.499  0.2565  0.1485 -0.4894
   68MOL0     H 9375   0.834   1.407   4.568 -1.9640  2.2228  2.8164
   68MOL0     H 9376   0.691   1.403   4.307  1.0888  0.2315 -0.0539
   68MOL0     H 9377   0.789   1.279   4.378  2.2349  1.6740 -1.6392
   68MOL0     H 9378   0.540   1.405   4.507 -1.3024 -0.6201  1.3299
   68MOL0     H 9379   0.647   1.275   4.575 -1.5570  0.4406 -0.6955
   68MOL0     H 9380   0.369   1.080   4.312 -1.2322 -0.0723  1.5951
   68MOL0     H 9381   1.088   1.650   4.228  0.5622 -0.2645  3.3193
   68MOL0     H 9382   1.399   1.727   4.066 -0.0210  0.5136  0.9628
   68MOL0     H 9383   1.254   1.705   3.963 -0.3533  0.1833  0.2367
   68MOL0     H 9384   1.233   1.782   4.122  0.2414  2.2483 -1.0298
   69MOL0     O 9385   9.011   1.009   3.147  0.9312 -0.6912  0.4416
   69MOL0     C 9386   8.944   1.106   3.124 -0.3366 -0.5495  0.5953
   69MOL0     O 9387   8.951   1.216   3.204 -0.0762 -0.8958  0.0754
   69MOL0     C 9388   8.946   1.219   3.338 -0.4618  0.5326 -0.2524
   69MOL0     C 9389   8.866   1.130   3.405  0.2221  0.5077  0.4451
   69MOL0     C 9390   8.870   1.114   3.546 -0.7615 -0.2595 -0.5380
   69MOL0     C 9391   8.943   1.207   3.618 -0.0463 -1.1715  0.4841
   69MOL0     O 9392   8.943   1.214   3.761 -0.6831  0.0388  0.1509
   69MOL0     C 9393   8.841   1.145   3.833 -0.4710  0.2138 -0.4199
   69MOL0     C 9394   8.823   1.219   3.965 -0.0133 -0.0221  0.0509
   69MOL0     C 9395   8.939   1.206   4.064 -0.2272  0.4047  0.7843
   69MOL0     C 9396   8.934   1.300   4.182  0.6682 -0.0664  0.0506
   69MOL0     C 9397   9.033   1.257   4.287 -0.3664  0.3009  0.6851
   69MOL0     C 9398   9.183   1.268   4.256  0.9340 -0.0069 -0.6498
   69MOL0     C 9399   9.275   1.276   4.380 -0.2567  0.9641  0.2642
   69MOL0     C 9400   9.260   1.152   4.469  1.1026 -0.9908 -0.6189
   69MOL0     N 9401   9.370   1.128   4.559 -0.0402 -1.1468  0.6288
   69MOL0     C 9402   9.378   1.183   4.686 -0.4960  0.2933 -0.7013
   69MOL0     C 9403   9.508   1.157   4.731  0.1211  0.4279 -0.1042
   69MOL0     C 9404   9.581   1.224   4.844  0.0063 -0.5104 -0.6559
   69MOL0     C 9405   9.502   1.204   4.973 -0.4954  0.1420  0.9066
   69MOL0     C 9406   9.564   1.284   5.088  0.8797 -0.1568  0.1769
   69MOL0     C 9407   9.720   1.264   5.109 -0.0030  0.1127 -0.2293
   69MOL0     O 9408   9.747   1.123   5.088 -0.4332  0.0328  0.1567
   69MOL0     C 9409   9.699   1.024   5.168  0.4441  0.0644  1.5500
   69MOL0     C 9410   9.659   1.039   5.298  0.0277 -0.1263  0.8243
   69MOL0     C 9411   9.612   0.924   5.374 -0.2517  0.1367  1.0290
   69MOL0     C 9412   9.572   0.959   5.521  0.9641 -0.1082  0.0358
   69MOL0     C 9413   9.606   0.792   5.304  0.0636  0.1170  0.8117
   69MOL0     C 9414   9.576   0.665   5.371 -0.2996  0.4458 -0.1426
   69MOL0     O 9415   9.576   0.556   5.288  0.2785  0.0289 -0.2670
   69MOL0     C 9416   9.564   0.428   5.333 -0.3983 -0.5316 -0.7896
   69MOL0     C 9417   9.490   0.341   5.256 -0.0750 -0.1462 -0.1270
   69MOL0     C 9418   9.484   0.207   5.291 -0.5397 -0.5402  1.1426
   69MOL0     C 9419   9.550   0.143   5.399 -0.5354 -0.3004  0.6002
   69MOL0     O 9420   9.539   0.006   5.413 -0.1692  0.2397 -1.3306
   69MOL0     C 9421   9.606  -0.056   5.531  0.2900 -0.5990  1.3195
   69MOL0     C 9422   9.512  -0.030   5.654 -0.3923  0.0886  0.5727
   69MOL0     C 9423   9.564  -0.106   5.777  0.3850 -0.5083  0.3720
   69MOL0     C 9424   9.686  -0.031   5.826 -0.2292 -0.3513  0.4097
   69MOL0     C 9425   9.746  -0.115   5.937 -0.9992  0.1054  0.4611
   69MOL0     C 9426   9.871  -0.055   5.989  0.3714 -0.2951 -0.3590
   69MOL0     C 9427   9.927  -0.149   6.095 -0.5597 -0.1227  0.2987
   69MOL0     C 9428  10.042  -0.075   6.160 -0.6189 -0.0187 -0.1620
   69MOL0    Cl 9429  10.187  -0.072   6.053  0.3474  0.3283 -0.1638
   69MOL0     C 9430   9.634   0.232   5.472 -0.2751  0.0084 -0.1429
   69MOL0     C 9431   9.636   0.371   5.436 -0.6301  0.0263 -0.5612
   69MOL0     O 9432   9.545   0.668   5.487 -0.1939 -0.3824 -0.1358
   69MOL0     C 9433   9.640   0.787   5.168 -0.3943 -0.0760 -0.1901
   69MOL0     C 9434   9.683   0.900   5.100 -0.0862 -0.3644 -0.8801
   69MOL0     N 9435   9.573   1.088   4.629  0.1281 -0.0214  1.5558
   69MOL0     N 9436   9.485   1.061   4.530 -0.3372  0.6858  0.0956
   69MOL0     C 9437   9.028   1.298   3.555 -0.5391  0.2221 -0.4128
   69MOL0     C 9438   9.023   1.308   3.414  0.5347  0.2139  0.0816
   69MOL0     C 9439   8.887   1.122   2.988  0.0396 -0.2247 -0.5476
   69MOL0     C 9440   8.797   1.232   2.970  0.4171 -0.3273  0.0668
   69MOL0     C 9441   8.731   1.251   2.851 -0.5084 -0.1876 -0.2498
   69MOL0     C 9442   8.750   1.160   2.745  0.1287 -0.3036  0.0237
   69MOL0     O 9443   8.682   1.153   2.625 -0.4981  0.5356 -0.2925
   69MOL0     C 9444   8.609   1.261   2.573 -0.5162 -0.1767 -0.1067
   69MOL0     C 9445   8.507   1.201   2.479 -0.4069  0.4876  0.4563
   69MOL0     C 9446   8.445   1.296   2.377 -0.4871 -0.5962  1.0032
   69MOL0     C 9447   8.331   1.234   2.305  0.7026  0.2360  0.2678
   69MOL0     C 9448   8.368   1.144   2.190 -1.6439 -0.0730 -0.0454
   69MOL0     C 9449   8.421   1.074   2.099 -0.0567 -0.1202 -0.2553
   69MOL0     C 9450   8.850   1.061   2.758  1.1637  0.6206 -0.6301
   69MOL0     C 9451   8.916   1.035   2.878  0.1076 -0.2765  0.6821
   69MOL0     C 9452   9.004   0.923   2.877 -0.1166  0.0862 -0.3275
   69MOL0     H 9453   8.812   1.053   3.351 -0.3174 -0.3780  2.1654
   69MOL0     H 9454   8.803   1.043   3.593 -3.8020  1.1009 -2.4886
   69MOL0     H 9455   8.855   1.037   3.848 -0.7198  0.3110  0.5978
   69MOL0     H 9456   8.744   1.148   3.784 -1.1225  2.8750  0.8416
   69MOL0     H 9457   8.806   1.322   3.934  1.2844 -0.1090 -1.0486
   69MOL0     H 9458   8.736   1.175   4.015  1.7505 -0.7598  2.6980
   69MOL0     H 9459   8.926   1.105   4.106 -0.5841  1.2316  2.7603
   69MOL0     H 9460   9.033   1.202   4.008 -0.7837  0.5932 -0.2009
   69MOL0     H 9461   8.963   1.400   4.147  0.0967  0.5377  1.2593
   69MOL0     H 9462   8.831   1.302   4.219  0.0752 -0.5668 -1.4844
   69MOL0     H 9463   9.020   1.153   4.318 -0.4961  0.4825  1.2545
   69MOL0     H 9464   9.009   1.322   4.372 -0.6477 -0.8845  1.5447
   69MOL0     H 9465   9.219   1.179   4.203 -0.7927 -0.9928 -0.2282
   69MOL0     H 9466   9.200   1.346   4.182  1.1561  1.4526  0.8791
   69MOL0     H 9467   9.260   1.364   4.442 -0.0163  0.5933  0.8593
   69MOL0     H 9468   9.379   1.290   4.351 -0.7204 -0.6653 -2.5914
   69MOL0     H 9469   9.167   1.152   4.526  0.8664  0.7976 -0.9583
   69MOL0     H 9470   9.256   1.067   4.399 -2.0217 -1.2510 -0.2538
   69MOL0     H 9471   9.302   1.244   4.735 -0.8228  0.0753 -0.9317
   69MOL0     H 9472   9.595   1.331   4.825 -0.7289 -0.5322 -1.3806
   69MOL0     H 9473   9.676   1.171   4.853 -0.6029 -1.7928 -1.4649
   69MOL0     H 9474   9.397   1.233   4.957 -0.1811  0.6327 -0.4595
   69MOL0     H 9475   9.507   1.097   4.993 -0.5071 -0.3849 -1.5744
   69MOL0     H 9476   9.541   1.390   5.075 -2.5726 -0.3672  3.0255
   69MOL0     H 9477   9.504   1.257   5.175  1.1467  1.0181  0.7452
   69MOL0     H 9478   9.780   1.328   5.044  0.2149  0.8752  0.7118
   69MOL0     H 9479   9.739   1.279   5.215 -0.9077  0.6409 -0.1314
   69MOL0     H 9480   9.673   1.135   5.346 -1.8400  0.6137 -0.0287
   69MOL0     H 9481   9.605   0.877   5.585  3.3780  0.3281 -0.5754
   69MOL0     H 9482   9.465   0.982   5.526  1.6375  3.2793  2.2790
   69MOL0     H 9483   9.619   1.052   5.556 -1.2249 -0.0002  3.1037
   69MOL0     H 9484   9.443   0.380   5.167  0.3155  3.4557  1.0489
   69MOL0     H 9485   9.423   0.153   5.220 -1.3037  2.0330 -0.2789
   69MOL0     H 9486   9.625  -0.162   5.513 -1.1076 -0.7822  0.8593
   69MOL0     H 9487   9.703  -0.006   5.539  0.1335 -0.3542  1.7201
   69MOL0     H 9488   9.497   0.077   5.673  0.1119  0.2363  0.1434
   69MOL0     H 9489   9.419  -0.075   5.616  0.4287 -1.9944  0.8828
   69MOL0     H 9490   9.584  -0.210   5.748 -2.2846 -0.7225 -0.9608
   69MOL0     H 9491   9.482  -0.099   5.848 -1.4936  2.7929 -1.8329
   69MOL0     H 9492   9.671   0.070   5.867  3.0912 -0.6922  2.9194
   69MOL0     H 9493   9.761  -0.024   5.746  1.1885  2.0723  1.8204
   69MOL0     H 9494   9.671  -0.116   6.017 -0.6153  2.6161  0.9449
   69MOL0     H 9495   9.762  -0.218   5.905 -0.8396  0.2991 -0.0939
   69MOL0     H 9496   9.855   0.047   6.024 -1.0718 -0.8306  0.6630
   69MOL0     H 9497   9.943  -0.042   5.908  1.9379 -0.1126  1.0032
   69MOL0     H 9498   9.961  -0.246   6.057 -0.3712  0.1648 -0.2746
   69MOL0     H 9499   9.855  -0.170   6.175 -0.3194 -5.3423 -0.4611
   69MOL0     H 9500  10.073  -0.127   6.251  2.8023  1.6765 -0.1945
   69MOL0     H 9501  10.019   0.028   6.189 -0.6133 -0.2496  0.6620
   69MOL0     H 9502   9.691   0.205   5.561  0.2351  1.1768 -0.1029
   69MOL0     H 9503   9.701   0.435   5.494 -1.1282 -0.9015  1.0676
   69MOL0     H 9504   9.650   0.694   5.113 -0.1900 -0.5321  0.6187
   69MOL0     H 9505   9.706   0.895   4.994 -1.5885  0.4089 -1.2741
   69MOL0     H 9506   9.097   1.364   3.605  0.4064 -2.1177  1.5689
   69MOL0     H 9507   9.090   1.373   3.358  4.6685 -1.4975  2.5899
   69MOL0     H 9508   8.770   1.305   3.045  1.0783 -0.9778  0.9748
   69MOL0     H 9509   8.661   1.334   2.837  1.7019  1.7920 -0.2659
   69MOL0     H 9510   8.555   1.302   2.658 -1.3028 -1.5341  0.0698
   69MOL0     H 9511   8.679   1.330   2.525  2.6617 -1.8474  1.7890
   69MOL0     H 9512   8.432   1.149   2.539  1.4227 -1.3938  1.2389
   69MOL0     H 9513   8.553   1.121   2.422 -2.1052  1.8144 -3.0562
   69MOL0     H 9514   8.422   1.395   2.417  2.4860  0.2142  1.0142
   69MOL0     H 9515   8.521   1.323   2.303  0.4923  2.4094  2.9516
   69MOL0     H 9516   8.271   1.315   2.261 -0.4030 -1.5720 -1.7991
   69MOL0     H 9517   8.274   1.171   2.374 -1.1231  0.4172 -0.9890
   69MOL0     H 9518   8.479   1.012   2.034  2.9283  1.2970  0.8613
   69MOL0     H 9519   8.857   0.994   2.673  2.1829 -0.5860  0.3704
   69MOL0     H 9520   9.099   0.964   2.914  0.0371  2.0134 -2.5829
   69MOL0     H 9521   8.970   0.840   2.939 -1.9754 -0.5730 -2.1214
   69MOL0     H 9522   9.006   0.887   2.774  3.1723  2.5540 -1.3114
   70MOL0     O 9523   0.573   7.790   1.618 -0.2842  0.2022 -0.3922
   70MOL0     C 9524   0.607   7.891   1.556  0.7114 -0.0178  0.5004
   70MOL0     O 9525   0.735   7.924   1.515 -0.4383 -0.6757  0.0984
   70MOL0     C 9526   0.840   7.851   1.569 -0.1999 -0.2486  0.1267
   70MOL0     C 9527   0.861   7.726   1.527 -0.2504  1.4193  0.6670
   70MOL0     C 9528   0.965   7.642   1.581  0.5136  0.2285  0.1821
   70MOL0     C 9529   1.056   7.701   1.667  0.4328  0.0779  0.1482
   70MOL0     O 9530   1.168   7.636   1.718 -0.3136  1.1419  0.0341
   70MOL0     C 9531   1.270   7.593   1.621  1.2215  0.5516  0.4381
   70MOL0     C 9532   1.368   7.497   1.687 -0.4808  0.0010  0.2728
   70MOL0     C 9533   1.479   7.586   1.750  0.3475 -0.0195 -0.1132
   70MOL0     C 9534   1.578   7.496   1.824  0.8129  0.7546  0.1786
   70MOL0     C 9535   1.703   7.548   1.898  0.1284 -0.6583 -0.2956
   70MOL0     C 9536   1.774   7.435   1.972  0.2829 -0.4667 -0.1132
   70MOL0     C 9537   1.828   7.328   1.865  1.8446 -0.2750 -0.2031
   70MOL0     C 9538   1.915   7.230   1.934 -0.0314 -0.0261 -0.0996
   70MOL0     N 9539   1.843   7.149   2.026  0.2138 -0.1239 -0.0728
   70MOL0     C 9540   1.729   7.089   2.004  0.7895  0.6508  0.3686
   70MOL0     C 9541   1.700   7.026   2.121  0.2984  0.1111  0.2082
   70MOL0     C 9542   1.581   6.932   2.133 -0.9878 -0.5687 -0.7533
   70MOL0     C 9543   1.443   7.010   2.136  0.1612  0.4742 -0.8334
   70MOL0     C 9544   1.410   7.106   2.027  0.5992  0.0275 -0.1204
   70MOL0     C 9545   1.281   7.170   2.062 -1.1824 -0.3122  0.4565
   70MOL0     O 9546   1.171   7.087   2.048  0.7475  0.2657  0.5786
   70MOL0     C 9547   1.118   7.005   2.146 -0.3218  0.0494 -0.4587
   70MOL0     C 9548   1.014   6.919   2.107 -0.1745  0.1379  0.5871
   70MOL0     C 9549   0.962   6.825   2.200  0.1224  0.2714 -0.4021
   70MOL0     C 9550   0.844   6.737   2.143 -0.0266  0.1419 -0.4122
   70MOL0     C 9551   0.998   6.817   2.343  0.1569 -1.0523  0.4710
   70MOL0     C 9552   0.967   6.708   2.436  0.2465  0.0095 -0.0247
   70MOL0     O 9553   1.059   6.659   2.522  0.2511  0.5802 -0.1816
   70MOL0     C 9554   1.010   6.553   2.595 -0.5574  0.1472 -0.6329
   70MOL0     C 9555   0.999   6.429   2.542  0.7925 -0.9550 -0.7021
   70MOL0     C 9556   0.950   6.320   2.611  0.0747 -0.0602  0.4255
   70MOL0     C 9557   0.910   6.344   2.740 -0.6695  0.1016 -0.0362
   70MOL0     O 9558   0.908   6.229   2.816 -0.5636 -0.2024  1.0214
   70MOL0     C 9559   1.031   6.182   2.851  0.0670 -0.2583 -0.0424
   70MOL0     C 9560   1.035   6.195   3.000 -0.1741 -0.6998  0.2166
   70MOL0     C 9561   1.184   6.169   3.050 -0.2419 -0.0677 -0.7691
   70MOL0     C 9562   1.254   6.301   3.089 -0.2585  0.0399 -0.6486
   70MOL0     C 9563   1.381   6.285   3.167 -0.2220 -1.1419 -0.0367
   70MOL0     C 9564   1.444   6.424   3.212  0.3005  0.3665 -0.3730
   70MOL0     C 9565   1.526   6.485   3.093  1.2681 -0.8284  0.3339
   70MOL0     C 9566   1.582   6.625   3.133 -0.7504 -0.2862  0.2744
   70MOL0    Cl 9567   1.712   6.617   3.254  0.8165 -0.0120 -0.0366
   70MOL0     C 9568   0.904   6.472   2.798 -0.4704 -0.1022 -0.4958
   70MOL0     C 9569   0.968   6.580   2.724 -0.2667 -0.2894 -0.0182
   70MOL0     O 9570   0.848   6.667   2.430  0.1239 -0.1085 -0.3029
   70MOL0     C 9571   1.101   6.912   2.376 -0.2901 -0.1633  0.2643
   70MOL0     C 9572   1.157   7.008   2.284  0.0368 -0.1381  0.0261
   70MOL0     N 9573   1.792   7.078   2.215 -0.6272  0.1030  0.1292
   70MOL0     N 9574   1.883   7.140   2.155 -0.1170  0.2204 -0.0487
   70MOL0     C 9575   1.041   7.836   1.700 -0.6882 -0.6726 -0.4775
   70MOL0     C 9576   0.927   7.910   1.661 -0.5250 -0.6648  0.0501
   70MOL0     C 9577   0.505   7.987   1.490  0.0237  0.1350 -0.1980
   70MOL0     C 9578   0.547   8.072   1.383  0.2389  0.5364  0.0252
   70MOL0     C 9579   0.454   8.143   1.311 -0.3797  0.6008  0.9875
   70MOL0     C 9580   0.320   8.150   1.354  0.0943 -0.2271  0.2306
   70MOL0     O 9581   0.242   8.239   1.289  0.5124 -0.6573 -0.0855
   70MOL0     C 9582   0.094   8.236   1.316 -0.2463 -0.4917  0.1653
   70MOL0     C 9583   0.032   8.296   1.178  0.9449  0.3329 -0.5886
   70MOL0     C 9584   0.096   8.423   1.122 -0.4477  0.0301  0.1378
   70MOL0     C 9585   0.021   8.488   1.003  0.7767 -0.1397  0.3879
   70MOL0     C 9586   0.053   8.407   0.882  0.3619 -0.6734  0.7050
   70MOL0     C 9587   0.080   8.326   0.793  0.6427 -1.0690 -0.3272
   70MOL0     C 9588   0.283   8.083   1.465  0.0713 -0.1743  0.0729
   70MOL0     C 9589   0.372   8.007   1.539 -0.7668 -0.2406 -0.4421
   70MOL0     C 9590   0.315   7.949   1.668  0.4737 -0.1460  0.0549
   70MOL0     H 9591   0.783   7.695   1.458  1.0153  2.5085 -1.3670
   70MOL0     H 9592   0.979   7.540   1.547  0.1168 -0.0365  0.7953
   70MOL0     H 9593   1.312   7.686   1.584 -1.5132  1.5222 -0.4293
   70MOL0     H 9594   1.211   7.539   1.547 -1.2064 -0.9546  3.2181
   70MOL0     H 9595   1.327   7.437   1.769 -2.5778 -0.7156 -1.2098
   70MOL0     H 9596   1.427   7.439   1.615 -0.8031  2.4546 -2.1524
   70MOL0     H 9597   1.528   7.652   1.678 -2.8336  4.1003  1.1198
   70MOL0     H 9598   1.441   7.658   1.823  0.5292  0.0911 -0.1267
   70MOL0     H 9599   1.523   7.447   1.904  0.9722 -1.2431 -0.8748
   70MOL0     H 9600   1.606   7.418   1.752 -2.2251  0.0548 -0.3712
   70MOL0     H 9601   1.678   7.627   1.969  0.0024 -0.8442 -0.1320
   70MOL0     H 9602   1.763   7.594   1.819  0.9302 -0.6674  0.2992
   70MOL0     H 9603   1.845   7.482   2.041 -2.3552  0.8443  1.8509
   70MOL0     H 9604   1.717   7.379   2.046  0.2834  1.4445  1.4011
   70MOL0     H 9605   1.872   7.391   1.787  0.0392  1.9426  0.4701
   70MOL0     H 9606   1.753   7.269   1.812 -0.7751  2.4870  0.1165
   70MOL0     H 9607   1.960   7.156   1.867  2.9958  0.5366  1.1467
   70MOL0     H 9608   2.000   7.282   1.980 -0.1357 -1.5628  1.9571
   70MOL0     H 9609   1.673   7.092   1.911  1.5330 -0.4236 -0.1352
   70MOL0     H 9610   1.601   6.878   2.226  0.1727  0.6637 -0.2623
   70MOL0     H 9611   1.582   6.862   2.049  1.3274 -0.2255 -1.0675
   70MOL0     H 9612   1.378   6.922   2.139  2.1900 -1.1295  2.8101
   70MOL0     H 9613   1.422   7.053   2.234 -0.3994 -0.0773 -0.7038
   70MOL0     H 9614   1.486   7.184   2.031  0.2698  0.3999 -0.9295
   70MOL0     H 9615   1.403   7.050   1.933 -1.3030  0.4422 -0.2500
   70MOL0     H 9616   1.297   7.197   2.166  1.8845 -1.3293  0.3492
   70MOL0     H 9617   1.275   7.260   2.000 -0.3548 -0.9038 -0.5172
   70MOL0     H 9618   0.994   6.930   2.001  2.4580 -2.6621 -0.3301
   70MOL0     H 9619   0.855   6.632   2.172 -1.1604  1.1044  4.2513
   70MOL0     H 9620   0.837   6.757   2.036  0.8651 -2.0431 -0.9281
   70MOL0     H 9621   0.750   6.765   2.191 -0.4243 -1.2252 -0.3448
   70MOL0     H 9622   1.024   6.403   2.440  1.1678 -2.5177 -0.2540
   70MOL0     H 9623   0.951   6.222   2.565  0.6015 -0.1868  0.7028
   70MOL0     H 9624   1.044   6.079   2.815 -1.1154 -0.8232  1.0708
   70MOL0     H 9625   1.109   6.242   2.802 -1.2786 -0.1483 -2.1754
   70MOL0     H 9626   1.004   6.295   3.030  3.9728  0.6109  0.8513
   70MOL0     H 9627   0.969   6.118   3.042 -0.5842 -0.5844 -0.2155
   70MOL0     H 9628   1.242   6.126   2.968 -0.0502  0.3568 -0.8595
   70MOL0     H 9629   1.185   6.089   3.125 -0.4993  0.3143 -0.3594
   70MOL0     H 9630   1.184   6.349   3.157  3.2446  2.0046  1.9151
   70MOL0     H 9631   1.273   6.362   3.001 -0.3846 -0.1869 -0.8353
   70MOL0     H 9632   1.377   6.223   3.257  1.9588  2.4182  2.8050
   70MOL0     H 9633   1.455   6.235   3.103  2.8230  0.3744  2.0493
   70MOL0     H 9634   1.504   6.420   3.303  0.6535 -0.7691 -0.6453
   70MOL0     H 9635   1.370   6.494   3.254 -0.2518 -1.3132  1.6286
   70MOL0     H 9636   1.457   6.496   3.009 -0.6559  1.1655  2.0519
   70MOL0     H 9637   1.612   6.422   3.068  1.4084 -0.3304 -0.4665
   70MOL0     H 9638   1.513   6.699   3.175 -0.3727  0.1820  0.0821
   70MOL0     H 9639   1.635   6.671   3.049 -0.0142  1.5433  1.6685
   70MOL0     H 9640   0.874   6.486   2.902 -2.6057  6.8757 -1.5202
   70MOL0     H 9641   0.980   6.678   2.768 -2.6120 -0.3682  0.8944
   70MOL0     H 9642   1.135   6.918   2.478  1.0456  2.0300 -0.2494
   70MOL0     H 9643   1.230   7.075   2.327 -0.0370 -0.1831  0.2248
   70MOL0     H 9644   1.116   7.876   1.767 -0.2488 -1.2866 -0.5973
   70MOL0     H 9645   0.919   8.010   1.701  0.1246  0.2929 -2.0855
   70MOL0     H 9646   0.649   8.063   1.347 -0.1354 -2.2401 -0.5294
   70MOL0     H 9647   0.475   8.205   1.224 -2.7330  0.8922  0.5545
   70MOL0     H 9648   0.055   8.135   1.333 -2.6038  0.6041  1.8283
   70MOL0     H 9649   0.063   8.299   1.400 -1.1863  2.1518 -2.0212
   70MOL0     H 9650  -0.076   8.307   1.191  0.7185 -2.9196  1.2015
   70MOL0     H 9651   0.033   8.214   1.106 -0.4983 -2.3779  2.2567
   70MOL0     H 9652   0.110   8.500   1.199  0.5263  1.0469 -0.9983
   70MOL0     H 9653   0.198   8.407   1.084 -0.4393  0.9336 -0.2568
   70MOL0     H 9654   0.048   8.592   0.984  0.7078 -0.6756 -3.4215
   70MOL0     H 9655  -0.086   8.471   1.018  1.1609 -1.3756  1.9834
   70MOL0     H 9656   0.108   8.264   0.711  2.8518  0.1689 -0.5795
   70MOL0     H 9657   0.184   8.092   1.506  0.0163 -0.6967  0.0608
   70MOL0     H 9658   0.388   7.885   1.719  0.6057  0.5979  0.8341
   70MOL0     H 9659   0.305   8.027   1.745  1.0516  0.5798 -0.5884
   70MOL0     H 9660   0.218   7.902   1.647  0.1642 -0.1306  1.3415
   71MOL0     O 9661   6.275   3.652  10.424 -0.0116 -0.5701 -0.1909
   71MOL0     C 9662   6.256   3.592  10.528  0.3774  0.1588  0.5090
   71MOL0     O 9663   6.156   3.501  10.541  0.3526 -0.1448  0.5217
   71MOL0     C 9664   6.078   3.456  10.438 -0.0763 -0.3840  0.6432
   71MOL0     C 9665   6.020   3.539  10.340  0.0376  0.3405 -0.6304
   71MOL0     C 9666   5.952   3.488  10.231 -0.4927  0.4917  0.0687
   71MOL0     C 9667   5.923   3.351  10.231 -0.2658  0.3635  0.1573
   71MOL0     O 9668   5.849   3.282  10.135  0.3445  0.3971 -0.2066
   71MOL0     C 9669   5.856   3.302   9.994  0.2690  0.8819 -0.2583
   71MOL0     C 9670   5.989   3.290   9.935 -0.3354  0.0706  0.9727
   71MOL0     C 9671   6.015   3.140   9.912  0.4035 -0.4680 -1.3108
   71MOL0     C 9672   6.043   3.063  10.044 -0.1949 -0.1235  0.3852
   71MOL0     C 9673   6.127   2.935  10.019 -0.5925  0.3174 -0.3356
   71MOL0     C 9674   6.280   2.949  10.007 -0.8779  0.2902 -0.5701
   71MOL0     C 9675   6.352   2.821   9.962 -0.1918 -0.2202 -0.4126
   71MOL0     C 9676   6.304   2.783   9.820 -0.3980  0.0797  0.3397
   71MOL0     N 9677   6.417   2.750   9.728  1.1723  0.0187  0.2622
   71MOL0     C 9678   6.506   2.647   9.737  0.3755 -0.8368 -0.3899
   71MOL0     C 9679   6.612   2.672   9.657 -0.0341 -0.0448 -0.1982
   71MOL0     C 9680   6.731   2.573   9.645  0.3613 -0.3707 -1.2606
   71MOL0     C 9681   6.841   2.639   9.724 -0.3255 -0.0618 -0.1662
   71MOL0     C 9682   6.946   2.533   9.759 -0.5344 -0.5750  0.2693
   71MOL0     C 9683   7.037   2.575   9.870  0.4914 -0.0939 -0.3889
   71MOL0     O 9684   7.136   2.476   9.875  0.0322 -0.3289  0.6037
   71MOL0     C 9685   7.227   2.477   9.977  0.3243  1.4317 -0.2829
   71MOL0     C 9686   7.248   2.595  10.053  0.4333 -0.7445 -0.3394
   71MOL0     C 9687   7.347   2.591  10.157  0.3259 -0.2644 -0.5434
   71MOL0     C 9688   7.347   2.704  10.262 -0.4881 -0.6393  0.3895
   71MOL0     C 9689   7.433   2.483  10.166 -0.0787 -0.1460  0.5396
   71MOL0     C 9690   7.543   2.468  10.258  0.2525  0.0694 -0.9535
   71MOL0     O 9691   7.515   2.447  10.385 -0.2851  0.5184  0.0122
   71MOL0     C 9692   7.605   2.456  10.484 -0.2043  0.0168 -0.6353
   71MOL0     C 9693   7.659   2.343  10.547  1.4966  0.3764  0.7090
   71MOL0     C 9694   7.760   2.358  10.629  0.1581  0.7812  0.2980
   71MOL0     C 9695   7.818   2.473  10.662  0.3710 -0.2972  0.7696
   71MOL0     O 9696   7.938   2.478  10.732  0.2215 -0.2529  0.3015
   71MOL0     C 9697   8.006   2.610  10.754 -0.1116 -0.5447  0.6475
   71MOL0     C 9698   8.120   2.574  10.855 -0.0573  0.5675  0.8560
   71MOL0     C 9699   8.229   2.489  10.784  0.3235  0.0169 -0.7431
   71MOL0     C 9700   8.206   2.347  10.829 -0.4482  0.0227  0.0398
   71MOL0     C 9701   8.317   2.253  10.788 -0.3760  0.0253 -0.4106
   71MOL0     C 9702   8.287   2.112  10.843 -0.4432 -0.0714 -0.6156
   71MOL0     C 9703   8.392   2.017  10.799  0.6861  0.6943 -0.3402
   71MOL0     C 9704   8.389   1.885  10.870 -0.2375  0.0280  1.3247
   71MOL0    Cl 9705   8.453   1.903  11.044  0.2188 -0.5087  0.1718
   71MOL0     C 9706   7.755   2.588  10.610 -0.2001  0.6958 -0.0079
   71MOL0     C 9707   7.646   2.580  10.526  0.8561  0.1359  0.2934
   71MOL0     O 9708   7.654   2.477  10.212 -0.7098 -0.3277 -0.8768
   71MOL0     C 9709   7.414   2.372  10.085 -0.6345 -0.2372  0.3127
   71MOL0     C 9710   7.307   2.362  10.002 -0.2417  0.2539 -0.0896
   71MOL0     N 9711   6.585   2.794   9.600  0.1207  0.0972  0.1974
   71MOL0     N 9712   6.479   2.843   9.651 -0.2595  0.2851  0.2212
   71MOL0     C 9713   5.963   3.268  10.333  0.1973  0.1056 -0.5071
   71MOL0     C 9714   6.041   3.321  10.434  0.0134 -0.4165  0.6103
   71MOL0     C 9715   6.359   3.606  10.645 -0.0919 -0.3620 -0.5169
   71MOL0     C 9716   6.306   3.553  10.770  0.1230  0.0915 -0.1798
   71MOL0     C 9717   6.370   3.554  10.885 -0.5189 -1.0074 -0.0409
   71MOL0     C 9718   6.512   3.581  10.880 -0.4884 -0.4490 -0.9918
   71MOL0     O 9719   6.599   3.563  10.982  0.0655  0.0066  0.2436
   71MOL0     C 9720   6.580   3.656  11.087  0.6857 -0.2015  0.2591
   71MOL0     C 9721   6.648   3.794  11.058 -0.5152 -0.7147 -0.2575
   71MOL0     C 9722   6.806   3.796  11.058  0.0985  0.0418 -0.1180
   71MOL0     C 9723   6.860   3.835  11.196  0.4387 -1.0309  0.0527
   71MOL0     C 9724   6.981   3.913  11.180 -0.4109  0.8004  0.5393
   71MOL0     C 9725   7.082   3.978  11.156  0.4343 -0.0431 -0.7622
   71MOL0     C 9726   6.571   3.622  10.756  0.1755  0.2929 -0.1838
   71MOL0     C 9727   6.494   3.643  10.639 -0.2685  0.3139 -0.8463
   71MOL0     C 9728   6.559   3.706  10.513 -0.9954  0.4599  0.2266
   71MOL0     H 9729   6.034   3.646  10.342 -2.4431  0.7058 -0.1978
   71MOL0     H 9730   5.900   3.555  10.164 -1.5203 -1.6349 -1.3700
   71MOL0     H 9731   5.823   3.403   9.967  0.9694  0.7324 -1.8323
   71MOL0     H 9732   5.787   3.230   9.950  1.4303  0.5339 -1.5829
   71MOL0     H 9733   5.979   3.329   9.834  2.6571  0.7497  0.8528
   71MOL0     H 9734   6.065   3.340   9.997 -2.3574  1.7545  2.2594
   71MOL0     H 9735   5.923   3.098   9.870  0.0637 -1.1299  0.0597
   71MOL0     H 9736   6.097   3.116   9.843  0.7009 -1.1947 -0.7213
   71MOL0     H 9737   6.086   3.124  10.124 -0.8280 -2.7683  2.9004
   71MOL0     H 9738   5.946   3.041  10.088  0.5386 -1.7067  1.2949
   71MOL0     H 9739   6.089   2.899   9.923 -0.1386  4.4959 -2.2891
   71MOL0     H 9740   6.106   2.862  10.098  0.9271 -0.4927 -0.6357
   71MOL0     H 9741   6.296   3.033   9.939 -2.3600  2.3094  1.4422
   71MOL0     H 9742   6.320   2.978  10.105 -2.1564 -0.0965  0.1027
   71MOL0     H 9743   6.331   2.737  10.029 -1.2132 -0.1293 -0.5941
   71MOL0     H 9744   6.460   2.838   9.959 -0.0877 -0.7288  0.3217
   71MOL0     H 9745   6.241   2.694   9.812  3.2760 -2.7606  0.0649
   71MOL0     H 9746   6.250   2.864   9.769 -3.6656 -2.2032 -0.1099
   71MOL0     H 9747   6.505   2.567   9.810  3.7515 -0.3724  0.3623
   71MOL0     H 9748   6.769   2.571   9.542 -0.6613  0.6693 -1.6851
   71MOL0     H 9749   6.709   2.468   9.666 -2.4947  0.0310 -1.8825
   71MOL0     H 9750   6.878   2.721   9.662  3.5253 -0.8896  0.7806
   71MOL0     H 9751   6.813   2.683   9.821 -0.9027 -4.5147  1.9190
   71MOL0     H 9752   6.897   2.440   9.787 -1.2735 -0.5360 -0.8128
   71MOL0     H 9753   7.015   2.524   9.675  1.6377  2.5997  1.5207
   71MOL0     H 9754   7.065   2.677   9.843  1.8585  0.0158  1.2907
   71MOL0     H 9755   6.989   2.590   9.967 -0.5888 -1.8133 -0.6042
   71MOL0     H 9756   7.194   2.687  10.036 -0.2008 -1.0699 -0.1179
   71MOL0     H 9757   7.263   2.697  10.332 -3.0823 -1.5225 -2.6090
   71MOL0     H 9758   7.355   2.800  10.211  0.9234  0.0539  1.8206
   71MOL0     H 9759   7.437   2.709  10.324 -0.6630 -2.4486  0.8477
   71MOL0     H 9760   7.616   2.246  10.528 -2.7209  2.6595 -3.4130
   71MOL0     H 9761   7.783   2.261  10.674  0.6341 -0.9544 -3.3063
   71MOL0     H 9762   8.042   2.645  10.656 -1.7800 -2.4766 -0.7443
   71MOL0     H 9763   7.937   2.688  10.789 -1.9738 -0.4304 -2.8392
   71MOL0     H 9764   8.157   2.670  10.893 -0.1902  1.8753 -2.0218
   71MOL0     H 9765   8.077   2.529  10.945 -0.1385  0.6341  0.8518
   71MOL0     H 9766   8.325   2.514  10.830 -0.9574  2.7678  0.6460
   71MOL0     H 9767   8.225   2.497  10.675  1.3473  0.9054 -0.7323
   71MOL0     H 9768   8.110   2.308  10.794  0.0901 -0.1186 -1.3262
   71MOL0     H 9769   8.206   2.348  10.939 -0.1524 -0.5884  0.0484
   71MOL0     H 9770   8.341   2.250  10.681  0.9674  2.6449 -0.2668
   71MOL0     H 9771   8.412   2.288  10.830 -1.1383  1.0582  0.4979
   71MOL0     H 9772   8.190   2.089  10.798 -0.8851 -0.4456  0.5075
   71MOL0     H 9773   8.286   2.118  10.952 -1.7895 -1.4858 -0.5130
   71MOL0     H 9774   8.492   2.060  10.806  0.2630  2.5497 -3.4613
   71MOL0     H 9775   8.383   2.002  10.691  0.9166 -0.1149 -0.2516
   71MOL0     H 9776   8.434   1.804  10.813  0.0449  1.7541 -1.0249
   71MOL0     H 9777   8.286   1.859  10.895 -0.6817  2.7532  2.7590
   71MOL0     H 9778   7.796   2.684  10.638 -0.1981  2.0090 -3.9645
   71MOL0     H 9779   7.608   2.669  10.478  2.5499  2.3101  2.7245
   71MOL0     H 9780   7.480   2.286  10.092 -0.6536 -0.8759 -4.3314
   71MOL0     H 9781   7.298   2.271   9.943 -0.6138  1.4267 -1.9337
   71MOL0     H 9782   5.933   3.163  10.327 -0.7834  0.3083  0.4415
   71MOL0     H 9783   6.067   3.257  10.518  3.7142  0.0555  0.0141
   71MOL0     H 9784   6.209   3.506  10.775 -0.0697  0.4157 -0.7570
   71MOL0     H 9785   6.317   3.524  10.974 -0.7217 -1.8972 -0.4538
   71MOL0     H 9786   6.475   3.663  11.116 -0.4701 -1.1860 -3.1971
   71MOL0     H 9787   6.635   3.624  11.176  1.2208  2.2434  0.8860
   71MOL0     H 9788   6.607   3.866  11.128  1.2025 -0.6741  0.7746
   71MOL0     H 9789   6.613   3.838  10.964 -1.8690  0.0995  0.6151
   71MOL0     H 9790   6.843   3.696  11.034  0.1547  0.6803 -3.0580
   71MOL0     H 9791   6.850   3.859  10.981 -0.1259 -0.3587 -0.5792
   71MOL0     H 9792   6.883   3.743  11.250  1.5822 -0.9396 -0.2612
   71MOL0     H 9793   6.792   3.893  11.259  3.2022  1.2485  1.1627
   71MOL0     H 9794   7.171   4.034  11.136  1.4146 -1.3528 -0.1905
   71MOL0     H 9795   6.675   3.653  10.758 -0.1874  1.5429  1.7763
   71MOL0     H 9796   6.488   3.779  10.473 -3.6485 -1.6957  0.6315
   71MOL0     H 9797   6.655   3.753  10.534  0.2227 -2.0136  0.6417
   71MOL0     H 9798   6.572   3.639  10.427 -1.4198 -1.6671  1.7506
   72MOL0     O 9799   0.682   7.087   2.625 -0.3835 -0.0594  0.3789
   72MOL0     C 9800   0.779   7.080   2.542 -0.2202 -0.5067  0.1116
   72MOL0     O 9801   0.917   7.077   2.564  0.6837  0.3243 -0.4230
   72MOL0     C 9802   0.966   7.094   2.687  0.6840 -0.1701 -0.6379
   72MOL0     C 9803   0.984   6.993   2.786  0.4367  0.6437  0.5726
   72MOL0     C 9804   1.051   7.018   2.901 -0.4351  0.1469 -0.7461
   72MOL0     C 9805   1.070   7.148   2.946 -0.0101 -0.0684 -0.3826
   72MOL0     O 9806   1.115   7.188   3.076 -0.3094 -0.2564  0.1279
   72MOL0     C 9807   1.145   7.082   3.175  0.3117 -0.0292  1.0356
   72MOL0     C 9808   1.186   7.153   3.302 -0.3742 -0.2116  0.3741
   72MOL0     C 9809   1.202   7.048   3.415  0.1702  0.4545  0.0432
   72MOL0     C 9810   1.351   7.010   3.414 -0.4642 -0.1686  0.1524
   72MOL0     C 9811   1.384   6.897   3.512 -0.3223  0.3338 -0.1959
   72MOL0     C 9812   1.527   6.871   3.514  0.3265  0.2088  0.1119
   72MOL0     C 9813   1.559   6.752   3.612 -0.1709 -0.2998  0.0877
   72MOL0     C 9814   1.712   6.727   3.618 -0.8049 -0.9766 -0.1052
   72MOL0     N 9815   1.737   6.613   3.701  0.0555 -0.0643 -0.3173
   72MOL0     C 9816   1.813   6.619   3.817  0.1431  0.3111  0.1107
   72MOL0     C 9817   1.843   6.491   3.853 -0.0617  0.4290 -1.2976
   72MOL0     C 9818   1.929   6.449   3.967  0.4140 -1.0432 -0.4398
   72MOL0     C 9819   2.078   6.431   3.930 -1.1785  0.4315  1.1272
   72MOL0     C 9820   2.174   6.533   3.992  0.3156  0.0839 -0.9445
   72MOL0     C 9821   2.192   6.519   4.148 -0.7808  0.0500  0.2557
   72MOL0     O 9822   2.229   6.387   4.196  0.2809  0.2143 -0.0007
   72MOL0     C 9823   2.279   6.383   4.325  0.8630  0.4879 -0.6575
   72MOL0     C 9824   2.308   6.489   4.412  0.0562 -0.0981 -0.1896
   72MOL0     C 9825   2.375   6.468   4.536 -0.2305  0.1406 -0.8314
   72MOL0     C 9826   2.412   6.595   4.612  0.0025 -0.2512  0.2797
   72MOL0     C 9827   2.399   6.336   4.590  0.8732 -0.3957  0.4024
   72MOL0     C 9828   2.465   6.315   4.719  0.5985 -0.9426  0.4965
   72MOL0     O 9829   2.596   6.270   4.731  0.7352 -0.6604 -0.2308
   72MOL0     C 9830   2.654   6.257   4.856  0.1579  0.4916 -0.1661
   72MOL0     C 9831   2.595   6.206   4.973 -0.0518  0.1893  0.1384
   72MOL0     C 9832   2.668   6.212   5.092  0.9319 -0.1368  0.9688
   72MOL0     C 9833   2.804   6.257   5.103 -0.2872 -0.0301 -0.1545
   72MOL0     O 9834   2.852   6.266   5.235 -0.3744 -0.2876  0.0148
   72MOL0     C 9835   2.973   6.344   5.258 -0.3266  0.6298 -0.6487
   72MOL0     C 9836   2.993   6.351   5.400  0.8755  0.6493 -0.2420
   72MOL0     C 9837   2.994   6.213   5.473  0.1742 -0.6035 -0.2817
   72MOL0     C 9838   3.058   6.230   5.614  0.7470  0.7591  0.2246
   72MOL0     C 9839   3.044   6.104   5.703 -0.5683  0.1141  0.5443
   72MOL0     C 9840   3.099   5.972   5.654 -1.0160  0.8179  0.7649
   72MOL0     C 9841   3.244   5.968   5.596  0.0662  0.2111 -0.0575
   72MOL0     C 9842   3.310   5.833   5.640  0.6953 -0.3299 -0.8700
   72MOL0    Cl 9843   3.219   5.701   5.561 -0.2313  0.3215 -0.2049
   72MOL0     C 9844   2.860   6.319   4.983  0.0875  0.6770 -0.0767
   72MOL0     C 9845   2.785   6.316   4.865  0.7083 -0.7386 -0.1834
   72MOL0     O 9846   2.382   6.334   4.814 -0.1892  0.2742  0.5092
   72MOL0     C 9847   2.390   6.242   4.488  0.0823  0.0868 -0.2308
   72MOL0     C 9848   2.315   6.253   4.371 -1.1561  0.7884 -0.1276
   72MOL0     N 9849   1.773   6.411   3.761  0.3167  0.6805 -0.7346
   72MOL0     N 9850   1.724   6.481   3.664  0.1683 -0.4055  0.3098
   72MOL0     C 9851   1.054   7.251   2.856 -0.3322 -0.2900 -0.3021
   72MOL0     C 9852   1.006   7.217   2.727 -0.2629 -0.0843  0.1629
   72MOL0     C 9853   0.746   7.066   2.391  0.0055 -0.2043 -0.5271
   72MOL0     C 9854   0.824   7.137   2.300 -0.1305  0.0220  0.0800
   72MOL0     C 9855   0.792   7.134   2.164 -0.8798  0.2974  0.1124
   72MOL0     C 9856   0.673   7.085   2.114 -0.2168 -0.2206 -0.4392
   72MOL0     O 9857   0.651   7.088   1.981  0.3411  0.6862 -0.3839
   72MOL0     C 9858   0.513   7.060   1.936 -0.0556  0.7665 -0.2287
   72MOL0     C 9859   0.489   7.108   1.794  0.2113  0.1551  0.0797
   72MOL0     C 9860   0.383   7.217   1.769 -0.5792  0.2822  0.2848
   72MOL0     C 9861   0.414   7.283   1.632  0.0860  0.9159  1.0044
   72MOL0     C 9862   0.518   7.381   1.646  0.2223  0.5444  0.1321
   72MOL0     C 9863   0.610   7.455   1.660  0.3370  0.0996  0.2343
   72MOL0     C 9864   0.603   7.008   2.204 -0.0495  1.1386  0.0167
   72MOL0     C 9865   0.638   6.988   2.341  0.6081  0.3025 -0.7694
   72MOL0     C 9866   0.571   6.880   2.422 -0.5512 -0.4672 -0.5230
   72MOL0     H 9867   0.968   6.894   2.744  1.5423  0.9278 -0.5787
   72MOL0     H 9868   1.085   6.933   2.961 -1.2352  1.8095  2.2832
   72MOL0     H 9869   1.227   7.019   3.138  1.9901  0.2645  3.9783
   72MOL0     H 9870   1.060   7.016   3.195 -0.7484  0.0571 -2.4359
   72MOL0     H 9871   1.277   7.211   3.288 -0.0257 -0.6182  0.9168
   72MOL0     H 9872   1.111   7.231   3.319  1.7137  1.6134  1.8616
   72MOL0     H 9873   1.178   7.082   3.516  2.1674 -2.8547  1.7792
   72MOL0     H 9874   1.135   6.963   3.396  2.0358 -0.3908 -3.5865
   72MOL0     H 9875   1.379   6.977   3.313 -0.6432 -1.2904  0.4577
   72MOL0     H 9876   1.407   7.095   3.454  0.3985 -0.4556 -0.4139
   72MOL0     H 9877   1.325   6.812   3.477  1.4386 -0.9765 -0.1346
   72MOL0     H 9878   1.354   6.930   3.612 -0.3835  0.9472 -0.4085
   72MOL0     H 9879   1.565   6.846   3.415  0.3724 -0.8427  0.3794
   72MOL0     H 9880   1.588   6.958   3.540 -1.1459  2.1651 -2.4931
   72MOL0     H 9881   1.507   6.667   3.567  1.9469 -0.9997 -1.1914
   72MOL0     H 9882   1.519   6.774   3.711  3.5378  1.7890  1.3207
   72MOL0     H 9883   1.751   6.709   3.517  2.2685  1.3270  0.5166
   72MOL0     H 9884   1.764   6.812   3.665 -3.0817  0.1172  0.5572
   72MOL0     H 9885   1.841   6.711   3.867  0.0653  0.5181 -0.2255
   72MOL0     H 9886   1.888   6.356   4.009 -2.1648  1.3362  2.8650
   72MOL0     H 9887   1.898   6.520   4.043 -4.8233  0.4546 -3.4718
   72MOL0     H 9888   2.120   6.335   3.959 -1.6568  0.4005  1.7465
   72MOL0     H 9889   2.086   6.436   3.821 -1.4609  1.5968  1.1412
   72MOL0     H 9890   2.274   6.531   3.947 -0.0189 -0.6768 -1.6887
   72MOL0     H 9891   2.123   6.628   3.978 -0.4576 -0.0888  0.5362
   72MOL0     H 9892   2.260   6.600   4.177 -1.5336  1.5854 -1.9700
   72MOL0     H 9893   2.095   6.552   4.186  0.9993  3.5862  2.1378
   72MOL0     H 9894   2.303   6.595   4.385  3.3287 -0.0745 -1.0728
   72MOL0     H 9895   2.517   6.595   4.643  0.8808  1.4695 -2.4163
   72MOL0     H 9896   2.360   6.605   4.708  1.4991  1.8244  0.9568
   72MOL0     H 9897   2.387   6.685   4.555  4.5355  0.4182 -1.0717
   72MOL0     H 9898   2.501   6.153   4.967 -0.0633  0.3157 -0.9769
   72MOL0     H 9899   2.608   6.176   5.175 -0.5068 -0.1429 -0.0459
   72MOL0     H 9900   3.064   6.302   5.214 -0.0142 -2.4863  2.5475
   72MOL0     H 9901   2.960   6.449   5.230 -1.4993  0.6457 -0.1193
   72MOL0     H 9902   3.086   6.406   5.414  2.1459  0.2437 -5.1433
   72MOL0     H 9903   2.912   6.413   5.439 -1.6179 -2.0168 -0.8552
   72MOL0     H 9904   3.046   6.140   5.411  3.6017  0.6029  0.9344
   72MOL0     H 9905   2.887   6.189   5.472 -0.3636  1.1299  2.4743
   72MOL0     H 9906   3.007   6.310   5.667  2.6055  2.7119 -0.7738
   72MOL0     H 9907   3.162   6.251   5.586  1.0119 -1.2939 -0.5648
   72MOL0     H 9908   3.089   6.123   5.801  2.1426 -1.1779 -0.3485
   72MOL0     H 9909   2.939   6.089   5.730 -0.2364 -0.7568  1.4309
   72MOL0     H 9910   3.026   5.922   5.589 -1.2855  2.8055 -0.5349
   72MOL0     H 9911   3.104   5.917   5.749 -0.1766  0.4072  0.4911
   72MOL0     H 9912   3.305   6.048   5.639 -1.2673  1.4015 -0.3329
   72MOL0     H 9913   3.254   5.989   5.489  0.6989  0.7125  0.0931
   72MOL0     H 9914   3.308   5.833   5.749  0.8695  0.3361 -0.8614
   72MOL0     H 9915   3.417   5.837   5.615  1.8808 -1.6458  3.2839
   72MOL0     H 9916   2.960   6.361   4.981  1.5846 -2.5389  0.2884
   72MOL0     H 9917   2.803   6.363   4.769 -0.1299 -1.1926 -0.5673
   72MOL0     H 9918   2.431   6.143   4.507 -1.3464 -0.3917  0.4849
   72MOL0     H 9919   2.299   6.159   4.319  3.1360  0.5753 -1.4576
   72MOL0     H 9920   1.080   7.353   2.881 -0.0152 -0.1448 -1.1764
   72MOL0     H 9921   0.977   7.306   2.672 -1.2104 -0.1060  0.6159
   72MOL0     H 9922   0.898   7.202   2.347  0.4422 -0.3854 -0.2406
   72MOL0     H 9923   0.852   7.204   2.108  1.6706 -1.8483 -0.0189
   72MOL0     H 9924   0.508   6.951   1.936 -1.8337  0.8034  1.6247
   72MOL0     H 9925   0.433   7.093   2.003 -1.4520 -0.8827 -1.0123
   72MOL0     H 9926   0.449   7.015   1.751 -0.4270 -1.0009  2.9437
   72MOL0     H 9927   0.587   7.131   1.751  0.0446  0.6376 -0.0424
   72MOL0     H 9928   0.281   7.177   1.766 -1.7309  3.0492 -1.3925
   72MOL0     H 9929   0.386   7.281   1.859  0.1369 -0.9128  1.1420
   72MOL0     H 9930   0.320   7.327   1.598 -0.6882 -1.8698 -0.8144
   72MOL0     H 9931   0.436   7.208   1.556 -0.4978  2.4011 -0.6792
   72MOL0     H 9932   0.683   7.532   1.669 -0.2723  1.5274 -4.4165
   72MOL0     H 9933   0.511   6.955   2.177  0.6378 -0.6775  1.0384
   72MOL0     H 9934   0.481   6.928   2.462 -1.1417 -1.1892 -0.9465
   72MOL0     H 9935   0.543   6.798   2.356 -2.5242 -0.0875 -0.2223
   72MOL0     H 9936   0.630   6.846   2.507  0.5709  1.0823 -0.6309
   73MOL0     O 9937   7.906   4.838   7.169  0.2388 -1.4560  0.3703
   73MOL0     C 9938   7.950   4.798   7.055  0.1180  0.2069  0.7265
   73MOL0     O 9939   7.990   4.670   7.030 -0.0749 -0.5424  0.4412
   73MOL0     C 9940   8.038   4.592   7.138 -0.2777 -0.3120 -0.4203
   73MOL0     C 9941   7.947   4.515   7.217  0.1670 -0.4881  0.0389
   73MOL0     C 9942   7.995   4.444   7.322 -0.6525  0.2155 -0.6723
   73MOL0     C 9943   8.132   4.462   7.372 -0.4859  0.5552  0.4423
   73MOL0     O 9944   8.180   4.393   7.484  0.1240  0.4385 -0.7928
   73MOL0     C 9945   8.323   4.384   7.514 -0.1325 -0.6314 -0.2857
   73MOL0     C 9946   8.357   4.287   7.624 -0.0961 -0.8368 -0.5115
   73MOL0     C 9947   8.274   4.303   7.752  0.0421 -0.2632 -0.8863
   73MOL0     C 9948   8.299   4.438   7.819  0.2026  0.0586 -0.5666
   73MOL0     C 9949   8.231   4.468   7.950  0.4671  0.4723 -0.0875
   73MOL0     C 9950   8.090   4.509   7.928  0.6361  0.1989  0.5760
   73MOL0     C 9951   8.003   4.530   8.059  0.2775  0.0637 -0.1692
   73MOL0     C 9952   7.994   4.673   8.109  0.7124 -0.3205  0.6015
   73MOL0     N 9953   8.122   4.751   8.120  0.0557 -0.2566 -0.2310
   73MOL0     C 9954   8.186   4.805   8.006 -0.6823  0.8135 -0.4947
   73MOL0     C 9955   8.258   4.905   8.060  1.1916  0.6035 -0.3813
   73MOL0     C 9956   8.343   4.999   7.973 -0.6015 -0.0382  0.1830
   73MOL0     C 9957   8.265   5.113   7.901 -1.4039 -0.3641 -0.6667
   73MOL0     C 9958   8.245   5.226   8.011 -0.2156  0.7362 -0.0836
   73MOL0     C 9959   8.148   5.334   7.972 -0.5827 -0.5482  1.0533
   73MOL0     O 9960   8.195   5.393   7.841 -0.2157 -0.4349 -0.6603
   73MOL0     C 9961   8.284   5.502   7.839 -0.9170 -0.5120 -1.0269
   73MOL0     C 9962   8.323   5.553   7.717 -0.1953 -0.6197 -0.7641
   73MOL0     C 9963   8.432   5.635   7.693  0.0492 -0.2435 -0.9091
   73MOL0     C 9964   8.476   5.675   7.555  0.3622  0.5319  0.7643
   73MOL0     C 9965   8.498   5.683   7.808  0.4715 -0.6712  0.3323
   73MOL0     C 9966   8.591   5.804   7.797 -0.2664  0.0132 -0.6491
   73MOL0     O 9967   8.577   5.900   7.703 -0.0130 -0.3763 -0.5612
   73MOL0     C 9968   8.683   5.982   7.680 -0.0258 -0.1674 -0.6072
   73MOL0     C 9969   8.818   5.943   7.677 -0.4851  0.1980 -0.0274
   73MOL0     C 9970   8.918   6.039   7.637 -0.1869 -0.1862 -0.6997
   73MOL0     C 9971   8.875   6.169   7.596  0.0586  0.2320 -0.5885
   73MOL0     O 9972   8.965   6.266   7.558  0.1829  0.4618 -0.1484
   73MOL0     C 9973   9.099   6.265   7.608  1.0513  0.7682 -0.5762
   73MOL0     C 9974   9.191   6.184   7.516  0.1900 -0.1921 -0.1132
   73MOL0     C 9975   9.195   6.251   7.375 -1.0069  0.5261 -0.5376
   73MOL0     C 9976   9.289   6.188   7.269 -0.5906 -0.9338  0.5084
   73MOL0     C 9977   9.260   6.044   7.244 -0.5322 -0.8279  0.0785
   73MOL0     C 9978   9.375   5.987   7.162 -0.1475  0.1282 -0.1710
   73MOL0     C 9979   9.334   5.840   7.105 -1.0229 -0.1936 -0.5155
   73MOL0     C 9980   9.461   5.759   7.054  0.4995 -0.1246  1.2133
   73MOL0    Cl 9981   9.544   5.839   6.903  0.3854 -0.3307  0.5572
   73MOL0     C 9982   8.738   6.201   7.587  0.2689  0.5513  1.1441
   73MOL0     C 9983   8.646   6.103   7.632 -0.6697 -0.0501  0.8961
   73MOL0     O 9984   8.677   5.804   7.887 -0.0064  0.5623  0.2579
   73MOL0     C 9985   8.452   5.642   7.933 -0.0130  0.4649 -0.3112
   73MOL0     C 9986   8.354   5.536   7.949  0.1899 -0.3794 -0.3540
   73MOL0     N 9987   8.231   4.916   8.198 -0.5082 -0.6887 -0.5346
   73MOL0     N 9988   8.146   4.829   8.231 -0.1857  0.4170  0.5276
   73MOL0     C 9989   8.223   4.541   7.297 -0.0455 -0.1314 -1.0869
   73MOL0     C 9990   8.173   4.605   7.179 -0.2790 -0.2734 -0.4112
   73MOL0     C 9991   7.960   4.898   6.942  0.2984 -0.2228  0.5421
   73MOL0     C 9992   7.916   5.031   6.964  0.6377 -0.9716 -0.0160
   73MOL0     C 9993   7.908   5.127   6.862 -0.0567  0.4602  0.6408
   73MOL0     C 9994   7.942   5.083   6.734  0.5933  0.5847  0.4903
   73MOL0     O 9995   7.918   5.161   6.624 -0.7577  0.2908 -0.2723
   73MOL0     C 9996   8.013   5.165   6.521 -0.3064 -0.4504 -0.4864
   73MOL0     C 9997   8.023   5.295   6.457 -0.4766  0.8018 -0.0983
   73MOL0     C 9998   8.131   5.294   6.344  0.0265 -0.0507 -1.0694
   73MOL0     C 9999   8.129   5.428   6.278 -0.8279  0.0841  0.2440
   73MOL0     C10000   8.213   5.424   6.159  0.5776  0.9731  0.3282
   73MOL0     C10001   8.287   5.416   6.065  0.2329  0.2172 -0.0327
   73MOL0     C10002   7.991   4.956   6.711  0.0421  0.3049 -0.1080
   73MOL0     C10003   7.993   4.855   6.813 -0.0716  1.0388  0.0918
   73MOL0     C10004   8.036   4.715   6.771 -0.0802  0.3452  1.2530
   73MOL0     H10005   7.841   4.509   7.196  0.0395 -4.6675  1.0639
   73MOL0     H10006   7.924   4.386   7.380 -0.9821  1.2228 -0.0477
   73MOL0     H10007   8.347   4.489   7.532 -1.7160 -0.1311 -0.9707
   73MOL0     H10008   8.386   4.353   7.430  1.8912 -0.9639  1.2631
   73MOL0     H10009   8.340   4.189   7.580  0.3414 -0.2002 -2.1751
   73MOL0     H10010   8.463   4.300   7.650 -0.1111 -2.8498  0.7675
   73MOL0     H10011   8.169   4.285   7.727  0.3696 -2.5553 -0.8213
   73MOL0     H10012   8.309   4.226   7.822  1.5207 -0.0132 -1.3108
   73MOL0     H10013   8.406   4.450   7.837 -0.1816  2.1507  0.7088
   73MOL0     H10014   8.280   4.519   7.748  0.8540 -0.1788 -1.0186
   73MOL0     H10015   8.282   4.549   8.004 -0.8130 -0.2110  2.3099
   73MOL0     H10016   8.240   4.374   8.006  1.8632 -1.1282 -2.7996
   73MOL0     H10017   8.088   4.603   7.873  3.9790  0.6258  0.9918
   73MOL0     H10018   8.044   4.428   7.871 -0.5650  1.2695 -0.0047
   73MOL0     H10019   8.053   4.464   8.130 -0.1119 -0.4308 -0.3451
   73MOL0     H10020   7.899   4.498   8.044  0.9875 -1.9940 -1.1494
   73MOL0     H10021   7.945   4.724   8.026  3.0089  1.9846  0.5161
   73MOL0     H10022   7.937   4.685   8.202  0.4716  0.2527  0.3814
   73MOL0     H10023   8.179   4.775   7.902 -0.8476 -2.6720  0.4017
   73MOL0     H10024   8.385   4.935   7.895 -3.0678 -1.1930 -0.2756
   73MOL0     H10025   8.428   5.021   8.039 -0.5442 -5.2293  2.3232
   73MOL0     H10026   8.322   5.155   7.818  0.1024  0.8036  0.8745
   73MOL0     H10027   8.163   5.085   7.876 -2.5860  2.0924  0.9974
   73MOL0     H10028   8.210   5.176   8.102  3.1155  0.4152  1.1291
   73MOL0     H10029   8.342   5.268   8.037  3.1881 -4.8781 -2.0654
   73MOL0     H10030   8.051   5.287   7.958 -1.1384 -0.3351  3.6832
   73MOL0     H10031   8.120   5.411   8.044 -2.9838 -0.0721 -0.3022
   73MOL0     H10032   8.276   5.513   7.628 -0.8675  0.4966 -0.9334
   73MOL0     H10033   8.399   5.742   7.515 -0.2754 -2.1529 -3.1314
   73MOL0     H10034   8.472   5.594   7.482  3.4085  0.2393  0.7992
   73MOL0     H10035   8.573   5.722   7.541 -0.6275  1.8275 -2.6539
   73MOL0     H10036   8.850   5.845   7.714  3.6110  1.2414 -0.3453
   73MOL0     H10037   9.020   6.004   7.628  0.2926  1.1260 -0.6079
   73MOL0     H10038   9.142   6.365   7.616  2.0015  0.2597  1.3562
   73MOL0     H10039   9.095   6.230   7.712 -2.0664  2.6818  0.0537
   73MOL0     H10040   9.290   6.164   7.558  1.2489  1.7741 -1.5213
   73MOL0     H10041   9.152   6.083   7.499  2.0608 -0.6133 -2.4577
   73MOL0     H10042   9.235   6.353   7.375  1.7783 -0.3780  2.6037
   73MOL0     H10043   9.091   6.246   7.341 -1.0182 -1.7791 -0.3143
   73MOL0     H10044   9.386   6.187   7.318 -0.8068 -2.0710  0.9490
   73MOL0     H10045   9.285   6.242   7.174  3.4906 -0.8825  0.2058
   73MOL0     H10046   9.251   6.001   7.344 -1.9272  1.2590  0.9366
   73MOL0     H10047   9.165   6.020   7.195 -0.0990 -2.1938 -0.1254
   73MOL0     H10048   9.457   5.978   7.234 -1.1356  1.5381  1.2133
   73MOL0     H10049   9.409   6.060   7.088  4.2984 -4.0949 -2.8415
   73MOL0     H10050   9.274   5.859   7.016  1.3330  1.5344 -1.8664
   73MOL0     H10051   9.276   5.791   7.183  1.4012  0.7280  2.0705
   73MOL0     H10052   9.438   5.657   7.023 -1.4979  0.6222  0.0901
   73MOL0     H10053   9.528   5.759   7.141  1.9377  1.8340  0.1767
   73MOL0     H10054   8.699   6.297   7.554 -2.2020 -0.5910  0.5132
   73MOL0     H10055   8.539   6.116   7.625 -0.7667 -1.4721 -1.4725
   73MOL0     H10056   8.492   5.692   8.020  3.4390  2.5235 -2.8068
   73MOL0     H10057   8.318   5.503   8.046 -0.6726  2.9203  0.5819
   73MOL0     H10058   8.325   4.551   7.330  0.1634  0.3310 -1.8436
   73MOL0     H10059   8.244   4.664   7.123  3.4893 -3.1625  0.9535
   73MOL0     H10060   7.888   5.054   7.067  1.8390 -1.2165  0.3862
   73MOL0     H10061   7.872   5.229   6.866 -2.4429 -0.3552  3.8162
   73MOL0     H10062   8.110   5.160   6.572 -1.2111  0.9060  1.4760
   73MOL0     H10063   8.007   5.083   6.450 -0.6531  0.1286 -1.1392
   73MOL0     H10064   8.039   5.380   6.525 -3.3014  1.0351  0.3912
   73MOL0     H10065   7.925   5.317   6.414 -0.5987 -3.0383 -2.1628
   73MOL0     H10066   8.232   5.271   6.381 -0.5292 -0.6622  0.1065
   73MOL0     H10067   8.106   5.213   6.275 -1.7197  1.0434 -1.7896
   73MOL0     H10068   8.192   5.499   6.333  0.5205  1.0442 -2.3736
   73MOL0     H10069   8.031   5.468   6.249  0.9551  3.2297 -2.0450
   73MOL0     H10070   8.350   5.414   5.978 -1.6032 -0.9004 -1.4117
   73MOL0     H10071   8.019   4.917   6.614  0.2382 -0.9817  0.4473
   73MOL0     H10072   8.127   4.682   6.821 -0.0504  1.6584  2.1061
   73MOL0     H10073   7.955   4.643   6.788  0.8115 -1.1939 -0.6235
   73MOL0     H10074   8.053   4.717   6.663 -1.2144  0.8474  1.0719
   74MOL0     O10075   4.300   2.823   7.395 -0.3124 -0.1248  0.4701
   74MOL0     C10076   4.202   2.891   7.370 -0.6463 -0.3212 -0.2156
   74MOL0     O10077   4.179   3.019   7.406 -0.1703  0.0815  0.3607
   74MOL0     C10078   4.249   3.082   7.501  0.3859 -0.5091 -0.6662
   74MOL0     C10079   4.270   3.218   7.489  0.4754 -0.0302 -0.2678
   74MOL0     C10080   4.351   3.287   7.586 -0.0060 -0.5916  0.2845
   74MOL0     C10081   4.399   3.214   7.700  0.1158  0.6509  1.1115
   74MOL0     O10082   4.465   3.266   7.807  0.1251  0.3495  0.0900
   74MOL0     C10083   4.493   3.409   7.799 -0.4018 -0.8352  0.6050
   74MOL0     C10084   4.571   3.434   7.920  0.3062  0.1858 -0.5404
   74MOL0     C10085   4.646   3.568   7.925 -0.6212 -0.1529 -0.2430
   74MOL0     C10086   4.793   3.552   7.997  0.0105  1.5624  0.6553
   74MOL0     C10087   4.889   3.482   7.898 -0.3078 -0.6921  0.2039
   74MOL0     C10088   5.038   3.501   7.945  0.2311 -0.6857 -0.5969
   74MOL0     C10089   5.118   3.414   7.851 -0.1728  0.7371  0.3567
   74MOL0     C10090   5.102   3.261   7.836 -0.7569  0.0361 -0.1030
   74MOL0     N10091   5.209   3.203   7.749 -0.7392  0.1850  0.4816
   74MOL0     C10092   5.240   3.246   7.621  0.5213  0.3750  0.8322
   74MOL0     C10093   5.340   3.177   7.582 -0.9414  0.0513  0.6083
   74MOL0     C10094   5.407   3.194   7.450  0.4257 -0.7878  0.7746
   74MOL0     C10095   5.552   3.247   7.454  0.1045 -0.8107  0.0842
   74MOL0     C10096   5.564   3.400   7.481  0.5479 -0.1603  0.3369
   74MOL0     C10097   5.705   3.449   7.458  1.0755 -0.3192  0.7750
   74MOL0     O10098   5.788   3.413   7.576  0.0048 -0.4675  0.1724
   74MOL0     C10099   5.927   3.405   7.562 -0.1223 -0.0490 -0.0301
   74MOL0     C10100   6.011   3.409   7.672  0.5093 -0.3253  0.9229
   74MOL0     C10101   6.152   3.394   7.660  0.7362 -0.6044  0.2936
   74MOL0     C10102   6.218   3.389   7.792 -0.3408  0.7043  0.2099
   74MOL0     C10103   6.218   3.381   7.537  0.5066  0.5968 -0.0696
   74MOL0     C10104   6.362   3.359   7.518  1.0823  0.4216 -0.5828
   74MOL0     O10105   6.394   3.306   7.396  0.1714  0.2215 -0.0861
   74MOL0     C10106   6.524   3.271   7.369  0.1833 -0.1205 -0.4133
   74MOL0     C10107   6.593   3.351   7.276  0.3384  0.4847 -0.2997
   74MOL0     C10108   6.735   3.337   7.263 -0.6600 -0.1636 -0.0737
   74MOL0     C10109   6.799   3.244   7.342 -0.1030 -0.1258 -0.2068
   74MOL0     O10110   6.933   3.234   7.310 -0.2378 -0.7111 -0.3327
   74MOL0     C10111   6.998   3.111   7.344 -0.3188  0.8563 -0.3672
   74MOL0     C10112   7.131   3.089   7.263 -0.0166 -0.9015  0.3853
   74MOL0     C10113   7.188   2.958   7.298  0.0695  0.7257  0.3412
   74MOL0     C10114   7.299   2.928   7.197  0.0842  1.5670  0.4597
   74MOL0     C10115   7.368   2.797   7.227 -1.9217 -0.4018 -0.7773
   74MOL0     C10116   7.480   2.816   7.326 -1.0746 -0.2833  0.7434
   74MOL0     C10117   7.575   2.699   7.335 -0.0079  0.7008 -0.2069
   74MOL0     C10118   7.522   2.555   7.366  0.6714 -0.4810  0.0450
   74MOL0    Cl10119   7.647   2.424   7.360  0.1092  0.2590 -0.3090
   74MOL0     C10120   6.728   3.155   7.431 -0.1003 -0.2090  0.0435
   74MOL0     C10121   6.591   3.170   7.435 -0.0056 -0.9242  0.1494
   74MOL0     O10122   6.441   3.413   7.603  0.6795  0.9053  1.0336
   74MOL0     C10123   6.127   3.385   7.424 -1.2014  0.3022 -0.5254
   74MOL0     C10124   5.988   3.397   7.436 -0.6526  0.0268 -0.2803
   74MOL0     N10125   5.379   3.089   7.684 -0.3966  0.1489 -1.2109
   74MOL0     N10126   5.295   3.107   7.789 -0.6621  0.7491  0.4744
   74MOL0     C10127   4.373   3.079   7.711  0.6958 -0.2098  0.0540
   74MOL0     C10128   4.304   3.007   7.615 -0.2959  0.2137 -1.0724
   74MOL0     C10129   4.095   2.834   7.293  0.1644  1.0474 -0.1626
   74MOL0     C10130   3.970   2.872   7.328  0.3875 -0.0101  0.6727
   74MOL0     C10131   3.859   2.819   7.260 -0.8409 -0.0614  0.1120
   74MOL0     C10132   3.882   2.729   7.151  0.1408  0.3791  0.1099
   74MOL0     O10133   3.780   2.674   7.074 -1.4341  0.4218 -0.2489
   74MOL0     C10134   3.646   2.662   7.123 -1.1051  0.0875  0.2734
   74MOL0     C10135   3.634   2.582   7.251  0.0884  0.3900 -0.7252
   74MOL0     C10136   3.693   2.443   7.242  0.4516  0.9650 -0.9183
   74MOL0     C10137   3.659   2.357   7.357 -0.2276 -0.9401  0.2504
   74MOL0     C10138   3.747   2.241   7.366  0.1365  0.2845 -0.4090
   74MOL0     C10139   3.827   2.153   7.395 -0.8333  0.1976  0.2870
   74MOL0     C10140   4.014   2.693   7.112  0.5696 -0.0879  0.5013
   74MOL0     C10141   4.118   2.748   7.185  0.0036  0.2313  1.0531
   74MOL0     C10142   4.254   2.698   7.150 -0.9018  0.5816  0.2676
   74MOL0     H10143   4.225   3.284   7.415 -2.3410 -0.6440  0.7675
   74MOL0     H10144   4.387   3.388   7.573  2.4129 -1.5321 -1.0342
   74MOL0     H10145   4.403   3.471   7.807 -1.3154 -1.8349 -1.2122
   74MOL0     H10146   4.553   3.428   7.709 -1.3407 -0.1637  0.0992
   74MOL0     H10147   4.502   3.437   8.005  0.6210  3.6018 -0.2678
   74MOL0     H10148   4.643   3.352   7.926 -1.3614 -1.2649  1.0520
   74MOL0     H10149   4.665   3.617   7.829  4.4423 -0.2081  0.4765
   74MOL0     H10150   4.589   3.634   7.992 -0.8839 -2.5393  2.0615
   74MOL0     H10151   4.832   3.651   8.025 -0.6319  1.7546  0.9071
   74MOL0     H10152   4.785   3.485   8.084  1.6174 -2.2911 -1.9001
   74MOL0     H10153   4.870   3.516   7.796 -2.1734 -2.4174 -0.0908
   74MOL0     H10154   4.870   3.374   7.894 -0.6344 -0.6631  0.9408
   74MOL0     H10155   5.076   3.603   7.933  0.9128 -0.5217  2.2607
   74MOL0     H10156   5.053   3.472   8.050  2.2797 -1.6696 -1.1224
   74MOL0     H10157   5.222   3.438   7.874  0.3277  1.6681 -2.4293
   74MOL0     H10158   5.100   3.455   7.751 -0.7693 -1.0724 -0.3169
   74MOL0     H10159   5.111   3.219   7.936 -3.2086 -0.9136 -0.2182
   74MOL0     H10160   5.001   3.238   7.802 -1.0165 -0.9309  1.2427
   74MOL0     H10161   5.187   3.325   7.569 -1.8468 -0.4380  1.8397
   74MOL0     H10162   5.356   3.269   7.389 -2.1308 -2.5789  0.5447
   74MOL0     H10163   5.402   3.100   7.393  1.6189 -0.1201 -0.4994
   74MOL0     H10164   5.604   3.203   7.540  2.7858  0.8957 -0.5439
   74MOL0     H10165   5.602   3.208   7.365 -1.8466 -2.5195 -0.3430
   74MOL0     H10166   5.499   3.448   7.408  1.0433 -0.8416 -0.5888
   74MOL0     H10167   5.528   3.426   7.581  2.8982 -1.8862  1.7545
   74MOL0     H10168   5.728   3.422   7.355 -1.0155  0.7400 -0.0315
   74MOL0     H10169   5.697   3.558   7.454 -0.3883 -0.1948  3.7402
   74MOL0     H10170   5.965   3.419   7.770  1.5634  1.5560  1.2745
   74MOL0     H10171   6.235   3.489   7.834 -0.6215  1.0444 -0.4725
   74MOL0     H10172   6.313   3.335   7.784 -1.8479 -1.7787 -4.4133
   74MOL0     H10173   6.144   3.340   7.856 -4.8680  4.0609 -1.8857
   74MOL0     H10174   6.538   3.426   7.221 -2.2572 -1.1251 -0.0472
   74MOL0     H10175   6.791   3.395   7.190  0.8188  1.6715  2.3655
   74MOL0     H10176   7.016   3.097   7.451  1.5377 -0.8772 -0.8479
   74MOL0     H10177   6.933   3.033   7.304  0.1448  0.5552 -0.5425
   74MOL0     H10178   7.116   3.097   7.155 -2.3480 -2.4461  0.5225
   74MOL0     H10179   7.203   3.162   7.301 -2.1972  2.4624 -1.4242
   74MOL0     H10180   7.109   2.882   7.301 -0.9527  1.6838 -1.2852
   74MOL0     H10181   7.220   2.970   7.402  1.7098  1.2230 -0.1815
   74MOL0     H10182   7.365   3.014   7.191 -2.1176  3.3239 -0.2289
   74MOL0     H10183   7.250   2.913   7.100  0.9614 -0.0884  0.2320
   74MOL0     H10184   7.300   2.722   7.268 -1.6406  0.8113  2.1579
   74MOL0     H10185   7.413   2.739   7.147  3.1304  2.2568 -0.2571
   74MOL0     H10186   7.439   2.825   7.427 -1.7330  0.3436  0.4258
   74MOL0     H10187   7.533   2.904   7.288 -1.1020 -1.7904 -3.3776
   74MOL0     H10188   7.636   2.710   7.425 -1.1083 -0.8372  0.7886
   74MOL0     H10189   7.639   2.690   7.247  1.5560  1.5850  0.7816
   74MOL0     H10190   7.446   2.531   7.292  1.1371 -0.8737 -0.3181
   74MOL0     H10191   7.466   2.543   7.459 -0.8304 -0.8774 -0.8865
   74MOL0     H10192   6.775   3.080   7.493 -1.7231 -0.1538  1.4065
   74MOL0     H10193   6.531   3.117   7.508  0.8447 -3.7399 -1.0765
   74MOL0     H10194   6.157   3.370   7.321 -0.9371  0.9662 -0.5497
   74MOL0     H10195   5.932   3.414   7.345 -2.7496  3.6632  1.4776
   74MOL0     H10196   4.405   3.036   7.806 -1.7764 -3.3091 -0.3537
   74MOL0     H10197   4.281   2.902   7.634  0.4829  0.4366  1.3654
   74MOL0     H10198   3.944   2.935   7.413 -4.1547 -2.8110  1.7039
   74MOL0     H10199   3.756   2.843   7.285 -2.0619 -2.0708 -2.4771
   74MOL0     H10200   3.605   2.762   7.142  0.8583  0.9150  0.3397
   74MOL0     H10201   3.583   2.613   7.048  0.9582 -3.6932  0.7728
   74MOL0     H10202   3.529   2.576   7.278  0.9934 -1.5743  3.0886
   74MOL0     H10203   3.678   2.632   7.338 -2.8467  0.6509  0.7132
   74MOL0     H10204   3.661   2.411   7.143  1.2684 -0.6741 -0.6905
   74MOL0     H10205   3.802   2.455   7.241  0.9828 -2.3137  1.3664
   74MOL0     H10206   3.559   2.315   7.342 -1.1716  1.8104 -1.8329
   74MOL0     H10207   3.661   2.422   7.445 -0.7554 -0.8642  0.2128
   74MOL0     H10208   3.899   2.079   7.425 -0.3056 -0.6653 -2.6889
   74MOL0     H10209   4.024   2.640   7.018 -0.8391 -0.4574  0.5462
   74MOL0     H10210   4.330   2.776   7.135  0.4933 -1.0114 -1.4084
   74MOL0     H10211   4.289   2.629   7.228 -1.8175 -1.5931 -1.1708
   74MOL0     H10212   4.256   2.635   7.061 -0.7229 -1.7053  1.7987
   75MOL0     O10213   4.355  11.057   6.589  0.0329 -0.3388 -0.1618
   75MOL0     C10214   4.416  11.033   6.481 -0.1175  0.1126 -0.5819
   75MOL0     O10215   4.534  11.106   6.449  0.2697  0.6319  0.5893
   75MOL0     C10216   4.572  11.217   6.506  0.4260 -0.7653 -0.1602
   75MOL0     C10217   4.667  11.217   6.608 -1.0463 -0.1864 -0.2598
   75MOL0     C10218   4.720  11.338   6.655  0.7046 -0.1050 -0.6745
   75MOL0     C10219   4.673  11.463   6.611 -0.0483  0.4298  0.4304
   75MOL0     O10220   4.720  11.582   6.667  0.1260  0.5005  0.8324
   75MOL0     C10221   4.634  11.646   6.755  0.9634 -0.2607 -0.0482
   75MOL0     C10222   4.637  11.797   6.749  0.1716  0.5935 -0.4988
   75MOL0     C10223   4.645  11.838   6.601 -0.4977 -0.1896 -0.1395
   75MOL0     C10224   4.625  11.993   6.592 -0.0456 -0.2853  1.0191
   75MOL0     C10225   4.616  12.036   6.445 -0.0818 -0.0279 -0.2050
   75MOL0     C10226   4.587  12.187   6.430  0.6023  0.7743  1.1230
   75MOL0     C10227   4.589  12.229   6.270  0.5988 -0.2541  0.3598
   75MOL0     C10228   4.734  12.204   6.203  0.3408 -0.3353  0.1166
   75MOL0     N10229   4.736  12.269   6.071 -1.2900 -0.0441  1.0155
   75MOL0     C10230   4.702  12.207   5.952  0.5620  0.0439  0.6939
   75MOL0     C10231   4.723  12.295   5.860 -0.6931 -0.5936  1.1620
   75MOL0     C10232   4.697  12.284   5.717 -0.2474  0.5768 -0.2048
   75MOL0     C10233   4.813  12.221   5.638 -0.9500 -0.0579  0.3370
   75MOL0     C10234   4.817  12.061   5.644 -0.1029 -0.0962  0.2102
   75MOL0     C10235   4.950  12.013   5.583 -0.5972 -0.0980  0.4726
   75MOL0     O10236   5.071  12.066   5.649 -0.0779 -0.0678 -0.2007
   75MOL0     C10237   5.087  12.021   5.780  0.7231  0.8049  0.5547
   75MOL0     C10238   5.127  11.890   5.819 -1.2156  0.1246 -0.2092
   75MOL0     C10239   5.146  11.862   5.964 -0.4997 -0.1905  0.2852
   75MOL0     C10240   5.209  11.728   5.993 -0.0405 -0.0984  0.0843
   75MOL0     C10241   5.112  11.959   6.062  0.0056 -0.1024  0.3532
   75MOL0     C10242   5.125  11.940   6.204 -0.0709 -0.3362  0.6724
   75MOL0     O10243   5.035  11.995   6.283  0.6876 -0.1989  0.3713
   75MOL0     C10244   5.044  11.979   6.414 -0.4898 -0.4916 -0.7260
   75MOL0     C10245   5.105  12.077   6.494 -0.3279  0.8270  0.3584
   75MOL0     C10246   5.114  12.065   6.632 -0.2712 -0.2539  0.2237
   75MOL0     C10247   5.057  11.954   6.700 -0.0924  0.2228 -0.7064
   75MOL0     O10248   5.072  11.953   6.830  0.0521 -0.2103 -0.2459
   75MOL0     C10249   5.089  11.830   6.899  0.0578  0.0194  0.5738
   75MOL0     C10250   5.119  11.845   7.049 -1.0623 -0.6752  0.0638
   75MOL0     C10251   5.241  11.932   7.083 -0.8114 -0.3226 -0.2653
   75MOL0     C10252   5.272  11.925   7.235 -0.5036  0.6349  0.8482
   75MOL0     C10253   5.317  12.059   7.293 -0.8891 -0.5930  0.1823
   75MOL0     C10254   5.322  12.042   7.445  0.4702 -0.4456  1.0311
   75MOL0     C10255   5.311  12.179   7.505  0.0279 -0.6824 -0.2137
   75MOL0     C10256   5.365  12.176   7.652 -0.5722  1.0467 -0.1482
   75MOL0    Cl10257   5.336  12.332   7.730 -0.1426 -0.1042 -0.2314
   75MOL0     C10258   5.003  11.844   6.616  0.2163  0.1109 -0.2861
   75MOL0     C10259   4.995  11.859   6.476 -0.5765 -0.3263  0.5848
   75MOL0     O10260   5.241  11.915   6.234 -0.3745  0.6708 -0.1358
   75MOL0     C10261   5.058  12.077   6.013  0.1584 -0.2967  0.1319
   75MOL0     C10262   5.044  12.111   5.878 -0.1866 -0.9981 -0.4842
   75MOL0     N10263   4.789  12.405   5.911 -0.7016  0.8272  1.1426
   75MOL0     N10264   4.803  12.381   6.040  0.2381 -0.0540 -1.0521
   75MOL0     C10265   4.573  11.460   6.511 -0.0700 -0.4450 -0.3160
   75MOL0     C10266   4.523  11.345   6.457 -0.2584  0.0342  1.2698
   75MOL0     C10267   4.340  10.942   6.379 -0.6717  0.0815  0.6753
   75MOL0     C10268   4.215  10.893   6.400  0.1173  0.3474 -0.1026
   75MOL0     C10269   4.146  10.807   6.310 -0.4171 -0.0583  0.1979
   75MOL0     C10270   4.211  10.754   6.199  0.2563 -0.1899 -0.5869
   75MOL0     O10271   4.140  10.679   6.106 -0.2273 -0.6345 -0.5947
   75MOL0     C10272   4.004  10.653   6.124 -0.7176 -0.5128 -0.5889
   75MOL0     C10273   3.923  10.604   6.002 -0.5348 -0.4159  0.4266
   75MOL0     C10274   3.981  10.476   5.946 -0.0427  0.1970  0.3960
   75MOL0     C10275   3.957  10.473   5.796  0.7977 -0.0257 -0.4018
   75MOL0     C10276   3.817  10.469   5.759 -0.5248  0.3135 -0.2859
   75MOL0     C10277   3.705  10.449   5.722  1.2162  0.0964 -0.1056
   75MOL0     C10278   4.343  10.801   6.176  1.1916 -0.0763 -0.3240
   75MOL0     C10279   4.411  10.882   6.271  0.0682 -0.2478 -0.4829
   75MOL0     C10280   4.550  10.916   6.234 -0.1812  1.1993  0.0241
   75MOL0     H10281   4.706  11.121   6.642  0.3251  0.1945 -0.6809
   75MOL0     H10282   4.804  11.324   6.722 -1.7553 -3.2946  2.1621
   75MOL0     H10283   4.649  11.627   6.861 -1.8389  2.3369  0.9782
   75MOL0     H10284   4.536  11.606   6.729  1.7178 -1.6747 -0.8073
   75MOL0     H10285   4.551  11.846   6.794  1.2754  0.7739  1.5206
   75MOL0     H10286   4.732  11.817   6.800  0.9543 -0.3669 -1.5071
   75MOL0     H10287   4.743  11.811   6.561 -1.5204 -1.8312 -1.6926
   75MOL0     H10288   4.571  11.785   6.540 -0.9087 -0.1418  0.3068
   75MOL0     H10289   4.535  12.022   6.647 -1.5116  0.9212 -1.8025
   75MOL0     H10290   4.713  12.049   6.624  0.0068 -1.0708  2.3281
   75MOL0     H10291   4.534  11.980   6.399 -2.2257  0.9378  2.2368
   75MOL0     H10292   4.716  12.020   6.403  0.0657  0.1559  0.0719
   75MOL0     H10293   4.484  12.198   6.466  0.7694 -0.3111  1.9773
   75MOL0     H10294   4.663  12.248   6.480  1.7428  1.1338 -0.9028
   75MOL0     H10295   4.574  12.337   6.265  0.9956 -0.0917  2.1845
   75MOL0     H10296   4.508  12.186   6.210  3.2792 -0.8523 -3.1806
   75MOL0     H10297   4.809  12.256   6.263 -1.6294  2.7604  0.0996
   75MOL0     H10298   4.750  12.095   6.203  1.8078 -0.1657  1.7533
   75MOL0     H10299   4.651  12.113   5.932  0.6864 -0.3763  2.2063
   75MOL0     H10300   4.690  12.383   5.672 -0.9124 -0.6946 -3.1884
   75MOL0     H10301   4.603  12.231   5.697  0.2753  0.4085 -2.5656
   75MOL0     H10302   4.794  12.252   5.534 -2.3581 -2.5591 -0.2359
   75MOL0     H10303   4.913  12.250   5.672 -1.6524  0.2044  2.3022
   75MOL0     H10304   4.812  12.032   5.749  1.2057 -0.1697  0.2625
   75MOL0     H10305   4.734  12.025   5.582 -0.1817 -1.4149  1.0435
   75MOL0     H10306   4.955  11.903   5.578 -3.6249 -0.5535  3.6954
   75MOL0     H10307   4.949  12.030   5.475 -5.7868 -5.0812 -0.7405
   75MOL0     H10308   5.166  11.816   5.750  1.0183 -1.0034  2.0957
   75MOL0     H10309   5.252  11.686   5.902  0.6669 -1.6692  1.0880
   75MOL0     H10310   5.137  11.659   6.038  0.5602 -0.7663  0.0370
   75MOL0     H10311   5.288  11.740   6.068 -0.9562 -1.0571  1.2528
   75MOL0     H10312   5.155  12.164   6.453  1.3730  1.1019  2.7809
   75MOL0     H10313   5.160  12.136   6.700  1.0345 -2.1148  1.3947
   75MOL0     H10314   4.995  11.773   6.891 -1.0056  1.8661 -1.0727
   75MOL0     H10315   5.176  11.777   6.859  0.0978  0.7895 -0.3872
   75MOL0     H10316   5.024  11.878   7.093 -1.2086  3.0282 -2.5346
   75MOL0     H10317   5.145  11.746   7.086  0.1257 -0.9812 -1.5143
   75MOL0     H10318   5.231  12.032   7.041  0.6524  0.6747  1.6062
   75MOL0     H10319   5.321  11.878   7.031 -0.9173 -0.5921 -0.1525
   75MOL0     H10320   5.342  11.843   7.250 -2.6859 -1.5303 -0.0078
   75MOL0     H10321   5.187  11.900   7.299 -1.3019 -0.1070 -0.4526
   75MOL0     H10322   5.413  12.090   7.251 -0.8622  1.6703  1.7581
   75MOL0     H10323   5.244  12.137   7.271  1.7049  2.6487  2.1029
   75MOL0     H10324   5.418  11.999   7.476  0.9984 -0.5015 -0.5933
   75MOL0     H10325   5.245  11.974   7.483  1.5409 -0.6039  3.0824
   75MOL0     H10326   5.210  12.220   7.497 -0.4239 -1.9958 -1.7429
   75MOL0     H10327   5.384  12.244   7.455 -1.1900  1.6004  0.7817
   75MOL0     H10328   5.472  12.152   7.646 -0.4612  0.2304  3.0293
   75MOL0     H10329   5.322  12.091   7.706  1.6247 -1.0334 -1.4663
   75MOL0     H10330   4.955  11.759   6.663  1.3697 -0.0359  0.6660
   75MOL0     H10331   4.947  11.773   6.430  0.6347 -1.2747  1.0147
   75MOL0     H10332   5.024  12.144   6.092 -0.3403 -0.8253  0.3735
   75MOL0     H10333   4.994  12.205   5.859 -2.9121 -2.2542  0.0876
   75MOL0     H10334   4.538  11.557   6.478  1.2816 -0.1941 -1.0866
   75MOL0     H10335   4.464  11.327   6.368  2.2880 -1.8920 -0.1697
   75MOL0     H10336   4.159  10.936   6.482 -0.6194  2.1830 -1.5074
   75MOL0     H10337   4.046  10.792   6.349 -0.3524 -1.0151  0.0211
   75MOL0     H10338   3.982  10.588   6.209 -3.2041  1.2542  0.2339
   75MOL0     H10339   3.954  10.749   6.140 -3.4405 -1.3086 -3.3360
   75MOL0     H10340   3.914  10.684   5.928 -0.6242 -2.9345 -2.4598
   75MOL0     H10341   3.820  10.587   6.035 -0.6223 -1.9010 -0.5286
   75MOL0     H10342   4.085  10.456   5.973  0.9597 -0.1673 -3.1889
   75MOL0     H10343   3.923  10.394   5.989 -0.3181  0.3075  0.2366
   75MOL0     H10344   4.006  10.379   5.768 -1.3404 -1.3058 -0.0095
   75MOL0     H10345   4.013  10.551   5.741 -1.3777  1.0733 -1.1772
   75MOL0     H10346   3.603  10.442   5.691  0.3498  2.4933  1.8815
   75MOL0     H10347   4.387  10.767   6.083  1.5286 -2.2460  0.5543
   75MOL0     H10348   4.573  11.023   6.247  0.1516  1.2758 -1.1074
   75MOL0     H10349   4.620  10.854   6.291 -0.4051  1.2197  0.3258
   75MOL0     H10350   4.563  10.908   6.126 -0.8871  1.6878 -0.1089
   76MOL0     O10351   4.449   7.439   3.981  0.4170 -0.3125  0.0066
   76MOL0     C10352   4.351   7.433   3.912  0.6436  1.1028 -0.5329
   76MOL0     O10353   4.338   7.352   3.803  0.1866 -0.1836  0.8973
   76MOL0     C10354   4.452   7.292   3.759  0.1224  0.1628 -0.2945
   76MOL0     C10355   4.465   7.157   3.769 -0.0853  0.9293  0.2775
   76MOL0     C10356   4.593   7.099   3.753 -0.1289  0.2280  0.3668
   76MOL0     C10357   4.707   7.174   3.730 -0.3318  0.5140 -0.4338
   76MOL0     O10358   4.826   7.107   3.734  0.4590 -0.4768  0.0424
   76MOL0     C10359   4.933   7.195   3.773  0.7900  0.5344  0.9352
   76MOL0     C10360   5.059   7.106   3.784 -0.1379  0.2211  0.2071
   76MOL0     C10361   5.035   6.988   3.878  0.2577 -0.0584 -0.1578
   76MOL0     C10362   5.151   6.887   3.881 -0.4460  0.9154 -0.1601
   76MOL0     C10363   5.130   6.799   4.007  0.2321  0.2502 -0.2449
   76MOL0     C10364   5.247   6.701   4.021  0.0643  0.3941  0.3185
   76MOL0     C10365   5.226   6.590   3.919  0.1934  0.4677 -0.5009
   76MOL0     C10366   5.337   6.476   3.939  0.9014 -0.2576 -0.3156
   76MOL0     N10367   5.313   6.348   3.870  0.7898 -0.8954  0.9765
   76MOL0     C10368   5.218   6.333   3.773 -0.7120 -0.0385 -0.1122
   76MOL0     C10369   5.222   6.198   3.739  0.3892 -0.2889  0.4684
   76MOL0     C10370   5.145   6.134   3.625  0.2156 -0.9071  0.9250
   76MOL0     C10371   5.069   6.013   3.663 -0.0753 -0.0482 -0.1264
   76MOL0     C10372   5.148   5.888   3.685 -1.3743 -0.4185 -0.8303
   76MOL0     C10373   5.229   5.845   3.555 -0.6344  0.1419 -0.8832
   76MOL0     O10374   5.147   5.848   3.440  0.0758  0.7806  0.3357
   76MOL0     C10375   5.212   5.811   3.324 -0.2967 -0.3850 -0.0882
   76MOL0     C10376   5.342   5.801   3.289  0.2476 -0.4283 -0.7488
   76MOL0     C10377   5.395   5.747   3.166  0.2639 -0.4876  0.3752
   76MOL0     C10378   5.549   5.753   3.143 -0.8442  1.4950 -0.3409
   76MOL0     C10379   5.290   5.702   3.075 -0.1593 -0.4845  0.5101
   76MOL0     C10380   5.316   5.646   2.932  0.6456  0.3239 -0.8127
   76MOL0     O10381   5.213   5.578   2.883 -0.6391  0.4186  0.3208
   76MOL0     C10382   5.197   5.545   2.747  0.0075  0.9166 -0.0597
   76MOL0     C10383   5.095   5.444   2.732 -0.5488 -0.4853 -0.5632
   76MOL0     C10384   5.071   5.383   2.613  0.9846 -0.7676  0.6224
   76MOL0     C10385   5.147   5.419   2.496  0.1876  0.9653 -0.6484
   76MOL0     O10386   5.128   5.354   2.375  0.0534  0.5411  0.2274
   76MOL0     C10387   5.063   5.229   2.370 -0.6348  0.0465 -0.0747
   76MOL0     C10388   5.156   5.112   2.406  0.4904  0.2610  0.2452
   76MOL0     C10389   5.267   5.090   2.302  0.1655 -0.6875 -0.1500
   76MOL0     C10390   5.313   4.944   2.304 -0.6660 -0.1927 -0.7886
   76MOL0     C10391   5.369   4.885   2.438 -0.0533 -0.2048  0.1087
   76MOL0     C10392   5.437   4.741   2.429 -0.1983 -0.2744 -0.4483
   76MOL0     C10393   5.529   4.729   2.552 -0.1488  0.4675 -0.6481
   76MOL0     C10394   5.549   4.584   2.596 -0.5242  0.4272 -0.1635
   76MOL0    Cl10395   5.653   4.484   2.495  0.1880 -0.1442 -0.3101
   76MOL0     C10396   5.241   5.522   2.513  0.4320 -0.2328  0.5996
   76MOL0     C10397   5.269   5.578   2.635 -1.2320 -0.2480  0.3444
   76MOL0     O10398   5.416   5.679   2.875  0.0765 -0.6902 -0.0671
   76MOL0     C10399   5.162   5.694   3.118 -0.1304 -0.1484 -0.3670
   76MOL0     C10400   5.125   5.749   3.239  0.7018  0.2605 -0.0517
   76MOL0     N10401   5.302   6.134   3.828 -0.1212 -0.2358 -0.2860
   76MOL0     N10402   5.355   6.224   3.908  0.8447  0.1651  0.4479
   76MOL0     C10403   4.687   7.310   3.710  0.1495 -0.3332  0.2530
   76MOL0     C10404   4.563   7.374   3.736 -0.1330 -0.3363  0.2563
   76MOL0     C10405   4.228   7.518   3.951 -0.9629  0.6907  0.8995
   76MOL0     C10406   4.117   7.518   3.863  0.2707 -0.5433  0.3849
   76MOL0     C10407   4.004   7.590   3.893 -0.1827 -0.5299 -0.2630
   76MOL0     C10408   3.999   7.668   4.005 -0.1983  0.6286 -0.5948
   76MOL0     O10409   3.881   7.747   4.032 -0.2773 -0.5771 -0.0448
   76MOL0     C10410   3.881   7.848   4.135 -0.1614  1.2223 -0.2738
   76MOL0     C10411   3.751   7.916   4.133 -0.0968 -0.6822  0.9299
   76MOL0     C10412   3.628   7.832   4.169  0.0751  0.2356  0.2080
   76MOL0     C10413   3.507   7.924   4.212  0.6659  0.5898 -0.3281
   76MOL0     C10414   3.555   8.007   4.326  0.3776 -0.0315 -0.3690
   76MOL0     C10415   3.607   8.078   4.410 -0.4074  0.2000  0.4277
   76MOL0     C10416   4.103   7.651   4.105  0.9158 -0.2741  0.1219
   76MOL0     C10417   4.211   7.568   4.076 -0.6393  0.4149  0.5155
   76MOL0     C10418   4.305   7.540   4.191 -0.1552 -0.0517  0.0545
   76MOL0     H10419   4.386   7.092   3.804  0.0758 -1.9187 -3.9464
   76MOL0     H10420   4.596   6.990   3.753 -2.9532  0.0626 -0.6420
   76MOL0     H10421   4.916   7.252   3.864 -0.5499  0.0264  1.0282
   76MOL0     H10422   4.952   7.269   3.694 -2.0606 -2.3184 -2.8468
   76MOL0     H10423   5.076   7.078   3.679  1.2056 -0.7495  0.6485
   76MOL0     H10424   5.148   7.164   3.810  1.0883 -1.3703 -0.2531
   76MOL0     H10425   5.018   7.028   3.978  0.2541  3.4247 -1.4195
   76MOL0     H10426   4.936   6.949   3.851  0.5682  0.4844 -2.3029
   76MOL0     H10427   5.177   6.830   3.792  0.9206 -4.4010  3.1582
   76MOL0     H10428   5.248   6.931   3.904 -0.0819 -0.9220  2.1398
   76MOL0     H10429   5.034   6.748   3.995  2.0778 -3.0416 -2.8565
   76MOL0     H10430   5.132   6.871   4.089 -1.8782 -0.8115  0.8366
   76MOL0     H10431   5.342   6.751   3.999 -0.5720  1.8381  0.6680
   76MOL0     H10432   5.254   6.671   4.126 -1.9807  0.3223  0.4665
   76MOL0     H10433   5.229   6.624   3.815 -1.7047 -1.5185 -1.2879
   76MOL0     H10434   5.126   6.550   3.942  0.9683 -0.6859  1.0485
   76MOL0     H10435   5.429   6.526   3.908  1.4467  0.4899  2.2569
   76MOL0     H10436   5.335   6.450   4.046 -0.1539 -1.4737 -0.6106
   76MOL0     H10437   5.174   6.416   3.719  3.8368  2.4099 -0.5483
   76MOL0     H10438   5.216   6.116   3.544 -0.1918  2.7269 -0.4112
   76MOL0     H10439   5.075   6.206   3.582 -2.3828 -3.2195  0.9754
   76MOL0     H10440   5.028   6.031   3.762  3.2921 -1.6083  1.7174
   76MOL0     H10441   4.984   5.993   3.597  1.4623 -2.6962 -1.4697
   76MOL0     H10442   5.218   5.893   3.768 -3.0712 -0.0262  0.6400
   76MOL0     H10443   5.069   5.817   3.709  0.0729 -2.4799 -1.9064
   76MOL0     H10444   5.310   5.916   3.538  0.4024 -1.0642 -1.1655
   76MOL0     H10445   5.272   5.744   3.565 -2.1675 -0.5964 -1.4610
   76MOL0     H10446   5.413   5.837   3.364  4.2491 -1.7302 -3.5531
   76MOL0     H10447   5.578   5.851   3.183 -5.2703  3.8378 -2.1433
   76MOL0     H10448   5.580   5.746   3.039 -0.3597 -1.7947 -0.0835
   76MOL0     H10449   5.597   5.667   3.191 -2.9067 -0.0191 -0.8502
   76MOL0     H10450   5.039   5.413   2.821  1.8518 -0.9416  0.8662
   76MOL0     H10451   4.992   5.309   2.609  1.1443 -0.9083 -2.4378
   76MOL0     H10452   4.982   5.217   2.443 -2.3422 -1.2760 -2.0755
   76MOL0     H10453   5.017   5.223   2.271 -1.5638  1.7547  0.1994
   76MOL0     H10454   5.191   5.134   2.507 -0.1546 -1.6351  0.9227
   76MOL0     H10455   5.098   5.019   2.404  3.0183 -1.4716  1.5389
   76MOL0     H10456   5.357   5.148   2.324  0.3207 -1.2397  0.6770
   76MOL0     H10457   5.218   5.123   2.209  1.0571 -0.1902 -0.4626
   76MOL0     H10458   5.386   4.937   2.222  2.7552  1.5914  1.8096
   76MOL0     H10459   5.228   4.879   2.286  0.4040 -2.1487  0.8116
   76MOL0     H10460   5.445   4.959   2.464 -2.1471  1.4183  1.9922
   76MOL0     H10461   5.285   4.895   2.506 -2.2645  1.3212 -2.6202
   76MOL0     H10462   5.493   4.737   2.334  1.2333  0.8722  0.2983
   76MOL0     H10463   5.356   4.669   2.433  0.3765 -0.9305  3.4229
   76MOL0     H10464   5.495   4.792   2.635 -1.3465  1.0387 -1.5380
   76MOL0     H10465   5.628   4.769   2.528  0.7787 -0.5933  1.1973
   76MOL0     H10466   5.449   4.540   2.603 -0.3472 -0.7837 -3.2735
   76MOL0     H10467   5.604   4.577   2.690 -0.8809  1.5275  0.1464
   76MOL0     H10468   5.292   5.563   2.426  0.1210 -2.2764 -0.6331
   76MOL0     H10469   5.347   5.653   2.632  1.6830 -3.1114 -2.1554
   76MOL0     H10470   5.076   5.668   3.057 -2.2706  4.0047  0.5282
   76MOL0     H10471   5.022   5.734   3.268  0.1639 -3.6090 -3.1187
   76MOL0     H10472   4.767   7.373   3.673  0.1929 -0.0174  0.8514
   76MOL0     H10473   4.553   7.482   3.735  1.4366 -0.1651 -0.1976
   76MOL0     H10474   4.124   7.465   3.769  0.8880  0.8303 -0.3684
   76MOL0     H10475   3.917   7.598   3.828  0.0339  2.4655 -0.3047
   76MOL0     H10476   3.910   7.817   4.236  1.1100  0.0949 -0.9433
   76MOL0     H10477   3.966   7.914   4.115  1.2924  0.0683  1.7371
   76MOL0     H10478   3.739   7.957   4.033 -2.8136  0.9719  1.8113
   76MOL0     H10479   3.767   8.005   4.194 -1.9034  0.9917 -0.9150
   76MOL0     H10480   3.586   7.773   4.086  2.1527  0.9263 -1.4204
   76MOL0     H10481   3.649   7.754   4.242  0.9498  0.7820  0.5475
   76MOL0     H10482   3.437   7.851   4.254 -0.2462  1.7059  0.1683
   76MOL0     H10483   3.449   7.969   4.131  1.7411 -1.0525 -2.0900
   76MOL0     H10484   3.648   8.155   4.473 -2.3826  1.3488  0.4245
   76MOL0     H10485   4.082   7.692   4.203 -3.2206 -2.8620  0.5412
   76MOL0     H10486   4.408   7.574   4.178 -0.7070  1.1158 -1.6983
   76MOL0     H10487   4.273   7.595   4.280 -0.0872  0.4300 -0.2150
   76MOL0     H10488   4.313   7.435   4.220  1.3753  0.0140 -0.0459
   77MOL0     O10489   7.361   4.424   0.309  0.6233  0.8620 -0.2510
   77MOL0     C10490   7.386   4.421   0.188  0.7325  0.6017 -0.6842
   77MOL0     O10491   7.353   4.316   0.101  0.1411 -0.2691  0.5792
   77MOL0     C10492   7.307   4.196   0.152 -0.9578  0.3877 -0.7101
   77MOL0     C10493   7.341   4.138   0.276  0.2666  0.1533 -0.8217
   77MOL0     C10494   7.292   4.014   0.323 -0.7263 -0.3622  1.1398
   77MOL0     C10495   7.207   3.949   0.236  0.3591  0.1881 -0.4332
   77MOL0     O10496   7.144   3.826   0.265 -0.6124 -0.3518 -0.5780
   77MOL0     C10497   7.244   3.720   0.283 -0.0307  0.1621  0.2727
   77MOL0     C10498   7.186   3.588   0.247  1.0596  0.2538  0.5009
   77MOL0     C10499   7.074   3.579   0.129 -0.4156  0.6592 -0.5458
   77MOL0     C10500   6.930   3.584   0.182 -0.1508 -0.4016  0.0214
   77MOL0     C10501   6.829   3.596   0.068 -0.3202  0.3899 -0.0600
   77MOL0     C10502   6.680   3.573   0.116 -0.4562  0.3408  0.0097
   77MOL0     C10503   6.603   3.525   0.002  0.5763  0.7692  0.0990
   77MOL0     C10504   6.637   3.383  -0.043 -0.4377  0.0734 -0.3908
   77MOL0     N10505   6.523   3.345  -0.136 -0.5758  0.4744 -0.4735
   77MOL0     C10506   6.399   3.299  -0.101 -0.1836 -0.4286  0.9229
   77MOL0     C10507   6.324   3.309  -0.213  0.1053 -1.3146 -0.8862
   77MOL0     C10508   6.176   3.297  -0.219 -0.8640 -0.0369 -0.8264
   77MOL0     C10509   6.130   3.164  -0.183 -0.6126 -0.1463  0.7307
   77MOL0     C10510   6.188   3.049  -0.267 -0.1834  0.7619 -0.1567
   77MOL0     C10511   6.107   2.916  -0.266 -0.6160  0.5854  0.6682
   77MOL0     O10512   6.109   2.853  -0.139  0.5127  1.4045 -0.5914
   77MOL0     C10513   5.996   2.770  -0.113 -0.5148  0.7633  0.7829
   77MOL0     C10514   5.984   2.641  -0.167 -0.2458  0.0941  0.7154
   77MOL0     C10515   5.877   2.560  -0.137  0.0438 -0.0778  0.2939
   77MOL0     C10516   5.879   2.415  -0.190  0.0286  0.3738  0.1956
   77MOL0     C10517   5.774   2.619  -0.059 -0.2231  1.1597  0.6111
   77MOL0     C10518   5.649   2.537  -0.025 -0.7561  0.1085  0.1885
   77MOL0     O10519   5.563   2.597   0.058 -0.0081 -0.2624  0.0058
   77MOL0     C10520   5.461   2.524   0.124  0.2505  0.5719 -0.5884
   77MOL0     C10521   5.357   2.603   0.169  1.0925 -0.2478  0.1327
   77MOL0     C10522   5.249   2.540   0.230 -0.5210 -0.4264 -0.0714
   77MOL0     C10523   5.236   2.401   0.233 -0.8453 -1.5320 -0.1785
   77MOL0     O10524   5.120   2.360   0.285  0.2780 -0.2636 -0.1500
   77MOL0     C10525   5.105   2.216   0.317  0.2535 -0.3994 -0.1347
   77MOL0     C10526   5.046   2.212   0.454  0.2982  0.9587 -0.1642
   77MOL0     C10527   4.897   2.231   0.459 -0.7892 -0.9897 -0.4798
   77MOL0     C10528   4.840   2.179   0.590 -0.2703  0.3928 -0.8693
   77MOL0     C10529   4.699   2.130   0.578  0.0004 -0.3793 -0.5386
   77MOL0     C10530   4.643   2.121   0.723  0.3494 -0.0082 -0.5551
   77MOL0     C10531   4.495   2.086   0.707  0.6909  0.5499  0.0992
   77MOL0     C10532   4.438   2.049   0.843 -0.6083  0.8564 -0.4487
   77MOL0    Cl10533   4.258   2.018   0.818 -0.3143 -0.3752  0.1698
   77MOL0     C10534   5.341   2.319   0.195  0.1143  0.3970 -0.2900
   77MOL0     C10535   5.457   2.381   0.140 -0.4951 -0.0759  0.4467
   77MOL0     O10536   5.624   2.434  -0.083  0.7749 -0.0950  0.8961
   77MOL0     C10537   5.791   2.744   0.002 -0.2853  0.5128 -0.4136
   77MOL0     C10538   5.901   2.822  -0.029  0.1880  0.5999 -0.4042
   77MOL0     N10539   6.405   3.342  -0.318 -0.5342 -0.2135 -0.2882
   77MOL0     N10540   6.525   3.366  -0.270  0.6121 -0.4688 -0.1567
   77MOL0     C10541   7.150   4.013   0.124 -0.0003 -0.5825  0.3235
   77MOL0     C10542   7.199   4.132   0.081 -0.7556  0.0925 -0.8397
   77MOL0     C10543   7.465   4.528   0.131  0.0217 -0.1989 -0.1386
   77MOL0     C10544   7.490   4.530  -0.008 -0.9258  0.6061 -0.2236
   77MOL0     C10545   7.579   4.621  -0.058  0.6970 -0.5058  0.0614
   77MOL0     C10546   7.632   4.725   0.016 -0.0578  0.7943  0.1467
   77MOL0     O10547   7.694   4.827  -0.048 -0.5846 -0.2949  0.0074
   77MOL0     C10548   7.784   4.911   0.029  0.1680  0.1825  1.0011
   77MOL0     C10549   7.892   4.977  -0.059 -0.4869  1.1148 -0.2369
   77MOL0     C10550   7.978   4.883  -0.140  0.2509 -0.3423  0.3386
   77MOL0     C10551   8.041   4.764  -0.072  0.5158  0.8709  0.1153
   77MOL0     C10552   8.142   4.795   0.047  0.0641 -0.2440  0.3455
   77MOL0     C10553   8.219   4.821   0.144  0.7089 -0.3367 -0.9296
   77MOL0     C10554   7.614   4.726   0.157  0.5496  0.2416  0.5282
   77MOL0     C10555   7.524   4.634   0.214  0.2421  0.0725 -0.1841
   77MOL0     C10556   7.491   4.669   0.362 -0.1693 -0.0902 -0.9187
   77MOL0     H10557   7.418   4.193   0.329  0.1553 -0.8239  0.3824
   77MOL0     H10558   7.335   3.989   0.419  2.4219  0.1086 -0.0252
   77MOL0     H10559   7.281   3.705   0.385  1.0146  2.1167  0.2282
   77MOL0     H10560   7.328   3.715   0.212  0.4260 -0.9174  0.8649
   77MOL0     H10561   7.259   3.509   0.229  1.0755 -0.3915  2.9573
   77MOL0     H10562   7.139   3.549   0.338  1.5360 -2.8708 -0.4756
   77MOL0     H10563   7.094   3.662   0.060 -2.1907  3.8921  2.4717
   77MOL0     H10564   7.084   3.488   0.070  1.1773  1.0074 -0.8867
   77MOL0     H10565   6.900   3.502   0.247 -2.4203  1.7463  1.9272
   77MOL0     H10566   6.908   3.668   0.250 -2.3392  0.1762 -1.3050
   77MOL0     H10567   6.855   3.518  -0.004 -0.5169 -1.2714  1.5956
   77MOL0     H10568   6.841   3.691   0.016  0.6896  1.4496  1.9847
   77MOL0     H10569   6.668   3.500   0.196  0.3276  0.6701  0.4336
   77MOL0     H10570   6.634   3.669   0.143  1.7247  1.5564 -0.3881
   77MOL0     H10571   6.618   3.585  -0.088 -1.1963  0.2812 -0.5611
   77MOL0     H10572   6.498   3.525   0.031  0.1789 -0.1934 -1.2308
   77MOL0     H10573   6.736   3.367  -0.084 -0.7559 -2.7075 -0.2270
   77MOL0     H10574   6.626   3.314   0.041  3.4621  0.5076  0.6671
   77MOL0     H10575   6.365   3.268  -0.002  1.9252 -2.0492  1.2063
   77MOL0     H10576   6.148   3.331  -0.319  0.7140  0.9613 -0.9647
   77MOL0     H10577   6.127   3.362  -0.146 -0.6902  0.2466 -0.9606
   77MOL0     H10578   6.153   3.148  -0.078  1.3751  2.0670  0.7122
   77MOL0     H10579   6.022   3.149  -0.198 -0.8493  0.1923  2.0269
   77MOL0     H10580   6.181   3.092  -0.367  1.3840 -0.6382 -0.9277
   77MOL0     H10581   6.293   3.023  -0.248  0.1378  2.0356 -0.0744
   77MOL0     H10582   6.004   2.921  -0.303  0.3175 -0.8961 -2.4968
   77MOL0     H10583   6.155   2.846  -0.335  3.1790  4.7627 -1.3729
   77MOL0     H10584   6.065   2.600  -0.226  0.8583  4.7044 -1.4272
   77MOL0     H10585   5.835   2.345  -0.118 -2.2663  2.9114  1.4567
   77MOL0     H10586   5.981   2.379  -0.205 -0.4692 -1.2256  0.5361
   77MOL0     H10587   5.831   2.400  -0.287 -1.4485 -3.5600  1.3456
   77MOL0     H10588   5.365   2.711   0.167  0.2794 -0.1886 -1.9237
   77MOL0     H10589   5.160   2.596   0.258 -1.7494 -2.9480  1.4783
   77MOL0     H10590   5.036   2.172   0.244 -1.1821  0.0134  0.9400
   77MOL0     H10591   5.193   2.152   0.326 -1.7766 -3.1536  2.0263
   77MOL0     H10592   5.071   2.115   0.499 -3.3183  1.2703  3.1020
   77MOL0     H10593   5.096   2.289   0.514  0.0488  1.9993 -1.2594
   77MOL0     H10594   4.848   2.169   0.384  0.2504  1.0099 -2.9743
   77MOL0     H10595   4.867   2.335   0.439  1.8197  0.1925  1.2611
   77MOL0     H10596   4.844   2.270   0.651 -1.7614  1.9249 -2.9133
   77MOL0     H10597   4.902   2.096   0.625 -0.8918 -0.1075 -0.9506
   77MOL0     H10598   4.636   2.199   0.521 -0.4901 -0.7095 -0.3965
   77MOL0     H10599   4.713   2.035   0.525  2.4716 -0.0577 -0.6030
   77MOL0     H10600   4.658   2.216   0.776 -3.2526  0.2603  0.2765
   77MOL0     H10601   4.704   2.039   0.760  2.2358  0.9075 -1.5179
   77MOL0     H10602   4.477   1.999   0.642  2.6821  0.1928 -0.0616
   77MOL0     H10603   4.447   2.177   0.671  1.5406  1.3384  0.8934
   77MOL0     H10604   4.449   2.134   0.911 -0.0325  0.5654 -0.1739
   77MOL0     H10605   4.489   1.959   0.880  1.4364  0.8438 -2.9796
   77MOL0     H10606   5.345   2.211   0.197  1.8434  0.3654  3.9418
   77MOL0     H10607   5.544   2.323   0.110 -0.7497 -0.0808 -0.2874
   77MOL0     H10608   5.713   2.785   0.065  0.5065 -0.3781  1.2131
   77MOL0     H10609   5.919   2.919   0.016  1.2597 -0.6155  1.9654
   77MOL0     H10610   7.073   3.968   0.062  1.3591  1.4733 -3.1475
   77MOL0     H10611   7.156   4.184  -0.004 -1.3543  1.4539  0.2505
   77MOL0     H10612   7.461   4.447  -0.072  1.5150 -0.9904  0.5715
   77MOL0     H10613   7.612   4.620  -0.161  1.9165  2.1700  0.3425
   77MOL0     H10614   7.718   4.989   0.068  0.5538 -0.0055  2.0674
   77MOL0     H10615   7.838   4.855   0.106  0.2190  0.5402  1.2273
   77MOL0     H10616   7.961   5.035   0.003 -0.3750  0.9296 -0.1870
   77MOL0     H10617   7.840   5.044  -0.128 -2.3691 -0.1479 -0.1246
   77MOL0     H10618   7.919   4.841  -0.222  0.5057 -1.9865  0.9636
   77MOL0     H10619   8.059   4.942  -0.185  0.2970  0.7375  1.7916
   77MOL0     H10620   8.100   4.710  -0.146  0.9476 -3.6323  3.3509
   77MOL0     H10621   7.964   4.700  -0.028 -0.3208  1.3956 -0.5424
   77MOL0     H10622   8.274   4.841   0.233 -0.5930  2.5066 -0.6674
   77MOL0     H10623   7.662   4.803   0.216  2.5362  0.0502 -0.7267
   77MOL0     H10624   7.521   4.590   0.432 -1.2978 -0.0141 -0.3264
   77MOL0     H10625   7.533   4.762   0.404  0.3923 -0.5591 -0.4233
   77MOL0     H10626   7.382   4.675   0.372 -0.1320 -0.2223 -0.4175
   78MOL0     O10627   4.875   8.797   2.789  0.4593 -0.0942  0.4289
   78MOL0     C10628   4.770   8.859   2.764 -0.2200  0.0399 -0.2590
   78MOL0     O10629   4.764   8.994   2.736 -0.1466 -0.1802 -0.2683
   78MOL0     C10630   4.874   9.066   2.724 -0.4171  0.0691 -0.2140
   78MOL0     C10631   4.998   9.050   2.787 -0.3035 -0.1941 -0.2167
   78MOL0     C10632   5.101   9.146   2.773  1.0979 -0.1061 -0.0958
   78MOL0     C10633   5.082   9.265   2.702  1.0488  0.8601 -0.2914
   78MOL0     O10634   5.166   9.366   2.715  0.7925 -0.0788  0.3028
   78MOL0     C10635   5.302   9.319   2.693  0.9119  0.0278 -0.5481
   78MOL0     C10636   5.385   9.446   2.687  0.2307 -0.0358 -0.5436
   78MOL0     C10637   5.529   9.420   2.653  0.3596  0.1641 -0.0448
   78MOL0     C10638   5.618   9.535   2.704  0.1142 -0.2527 -0.3871
   78MOL0     C10639   5.614   9.661   2.621 -1.0256  0.1452 -0.4363
   78MOL0     C10640   5.725   9.757   2.672 -0.8514 -0.5462  0.8337
   78MOL0     C10641   5.766   9.854   2.555 -1.1209  0.0258 -0.2096
   78MOL0     C10642   5.853   9.962   2.634  0.1953  0.2533 -0.5027
   78MOL0     N10643   5.928  10.049   2.545 -0.2084  0.4391  0.2802
   78MOL0     C10644   6.010  10.005   2.441  0.0524 -0.1137  1.2210
   78MOL0     C10645   6.044  10.126   2.377  1.0722 -0.1816  0.8310
   78MOL0     C10646   6.124  10.155   2.253  0.5908  0.2865 -0.5481
   78MOL0     C10647   6.098  10.061   2.140  0.0682 -0.2801 -0.5388
   78MOL0     C10648   5.954  10.056   2.088 -0.2878 -0.4235 -0.0451
   78MOL0     C10649   5.857   9.956   2.159  0.0348  0.0518  0.4858
   78MOL0     O10650   5.920   9.831   2.191  0.6018 -0.5415 -0.2137
   78MOL0     C10651   5.832   9.728   2.215  0.6855 -0.6191  0.3396
   78MOL0     C10652   5.863   9.592   2.186 -0.5318 -0.1141 -1.2617
   78MOL0     C10653   5.771   9.488   2.193  0.3338 -0.6054 -0.0488
   78MOL0     C10654   5.830   9.353   2.150  0.3997 -1.0660 -0.7649
   78MOL0     C10655   5.640   9.518   2.221  0.4741  0.5692  0.9204
   78MOL0     C10656   5.532   9.421   2.204  0.0296  0.3389 -0.2547
   78MOL0     O10657   5.549   9.333   2.100 -0.0548 -0.4692  0.8402
   78MOL0     C10658   5.473   9.215   2.090 -0.4785 -0.3157  0.4907
   78MOL0     C10659   5.518   9.131   1.988 -0.2909  0.3086 -0.3778
   78MOL0     C10660   5.455   9.006   1.960 -0.5612  0.3710  0.9744
   78MOL0     C10661   5.356   8.961   2.047  0.0209 -0.2436 -0.5355
   78MOL0     O10662   5.280   8.856   1.999  0.7661 -0.0088  0.2581
   78MOL0     C10663   5.184   8.910   1.894  0.6811  1.0732  0.6259
   78MOL0     C10664   5.116   8.782   1.833 -0.2939 -0.5880  0.8557
   78MOL0     C10665   5.218   8.678   1.784 -0.3156  0.6109  0.6923
   78MOL0     C10666   5.161   8.556   1.722  0.3077 -0.5349  0.6303
   78MOL0     C10667   5.116   8.568   1.578  0.5080  0.0457  0.9260
   78MOL0     C10668   5.047   8.441   1.546  0.4955 -0.5159  0.7243
   78MOL0     C10669   5.002   8.418   1.394 -1.0066 -0.3521 -0.5622
   78MOL0     C10670   4.920   8.537   1.341  0.1982 -0.0998 -0.0372
   78MOL0    Cl10671   4.765   8.546   1.436 -0.1868 -0.2768 -0.1198
   78MOL0     C10672   5.325   9.035   2.156  0.4771 -0.6945 -1.3567
   78MOL0     C10673   5.378   9.160   2.183  0.3483 -0.6817  0.2950
   78MOL0     O10674   5.447   9.424   2.286 -0.5341 -0.2050 -0.6781
   78MOL0     C10675   5.600   9.654   2.244 -0.0111 -0.2676 -0.1912
   78MOL0     C10676   5.694   9.758   2.240 -0.5504  0.0157 -0.1129
   78MOL0     N10677   5.994  10.235   2.452 -1.1464  0.7730  0.2500
   78MOL0     N10678   5.938  10.185   2.553  0.4714 -0.0572 -0.2610
   78MOL0     C10679   4.969   9.269   2.619  0.2302  0.4270 -0.2102
   78MOL0     C10680   4.870   9.169   2.628  1.2479  0.1185 -0.8010
   78MOL0     C10681   4.640   8.784   2.770  0.1695  0.0277 -0.0226
   78MOL0     C10682   4.524   8.853   2.729 -0.3414  0.2953  0.4071
   78MOL0     C10683   4.405   8.796   2.717 -0.0341 -0.2380  0.6598
   78MOL0     C10684   4.385   8.661   2.747 -0.1281 -0.4225  0.9042
   78MOL0     O10685   4.265   8.589   2.730 -0.2566  0.1828  0.1314
   78MOL0     C10686   4.174   8.628   2.634  0.1064 -0.3499  0.0534
   78MOL0     C10687   4.038   8.646   2.695  0.9278 -0.4360 -0.1377
   78MOL0     C10688   4.040   8.770   2.788  0.1363  0.2233 -0.6242
   78MOL0     C10689   3.921   8.763   2.877  0.6534 -0.5440  1.0634
   78MOL0     C10690   3.896   8.883   2.952  0.6526 -0.0492  0.7102
   78MOL0     C10691   3.861   8.988   3.011  0.0044  0.1094  0.7615
   78MOL0     C10692   4.493   8.593   2.803 -0.3574  0.1368 -0.7162
   78MOL0     C10693   4.623   8.647   2.802  0.2559 -1.6928 -0.1136
   78MOL0     C10694   4.736   8.555   2.836  1.0272 -0.3882  0.2726
   78MOL0     H10695   5.018   8.961   2.845 -1.0427 -1.2453 -1.5229
   78MOL0     H10696   5.182   9.122   2.841 -0.9171  1.1369  2.9657
   78MOL0     H10697   5.302   9.267   2.597  0.5730 -1.0548  0.0254
   78MOL0     H10698   5.342   9.252   2.769 -1.6757 -0.3247  0.5879
   78MOL0     H10699   5.361   9.496   2.593  0.0603 -2.9753 -2.1817
   78MOL0     H10700   5.373   9.502   2.780 -0.8842  1.2944 -1.4505
   78MOL0     H10701   5.563   9.327   2.699  0.1347 -1.0957 -2.2884
   78MOL0     H10702   5.547   9.408   2.546  1.2656  2.1803 -0.1673
   78MOL0     H10703   5.597   9.555   2.809  0.2561 -1.6449 -0.0746
   78MOL0     H10704   5.720   9.496   2.713 -0.8603 -2.6388  1.5562
   78MOL0     H10705   5.517   9.712   2.622 -0.2289  1.9238 -3.0280
   78MOL0     H10706   5.630   9.645   2.514 -0.2021  1.2213 -0.4972
   78MOL0     H10707   5.691   9.809   2.762  1.1340  1.2831  0.6121
   78MOL0     H10708   5.813   9.697   2.696 -0.5426 -2.1705 -3.4537
   78MOL0     H10709   5.681   9.896   2.501  1.1610  1.7404 -2.8016
   78MOL0     H10710   5.825   9.790   2.489  1.9302 -1.2679  3.3719
   78MOL0     H10711   5.791  10.017   2.705  0.5924 -2.1956  1.9087
   78MOL0     H10712   5.931   9.917   2.696 -0.4773 -0.2388 -0.0063
   78MOL0     H10713   6.043   9.909   2.401  2.1676  1.4137 -0.9598
   78MOL0     H10714   6.232  10.140   2.264  0.8978  1.8644 -1.1022
   78MOL0     H10715   6.114  10.257   2.216  1.1073  0.6792  0.3417
   78MOL0     H10716   6.158  10.091   2.053  0.6336  0.7691  0.1895
   78MOL0     H10717   6.150   9.970   2.170  1.4867  0.9260  0.8367
   78MOL0     H10718   5.898  10.149   2.084 -2.7478 -1.6227  2.7186
   78MOL0     H10719   5.972  10.027   1.984  1.7155 -0.6466  0.3264
   78MOL0     H10720   5.825  10.001   2.253  1.9838  2.7531 -0.0148
   78MOL0     H10721   5.767   9.936   2.100  0.1598 -2.2556  0.9664
   78MOL0     H10722   5.966   9.577   2.156  1.0441  2.6137  2.0804
   78MOL0     H10723   5.812   9.352   2.042 -0.8880  1.5940 -0.6646
   78MOL0     H10724   5.790   9.264   2.198 -0.8742 -1.0943 -1.8474
   78MOL0     H10725   5.938   9.354   2.172  0.0217 -2.2109  1.3804
   78MOL0     H10726   5.597   9.176   1.929  0.3119 -1.2997 -0.8797
   78MOL0     H10727   5.472   8.957   1.865 -0.5107  1.4924  0.3969
   78MOL0     H10728   5.107   8.971   1.941 -0.7904  1.2434 -1.8698
   78MOL0     H10729   5.242   8.966   1.819 -0.3494  1.3116 -0.0035
   78MOL0     H10730   5.047   8.741   1.907  0.1867 -1.1901  0.9785
   78MOL0     H10731   5.049   8.823   1.756 -2.9753  0.4323  3.5277
   78MOL0     H10732   5.264   8.644   1.877 -0.2949  0.3589  0.5888
   78MOL0     H10733   5.284   8.729   1.714  0.2436  0.6857  1.2592
   78MOL0     H10734   5.077   8.517   1.780 -0.4214  1.0735  0.6984
   78MOL0     H10735   5.242   8.481   1.723  1.5931  0.6148 -2.8741
   78MOL0     H10736   5.054   8.655   1.553 -0.6948 -0.9963  0.1420
   78MOL0     H10737   5.203   8.592   1.516  0.0347 -1.4193 -0.3807
   78MOL0     H10738   4.965   8.427   1.618  0.7364  1.7726  1.5178
   78MOL0     H10739   5.114   8.356   1.565 -2.2075 -2.8882  0.4135
   78MOL0     H10740   4.946   8.325   1.384 -0.6805 -1.1795  3.6062
   78MOL0     H10741   5.089   8.410   1.328 -0.5723  2.9016 -0.5459
   78MOL0     H10742   4.896   8.512   1.237 -0.3298 -3.2676  0.7509
   78MOL0     H10743   4.972   8.633   1.348 -2.9182  1.7322  0.1482
   78MOL0     H10744   5.258   8.999   2.234 -1.6525  0.3286 -2.6389
   78MOL0     H10745   5.348   9.213   2.273 -1.6544 -1.1353 -0.0629
   78MOL0     H10746   5.495   9.672   2.265  0.3287  0.2608  1.1294
   78MOL0     H10747   5.652   9.854   2.269 -1.6221 -0.7691  1.0599
   78MOL0     H10748   4.949   9.355   2.556  0.9645  3.2044  3.0031
   78MOL0     H10749   4.785   9.183   2.563 -0.1875 -1.5486  0.6091
   78MOL0     H10750   4.531   8.959   2.710  0.8688  0.4942  1.7790
   78MOL0     H10751   4.319   8.851   2.680  0.5331  0.4355  0.3160
   78MOL0     H10752   4.208   8.712   2.573  1.4295  0.4453  1.8108
   78MOL0     H10753   4.163   8.549   2.559  2.3254 -1.9323  1.2662
   78MOL0     H10754   4.024   8.558   2.759 -2.8263  0.2107  0.1027
   78MOL0     H10755   3.963   8.666   2.618  3.3792  0.7949 -2.3799
   78MOL0     H10756   4.128   8.776   2.852 -1.5184 -0.9375  1.9150
   78MOL0     H10757   4.029   8.860   2.727  2.0721  2.1639  1.7083
   78MOL0     H10758   3.940   8.684   2.950  0.5677  0.2268  1.9452
   78MOL0     H10759   3.839   8.741   2.808  1.7457 -1.7587  0.0926
   78MOL0     H10760   3.837   9.081   3.059 -0.5448  0.6805 -0.5926
   78MOL0     H10761   4.460   8.493   2.830 -1.7980  1.1579  1.6964
   78MOL0     H10762   4.803   8.581   2.918  1.4624 -1.1049  0.1568
   78MOL0     H10763   4.711   8.451   2.858  0.6357 -0.1672  0.8968
   78MOL0     H10764   4.794   8.544   2.743  1.3599 -1.0931  0.5631
   79MOL0     O10765   2.370   9.144   1.326  0.6180  0.5860 -0.2325
   79MOL0     C10766   2.319   9.055   1.256 -0.6004  0.7411 -0.7366
   79MOL0     O10767   2.387   8.997   1.152  0.3688  0.0381 -0.1233
   79MOL0     C10768   2.507   9.047   1.122  0.0689  1.0107 -0.5229
   79MOL0     C10769   2.619   8.994   1.192  0.7019 -0.2241 -0.5332
   79MOL0     C10770   2.741   9.039   1.159 -0.5601  0.4495  0.3204
   79MOL0     C10771   2.752   9.145   1.065  0.1071 -0.0792  0.3975
   79MOL0     O10772   2.877   9.187   1.032 -0.4019 -0.2309 -1.2211
   79MOL0     C10773   2.896   9.275   0.919  0.2833  1.6274 -0.6326
   79MOL0     C10774   3.040   9.284   0.893  0.7445 -0.0935  0.3335
   79MOL0     C10775   3.107   9.372   0.992  0.0614 -0.1390 -0.6446
   79MOL0     C10776   3.264   9.355   0.977 -0.5606 -0.0913  0.3884
   79MOL0     C10777   3.350   9.475   1.027  0.2201  0.9885  0.6757
   79MOL0     C10778   3.395   9.462   1.165  1.0450 -0.6391 -0.0275
   79MOL0     C10779   3.490   9.572   1.206  0.3806  0.1545  0.6927
   79MOL0     C10780   3.631   9.566   1.151  0.0295 -0.2731 -0.1934
   79MOL0     N10781   3.700   9.687   1.193 -1.1961  0.1538 -1.7742
   79MOL0     C10782   3.800   9.750   1.117  0.1922 -0.4034  0.5362
   79MOL0     C10783   3.861   9.847   1.187 -0.6062 -0.5846 -0.0615
   79MOL0     C10784   3.974   9.935   1.164  0.3113  0.9226  0.3710
   79MOL0     C10785   4.053   9.966   1.287 -0.6385  0.0051 -0.2677
   79MOL0     C10786   4.193   9.998   1.267 -0.9346  0.8305 -0.4429
   79MOL0     C10787   4.280   9.882   1.243 -0.1572  0.2217 -0.0868
   79MOL0     O10788   4.420   9.922   1.248 -0.2444  0.0290 -0.2521
   79MOL0     C10789   4.522   9.847   1.195  0.9357 -0.4677  0.9152
   79MOL0     C10790   4.653   9.890   1.211  0.1990  0.0673 -1.0703
   79MOL0     C10791   4.757   9.826   1.145 -0.2744  0.2058  0.4339
   79MOL0     C10792   4.888   9.902   1.143 -0.4652 -1.0708  0.2964
   79MOL0     C10793   4.737   9.698   1.092  0.5243  0.1351  1.2685
   79MOL0     C10794   4.836   9.609   1.030 -0.0593  0.4050 -0.1359
   79MOL0     O10795   4.817   9.470   1.031  0.4647  0.6031  0.4987
   79MOL0     C10796   4.919   9.385   0.995  0.3779  0.2591  0.7465
   79MOL0     C10797   5.038   9.373   1.076  0.2324 -0.0878 -0.2370
   79MOL0     C10798   5.144   9.289   1.056  0.5535  0.9994  1.0032
   79MOL0     C10799   5.134   9.198   0.952  0.1304  0.5336 -0.5126
   79MOL0     O10800   5.237   9.104   0.933  0.0025 -0.0405 -0.0236
   79MOL0     C10801   5.303   9.113   0.813  0.4370  0.6106 -0.0985
   79MOL0     C10802   5.454   9.075   0.846  0.2777  0.1115 -0.4678
   79MOL0     C10803   5.464   8.917   0.866  0.2887 -0.1700  0.9550
   79MOL0     C10804   5.462   8.840   0.733 -0.0465  0.5786  0.0144
   79MOL0     C10805   5.540   8.708   0.752 -1.3761  0.0816 -0.0827
   79MOL0     C10806   5.698   8.726   0.748 -0.2214  1.6311 -0.1880
   79MOL0     C10807   5.762   8.587   0.783 -0.1095 -0.5392 -0.4491
   79MOL0     C10808   5.921   8.598   0.785  0.0375  0.7153  0.1268
   79MOL0    Cl10809   5.999   8.437   0.747 -0.1425  0.0559  0.1439
   79MOL0     C10810   5.019   9.201   0.868 -0.3501  0.3508  0.1691
   79MOL0     C10811   4.913   9.295   0.888 -0.4300 -0.3917 -0.1194
   79MOL0     O10812   4.947   9.660   1.006  0.4652  0.0893  0.3489
   79MOL0     C10813   4.605   9.659   1.079 -0.8961  0.6480 -0.2869
   79MOL0     C10814   4.497   9.727   1.134  0.2819  0.1947 -0.5688
   79MOL0     N10815   3.812   9.838   1.315 -0.1278  0.1980 -0.0474
   79MOL0     N10816   3.717   9.744   1.315 -0.5123  0.1157 -0.6878
   79MOL0     C10817   2.645   9.202   1.007 -0.0182  0.3584  0.2557
   79MOL0     C10818   2.524   9.153   1.040 -0.1610 -0.0773  0.8696
   79MOL0     C10819   2.188   8.996   1.287 -0.6010 -0.5924  0.1451
   79MOL0     C10820   2.175   8.860   1.238  0.2716 -0.2203 -0.0468
   79MOL0     C10821   2.058   8.787   1.260  0.5995 -1.4693  0.2749
   79MOL0     C10822   1.962   8.843   1.343  0.2971 -0.5402 -0.4580
   79MOL0     O10823   1.851   8.772   1.363  0.4031  0.3230 -0.0764
   79MOL0     C10824   1.730   8.819   1.302  0.3709  0.5730 -0.5981
   79MOL0     C10825   1.628   8.704   1.316 -0.2124 -0.0800 -0.3091
   79MOL0     C10826   1.492   8.741   1.253 -0.5606  0.1520  0.1992
   79MOL0     C10827   1.379   8.641   1.291  0.5249 -0.4452 -0.3317
   79MOL0     C10828   1.403   8.502   1.266 -1.0857  0.7553  0.4588
   79MOL0     C10829   1.415   8.387   1.241 -0.0961 -0.3657  0.3285
   79MOL0     C10830   1.977   8.967   1.381  0.6417 -0.8136 -0.8625
   79MOL0     C10831   2.081   9.058   1.354  0.0354  0.6377 -0.4845
   79MOL0     C10832   2.077   9.198   1.403  0.3655  0.0510  0.0857
   79MOL0     H10833   2.598   8.916   1.264 -2.6596 -0.1078 -1.2106
   79MOL0     H10834   2.830   9.002   1.209 -1.0824 -0.4878  0.5912
   79MOL0     H10835   2.842   9.369   0.933 -0.7355  0.9779 -0.0311
   79MOL0     H10836   2.857   9.229   0.828  1.1501  2.0231 -1.2148
   79MOL0     H10837   3.079   9.183   0.873 -0.2449  0.0424 -2.8389
   79MOL0     H10838   3.055   9.331   0.796 -0.0860 -2.5719 -1.1060
   79MOL0     H10839   3.076   9.476   0.979 -0.5057 -0.1688  0.3353
   79MOL0     H10840   3.072   9.352   1.094  1.7352  2.9813  0.7166
   79MOL0     H10841   3.289   9.263   1.031 -2.8422 -1.4889 -0.8258
   79MOL0     H10842   3.292   9.349   0.872 -3.9669  0.4570 -0.6632
   79MOL0     H10843   3.308   9.571   0.995  1.9675  1.5191 -0.1220
   79MOL0     H10844   3.442   9.475   0.968 -0.4116 -1.1944 -0.4297
   79MOL0     H10845   3.306   9.464   1.229  1.7265 -0.3097  0.9233
   79MOL0     H10846   3.447   9.367   1.180 -0.3507 -1.0504  2.9708
   79MOL0     H10847   3.478   9.564   1.314 -0.7539 -3.6493  0.4575
   79MOL0     H10848   3.441   9.663   1.170 -0.5345  0.0275  1.5696
   79MOL0     H10849   3.678   9.475   1.189 -1.6995 -1.1703 -0.0976
   79MOL0     H10850   3.629   9.563   1.041 -1.1643 -1.5881 -0.1745
   79MOL0     H10851   3.824   9.723   1.015  1.8779  1.7437  0.2879
   79MOL0     H10852   3.940  10.023   1.108 -3.0769 -1.1798 -1.2052
   79MOL0     H10853   4.044   9.892   1.092 -1.1656 -0.2610 -0.4129
   79MOL0     H10854   4.010  10.059   1.326  0.0263  1.1225 -2.0828
   79MOL0     H10855   4.044   9.890   1.365  0.7453 -2.2884 -2.2074
   79MOL0     H10856   4.196  10.065   1.181  4.0114 -2.4608 -3.3686
   79MOL0     H10857   4.241  10.040   1.357  0.7110  0.1718 -0.9687
   79MOL0     H10858   4.263   9.799   1.312  1.0817  1.2243  1.4979
   79MOL0     H10859   4.250   9.846   1.144 -1.5746 -1.4542  0.9077
   79MOL0     H10860   4.667   9.988   1.255 -0.7108  0.1918 -1.0523
   79MOL0     H10861   4.971   9.832   1.154  0.9003 -0.1013 -2.8309
   79MOL0     H10862   4.898   9.978   1.222  2.6260 -0.7776 -0.2653
   79MOL0     H10863   4.880   9.946   1.043 -1.5324 -1.6811  0.0984
   79MOL0     H10864   5.036   9.448   1.155 -1.5072  0.1381 -0.4651
   79MOL0     H10865   5.224   9.275   1.128  1.9367 -0.1175 -0.6587
   79MOL0     H10866   5.262   9.043   0.740 -0.6835 -0.4991  1.5055
   79MOL0     H10867   5.307   9.212   0.767  0.2263  1.0438  0.7870
   79MOL0     H10868   5.519   9.109   0.765  3.1833  0.9701  2.0680
   79MOL0     H10869   5.486   9.127   0.937  0.2048  3.8428 -2.3472
   79MOL0     H10870   5.382   8.872   0.922 -1.0097 -0.3842 -0.9949
   79MOL0     H10871   5.557   8.898   0.921  0.9605  0.4212  0.0469
   79MOL0     H10872   5.524   8.906   0.672 -0.2937  0.7694 -0.0333
   79MOL0     H10873   5.363   8.822   0.689  0.7933 -2.5691 -0.8532
   79MOL0     H10874   5.510   8.653   0.842  1.6842 -0.8861  0.4606
   79MOL0     H10875   5.519   8.652   0.660  0.5773  2.6859 -2.2632
   79MOL0     H10876   5.727   8.800   0.823  2.3629 -1.0067  1.6626
   79MOL0     H10877   5.740   8.762   0.654  0.5900 -0.6642 -0.7665
   79MOL0     H10878   5.722   8.505   0.723 -1.3854 -1.4882  1.5474
   79MOL0     H10879   5.734   8.548   0.882  0.3364 -1.1322 -0.5575
   79MOL0     H10880   5.941   8.639   0.884  1.0299  1.0739 -0.2035
   79MOL0     H10881   5.946   8.666   0.703 -2.8138 -1.6540 -3.0140
   79MOL0     H10882   5.017   9.135   0.782  1.3707 -1.8906  1.7202
   79MOL0     H10883   4.824   9.304   0.827 -0.9870 -0.0094  0.7343
   79MOL0     H10884   4.577   9.575   1.017 -2.7457  0.6468  0.4845
   79MOL0     H10885   4.397   9.687   1.127  0.2605 -0.3966  2.0569
   79MOL0     H10886   2.661   9.285   0.938 -0.5281 -0.9768 -1.5305
   79MOL0     H10887   2.436   9.189   0.988  0.7047 -0.7294 -1.1559
   79MOL0     H10888   2.248   8.806   1.179 -0.4391 -0.4578 -0.7277
   79MOL0     H10889   2.046   8.682   1.235 -0.2145 -1.1094 -0.9144
   79MOL0     H10890   1.692   8.908   1.352 -1.0067 -1.3089  1.9652
   79MOL0     H10891   1.736   8.842   1.195 -0.3724 -1.3371 -1.0970
   79MOL0     H10892   1.622   8.679   1.422 -0.6539 -0.9256 -0.5251
   79MOL0     H10893   1.658   8.608   1.271 -1.4566 -2.3858  3.3504
   79MOL0     H10894   1.447   8.837   1.280 -1.3548 -0.5650  1.5467
   79MOL0     H10895   1.510   8.745   1.145  2.0705 -1.4957  0.4756
   79MOL0     H10896   1.284   8.672   1.247 -1.0241 -1.6619  1.9467
   79MOL0     H10897   1.354   8.656   1.397 -1.6349  3.1424 -1.1649
   79MOL0     H10898   1.416   8.286   1.204  1.0244 -0.9141  1.7798
   79MOL0     H10899   1.904   9.001   1.455 -0.1329 -0.5963 -1.7107
   79MOL0     H10900   2.022   9.208   1.497 -1.1333  0.5691 -0.8060
   79MOL0     H10901   2.176   9.239   1.427  2.4695 -4.2660 -0.3148
   79MOL0     H10902   2.024   9.262   1.332 -1.7255  0.0754  1.5754
   80MOL0     O10903  11.335   4.774   8.605 -0.4946 -0.4533 -0.2215
   80MOL0     C10904  11.284   4.690   8.677  0.6163  1.0164 -0.3064
   80MOL0     O10905  11.355   4.616   8.764 -0.7539 -0.1916  0.2664
   80MOL0     C10906  11.466   4.661   8.825  0.5390  0.6272 -0.1553
   80MOL0     C10907  11.479   4.783   8.890 -0.5823  0.7547 -0.4217
   80MOL0     C10908  11.581   4.804   8.981  0.5732  0.6820 -0.1995
   80MOL0     C10909  11.685   4.713   9.000 -0.1486 -0.1422  1.2866
   80MOL0     O10910  11.789   4.720   9.088  0.4611  0.0875  0.7911
   80MOL0     C10911  11.764   4.805   9.201 -0.1001 -0.4310 -0.7692
   80MOL0     C10912  11.884   4.798   9.304 -0.3267  0.0408 -0.0846
   80MOL0     C10913  11.896   4.659   9.362  0.1556 -0.7208 -0.2353
   80MOL0     C10914  11.997   4.643   9.473  0.0742  0.2164 -0.0401
   80MOL0     C10915  12.009   4.505   9.546  0.1811  0.9512  0.1020
   80MOL0     C10916  12.056   4.397   9.462 -0.1044  0.2848  0.6704
   80MOL0     C10917  12.107   4.283   9.553  0.1348  0.1561  0.4809
   80MOL0     C10918  12.158   4.173   9.465  0.4670  0.7820 -0.2230
   80MOL0     N10919  12.054   4.103   9.390  0.5655 -0.3340 -0.4864
   80MOL0     C10920  11.963   4.021   9.455 -0.3347  0.8618  0.1127
   80MOL0     C10921  11.871   3.989   9.365  0.6095 -1.8552  0.2332
   80MOL0     C10922  11.759   3.896   9.382  0.8978 -0.1435 -0.2669
   80MOL0     C10923  11.621   3.963   9.349  0.0412  0.4592  0.6568
   80MOL0     C10924  11.512   3.890   9.413  0.6542 -0.0770 -0.4292
   80MOL0     C10925  11.369   3.912   9.368 -0.4699  0.2690  0.7330
   80MOL0     O10926  11.366   3.876   9.234  0.0525  0.1741  0.3767
   80MOL0     C10927  11.264   3.946   9.166  0.2918  0.6262  0.3418
   80MOL0     C10928  11.299   4.037   9.067  0.2561 -0.7818 -0.5163
   80MOL0     C10929  11.200   4.102   8.992 -0.1466 -0.4704 -0.1076
   80MOL0     C10930  11.250   4.172   8.869  0.2492 -0.8667 -0.8076
   80MOL0     C10931  11.065   4.080   9.022 -0.1708 -0.9892 -0.1163
   80MOL0     C10932  10.950   4.161   8.963 -0.5168  0.0470 -0.6469
   80MOL0     O10933  10.833   4.150   9.040  0.4555  0.7867  0.0120
   80MOL0     C10934  10.731   4.233   9.008 -0.3599 -0.2861  1.1840
   80MOL0     C10935  10.704   4.352   9.078  0.1719  0.5200 -0.6258
   80MOL0     C10936  10.582   4.414   9.069  0.6780 -0.3307  0.8480
   80MOL0     C10937  10.494   4.368   8.974 -0.5066  0.9330  0.4070
   80MOL0     O10938  10.371   4.424   8.959 -0.3302  0.0104 -0.3367
   80MOL0     C10939  10.372   4.564   8.945  0.2051 -0.1291  0.0924
   80MOL0     C10940  10.228   4.607   8.952 -0.2700 -0.0396 -0.4446
   80MOL0     C10941  10.154   4.612   8.824 -0.7303  1.0969 -0.7351
   80MOL0     C10942  10.029   4.705   8.821 -0.0092 -0.3827 -0.3958
   80MOL0     C10943   9.924   4.669   8.928  0.3297 -0.3537 -0.9308
   80MOL0     C10944   9.883   4.528   8.918 -0.0474  0.3191 -0.3350
   80MOL0     C10945   9.769   4.493   9.011 -0.5758  0.4156 -0.3058
   80MOL0     C10946   9.807   4.484   9.158 -0.0439  0.4555 -0.5864
   80MOL0    Cl10947   9.707   4.613   9.247 -0.6360  0.2538 -0.0764
   80MOL0     C10948  10.524   4.258   8.890 -0.5420 -0.3126  0.3479
   80MOL0     C10949  10.646   4.185   8.912 -0.3520  0.3750  0.7486
   80MOL0     O10950  10.965   4.218   8.858  0.1041  0.0570 -0.0152
   80MOL0     C10951  11.034   3.983   9.117  0.1703  0.4933  0.0205
   80MOL0     C10952  11.132   3.910   9.185 -0.3994 -0.2474 -0.3267
   80MOL0     N10953  11.897   4.062   9.250  0.2077 -0.3554 -0.2107
   80MOL0     N10954  12.012   4.123   9.263 -0.0379 -0.2695  0.0374
   80MOL0     C10955  11.678   4.596   8.920  0.2043 -0.6596 -0.4929
   80MOL0     C10956  11.569   4.572   8.836  0.1446 -0.3650 -0.1665
   80MOL0     C10957  11.143   4.647   8.636 -0.4313  0.0428 -0.0533
   80MOL0     C10958  11.057   4.584   8.727 -0.4061 -0.3989 -0.4286
   80MOL0     C10959  10.929   4.538   8.694 -1.1264  0.1796  0.4800
   80MOL0     C10960  10.861   4.570   8.579 -0.0832 -0.9503  0.8124
   80MOL0     O10961  10.733   4.553   8.548 -0.3562 -0.2192  1.3665
   80MOL0     C10962  10.636   4.515   8.639  0.1310 -0.1037  0.0943
   80MOL0     C10963  10.508   4.461   8.570  0.0884 -0.1907  0.3950
   80MOL0     C10964  10.446   4.563   8.460 -1.4460 -0.3085  0.9434
   80MOL0     C10965  10.347   4.500   8.355  0.7440  0.2386  0.9346
   80MOL0     C10966  10.210   4.492   8.413  0.3935 -0.1044  0.0255
   80MOL0     C10967  10.092   4.487   8.448 -0.0074  0.2948 -0.6487
   80MOL0     C10968  10.937   4.647   8.482 -0.1379  0.4568 -0.0955
   80MOL0     C10969  11.084   4.680   8.505 -0.8469 -0.3326  0.7812
   80MOL0     C10970  11.169   4.748   8.393 -0.1393  0.0503 -0.7041
   80MOL0     H10971  11.412   4.868   8.883 -0.5944  1.4441  4.2863
   80MOL0     H10972  11.579   4.898   9.036  0.3460  0.0286  0.9343
   80MOL0     H10973  11.677   4.780   9.261 -0.4209 -0.5209 -1.2692
   80MOL0     H10974  11.763   4.904   9.153 -2.1718 -0.7308 -1.4452
   80MOL0     H10975  11.979   4.831   9.261 -0.2910 -1.8150 -1.5955
   80MOL0     H10976  11.857   4.861   9.389  0.0340 -0.1945  0.2101
   80MOL0     H10977  11.791   4.639   9.385 -1.9412  5.2209 -2.7164
   80MOL0     H10978  11.919   4.592   9.279  2.8233 -1.2199  0.7879
   80MOL0     H10979  12.092   4.664   9.424  0.3672  0.3980  0.5986
   80MOL0     H10980  11.971   4.717   9.548 -1.3551 -0.6213  0.3422
   80MOL0     H10981  11.908   4.490   9.584 -0.8372  2.1941 -1.9178
   80MOL0     H10982  12.072   4.504   9.636 -0.5744 -1.2785  0.6607
   80MOL0     H10983  11.974   4.377   9.392 -0.1643 -1.7954  1.2741
   80MOL0     H10984  12.136   4.430   9.396  1.8192 -2.8240  1.2191
   80MOL0     H10985  12.030   4.237   9.616  0.7841  1.5186  2.3386
   80MOL0     H10986  12.189   4.324   9.612 -0.1398  2.3842 -0.5958
   80MOL0     H10987  12.234   4.213   9.397  0.7373 -1.0319 -1.0604
   80MOL0     H10988  12.211   4.104   9.531  0.7878  1.3519  0.1247
   80MOL0     H10989  11.963   3.984   9.557 -1.1768 -1.4586 -0.6508
   80MOL0     H10990  11.765   3.860   9.485  0.8783  0.6095  0.0000
   80MOL0     H10991  11.771   3.813   9.311 -0.7289  0.5328 -1.4069
   80MOL0     H10992  11.604   4.065   9.384  0.1912  0.4611  0.7270
   80MOL0     H10993  11.613   3.957   9.240  0.7997 -1.0644  0.6684
   80MOL0     H10994  11.534   3.784   9.393 -0.9453 -0.5077 -0.0205
   80MOL0     H10995  11.520   3.902   9.521  2.2726 -5.3066  0.3388
   80MOL0     H10996  11.293   3.860   9.428  0.3623 -0.3720  1.2422
   80MOL0     H10997  11.351   4.019   9.382 -3.6580  0.1771 -1.4885
   80MOL0     H10998  11.402   4.065   9.054  0.2339 -0.9502 -1.0714
   80MOL0     H10999  11.359   4.163   8.868  0.2579 -0.6797 -1.3690
   80MOL0     H11000  11.220   4.276   8.879 -1.7258 -1.3476 -1.2710
   80MOL0     H11001  11.209   4.149   8.771 -0.1701  1.8430 -1.3459
   80MOL0     H11002  10.764   4.396   9.156 -2.2413  1.9247  0.5735
   80MOL0     H11003  10.565   4.494   9.139 -0.8653  0.3973 -0.2953
   80MOL0     H11004  10.429   4.611   9.025  0.3376  0.0264 -0.0911
   80MOL0     H11005  10.427   4.596   8.856 -0.0747  0.7741  0.2387
   80MOL0     H11006  10.160   4.548   9.015  0.3053  0.7967  0.9917
   80MOL0     H11007  10.233   4.704   9.002  0.1536 -0.9028  1.2574
   80MOL0     H11008  10.125   4.516   8.778 -0.4757 -0.4343  2.0627
   80MOL0     H11009  10.225   4.650   8.750  0.7310 -3.5866 -2.1457
   80MOL0     H11010   9.981   4.699   8.723  2.8818 -2.2997 -1.8265
   80MOL0     H11011  10.070   4.805   8.837 -0.8952 -0.1839  0.7898
   80MOL0     H11012   9.967   4.682   9.028  3.2421 -0.9117 -2.0076
   80MOL0     H11013   9.833   4.730   8.923  0.5323 -0.0067 -0.5072
   80MOL0     H11014   9.964   4.455   8.931 -1.2059 -0.6858  1.6117
   80MOL0     H11015   9.847   4.506   8.817  0.8257 -2.4537 -0.1305
   80MOL0     H11016   9.732   4.394   8.986 -0.8179  0.8733 -1.8936
   80MOL0     H11017   9.685   4.561   8.998 -1.7901 -1.1326 -0.8137
   80MOL0     H11018   9.914   4.487   9.182 -0.6996 -0.7712  3.1633
   80MOL0     H11019   9.769   4.386   9.186 -0.2120  0.0677 -2.0657
   80MOL0     H11020  10.446   4.232   8.819  0.4247 -1.9841 -0.1655
   80MOL0     H11021  10.662   4.089   8.864 -1.3269 -0.2780  1.6995
   80MOL0     H11022  10.933   3.956   9.146  0.9850 -3.8670 -0.6563
   80MOL0     H11023  11.104   3.844   9.266 -0.3700  0.3468  0.1728
   80MOL0     H11024  11.758   4.523   8.924 -1.9792 -3.1731  0.2388
   80MOL0     H11025  11.578   4.485   8.773  2.6954  0.1334 -0.5942
   80MOL0     H11026  11.081   4.558   8.830 -2.7613 -1.0024  0.0324
   80MOL0     H11027  10.880   4.476   8.769  2.0446 -1.8299  1.0729
   80MOL0     H11028  10.679   4.430   8.693 -0.0487 -1.6284 -2.0297
   80MOL0     H11029  10.613   4.601   8.702 -1.7520 -0.5959  0.1295
   80MOL0     H11030  10.438   4.452   8.653 -1.4572  0.2956 -0.7981
   80MOL0     H11031  10.536   4.368   8.519 -1.8060 -0.6339  0.0897
   80MOL0     H11032  10.393   4.646   8.506 -2.8197 -1.9817  2.5451
   80MOL0     H11033  10.528   4.599   8.397 -2.4889 -0.6902 -0.6931
   80MOL0     H11034  10.371   4.400   8.315 -3.0778  0.7356 -3.5277
   80MOL0     H11035  10.329   4.563   8.268  0.1929  0.9481  1.5530
   80MOL0     H11036   9.989   4.487   8.480 -0.3188 -2.3947 -1.4320
   80MOL0     H11037  10.901   4.683   8.386  0.1454 -1.4218 -0.9578
   80MOL0     H11038  11.256   4.682   8.388 -1.9670 -2.5208 -0.0797
   80MOL0     H11039  11.111   4.747   8.300  0.7233  1.3654 -1.2901
   80MOL0     H11040  11.193   4.853   8.415  2.1167 -0.0476 -2.2895
   81MOL0     O11041   8.859   8.419   0.844  0.0508 -0.6596  0.5177
   81MOL0     C11042   8.744   8.450   0.865  0.2059 -0.0130 -0.3585
   81MOL0     O11043   8.657   8.364   0.927  0.3125  0.2774 -0.2718
   81MOL0     C11044   8.679   8.232   0.936  0.4080 -0.5649  0.0468
   81MOL0     C11045   8.728   8.160   0.828 -0.1722  0.7016  0.3173
   81MOL0     C11046   8.744   8.023   0.830  0.2447  0.3092  0.3702
   81MOL0     C11047   8.708   7.953   0.947  0.0940 -0.6141 -0.1876
   81MOL0     O11048   8.720   7.819   0.946  0.2598  0.4932  0.0823
   81MOL0     C11049   8.687   7.756   1.064  0.2187  0.3481 -0.0235
   81MOL0     C11050   8.703   7.611   1.044 -0.4309  0.9723  0.1659
   81MOL0     C11051   8.848   7.566   1.035 -0.5569 -0.2177 -0.0885
   81MOL0     C11052   8.943   7.572   1.163 -0.0247 -0.6587 -0.1846
   81MOL0     C11053   9.072   7.487   1.135 -0.4818 -0.5444  0.3775
   81MOL0     C11054   9.181   7.532   1.228 -0.1697 -0.2692 -0.5117
   81MOL0     C11055   9.313   7.442   1.223  0.2342 -0.7073  0.0389
   81MOL0     C11056   9.436   7.508   1.289 -0.1759  0.2798  0.8821
   81MOL0     N11057   9.524   7.407   1.365 -0.1494 -1.3913  0.5435
   81MOL0     C11058   9.575   7.289   1.303 -0.3998 -1.0476 -1.0045
   81MOL0     C11059   9.643   7.234   1.402 -0.7634  0.0220 -0.6979
   81MOL0     C11060   9.701   7.103   1.383 -0.4114  0.1372  0.7595
   81MOL0     C11061   9.824   7.099   1.272  0.9328  0.5488  0.1497
   81MOL0     C11062   9.847   6.958   1.226  0.5361 -0.7453  0.5140
   81MOL0     C11063   9.784   6.911   1.094 -0.3638  0.0635  0.5785
   81MOL0     O11064   9.828   6.781   1.071 -0.3393  0.3095  0.0713
   81MOL0     C11065   9.799   6.745   0.941  0.1678  0.2269 -0.4757
   81MOL0     C11066   9.907   6.752   0.852 -1.0009 -0.0306 -0.2761
   81MOL0     C11067   9.893   6.720   0.716  0.3866 -0.2703  0.5217
   81MOL0     C11068  10.012   6.746   0.629 -0.0447 -0.1948 -0.5580
   81MOL0     C11069   9.763   6.679   0.664  0.2345  0.2557 -0.8478
   81MOL0     C11070   9.733   6.631   0.521 -0.1074  0.3487  0.5621
   81MOL0     O11071   9.601   6.596   0.491  0.1494  0.3224  0.4514
   81MOL0     C11072   9.571   6.545   0.369 -0.3863  0.5710 -0.5148
   81MOL0     C11073   9.442   6.575   0.327  1.3337 -0.6463 -0.0199
   81MOL0     C11074   9.387   6.519   0.211 -1.0361 -0.5868 -1.0166
   81MOL0     C11075   9.469   6.424   0.138 -0.4029  0.1467  1.3949
   81MOL0     O11076   9.427   6.352   0.028  0.5210  0.4649 -0.1754
   81MOL0     C11077   9.288   6.378  -0.008 -0.4028  0.8174  0.3471
   81MOL0     C11078   9.249   6.275  -0.115 -0.2974 -0.3078 -0.1797
   81MOL0     C11079   9.196   6.144  -0.064  1.0575 -0.3495  0.0703
   81MOL0     C11080   9.164   6.035  -0.167 -0.7966 -0.3106  0.2361
   81MOL0     C11081   9.047   5.941  -0.130 -1.3265 -0.2123 -0.5837
   81MOL0     C11082   9.092   5.835  -0.027 -0.3453  0.5477 -0.5857
   81MOL0     C11083   9.206   5.744  -0.081 -0.1249 -0.8035  0.6261
   81MOL0     C11084   9.217   5.613  -0.000 -0.2308 -1.2393 -0.1612
   81MOL0    Cl11085   9.069   5.518   0.000  0.4539 -0.2167 -0.4775
   81MOL0     C11086   9.598   6.400   0.175 -0.2066  0.2009  0.0239
   81MOL0     C11087   9.654   6.465   0.286  0.3085 -1.0936 -0.5041
   81MOL0     O11088   9.831   6.633   0.449 -0.0586  0.5347 -0.5195
   81MOL0     C11089   9.656   6.670   0.757  0.2023 -0.2841 -0.6950
   81MOL0     C11090   9.676   6.708   0.891  1.2895 -0.1240 -0.3688
   81MOL0     N11091   9.643   7.313   1.521 -0.2397 -0.5636  0.2253
   81MOL0     N11092   9.579   7.426   1.485  0.1697 -0.5452  0.4173
   81MOL0     C11093   8.665   8.034   1.058  0.2568 -0.4313 -0.0875
   81MOL0     C11094   8.650   8.170   1.055  0.4361  0.2983 -0.4605
   81MOL0     C11095   8.685   8.589   0.852  0.1834 -0.1520  0.2407
   81MOL0     C11096   8.550   8.603   0.837  0.2514 -0.0394 -0.0063
   81MOL0     C11097   8.485   8.726   0.816  0.4731  0.2536  0.5853
   81MOL0     C11098   8.560   8.845   0.815  0.2319 -0.1059 -0.0784
   81MOL0     O11099   8.518   8.971   0.800  0.2851 -0.3194 -0.0588
   81MOL0     C11100   8.387   8.988   0.754 -0.8099 -0.4035  0.5565
   81MOL0     C11101   8.361   9.137   0.738 -0.6449 -0.8829 -0.4835
   81MOL0     C11102   8.225   9.149   0.662 -0.0699 -0.5744  0.0530
   81MOL0     C11103   8.188   9.304   0.684 -0.0000 -0.1738  0.1433
   81MOL0     C11104   8.082   9.357   0.597 -0.1430 -0.0798  0.8171
   81MOL0     C11105   7.991   9.406   0.536  0.9992  0.1390 -0.8844
   81MOL0     C11106   8.695   8.830   0.830  0.5441 -0.3146 -0.3744
   81MOL0     C11107   8.758   8.711   0.857 -0.8798  0.1892  0.3956
   81MOL0     C11108   8.901   8.717   0.906 -0.0582 -0.1470  0.3023
   81MOL0     H11109   8.749   8.216   0.737 -1.2337  4.1033  1.9630
   81MOL0     H11110   8.788   7.971   0.746  1.3169 -1.3929  1.8972
   81MOL0     H11111   8.582   7.769   1.091 -0.3220  2.2134 -2.6613
   81MOL0     H11112   8.750   7.795   1.144  0.6641  1.6294 -0.9625
   81MOL0     H11113   8.641   7.562   1.120  0.3491  1.5546  1.1999
   81MOL0     H11114   8.655   7.589   0.948  3.0776 -0.5283 -1.4321
   81MOL0     H11115   8.850   7.457   1.020 -0.5731 -0.1721 -0.4337
   81MOL0     H11116   8.899   7.620   0.954  0.3963 -1.1209 -0.1170
   81MOL0     H11117   8.955   7.680   1.179 -0.9256 -0.1774 -2.3644
   81MOL0     H11118   8.904   7.533   1.257  0.8645 -1.9651 -0.3233
   81MOL0     H11119   9.112   7.492   1.033  0.3803 -1.6912  0.6349
   81MOL0     H11120   9.051   7.382   1.158  1.8505 -1.3152 -0.6529
   81MOL0     H11121   9.210   7.633   1.197  0.4765 -0.4523 -0.5312
   81MOL0     H11122   9.140   7.534   1.329 -1.6241 -1.4740 -1.0369
   81MOL0     H11123   9.329   7.413   1.119 -0.7667  0.2759 -0.4148
   81MOL0     H11124   9.288   7.356   1.285 -0.1832 -1.4230 -1.1049
   81MOL0     H11125   9.493   7.548   1.205  3.1629 -0.2223  2.7283
   81MOL0     H11126   9.424   7.588   1.363 -2.1913 -0.2456  1.1813
   81MOL0     H11127   9.549   7.254   1.204  0.3434 -0.2196 -1.5006
   81MOL0     H11128   9.622   7.040   1.340  1.2158 -0.9847 -0.7177
   81MOL0     H11129   9.751   7.070   1.474  1.3890  3.8782  1.2967
   81MOL0     H11130   9.803   7.159   1.183 -0.3352 -0.7213 -0.4515
   81MOL0     H11131   9.918   7.130   1.319  2.4719 -0.7787 -1.8831
   81MOL0     H11132   9.956   6.947   1.225  0.6412  0.1270 -0.4443
   81MOL0     H11133   9.817   6.884   1.300 -0.5107  0.8870  1.7974
   81MOL0     H11134   9.676   6.925   1.103 -0.2478 -0.0168  2.9360
   81MOL0     H11135   9.823   6.980   1.019  0.3617 -0.1916  0.7126
   81MOL0     H11136   9.997   6.775   0.908  0.6494 -1.7621 -2.0610
   81MOL0     H11137   9.993   6.822   0.552  0.4412  1.9134  1.3114
   81MOL0     H11138  10.046   6.649   0.591  0.4795 -0.2418  0.0240
   81MOL0     H11139  10.091   6.792   0.688 -0.2512 -0.4165 -0.1063
   81MOL0     H11140   9.376   6.622   0.399  1.2089 -0.2400 -0.3979
   81MOL0     H11141   9.282   6.539   0.189 -1.2829  4.6230  3.0161
   81MOL0     H11142   9.224   6.366   0.080  3.7865  0.0446  3.6233
   81MOL0     H11143   9.273   6.482  -0.038  1.1994  1.6583  2.2903
   81MOL0     H11144   9.176   6.316  -0.185  1.5098 -1.4290 -2.9022
   81MOL0     H11145   9.336   6.258  -0.179 -0.8460  0.9612 -1.3161
   81MOL0     H11146   9.098   6.166  -0.022 -1.9481 -2.0846 -5.1240
   81MOL0     H11147   9.267   6.102   0.008 -0.3995  1.0472  2.4627
   81MOL0     H11148   9.258   5.983  -0.187  2.3138  4.4481  0.8940
   81MOL0     H11149   9.125   6.072  -0.262 -0.4414 -0.8292 -0.1114
   81MOL0     H11150   8.952   5.989  -0.105 -1.4491 -0.9767  0.4874
   81MOL0     H11151   9.031   5.887  -0.223 -1.8567 -0.8873 -0.1175
   81MOL0     H11152   9.013   5.767   0.005  1.3868 -0.5399  1.6752
   81MOL0     H11153   9.125   5.885   0.064  1.0080  1.1840 -1.3936
   81MOL0     H11154   9.305   5.790  -0.081 -0.7707  0.7313  2.6272
   81MOL0     H11155   9.179   5.725  -0.185 -0.3933  2.0638  0.0908
   81MOL0     H11156   9.257   5.644   0.097 -1.9583 -0.2437  0.2713
   81MOL0     H11157   9.289   5.553  -0.057  0.4785 -0.2127 -0.3759
   81MOL0     H11158   9.653   6.324   0.120 -2.1320 -0.9796 -0.3552
   81MOL0     H11159   9.761   6.462   0.302  0.7635  1.1356 -2.6007
   81MOL0     H11160   9.558   6.638   0.724  0.4756 -2.7902  0.7383
   81MOL0     H11161   9.588   6.711   0.955  1.7614 -0.1403  0.2853
   81MOL0     H11162   8.633   7.986   1.151  0.4583  2.0271  1.3333
   81MOL0     H11163   8.615   8.227   1.140  1.2845  1.3769 -0.8153
   81MOL0     H11164   8.487   8.514   0.835 -0.2686  0.3214  0.0034
   81MOL0     H11165   8.377   8.734   0.803  0.1870 -1.1212  1.8372
   81MOL0     H11166   8.377   8.937   0.658  1.4782 -2.2860  1.2230
   81MOL0     H11167   8.314   8.943   0.822  2.7639 -4.6316  2.0792
   81MOL0     H11168   8.448   9.188   0.696 -0.2632 -1.5598 -0.5264
   81MOL0     H11169   8.342   9.171   0.840 -0.0874 -0.0504 -0.6488
   81MOL0     H11170   8.233   9.131   0.554  2.9908 -0.6711  0.2057
   81MOL0     H11171   8.149   9.079   0.697  1.3771 -2.9050 -1.2089
   81MOL0     H11172   8.281   9.363   0.686 -0.1873  0.1080  1.0258
   81MOL0     H11173   8.138   9.313   0.781 -1.7183  1.2730 -0.8195
   81MOL0     H11174   7.915   9.452   0.478  1.9208 -1.2238 -3.3143
   81MOL0     H11175   8.749   8.923   0.841 -2.7092  1.5639  1.3871
   81MOL0     H11176   8.955   8.634   0.859  5.3957  2.0342  2.0432
   81MOL0     H11177   8.957   8.809   0.887  4.1943 -2.8089 -1.5604
   81MOL0     H11178   8.902   8.692   1.013  2.9232 -0.8021  0.1953
   82MOL0     O11179   2.713   9.519   5.037 -0.3577  0.3675 -0.3017
   82MOL0     C11180   2.644   9.521   4.933 -0.6215 -0.1109 -0.1735
   82MOL0     O11181   2.622   9.628   4.857 -0.4516 -0.6314  0.4169
   82MOL0     C11182   2.692   9.742   4.878 -0.4027 -0.5056 -0.2066
   82MOL0     C11183   2.821   9.756   4.816  0.5398 -0.2294 -0.3124
   82MOL0     C11184   2.875   9.880   4.800 -0.0345 -0.7650 -0.0128
   82MOL0     C11185   2.809   9.996   4.852 -0.7710  0.9933  0.5522
   82MOL0     O11186   2.859  10.118   4.821  0.0122  0.1922  0.2636
   82MOL0     C11187   2.854  10.227   4.922  0.6408 -0.5728  0.2557
   82MOL0     C11188   2.955  10.200   5.042  0.6994 -0.3995  0.2286
   82MOL0     C11189   3.085  10.129   5.005  0.1391 -0.6839 -0.0156
   82MOL0     C11190   3.186  10.132   5.126  0.6658 -0.3864  0.4581
   82MOL0     C11191   3.325  10.058   5.105  1.0000  0.9841 -0.3393
   82MOL0     C11192   3.421  10.115   4.997  0.2133 -0.9127  0.2317
   82MOL0     C11193   3.545  10.031   5.011 -0.7194 -0.1562 -0.3506
   82MOL0     C11194   3.676  10.091   4.963  0.2497 -0.2581 -0.4043
   82MOL0     N11195   3.738  10.195   5.053  0.6097  0.2856  0.4346
   82MOL0     C11196   3.822  10.175   5.162 -0.7406  0.2808 -0.1395
   82MOL0     C11197   3.850  10.303   5.200 -0.6480 -0.0912  0.1688
   82MOL0     C11198   3.948  10.339   5.304 -1.1510 -0.4505  0.4141
   82MOL0     C11199   4.076  10.422   5.253  1.4236 -0.3708 -0.4003
   82MOL0     C11200   4.155  10.453   5.384 -0.4140  0.2701  0.3468
   82MOL0     C11201   4.282  10.527   5.362 -1.2950 -0.5679  0.0701
   82MOL0     O11202   4.339  10.569   5.486  0.5622  0.5904 -0.0181
   82MOL0     C11203   4.476  10.591   5.507 -0.2535  0.5455  0.9403
   82MOL0     C11204   4.512  10.598   5.639 -0.3024 -0.0204 -0.4044
   82MOL0     C11205   4.650  10.596   5.676 -0.0045 -0.7316 -0.7249
   82MOL0     C11206   4.679  10.606   5.820 -0.4094 -0.7636 -0.7986
   82MOL0     C11207   4.752  10.587   5.581 -1.0320 -0.4519  0.2576
   82MOL0     C11208   4.898  10.590   5.604  0.3733  0.1760  0.1909
   82MOL0     O11209   4.972  10.669   5.512  0.4994 -1.1023 -0.5918
   82MOL0     C11210   5.106  10.670   5.534 -0.5809 -0.7514 -0.2094
   82MOL0     C11211   5.172  10.563   5.467 -0.4007 -0.5930 -0.2703
   82MOL0     C11212   5.312  10.561   5.465  0.5532  0.4037 -0.4206
   82MOL0     C11213   5.390  10.666   5.520  0.1866 -0.2117 -0.5170
   82MOL0     O11214   5.525  10.644   5.510 -0.2300  0.0069 -0.4894
   82MOL0     C11215   5.618  10.720   5.584  1.2643  0.0736  0.5793
   82MOL0     C11216   5.697  10.824   5.507 -0.1618 -0.1626  0.0696
   82MOL0     C11217   5.739  10.790   5.360 -0.4046 -0.1732  0.6396
   82MOL0     C11218   5.627  10.797   5.254 -0.1580  0.9208  0.5083
   82MOL0     C11219   5.676  10.781   5.103  0.2541  0.1228 -0.5162
   82MOL0     C11220   5.573  10.776   4.997  0.0587  0.6736  0.1679
   82MOL0     C11221   5.638  10.777   4.860  0.2795 -0.0034 -0.1820
   82MOL0     C11222   5.541  10.759   4.748 -0.3532 -0.6075 -0.6199
   82MOL0    Cl11223   5.463  10.911   4.706 -0.0414  0.1216 -0.2024
   82MOL0     C11224   5.315  10.773   5.572  0.3653 -0.9942 -0.8440
   82MOL0     C11225   5.174  10.778   5.586  0.0813 -0.0945  0.4807
   82MOL0     O11226   4.948  10.531   5.700 -0.2470 -0.1349 -0.5873
   82MOL0     C11227   4.711  10.587   5.445 -0.1157 -0.3263 -0.4299
   82MOL0     C11228   4.575  10.594   5.408  0.5354  0.1019  0.2275
   82MOL0     N11229   3.798  10.392   5.117 -0.3211 -0.2085  0.3811
   82MOL0     N11230   3.720  10.324   5.029 -0.0119 -0.3678 -0.3835
   82MOL0     C11231   2.685   9.983   4.909 -0.4075  0.5048  0.7197
   82MOL0     C11232   2.623   9.858   4.924 -0.7807 -1.0497  0.0094
   82MOL0     C11233   2.600   9.391   4.863  0.5036 -0.0159 -0.5571
   82MOL0     C11234   2.557   9.403   4.731 -0.5200  0.6217  0.2606
   82MOL0     C11235   2.530   9.282   4.662  0.6732  0.0526 -0.0590
   82MOL0     C11236   2.538   9.149   4.720  0.2172 -0.1541 -0.1365
   82MOL0     O11237   2.527   9.034   4.644 -0.1713  0.9649 -0.7197
   82MOL0     C11238   2.473   9.035   4.512  0.8952 -0.3813 -0.1106
   82MOL0     C11239   2.448   8.898   4.459 -0.1420 -0.0216 -0.2344
   82MOL0     C11240   2.351   8.827   4.557  0.3057  0.5496 -0.1268
   82MOL0     C11241   2.313   8.691   4.519 -0.3986 -0.2235 -0.2737
   82MOL0     C11242   2.248   8.672   4.394 -0.0494 -0.0267  0.4454
   82MOL0     C11243   2.187   8.630   4.299  0.4662 -0.2334  0.1978
   82MOL0     C11244   2.590   9.144   4.853 -0.3995  0.5363 -0.0110
   82MOL0     C11245   2.616   9.264   4.924 -0.2162  0.5272  0.5795
   82MOL0     C11246   2.655   9.235   5.067  0.0471  0.1304  0.1465
   82MOL0     H11247   2.879   9.667   4.792  0.4035 -0.1322 -1.0356
   82MOL0     H11248   2.968   9.892   4.745  0.1850  1.1658  0.7054
   82MOL0     H11249   2.755  10.257   4.956  0.9182  1.3316 -0.4941
   82MOL0     H11250   2.889  10.318   4.871 -2.4639  1.0288  0.7192
   82MOL0     H11251   2.980  10.293   5.095  0.9678  0.0235 -0.6137
   82MOL0     H11252   2.902  10.132   5.109  2.6632 -1.4860  0.7540
   82MOL0     H11253   3.066  10.029   4.965 -0.1687 -0.7666  0.3319
   82MOL0     H11254   3.140  10.188   4.932 -0.2006  2.7949  2.2747
   82MOL0     H11255   3.198  10.233   5.165 -0.7464  0.0306 -0.1173
   82MOL0     H11256   3.144  10.074   5.208  0.3372 -0.6149  0.1275
   82MOL0     H11257   3.305   9.952   5.081  1.4115  0.9452 -0.5194
   82MOL0     H11258   3.374  10.053   5.202 -0.6286 -0.4882  0.4597
   82MOL0     H11259   3.376  10.105   4.898  0.4063 -4.5508  0.3847
   82MOL0     H11260   3.448  10.220   5.011  1.9019 -0.9206 -2.2512
   82MOL0     H11261   3.538   9.940   4.951 -0.7522  0.2181 -0.9206
   82MOL0     H11262   3.553  10.003   5.117 -0.5583 -1.7931 -0.7785
   82MOL0     H11263   3.733   9.998   4.952 -1.9654 -1.6639 -0.6603
   82MOL0     H11264   3.660  10.119   4.859  0.0289 -3.1264 -1.2300
   82MOL0     H11265   3.854  10.078   5.200 -0.4768  0.4613  0.1068
   82MOL0     H11266   3.986  10.246   5.348  3.0158  1.4815  1.4099
   82MOL0     H11267   3.902  10.396   5.385 -0.1791 -1.4400  1.7081
   82MOL0     H11268   4.132  10.353   5.189 -0.9088 -1.1873 -1.6955
   82MOL0     H11269   4.051  10.514   5.199  0.1888  0.0836  0.8681
   82MOL0     H11270   4.085  10.504   5.451  0.3979 -0.0943  1.5159
   82MOL0     H11271   4.189  10.357   5.425  1.7993 -1.0553 -3.9227
   82MOL0     H11272   4.354  10.462   5.312 -0.7157 -2.0390  2.6217
   82MOL0     H11273   4.273  10.617   5.301  0.5637  1.7887  3.0039
   82MOL0     H11274   4.433  10.602   5.713 -2.1035 -0.6525 -2.2014
   82MOL0     H11275   4.605  10.661   5.878  2.0795 -0.1358  2.0722
   82MOL0     H11276   4.770  10.665   5.835  2.9258 -4.2216 -4.6467
   82MOL0     H11277   4.684  10.509   5.871  1.0208 -1.2682 -1.8277
   82MOL0     H11278   5.107  10.496   5.411 -1.2584  0.9602 -1.2009
   82MOL0     H11279   5.361  10.479   5.413  0.5942 -0.6467  1.2019
   82MOL0     H11280   5.555  10.766   5.661  1.9538 -1.6647  2.2681
   82MOL0     H11281   5.691  10.660   5.639  1.5623  1.6872  2.0481
   82MOL0     H11282   5.637  10.916   5.505 -0.8197 -0.5974 -1.2483
   82MOL0     H11283   5.787  10.846   5.565 -0.0084 -2.5542  0.8538
   82MOL0     H11284   5.781  10.688   5.357 -0.9897 -0.4548 -3.2012
   82MOL0     H11285   5.821  10.858   5.338  0.8211 -0.5033  3.6230
   82MOL0     H11286   5.581  10.896   5.258  0.9197  1.3900  2.8495
   82MOL0     H11287   5.552  10.719   5.273  0.6561 -0.1368 -0.4308
   82MOL0     H11288   5.726  10.877   5.088 -0.7969  1.1782  2.1089
   82MOL0     H11289   5.744  10.697   5.084 -1.1295 -1.0888 -0.2974
   82MOL0     H11290   5.497  10.855   4.997 -1.2969 -0.5965  0.8221
   82MOL0     H11291   5.513  10.687   5.017  0.0170  0.8959  1.0614
   82MOL0     H11292   5.713  10.698   4.859 -1.1312 -1.4884  2.1661
   82MOL0     H11293   5.681  10.878   4.851  0.9799 -0.3621 -0.9308
   82MOL0     H11294   5.473  10.679   4.781  0.9565 -0.5583  2.5412
   82MOL0     H11295   5.612  10.730   4.669 -0.3170  3.0101 -2.1050
   82MOL0     H11296   5.367  10.866   5.593  0.5228 -1.0501 -0.9902
   82MOL0     H11297   5.129  10.870   5.622  2.2792  0.2966  2.5400
   82MOL0     H11298   4.778  10.575   5.360 -0.2249  0.1519 -0.5858
   82MOL0     H11299   4.542  10.558   5.311 -0.6102 -0.5630  0.8345
   82MOL0     H11300   2.637  10.077   4.932  0.9367  1.4877 -0.3219
   82MOL0     H11301   2.524   9.854   4.968 -0.2044 -3.2231  1.2862
   82MOL0     H11302   2.542   9.501   4.687 -1.1835  0.3790 -0.0814
   82MOL0     H11303   2.504   9.299   4.558  0.7541 -2.4168 -0.5435
   82MOL0     H11304   2.382   9.095   4.511  2.5836  2.3115 -0.0787
   82MOL0     H11305   2.542   9.077   4.439 -1.5181  0.9464 -1.7660
   82MOL0     H11306   2.547   8.852   4.468  1.0121  2.5969  2.0023
   82MOL0     H11307   2.411   8.900   4.356 -1.5871 -0.5375  0.2504
   82MOL0     H11308   2.399   8.816   4.654  3.5015  2.3555 -1.3639
   82MOL0     H11309   2.272   8.902   4.561  0.5551  0.8639 -0.8817
   82MOL0     H11310   2.249   8.637   4.589  1.3875 -2.3355 -0.1231
   82MOL0     H11311   2.411   8.642   4.510  0.9284  2.1847  0.2870
   82MOL0     H11312   2.134   8.595   4.213 -0.0693 -1.2273  0.9178
   82MOL0     H11313   2.609   9.049   4.902  0.7917  2.0816  2.8260
   82MOL0     H11314   2.763   9.241   5.084 -0.0918  0.7721  0.8529
   82MOL0     H11315   2.606   9.315   5.123  2.1930  1.3975  0.3656
   82MOL0     H11316   2.612   9.138   5.093  0.2983  0.4604  1.9555
   83MOL0     O11317   3.861   5.136  10.671  0.4725  0.6447  0.1170
   83MOL0     C11318   3.747   5.176  10.671  0.4070 -0.2042 -0.8477
   83MOL0     O11319   3.705   5.298  10.720 -0.4714  0.0166  0.3008
   83MOL0     C11320   3.796   5.403  10.734 -0.0308 -0.6342  1.0864
   83MOL0     C11321   3.784   5.485  10.848  1.2246  0.4999 -0.1032
   83MOL0     C11322   3.869   5.596  10.871 -0.5928 -0.0050 -0.3109
   83MOL0     C11323   3.972   5.632  10.776  0.8244  0.4592 -0.0256
   83MOL0     O11324   4.056   5.734  10.807  0.6347 -0.2038  0.1395
   83MOL0     C11325   4.164   5.770  10.718 -0.8343 -1.1298  0.4244
   83MOL0     C11326   4.295   5.720  10.775 -0.1667 -0.4176 -0.6753
   83MOL0     C11327   4.404   5.778  10.700  1.0213 -0.3174  0.0953
   83MOL0     C11328   4.531   5.704  10.745  0.2040 -0.2986  0.6591
   83MOL0     C11329   4.651   5.769  10.673  0.0350  0.1156  0.2427
   83MOL0     C11330   4.668   5.731  10.522  0.5019  0.1473  0.0940
   83MOL0     C11331   4.812   5.768  10.480 -0.0059 -0.3429 -0.0366
   83MOL0     C11332   4.835   5.721  10.335 -0.0584  0.8047  0.3336
   83MOL0     N11333   4.740   5.798  10.249  0.0501 -0.4117  0.2667
   83MOL0     C11334   4.727   5.936  10.236  0.4082 -0.3739 -0.1883
   83MOL0     C11335   4.650   5.954  10.122 -0.2619  0.2430 -0.2683
   83MOL0     C11336   4.598   6.077  10.058 -0.5090 -0.7928 -0.3148
   83MOL0     C11337   4.620   6.074   9.905  0.3664 -0.4644  0.0374
   83MOL0     C11338   4.575   6.203   9.838 -0.6353 -0.2514  0.3300
   83MOL0     C11339   4.581   6.195   9.682  0.0262  0.3844  0.1833
   83MOL0     O11340   4.524   6.071   9.630  0.4276  0.0494  0.1710
   83MOL0     C11341   4.462   6.079   9.506 -0.7230 -0.7007  0.3728
   83MOL0     C11342   4.369   5.983   9.488 -0.2192  0.3192  0.6017
   83MOL0     C11343   4.289   5.991   9.367 -0.6735 -0.7138  0.0030
   83MOL0     C11344   4.152   5.924   9.366 -0.1760  0.5600  0.2059
   83MOL0     C11345   4.314   6.084   9.263  0.9471 -0.1020  0.1066
   83MOL0     C11346   4.246   6.085   9.126 -0.6809 -0.3736 -0.4620
   83MOL0     O11347   4.220   5.968   9.065 -0.2650 -0.6636 -0.3720
   83MOL0     C11348   4.129   5.950   8.964 -0.1414  0.5738  0.2117
   83MOL0     C11349   4.142   5.988   8.827  0.7873 -0.3474 -0.6994
   83MOL0     C11350   4.042   5.968   8.728 -0.6579 -1.0631 -0.0347
   83MOL0     C11351   3.921   5.914   8.774  0.0588 -0.0840 -0.1216
   83MOL0     O11352   3.831   5.891   8.675  0.2784 -0.7543  0.7347
   83MOL0     C11353   3.713   5.805   8.714  0.5237  0.2502  0.5362
   83MOL0     C11354   3.621   5.808   8.591 -0.3930 -0.2228 -0.1263
   83MOL0     C11355   3.567   5.950   8.545  0.5386 -1.3969  0.2258
   83MOL0     C11356   3.461   5.946   8.434  0.0839 -0.4377 -0.0773
   83MOL0     C11357   3.545   5.924   8.298  0.4410 -0.8354  0.0670
   83MOL0     C11358   3.446   5.915   8.184 -0.1749  0.4573 -0.2386
   83MOL0     C11359   3.396   5.771   8.183  0.3553 -0.4198  0.3078
   83MOL0     C11360   3.286   5.754   8.076 -1.2344  0.0302 -0.7284
   83MOL0    Cl11361   3.348   5.643   7.949 -0.0691  0.1226 -0.2939
   83MOL0     C11362   3.902   5.888   8.912 -0.2461  0.0620 -0.4229
   83MOL0     C11363   4.003   5.905   9.002 -0.6521  0.6178 -0.3618
   83MOL0     O11364   4.231   6.191   9.072  0.0014  0.1337  0.5085
   83MOL0     C11365   4.415   6.171   9.291 -0.0468 -0.0706  0.1818
   83MOL0     C11366   4.491   6.173   9.408 -0.1595  0.5457 -0.3245
   83MOL0     N11367   4.627   5.823  10.074 -0.2631 -1.4585  0.6416
   83MOL0     N11368   4.675   5.738  10.152  0.8294  0.5158 -0.3401
   83MOL0     C11369   3.989   5.546  10.658 -0.1175  0.5607 -0.3372
   83MOL0     C11370   3.905   5.434  10.641  0.6677 -0.0447 -0.5935
   83MOL0     C11371   3.646   5.078  10.623 -0.2308  0.3107 -0.2363
   83MOL0     C11372   3.518   5.102  10.675  0.3542 -0.3895  0.1485
   83MOL0     C11373   3.415   5.019  10.636 -0.1655 -0.0724  0.0522
   83MOL0     C11374   3.431   4.917  10.535 -0.4791  1.0918 -1.0948
   83MOL0     O11375   3.333   4.832  10.489 -0.7138  0.3689 -0.4395
   83MOL0     C11376   3.197   4.860  10.515  0.1205 -0.4896 -0.8613
   83MOL0     C11377   3.113   4.759  10.444  0.2911 -0.0217 -1.2393
   83MOL0     C11378   2.965   4.745  10.495 -0.3483  0.5005 -0.2087
   83MOL0     C11379   2.887   4.870  10.458  0.0508 -1.2663  0.5389
   83MOL0     C11380   2.740   4.864  10.479 -0.6179 -0.0189  0.5937
   83MOL0     C11381   2.626   4.855  10.512  0.0407  0.1056  0.4482
   83MOL0     C11382   3.557   4.897  10.488 -0.2307  0.4376  0.1201
   83MOL0     C11383   3.673   4.975  10.529 -0.1416 -0.6814 -0.1190
   83MOL0     C11384   3.814   4.937  10.464 -0.1496 -0.0603  0.4241
   83MOL0     H11385   3.714   5.448  10.923 -0.2399  0.2415 -1.5316
   83MOL0     H11386   3.849   5.665  10.952  0.2514  1.4080 -1.2804
   83MOL0     H11387   4.176   5.878  10.713 -0.5272 -1.0300  2.3283
   83MOL0     H11388   4.151   5.736  10.615  2.0694 -1.2905  0.0482
   83MOL0     H11389   4.306   5.744  10.881  0.8521 -1.7533 -0.4515
   83MOL0     H11390   4.296   5.611  10.770 -1.9069 -0.6858  2.4863
   83MOL0     H11391   4.381   5.758  10.595 -3.9119  0.0656  0.8666
   83MOL0     H11392   4.414   5.887  10.700  0.7984 -0.2007 -3.1614
   83MOL0     H11393   4.544   5.733  10.849  2.6898  5.4495 -0.8359
   83MOL0     H11394   4.538   5.595  10.737  1.0718 -0.4155  2.5557
   83MOL0     H11395   4.745   5.739  10.721  2.0850  2.4619 -1.9943
   83MOL0     H11396   4.630   5.877  10.676  0.9914  0.3583 -0.8516
   83MOL0     H11397   4.633   5.630  10.499 -3.2787  1.0654  1.0347
   83MOL0     H11398   4.592   5.791  10.471 -0.3980 -2.0687 -1.2952
   83MOL0     H11399   4.885   5.722  10.547  1.1569 -0.0734 -1.0906
   83MOL0     H11400   4.827   5.874  10.504 -1.2786 -0.6772  2.6776
   83MOL0     H11401   4.939   5.745  10.313  0.8423 -3.1748 -0.4651
   83MOL0     H11402   4.820   5.614  10.319 -2.5194  1.5722 -4.2041
   83MOL0     H11403   4.763   6.013  10.302 -0.0014 -0.8033  0.5476
   83MOL0     H11404   4.643   6.167  10.100 -2.0086 -0.5684  0.8994
   83MOL0     H11405   4.489   6.084  10.069 -0.4816 -0.8507 -0.0018
   83MOL0     H11406   4.728   6.066   9.889  0.5922 -0.2077  1.3221
   83MOL0     H11407   4.562   5.989   9.868  0.0936  0.3738 -1.5037
   83MOL0     H11408   4.470   6.225   9.858 -0.7813  3.6543 -3.2934
   83MOL0     H11409   4.636   6.282   9.883 -1.0377 -0.8622  2.0019
   83MOL0     H11410   4.539   6.285   9.635  0.9962  0.4933 -0.5046
   83MOL0     H11411   4.686   6.190   9.653 -0.0901 -2.7428 -0.0114
   83MOL0     H11412   4.339   5.911   9.564 -0.0405 -1.6503 -1.0982
   83MOL0     H11413   4.158   5.827   9.316 -0.5334 -0.5753  2.2632
   83MOL0     H11414   4.077   5.986   9.318  1.3554  0.8656 -1.9445
   83MOL0     H11415   4.117   5.902   9.467 -2.0661  0.0496 -0.5180
   83MOL0     H11416   4.233   6.034   8.789  0.9478 -0.1653 -0.0923
   83MOL0     H11417   4.060   6.002   8.626 -1.2683  3.5421  1.1577
   83MOL0     H11418   3.755   5.705   8.730  2.6029  1.1478  1.1216
   83MOL0     H11419   3.658   5.854   8.794  1.2387  0.6522  0.7962
   83MOL0     H11420   3.675   5.761   8.509 -1.2831 -2.0773  0.3157
   83MOL0     H11421   3.536   5.741   8.603 -0.4354 -0.2191 -0.4122
   83MOL0     H11422   3.655   6.007   8.515  0.4026  0.4042  2.8543
   83MOL0     H11423   3.527   6.003   8.632 -3.7506 -2.3811 -0.9091
   83MOL0     H11424   3.409   6.043   8.435  3.9850  1.9706  3.0231
   83MOL0     H11425   3.388   5.872   8.466 -0.7074  0.2592 -0.2211
   83MOL0     H11426   3.613   6.008   8.281 -1.1884  0.1274 -2.0551
   83MOL0     H11427   3.614   5.839   8.299  2.1818  0.4433 -2.1476
   83MOL0     H11428   3.506   5.915   8.092  0.6642 -3.6920  0.1545
   83MOL0     H11429   3.373   5.997   8.178  1.1149  1.5705 -1.9333
   83MOL0     H11430   3.347   5.761   8.281  0.7549  0.4714  0.6130
   83MOL0     H11431   3.474   5.697   8.166 -0.3197 -0.9293 -0.6206
   83MOL0     H11432   3.242   5.852   8.056 -0.1496  1.0910  1.6573
   83MOL0     H11433   3.207   5.701   8.131  0.4064  2.2768  4.4517
   83MOL0     H11434   3.808   5.846   8.947 -0.8795  0.9801 -0.9691
   83MOL0     H11435   3.987   5.868   9.103 -0.4685  0.7436 -0.2865
   83MOL0     H11436   4.441   6.238   9.209 -0.2239  1.2079  1.1462
   83MOL0     H11437   4.573   6.244   9.408 -2.9111  4.0549 -2.6861
   83MOL0     H11438   4.073   5.552  10.590  0.4252 -0.9838  0.1488
   83MOL0     H11439   3.913   5.378  10.548 -1.5078 -2.4405  0.5213
   83MOL0     H11440   3.487   5.170  10.754  2.4940 -0.2392  0.9128
   83MOL0     H11441   3.313   5.028  10.672  0.2442 -0.2275  1.3186
   83MOL0     H11442   3.177   4.852  10.623  1.7220 -0.1116 -0.5179
   83MOL0     H11443   3.173   4.962  10.486  1.1508  0.0773  0.1893
   83MOL0     H11444   3.159   4.660  10.457 -0.8975 -0.1643  5.7006
   83MOL0     H11445   3.111   4.789  10.339 -1.3157  8.1509  0.4754
   83MOL0     H11446   2.911   4.660  10.453 -0.3561 -0.0227  0.8357
   83MOL0     H11447   2.972   4.732  10.603  3.4186 -0.3813 -0.4426
   83MOL0     H11448   2.905   4.884  10.351 -3.3821  0.3966  0.0425
   83MOL0     H11449   2.937   4.944  10.520  0.6334 -2.8148  2.0113
   83MOL0     H11450   2.527   4.826  10.542 -0.0955  1.8373  1.8384
   83MOL0     H11451   3.572   4.826  10.408  4.5455  0.8892  0.3311
   83MOL0     H11452   3.839   5.019  10.397 -1.6918 -0.0890 -0.2206
   83MOL0     H11453   3.894   4.933  10.539  0.6657 -0.1429 -0.4433
   83MOL0     H11454   3.802   4.846  10.405 -3.3236  0.7630 -0.3704
   84MOL0     O11455  10.497   2.958   4.710  0.0649  0.3043 -0.0191
   84MOL0     C11456  10.498   3.066   4.779  0.5561  0.4714 -0.5540
   84MOL0     O11457  10.595   3.159   4.768 -0.3703  0.2334  0.8958
   84MOL0     C11458  10.713   3.130   4.709  0.0548 -0.0959  0.9003
   84MOL0     C11459  10.793   3.028   4.747  0.1063 -0.5526  0.6721
   84MOL0     C11460  10.908   3.004   4.675 -0.0552 -0.5976  0.1972
   84MOL0     C11461  10.942   3.082   4.564 -0.4695 -0.0510 -0.1613
   84MOL0     O11462  11.051   3.046   4.489 -0.0001 -0.0322 -1.0305
   84MOL0     C11463  11.034   2.959   4.383 -0.3775  0.3810  0.0028
   84MOL0     C11464  11.143   2.979   4.276  1.2362 -0.3966  0.1445
   84MOL0     C11465  11.281   2.944   4.346 -0.3600  0.4841  0.2357
   84MOL0     C11466  11.394   2.920   4.239 -0.0557 -0.2531 -0.0375
   84MOL0     C11467  11.423   3.038   4.166 -0.3852 -0.5477 -0.0647
   84MOL0     C11468  11.566   3.047   4.124 -0.1081  0.4716  0.6547
   84MOL0     C11469  11.614   2.921   4.039  0.6489 -1.5576 -0.1838
   84MOL0     C11470  11.727   2.958   3.936  0.3350  0.1096  0.2031
   84MOL0     N11471  11.844   3.035   3.992  0.8357  0.0001 -0.4290
   84MOL0     C11472  11.944   2.985   4.070 -0.0669  0.2041  0.1554
   84MOL0     C11473  12.017   3.092   4.099 -0.9987  0.3451 -0.2153
   84MOL0     C11474  12.148   3.076   4.163 -0.4237 -0.3402 -0.7093
   84MOL0     C11475  12.269   3.060   4.069 -0.1520  0.2032  0.0173
   84MOL0     C11476  12.367   2.957   4.123 -0.6985 -0.2688  0.6136
   84MOL0     C11477  12.477   2.946   4.021  0.3226 -0.0365 -0.2182
   84MOL0     O11478  12.578   2.845   4.045  0.4922  0.7417 -0.3614
   84MOL0     C11479  12.692   2.843   3.971  0.3892 -1.6062 -0.6558
   84MOL0     C11480  12.778   2.732   3.982 -0.1791  0.5129  0.1471
   84MOL0     C11481  12.897   2.718   3.919 -0.3685  0.4544  0.4300
   84MOL0     C11482  12.979   2.598   3.937 -0.6323  0.2831 -0.0675
   84MOL0     C11483  12.933   2.820   3.828  0.2333 -0.5690 -0.5382
   84MOL0     C11484  13.060   2.826   3.750 -0.7000 -0.0967 -0.9650
   84MOL0     O11485  13.088   2.933   3.670 -0.3290  0.0847  0.0153
   84MOL0     C11486  13.191   2.925   3.584 -0.9564  0.1918 -0.2329
   84MOL0     C11487  13.313   3.005   3.598 -0.9091 -0.3007  0.1104
   84MOL0     C11488  13.417   2.997   3.506  0.1753 -0.3630 -0.2584
   84MOL0     C11489  13.416   2.918   3.387 -0.3164 -0.2007 -0.6805
   84MOL0     O11490  13.524   2.921   3.296 -0.1215 -0.3215  0.1153
   84MOL0     C11491  13.594   2.795   3.301 -0.4348 -0.3387  0.0689
   84MOL0     C11492  13.702   2.777   3.410  0.0148 -0.6633 -0.6237
   84MOL0     C11493  13.833   2.865   3.387 -1.0937  0.0497  0.3220
   84MOL0     C11494  13.827   3.015   3.377  0.6780 -0.4186 -0.0524
   84MOL0     C11495  13.965   3.077   3.363 -0.5085  0.3929  0.0082
   84MOL0     C11496  13.961   3.226   3.366 -0.2784  0.4258 -0.3087
   84MOL0     C11497  14.106   3.274   3.371  0.4007  1.0661 -0.2278
   84MOL0     C11498  14.118   3.420   3.396 -0.3064  0.0314 -0.8326
   84MOL0    Cl11499  14.067   3.514   3.248  0.3857 -0.0322 -0.5982
   84MOL0     C11500  13.294   2.851   3.363 -0.6443  0.0837  0.0040
   84MOL0     C11501  13.179   2.859   3.450 -0.7237 -0.1691  0.7302
   84MOL0     O11502  13.142   2.735   3.763  0.3834  0.2731  0.2671
   84MOL0     C11503  12.843   2.933   3.808  1.1306  1.1419 -0.7392
   84MOL0     C11504  12.735   2.948   3.889 -0.1970 -1.3323 -0.4121
   84MOL0     N11505  11.957   3.206   4.052  0.0230  0.7025 -0.4342
   84MOL0     N11506  11.850   3.169   3.994  0.3301 -0.4500 -0.3978
   84MOL0     C11507  10.867   3.202   4.539 -0.1499 -0.0799 -0.0140
   84MOL0     C11508  10.748   3.216   4.601  0.8793 -0.3387 -0.5901
   84MOL0     C11509  10.403   3.097   4.877  0.9502  0.0972 -1.1393
   84MOL0     C11510  10.338   3.221   4.863  0.1514  0.8421  0.4742
   84MOL0     C11511  10.237   3.260   4.949  0.0927  0.4035 -0.8617
   84MOL0     C11512  10.212   3.181   5.058 -0.5993 -0.5836 -0.4385
   84MOL0     O11513  10.121   3.214   5.164  0.3392 -0.2980  0.6674
   84MOL0     C11514  10.090   3.355   5.185 -0.6885  0.3260 -0.2160
   84MOL0     C11515   9.991   3.350   5.300  0.2456  0.2799 -0.1668
   84MOL0     C11516   9.848   3.321   5.260  0.2886  0.4885  0.5826
   84MOL0     C11517   9.737   3.319   5.366  0.2799  0.2938 -0.7040
   84MOL0     C11518   9.693   3.453   5.405 -0.7877  0.3237 -0.0061
   84MOL0     C11519   9.645   3.561   5.442 -0.1946  0.2925  1.4172
   84MOL0     C11520  10.283   3.061   5.074  0.2356  0.2365  0.1523
   84MOL0     C11521  10.372   3.011   4.985  0.5941 -0.5960  0.4316
   84MOL0     C11522  10.438   2.881   5.012  0.1028  0.8207 -0.6932
   84MOL0     H11523  10.762   2.955   4.822  0.2714 -1.6122 -0.2598
   84MOL0     H11524  10.965   2.913   4.692 -0.9339 -1.2140 -0.1137
   84MOL0     H11525  10.937   2.973   4.334 -0.8928  2.4092  1.5042
   84MOL0     H11526  11.044   2.862   4.433 -2.2922  0.5402  0.7826
   84MOL0     H11527  11.126   2.913   4.190  1.3780  0.1050 -0.2765
   84MOL0     H11528  11.143   3.084   4.244  0.1144 -0.6840 -0.8457
   84MOL0     H11529  11.307   3.027   4.412 -0.7677  1.5216 -0.8817
   84MOL0     H11530  11.268   2.854   4.407  2.6875 -1.6686 -2.0301
   84MOL0     H11531  11.481   2.879   4.291 -1.3546 -0.9287  1.7125
   84MOL0     H11532  11.360   2.832   4.184 -2.2521 -2.1178  3.8671
   84MOL0     H11533  11.405   3.136   4.212 -2.0442  0.9574 -3.5716
   84MOL0     H11534  11.363   3.030   4.075  1.9131 -0.8352 -1.6266
   84MOL0     H11535  11.581   3.142   4.072  3.5232 -0.0907  0.4295
   84MOL0     H11536  11.625   3.054   4.216  2.2130  0.5321 -0.7776
   84MOL0     H11537  11.541   2.866   3.980  0.1334 -0.6156 -0.4288
   84MOL0     H11538  11.644   2.856   4.122 -0.1949  0.4305  1.7753
   84MOL0     H11539  11.768   2.858   3.917  2.4511  0.9250  0.1619
   84MOL0     H11540  11.681   3.001   3.846  0.2027 -1.9942 -0.7839
   84MOL0     H11541  11.972   2.881   4.083  0.4520 -0.5209 -4.8740
   84MOL0     H11542  12.133   2.993   4.231 -0.7849 -0.8449 -1.3913
   84MOL0     H11543  12.175   3.162   4.225 -0.4414 -1.4283  0.8538
   84MOL0     H11544  12.230   3.025   3.973  1.8283 -1.9502 -0.0937
   84MOL0     H11545  12.323   3.155   4.062  1.4095 -0.4874  1.8537
   84MOL0     H11546  12.404   2.990   4.220 -0.1429  1.6869 -0.2112
   84MOL0     H11547  12.327   2.855   4.129  2.0222 -1.5375 -0.9984
   84MOL0     H11548  12.416   2.916   3.936 -0.2068  2.3378 -0.7368
   84MOL0     H11549  12.509   3.049   4.005  0.5707  0.3506  2.2510
   84MOL0     H11550  12.753   2.658   4.057  0.2257  0.7611  0.5341
   84MOL0     H11551  12.975   2.539   3.845  0.6769  1.0904 -0.6712
   84MOL0     H11552  12.939   2.535   4.016  3.0514 -1.9070  0.2772
   84MOL0     H11553  13.083   2.620   3.962 -0.1697  0.4170 -1.9371
   84MOL0     H11554  13.322   3.073   3.681 -1.3073  0.9399 -0.8203
   84MOL0     H11555  13.513   3.043   3.527 -1.1939  2.9727 -0.7450
   84MOL0     H11556  13.512   2.728   3.326 -0.8552  0.4155  0.7178
   84MOL0     H11557  13.624   2.768   3.199  0.6631  0.1610  0.2454
   84MOL0     H11558  13.666   2.817   3.505  1.2929 -1.6752  0.3228
   84MOL0     H11559  13.731   2.672   3.416 -0.2956 -0.6988  0.5490
   84MOL0     H11560  13.898   2.827   3.308  2.0074  1.5699  1.9769
   84MOL0     H11561  13.890   2.850   3.479  2.1901  0.6333 -1.4670
   84MOL0     H11562  13.775   3.058   3.463  0.4779  4.1019 -2.1636
   84MOL0     H11563  13.768   3.036   3.288  0.2352 -0.6514  0.1841
   84MOL0     H11564  14.036   3.046   3.440 -2.6279  3.1973  3.4817
   84MOL0     H11565  14.004   3.050   3.265  0.1735  2.0082 -0.2040
   84MOL0     H11566  13.905   3.262   3.453 -1.4018  1.2327 -1.3334
   84MOL0     H11567  13.909   3.268   3.280 -0.8649  0.0245 -0.1579
   84MOL0     H11568  14.161   3.242   3.282  3.0915  0.0699  1.6571
   84MOL0     H11569  14.155   3.220   3.452 -0.5732 -3.5125 -2.3490
   84MOL0     H11570  14.223   3.443   3.421 -0.5566  2.9480 -2.0701
   84MOL0     H11571  14.054   3.445   3.481 -1.3272  1.7152 -2.0355
   84MOL0     H11572  13.275   2.795   3.272  1.3870 -2.5043  1.0592
   84MOL0     H11573  13.084   2.810   3.429 -1.5320  1.2215  1.0217
   84MOL0     H11574  12.870   3.017   3.745 -2.4197  3.8165  0.9585
   84MOL0     H11575  12.669   3.033   3.876 -1.5107 -2.1380  0.7108
   84MOL0     H11576  10.901   3.258   4.453  1.1300 -3.0614 -1.6082
   84MOL0     H11577  10.677   3.295   4.575  0.3964 -1.0920 -1.6212
   84MOL0     H11578  10.359   3.295   4.787  0.7679  1.5268  1.2958
   84MOL0     H11579  10.190   3.357   4.932  0.6442  0.3085 -3.3115
   84MOL0     H11580  10.179   3.416   5.200  0.1877 -0.7954 -0.7069
   84MOL0     H11581  10.044   3.407   5.100 -1.2755 -0.7075 -0.5503
   84MOL0     H11582   9.986   3.448   5.347 -0.2901 -0.7073  1.9876
   84MOL0     H11583  10.030   3.273   5.367 -1.1563 -2.5896 -2.4182
   84MOL0     H11584   9.813   3.388   5.181  2.4440 -1.5697 -2.3081
   84MOL0     H11585   9.853   3.224   5.211 -1.2657  0.4929  0.3738
   84MOL0     H11586   9.774   3.262   5.451 -0.5359 -0.0895 -0.6009
   84MOL0     H11587   9.652   3.258   5.335  1.5529 -1.4847 -0.8692
   84MOL0     H11588   9.592   3.646   5.480  0.2280  0.1322  2.3739
   84MOL0     H11589  10.242   2.997   5.152 -0.5151  1.6563  0.9719
   84MOL0     H11590  10.546   2.897   5.003  0.6757 -1.7379  0.6683
   84MOL0     H11591  10.419   2.848   5.115 -0.8859  0.4771 -0.9775
   84MOL0     H11592  10.404   2.807   4.940 -1.5626 -1.0353  1.8155
   85MOL0     O11593   7.050  11.266   5.813  0.2738  0.3446 -0.0241
   85MOL0     C11594   6.962  11.193   5.773  0.5900  0.8340 -0.3008
   85MOL0     O11595   6.871  11.112   5.842  0.2695 -0.3261 -0.6974
   85MOL0     C11596   6.907  11.058   5.961 -0.0632  0.2667  1.2232
   85MOL0     C11597   7.042  11.008   5.982 -0.4162  0.1059 -0.0728
   85MOL0     C11598   7.071  10.955   6.116 -0.4744 -0.0487 -0.0040
   85MOL0     C11599   6.981  10.961   6.216  0.2620 -0.5185  0.4413
   85MOL0     O11600   6.990  10.910   6.340  0.0007  0.0730 -0.7037
   85MOL0     C11601   7.098  10.822   6.386  0.0223  0.3656  0.0861
   85MOL0     C11602   7.046  10.741   6.493  0.6096 -0.1034 -0.3318
   85MOL0     C11603   6.994  10.833   6.607 -0.2494 -0.1840  0.6036
   85MOL0     C11604   6.929  10.760   6.720 -0.3810 -0.0701 -0.6827
   85MOL0     C11605   6.860  10.854   6.816 -0.3925 -0.1143  0.1213
   85MOL0     C11606   6.823  10.780   6.942 -1.3482 -0.5188  0.6269
   85MOL0     C11607   6.739  10.863   7.033  0.7957  0.1477 -0.2295
   85MOL0     C11608   6.701  10.779   7.167 -0.4369 -0.9904  0.3569
   85MOL0     N11609   6.647  10.871   7.274 -0.3925  0.0634 -0.0741
   85MOL0     C11610   6.520  10.894   7.321  0.0431 -1.0049  0.7857
   85MOL0     C11611   6.523  10.974   7.425  0.0822 -0.1520 -0.0333
   85MOL0     C11612   6.408  11.041   7.490 -0.0368 -0.6656 -0.2097
   85MOL0     C11613   6.399  11.194   7.468 -0.3484 -0.5335  0.0389
   85MOL0     C11614   6.301  11.252   7.575 -0.2610 -0.4771  0.1956
   85MOL0     C11615   6.278  11.407   7.558 -0.5514 -0.3293 -0.3858
   85MOL0     O11616   6.186  11.434   7.455  0.4617 -0.7233 -0.1944
   85MOL0     C11617   6.172  11.565   7.411  0.1675 -0.5306  0.2691
   85MOL0     C11618   6.082  11.590   7.306  0.0830 -0.7877 -0.2624
   85MOL0     C11619   6.059  11.721   7.263  0.3047  0.1096  0.0038
   85MOL0     C11620   5.943  11.739   7.161 -0.0123  0.5768  0.4739
   85MOL0     C11621   6.135  11.836   7.305  0.8779  0.5759  0.1017
   85MOL0     C11622   6.137  11.975   7.244 -0.1849 -0.5424  0.0916
   85MOL0     O11623   6.193  12.069   7.313 -0.8005 -0.3274 -0.1562
   85MOL0     C11624   6.198  12.192   7.256  0.3287 -0.5098  0.1386
   85MOL0     C11625   6.328  12.231   7.199  0.4743  0.2977  0.4625
   85MOL0     C11626   6.333  12.358   7.142  0.4567 -0.7177  0.3389
   85MOL0     C11627   6.223  12.451   7.144  0.2840 -0.1913  0.0415
   85MOL0     O11628   6.229  12.576   7.088  0.5907 -0.1449  0.7499
   85MOL0     C11629   6.311  12.594   6.969 -0.0834 -0.1364 -0.3663
   85MOL0     C11630   6.301  12.735   6.919  0.0105 -0.0958 -0.1534
   85MOL0     C11631   6.419  12.824   6.968 -0.8843  0.4205 -0.1018
   85MOL0     C11632   6.376  12.972   6.951  0.2366 -0.1478  0.5485
   85MOL0     C11633   6.499  13.067   6.951  0.1889  0.1744 -0.4219
   85MOL0     C11634   6.600  13.036   7.066 -0.2490 -0.5789 -0.4375
   85MOL0     C11635   6.721  13.129   7.046 -0.7239 -0.3330 -0.8027
   85MOL0     C11636   6.843  13.070   7.118  0.9067 -0.3532 -0.6330
   85MOL0    Cl11637   6.978  13.186   7.106  0.0497 -0.3442 -0.3863
   85MOL0     C11638   6.105  12.411   7.204 -0.1649 -0.6788  0.6497
   85MOL0     C11639   6.093  12.288   7.273  0.0229  1.5213  0.2512
   85MOL0     O11640   6.104  11.985   7.126 -0.5117  0.0075 -0.4295
   85MOL0     C11641   6.231  11.808   7.406 -0.4034 -0.0013 -0.5720
   85MOL0     C11642   6.240  11.677   7.455  0.0630 -0.3594  0.4502
   85MOL0     N11643   6.650  11.000   7.451 -0.3950 -0.2376 -0.2319
   85MOL0     N11644   6.722  10.939   7.359  0.5201 -0.6474 -1.1687
   85MOL0     C11645   6.859  11.025   6.195 -0.4694  0.6205  0.0900
   85MOL0     C11646   6.820  11.067   6.072 -0.1792 -0.3215  0.9938
   85MOL0     C11647   6.940  11.190   5.631  0.5381  0.0417 -0.4023
   85MOL0     C11648   6.814  11.164   5.579  0.4210 -0.8256 -0.0438
   85MOL0     C11649   6.780  11.187   5.447 -0.0828  0.3476  0.4762
   85MOL0     C11650   6.881  11.228   5.358  0.8410  0.6265 -0.0952
   85MOL0     O11651   6.856  11.258   5.223 -0.5495 -0.1052 -0.1324
   85MOL0     C11652   6.759  11.189   5.147 -0.2652 -0.6465 -0.8008
   85MOL0     C11653   6.730  11.256   5.017  0.7960 -0.0674  0.9013
   85MOL0     C11654   6.624  11.178   4.931 -0.7709 -0.1753 -0.9880
   85MOL0     C11655   6.657  11.208   4.785 -0.3585  0.2562  0.8197
   85MOL0     C11656   6.542  11.168   4.694  1.0598 -0.7005 -0.8213
   85MOL0     C11657   6.444  11.121   4.639 -1.0236  1.0255  0.3550
   85MOL0     C11658   7.007  11.253   5.405  0.6254  0.5528 -0.7690
   85MOL0     C11659   7.042  11.227   5.541  0.0769 -0.5935  0.1468
   85MOL0     C11660   7.190  11.247   5.567 -0.4733  0.4173  0.0460
   85MOL0     H11661   7.115  11.000   5.902 -1.3466  1.0588 -1.0617
   85MOL0     H11662   7.169  10.916   6.140 -0.5161 -1.1472 -1.5391
   85MOL0     H11663   7.186  10.880   6.415 -0.9158  1.6127  0.5059
   85MOL0     H11664   7.126  10.744   6.314 -1.2847 -1.8683  1.8661
   85MOL0     H11665   6.974  10.669   6.453  0.3771  0.5654 -1.1435
   85MOL0     H11666   7.124  10.679   6.539 -0.2413 -0.5235  0.5920
   85MOL0     H11667   7.071  10.896   6.651  1.4299 -3.4626  2.7766
   85MOL0     H11668   6.911  10.894   6.570 -0.5199 -0.1356  1.2833
   85MOL0     H11669   6.851  10.694   6.681  1.0248 -2.4377  0.2477
   85MOL0     H11670   7.011  10.705   6.767  0.8355 -0.1860 -2.7754
   85MOL0     H11671   6.772  10.900   6.769  0.9463  3.6678  1.0102
   85MOL0     H11672   6.932  10.935   6.819 -1.6761  1.3444 -3.3112
   85MOL0     H11673   6.782  10.684   6.910  3.0723 -2.1487 -0.9359
   85MOL0     H11674   6.917  10.755   6.992 -2.1443  3.7391  5.0113
   85MOL0     H11675   6.651  10.902   6.981  2.0861  1.8047 -1.2488
   85MOL0     H11676   6.797  10.949   7.065 -1.8629  1.8456  0.3378
   85MOL0     H11677   6.631  10.696   7.151 -0.9342 -0.3829 -0.6528
   85MOL0     H11678   6.798  10.741   7.202  1.3791  2.5148 -0.4582
   85MOL0     H11679   6.427  10.870   7.269 -0.1114  2.1479 -0.6187
   85MOL0     H11680   6.414  11.016   7.596  1.1383  0.8951  0.1255
   85MOL0     H11681   6.312  11.004   7.455  0.5907  0.5505 -3.6062
   85MOL0     H11682   6.500  11.234   7.482 -0.2557  0.4147 -2.7357
   85MOL0     H11683   6.368  11.219   7.366 -2.4292  0.2443  0.8083
   85MOL0     H11684   6.207  11.198   7.564 -1.5655  1.1670  2.1948
   85MOL0     H11685   6.333  11.237   7.679  1.9288  0.0971 -0.3356
   85MOL0     H11686   6.231  11.444   7.650  0.6379 -2.1314  1.0228
   85MOL0     H11687   6.375  11.457   7.551 -0.4518  0.3219  3.5317
   85MOL0     H11688   6.026  11.512   7.254 -6.9020  3.1696  0.0317
   85MOL0     H11689   5.860  11.792   7.208 -2.0290 -2.4890  0.6442
   85MOL0     H11690   5.899  11.641   7.142  2.5070 -0.4723 -0.3791
   85MOL0     H11691   5.983  11.788   7.072 -0.6685  2.2729  1.0732
   85MOL0     H11692   6.405  12.155   7.189 -0.8771 -0.9871 -0.6577
   85MOL0     H11693   6.421  12.372   7.081 -0.0858  0.1302 -0.2804
   85MOL0     H11694   6.413  12.565   6.995  0.9779  2.1176 -1.7380
   85MOL0     H11695   6.266  12.528   6.895 -1.5734 -0.2402  0.5851
   85MOL0     H11696   6.287  12.735   6.810  1.8817  2.3034 -0.4656
   85MOL0     H11697   6.208  12.780   6.955  1.3713  3.6591 -0.8849
   85MOL0     H11698   6.500  12.808   6.896 -1.8340 -1.5269 -0.8052
   85MOL0     H11699   6.449  12.801   7.071 -4.1809 -0.5940  0.7420
   85MOL0     H11700   6.295  12.986   7.023 -0.1129 -3.4552  0.9508
   85MOL0     H11701   6.324  12.980   6.855  0.8169  1.9616  0.3483
   85MOL0     H11702   6.531  13.051   6.848 -3.2423 -0.8274 -1.4617
   85MOL0     H11703   6.479  13.175   6.955 -0.5674  0.0106  0.6724
   85MOL0     H11704   6.634  12.933   7.079  0.8019 -0.1435  0.3941
   85MOL0     H11705   6.550  13.063   7.159  2.2923  1.5360  0.4246
   85MOL0     H11706   6.701  13.226   7.092 -1.4512 -0.3828 -0.9991
   85MOL0     H11707   6.751  13.140   6.941  0.1466  1.6710 -0.3931
   85MOL0     H11708   6.860  12.973   7.071  0.1455 -0.9377  0.2594
   85MOL0     H11709   6.810  13.045   7.220 -3.2112 -1.8349 -2.1178
   85MOL0     H11710   6.025  12.483   7.220  0.2003 -0.9197  4.7123
   85MOL0     H11711   5.997  12.265   7.318 -0.6417 -0.7880 -2.1631
   85MOL0     H11712   6.286  11.881   7.464  0.0354 -2.7257  2.7934
   85MOL0     H11713   6.290  11.662   7.550  0.0972 -2.5295  0.1433
   85MOL0     H11714   6.792  11.022   6.280  2.8691 -0.3858  2.9285
   85MOL0     H11715   6.718  11.099   6.054 -0.4116 -0.6478  1.6744
   85MOL0     H11716   6.727  11.120   5.627  0.8465 -0.9304  0.6326
   85MOL0     H11717   6.681  11.162   5.412 -2.0445  1.9434  4.2444
   85MOL0     H11718   6.778  11.084   5.125 -0.1054 -0.2454 -2.7875
   85MOL0     H11719   6.659  11.191   5.191 -0.0559 -1.2276 -0.2915
   85MOL0     H11720   6.828  11.258   4.968 -0.3591 -0.2618 -1.5297
   85MOL0     H11721   6.688  11.357   5.020 -1.6554 -1.0050  0.7515
   85MOL0     H11722   6.616  11.071   4.951 -2.8762  0.6479  4.0005
   85MOL0     H11723   6.522  11.210   4.955 -1.4479 -2.5315 -0.4310
   85MOL0     H11724   6.750  11.159   4.754 -0.0131  0.8097  0.9578
   85MOL0     H11725   6.668  11.316   4.770 -0.7620  0.1731 -0.1025
   85MOL0     H11726   6.369  11.066   4.586 -0.1333 -3.4079  3.0790
   85MOL0     H11727   7.081  11.280   5.330  2.5004 -1.3612  0.2810
   85MOL0     H11728   7.244  11.172   5.626  0.8592  0.6094 -0.8755
   85MOL0     H11729   7.249  11.240   5.475 -0.7456 -0.7309 -0.0602
   85MOL0     H11730   7.206  11.341   5.621 -1.2694  0.9888 -0.6848
   86MOL0     O11731   4.468   5.419   8.969  0.9638  0.0692 -0.3915
   86MOL0     C11732   4.417   5.521   8.936  0.3184  0.6472 -0.2761
   86MOL0     O11733   4.449   5.648   8.979 -0.2610  0.5888  0.7968
   86MOL0     C11734   4.560   5.672   9.058 -0.7615  0.0999 -0.7402
   86MOL0     C11735   4.691   5.607   9.043  0.2624 -0.6568  0.4822
   86MOL0     C11736   4.798   5.649   9.116  1.0083  0.3672 -0.7803
   86MOL0     C11737   4.782   5.747   9.215  0.5495 -0.0982 -0.7914
   86MOL0     O11738   4.874   5.786   9.308 -0.5668  0.7231 -0.0082
   86MOL0     C11739   5.008   5.737   9.308 -0.1897  0.7048  0.3615
   86MOL0     C11740   5.016   5.607   9.391  0.4356 -0.2579 -0.0102
   86MOL0     C11741   5.027   5.628   9.542 -0.7391  0.0328 -0.7478
   86MOL0     C11742   5.173   5.669   9.587 -0.3577  0.2256  0.7557
   86MOL0     C11743   5.211   5.666   9.732 -0.4088  0.2107  0.0396
   86MOL0     C11744   5.101   5.734   9.806  0.3136  0.3882  0.1032
   86MOL0     C11745   5.145   5.777   9.944 -1.2364 -0.2450 -0.1431
   86MOL0     C11746   5.035   5.862  10.005 -0.0378 -0.0835  0.7667
   86MOL0     N11747   5.055   5.937  10.122 -0.2553 -0.3224 -0.1164
   86MOL0     C11748   5.129   5.913  10.232  0.3577  0.8042 -0.6719
   86MOL0     C11749   5.086   6.018  10.313  0.0028 -0.0482  0.4831
   86MOL0     C11750   5.117   6.039  10.455 -1.0482  0.3911 -1.0984
   86MOL0     C11751   5.273   6.044  10.466 -0.2060  0.4527 -0.3613
   86MOL0     C11752   5.329   6.127  10.581 -0.0630  0.2525  1.0247
   86MOL0     C11753   5.299   6.060  10.715  0.2917  0.4129  0.2459
   86MOL0     O11754   5.345   5.927  10.713  0.5284 -0.3476  0.7593
   86MOL0     C11755   5.476   5.886  10.725 -1.4141  0.2506  0.0410
   86MOL0     C11756   5.505   5.754  10.711  0.2510 -0.2377  0.0688
   86MOL0     C11757   5.643   5.706  10.733 -0.0498  0.2402  0.0008
   86MOL0     C11758   5.672   5.557  10.707 -0.2003  0.2751  0.3956
   86MOL0     C11759   5.750   5.800  10.756 -0.5534 -0.4897 -0.5894
   86MOL0     C11760   5.891   5.771  10.784 -0.0831 -0.2012  0.4313
   86MOL0     O11761   5.982   5.876  10.801 -0.7202  0.0179 -0.1154
   86MOL0     C11762   6.124   5.849  10.826 -0.1370  0.7534  0.2196
   86MOL0     C11763   6.209   5.930  10.755  0.0988 -0.1156  0.8504
   86MOL0     C11764   6.349   5.912  10.751  0.1728 -0.1596 -0.9277
   86MOL0     C11765   6.408   5.814  10.833  0.7310  0.3793 -0.6642
   86MOL0     O11766   6.549   5.810  10.849 -0.2043  0.6515 -0.2183
   86MOL0     C11767   6.599   5.691  10.913  0.3137 -0.5345 -0.0984
   86MOL0     C11768   6.739   5.684  10.889 -0.2149 -0.6014  0.4756
   86MOL0     C11769   6.819   5.791  10.973 -0.2738 -0.2205 -0.3015
   86MOL0     C11770   6.830   5.750  11.119  0.0755  0.7462  0.6373
   86MOL0     C11771   6.892   5.861  11.199 -0.4694 -0.0035  0.8067
   86MOL0     C11772   6.805   5.989  11.218 -0.4655  0.5942 -1.2762
   86MOL0     C11773   6.872   6.071  11.338  0.2405  0.4259 -0.1928
   86MOL0     C11774   6.814   6.214  11.338  0.3465  0.6355 -0.5469
   86MOL0    Cl11775   6.883   6.309  11.471 -0.0286 -0.0409  0.0919
   86MOL0     C11776   6.318   5.728  10.905 -0.3312 -0.2161 -0.6005
   86MOL0     C11777   6.180   5.739  10.899  0.6102  0.2935 -0.1241
   86MOL0     O11778   5.920   5.653  10.804  0.3936  0.5987 -0.6251
   86MOL0     C11779   5.715   5.941  10.756 -0.5444 -0.8163 -0.2146
   86MOL0     C11780   5.585   5.977  10.744 -0.4078  0.5608  0.6422
   86MOL0     N11781   5.012   6.108  10.242 -0.0310  0.2781 -0.2392
   86MOL0     N11782   4.993   6.056  10.125  0.8293  0.2161 -0.4525
   86MOL0     C11783   4.658   5.817   9.229 -0.5013 -0.6959  0.1815
   86MOL0     C11784   4.554   5.777   9.151 -0.5113  0.3907  0.6691
   86MOL0     C11785   4.304   5.508   8.838  0.8863 -0.4826 -0.0023
   86MOL0     C11786   4.260   5.634   8.774  0.1884 -0.3503 -0.6264
   86MOL0     C11787   4.165   5.637   8.671 -0.3392  0.0161  0.8717
   86MOL0     C11788   4.108   5.521   8.627 -1.1506  0.2979 -0.6736
   86MOL0     O11789   4.017   5.517   8.528  0.0024  0.3342  0.1896
   86MOL0     C11790   3.964   5.636   8.474 -0.2495  0.4157 -0.1939
   86MOL0     C11791   3.865   5.598   8.364 -0.1024 -0.7888  0.2155
   86MOL0     C11792   3.913   5.492   8.255  1.3731  0.4771  0.5799
   86MOL0     C11793   3.800   5.446   8.160  0.3649 -0.2310  1.0035
   86MOL0     C11794   3.744   5.554   8.079 -0.3075 -1.3137  0.9212
   86MOL0     C11795   3.698   5.653   8.014 -0.5506  0.5200  0.0452
   86MOL0     C11796   4.133   5.404   8.700  0.1866  0.1567 -0.4003
   86MOL0     C11797   4.239   5.393   8.793  0.1227 -0.8766  0.2622
   86MOL0     C11798   4.249   5.255   8.847 -0.1005  0.0787 -0.6932
   86MOL0     H11799   4.699   5.528   8.969 -1.0241 -0.3553 -0.0051
   86MOL0     H11800   4.888   5.594   9.091 -0.0099 -0.4931 -2.7892
   86MOL0     H11801   5.067   5.815   9.357 -0.6255  0.0702  1.9510
   86MOL0     H11802   5.036   5.736   9.202  0.7125  0.1489  0.5949
   86MOL0     H11803   4.935   5.540   9.359 -0.6673  1.9089 -2.0484
   86MOL0     H11804   5.107   5.552   9.364 -0.0826  1.4072 -7.0762
   86MOL0     H11805   4.950   5.696   9.578 -0.9487 -0.6933  0.1933
   86MOL0     H11806   4.999   5.531   9.584 -3.0937  1.4536  1.1832
   86MOL0     H11807   5.244   5.599   9.542 -0.1479 -0.4795  2.1346
   86MOL0     H11808   5.195   5.764   9.537 -3.0732  0.6833  0.2821
   86MOL0     H11809   5.307   5.714   9.753  0.5853 -1.7149  0.1981
   86MOL0     H11810   5.229   5.569   9.780 -0.8839  1.0695  2.0465
   86MOL0     H11811   5.067   5.819   9.746 -2.5489 -1.2374 -0.7722
   86MOL0     H11812   5.014   5.668   9.812  1.3146 -1.0392 -0.7693
   86MOL0     H11813   5.231   5.842   9.922 -0.6060 -0.8619  0.4453
   86MOL0     H11814   5.169   5.689  10.003 -2.3361 -0.1028  0.5430
   86MOL0     H11815   4.995   5.931   9.930 -0.5600 -0.9340  0.2433
   86MOL0     H11816   4.953   5.793  10.029 -0.3082 -0.5602 -1.2642
   86MOL0     H11817   5.183   5.824  10.262 -2.2056 -0.9892 -1.0765
   86MOL0     H11818   5.076   5.954  10.510 -0.8410 -0.1829 -1.8178
   86MOL0     H11819   5.089   6.135  10.500 -0.0851  0.0684  0.2087
   86MOL0     H11820   5.310   5.942  10.478 -1.4796  0.1672  1.5252
   86MOL0     H11821   5.306   6.086  10.370 -0.4477 -2.9708 -2.1022
   86MOL0     H11822   5.436   6.142  10.566 -0.4838  1.1232 -1.6678
   86MOL0     H11823   5.289   6.229  10.583  2.5235  1.3338  0.8439
   86MOL0     H11824   5.338   6.118  10.799 -1.7162  2.4115 -0.1031
   86MOL0     H11825   5.190   6.061  10.726  0.4711  0.5483  2.4037
   86MOL0     H11826   5.422   5.691  10.680  1.0299 -0.0334 -2.6372
   86MOL0     H11827   5.748   5.533  10.632  0.3587 -0.3975  1.1484
   86MOL0     H11828   5.583   5.512  10.662 -0.5350  0.9710  0.3535
   86MOL0     H11829   5.688   5.500  10.799  0.7635  2.4010  1.6159
   86MOL0     H11830   6.161   6.007  10.697  1.1380  0.7469  1.1029
   86MOL0     H11831   6.414   5.959  10.678 -0.9008  0.9808 -1.1979
   86MOL0     H11832   6.586   5.709  11.020  3.1572 -2.2092  0.6253
   86MOL0     H11833   6.554   5.595  10.888  0.2813 -0.4917 -0.2050
   86MOL0     H11834   6.777   5.586  10.920 -0.7563 -0.0599  3.1034
   86MOL0     H11835   6.746   5.694  10.780  0.5571 -1.7733  0.3940
   86MOL0     H11836   6.763   5.884  10.961 -0.0045  0.1621  1.2395
   86MOL0     H11837   6.913   5.792  10.917 -0.6171 -0.6001 -0.9082
   86MOL0     H11838   6.891   5.660  11.130 -0.5349  0.3705  0.9767
   86MOL0     H11839   6.734   5.726  11.164  0.9825 -4.5577  0.4482
   86MOL0     H11840   6.914   5.822  11.299 -0.1235 -1.5254  0.1724
   86MOL0     H11841   6.988   5.889  11.154 -1.0965 -0.8352 -1.2002
   86MOL0     H11842   6.700   5.959  11.230  0.3151 -1.9529 -0.0555
   86MOL0     H11843   6.803   6.040  11.122  2.9663 -0.6851 -2.1745
   86MOL0     H11844   6.979   6.080  11.318  0.5271 -0.4354  0.8845
   86MOL0     H11845   6.858   6.022  11.434  0.3345  0.7824  0.0045
   86MOL0     H11846   6.707   6.211  11.359 -0.3241  0.9967 -3.4818
   86MOL0     H11847   6.835   6.265  11.244 -0.6043  0.0050 -1.1111
   86MOL0     H11848   6.361   5.663  10.981 -1.5552  0.0626  0.3633
   86MOL0     H11849   6.121   5.666  10.954  2.0708 -4.2865 -3.9493
   86MOL0     H11850   5.786   6.023  10.761  1.4141 -2.4185 -0.7190
   86MOL0     H11851   5.561   6.082  10.760 -0.8101  0.2091  2.6170
   86MOL0     H11852   4.654   5.877   9.320  4.9058 -0.5148  0.6215
   86MOL0     H11853   4.463   5.834   9.162  0.4476  1.6110  3.3493
   86MOL0     H11854   4.298   5.727   8.816  0.2510 -0.7906  0.3044
   86MOL0     H11855   4.151   5.730   8.618  2.2720 -1.3934 -2.6676
   86MOL0     H11856   3.913   5.702   8.544 -2.9470 -0.2426 -1.4304
   86MOL0     H11857   4.038   5.698   8.422 -1.6576  2.1240 -0.2263
   86MOL0     H11858   3.818   5.691   8.330 -2.0308 -0.9725  2.0904
   86MOL0     H11859   3.785   5.542   8.414 -0.9634  0.4518  0.2763
   86MOL0     H11860   3.987   5.539   8.190 -0.7745  1.4398 -1.2740
   86MOL0     H11861   3.945   5.400   8.304  1.3117 -0.4107 -0.9924
   86MOL0     H11862   3.711   5.410   8.213 -0.8062 -0.9330 -1.3135
   86MOL0     H11863   3.845   5.370   8.096  0.0421 -1.3942  2.1112
   86MOL0     H11864   3.662   5.746   7.974  1.0245  1.1697  0.0864
   86MOL0     H11865   4.066   5.326   8.665 -1.8439  1.6829 -0.1262
   86MOL0     H11866   4.206   5.252   8.947 -1.5311 -2.2400 -1.3068
   86MOL0     H11867   4.193   5.177   8.795  1.2337 -1.3990  0.0264
   86MOL0     H11868   4.350   5.214   8.850 -0.2742 -1.0089 -4.3969
   87MOL0     O11869   4.713   7.247   0.051  0.7219  0.0086  1.4710
   87MOL0     C11870   4.775   7.290   0.144  0.3364  0.2623  0.1297
   87MOL0     O11871   4.916   7.298   0.153 -0.1969 -0.1242 -0.0409
   87MOL0     C11872   4.987   7.312   0.035 -1.7446 -0.6871  0.3172
   87MOL0     C11873   4.928   7.376  -0.076 -0.8123  0.0184 -0.5942
   87MOL0     C11874   4.995   7.388  -0.198  0.8492 -0.6004  0.8711
   87MOL0     C11875   5.126   7.330  -0.213  0.5964 -0.0558 -0.4884
   87MOL0     O11876   5.185   7.334  -0.339 -0.1076 -0.5932  0.6220
   87MOL0     C11877   5.308   7.262  -0.366  0.3814  0.4936 -0.1941
   87MOL0     C11878   5.439   7.344  -0.340  0.4425  0.1098  0.6485
   87MOL0     C11879   5.446   7.462  -0.441 -0.4915  0.1841 -0.1471
   87MOL0     C11880   5.548   7.429  -0.551  0.6911 -0.1578 -1.4454
   87MOL0     C11881   5.561   7.550  -0.646 -0.3545  0.1514  1.0377
   87MOL0     C11882   5.690   7.527  -0.735  0.6718  0.3863 -0.3061
   87MOL0     C11883   5.686   7.421  -0.851  0.2462  0.0799  0.3991
   87MOL0     C11884   5.773   7.457  -0.970 -0.1596  0.6110 -0.8084
   87MOL0     N11885   5.904   7.514  -0.933  0.2858 -1.1648 -0.1422
   87MOL0     C11886   5.982   7.601  -1.007 -0.2864  0.2535  0.0341
   87MOL0     C11887   6.101   7.613  -0.937  0.1291 -0.1450  0.4501
   87MOL0     C11888   6.230   7.692  -0.980  0.7382  0.1031  0.4616
   87MOL0     C11889   6.325   7.631  -1.083 -0.6183 -0.0446  0.4597
   87MOL0     C11890   6.390   7.494  -1.046 -0.3370 -0.1011  0.0164
   87MOL0     C11891   6.310   7.373  -1.095 -0.2776  0.1292  0.4607
   87MOL0     O11892   6.384   7.252  -1.070  0.4394 -0.6903  0.6374
   87MOL0     C11893   6.432   7.189  -1.185 -0.4122  0.2815 -0.5355
   87MOL0     C11894   6.403   7.050  -1.192  0.1617  0.1426 -0.6846
   87MOL0     C11895   6.445   6.973  -1.304  0.2601  0.6500 -0.0620
   87MOL0     C11896   6.419   6.828  -1.284 -0.5163 -0.0118 -0.8024
   87MOL0     C11897   6.529   7.031  -1.396 -0.7491 -0.0601  0.6363
   87MOL0     C11898   6.572   6.951  -1.514 -0.2605 -0.3459  0.4890
   87MOL0     O11899   6.700   6.980  -1.555  0.1725 -1.0559 -0.8038
   87MOL0     C11900   6.719   6.976  -1.690 -0.4871  0.5429  0.0653
   87MOL0     C11901   6.688   7.093  -1.766 -0.1982  0.2139  0.4070
   87MOL0     C11902   6.691   7.095  -1.904  0.0528 -0.7874  0.7502
   87MOL0     C11903   6.726   6.980  -1.973  0.0834 -0.3140 -0.0542
   87MOL0     O11904   6.715   6.954  -2.108  0.0822  0.3717 -0.1129
   87MOL0     C11905   6.642   7.042  -2.187  0.5533 -0.3962 -0.4003
   87MOL0     C11906   6.730   7.171  -2.227 -0.1841  0.4742  0.3079
   87MOL0     C11907   6.812   7.131  -2.353 -0.2705  0.2861 -0.6431
   87MOL0     C11908   6.838   7.247  -2.444 -0.1812  0.8744 -0.7153
   87MOL0     C11909   6.922   7.197  -2.565  0.0936 -0.3248  0.3268
   87MOL0     C11910   6.827   7.174  -2.677 -0.3930 -0.1914 -0.1841
   87MOL0     C11911   6.915   7.129  -2.796  0.2796  1.2344 -0.9305
   87MOL0     C11912   6.848   7.150  -2.934  0.1982 -0.4895 -0.2951
   87MOL0    Cl11913   6.696   7.058  -2.938  0.0065 -0.3029  0.2317
   87MOL0     C11914   6.759   6.856  -1.897  0.1149 -0.0663  0.2607
   87MOL0     C11915   6.753   6.857  -1.763 -0.9640 -0.6694  0.0807
   87MOL0     O11916   6.495   6.876  -1.567 -0.0550 -0.6957 -0.1657
   87MOL0     C11917   6.567   7.166  -1.385 -0.5385 -0.3423  0.4016
   87MOL0     C11918   6.515   7.248  -1.281  0.4083  0.8122  0.3179
   87MOL0     N11919   6.097   7.532  -0.823  0.6984 -1.1543 -0.3695
   87MOL0     N11920   5.982   7.473  -0.833 -0.2340  0.5386  0.1665
   87MOL0     C11921   5.191   7.283  -0.093  0.0042  0.3645 -0.6859
   87MOL0     C11922   5.118   7.285   0.030 -0.8537  0.1710  0.2210
   87MOL0     C11923   4.703   7.351   0.254 -1.0757  0.1051  1.4343
   87MOL0     C11924   4.753   7.326   0.378  0.5151  0.4748  0.0083
   87MOL0     C11925   4.705   7.387   0.493  1.0283  0.1669  0.2104
   87MOL0     C11926   4.588   7.471   0.484  0.3343 -1.3013 -0.4413
   87MOL0     O11927   4.533   7.512   0.598 -0.4447 -0.1733  0.8399
   87MOL0     C11928   4.481   7.649   0.608 -0.4195  0.1442 -0.0896
   87MOL0     C11929   4.328   7.652   0.595  0.2875  0.0331  0.1143
   87MOL0     C11930   4.277   7.581   0.717  0.1926 -0.5125  0.5144
   87MOL0     C11931   4.120   7.567   0.717 -0.7133  0.0048  0.6450
   87MOL0     C11932   4.070   7.483   0.827  0.4242  0.9349 -0.1783
   87MOL0     C11933   4.039   7.403   0.914 -0.6927  0.2975 -0.1640
   87MOL0     C11934   4.541   7.498   0.354  0.0427  0.0733  0.2960
   87MOL0     C11935   4.596   7.444   0.244 -0.0745 -0.5655  0.4400
   87MOL0     C11936   4.550   7.507   0.115  1.1609 -0.6980  0.3018
   87MOL0     H11937   4.834   7.429  -0.070 -1.2432 -0.7758 -0.1480
   87MOL0     H11938   4.952   7.441  -0.283 -0.5902  0.4253  2.1836
   87MOL0     H11939   5.311   7.234  -0.471  1.3056  2.7965 -0.8272
   87MOL0     H11940   5.302   7.162  -0.322 -0.3295  1.3984  1.9087
   87MOL0     H11941   5.435   7.375  -0.235 -2.1213  1.1574  0.3190
   87MOL0     H11942   5.521   7.272  -0.345 -0.4924 -1.0135  1.1636
   87MOL0     H11943   5.347   7.482  -0.480 -0.7199  2.5997  1.4149
   87MOL0     H11944   5.477   7.551  -0.385 -0.2498  0.2040 -0.3111
   87MOL0     H11945   5.636   7.408  -0.489 -0.5056  2.6805  1.4875
   87MOL0     H11946   5.521   7.344  -0.614 -0.2500  0.0052 -1.2831
   87MOL0     H11947   5.578   7.633  -0.577 -0.4819 -1.2903  2.8873
   87MOL0     H11948   5.475   7.569  -0.710 -0.6215 -1.5631  0.8355
   87MOL0     H11949   5.722   7.625  -0.771  0.0050  1.6503  2.2840
   87MOL0     H11950   5.772   7.485  -0.675  2.4780  5.0349  0.8865
   87MOL0     H11951   5.589   7.407  -0.900  0.9041  0.6606 -1.1304
   87MOL0     H11952   5.706   7.317  -0.823 -2.2081 -1.3194 -2.4479
   87MOL0     H11953   5.794   7.368  -1.029 -0.5776 -0.9398  1.2831
   87MOL0     H11954   5.732   7.532  -1.039  2.7171  1.1219 -2.1152
   87MOL0     H11955   5.954   7.662  -1.092  1.5816  3.0580  1.2867
   87MOL0     H11956   6.278   7.725  -0.888  0.5836 -1.8760  1.3049
   87MOL0     H11957   6.186   7.783  -1.021 -1.2556 -0.8203  0.3862
   87MOL0     H11958   6.266   7.606  -1.171 -0.1440 -0.8185  0.3543
   87MOL0     H11959   6.388   7.710  -1.123 -2.6998  1.2455 -0.4155
   87MOL0     H11960   6.490   7.483  -1.089 -0.3820 -3.9762  0.5975
   87MOL0     H11961   6.408   7.496  -0.938  0.7673 -1.2248 -0.1318
   87MOL0     H11962   6.207   7.370  -1.060 -1.0109 -3.9528 -1.4781
   87MOL0     H11963   6.303   7.382  -1.204  0.3245 -3.0023  0.0723
   87MOL0     H11964   6.345   6.996  -1.118  1.1612 -3.6025 -2.4178
   87MOL0     H11965   6.355   6.795  -1.367  0.8577 -0.1163 -1.8620
   87MOL0     H11966   6.367   6.803  -1.191  1.5574 -0.5301  0.2724
   87MOL0     H11967   6.515   6.776  -1.280  0.0519  1.0779  1.2348
   87MOL0     H11968   6.643   7.178  -1.716 -0.6401  2.0722 -2.8797
   87MOL0     H11969   6.654   7.182  -1.958  0.9800 -0.6460  0.3141
   87MOL0     H11970   6.611   6.983  -2.274  2.9232 -0.2606 -1.4010
   87MOL0     H11971   6.552   7.073  -2.133 -1.8443 -0.8213 -3.8483
   87MOL0     H11972   6.660   7.247  -2.263 -1.3833  0.1196  1.7622
   87MOL0     H11973   6.787   7.211  -2.142 -0.3327 -1.7853  1.5637
   87MOL0     H11974   6.754   7.051  -2.401  0.7578 -1.4362  0.8270
   87MOL0     H11975   6.903   7.084  -2.316  0.7377  4.2834  2.6223
   87MOL0     H11976   6.903   7.311  -2.384 -0.2319  2.1591 -1.9824
   87MOL0     H11977   6.750   7.307  -2.468 -0.4949  1.0000  0.6595
   87MOL0     H11978   6.986   7.282  -2.589 -0.8106  0.9595  2.2669
   87MOL0     H11979   6.969   7.100  -2.543 -0.4650 -0.5406  0.5852
   87MOL0     H11980   6.784   7.272  -2.701  1.3681 -0.1733 -3.9601
   87MOL0     H11981   6.753   7.095  -2.661  0.4989 -1.2198 -0.9878
   87MOL0     H11982   6.943   7.024  -2.777  0.0204  1.4103  0.5436
   87MOL0     H11983   7.012   7.179  -2.794  0.2527  1.3459 -2.0352
   87MOL0     H11984   6.923   7.136  -3.012  0.3765  0.5811 -0.3237
   87MOL0     H11985   6.822   7.256  -2.933 -3.5519 -1.2524  0.1332
   87MOL0     H11986   6.784   6.773  -1.962 -4.0129 -2.1790  1.0493
   87MOL0     H11987   6.780   6.767  -1.709  4.7297 -1.2968 -3.0349
   87MOL0     H11988   6.636   7.220  -1.450 -0.7773 -0.1381  0.3155
   87MOL0     H11989   6.551   7.347  -1.257 -0.2012  1.1611 -0.1806
   87MOL0     H11990   5.283   7.228  -0.104 -1.8677 -2.5039 -3.7878
   87MOL0     H11991   5.157   7.257   0.127 -2.3541  0.6544  0.9904
   87MOL0     H11992   4.831   7.251   0.391  3.9184  3.2388 -2.5860
   87MOL0     H11993   4.746   7.370   0.592  0.0175 -0.1583  0.5892
   87MOL0     H11994   4.516   7.690   0.703 -1.9485  3.2997 -0.7557
   87MOL0     H11995   4.513   7.719   0.529  1.1180  1.6137  1.7351
   87MOL0     H11996   4.289   7.586   0.517 -1.7969 -2.5342  3.0874
   87MOL0     H11997   4.285   7.752   0.584  3.3273  1.1794 -3.5152
   87MOL0     H11998   4.307   7.476   0.727 -2.2345 -1.4020 -0.8038
   87MOL0     H11999   4.300   7.640   0.806 -3.4745  3.2571 -0.7371
   87MOL0     H12000   4.076   7.525   0.626 -2.4379  3.2644 -0.1654
   87MOL0     H12001   4.065   7.657   0.746  2.0030  1.1187  2.8582
   87MOL0     H12002   4.023   7.325   0.986  0.5817 -0.2451 -0.4406
   87MOL0     H12003   4.455   7.565   0.349  1.0192  1.6780  2.9095
   87MOL0     H12004   4.559   7.616   0.125  0.7237 -0.7132  0.9587
   87MOL0     H12005   4.604   7.475   0.026 -1.1678 -0.1501 -1.3860
   87MOL0     H12006   4.446   7.474   0.106  1.8767 -2.3746 -3.3413
   88MOL0     O12007  10.877   2.497   7.693  0.3770  0.6080  0.3135
   88MOL0     C12008  10.809   2.440   7.605  1.4050 -0.2243  0.1203
   88MOL0     O12009  10.850   2.335   7.532  0.1916 -0.4575  0.4156
   88MOL0     C12010  10.970   2.270   7.557 -0.5806 -0.8841 -0.2106
   88MOL0     C12011  11.037   2.206   7.450  0.2939  0.5910 -0.6279
   88MOL0     C12012  11.161   2.145   7.472  0.7399  0.5760 -0.4704
   88MOL0     C12013  11.208   2.127   7.597  0.4562  0.4981 -0.8887
   88MOL0     O12014  11.335   2.073   7.626  0.3613 -0.7698 -0.9709
   88MOL0     C12015  11.447   2.084   7.535  0.0511  1.2200 -0.2263
   88MOL0     C12016  11.561   2.129   7.626 -0.0951 -0.2198  0.2813
   88MOL0     C12017  11.678   2.135   7.532 -0.1517  0.3066  0.1917
   88MOL0     C12018  11.725   2.292   7.526 -0.2390  0.6929 -0.3107
   88MOL0     C12019  11.855   2.304   7.445  1.1007  0.3190 -0.3498
   88MOL0     C12020  11.882   2.436   7.368  0.3303  0.3833 -0.4572
   88MOL0     C12021  11.909   2.562   7.451 -0.4560  0.0087  0.5718
   88MOL0     C12022  12.037   2.553   7.541 -0.4301  0.7242 -0.0883
   88MOL0     N12023  12.071   2.688   7.578  0.0966 -0.5476 -0.4919
   88MOL0     C12024  12.143   2.773   7.507  0.4404  1.0590  0.8211
   88MOL0     C12025  12.114   2.900   7.563 -0.5898 -0.5380 -0.3607
   88MOL0     C12026  12.171   3.031   7.518 -1.3778 -0.3835 -0.4041
   88MOL0     C12027  12.326   3.030   7.487  0.4128  0.0615  0.0742
   88MOL0     C12028  12.362   3.184   7.457  0.0724  0.1099  0.3666
   88MOL0     C12029  12.503   3.174   7.385 -0.5085 -1.0586 -0.0405
   88MOL0     O12030  12.552   3.308   7.354  0.7937  0.1488 -0.1108
   88MOL0     C12031  12.650   3.308   7.258 -0.7125 -0.2515  0.3922
   88MOL0     C12032  12.724   3.427   7.252  0.0246  0.0071  0.3656
   88MOL0     C12033  12.829   3.444   7.155  0.1286 -0.0381 -0.3596
   88MOL0     C12034  12.913   3.566   7.148 -0.3528 -0.4679 -0.6483
   88MOL0     C12035  12.853   3.340   7.059 -0.1775 -0.3232 -0.3531
   88MOL0     C12036  12.969   3.344   6.955  0.0236  0.2123 -0.1790
   88MOL0     O12037  12.984   3.453   6.879 -0.0622  0.0810 -0.2815
   88MOL0     C12038  12.868   3.513   6.840  0.1743 -0.1271 -0.2097
   88MOL0     C12039  12.763   3.433   6.793  0.4567  0.1683 -0.4485
   88MOL0     C12040  12.644   3.505   6.751 -0.5337 -0.5811 -0.2278
   88MOL0     C12041  12.630   3.641   6.749  0.4866 -0.2152 -0.0910
   88MOL0     O12042  12.515   3.705   6.701 -0.0434  0.1629 -0.4824
   88MOL0     C12043  12.392   3.631   6.739  0.4327 -0.6482 -0.0404
   88MOL0     C12044  12.269   3.715   6.722 -0.4505 -0.0591  1.2236
   88MOL0     C12045  12.140   3.625   6.721  0.4396  0.4725  0.2356
   88MOL0     C12046  12.014   3.713   6.696 -0.0555  0.1574  0.0027
   88MOL0     C12047  11.884   3.636   6.645  0.3364  0.8177 -0.0946
   88MOL0     C12048  11.777   3.725   6.585  0.3761 -0.2963 -0.3318
   88MOL0     C12049  11.651   3.655   6.542  0.3242 -0.1326 -0.4772
   88MOL0     C12050  11.661   3.615   6.399 -0.0115  0.2832  0.5206
   88MOL0    Cl12051  11.532   3.505   6.367 -0.0223 -0.2894  0.2001
   88MOL0     C12052  12.737   3.714   6.795 -0.3784  0.0552 -0.3894
   88MOL0     C12053  12.851   3.648   6.837 -0.1255  0.0856  0.6072
   88MOL0     O12054  13.050   3.254   6.961  0.3155 -0.2684 -0.2520
   88MOL0     C12055  12.775   3.220   7.075  0.2357 -0.5653  0.2386
   88MOL0     C12056  12.681   3.200   7.172  0.5195  0.1267 -0.8304
   88MOL0     N12057  12.042   2.874   7.679 -0.0162 -0.7619 -0.6175
   88MOL0     N12058  12.014   2.750   7.687 -0.8534 -1.0324 -0.6017
   88MOL0     C12059  11.140   2.168   7.709 -0.1290 -0.8587  0.2980
   88MOL0     C12060  11.021   2.246   7.692  0.2972  0.2899 -0.3600
   88MOL0     C12061  10.670   2.490   7.575 -1.2799 -0.3845 -0.0291
   88MOL0     C12062  10.578   2.384   7.550 -0.4740  0.3426 -0.3319
   88MOL0     C12063  10.441   2.415   7.548  0.1645  0.9719 -0.1631
   88MOL0     C12064  10.400   2.551   7.565  0.4620  0.6878  0.5768
   88MOL0     O12065  10.267   2.570   7.561 -0.2903 -0.2796 -0.5960
   88MOL0     C12066  10.195   2.696   7.562 -0.3315 -0.9609 -0.0424
   88MOL0     C12067  10.200   2.755   7.700  0.7305 -0.1781 -0.2319
   88MOL0     C12068  10.176   2.911   7.684  0.2369 -1.0215  0.3944
   88MOL0     C12069  10.168   2.973   7.826 -0.3982  0.9087  1.0716
   88MOL0     C12070  10.127   3.112   7.804  1.1538  0.0132 -0.6990
   88MOL0     C12071  10.072   3.221   7.786  0.2150 -0.3050  0.9292
   88MOL0     C12072  10.493   2.644   7.583 -0.7189 -0.6837 -0.1892
   88MOL0     C12073  10.626   2.621   7.588  0.2235  0.1131  0.8614
   88MOL0     C12074  10.717   2.734   7.630  0.2473 -0.0183  0.5951
   88MOL0     H12075  11.002   2.216   7.348  1.4550 -0.2454 -1.1330
   88MOL0     H12076  11.206   2.101   7.384 -0.9119 -2.0927 -0.0994
   88MOL0     H12077  11.435   2.138   7.441  0.7314  3.6101  0.9832
   88MOL0     H12078  11.467   1.979   7.511  1.8447  1.2211  1.0616
   88MOL0     H12079  11.548   2.219   7.686  1.5270  0.3573 -0.1734
   88MOL0     H12080  11.584   2.049   7.698 -0.2414  0.3625  0.9818
   88MOL0     H12081  11.758   2.069   7.567  0.1835  1.2376  1.2465
   88MOL0     H12082  11.659   2.084   7.437  0.8962  0.2401 -0.0006
   88MOL0     H12083  11.639   2.337   7.475  0.7736  0.5627 -2.2255
   88MOL0     H12084  11.740   2.325   7.629 -1.7767  2.8429 -0.7102
   88MOL0     H12085  11.852   2.220   7.374  1.3060 -0.6185  0.7169
   88MOL0     H12086  11.935   2.291   7.519 -1.5501 -1.5403  2.4209
   88MOL0     H12087  11.970   2.419   7.306  0.3885  1.3634 -0.6609
   88MOL0     H12088  11.803   2.446   7.292 -1.6950 -0.9172  1.3608
   88MOL0     H12089  11.819   2.581   7.510 -0.9053  0.6363 -0.2939
   88MOL0     H12090  11.918   2.652   7.389  2.6296  0.5619  1.6198
   88MOL0     H12091  12.013   2.498   7.633  1.2830 -0.1057 -0.1081
   88MOL0     H12092  12.113   2.488   7.496 -2.1464 -2.1930  0.9537
   88MOL0     H12093  12.189   2.746   7.413 -0.1592  1.2587  0.4662
   88MOL0     H12094  12.159   3.104   7.599  2.6754  0.1146 -0.0564
   88MOL0     H12095  12.113   3.069   7.434  2.0552  0.8451 -2.4033
   88MOL0     H12096  12.377   3.002   7.580  4.9070  0.9504 -1.8565
   88MOL0     H12097  12.348   2.949   7.416  0.5691 -0.8676  1.1548
   88MOL0     H12098  12.292   3.237   7.392  0.6297  1.9213  1.1787
   88MOL0     H12099  12.380   3.256   7.538 -0.7192  2.0736 -1.1232
   88MOL0     H12100  12.576   3.121   7.447  0.7272  1.1309  0.4811
   88MOL0     H12101  12.491   3.099   7.306 -2.3186 -1.7859  0.8846
   88MOL0     H12102  12.706   3.511   7.318 -1.2730  1.2678 -1.4528
   88MOL0     H12103  13.014   3.563   7.107  0.7235 -0.1484  1.8126
   88MOL0     H12104  12.929   3.609   7.247  0.3017 -1.0033 -0.5213
   88MOL0     H12105  12.854   3.634   7.086 -1.6291 -3.2938 -2.7710
   88MOL0     H12106  12.761   3.325   6.780  0.4138  0.1794 -0.5358
   88MOL0     H12107  12.564   3.457   6.697 -0.0765 -0.7074 -0.8071
   88MOL0     H12108  12.389   3.548   6.668 -0.5302  0.6513 -1.5801
   88MOL0     H12109  12.395   3.593   6.842  0.0703  0.4869  0.4159
   88MOL0     H12110  12.279   3.784   6.807  0.0033  1.4896 -0.0407
   88MOL0     H12111  12.289   3.774   6.632  3.4979 -0.5137  1.6157
   88MOL0     H12112  12.130   3.581   6.821 -2.8127  0.4114 -0.0305
   88MOL0     H12113  12.148   3.551   6.641 -1.3502  1.0607 -0.5295
   88MOL0     H12114  12.036   3.794   6.626  1.1084 -0.2516 -0.1258
   88MOL0     H12115  11.993   3.763   6.792  2.0709 -0.1834  0.7112
   88MOL0     H12116  11.912   3.560   6.572 -2.4718 -0.5372  0.1257
   88MOL0     H12117  11.840   3.575   6.725  0.4201 -1.0831 -1.4383
   88MOL0     H12118  11.820   3.783   6.503  2.3691  2.0814  2.1862
   88MOL0     H12119  11.759   3.798   6.665 -0.5847 -2.0787  1.1679
   88MOL0     H12120  11.565   3.722   6.540  0.7921  0.4653 -1.2401
   88MOL0     H12121  11.627   3.574   6.611  1.5121 -0.4891 -0.4578
   88MOL0     H12122  11.760   3.569   6.393 -0.3402 -0.6662  2.0902
   88MOL0     H12123  11.663   3.699   6.328 -2.0124  1.5141  1.8377
   88MOL0     H12124  12.723   3.821   6.795 -1.1648 -0.0363  0.1271
   88MOL0     H12125  12.936   3.712   6.858 -1.2145  1.7680  0.0728
   88MOL0     H12126  12.785   3.138   7.004 -0.5592  0.3457 -0.9542
   88MOL0     H12127  12.648   3.097   7.167  1.4514 -0.1753 -0.9032
   88MOL0     H12128  11.187   2.181   7.805  3.0474  2.0257 -1.4235
   88MOL0     H12129  10.977   2.297   7.777 -0.6702  0.1603 -0.7799
   88MOL0     H12130  10.618   2.284   7.543 -1.6729 -0.2042  0.3226
   88MOL0     H12131  10.374   2.335   7.517  2.6430  0.2941 -4.6556
   88MOL0     H12132  10.247   2.766   7.497 -0.5319 -2.5422 -1.9836
   88MOL0     H12133  10.093   2.684   7.525 -0.6983 -1.2741  1.0347
   88MOL0     H12134  10.297   2.736   7.747 -0.2181 -0.7182  1.6187
   88MOL0     H12135  10.121   2.708   7.759  0.8443  2.1345  1.9520
   88MOL0     H12136  10.258   2.957   7.629 -0.1172  1.6505  1.9161
   88MOL0     H12137  10.075   2.925   7.644  1.0481  1.3349 -0.9606
   88MOL0     H12138  10.269   2.972   7.868  1.0419  0.4689 -2.0707
   88MOL0     H12139  10.101   2.919   7.893  1.9514 -1.3409  1.7717
   88MOL0     H12140  10.022   3.314   7.766 -0.5888 -0.9809 -0.3055
   88MOL0     H12141  10.461   2.746   7.603  2.5106  0.3533  0.1315
   88MOL0     H12142  10.680   2.813   7.563 -1.9099 -1.9648 -0.6463
   88MOL0     H12143  10.691   2.747   7.736  1.4140  0.9323  0.7856
   88MOL0     H12144  10.822   2.706   7.625  1.1991  3.1571  0.6925
   89MOL0     O12145   4.553   8.626   8.195 -0.0501 -0.4722  0.1730
   89MOL0     C12146   4.541   8.574   8.307  1.3072 -1.1639 -0.1186
   89MOL0     O12147   4.416   8.530   8.355 -0.4791  0.3421 -0.0907
   89MOL0     C12148   4.299   8.569   8.283 -0.7497  0.4193 -0.7453
   89MOL0     C12149   4.213   8.641   8.369 -0.1905  0.8856 -0.3679
   89MOL0     C12150   4.080   8.663   8.328  0.1421  1.1065 -0.2116
   89MOL0     C12151   4.041   8.627   8.196  0.8704 -0.1112  0.5530
   89MOL0     O12152   3.909   8.652   8.158 -0.7515  0.1356 -0.9633
   89MOL0     C12153   3.858   8.785   8.162  1.2285 -0.4249  0.5254
   89MOL0     C12154   3.890   8.856   8.036  0.1173 -0.1684 -0.1707
   89MOL0     C12155   4.034   8.904   8.008  0.2868 -0.5118  0.0076
   89MOL0     C12156   4.095   9.003   8.107  0.7487  0.1348 -0.1159
   89MOL0     C12157   4.232   9.033   8.058 -0.4072  0.0218  0.0689
   89MOL0     C12158   4.344   8.945   8.113  0.6454  0.4869 -0.1621
   89MOL0     C12159   4.477   9.023   8.111  0.0854 -0.2488 -0.4490
   89MOL0     C12160   4.607   8.941   8.150  0.2987 -0.1615  0.6165
   89MOL0     N12161   4.724   9.026   8.132 -0.4838  0.3069 -0.3322
   89MOL0     C12162   4.729   9.158   8.101  0.5173  0.9084 -1.2068
   89MOL0     C12163   4.856   9.192   8.100  0.0954  0.5533 -0.3808
   89MOL0     C12164   4.909   9.321   8.056  0.7498  0.1900  0.2362
   89MOL0     C12165   4.922   9.322   7.900 -0.0925  0.2213 -0.2360
   89MOL0     C12166   4.992   9.445   7.859  0.4430 -0.8298  0.2127
   89MOL0     C12167   5.138   9.409   7.803 -0.3890 -0.6420  0.3789
   89MOL0     O12168   5.213   9.533   7.812  0.0718 -0.0039 -0.4592
   89MOL0     C12169   5.328   9.543   7.746  0.5579  0.0611  0.1750
   89MOL0     C12170   5.391   9.664   7.767  0.0060 -0.4011 -0.0655
   89MOL0     C12171   5.514   9.693   7.699  1.1162 -0.8562  0.1500
   89MOL0     C12172   5.556   9.827   7.731  0.4672  0.7758 -0.3078
   89MOL0     C12173   5.572   9.603   7.608 -0.2320 -0.5683  0.4464
   89MOL0     C12174   5.693   9.623   7.522  0.0566 -0.2234 -0.9278
   89MOL0     O12175   5.728   9.757   7.492 -0.2161  0.3235  0.4752
   89MOL0     C12176   5.856   9.781   7.440  0.5381  0.9023 -0.2145
   89MOL0     C12177   5.871   9.891   7.349  0.3679  0.1504  1.0115
   89MOL0     C12178   6.002   9.925   7.307 -0.1725 -0.1776 -0.5410
   89MOL0     C12179   6.107   9.851   7.345 -0.9190  0.6488  0.0812
   89MOL0     O12180   6.226   9.885   7.299  1.3117  0.4835  0.4475
   89MOL0     C12181   6.330   9.791   7.302  0.2164  0.4058  0.7522
   89MOL0     C12182   6.441   9.849   7.206 -0.7597  0.1818 -0.6615
   89MOL0     C12183   6.495   9.979   7.276 -0.0223 -0.4090 -0.5450
   89MOL0     C12184   6.616  10.043   7.191  1.1681  0.0947 -0.0485
   89MOL0     C12185   6.712  10.135   7.268  0.7350  0.2269  0.6493
   89MOL0     C12186   6.634  10.259   7.330  0.2130  0.0518  0.4660
   89MOL0     C12187   6.562  10.354   7.231 -0.1335 -0.0715 -0.2162
   89MOL0     C12188   6.475  10.463   7.308  0.1890  0.2272 -0.3579
   89MOL0    Cl12189   6.369  10.546   7.197 -0.0609  0.5363  0.3674
   89MOL0     C12190   6.086   9.748   7.432 -0.2729  0.1222  0.1409
   89MOL0     C12191   5.965   9.715   7.488  0.2924  0.8927  0.0957
   89MOL0     O12192   5.749   9.517   7.482 -0.2407  0.3049 -0.0989
   89MOL0     C12193   5.498   9.481   7.590 -0.2611  0.9329  0.3044
   89MOL0     C12194   5.381   9.451   7.651  0.0007 -0.6476  0.0927
   89MOL0     N12195   4.930   9.087   8.144 -0.0899 -0.1221  0.6641
   89MOL0     N12196   4.851   8.986   8.166  0.3448  0.9072 -0.0701
   89MOL0     C12197   4.121   8.543   8.122  0.5288  0.9054  0.2974
   89MOL0     C12198   4.255   8.519   8.161 -0.1069 -0.1214  0.4846
   89MOL0     C12199   4.658   8.533   8.382 -0.2420  0.0678  0.3228
   89MOL0     C12200   4.646   8.439   8.487  0.0447  0.2232  0.1240
   89MOL0     C12201   4.760   8.377   8.549 -0.4037 -0.8096 -0.7293
   89MOL0     C12202   4.889   8.424   8.525  0.2720 -1.2438 -0.5678
   89MOL0     O12203   4.987   8.393   8.620 -0.9997  0.1762  0.1314
   89MOL0     C12204   5.111   8.473   8.613 -0.7198  0.8982  0.4779
   89MOL0     C12205   5.249   8.411   8.655  0.1511 -0.2666 -0.0396
   89MOL0     C12206   5.267   8.397   8.806 -0.0363 -0.7787  0.6210
   89MOL0     C12207   5.388   8.316   8.844 -0.1176  0.2328 -0.0593
   89MOL0     C12208   5.508   8.388   8.799 -0.5495 -0.8924  0.0802
   89MOL0     C12209   5.601   8.459   8.763 -0.1754  0.3936 -0.4330
   89MOL0     C12210   4.897   8.521   8.416  0.5483  0.0541  0.1849
   89MOL0     C12211   4.789   8.576   8.352 -0.2787 -0.4977 -0.1819
   89MOL0     C12212   4.816   8.683   8.249  0.2810 -0.4537  0.2394
   89MOL0     H12213   4.236   8.656   8.474  0.3254 -2.1187  0.0381
   89MOL0     H12214   4.008   8.704   8.399 -0.1606  0.1301  0.0565
   89MOL0     H12215   3.891   8.847   8.247  1.5366 -2.1805  1.7462
   89MOL0     H12216   3.750   8.791   8.176  1.0035 -1.8230 -0.4900
   89MOL0     H12217   3.879   8.781   7.957  0.8734 -0.5311  0.0730
   89MOL0     H12218   3.821   8.940   8.020  2.9436  2.1301 -1.3068
   89MOL0     H12219   4.104   8.819   8.002  0.6917 -0.4490  2.5242
   89MOL0     H12220   4.023   8.953   7.912  1.2540 -0.0343  0.1249
   89MOL0     H12221   4.033   9.092   8.109 -0.2134 -0.3824 -2.8135
   89MOL0     H12222   4.085   8.951   8.202 -0.0408  1.8840  0.7997
   89MOL0     H12223   4.257   9.137   8.083  3.1875 -0.6778 -0.1053
   89MOL0     H12224   4.238   9.017   7.950 -1.6170 -3.6196  0.4080
   89MOL0     H12225   4.325   8.938   8.220  1.2511 -0.6685 -0.1185
   89MOL0     H12226   4.344   8.845   8.069 -0.3218 -0.3619  1.6496
   89MOL0     H12227   4.464   9.104   8.184 -1.2877  1.3015 -2.3317
   89MOL0     H12228   4.484   9.076   8.016 -0.0765  0.7705  0.0948
   89MOL0     H12229   4.587   8.909   8.253 -3.7069 -1.5446 -0.4101
   89MOL0     H12230   4.618   8.847   8.094 -0.3966 -0.3583  0.7999
   89MOL0     H12231   4.641   9.220   8.085 -1.0665 -0.4140  1.6130
   89MOL0     H12232   5.006   9.337   8.104 -0.1483  2.4913  1.4147
   89MOL0     H12233   4.834   9.395   8.084  1.0085  0.7188 -0.4414
   89MOL0     H12234   4.968   9.238   7.847  0.4988  0.8378 -0.7161
   89MOL0     H12235   4.818   9.329   7.867  0.6553 -1.2865 -3.2045
   89MOL0     H12236   4.942   9.519   7.796  0.4721 -0.5263  0.5351
   89MOL0     H12237   5.009   9.518   7.940  2.1742 -1.0120  0.0639
   89MOL0     H12238   5.183   9.318   7.844 -4.2145 -1.6838  2.8637
   89MOL0     H12239   5.131   9.400   7.694  2.4304  3.8166 -0.4046
   89MOL0     H12240   5.341   9.741   7.824  0.9612  1.3229 -1.4483
   89MOL0     H12241   5.646   9.819   7.793  1.3245  1.2651 -1.4415
   89MOL0     H12242   5.477   9.874   7.790  0.6634  1.3401 -0.4890
   89MOL0     H12243   5.573   9.889   7.642  2.5232  1.8079  0.7413
   89MOL0     H12244   5.782   9.938   7.309  1.5762  2.4977  0.9255
   89MOL0     H12245   6.006  10.008   7.237  1.5167 -0.6212 -1.0175
   89MOL0     H12246   6.370   9.771   7.402  4.6965 -1.9899 -1.2370
   89MOL0     H12247   6.305   9.694   7.258  3.2175 -1.0081  1.9337
   89MOL0     H12248   6.515   9.769   7.194 -0.4217  0.2498  0.7443
   89MOL0     H12249   6.398   9.864   7.106 -0.6449  2.0875 -0.4607
   89MOL0     H12250   6.519   9.971   7.383  0.4455 -1.4331 -0.7141
   89MOL0     H12251   6.414  10.052   7.276 -0.2739 -0.6575  0.9816
   89MOL0     H12252   6.569  10.089   7.103 -3.2739 -2.2110  0.8101
   89MOL0     H12253   6.664   9.955   7.148  1.0062 -0.3610  0.6887
   89MOL0     H12254   6.744  10.073   7.352  1.9535 -4.1328 -2.6750
   89MOL0     H12255   6.801  10.159   7.209 -0.7963 -0.9692 -2.3902
   89MOL0     H12256   6.711  10.324   7.372  0.3577  1.4396 -1.7944
   89MOL0     H12257   6.568  10.224   7.410  0.2596  0.8542  0.8684
   89MOL0     H12258   6.494  10.297   7.168 -1.4856  0.3631  0.8033
   89MOL0     H12259   6.637  10.395   7.163  0.9925 -1.2670  0.2524
   89MOL0     H12260   6.533  10.533   7.370 -2.5389 -1.1902  4.2953
   89MOL0     H12261   6.414  10.420   7.388  1.9845 -0.2276  0.8374
   89MOL0     H12262   6.170   9.685   7.462 -0.1889  0.7174  1.1945
   89MOL0     H12263   5.954   9.636   7.562  1.3450 -0.7157 -1.3911
   89MOL0     H12264   5.539   9.403   7.527  0.1522 -0.8863  2.7066
   89MOL0     H12265   5.326   9.359   7.630 -0.1241 -0.5373 -0.0695
   89MOL0     H12266   4.090   8.499   8.027  1.0982  2.6435 -0.7375
   89MOL0     H12267   4.327   8.469   8.096 -0.2203  2.5390 -1.9141
   89MOL0     H12268   4.550   8.394   8.509 -0.1047  1.1347  1.4902
   89MOL0     H12269   4.739   8.291   8.611 -0.7214 -0.8573 -0.8992
   89MOL0     H12270   5.135   8.506   8.511 -1.2145 -1.6528 -0.5401
   89MOL0     H12271   5.103   8.563   8.675 -1.4374 -0.8734  3.1498
   89MOL0     H12272   5.325   8.474   8.610 -0.0777 -0.6097 -0.9275
   89MOL0     H12273   5.257   8.313   8.608 -0.9319  0.4003 -1.7080
   89MOL0     H12274   5.263   8.494   8.857 -0.8380 -1.0750  1.1489
   89MOL0     H12275   5.172   8.359   8.846  0.2789  1.8771  4.4488
   89MOL0     H12276   5.388   8.217   8.799  0.6839  0.4674 -0.6004
   89MOL0     H12277   5.398   8.308   8.953  0.8976  1.6394 -0.0233
   89MOL0     H12278   5.684   8.519   8.729  0.2569 -0.1364 -0.3312
   89MOL0     H12279   4.988   8.567   8.380  0.0671 -0.7091 -2.2702
   89MOL0     H12280   4.786   8.649   8.150  2.5758 -1.0194 -0.3193
   89MOL0     H12281   4.748   8.759   8.288  0.7595  0.3199 -0.4237
   89MOL0     H12282   4.921   8.709   8.265  0.6093  0.2666 -2.6109
   90MOL0     O12283   9.736  11.101   4.538  0.0814 -0.4137  0.1719
   90MOL0     C12284   9.716  11.153   4.426 -0.7770  0.2099 -1.3738
   90MOL0     O12285   9.816  11.171   4.334 -0.0492 -0.5609 -0.2624
   90MOL0     C12286   9.946  11.130   4.362  0.9366 -0.1828 -0.3116
   90MOL0     C12287   9.973  10.992   4.371  0.8579  0.0933 -0.7939
   90MOL0     C12288  10.100  10.948   4.377  0.0470 -0.3460  1.1723
   90MOL0     C12289  10.202  11.045   4.373  0.6679  0.4361  1.2553
   90MOL0     O12290  10.331  11.003   4.368  0.2720 -0.0157  0.3670
   90MOL0     C12291  10.381  10.955   4.496 -0.2460 -0.3262  0.8024
   90MOL0     C12292  10.517  10.887   4.468  0.3188 -0.3424  0.9967
   90MOL0     C12293  10.613  10.969   4.372  0.3310 -1.1344 -0.6764
   90MOL0     C12294  10.639  11.114   4.423  0.0318 -0.0812 -0.2194
   90MOL0     C12295  10.745  11.189   4.350 -0.6433  0.1027 -0.7790
   90MOL0     C12296  10.865  11.111   4.301  0.3878  0.7758  0.2054
   90MOL0     C12297  10.973  11.199   4.261  0.5707 -0.3579  0.5213
   90MOL0     C12298  11.109  11.125   4.253 -0.3041  0.1090  0.6151
   90MOL0     N12299  11.188  11.221   4.177 -0.6469 -0.5727 -0.8387
   90MOL0     C12300  11.285  11.184   4.084  0.1361  0.1621  0.1432
   90MOL0     C12301  11.326  11.301   4.031 -0.8868 -0.1384  0.5680
   90MOL0     C12302  11.430  11.299   3.924 -0.6311 -0.0927  0.2581
   90MOL0     C12303  11.562  11.357   3.974 -0.0482  0.2705 -1.0554
   90MOL0     C12304  11.676  11.351   3.870 -0.0395  0.7999  0.5302
   90MOL0     C12305  11.723  11.209   3.842 -0.8444  0.6656  0.0360
   90MOL0     O12306  11.859  11.206   3.805 -0.3556  0.0676  0.1471
   90MOL0     C12307  11.911  11.217   3.677  0.2023  0.6176 -0.2957
   90MOL0     C12308  11.980  11.112   3.605 -0.0395 -0.3331  0.6574
   90MOL0     C12309  12.035  11.147   3.482  0.4328 -0.4194  0.2230
   90MOL0     C12310  12.095  11.032   3.398 -0.2318 -0.0381 -1.0591
   90MOL0     C12311  12.042  11.277   3.436  0.4143 -1.0110 -0.1243
   90MOL0     C12312  12.104  11.313   3.312  0.0216  0.4431  0.4727
   90MOL0     O12313  12.181  11.420   3.315  0.0317  0.1756 -0.2982
   90MOL0     C12314  12.247  11.459   3.202 -0.2015 -0.2924  0.5929
   90MOL0     C12315  12.209  11.565   3.121  0.4223  0.0248 -0.1271
   90MOL0     C12316  12.272  11.610   3.007  0.2910 -0.0789 -0.2992
   90MOL0     C12317  12.383  11.540   2.971 -1.2586 -0.1377  0.0837
   90MOL0     O12318  12.444  11.593   2.857 -0.0553 -0.2014 -0.2355
   90MOL0     C12319  12.568  11.552   2.798  0.5481  0.0900  0.7706
   90MOL0     C12320  12.690  11.618   2.856 -1.2234  0.1870  0.2615
   90MOL0     C12321  12.817  11.593   2.777  1.5868  0.6318 -0.4234
   90MOL0     C12322  12.820  11.646   2.639 -0.2202  0.3308  0.1303
   90MOL0     C12323  12.926  11.582   2.547 -0.8452  0.1890  0.1760
   90MOL0     C12324  13.079  11.589   2.595  0.2327 -0.5569 -0.2241
   90MOL0     C12325  13.172  11.545   2.487  0.4006  0.1520 -0.1788
   90MOL0     C12326  13.313  11.580   2.524 -0.6872  0.5225  0.6331
   90MOL0    Cl12327  13.429  11.514   2.409 -0.6444 -0.5442 -0.6981
   90MOL0     C12328  12.438  11.437   3.049 -1.1926 -0.1255 -0.1917
   90MOL0     C12329  12.366  11.388   3.157 -0.9615 -0.4151 -0.2008
   90MOL0     O12330  12.057  11.265   3.211 -0.4903 -0.3741  0.1779
   90MOL0     C12331  11.984  11.382   3.514 -0.2593  0.2152 -0.1063
   90MOL0     C12332  11.922  11.347   3.632  0.8701 -0.1519 -0.0103
   90MOL0     N12333  11.271  11.405   4.102  0.4495 -0.0541 -0.2557
   90MOL0     N12334  11.197  11.354   4.196 -0.4028  0.0281 -0.7607
   90MOL0     C12335  10.176  11.179   4.364  0.1651  0.2190 -0.3471
   90MOL0     C12336  10.048  11.223   4.370  0.4355 -0.2704  0.2144
   90MOL0     C12337   9.588  11.215   4.384 -0.4949 -0.2763  0.0061
   90MOL0     C12338   9.568  11.255   4.253  0.3341  0.5501 -0.7696
   90MOL0     C12339   9.440  11.274   4.201  0.2114 -1.2375 -1.3656
   90MOL0     C12340   9.327  11.293   4.284  0.3411  0.3106  0.1425
   90MOL0     O12341   9.195  11.326   4.250 -0.1377  0.4420 -0.6177
   90MOL0     C12342   9.149  11.314   4.114  0.4054  0.2213  0.5145
   90MOL0     C12343   9.144  11.465   4.074 -0.0563  1.4582 -0.7254
   90MOL0     C12344   9.003  11.536   4.096  0.3522 -0.8237 -0.1754
   90MOL0     C12345   8.896  11.504   3.984  0.5065 -0.0947 -0.3469
   90MOL0     C12346   8.765  11.553   4.037  0.2245 -0.3216 -0.3154
   90MOL0     C12347   8.655  11.576   4.092 -0.2384 -0.5309  0.3966
   90MOL0     C12348   9.343  11.262   4.420  0.1682  1.0414  0.4523
   90MOL0     C12349   9.473  11.227   4.474  0.9355  0.1795  0.2347
   90MOL0     C12350   9.479  11.207   4.624  0.2332  0.7339 -0.0310
   90MOL0     H12351   9.890  10.923   4.367 -1.6889  2.6390  2.0320
   90MOL0     H12352  10.124  10.842   4.382  1.6346 -0.0296  0.8389
   90MOL0     H12353  10.310  10.890   4.548 -2.2620  1.2620  0.1871
   90MOL0     H12354  10.386  11.042   4.562 -2.3033 -2.4536  4.1372
   90MOL0     H12355  10.558  10.883   4.569  2.0591 -1.2862  0.2962
   90MOL0     H12356  10.489  10.791   4.424 -1.8089  0.6731 -0.0157
   90MOL0     H12357  10.705  10.912   4.356  1.1080  0.3478 -1.7583
   90MOL0     H12358  10.571  10.972   4.271  0.2605 -1.3909 -0.6567
   90MOL0     H12359  10.539  11.160   4.422  0.2092  0.4035 -3.2976
   90MOL0     H12360  10.669  11.108   4.528  3.5792 -0.9532 -1.1514
   90MOL0     H12361  10.779  11.255   4.431 -0.1124 -0.1020 -0.8310
   90MOL0     H12362  10.716  11.263   4.275 -1.1512 -2.7737 -3.6293
   90MOL0     H12363  10.906  11.044   4.378  1.1855 -2.3093 -2.6519
   90MOL0     H12364  10.828  11.044   4.223 -0.3149 -1.4554  2.3108
   90MOL0     H12365  10.987  11.279   4.334  0.2423  3.1007 -2.8721
   90MOL0     H12366  10.940  11.234   4.162  0.6359  1.2137  1.0245
   90MOL0     H12367  11.153  11.114   4.352 -1.5952  0.5202  1.2600
   90MOL0     H12368  11.113  11.036   4.190 -1.3859 -0.7116  1.6548
   90MOL0     H12369  11.319  11.085   4.057  1.2009  0.0875  1.5968
   90MOL0     H12370  11.404  11.358   3.836  0.9651  1.7753  0.9570
   90MOL0     H12371  11.443  11.194   3.897 -4.5141 -0.8872  0.7838
   90MOL0     H12372  11.544  11.463   3.993 -1.9610 -0.2690  0.3722
   90MOL0     H12373  11.597  11.303   4.063  0.7386 -3.1691 -3.2451
   90MOL0     H12374  11.645  11.396   3.775 -1.2984  0.9952  1.0148
   90MOL0     H12375  11.758  11.410   3.912 -1.1820  1.6465  1.6223
   90MOL0     H12376  11.706  11.142   3.927  0.7016  0.1824 -0.0071
   90MOL0     H12377  11.661  11.167   3.763 -0.7646 -0.4074  0.5230
   90MOL0     H12378  11.996  11.014   3.649 -1.7806 -0.1693  1.7430
   90MOL0     H12379  12.181  11.063   3.338  0.8720 -1.7596 -0.4405
   90MOL0     H12380  12.016  10.997   3.331 -1.4695  1.8504 -0.6803
   90MOL0     H12381  12.136  10.955   3.464 -0.4152  2.5757  2.4524
   90MOL0     H12382  12.120  11.625   3.139  0.2614 -0.4854  0.8590
   90MOL0     H12383  12.227  11.681   2.938  0.7225  1.0618  0.5449
   90MOL0     H12384  12.568  11.442   2.792 -2.0439  0.0249  0.5101
   90MOL0     H12385  12.569  11.581   2.693  0.3741 -0.0742  0.7220
   90MOL0     H12386  12.675  11.726   2.853 -0.6132  0.3582  2.0866
   90MOL0     H12387  12.708  11.593   2.961  0.8105  1.9160  0.3723
   90MOL0     H12388  12.835  11.487   2.759 -1.9802  0.1801 -2.2115
   90MOL0     H12389  12.897  11.638   2.837 -1.3155  0.8614  3.6755
   90MOL0     H12390  12.840  11.752   2.656 -0.7102  0.4150  0.1780
   90MOL0     H12391  12.730  11.636   2.578  0.7632 -0.0201 -1.3206
   90MOL0     H12392  12.887  11.481   2.530  2.0765 -1.1735  0.8492
   90MOL0     H12393  12.922  11.630   2.449 -0.7289 -1.5199 -0.7028
   90MOL0     H12394  13.098  11.523   2.680  0.7677 -1.6657 -1.1800
   90MOL0     H12395  13.109  11.693   2.614 -0.7127 -0.1347 -0.9388
   90MOL0     H12396  13.152  11.601   2.395  0.5401 -1.7852 -1.4533
   90MOL0     H12397  13.162  11.437   2.473 -2.1999  0.2015  0.7653
   90MOL0     H12398  13.329  11.529   2.620 -2.1363 -0.4382  0.4037
   90MOL0     H12399  13.327  11.688   2.528  0.0787  0.4069  2.3818
   90MOL0     H12400  12.530  11.390   3.016 -1.2254 -0.9537  0.8308
   90MOL0     H12401  12.422  11.320   3.222 -0.0835 -2.2255 -2.6892
   90MOL0     H12402  11.968  11.482   3.475 -1.1571  0.4674  0.8589
   90MOL0     H12403  11.875  11.431   3.682  0.3689  0.3835 -1.3198
   90MOL0     H12404  10.258  11.248   4.350 -0.2043  0.5524 -0.9138
   90MOL0     H12405  10.035  11.329   4.354 -0.0686 -0.5373 -1.2686
   90MOL0     H12406   9.654  11.268   4.188 -0.2678  1.2548 -1.4425
   90MOL0     H12407   9.426  11.296   4.095 -0.0349  1.8241 -0.7873
   90MOL0     H12408   9.212  11.254   4.048  1.4644 -0.0641  1.7291
   90MOL0     H12409   9.044  11.288   4.103  0.8715 -1.6556  0.1783
   90MOL0     H12410   9.169  11.457   3.968  2.0153 -1.7710 -0.1081
   90MOL0     H12411   9.223  11.526   4.118  0.4232 -0.0292  0.5621
   90MOL0     H12412   8.960  11.502   4.191 -1.1474  0.4970 -0.3315
   90MOL0     H12413   9.002  11.644   4.110 -0.2468 -0.7732 -0.5514
   90MOL0     H12414   8.892  11.396   3.967 -1.3842  0.0253 -0.9466
   90MOL0     H12415   8.927  11.556   3.893 -2.6547  0.4361 -1.2331
   90MOL0     H12416   8.561  11.600   4.137 -0.4222  2.3202 -1.2276
   90MOL0     H12417   9.265  11.285   4.492 -0.0708  3.3705 -0.4554
   90MOL0     H12418   9.378  11.235   4.655 -0.6640 -1.4726 -0.6966
   90MOL0     H12419   9.489  11.100   4.647 -0.7859  0.4400 -0.8699
   90MOL0     H12420   9.555  11.270   4.669 -1.5139  1.6024  1.8839
   91MOL0     O12421   8.117   6.717   2.652  0.3969  0.5395 -0.1561
   91MOL0     C12422   8.110   6.841   2.651 -0.5491  0.3724  0.2371
   91MOL0     O12423   7.997   6.907   2.623 -0.8034 -0.7872  0.1901
   91MOL0     C12424   7.879   6.865   2.574 -0.5205  0.6467  0.7612
   91MOL0     C12425   7.772   6.957   2.573  0.2643  0.6272  0.3540
   91MOL0     C12426   7.646   6.919   2.524 -0.2740  0.3381 -1.0659
   91MOL0     C12427   7.631   6.799   2.447  0.0854 -0.0178  1.1464
   91MOL0     O12428   7.511   6.751   2.396  0.7800 -0.1675  0.0771
   91MOL0     C12429   7.389   6.821   2.441  0.4585  0.0517 -0.0790
   91MOL0     C12430   7.276   6.753   2.368  0.4058  0.4719 -0.4153
   91MOL0     C12431   7.150   6.835   2.389  0.0539 -0.5839  0.5823
   91MOL0     C12432   7.033   6.727   2.383 -0.2923 -0.5428  0.7188
   91MOL0     C12433   6.909   6.798   2.422  0.0838 -0.0286  0.5217
   91MOL0     C12434   6.804   6.691   2.461  0.2816 -1.3636 -0.5818
   91MOL0     C12435   6.808   6.654   2.610  0.1347 -0.3145  0.5920
   91MOL0     C12436   6.697   6.553   2.651 -0.5758 -0.8773 -0.1301
   91MOL0     N12437   6.557   6.611   2.657 -0.9020 -0.5882  0.9538
   91MOL0     C12438   6.474   6.607   2.767 -1.0159  0.8617  0.3271
   91MOL0     C12439   6.360   6.673   2.728  1.3474  0.7515  0.2706
   91MOL0     C12440   6.241   6.709   2.803 -0.1689 -0.8263  0.0863
   91MOL0     C12441   6.133   6.588   2.794 -0.0038  0.1086 -0.5714
   91MOL0     C12442   6.057   6.569   2.662  0.9228 -0.3826 -0.0753
   91MOL0     C12443   5.989   6.432   2.639  0.0276  0.2911  0.8963
   91MOL0     O12444   5.931   6.366   2.752  0.3223 -0.2243  0.3762
   91MOL0     C12445   5.812   6.416   2.803  0.1473  0.2499 -0.1315
   91MOL0     C12446   5.697   6.415   2.729  0.0926  0.0848 -0.1542
   91MOL0     C12447   5.571   6.460   2.780 -1.0744  0.5483  0.0700
   91MOL0     C12448   5.453   6.447   2.677  0.1257  0.0055  0.1728
   91MOL0     C12449   5.566   6.507   2.911  0.2450  0.2935  0.4607
   91MOL0     C12450   5.445   6.568   2.980 -1.1682  0.0162  0.5130
   91MOL0     O12451   5.471   6.654   3.081  0.4803 -0.7159  0.2813
   91MOL0     C12452   5.373   6.721   3.137 -0.4337 -0.1740 -0.2362
   91MOL0     C12453   5.301   6.817   3.068  0.4103  0.3791  0.0815
   91MOL0     C12454   5.211   6.908   3.125 -0.5747  0.0957 -0.1058
   91MOL0     C12455   5.184   6.882   3.261 -0.4384  0.1147  0.8152
   91MOL0     O12456   5.084   6.955   3.329  0.1123 -0.3012 -0.5049
   91MOL0     C12457   5.120   7.089   3.360  0.6517 -1.0679  0.1949
   91MOL0     C12458   4.992   7.159   3.306  0.3508 -0.2537 -1.1315
   91MOL0     C12459   4.873   7.102   3.389 -0.1897  0.6986 -1.0054
   91MOL0     C12460   4.751   7.192   3.394 -0.2811  0.3281 -0.9462
   91MOL0     C12461   4.658   7.155   3.276  0.0894  0.4000  1.0862
   91MOL0     C12462   4.544   7.056   3.313 -0.2274 -0.0530 -1.1602
   91MOL0     C12463   4.453   7.021   3.194  0.6583 -0.8299 -0.3895
   91MOL0     C12464   4.332   6.940   3.241  0.5451  0.2354 -0.2125
   91MOL0    Cl12465   4.315   6.804   3.136 -0.4182  0.6887  0.6031
   91MOL0     C12466   5.254   6.784   3.328  0.2969 -0.5724  0.6939
   91MOL0     C12467   5.355   6.706   3.271 -0.2643 -0.0492  0.5636
   91MOL0     O12468   5.342   6.541   2.927  0.1266  0.2233  0.2837
   91MOL0     C12469   5.678   6.498   2.989 -0.6296  0.3695  0.6265
   91MOL0     C12470   5.799   6.458   2.935  0.1075  0.5260 -0.3084
   91MOL0     N12471   6.372   6.714   2.595 -0.9907  0.4282 -1.4286
   91MOL0     N12472   6.485   6.678   2.559 -0.5564  0.2578  1.0626
   91MOL0     C12473   7.746   6.723   2.416  0.3568 -0.3371 -0.2903
   91MOL0     C12474   7.868   6.750   2.488  0.9191 -0.6332  0.1296
   91MOL0     C12475   8.236   6.909   2.684  0.8604  0.9711 -0.1863
   91MOL0     C12476   8.359   6.837   2.674  0.6468 -0.5850  0.4987
   91MOL0     C12477   8.482   6.882   2.728  0.5123 -0.4798 -0.1373
   91MOL0     C12478   8.484   7.005   2.787  0.2594  0.4584 -0.6793
   91MOL0     O12479   8.597   7.034   2.845  0.5150  0.4711 -0.5572
   91MOL0     C12480   8.601   7.148   2.924 -1.0329 -0.6482 -1.1939
   91MOL0     C12481   8.719   7.139   3.025 -0.2713 -0.5936 -1.3506
   91MOL0     C12482   8.724   7.004   3.099 -0.2090  0.7016  0.0714
   91MOL0     C12483   8.828   7.000   3.212  1.0343 -0.0377  0.4683
   91MOL0     C12484   8.968   6.980   3.180 -0.4831  0.2915  0.1649
   91MOL0     C12485   9.086   6.952   3.174  0.6866  0.2846  0.6025
   91MOL0     C12486   8.369   7.087   2.775 -0.0124 -0.4959  0.7312
   91MOL0     C12487   8.247   7.044   2.722 -0.0705  0.5887 -0.6153
   91MOL0     C12488   8.129   7.143   2.723 -0.2104  0.5128  0.0413
   91MOL0     H12489   7.771   7.056   2.618 -0.1317  0.3106  1.0620
   91MOL0     H12490   7.561   6.983   2.542 -0.8804 -0.3935 -1.3086
   91MOL0     H12491   7.406   6.925   2.411 -0.7715  0.3694  0.2713
   91MOL0     H12492   7.386   6.816   2.551 -2.4327  0.4217 -0.0637
   91MOL0     H12493   7.288   6.740   2.261 -0.5149 -0.4294 -0.4198
   91MOL0     H12494   7.265   6.651   2.404  0.5242 -0.1612 -2.1125
   91MOL0     H12495   7.150   6.900   2.477 -0.4484  3.6618 -2.2179
   91MOL0     H12496   7.142   6.911   2.310 -2.1321 -1.3634 -0.0249
   91MOL0     H12497   7.037   6.676   2.287  0.0321  0.6968  0.0429
   91MOL0     H12498   7.048   6.654   2.463  1.6528 -0.7520  0.2054
   91MOL0     H12499   6.863   6.849   2.336 -1.8699  0.9572  2.0776
   91MOL0     H12500   6.926   6.868   2.504 -1.7277  3.1219 -1.5346
   91MOL0     H12501   6.709   6.743   2.446  1.5112  2.2260  2.3317
   91MOL0     H12502   6.807   6.609   2.389  0.1634  0.2490 -2.5183
   91MOL0     H12503   6.811   6.738   2.680  0.2844 -0.9524  1.3541
   91MOL0     H12504   6.907   6.608   2.616 -0.1455 -0.7353  2.2502
   91MOL0     H12505   6.692   6.479   2.570  0.3172 -0.4237 -0.6176
   91MOL0     H12506   6.718   6.507   2.747 -0.7573 -1.6087 -0.4297
   91MOL0     H12507   6.493   6.549   2.856 -2.5081  3.0328  2.1793
   91MOL0     H12508   6.191   6.797   2.760  1.2161 -0.6716 -1.2997
   91MOL0     H12509   6.265   6.730   2.907  0.7667 -1.4473  0.0059
   91MOL0     H12510   6.189   6.495   2.810 -2.2950 -0.9984  1.5056
   91MOL0     H12511   6.066   6.588   2.880  1.6881 -2.3170  0.8741
   91MOL0     H12512   5.982   6.648   2.666  1.2157 -0.1346  0.9676
   91MOL0     H12513   6.129   6.599   2.585  0.0668 -0.6714 -1.0131
   91MOL0     H12514   5.910   6.435   2.564 -0.8160  0.8934  1.7813
   91MOL0     H12515   6.069   6.367   2.603 -0.2998  1.4123 -2.1555
   91MOL0     H12516   5.688   6.365   2.632 -0.4508  0.6693 -0.4123
   91MOL0     H12517   5.447   6.540   2.619 -0.4433  0.1013  0.3891
   91MOL0     H12518   5.355   6.435   2.724 -0.9890  1.5514 -1.6040
   91MOL0     H12519   5.475   6.361   2.613  3.0426  1.1265 -0.4913
   91MOL0     H12520   5.318   6.831   2.962  1.4856  3.0302  0.5153
   91MOL0     H12521   5.170   6.976   3.052 -2.4873  0.0994  0.9159
   91MOL0     H12522   5.114   7.100   3.469 -3.4213  4.5168 -0.1539
   91MOL0     H12523   5.215   7.130   3.324  0.6269 -0.7499  0.4862
   91MOL0     H12524   5.002   7.266   3.325 -1.3428 -0.6813  2.9883
   91MOL0     H12525   4.980   7.133   3.200 -1.9378 -2.6450 -0.3753
   91MOL0     H12526   4.897   7.081   3.493  0.3926  0.3089 -1.2094
   91MOL0     H12527   4.845   7.002   3.353  3.2059 -0.6803 -0.1442
   91MOL0     H12528   4.779   7.297   3.393  1.2875  0.0174  1.6839
   91MOL0     H12529   4.704   7.174   3.491  4.5523 -0.3448  1.5479
   91MOL0     H12530   4.607   7.246   3.241 -1.3168 -0.6157  0.4338
   91MOL0     H12531   4.721   7.110   3.198 -1.7223 -1.5676  0.6826
   91MOL0     H12532   4.488   7.086   3.402  3.6937  0.2607  1.4321
   91MOL0     H12533   4.597   6.967   3.348 -3.6127 -1.5012  0.7073
   91MOL0     H12534   4.517   6.971   3.121 -0.4289 -1.1154 -1.1627
   91MOL0     H12535   4.421   7.117   3.151  0.1889 -1.3345 -1.1902
   91MOL0     H12536   4.241   7.001   3.242  0.4590  0.1181 -0.5763
   91MOL0     H12537   4.350   6.895   3.339  1.1704  0.1252 -0.3789
   91MOL0     H12538   5.225   6.754   3.428  0.7671  2.2127  1.7566
   91MOL0     H12539   5.396   6.618   3.320 -0.8212 -1.0800 -0.7327
   91MOL0     H12540   5.678   6.538   3.089 -1.0877 -1.3272  1.3410
   91MOL0     H12541   5.886   6.464   3.000 -0.1706 -1.2191  0.2775
   91MOL0     H12542   7.750   6.640   2.346  0.6229 -2.4300  2.0512
   91MOL0     H12543   7.932   6.663   2.478  0.0246 -2.1223  4.7648
   91MOL0     H12544   8.363   6.735   2.639 -0.3999  0.0264 -1.5084
   91MOL0     H12545   8.569   6.818   2.724 -0.2692 -1.5129 -2.3149
   91MOL0     H12546   8.613   7.229   2.853  2.0778 -0.6955 -0.8572
   91MOL0     H12547   8.511   7.158   2.986 -0.9159  1.7306 -1.3271
   91MOL0     H12548   8.718   7.226   3.091 -0.5423 -0.7748 -1.1127
   91MOL0     H12549   8.816   7.144   2.974  0.1130 -2.8693 -0.9613
   91MOL0     H12550   8.629   6.978   3.146 -2.3856 -0.2993 -4.3255
   91MOL0     H12551   8.746   6.938   3.015 -0.7126  2.7810 -1.8026
   91MOL0     H12552   8.796   6.933   3.292 -1.1047  1.5928  1.0670
   91MOL0     H12553   8.834   7.101   3.253  0.8528  0.5829 -0.9875
   91MOL0     H12554   9.190   6.929   3.185  0.8785  1.2756  1.0074
   91MOL0     H12555   8.382   7.190   2.806  0.8445 -1.0830  2.4703
   91MOL0     H12556   8.153   7.249   2.726  0.5098  0.3660 -0.4053
   91MOL0     H12557   8.072   7.137   2.630 -1.7901 -2.3607  1.0537
   91MOL0     H12558   8.052   7.107   2.793 -0.7387 -0.3556 -0.9607
   92MOL0     O12559   0.912   9.611   4.647  0.0046  0.5313  0.5140
   92MOL0     C12560   1.025   9.575   4.615 -0.1246  0.4072  0.5810
   92MOL0     O12561   1.058   9.512   4.494  0.0835  0.1185  0.9298
   92MOL0     C12562   0.960   9.451   4.423  1.7149 -0.0036  0.7350
   92MOL0     C12563   0.867   9.355   4.477  0.7670  0.5534  0.4991
   92MOL0     C12564   0.754   9.307   4.403 -0.0322 -0.3031 -0.3130
   92MOL0     C12565   0.739   9.351   4.268  0.7469 -0.0247 -0.3102
   92MOL0     O12566   0.650   9.276   4.187  0.6489 -0.2736  0.4005
   92MOL0     C12567   0.600   9.346   4.061  0.3190  0.2234 -1.0498
   92MOL0     C12568   0.489   9.263   3.989 -0.2325  0.2071  0.1732
   92MOL0     C12569   0.549   9.179   3.888 -0.2042  1.1234  0.3057
   92MOL0     C12570   0.452   9.067   3.852 -0.3803 -0.1806 -0.0928
   92MOL0     C12571   0.466   9.023   3.706  0.2726  1.0946  0.9583
   92MOL0     C12572   0.594   8.938   3.667  0.6532 -1.0413 -0.6944
   92MOL0     C12573   0.587   8.875   3.533  0.9674 -0.1495  0.3259
   92MOL0     C12574   0.455   8.782   3.516 -0.7502 -0.1400  0.6240
   92MOL0     N12575   0.473   8.708   3.392  0.2339  0.6752 -0.5053
   92MOL0     C12576   0.367   8.667   3.315  0.2547  0.1304  0.3971
   92MOL0     C12577   0.400   8.565   3.239 -0.4928  0.4911  0.2785
   92MOL0     C12578   0.324   8.496   3.119 -0.1022  0.6189 -0.7340
   92MOL0     C12579   0.266   8.609   3.018  1.1135  0.7786  0.5687
   92MOL0     C12580   0.384   8.687   2.946  0.5354  0.5605  0.0058
   92MOL0     C12581   0.451   8.795   3.032 -1.2196 -0.1648  0.0083
   92MOL0     O12582   0.342   8.882   3.073 -0.0346  0.4929 -1.0658
   92MOL0     C12583   0.365   8.994   3.144 -0.1339  0.3067 -0.4989
   92MOL0     C12584   0.255   9.072   3.172  0.3988 -0.2141  0.3992
   92MOL0     C12585   0.267   9.198   3.234 -0.5262  0.7193 -0.5893
   92MOL0     C12586   0.137   9.262   3.276  0.1945 -1.2308 -0.5658
   92MOL0     C12587   0.400   9.246   3.270  0.0885 -0.0765  0.8394
   92MOL0     C12588   0.425   9.346   3.378 -0.0822 -0.3953  0.1754
   92MOL0     O12589   0.525   9.321   3.464  0.2632 -0.0642  0.5258
   92MOL0     C12590   0.574   9.402   3.567  0.0505  0.2577 -0.3239
   92MOL0     C12591   0.497   9.498   3.637  0.4787  0.6925 -0.6170
   92MOL0     C12592   0.560   9.584   3.733 -0.4619  0.7393 -0.1038
   92MOL0     C12593   0.701   9.575   3.763  0.2255  0.6302  0.7563
   92MOL0     O12594   0.778   9.662   3.834  0.5839  1.1820 -0.5686
   92MOL0     C12595   0.715   9.779   3.882  0.0733  0.1788 -0.1906
   92MOL0     C12596   0.814   9.893   3.914 -0.6303  0.7582  0.1530
   92MOL0     C12597   0.885   9.851   4.048 -1.0588 -0.6779  0.8392
   92MOL0     C12598   0.992   9.954   4.096  0.3519  0.3422  0.5319
   92MOL0     C12599   1.034   9.930   4.235  0.4754  0.1266 -0.0256
   92MOL0     C12600   1.112  10.049   4.298 -0.1272 -0.0229 -0.0334
   92MOL0     C12601   1.186   9.997   4.415 -0.7135  0.0995 -0.0550
   92MOL0     C12602   1.247  10.103   4.499 -0.0379  0.3064  0.1823
   92MOL0    Cl12603   1.358  10.212   4.406 -0.0770 -0.0144  0.0610
   92MOL0     C12604   0.767   9.474   3.688  0.0644  0.1209  0.6859
   92MOL0     C12605   0.710   9.390   3.592  0.0600 -0.1234  0.0445
   92MOL0     O12606   0.359   9.452   3.372  0.0902  0.4041 -0.1954
   92MOL0     C12607   0.516   9.164   3.234 -0.3497  0.4668  0.2891
   92MOL0     C12608   0.494   9.041   3.172  0.4325  0.0800  0.2810
   92MOL0     N12609   0.535   8.544   3.263  0.0893 -0.9549  0.0045
   92MOL0     N12610   0.577   8.631   3.352  0.3240 -0.2316 -0.2957
   92MOL0     C12611   0.818   9.461   4.226 -0.5619  0.1551  0.3013
   92MOL0     C12612   0.932   9.502   4.293 -0.5434  0.1497  0.2672
   92MOL0     C12613   1.148   9.636   4.681  0.1867 -0.2043  0.7120
   92MOL0     C12614   1.260   9.674   4.593  0.0866 -0.8541 -0.3289
   92MOL0     C12615   1.373   9.745   4.647 -0.1641 -0.7217  0.3821
   92MOL0     C12616   1.377   9.772   4.785 -0.1801 -0.5836 -0.0542
   92MOL0     O12617   1.495   9.829   4.837  0.3575  0.9111  0.5241
   92MOL0     C12618   1.520   9.849   4.975 -0.6654  0.3062  0.1957
   92MOL0     C12619   1.655   9.930   4.980  0.1331  0.1578 -0.1735
   92MOL0     C12620   1.642  10.074   4.919  0.1258  0.8667 -0.2313
   92MOL0     C12621   1.770  10.142   4.923  0.0914  0.0675 -0.5979
   92MOL0     C12622   1.761  10.284   4.899 -0.3695  0.4647 -0.1814
   92MOL0     C12623   1.759  10.405   4.874  0.4637 -0.3262  0.0059
   92MOL0     C12624   1.272   9.730   4.871  0.3111 -0.3462  0.1424
   92MOL0     C12625   1.161   9.657   4.824 -0.0034 -0.2510  0.0274
   92MOL0     C12626   1.059   9.595   4.922 -0.9909  0.1803 -0.3741
   92MOL0     H12627   0.873   9.319   4.579 -0.5930  2.5620  1.3484
   92MOL0     H12628   0.689   9.229   4.443  0.0441 -1.0504 -1.5859
   92MOL0     H12629   0.685   9.371   3.996  1.1231 -1.7453 -0.8184
   92MOL0     H12630   0.552   9.435   4.102 -0.8348  0.0476 -1.9670
   92MOL0     H12631   0.434   9.201   4.060 -3.2436  0.2695 -1.9152
   92MOL0     H12632   0.407   9.321   3.946 -1.3145  0.6364  2.6301
   92MOL0     H12633   0.590   9.226   3.798  0.0016 -1.3421 -0.9558
   92MOL0     H12634   0.631   9.121   3.930 -1.1060 -2.2578 -2.1278
   92MOL0     H12635   0.467   8.985   3.923  0.3775 -1.6358 -1.8511
   92MOL0     H12636   0.348   9.093   3.872 -0.4718  0.8416 -1.6572
   92MOL0     H12637   0.457   9.105   3.634  1.3629 -0.9285 -1.6193
   92MOL0     H12638   0.378   8.963   3.685  1.6219 -0.4390 -0.6131
   92MOL0     H12639   0.686   8.996   3.680 -0.2527  0.2634  0.0630
   92MOL0     H12640   0.592   8.860   3.743 -1.5182  1.4566  2.0571
   92MOL0     H12641   0.678   8.820   3.504  1.3462  0.8043 -0.3235
   92MOL0     H12642   0.581   8.948   3.452 -0.5242 -1.3910 -0.7511
   92MOL0     H12643   0.442   8.714   3.602 -0.7067 -0.3062  0.4988
   92MOL0     H12644   0.368   8.845   3.496  1.5936  3.0159 -0.2637
   92MOL0     H12645   0.269   8.715   3.317  0.7778  1.2677 -0.1904
   92MOL0     H12646   0.238   8.450   3.168 -0.3467  1.5721 -0.2509
   92MOL0     H12647   0.380   8.416   3.070  0.0432 -0.3172  0.8926
   92MOL0     H12648   0.209   8.549   2.946 -1.4588  2.3495  1.1865
   92MOL0     H12649   0.192   8.673   3.067  1.4726  0.2916  1.7701
   92MOL0     H12650   0.468   8.625   2.915  2.0487  4.2975 -4.6891
   92MOL0     H12651   0.335   8.730   2.857  0.2117  0.7715  0.2844
   92MOL0     H12652   0.510   8.753   3.114  0.3466  3.2952  0.8571
   92MOL0     H12653   0.516   8.860   2.971 -0.9525  2.5214  2.9170
   92MOL0     H12654   0.153   9.041   3.153  0.2682  1.1077 -1.2779
   92MOL0     H12655   0.067   9.193   3.323  1.3035 -1.8021  0.2829
   92MOL0     H12656   0.095   9.290   3.178  0.5201 -1.8973 -0.9038
   92MOL0     H12657   0.150   9.350   3.339 -4.2412 -1.3904  0.9215
   92MOL0     H12658   0.392   9.502   3.610  0.0816  0.0631  0.7269
   92MOL0     H12659   0.496   9.661   3.775 -1.6056 -0.0926 -0.2702
   92MOL0     H12660   0.657   9.831   3.805 -1.0936 -1.1447 -0.2456
   92MOL0     H12661   0.653   9.768   3.971 -0.3011  1.6778 -0.2326
   92MOL0     H12662   0.891   9.904   3.836 -1.7880 -0.0353 -1.1526
   92MOL0     H12663   0.762   9.989   3.909  2.0959  2.2647 -2.1416
   92MOL0     H12664   0.941   9.757   4.047  0.3906  0.0996 -2.3818
   92MOL0     H12665   0.815   9.837   4.131 -1.6094  0.1978  0.5368
   92MOL0     H12666   0.952  10.056   4.096  2.3088  1.2564  3.8838
   92MOL0     H12667   1.083   9.945   4.036 -0.7601  0.8545 -1.2948
   92MOL0     H12668   0.935   9.920   4.281 -1.3226  1.2878 -3.3374
   92MOL0     H12669   1.096   9.840   4.242  0.7212  0.2481 -0.6128
   92MOL0     H12670   1.035  10.124   4.321 -2.6128 -2.2101 -0.6846
   92MOL0     H12671   1.179  10.094   4.224 -1.4407  1.7229 -0.2266
   92MOL0     H12672   1.262   9.928   4.380 -0.1027 -0.5612  2.3974
   92MOL0     H12673   1.118   9.941   4.481 -2.0749  3.0066  1.2343
   92MOL0     H12674   1.301  10.059   4.584  0.0348 -0.6623 -0.3508
   92MOL0     H12675   1.168  10.167   4.539 -2.0726 -1.5934 -0.5509
   92MOL0     H12676   0.873   9.469   3.708  0.0820  2.6073  1.4983
   92MOL0     H12677   0.765   9.319   3.530 -0.5895 -2.6742  2.2092
   92MOL0     H12678   0.620   9.193   3.249 -0.1684  1.1965 -1.9317
   92MOL0     H12679   0.582   8.981   3.154  1.3523  1.5994 -0.5312
   92MOL0     H12680   0.806   9.498   4.125  1.3694  1.2094  0.4131
   92MOL0     H12681   0.990   9.580   4.244 -0.2508 -1.1344 -1.5027
   92MOL0     H12682   1.250   9.687   4.486 -1.1413  1.5028 -0.0076
   92MOL0     H12683   1.447   9.781   4.576  1.3590  1.4504  2.8705
   92MOL0     H12684   1.444   9.913   5.021 -0.4513  0.2643  0.6223
   92MOL0     H12685   1.530   9.762   5.041  0.2927  0.4685  0.2917
   92MOL0     H12686   1.731   9.873   4.925  2.0393  1.2921  1.1956
   92MOL0     H12687   1.698   9.933   5.080 -0.1576 -0.5790 -0.0195
   92MOL0     H12688   1.614  10.074   4.814 -0.8080  2.7533 -0.0270
   92MOL0     H12689   1.566  10.132   4.973  0.2300  2.3474 -1.6313
   92MOL0     H12690   1.844  10.100   4.854  0.1449 -0.6552 -0.1037
   92MOL0     H12691   1.795  10.136   5.029 -2.2499  0.0777 -0.0059
   92MOL0     H12692   1.746  10.510   4.857 -2.1752 -0.8960 -2.1562
   92MOL0     H12693   1.293   9.735   4.977 -0.7465 -1.2197  0.4171
   92MOL0     H12694   1.070   9.487   4.913 -0.9646  0.1821 -0.3626
   92MOL0     H12695   1.093   9.619   5.023 -2.8208 -0.6402  0.4844
   92MOL0     H12696   0.957   9.628   4.903 -1.4467  1.1093  2.9732
   93MOL0     O12697   8.498   2.180   7.113 -0.6168 -0.1135  0.1351
   93MOL0     C12698   8.563   2.246   7.033  0.3115 -0.1395  0.0075
   93MOL0     O12699   8.692   2.279   7.039  0.8176 -0.4016 -0.2515
   93MOL0     C12700   8.752   2.259   7.159  0.0433 -0.1063  0.2372
   93MOL0     C12701   8.845   2.157   7.160 -0.1805  0.1351 -1.3059
   93MOL0     C12702   8.914   2.121   7.281  0.4369 -0.0807 -0.2534
   93MOL0     C12703   8.887   2.197   7.396 -0.1123 -1.0863  0.2282
   93MOL0     O12704   8.950   2.155   7.502 -0.1137 -0.2774  0.1787
   93MOL0     C12705   8.880   2.156   7.632 -0.3805  0.1580  1.5494
   93MOL0     C12706   8.921   2.027   7.703  0.4091  0.4309 -0.1838
   93MOL0     C12707   9.079   2.023   7.731 -0.0061  0.4002  0.3492
   93MOL0     C12708   9.111   1.894   7.806 -0.8110  0.2082 -0.2859
   93MOL0     C12709   9.254   1.886   7.876 -0.9422 -0.5340  0.0281
   93MOL0     C12710   9.353   1.942   7.777 -1.1277  0.7602  0.6478
   93MOL0     C12711   9.497   1.947   7.835 -0.7905 -0.3100 -0.4293
   93MOL0     C12712   9.617   1.937   7.745 -0.5354  0.7513  1.4165
   93MOL0     N12713   9.735   1.885   7.821  0.7474 -0.5407 -0.0067
   93MOL0     C12714   9.836   1.970   7.851 -0.1062  0.4037  0.7235
   93MOL0     C12715   9.916   1.905   7.937  0.9943  1.0470  0.7424
   93MOL0     C12716  10.032   1.960   8.021 -0.0706  0.4549  0.3099
   93MOL0     C12717  10.157   1.877   8.037 -0.3076 -0.6600  0.1718
   93MOL0     C12718  10.250   1.852   7.916 -0.3808 -1.0466  1.1205
   93MOL0     C12719  10.382   1.779   7.943  0.7289 -0.2193 -0.6819
   93MOL0     O12720  10.360   1.650   7.988 -0.1249  0.0340 -1.1754
   93MOL0     C12721  10.469   1.562   7.998 -0.9109 -0.2093  0.3257
   93MOL0     C12722  10.464   1.437   8.062  0.0195 -0.3963 -1.0722
   93MOL0     C12723  10.578   1.355   8.073  0.6811  0.4906  0.1879
   93MOL0     C12724  10.578   1.230   8.157 -0.4242 -0.9785 -0.2800
   93MOL0     C12725  10.701   1.393   8.009  0.0212  0.8831  0.0758
   93MOL0     C12726  10.830   1.305   7.992  1.0420  0.0224  0.3420
   93MOL0     O12727  10.937   1.369   7.933 -0.0582 -0.7568  0.8276
   93MOL0     C12728  11.043   1.298   7.878  0.3572 -0.4936 -0.4234
   93MOL0     C12729  11.178   1.333   7.914 -0.1503 -0.1414  0.1080
   93MOL0     C12730  11.287   1.262   7.872 -0.6113  0.5565  0.0732
   93MOL0     C12731  11.267   1.147   7.802  0.3853  0.6767  0.7728
   93MOL0     O12732  11.377   1.072   7.790  0.0973 -1.1618 -0.7179
   93MOL0     C12733  11.371   0.942   7.737 -0.7350  0.1260 -0.2775
   93MOL0     C12734  11.312   0.840   7.831  0.2586  0.0040 -0.7711
   93MOL0     C12735  11.372   0.837   7.973  1.0813 -0.5262  0.2387
   93MOL0     C12736  11.329   0.712   8.048  0.0335  0.1788  0.2455
   93MOL0     C12737  11.368   0.584   7.987 -0.0948  0.9124  0.7105
   93MOL0     C12738  11.513   0.549   7.929 -0.0877 -0.5546  0.2298
   93MOL0     C12739  11.534   0.397   7.915  0.6188 -0.3637 -0.4946
   93MOL0     C12740  11.558   0.349   8.067 -0.6304 -0.6625  0.4206
   93MOL0    Cl12741  11.642   0.195   8.045  0.6195 -0.1765 -0.3164
   93MOL0     C12742  11.135   1.112   7.754 -0.8552 -0.0612  0.6075
   93MOL0     C12743  11.022   1.194   7.790 -0.0720  0.4995 -0.3657
   93MOL0     O12744  10.835   1.188   8.030  0.0917  0.0881 -0.2959
   93MOL0     C12745  10.708   1.516   7.951 -0.3584  0.2211 -0.1774
   93MOL0     C12746  10.599   1.602   7.947 -0.4724 -0.6849  0.4264
   93MOL0     N12747   9.873   1.767   7.932  0.1167 -0.6512  0.7688
   93MOL0     N12748   9.757   1.767   7.866 -0.1404  0.1559 -0.3478
   93MOL0     C12749   8.804   2.312   7.391  0.0560 -0.4599 -1.2599
   93MOL0     C12750   8.727   2.332   7.274  0.3569  0.8960  0.3140
   93MOL0     C12751   8.502   2.274   6.899  0.0664  0.7130 -0.3386
   93MOL0     C12752   8.567   2.371   6.825 -0.2984 -0.8473 -0.3541
   93MOL0     C12753   8.524   2.407   6.701 -0.0331  0.2182  0.2907
   93MOL0     C12754   8.409   2.347   6.648  0.3215  0.8800 -0.8357
   93MOL0     O12755   8.363   2.389   6.526 -0.8719 -0.0432  0.0808
   93MOL0     C12756   8.232   2.355   6.482 -0.2304  1.3581 -0.7676
   93MOL0     C12757   8.194   2.448   6.375 -0.3666 -0.8747 -0.7986
   93MOL0     C12758   8.060   2.419   6.308  0.4565 -0.5128  0.1896
   93MOL0     C12759   8.056   2.483   6.172 -0.5929 -0.7264  0.6100
   93MOL0     C12760   8.039   2.629   6.194  1.0631  0.1481 -0.0214
   93MOL0     C12761   8.011   2.750   6.220  0.2793  0.0646  1.0965
   93MOL0     C12762   8.345   2.241   6.719  0.0548 -0.1620  0.6306
   93MOL0     C12763   8.394   2.201   6.842  0.2771 -0.1522  0.0310
   93MOL0     C12764   8.302   2.094   6.904  1.3474 -0.7201 -0.3939
   93MOL0     H12765   8.858   2.100   7.068 -2.5617 -3.1142  0.1881
   93MOL0     H12766   8.963   2.025   7.291 -2.1249 -1.9020 -3.2512
   93MOL0     H12767   8.772   2.159   7.616 -0.6337  1.0987  3.1855
   93MOL0     H12768   8.905   2.244   7.692 -2.4353  0.1272  2.5309
   93MOL0     H12769   8.878   2.014   7.802 -0.3215 -1.2178 -0.6798
   93MOL0     H12770   8.884   1.945   7.641 -0.8701 -0.5993  1.8399
   93MOL0     H12771   9.140   2.027   7.640  0.0691  4.5418  0.3688
   93MOL0     H12772   9.094   2.111   7.794 -2.9874 -1.1691  3.5671
   93MOL0     H12773   9.043   1.884   7.891  0.8451  2.2672  1.3946
   93MOL0     H12774   9.098   1.813   7.734  0.0917 -2.2978  2.1574
   93MOL0     H12775   9.279   1.789   7.920  0.3596  0.4652  1.6118
   93MOL0     H12776   9.245   1.959   7.957  1.0359  0.7185 -0.8199
   93MOL0     H12777   9.354   1.878   7.688 -0.8539 -2.2429  2.6552
   93MOL0     H12778   9.318   2.042   7.752 -2.3289  0.3827  0.7410
   93MOL0     H12779   9.507   1.869   7.912  0.6811  1.5085  1.3365
   93MOL0     H12780   9.512   2.031   7.903  0.8726 -1.7432  1.1031
   93MOL0     H12781   9.594   1.858   7.673 -1.3181  1.5660  0.7648
   93MOL0     H12782   9.637   2.025   7.684  4.2268 -2.1732 -1.8842
   93MOL0     H12783   9.844   2.076   7.826  1.7223 -0.4239 -2.8867
   93MOL0     H12784   9.991   1.994   8.117  0.7838 -1.0419  1.2470
   93MOL0     H12785  10.069   2.050   7.971  0.7057  1.2921  2.2790
   93MOL0     H12786  10.231   1.932   8.097  2.0259 -0.3572 -2.7366
   93MOL0     H12787  10.137   1.785   8.093 -4.1169  0.9720  1.8682
   93MOL0     H12788  10.181   1.811   7.842  1.1099 -1.0642 -0.3206
   93MOL0     H12789  10.273   1.951   7.876 -0.9020 -1.6965 -0.9195
   93MOL0     H12790  10.419   1.781   7.840 -5.0874 -0.7240 -3.2096
   93MOL0     H12791  10.449   1.833   8.010 -0.7761 -1.0615  1.6243
   93MOL0     H12792  10.369   1.407   8.106  1.3377 -1.8127  0.9725
   93MOL0     H12793  10.477   1.198   8.184 -0.2231 -1.3662  0.0273
   93MOL0     H12794  10.624   1.261   8.251 -3.4369  0.0234  0.9565
   93MOL0     H12795  10.622   1.141   8.110  0.5641 -0.5650 -0.1696
   93MOL0     H12796  11.202   1.427   7.962  1.1326 -0.6606  0.5227
   93MOL0     H12797  11.387   1.281   7.909 -0.4914 -1.1421  0.7445
   93MOL0     H12798  11.320   0.924   7.642  0.2655  0.8176 -0.9657
   93MOL0     H12799  11.474   0.907   7.724 -0.1409  2.3728 -2.1341
   93MOL0     H12800  11.204   0.853   7.841 -0.2076 -3.6539  0.5449
   93MOL0     H12801  11.336   0.745   7.783 -0.5163 -1.0556  0.8636
   93MOL0     H12802  11.318   0.922   8.015  0.3604  0.2154 -2.0209
   93MOL0     H12803  11.479   0.851   7.986  1.0072 -0.3516  0.6852
   93MOL0     H12804  11.221   0.723   8.063  0.0118  2.6301 -1.1271
   93MOL0     H12805  11.375   0.711   8.147 -0.3470 -2.1495  0.4531
   93MOL0     H12806  11.349   0.519   8.072  2.4106  0.5028  1.0408
   93MOL0     H12807  11.300   0.561   7.904 -1.6408 -4.5356  3.0458
   93MOL0     H12808  11.582   0.595   8.001 -0.8494 -0.2991  0.8153
   93MOL0     H12809  11.523   0.585   7.826  3.9521 -1.4517  0.1227
   93MOL0     H12810  11.622   0.375   7.855 -1.1687 -2.6314 -2.5097
   93MOL0     H12811  11.450   0.347   7.866  0.4904 -0.9026  0.2613
   93MOL0     H12812  11.468   0.338   8.127  0.8709  2.3028  3.6232
   93MOL0     H12813  11.624   0.424   8.113 -0.3584 -0.4388 -0.3238
   93MOL0     H12814  11.119   1.023   7.693  0.0034 -1.3312  2.1473
   93MOL0     H12815  10.924   1.164   7.753 -0.2225  0.1509  0.2960
   93MOL0     H12816  10.805   1.552   7.917 -0.2804  0.9453  0.7763
   93MOL0     H12817  10.624   1.698   7.904  0.9498 -0.6276  1.2866
   93MOL0     H12818   8.790   2.378   7.476  0.0857  0.9148 -2.2859
   93MOL0     H12819   8.647   2.406   7.273  1.1273  1.7400 -0.3625
   93MOL0     H12820   8.648   2.424   6.876 -2.3441  1.2934  0.8445
   93MOL0     H12821   8.566   2.491   6.646  0.4226 -2.5957 -4.2353
   93MOL0     H12822   8.228   2.250   6.452 -0.8226 -0.2046  3.8448
   93MOL0     H12823   8.156   2.365   6.561  0.7913 -2.0791  0.8531
   93MOL0     H12824   8.278   2.456   6.306  1.9187  3.2031  2.0035
   93MOL0     H12825   8.184   2.549   6.417  1.3873 -0.7308 -0.6369
   93MOL0     H12826   8.045   2.313   6.285  0.3233  0.0746 -2.9189
   93MOL0     H12827   7.973   2.450   6.366 -0.2353 -3.5273  0.9122
   93MOL0     H12828   7.967   2.449   6.119 -0.4831 -2.6075  1.5436
   93MOL0     H12829   8.147   2.459   6.115 -0.4588 -0.9493  0.9144
   93MOL0     H12830   7.991   2.854   6.231  2.7467  0.6798  0.2897
   93MOL0     H12831   8.259   2.188   6.680  0.9360 -0.1609 -1.4510
   93MOL0     H12832   8.276   2.022   6.827  0.0409 -0.8181  0.1243
   93MOL0     H12833   8.349   2.034   6.982  0.8554 -2.0846 -1.1248
   93MOL0     H12834   8.214   2.144   6.946  3.9388  5.1641 -0.9074
   94MOL0     O12835   7.401  11.039   7.053 -0.3222  0.0840  0.4116
   94MOL0     C12836   7.339  10.945   7.003 -0.2549  0.9227  0.4010
   94MOL0     O12837   7.204  10.932   6.996  0.0373 -1.1298  0.1820
   94MOL0     C12838   7.130  11.024   7.068 -0.2968  0.0068  0.9993
   94MOL0     C12839   7.091  10.984   7.203  0.6667 -0.4934  0.0988
   94MOL0     C12840   7.025  11.090   7.276  0.0866  0.5267 -0.5278
   94MOL0     C12841   7.010  11.217   7.227 -0.1774  0.6182  0.2087
   94MOL0     O12842   6.948  11.323   7.295  0.4115  0.0132 -0.4565
   94MOL0     C12843   6.922  11.323   7.447 -0.3785 -0.4272 -0.8421
   94MOL0     C12844   7.042  11.374   7.525  0.1886  0.4173 -0.4123
   94MOL0     C12845   6.997  11.420   7.669 -0.0886 -0.1786  0.3613
   94MOL0     C12846   7.094  11.503   7.757  0.2271  0.4218  0.2210
   94MOL0     C12847   7.019  11.555   7.875 -0.0216  0.0779  0.2150
   94MOL0     C12848   7.111  11.593   7.998  0.0685 -0.6537 -0.0044
   94MOL0     C12849   7.207  11.721   7.978  1.1874  0.2785  0.5850
   94MOL0     C12850   7.129  11.851   7.962 -0.3668  0.2953  0.8116
   94MOL0     N12851   7.201  11.973   8.000  0.0569 -0.3981  0.6287
   94MOL0     C12852   7.309  12.008   7.919 -1.1286 -0.1202  0.4332
   94MOL0     C12853   7.367  12.105   7.980 -0.4128  0.4754 -0.4002
   94MOL0     C12854   7.489  12.180   7.937  0.5070  0.5703 -0.2800
   94MOL0     C12855   7.460  12.293   7.835 -0.0242 -0.5199 -0.3248
   94MOL0     C12856   7.563  12.338   7.736 -0.4799  0.3047 -0.1466
   94MOL0     C12857   7.691  12.408   7.778 -0.1707  0.0249  0.6166
   94MOL0     O12858   7.766  12.450   7.667 -0.6237  0.4404  1.7711
   94MOL0     C12859   7.884  12.504   7.689 -0.5248  0.4049  0.4296
   94MOL0     C12860   7.965  12.488   7.796 -0.0016  0.9238  0.1560
   94MOL0     C12861   8.101  12.527   7.804 -0.5591  0.1062 -0.8103
   94MOL0     C12862   8.172  12.508   7.939 -0.3322  1.4571 -0.1870
   94MOL0     C12863   8.176  12.573   7.687  0.4197  0.2984  0.4145
   94MOL0     C12864   8.321  12.581   7.667  1.1269 -1.1495 -0.3703
   94MOL0     O12865   8.366  12.649   7.557  0.1188 -0.2023  0.6006
   94MOL0     C12866   8.499  12.623   7.527  0.6990 -0.4115  1.6364
   94MOL0     C12867   8.598  12.686   7.598 -0.9997 -0.6118  0.3014
   94MOL0     C12868   8.731  12.664   7.564  0.2605 -0.2726  0.1995
   94MOL0     C12869   8.773  12.579   7.461  0.2530  0.2307 -0.3144
   94MOL0     O12870   8.902  12.560   7.430 -0.1462  0.1383 -0.0353
   94MOL0     C12871   9.003  12.661   7.462 -0.5109 -0.3832 -0.5375
   94MOL0     C12872   9.113  12.635   7.357 -0.9852  0.5147  0.4112
   94MOL0     C12873   9.202  12.520   7.408 -0.8302  0.2153  0.7968
   94MOL0     C12874   9.317  12.580   7.490  0.1406  0.1401  0.4329
   94MOL0     C12875   9.438  12.490   7.513  0.2520 -0.5594  0.4522
   94MOL0     C12876   9.409  12.352   7.592  0.0164 -0.7231 -0.1435
   94MOL0     C12877   9.323  12.374   7.719 -0.1909  0.4769  0.1053
   94MOL0     C12878   9.319  12.251   7.801  0.1937 -1.4472 -0.6258
   94MOL0    Cl12879   9.242  12.120   7.699 -0.1852  0.2390 -0.2076
   94MOL0     C12880   8.671  12.498   7.399 -0.4662 -0.1528  0.2019
   94MOL0     C12881   8.536  12.525   7.431  0.1674  0.1128 -1.1715
   94MOL0     O12882   8.386  12.529   7.747 -0.5026  0.5655 -0.2398
   94MOL0     C12883   8.088  12.587   7.573  0.1016 -0.0981  0.2006
   94MOL0     C12884   7.949  12.556   7.580 -0.9127  0.1888  0.3885
   94MOL0     N12885   7.293  12.129   8.098  0.5452 -0.1471 -0.4449
   94MOL0     N12886   7.205  12.043   8.111  0.2787 -0.7386  0.0166
   94MOL0     C12887   7.048  11.249   7.092  0.4809 -0.8006 -0.5493
   94MOL0     C12888   7.100  11.148   7.015 -0.5057 -0.4861  0.4819
   94MOL0     C12889   7.413  10.834   6.924 -0.1398 -0.9176 -0.0608
   94MOL0     C12890   7.331  10.744   6.851  0.0414  0.3707  0.4557
   94MOL0     C12891   7.383  10.649   6.764  0.1834  0.2969  0.4110
   94MOL0     C12892   7.521  10.645   6.739 -0.2978  0.4410 -0.1527
   94MOL0     O12893   7.584  10.562   6.651  0.2693 -0.2127  0.2465
   94MOL0     C12894   7.510  10.450   6.598 -0.1631  0.0425  0.3522
   94MOL0     C12895   7.471  10.489   6.454 -0.2927 -1.0236 -0.4981
   94MOL0     C12896   7.398  10.376   6.388  0.8650 -0.5185 -0.2845
   94MOL0     C12897   7.374  10.380   6.240 -0.1311 -0.3403 -0.1939
   94MOL0     C12898   7.338  10.515   6.184 -1.0178  0.0107  0.6806
   94MOL0     C12899   7.327  10.628   6.135  0.4851  0.1615 -0.0741
   94MOL0     C12900   7.609  10.731   6.817  0.7683 -0.2011  0.1992
   94MOL0     C12901   7.555  10.821   6.911  0.1849 -0.0149  0.2574
   94MOL0     C12902   7.656  10.901   6.984  0.0567 -0.0536 -0.3173
   94MOL0     H12903   7.117  10.884   7.235 -1.9388 -1.2017  0.2363
   94MOL0     H12904   6.983  11.048   7.367  2.4309  1.1331  0.9186
   94MOL0     H12905   6.881  11.229   7.483  0.4200  0.1442  1.7780
   94MOL0     H12906   6.845  11.399   7.465  0.4929 -0.3857  3.6428
   94MOL0     H12907   7.128  11.306   7.523 -0.2122 -0.1273  0.4303
   94MOL0     H12908   7.078  11.460   7.469  0.5539  0.6951  0.2493
   94MOL0     H12909   6.906  11.481   7.667 -0.5595 -0.8912 -0.7309
   94MOL0     H12910   6.962  11.330   7.720  1.7671 -1.5247 -0.6694
   94MOL0     H12911   7.172  11.434   7.791 -0.8351 -1.8813 -1.7426
   94MOL0     H12912   7.150  11.579   7.701 -0.3408  0.1974 -0.6632
   94MOL0     H12913   6.950  11.479   7.912  1.5149 -1.4396  0.0828
   94MOL0     H12914   6.966  11.648   7.852 -0.5093 -0.0979  0.6162
   94MOL0     H12915   7.043  11.618   8.079  0.1473 -1.3959  0.3045
   94MOL0     H12916   7.175  11.507   8.021  0.7366 -0.4602 -1.0745
   94MOL0     H12917   7.280  11.711   7.897  1.2796 -1.4088  0.8468
   94MOL0     H12918   7.267  11.730   8.069  0.5000 -1.3975  1.2404
   94MOL0     H12919   7.098  11.867   7.858  2.3250  5.9095  0.5034
   94MOL0     H12920   7.034  11.837   8.015 -0.4666 -1.0063  0.3439
   94MOL0     H12921   7.346  11.967   7.825  1.1112 -0.0950  1.2276
   94MOL0     H12922   7.551  12.107   7.884  0.1726  0.0762 -0.0036
   94MOL0     H12923   7.540  12.216   8.026 -2.1142  0.7401  1.2535
   94MOL0     H12924   7.374  12.253   7.779 -0.0914 -0.8495  0.0135
   94MOL0     H12925   7.421  12.383   7.883 -1.5714 -1.0891 -0.4633
   94MOL0     H12926   7.576  12.249   7.674 -4.2290  0.3368 -1.1944
   94MOL0     H12927   7.502  12.415   7.689 -0.6999  1.7181  2.2531
   94MOL0     H12928   7.672  12.502   7.831  2.4822  0.6792  0.5383
   94MOL0     H12929   7.741  12.332   7.838 -1.7527  1.0516  3.4344
   94MOL0     H12930   7.908  12.458   7.884 -0.5406  4.2397  1.0872
   94MOL0     H12931   8.220  12.411   7.924 -1.0627  1.0708 -0.0742
   94MOL0     H12932   8.100  12.507   8.021 -0.2624  1.0059 -0.1252
   94MOL0     H12933   8.252  12.582   7.954  0.0904  1.0574 -0.4208
   94MOL0     H12934   8.559  12.754   7.674 -3.4444 -0.0015 -1.3630
   94MOL0     H12935   8.796  12.720   7.631 -1.0947  0.8940  0.5902
   94MOL0     H12936   8.959  12.758   7.437 -0.2556 -0.1350 -0.0316
   94MOL0     H12937   9.040  12.670   7.565 -1.5076  0.5602 -0.2472
   94MOL0     H12938   9.088  12.615   7.253 -0.0138  1.3385 -0.0010
   94MOL0     H12939   9.177  12.722   7.339 -0.2082  0.0974  1.0375
   94MOL0     H12940   9.251  12.465   7.327 -2.1215 -1.0622  0.8384
   94MOL0     H12941   9.142  12.445   7.461 -2.1000  2.1868  2.3049
   94MOL0     H12942   9.268  12.606   7.585  0.2679 -0.7870  0.7677
   94MOL0     H12943   9.353  12.675   7.451 -1.9195  1.6423  1.9859
   94MOL0     H12944   9.488  12.466   7.419  0.7278  3.6426 -0.5632
   94MOL0     H12945   9.508  12.548   7.573  1.9723 -0.5854 -1.4323
   94MOL0     H12946   9.501  12.302   7.622 -0.9861 -1.9497  1.0141
   94MOL0     H12947   9.341  12.284   7.541 -2.2052  1.7389 -0.6808
   94MOL0     H12948   9.216  12.396   7.704 -1.1894 -2.3184  2.1903
   94MOL0     H12949   9.379  12.447   7.778  2.6375  0.9198 -2.8536
   94MOL0     H12950   9.266  12.264   7.896 -2.9490 -3.2971 -1.9762
   94MOL0     H12951   9.423  12.236   7.831  0.8839 -0.3695 -2.3329
   94MOL0     H12952   8.696  12.435   7.314 -0.3985  0.2658 -0.0977
   94MOL0     H12953   8.461  12.460   7.385  0.7001 -2.1336  0.9146
   94MOL0     H12954   8.130  12.629   7.482 -1.1062  0.2545 -0.2068
   94MOL0     H12955   7.897  12.572   7.486  0.5532  1.1276 -0.2968
   94MOL0     H12956   7.031  11.340   7.036 -1.4452 -1.8736 -1.8052
   94MOL0     H12957   7.138  11.182   6.919 -0.2231  1.6137  1.2770
   94MOL0     H12958   7.225  10.745   6.874  0.1098 -2.0878  1.2216
   94MOL0     H12959   7.308  10.583   6.722 -1.1813 -1.0615  4.4892
   94MOL0     H12960   7.589  10.376   6.585  2.4586  3.0910 -3.1227
   94MOL0     H12961   7.415  10.421   6.643 -1.4879  1.7228 -1.1936
   94MOL0     H12962   7.571  10.507   6.413  0.2395  1.6820  1.6905
   94MOL0     H12963   7.416  10.584   6.452 -1.2955 -1.5244  1.3520
   94MOL0     H12964   7.444  10.279   6.411  3.8740  0.8357 -0.2097
   94MOL0     H12965   7.300  10.379   6.438  1.3410 -1.2649  0.7337
   94MOL0     H12966   7.308  10.297   6.211  1.5762 -0.5296 -4.1347
   94MOL0     H12967   7.465  10.350   6.187 -0.8002 -1.5231 -0.7120
   94MOL0     H12968   7.321  10.716   6.075  0.4948  0.8296  0.8714
   94MOL0     H12969   7.717  10.728   6.803  0.9013  1.8298  0.4437
   94MOL0     H12970   7.643  11.008   6.968 -2.1366  0.0290  1.5731
   94MOL0     H12971   7.646  10.875   7.090 -1.3995  2.3306  0.2132
   94MOL0     H12972   7.753  10.866   6.947  0.2209 -0.5257  0.5390
   95MOL0     O12973   7.494   1.532   3.765 -0.1301 -0.6418  0.0384
   95MOL0     C12974   7.502   1.460   3.667  0.2657 -0.3239 -0.0585
   95MOL0     O12975   7.466   1.495   3.539  0.5929  0.2318 -0.3673
   95MOL0     C12976   7.451   1.632   3.520 -0.1009 -0.9366 -0.7078
   95MOL0     C12977   7.543   1.733   3.565 -0.3983  0.4938 -0.3836
   95MOL0     C12978   7.515   1.859   3.523 -0.8753 -0.9523 -0.0941
   95MOL0     C12979   7.417   1.896   3.442  0.6766 -0.2865  0.2135
   95MOL0     O12980   7.413   2.025   3.420 -0.1695  0.4385  0.8112
   95MOL0     C12981   7.322   2.068   3.311 -0.0499 -0.2946 -0.4571
   95MOL0     C12982   7.374   2.206   3.264 -0.2103  0.1177 -0.8312
   95MOL0     C12983   7.312   2.263   3.131 -0.8182  0.8249 -0.2633
   95MOL0     C12984   7.188   2.353   3.159  0.3404 -0.1567 -0.7877
   95MOL0     C12985   7.086   2.354   3.037  0.1284 -0.0396  0.3654
   95MOL0     C12986   7.163   2.392   2.913  0.5751 -0.0408 -0.0430
   95MOL0     C12987   7.077   2.382   2.786  0.1568  0.5614 -0.2629
   95MOL0     C12988   7.146   2.418   2.659  0.7016  0.2228 -0.1454
   95MOL0     N12989   7.055   2.412   2.540 -0.0640 -0.2663  0.4945
   95MOL0     C12990   7.047   2.303   2.455 -0.4043 -0.8118  0.1212
   95MOL0     C12991   6.959   2.338   2.360 -0.7897 -0.4140 -0.8170
   95MOL0     C12992   6.906   2.242   2.253  0.0142 -0.7354 -1.0240
   95MOL0     C12993   6.997   2.227   2.134 -0.9637  0.3084 -0.5678
   95MOL0     C12994   7.100   2.117   2.160 -0.6899 -0.0922 -0.9068
   95MOL0     C12995   7.238   2.152   2.093 -0.2284  0.8763 -0.1712
   95MOL0     O12996   7.276   2.287   2.127 -0.2406 -1.1482  0.1224
   95MOL0     C12997   7.341   2.304   2.246  1.3628  0.0095  0.1069
   95MOL0     C12998   7.361   2.439   2.289 -0.0702  0.0117  0.6588
   95MOL0     C12999   7.430   2.478   2.408  0.6040  0.2471  0.0382
   95MOL0     C13000   7.436   2.629   2.438 -0.0168  0.9185  0.1295
   95MOL0     C13001   7.480   2.374   2.487  0.0659 -0.4713  0.0734
   95MOL0     C13002   7.529   2.390   2.622  0.2456 -0.0333  0.3267
   95MOL0     O13003   7.632   2.321   2.660 -0.2939  0.6559 -0.0248
   95MOL0     C13004   7.660   2.292   2.791 -0.0652  0.5284 -0.3756
   95MOL0     C13005   7.700   2.403   2.866  0.7756  0.5130  0.0823
   95MOL0     C13006   7.728   2.383   3.003  0.4576  0.1980  0.5978
   95MOL0     C13007   7.728   2.258   3.065  0.6127  0.5092  0.5426
   95MOL0     O13008   7.744   2.246   3.199  0.1017 -0.4637 -0.5423
   95MOL0     C13009   7.808   2.127   3.244  0.3321  0.7918 -0.0882
   95MOL0     C13010   7.819   2.131   3.396  0.2505 -0.1606 -0.0921
   95MOL0     C13011   7.867   1.991   3.448  0.8853  0.3598  0.2785
   95MOL0     C13012   7.896   2.014   3.594 -0.1790  0.1156 -0.3142
   95MOL0     C13013   7.972   1.895   3.645  0.1440  0.0572 -0.0403
   95MOL0     C13014   7.909   1.827   3.770  0.0536  0.1143  0.4285
   95MOL0     C13015   7.992   1.723   3.840  0.0952 -0.6084  0.1170
   95MOL0     C13016   7.902   1.676   3.955 -0.9148  0.5487  0.2996
   95MOL0    Cl13017   7.998   1.575   4.061  0.0725 -0.3603  0.2817
   95MOL0     C13018   7.671   2.158   2.987  0.0236 -0.0352  0.5763
   95MOL0     C13019   7.645   2.166   2.851 -0.6342  0.5536 -0.2026
   95MOL0     O13020   7.473   2.472   2.691  0.8186  0.1373  0.3940
   95MOL0     C13021   7.468   2.239   2.439  0.1456  0.4703  0.3062
   95MOL0     C13022   7.402   2.212   2.321  0.6572  0.5307 -0.0257
   95MOL0     N13023   6.927   2.471   2.372  0.1743  0.1589  1.1642
   95MOL0     N13024   6.980   2.511   2.484  1.3285  0.2771  0.8019
   95MOL0     C13025   7.323   1.798   3.410 -0.2197  0.5889  0.0419
   95MOL0     C13026   7.344   1.665   3.446  0.8399  0.1507  0.0161
   95MOL0     C13027   7.536   1.311   3.689  0.0349 -0.7157  0.2242
   95MOL0     C13028   7.548   1.228   3.578 -0.7675  0.6151 -0.0254
   95MOL0     C13029   7.541   1.088   3.583  0.2484 -0.2553 -0.2891
   95MOL0     C13030   7.546   1.030   3.706  0.0078  0.0115  0.8987
   95MOL0     O13031   7.545   0.893   3.705 -1.2233  0.4529  0.0587
   95MOL0     C13032   7.678   0.831   3.673  0.3017 -0.5692  0.7624
   95MOL0     C13033   7.692   0.709   3.754  0.4215  0.0774 -0.1756
   95MOL0     C13034   7.676   0.726   3.909  0.0009  0.1937 -0.1938
   95MOL0     C13035   7.694   0.597   3.984  0.1870 -0.7308 -0.9837
   95MOL0     C13036   7.726   0.617   4.126 -0.0252  0.2163  0.7167
   95MOL0     C13037   7.769   0.622   4.241  0.5684 -0.2706 -0.9798
   95MOL0     C13038   7.566   1.107   3.822 -0.2495  0.1359  0.1112
   95MOL0     C13039   7.556   1.247   3.811 -0.5693  0.8839 -0.0206
   95MOL0     C13040   7.560   1.312   3.945 -0.4457  0.0867  0.0160
   95MOL0     H13041   7.632   1.712   3.623 -1.2802 -1.9300  0.2483
   95MOL0     H13042   7.594   1.932   3.538  0.7039 -2.6007  0.0301
   95MOL0     H13043   7.222   2.076   3.355  0.3555 -0.5900  0.5541
   95MOL0     H13044   7.313   1.990   3.234  0.5331 -2.3898  1.4699
   95MOL0     H13045   7.366   2.292   3.333  0.9148 -1.4082  1.3252
   95MOL0     H13046   7.483   2.196   3.257 -0.2557  0.0770 -1.5269
   95MOL0     H13047   7.397   2.318   3.092 -0.3416  0.8145  0.7276
   95MOL0     H13048   7.289   2.188   3.055 -1.9803  0.4320  0.4313
   95MOL0     H13049   7.130   2.307   3.240 -0.9554 -0.2676 -1.7494
   95MOL0     H13050   7.224   2.453   3.184  1.9024 -0.0889 -3.0465
   95MOL0     H13051   7.016   2.431   3.071  2.5535  1.3234  2.6116
   95MOL0     H13052   7.043   2.255   3.018 -1.4190  0.7124 -0.2797
   95MOL0     H13053   7.197   2.494   2.927  0.7988 -0.5465  4.1522
   95MOL0     H13054   7.248   2.326   2.891 -1.0228 -2.5784  0.8899
   95MOL0     H13055   6.991   2.449   2.780 -1.4395 -1.4893 -1.9629
   95MOL0     H13056   7.044   2.279   2.767  2.1036  0.4272 -3.6947
   95MOL0     H13057   7.169   2.524   2.672 -0.5251  0.6859 -1.5141
   95MOL0     H13058   7.233   2.353   2.649 -0.6660 -1.5575 -1.1944
   95MOL0     H13059   7.090   2.206   2.478 -1.6677 -1.1743  1.1091
   95MOL0     H13060   6.806   2.279   2.230 -0.1041 -0.4696 -0.1332
   95MOL0     H13061   6.877   2.144   2.293 -0.9170 -0.3886 -0.8147
   95MOL0     H13062   6.941   2.193   2.046  0.4635 -3.0760 -0.3256
   95MOL0     H13063   7.040   2.321   2.098  4.5638 -1.2812  0.9074
   95MOL0     H13064   7.120   2.112   2.268  1.8487  1.0925 -1.2601
   95MOL0     H13065   7.069   2.017   2.128  1.0928 -1.2956  0.8707
   95MOL0     H13066   7.301   2.069   2.129 -1.5172 -0.5523 -1.0834
   95MOL0     H13067   7.234   2.150   1.984 -0.4868 -0.2029 -0.1515
   95MOL0     H13068   7.314   2.521   2.236 -1.1408  1.3922  3.5053
   95MOL0     H13069   7.519   2.651   2.506 -0.1676 -1.8571  1.3176
   95MOL0     H13070   7.344   2.656   2.491  0.4065 -1.6037  2.3261
   95MOL0     H13071   7.452   2.707   2.363  1.9554  1.4038  0.9940
   95MOL0     H13072   7.684   2.495   2.811 -0.1746 -0.6681 -1.7165
   95MOL0     H13073   7.748   2.463   3.074 -0.9438 -0.0683  1.3171
   95MOL0     H13074   7.744   2.040   3.223 -1.0365  1.9011 -0.6889
   95MOL0     H13075   7.901   2.118   3.187  0.9196 -0.2257  0.9837
   95MOL0     H13076   7.886   2.209   3.432  0.2476  0.3145 -1.0662
   95MOL0     H13077   7.719   2.145   3.439  1.2165  0.2568  2.1424
   95MOL0     H13078   7.946   1.960   3.380 -2.4273 -0.2136 -3.7195
   95MOL0     H13079   7.790   1.913   3.448 -0.5358  1.6969  1.1158
   95MOL0     H13080   7.805   2.037   3.651  0.5910  1.6151  0.3775
   95MOL0     H13081   7.976   2.089   3.591 -0.5177  0.4479 -1.6834
   95MOL0     H13082   8.008   1.821   3.573  1.0713  0.0228  0.4419
   95MOL0     H13083   8.068   1.926   3.690  0.1577 -0.8050  0.5496
   95MOL0     H13084   7.812   1.787   3.741 -1.8474  3.3732  1.7423
   95MOL0     H13085   7.893   1.903   3.847  0.0686 -3.0878  3.8175
   95MOL0     H13086   8.077   1.771   3.890 -0.9986  0.1865  1.2843
   95MOL0     H13087   8.026   1.640   3.779  2.0148 -0.0063  0.2947
   95MOL0     H13088   7.828   1.617   3.900  0.9449 -0.9028 -0.7773
   95MOL0     H13089   7.855   1.760   4.007 -1.1814  0.2355  0.5707
   95MOL0     H13090   7.642   2.064   3.035  1.8222 -1.8416 -1.6600
   95MOL0     H13091   7.609   2.086   2.788  1.6946  0.2998 -1.3185
   95MOL0     H13092   7.494   2.155   2.503  2.7458  0.9088 -0.0488
   95MOL0     H13093   7.408   2.105   2.303  1.5489  0.8130 -1.6223
   95MOL0     H13094   7.238   1.836   3.355  0.4343  3.2972  0.7198
   95MOL0     H13095   7.275   1.589   3.410  0.2227  1.0131 -0.6795
   95MOL0     H13096   7.546   1.261   3.475  1.4908  4.0862  0.8662
   95MOL0     H13097   7.547   1.026   3.494 -1.5988 -2.5463  1.0840
   95MOL0     H13098   7.664   0.791   3.572  1.0454  2.9589 -0.8893
   95MOL0     H13099   7.768   0.892   3.683  1.3527 -1.8165 -0.5189
   95MOL0     H13100   7.790   0.664   3.734  1.0111  1.6297 -0.9138
   95MOL0     H13101   7.614   0.645   3.712  1.3083  0.3142 -2.3413
   95MOL0     H13102   7.756   0.792   3.945 -0.1915  0.6905 -0.6534
   95MOL0     H13103   7.574   0.754   3.938  0.5098 -1.6171  4.1434
   95MOL0     H13104   7.781   0.547   3.942  1.6844 -0.8588  2.0278
   95MOL0     H13105   7.602   0.537   3.976 -0.9241  0.5900  0.9981
   95MOL0     H13106   7.792   0.622   4.346  2.8460 -2.9392 -1.3498
   95MOL0     H13107   7.572   1.051   3.915 -0.2256  1.0057  0.6394
   95MOL0     H13108   7.655   1.273   3.982 -1.5699 -0.5101  2.5165
   95MOL0     H13109   7.560   1.421   3.953  2.4178  0.2346 -1.0178
   95MOL0     H13110   7.471   1.288   4.004 -1.6129  3.5000 -0.1176
   96MOL0     O13111   7.277  10.175   8.895  0.4300  0.5357  0.9852
   96MOL0     C13112   7.235  10.180   8.777  0.2814 -0.0218  0.6619
   96MOL0     O13113   7.310  10.170   8.656  0.5673  0.2696 -0.2732
   96MOL0     C13114   7.436  10.126   8.678  0.1335 -0.0192  0.4446
   96MOL0     C13115   7.537  10.211   8.628 -0.2340 -0.4131  0.4994
   96MOL0     C13116   7.667  10.171   8.646 -0.4859  0.7040 -0.4604
   96MOL0     C13117   7.691  10.063   8.730  0.6379  0.7970  0.3336
   96MOL0     O13118   7.819  10.039   8.769  0.1289 -0.0794 -0.5221
   96MOL0     C13119   7.870  10.123   8.872  0.6665 -0.5247  0.5355
   96MOL0     C13120   8.018  10.104   8.916 -0.7244  1.1903 -1.1304
   96MOL0     C13121   8.132  10.095   8.814  1.2599  0.2666  0.1942
   96MOL0     C13122   8.112  10.188   8.704  0.2019 -0.3315  0.4162
   96MOL0     C13123   8.226  10.180   8.601 -0.0605  0.3292 -0.3519
   96MOL0     C13124   8.222  10.294   8.494  0.5449 -1.3035  0.7929
   96MOL0     C13125   8.322  10.415   8.506  0.5559  0.2284  0.9418
   96MOL0     C13126   8.269  10.552   8.460  1.0224  0.2742  0.2526
   96MOL0     N13127   8.171  10.593   8.559 -0.0242 -0.0613 -0.5258
   96MOL0     C13128   8.195  10.672   8.670 -0.1036  0.2039 -0.2615
   96MOL0     C13129   8.082  10.656   8.747 -0.3033 -0.2908 -0.2720
   96MOL0     C13130   8.041  10.717   8.876 -1.5456  0.1521  0.0841
   96MOL0     C13131   7.966  10.619   8.963  0.0765  0.5874 -0.1079
   96MOL0     C13132   8.025  10.474   8.988  0.1080 -0.6325 -0.0909
   96MOL0     C13133   8.177  10.448   8.995 -0.0529 -0.7991  0.2176
   96MOL0     O13134   8.226  10.520   9.111  0.4065  0.6895  0.1150
   96MOL0     C13135   8.299  10.635   9.094  0.7014 -0.2624 -0.5126
   96MOL0     C13136   8.321  10.708   9.210  0.5635  0.0489 -1.1033
   96MOL0     C13137   8.388  10.830   9.218 -0.5910 -0.2251 -0.6497
   96MOL0     C13138   8.382  10.900   9.360  0.1684 -0.6231 -0.1050
   96MOL0     C13139   8.458  10.879   9.109 -0.3837  0.3194  0.1027
   96MOL0     C13140   8.537  11.014   9.108  0.6226  0.2091 -0.3244
   96MOL0     O13141   8.584  11.069   8.989 -0.0586 -0.3342 -0.3591
   96MOL0     C13142   8.635  11.197   9.005 -0.0459  0.6317  0.2236
   96MOL0     C13143   8.766  11.216   9.040  0.9354 -0.0940 -1.1409
   96MOL0     C13144   8.816  11.341   9.046  0.3159 -0.2392  0.0390
   96MOL0     C13145   8.738  11.454   9.026 -0.1580 -0.9731 -0.6411
   96MOL0     O13146   8.798  11.579   9.019  0.4442  0.3282 -0.1598
   96MOL0     C13147   8.717  11.701   9.013 -0.1162  0.2276  0.5109
   96MOL0     C13148   8.812  11.795   8.942 -0.9713  0.7522 -0.0336
   96MOL0     C13149   8.878  11.894   9.039 -0.6072 -0.1569 -0.2403
   96MOL0     C13150   8.956  12.004   8.963  0.2215  0.4123 -0.0334
   96MOL0     C13151   9.051  12.092   9.060 -0.1576  0.3301 -0.1041
   96MOL0     C13152   8.987  12.143   9.183 -0.1478 -0.1496  0.6937
   96MOL0     C13153   8.866  12.226   9.145  0.7133  0.1573  0.2633
   96MOL0     C13154   8.838  12.338   9.250  0.1401  0.6342 -0.4391
   96MOL0    Cl13155   8.831  12.241   9.404 -0.1808  0.2339  0.4091
   96MOL0     C13156   8.602  11.430   9.009  0.3629 -0.5805 -0.4261
   96MOL0     C13157   8.550  11.306   8.989 -0.2547  0.2855 -0.5441
   96MOL0     O13158   8.561  11.066   9.215  0.2483  0.1433 -0.0851
   96MOL0     C13159   8.443  10.807   8.988  0.9482 -0.8396 -0.4892
   96MOL0     C13160   8.368  10.690   8.981  0.8971  0.6995 -0.2857
   96MOL0     N13161   7.998  10.584   8.674 -0.2090  0.5615  0.5949
   96MOL0     N13162   8.047  10.548   8.559  0.5006 -0.4210 -0.0897
   96MOL0     C13163   7.592   9.981   8.778  0.1501 -0.2444 -0.0292
   96MOL0     C13164   7.466  10.001   8.729  0.5044 -0.5403 -0.8985
   96MOL0     C13165   7.088  10.209   8.763  0.1484 -0.6175  1.1202
   96MOL0     C13166   7.048  10.302   8.656  0.1491 -0.5112  0.2725
   96MOL0     C13167   6.916  10.338   8.637  0.7329 -0.1671 -0.0505
   96MOL0     C13168   6.813  10.276   8.711  0.2817  0.3136  0.2404
   96MOL0     O13169   6.682  10.293   8.678  0.8663  0.1553  0.5881
   96MOL0     C13170   6.626  10.417   8.629  0.1011 -0.8686  0.3482
   96MOL0     C13171   6.497  10.405   8.543 -0.3961 -0.3871  0.4015
   96MOL0     C13172   6.407  10.287   8.586 -1.0860 -0.7504  0.4634
   96MOL0     C13173   6.269  10.278   8.515 -0.8730  0.1089  0.2178
   96MOL0     C13174   6.210  10.151   8.553  0.2579 -0.3334 -0.2332
   96MOL0     C13175   6.172  10.044   8.597 -0.2560  0.7011 -0.2599
   96MOL0     C13176   6.853  10.181   8.806  0.4866 -0.2861 -0.1575
   96MOL0     C13177   6.979  10.155   8.844 -1.1497  0.2896 -0.6201
   96MOL0     C13178   7.011  10.052   8.956 -1.0894  0.6456 -0.5793
   96MOL0     H13179   7.507  10.299   8.572 -3.4563 -1.4079  0.4391
   96MOL0     H13180   7.752  10.232   8.617 -0.2568  0.9557  0.7207
   96MOL0     H13181   7.805  10.106   8.958 -0.4319  1.5678  0.1884
   96MOL0     H13182   7.874  10.215   8.812 -0.8087 -2.7025 -3.2489
   96MOL0     H13183   8.045  10.191   8.976 -0.2903 -0.1299  0.6962
   96MOL0     H13184   8.021  10.011   8.973 -3.3432  0.7244 -1.6082
   96MOL0     H13185   8.225  10.119   8.866  1.1041  1.9883 -0.2785
   96MOL0     H13186   8.147   9.997   8.767  0.3070  0.6116 -0.8762
   96MOL0     H13187   8.015  10.186   8.653  0.4917 -1.3542 -0.1168
   96MOL0     H13188   8.133  10.284   8.752  0.9836  0.2431 -1.0067
   96MOL0     H13189   8.223  10.088   8.541 -1.0841 -0.0472  0.2536
   96MOL0     H13190   8.320  10.203   8.652 -0.8741  2.5178  0.2422
   96MOL0     H13191   8.225  10.242   8.398  1.0026  1.1643 -0.6048
   96MOL0     H13192   8.125  10.345   8.493  2.1948  2.2566  2.4315
   96MOL0     H13193   8.409  10.389   8.444 -0.2066  1.5140 -0.7234
   96MOL0     H13194   8.358  10.415   8.609 -0.4656 -3.5091  1.4507
   96MOL0     H13195   8.343  10.633   8.452  1.4549  0.0880  1.9838
   96MOL0     H13196   8.220  10.542   8.363 -1.0477 -0.1675  1.3038
   96MOL0     H13197   8.277  10.738   8.696  0.5202 -0.8733  0.5746
   96MOL0     H13198   7.993  10.811   8.844  1.2444  0.4654 -3.8807
   96MOL0     H13199   8.129  10.741   8.935 -1.6629  0.0089  0.3145
   96MOL0     H13200   7.946  10.669   9.058 -3.1933 -0.8665  0.0819
   96MOL0     H13201   7.868  10.609   8.916 -1.0823  2.1393  1.7964
   96MOL0     H13202   7.973  10.444   9.079 -0.6261 -0.0869 -0.3169
   96MOL0     H13203   7.981  10.414   8.908 -1.5277  0.0928  0.2137
   96MOL0     H13204   8.187  10.343   9.026 -2.5770 -1.5729 -1.2700
   96MOL0     H13205   8.230  10.469   8.902  1.4158 -0.8832  0.9982
   96MOL0     H13206   8.272  10.676   9.301 -0.4834  2.3303 -0.7977
   96MOL0     H13207   8.488  10.897   9.389  0.9963 -1.2527 -2.8985
   96MOL0     H13208   8.315  10.847   9.429  0.2352 -2.3847 -1.3146
   96MOL0     H13209   8.361  11.007   9.357 -0.7980 -0.6458  2.8611
   96MOL0     H13210   8.831  11.130   9.052  2.0841  0.9427  0.4723
   96MOL0     H13211   8.924  11.346   9.044  0.5800 -2.9040 -3.6862
   96MOL0     H13212   8.629  11.695   8.947  1.2014  1.1868 -1.4284
   96MOL0     H13213   8.684  11.738   9.110 -3.0252 -0.2291 -0.2025
   96MOL0     H13214   8.886  11.733   8.891 -0.2188  2.3324 -0.9128
   96MOL0     H13215   8.748  11.837   8.864 -2.0743 -1.5832 -0.4745
   96MOL0     H13216   8.947  11.838   9.103  1.1023  1.3381 -0.7204
   96MOL0     H13217   8.803  11.935   9.108  1.5507 -0.1890  2.3101
   96MOL0     H13218   8.891  12.070   8.904  0.7726 -0.2365 -1.4164
   96MOL0     H13219   9.017  11.947   8.893  0.4636 -2.2392  2.1903
   96MOL0     H13220   9.134  12.037   9.105 -1.7656 -1.3120  0.9844
   96MOL0     H13221   9.105  12.171   9.006  2.4001 -1.5533 -0.5204
   96MOL0     H13222   9.070  12.205   9.217  1.8227 -1.1582 -1.9460
   96MOL0     H13223   8.962  12.065   9.256  1.0230 -0.6875  0.5543
   96MOL0     H13224   8.776  12.164   9.136  0.7273  0.0412  0.9231
   96MOL0     H13225   8.871  12.287   9.054 -2.3924 -0.2916 -0.3334
   96MOL0     H13226   8.745  12.392   9.229  0.5309  0.5511 -2.5793
   96MOL0     H13227   8.925  12.402   9.264  1.9453 -1.7075 -0.1827
   96MOL0     H13228   8.521  11.500   8.991 -0.7649 -1.2513  1.7049
   96MOL0     H13229   8.448  11.276   8.968 -0.2817 -1.4893  1.6941
   96MOL0     H13230   8.507  10.834   8.905 -0.1370  0.7266 -0.8545
   96MOL0     H13231   8.361  10.638   8.886 -2.9611 -3.7418  1.9998
   96MOL0     H13232   7.618   9.891   8.832 -1.4446  0.1233  1.4162
   96MOL0     H13233   7.379   9.945   8.762  0.1629  0.7797  0.5521
   96MOL0     H13234   7.132  10.343   8.600 -0.9680 -0.5710 -1.5413
   96MOL0     H13235   6.902  10.402   8.551  2.4098 -0.4495 -0.5729
   96MOL0     H13236   6.605  10.489   8.709 -2.7506  0.2493 -1.2460
   96MOL0     H13237   6.707  10.465   8.575 -0.6496 -2.4824 -2.4011
   96MOL0     H13238   6.538  10.387   8.442 -0.4084  0.6713  0.1992
   96MOL0     H13239   6.445  10.500   8.528 -2.2271 -1.8011 -4.0724
   96MOL0     H13240   6.455  10.189   8.573 -0.2450 -0.0651 -2.3504
   96MOL0     H13241   6.385  10.294   8.693 -0.0942  0.2714  0.6188
   96MOL0     H13242   6.285  10.290   8.408 -1.5856  0.9674  0.1934
   96MOL0     H13243   6.205  10.359   8.552 -0.7147  0.8321 -1.0517
   96MOL0     H13244   6.143   9.953   8.646 -2.3462  2.5896  2.3434
   96MOL0     H13245   6.769  10.129   8.850  1.0368  0.6656  2.1646
   96MOL0     H13246   7.117  10.037   8.980 -1.3039 -4.5739 -1.7290
   96MOL0     H13247   6.957  10.092   9.043 -1.4905 -2.3546  0.6658
   96MOL0     H13248   6.963   9.957   8.933 -0.8437  0.8491 -2.0193
   97MOL0     O13249   1.939  10.224   7.566  0.2013 -0.0354 -0.0499
   97MOL0     C13250   2.038  10.174   7.508  0.2416  0.0047 -0.3611
   97MOL0     O13251   2.043  10.118   7.381  0.2928 -0.3647 -0.7264
   97MOL0     C13252   1.925  10.121   7.308 -0.5903  0.2393  0.8134
   97MOL0     C13253   1.942  10.180   7.180 -0.0733 -0.8059  0.6014
   97MOL0     C13254   1.845  10.189   7.085 -0.0546 -0.0007 -0.5884
   97MOL0     C13255   1.720  10.140   7.106  0.6871 -1.0236  0.1632
   97MOL0     O13256   1.631  10.138   7.003 -0.3029  0.5122 -0.1318
   97MOL0     C13257   1.581  10.270   6.962  0.8304 -0.3897  0.2980
   97MOL0     C13258   1.474  10.264   6.852 -0.4519 -0.8494 -0.0017
   97MOL0     C13259   1.343  10.186   6.907 -0.4673  0.2289 -0.5439
   97MOL0     C13260   1.239  10.173   6.794 -1.1984 -0.1417  0.3320
   97MOL0     C13261   1.272  10.067   6.691 -0.5986 -0.3327  0.4490
   97MOL0     C13262   1.153  10.049   6.598 -0.3080  0.0855  0.6119
   97MOL0     C13263   1.157   9.915   6.511  0.0754 -0.7944 -0.5991
   97MOL0     C13264   1.053   9.917   6.399  0.1602  0.1591  0.4506
   97MOL0     N13265   0.915   9.883   6.453  0.1401  0.1859 -0.6137
   97MOL0     C13266   0.811   9.961   6.421  1.2668 -0.0342  0.4639
   97MOL0     C13267   0.698   9.893   6.449  1.1261  0.4904  0.5717
   97MOL0     C13268   0.560   9.941   6.434 -0.0335  0.1669  0.6294
   97MOL0     C13269   0.452   9.822   6.413 -0.5011 -0.6141  0.2038
   97MOL0     C13270   0.309   9.877   6.379 -0.5354 -0.0393  0.0204
   97MOL0     C13271   0.270   9.851   6.231  0.5829  0.3116  0.4742
   97MOL0     O13272   0.126   9.855   6.229  1.2106  0.0498  0.1976
   97MOL0     C13273   0.069   9.772   6.136 -0.8097  0.1537 -0.6299
   97MOL0     C13274  -0.035   9.696   6.181 -0.4633  0.6185  0.2164
   97MOL0     C13275  -0.099   9.603   6.103  0.7569  0.2695 -0.5405
   97MOL0     C13276  -0.227   9.544   6.159 -0.0625 -0.0879 -0.4775
   97MOL0     C13277  -0.047   9.580   5.975  0.8029  0.1234  0.3279
   97MOL0     C13278  -0.100   9.478   5.880 -0.1606 -0.4177  0.7145
   97MOL0     O13279  -0.088   9.502   5.749 -0.0678  1.3427 -0.3989
   97MOL0     C13280  -0.177   9.428   5.668  0.3430  0.1996 -0.2066
   97MOL0     C13281  -0.150   9.412   5.533 -0.4459  0.2938  0.4436
   97MOL0     C13282  -0.236   9.360   5.444 -0.2976 -0.9614 -0.1622
   97MOL0     C13283  -0.366   9.305   5.483 -0.2113 -0.2190 -0.1311
   97MOL0     O13284  -0.434   9.230   5.388  0.4054  0.0149 -0.1049
   97MOL0     C13285  -0.564   9.171   5.424  0.0090 -0.1829 -0.0147
   97MOL0     C13286  -0.617   9.074   5.322  0.4706 -0.3754  0.6289
   97MOL0     C13287  -0.514   8.958   5.302 -0.1676 -0.6017 -0.3759
   97MOL0     C13288  -0.491   8.865   5.419  0.3374 -0.5059 -0.0553
   97MOL0     C13289  -0.445   8.737   5.354 -0.2686 -0.1182  0.1929
   97MOL0     C13290  -0.431   8.625   5.446  0.3391  0.2263 -0.1785
   97MOL0     C13291  -0.319   8.637   5.556  0.1347  0.1787  0.7181
   97MOL0     C13292  -0.337   8.543   5.672 -1.2059 -0.6127 -0.3440
   97MOL0    Cl13293  -0.466   8.610   5.768 -0.3981  0.2008  0.0390
   97MOL0     C13294  -0.398   9.317   5.614  0.6586  0.1547 -0.1970
   97MOL0     C13295  -0.316   9.386   5.696 -0.4793 -1.1550 -0.7325
   97MOL0     O13296  -0.147   9.379   5.932 -0.7119 -0.0913  0.0910
   97MOL0     C13297   0.053   9.652   5.929 -0.1962 -0.8847 -0.1892
   97MOL0     C13298   0.128   9.747   6.011  0.2449 -0.9747  0.6001
   97MOL0     N13299   0.741   9.766   6.500  0.5645  1.4451  0.7511
   97MOL0     N13300   0.868   9.766   6.495 -0.2538 -0.3340 -0.0256
   97MOL0     C13301   1.695  10.086   7.233  0.8620 -0.5735 -0.0885
   97MOL0     C13302   1.800  10.073   7.336  0.3769 -0.3447  0.3011
   97MOL0     C13303   2.158  10.167   7.594 -0.0532  0.6321  0.2373
   97MOL0     C13304   2.286  10.208   7.544  0.1840  0.4428 -0.5087
   97MOL0     C13305   2.404  10.197   7.615  0.2691 -0.8873  0.4485
   97MOL0     C13306   2.395  10.145   7.745  0.2558 -0.2924 -0.2760
   97MOL0     O13307   2.507  10.121   7.826  0.1352 -0.1895 -0.9173
   97MOL0     C13308   2.644  10.128   7.777  0.5945 -0.3786  0.7416
   97MOL0     C13309   2.738  10.034   7.845 -0.2108 -0.2231 -0.0996
   97MOL0     C13310   2.742  10.050   8.005 -0.2087  0.0680 -0.4938
   97MOL0     C13311   2.820   9.932   8.065  0.2292  0.7359  0.0854
   97MOL0     C13312   2.816   9.932   8.211  0.4521  0.4228  0.1407
   97MOL0     C13313   2.818   9.941   8.330 -0.3024  1.5606  0.4811
   97MOL0     C13314   2.269  10.107   7.802 -0.6985 -0.3292  0.3519
   97MOL0     C13315   2.158  10.098   7.723 -0.2252 -0.5741 -0.4266
   97MOL0     C13316   2.025  10.069   7.792  0.1822  0.5982 -0.2596
   97MOL0     H13317   2.032  10.234   7.155 -0.6894 -0.5124 -1.0821
   97MOL0     H13318   1.875  10.229   6.989  0.8423  0.7452 -0.0237
   97MOL0     H13319   1.666  10.325   6.919  0.3757  2.1152  2.3336
   97MOL0     H13320   1.536  10.314   7.052  1.2833  0.1709  0.2548
   97MOL0     H13321   1.456  10.369   6.825  1.3390 -0.6037 -0.3155
   97MOL0     H13322   1.509  10.208   6.765 -3.2530 -2.3191 -0.3100
   97MOL0     H13323   1.376  10.088   6.942  0.6212  0.1219 -1.7705
   97MOL0     H13324   1.303  10.237   6.995 -0.8038 -0.7368 -0.1289
   97MOL0     H13325   1.140  10.155   6.836 -2.1391 -0.8368 -2.0321
   97MOL0     H13326   1.239  10.263   6.732  1.3729 -1.3495 -1.6919
   97MOL0     H13327   1.289   9.970   6.739 -3.2901 -2.5446 -2.6568
   97MOL0     H13328   1.364  10.091   6.636  0.1492 -2.0922  0.8306
   97MOL0     H13329   1.063  10.036   6.660 -0.8757 -1.0175 -0.4193
   97MOL0     H13330   1.139  10.143   6.543  0.0971  1.1225  2.1963
   97MOL0     H13331   1.140   9.835   6.583 -0.0016 -0.8166 -0.6423
   97MOL0     H13332   1.258   9.904   6.470 -0.1666 -1.0741 -1.1274
   97MOL0     H13333   1.048  10.012   6.345 -1.3750  0.2592  0.7216
   97MOL0     H13334   1.093   9.834   6.340  2.2254 -1.5915  3.9923
   97MOL0     H13335   0.814  10.058   6.372 -2.4030  0.6613  1.3113
   97MOL0     H13336   0.559  10.010   6.349 -1.1091  0.0600  0.5317
   97MOL0     H13337   0.540   9.996   6.526  0.8014  0.1871  0.7984
   97MOL0     H13338   0.490   9.756   6.336  3.0413 -1.8390  2.7227
   97MOL0     H13339   0.443   9.768   6.508 -2.4214  1.6853  1.4555
   97MOL0     H13340   0.240   9.812   6.434  0.7617 -1.3405  0.1655
   97MOL0     H13341   0.299   9.981   6.409  0.8822 -0.1176  0.8588
   97MOL0     H13342   0.325   9.924   6.171  1.2867 -1.1077 -0.6746
   97MOL0     H13343   0.305   9.752   6.201 -1.9128 -0.0185 -1.7525
   97MOL0     H13344  -0.067   9.704   6.284  0.5998  3.7245  0.3997
   97MOL0     H13345  -0.272   9.603   6.240  0.3450 -1.1889  0.5752
   97MOL0     H13346  -0.215   9.441   6.196 -0.6283 -0.2451 -0.7179
   97MOL0     H13347  -0.304   9.557   6.082  0.4001  2.3733 -0.6030
   97MOL0     H13348  -0.051   9.438   5.498  0.2585 -1.3319  1.1452
   97MOL0     H13349  -0.215   9.354   5.337  1.3556 -2.2815  0.1996
   97MOL0     H13350  -0.557   9.110   5.515  0.3503 -2.7464 -1.6571
   97MOL0     H13351  -0.637   9.251   5.441 -1.9025 -0.9546 -3.5209
   97MOL0     H13352  -0.713   9.028   5.351 -0.2742  0.3630 -0.5811
   97MOL0     H13353  -0.642   9.127   5.230  1.3986  1.9368  1.6347
   97MOL0     H13354  -0.416   8.984   5.261 -0.0351  0.2830  0.4814
   97MOL0     H13355  -0.562   8.893   5.227  0.8149 -2.5931  0.6329
   97MOL0     H13356  -0.584   8.834   5.466  0.5005 -0.3809  0.3517
   97MOL0     H13357  -0.415   8.898   5.491  0.0854 -1.0110  0.4549
   97MOL0     H13358  -0.502   8.691   5.273  1.7513 -0.2472 -1.2159
   97MOL0     H13359  -0.349   8.750   5.304  0.4669  0.5239  1.7143
   97MOL0     H13360  -0.415   8.532   5.391 -2.4718 -2.0813  2.5417
   97MOL0     H13361  -0.527   8.598   5.490 -0.0840 -0.6475 -1.5772
   97MOL0     H13362  -0.304   8.736   5.599  2.6333  0.7591 -1.2518
   97MOL0     H13363  -0.229   8.623   5.496 -0.7342 -0.8982 -0.3826
   97MOL0     H13364  -0.241   8.544   5.724 -0.2951 -1.4423 -1.9386
   97MOL0     H13365  -0.361   8.442   5.638 -1.5309 -0.8249  0.5014
   97MOL0     H13366  -0.494   9.279   5.649  1.4591  1.1166  3.4006
   97MOL0     H13367  -0.341   9.387   5.801  3.4027  0.0748  0.3122
   97MOL0     H13368   0.096   9.642   5.830 -2.6243  1.9925 -1.7231
   97MOL0     H13369   0.206   9.812   5.974 -0.8157  0.2542  0.4191
   97MOL0     H13370   1.600  10.039   7.258 -0.8476  3.5300  2.2079
   97MOL0     H13371   1.767  10.030   7.430 -1.8997  0.1239 -0.2149
   97MOL0     H13372   2.293  10.237   7.440  3.2731 -2.0347 -1.1371
   97MOL0     H13373   2.499  10.235   7.580  0.8489 -0.6061  2.2481
   97MOL0     H13374   2.650  10.126   7.668  0.7279 -0.2082  0.7447
   97MOL0     H13375   2.674  10.231   7.799 -2.2109  0.9126 -1.0135
   97MOL0     H13376   2.838  10.046   7.804  0.4558 -3.8753  0.0951
   97MOL0     H13377   2.717   9.933   7.809 -0.7074  0.2342 -1.1359
   97MOL0     H13378   2.794  10.144   8.029  2.0278 -1.7530  2.6504
   97MOL0     H13379   2.645  10.064   8.053  1.0996  3.6414  1.5297
   97MOL0     H13380   2.925   9.951   8.038  0.1276  0.7305 -0.3185
   97MOL0     H13381   2.784   9.839   8.020 -0.8074  1.2152 -0.1188
   97MOL0     H13382   2.804   9.934   8.436 -2.3345 -1.9051  0.1667
   97MOL0     H13383   2.264  10.063   7.901 -3.3230 -0.7080  0.1350
   97MOL0     H13384   2.047  10.057   7.899  2.3668 -1.2875 -0.8305
   97MOL0     H13385   1.957  10.152   7.772 -0.7566 -0.3875 -1.3203
   97MOL0     H13386   1.960   9.989   7.755  0.3605  0.9728 -1.4323
   98MOL0     O13387  10.762  10.538   6.519  0.3480  0.5543 -0.2614
   98MOL0     C13388  10.744  10.658   6.542 -0.0909 -1.2166 -0.3962
   98MOL0     O13389  10.620  10.720   6.539 -0.1943 -0.1445 -1.1643
   98MOL0     C13390  10.514  10.642   6.501  0.5646  0.1424  0.3353
   98MOL0     C13391  10.456  10.545   6.582  0.0916  0.8830 -1.2615
   98MOL0     C13392  10.339  10.468   6.547 -1.3721  0.1098 -0.0558
   98MOL0     C13393  10.285  10.485   6.415  0.0022  0.8582 -0.7228
   98MOL0     O13394  10.186  10.405   6.366  0.2605 -1.0789 -0.9387
   98MOL0     C13395  10.145  10.284   6.427 -0.0053  0.3690  0.3104
   98MOL0     C13396  10.051  10.215   6.321 -0.4664 -0.0044 -0.1906
   98MOL0     C13397   9.948  10.300   6.255  0.1798 -0.0368  0.3173
   98MOL0     C13398   9.860  10.210   6.163  0.1249  0.1218  0.0727
   98MOL0     C13399   9.764  10.307   6.087 -0.6091  0.2918  0.1473
   98MOL0     C13400   9.657  10.389   6.164  0.2795  0.0696 -0.5061
   98MOL0     C13401   9.554  10.289   6.228  0.2229 -0.1722 -0.0008
   98MOL0     C13402   9.488  10.364   6.334  0.4284 -0.4494 -0.0596
   98MOL0     N13403   9.398  10.458   6.270  0.4889 -0.0291 -0.2216
   98MOL0     C13404   9.402  10.591   6.302 -0.3131 -0.4655 -0.3171
   98MOL0     C13405   9.292  10.645   6.239 -0.0913  0.5536  0.0448
   98MOL0     C13406   9.263  10.793   6.249 -1.3095 -0.5262 -0.4481
   98MOL0     C13407   9.122  10.832   6.200  0.5989 -0.0388  0.1193
   98MOL0     C13408   9.085  10.968   6.234 -0.2176 -0.0333  0.0702
   98MOL0     C13409   9.041  10.980   6.377 -0.1713  0.2180 -0.1349
   98MOL0     O13410   9.073  11.110   6.438  0.0082 -0.0362  0.3034
   98MOL0     C13411   9.015  11.227   6.392  0.7942 -1.0602  0.1394
   98MOL0     C13412   8.899  11.242   6.315 -0.5564  0.4155  0.1438
   98MOL0     C13413   8.850  11.367   6.272 -1.1281  0.3698 -0.6130
   98MOL0     C13414   8.736  11.362   6.182  0.4977 -1.2423 -0.0456
   98MOL0     C13415   8.909  11.487   6.333 -0.1584  0.4472  0.2874
   98MOL0     C13416   8.861  11.621   6.306  0.2080  0.0709 -0.0228
   98MOL0     O13417   8.943  11.730   6.342  0.4978 -0.8108  0.4620
   98MOL0     C13418   8.891  11.857   6.366 -0.7436  0.0159 -0.0238
   98MOL0     C13419   8.797  11.884   6.467  0.2088  0.6961 -0.1139
   98MOL0     C13420   8.761  12.011   6.490  0.6261  0.0347 -0.9018
   98MOL0     C13421   8.797  12.120   6.410 -0.3033  0.3561 -1.1625
   98MOL0     O13422   8.775  12.245   6.444 -0.4992  0.4087  0.6326
   98MOL0     C13423   8.646  12.276   6.503 -0.4203 -0.0866  0.1777
   98MOL0     C13424   8.604  12.424   6.461 -0.8764 -1.0078  0.1853
   98MOL0     C13425   8.505  12.484   6.571 -1.0286 -0.3575 -0.0433
   98MOL0     C13426   8.363  12.432   6.556  0.0548  0.1904  0.2758
   98MOL0     C13427   8.266  12.471   6.672 -0.8928 -0.7052  0.2933
   98MOL0     C13428   8.250  12.627   6.701  0.1702  0.0815 -0.0332
   98MOL0     C13429   8.155  12.626   6.824 -1.0871 -0.6957  0.0624
   98MOL0     C13430   8.122  12.782   6.860  0.2073 -0.6790 -0.2679
   98MOL0    Cl13431   8.014  12.853   6.740 -0.1759 -0.1310 -0.2410
   98MOL0     C13432   8.880  12.093   6.303  0.7171 -0.3019  0.4111
   98MOL0     C13433   8.934  11.963   6.289  0.9791 -0.2406  0.4569
   98MOL0     O13434   8.749  11.635   6.253  0.4645  0.0641  0.1076
   98MOL0     C13435   9.012  11.460   6.430  0.2429 -0.0963 -0.2780
   98MOL0     C13436   9.067  11.339   6.451  0.7745  0.0886 -0.7372
   98MOL0     N13437   9.234  10.548   6.169  0.9487 -0.1436 -0.4443
   98MOL0     N13438   9.284  10.429   6.197 -0.4153 -0.4723  0.1018
   98MOL0     C13439  10.339  10.585   6.334 -0.4255 -0.4280 -0.1904
   98MOL0     C13440  10.449  10.664   6.374 -1.1582  0.0454 -0.4393
   98MOL0     C13441  10.860  10.741   6.557  0.2272  0.1504 -0.0960
   98MOL0     C13442  10.853  10.866   6.496  0.1049  0.5534 -0.2551
   98MOL0     C13443  10.977  10.945   6.499 -0.6365  0.0678 -0.5669
   98MOL0     C13444  11.099  10.890   6.552  1.5445  0.8226  0.4490
   98MOL0     O13445  11.216  10.968   6.541  0.5685 -1.0464 -0.7073
   98MOL0     C13446  11.334  10.931   6.617  0.7321  0.2152 -0.1511
   98MOL0     C13447  11.440  11.036   6.594  0.4592 -0.0345  0.4256
   98MOL0     C13448  11.561  11.007   6.681 -0.1601  0.0392  0.3905
   98MOL0     C13449  11.683  11.109   6.666  0.0188 -0.2559  0.9328
   98MOL0     C13450  11.739  11.090   6.536 -0.0500  0.0268 -0.6860
   98MOL0     C13451  11.767  11.050   6.425  0.1083  0.1130 -0.8159
   98MOL0     C13452  11.093  10.764   6.629  0.2999 -0.1756 -0.5000
   98MOL0     C13453  10.970  10.692   6.638 -0.8612 -0.5306 -0.0017
   98MOL0     C13454  10.971  10.569   6.712  0.6048 -0.3904  0.2594
   98MOL0     H13455  10.498  10.555   6.681 -1.1072  0.6728 -0.7127
   98MOL0     H13456  10.316  10.389   6.617  0.1611  0.7057  1.1561
   98MOL0     H13457  10.085  10.315   6.513 -1.0849  1.2452 -0.7316
   98MOL0     H13458  10.228  10.218   6.456  1.0585  0.9547 -1.2599
   98MOL0     H13459  10.114  10.169   6.244  1.0406  2.7207 -0.7106
   98MOL0     H13460   9.989  10.143   6.376 -1.5670  0.5946 -0.6002
   98MOL0     H13461   9.889  10.339   6.339  1.8335  2.0912  0.5779
   98MOL0     H13462  10.001  10.372   6.193  0.4927 -1.4024 -1.0522
   98MOL0     H13463   9.917  10.154   6.089 -3.1822 -1.1494 -1.6891
   98MOL0     H13464   9.804  10.136   6.220 -4.5847  1.9454 -1.6799
   98MOL0     H13465   9.711  10.255   6.007 -0.2990 -2.8619  1.8486
   98MOL0     H13466   9.834  10.375   6.038  2.9807 -2.4642  1.0332
   98MOL0     H13467   9.707  10.457   6.233  0.7028  0.5024 -1.2261
   98MOL0     H13468   9.605  10.455   6.094 -0.1227 -0.0839 -0.3529
   98MOL0     H13469   9.609  10.205   6.273  3.8393  0.2465 -3.2183
   98MOL0     H13470   9.483  10.254   6.153  0.2057 -0.7822  0.2873
   98MOL0     H13471   9.436  10.292   6.398 -0.1576 -2.2490 -2.4342
   98MOL0     H13472   9.557  10.410   6.406  0.4988 -1.7704  0.7538
   98MOL0     H13473   9.486  10.645   6.344  0.2912 -1.7426  0.1445
   98MOL0     H13474   9.335  10.847   6.186  0.2960 -1.5580  0.4098
   98MOL0     H13475   9.266  10.830   6.351 -6.2602  1.7749 -0.8673
   98MOL0     H13476   9.117  10.818   6.091  0.9243  1.7673 -0.1622
   98MOL0     H13477   9.046  10.768   6.246  0.1781 -0.5443 -1.2118
   98MOL0     H13478   9.162  11.042   6.211 -1.3686  0.7481 -1.4601
   98MOL0     H13479   8.993  10.989   6.180  2.1018  0.8316 -3.9732
   98MOL0     H13480   8.935  10.952   6.385 -0.4570  1.3695  0.2670
   98MOL0     H13481   9.090  10.901   6.435  0.6099  0.4363 -0.4927
   98MOL0     H13482   8.856  11.152   6.273  0.6403  0.5107 -1.3905
   98MOL0     H13483   8.759  11.426   6.097  1.4809 -3.7247 -1.7993
   98MOL0     H13484   8.652  11.403   6.238 -0.6220 -0.7547 -2.0072
   98MOL0     H13485   8.706  11.262   6.147 -0.6288 -0.8129 -0.3201
   98MOL0     H13486   8.761  11.810   6.538 -0.6366  0.8924 -0.3261
   98MOL0     H13487   8.701  12.015   6.580  0.2991 -4.0871 -0.7536
   98MOL0     H13488   8.564  12.208   6.480 -2.1889  2.1558 -0.5018
   98MOL0     H13489   8.673  12.275   6.609 -1.0586  0.2840  0.3441
   98MOL0     H13490   8.697  12.482   6.459  1.9214 -4.9831  1.7565
   98MOL0     H13491   8.546  12.422   6.368 -1.6292  2.7097  0.3935
   98MOL0     H13492   8.491  12.592   6.568 -0.7562 -0.1601  2.9064
   98MOL0     H13493   8.538  12.447   6.669 -2.2916 -0.4330  0.3616
   98MOL0     H13494   8.363  12.323   6.544  0.7289  0.1802  0.3386
   98MOL0     H13495   8.322  12.476   6.465  1.8284  0.3243 -0.4896
   98MOL0     H13496   8.168  12.433   6.640 -1.5326  3.2492 -3.3579
   98MOL0     H13497   8.301  12.426   6.766 -0.2531  1.6794  1.2722
   98MOL0     H13498   8.203  12.682   6.619  1.4985 -1.1154 -1.6746
   98MOL0     H13499   8.344  12.675   6.727  1.1109 -0.9949 -1.2887
   98MOL0     H13500   8.218  12.602   6.909  1.7787  1.0452 -1.4113
   98MOL0     H13501   8.065  12.565   6.812 -2.2888  1.2591 -1.5029
   98MOL0     H13502   8.213  12.837   6.882  0.1147 -0.5187 -0.2792
   98MOL0     H13503   8.061  12.795   6.950  1.8026 -0.5931  0.8396
   98MOL0     H13504   8.912  12.172   6.235 -0.6215  0.5737  0.7718
   98MOL0     H13505   9.008  11.942   6.212 -1.4540 -0.5227 -1.9408
   98MOL0     H13506   9.055  11.540   6.490  1.2785 -2.1076  1.7842
   98MOL0     H13507   9.144  11.331   6.527 -0.1352 -2.8184 -0.0184
   98MOL0     H13508  10.296  10.596   6.235 -2.4454  2.4128  0.8790
   98MOL0     H13509  10.493  10.737   6.306  1.7687  0.5023  1.7486
   98MOL0     H13510  10.759  10.903   6.457 -0.4617  0.0138  0.5754
   98MOL0     H13511  10.978  11.036   6.440  0.0392  1.3106  1.2591
   98MOL0     H13512  11.312  10.923   6.724  2.4709  1.3857  0.3292
   98MOL0     H13513  11.362  10.826   6.603  0.6735  0.2309 -0.3866
   98MOL0     H13514  11.396  11.130   6.628  0.7704 -0.2702  1.5203
   98MOL0     H13515  11.468  11.015   6.490 -0.5130 -6.0272  1.0172
   98MOL0     H13516  11.528  10.997   6.785  1.7132  2.1839  1.2927
   98MOL0     H13517  11.608  10.909   6.666  0.7045  0.3068  1.2162
   98MOL0     H13518  11.754  11.081   6.744 -1.5949 -0.6314  2.3352
   98MOL0     H13519  11.649  11.211   6.686  1.4700  0.2283  1.0780
   98MOL0     H13520  11.774  11.011   6.325 -3.5505 -0.1009 -1.1505
   98MOL0     H13521  11.173  10.720   6.687  0.3892  1.8403  1.0399
   98MOL0     H13522  10.993  10.487   6.643  1.1418 -0.0288 -0.0110
   98MOL0     H13523  11.045  10.567   6.792  1.1417 -0.7118 -0.2383
   98MOL0     H13524  10.872  10.557   6.757  0.2842  1.8217  0.2590
   99MOL0     O13525   8.401   1.139   8.723  0.4062  0.1447  0.4419
   99MOL0     C13526   8.342   1.094   8.622  0.1076 -0.0578  0.0642
   99MOL0     O13527   8.211   1.050   8.614  0.4527 -0.3654 -0.0047
   99MOL0     C13528   8.129   1.056   8.729 -0.2622  0.0060 -0.5783
   99MOL0     C13529   8.069   0.942   8.770 -0.4624  0.3212  0.3135
   99MOL0     C13530   7.992   0.930   8.891  0.7233  0.2927 -0.6698
   99MOL0     C13531   7.981   1.042   8.976 -0.2181 -0.3139 -0.2538
   99MOL0     O13532   7.927   1.041   9.101  0.6127  0.1149  0.2411
   99MOL0     C13533   7.908   0.909   9.161  0.0428  0.3548 -0.6628
   99MOL0     C13534   8.047   0.854   9.205  0.6828 -0.0301 -0.4866
   99MOL0     C13535   8.042   0.756   9.319 -0.0654  0.8036  0.0206
   99MOL0     C13536   8.008   0.807   9.459 -0.5222  0.0152 -0.1587
   99MOL0     C13537   8.046   0.697   9.568 -0.0071 -0.2610  0.1866
   99MOL0     C13538   7.993   0.728   9.706  0.0927  0.1499  0.2784
   99MOL0     C13539   8.081   0.667   9.817 -0.5888 -0.7679 -0.7088
   99MOL0     C13540   8.113   0.522   9.805  0.0290  0.0981 -0.4092
   99MOL0     N13541   8.006   0.431   9.837  0.0784  0.6454  0.0102
   99MOL0     C13542   7.904   0.402   9.753 -0.1441  0.0848 -0.4293
   99MOL0     C13543   7.858   0.283   9.786 -0.4201 -0.3751  0.1813
   99MOL0     C13544   7.741   0.210   9.726  1.1245  0.8226 -0.6799
   99MOL0     C13545   7.657   0.136   9.830  1.2485 -0.7954  0.2306
   99MOL0     C13546   7.599   0.227   9.937 -0.3255 -0.8165 -0.9051
   99MOL0     C13547   7.481   0.158  10.007 -0.4885 -0.3202  0.0524
   99MOL0     O13548   7.436   0.265  10.093 -0.3431  0.4569  0.2950
   99MOL0     C13549   7.471   0.266  10.220 -0.6746 -0.3690 -0.6696
   99MOL0     C13550   7.402   0.356  10.300 -0.0181  0.9027 -0.4668
   99MOL0     C13551   7.419   0.362  10.443  0.0721 -0.2170  0.3477
   99MOL0     C13552   7.320   0.452  10.516  0.3363 -0.0129 -0.0238
   99MOL0     C13553   7.512   0.274  10.501 -0.4421 -0.3056 -0.3189
   99MOL0     C13554   7.540   0.274  10.649 -1.2435 -0.1081  0.1479
   99MOL0     O13555   7.565   0.399  10.705  0.4018  0.5565 -0.4220
   99MOL0     C13556   7.611   0.420  10.831 -0.7710 -0.0154  0.1258
   99MOL0     C13557   7.704   0.333  10.894 -0.8595 -0.1766  0.8369
   99MOL0     C13558   7.746   0.364  11.019 -0.8129  0.0637 -0.5131
   99MOL0     C13559   7.695   0.463  11.096 -0.2367  0.3530  0.2472
   99MOL0     O13560   7.736   0.475  11.225  0.0022  0.0307 -0.2904
   99MOL0     C13561   7.639   0.424  11.316  0.2118  0.6405  0.1202
   99MOL0     C13562   7.686   0.466  11.458  0.4755  0.1922  0.8197
   99MOL0     C13563   7.709   0.623  11.461  0.5145 -0.5464  0.6355
   99MOL0     C13564   7.707   0.682  11.599  0.7741  0.2210 -0.1931
   99MOL0     C13565   7.724   0.834  11.612  0.1250  0.4542  0.0070
   99MOL0     C13566   7.683   0.861  11.757  0.2059 -0.8511 -0.9939
   99MOL0     C13567   7.682   1.006  11.791  0.7943  0.0493  0.3883
   99MOL0     C13568   7.655   1.038  11.927  0.5018 -0.2457 -0.5527
   99MOL0    Cl13569   7.686   1.204  11.974  0.3895 -0.6526  0.1416
   99MOL0     C13570   7.603   0.550  11.038 -0.4854  0.1546 -0.1849
   99MOL0     C13571   7.559   0.531  10.906  0.0916 -0.5355  0.4236
   99MOL0     O13572   7.554   0.163  10.707  0.4581  0.1573  0.0141
   99MOL0     C13573   7.583   0.177  10.419  0.4717  0.7000  0.3733
   99MOL0     C13574   7.555   0.170  10.282 -0.8612 -0.2010 -0.3137
   99MOL0     N13575   7.937   0.236   9.899 -0.0381 -0.7612  0.5789
   99MOL0     N13576   8.029   0.327   9.918 -0.6404  0.3439  0.1775
   99MOL0     C13577   8.033   1.167   8.930 -0.2087 -0.2254  0.3276
   99MOL0     C13578   8.104   1.164   8.808 -0.1564  0.1582 -0.4922
   99MOL0     C13579   8.430   1.076   8.497 -0.1551 -0.2691  0.8438
   99MOL0     C13580   8.489   1.191   8.436  0.7192 -0.3405  0.4041
   99MOL0     C13581   8.563   1.186   8.324 -0.8591  1.6892  0.6341
   99MOL0     C13582   8.577   1.057   8.264  1.1510  0.2025  0.0908
   99MOL0     O13583   8.658   1.031   8.156  0.5294  0.5086  0.2244
   99MOL0     C13584   8.589   1.018   8.028  0.3062  0.7737 -0.2187
   99MOL0     C13585   8.692   1.025   7.921  0.0956  0.2711  1.1892
   99MOL0     C13586   8.779   0.901   7.924 -1.0122  0.0103  0.1817
   99MOL0     C13587   8.890   0.908   7.819  0.3043  0.3815  0.5737
   99MOL0     C13588   8.996   1.006   7.835 -0.5730 -0.1287 -0.8029
   99MOL0     C13589   9.083   1.092   7.858  0.0821  0.0142  1.1704
   99MOL0     C13590   8.528   0.941   8.327 -0.2708 -0.2331  0.1954
   99MOL0     C13591   8.462   0.948   8.443 -0.1276 -0.7997 -0.4441
   99MOL0     C13592   8.420   0.822   8.520 -0.0790  0.0182 -0.1657
   99MOL0     H13593   8.090   0.859   8.704 -1.2386  0.4482 -0.0919
   99MOL0     H13594   7.951   0.834   8.918  4.2700 -1.5183 -1.1405
   99MOL0     H13595   7.830   0.854   9.109 -1.4405  0.5288  1.2717
   99MOL0     H13596   7.850   0.918   9.253  0.7556  2.6455 -0.3805
   99MOL0     H13597   8.099   0.807   9.122 -1.8845 -1.4992 -1.3678
   99MOL0     H13598   8.096   0.948   9.233 -1.7737  1.7546 -1.7913
   99MOL0     H13599   7.970   0.679   9.291  1.7909 -1.5257  1.2131
   99MOL0     H13600   8.139   0.708   9.337  1.1091  1.9513 -2.7034
   99MOL0     H13601   8.059   0.903   9.468  2.6000 -1.4930 -0.3658
   99MOL0     H13602   7.900   0.820   9.467 -1.1532 -3.1340 -1.7863
   99MOL0     H13603   8.153   0.672   9.559 -0.5114 -1.7631 -4.5002
   99MOL0     H13604   7.998   0.603   9.539 -1.3105 -0.1977  1.9394
   99MOL0     H13605   8.003   0.837   9.716 -0.1383  0.0135  2.5426
   99MOL0     H13606   7.888   0.699   9.714 -0.4710  0.7661 -3.1256
   99MOL0     H13607   8.047   0.693   9.918 -1.0408 -0.3347 -0.9687
   99MOL0     H13608   8.176   0.720   9.832 -1.2269 -0.3374  2.8430
   99MOL0     H13609   8.151   0.500   9.705  0.5470 -0.2717 -0.1309
   99MOL0     H13610   8.192   0.500   9.876 -1.5204  0.7797  1.6286
   99MOL0     H13611   7.886   0.459   9.662  2.6649  1.2296 -0.3676
   99MOL0     H13612   7.793   0.149   9.651 -1.1549 -0.2342 -1.5144
   99MOL0     H13613   7.672   0.282   9.681  1.0860  0.2476 -1.5680
   99MOL0     H13614   7.582   0.072   9.783  0.9419  0.3174 -0.8549
   99MOL0     H13615   7.726   0.066   9.879  2.3129 -0.0789 -0.1935
   99MOL0     H13616   7.681   0.252  10.006 -1.2666  0.2309 -0.1398
   99MOL0     H13617   7.571   0.324   9.897  2.3060 -0.2504 -1.5584
   99MOL0     H13618   7.403   0.147   9.931 -0.2795 -2.5596  0.1029
   99MOL0     H13619   7.487   0.055  10.041  0.2139  0.0350  1.0510
   99MOL0     H13620   7.322   0.403  10.243 -3.0306 -3.6864 -0.5387
   99MOL0     H13621   7.375   0.529  10.570  2.0033  0.0962 -1.7815
   99MOL0     H13622   7.257   0.394  10.583  0.1101  0.7809  0.4620
   99MOL0     H13623   7.252   0.501  10.446 -0.1508 -0.1433  0.3515
   99MOL0     H13624   7.744   0.248  10.838  1.5398 -1.6919  4.4671
   99MOL0     H13625   7.827   0.302  11.056  1.3598  1.5458 -2.5073
   99MOL0     H13626   7.541   0.467  11.292 -0.0240  0.0760  0.0594
   99MOL0     H13627   7.634   0.315  11.307 -0.9479  0.6111  0.9037
   99MOL0     H13628   7.597   0.445  11.518 -0.1064  1.3757  0.3895
   99MOL0     H13629   7.772   0.409  11.493  0.4534 -0.2358  0.1892
   99MOL0     H13630   7.642   0.686  11.402  0.8232 -2.2309 -1.6290
   99MOL0     H13631   7.807   0.651  11.420  0.1791  1.6978  1.2101
   99MOL0     H13632   7.786   0.640  11.661  0.1793 -1.1589 -0.3282
   99MOL0     H13633   7.608   0.648  11.631  0.7404 -0.3115 -0.8355
   99MOL0     H13634   7.822   0.866  11.578  1.8953 -5.5351 -1.7570
   99MOL0     H13635   7.647   0.879  11.549  1.4907 -1.0107 -2.8796
   99MOL0     H13636   7.755   0.807  11.820  0.1199 -0.3300 -0.4468
   99MOL0     H13637   7.584   0.826  11.788  0.0183  1.7576  1.6763
   99MOL0     H13638   7.602   1.050  11.730 -0.5111 -2.3645  0.2049
   99MOL0     H13639   7.770   1.061  11.758  0.9423 -1.3323 -1.7305
   99MOL0     H13640   7.704   0.966  11.993 -2.9627 -2.5539 -0.2476
   99MOL0     H13641   7.547   1.021  11.933  0.3629  0.9317  0.9471
   99MOL0     H13642   7.572   0.640  11.090 -3.5977  0.0528 -1.5940
   99MOL0     H13643   7.492   0.599  10.854  0.2432  0.0562  0.9906
   99MOL0     H13644   7.658   0.123  10.475  0.0574  1.1314  1.3645
   99MOL0     H13645   7.600   0.085  10.232 -2.6756 -0.4008 -1.7402
   99MOL0     H13646   8.033   1.254   8.995  1.4538  1.0684 -1.2689
   99MOL0     H13647   8.154   1.257   8.782 -2.0378  2.4826  3.2424
   99MOL0     H13648   8.474   1.286   8.486 -0.2660 -0.8706  1.1515
   99MOL0     H13649   8.606   1.277   8.283 -1.2214  2.4338  1.8699
   99MOL0     H13650   8.544   0.918   8.021  1.5428  0.0152  1.8411
   99MOL0     H13651   8.526   1.106   8.011  0.9642  1.2352 -0.2929
   99MOL0     H13652   8.748   1.117   7.937 -0.4256  1.6780 -3.4874
   99MOL0     H13653   8.655   1.025   7.818  3.1939  0.0029 -0.0253
   99MOL0     H13654   8.828   0.890   8.021  2.1790 -2.2075 -1.5178
   99MOL0     H13655   8.714   0.816   7.904  0.0536 -0.4448 -1.5900
   99MOL0     H13656   8.849   0.931   7.720  1.9317 -1.1777 -0.5176
   99MOL0     H13657   8.934   0.808   7.812 -2.3443 -0.8190 -0.0963
   99MOL0     H13658   9.160   1.166   7.874 -2.1916  2.8501 -0.1067
   99MOL0     H13659   8.545   0.853   8.266  0.2306  2.8631 -4.6728
   99MOL0     H13660   8.418   0.730   8.461 -1.9427 -0.2458  0.2649
   99MOL0     H13661   8.498   0.820   8.597 -0.0981  3.5301  0.1069
   99MOL0     H13662   8.320   0.840   8.559 -0.9494 -2.5436 -1.0314
  100MOL0     O13663   8.056   2.590   0.230  0.7741  0.8497  0.5180
  100MOL0     C13664   8.061   2.700   0.181  0.1959  1.0663 -0.7751
  100MOL0     O13665   8.173   2.782   0.193  0.1645 -0.6231 -0.1754
  100MOL0     C13666   8.284   2.744   0.273 -0.0810 -0.3204 -0.0722
  100MOL0     C13667   8.335   2.612   0.281 -0.7841  0.1462 -1.0124
  100MOL0     C13668   8.436   2.587   0.377  0.1183  0.1968  0.2325
  100MOL0     C13669   8.485   2.689   0.453 -0.0337 -0.0104 -0.2324
  100MOL0     O13670   8.592   2.669   0.539  0.8245  0.2381  0.5988
  100MOL0     C13671   8.606   2.766   0.644 -0.4383 -0.1303 -1.3584
  100MOL0     C13672   8.716   2.713   0.741  1.1715 -0.2573 -1.3206
  100MOL0     C13673   8.727   2.818   0.846 -0.3547 -0.9915  0.7741
  100MOL0     C13674   8.874   2.834   0.887 -0.5490  0.3967 -0.3048
  100MOL0     C13675   8.915   2.721   0.980 -0.2388 -0.1639  0.2616
  100MOL0     C13676   8.844   2.716   1.116 -0.1657  0.2289 -0.6340
  100MOL0     C13677   8.931   2.643   1.224  0.1927  0.8972 -0.9338
  100MOL0     C13678   8.947   2.502   1.176  0.4858  0.0304  0.0175
  100MOL0     N13679   8.968   2.396   1.275  0.3060 -0.7162  0.3152
  100MOL0     C13680   8.998   2.267   1.240  0.0061  0.2386 -0.2168
  100MOL0     C13681   9.033   2.210   1.358  0.2744  0.3575  0.8664
  100MOL0     C13682   9.102   2.075   1.380  1.0898  0.7348  0.6678
  100MOL0     C13683   9.015   1.950   1.367  0.3723  0.6722  0.9479
  100MOL0     C13684   8.992   1.895   1.223  0.1751 -1.3228  0.1261
  100MOL0     C13685   8.863   1.954   1.144  0.2528 -0.0134 -0.3412
  100MOL0     O13686   8.865   1.905   1.009 -0.2794  0.1538  0.3749
  100MOL0     C13687   8.931   1.980   0.914 -0.2609  0.6031 -0.0297
  100MOL0     C13688   8.875   2.093   0.867  0.1554  0.8418  0.4076
  100MOL0     C13689   8.943   2.180   0.773 -0.0741 -0.1513  0.4510
  100MOL0     C13690   8.872   2.319   0.727 -0.3425  0.5911  0.3582
  100MOL0     C13691   9.056   2.130   0.707 -0.2906  0.0163  0.7622
  100MOL0     C13692   9.131   2.212   0.609 -0.0939 -0.1737  0.5211
  100MOL0     O13693   9.161   2.153   0.490 -0.1434 -0.6921 -0.2611
  100MOL0     C13694   9.272   2.167   0.411 -0.2026 -0.4758  0.1650
  100MOL0     C13695   9.363   2.276   0.429  0.3622  0.6113 -0.3404
  100MOL0     C13696   9.459   2.303   0.332  0.1072  0.0664  0.2421
  100MOL0     C13697   9.469   2.235   0.214 -0.5246 -0.4110 -0.5432
  100MOL0     O13698   9.561   2.288   0.130 -0.1904  0.5355 -0.6950
  100MOL0     C13699   9.588   2.211   0.022 -0.2040 -0.1602 -0.5078
  100MOL0     C13700   9.689   2.104   0.066  1.0292 -0.5308 -0.0420
  100MOL0     C13701   9.825   2.160   0.115  0.4286  0.4640  0.9615
  100MOL0     C13702   9.936   2.055   0.076  0.2986 -0.8745 -0.2117
  100MOL0     C13703  10.062   2.057   0.170  0.2138 -0.0636 -0.3363
  100MOL0     C13704  10.149   2.187   0.169  0.1080  0.6171 -0.8307
  100MOL0     C13705  10.248   2.203   0.292 -0.5397  0.1050 -0.5445
  100MOL0     C13706  10.337   2.330   0.279 -0.1941  0.2633 -0.4291
  100MOL0    Cl13707  10.472   2.318   0.401 -0.1727 -0.2537 -0.2728
  100MOL0     C13708   9.382   2.130   0.196 -0.3450 -0.1229  0.4096
  100MOL0     C13709   9.287   2.099   0.291 -0.7336  0.1193  0.8603
  100MOL0     O13710   9.177   2.313   0.646 -0.2468  0.2139 -0.1079
  100MOL0     C13711   9.098   2.000   0.734 -0.0289  0.0726 -0.4334
  100MOL0     C13712   9.043   1.926   0.847  0.4513  0.7074  0.1142
  100MOL0     N13713   9.038   2.304   1.460 -0.2949  0.0552  0.9764
  100MOL0     N13714   9.001   2.423   1.401  0.3189 -0.5418 -0.7014
  100MOL0     C13715   8.433   2.822   0.451  0.5570  0.2201  0.4533
  100MOL0     C13716   8.323   2.844   0.363  0.2228 -0.0397  0.1740
  100MOL0     C13717   7.944   2.773   0.126  0.1347  0.4208  0.2618
  100MOL0     C13718   7.953   2.912   0.116 -0.0514 -0.0321  0.8925
  100MOL0     C13719   7.849   2.988   0.068 -1.1122 -0.0027 -0.2240
  100MOL0     C13720   7.739   2.934   0.003  0.3484  0.2765  0.2810
  100MOL0     O13721   7.659   3.029  -0.057  1.0917  0.1689 -0.1268
  100MOL0     C13722   7.531   2.990  -0.105 -0.6077 -0.0706  0.1473
  100MOL0     C13723   7.436   3.101  -0.140  0.1306  0.4350  0.3237
  100MOL0     C13724   7.401   3.191  -0.021 -0.3107  0.6257  0.5255
  100MOL0     C13725   7.277   3.267  -0.054  0.2944  0.4340  1.3608
  100MOL0     C13726   7.158   3.210   0.007  0.7195  0.0332 -0.3368
  100MOL0     C13727   7.059   3.178   0.074 -1.1008 -0.9941  0.0107
  100MOL0     C13728   7.730   2.795   0.002  0.1396  0.1515 -0.1304
  100MOL0     C13729   7.828   2.712   0.062 -0.5244  0.0769  0.0199
  100MOL0     C13730   7.815   2.559   0.048 -0.1254 -0.6441  1.0684
  100MOL0     H13731   8.299   2.535   0.214 -1.2735 -0.2438 -0.3145
  100MOL0     H13732   8.498   2.500   0.395  0.3808 -0.0276 -1.5748
  100MOL0     H13733   8.512   2.777   0.700 -0.6793  0.2041 -1.8279
  100MOL0     H13734   8.642   2.857   0.596  0.1082 -0.9778 -2.6103
  100MOL0     H13735   8.677   2.617   0.776 -2.5623  0.8468 -1.9846
  100MOL0     H13736   8.812   2.699   0.690  1.7122 -0.8544 -0.1935
  100MOL0     H13737   8.689   2.913   0.807  0.9852 -2.3558 -4.8253
  100MOL0     H13738   8.673   2.785   0.936  0.2888  0.4787  1.7355
  100MOL0     H13739   8.944   2.854   0.806  1.2870 -0.6140  0.9641
  100MOL0     H13740   8.881   2.922   0.951  0.7407 -1.3533  2.1085
  100MOL0     H13741   9.023   2.736   0.994 -0.2117  2.8240 -2.1141
  100MOL0     H13742   8.896   2.628   0.926 -2.4261  0.2740  0.1784
  100MOL0     H13743   8.825   2.816   1.157 -1.1509  1.2761 -3.4304
  100MOL0     H13744   8.747   2.667   1.104 -1.0936  1.6984  0.4746
  100MOL0     H13745   8.881   2.641   1.322  0.2763 -0.0125 -0.8976
  100MOL0     H13746   9.031   2.686   1.235  0.3382  0.4205 -0.3568
  100MOL0     H13747   8.856   2.476   1.121  0.2806  2.6112 -1.0152
  100MOL0     H13748   9.031   2.491   1.107 -0.3126 -1.4725 -0.7860
  100MOL0     H13749   9.013   2.231   1.139  0.1697  2.3328 -1.0061
  100MOL0     H13750   9.143   2.076   1.481  0.2654  3.3192  1.0524
  100MOL0     H13751   9.178   2.064   1.302 -0.0390  0.0063 -0.3706
  100MOL0     H13752   9.076   1.872   1.413  0.4287 -0.1203 -0.4190
  100MOL0     H13753   8.925   1.957   1.429  0.1937 -1.4907  0.9982
  100MOL0     H13754   9.072   1.926   1.154 -0.2055  0.7437  0.5547
  100MOL0     H13755   8.981   1.787   1.236  0.5132 -1.3613  0.1135
  100MOL0     H13756   8.775   1.925   1.202  0.6971 -0.1745  0.2629
  100MOL0     H13757   8.871   2.063   1.143  0.8917  0.0092  1.6673
  100MOL0     H13758   8.783   2.115   0.921  0.7212  1.1354  1.2747
  100MOL0     H13759   8.806   2.370   0.797 -0.2872  2.1195 -0.6680
  100MOL0     H13760   8.815   2.302   0.635 -0.0070 -0.3042  0.3026
  100MOL0     H13761   8.942   2.401   0.710 -1.8756  2.3679  2.2169
  100MOL0     H13762   9.362   2.346   0.513  0.6378  0.4274 -0.1826
  100MOL0     H13763   9.525   2.388   0.346 -1.5381  1.2315  1.3017
  100MOL0     H13764   9.507   2.147  -0.015  0.4960 -1.2249 -0.2498
  100MOL0     H13765   9.635   2.267  -0.060 -0.8373 -0.1234 -0.8517
  100MOL0     H13766   9.652   2.036   0.144  1.6898 -2.9954 -1.7608
  100MOL0     H13767   9.707   2.039  -0.020  0.6376 -0.5717 -0.0958
  100MOL0     H13768   9.823   2.173   0.223 -2.1146 -0.0959  1.0507
  100MOL0     H13769   9.846   2.240   0.044 -0.9990 -1.9268 -2.4287
  100MOL0     H13770   9.976   2.092  -0.019  1.8588  2.6496  1.6512
  100MOL0     H13771   9.903   1.952   0.061  1.1818 -1.3070  0.7273
  100MOL0     H13772  10.029   2.046   0.274 -1.9738 -2.8188 -1.1646
  100MOL0     H13773  10.117   1.967   0.139 -1.0937 -0.4177 -1.7847
  100MOL0     H13774  10.080   2.272   0.164 -2.1284 -1.0507  0.1149
  100MOL0     H13775  10.208   2.186   0.077  0.9275  2.0446 -0.3567
  100MOL0     H13776  10.327   2.127   0.301 -0.4674  0.4286  3.0039
  100MOL0     H13777  10.199   2.216   0.389  0.8480  0.8817  0.0844
  100MOL0     H13778  10.282   2.423   0.295  0.7004  0.7699 -0.1866
  100MOL0     H13779  10.389   2.330   0.183  0.9498 -1.3613  0.1357
  100MOL0     H13780   9.369   2.063   0.112  0.7941 -0.1251  0.2187
  100MOL0     H13781   9.215   2.022   0.264  0.8206 -1.9652  2.2570
  100MOL0     H13782   9.170   1.961   0.662  1.9091  1.3734  0.6911
  100MOL0     H13783   9.073   1.824   0.871  1.0092  0.7170 -0.5355
  100MOL0     H13784   8.444   2.904   0.521 -3.4532 -0.1593  1.7804
  100MOL0     H13785   8.265   2.934   0.352 -2.1473 -1.4048  0.7108
  100MOL0     H13786   8.033   2.973   0.158 -0.7281  2.9740 -1.8534
  100MOL0     H13787   7.881   3.092   0.075  0.1488 -0.4542  1.1036
  100MOL0     H13788   7.556   2.932  -0.194  1.3488  0.0348  0.5985
  100MOL0     H13789   7.486   2.928  -0.026 -1.6820  1.3767  0.7321
  100MOL0     H13790   7.342   3.066  -0.184  0.7583  1.0938 -1.6144
  100MOL0     H13791   7.478   3.157  -0.224 -1.2341 -1.2027 -1.5420
  100MOL0     H13792   7.384   3.137   0.072 -1.0729  3.2257  2.0151
  100MOL0     H13793   7.477   3.266   0.002  1.0566 -1.0999  1.8211
  100MOL0     H13794   7.256   3.276  -0.161 -1.3548 -3.7711  1.1396
  100MOL0     H13795   7.274   3.368  -0.011 -2.6045  1.7951 -1.5917
  100MOL0     H13796   6.967   3.149   0.121  1.2395 -2.9874  3.8603
  100MOL0     H13797   7.637   2.748  -0.029 -1.7768  3.0248  0.8387
  100MOL0     H13798   7.712   2.531   0.026  0.5872 -2.7083  0.0678
  100MOL0     H13799   7.865   2.535  -0.046 -1.5586  0.1884  0.0553
  100MOL0     H13800   7.869   2.501   0.124  2.9674  0.2108 -0.3245
  101MOL0     O13801   8.256   8.749   6.994 -0.2343  0.0661  0.1738
  101MOL0     C13802   8.178   8.666   7.038 -0.1331 -0.6099 -0.1727
  101MOL0     O13803   8.139   8.552   6.975  0.3496  0.1270  0.1993
  101MOL0     C13804   8.152   8.544   6.834  0.0874 -0.1715 -1.7510
  101MOL0     C13805   8.200   8.430   6.777 -0.5791  0.3325 -0.5341
  101MOL0     C13806   8.194   8.406   6.641 -0.5201 -0.0036  0.5653
  101MOL0     C13807   8.147   8.506   6.553  0.1249  0.3242 -0.9785
  101MOL0     O13808   8.149   8.496   6.412  0.2918 -0.0887 -0.0339
  101MOL0     C13809   8.184   8.367   6.366  0.1761 -0.0002  0.0294
  101MOL0     C13810   8.173   8.334   6.213 -0.0745 -0.2891  1.3676
  101MOL0     C13811   8.192   8.181   6.182  0.5702  0.6666 -0.3000
  101MOL0     C13812   8.219   8.156   6.039 -0.4467  0.2491  0.2166
  101MOL0     C13813   8.283   8.017   6.002  0.7029 -0.8177 -0.4018
  101MOL0     C13814   8.231   7.980   5.860  0.0049 -0.4014  0.0604
  101MOL0     C13815   8.309   7.862   5.799  0.3677  0.0767  0.3643
  101MOL0     C13816   8.458   7.901   5.774 -0.8127  0.2601 -0.4988
  101MOL0     N13817   8.533   7.800   5.705 -0.3496  0.3773 -0.7318
  101MOL0     C13818   8.669   7.770   5.722 -0.4827 -0.4116 -0.0020
  101MOL0     C13819   8.697   7.660   5.650  0.1944 -1.2345  0.0881
  101MOL0     C13820   8.837   7.615   5.650 -0.1999  0.0807  0.4078
  101MOL0     C13821   8.834   7.477   5.710 -0.6813  0.1155  0.3746
  101MOL0     C13822   8.813   7.370   5.603 -0.5922 -0.2624  0.6919
  101MOL0     C13823   8.885   7.237   5.625 -0.8579  0.2667 -0.2817
  101MOL0     O13824   8.877   7.179   5.756  0.5837  0.3848  0.8762
  101MOL0     C13825   8.879   7.041   5.770 -1.7610  1.2039  0.4447
  101MOL0     C13826   8.882   6.942   5.674  0.0159 -0.7605 -0.0958
  101MOL0     C13827   8.899   6.802   5.704 -0.4073  0.0203  0.3028
  101MOL0     C13828   8.889   6.715   5.587  0.2494 -0.6906  0.8858
  101MOL0     C13829   8.891   6.760   5.838 -0.3247  0.1496  0.5992
  101MOL0     C13830   8.898   6.616   5.886 -0.6268  0.1546 -0.2902
  101MOL0     O13831   8.930   6.516   5.794  0.6524 -0.2308 -0.6668
  101MOL0     C13832   8.955   6.389   5.854 -0.3533 -0.0457  0.0768
  101MOL0     C13833   9.065   6.379   5.938 -0.1794 -0.3689 -0.2637
  101MOL0     C13834   9.104   6.243   5.981 -0.3542 -0.6383  0.3246
  101MOL0     C13835   9.031   6.131   5.937  0.5382 -0.1700  0.0151
  101MOL0     O13836   9.065   6.011   5.988 -0.0533 -0.2661 -0.1741
  101MOL0     C13837   8.986   5.890   5.973 -0.1307  0.2596  0.5741
  101MOL0     C13838   9.011   5.797   6.096 -0.4486 -0.0292 -0.8067
  101MOL0     C13839   8.982   5.864   6.231 -0.1036 -0.2447 -0.9371
  101MOL0     C13840   8.928   5.751   6.318  0.3938  0.1239 -0.7894
  101MOL0     C13841   8.867   5.811   6.443 -0.7733 -0.2986  0.3269
  101MOL0     C13842   8.976   5.870   6.540  0.2202 -0.3084 -0.5258
  101MOL0     C13843   8.901   5.936   6.659 -0.5603 -0.0589  0.5957
  101MOL0     C13844   9.004   5.979   6.770 -0.6399 -0.5575  0.4862
  101MOL0    Cl13845   9.120   6.095   6.705  0.3142  0.5601 -0.1334
  101MOL0     C13846   8.938   6.147   5.838  0.3760 -0.5779 -1.3022
  101MOL0     C13847   8.893   6.278   5.799  0.0435  1.1114  0.3867
  101MOL0     O13848   8.836   6.594   5.986 -0.4165  0.0494  0.2308
  101MOL0     C13849   8.896   6.864   5.939 -0.0899  0.3981 -0.2070
  101MOL0     C13850   8.884   6.998   5.904  0.3267  0.6203  0.4906
  101MOL0     N13851   8.575   7.630   5.585  0.0340 -0.3320 -0.6007
  101MOL0     N13852   8.482   7.705   5.621  0.5550 -0.3973  0.2467
  101MOL0     C13853   8.099   8.623   6.616 -0.5671  0.1969  0.3109
  101MOL0     C13854   8.099   8.649   6.752 -0.0257 -0.0637  0.1146
  101MOL0     C13855   8.107   8.703   7.163 -0.3203  0.3227  0.1855
  101MOL0     C13856   8.049   8.599   7.231 -0.0312 -0.0382  0.0447
  101MOL0     C13857   7.986   8.608   7.356  0.2258  0.1700  0.2475
  101MOL0     C13858   7.984   8.733   7.422 -0.2733  0.1837 -0.0138
  101MOL0     O13859   7.923   8.755   7.544 -0.1064 -0.2127 -0.7566
  101MOL0     C13860   7.876   8.645   7.622  0.5414 -0.7018  0.1069
  101MOL0     C13861   7.806   8.695   7.749  0.2348  0.5949  0.4316
  101MOL0     C13862   7.663   8.744   7.715 -0.3595 -0.5444  0.1529
  101MOL0     C13863   7.597   8.806   7.832  0.5729  1.1392  0.2185
  101MOL0     C13864   7.654   8.931   7.875 -0.6068 -0.8004 -0.5364
  101MOL0     C13865   7.706   9.033   7.923 -0.4768 -0.5610 -0.1837
  101MOL0     C13866   8.035   8.841   7.352 -0.2616  0.1407  0.4383
  101MOL0     C13867   8.099   8.830   7.227  0.5387  0.0142 -0.3487
  101MOL0     C13868   8.133   8.958   7.167 -0.2509  0.1643 -0.0793
  101MOL0     H13869   8.251   8.352   6.833  1.3527  1.4595 -0.6271
  101MOL0     H13870   8.212   8.303   6.611 -3.1136  0.5179 -3.6440
  101MOL0     H13871   8.128   8.292   6.422  0.9033 -0.7432 -0.2199
  101MOL0     H13872   8.287   8.340   6.393 -0.0927 -1.2134 -0.1234
  101MOL0     H13873   8.077   8.370   6.175  0.5999  0.4933  0.3446
  101MOL0     H13874   8.253   8.382   6.156 -1.0420  0.0588  0.2877
  101MOL0     H13875   8.274   8.134   6.238 -0.3156 -1.5937 -0.8183
  101MOL0     H13876   8.104   8.122   6.205  1.3660 -0.8795 -1.0582
  101MOL0     H13877   8.121   8.165   5.990 -0.2386 -2.8020 -0.9350
  101MOL0     H13878   8.280   8.234   5.992 -1.0244  0.5576 -0.0445
  101MOL0     H13879   8.255   7.932   6.064 -1.3109 -1.3420 -1.9232
  101MOL0     H13880   8.389   8.043   6.007 -0.1668  3.3808  1.6147
  101MOL0     H13881   8.123   7.970   5.873 -0.3852  2.3561 -0.4183
  101MOL0     H13882   8.245   8.066   5.795  2.9899 -0.8687 -0.0269
  101MOL0     H13883   8.279   7.841   5.696  0.9095  0.7276  0.0647
  101MOL0     H13884   8.297   7.770   5.857  1.2435 -0.5094 -0.3573
  101MOL0     H13885   8.466   7.985   5.704  0.0485  0.9742  0.4267
  101MOL0     H13886   8.504   7.947   5.862 -1.7853 -0.9026  0.6607
  101MOL0     H13887   8.735   7.824   5.788 -0.1426 -2.0022  0.9952
  101MOL0     H13888   8.897   7.678   5.716  0.6960 -2.2661  1.9735
  101MOL0     H13889   8.875   7.596   5.549 -3.4773 -1.6603 -0.6672
  101MOL0     H13890   8.933   7.457   5.750 -1.6787 -1.0464  2.4671
  101MOL0     H13891   8.761   7.462   5.791  0.6694 -2.0199  1.2788
  101MOL0     H13892   8.705   7.353   5.598 -1.0126  2.2282 -0.8012
  101MOL0     H13893   8.845   7.408   5.505  1.5290  1.3553  1.9225
  101MOL0     H13894   8.853   7.174   5.542  0.1172  0.2256 -0.6423
  101MOL0     H13895   8.992   7.255   5.614 -1.2452  3.1237  0.0031
  101MOL0     H13896   8.867   6.974   5.572 -1.0299 -2.4884 -0.5299
  101MOL0     H13897   8.857   6.613   5.611 -0.5166 -0.6593  0.0710
  101MOL0     H13898   8.978   6.724   5.525 -1.0344 -4.3487 -1.8178
  101MOL0     H13899   8.803   6.756   5.533 -0.2908  0.7332  2.7257
  101MOL0     H13900   9.127   6.463   5.966 -0.1993 -0.2566 -0.5475
  101MOL0     H13901   9.186   6.227   6.049  0.7294  1.8653 -0.2950
  101MOL0     H13902   8.881   5.919   5.976  0.4493  2.4166  1.2411
  101MOL0     H13903   9.001   5.841   5.877 -0.5241  1.0393  0.1103
  101MOL0     H13904   8.948   5.709   6.083 -0.7300  0.3393 -1.9904
  101MOL0     H13905   9.114   5.761   6.102 -0.3987  0.2531  0.2933
  101MOL0     H13906   8.904   5.940   6.221  0.4663  0.5193  0.3191
  101MOL0     H13907   9.068   5.906   6.283  1.1449  1.2184 -3.9228
  101MOL0     H13908   9.004   5.685   6.361 -1.4495 -2.2594 -1.0105
  101MOL0     H13909   8.846   5.694   6.273 -0.8469  0.6390  0.7488
  101MOL0     H13910   8.792   5.882   6.407 -2.0693 -1.7572  0.0599
  101MOL0     H13911   8.820   5.722   6.487  0.8210 -0.0161  2.8265
  101MOL0     H13912   9.037   5.951   6.499  0.2877  0.9668  1.8851
  101MOL0     H13913   9.050   5.793   6.561  1.2944  0.8629  0.1502
  101MOL0     H13914   8.829   5.862   6.696  0.3064 -1.7453 -0.9041
  101MOL0     H13915   8.830   6.017   6.642  0.4618  1.0986  1.5987
  101MOL0     H13916   9.069   5.894   6.797  0.7022  0.2401 -0.1242
  101MOL0     H13917   8.949   6.020   6.855  0.6963 -1.1451  1.6943
  101MOL0     H13918   8.864   6.071   5.814 -0.8871 -1.6535  4.4261
  101MOL0     H13919   8.806   6.290   5.735  1.0227  0.4414 -1.1353
  101MOL0     H13920   8.891   6.835   6.043  4.0726 -1.4050 -0.3270
  101MOL0     H13921   8.854   7.070   5.979  0.0055 -1.4198  2.4339
  101MOL0     H13922   8.062   8.707   6.558 -1.2916  1.2630  2.2184
  101MOL0     H13923   8.058   8.747   6.778 -1.3266 -0.6023  0.1435
  101MOL0     H13924   8.040   8.501   7.186 -1.1598 -0.2958  0.7877
  101MOL0     H13925   7.949   8.515   7.398  3.5357 -0.7808  1.4122
  101MOL0     H13926   7.809   8.580   7.565  0.5315 -1.0055  0.4552
  101MOL0     H13927   7.966   8.585   7.643  1.3567  0.0943 -0.9703
  101MOL0     H13928   7.869   8.771   7.797  0.5794  3.1427 -3.5840
  101MOL0     H13929   7.799   8.607   7.813 -2.4937 -0.7988 -1.6232
  101MOL0     H13930   7.671   8.808   7.627  1.5096 -0.4978  0.3253
  101MOL0     H13931   7.602   8.655   7.696 -3.3679  0.1516  4.7204
  101MOL0     H13932   7.596   8.731   7.911 -0.2772  0.6295 -0.2608
  101MOL0     H13933   7.491   8.826   7.814 -0.0417  0.2186  2.4958
  101MOL0     H13934   7.759   9.116   7.964 -0.1029 -0.4658 -0.8351
  101MOL0     H13935   8.019   8.938   7.398  0.8176  1.8596 -2.4685
  101MOL0     H13936   8.041   8.994   7.119 -0.7691 -0.9886  0.0107
  101MOL0     H13937   8.173   9.020   7.248  1.0335  0.9168 -1.2634
  101MOL0     H13938   8.211   8.956   7.091 -1.5391 -1.3073 -1.4406
  102MOL0     O13939   5.778   3.881   8.209  0.2922 -0.0534 -0.2360
  102MOL0     C13940   5.846   3.921   8.115  0.9530 -0.9012  1.1685
  102MOL0     O13941   5.955   3.863   8.066 -0.1255  0.5830 -0.2281
  102MOL0     C13942   5.974   3.727   8.083 -0.6948 -0.2744 -0.6095
  102MOL0     C13943   6.101   3.687   8.098  0.2085  0.2015 -0.3230
  102MOL0     C13944   6.127   3.547   8.120 -0.9896  0.0003 -0.4976
  102MOL0     C13945   6.030   3.456   8.092 -0.1836  1.4944 -0.0093
  102MOL0     O13946   6.062   3.324   8.098 -0.1530  1.0506 -0.7061
  102MOL0     C13947   6.199   3.284   8.119 -0.0590  0.5109 -0.2951
  102MOL0     C13948   6.201   3.132   8.106 -0.1978 -0.0473  0.5193
  102MOL0     C13949   6.337   3.079   8.068 -0.1884 -0.5724  0.8137
  102MOL0     C13950   6.363   2.932   8.106  0.2356 -0.0352  0.3289
  102MOL0     C13951   6.481   2.869   8.037 -0.7054  0.2977  0.0743
  102MOL0     C13952   6.494   2.867   7.889  0.2206 -0.4076 -0.7169
  102MOL0     C13953   6.603   2.779   7.840  0.4690  0.0370 -0.5306
  102MOL0     C13954   6.625   2.803   7.690  0.0561 -0.2074  0.6951
  102MOL0     N13955   6.766   2.790   7.663  0.7146  0.7501  0.1550
  102MOL0     C13956   6.826   2.671   7.685  1.7597  0.0656 -0.7470
  102MOL0     C13957   6.961   2.690   7.676  0.3937 -0.0763 -0.0164
  102MOL0     C13958   7.091   2.602   7.680 -0.2220 -0.3169 -0.1567
  102MOL0     C13959   7.088   2.500   7.562 -0.5023  0.4316  1.1229
  102MOL0     C13960   7.213   2.410   7.569  0.2007 -0.3276 -0.0773
  102MOL0     C13961   7.173   2.274   7.623 -0.0395 -0.1219 -0.0174
  102MOL0     O13962   7.093   2.213   7.525 -0.7114  0.3842  0.2763
  102MOL0     C13963   7.071   2.075   7.545 -0.3982 -0.3385  0.4036
  102MOL0     C13964   7.100   2.004   7.657 -0.1316 -0.9392 -0.4023
  102MOL0     C13965   7.058   1.873   7.677 -0.5884  0.6256 -0.0185
  102MOL0     C13966   7.108   1.795   7.798 -0.1485 -0.0985  0.6414
  102MOL0     C13967   6.975   1.812   7.579  0.1146  0.1031  0.3984
  102MOL0     C13968   6.922   1.675   7.593 -0.9838  0.5236 -0.5630
  102MOL0     O13969   6.829   1.637   7.499  0.0837  0.4615 -0.0163
  102MOL0     C13970   6.799   1.506   7.484 -0.7313  0.4549 -0.0348
  102MOL0     C13971   6.898   1.401   7.494  0.0950 -0.0651 -0.9148
  102MOL0     C13972   6.854   1.275   7.488  1.1541  0.8983 -0.0055
  102MOL0     C13973   6.719   1.240   7.446 -0.7756  0.0689 -0.2413
  102MOL0     O13974   6.680   1.117   7.412 -0.7241  0.9174 -0.3836
  102MOL0     C13975   6.716   1.017   7.511  0.5117 -0.4875  0.1320
  102MOL0     C13976   6.657   0.883   7.460  0.7934  1.0116 -0.1147
  102MOL0     C13977   6.720   0.838   7.337 -1.1304 -0.6264  0.7367
  102MOL0     C13978   6.699   0.684   7.309  0.6989 -0.4134 -0.7061
  102MOL0     C13979   6.750   0.639   7.169  0.2325  0.3583  0.3002
  102MOL0     C13980   6.902   0.632   7.175 -0.5697  0.3274  0.7985
  102MOL0     C13981   6.964   0.588   7.038 -0.1153  0.7673 -0.4863
  102MOL0     C13982   7.106   0.608   7.032 -0.2891  0.5636 -0.0659
  102MOL0    Cl13983   7.192   0.471   7.098 -0.3015 -0.2822 -0.4296
  102MOL0     C13984   6.628   1.344   7.424 -0.4293  0.0060  0.1501
  102MOL0     C13985   6.666   1.479   7.445 -0.2475  0.5310 -0.0260
  102MOL0     O13986   6.945   1.606   7.689  0.1508  0.8236 -0.4722
  102MOL0     C13987   6.952   1.890   7.459 -0.3276  0.6401  0.0791
  102MOL0     C13988   7.004   2.017   7.440  0.1530  0.8574 -0.7601
  102MOL0     N13989   6.976   2.821   7.630 -0.8858 -0.1606  0.7012
  102MOL0     N13990   6.860   2.882   7.631 -0.2837 -0.4517  0.6696
  102MOL0     C13991   5.899   3.494   8.062  0.5493  0.1204  0.7215
  102MOL0     C13992   5.876   3.633   8.054  0.3003 -0.0118  0.8891
  102MOL0     C13993   5.817   4.061   8.064  0.4916 -0.0726  0.1847
  102MOL0     C13994   5.925   4.139   8.036 -0.1440 -0.1558 -1.1761
  102MOL0     C13995   5.911   4.278   8.014  0.0474  0.4343  0.4063
  102MOL0     C13996   5.788   4.335   7.997 -0.2316 -0.1873  0.1102
  102MOL0     O13997   5.762   4.471   7.971 -0.0151 -0.1832  0.0998
  102MOL0     C13998   5.866   4.561   8.013  0.1562 -0.4691  0.0861
  102MOL0     C13999   5.810   4.697   8.056  0.0836  0.1942 -0.3238
  102MOL0     C14000   5.747   4.686   8.194 -0.5797 -0.0718  0.2906
  102MOL0     C14001   5.706   4.821   8.269  0.0598  0.7654 -0.4320
  102MOL0     C14002   5.587   4.891   8.214 -0.7195 -0.4625 -0.9416
  102MOL0     C14003   5.492   4.955   8.176 -0.3373 -0.3273 -0.6097
  102MOL0     C14004   5.671   4.252   8.008 -0.2774  0.6047 -0.1054
  102MOL0     C14005   5.686   4.113   8.040  0.2873 -0.0774  0.2991
  102MOL0     C14006   5.558   4.033   8.032  1.0996  0.2630  0.2902
  102MOL0     H14007   6.181   3.760   8.103 -1.1627  1.7492 -0.2439
  102MOL0     H14008   6.232   3.526   8.138 -0.1487  3.8066 -0.0737
  102MOL0     H14009   6.239   3.307   8.219 -0.9459 -0.3513  0.2722
  102MOL0     H14010   6.268   3.317   8.041 -0.6977  0.1068 -1.0487
  102MOL0     H14011   6.176   3.093   8.205 -1.0433  1.0890  0.7797
  102MOL0     H14012   6.118   3.106   8.039  0.1433  0.3335 -0.0552
  102MOL0     H14013   6.338   3.097   7.960  0.6508  2.4781  1.2230
  102MOL0     H14014   6.411   3.142   8.118 -0.4764 -0.0817  0.6317
  102MOL0     H14015   6.366   2.915   8.214 -0.4513  4.0358  1.1324
  102MOL0     H14016   6.272   2.885   8.068 -2.5781  2.9032  2.8838
  102MOL0     H14017   6.479   2.765   8.069  0.5511  0.8657  2.1892
  102MOL0     H14018   6.575   2.912   8.072  0.0428 -2.2383  1.3998
  102MOL0     H14019   6.400   2.842   7.838 -1.4852 -1.1093  2.5082
  102MOL0     H14020   6.514   2.971   7.861 -0.4155  0.1350  0.7287
  102MOL0     H14021   6.593   2.672   7.859 -2.1696 -0.4084 -3.5966
  102MOL0     H14022   6.690   2.809   7.899 -0.5570 -0.8052  1.5153
  102MOL0     H14023   6.561   2.741   7.627 -1.4677  2.1360 -0.2009
  102MOL0     H14024   6.597   2.905   7.661  3.6100  1.1445  1.4957
  102MOL0     H14025   6.766   2.581   7.696 -0.4161  1.5990  0.6981
  102MOL0     H14026   7.093   2.542   7.772 -1.1877  0.7200  0.5602
  102MOL0     H14027   7.180   2.665   7.689  0.9803 -2.2248  3.7363
  102MOL0     H14028   6.992   2.448   7.555  0.7145 -1.9703  1.3583
  102MOL0     H14029   7.089   2.554   7.467 -1.2916 -0.8019  0.3840
  102MOL0     H14030   7.264   2.400   7.473  1.4114  2.6059  0.1740
  102MOL0     H14031   7.294   2.448   7.632  0.2910 -0.9958  0.2149
  102MOL0     H14032   7.261   2.214   7.647 -0.7845 -0.4544  2.0904
  102MOL0     H14033   7.123   2.298   7.717  3.1443 -1.4647  2.1762
  102MOL0     H14034   7.150   2.057   7.738  1.0790  0.2072 -1.8585
  102MOL0     H14035   7.032   1.774   7.873 -0.9299 -2.6634 -0.7482
  102MOL0     H14036   7.186   1.856   7.844 -4.0595  3.2220  3.5524
  102MOL0     H14037   7.148   1.698   7.764  0.3531  0.7986 -1.4783
  102MOL0     H14038   6.999   1.428   7.521  0.0952 -1.1775  0.2895
  102MOL0     H14039   6.927   1.196   7.496  1.6051  0.9790 -2.3746
  102MOL0     H14040   6.824   1.010   7.527  0.4471 -0.9182  0.3835
  102MOL0     H14041   6.666   1.045   7.604 -0.5377  0.3266 -0.6575
  102MOL0     H14042   6.672   0.810   7.539  0.3633  0.0810 -0.8815
  102MOL0     H14043   6.550   0.884   7.438  1.0792  0.0374 -1.6574
  102MOL0     H14044   6.829   0.844   7.349 -0.9700 -0.1949 -0.6884
  102MOL0     H14045   6.696   0.896   7.247 -1.1959 -0.6844  0.7170
  102MOL0     H14046   6.590   0.671   7.310  0.6415 -0.1365  1.2139
  102MOL0     H14047   6.759   0.629   7.382  1.9504  2.0670  0.2529
  102MOL0     H14048   6.727   0.537   7.135  1.5426  0.7373 -1.8535
  102MOL0     H14049   6.708   0.690   7.083 -0.0813 -1.2801 -0.5635
  102MOL0     H14050   6.937   0.566   7.255  0.9031  0.3580  0.2149
  102MOL0     H14051   6.950   0.728   7.201  2.8064 -1.7482  3.0405
  102MOL0     H14052   6.922   0.647   6.956 -0.0834 -1.3506 -2.1043
  102MOL0     H14053   6.936   0.483   7.030  0.2673  0.5342  0.9720
  102MOL0     H14054   7.127   0.707   7.074 -0.7008 -0.6345  3.3071
  102MOL0     H14055   7.149   0.606   6.932  2.6770  2.5533  1.0278
  102MOL0     H14056   6.532   1.327   7.376 -0.3328 -0.9932  0.2920
  102MOL0     H14057   6.598   1.561   7.425  0.2606  0.8279 -0.5812
  102MOL0     H14058   6.899   1.850   7.373 -3.9210  1.4465  1.7045
  102MOL0     H14059   7.009   2.072   7.346  0.3540  0.6730 -0.8592
  102MOL0     H14060   5.827   3.419   8.032  2.1110 -0.2233 -2.6397
  102MOL0     H14061   5.784   3.681   8.023  0.6987  0.6640  0.7459
  102MOL0     H14062   6.025   4.098   8.033  1.2489  2.3597  2.7431
  102MOL0     H14063   6.005   4.331   8.012 -0.2755  1.0194 -1.4232
  102MOL0     H14064   5.927   4.527   8.097  0.9363 -1.5218 -0.8754
  102MOL0     H14065   5.943   4.574   7.936  0.7071 -1.9109  0.3782
  102MOL0     H14066   5.747   4.730   7.973  2.5547 -0.7683 -2.7300
  102MOL0     H14067   5.884   4.778   8.062  0.1110  0.0885  1.2388
  102MOL0     H14068   5.655   4.627   8.185 -0.4941 -0.5328  2.0970
  102MOL0     H14069   5.811   4.626   8.259 -2.9217 -0.5064  2.3635
  102MOL0     H14070   5.795   4.884   8.272  0.9014 -0.4400  1.4137
  102MOL0     H14071   5.681   4.795   8.372 -2.2088 -1.1267 -1.3516
  102MOL0     H14072   5.399   5.006   8.162 -0.7660  0.4586  3.7335
  102MOL0     H14073   5.575   4.301   7.992 -0.8053  0.0634  1.2832
  102MOL0     H14074   5.547   3.990   7.932  2.3996 -0.6640  0.5265
  102MOL0     H14075   5.563   3.944   8.096  1.6842 -0.2236 -0.4174
  102MOL0     H14076   5.475   4.095   8.067  0.0976 -0.6598 -0.4067
  103MOL0     O14077   5.216   8.035   8.726  1.1734 -0.9759 -0.5497
  103MOL0     C14078   5.203   7.940   8.655 -1.1161 -0.7469 -0.8802
  103MOL0     O14079   5.204   7.938   8.519  0.7568 -0.0894 -0.3301
  103MOL0     C14080   5.206   8.059   8.449  0.1597 -0.0769  0.0114
  103MOL0     C14081   5.314   8.142   8.434 -0.1252 -0.4521  0.4212
  103MOL0     C14082   5.306   8.242   8.344  0.3066 -0.0822  0.0127
  103MOL0     C14083   5.194   8.269   8.261  0.0646  0.6190  0.3632
  103MOL0     O14084   5.211   8.385   8.179  0.6281  0.0349 -1.0039
  103MOL0     C14085   5.100   8.425   8.098  0.7819 -0.1845 -0.9163
  103MOL0     C14086   5.135   8.529   7.994  0.3457  0.5264 -0.4302
  103MOL0     C14087   5.213   8.650   8.067  0.1894  0.1377 -0.2537
  103MOL0     C14088   5.211   8.759   7.957 -0.1966 -0.2450  0.8939
  103MOL0     C14089   5.235   8.901   8.010  0.6284 -0.3931 -0.2813
  103MOL0     C14090   5.193   9.025   7.916  0.0380  0.2929 -0.0214
  103MOL0     C14091   5.283   9.032   7.784 -0.8793  0.3632 -0.1402
  103MOL0     C14092   5.220   9.010   7.648  0.0895 -0.3330  0.7519
  103MOL0     N14093   5.301   9.066   7.536 -0.5354  0.8732  1.0787
  103MOL0     C14094   5.430   9.034   7.499 -0.2351 -0.4882 -0.5990
  103MOL0     C14095   5.458   9.114   7.396 -0.2371  0.6400  0.2525
  103MOL0     C14096   5.590   9.123   7.327  0.1033  0.1137  0.3848
  103MOL0     C14097   5.585   9.047   7.188  0.2813  0.8876 -0.8137
  103MOL0     C14098   5.707   9.057   7.104  0.1443 -0.3136  0.4603
  103MOL0     C14099   5.840   9.013   7.172  0.5806 -0.8280  0.3835
  103MOL0     O14100   5.945   8.991   7.077  0.1046  0.8175 -0.6305
  103MOL0     C14101   6.042   9.082   7.092 -0.4846  0.0755  0.1293
  103MOL0     C14102   6.028   9.219   7.130 -0.4745  0.2135  0.4088
  103MOL0     C14103   6.137   9.307   7.141  0.0692 -0.2157 -0.5960
  103MOL0     C14104   6.104   9.449   7.195 -0.5200  0.1668  0.7157
  103MOL0     C14105   6.266   9.251   7.122 -0.2195 -0.5019  1.4046
  103MOL0     C14106   6.392   9.337   7.126  1.0803  1.0523 -0.5810
  103MOL0     O14107   6.496   9.290   7.047  0.6043  0.5956  0.8151
  103MOL0     C14108   6.607   9.361   7.041 -0.4546  1.1314 -0.0638
  103MOL0     C14109   6.626   9.476   6.961  0.0507 -0.2131 -0.7031
  103MOL0     C14110   6.742   9.550   6.974 -0.2948 -0.1234 -0.2826
  103MOL0     C14111   6.848   9.517   7.059 -0.1184  0.6449 -1.2034
  103MOL0     O14112   6.952   9.608   7.088 -0.1562  0.3092  0.0434
  103MOL0     C14113   7.056   9.582   7.181 -0.3557  0.1496 -0.0557
  103MOL0     C14114   7.162   9.685   7.131 -0.3676 -0.2142  0.0268
  103MOL0     C14115   7.130   9.836   7.151 -0.2667 -0.6956 -0.1240
  103MOL0     C14116   7.157   9.890   7.294  0.5690  0.8869 -0.0864
  103MOL0     C14117   7.134  10.040   7.292  0.0532 -0.4161 -0.1765
  103MOL0     C14118   7.133  10.093   7.435  0.0598  0.4850  0.4211
  103MOL0     C14119   7.258  10.074   7.536  0.4244  0.5033  0.3455
  103MOL0     C14120   7.393  10.125   7.474 -0.1614 -0.1278  0.1192
  103MOL0    Cl14121   7.469  10.018   7.357 -0.1288 -0.0701  0.4177
  103MOL0     C14122   6.840   9.391   7.118  1.0947 -0.1845 -0.5577
  103MOL0     C14123   6.721   9.314   7.119 -0.9293 -0.8597  0.2375
  103MOL0     O14124   6.396   9.431   7.207 -0.1732 -0.0482  0.3724
  103MOL0     C14125   6.279   9.109   7.086 -0.8674 -0.4216  0.4542
  103MOL0     C14126   6.172   9.035   7.074 -0.1770  0.6862 -0.1807
  103MOL0     N14127   5.342   9.190   7.369  0.1363  0.0401 -0.2408
  103MOL0     N14128   5.251   9.150   7.443  0.2591  0.1772 -0.4692
  103MOL0     C14129   5.082   8.189   8.280  0.3317  0.0590 -0.6664
  103MOL0     C14130   5.089   8.083   8.376  0.3380 -0.5452  1.1598
  103MOL0     C14131   5.213   7.821   8.738  0.1827  0.0201 -0.6293
  103MOL0     C14132   5.123   7.810   8.852 -0.1489 -0.0859 -0.5684
  103MOL0     C14133   5.112   7.687   8.921  0.8450  0.6391  0.4320
  103MOL0     C14134   5.194   7.571   8.888 -0.5443 -1.1606 -0.4300
  103MOL0     O14135   5.174   7.458   8.956 -0.1828  0.4920  0.2540
  103MOL0     C14136   5.243   7.335   8.902  0.3772  0.3889 -0.0486
  103MOL0     C14137   5.241   7.232   9.013  0.1487  0.5416 -0.2870
  103MOL0     C14138   5.364   7.138   9.018 -0.4916 -0.0157 -0.2941
  103MOL0     C14139   5.365   7.044   9.145  0.2189 -0.4369 -0.1798
  103MOL0     C14140   5.349   7.118   9.266 -0.6925 -0.2153  0.0862
  103MOL0     C14141   5.322   7.168   9.372  0.9365 -0.2847  0.2413
  103MOL0     C14142   5.280   7.578   8.778  0.0515  0.3704 -0.1794
  103MOL0     C14143   5.286   7.698   8.696 -0.4335  0.5418  0.9569
  103MOL0     C14144   5.371   7.699   8.573 -0.5258  0.1840 -0.4512
  103MOL0     H14145   5.402   8.113   8.491 -0.1059  0.0234  0.6338
  103MOL0     H14146   5.393   8.305   8.326 -0.4715  1.5273  1.4907
  103MOL0     H14147   5.024   8.458   8.169  1.6054 -0.6017  0.2042
  103MOL0     H14148   5.070   8.334   8.046  4.1969 -1.5898 -0.7461
  103MOL0     H14149   5.195   8.483   7.914 -0.0876  0.4877 -0.7369
  103MOL0     H14150   5.042   8.559   7.943  0.2731 -1.2752 -1.4480
  103MOL0     H14151   5.157   8.690   8.152 -2.2961 -1.9635 -0.7551
  103MOL0     H14152   5.318   8.626   8.086  0.3905  1.5297  0.4925
  103MOL0     H14153   5.288   8.749   7.880 -0.7095  0.6777  0.2400
  103MOL0     H14154   5.125   8.769   7.890 -1.1670  4.0595  2.4335
  103MOL0     H14155   5.339   8.913   8.039  0.2499  2.5936  0.1837
  103MOL0     H14156   5.166   8.917   8.093 -1.6409  2.1543 -2.4421
  103MOL0     H14157   5.085   9.013   7.900  0.2866 -0.4671 -1.2117
  103MOL0     H14158   5.215   9.117   7.972 -0.4538  0.8323 -0.6896
  103MOL0     H14159   5.370   8.966   7.784 -2.4153 -1.7608 -0.0069
  103MOL0     H14160   5.305   9.138   7.768 -2.7835  0.9724  0.9995
  103MOL0     H14161   5.202   8.904   7.626  2.5404 -1.1621  2.2245
  103MOL0     H14162   5.128   9.069   7.645  0.2649  0.1163  2.8225
  103MOL0     H14163   5.489   8.956   7.547 -0.4080 -0.2241  0.0621
  103MOL0     H14164   5.672   9.078   7.383  1.6418  2.9109  0.5730
  103MOL0     H14165   5.606   9.230   7.311 -2.4148  0.3271 -1.4430
  103MOL0     H14166   5.563   8.942   7.209 -1.5446  1.6394  1.4368
  103MOL0     H14167   5.503   9.090   7.131  0.3882  1.3341 -0.6347
  103MOL0     H14168   5.691   8.992   7.017 -1.6122  1.2088 -0.4432
  103MOL0     H14169   5.716   9.161   7.070 -1.8880 -0.7002 -1.5513
  103MOL0     H14170   5.854   9.089   7.250  1.9399 -1.2537  0.5767
  103MOL0     H14171   5.822   8.922   7.230 -1.1398 -0.8670 -0.1573
  103MOL0     H14172   5.928   9.257   7.148 -0.5167 -0.6016  2.0419
  103MOL0     H14173   6.131   9.456   7.301  0.5137  1.0866  0.4027
  103MOL0     H14174   6.002   9.481   7.172  0.7264  1.2661 -4.6071
  103MOL0     H14175   6.175   9.515   7.144  1.7569 -1.0459  2.1400
  103MOL0     H14176   6.543   9.514   6.903  1.1518  1.1635 -1.4326
  103MOL0     H14177   6.747   9.648   6.929  0.6133 -1.0953 -2.4506
  103MOL0     H14178   7.019   9.623   7.275 -1.7617 -0.0292 -0.5140
  103MOL0     H14179   7.084   9.476   7.189 -0.5682  0.0510 -0.5357
  103MOL0     H14180   7.256   9.660   7.182 -0.3669  1.0361  0.6954
  103MOL0     H14181   7.184   9.677   7.024  3.4965  2.6574  0.4000
  103MOL0     H14182   7.023   9.851   7.136 -0.2670 -1.4714 -1.0080
  103MOL0     H14183   7.189   9.889   7.076  0.8963 -2.6272 -0.6684
  103MOL0     H14184   7.260   9.871   7.326 -0.2660 -2.1582  1.1145
  103MOL0     H14185   7.094   9.841   7.368  0.2272  1.6406  0.1339
  103MOL0     H14186   7.215  10.091   7.240  1.0238  3.4582  4.4209
  103MOL0     H14187   7.036  10.061   7.248 -0.1067 -2.9218 -1.1575
  103MOL0     H14188   7.041  10.069   7.488  0.5908 -0.3933  0.9843
  103MOL0     H14189   7.127  10.200   7.414 -3.9501  0.8945  2.6558
  103MOL0     H14190   7.267   9.966   7.550 -4.4501  0.0821  1.8333
  103MOL0     H14191   7.236  10.130   7.627 -2.0085  0.0014  0.1244
  103MOL0     H14192   7.472  10.136   7.549  1.2410 -0.1072 -1.3007
  103MOL0     H14193   7.368  10.226   7.439 -3.1223 -0.3430  1.3156
  103MOL0     H14194   6.932   9.361   7.166  0.3009  0.3970  1.4438
  103MOL0     H14195   6.703   9.216   7.162 -0.1241 -0.3009  1.9357
  103MOL0     H14196   6.373   9.064   7.057  0.5274  2.4002  0.2208
  103MOL0     H14197   6.187   8.934   7.038  1.0804  0.8789 -0.2251
  103MOL0     H14198   4.990   8.182   8.223 -1.4708 -1.4276  2.1733
  103MOL0     H14199   5.016   8.004   8.364 -0.3766  0.2166  0.2813
  103MOL0     H14200   5.067   7.891   8.896  2.3574  0.4624  1.8982
  103MOL0     H14201   5.041   7.670   9.001 -0.7779 -0.4340 -1.1348
  103MOL0     H14202   5.189   7.296   8.815 -0.3772 -1.3644  1.1406
  103MOL0     H14203   5.350   7.343   8.882  0.4137 -1.6214 -0.8639
  103MOL0     H14204   5.152   7.169   9.004 -0.2628  1.0153  0.3786
  103MOL0     H14205   5.235   7.298   9.100 -0.3026  1.9192 -1.3346
  103MOL0     H14206   5.355   7.075   8.929  1.5425 -0.4302 -0.2356
  103MOL0     H14207   5.452   7.202   9.018  0.0261 -0.7215 -0.6516
  103MOL0     H14208   5.459   6.990   9.159 -0.9784 -1.9000  3.3867
  103MOL0     H14209   5.284   6.971   9.141 -1.5574  1.4789 -0.5831
  103MOL0     H14210   5.270   7.220   9.450 -0.0210  3.4709 -2.6060
  103MOL0     H14211   5.341   7.493   8.750 -0.8735  0.0398 -1.2845
  103MOL0     H14212   5.413   7.598   8.569  0.0112  0.4435 -1.8019
  103MOL0     H14213   5.317   7.722   8.481 -0.7000 -4.2227 -1.6583
  103MOL0     H14214   5.460   7.756   8.604 -0.4086 -0.5838  0.6925
  104MOL0     O14215  11.185   0.167   7.065 -0.4174  0.0010  0.3413
  104MOL0     C14216  11.257   0.247   7.128  1.0952  0.1964  1.4036
  104MOL0     O14217  11.217   0.324   7.225  0.0305 -0.5342  0.7115
  104MOL0     C14218  11.087   0.324   7.272 -0.4023 -0.4404 -0.2803
  104MOL0     C14219  11.022   0.456   7.295 -0.0838 -0.3674 -1.2693
  104MOL0     C14220  10.893   0.467   7.337  0.3834  0.3628 -0.4279
  104MOL0     C14221  10.815   0.359   7.350  0.3665  0.9319  1.1422
  104MOL0     O14222  10.678   0.368   7.374  0.5925 -0.1575  0.0712
  104MOL0     C14223  10.596   0.256   7.409  0.2587 -0.8986  0.0313
  104MOL0     C14224  10.453   0.307   7.449  0.0237  0.0993 -0.0405
  104MOL0     C14225  10.352   0.193   7.446  0.5152  0.3316 -0.7059
  104MOL0     C14226  10.381   0.066   7.528  0.3518  0.0927 -0.4008
  104MOL0     C14227  10.270  -0.051   7.509  0.0967  0.6777  0.4924
  104MOL0     C14228  10.299  -0.187   7.576 -0.6680 -0.5119 -0.7171
  104MOL0     C14229  10.182  -0.275   7.609  0.7069  0.2209 -0.2198
  104MOL0     C14230  10.096  -0.318   7.487 -0.4621  0.2709  0.3844
  104MOL0     N14231  10.181  -0.402   7.399 -0.2973 -0.1675  0.9301
  104MOL0     C14232  10.240  -0.526   7.432 -0.0406 -0.8589  0.0637
  104MOL0     C14233  10.339  -0.540   7.345 -1.4341  0.2151  1.2804
  104MOL0     C14234  10.436  -0.653   7.341  0.5228 -0.5406  0.3835
  104MOL0     C14235  10.471  -0.718   7.478 -0.2785  0.7756 -0.1707
  104MOL0     C14236  10.565  -0.631   7.558 -0.0809  0.1885 -1.0245
  104MOL0     C14237  10.712  -0.617   7.519  0.1193 -0.8048 -0.0543
  104MOL0     O14238  10.803  -0.666   7.614 -0.1594 -0.4100 -0.6660
  104MOL0     C14239  10.937  -0.656   7.586 -0.4729  0.3042  0.3266
  104MOL0     C14240  11.019  -0.699   7.691  0.3784  0.3691  1.3141
  104MOL0     C14241  11.163  -0.681   7.676 -0.1645  0.3519 -0.1121
  104MOL0     C14242  11.244  -0.737   7.795 -0.4478  0.6020  0.7068
  104MOL0     C14243  11.222  -0.626   7.557  0.3297  1.0834  0.8806
  104MOL0     C14244  11.368  -0.621   7.526  0.6519 -0.5969  1.1024
  104MOL0     O14245  11.471  -0.622   7.627  0.8236 -0.2522  0.4354
  104MOL0     C14246  11.593  -0.564   7.597  0.4498  0.6926  0.0392
  104MOL0     C14247  11.676  -0.599   7.492  0.1207  0.2338 -0.1897
  104MOL0     C14248  11.803  -0.544   7.462  0.1758 -0.2414  0.7450
  104MOL0     C14249  11.852  -0.456   7.557  0.4907  0.1015  0.6257
  104MOL0     O14250  11.963  -0.380   7.557  0.4054  0.1748  0.3906
  104MOL0     C14251  12.087  -0.455   7.553  0.5270  0.3583  0.3526
  104MOL0     C14252  12.215  -0.375   7.597 -0.4686 -0.1218 -0.1378
  104MOL0     C14253  12.226  -0.259   7.509  0.0407 -0.3684  0.2241
  104MOL0     C14254  12.354  -0.173   7.536  0.6211 -0.3054 -0.1858
  104MOL0     C14255  12.430  -0.157   7.404  0.6216  0.1840  0.2427
  104MOL0     C14256  12.357  -0.073   7.297  0.4318 -1.2504 -0.0521
  104MOL0     C14257  12.325   0.072   7.350  0.0073 -0.2129  0.3018
  104MOL0     C14258  12.293   0.168   7.231  0.5708  0.4902 -0.7544
  104MOL0    Cl14259  12.429   0.203   7.110 -0.0455 -0.1486  0.2740
  104MOL0     C14260  11.773  -0.430   7.664  0.3301 -0.4228 -0.4255
  104MOL0     C14261  11.651  -0.482   7.680 -0.2224  0.1913 -1.2932
  104MOL0     O14262  11.386  -0.589   7.407 -0.3693 -0.2225 -0.9243
  104MOL0     C14263  11.133  -0.607   7.447 -0.2860 -0.0157 -0.2142
  104MOL0     C14264  10.996  -0.613   7.463  0.3452  0.2587  0.0010
  104MOL0     N14265  10.339  -0.436   7.256  0.7009 -0.8299  0.0557
  104MOL0     N14266  10.244  -0.349   7.287 -0.1458  0.2073  0.2345
  104MOL0     C14267  10.874   0.230   7.335  0.2919 -0.1032  0.0623
  104MOL0     C14268  11.004   0.220   7.292 -0.0034 -0.0236 -0.6546
  104MOL0     C14269  11.387   0.287   7.063  0.3692  0.9363  0.7596
  104MOL0     C14270  11.473   0.176   7.044  0.4496  0.0624  0.0500
  104MOL0     C14271  11.606   0.186   6.979 -0.4083  0.2641 -0.5017
  104MOL0     C14272  11.644   0.313   6.934  0.2585  0.4352  0.0955
  104MOL0     O14273  11.768   0.326   6.867 -0.2245 -0.9981 -0.3851
  104MOL0     C14274  11.840   0.452   6.881  0.2122  0.5716 -0.6427
  104MOL0     C14275  11.985   0.410   6.852  0.8747  0.5433  0.2403
  104MOL0     C14276  12.079   0.528   6.859 -0.7106 -0.3995  0.6792
  104MOL0     C14277  12.204   0.476   6.793 -0.6186 -0.4717 -0.1661
  104MOL0     C14278  12.297   0.591   6.777  0.2487 -0.1534 -0.4843
  104MOL0     C14279  12.363   0.685   6.765  0.3660 -0.4061 -0.4830
  104MOL0     C14280  11.562   0.431   6.974 -0.1373  0.1639  0.7588
  104MOL0     C14281  11.437   0.416   7.041 -0.0412 -0.1789 -0.8858
  104MOL0     C14282  11.350   0.537   7.056  0.7092 -0.3978  0.4692
  104MOL0     H14283  11.061   0.553   7.266  1.6355  0.3466  2.7315
  104MOL0     H14284  10.839   0.558   7.362 -1.6707 -0.5374 -1.3708
  104MOL0     H14285  10.632   0.190   7.488 -0.9173 -2.3175 -0.5657
  104MOL0     H14286  10.602   0.191   7.321  1.9006 -1.2395  0.3717
  104MOL0     H14287  10.451   0.359   7.545 -2.3932  0.4368 -0.2216
  104MOL0     H14288  10.428   0.375   7.367  0.6719  2.0758  1.3390
  104MOL0     H14289  10.253   0.226   7.479  1.3966  0.8317  1.6302
  104MOL0     H14290  10.344   0.169   7.339 -2.2359 -0.9221 -0.2944
  104MOL0     H14291  10.475   0.022   7.495 -1.2828 -3.0274 -1.2974
  104MOL0     H14292  10.392   0.094   7.633  0.5052 -1.6605  0.0750
  104MOL0     H14293  10.251  -0.053   7.401  0.8807  2.0764  0.3031
  104MOL0     H14294  10.176  -0.022   7.557  0.9909 -0.7698  3.3042
  104MOL0     H14295  10.370  -0.241   7.512 -0.5933 -0.7248 -0.4588
  104MOL0     H14296  10.341  -0.162   7.674 -0.7822  0.1291 -0.8322
  104MOL0     H14297  10.110  -0.220   7.671 -2.2090 -2.1435 -1.2106
  104MOL0     H14298  10.215  -0.357   7.673  2.1901  2.6350  2.3318
  104MOL0     H14299  10.014  -0.384   7.516 -1.1888  1.5022  1.1881
  104MOL0     H14300  10.052  -0.236   7.431 -2.7247  1.0395  3.0871
  104MOL0     H14301  10.216  -0.588   7.517  1.8688 -1.8793 -0.0773
  104MOL0     H14302  10.525  -0.627   7.282 -1.6320 -0.2703 -3.0505
  104MOL0     H14303  10.396  -0.731   7.275  0.7742  0.4057 -0.9440
  104MOL0     H14304  10.388  -0.739   7.546  0.9242 -1.6296  0.6712
  104MOL0     H14305  10.517  -0.815   7.458  0.4801  0.6482  1.9403
  104MOL0     H14306  10.505  -0.544   7.587 -1.8112 -1.6706  1.4020
  104MOL0     H14307  10.586  -0.680   7.653 -1.5018  1.6046  0.0667
  104MOL0     H14308  10.725  -0.658   7.419  0.6242  0.4429 -0.5246
  104MOL0     H14309  10.730  -0.509   7.520 -3.1957 -0.1469  0.2123
  104MOL0     H14310  10.970  -0.738   7.779 -0.1734 -1.7737  0.1395
  104MOL0     H14311  11.228  -0.679   7.887  1.6220 -0.9667  2.1507
  104MOL0     H14312  11.352  -0.754   7.782 -0.9675 -1.6676 -1.2912
  104MOL0     H14313  11.203  -0.837   7.806  0.3595  0.2077  0.1927
  104MOL0     H14314  11.641  -0.682   7.431 -0.1247  0.6046 -0.5652
  104MOL0     H14315  11.865  -0.574   7.378 -0.5476 -2.3388  0.9167
  104MOL0     H14316  12.078  -0.541   7.620 -0.8360 -1.0111 -1.4988
  104MOL0     H14317  12.090  -0.488   7.448 -1.0625  0.5760  0.2212
  104MOL0     H14318  12.205  -0.339   7.701 -2.1778  1.0339 -0.6573
  104MOL0     H14319  12.307  -0.434   7.595 -0.7677 -0.6764  1.2670
  104MOL0     H14320  12.138  -0.195   7.514  0.5397  0.7584 -2.9296
  104MOL0     H14321  12.225  -0.293   7.405 -0.4025 -0.4239  0.2439
  104MOL0     H14322  12.415  -0.223   7.612  2.0869  3.5754  1.4621
  104MOL0     H14323  12.322  -0.084   7.591 -2.6529 -2.7862  2.3404
  104MOL0     H14324  12.526  -0.108   7.423  0.0543  0.6939  1.9339
  104MOL0     H14325  12.456  -0.256   7.367  1.6063  1.1585 -1.8500
  104MOL0     H14326  12.261  -0.123   7.285 -0.2429 -0.7192  2.4532
  104MOL0     H14327  12.422  -0.062   7.210 -1.7519  1.2300 -1.5174
  104MOL0     H14328  12.419   0.110   7.391  0.2277  1.3878 -1.5312
  104MOL0     H14329  12.242   0.053   7.419  0.8844 -2.5871  0.8241
  104MOL0     H14330  12.275   0.261   7.285  0.9748  0.2131 -0.1372
  104MOL0     H14331  12.199   0.133   7.189  0.3826 -0.4285  0.3944
  104MOL0     H14332  11.814  -0.357   7.733 -2.8059  0.3494  0.7929
  104MOL0     H14333  11.584  -0.460   7.762 -0.3871 -0.0319 -1.3669
  104MOL0     H14334  11.174  -0.579   7.351 -0.1425 -1.2607 -0.5299
  104MOL0     H14335  10.941  -0.588   7.373  2.8928 -2.2165 -2.4437
  104MOL0     H14336  10.818   0.137   7.341 -0.3732  0.3852  3.5182
  104MOL0     H14337  11.037   0.123   7.256  1.0025  0.0486  0.0453
  104MOL0     H14338  11.440   0.077   7.075  0.6155  0.9252  3.3820
  104MOL0     H14339  11.674   0.102   6.965 -1.3898 -0.5420 -0.5961
  104MOL0     H14340  11.807   0.533   6.815 -2.5323  0.5739  0.6216
  104MOL0     H14341  11.838   0.485   6.985  2.1303 -0.2717 -0.2966
  104MOL0     H14342  11.976   0.364   6.754 -2.5360 -1.2065  1.2121
  104MOL0     H14343  12.014   0.331   6.922 -0.3425  1.9518  2.4445
  104MOL0     H14344  12.036   0.609   6.800 -0.6339 -1.4502 -0.8827
  104MOL0     H14345  12.093   0.564   6.961 -1.4360 -0.2486  0.7295
  104MOL0     H14346  12.177   0.445   6.692  0.2913 -2.5698  0.1875
  104MOL0     H14347  12.246   0.389   6.843 -4.6568 -0.5533  3.7791
  104MOL0     H14348  12.427   0.768   6.783 -1.0410  0.4187  0.9847
  104MOL0     H14349  11.588   0.529   6.935 -3.7075 -0.5362 -4.3300
  104MOL0     H14350  11.389   0.620   6.996  2.5403  1.8366  4.3489
  104MOL0     H14351  11.251   0.505   7.024  0.5810  0.8989 -0.5129
  104MOL0     H14352  11.347   0.572   7.159 -1.0179  1.1688 -0.0621
  105MOL0     O14353   6.540   5.109   2.495  0.1356 -0.4537 -0.0014
  105MOL0     C14354   6.610   5.049   2.574 -1.1634  0.3992 -0.0014
  105MOL0     O14355   6.744   5.064   2.569 -0.5350 -0.5493  0.5747
  105MOL0     C14356   6.805   5.185   2.568  0.1604 -0.3810 -0.0886
  105MOL0     C14357   6.753   5.301   2.626 -0.1098 -0.0462 -0.1327
  105MOL0     C14358   6.834   5.415   2.624 -0.0278 -0.8306 -0.2116
  105MOL0     C14359   6.961   5.418   2.570 -0.5446 -0.2613  0.0263
  105MOL0     O14360   7.042   5.531   2.569 -0.2407  0.5691 -0.5668
  105MOL0     C14361   6.965   5.656   2.549  0.4191 -0.1684 -0.8879
  105MOL0     C14362   7.055   5.765   2.494  0.0621 -0.0996 -0.5991
  105MOL0     C14363   7.120   5.724   2.360  0.3102 -0.0059  0.2210
  105MOL0     C14364   7.174   5.853   2.290  0.3542  0.6695  0.4889
  105MOL0     C14365   7.290   5.928   2.359  1.0027  0.3552 -0.3318
  105MOL0     C14366   7.385   5.825   2.422  0.4890  0.9245 -0.3225
  105MOL0     C14367   7.519   5.878   2.460 -0.5460  0.3652 -0.3576
  105MOL0     C14368   7.523   6.003   2.556  0.4967 -0.2447  0.1869
  105MOL0     N14369   7.470   5.981   2.690 -1.1438  0.1527  0.3062
  105MOL0     C14370   7.350   6.039   2.722 -0.1012 -0.3846 -0.3725
  105MOL0     C14371   7.290   5.959   2.814  0.5897  0.8677 -0.1141
  105MOL0     C14372   7.172   5.980   2.901  0.6225  1.0151  0.0136
  105MOL0     C14373   7.048   5.906   2.840 -0.8400 -0.0411 -0.2531
  105MOL0     C14374   6.912   5.948   2.895  0.2211  0.5711 -0.5547
  105MOL0     C14375   6.893   5.887   3.040 -0.5233 -0.2303 -0.0944
  105MOL0     O14376   6.988   5.950   3.125 -0.1944  0.1759 -0.3600
  105MOL0     C14377   6.946   6.047   3.200 -0.0536 -0.6048 -0.4972
  105MOL0     C14378   7.048   6.133   3.238 -0.5613  0.9485  0.1984
  105MOL0     C14379   7.029   6.243   3.332  0.4608 -0.6057  0.7179
  105MOL0     C14380   7.140   6.326   3.382 -0.3232  0.5145  0.1668
  105MOL0     C14381   6.894   6.254   3.380  0.0860 -1.1991  1.2427
  105MOL0     C14382   6.846   6.382   3.457  0.7700  0.3174  0.2020
  105MOL0     O14383   6.715   6.377   3.513 -0.9972 -0.0534 -0.1131
  105MOL0     C14384   6.679   6.479   3.603 -0.3406  0.8975  0.1052
  105MOL0     C14385   6.694   6.471   3.741  0.5506 -0.2007 -0.1962
  105MOL0     C14386   6.661   6.576   3.822 -1.1415 -0.3061  0.9049
  105MOL0     C14387   6.621   6.698   3.763  0.4698  0.0479 -0.7277
  105MOL0     O14388   6.636   6.808   3.843  0.4934 -0.1073 -0.2589
  105MOL0     C14389   6.637   6.934   3.789 -0.5127  1.1697 -0.6455
  105MOL0     C14390   6.784   6.964   3.743  0.4038 -0.0982 -0.0021
  105MOL0     C14391   6.795   7.118   3.714 -0.3909 -0.1845  0.4774
  105MOL0     C14392   6.942   7.148   3.673  0.3484  0.0198 -0.9918
  105MOL0     C14393   6.944   7.249   3.559  0.2082 -0.0145 -0.1811
  105MOL0     C14394   7.080   7.273   3.503  0.1332 -0.0391 -0.5868
  105MOL0     C14395   7.200   7.259   3.601 -0.6588  0.2758  0.4746
  105MOL0     C14396   7.334   7.304   3.535 -0.0879  0.0668  0.1049
  105MOL0    Cl14397   7.462   7.307   3.660  0.3611 -0.4438  0.0496
  105MOL0     C14398   6.588   6.707   3.633  0.0716 -0.3542  0.0127
  105MOL0     C14399   6.614   6.589   3.559  0.3142  0.1001 -1.2799
  105MOL0     O14400   6.910   6.488   3.460  0.0357 -0.0893 -0.3475
  105MOL0     C14401   6.800   6.169   3.340 -1.0890  0.3605 -0.3130
  105MOL0     C14402   6.815   6.059   3.255  0.0508 -1.0236 -0.5038
  105MOL0     N14403   7.369   5.853   2.833 -0.0627  0.3540  0.0291
  105MOL0     N14404   7.467   5.854   2.752  0.0701 -0.0665  0.5753
  105MOL0     C14405   7.007   5.303   2.501 -0.1463  0.5039 -0.1181
  105MOL0     C14406   6.925   5.191   2.502 -0.4569  0.1080  0.0161
  105MOL0     C14407   6.554   4.931   2.649  0.1132 -0.0938 -0.9856
  105MOL0     C14408   6.637   4.842   2.730 -0.4625 -0.2036 -1.0956
  105MOL0     C14409   6.585   4.747   2.816  0.0120  0.5912  0.1606
  105MOL0     C14410   6.443   4.720   2.821 -0.4345  0.1778 -0.1607
  105MOL0     O14411   6.381   4.631   2.904 -0.5102 -0.1398 -0.0346
  105MOL0     C14412   6.465   4.528   2.956 -0.2271  0.0953 -0.6352
  105MOL0     C14413   6.521   4.545   3.100 -0.1013 -0.9924 -0.2230
  105MOL0     C14414   6.589   4.424   3.154  0.4386  0.1675 -0.0893
  105MOL0     C14415   6.698   4.351   3.069  0.7024  0.2265  0.5182
  105MOL0     C14416   6.801   4.447   3.038 -0.3228  0.7864 -0.4448
  105MOL0     C14417   6.881   4.532   3.021 -0.0688 -0.2431  0.1066
  105MOL0     C14418   6.366   4.801   2.739 -0.1196 -0.1845  0.2388
  105MOL0     C14419   6.408   4.912   2.663 -0.5245 -1.4899  1.1348
  105MOL0     C14420   6.296   4.981   2.580 -0.1133  0.5707 -0.0205
  105MOL0     H14421   6.662   5.295   2.685 -0.7716 -0.8470 -1.2060
  105MOL0     H14422   6.776   5.501   2.656  1.1631 -0.1467  0.1970
  105MOL0     H14423   6.927   5.688   2.646 -1.5534  1.0069 -1.9844
  105MOL0     H14424   6.886   5.645   2.474  0.2046  1.1422 -0.8783
  105MOL0     H14425   7.022   5.869   2.487  0.6786  0.3634  2.2323
  105MOL0     H14426   7.131   5.780   2.571 -0.3194  0.3644 -0.3088
  105MOL0     H14427   7.200   5.653   2.384  0.4712  0.6513  1.7466
  105MOL0     H14428   7.048   5.671   2.298 -0.8913  2.0189 -0.1959
  105MOL0     H14429   7.200   5.812   2.192  0.6436 -0.8333  1.1632
  105MOL0     H14430   7.094   5.927   2.280 -1.1119 -0.5998  2.1523
  105MOL0     H14431   7.247   5.992   2.436  1.0591  0.7703 -0.6378
  105MOL0     H14432   7.336   5.998   2.289 -0.9866  1.8233 -0.2680
  105MOL0     H14433   7.337   5.785   2.512  5.1826  0.7550  2.4047
  105MOL0     H14434   7.402   5.753   2.342 -3.2680  0.4155 -0.8841
  105MOL0     H14435   7.575   5.916   2.374  2.7492  0.5002  1.6644
  105MOL0     H14436   7.595   5.820   2.513 -0.2890  0.1521 -0.9497
  105MOL0     H14437   7.625   6.038   2.571 -1.1202  4.7626  1.6693
  105MOL0     H14438   7.473   6.089   2.509 -0.8462 -0.7393  0.6494
  105MOL0     H14439   7.316   6.137   2.692  0.8315 -0.1027 -0.5186
  105MOL0     H14440   7.144   6.086   2.906 -1.2349  0.6406 -1.2870
  105MOL0     H14441   7.186   5.948   3.004 -2.9879  0.7649  0.5500
  105MOL0     H14442   7.037   5.924   2.733  0.5747  1.8041 -0.1416
  105MOL0     H14443   7.071   5.800   2.858  1.4713  0.6429  1.4347
  105MOL0     H14444   6.907   6.057   2.894 -2.3788  0.5007 -1.5773
  105MOL0     H14445   6.830   5.914   2.831 -1.1219  0.4669  1.1274
  105MOL0     H14446   6.787   5.895   3.066 -0.5415 -3.0680  1.0525
  105MOL0     H14447   6.898   5.778   3.039 -1.7079 -0.2990 -0.2637
  105MOL0     H14448   7.146   6.105   3.201 -0.8567  1.8066 -1.3394
  105MOL0     H14449   7.225   6.269   3.343 -3.5495 -1.9866 -4.1695
  105MOL0     H14450   7.131   6.346   3.489  0.2697  0.7800  0.1714
  105MOL0     H14451   7.146   6.421   3.327 -0.3514 -0.9933 -2.6418
  105MOL0     H14452   6.735   6.382   3.789  3.6212  0.3446 -1.5589
  105MOL0     H14453   6.683   6.573   3.928 -0.1780  1.4677  0.7857
  105MOL0     H14454   6.573   6.955   3.703  0.1249  1.4529 -1.0576
  105MOL0     H14455   6.607   6.999   3.871 -2.3603  0.1536 -0.4478
  105MOL0     H14456   6.858   6.935   3.818 -1.3388 -0.7899  1.5235
  105MOL0     H14457   6.798   6.902   3.654 -1.2428  1.0763 -1.1305
  105MOL0     H14458   6.756   7.177   3.797  0.6227  2.1746 -0.6288
  105MOL0     H14459   6.739   7.135   3.622  0.2641 -2.9037 -0.5352
  105MOL0     H14460   6.997   7.056   3.650 -1.3138 -0.6697 -2.3893
  105MOL0     H14461   6.980   7.189   3.767  0.5712 -2.1443 -0.0785
  105MOL0     H14462   6.883   7.210   3.478  2.0865  0.8116 -2.0975
  105MOL0     H14463   6.899   7.345   3.587  0.5068 -0.0994  0.6059
  105MOL0     H14464   7.090   7.371   3.455  1.1882  1.7391  2.9189
  105MOL0     H14465   7.098   7.203   3.420 -1.5134  0.7793 -1.6823
  105MOL0     H14466   7.216   7.154   3.627 -0.1002 -0.2001 -1.6348
  105MOL0     H14467   7.191   7.319   3.692 -1.6940  0.5223  0.2279
  105MOL0     H14468   7.333   7.407   3.497  1.6369 -0.4285 -1.4416
  105MOL0     H14469   7.356   7.240   3.449 -0.6850  0.7595 -0.5838
  105MOL0     H14470   6.544   6.789   3.578 -2.4680 -1.5914  0.0523
  105MOL0     H14471   6.595   6.597   3.453 -0.1696 -1.5053 -1.3375
  105MOL0     H14472   6.697   6.170   3.374 -0.7099 -0.7052  0.9829
  105MOL0     H14473   6.731   5.993   3.236 -3.0527  2.1394  0.9092
  105MOL0     H14474   7.101   5.298   2.448 -0.3370 -1.8441 -0.3391
  105MOL0     H14475   6.959   5.099   2.456 -2.6778 -1.9065  2.1137
  105MOL0     H14476   6.744   4.859   2.722 -0.6600  0.7871 -1.8299
  105MOL0     H14477   6.658   4.683   2.864 -1.4579  0.2797  2.1262
  105MOL0     H14478   6.408   4.435   2.949 -1.4665  0.9035 -1.8066
  105MOL0     H14479   6.557   4.517   2.898  1.6135  2.3267  1.6125
  105MOL0     H14480   6.444   4.570   3.174  0.1477  0.0626 -0.3114
  105MOL0     H14481   6.597   4.624   3.101  0.5378 -1.5761 -1.0243
  105MOL0     H14482   6.634   4.457   3.248 -0.1911  1.4692 -0.2137
  105MOL0     H14483   6.512   4.350   3.179 -0.5346  1.1738 -0.0238
  105MOL0     H14484   6.654   4.326   2.972 -1.6632 -2.0372  2.0344
  105MOL0     H14485   6.735   4.261   3.118 -2.1792 -1.4479 -0.1296
  105MOL0     H14486   6.958   4.601   2.992  0.5946  0.5683  3.3120
  105MOL0     H14487   6.260   4.779   2.733 -0.2930 -0.0256  2.1667
  105MOL0     H14488   6.246   5.057   2.641 -0.7204  0.9635 -0.9885
  105MOL0     H14489   6.316   5.027   2.484 -1.5806 -1.6643 -1.5160
  105MOL0     H14490   6.211   4.916   2.556  0.4385 -0.9703  1.8704
  106MOL0     O14491   8.627  10.391   0.212  0.1588  0.6130  0.4077
  106MOL0     C14492   8.613  10.419   0.334  1.1199  0.6026  0.6270
  106MOL0     O14493   8.651  10.345   0.442  0.1489  0.0458 -0.5293
  106MOL0     C14494   8.658  10.206   0.428  0.6870  0.2048 -0.2471
  106MOL0     C14495   8.757  10.144   0.497 -0.4538  0.4311  0.5204
  106MOL0     C14496   8.769  10.006   0.499  0.4007 -0.7766 -0.1417
  106MOL0     C14497   8.676   9.922   0.441  0.0677  0.8193 -0.8123
  106MOL0     O14498   8.676   9.780   0.453 -0.0391  0.3024  0.2228
  106MOL0     C14499   8.709   9.707   0.331 -0.4814  0.4667  0.1572
  106MOL0     C14500   8.860   9.707   0.307  0.1776 -0.0715  0.8435
  106MOL0     C14501   8.902   9.605   0.202  0.3252  0.0683  0.3852
  106MOL0     C14502   9.058   9.596   0.212 -0.2147  0.3986 -0.1998
  106MOL0     C14503   9.125   9.474   0.146  0.5856  0.2622 -1.4428
  106MOL0     C14504   9.104   9.463  -0.002 -0.6876  0.2184  0.2359
  106MOL0     C14505   9.144   9.322  -0.052 -1.0552  0.2576 -0.0564
  106MOL0     C14506   9.098   9.304  -0.195 -0.5814 -0.3069  0.8929
  106MOL0     N14507   9.139   9.173  -0.247  1.1057 -0.0838  0.9092
  106MOL0     C14508   9.106   9.051  -0.185 -0.1286  0.2383  0.7306
  106MOL0     C14509   9.185   8.960  -0.253  0.3061 -0.2868  0.4624
  106MOL0     C14510   9.195   8.818  -0.220  0.0369 -0.8288  0.4427
  106MOL0     C14511   9.100   8.731  -0.310 -0.0514 -0.2027 -0.0275
  106MOL0     C14512   9.126   8.579  -0.290 -0.3085  0.9181  0.1696
  106MOL0     C14513   9.083   8.488  -0.405  0.0360  0.9706  0.3101
  106MOL0     O14514   8.944   8.465  -0.409 -0.0478  0.6256  0.5017
  106MOL0     C14515   8.880   8.404  -0.300 -0.5057  0.2997  0.6319
  106MOL0     C14516   8.740   8.415  -0.306 -0.2934 -0.1545 -0.1538
  106MOL0     C14517   8.666   8.346  -0.215 -0.2031  0.4231  0.4504
  106MOL0     C14518   8.514   8.334  -0.239 -0.7984 -0.2244 -0.2759
  106MOL0     C14519   8.726   8.288  -0.108 -0.0311 -0.0258  0.2065
  106MOL0     C14520   8.641   8.224  -0.000 -0.6619 -0.9293 -1.1087
  106MOL0     O14521   8.628   8.302   0.107  0.4124 -0.3665 -0.1703
  106MOL0     C14522   8.560   8.246   0.212 -0.0595 -0.2541  0.0753
  106MOL0     C14523   8.417   8.229   0.198 -1.3011 -0.6306 -0.6543
  106MOL0     C14524   8.346   8.177   0.301 -0.1002  0.6237 -0.5486
  106MOL0     C14525   8.413   8.124   0.415  1.6137  0.0707  0.4398
  106MOL0     O14526   8.333   8.068   0.516 -0.5957 -0.3287  0.0860
  106MOL0     C14527   8.399   7.981   0.606 -0.2581  0.7368 -0.4047
  106MOL0     C14528   8.299   7.878   0.671 -1.3192 -0.7642 -0.9261
  106MOL0     C14529   8.373   7.793   0.783  0.4210 -0.1832  0.1458
  106MOL0     C14530   8.272   7.723   0.871  0.0541 -0.4020 -0.4359
  106MOL0     C14531   8.330   7.652   1.000 -0.7317  0.4202 -0.4375
  106MOL0     C14532   8.224   7.566   1.058 -0.2171  0.7882 -0.5564
  106MOL0     C14533   8.261   7.503   1.199  0.1960 -0.2485 -0.8119
  106MOL0     C14534   8.142   7.459   1.279 -0.0435  0.5507 -0.4734
  106MOL0    Cl14535   8.025   7.594   1.322  0.0288  0.3390 -0.3161
  106MOL0     C14536   8.555   8.142   0.431  1.0198  0.4969 -0.4903
  106MOL0     C14537   8.628   8.210   0.326  0.0232  0.5742 -0.0712
  106MOL0     O14538   8.602   8.108  -0.010 -0.1879  0.0879  0.3979
  106MOL0     C14539   8.870   8.276  -0.099 -1.2939 -0.0875  0.3222
  106MOL0     C14540   8.947   8.328  -0.198  0.1342 -0.1945  0.1073
  106MOL0     N14541   9.267   9.027  -0.339  0.0589 -0.0155 -0.9214
  106MOL0     N14542   9.229   9.154  -0.342 -0.4675  0.2019 -0.3974
  106MOL0     C14543   8.568   9.984   0.372 -0.0240  0.4018 -0.0892
  106MOL0     C14544   8.564  10.124   0.358 -0.2763  0.2235  1.0851
  106MOL0     C14545   8.549  10.543   0.362 -0.2053  0.5100 -0.1718
  106MOL0     C14546   8.586  10.617   0.477  0.2604 -0.0399 -0.4411
  106MOL0     C14547   8.542  10.750   0.500 -0.3776  0.2295 -0.2342
  106MOL0     C14548   8.443  10.803   0.419 -0.3713  0.6104 -0.3474
  106MOL0     O14549   8.386  10.925   0.425  0.1424  0.3039 -0.3193
  106MOL0     C14550   8.452  11.027   0.506  0.5671 -0.6341 -0.0013
  106MOL0     C14551   8.406  11.055   0.647  0.0458 -0.1965  0.0631
  106MOL0     C14552   8.481  11.183   0.683  0.0818 -0.3433  0.7192
  106MOL0     C14553   8.456  11.208   0.826 -0.6956 -0.8448 -0.7796
  106MOL0     C14554   8.562  11.302   0.872 -0.6838  0.5783 -0.3419
  106MOL0     C14555   8.655  11.381   0.903  0.5553  0.5198  0.4426
  106MOL0     C14556   8.396  10.726   0.313 -0.5382  0.6516 -0.2034
  106MOL0     C14557   8.444  10.595   0.284  0.9027 -0.1575 -0.2829
  106MOL0     C14558   8.363  10.541   0.174  0.1952  0.8541  0.4652
  106MOL0     H14559   8.845  10.189   0.543 -1.8638  2.4822  1.3575
  106MOL0     H14560   8.853   9.957   0.548  1.4332  1.0155 -0.0373
  106MOL0     H14561   8.661   9.764   0.252  1.2026  3.5668  1.2159
  106MOL0     H14562   8.677   9.604   0.351  2.6115 -0.0421  3.7952
  106MOL0     H14563   8.897   9.807   0.283 -0.0746  0.3202  2.0541
  106MOL0     H14564   8.910   9.693   0.403  1.9790 -0.6028 -0.1250
  106MOL0     H14565   8.862   9.504   0.221 -3.6807  0.7769 -2.9833
  106MOL0     H14566   8.854   9.629   0.107  1.0547 -0.1575 -0.0451
  106MOL0     H14567   9.105   9.682   0.161  0.0430 -0.8825 -2.2378
  106MOL0     H14568   9.088   9.601   0.317 -0.2047  0.2339 -0.1951
  106MOL0     H14569   9.089   9.385   0.198  0.7968  0.9591 -0.0694
  106MOL0     H14570   9.233   9.476   0.163  0.2412 -0.9154  1.2945
  106MOL0     H14571   9.001   9.485  -0.031 -0.1584  1.1199 -1.0312
  106MOL0     H14572   9.166   9.532  -0.058 -0.5951  0.7917  1.0223
  106MOL0     H14573   9.097   9.246   0.011 -2.6886  2.2900  1.3106
  106MOL0     H14574   9.253   9.314  -0.047 -1.1495 -0.8668  0.3744
  106MOL0     H14575   8.991   9.323  -0.209  0.1346  2.9139 -1.2747
  106MOL0     H14576   9.136   9.378  -0.267 -0.4930 -1.5684 -0.3958
  106MOL0     H14577   9.042   9.024  -0.102 -0.6107 -0.4470  0.1497
  106MOL0     H14578   9.160   8.798  -0.119 -1.2473 -2.8651 -0.3491
  106MOL0     H14579   9.301   8.791  -0.226  1.0511  2.6751  0.7306
  106MOL0     H14580   9.003   8.750  -0.263  0.1441  1.2943 -0.1945
  106MOL0     H14581   9.109   8.769  -0.412 -2.9611  1.0966  0.0894
  106MOL0     H14582   9.234   8.567  -0.275 -0.0755 -0.2901 -2.0980
  106MOL0     H14583   9.080   8.548  -0.196  2.9265 -0.2951  1.5052
  106MOL0     H14584   9.110   8.530  -0.502 -2.2436  1.6626 -0.0722
  106MOL0     H14585   9.132   8.390  -0.397 -3.6794 -1.2796 -1.8077
  106MOL0     H14586   8.694   8.474  -0.385  2.0344 -1.8541 -2.9411
  106MOL0     H14587   8.484   8.234  -0.273  0.6328 -0.4384 -0.9724
  106MOL0     H14588   8.465   8.399  -0.312 -3.3440 -0.8313  0.7532
  106MOL0     H14589   8.459   8.362  -0.149 -1.7071  0.4146 -1.0059
  106MOL0     H14590   8.367   8.251   0.105  0.5292  2.3236 -1.0446
  106MOL0     H14591   8.242   8.164   0.273  0.3101 -1.4291 -1.2617
  106MOL0     H14592   8.478   7.929   0.551  0.8083  2.0130 -0.1204
  106MOL0     H14593   8.441   8.034   0.693  1.5930 -1.2961  0.0364
  106MOL0     H14594   8.224   7.941   0.720 -1.9794 -1.8442 -0.5077
  106MOL0     H14595   8.254   7.817   0.593 -1.5120 -0.8775 -0.7286
  106MOL0     H14596   8.456   7.838   0.838  0.1791  0.6989 -0.1984
  106MOL0     H14597   8.405   7.712   0.717  1.8153 -0.1325  0.7166
  106MOL0     H14598   8.220   7.659   0.798  1.6602 -1.8179 -0.3860
  106MOL0     H14599   8.199   7.795   0.910 -1.1161 -2.6018  1.6942
  106MOL0     H14600   8.419   7.594   0.977 -1.9424 -2.4134  1.4406
  106MOL0     H14601   8.359   7.724   1.078 -1.0927  1.9258 -1.6288
  106MOL0     H14602   8.210   7.483   0.989 -0.0413  1.8311 -1.8900
  106MOL0     H14603   8.129   7.620   1.068 -0.1391  0.7722  0.3687
  106MOL0     H14604   8.309   7.586   1.251  2.1807 -1.2244 -0.9664
  106MOL0     H14605   8.321   7.412   1.183  1.7599  0.9878 -2.5139
  106MOL0     H14606   8.170   7.407   1.371 -0.5645  0.9460 -0.0890
  106MOL0     H14607   8.089   7.379   1.226  1.2247 -0.6368  0.0116
  106MOL0     H14608   8.595   8.087   0.515 -0.8554 -0.8569 -0.4045
  106MOL0     H14609   8.736   8.210   0.335 -0.0135 -1.1180  0.8863
  106MOL0     H14610   8.930   8.227  -0.024 -2.4412 -2.2023 -0.0714
  106MOL0     H14611   9.054   8.333  -0.178  0.1621  1.4183 -0.2899
  106MOL0     H14612   8.495   9.917   0.328  0.0410 -0.5358  1.1749
  106MOL0     H14613   8.496  10.168   0.286 -0.6324 -0.0629  1.2437
  106MOL0     H14614   8.653  10.565   0.546 -2.8909 -2.2065  1.2725
  106MOL0     H14615   8.584  10.804   0.584  0.1830  1.4034 -1.2331
  106MOL0     H14616   8.561  11.015   0.511  0.5079 -0.6817  1.5686
  106MOL0     H14617   8.449  11.123   0.454  1.3039 -0.0884  0.9458
  106MOL0     H14618   8.431  10.975   0.717 -1.2450 -0.7866 -0.1227
  106MOL0     H14619   8.297  11.062   0.640  0.1840  0.5453 -3.4637
  106MOL0     H14620   8.585  11.166   0.656 -0.2145 -1.0492 -0.0172
  106MOL0     H14621   8.439  11.268   0.627  0.0573 -1.0022 -0.2781
  106MOL0     H14622   8.458  11.117   0.885  1.6875 -0.3625 -0.0294
  106MOL0     H14623   8.362  11.260   0.848 -0.3680 -0.4849 -0.2038
  106MOL0     H14624   8.732  11.455   0.918  0.8273 -0.0325  1.9110
  106MOL0     H14625   8.309  10.766   0.262 -0.3422 -0.9075 -1.8557
  106MOL0     H14626   8.259  10.572   0.178  0.3535  1.6156 -0.8262
  106MOL0     H14627   8.412  10.571   0.081 -2.4335 -0.4865 -1.4679
  106MOL0     H14628   8.367  10.432   0.169  0.7837  0.8662  0.5321
  107MOL0     O14629   2.642   2.508   5.868 -0.5282 -0.3186  0.0715
  107MOL0     C14630   2.616   2.463   5.755  0.5617 -0.4453  0.4314
  107MOL0     O14631   2.706   2.392   5.672 -0.0676  0.0371 -0.6362
  107MOL0     C14632   2.836   2.365   5.714 -0.1683  0.3586  0.7956
  107MOL0     C14633   2.892   2.238   5.671  0.7528  0.3807  0.2717
  107MOL0     C14634   3.023   2.204   5.695 -0.4080 -0.0026  0.8291
  107MOL0     C14635   3.111   2.290   5.763 -0.4794  0.1431 -0.6839
  107MOL0     O14636   3.244   2.270   5.771 -0.7568  0.5295  0.0697
  107MOL0     C14637   3.286   2.202   5.888  0.6357  0.2462  0.1146
  107MOL0     C14638   3.431   2.247   5.920  0.1025 -0.0850 -0.0824
  107MOL0     C14639   3.475   2.203   6.053 -0.4603  0.5735  0.0282
  107MOL0     C14640   3.632   2.216   6.064  0.1218  0.5122  0.3934
  107MOL0     C14641   3.707   2.348   6.028  0.5096  0.5144  0.4667
  107MOL0     C14642   3.679   2.469   6.108  0.6668  0.8832 -0.0609
  107MOL0     C14643   3.721   2.459   6.254  0.2899  0.5658 -0.1692
  107MOL0     C14644   3.674   2.573   6.333 -0.2553 -0.2850  1.0031
  107MOL0     N14645   3.754   2.581   6.450  0.4101  0.4392 -0.9864
  107MOL0     C14646   3.762   2.479   6.545  1.0259 -0.2929  0.7639
  107MOL0     C14647   3.836   2.525   6.645 -0.1055 -0.4742  0.1862
  107MOL0     C14648   3.885   2.447   6.773  0.4169 -0.2492  0.4838
  107MOL0     C14649   4.036   2.453   6.781  0.2439  0.3858 -0.5526
  107MOL0     C14650   4.095   2.346   6.691 -0.0981  0.0194 -0.1563
  107MOL0     C14651   4.239   2.361   6.649 -0.0710 -0.4037 -0.2344
  107MOL0     O14652   4.282   2.241   6.584  0.4331 -0.2426  0.0838
  107MOL0     C14653   4.372   2.171   6.648 -0.3232 -0.0207 -0.0367
  107MOL0     C14654   4.502   2.164   6.605 -0.3809  0.0054 -0.4485
  107MOL0     C14655   4.592   2.073   6.667  0.8223  0.0123 -0.2657
  107MOL0     C14656   4.740   2.060   6.625  1.0870  0.4888  0.0540
  107MOL0     C14657   4.544   1.991   6.770 -0.4066  0.3642 -0.0077
  107MOL0     C14658   4.626   1.898   6.849  0.7364 -0.6628  1.1068
  107MOL0     O14659   4.715   1.949   6.940  0.1307 -0.2498 -0.1357
  107MOL0     C14660   4.820   1.878   6.983  0.8151  0.3995 -0.7608
  107MOL0     C14661   4.860   1.892   7.120  0.0734 -0.5517  0.2869
  107MOL0     C14662   4.966   1.822   7.173  0.2194  0.9944  0.3399
  107MOL0     C14663   5.032   1.733   7.097 -0.7709  0.2841 -0.0065
  107MOL0     O14664   5.146   1.675   7.156  0.3692  0.0975 -0.0097
  107MOL0     C14665   5.157   1.539   7.125 -0.5081 -0.5273  0.3306
  107MOL0     C14666   5.287   1.495   7.195 -0.3627  0.6851 -0.5486
  107MOL0     C14667   5.316   1.566   7.334  0.6699 -0.5953  0.4072
  107MOL0     C14668   5.462   1.545   7.357  0.0571  0.9366 -0.3747
  107MOL0     C14669   5.502   1.603   7.498 -0.6048 -0.1970 -0.0519
  107MOL0     C14670   5.629   1.546   7.554 -0.4557  0.5161  0.4997
  107MOL0     C14671   5.678   1.624   7.681 -0.3637  0.4916  1.1346
  107MOL0     C14672   5.821   1.573   7.712 -0.7270 -0.2757  0.6002
  107MOL0    Cl14673   5.820   1.388   7.752  0.2313 -0.7230  0.2086
  107MOL0     C14674   4.990   1.707   6.965  0.3345 -0.6602  0.2809
  107MOL0     C14675   4.889   1.781   6.905 -0.4513  0.1222  0.0590
  107MOL0     O14676   4.610   1.777   6.819  0.2605 -0.6415  0.3811
  107MOL0     C14677   4.412   1.995   6.805  0.6475  0.6759  0.3969
  107MOL0     C14678   4.325   2.084   6.747 -0.0827  0.2140  0.2113
  107MOL0     N14679   3.874   2.656   6.612  0.3097  0.0181 -0.2893
  107MOL0     N14680   3.826   2.689   6.497 -1.0566 -0.5594 -0.4491
  107MOL0     C14681   3.061   2.414   5.803  0.5789 -0.1738 -0.5869
  107MOL0     C14682   2.925   2.455   5.771 -0.3999 -0.7655  0.3546
  107MOL0     C14683   2.483   2.501   5.704 -0.3999  0.9158 -0.0370
  107MOL0     C14684   2.385   2.526   5.806  0.4680  0.6651  0.0238
  107MOL0     C14685   2.252   2.537   5.778  0.0136  0.0392 -0.1306
  107MOL0     C14686   2.217   2.530   5.645  1.0873  0.2974 -0.1821
  107MOL0     O14687   2.081   2.529   5.600  0.4695 -0.3275 -0.0503
  107MOL0     C14688   1.978   2.545   5.697  0.6394 -0.2582  0.4147
  107MOL0     C14689   1.939   2.406   5.754 -0.4642 -0.9448 -1.0986
  107MOL0     C14690   1.875   2.409   5.896 -0.0451  0.5653  0.4294
  107MOL0     C14691   1.737   2.461   5.886 -0.0082  0.3457 -0.3557
  107MOL0     C14692   1.721   2.602   5.947 -0.2411 -0.3618  0.8334
  107MOL0     C14693   1.705   2.721   5.977 -0.7045  0.1783 -0.1516
  107MOL0     C14694   2.304   2.506   5.542 -0.1508  1.0635 -0.3369
  107MOL0     C14695   2.441   2.491   5.560 -0.2814 -0.5714  0.3947
  107MOL0     C14696   2.529   2.449   5.444  0.3169 -0.6020 -0.0052
  107MOL0     H14697   2.824   2.166   5.628  0.7469  0.5772 -0.0530
  107MOL0     H14698   3.066   2.115   5.649  0.1268  1.2592 -1.2404
  107MOL0     H14699   3.285   2.095   5.865 -0.1787  0.0367  1.0351
  107MOL0     H14700   3.220   2.230   5.971 -0.4969 -3.1792  0.5325
  107MOL0     H14701   3.502   2.199   5.852  0.8719 -4.0165  3.0834
  107MOL0     H14702   3.442   2.355   5.909  2.8230 -0.3025  0.0127
  107MOL0     H14703   3.434   2.270   6.129  2.3552  4.8014 -1.8045
  107MOL0     H14704   3.449   2.098   6.069  0.6273 -0.0170 -1.7667
  107MOL0     H14705   3.656   2.193   6.168 -0.5840 -0.4733  0.3558
  107MOL0     H14706   3.674   2.142   5.996  0.9084  2.6214 -1.5566
  107MOL0     H14707   3.685   2.371   5.924 -1.5026 -4.4153 -0.5061
  107MOL0     H14708   3.816   2.344   6.039  0.6159  2.1126  0.2326
  107MOL0     H14709   3.730   2.553   6.062  0.9083  0.3412 -0.8068
  107MOL0     H14710   3.571   2.488   6.106  0.7605  3.3691  4.5239
  107MOL0     H14711   3.830   2.453   6.262  0.4003  3.1785  1.5361
  107MOL0     H14712   3.680   2.367   6.296 -1.4012  0.3023 -2.1978
  107MOL0     H14713   3.693   2.662   6.272  0.5680 -1.2788 -0.2224
  107MOL0     H14714   3.567   2.565   6.356 -1.2139  0.5006 -2.5553
  107MOL0     H14715   3.723   2.378   6.539  1.6821 -0.5062 -3.2200
  107MOL0     H14716   3.843   2.348   6.791  2.7979 -0.9928  2.5205
  107MOL0     H14717   3.849   2.509   6.856 -2.3874 -0.0108 -0.7867
  107MOL0     H14718   4.071   2.553   6.753  1.5978 -0.5009 -2.2235
  107MOL0     H14719   4.069   2.426   6.882 -1.9250 -4.2173 -0.8117
  107MOL0     H14720   4.091   2.248   6.739 -0.9456 -1.0058 -2.2001
  107MOL0     H14721   4.039   2.337   6.597  0.0545  3.3026 -0.6752
  107MOL0     H14722   4.251   2.446   6.582 -2.0651  1.9015  2.0884
  107MOL0     H14723   4.296   2.384   6.739  1.0289  0.7419 -1.1936
  107MOL0     H14724   4.530   2.217   6.514 -0.9955  1.3171  0.1125
  107MOL0     H14725   4.744   2.090   6.520 -2.9209 -0.1434 -0.4492
  107MOL0     H14726   4.775   1.956   6.620  0.5127  0.2629  0.4951
  107MOL0     H14727   4.793   2.128   6.692  0.1806  0.7615  0.5190
  107MOL0     H14728   4.805   1.962   7.182 -0.2693 -1.6796  1.2916
  107MOL0     H14729   5.008   1.855   7.267  3.1164  0.1416 -0.5650
  107MOL0     H14730   5.066   1.501   7.172 -1.8194  1.6989 -0.2366
  107MOL0     H14731   5.174   1.521   7.019  1.8175  2.1199  0.1419
  107MOL0     H14732   5.282   1.386   7.207 -1.3211  0.5388 -1.9764
  107MOL0     H14733   5.368   1.511   7.123 -0.1051 -0.6510 -0.5779
  107MOL0     H14734   5.254   1.527   7.415  0.1418 -1.1871 -0.2586
  107MOL0     H14735   5.303   1.674   7.324  3.1047 -0.3978 -1.4908
  107MOL0     H14736   5.525   1.586   7.277 -1.9791  1.5296 -1.7652
  107MOL0     H14737   5.474   1.436   7.349 -1.2102  0.9226 -3.8845
  107MOL0     H14738   5.497   1.712   7.494 -1.1413 -0.2647 -2.2955
  107MOL0     H14739   5.425   1.564   7.566 -2.2334  0.1635 -1.6067
  107MOL0     H14740   5.705   1.552   7.474 -0.2176 -2.3442  0.4121
  107MOL0     H14741   5.622   1.440   7.579 -1.8588  0.4017 -0.2868
  107MOL0     H14742   5.609   1.603   7.763  0.2994 -1.0888  1.3206
  107MOL0     H14743   5.672   1.731   7.660  0.8402  0.6215  1.3613
  107MOL0     H14744   5.864   1.619   7.801  0.8621 -1.8415  0.6912
  107MOL0     H14745   5.880   1.584   7.620  0.5623 -2.0404  1.1527
  107MOL0     H14746   5.050   1.644   6.900  2.1936  2.9510 -1.8168
  107MOL0     H14747   4.873   1.752   6.801 -1.2026  0.8832 -0.0491
  107MOL0     H14748   4.378   1.919   6.875  2.3276  1.6570  2.3583
  107MOL0     H14749   4.220   2.087   6.774 -0.2251 -1.1474 -0.1306
  107MOL0     H14750   3.130   2.492   5.834 -3.1025  2.2183  2.4449
  107MOL0     H14751   2.892   2.554   5.801  0.1845 -0.4665  0.0236
  107MOL0     H14752   2.411   2.530   5.912 -0.6067 -2.7927  0.5445
  107MOL0     H14753   2.190   2.551   5.866 -0.3063  0.6660 -0.4508
  107MOL0     H14754   2.004   2.623   5.770 -1.7042  1.3392 -0.3380
  107MOL0     H14755   1.882   2.570   5.652  1.3348 -0.1755 -1.0663
  107MOL0     H14756   2.031   2.355   5.785 -0.0156 -0.0612 -0.9611
  107MOL0     H14757   1.879   2.355   5.679 -1.9865 -3.4501  1.5898
  107MOL0     H14758   1.871   2.304   5.924 -2.1192  0.4394 -0.1585
  107MOL0     H14759   1.935   2.457   5.974 -3.3149 -1.5021  4.5778
  107MOL0     H14760   1.672   2.385   5.931  2.0859 -1.2269  0.2120
  107MOL0     H14761   1.714   2.461   5.779 -0.2728 -0.9105 -0.3122
  107MOL0     H14762   1.698   2.826   5.998  0.1451 -0.0904  1.6105
  107MOL0     H14763   2.254   2.493   5.446 -2.5564  2.2684  0.6571
  107MOL0     H14764   2.542   2.341   5.453 -0.3101 -0.6323  0.6179
  107MOL0     H14765   2.487   2.478   5.347 -1.4757  1.0801  1.1990
  107MOL0     H14766   2.633   2.482   5.458  0.4974 -1.6470  1.4111
  108MOL0     O14767   2.849  11.210   6.548 -0.0039  0.1010  0.4719
  108MOL0     C14768   2.781  11.307   6.516  0.7778 -0.7200  0.6437
  108MOL0     O14769   2.806  11.438   6.565  0.1206 -1.2776 -0.0013
  108MOL0     C14770   2.908  11.461   6.656 -0.0246 -0.0486  0.4405
  108MOL0     C14771   3.035  11.431   6.637 -0.3686 -0.4863 -0.5066
  108MOL0     C14772   3.136  11.479   6.737  0.7734 -0.0778  0.0490
  108MOL0     C14773   3.089  11.545   6.849  0.2921  1.3153 -0.4066
  108MOL0     O14774   3.185  11.564   6.945 -0.4449  0.0769 -0.3091
  108MOL0     C14775   3.159  11.565   7.086  0.1759 -0.9130 -0.3654
  108MOL0     C14776   3.150  11.423   7.145 -0.7026  0.6666  0.4205
  108MOL0     C14777   3.105  11.429   7.290  0.8288  0.7621  0.1422
  108MOL0     C14778   3.169  11.334   7.389 -0.9696  0.0617  0.3538
  108MOL0     C14779   3.116  11.308   7.525 -0.2750 -0.4690 -0.2073
  108MOL0     C14780   3.129  11.437   7.619  1.5209  0.1768  0.4256
  108MOL0     C14781   3.095  11.395   7.767 -0.6044  0.5836 -0.4120
  108MOL0     C14782   3.076  11.510   7.864 -0.8259 -0.1991 -0.3247
  108MOL0     N14783   3.159  11.627   7.841  0.4837 -0.0083 -0.8649
  108MOL0     C14784   3.281  11.615   7.883 -0.2019 -0.6218  0.0024
  108MOL0     C14785   3.343  11.729   7.845  1.0278  0.7165  1.2165
  108MOL0     C14786   3.482  11.769   7.889 -0.0233  0.6739  0.0064
  108MOL0     C14787   3.487  11.797   8.045 -0.1116 -0.3357 -0.8030
  108MOL0     C14788   3.614  11.879   8.082  0.3733  0.5925  0.5337
  108MOL0     C14789   3.612  12.023   8.017  0.5541 -0.2406  0.0605
  108MOL0     O14790   3.622  12.125   8.123  0.0275 -0.4551  0.2918
  108MOL0     C14791   3.752  12.167   8.148 -0.8523  0.4824  0.3941
  108MOL0     C14792   3.784  12.301   8.168  0.1406  0.0156  0.3262
  108MOL0     C14793   3.910  12.342   8.208 -0.2925 -0.0567 -0.1585
  108MOL0     C14794   3.921  12.492   8.237 -0.5316  0.5723  0.4427
  108MOL0     C14795   4.017  12.254   8.197  0.1505  0.4627 -0.3572
  108MOL0     C14796   4.153  12.298   8.234  1.1359  0.4934  0.3768
  108MOL0     O14797   4.240  12.332   8.127 -0.4588  0.5013 -0.4929
  108MOL0     C14798   4.358  12.385   8.162 -0.0322  0.3535  0.2054
  108MOL0     C14799   4.362  12.521   8.189 -0.3358 -0.1169  0.3497
  108MOL0     C14800   4.483  12.576   8.233  0.0093  0.4676 -0.6132
  108MOL0     C14801   4.597  12.501   8.242 -0.2284  0.0744 -0.8544
  108MOL0     O14802   4.713  12.554   8.286  0.0573  0.3870 -0.3790
  108MOL0     C14803   4.728  12.694   8.290 -0.2388 -0.6854 -1.3638
  108MOL0     C14804   4.870  12.721   8.333 -0.4692 -0.0105  0.9670
  108MOL0     C14805   4.904  12.874   8.326  0.2782  0.6331  0.2858
  108MOL0     C14806   5.055  12.888   8.356  0.9439 -0.3630  0.7152
  108MOL0     C14807   5.090  13.032   8.390  0.1425  0.4550 -0.1891
  108MOL0     C14808   5.048  13.062   8.529  0.2638  0.2116 -0.9539
  108MOL0     C14809   5.146  13.152   8.600  0.2669 -0.6474  0.0324
  108MOL0     C14810   5.165  13.295   8.537  0.4751 -0.3630 -0.2634
  108MOL0    Cl14811   5.006  13.386   8.557 -0.3515 -0.1848  0.6590
  108MOL0     C14812   4.592  12.368   8.207  0.5354  0.5248  0.0807
  108MOL0     C14813   4.473  12.306   8.174  0.1001  0.0235  0.3454
  108MOL0     O14814   4.179  12.306   8.356 -0.7973 -0.7394  0.3832
  108MOL0     C14815   3.992  12.116   8.167  0.1878  0.0281 -0.2239
  108MOL0     C14816   3.860  12.072   8.142  0.3363 -0.0483 -0.0595
  108MOL0     N14817   3.252  11.804   7.768 -0.7264 -0.1053  0.0756
  108MOL0     N14818   3.138  11.733   7.760 -0.9202 -0.3041 -0.1219
  108MOL0     C14819   2.955  11.576   6.859  0.7681 -0.5246  0.8107
  108MOL0     C14820   2.861  11.528   6.767  0.2021  0.0232 -0.4513
  108MOL0     C14821   2.656  11.287   6.436  0.0211 -0.3137 -0.6940
  108MOL0     C14822   2.626  11.390   6.343  0.1086 -0.1666  0.6396
  108MOL0     C14823   2.504  11.395   6.275 -0.2833 -0.6061  0.1587
  108MOL0     C14824   2.415  11.282   6.282  0.4827  0.0776 -0.0523
  108MOL0     O14825   2.301  11.299   6.217 -0.6261 -0.1265  0.8474
  108MOL0     C14826   2.202  11.198   6.218  0.3252  1.3356 -0.1006
  108MOL0     C14827   2.092  11.224   6.123 -0.1998  0.2672 -0.2987
  108MOL0     C14828   2.029  11.366   6.150 -0.0140 -0.2976 -0.0945
  108MOL0     C14829   1.932  11.409   6.036 -0.3774  0.4075 -0.4458
  108MOL0     C14830   1.819  11.315   6.051 -0.6053 -1.3455 -0.1475
  108MOL0     C14831   1.727  11.238   6.043 -0.1915  0.4049 -0.2664
  108MOL0     C14832   2.460  11.170   6.358  0.1034  0.6195  0.4467
  108MOL0     C14833   2.576  11.171   6.438  0.0935  0.2086  0.2768
  108MOL0     C14834   2.607  11.045   6.519 -0.6334 -0.7169 -0.0863
  108MOL0     H14835   3.072  11.390   6.544  1.1257  0.1502 -0.2231
  108MOL0     H14836   3.243  11.470   6.724  0.8013  1.2276 -0.7592
  108MOL0     H14837   3.066  11.619   7.105  2.6819  2.9524  2.3453
  108MOL0     H14838   3.235  11.625   7.137 -1.7070 -0.2782  1.8643
  108MOL0     H14839   3.073  11.367   7.090  1.3169 -0.0899 -1.7901
  108MOL0     H14840   3.243  11.367   7.134 -1.1179  0.1804 -0.8352
  108MOL0     H14841   3.117  11.532   7.326 -1.6649  1.6628 -1.3623
  108MOL0     H14842   2.998  11.407   7.277  1.6076 -1.3435 -5.6653
  108MOL0     H14843   3.171  11.237   7.340  1.6643  0.6251 -0.8528
  108MOL0     H14844   3.272  11.365   7.408 -1.1286 -0.8567  3.0175
  108MOL0     H14845   3.190  11.240   7.568 -0.1033  1.3736  2.6284
  108MOL0     H14846   3.014  11.268   7.520 -0.3168 -0.4752  0.6558
  108MOL0     H14847   3.232  11.474   7.618  1.3765  0.5905  0.6804
  108MOL0     H14848   3.065  11.520   7.589  2.6777  1.8351  2.2238
  108MOL0     H14849   3.177  11.326   7.789  1.7782  2.1447 -3.5350
  108MOL0     H14850   2.995  11.353   7.777 -0.3173  0.1495  0.7890
  108MOL0     H14851   2.973  11.542   7.853 -1.2851 -2.2080 -2.8893
  108MOL0     H14852   3.090  11.471   7.965 -0.0958 -2.7583 -1.3275
  108MOL0     H14853   3.320  11.545   7.957 -2.2166  0.5213  2.2791
  108MOL0     H14854   3.511  11.857   7.830 -3.8526  1.9860 -0.1750
  108MOL0     H14855   3.561  11.700   7.859  0.3618  0.8925  0.4982
  108MOL0     H14856   3.399  11.860   8.060  1.1632  2.1020 -2.8423
  108MOL0     H14857   3.481  11.715   8.118 -0.5392 -0.1862 -0.6667
  108MOL0     H14858   3.609  11.883   8.191 -2.4343 -0.9927  0.5713
  108MOL0     H14859   3.698  11.820   8.045 -0.0699  0.5206 -0.3802
  108MOL0     H14860   3.691  12.037   7.942 -2.1595  4.0248 -2.4262
  108MOL0     H14861   3.521  12.035   7.959  0.0931 -0.2634  0.7606
  108MOL0     H14862   3.704  12.370   8.146 -0.7265 -1.3469 -0.9633
  108MOL0     H14863   3.830  12.550   8.222 -0.3704  0.3814 -1.5682
  108MOL0     H14864   3.994  12.529   8.165 -1.8040  2.1784 -0.0511
  108MOL0     H14865   3.950  12.512   8.341  3.5590 -0.7641 -0.2312
  108MOL0     H14866   4.275  12.586   8.189  0.9948  1.7994 -1.5742
  108MOL0     H14867   4.470  12.672   8.281 -3.4030  1.8024 -3.7418
  108MOL0     H14868   4.700  12.750   8.200 -1.6199  3.3790  1.3197
  108MOL0     H14869   4.660  12.737   8.365  0.7946 -0.5301 -0.4948
  108MOL0     H14870   4.887  12.693   8.438  2.7329 -1.2431  0.2631
  108MOL0     H14871   4.940  12.667   8.268 -2.3832 -0.3604 -0.9172
  108MOL0     H14872   4.837  12.930   8.393  0.7372  2.9657 -1.1124
  108MOL0     H14873   4.893  12.909   8.223  1.2695 -2.8605 -1.1749
  108MOL0     H14874   5.113  12.860   8.267 -1.9361  1.3528 -1.9135
  108MOL0     H14875   5.078  12.811   8.430 -0.8204 -4.2388 -2.4150
  108MOL0     H14876   5.194  13.050   8.362  0.1174 -3.4822 -3.8889
  108MOL0     H14877   5.036  13.096   8.320 -0.5519  1.6812  1.4002
  108MOL0     H14878   5.053  12.967   8.583 -1.9242  0.3588 -0.3897
  108MOL0     H14879   4.942  13.091   8.529 -0.2691 -1.5691 -2.1319
  108MOL0     H14880   5.242  13.101   8.586  0.2563 -0.3631 -1.1708
  108MOL0     H14881   5.108  13.155   8.702 -0.7451  5.1243 -0.2052
  108MOL0     H14882   5.196  13.297   8.432  1.6005  2.4975  0.0339
  108MOL0     H14883   5.250  13.334   8.593  0.2826 -0.2716 -0.0361
  108MOL0     H14884   4.680  12.304   8.211  0.4928  0.1819 -2.6998
  108MOL0     H14885   4.471  12.203   8.142  0.4029  0.5774 -1.6116
  108MOL0     H14886   4.072  12.043   8.164  0.3185  0.0981 -4.0368
  108MOL0     H14887   3.846  11.966   8.124 -2.3977  0.3630 -0.7856
  108MOL0     H14888   2.920  11.632   6.945  0.7029  1.0510 -0.2153
  108MOL0     H14889   2.759  11.564   6.777  0.1844 -0.6234  2.5234
  108MOL0     H14890   2.699  11.470   6.334  1.4615 -1.5892 -2.9629
  108MOL0     H14891   2.470  11.483   6.223 -3.5958 -0.8958  1.5953
  108MOL0     H14892   2.239  11.099   6.189 -4.5230 -0.3947 -1.2511
  108MOL0     H14893   2.164  11.190   6.320  1.2238 -0.5133  0.1267
  108MOL0     H14894   2.024  11.140   6.142  0.1646  0.2988  1.2571
  108MOL0     H14895   2.128  11.219   6.019 -0.8959 -0.1996 -0.5292
  108MOL0     H14896   1.992  11.375   6.253  1.8175 -0.8594  0.6572
  108MOL0     H14897   2.104  11.445   6.133 -0.1676 -0.0150  0.5028
  108MOL0     H14898   1.988  11.382   5.946 -0.8844  2.0520 -1.2846
  108MOL0     H14899   1.908  11.516   6.038  0.7132  0.7169  3.1483
  108MOL0     H14900   1.647  11.171   6.021 -0.1831 -1.1535  3.6072
  108MOL0     H14901   2.393  11.084   6.357  4.4504 -3.2407 -2.9452
  108MOL0     H14902   2.676  10.975   6.469  1.1783  1.2018 -0.4107
  108MOL0     H14903   2.649  11.080   6.613 -1.4413  0.8035 -0.2683
  108MOL0     H14904   2.525  10.978   6.547  0.8431 -2.7437 -0.3499
  109MOL0     O14905  10.389   3.239   0.945 -0.2174  0.3422 -0.1369
  109MOL0     C14906  10.494   3.270   0.892 -0.4189  0.5469 -0.3974
  109MOL0     O14907  10.592   3.345   0.952 -0.0725  0.0116  0.4555
  109MOL0     C14908  10.570   3.416   1.067 -0.1096  0.2603 -0.5988
  109MOL0     C14909  10.455   3.494   1.090  0.3516 -0.2645 -0.7666
  109MOL0     C14910  10.440   3.576   1.197 -0.3340 -0.5034 -0.7305
  109MOL0     C14911  10.547   3.583   1.287  0.7206 -0.2226 -0.1272
  109MOL0     O14912  10.536   3.673   1.393  0.4440 -0.4889  0.8015
  109MOL0     C14913  10.653   3.715   1.463 -0.0589 -0.3489  0.8933
  109MOL0     C14914  10.639   3.851   1.541  0.3516  0.8478 -0.4205
  109MOL0     C14915  10.764   3.881   1.617  0.7131 -0.9399  0.6141
  109MOL0     C14916  10.737   3.936   1.759  1.1142 -1.0563 -0.4614
  109MOL0     C14917  10.857   3.908   1.848 -0.5534  0.3062  0.8868
  109MOL0     C14918  10.862   3.987   1.977  0.3330  0.5001  1.0112
  109MOL0     C14919  10.753   3.962   2.070 -0.0439 -0.1009 -0.0624
  109MOL0     C14920  10.786   4.022   2.203 -0.5663 -0.3220 -0.0347
  109MOL0     N14921  10.902   3.972   2.270 -0.5155  0.0924  0.1403
  109MOL0     C14922  10.896   3.871   2.361  0.0477  0.4712 -0.2922
  109MOL0     C14923  11.019   3.859   2.409  0.9229  0.5291 -1.3712
  109MOL0     C14924  11.053   3.755   2.500 -0.1259 -0.0026  0.1605
  109MOL0     C14925  11.076   3.617   2.425 -0.7522 -0.0823 -1.3582
  109MOL0     C14926  11.171   3.635   2.297 -0.6533 -0.1585  0.4694
  109MOL0     C14927  11.313   3.694   2.325  0.5459  0.1135 -0.4643
  109MOL0     O14928  11.383   3.618   2.424 -0.0052  0.2034 -0.2396
  109MOL0     C14929  11.486   3.662   2.501 -0.3326  0.8252 -0.3928
  109MOL0     C14930  11.578   3.743   2.449  0.0753 -0.7598 -0.1173
  109MOL0     C14931  11.675   3.804   2.527  0.0791 -0.1810  0.1829
  109MOL0     C14932  11.797   3.855   2.453 -0.7929 -0.1357 -0.2146
  109MOL0     C14933  11.673   3.787   2.674  0.2581  1.0499  0.2041
  109MOL0     C14934  11.769   3.834   2.772  0.5121  0.4313  0.3688
  109MOL0     O14935  11.902   3.851   2.729  0.3330 -0.3275  0.8459
  109MOL0     C14936  11.984   3.905   2.820 -0.5807 -0.3416 -0.3399
  109MOL0     C14937  12.061   3.823   2.898 -0.0244 -0.5173 -0.1922
  109MOL0     C14938  12.139   3.868   3.003  0.2113 -0.5336  0.1305
  109MOL0     C14939  12.157   4.010   3.027  0.1069  1.0302  1.2188
  109MOL0     O14940  12.229   4.070   3.116  0.0575 -0.5445  0.1729
  109MOL0     C14941  12.292   3.974   3.203 -0.5217  0.6178 -0.4327
  109MOL0     C14942  12.412   4.041   3.287  0.8866 -0.6340  0.3485
  109MOL0     C14943  12.537   4.063   3.189  0.1786  0.5314  1.8651
  109MOL0     C14944  12.670   4.105   3.264 -0.1346 -0.7661  1.0532
  109MOL0     C14945  12.646   4.244   3.324 -0.1709 -0.4075 -0.1926
  109MOL0     C14946  12.764   4.350   3.296  0.0085  0.4498  0.7302
  109MOL0     C14947  12.754   4.478   3.375  0.5036 -0.6234  0.1771
  109MOL0     C14948  12.827   4.593   3.314 -0.2367 -0.1383  1.1881
  109MOL0    Cl14949  12.998   4.566   3.277 -0.1313  0.2438  0.1195
  109MOL0     C14950  12.096   4.097   2.934  0.4625 -0.0529  0.4465
  109MOL0     C14951  12.012   4.039   2.831  0.1978 -0.4763  0.2865
  109MOL0     O14952  11.737   3.839   2.886  0.1215  0.7259 -0.4773
  109MOL0     C14953  11.571   3.700   2.721 -0.1042 -0.6026 -0.7392
  109MOL0     C14954  11.487   3.632   2.638  0.2724  0.5057  0.0074
  109MOL0     N14955  11.104   3.954   2.350  0.8051 -0.1395 -0.7646
  109MOL0     N14956  11.032   4.017   2.266  0.6494 -0.9445 -0.3782
  109MOL0     C14957  10.656   3.497   1.280 -0.1554 -0.4258 -0.8643
  109MOL0     C14958  10.669   3.419   1.167  0.2175 -0.0385 -0.1799
  109MOL0     C14959  10.519   3.208   0.760  0.1801 -0.8137 -0.2185
  109MOL0     C14960  10.620   3.272   0.687 -0.0759  0.0347 -0.0043
  109MOL0     C14961  10.647   3.237   0.550  1.0353  0.8473 -0.0174
  109MOL0     C14962  10.585   3.129   0.497 -0.5616 -0.4103  0.0749
  109MOL0     O14963  10.624   3.106   0.365 -0.0118 -0.2600 -0.6851
  109MOL0     C14964  10.571   2.995   0.299  0.3820 -0.3303  0.9217
  109MOL0     C14965  10.617   2.991   0.160  0.0183  0.6862 -0.5353
  109MOL0     C14966  10.563   2.862   0.085  0.2631 -0.1590 -0.1123
  109MOL0     C14967  10.603   2.736   0.158  0.1295  0.4584 -0.0074
  109MOL0     C14968  10.588   2.619   0.072  0.3425 -0.4299  0.5672
  109MOL0     C14969  10.555   2.520   0.013 -0.2466  0.0651 -0.1010
  109MOL0     C14970  10.496   3.050   0.579 -0.0934  0.3866  0.3174
  109MOL0     C14971  10.455   3.095   0.707 -0.1282  0.2467  0.0288
  109MOL0     C14972  10.364   3.002   0.779 -0.2501 -0.0890  0.1427
  109MOL0     H14973  10.368   3.487   1.025 -0.8298  0.1238  0.6970
  109MOL0     H14974  10.365   3.652   1.215  3.1910  3.2208 -0.2609
  109MOL0     H14975  10.739   3.718   1.396  1.8801 -2.1870  3.1183
  109MOL0     H14976  10.677   3.641   1.541 -1.0978 -1.2368  0.3990
  109MOL0     H14977  10.627   3.931   1.467  0.4006  3.0639  1.8228
  109MOL0     H14978  10.551   3.851   1.606  1.8378  0.1541  1.6974
  109MOL0     H14979  10.826   3.792   1.635 -0.1695 -2.0020 -1.2556
  109MOL0     H14980  10.815   3.960   1.560 -0.7262 -1.1007 -0.9801
  109MOL0     H14981  10.709   4.041   1.759  2.9111 -0.5556 -1.1744
  109MOL0     H14982  10.650   3.883   1.801  0.7084  0.7324  1.0830
  109MOL0     H14983  10.952   3.923   1.796 -1.5372  2.4928 -0.4232
  109MOL0     H14984  10.839   3.801   1.861  0.2457  0.0428 -0.0639
  109MOL0     H14985  10.947   3.948   2.035 -1.5876  0.0995  3.7584
  109MOL0     H14986  10.899   4.090   1.963  1.3243 -0.0450 -0.7410
  109MOL0     H14987  10.728   3.858   2.090 -0.7537 -0.1750 -1.2398
  109MOL0     H14988  10.665   4.016   2.033  1.0903  0.0274 -2.7610
  109MOL0     H14989  10.799   4.129   2.187 -2.1920 -0.2977 -1.5539
  109MOL0     H14990  10.702   4.007   2.272 -0.2909  0.2939  0.4387
  109MOL0     H14991  10.810   3.810   2.391  1.9488 -0.8763  2.9164
  109MOL0     H14992  10.984   3.747   2.585  0.5710 -1.3478  0.6355
  109MOL0     H14993  11.148   3.783   2.547 -1.2314  1.5899  1.5446
  109MOL0     H14994  11.130   3.555   2.497  0.0052  2.2346  0.1760
  109MOL0     H14995  10.983   3.565   2.398 -0.4738 -2.1697  1.2757
  109MOL0     H14996  11.198   3.542   2.246 -2.2479 -0.3856 -0.0280
  109MOL0     H14997  11.131   3.695   2.215  0.7682 -1.4857 -1.2697
  109MOL0     H14998  11.367   3.701   2.230  0.2449  1.6940 -0.5488
  109MOL0     H14999  11.315   3.800   2.354  2.4385  0.5491 -1.9638
  109MOL0     H15000  11.577   3.750   2.341 -0.7291 -0.4761 -0.0921
  109MOL0     H15001  11.871   3.915   2.508 -1.5233  1.4353 -0.8991
  109MOL0     H15002  11.762   3.906   2.363  1.2843 -1.2698 -1.7371
  109MOL0     H15003  11.865   3.773   2.429 -0.0822  0.0933  0.9102
  109MOL0     H15004  12.048   3.716   2.884 -1.7542 -0.1197 -2.1291
  109MOL0     H15005  12.203   3.802   3.059  1.7831  1.4742  0.8136
  109MOL0     H15006  12.218   3.917   3.261  1.3510 -0.2403  1.2231
  109MOL0     H15007  12.341   3.889   3.155 -0.4366 -0.1797  1.0024
  109MOL0     H15008  12.391   4.140   3.328  3.9310  0.8654 -1.3639
  109MOL0     H15009  12.444   3.980   3.372 -0.3950 -0.8216  0.7097
  109MOL0     H15010  12.502   4.122   3.104 -3.8656 -0.1034  2.8660
  109MOL0     H15011  12.576   3.973   3.141  0.3423  1.4592  0.2159
  109MOL0     H15012  12.751   4.108   3.191  0.9313 -1.2248  2.1889
  109MOL0     H15013  12.693   4.024   3.335  0.3797 -1.0702  0.5503
  109MOL0     H15014  12.565   4.294   3.270 -0.3919  0.5100  0.9570
  109MOL0     H15015  12.620   4.241   3.430 -1.4640 -1.2511 -0.5243
  109MOL0     H15016  12.762   4.368   3.188  1.2134  2.5278  0.9958
  109MOL0     H15017  12.864   4.313   3.323  0.6287  0.8067 -0.9543
  109MOL0     H15018  12.796   4.466   3.475 -0.5715  0.9472  0.8724
  109MOL0     H15019  12.646   4.495   3.372  0.4466 -0.7468 -4.4752
  109MOL0     H15020  12.816   4.685   3.372 -0.5494  0.6648 -0.1259
  109MOL0     H15021  12.779   4.608   3.217  0.9714 -3.4651 -0.0711
  109MOL0     H15022  12.104   4.205   2.929 -0.9182  0.0260 -2.3084
  109MOL0     H15023  11.951   4.099   2.765  0.5361 -2.5991 -2.1258
  109MOL0     H15024  11.564   3.673   2.826  0.3208  0.6885 -0.3609
  109MOL0     H15025  11.412   3.575   2.692  2.2762  0.6307  3.1194
  109MOL0     H15026  10.719   3.487   1.368  0.2381  0.4020 -1.0366
  109MOL0     H15027  10.758   3.358   1.152  0.8746 -0.0814  3.0818
  109MOL0     H15028  10.662   3.364   0.725  0.3306 -0.1055 -0.1057
  109MOL0     H15029  10.710   3.293   0.482 -0.5679  0.4975 -1.8641
  109MOL0     H15030  10.607   2.899   0.337 -0.0600 -0.6925  0.4321
  109MOL0     H15031  10.462   2.998   0.304  0.0348 -0.3722 -3.2986
  109MOL0     H15032  10.726   2.987   0.147 -0.2114 -1.7696 -2.3303
  109MOL0     H15033  10.587   3.080   0.106 -0.1610  0.8792 -0.1251
  109MOL0     H15034  10.455   2.872   0.101  0.9068  3.8718  4.3219
  109MOL0     H15035  10.596   2.858  -0.019  0.7736  1.1325 -0.0173
  109MOL0     H15036  10.554   2.723   0.255 -0.0736 -0.2113 -0.1965
  109MOL0     H15037  10.705   2.729   0.198  0.4190 -2.9873 -1.0251
  109MOL0     H15038  10.525   2.427  -0.030 -1.8006 -0.5317  2.0856
  109MOL0     H15039  10.466   2.952   0.544  0.0083  0.3747  0.2638
  109MOL0     H15040  10.291   3.051   0.845  0.0358 -2.8613  2.7485
  109MOL0     H15041  10.299   2.953   0.707  0.2963 -1.1826  0.3710
  109MOL0     H15042  10.419   2.939   0.849 -0.3656 -0.8678 -0.4510
  110MOL0     O15043   3.847   4.051  10.776  0.0930 -0.8095 -0.8032
  110MOL0     C15044   3.893   4.167  10.786  0.1072  0.7425 -1.0176
  110MOL0     O15045   3.848   4.268  10.876  0.0907 -0.5150  0.3264
  110MOL0     C15046   3.737   4.261  10.959 -0.3687  0.2484  0.5778
  110MOL0     C15047   3.616   4.191  10.930  0.3707  0.6524 -0.3582
  110MOL0     C15048   3.509   4.197  11.022  0.0870  0.3462  0.6817
  110MOL0     C15049   3.525   4.268  11.141  0.4533 -0.5598  0.5649
  110MOL0     O15050   3.428   4.272  11.236 -0.4924  0.9017 -0.1319
  110MOL0     C15051   3.294   4.297  11.197  0.1788  0.2684 -0.1803
  110MOL0     C15052   3.211   4.170  11.239  0.2001  0.1710 -0.1412
  110MOL0     C15053   3.071   4.194  11.217  1.3651 -0.1944 -0.0271
  110MOL0     C15054   3.036   4.165  11.071  0.4999 -0.5656 -0.3238
  110MOL0     C15055   2.891   4.198  11.033 -0.0101 -0.0509  0.0001
  110MOL0     C15056   2.796   4.111  11.112  0.7040 -0.0079  1.2226
  110MOL0     C15057   2.654   4.155  11.077 -0.1843  0.7561  0.3118
  110MOL0     C15058   2.546   4.074  11.149  0.3458  0.0626 -0.1019
  110MOL0     N15059   2.558   3.931  11.137 -0.2812  0.0997  0.0643
  110MOL0     C15060   2.583   3.879  11.013 -0.9515 -1.0252 -0.7051
  110MOL0     C15061   2.544   3.750  11.025  0.5997 -0.8275  0.2368
  110MOL0     C15062   2.564   3.638  10.932 -0.4167  0.0285  0.0098
  110MOL0     C15063   2.687   3.562  10.978 -0.0292 -0.4306 -1.0206
  110MOL0     C15064   2.735   3.465  10.869 -0.1068 -0.0529 -0.0946
  110MOL0     C15065   2.881   3.423  10.895  0.8376  0.1062  0.6157
  110MOL0     O15066   2.907   3.381  11.031  0.9471 -0.1015  0.2695
  110MOL0     C15067   3.032   3.374  11.077  0.3225 -0.7117  0.2563
  110MOL0     C15068   3.062   3.381  11.211  0.0522 -0.1796 -0.0298
  110MOL0     C15069   3.184   3.362  11.269 -0.0400  0.4260  1.2597
  110MOL0     C15070   3.215   3.385  11.421  0.6888 -0.1204 -0.3299
  110MOL0     C15071   3.289   3.320  11.179  0.3425 -0.5789  0.8958
  110MOL0     C15072   3.429   3.283  11.215  0.3169 -0.4621  0.4969
  110MOL0     O15073   3.529   3.288  11.117 -0.2721  0.2325  0.3644
  110MOL0     C15074   3.662   3.246  11.129  0.1133 -0.0311 -0.2587
  110MOL0     C15075   3.741   3.238  11.011  0.7265 -0.6759 -0.6229
  110MOL0     C15076   3.876   3.195  11.013  0.6487 -0.8296 -0.3930
  110MOL0     C15077   3.938   3.172  11.134 -0.9164  1.3059  0.2042
  110MOL0     O15078   4.076   3.142  11.140 -0.2097 -0.3250  0.2214
  110MOL0     C15079   4.133   3.105  11.270 -0.0017  0.0506 -0.4833
  110MOL0     C15080   4.247   2.996  11.254  0.1057  0.7949  0.0081
  110MOL0     C15081   4.376   3.072  11.208  0.8442  0.4461 -0.8396
  110MOL0     C15082   4.421   3.030  11.066  0.2318 -1.1518  0.1531
  110MOL0     C15083   4.532   3.132  11.018  1.1331  0.1003  0.0939
  110MOL0     C15084   4.658   3.143  11.106  0.9995 -0.2294  1.0583
  110MOL0     C15085   4.780   3.190  11.028  0.0475  0.1974  0.3821
  110MOL0     C15086   4.893   3.210  11.129  1.0487 -0.4380  0.3826
  110MOL0    Cl15087   5.029   3.281  11.047 -0.0613  0.1071  0.3686
  110MOL0     C15088   3.865   3.204  11.249 -0.3758  1.1597  0.0991
  110MOL0     C15089   3.733   3.241  11.246 -0.2710 -0.4590 -0.4969
  110MOL0     O15090   3.435   3.236  11.328  0.0517 -0.1037 -0.3415
  110MOL0     C15091   3.263   3.311  11.033  0.3666  0.5613  0.0400
  110MOL0     C15092   3.135   3.338  10.987 -0.3673 -0.1650  0.2511
  110MOL0     N15093   2.497   3.728  11.153 -0.4408 -0.5238 -1.3701
  110MOL0     N15094   2.503   3.843  11.224  0.0474 -0.0249 -0.1025
  110MOL0     C15095   3.637   4.351  11.157 -0.6311 -0.3201  0.4604
  110MOL0     C15096   3.748   4.346  11.074  0.4039  0.2108  0.2467
  110MOL0     C15097   4.005   4.189  10.690 -0.5912  0.1443 -0.3471
  110MOL0     C15098   4.072   4.074  10.635  0.1698 -0.8736  0.4872
  110MOL0     C15099   4.161   4.094  10.533  0.2199 -0.1835  0.1459
  110MOL0     C15100   4.190   4.219  10.479 -0.2823  0.0408  0.0234
  110MOL0     O15101   4.277   4.233  10.377 -0.4088 -0.4644  0.6683
  110MOL0     C15102   4.308   4.131  10.282  0.0408 -0.1199 -0.5240
  110MOL0     C15103   4.363   4.183  10.153  0.4696 -0.8507  0.0238
  110MOL0     C15104   4.518   4.178  10.157  0.1261  0.0361 -0.0957
  110MOL0     C15105   4.576   4.248  10.044  0.2853  0.0445 -0.3581
  110MOL0     C15106   4.714   4.259  10.060 -0.1434  0.9221  0.1445
  110MOL0     C15107   4.839   4.254  10.069  0.3294  1.0381 -0.1712
  110MOL0     C15108   4.132   4.328  10.543 -0.4629 -0.1842  0.9331
  110MOL0     C15109   4.030   4.318  10.635  0.1882  0.3132  0.1567
  110MOL0     C15110   3.971   4.446  10.686 -0.5882  0.6991 -0.7147
  110MOL0     H15111   3.622   4.130  10.840 -1.1119 -1.0502  0.6210
  110MOL0     H15112   3.414   4.144  11.023  1.2914 -2.0983 -2.0609
  110MOL0     H15113   3.291   4.327  11.091 -1.3195  2.3001  0.3725
  110MOL0     H15114   3.270   4.385  11.257  0.7959  2.8666 -3.3961
  110MOL0     H15115   3.253   4.084  11.186  0.3206  1.0627 -1.5452
  110MOL0     H15116   3.214   4.155  11.347 -2.5327 -3.9262 -0.4062
  110MOL0     H15117   3.020   4.119  11.278  0.2913 -0.9144 -1.7466
  110MOL0     H15118   3.031   4.294  11.237  0.7295 -0.8007  2.0084
  110MOL0     H15119   3.117   4.214  11.016  1.0147 -0.0769  0.8389
  110MOL0     H15120   3.054   4.058  11.060  0.1901 -0.5975 -0.5342
  110MOL0     H15121   2.878   4.178  10.926 -0.1194  1.4851 -0.2851
  110MOL0     H15122   2.886   4.306  11.050  4.7071  0.4526 -0.4646
  110MOL0     H15123   2.813   4.013  11.068  0.0679  1.6082 -3.0643
  110MOL0     H15124   2.820   4.114  11.219  1.2878 -2.6479  1.2190
  110MOL0     H15125   2.639   4.141  10.970 -1.3261  0.4444  0.5055
  110MOL0     H15126   2.647   4.263  11.094 -4.5527  0.8477 -1.0898
  110MOL0     H15127   2.554   4.094  11.257  0.7218 -0.0935 -0.0972
  110MOL0     H15128   2.446   4.104  11.115  1.3201  1.2245 -2.1030
  110MOL0     H15129   2.641   3.916  10.929  0.7935 -0.7474  0.5800
  110MOL0     H15130   2.576   3.678  10.831  1.0174 -1.0003 -0.2538
  110MOL0     H15131   2.479   3.570  10.934  0.0043 -0.4964  1.5761
  110MOL0     H15132   2.763   3.624  11.027 -2.9851  1.0116  2.1900
  110MOL0     H15133   2.651   3.498  11.059 -1.6123  1.9738  0.3226
  110MOL0     H15134   2.686   3.368  10.883  3.1385 -1.5695  1.9058
  110MOL0     H15135   2.720   3.509  10.770  0.1961 -0.7257 -0.4484
  110MOL0     H15136   2.901   3.342  10.824 -2.3910 -1.0374  0.8464
  110MOL0     H15137   2.940   3.512  10.872  1.1667 -0.7019 -2.0698
  110MOL0     H15138   2.970   3.399  11.266 -1.3803 -0.2995 -2.2383
  110MOL0     H15139   3.291   3.462  11.430  0.0421  0.2289  4.0398
  110MOL0     H15140   3.245   3.293  11.473  2.4590  0.8828  0.4751
  110MOL0     H15141   3.127   3.428  11.469  1.3264  0.1809  0.5986
  110MOL0     H15142   3.684   3.239  10.918  3.6523  0.0642 -2.5625
  110MOL0     H15143   3.921   3.189  10.915 -0.2930  3.3678 -1.2941
  110MOL0     H15144   4.171   3.194  11.322  2.4856 -1.3275  0.1860
  110MOL0     H15145   4.061   3.050  11.332 -0.6851 -0.1698 -1.4489
  110MOL0     H15146   4.277   2.945  11.346  2.0002 -0.9211 -1.4420
  110MOL0     H15147   4.226   2.909  11.190  0.9557 -0.6823  1.6503
  110MOL0     H15148   4.453   3.056  11.284 -1.0810  1.2575  1.4170
  110MOL0     H15149   4.352   3.179  11.207  0.4182  0.3541 -0.9339
  110MOL0     H15150   4.335   3.038  10.998  0.4572  0.5201  0.0284
  110MOL0     H15151   4.464   2.930  11.059  3.1769  0.1118 -2.5807
  110MOL0     H15152   4.560   3.108  10.915 -1.3989  3.7089 -1.6483
  110MOL0     H15153   4.481   3.228  11.007  0.2285 -0.5404 -1.5497
  110MOL0     H15154   4.693   3.043  11.136 -1.3465 -2.0835 -1.8694
  110MOL0     H15155   4.635   3.198  11.198  0.9279 -2.3786  2.3865
  110MOL0     H15156   4.764   3.280  10.968 -0.2365 -0.7769 -1.0695
  110MOL0     H15157   4.807   3.113  10.955  0.9603  0.5577  0.3277
  110MOL0     H15158   4.907   3.116  11.183  0.1332  0.3265  2.0618
  110MOL0     H15159   4.862   3.277  11.210  2.6385 -0.6828  1.2407
  110MOL0     H15160   3.908   3.202  11.349 -2.3014 -1.0144  0.9780
  110MOL0     H15161   3.679   3.268  11.336 -0.6446  0.1519 -0.8897
  110MOL0     H15162   3.341   3.276  10.966 -1.1759 -1.5877 -0.7386
  110MOL0     H15163   3.123   3.317  10.881 -1.4769 -4.6598  1.0311
  110MOL0     H15164   3.646   4.409  11.249  2.6436 -1.7017  1.1527
  110MOL0     H15165   3.838   4.404  11.089  1.4630 -1.0723 -0.8286
  110MOL0     H15166   4.037   3.975  10.665  2.0464 -3.3234 -4.4037
  110MOL0     H15167   4.214   4.016  10.479 -0.0096 -0.2734  0.0497
  110MOL0     H15168   4.379   4.066  10.334 -1.9608 -0.2936  2.1712
  110MOL0     H15169   4.219   4.073  10.259  0.6266 -1.1761 -0.1950
  110MOL0     H15170   4.325   4.284  10.132  2.8784  0.7749  2.7681
  110MOL0     H15171   4.334   4.115  10.072  0.3393 -2.2627  1.2280
  110MOL0     H15172   4.549   4.218  10.254 -1.0464 -1.4086  0.8931
  110MOL0     H15173   4.558   4.077  10.164 -1.7774 -0.7683 -0.4632
  110MOL0     H15174   4.523   4.345  10.039 -2.3240 -1.3256 -1.4582
  110MOL0     H15175   4.544   4.192   9.956  1.1361 -1.0907  0.0411
  110MOL0     H15176   4.946   4.251  10.066  0.4824  0.2181  2.6716
  110MOL0     H15177   4.147   4.427  10.500 -2.6205 -0.1536  0.1158
  110MOL0     H15178   4.023   4.524  10.630 -1.3871  0.8834 -1.2104
  110MOL0     H15179   3.866   4.459  10.659 -0.7288 -0.9580 -1.1170
  110MOL0     H15180   3.991   4.467  10.792 -0.5762 -0.7792 -0.3937
  111MOL0     O15181   7.561   5.761   8.658 -0.0417  0.1342 -0.3662
  111MOL0     C15182   7.520   5.682   8.573 -1.0622 -0.5703  0.4300
  111MOL0     O15183   7.455   5.708   8.461 -0.1399  0.2687  0.1920
  111MOL0     C15184   7.424   5.828   8.415 -0.1680 -0.3362  0.0505
  111MOL0     C15185   7.482   5.952   8.460  0.3333 -0.2806 -0.2307
  111MOL0     C15186   7.461   6.076   8.385  0.7167  1.0551 -0.2403
  111MOL0     C15187   7.393   6.070   8.268  1.2459  0.2809  0.2038
  111MOL0     O15188   7.386   6.190   8.200 -0.0754  0.2231 -0.3962
  111MOL0     C15189   7.371   6.185   8.061  1.0378  0.0802  0.0915
  111MOL0     C15190   7.456   6.297   8.006 -0.3705 -0.0939  0.6742
  111MOL0     C15191   7.607   6.254   8.000  0.6914 -0.1007  0.8222
  111MOL0     C15192   7.683   6.353   7.911  0.2580  0.3752 -0.0796
  111MOL0     C15193   7.824   6.316   7.872 -0.4134  0.0381 -0.5617
  111MOL0     C15194   7.934   6.352   7.971  1.0614 -0.2748 -0.8157
  111MOL0     C15195   8.067   6.285   7.940  0.3391  0.1577  0.0981
  111MOL0     C15196   8.179   6.323   8.042 -0.9862  0.3003 -0.8031
  111MOL0     N15197   8.174   6.234   8.163  0.9162 -0.0280 -0.3831
  111MOL0     C15198   8.253   6.125   8.168 -0.5969  0.1997 -0.5974
  111MOL0     C15199   8.227   6.073   8.293  0.0522 -0.1898 -0.3823
  111MOL0     C15200   8.285   5.944   8.359  0.8266  0.4448 -0.4223
  111MOL0     C15201   8.329   5.974   8.498 -0.8045  0.0741 -0.4165
  111MOL0     C15202   8.391   5.853   8.564  1.0422 -0.9176  0.1977
  111MOL0     C15203   8.295   5.736   8.572 -0.1278 -0.5788 -0.4728
  111MOL0     O15204   8.357   5.638   8.659 -0.1960  0.3929  0.2435
  111MOL0     C15205   8.271   5.554   8.724  0.1672  0.4259 -0.4313
  111MOL0     C15206   8.146   5.514   8.690  0.4544  0.2857  0.5510
  111MOL0     C15207   8.067   5.434   8.769  0.7908  0.8575  0.3919
  111MOL0     C15208   7.924   5.404   8.731  0.2604  0.5454 -1.5437
  111MOL0     C15209   8.123   5.383   8.893  0.3189 -1.3538  0.2534
  111MOL0     C15210   8.053   5.290   8.989  0.3898  0.5229  0.4782
  111MOL0     O15211   8.040   5.325   9.122  0.1612 -0.7082  0.2012
  111MOL0     C15212   8.007   5.224   9.208  0.1778  0.1005  0.1892
  111MOL0     C15213   8.107   5.143   9.262 -0.4574  0.2139 -0.0923
  111MOL0     C15214   8.066   5.047   9.359 -0.0535 -0.1239  0.6626
  111MOL0     C15215   7.939   5.027   9.400 -0.3235  0.2376  0.5094
  111MOL0     O15216   7.908   4.909   9.473  0.2999 -0.2831  0.6654
  111MOL0     C15217   7.792   4.922   9.551  0.9777  0.2852  0.0931
  111MOL0     C15218   7.789   4.821   9.673  0.3236  0.3527  0.6690
  111MOL0     C15219   7.800   4.674   9.632 -0.1101  0.1551  0.8359
  111MOL0     C15220   7.688   4.625   9.541 -0.2640 -0.1961  0.5333
  111MOL0     C15221   7.719   4.494   9.486 -0.0830 -0.0754  1.3563
  111MOL0     C15222   7.604   4.430   9.395 -0.7115  0.3272 -0.4278
  111MOL0     C15223   7.609   4.274   9.375  0.1232  0.2410 -0.6825
  111MOL0     C15224   7.618   4.216   9.233  0.6593 -0.9782 -0.5692
  111MOL0    Cl15225   7.717   4.307   9.121  0.4620  0.1385  0.1164
  111MOL0     C15226   7.835   5.105   9.338  0.2667 -0.4714 -0.0244
  111MOL0     C15227   7.877   5.207   9.253  0.2031  0.5280  0.3501
  111MOL0     O15228   7.992   5.198   8.929 -0.2673 -0.6241  0.6188
  111MOL0     C15229   8.257   5.420   8.921  0.7166  0.5079  0.4940
  111MOL0     C15230   8.331   5.507   8.838 -0.0144  0.3808  0.1553
  111MOL0     N15231   8.130   6.148   8.355 -0.6974  0.3220 -1.1049
  111MOL0     N15232   8.096   6.244   8.276 -0.1765 -0.0419  0.1918
  111MOL0     C15233   7.333   5.948   8.233  1.1748  0.2907  0.5218
  111MOL0     C15234   7.345   5.830   8.300 -0.3587  0.2022 -0.4063
  111MOL0     C15235   7.541   5.538   8.602  0.1279  0.4909  0.3044
  111MOL0     C15236   7.545   5.500   8.740 -0.1779 -0.6250 -0.1575
  111MOL0     C15237   7.554   5.373   8.784  0.3970  0.2949  0.6826
  111MOL0     C15238   7.566   5.272   8.692  0.3269 -0.7025  0.0797
  111MOL0     O15239   7.550   5.143   8.727 -0.2355  0.6565  0.0667
  111MOL0     C15240   7.631   5.057   8.646  0.3885 -0.6478  0.0624
  111MOL0     C15241   7.686   4.950   8.739  0.1365  0.7199  0.8202
  111MOL0     C15242   7.762   4.846   8.669 -0.0012 -0.2138 -0.0678
  111MOL0     C15243   7.823   4.752   8.768 -0.3586 -0.0557  0.1254
  111MOL0     C15244   7.716   4.669   8.821 -0.3193  0.2983  0.8301
  111MOL0     C15245   7.643   4.579   8.856 -0.9366  0.0110  0.9828
  111MOL0     C15246   7.553   5.300   8.552 -0.3101 -1.2493  0.4166
  111MOL0     C15247   7.551   5.431   8.509 -0.2065 -0.4041 -0.3976
  111MOL0     C15248   7.553   5.462   8.362 -0.0808  0.4408 -0.7263
  111MOL0     H15249   7.545   5.952   8.549 -0.4414  1.5007  0.3613
  111MOL0     H15250   7.503   6.170   8.419  1.5219  0.0267  1.7476
  111MOL0     H15251   7.266   6.208   8.041  0.6928  0.0099  1.6622
  111MOL0     H15252   7.402   6.091   8.014 -0.2716 -0.9717  1.2397
  111MOL0     H15253   7.442   6.325   7.901  1.9732 -1.0707  0.0412
  111MOL0     H15254   7.435   6.393   8.054  1.3848 -0.8937  3.2309
  111MOL0     H15255   7.652   6.251   8.099  4.1444  1.9928 -0.5248
  111MOL0     H15256   7.621   6.157   7.951  1.2654  0.7894 -0.8350
  111MOL0     H15257   7.631   6.360   7.815  0.4862 -3.7600 -0.6640
  111MOL0     H15258   7.687   6.449   7.965 -0.1649  0.2508  0.1742
  111MOL0     H15259   7.842   6.356   7.771  0.5790 -1.1918 -0.9039
  111MOL0     H15260   7.824   6.208   7.856  2.9896 -0.4577  1.6530
  111MOL0     H15261   7.945   6.461   7.973  0.8402  0.0965  6.1350
  111MOL0     H15262   7.905   6.327   8.074 -0.4241  1.8377 -0.6535
  111MOL0     H15263   8.107   6.304   7.840 -1.0651  0.8967 -0.3582
  111MOL0     H15264   8.050   6.177   7.935  2.5662 -0.1838 -2.4397
  111MOL0     H15265   8.281   6.309   8.004 -1.0774 -1.8121 -0.4126
  111MOL0     H15266   8.171   6.425   8.080  1.7497  0.7068 -1.0908
  111MOL0     H15267   8.320   6.094   8.090 -1.8099 -2.3879 -0.7140
  111MOL0     H15268   8.361   5.896   8.296  1.4451 -2.1225  2.0629
  111MOL0     H15269   8.201   5.876   8.375  1.9169 -0.3367  2.9511
  111MOL0     H15270   8.400   6.057   8.502 -0.1838 -0.4921  1.4087
  111MOL0     H15271   8.243   6.011   8.555  0.7727  0.6268  1.7074
  111MOL0     H15272   8.471   5.818   8.499  0.2801  0.2787 -1.4392
  111MOL0     H15273   8.426   5.876   8.665  0.4883 -1.6796  0.5768
  111MOL0     H15274   8.199   5.775   8.608  0.3990 -0.3122  0.6786
  111MOL0     H15275   8.277   5.697   8.471  1.2407 -1.4337 -0.4017
  111MOL0     H15276   8.104   5.530   8.591  0.8844  0.7235  0.4358
  111MOL0     H15277   7.859   5.405   8.819 -0.6649  0.9125 -2.2104
  111MOL0     H15278   7.914   5.309   8.678  0.3613  0.6455 -1.7426
  111MOL0     H15279   7.888   5.484   8.665  0.5368  2.1782  0.1901
  111MOL0     H15280   8.209   5.157   9.226  0.3391  0.9985  2.2530
  111MOL0     H15281   8.134   4.968   9.390  0.3402 -0.5466 -1.1954
  111MOL0     H15282   7.793   5.017   9.606 -2.0823  0.5018 -0.0317
  111MOL0     H15283   7.704   4.912   9.485 -0.5010 -3.0168  2.3441
  111MOL0     H15284   7.873   4.850   9.736  0.4313  1.7348 -0.0746
  111MOL0     H15285   7.691   4.836   9.720 -1.2218 -0.7881 -1.9327
  111MOL0     H15286   7.796   4.610   9.720 -0.3589  0.3287  0.9505
  111MOL0     H15287   7.902   4.661   9.593  0.3064  0.5425  1.7546
  111MOL0     H15288   7.698   4.693   9.456  2.5181 -0.0494  0.8744
  111MOL0     H15289   7.591   4.629   9.591  0.5471  0.9062  2.0732
  111MOL0     H15290   7.802   4.507   9.415 -0.8813 -2.4721 -0.1133
  111MOL0     H15291   7.752   4.424   9.563  0.8600 -2.8401 -1.3767
  111MOL0     H15292   7.622   4.468   9.294  2.3775  0.5384  0.0997
  111MOL0     H15293   7.509   4.460   9.441 -1.0225 -1.2238 -0.0108
  111MOL0     H15294   7.524   4.230   9.428  1.9979  0.7460  3.0302
  111MOL0     H15295   7.696   4.233   9.426 -0.9656 -1.3693 -0.0410
  111MOL0     H15296   7.514   4.223   9.198 -0.9666 -1.9512  3.4914
  111MOL0     H15297   7.636   4.108   9.235 -1.6093 -1.4089  0.1588
  111MOL0     H15298   7.732   5.080   9.360  0.4428 -0.5561  0.7419
  111MOL0     H15299   7.800   5.273   9.212 -1.3467 -0.8153  0.9788
  111MOL0     H15300   8.307   5.374   9.006  0.9340  0.2156  0.2102
  111MOL0     H15301   8.437   5.523   8.854  0.5216 -3.1076  1.0437
  111MOL0     H15302   7.273   5.950   8.143  0.7163  1.4641  0.8334
  111MOL0     H15303   7.293   5.739   8.269  2.1766 -1.2819 -0.5605
  111MOL0     H15304   7.548   5.571   8.822  3.1926  1.7774 -2.1625
  111MOL0     H15305   7.541   5.351   8.889  2.3401  1.0374  1.1199
  111MOL0     H15306   7.574   5.011   8.564  0.6009  1.2383 -1.2025
  111MOL0     H15307   7.704   5.101   8.578 -1.2283 -1.8335 -2.5971
  111MOL0     H15308   7.606   4.899   8.793  0.4709 -0.0907  0.5740
  111MOL0     H15309   7.753   5.011   8.801  0.3766  2.2801 -0.8902
  111MOL0     H15310   7.696   4.782   8.610  1.2512 -2.6756  1.0645
  111MOL0     H15311   7.835   4.878   8.595 -1.1803 -1.7527 -2.0034
  111MOL0     H15312   7.864   4.808   8.853  2.8502 -2.0859  0.1006
  111MOL0     H15313   7.909   4.694   8.733 -0.3915 -1.7349  2.6231
  111MOL0     H15314   7.587   4.489   8.875 -0.7412 -0.4185 -0.3731
  111MOL0     H15315   7.559   5.231   8.469  0.3408 -0.1932 -0.4395
  111MOL0     H15316   7.613   5.379   8.323  0.3399  0.2652  0.2461
  111MOL0     H15317   7.454   5.465   8.318 -1.0555  2.0853  1.3847
  111MOL0     H15318   7.599   5.560   8.347  1.6114 -0.5129 -2.2106
  112MOL0     O15319   8.792   9.349   9.660 -0.0426  0.6552  1.3079
  112MOL0     C15320   8.752   9.420   9.749 -0.4429  0.1197  0.5216
  112MOL0     O15321   8.688   9.375   9.857 -0.3435 -0.2268 -0.9789
  112MOL0     C15322   8.635   9.241   9.847  0.7193 -0.1212  0.3257
  112MOL0     C15323   8.529   9.207   9.769  0.0176  0.3845  1.5692
  112MOL0     C15324   8.486   9.078   9.762  0.0514 -0.3579  0.0853
  112MOL0     C15325   8.547   8.972   9.832 -0.0284 -0.0583  0.4286
  112MOL0     O15326   8.503   8.840   9.839  1.0605 -0.6185  0.0961
  112MOL0     C15327   8.366   8.826   9.878  0.4287  0.8440  0.1298
  112MOL0     C15328   8.321   8.694   9.936 -0.1798  0.2330  1.2967
  112MOL0     C15329   8.412   8.628  10.039 -0.5703 -0.1091  0.8397
  112MOL0     C15330   8.425   8.712  10.160  0.3877 -0.7733  0.0585
  112MOL0     C15331   8.481   8.628  10.277  0.3925 -0.5176 -0.0624
  112MOL0     C15332   8.549   8.706  10.392  0.3710 -0.2521  0.3985
  112MOL0     C15333   8.458   8.820  10.450  0.8491 -0.0534 -0.6974
  112MOL0     C15334   8.490   8.830  10.591  0.3198 -0.4721 -1.1239
  112MOL0     N15335   8.423   8.951  10.647 -0.2386 -0.9253 -1.2532
  112MOL0     C15336   8.471   9.074  10.640  0.2299 -0.5968  0.1230
  112MOL0     C15337   8.368   9.149  10.684 -0.8590  0.5915 -0.6647
  112MOL0     C15338   8.374   9.296  10.703 -0.2032  0.2729 -0.0932
  112MOL0     C15339   8.518   9.351  10.695  0.3480 -0.3301 -0.0736
  112MOL0     C15340   8.536   9.509  10.692  0.3749 -0.8712 -0.5827
  112MOL0     C15341   8.682   9.563  10.689 -0.7183  0.0032  0.6250
  112MOL0     O15342   8.746   9.503  10.570 -0.2522  0.6001 -0.1491
  112MOL0     C15343   8.872   9.558  10.525  0.4629  0.6795  0.5268
  112MOL0     C15344   8.963   9.471  10.469  0.5885 -0.2116  0.6566
  112MOL0     C15345   9.092   9.516  10.429 -0.5957  0.1454 -0.0896
  112MOL0     C15346   9.192   9.401  10.393  0.6958 -0.5081 -0.1869
  112MOL0     C15347   9.131   9.653  10.448 -0.0954  0.3698  0.2648
  112MOL0     C15348   9.259   9.712  10.395  0.8908 -0.4082 -0.0083
  112MOL0     O15349   9.303   9.813  10.470 -0.0359 -0.3830 -0.1582
  112MOL0     C15350   9.398   9.897  10.421 -0.3860 -0.5608 -0.5162
  112MOL0     C15351   9.500   9.931  10.508 -0.1321  0.2113 -0.2086
  112MOL0     C15352   9.601  10.027  10.482 -0.7125  0.4366  0.8355
  112MOL0     C15353   9.603  10.098  10.361  0.8013 -0.7647  0.9249
  112MOL0     O15354   9.693  10.197  10.323  0.0640 -0.4970  0.6211
  112MOL0     C15355   9.825  10.194  10.377  0.8422 -0.4971 -0.5541
  112MOL0     C15356   9.908  10.289  10.282 -0.5416 -0.7257  0.0947
  112MOL0     C15357  10.054  10.287  10.286 -0.2680  0.1679 -0.3585
  112MOL0     C15358  10.114  10.366  10.165  0.1269 -0.6659  0.0450
  112MOL0     C15359  10.118  10.518  10.191  0.5164  0.4569 -0.4381
  112MOL0     C15360  10.192  10.584  10.078  0.3179  0.1941 -0.5044
  112MOL0     C15361  10.201  10.735  10.096  0.8784  0.0274 -0.2671
  112MOL0     C15362  10.219  10.805   9.964 -0.6745  0.4788 -0.2991
  112MOL0    Cl15363  10.358  10.738   9.873 -0.5084  0.0144  0.1977
  112MOL0     C15364   9.500  10.062  10.267 -0.0298 -0.4840 -0.5213
  112MOL0     C15365   9.403   9.968  10.294 -0.2253  0.7250  0.0747
  112MOL0     O15366   9.303   9.679  10.288 -1.4471  1.0002 -0.6088
  112MOL0     C15367   9.034   9.738  10.511 -0.2189  0.4215  0.2258
  112MOL0     C15368   8.910   9.696  10.546 -0.0891  0.3455 -0.1059
  112MOL0     N15369   8.272   9.063  10.724  0.8386 -0.9288  0.1791
  112MOL0     N15370   8.305   8.945  10.709  0.2308 -0.0069  0.0084
  112MOL0     C15371   8.661   9.009   9.904 -0.2173  0.1656 -0.1271
  112MOL0     C15372   8.704   9.142   9.909 -0.2475  0.5783 -0.3778
  112MOL0     C15373   8.778   9.574   9.738 -1.6189  0.3008  0.0293
  112MOL0     C15374   8.701   9.670   9.806  0.2439 -0.4089  0.5207
  112MOL0     C15375   8.715   9.798   9.781 -0.1756  0.2970 -0.1384
  112MOL0     C15376   8.826   9.848   9.709  1.2164 -0.0672  0.0390
  112MOL0     O15377   8.821   9.983   9.706 -0.5966 -0.3446 -0.1971
  112MOL0     C15378   8.932  10.059   9.641  0.2703 -0.0075  0.3229
  112MOL0     C15379   9.062  10.085   9.720 -0.8202 -0.2036 -0.9403
  112MOL0     C15380   9.054  10.203   9.821 -0.8807  0.9456  0.3713
  112MOL0     C15381   8.950  10.185   9.937  0.3885 -0.0484 -0.0274
  112MOL0     C15382   8.998  10.080  10.024  1.1509  0.3038  0.3009
  112MOL0     C15383   9.052   9.992  10.092 -0.1687 -0.1008 -0.3413
  112MOL0     C15384   8.912   9.759   9.647 -0.3156 -0.5741 -0.4210
  112MOL0     C15385   8.883   9.619   9.656  0.1230 -0.3526  0.4887
  112MOL0     C15386   8.980   9.534   9.582  0.1581  0.1289 -0.4206
  112MOL0     H15387   8.477   9.284   9.712 -1.8559 -2.4252 -0.8533
  112MOL0     H15388   8.403   9.047   9.700  1.2362 -1.3982 -1.0499
  112MOL0     H15389   8.291   8.848   9.801 -2.1786  1.8081  2.7418
  112MOL0     H15390   8.346   8.897   9.959  0.9479  0.8869  0.2243
  112MOL0     H15391   8.222   8.717   9.978 -1.0315  0.8579 -0.9377
  112MOL0     H15392   8.301   8.631   9.849  2.3444  0.7929  0.2161
  112MOL0     H15393   8.365   8.535  10.074 -1.4456 -0.0291 -0.0592
  112MOL0     H15394   8.507   8.595   9.996  0.0858  1.0726  1.3421
  112MOL0     H15395   8.492   8.794  10.132 -3.7390  1.8906 -3.4286
  112MOL0     H15396   8.335   8.769  10.188  0.8766 -0.2044  0.5054
  112MOL0     H15397   8.554   8.551  10.249  0.1090 -0.9458  0.3628
  112MOL0     H15398   8.395   8.582  10.325 -0.1465 -2.0204 -2.2922
  112MOL0     H15399   8.577   8.638  10.473  0.0331  0.9491  1.5670
  112MOL0     H15400   8.639   8.752  10.353  0.2904  0.6221  1.2110
  112MOL0     H15401   8.352   8.797  10.430  0.8398  0.7309 -1.6233
  112MOL0     H15402   8.481   8.916  10.403 -0.4505  1.3045  1.2712
  112MOL0     H15403   8.458   8.741  10.646  3.0323 -1.6628 -1.2745
  112MOL0     H15404   8.598   8.850  10.601  0.0216  0.2622  1.3103
  112MOL0     H15405   8.563   9.111  10.596  2.0055 -3.1761  1.4094
  112MOL0     H15406   8.328   9.327  10.798 -0.2473  3.3007 -1.0073
  112MOL0     H15407   8.314   9.360  10.637 -3.3747  0.3638  2.5853
  112MOL0     H15408   8.585   9.315  10.774  3.4674  1.6304 -1.6405
  112MOL0     H15409   8.566   9.319  10.602  1.8484 -2.4692  1.3348
  112MOL0     H15410   8.488   9.556  10.606 -0.0403  0.0559  0.1388
  112MOL0     H15411   8.495   9.552  10.784  0.7038  0.2748 -0.9590
  112MOL0     H15412   8.673   9.671  10.703  1.9169  0.1288  1.9366
  112MOL0     H15413   8.733   9.542  10.784 -0.1850  0.8306  0.5348
  112MOL0     H15414   8.943   9.365  10.457  0.2222 -0.1262  0.5070
  112MOL0     H15415   9.244   9.426  10.300 -0.2278  0.5672 -0.4430
  112MOL0     H15416   9.156   9.298  10.383  1.2157 -0.6648 -0.5009
  112MOL0     H15417   9.262   9.413  10.477  0.4905  0.8653 -0.1890
  112MOL0     H15418   9.491   9.885  10.605 -3.2282  1.1283  0.0747
  112MOL0     H15419   9.676  10.041  10.559 -1.0579 -0.0662  1.2724
  112MOL0     H15420   9.827  10.230  10.481  1.9674 -3.7974  0.6913
  112MOL0     H15421   9.866  10.094  10.366 -0.9718 -1.8047  2.9098
  112MOL0     H15422   9.889  10.258  10.179 -1.3480 -0.7840  0.2550
  112MOL0     H15423   9.870  10.392  10.291  0.2810 -0.4774  0.7891
  112MOL0     H15424  10.085  10.182  10.275  1.3651 -0.0111  3.9825
  112MOL0     H15425  10.095  10.336  10.375 -1.2554  0.0869  0.1492
  112MOL0     H15426  10.061  10.345  10.072  1.1578  0.8307 -0.9162
  112MOL0     H15427  10.214  10.323  10.155  1.1707  1.3139  1.3287
  112MOL0     H15428  10.016  10.559  10.196 -0.1271 -1.2022  0.8002
  112MOL0     H15429  10.171  10.522  10.286  1.4006 -1.9855 -0.7572
  112MOL0     H15430  10.151  10.574   9.977 -0.0424  4.5421 -0.9653
  112MOL0     H15431  10.291  10.539  10.094 -0.6366 -0.7417  4.5136
  112MOL0     H15432  10.280  10.749  10.170 -1.0000  3.0728  1.3647
  112MOL0     H15433  10.100  10.755  10.132  0.3527 -2.2941 -0.2647
  112MOL0     H15434  10.243  10.910   9.981  1.4384  0.0924 -0.6414
  112MOL0     H15435  10.130  10.804   9.901 -3.1363  1.8126  2.9020
  112MOL0     H15436   9.502  10.119  10.175  1.5658  0.8314  0.2692
  112MOL0     H15437   9.332   9.938  10.217 -1.0652  3.7878 -0.4878
  112MOL0     H15438   9.049   9.844  10.532 -1.6542  0.5265  0.9164
  112MOL0     H15439   8.841   9.757  10.603  0.4789 -0.6118  1.6603
  112MOL0     H15440   8.718   8.933   9.956  0.8214  0.4046 -0.8973
  112MOL0     H15441   8.790   9.173   9.968  0.1216 -0.3292 -0.4211
  112MOL0     H15442   8.611   9.632   9.853  0.4022 -0.2347  0.9698
  112MOL0     H15443   8.657   9.874   9.833  0.5824  0.7511  0.0623
  112MOL0     H15444   8.959  10.009   9.548 -1.5178 -1.9570  0.7632
  112MOL0     H15445   8.902  10.160   9.612 -0.7893 -0.6528 -0.9739
  112MOL0     H15446   9.135  10.127   9.650  1.9688  1.6137  2.7111
  112MOL0     H15447   9.108  10.000   9.772  0.8082  1.4693  0.5134
  112MOL0     H15448   9.155  10.230   9.851 -1.2450  2.1109  0.5942
  112MOL0     H15449   9.014  10.288   9.765 -0.2256  0.4341 -0.9189
  112MOL0     H15450   8.854  10.155   9.895  0.8634  0.6118 -1.6497
  112MOL0     H15451   8.936  10.279   9.992  3.3546  0.8936 -0.6966
  112MOL0     H15452   9.121   9.931  10.147  1.1967  0.2877 -1.5357
  112MOL0     H15453   8.991   9.804   9.588  1.0514 -3.2853 -0.8096
  112MOL0     H15454   9.011   9.464   9.661  0.3811  2.8912  2.1050
  112MOL0     H15455   8.918   9.493   9.501 -1.5309  0.0084  0.8870
  112MOL0     H15456   9.063   9.583   9.530 -1.0386  1.5518 -1.0484
  113MOL0     O15457   0.727  10.279   4.035  0.1122  0.1031  0.2512
  113MOL0     C15458   0.753  10.269   4.157 -0.1511  0.0812 -0.6201
  113MOL0     O15459   0.828  10.365   4.227  0.6673 -0.3452 -0.0960
  113MOL0     C15460   0.880  10.463   4.152 -0.2574 -0.9871  0.0860
  113MOL0     C15461   0.807  10.581   4.148  0.0509 -0.7986 -0.3709
  113MOL0     C15462   0.854  10.700   4.087  0.2894  0.7867  0.1257
  113MOL0     C15463   0.989  10.700   4.041  0.0993 -0.2364 -0.0611
  113MOL0     O15464   1.029  10.818   3.970 -0.7509  0.4919  0.7632
  113MOL0     C15465   1.171  10.856   3.976  0.2797 -0.1390 -0.4931
  113MOL0     C15466   1.204  10.980   3.896 -0.0677 -0.5596  0.2906
  113MOL0     C15467   1.350  11.020   3.911 -0.4340  0.4083  1.0425
  113MOL0     C15468   1.395  11.128   3.819  0.5978  0.0909 -0.7117
  113MOL0     C15469   1.381  11.272   3.878  0.3608 -0.8040 -0.1422
  113MOL0     C15470   1.413  11.385   3.780  0.0301  0.0229  0.4293
  113MOL0     C15471   1.571  11.411   3.755  0.4101 -0.2871  0.1961
  113MOL0     C15472   1.593  11.519   3.649 -0.1785  0.2167  0.2147
  113MOL0     N15473   1.732  11.518   3.609  0.3221  0.2641 -0.1706
  113MOL0     C15474   1.779  11.586   3.503 -0.1646 -0.8248 -0.0101
  113MOL0     C15475   1.915  11.561   3.500  0.8518 -1.0140 -0.6442
  113MOL0     C15476   2.007  11.601   3.389  0.2063  0.5753 -0.1293
  113MOL0     C15477   2.140  11.517   3.404 -0.3038 -0.1060 -0.1705
  113MOL0     C15478   2.228  11.547   3.280 -0.5065 -0.4405  0.0341
  113MOL0     C15479   2.355  11.468   3.271 -0.5654  0.7280  0.3504
  113MOL0     O15480   2.412  11.444   3.403 -0.2157  0.6335  0.3061
  113MOL0     C15481   2.526  11.369   3.417 -0.2880  1.1983  1.0822
  113MOL0     C15482   2.566  11.337   3.547 -0.6080  0.0034  0.6957
  113MOL0     C15483   2.698  11.289   3.569  0.5871  0.1181  0.6361
  113MOL0     C15484   2.746  11.270   3.711 -0.7262 -0.0519 -0.3555
  113MOL0     C15485   2.778  11.272   3.450 -0.7555 -0.3900 -0.1630
  113MOL0     C15486   2.928  11.246   3.463 -0.3102 -0.0624 -0.2398
  113MOL0     O15487   2.989  11.200   3.579 -0.2843  0.1959  0.0590
  113MOL0     C15488   3.121  11.170   3.555  0.0486 -0.6374  0.2588
  113MOL0     C15489   3.217  11.277   3.565 -0.0446  0.5755  0.5825
  113MOL0     C15490   3.352  11.242   3.549  0.3758  0.0843 -0.1549
  113MOL0     C15491   3.387  11.111   3.508  0.2815  0.4379  0.4617
  113MOL0     O15492   3.511  11.073   3.477  0.5764 -0.2968 -0.6049
  113MOL0     C15493   3.548  11.021   3.347 -0.3759 -0.4127  0.2587
  113MOL0     C15494   3.658  11.095   3.292  0.0708 -1.2331  0.2762
  113MOL0     C15495   3.784  11.014   3.282 -0.0142  0.4088 -0.1078
  113MOL0     C15496   3.908  11.074   3.217  0.3544 -0.9254 -0.2815
  113MOL0     C15497   3.996  11.136   3.329 -0.6529 -0.3667  0.3891
  113MOL0     C15498   4.123  11.207   3.277 -0.1801  0.2819 -0.1551
  113MOL0     C15499   4.195  11.126   3.169 -0.0557 -0.9817 -0.0348
  113MOL0     C15500   4.303  11.201   3.108 -0.0113 -0.1844  0.2801
  113MOL0    Cl15501   4.441  11.236   3.218  0.4541 -0.2870  0.0739
  113MOL0     C15502   3.286  11.007   3.500 -0.7574 -0.0922 -0.4016
  113MOL0     C15503   3.156  11.041   3.524  0.0824  0.5938  0.6215
  113MOL0     O15504   2.992  11.265   3.360 -0.1844 -0.6535 -0.0416
  113MOL0     C15505   2.728  11.281   3.321  0.2492 -0.0935 -0.7502
  113MOL0     C15506   2.598  11.333   3.305  1.1210  0.4754  0.1878
  113MOL0     N15507   1.950  11.512   3.627  0.1391  0.0842 -0.0598
  113MOL0     N15508   1.843  11.484   3.688  0.0384 -0.2704  0.1800
  113MOL0     C15509   1.060  10.578   4.037 -0.2683 -0.3587 -0.1774
  113MOL0     C15510   1.008  10.467   4.093  0.3860 -0.6573 -0.7787
  113MOL0     C15511   0.691  10.158   4.244 -0.7078 -0.7107 -0.8153
  113MOL0     C15512   0.744  10.135   4.377  0.2223 -0.8110 -0.1526
  113MOL0     C15513   0.716  10.038   4.464 -0.3355  1.1501 -0.9581
  113MOL0     C15514   0.625   9.937   4.425  1.1538  0.0387 -0.7027
  113MOL0     O15515   0.584   9.830   4.506 -0.2925 -0.5101 -0.5620
  113MOL0     C15516   0.548   9.710   4.452  0.0101 -0.4235 -0.2019
  113MOL0     C15517   0.575   9.599   4.564 -0.0654 -0.7789 -0.0517
  113MOL0     C15518   0.576   9.655   4.707  0.0644  0.6330  0.4293
  113MOL0     C15519   0.583   9.526   4.796  0.3389  0.0317 -0.1190
  113MOL0     C15520   0.604   9.553   4.940 -0.5029 -0.4131  0.5675
  113MOL0     C15521   0.612   9.562   5.057 -0.2742 -0.0774  0.0474
  113MOL0     C15522   0.557   9.959   4.299 -0.0939 -0.2013 -0.1552
  113MOL0     C15523   0.587  10.065   4.214 -0.0066 -0.1097  0.6679
  113MOL0     C15524   0.511  10.085   4.083 -0.3446  0.3303  0.6281
  113MOL0     H15525   0.711  10.580   4.199  0.6306 -3.1568  0.8008
  113MOL0     H15526   0.802  10.795   4.084  0.4389  0.8760  0.3230
  113MOL0     H15527   1.227  10.769   3.940  0.1438 -0.7738  0.7662
  113MOL0     H15528   1.202  10.873   4.080 -2.1116 -0.0627  0.2782
  113MOL0     H15529   1.175  10.957   3.793 -0.6656 -0.5682  0.4592
  113MOL0     H15530   1.140  11.057   3.940 -0.3476 -0.4938 -0.2216
  113MOL0     H15531   1.357  11.058   4.013  1.0592 -0.6079  1.3647
  113MOL0     H15532   1.412  10.932   3.889  0.8125  0.9824  2.1142
  113MOL0     H15533   1.504  11.123   3.803  0.9041  0.6692  1.0213
  113MOL0     H15534   1.330  11.123   3.731 -1.8736 -1.1905  1.0816
  113MOL0     H15535   1.431  11.283   3.974 -0.9990 -0.2057  0.5200
  113MOL0     H15536   1.275  11.287   3.899  0.2272  3.2691 -2.7887
  113MOL0     H15537   1.372  11.366   3.681  1.2382 -0.1662 -0.0546
  113MOL0     H15538   1.368  11.483   3.799  3.2841  2.3271 -2.5111
  113MOL0     H15539   1.617  11.316   3.729  0.8500  0.4264 -1.8944
  113MOL0     H15540   1.617  11.437   3.851  2.0812  2.5052 -1.2276
  113MOL0     H15541   1.519  11.496   3.573  0.2925 -2.0869  0.3931
  113MOL0     H15542   1.570  11.617   3.694  0.3081 -0.5113  2.1705
  113MOL0     H15543   1.735  11.634   3.416  0.1978  2.8865  1.6813
  113MOL0     H15544   2.024  11.708   3.400  4.0015  0.0112  1.3336
  113MOL0     H15545   1.955  11.576   3.297 -1.0893  1.8244  0.2338
  113MOL0     H15546   2.198  11.539   3.494  2.4148  1.0119 -2.0559
  113MOL0     H15547   2.112  11.411   3.397  1.1992 -0.4601 -1.5649
  113MOL0     H15548   2.175  11.526   3.187 -1.9060 -2.8509  1.2797
  113MOL0     H15549   2.250  11.653   3.271 -1.2872 -0.3261 -0.6287
  113MOL0     H15550   2.344  11.374   3.216  0.3160  0.9788 -0.2648
  113MOL0     H15551   2.423  11.527   3.210 -0.1535 -0.2079 -0.1091
  113MOL0     H15552   2.494  11.367   3.623  0.0541 -0.6004  1.5757
  113MOL0     H15553   2.826  11.341   3.732 -1.0399  0.4400 -0.8062
  113MOL0     H15554   2.790  11.169   3.707 -3.0917 -1.1630  0.0469
  113MOL0     H15555   2.657  11.263   3.773  0.2108  3.0143  1.5031
  113MOL0     H15556   3.190  11.379   3.590 -2.5203 -0.3488  2.0356
  113MOL0     H15557   3.431  11.313   3.570  0.8077 -0.9211  2.0029
  113MOL0     H15558   3.580  10.916   3.343  0.0164 -0.2891 -3.1111
  113MOL0     H15559   3.462  11.025   3.278  0.2015 -1.4348 -0.5476
  113MOL0     H15560   3.628  11.122   3.190  1.8419 -0.2044 -0.0151
  113MOL0     H15561   3.674  11.191   3.342 -1.4852  0.1966 -1.7974
  113MOL0     H15562   3.765  10.916   3.238  1.3160  0.4693 -0.8860
  113MOL0     H15563   3.802  10.997   3.388  0.5378 -1.6801 -0.4957
  113MOL0     H15564   3.880  11.151   3.144 -2.0783 -1.8722 -0.4369
  113MOL0     H15565   3.955  10.991   3.165  1.3628 -1.1757  0.9942
  113MOL0     H15566   3.933  11.202   3.390  2.4088  0.9204  2.3717
  113MOL0     H15567   4.022  11.055   3.397  0.4862 -1.1979 -0.9627
  113MOL0     H15568   4.194  11.243   3.352 -3.3504  0.7696  2.8165
  113MOL0     H15569   4.084  11.301   3.238 -1.0945  1.5123  3.4017
  113MOL0     H15570   4.114  11.109   3.097 -0.9326  1.7777  0.2199
  113MOL0     H15571   4.246  11.044   3.221  1.7344  1.1409  1.7163
  113MOL0     H15572   4.265  11.299   3.077 -1.3617 -0.9401 -0.5181
  113MOL0     H15573   4.348  11.131   3.037 -3.6623 -2.0571 -0.4204
  113MOL0     H15574   3.316  10.906   3.475  1.0386  0.5827 -1.2205
  113MOL0     H15575   3.079  10.967   3.502 -1.0823  2.2549 -1.2001
  113MOL0     H15576   2.785  11.248   3.235  0.9640 -1.1109  0.0805
  113MOL0     H15577   2.558  11.359   3.208  2.1545 -0.0916 -0.3987
  113MOL0     H15578   1.160  10.577   3.993 -0.7258 -1.9724 -1.2501
  113MOL0     H15579   1.057  10.370   4.102 -0.4830 -0.9831  0.8510
  113MOL0     H15580   0.812  10.207   4.419 -0.1023 -0.4990 -0.1546
  113MOL0     H15581   0.749  10.031   4.567 -0.4345  2.4466 -0.8316
  113MOL0     H15582   0.445   9.710   4.415  0.3746  0.6195 -1.2830
  113MOL0     H15583   0.623   9.688   4.376  0.3252 -2.4382  0.6220
  113MOL0     H15584   0.676   9.562   4.542 -0.8897 -2.7643 -0.6530
  113MOL0     H15585   0.504   9.516   4.554 -0.0033 -1.0025  1.1311
  113MOL0     H15586   0.664   9.715   4.731  0.5338  1.0406 -2.0071
  113MOL0     H15587   0.484   9.709   4.732 -0.0171 -0.1623  2.0042
  113MOL0     H15588   0.675   9.477   4.761  1.6265  2.2510 -0.0274
  113MOL0     H15589   0.494   9.462   4.798 -0.6420  1.3587 -0.1621
  113MOL0     H15590   0.600   9.586   5.161  0.1601  0.4789 -0.0279
  113MOL0     H15591   0.475   9.896   4.267  2.8285 -2.3390 -4.2461
  113MOL0     H15592   0.498  10.188   4.049 -0.2007 -0.6133 -2.6706
  113MOL0     H15593   0.561  10.035   4.000  2.5228 -0.4874  2.6838
  113MOL0     H15594   0.415  10.036   4.096 -0.4570  1.0351  2.9731
  114MOL0     O15595   1.185  11.481   2.002  0.1100  0.5181  0.0289
  114MOL0     C15596   1.122  11.397   1.940  0.6939  0.0064  0.1200
  114MOL0     O15597   1.169  11.276   1.883 -0.4467 -0.3000  0.3832
  114MOL0     C15598   1.304  11.262   1.903  0.3725  1.0263  0.3750
  114MOL0     C15599   1.360  11.214   2.022 -0.4526 -0.7558 -0.1688
  114MOL0     C15600   1.493  11.183   2.033 -0.6991  0.4708  0.2178
  114MOL0     C15601   1.586  11.216   1.931 -0.2331 -0.1377  0.5354
  114MOL0     O15602   1.717  11.185   1.947  0.1488 -0.6533  0.3295
  114MOL0     C15603   1.777  11.145   1.821  0.1022  0.0709 -0.1308
  114MOL0     C15604   1.904  11.069   1.837  0.3299 -0.7008 -0.1162
  114MOL0     C15605   2.017  11.141   1.914 -0.2738  0.1519  0.1636
  114MOL0     C15606   2.139  11.050   1.901 -0.4447 -0.2929 -0.0337
  114MOL0     C15607   2.238  11.118   1.994 -0.6052  0.5830 -0.8184
  114MOL0     C15608   2.380  11.057   1.997 -0.4149 -0.6848  0.5160
  114MOL0     C15609   2.471  11.136   2.098 -0.1258  0.0345  0.1327
  114MOL0     C15610   2.608  11.077   2.095  0.2909 -0.0232  0.1255
  114MOL0     N15611   2.685  11.126   1.978 -0.0090  0.4629 -0.0287
  114MOL0     C15612   2.761  11.240   1.965  0.9978 -0.5271  0.8125
  114MOL0     C15613   2.817  11.237   1.843  1.0305  0.3904  0.4045
  114MOL0     C15614   2.911  11.338   1.792  0.5383  0.0762 -0.5695
  114MOL0     C15615   3.049  11.307   1.833 -0.0220 -0.1086  1.1657
  114MOL0     C15616   3.139  11.337   1.709 -1.2554 -0.3694  0.0800
  114MOL0     C15617   3.282  11.289   1.727  0.3153 -0.0308  0.2505
  114MOL0     O15618   3.291  11.142   1.735  0.3840  0.0696  0.0623
  114MOL0     C15619   3.406  11.077   1.741 -0.3597 -0.5618 -0.2416
  114MOL0     C15620   3.529  11.125   1.700  0.2139 -0.7523  0.7792
  114MOL0     C15621   3.650  11.048   1.703 -0.6821 -0.1215  0.2033
  114MOL0     C15622   3.771  11.112   1.634 -0.6597 -0.8456  0.1085
  114MOL0     C15623   3.638  10.907   1.744  0.9724 -1.1482 -0.4734
  114MOL0     C15624   3.759  10.824   1.774 -0.3849  0.1253 -1.0224
  114MOL0     O15625   3.756  10.729   1.882 -0.2868  0.5123 -0.1309
  114MOL0     C15626   3.861  10.652   1.919  0.2664 -0.3226  0.4271
  114MOL0     C15627   3.836  10.530   1.984  0.0754  0.4221  0.1407
  114MOL0     C15628   3.937  10.457   2.042 -0.2613 -0.3202 -0.5068
  114MOL0     C15629   4.066  10.512   2.046 -0.1871 -0.5572 -0.1141
  114MOL0     O15630   4.154  10.433   2.120  0.1255 -0.0514 -0.1538
  114MOL0     C15631   4.272  10.489   2.167  0.0242  0.3838  0.6513
  114MOL0     C15632   4.271  10.573   2.290  0.1051 -0.3158 -0.2317
  114MOL0     C15633   4.252  10.500   2.417 -0.1468 -0.2950  0.2555
  114MOL0     C15634   4.257  10.592   2.532  0.0601 -1.1695  0.0515
  114MOL0     C15635   4.198  10.530   2.661 -1.2394 -0.3024  0.6399
  114MOL0     C15636   4.207  10.619   2.789  0.7427  0.0764  0.4748
  114MOL0     C15637   4.062  10.678   2.829 -0.2064 -0.1136  0.2892
  114MOL0     C15638   4.064  10.790   2.939  0.4871 -0.0006  0.4649
  114MOL0    Cl15639   4.209  10.895   2.941 -0.4612  0.2132  0.7680
  114MOL0     C15640   4.088  10.634   1.985 -0.4953  0.8288 -0.0147
  114MOL0     C15641   3.989  10.706   1.927  1.1814  0.5900 -0.7237
  114MOL0     O15642   3.857  10.841   1.706 -0.3161  0.1182  0.3161
  114MOL0     C15643   3.518  10.872   1.795  0.5701  0.7749 -0.3986
  114MOL0     C15644   3.407  10.944   1.783 -0.2494 -0.7122 -0.3724
  114MOL0     N15645   2.782  11.114   1.790 -0.0870 -0.0780  0.0450
  114MOL0     N15646   2.708  11.046   1.868  0.9291 -0.1373  0.8243
  114MOL0     C15647   1.527  11.266   1.810 -0.0841  0.4060 -0.4218
  114MOL0     C15648   1.392  11.287   1.802 -0.2450 -0.7880  0.1447
  114MOL0     C15649   0.988  11.446   1.914  0.6230 -0.0442 -0.1032
  114MOL0     C15650   0.903  11.485   2.028 -1.4983 -0.0576 -0.4231
  114MOL0     C15651   0.780  11.543   2.009 -0.3733  1.2029  0.7742
  114MOL0     C15652   0.731  11.561   1.875 -0.1607  0.1964 -1.1782
  114MOL0     O15653   0.629  11.653   1.862 -0.0958  0.0557  0.2172
  114MOL0     C15654   0.577  11.688   1.727 -1.1084 -0.1201 -0.7095
  114MOL0     C15655   0.498  11.578   1.662 -0.2726 -0.7588 -0.9551
  114MOL0     C15656   0.365  11.559   1.742  0.2454 -0.7480 -0.7088
  114MOL0     C15657   0.281  11.684   1.767 -0.5487  0.5957  0.2437
  114MOL0     C15658   0.147  11.646   1.804  0.1733 -0.9109 -0.5397
  114MOL0     C15659   0.026  11.642   1.826 -0.4437 -0.1418 -0.6365
  114MOL0     C15660   0.804  11.505   1.767 -0.0395  1.2568  1.0072
  114MOL0     C15661   0.931  11.443   1.779 -0.3853 -0.7788  0.0382
  114MOL0     C15662   0.984  11.354   1.666  0.1593 -0.5388 -0.6574
  114MOL0     H15663   1.292  11.190   2.103  0.1871 -1.7925  0.0784
  114MOL0     H15664   1.521  11.132   2.124  0.1027 -0.2487 -0.4250
  114MOL0     H15665   1.792  11.234   1.760 -1.1887  1.5920  1.6383
  114MOL0     H15666   1.708  11.079   1.768  1.9301 -2.4879  0.5033
  114MOL0     H15667   1.881  10.972   1.882  2.0335 -2.1612 -2.2136
  114MOL0     H15668   1.937  11.030   1.740 -2.7278 -0.7886 -1.2145
  114MOL0     H15669   2.041  11.240   1.875  1.4399 -0.9344 -1.7339
  114MOL0     H15670   1.981  11.154   2.016 -2.0999 -2.0395 -0.1220
  114MOL0     H15671   2.115  10.945   1.919 -2.3535  0.1662  0.3635
  114MOL0     H15672   2.166  11.053   1.796  1.1008 -1.8335  0.2835
  114MOL0     H15673   2.203  11.115   2.098  0.1123  3.9659 -0.3498
  114MOL0     H15674   2.243  11.221   1.957 -2.4854  0.9192 -0.2561
  114MOL0     H15675   2.378  10.949   2.012 -3.4423 -0.6196  1.3167
  114MOL0     H15676   2.422  11.079   1.899  2.1356  1.7692  2.0137
  114MOL0     H15677   2.433  11.128   2.201  0.7753 -1.9478  0.3565
  114MOL0     H15678   2.478  11.242   2.070  2.9323  0.0288  0.5755
  114MOL0     H15679   2.665  11.090   2.187  2.4770  1.0618 -1.2933
  114MOL0     H15680   2.604  10.967   2.091 -2.0908 -0.0045  0.2869
  114MOL0     H15681   2.758  11.328   2.028 -2.1455  1.1775 -1.4556
  114MOL0     H15682   2.880  11.433   1.837  1.1551 -0.4848  1.1346
  114MOL0     H15683   2.901  11.342   1.683  0.7729 -0.4838 -0.6181
  114MOL0     H15684   3.094  11.367   1.912  0.2614 -0.4849  1.2933
  114MOL0     H15685   3.060  11.204   1.868  1.2240  1.0453  4.5302
  114MOL0     H15686   3.114  11.298   1.610  2.0832 -0.9240 -0.6463
  114MOL0     H15687   3.135  11.446   1.698 -2.0047 -0.3668  0.2895
  114MOL0     H15688   3.348  11.328   1.649  1.8976 -2.7610  0.0975
  114MOL0     H15689   3.315  11.333   1.822  0.9738  0.5473 -0.2395
  114MOL0     H15690   3.546  11.224   1.656  1.5790 -1.5915 -0.7179
  114MOL0     H15691   3.764  11.221   1.625 -1.0130 -0.9513 -1.0220
  114MOL0     H15692   3.770  11.076   1.531  0.2525  1.8438 -0.9348
  114MOL0     H15693   3.870  11.093   1.677 -0.3384  0.0509 -0.2107
  114MOL0     H15694   3.732  10.501   1.989  0.7752 -2.5889  6.0635
  114MOL0     H15695   3.917  10.365   2.095  1.2116 -0.7845 -0.7002
  114MOL0     H15696   4.345  10.410   2.187  2.5126  2.2816 -0.3304
  114MOL0     H15697   4.320  10.548   2.088  2.0642 -2.4345 -0.3631
  114MOL0     H15698   4.368  10.623   2.302 -0.6480  0.4720  4.4752
  114MOL0     H15699   4.191  10.647   2.275 -0.0510 -1.1610 -5.7669
  114MOL0     H15700   4.331  10.425   2.425 -3.2831 -3.7859  1.5982
  114MOL0     H15701   4.158  10.445   2.434 -0.9740  0.4886 -1.5130
  114MOL0     H15702   4.205  10.686   2.507  1.0512 -1.3627 -3.2974
  114MOL0     H15703   4.363  10.613   2.546 -0.6697  2.1337  1.6100
  114MOL0     H15704   4.096  10.504   2.631 -1.1793  0.6769 -0.4995
  114MOL0     H15705   4.251  10.435   2.668 -0.5575  0.1766  3.5536
  114MOL0     H15706   4.283  10.695   2.767  0.0185  0.2036 -1.7386
  114MOL0     H15707   4.234  10.567   2.882 -1.2369  0.6005  1.3787
  114MOL0     H15708   3.995  10.595   2.852 -0.9803  0.4546  0.1284
  114MOL0     H15709   4.040  10.727   2.733  1.8816  0.2712 -0.0546
  114MOL0     H15710   4.062  10.737   3.035  1.8404  1.3426  1.2624
  114MOL0     H15711   3.966  10.839   2.931  0.5930  0.1595  0.1381
  114MOL0     H15712   4.184  10.684   1.991 -0.8704  1.8602 -1.8483
  114MOL0     H15713   4.015  10.802   1.884 -0.9603  1.5223 -0.0851
  114MOL0     H15714   3.508  10.768   1.824 -1.2492  0.7530 -0.9796
  114MOL0     H15715   3.310  10.903   1.810  1.2026 -4.1394  0.1136
  114MOL0     H15716   1.590  11.278   1.722 -0.9962 -1.5105 -1.3962
  114MOL0     H15717   1.350  11.328   1.711 -0.9607  0.7718  1.1461
  114MOL0     H15718   0.948  11.508   2.124 -1.2454  4.4358 -1.4184
  114MOL0     H15719   0.721  11.585   2.090 -1.2540 -2.6093  2.3486
  114MOL0     H15720   0.529  11.786   1.716  3.8771  2.7938  0.1892
  114MOL0     H15721   0.670  11.690   1.670 -1.1171 -1.2754 -0.7800
  114MOL0     H15722   0.546  11.481   1.668 -2.7645 -2.6195 -5.5918
  114MOL0     H15723   0.474  11.602   1.558  2.3226 -1.2277 -1.7179
  114MOL0     H15724   0.320  11.467   1.702  3.1335 -2.3178 -0.6417
  114MOL0     H15725   0.394  11.533   1.845 -2.0751 -0.9171 -0.0399
  114MOL0     H15726   0.288  11.744   1.676 -0.6526  0.7763  0.3550
  114MOL0     H15727   0.321  11.746   1.848  0.6593 -0.4239  0.4661
  114MOL0     H15728  -0.078  11.633   1.847  0.2894 -1.4738  3.2410
  114MOL0     H15729   0.759  11.517   1.669  0.3429  0.0913  0.6714
  114MOL0     H15730   0.920  11.369   1.578  0.3260 -1.1011 -0.8767
  114MOL0     H15731   1.084  11.389   1.637  0.6899 -1.1448  0.4087
  114MOL0     H15732   0.993  11.246   1.681  0.0874 -0.5466 -0.6713
  115MOL0     O15733   8.966   8.014   0.433 -0.3691 -0.5387 -0.7198
  115MOL0     C15734   8.965   7.911   0.501 -0.1742 -0.8514  0.2661
  115MOL0     O15735   9.058   7.872   0.590  0.8859  0.2938 -0.6865
  115MOL0     C15736   9.157   7.953   0.635 -0.1835 -0.4942  0.1416
  115MOL0     C15737   9.145   8.062   0.720 -0.9889 -0.4114  0.4531
  115MOL0     C15738   9.260   8.121   0.777  0.4711 -0.5665 -0.8157
  115MOL0     C15739   9.391   8.082   0.753 -0.3933  0.2341  0.3833
  115MOL0     O15740   9.506   8.129   0.812  0.7927 -0.3782  0.0846
  115MOL0     C15741   9.504   8.175   0.954 -0.4746  0.6103  0.7192
  115MOL0     C15742   9.548   8.325   0.970  1.3453  0.5104 -0.2552
  115MOL0     C15743   9.473   8.420   0.890  0.4405 -0.1737 -0.0336
  115MOL0     C15744   9.563   8.527   0.844  0.4422 -0.0922 -0.2508
  115MOL0     C15745   9.498   8.636   0.755  0.0073 -0.4986 -0.2654
  115MOL0     C15746   9.378   8.691   0.833  0.2191 -0.0776 -0.5450
  115MOL0     C15747   9.316   8.815   0.768  0.5555  0.1102  0.2391
  115MOL0     C15748   9.406   8.942   0.783 -0.1337 -0.9321 -0.3208
  115MOL0     N15749   9.341   9.071   0.745 -0.1987  0.8130  0.0473
  115MOL0     C15750   9.263   9.103   0.640 -0.0818  0.3103 -0.6712
  115MOL0     C15751   9.216   9.226   0.669  0.3334 -0.2650  0.0325
  115MOL0     C15752   9.117   9.305   0.586  0.3744  0.0140 -0.8285
  115MOL0     C15753   9.025   9.383   0.676 -0.1076  0.1384 -0.5630
  115MOL0     C15754   8.923   9.449   0.584  0.1604  0.0526  0.3421
  115MOL0     C15755   8.795   9.498   0.655 -1.4610 -0.5169 -0.6543
  115MOL0     O15756   8.738   9.408   0.750  0.6127  0.1823  0.7502
  115MOL0     C15757   8.610   9.442   0.800  0.5775 -0.0275  0.0031
  115MOL0     C15758   8.519   9.542   0.753 -0.2818  0.5314 -0.7267
  115MOL0     C15759   8.397   9.572   0.817 -0.1031 -0.8541  0.2693
  115MOL0     C15760   8.311   9.678   0.759 -0.9654  0.1083 -0.2726
  115MOL0     C15761   8.370   9.503   0.936 -0.1844  0.1383 -0.5363
  115MOL0     C15762   8.255   9.548   1.024 -0.8975  0.1809  0.9670
  115MOL0     O15763   8.269   9.497   1.147  0.2439 -0.0921 -0.3520
  115MOL0     C15764   8.178   9.536   1.250 -0.4743  0.5210  0.1543
  115MOL0     C15765   8.222   9.597   1.361 -0.4469 -0.6282 -0.4289
  115MOL0     C15766   8.121   9.635   1.458 -0.2058 -0.2620  1.0174
  115MOL0     C15767   7.985   9.605   1.440  0.1696  0.3584  0.4526
  115MOL0     O15768   7.879   9.639   1.529  0.2534 -0.1773 -0.7520
  115MOL0     C15769   7.912   9.686   1.666  0.0695  0.5560  0.6437
  115MOL0     C15770   7.800   9.750   1.747 -1.0606  0.8485 -0.4317
  115MOL0     C15771   7.886   9.835   1.845 -0.1911 -0.4659  0.1911
  115MOL0     C15772   7.824   9.874   1.980 -0.6604  0.0115  0.0018
  115MOL0     C15773   7.914   9.964   2.068  0.1713  0.0754  0.2219
  115MOL0     C15774   8.050   9.895   2.114 -0.0584  0.3476  0.0431
  115MOL0     C15775   8.128   9.973   2.216 -0.3614 -0.0289 -0.2995
  115MOL0     C15776   8.268   9.921   2.242  0.2922  0.2256 -0.1362
  115MOL0    Cl15777   8.368   9.910   2.098  0.4399 -0.0403  0.0843
  115MOL0     C15778   7.948   9.531   1.334 -0.5414  0.2681  1.0682
  115MOL0     C15779   8.041   9.497   1.241  0.5806  0.1531  0.2873
  115MOL0     O15780   8.156   9.607   0.983 -0.5020  0.1649 -0.1375
  115MOL0     C15781   8.457   9.400   0.981  0.2027 -0.1688  0.1631
  115MOL0     C15782   8.573   9.358   0.904  0.5930 -0.4400 -0.9898
  115MOL0     N15783   9.283   9.269   0.788  0.1610  0.0762  0.5250
  115MOL0     N15784   9.358   9.176   0.833 -0.1424  0.0020 -0.3174
  115MOL0     C15785   9.402   8.000   0.634  0.8275 -0.3960 -0.7642
  115MOL0     C15786   9.292   7.928   0.584  0.2985  0.1466 -0.6505
  115MOL0     C15787   8.846   7.832   0.490 -0.6101 -0.5083  0.3003
  115MOL0     C15788   8.797   7.759   0.594  0.4570  0.3661 -0.2297
  115MOL0     C15789   8.681   7.681   0.590  0.9668 -0.3470 -0.7226
  115MOL0     C15790   8.603   7.670   0.477  0.1402 -0.4061  0.2989
  115MOL0     O15791   8.495   7.585   0.462  0.2789  0.0043 -0.4079
  115MOL0     C15792   8.393   7.615   0.368  0.4221  0.2674 -0.0568
  115MOL0     C15793   8.257   7.550   0.399 -0.5807 -1.0405  0.1760
  115MOL0     C15794   8.160   7.567   0.279  0.6299  0.3194  0.0449
  115MOL0     C15795   8.067   7.699   0.268  0.4362  0.7443  1.1473
  115MOL0     C15796   8.155   7.807   0.216  1.3489 -0.7998 -0.1888
  115MOL0     C15797   8.232   7.885   0.164  0.3855  1.1503 -0.0234
  115MOL0     C15798   8.649   7.743   0.367  0.0113  0.7919 -0.1987
  115MOL0     C15799   8.764   7.824   0.373 -0.3671  0.7425 -0.5805
  115MOL0     C15800   8.794   7.892   0.244 -0.0034  0.8276  0.1392
  115MOL0     H15801   9.046   8.083   0.761 -0.0244  1.0921  2.1602
  115MOL0     H15802   9.246   8.203   0.847 -1.6654 -2.2323  0.8484
  115MOL0     H15803   9.580   8.113   1.003 -0.0795  0.5263  0.0141
  115MOL0     H15804   9.412   8.153   1.009 -0.7841 -1.7064 -0.6131
  115MOL0     H15805   9.541   8.354   1.075 -2.2779 -1.6950  0.2962
  115MOL0     H15806   9.652   8.333   0.937  0.7785  0.4662 -2.2301
  115MOL0     H15807   9.427   8.370   0.805  0.1508  1.6555 -1.0023
  115MOL0     H15808   9.400   8.469   0.956 -0.1454 -0.0964 -0.7380
  115MOL0     H15809   9.598   8.584   0.931 -3.3375  2.0773  0.0685
  115MOL0     H15810   9.648   8.492   0.785 -1.1054 -0.0006 -2.6775
  115MOL0     H15811   9.452   8.593   0.666 -1.2348  1.1822 -0.4731
  115MOL0     H15812   9.567   8.718   0.735  0.8832 -0.5073  2.2730
  115MOL0     H15813   9.302   8.612   0.824  0.9900 -1.6210  3.8184
  115MOL0     H15814   9.398   8.712   0.938 -1.0590 -0.9726 -0.0922
  115MOL0     H15815   9.217   8.834   0.813  1.2503 -2.2894  3.1541
  115MOL0     H15816   9.300   8.804   0.661 -0.3928 -0.3659  0.4092
  115MOL0     H15817   9.436   8.951   0.888 -2.7450 -1.4072  0.5506
  115MOL0     H15818   9.498   8.926   0.726  0.1707  1.3089 -0.5255
  115MOL0     H15819   9.232   9.033   0.563 -1.2458  1.0621 -0.9016
  115MOL0     H15820   9.066   9.230   0.526  0.4604 -0.1614 -0.6810
  115MOL0     H15821   9.174   9.369   0.517  0.4409 -0.8699 -1.6094
  115MOL0     H15822   8.979   9.299   0.728 -0.7562 -0.3539 -1.9136
  115MOL0     H15823   9.075   9.458   0.739  1.0546 -0.5249 -0.6674
  115MOL0     H15824   8.970   9.536   0.536 -2.1835  2.5718  2.3076
  115MOL0     H15825   8.882   9.384   0.506  0.4173  1.1757 -0.7618
  115MOL0     H15826   8.818   9.591   0.708 -1.4779 -1.5154  1.2362
  115MOL0     H15827   8.727   9.530   0.576 -0.9730  0.2654 -0.7624
  115MOL0     H15828   8.540   9.605   0.667  1.9778  0.4115 -0.3261
  115MOL0     H15829   8.210   9.643   0.738 -0.9683 -0.6403  0.8963
  115MOL0     H15830   8.354   9.719   0.667  0.9373 -0.8598  0.1203
  115MOL0     H15831   8.301   9.758   0.833 -3.2133  2.4208 -2.8506
  115MOL0     H15832   8.327   9.619   1.378 -1.0043  1.2321  0.9345
  115MOL0     H15833   8.170   9.679   1.545  2.3608  0.3226 -0.6349
  115MOL0     H15834   7.948   9.601   1.726  1.0535  1.8178  1.9152
  115MOL0     H15835   7.998   9.751   1.650  0.2481 -0.4995 -4.2262
  115MOL0     H15836   7.737   9.818   1.688 -0.9212  0.0467 -1.5368
  115MOL0     H15837   7.748   9.662   1.786  0.8289  0.0340  0.3941
  115MOL0     H15838   7.930   9.925   1.801  2.6167 -1.3968  0.9059
  115MOL0     H15839   7.969   9.769   1.869 -1.6019 -0.8406  5.1593
  115MOL0     H15840   7.802   9.783   2.037 -1.5444 -0.7339 -1.4765
  115MOL0     H15841   7.731   9.930   1.969  2.5496  6.3066  0.4573
  115MOL0     H15842   7.932  10.056   2.011 -1.4862  0.7704  0.7560
  115MOL0     H15843   7.860   9.988   2.160 -1.2962 -0.2662 -0.5086
  115MOL0     H15844   8.117   9.895   2.028 -0.0303  3.4377 -0.0731
  115MOL0     H15845   8.032   9.799   2.163 -1.0317  1.1575  1.3291
  115MOL0     H15846   8.063   9.965   2.303 -2.2469  0.4188 -1.6108
  115MOL0     H15847   8.147  10.078   2.190  1.6752  0.1703  1.7038
  115MOL0     H15848   8.267   9.816   2.273  0.7799  0.8480  2.1641
  115MOL0     H15849   8.329   9.960   2.323  2.2194 -1.3483 -0.7559
  115MOL0     H15850   7.848   9.494   1.312 -0.2173 -0.2311  0.4299
  115MOL0     H15851   8.022   9.438   1.152  1.7629 -1.5230  1.1008
  115MOL0     H15852   8.432   9.344   1.070 -0.2783  1.2081  0.9352
  115MOL0     H15853   8.645   9.291   0.951  1.1371  1.4874  1.1014
  115MOL0     H15854   9.499   7.989   0.587  1.7375  0.6183  0.7690
  115MOL0     H15855   9.317   7.867   0.498 -0.9217 -1.0545 -0.1927
  115MOL0     H15856   8.851   7.749   0.688  0.5195 -1.7685 -0.4400
  115MOL0     H15857   8.651   7.626   0.678 -1.0421 -0.5491 -1.4710
  115MOL0     H15858   8.365   7.720   0.366 -1.1824 -0.1309  0.0617
  115MOL0     H15859   8.431   7.584   0.270 -0.1484 -0.2188 -0.1314
  115MOL0     H15860   8.219   7.606   0.484 -0.3700 -0.8621  0.1525
  115MOL0     H15861   8.259   7.444   0.429 -0.6253 -0.6902  1.4557
  115MOL0     H15862   8.221   7.558   0.189  1.0569 -3.7485  0.5245
  115MOL0     H15863   8.095   7.479   0.285 -1.9704  2.1090 -0.4132
  115MOL0     H15864   8.031   7.734   0.365  1.5628  3.1918  0.7585
  115MOL0     H15865   7.978   7.684   0.206  0.6661 -0.3665  1.0731
  115MOL0     H15866   8.305   7.954   0.127  0.1040  1.6133  0.2766
  115MOL0     H15867   8.593   7.731   0.275 -1.2834  1.2545  0.4992
  115MOL0     H15868   8.741   7.846   0.159 -0.0802  0.5591  0.3304
  115MOL0     H15869   8.747   7.991   0.240 -1.6897  0.0352 -1.5029
  115MOL0     H15870   8.900   7.898   0.218  0.4257 -1.6980  1.0102
  116MOL0     O15871   7.684   9.105   2.074  0.1304 -0.5019  0.2119
  116MOL0     C15872   7.696   9.103   2.196  0.0801 -0.3936  0.4004
  116MOL0     O15873   7.800   9.161   2.262  0.1413  0.5711 -0.4626
  116MOL0     C15874   7.880   9.262   2.200  0.2761  0.9654  0.2684
  116MOL0     C15875   7.994   9.224   2.139 -0.4222 -0.2082  0.7415
  116MOL0     C15876   8.060   9.317   2.055  0.0217 -0.7833 -0.0715
  116MOL0     C15877   8.015   9.457   2.050 -0.3813  0.1292 -0.2167
  116MOL0     O15878   8.070   9.554   1.971  0.2743 -0.6482  1.3542
  116MOL0     C15879   8.207   9.566   1.972 -0.3578  0.5598 -0.0920
  116MOL0     C15880   8.252   9.549   1.822 -0.1552  0.0368 -0.1699
  116MOL0     C15881   8.401   9.585   1.788  1.4624 -0.1572 -0.7602
  116MOL0     C15882   8.495   9.488   1.857 -0.4076 -0.6747  0.0334
  116MOL0     C15883   8.633   9.480   1.796  0.8720  0.3687 -0.3365
  116MOL0     C15884   8.706   9.622   1.791  0.2292 -0.7527  0.4252
  116MOL0     C15885   8.827   9.595   1.697  0.0083 -0.0537 -0.0593
  116MOL0     C15886   8.906   9.717   1.653  0.4277 -0.3284 -0.3329
  116MOL0     N15887   8.978   9.777   1.766  0.4161  0.6731 -0.4290
  116MOL0     C15888   8.932   9.862   1.863  0.1989  0.0771  0.4314
  116MOL0     C15889   9.040   9.901   1.934 -0.4058  0.1422 -0.4848
  116MOL0     C15890   9.023   9.996   2.047  0.9096 -0.2824 -0.2113
  116MOL0     C15891   9.152  10.019   2.122 -0.0194 -0.4947 -0.9019
  116MOL0     C15892   9.236   9.902   2.183 -0.3637 -0.5235 -0.3793
  116MOL0     C15893   9.348   9.964   2.280 -0.5121 -0.1174  0.6948
  116MOL0     O15894   9.451  10.020   2.188 -0.6535  0.2370  0.1788
  116MOL0     C15895   9.486  10.142   2.226 -0.0090 -0.0291 -0.4138
  116MOL0     C15896   9.528  10.173   2.357 -0.6006 -0.0459 -0.0294
  116MOL0     C15897   9.573  10.303   2.394  0.0128 -1.4338 -0.6551
  116MOL0     C15898   9.616  10.324   2.544 -0.7088 -0.2671 -0.7057
  116MOL0     C15899   9.570  10.405   2.297  1.0592  0.4651  0.9106
  116MOL0     C15900   9.615  10.543   2.331  1.0052  0.1224 -0.1410
  116MOL0     O15901   9.680  10.601   2.235 -0.5790 -0.1126  0.4774
  116MOL0     C15902   9.732  10.727   2.250 -0.2589 -0.7415  0.0960
  116MOL0     C15903   9.784  10.777   2.374  0.0389  0.9151 -0.1123
  116MOL0     C15904   9.861  10.900   2.377  0.2644  0.4051 -0.0018
  116MOL0     C15905   9.867  10.986   2.265  0.3083  0.2391  0.2544
  116MOL0     O15906   9.919  11.114   2.268  0.3259 -0.0759  0.2778
  116MOL0     C15907   9.836  11.233   2.291 -1.2944 -0.0626  0.3435
  116MOL0     C15908   9.897  11.363   2.216  0.5281 -0.8332  0.4900
  116MOL0     C15909  10.042  11.376   2.255  0.4485 -0.0136  0.2404
  116MOL0     C15910  10.122  11.495   2.212 -0.1156  0.7339  0.5479
  116MOL0     C15911  10.121  11.523   2.066  1.1531  0.1800 -1.2835
  116MOL0     C15912  10.188  11.426   1.966 -0.2401  1.0455  0.3627
  116MOL0     C15913  10.344  11.456   1.980 -0.8631 -0.2445 -0.1023
  116MOL0     C15914  10.437  11.373   1.891  0.6666  0.2317  0.3827
  116MOL0    Cl15915  10.425  11.415   1.724  0.2191 -0.0866 -0.1162
  116MOL0     C15916   9.811  10.937   2.143  0.3553 -0.0587 -0.0792
  116MOL0     C15917   9.753  10.807   2.136 -0.2939 -0.3428 -0.3385
  116MOL0     O15918   9.551  10.605   2.420  0.5599 -0.2482 -0.0130
  116MOL0     C15919   9.539  10.365   2.159  0.0058  0.7208 -0.6699
  116MOL0     C15920   9.506  10.239   2.129  0.3003  0.3674 -0.4485
  116MOL0     N15921   9.149   9.844   1.869 -0.6096  0.0775 -0.8036
  116MOL0     N15922   9.112   9.781   1.764 -0.0684 -0.7038  0.2835
  116MOL0     C15923   7.904   9.490   2.127 -0.4189 -0.2318 -0.1181
  116MOL0     C15924   7.837   9.396   2.202  0.1146  0.1775 -0.3934
  116MOL0     C15925   7.576   9.039   2.273  0.5872 -0.1935 -0.5196
  116MOL0     C15926   7.586   9.060   2.413  1.0317 -0.4453 -0.8776
  116MOL0     C15927   7.479   9.027   2.498 -0.5949 -0.1776 -0.0794
  116MOL0     C15928   7.376   8.952   2.450  0.8309  0.2178  0.1479
  116MOL0     O15929   7.280   8.928   2.545  0.2648 -0.3815 -0.6734
  116MOL0     C15930   7.156   8.878   2.507  0.3835  0.0987 -0.1751
  116MOL0     C15931   7.053   8.931   2.623 -0.1067  0.4582  0.9338
  116MOL0     C15932   6.903   8.891   2.595  0.5701 -1.0194 -0.2226
  116MOL0     C15933   6.861   8.884   2.451 -0.1182 -0.2480  1.4172
  116MOL0     C15934   6.853   9.023   2.404 -0.0643  0.2352  0.3289
  116MOL0     C15935   6.826   9.139   2.368  0.3243  0.5478 -0.3822
  116MOL0     C15936   7.370   8.912   2.311  0.2071 -1.2146  0.6885
  116MOL0     C15937   7.472   8.965   2.225  0.7893  0.0312 -0.0306
  116MOL0     C15938   7.450   8.942   2.078 -0.1956  0.3461 -0.3350
  116MOL0     H15939   8.026   9.120   2.146 -0.9854 -0.3677  1.0089
  116MOL0     H15940   8.143   9.279   1.996 -1.2428 -2.2202 -1.0077
  116MOL0     H15941   8.254   9.495   2.040 -0.2742  0.5870 -0.1224
  116MOL0     H15942   8.243   9.664   2.007  0.3154  0.0012  0.8353
  116MOL0     H15943   8.231   9.444   1.798  0.1814 -0.9396  3.2774
  116MOL0     H15944   8.187   9.613   1.762 -1.7145 -1.3332 -0.0170
  116MOL0     H15945   8.424   9.589   1.681  3.5959  0.8111 -0.3234
  116MOL0     H15946   8.423   9.683   1.833  2.0342 -0.9401  0.7413
  116MOL0     H15947   8.503   9.508   1.965 -0.3734 -3.5317  0.6479
  116MOL0     H15948   8.455   9.386   1.858  0.0410 -0.8540 -0.0178
  116MOL0     H15949   8.621   9.438   1.696  1.2522  2.6379 -1.3985
  116MOL0     H15950   8.687   9.415   1.866 -1.3983 -0.0720  1.0920
  116MOL0     H15951   8.634   9.692   1.747 -1.0427 -1.9542  0.5279
  116MOL0     H15952   8.727   9.658   1.892 -0.5609  1.2305 -0.0664
  116MOL0     H15953   8.797   9.540   1.607  1.4033 -3.2743  1.2947
  116MOL0     H15954   8.900   9.534   1.751  2.1772  0.0724 -2.6222
  116MOL0     H15955   8.984   9.698   1.578  1.3540  2.6249 -0.2172
  116MOL0     H15956   8.830   9.784   1.613 -0.9381 -2.7735 -2.1149
  116MOL0     H15957   8.829   9.876   1.896 -0.4468 -0.4410 -1.2829
  116MOL0     H15958   8.948   9.954   2.115  3.5218 -0.7346  2.6731
  116MOL0     H15959   8.980  10.094   2.027  0.1111 -0.6473 -0.3018
  116MOL0     H15960   9.219  10.062   2.047  0.8535 -1.2546 -0.5774
  116MOL0     H15961   9.134  10.090   2.204  3.3181 -0.0673 -0.3918
  116MOL0     H15962   9.176   9.839   2.250  1.6277 -2.2321 -0.1135
  116MOL0     H15963   9.280   9.838   2.106 -0.3698  0.8190 -1.5294
  116MOL0     H15964   9.296  10.036   2.344  0.9528  1.8255 -0.1680
  116MOL0     H15965   9.386   9.884   2.343  1.8311  0.2042 -0.1658
  116MOL0     H15966   9.542  10.094   2.430  0.9461 -1.4375 -1.7108
  116MOL0     H15967   9.608  10.237   2.609 -2.1685  1.2965  1.3688
  116MOL0     H15968   9.552  10.396   2.597 -0.7895  0.3896 -1.6619
  116MOL0     H15969   9.721  10.354   2.548 -0.6001 -0.7105  2.6350
  116MOL0     H15970   9.760  10.717   2.461  0.0547  2.5968  1.1215
  116MOL0     H15971   9.884  10.934   2.477 -2.1160  1.9825  0.0867
  116MOL0     H15972   9.739  11.208   2.247 -1.0257 -1.2048  0.3774
  116MOL0     H15973   9.821  11.266   2.394  2.1893  1.7226  0.4428
  116MOL0     H15974   9.897  11.338   2.109  5.7269 -1.2913  0.3306
  116MOL0     H15975   9.834  11.447   2.247 -0.5870 -0.7314 -1.8029
  116MOL0     H15976  10.084  11.283   2.215 -0.8582 -0.3150 -0.4951
  116MOL0     H15977  10.037  11.383   2.364 -0.2560 -0.4261  0.2393
  116MOL0     H15978  10.222  11.470   2.249 -0.1661 -0.7963 -0.2584
  116MOL0     H15979  10.096  11.590   2.261  0.8956  2.5199 -2.1235
  116MOL0     H15980  10.018  11.536   2.033  1.1694  1.4929 -0.8705
  116MOL0     H15981  10.164  11.623   2.055 -1.0501  1.5377  1.3551
  116MOL0     H15982  10.155  11.437   1.863  1.9181 -0.3610 -0.5502
  116MOL0     H15983  10.161  11.326   2.003 -0.0121  1.1305  0.7695
  116MOL0     H15984  10.384  11.426   2.078  4.2307 -0.6980 -2.0286
  116MOL0     H15985  10.359  11.564   1.969  0.0065 -0.0478  2.3553
  116MOL0     H15986  10.412  11.268   1.904  0.1640  0.5635  2.6507
  116MOL0     H15987  10.542  11.382   1.921  1.0211 -0.2685 -0.6603
  116MOL0     H15988   9.828  10.998   2.054  1.7798 -1.9512 -1.1641
  116MOL0     H15989   9.706  10.776   2.043 -2.8804  1.1856  0.3710
  116MOL0     H15990   9.545  10.451   2.093 -3.1242  2.5151  1.1094
  116MOL0     H15991   9.472  10.217   2.028  0.0030  0.5944 -0.3975
  116MOL0     H15992   7.860   9.590   2.127 -1.0327 -0.4286 -2.6955
  116MOL0     H15993   7.743   9.422   2.248  0.5799  1.1077  0.0590
  116MOL0     H15994   7.660   9.128   2.452  1.3904 -0.0559 -2.1729
  116MOL0     H15995   7.493   9.037   2.606 -1.3915  0.1987  0.0029
  116MOL0     H15996   7.120   8.929   2.417  2.4281 -0.2044 -1.2277
  116MOL0     H15997   7.156   8.772   2.480 -0.8944 -0.1352  0.6638
  116MOL0     H15998   7.076   9.037   2.631  3.3680 -0.0873 -0.0986
  116MOL0     H15999   7.089   8.872   2.708  3.5420  0.0915 -0.7014
  116MOL0     H16000   6.879   8.791   2.634  1.7769 -0.8129  1.1544
  116MOL0     H16001   6.838   8.952   2.658 -0.4636 -4.3461  2.2273
  116MOL0     H16002   6.767   8.832   2.435  0.9884 -1.8461 -0.2608
  116MOL0     H16003   6.921   8.816   2.391 -2.9670 -0.9923 -0.7721
  116MOL0     H16004   6.810   9.244   2.357 -2.4771  0.6933  3.2936
  116MOL0     H16005   7.305   8.838   2.264  1.5587 -0.1200 -3.3319
  116MOL0     H16006   7.542   8.903   2.035  0.4088 -1.6232  2.4697
  116MOL0     H16007   7.368   8.871   2.067 -0.0028  0.1709 -0.6423
  116MOL0     H16008   7.421   9.042   2.045 -0.4434  0.3315 -0.1715
  117MOL0     O16009   1.437   4.214   6.139  0.1318  0.0583 -0.1991
  117MOL0     C16010   1.337   4.226   6.217 -0.7684 -0.4069 -0.8427
  117MOL0     O16011   1.308   4.136   6.314  0.3174  0.2312 -0.1302
  117MOL0     C16012   1.400   4.038   6.345  0.5011  0.7898 -1.0336
  117MOL0     C16013   1.508   4.081   6.420 -0.1415 -0.1356 -0.5923
  117MOL0     C16014   1.615   3.989   6.458  1.2810  1.2451  0.1457
  117MOL0     C16015   1.613   3.858   6.411 -0.0454 -0.5808 -0.9417
  117MOL0     O16016   1.723   3.779   6.445 -0.5826  0.1978 -0.3197
  117MOL0     C16017   1.697   3.639   6.446 -0.6733  0.5203 -0.4215
  117MOL0     C16018   1.820   3.565   6.502 -0.0804 -0.4850  0.1511
  117MOL0     C16019   1.829   3.562   6.648  0.0586 -0.1288 -0.7860
  117MOL0     C16020   1.971   3.525   6.693  0.0845 -0.9050  0.7950
  117MOL0     C16021   1.993   3.525   6.845 -0.7016 -0.5477  0.8263
  117MOL0     C16022   1.929   3.393   6.897  0.0807  0.2354  0.6294
  117MOL0     C16023   1.988   3.365   7.046 -0.1018  0.1511 -0.8749
  117MOL0     C16024   1.886   3.286   7.133 -0.3563 -0.7610  0.0419
  117MOL0     N16025   1.868   3.139   7.100  0.1605  0.1504  0.4328
  117MOL0     C16026   1.852   3.081   6.975  0.8086 -0.3853 -0.0983
  117MOL0     C16027   1.878   2.952   6.992 -0.3457 -0.9434  0.4668
  117MOL0     C16028   1.871   2.840   6.897  0.2489 -0.0086  0.7455
  117MOL0     C16029   2.000   2.814   6.831 -0.1692  0.9479 -0.1593
  117MOL0     C16030   2.055   2.936   6.753 -0.2519  0.3060  0.5296
  117MOL0     C16031   2.171   2.889   6.661 -0.6861  0.0740  0.3294
  117MOL0     O16032   2.225   3.007   6.598  0.6114 -0.3128 -0.6400
  117MOL0     C16033   2.313   2.981   6.490  0.4755  0.6603 -1.2476
  117MOL0     C16034   2.358   2.857   6.445 -0.1445 -0.0602  0.2240
  117MOL0     C16035   2.453   2.840   6.343  0.3605  0.2288 -1.7019
  117MOL0     C16036   2.500   2.696   6.312  0.6240 -1.2134 -0.4361
  117MOL0     C16037   2.492   2.960   6.284 -0.4238 -0.2278  0.8624
  117MOL0     C16038   2.586   2.963   6.168 -0.0184  0.4193  1.2460
  117MOL0     O16039   2.715   2.950   6.192 -0.0987  0.2869  0.3736
  117MOL0     C16040   2.807   2.989   6.094  0.9152  0.1168 -0.0600
  117MOL0     C16041   2.881   2.889   6.025  0.7467  0.1111 -0.1228
  117MOL0     C16042   2.978   2.922   5.932  0.4657  0.1163  0.0853
  117MOL0     C16043   3.000   3.056   5.899  0.1978 -0.5270 -0.2718
  117MOL0     O16044   3.103   3.078   5.811 -0.8088 -0.4738  1.0143
  117MOL0     C16045   3.091   3.200   5.729 -0.1515  0.6351 -0.3141
  117MOL0     C16046   3.186   3.183   5.613  0.3256 -0.5753  0.0249
  117MOL0     C16047   3.162   3.287   5.497 -0.4681 -0.0662 -0.7583
  117MOL0     C16048   3.273   3.288   5.389 -0.1797 -0.5148 -0.1918
  117MOL0     C16049   3.256   3.187   5.276  0.0632  0.0710  0.7212
  117MOL0     C16050   3.170   3.249   5.170 -0.4604  0.6517  0.7287
  117MOL0     C16051   3.141   3.142   5.059 -0.5334 -0.0981 -0.8363
  117MOL0     C16052   3.039   3.196   4.951  0.0118  0.5662 -0.0997
  117MOL0    Cl16053   3.131   3.313   4.848 -0.1751 -0.3158 -0.2039
  117MOL0     C16054   2.929   3.159   5.963 -0.0004 -0.5710 -1.1379
  117MOL0     C16055   2.845   3.121   6.070  0.3576  0.5483 -0.9795
  117MOL0     O16056   2.542   3.014   6.068 -0.2190 -0.3037  0.1805
  117MOL0     C16057   2.450   3.086   6.326 -0.7225  0.2029 -0.4373
  117MOL0     C16058   2.355   3.097   6.432 -0.1348  0.3447  0.2094
  117MOL0     N16059   1.906   2.927   7.123  0.2256  0.4008 -0.2391
  117MOL0     N16060   1.902   3.037   7.182  0.6263  0.4220  0.0002
  117MOL0     C16061   1.505   3.821   6.341  0.6230  0.8162 -0.1912
  117MOL0     C16062   1.395   3.902   6.315  0.0979 -0.0976  0.3096
  117MOL0     C16063   1.241   4.339   6.185  0.4857  1.1628  0.5052
  117MOL0     C16064   1.290   4.455   6.121 -0.4453  0.4213 -0.1125
  117MOL0     C16065   1.206   4.551   6.071  0.1425  0.6224  0.1506
  117MOL0     C16066   1.071   4.528   6.080  0.0580  0.0023 -0.4146
  117MOL0     O16067   0.980   4.606   6.019  0.5262 -0.3809  0.8944
  117MOL0     C16068   0.946   4.550   5.890  1.4407  0.0340 -0.9451
  117MOL0     C16069   0.801   4.594   5.847 -0.6520 -0.0904 -1.0655
  117MOL0     C16070   0.783   4.536   5.702  0.1998  0.0652  0.3606
  117MOL0     C16071   0.640   4.536   5.643 -0.3242  1.1208  0.0381
  117MOL0     C16072   0.631   4.439   5.527  1.0726 -0.5650 -0.3219
  117MOL0     C16073   0.622   4.360   5.432 -0.2501 -0.2749 -1.1099
  117MOL0     C16074   1.015   4.418   6.153  0.5899  0.8142  0.8633
  117MOL0     C16075   1.098   4.327   6.212  0.7383 -0.8115 -1.0687
  117MOL0     C16076   1.021   4.211   6.287  0.0631 -0.3429 -0.8976
  117MOL0     H16077   1.515   4.183   6.456 -0.2331 -0.2757 -0.1772
  117MOL0     H16078   1.699   4.030   6.512  2.9025 -1.0880 -0.4378
  117MOL0     H16079   1.675   3.612   6.342  2.3313  0.2767 -1.1038
  117MOL0     H16080   1.611   3.614   6.509  0.6208  1.0773  1.6804
  117MOL0     H16081   1.826   3.468   6.454 -0.7566 -1.0960  1.2561
  117MOL0     H16082   1.912   3.618   6.476 -0.1895 -1.5342 -2.6063
  117MOL0     H16083   1.804   3.663   6.682  1.5694  0.3356 -1.0001
  117MOL0     H16084   1.756   3.490   6.686 -1.5518  1.8917  0.1073
  117MOL0     H16085   1.988   3.422   6.661  0.7811 -1.4897  2.8576
  117MOL0     H16086   2.044   3.596   6.653 -0.7218 -0.7794 -0.5071
  117MOL0     H16087   1.950   3.620   6.880  1.1458  0.1905  1.2102
  117MOL0     H16088   2.100   3.528   6.865 -0.3091 -0.2664 -1.0688
  117MOL0     H16089   1.820   3.408   6.891  0.3487  2.0818 -0.6917
  117MOL0     H16090   1.960   3.307   6.837  0.3737 -0.7272  2.1243
  117MOL0     H16091   2.008   3.466   7.083 -0.9305  0.1016 -0.2624
  117MOL0     H16092   2.087   3.319   7.047  1.1414  2.6443  1.0058
  117MOL0     H16093   1.916   3.302   7.237  1.2890  0.6265 -0.5970
  117MOL0     H16094   1.789   3.332   7.113 -0.0429 -0.6271 -1.2624
  117MOL0     H16095   1.810   3.138   6.893  0.0167  0.2136  0.7025
  117MOL0     H16096   1.794   2.867   6.825  0.0540  2.0148  1.6624
  117MOL0     H16097   1.831   2.754   6.953 -1.7156  0.7948  0.6452
  117MOL0     H16098   2.069   2.791   6.913 -2.5414  2.1612  2.3369
  117MOL0     H16099   1.981   2.721   6.777 -0.1775 -0.6292  2.3765
  117MOL0     H16100   1.977   2.974   6.687 -2.1645 -0.8018  2.0541
  117MOL0     H16101   2.087   3.014   6.822  0.2949  0.4146  0.1653
  117MOL0     H16102   2.245   2.836   6.722 -0.7949  0.2258  0.5950
  117MOL0     H16103   2.134   2.814   6.590 -1.0638 -1.9448  2.5538
  117MOL0     H16104   2.332   2.768   6.501 -2.0996  0.7664  0.7285
  117MOL0     H16105   2.574   2.669   6.387 -0.0521 -1.2995  0.2124
  117MOL0     H16106   2.536   2.683   6.209 -0.5337  0.2871 -1.0765
  117MOL0     H16107   2.421   2.625   6.337  1.8969 -1.1926  4.8360
  117MOL0     H16108   2.849   2.787   6.044 -1.1431  1.0138  2.0556
  117MOL0     H16109   3.028   2.853   5.864  3.0262  3.3420 -1.5869
  117MOL0     H16110   2.990   3.211   5.689  0.9033  0.3154 -3.3419
  117MOL0     H16111   3.115   3.293   5.782  0.8576  0.1994  0.0271
  117MOL0     H16112   3.285   3.185   5.660 -1.2451  1.2287  3.6319
  117MOL0     H16113   3.170   3.084   5.569 -1.7947 -1.1125  1.8336
  117MOL0     H16114   3.141   3.386   5.541  1.3185  0.0226 -0.0347
  117MOL0     H16115   3.069   3.257   5.448  0.0497 -2.6223 -0.2896
  117MOL0     H16116   3.367   3.263   5.438 -0.2967  1.2841  1.0484
  117MOL0     H16117   3.265   3.385   5.338 -1.6607  0.0558  1.0516
  117MOL0     H16118   3.351   3.162   5.227 -0.8362 -1.8323 -0.1949
  117MOL0     H16119   3.212   3.093   5.310 -1.1924 -1.0618 -3.4028
  117MOL0     H16120   3.228   3.336   5.136  2.1447 -1.7094 -1.3329
  117MOL0     H16121   3.081   3.293   5.217 -0.2513  2.5642 -0.5361
  117MOL0     H16122   3.107   3.051   5.109  2.7923 -0.5238  0.8614
  117MOL0     H16123   3.227   3.117   4.996 -2.0252  0.9251 -3.4627
  117MOL0     H16124   2.963   3.251   5.007 -1.7270 -1.7711 -0.0588
  117MOL0     H16125   2.987   3.121   4.892 -2.7176  2.6463 -0.5237
  117MOL0     H16126   2.961   3.262   5.950 -2.6509  0.2065 -2.0371
  117MOL0     H16127   2.805   3.196   6.138  0.1328 -1.8631  1.7359
  117MOL0     H16128   2.495   3.170   6.274  0.4478 -2.6633 -4.5450
  117MOL0     H16129   2.306   3.188   6.463 -0.4272 -0.2450  1.5769
  117MOL0     H16130   1.489   3.721   6.300 -0.2444 -0.0625  2.1172
  117MOL0     H16131   1.314   3.868   6.251  0.9752 -0.6862 -0.5163
  117MOL0     H16132   1.397   4.456   6.102 -0.0006 -1.3867  1.8143
  117MOL0     H16133   1.247   4.632   6.010 -1.6624 -1.4659 -4.2843
  117MOL0     H16134   1.017   4.564   5.808  0.2199  1.6292 -1.7823
  117MOL0     H16135   0.928   4.443   5.902 -2.3906  0.7936  1.9612
  117MOL0     H16136   0.806   4.703   5.843  2.3806 -0.0092  1.1433
  117MOL0     H16137   0.723   4.560   5.916  0.6458  1.4912  1.3540
  117MOL0     H16138   0.853   4.591   5.638 -0.7529 -0.8348 -1.5261
  117MOL0     H16139   0.814   4.431   5.703  0.5602  0.1610  2.1899
  117MOL0     H16140   0.609   4.629   5.594 -1.4587  0.5849 -0.2960
  117MOL0     H16141   0.569   4.500   5.719  1.5024  0.2882  1.4225
  117MOL0     H16142   0.598   4.269   5.382 -1.9272 -1.6093  1.8293
  117MOL0     H16143   0.907   4.412   6.167  0.5336  2.7094  1.5300
  117MOL0     H16144   1.060   4.190   6.387  2.0285 -1.6078 -1.8716
  117MOL0     H16145   0.914   4.231   6.297  0.0890 -0.3455 -0.6295
  117MOL0     H16146   1.039   4.112   6.244  1.3747 -1.4403  1.9445
  118MOL0     O16147   2.164   0.060   0.260 -0.2402  0.2862 -0.0216
  118MOL0     C16148   2.180   0.146   0.344 -0.1626 -0.4941  0.1660
  118MOL0     O16149   2.103   0.251   0.363 -0.6811  0.4550  0.0378
  118MOL0     C16150   1.984   0.277   0.288  0.1082  0.3883 -0.5097
  118MOL0     C16151   1.954   0.238   0.158 -0.3397 -0.4010  0.0244
  118MOL0     C16152   1.827   0.259   0.098  0.3789  0.0151  0.6817
  118MOL0     C16153   1.734   0.344   0.156 -0.0071  0.2128 -0.3844
  118MOL0     O16154   1.629   0.396   0.088 -0.5775 -0.3572 -0.3009
  118MOL0     C16155   1.653   0.505  -0.007 -0.2320 -0.5142  0.0246
  118MOL0     C16156   1.543   0.601  -0.028 -0.0694 -0.1072  0.1735
  118MOL0     C16157   1.546   0.701   0.088 -0.4591 -0.0215  0.4030
  118MOL0     C16158   1.482   0.836   0.038 -1.3245 -0.1497 -0.4777
  118MOL0     C16159   1.589   0.914  -0.055  0.3295  0.4687  0.1561
  118MOL0     C16160   1.530   0.933  -0.195  0.1906  0.9741 -0.7806
  118MOL0     C16161   1.614   1.037  -0.274 -0.7648 -0.0012 -0.8985
  118MOL0     C16162   1.570   1.063  -0.416 -0.2331 -0.2134  0.0081
  118MOL0     N16163   1.576   0.937  -0.503 -0.3063  0.2771 -0.4321
  118MOL0     C16164   1.479   0.834  -0.507  0.9107  0.8476 -0.9511
  118MOL0     C16165   1.544   0.741  -0.580  0.9657 -0.0035 -0.2789
  118MOL0     C16166   1.495   0.605  -0.615 -0.7067  0.6447 -0.0570
  118MOL0     C16167   1.473   0.524  -0.483  0.1923  0.0773 -0.1412
  118MOL0     C16168   1.596   0.514  -0.384 -0.4042  0.5712  0.0123
  118MOL0     C16169   1.722   0.461  -0.448  0.9589 -0.3743  0.4410
  118MOL0     O16170   1.834   0.443  -0.361  0.2270 -0.0136 -0.6860
  118MOL0     C16171   1.883   0.558  -0.298 -0.5395  0.2462  0.7549
  118MOL0     C16172   1.965   0.538  -0.184  0.5044  0.9241 -0.6615
  118MOL0     C16173   2.012   0.644  -0.103  0.7443  0.3787  0.3599
  118MOL0     C16174   2.078   0.608   0.027 -0.2388  0.5907 -0.1522
  118MOL0     C16175   1.979   0.775  -0.135  0.5537 -0.4192 -0.0687
  118MOL0     C16176   2.024   0.894  -0.064 -0.4044  0.2948  0.1546
  118MOL0     O16177   1.944   1.008  -0.068  0.0001  0.6963 -0.1985
  118MOL0     C16178   1.976   1.114   0.016 -0.0971 -0.2296 -0.4269
  118MOL0     C16179   1.995   1.243  -0.033 -0.6509  0.1507 -0.3189
  118MOL0     C16180   2.005   1.357   0.052 -0.2573  0.4318  0.0680
  118MOL0     C16181   2.019   1.331   0.194 -0.7226  0.4668  0.4129
  118MOL0     O16182   2.086   1.414   0.285 -0.4808  0.2023 -0.1873
  118MOL0     C16183   2.071   1.556   0.267 -0.8467 -0.5505 -0.4940
  118MOL0     C16184   2.158   1.615   0.359  0.2124  0.0139 -0.5791
  118MOL0     C16185   2.160   1.765   0.356  0.0904  0.0521  0.1712
  118MOL0     C16186   2.201   1.827   0.489 -0.5447 -0.1803  0.5518
  118MOL0     C16187   2.201   1.979   0.471 -0.3925 -0.3417 -0.2833
  118MOL0     C16188   2.216   2.063   0.598 -0.6724  0.1993  0.4383
  118MOL0     C16189   2.345   2.052   0.677  0.0273  0.2852  0.4407
  118MOL0     C16190   2.351   2.135   0.806  0.8849 -0.4793  0.4026
  118MOL0    Cl16191   2.255   2.053   0.932 -0.6189 -0.4759  0.1976
  118MOL0     C16192   1.982   1.207   0.246  0.2414  0.3308  0.3546
  118MOL0     C16193   1.950   1.103   0.155 -0.8615  0.7235  0.0997
  118MOL0     O16194   2.139   0.890  -0.023 -0.5095 -0.3486 -0.5067
  118MOL0     C16195   1.906   0.794  -0.254  0.0946  0.2235 -0.0646
  118MOL0     C16196   1.854   0.689  -0.331  0.0657  0.4134 -0.5226
  118MOL0     N16197   1.663   0.788  -0.628 -0.7436 -0.3200  0.1580
  118MOL0     N16198   1.680   0.903  -0.574  0.2394 -0.2746  0.2391
  118MOL0     C16199   1.768   0.386   0.287 -0.0018  0.1381  0.0723
  118MOL0     C16200   1.887   0.345   0.353 -0.6319 -0.6686 -0.4954
  118MOL0     C16201   2.307   0.144   0.425 -0.4256  0.6392  0.1933
  118MOL0     C16202   2.362   0.013   0.453 -0.9876 -0.4468 -0.0675
  118MOL0     C16203   2.469  -0.005   0.539  0.9819  0.6304  1.1670
  118MOL0     C16204   2.523   0.103   0.603 -0.8898  0.2513 -0.1937
  118MOL0     O16205   2.637   0.082   0.681  0.0920 -0.2845 -0.3502
  118MOL0     C16206   2.637  -0.024   0.773  0.8602  0.0347 -0.7456
  118MOL0     C16207   2.741  -0.138   0.749  0.3155 -0.4445  0.1422
  118MOL0     C16208   2.884  -0.095   0.761 -0.1285 -0.6472  0.1494
  118MOL0     C16209   2.970  -0.151   0.641  0.8147  0.0019  0.5150
  118MOL0     C16210   3.094  -0.082   0.635 -0.2577 -0.2165  0.7633
  118MOL0     C16211   3.205  -0.040   0.619  0.2426 -0.1964 -0.4605
  118MOL0     C16212   2.474   0.231   0.586  0.1939  0.6748  0.1974
  118MOL0     C16213   2.372   0.256   0.489  0.0606  0.6151  0.2229
  118MOL0     C16214   2.317   0.396   0.491  0.5666  0.3605 -0.2121
  118MOL0     H16215   2.029   0.178   0.107 -0.2877 -0.0092 -0.3647
  118MOL0     H16216   1.824   0.228  -0.006  0.3403 -1.1023  1.0056
  118MOL0     H16217   1.689   0.478  -0.106  2.7715  0.7710  0.6297
  118MOL0     H16218   1.741   0.562   0.027  0.2453 -1.1791 -0.0738
  118MOL0     H16219   1.561   0.663  -0.116  3.0121  2.8077  2.5764
  118MOL0     H16220   1.449   0.546  -0.038  1.4913 -3.2328  1.0567
  118MOL0     H16221   1.479   0.669   0.168 -2.1871  4.0353  0.8661
  118MOL0     H16222   1.644   0.722   0.132 -0.9169  0.6932  1.1117
  118MOL0     H16223   1.387   0.809  -0.007 -1.1613  0.3505 -1.1344
  118MOL0     H16224   1.459   0.904   0.121 -2.1057  0.7718 -1.4152
  118MOL0     H16225   1.683   0.862  -0.077  1.4601  3.1532 -1.9402
  118MOL0     H16226   1.613   1.015  -0.019  1.5048  0.0327  0.6488
  118MOL0     H16227   1.543   0.836  -0.243  0.2427  0.8170 -0.4564
  118MOL0     H16228   1.424   0.957  -0.187  0.9345  4.1173  2.7614
  118MOL0     H16229   1.717   1.001  -0.265 -1.7270 -2.5440  1.2617
  118MOL0     H16230   1.593   1.130  -0.220 -0.4975 -0.6860  0.4182
  118MOL0     H16231   1.466   1.097  -0.418 -0.4092 -0.1894 -5.4531
  118MOL0     H16232   1.636   1.143  -0.451 -0.4604  0.7129  1.5917
  118MOL0     H16233   1.384   0.818  -0.457  1.7447 -3.2337 -0.2958
  118MOL0     H16234   1.578   0.559  -0.670 -2.0322 -1.5663 -0.3475
  118MOL0     H16235   1.401   0.601  -0.670 -0.4815 -1.8363 -0.4049
  118MOL0     H16236   1.380   0.558  -0.436 -0.1306 -0.4638 -0.3712
  118MOL0     H16237   1.450   0.424  -0.520 -2.0024 -0.4358  2.2915
  118MOL0     H16238   1.609   0.609  -0.332  1.6414 -0.2547  1.1061
  118MOL0     H16239   1.570   0.439  -0.308 -0.4888 -0.8330 -1.3493
  118MOL0     H16240   1.703   0.359  -0.484 -0.6045  0.1043 -0.1710
  118MOL0     H16241   1.747   0.522  -0.535  1.6176 -1.2606 -0.0003
  118MOL0     H16242   1.995   0.441  -0.145  2.3447  0.1480 -3.6456
  118MOL0     H16243   2.076   0.500   0.041 -1.0462  0.9578  4.0305
  118MOL0     H16244   2.017   0.658   0.103  0.5323  0.8328  0.3115
  118MOL0     H16245   2.177   0.652   0.036  0.0402 -0.4448  2.8825
  118MOL0     H16246   1.991   1.263  -0.140  0.8931  1.0600 -0.2322
  118MOL0     H16247   2.028   1.458   0.019  0.9256 -0.5537 -2.4023
  118MOL0     H16248   2.104   1.585   0.166 -1.2276  1.1644 -0.1548
  118MOL0     H16249   1.968   1.592   0.280 -0.7286  1.4090 -3.8624
  118MOL0     H16250   2.128   1.584   0.460  0.2010 -0.1992 -0.6485
  118MOL0     H16251   2.260   1.583   0.334  0.1121 -0.9227  0.1544
  118MOL0     H16252   2.057   1.789   0.327  0.2108  0.5580  0.1538
  118MOL0     H16253   2.232   1.806   0.285 -0.8714  1.4042 -0.0812
  118MOL0     H16254   2.289   1.780   0.533 -0.8945 -2.2661 -0.8597
  118MOL0     H16255   2.134   1.790   0.567 -0.1233 -0.8611  0.5971
  118MOL0     H16256   2.285   2.008   0.406 -0.4057  0.3333 -0.0084
  118MOL0     H16257   2.106   2.006   0.426 -0.5529 -1.7821 -0.8596
  118MOL0     H16258   2.130   2.039   0.662 -1.8041 -0.8723 -1.3997
  118MOL0     H16259   2.207   2.171   0.580  1.1244  0.7420  2.3401
  118MOL0     H16260   2.425   2.083   0.608  0.3100 -0.7829  0.2699
  118MOL0     H16261   2.370   1.946   0.687  0.8602  0.5034  0.7417
  118MOL0     H16262   2.313   2.236   0.790  1.9304 -0.1542 -0.1590
  118MOL0     H16263   2.454   2.133   0.842  0.3666  2.9446  2.4976
  118MOL0     H16264   1.992   1.188   0.353  0.4776 -2.5257 -0.0845
  118MOL0     H16265   1.912   1.010   0.195  1.2723  0.4999  1.8697
  118MOL0     H16266   1.886   0.894  -0.290  0.7785  0.9696  1.5260
  118MOL0     H16267   1.785   0.712  -0.412 -2.4369  1.1324  1.6642
  118MOL0     H16268   1.690   0.435   0.344 -1.3697 -1.7221 -0.1357
  118MOL0     H16269   1.902   0.360   0.460  2.0767  0.2766 -0.9411
  118MOL0     H16270   2.308  -0.069   0.405  1.6800 -1.9837 -0.6417
  118MOL0     H16271   2.507  -0.107   0.539 -0.0975  0.0994 -1.8186
  118MOL0     H16272   2.667   0.021   0.869  3.7390 -0.5779 -1.2456
  118MOL0     H16273   2.538  -0.068   0.781  1.2160 -1.6047 -4.0344
  118MOL0     H16274   2.718  -0.193   0.657  3.7618 -0.9206 -0.5701
  118MOL0     H16275   2.721  -0.201   0.836 -0.5290 -1.3548 -0.6843
  118MOL0     H16276   2.897   0.012   0.776 -0.5918 -0.8099  1.8643
  118MOL0     H16277   2.922  -0.134   0.856  2.5388  3.2346  0.9084
  118MOL0     H16278   2.922  -0.132   0.544 -0.4078  0.9508  1.2752
  118MOL0     H16279   2.985  -0.259   0.641  0.2062 -0.0874  0.7563
  118MOL0     H16280   3.306  -0.023   0.590  0.4497 -2.3463 -1.2117
  118MOL0     H16281   2.507   0.309   0.654 -0.6386  3.9558 -2.8564
  118MOL0     H16282   2.225   0.375   0.547  0.0223 -2.1633 -1.8790
  118MOL0     H16283   2.384   0.468   0.539  0.2201 -0.7067  1.9845
  118MOL0     H16284   2.305   0.437   0.390 -2.9555 -0.9179 -0.4464
  119MOL0     O16285  11.095  10.699   2.463 -0.0436  0.1064  0.6093
  119MOL0     C16286  11.066  10.611   2.386 -0.2932  0.0033 -1.0401
  119MOL0     O16287  11.097  10.487   2.406 -0.0791 -0.4980 -0.1690
  119MOL0     C16288  11.172  10.452   2.511  0.0465  0.9139 -0.4158
  119MOL0     C16289  11.129  10.332   2.581  0.2397 -0.4467  0.5776
  119MOL0     C16290  11.193  10.282   2.693  0.2101  0.1811  0.7171
  119MOL0     C16291  11.313  10.338   2.738  1.2491 -0.5821  0.3984
  119MOL0     O16292  11.390  10.286   2.832  0.0462 -0.3900 -0.2854
  119MOL0     C16293  11.364  10.163   2.897  0.0256  0.7791  0.0357
  119MOL0     C16294  11.440  10.159   3.036  0.2305  0.1688  1.0477
  119MOL0     C16295  11.591  10.152   3.034  0.2029  0.0155 -0.5431
  119MOL0     C16296  11.641  10.176   3.172  0.2952 -0.0750  0.1315
  119MOL0     C16297  11.800  10.186   3.169 -0.2083  0.3227  0.8285
  119MOL0     C16298  11.856  10.171   3.310  0.2273 -0.8044  0.1290
  119MOL0     C16299  12.004  10.214   3.311  0.2456  0.0991  0.5089
  119MOL0     C16300  12.075  10.195   3.448  1.1441 -1.2663  1.0763
  119MOL0     N16301  12.217  10.187   3.424 -0.2908 -0.2431 -0.4777
  119MOL0     C16302  12.294  10.275   3.345 -0.0492  0.4413  0.6009
  119MOL0     C16303  12.428  10.251   3.377 -0.4193  0.1485  0.8959
  119MOL0     C16304  12.546  10.323   3.315  0.2328 -0.2694 -0.2864
  119MOL0     C16305  12.675  10.301   3.397 -0.0210  0.7542  0.6726
  119MOL0     C16306  12.795  10.374   3.337  0.6155  0.5763 -0.6871
  119MOL0     C16307  12.923  10.334   3.404  0.7637  0.4165  0.4540
  119MOL0     O16308  12.975  10.215   3.342 -0.6459 -0.4118  0.3525
  119MOL0     C16309  13.105  10.171   3.378  0.8468 -0.0950  0.3089
  119MOL0     C16310  13.184  10.227   3.486 -0.4664  0.3726  0.8865
  119MOL0     C16311  13.311  10.189   3.519  0.3214  0.1147 -0.6462
  119MOL0     C16312  13.372  10.286   3.621 -0.5110 -0.4492  1.0270
  119MOL0     C16313  13.372  10.076   3.457  0.4821  0.2966  0.1927
  119MOL0     C16314  13.507  10.027   3.479  0.0913  0.8988  0.4119
  119MOL0     O16315  13.557  10.052   3.598  0.2057 -0.3220  0.5964
  119MOL0     C16316  13.690  10.015   3.620  0.1941 -0.3955  0.9872
  119MOL0     C16317  13.711   9.921   3.722  0.1810 -0.5778 -0.0094
  119MOL0     C16318  13.845   9.884   3.755  0.0565  1.0048  0.3715
  119MOL0     C16319  13.953   9.945   3.699  1.1043 -0.0587 -0.4573
  119MOL0     O16320  14.078   9.908   3.729 -0.2862 -0.6313  0.6697
  119MOL0     C16321  14.154  10.006   3.801 -0.1937  0.1963 -0.2809
  119MOL0     C16322  14.280   9.946   3.860  0.3858  0.4080  0.5541
  119MOL0     C16323  14.268   9.802   3.914 -0.5771  0.4946 -0.4559
  119MOL0     C16324  14.406   9.738   3.922  0.9313  0.2426  0.4389
  119MOL0     C16325  14.410   9.594   3.961 -0.0099  1.1982 -0.1434
  119MOL0     C16326  14.549   9.527   3.994  0.4279  0.3126 -0.6106
  119MOL0     C16327  14.644   9.520   3.873  0.4206  0.4598  0.5587
  119MOL0     C16328  14.577   9.404   3.776 -0.3252 -0.5597 -0.7082
  119MOL0    Cl16329  14.699   9.386   3.652 -0.0164 -0.1538 -0.1011
  119MOL0     C16330  13.928  10.050   3.601 -0.4515  0.3887 -0.1456
  119MOL0     C16331  13.799  10.071   3.557 -0.2992  0.5116 -0.1642
  119MOL0     O16332  13.574   9.991   3.383  0.4124  0.3844  1.0987
  119MOL0     C16333  13.290  10.012   3.369  0.0617 -0.8103  0.3485
  119MOL0     C16334  13.165  10.061   3.315 -0.0242  0.7885 -0.6602
  119MOL0     N16335  12.428  10.138   3.462  1.2402  0.1917  0.3154
  119MOL0     N16336  12.304  10.099   3.479  0.0391  0.8213 -0.2338
  119MOL0     C16337  11.358  10.463   2.684  1.5797 -0.3175 -0.1202
  119MOL0     C16338  11.288  10.514   2.566  1.1128  0.6162  0.3296
  119MOL0     C16339  10.996  10.642   2.257 -0.1465 -0.1253  0.1455
  119MOL0     C16340  11.062  10.582   2.145  0.0661 -1.1746 -0.9217
  119MOL0     C16341  11.030  10.622   2.013  0.0535  0.5856 -0.7800
  119MOL0     C16342  10.917  10.702   1.989 -0.6579  0.4634  0.4580
  119MOL0     O16343  10.882  10.736   1.861 -0.1122  0.8120  0.6080
  119MOL0     C16344  10.779  10.830   1.830  0.6945 -0.8993 -0.4761
  119MOL0     C16345  10.644  10.755   1.814 -0.4713  0.6936 -0.0378
  119MOL0     C16346  10.519  10.840   1.823 -0.8143  0.0556  0.6056
  119MOL0     C16347  10.518  10.923   1.953  0.4209  0.5943  0.8092
  119MOL0     C16348  10.377  10.937   1.989 -0.6049 -0.1000  0.2593
  119MOL0     C16349  10.264  10.960   2.022 -0.1676  0.7482 -0.1857
  119MOL0     C16350  10.854  10.753   2.102 -0.3768  0.3037 -0.3984
  119MOL0     C16351  10.888  10.720   2.237  0.0958  1.3355  0.9421
  119MOL0     C16352  10.827  10.792   2.349  0.4843 -0.6452 -0.5342
  119MOL0     H16353  11.043  10.287   2.533 -1.1895  1.2296  1.4395
  119MOL0     H16354  11.150  10.194   2.740  1.2201 -0.7088  0.0213
  119MOL0     H16355  11.397  10.073   2.844  2.7313  0.2327  2.3914
  119MOL0     H16356  11.260  10.160   2.931  0.6895  0.3053  2.1882
  119MOL0     H16357  11.410  10.250   3.089 -1.9020  1.1190 -1.5542
  119MOL0     H16358  11.409  10.070   3.091 -1.1282  0.3793  0.6677
  119MOL0     H16359  11.616  10.053   2.994 -0.2528 -0.3970  0.1500
  119MOL0     H16360  11.635  10.235   2.979  0.1160 -0.9877 -2.1965
  119MOL0     H16361  11.604  10.270   3.214  0.0287 -1.4226  3.0905
  119MOL0     H16362  11.622  10.091   3.238 -1.5703 -0.3808 -0.7178
  119MOL0     H16363  11.823  10.280   3.119 -3.0740  1.1284  0.8681
  119MOL0     H16364  11.839  10.103   3.108  1.3665  2.2344 -0.9340
  119MOL0     H16365  11.808  10.231   3.389  0.9729 -1.9783  1.5290
  119MOL0     H16366  11.848  10.069   3.349  1.2062 -0.6732  0.7166
  119MOL0     H16367  12.007  10.319   3.280  0.4701 -0.1295 -0.2764
  119MOL0     H16368  12.050  10.160   3.227 -0.6130  0.3855 -0.1631
  119MOL0     H16369  12.051  10.284   3.507  3.1875 -0.7926  1.2529
  119MOL0     H16370  12.046  10.103   3.499  1.7512 -1.2509  1.4554
  119MOL0     H16371  12.249  10.358   3.291 -1.9173 -0.0645  1.3115
  119MOL0     H16372  12.522  10.430   3.315 -2.7898 -0.8760  0.1057
  119MOL0     H16373  12.565  10.302   3.209 -0.3849 -0.8869 -0.2758
  119MOL0     H16374  12.657  10.344   3.496 -1.5913  0.6823  0.4301
  119MOL0     H16375  12.712  10.198   3.405  1.7867  1.3242  0.3160
  119MOL0     H16376  12.801  10.353   3.230 -0.6440 -0.1317 -0.6397
  119MOL0     H16377  12.775  10.481   3.345  0.1489  0.5074 -0.9160
  119MOL0     H16378  12.996  10.414   3.392 -1.3436  2.4651  0.5296
  119MOL0     H16379  12.901  10.319   3.510  0.0406 -0.9935  0.1333
  119MOL0     H16380  13.133  10.303   3.544 -2.1784  1.2021 -1.5622
  119MOL0     H16381  13.327  10.292   3.720 -0.9876  1.3081  0.7516
  119MOL0     H16382  13.358  10.384   3.573  0.1852 -0.3499  1.0194
  119MOL0     H16383  13.480  10.266   3.618 -0.3885  0.2098  0.5065
  119MOL0     H16384  13.624   9.879   3.771 -1.0774  1.3953 -0.4656
  119MOL0     H16385  13.874   9.811   3.831 -0.0680 -1.0071 -1.4181
  119MOL0     H16386  14.170  10.094   3.739 -3.6993 -0.2612 -2.0594
  119MOL0     H16387  14.102  10.043   3.890  0.6069  0.4890  0.0795
  119MOL0     H16388  14.359   9.957   3.785 -2.0723  3.2301 -1.8931
  119MOL0     H16389  14.306  10.016   3.940 -1.5036  4.9314 -2.3974
  119MOL0     H16390  14.206   9.734   3.855 -2.1384  1.5099 -0.0323
  119MOL0     H16391  14.228   9.813   4.015 -1.6615 -0.6479 -0.7377
  119MOL0     H16392  14.466   9.786   4.000  0.3744 -0.9257  1.6233
  119MOL0     H16393  14.458   9.761   3.828  0.1793  0.2789  0.0272
  119MOL0     H16394  14.359   9.591   4.058  0.8703  0.8193  0.3199
  119MOL0     H16395  14.363   9.525   3.891  0.7995  1.6776 -1.2018
  119MOL0     H16396  14.511   9.428   4.023 -1.1347  0.9871 -0.2221
  119MOL0     H16397  14.592   9.579   4.080 -1.0169  0.0186  0.3367
  119MOL0     H16398  14.742   9.477   3.894 -0.3000 -1.1349  0.7752
  119MOL0     H16399  14.652   9.616   3.821  0.6740 -0.7411 -1.7345
  119MOL0     H16400  14.479   9.443   3.747 -0.4099  1.2274  1.7062
  119MOL0     H16401  14.552   9.311   3.829 -3.5679 -0.8064 -2.4220
  119MOL0     H16402  14.012  10.106   3.561  1.5044 -1.8768  0.5196
  119MOL0     H16403  13.784  10.156   3.491 -1.2978 -1.2416 -2.2903
  119MOL0     H16404  13.317   9.922   3.316  0.1704  0.1152 -1.2063
  119MOL0     H16405  13.113  10.013   3.233 -0.0741 -1.2423  0.4873
  119MOL0     H16406  11.451  10.502   2.723  1.2718 -0.4534  0.7681
  119MOL0     H16407  11.334  10.596   2.512  1.8373  0.5481  0.8276
  119MOL0     H16408  11.138  10.507   2.164 -0.3963 -1.4621 -0.1399
  119MOL0     H16409  11.090  10.591   1.928  0.3854  0.8334 -0.6386
  119MOL0     H16410  10.779  10.912   1.903  1.3640 -0.2738 -1.1544
  119MOL0     H16411  10.814  10.883   1.740 -2.7608 -1.9325 -2.6378
  119MOL0     H16412  10.631  10.681   1.893 -0.1021 -0.7500 -1.2646
  119MOL0     H16413  10.647  10.698   1.720 -0.4445  2.6231 -1.2758
  119MOL0     H16414  10.508  10.908   1.739  1.7413  1.0086  0.9401
  119MOL0     H16415  10.444  10.760   1.817  1.0243 -1.7446 -5.0512
  119MOL0     H16416  10.559  11.023   1.936 -0.4735  0.6636 -1.3291
  119MOL0     H16417  10.566  10.875   2.039  3.5113  0.4023 -0.8774
  119MOL0     H16418  10.161  10.971   2.049  0.1363  1.2130  0.8142
  119MOL0     H16419  10.765  10.813   2.088 -1.7059 -1.8175 -1.4389
  119MOL0     H16420  10.780  10.721   2.417  0.5282 -0.0379  0.1372
  119MOL0     H16421  10.905  10.849   2.400  0.7172 -0.5308 -1.0165
  119MOL0     H16422  10.749  10.855   2.305 -0.4488 -1.5132 -0.1456
  120MOL0     O16423   2.454  10.185   5.843 -0.3279  0.4850  0.1117
  120MOL0     C16424   2.501  10.076   5.835  0.0719  0.9187 -0.8238
  120MOL0     O16425   2.424   9.956   5.825  0.4934 -0.1001  0.3432
  120MOL0     C16426   2.290   9.974   5.812 -0.0559  0.3323  0.0173
  120MOL0     C16427   2.239  10.037   5.703  0.6789  0.3253  1.2194
  120MOL0     C16428   2.099  10.056   5.684 -0.0126 -0.0779 -0.6769
  120MOL0     C16429   2.017  10.012   5.793 -0.1760  0.5328 -0.1749
  120MOL0     O16430   1.886  10.006   5.789  0.4238  0.2311 -0.3676
  120MOL0     C16431   1.817  10.033   5.671 -0.2033 -0.3194 -0.3484
  120MOL0     C16432   1.668  10.026   5.691 -0.1190 -0.4201 -0.0921
  120MOL0     C16433   1.611  10.141   5.764 -0.6976  0.2481 -0.4343
  120MOL0     C16434   1.469  10.120   5.806 -0.0853  0.3026  0.0735
  120MOL0     C16435   1.404  10.239   5.870  0.8748 -0.4659  0.4960
  120MOL0     C16436   1.493  10.289   5.991 -0.6508 -0.6380 -0.0671
  120MOL0     C16437   1.528  10.188   6.104 -0.0616  0.1680  0.4289
  120MOL0     C16438   1.405  10.153   6.190 -1.2174  0.3612 -0.0509
  120MOL0     N16439   1.346  10.270   6.256  0.3014  0.3437  0.5880
  120MOL0     C16440   1.251  10.361   6.213  0.4294 -0.4447  0.1870
  120MOL0     C16441   1.212  10.432   6.318  0.0041 -0.1533 -1.1020
  120MOL0     C16442   1.100  10.529   6.330 -0.2340 -0.9865 -0.0195
  120MOL0     C16443   0.973  10.492   6.266  0.0794 -0.3582  0.1093
  120MOL0     C16444   0.900  10.361   6.310 -1.3979 -0.1483 -0.7393
  120MOL0     C16445   0.842  10.375   6.454 -0.2469  0.0712  0.9958
  120MOL0     O16446   0.711  10.314   6.482  0.0177 -0.2956  0.1612
  120MOL0     C16447   0.601  10.377   6.425 -0.1537 -0.0291  0.1119
  120MOL0     C16448   0.490  10.307   6.451 -0.7363  1.0624  0.0906
  120MOL0     C16449   0.362  10.335   6.407  0.1230  0.4428  0.3718
  120MOL0     C16450   0.254  10.235   6.454 -1.0545 -0.6809 -0.3458
  120MOL0     C16451   0.351  10.439   6.315  0.2629  0.5069 -0.0733
  120MOL0     C16452   0.225  10.465   6.245  0.0846  0.6553  0.3713
  120MOL0     O16453   0.220  10.583   6.181 -0.6016 -0.8976  0.2352
  120MOL0     C16454   0.106  10.646   6.165  0.0569 -0.5149 -0.1466
  120MOL0     C16455   0.062  10.726   6.265 -0.2738 -0.1527 -0.3774
  120MOL0     C16456  -0.062  10.788   6.251 -0.8421 -0.1871  0.8372
  120MOL0     C16457  -0.132  10.778   6.128 -0.6187  0.0874 -0.4954
  120MOL0     O16458  -0.250  10.830   6.089 -0.0295 -0.1872 -0.6236
  120MOL0     C16459  -0.337  10.836   6.204 -0.3615 -0.7240  0.1716
  120MOL0     C16460  -0.485  10.814   6.163 -0.4900 -1.2102  0.3363
  120MOL0     C16461  -0.540  10.666   6.161 -0.1007  0.9411 -0.4804
  120MOL0     C16462  -0.690  10.663   6.138 -1.1156  0.0516  0.0981
  120MOL0     C16463  -0.722  10.722   6.002 -0.3042 -0.0613  0.5460
  120MOL0     C16464  -0.873  10.690   5.984  0.5130  0.4301  0.2303
  120MOL0     C16465  -0.939  10.763   5.873 -1.4193 -0.0838 -0.1113
  120MOL0     C16466  -1.079  10.719   5.848  0.4510  0.3570 -0.2516
  120MOL0    Cl16467  -1.191  10.736   5.988 -0.0331 -0.5742  0.1034
  120MOL0     C16468  -0.082  10.703   6.029  0.1916  0.7561  0.0639
  120MOL0     C16469   0.037  10.637   6.041  0.2212 -0.4048  0.4892
  120MOL0     O16470   0.134  10.380   6.249  0.9297  0.1371 -0.7547
  120MOL0     C16471   0.468  10.498   6.273 -0.5577 -0.3975 -0.9423
  120MOL0     C16472   0.593  10.478   6.331  0.4379 -0.2572 -0.4689
  120MOL0     N16473   1.287  10.388   6.433 -0.7641  0.5390 -0.3089
  120MOL0     N16474   1.367  10.283   6.390  0.3945 -0.2556  0.9694
  120MOL0     C16475   2.071   9.950   5.908 -1.0634 -0.0138 -0.0168
  120MOL0     C16476   2.212   9.930   5.911 -0.0887  0.2462 -0.7435
  120MOL0     C16477   2.645  10.058   5.857  0.6193 -0.0976 -0.5522
  120MOL0     C16478   2.708   9.980   5.767 -0.0807 -0.0240  0.7895
  120MOL0     C16479   2.843   9.954   5.771  0.1373 -0.0297  0.3771
  120MOL0     C16480   2.919   9.998   5.886  0.2572 -0.3219 -0.4537
  120MOL0     O16481   3.051   9.979   5.894 -0.5427  0.7793  0.0214
  120MOL0     C16482   3.124  10.043   5.994  0.4080 -0.1407  0.2823
  120MOL0     C16483   3.126   9.956   6.120 -0.1334 -0.3046 -0.1574
  120MOL0     C16484   3.167  10.051   6.233 -0.7225 -0.1810 -0.0370
  120MOL0     C16485   3.307  10.122   6.217 -0.7870 -0.2771 -0.1013
  120MOL0     C16486   3.358  10.204   6.332  0.3024 -0.4122  1.0754
  120MOL0     C16487   3.414  10.273   6.414 -0.2181  0.1363  0.2109
  120MOL0     C16488   2.849  10.082   5.979  0.3402 -0.2851  0.4229
  120MOL0     C16489   2.713  10.110   5.966 -0.2621 -0.3985 -0.3145
  120MOL0     C16490   2.653  10.180   6.080 -0.9721 -0.6079 -0.9531
  120MOL0     H16491   2.306  10.070   5.624  1.2323 -1.4392  0.9164
  120MOL0     H16492   2.055  10.095   5.593 -2.3849 -0.5121  0.2134
  120MOL0     H16493   1.839   9.961   5.592 -0.2206 -1.8910  1.0199
  120MOL0     H16494   1.837  10.136   5.641 -0.3572  0.2384  1.3602
  120MOL0     H16495   1.622  10.013   5.592  2.0369 -0.7187 -1.1214
  120MOL0     H16496   1.639   9.928   5.730 -1.5486 -2.2394 -4.9337
  120MOL0     H16497   1.677  10.166   5.848 -2.1561 -1.3433  1.2982
  120MOL0     H16498   1.604  10.229   5.700 -1.4030 -0.4574 -1.3505
  120MOL0     H16499   1.408  10.095   5.718  0.0924 -2.4447  0.6541
  120MOL0     H16500   1.466  10.032   5.870  0.9784 -0.6945 -1.1845
  120MOL0     H16501   1.309  10.224   5.923  1.9701  1.0144  3.0334
  120MOL0     H16502   1.393  10.311   5.789  2.3607 -3.8140 -3.0099
  120MOL0     H16503   1.590  10.316   5.948  0.6323 -3.1857  1.0102
  120MOL0     H16504   1.447  10.379   6.032 -2.1497 -1.2178 -0.3803
  120MOL0     H16505   1.611  10.229   6.162  0.9604  1.5059 -1.8341
  120MOL0     H16506   1.576  10.093   6.079  1.1706  0.6825  0.7267
  120MOL0     H16507   1.343  10.100   6.117 -1.7975  2.9120 -1.5244
  120MOL0     H16508   1.452  10.078   6.254 -0.5117 -1.4351 -2.5453
  120MOL0     H16509   1.210  10.366   6.113 -1.8232 -2.6438  0.9124
  120MOL0     H16510   1.136  10.617   6.276  0.4922 -0.8692  0.6279
  120MOL0     H16511   1.088  10.564   6.433 -3.3941 -0.3112 -0.5411
  120MOL0     H16512   0.915  10.582   6.290 -0.0947 -0.3547 -0.3170
  120MOL0     H16513   0.984  10.488   6.157  1.1234 -4.7164  0.1788
  120MOL0     H16514   0.819  10.347   6.238 -2.1519 -2.4146  0.4633
  120MOL0     H16515   0.972  10.280   6.299  2.7724  3.0158  0.4916
  120MOL0     H16516   0.918  10.327   6.516 -0.0601 -4.2068 -2.0783
  120MOL0     H16517   0.842  10.477   6.492  2.0323 -0.9954  4.2686
  120MOL0     H16518   0.515  10.219   6.508  0.8259  0.5330 -1.3421
  120MOL0     H16519   0.302  10.159   6.517  1.9416 -0.2298 -1.9296
  120MOL0     H16520   0.213  10.182   6.367 -2.8813 -1.5550  0.9759
  120MOL0     H16521   0.171  10.288   6.501  0.4547  1.6606 -0.1403
  120MOL0     H16522   0.121  10.739   6.355 -0.5558  1.3936 -0.3807
  120MOL0     H16523  -0.081  10.857   6.333  1.2866  1.9311 -0.3119
  120MOL0     H16524  -0.320  10.763   6.283  0.2994 -0.8277 -0.0624
  120MOL0     H16525  -0.319  10.937   6.242  0.1332 -1.1949  1.2096
  120MOL0     H16526  -0.554  10.870   6.226 -0.5013 -0.0719 -0.6379
  120MOL0     H16527  -0.490  10.856   6.062 -0.0989 -1.2552  0.2979
  120MOL0     H16528  -0.516  10.636   6.264 -0.2687  2.2603 -0.0347
  120MOL0     H16529  -0.489  10.595   6.095  0.8757 -0.6038  1.7700
  120MOL0     H16530  -0.729  10.729   6.216 -2.2415  3.3370 -2.9799
  120MOL0     H16531  -0.718  10.557   6.143  2.8894 -1.1466  1.7690
  120MOL0     H16532  -0.703  10.828   5.983  0.8214 -0.1921  0.9086
  120MOL0     H16533  -0.675  10.668   5.919  0.5719  0.9526  0.3760
  120MOL0     H16534  -0.930  10.706   6.076 -1.5365  0.9378 -1.0679
  120MOL0     H16535  -0.878  10.589   5.942  1.3958  0.1329  0.8215
  120MOL0     H16536  -0.869  10.747   5.791  0.3395  0.8479  1.1317
  120MOL0     H16537  -0.955  10.869   5.895 -2.8765 -0.8959  3.4854
  120MOL0     H16538  -1.084  10.615   5.813 -2.5306 -0.3451  1.8231
  120MOL0     H16539  -1.113  10.773   5.760 -1.4783 -0.5696 -0.1156
  120MOL0     H16540  -0.138  10.696   5.937 -0.2099  1.7307  0.2238
  120MOL0     H16541   0.073  10.560   5.975  1.4166 -0.0395  0.7041
  120MOL0     H16542   0.472  10.572   6.194 -0.0995 -0.5686 -1.0843
  120MOL0     H16543   0.685  10.526   6.297 -0.8610  0.4757 -3.2652
  120MOL0     H16544   2.006   9.904   5.981 -1.2046  1.3000  0.6971
  120MOL0     H16545   2.255   9.870   5.991  1.0752  0.7616 -0.9653
  120MOL0     H16546   2.654   9.940   5.681 -1.5868  1.9333  0.7634
  120MOL0     H16547   2.880   9.885   5.696  1.2924  0.4401  0.5063
  120MOL0     H16548   3.230  10.053   5.969  0.0112  2.8150 -0.5449
  120MOL0     H16549   3.101  10.148   6.017  0.2568  0.2299 -1.4386
  120MOL0     H16550   3.205   9.882   6.106 -0.1705 -0.0692 -1.8145
  120MOL0     H16551   3.030   9.908   6.139 -0.0550 -0.5944 -0.4904
  120MOL0     H16552   3.094  10.130   6.252  0.3653  0.3539  2.1486
  120MOL0     H16553   3.149   9.989   6.321 -2.3210 -1.2190 -1.0389
  120MOL0     H16554   3.306  10.183   6.126  3.1262  1.0384  0.5615
  120MOL0     H16555   3.377  10.041   6.193 -0.6131 -0.1976  0.1383
  120MOL0     H16556   3.490  10.326   6.468  2.7703 -0.8121 -2.6906
  120MOL0     H16557   2.894  10.120   6.070 -2.5780 -2.5995  3.0445
  120MOL0     H16558   2.674  10.287   6.069  1.4730 -0.9333  0.0234
  120MOL0     H16559   2.546  10.174   6.103 -0.1132 -0.3681  4.0573
  120MOL0     H16560   2.705  10.158   6.173  1.7856  0.5578 -2.1267
  121MOL0     O16561  10.044   3.037   0.990 -0.3156  0.3275  0.1728
  121MOL0     C16562  10.022   3.035   1.111 -0.5524 -0.0721 -0.2344
  121MOL0     O16563  10.041   2.925   1.189  0.2317 -0.0448 -0.1976
  121MOL0     C16564  10.095   2.820   1.128 -0.0537  0.8045  0.0488
  121MOL0     C16565  10.037   2.693   1.115  0.0024 -0.8553  0.3625
  121MOL0     C16566  10.105   2.586   1.063  1.3553  0.2898 -1.1182
  121MOL0     C16567  10.244   2.598   1.019  0.9675  0.2360 -0.3741
  121MOL0     O16568  10.316   2.500   0.960 -0.2172  0.7169 -0.5054
  121MOL0     C16569  10.258   2.364   0.967 -0.0496 -0.6073 -0.1186
  121MOL0     C16570  10.367   2.261   0.917 -0.0985 -0.1677 -1.0369
  121MOL0     C16571  10.377   2.131   0.988  0.3095  0.7151 -0.3896
  121MOL0     C16572  10.513   2.064   0.944  0.4535  0.3027 -0.2176
  121MOL0     C16573  10.525   1.924   0.993 -0.0625 -0.0760  0.0732
  121MOL0     C16574  10.645   1.851   0.926  0.0837 -0.2123 -0.1753
  121MOL0     C16575  10.718   1.748   1.014  0.5901 -0.1564 -1.1022
  121MOL0     C16576  10.854   1.692   0.955 -0.4563 -0.0889  0.7466
  121MOL0     N16577  10.943   1.619   1.049 -0.1115 -0.0431 -0.1545
  121MOL0     C16578  11.074   1.644   1.092 -0.0083 -1.0719  0.0979
  121MOL0     C16579  11.111   1.554   1.185 -0.2421 -0.9244  0.9452
  121MOL0     C16580  11.237   1.533   1.253 -0.6860  0.6657 -0.1837
  121MOL0     C16581  11.359   1.575   1.164 -0.6113 -0.3745  0.0324
  121MOL0     C16582  11.487   1.521   1.226 -0.1792  0.8154 -0.0806
  121MOL0     C16583  11.621   1.573   1.153 -0.2603 -0.9727 -0.3153
  121MOL0     O16584  11.628   1.719   1.135  0.0461  0.7127  0.2226
  121MOL0     C16585  11.701   1.783   1.233  0.1670 -0.0710  0.7057
  121MOL0     C16586  11.785   1.895   1.205  0.4551 -0.6413 -0.1346
  121MOL0     C16587  11.867   1.954   1.303  0.6007 -0.1509  0.0976
  121MOL0     C16588  11.948   2.080   1.253  0.3827 -0.5448  0.5923
  121MOL0     C16589  11.853   1.920   1.438 -0.4523  0.5126 -0.7703
  121MOL0     C16590  11.919   1.998   1.555 -0.2096  0.3490  0.6581
  121MOL0     O16591  12.052   2.038   1.534 -0.0065  0.5046  0.3175
  121MOL0     C16592  12.125   2.097   1.640 -0.0094  0.0111 -0.0947
  121MOL0     C16593  12.211   2.197   1.600 -0.1311 -0.8164  0.2969
  121MOL0     C16594  12.302   2.271   1.682  0.4968 -0.2760  0.0219
  121MOL0     C16595  12.302   2.239   1.816  0.6219 -0.6893 -0.0002
  121MOL0     O16596  12.373   2.303   1.920  0.7463  0.3880 -0.3733
  121MOL0     C16597  12.481   2.388   1.887  0.6391  0.1314  0.0526
  121MOL0     C16598  12.557   2.422   2.020 -0.2508  0.2050 -0.4523
  121MOL0     C16599  12.678   2.516   1.984  0.1455  0.1885  0.4080
  121MOL0     C16600  12.648   2.663   1.974 -0.1247 -0.5611  1.3774
  121MOL0     C16601  12.762   2.756   1.921 -0.7875 -0.0071 -1.4311
  121MOL0     C16602  12.870   2.761   2.023 -0.3194 -0.7574 -0.9476
  121MOL0     C16603  13.002   2.837   1.965  0.9546 -0.5362 -0.1569
  121MOL0     C16604  13.093   2.741   1.891 -1.0667 -0.6314  0.3745
  121MOL0    Cl16605  13.237   2.831   1.840  0.1227 -0.4299 -0.0066
  121MOL0     C16606  12.209   2.143   1.862  0.3803 -0.5082 -0.3247
  121MOL0     C16607  12.124   2.067   1.780  0.2148  0.0818  0.2320
  121MOL0     O16608  11.850   2.021   1.651 -0.4852  0.8986 -0.2558
  121MOL0     C16609  11.770   1.809   1.467  0.0704 -0.0749 -0.0392
  121MOL0     C16610  11.692   1.750   1.366 -0.5867  0.8279 -0.2103
  121MOL0     N16611  11.001   1.456   1.188  0.5134  0.0204  0.0171
  121MOL0     N16612  10.905   1.498   1.108 -0.2402 -1.0826  0.3662
  121MOL0     C16613  10.300   2.724   1.032  0.7170 -1.5710  0.0188
  121MOL0     C16614  10.233   2.831   1.083  0.8260 -0.0824 -0.8613
  121MOL0     C16615   9.972   3.157   1.184 -0.5930  0.7781 -1.7642
  121MOL0     C16616   9.920   3.146   1.315  0.7439 -0.3019 -0.5793
  121MOL0     C16617   9.855   3.254   1.376  0.5648  0.2712 -1.0404
  121MOL0     C16618   9.857   3.386   1.327 -0.1353 -0.4652  1.2064
  121MOL0     O16619   9.813   3.505   1.388 -0.2282  0.2523 -0.4187
  121MOL0     C16620   9.715   3.493   1.499  0.4445  0.0982 -0.0061
  121MOL0     C16621   9.580   3.579   1.467 -0.1555 -0.5973  0.1364
  121MOL0     C16622   9.474   3.580   1.570  0.3333  0.1710  0.4289
  121MOL0     C16623   9.345   3.632   1.501 -0.1953  0.1156 -1.4219
  121MOL0     C16624   9.326   3.780   1.490  0.6975 -0.6665  0.2451
  121MOL0     C16625   9.277   3.895   1.474 -0.7301  0.5761 -0.0130
  121MOL0     C16626   9.938   3.396   1.211  0.7545  0.3461 -0.4488
  121MOL0     C16627   9.987   3.284   1.139  0.0270  0.4554  0.8943
  121MOL0     C16628  10.050   3.316   1.011 -0.2422 -0.3596 -0.7407
  121MOL0     H16629   9.936   2.677   1.151 -0.0496 -0.8720  0.2071
  121MOL0     H16630  10.048   2.495   1.044 -2.1101  1.7367  1.3196
  121MOL0     H16631  10.158   2.357   0.925 -1.3493  1.5801  2.3036
  121MOL0     H16632  10.247   2.347   1.075  0.1970  2.5102  0.4670
  121MOL0     H16633  10.355   2.238   0.811  1.2908 -0.1698 -1.2178
  121MOL0     H16634  10.464   2.310   0.934  0.0601 -0.7843 -0.0634
  121MOL0     H16635  10.382   2.157   1.094 -3.2819 -0.8550  0.3217
  121MOL0     H16636  10.289   2.067   0.973  1.1010 -0.0485 -2.1094
  121MOL0     H16637  10.525   2.051   0.836  0.5057 -3.8296  0.1258
  121MOL0     H16638  10.592   2.135   0.970  0.2249  0.8994 -1.1082
  121MOL0     H16639  10.431   1.869   0.984 -1.6537  2.4990 -0.0173
  121MOL0     H16640  10.552   1.932   1.099  1.1031 -4.0578  0.2182
  121MOL0     H16641  10.609   1.803   0.835 -1.0810  2.0896 -1.0140
  121MOL0     H16642  10.715   1.927   0.889 -0.8593 -0.0790 -1.7772
  121MOL0     H16643  10.660   1.662   1.050 -1.0426  0.9912 -0.9083
  121MOL0     H16644  10.752   1.785   1.111  0.8644 -2.3841 -0.2801
  121MOL0     H16645  10.845   1.633   0.864  1.1819 -0.3336  0.7178
  121MOL0     H16646  10.911   1.782   0.929  3.6960 -2.8656 -0.8136
  121MOL0     H16647  11.128   1.725   1.043  0.8292 -2.8804 -2.1732
  121MOL0     H16648  11.249   1.426   1.274 -0.1954  0.9247  0.9481
  121MOL0     H16649  11.244   1.582   1.351  0.8165  1.4671 -0.6477
  121MOL0     H16650  11.349   1.540   1.061  1.9022  0.2814 -0.4755
  121MOL0     H16651  11.363   1.684   1.161 -1.5329 -0.3287  0.0607
  121MOL0     H16652  11.487   1.533   1.334  1.1115  0.2714  0.0014
  121MOL0     H16653  11.492   1.413   1.209  1.0395  1.0566 -1.5240
  121MOL0     H16654  11.709   1.546   1.212  0.0916  1.7053  0.5042
  121MOL0     H16655  11.630   1.522   1.056  0.8002 -1.2237 -0.0958
  121MOL0     H16656  11.786   1.926   1.101 -0.7027 -1.2729 -0.3509
  121MOL0     H16657  11.920   2.120   1.155 -2.3576 -1.4997  0.8752
  121MOL0     H16658  12.051   2.044   1.247  0.0986 -1.4982  1.1893
  121MOL0     H16659  11.931   2.163   1.321 -2.5683 -0.8482  0.3880
  121MOL0     H16660  12.216   2.229   1.497  1.2901  2.6598  1.2681
  121MOL0     H16661  12.364   2.346   1.636 -0.6775  1.6004  1.3594
  121MOL0     H16662  12.538   2.338   1.808  1.0823  2.0588 -0.9089
  121MOL0     H16663  12.451   2.486   1.848 -1.2108  0.1649  1.4096
  121MOL0     H16664  12.497   2.459   2.104 -0.7663 -0.3146 -0.5801
  121MOL0     H16665  12.602   2.331   2.060 -0.0616  0.8055  0.7367
  121MOL0     H16666  12.744   2.480   1.904 -0.9733 -0.9729 -0.0449
  121MOL0     H16667  12.736   2.506   2.076 -2.3493 -2.7683  1.8777
  121MOL0     H16668  12.626   2.693   2.077  3.6161 -0.9968  2.4354
  121MOL0     H16669  12.563   2.675   1.906  0.7300  1.3229  0.5655
  121MOL0     H16670  12.802   2.733   1.822  2.1881  0.5252 -0.4607
  121MOL0     H16671  12.706   2.850   1.916  0.3369  0.8342  0.7806
  121MOL0     H16672  12.892   2.661   2.062  3.9898 -1.7218 -4.9203
  121MOL0     H16673  12.823   2.818   2.104 -1.0103 -1.4254 -0.8647
  121MOL0     H16674  13.062   2.888   2.040  1.2282 -1.3599  0.1916
  121MOL0     H16675  12.966   2.924   1.909 -1.2296  0.2092  2.2200
  121MOL0     H16676  13.051   2.700   1.798  0.5185  1.7648 -1.5345
  121MOL0     H16677  13.136   2.666   1.958 -0.0745  1.2805  1.9652
  121MOL0     H16678  12.205   2.121   1.969 -4.5179 -0.5370 -0.2774
  121MOL0     H16679  12.063   1.982   1.808 -0.0865  0.5763  1.1208
  121MOL0     H16680  11.758   1.764   1.565 -1.5419 -2.0302 -1.0616
  121MOL0     H16681  11.633   1.663   1.393  1.3264 -1.2348 -2.2592
  121MOL0     H16682  10.404   2.739   1.001 -0.1650  1.5741 -1.9494
  121MOL0     H16683  10.298   2.912   1.118  0.6425 -1.2316  2.4880
  121MOL0     H16684   9.924   3.052   1.368 -0.1123  0.4693  0.9083
  121MOL0     H16685   9.809   3.235   1.472  0.2197  1.0015 -1.0502
  121MOL0     H16686   9.697   3.388   1.525  1.4683 -0.3036 -0.8389
  121MOL0     H16687   9.746   3.543   1.591 -1.7663  2.5588 -0.4746
  121MOL0     H16688   9.541   3.542   1.372  0.9157 -1.9396  0.1880
  121MOL0     H16689   9.611   3.683   1.448  0.2273 -0.8516 -0.6648
  121MOL0     H16690   9.463   3.477   1.607  0.7493  0.8394  2.5761
  121MOL0     H16691   9.498   3.639   1.659  0.4794  0.3169  0.2933
  121MOL0     H16692   9.257   3.592   1.553  1.1714 -0.4342  0.5538
  121MOL0     H16693   9.344   3.587   1.401 -0.9081  2.4105 -2.5084
  121MOL0     H16694   9.239   3.992   1.452  0.7622  1.5275  1.4132
  121MOL0     H16695   9.971   3.493   1.174 -1.1004  1.5053  0.7251
  121MOL0     H16696  10.001   3.286   0.918 -1.3243  2.7963 -1.2912
  121MOL0     H16697  10.080   3.420   0.999 -0.9689 -0.2458 -1.6702
  121MOL0     H16698  10.146   3.263   1.007 -0.1517 -0.3228  0.4628
  122MOL0     O16699   4.270   1.005  10.983  0.8969 -0.0913  0.0351
  122MOL0     C16700   4.269   0.952  10.865  0.0717 -0.8051 -0.5125
  122MOL0     O16701   4.322   0.823  10.839 -0.1063 -0.6795 -0.0635
  122MOL0     C16702   4.357   0.753  10.947 -0.0844  0.2402 -0.8426
  122MOL0     C16703   4.262   0.713  11.035 -0.2114  0.4834 -0.0023
  122MOL0     C16704   4.295   0.635  11.156  0.8232  0.2499  0.5464
  122MOL0     C16705   4.427   0.596  11.171 -1.4109 -0.8888 -0.3109
  122MOL0     O16706   4.459   0.506  11.272  0.7681 -0.7557  0.1726
  122MOL0     C16707   4.603   0.468  11.293  0.2985  0.9743  1.0108
  122MOL0     C16708   4.619   0.437  11.435 -0.3224  0.3515  0.4053
  122MOL0     C16709   4.766   0.448  11.484  0.3325 -0.0880  0.4181
  122MOL0     C16710   4.860   0.352  11.404 -0.1948  0.0944 -0.0838
  122MOL0     C16711   5.002   0.376  11.463  0.0978 -1.1420  0.2091
  122MOL0     C16712   5.021   0.314  11.597  0.0198  0.2050 -1.0058
  122MOL0     C16713   5.171   0.328  11.633 -0.0948  0.1994  0.5097
  122MOL0     C16714   5.210   0.269  11.773  0.1876 -0.5555 -0.1780
  122MOL0     N16715   5.356   0.269  11.788 -0.1768 -0.1670 -0.7014
  122MOL0     C16716   5.434   0.376  11.815 -0.1985 -0.6485  0.2224
  122MOL0     C16717   5.556   0.331  11.838  0.9322 -0.0152 -0.1818
  122MOL0     C16718   5.668   0.417  11.861  0.0371 -0.0100  0.1119
  122MOL0     C16719   5.767   0.354  11.953  1.1480  0.1081 -0.5759
  122MOL0     C16720   5.897   0.432  11.973 -0.2557 -0.2333  0.6195
  122MOL0     C16721   5.954   0.372  12.107 -0.0447 -0.1614  0.2692
  122MOL0     O16722   6.083   0.433  12.124 -0.0931  0.0770 -0.0551
  122MOL0     C16723   6.141   0.425  12.250 -0.8880  0.2881  0.2243
  122MOL0     C16724   6.081   0.367  12.367 -0.5348  0.5079  0.0848
  122MOL0     C16725   6.157   0.350  12.486 -0.5090 -0.1636  0.8247
  122MOL0     C16726   6.083   0.297  12.601 -0.4517  0.2433  0.4199
  122MOL0     C16727   6.294   0.387  12.494  0.1758 -0.2341  1.0378
  122MOL0     C16728   6.379   0.349  12.600  0.3365 -0.4542  0.8107
  122MOL0     O16729   6.441   0.236  12.580  0.0824  0.5507 -0.5608
  122MOL0     C16730   6.546   0.199  12.663  0.0270  0.8363  0.7877
  122MOL0     C16731   6.670   0.237  12.617  0.8832 -0.1703  0.1483
  122MOL0     C16732   6.782   0.179  12.685  0.3817 -0.1635 -1.0271
  122MOL0     C16733   6.768   0.109  12.810 -0.1594 -0.1460 -0.2159
  122MOL0     O16734   6.871   0.058  12.879 -0.1140  0.5012  0.2858
  122MOL0     C16735   6.871   0.060  13.022 -0.1565 -0.1345 -0.0326
  122MOL0     C16736   7.020   0.028  13.063 -0.4444 -0.5166 -0.0872
  122MOL0     C16737   7.125   0.137  13.018 -0.5822  0.0915  0.5563
  122MOL0     C16738   7.271   0.128  13.081 -0.5963  0.6285  0.4395
  122MOL0     C16739   7.357   0.249  13.044  0.0266 -0.4119 -0.1084
  122MOL0     C16740   7.504   0.235  13.078  1.3323  0.1341  0.0908
  122MOL0     C16741   7.583   0.158  12.968  0.9789  0.4189  0.0851
  122MOL0     C16742   7.726   0.138  13.010 -0.2171  0.0517  0.6779
  122MOL0    Cl16743   7.811   0.285  12.982  0.0337  0.6127 -0.3509
  122MOL0     C16744   6.636   0.078  12.846  0.6171 -0.0340 -0.5692
  122MOL0     C16745   6.532   0.111  12.776  1.0141  0.9006  1.7890
  122MOL0     O16746   6.391   0.416  12.697 -0.9084 -0.6138 -0.5414
  122MOL0     C16747   6.353   0.444  12.373 -0.6223 -0.4914 -0.3947
  122MOL0     C16748   6.283   0.452  12.255  0.5353 -0.3573 -0.5990
  122MOL0     N16749   5.555   0.190  11.826  0.2804  1.0483 -0.8341
  122MOL0     N16750   5.433   0.162  11.794 -0.0389  0.1339  0.6087
  122MOL0     C16751   4.520   0.644  11.078  0.2202 -0.8663  0.5354
  122MOL0     C16752   4.491   0.715  10.961 -0.2206  0.1215  0.1241
  122MOL0     C16753   4.223   1.027  10.740 -0.7738 -0.1357 -0.7653
  122MOL0     C16754   4.178   0.948  10.637 -0.4947  0.4502  0.0531
  122MOL0     C16755   4.151   0.998  10.514 -0.1432 -0.3268 -0.0020
  122MOL0     C16756   4.166   1.138  10.486  0.1629 -0.3913 -0.2413
  122MOL0     O16757   4.139   1.189  10.358 -0.3601 -0.0086  0.5406
  122MOL0     C16758   4.163   1.320  10.320 -0.5733 -0.5758 -0.9626
  122MOL0     C16759   4.305   1.341  10.270  0.2550  0.1530 -0.4673
  122MOL0     C16760   4.312   1.287  10.125  0.0391  1.0248 -0.2121
  122MOL0     C16761   4.468   1.302  10.073 -0.1486 -0.0359 -0.0120
  122MOL0     C16762   4.478   1.280   9.934  0.7038 -0.0280  0.4607
  122MOL0     C16763   4.482   1.259   9.819  0.9392 -0.2100 -0.7191
  122MOL0     C16764   4.204   1.216  10.591 -0.1171  0.6442 -0.2618
  122MOL0     C16765   4.222   1.164  10.720 -0.9333 -1.4460  0.3106
  122MOL0     C16766   4.270   1.266  10.829  0.3845  0.6902 -0.2068
  122MOL0     H16767   4.159   0.732  11.005  0.2299  1.2233 -1.0881
  122MOL0     H16768   4.221   0.586  11.219  1.1175 -1.8556 -0.6768
  122MOL0     H16769   4.666   0.555  11.269 -1.9223  2.2977 -0.3593
  122MOL0     H16770   4.629   0.383  11.230  0.1452  3.0952 -2.1766
  122MOL0     H16771   4.557   0.503  11.496 -0.9312 -1.1192  1.4518
  122MOL0     H16772   4.589   0.333  11.452  0.9643  0.0909  1.1763
  122MOL0     H16773   4.788   0.553  11.463 -0.8019 -0.0415 -0.6213
  122MOL0     H16774   4.765   0.432  11.592 -3.1617 -0.6736  0.4250
  122MOL0     H16775   4.828   0.247  11.402 -1.0536  0.2530 -4.1771
  122MOL0     H16776   4.847   0.381  11.299 -2.0003 -0.0982  0.0580
  122MOL0     H16777   5.024   0.484  11.462 -1.5837 -0.7697 -0.9885
  122MOL0     H16778   5.070   0.322  11.397  0.7520 -0.0860 -0.0042
  122MOL0     H16779   4.965   0.367  11.675 -0.0387 -3.1652  1.4535
  122MOL0     H16780   4.995   0.209  11.587  1.6839 -0.0993 -2.6540
  122MOL0     H16781   5.193   0.435  11.627 -1.0203  0.3293 -0.8777
  122MOL0     H16782   5.236   0.290  11.553 -0.9801  1.3830 -0.8179
  122MOL0     H16783   5.166   0.337  11.846  0.1131 -1.0712  0.2655
  122MOL0     H16784   5.181   0.164  11.781  2.7528 -1.5015 -1.9074
  122MOL0     H16785   5.405   0.480  11.821  3.1847  0.3681  2.4864
  122MOL0     H16786   5.627   0.504  11.913  0.8326  1.2696 -1.3209
  122MOL0     H16787   5.729   0.449  11.775  1.4445  0.9999  1.4346
  122MOL0     H16788   5.715   0.345  12.048  2.5045 -0.6132  0.1359
  122MOL0     H16789   5.796   0.257  11.910  2.3060  0.3004 -0.2726
  122MOL0     H16790   5.965   0.410  11.891 -1.6468  0.5121 -0.8060
  122MOL0     H16791   5.885   0.540  11.983  0.7542 -0.2934  2.9368
  122MOL0     H16792   5.894   0.408  12.191  3.0591 -0.0245  2.5910
  122MOL0     H16793   5.956   0.263  12.099 -2.1297 -0.1806 -0.8180
  122MOL0     H16794   5.976   0.342  12.360 -0.9596  2.0039  0.6864
  122MOL0     H16795   6.068   0.390  12.657  0.6642  3.2059 -3.6988
  122MOL0     H16796   6.136   0.219  12.656 -0.4402 -0.3511 -0.4212
  122MOL0     H16797   5.987   0.246  12.585  0.6918 -1.3171 -1.8911
  122MOL0     H16798   6.671   0.291  12.523  2.9828  2.8343  1.7388
  122MOL0     H16799   6.883   0.201  12.653  1.0755 -1.9129 -0.1431
  122MOL0     H16800   6.850   0.159  13.063 -2.0326  0.2725 -1.8348
  122MOL0     H16801   6.794   0.002  13.074  1.3326 -1.9535  0.2592
  122MOL0     H16802   7.020   0.026  13.173 -0.5869 -2.8730 -0.0938
  122MOL0     H16803   7.048  -0.073  13.033 -2.3909 -0.5429 -2.0111
  122MOL0     H16804   7.082   0.235  13.041  1.4620  0.6976  2.2164
  122MOL0     H16805   7.141   0.142  12.910  1.9668  0.2321  0.8648
  122MOL0     H16806   7.328   0.039  13.052  0.1671  1.6331 -1.2982
  122MOL0     H16807   7.253   0.116  13.189  1.2060 -1.1246  0.6013
  122MOL0     H16808   7.339   0.273  12.938 -0.2529  0.0092  0.0284
  122MOL0     H16809   7.309   0.332  13.097 -1.1558 -2.3195  1.9678
  122MOL0     H16810   7.516   0.187  13.176  0.0584  0.0982  0.2437
  122MOL0     H16811   7.550   0.335  13.078 -0.9358  1.2730 -1.7877
  122MOL0     H16812   7.582   0.213  12.874  1.4880 -0.6355 -0.5581
  122MOL0     H16813   7.530   0.063  12.957 -0.1418  1.2080 -1.6661
  122MOL0     H16814   7.774   0.059  12.952  1.4711  0.5640  1.3082
  122MOL0     H16815   7.739   0.116  13.116 -0.8700 -0.0384  0.7427
  122MOL0     H16816   6.628   0.018  12.937 -1.0439  0.5358 -0.3148
  122MOL0     H16817   6.428   0.084  12.793  0.3894  2.1466  0.3416
  122MOL0     H16818   6.457   0.475  12.372 -1.3244  2.0215 -0.4940
  122MOL0     H16819   6.342   0.464  12.165  1.3067 -1.9134 -0.3430
  122MOL0     H16820   4.621   0.605  11.087  0.4609 -0.3115  0.2397
  122MOL0     H16821   4.565   0.749  10.889  1.6273 -1.8220  1.0322
  122MOL0     H16822   4.165   0.841  10.650  0.7417  0.1836 -0.7120
  122MOL0     H16823   4.115   0.933  10.435 -0.7160 -0.7239  0.5775
  122MOL0     H16824   4.090   1.341  10.242 -0.7469  0.1215 -0.6263
  122MOL0     H16825   4.152   1.382  10.410 -3.3114 -1.3308 -0.6859
  122MOL0     H16826   4.374   1.287  10.335 -0.7663 -0.6644 -0.0290
  122MOL0     H16827   4.329   1.448  10.261 -0.2026  0.1122 -2.5963
  122MOL0     H16828   4.282   1.183  10.112 -1.0258  1.1540  0.9879
  122MOL0     H16829   4.249   1.353  10.065 -2.2603 -2.6047 -2.1763
  122MOL0     H16830   4.535   1.238  10.130  0.0579  0.7148  0.6045
  122MOL0     H16831   4.503   1.405  10.087  2.0343 -0.6168 -0.9149
  122MOL0     H16832   4.485   1.256   9.712  1.8471 -2.1995 -0.6800
  122MOL0     H16833   4.232   1.321  10.578 -0.2446  0.9365  1.5786
  122MOL0     H16834   4.278   1.219  10.928  1.2828  1.2708  0.0086
  122MOL0     H16835   4.355   1.328  10.798 -1.2120  1.8305 -2.5361
  122MOL0     H16836   4.188   1.334  10.852 -0.5840 -0.9999  1.6747
  123MOL0     O16837   3.269   0.264   4.832 -0.3041 -0.5782 -0.5426
  123MOL0     C16838   3.258   0.253   4.952  0.3087 -0.0563 -0.4269
  123MOL0     O16839   3.325   0.326   5.051  0.3590 -0.0002  0.7284
  123MOL0     C16840   3.447   0.364   5.016 -0.1296 -0.2758 -0.0824
  123MOL0     C16841   3.548   0.272   4.985 -1.0488  0.4542  0.1851
  123MOL0     C16842   3.676   0.318   4.951  0.1370  0.8416  0.1185
  123MOL0     C16843   3.711   0.450   4.980  0.2692  0.1516 -0.1844
  123MOL0     O16844   3.845   0.482   4.975 -0.1440 -0.0481  0.1193
  123MOL0     C16845   3.888   0.591   4.894  0.0996  0.7312 -1.0584
  123MOL0     C16846   4.038   0.606   4.922  0.2140 -0.1310  0.2779
  123MOL0     C16847   4.059   0.667   5.065  0.2812 -0.1619  0.6855
  123MOL0     C16848   4.204   0.684   5.102 -0.2382  0.6312  0.3546
  123MOL0     C16849   4.219   0.727   5.255  0.9761 -0.2574  0.4617
  123MOL0     C16850   4.356   0.796   5.254  0.1633 -0.1154 -0.3559
  123MOL0     C16851   4.416   0.797   5.402 -1.2184  0.4398 -0.3356
  123MOL0     C16852   4.558   0.859   5.390  0.0422  0.0440 -0.1409
  123MOL0     N16853   4.550   1.005   5.359 -0.9413  0.1159  0.1093
  123MOL0     C16854   4.474   1.083   5.437 -0.7216 -0.1381  0.6070
  123MOL0     C16855   4.486   1.205   5.381 -0.0553  0.8869  0.3203
  123MOL0     C16856   4.403   1.324   5.416  0.1901  0.6146 -0.4356
  123MOL0     C16857   4.496   1.440   5.465  0.1217  0.7006 -0.1857
  123MOL0     C16858   4.420   1.575   5.479  0.2173  0.1343 -0.3382
  123MOL0     C16859   4.523   1.691   5.510  0.1527  0.0501  0.5802
  123MOL0     O16860   4.567   1.684   5.650  0.1371 -0.2498 -0.4190
  123MOL0     C16861   4.683   1.757   5.681 -0.9418  0.7518  1.1171
  123MOL0     C16862   4.749   1.856   5.603  0.1308  0.5043  1.0176
  123MOL0     C16863   4.878   1.898   5.631  0.1811 -0.0241  0.3945
  123MOL0     C16864   4.931   2.013   5.541 -0.4554  0.0106  0.7822
  123MOL0     C16865   4.941   1.850   5.745 -0.1061  0.1989  0.0443
  123MOL0     C16866   5.073   1.898   5.789 -0.2978  0.3176  0.4864
  123MOL0     O16867   5.150   1.960   5.699 -0.1009  0.0564 -0.1643
  123MOL0     C16868   5.280   1.979   5.722 -0.3530 -0.4510  0.8231
  123MOL0     C16869   5.331   2.102   5.696 -0.1171  0.2351 -0.7841
  123MOL0     C16870   5.470   2.129   5.712  0.1502 -0.3127  0.4567
  123MOL0     C16871   5.552   2.031   5.768  0.2292 -0.4363 -0.3206
  123MOL0     O16872   5.694   2.050   5.787  0.0117  0.8796 -0.0482
  123MOL0     C16873   5.761   2.123   5.689  0.3480  0.5720  0.7281
  123MOL0     C16874   5.896   2.077   5.637 -0.1950  0.1720 -0.1362
  123MOL0     C16875   6.021   2.169   5.689  0.5449  0.4489  0.9344
  123MOL0     C16876   6.163   2.138   5.617  0.2138 -0.9019  0.1472
  123MOL0     C16877   6.282   2.179   5.713  0.3657 -0.3091  0.0310
  123MOL0     C16878   6.332   2.087   5.829  1.0730  0.4509 -0.0259
  123MOL0     C16879   6.453   2.144   5.891  0.5608  1.0576 -0.0328
  123MOL0     C16880   6.497   2.082   6.018 -0.3216  0.1733 -0.2699
  123MOL0    Cl16881   6.586   2.210   6.120 -0.1316 -0.1207 -0.2454
  123MOL0     C16882   5.501   1.903   5.791 -0.4836 -0.3300  1.3071
  123MOL0     C16883   5.370   1.882   5.759  0.4336  0.4296  0.6626
  123MOL0     O16884   5.091   1.891   5.910 -0.6658  0.0597  0.3472
  123MOL0     C16885   4.879   1.752   5.825  0.6993  0.3437  0.6950
  123MOL0     C16886   4.749   1.712   5.796  0.1656  1.7991  0.2136
  123MOL0     N16887   4.578   1.199   5.279  0.5758 -0.3955 -0.8626
  123MOL0     N16888   4.612   1.073   5.250  0.8269 -0.5725  0.1709
  123MOL0     C16889   3.613   0.538   5.022 -0.6117 -0.8091  0.0084
  123MOL0     C16890   3.484   0.497   5.040 -0.1669  0.2190 -0.0468
  123MOL0     C16891   3.147   0.158   4.997 -0.4183  0.2190  0.1878
  123MOL0     C16892   3.031   0.148   4.920  0.5133 -0.6264 -0.8472
  123MOL0     C16893   2.923   0.061   4.955 -0.8351 -0.6718 -0.8919
  123MOL0     C16894   2.929  -0.014   5.072  0.0253 -0.5481 -0.2074
  123MOL0     O16895   2.826  -0.102   5.098  0.5416  0.4607  0.4094
  123MOL0     C16896   2.834  -0.174   5.225 -0.1755  0.1040 -0.6003
  123MOL0     C16897   2.775  -0.090   5.338  0.2118 -0.2544  0.7723
  123MOL0     C16898   2.735  -0.179   5.454 -0.5381  0.0568 -0.2931
  123MOL0     C16899   2.661  -0.092   5.553  0.2947  0.7356 -0.0026
  123MOL0     C16900   2.536  -0.048   5.504  0.7884 -0.9878 -0.2233
  123MOL0     C16901   2.427   0.000   5.465 -0.2204  0.6221  0.1016
  123MOL0     C16902   3.038   0.005   5.160  0.5102  0.0385  0.1395
  123MOL0     C16903   3.148   0.093   5.121  0.3152  0.4108  0.4660
  123MOL0     C16904   3.270   0.092   5.217  0.3768  0.3747  0.8968
  123MOL0     H16905   3.530   0.166   4.978  0.8601  0.1970 -3.3010
  123MOL0     H16906   3.745   0.246   4.909  0.8489  1.9093 -0.6045
  123MOL0     H16907   3.834   0.684   4.916  0.3688  0.8131 -0.7363
  123MOL0     H16908   3.864   0.560   4.792  0.7310 -1.0460 -0.7094
  123MOL0     H16909   4.089   0.510   4.906 -2.2016 -1.4826  0.2023
  123MOL0     H16910   4.080   0.671   4.845  0.9804 -3.0664 -1.9514
  123MOL0     H16911   4.020   0.769   5.057  0.5756 -0.0843  0.1665
  123MOL0     H16912   4.007   0.604   5.138 -2.6862  1.1798 -0.0957
  123MOL0     H16913   4.262   0.594   5.079 -0.5561  1.1893 -3.1835
  123MOL0     H16914   4.250   0.760   5.038  2.3596 -0.0199  1.3721
  123MOL0     H16915   4.219   0.635   5.313  1.1692  0.4489  1.6073
  123MOL0     H16916   4.136   0.788   5.294  0.0957  0.4340 -2.2196
  123MOL0     H16917   4.437   0.751   5.195  0.7205 -0.9739  1.0096
  123MOL0     H16918   4.332   0.895   5.214 -2.9960  0.2602  2.1231
  123MOL0     H16919   4.422   0.692   5.432 -4.5862 -0.4585 -2.1733
  123MOL0     H16920   4.346   0.850   5.467 -0.6192  2.0181 -0.9203
  123MOL0     H16921   4.609   0.849   5.487  0.4002 -1.2658 -0.4382
  123MOL0     H16922   4.612   0.808   5.310  0.8021 -2.1978  1.6720
  123MOL0     H16923   4.408   1.051   5.517  1.3870 -0.7811  2.1579
  123MOL0     H16924   4.330   1.297   5.493 -0.3732 -0.5669 -1.3478
  123MOL0     H16925   4.353   1.365   5.328 -2.8994 -0.6507  0.5726
  123MOL0     H16926   4.536   1.424   5.566  0.2491 -2.0770 -0.6100
  123MOL0     H16927   4.581   1.448   5.397 -0.5288  1.5993 -0.9194
  123MOL0     H16928   4.370   1.612   5.389 -2.0578 -0.0497  0.7700
  123MOL0     H16929   4.342   1.567   5.556  1.3738  1.7133  1.0657
  123MOL0     H16930   4.612   1.692   5.447  1.3217 -0.0606  2.1747
  123MOL0     H16931   4.467   1.784   5.494 -0.5419 -0.1183  1.8402
  123MOL0     H16932   4.702   1.891   5.511  1.7418  1.4759  0.5229
  123MOL0     H16933   5.028   1.994   5.494 -1.6729 -2.9172 -0.8366
  123MOL0     H16934   4.949   2.093   5.613 -2.5145  1.2002  0.0844
  123MOL0     H16935   4.869   2.053   5.460 -0.0938 -0.0991  0.4463
  123MOL0     H16936   5.264   2.185   5.679 -0.5572  0.5282  1.9347
  123MOL0     H16937   5.506   2.230   5.691 -0.6304 -0.4656 -2.0498
  123MOL0     H16938   5.699   2.128   5.599  0.0171  0.0922  0.9253
  123MOL0     H16939   5.775   2.222   5.734  0.4285 -0.0696  2.1680
  123MOL0     H16940   5.919   1.971   5.647  0.1422  0.1554 -0.9469
  123MOL0     H16941   5.903   2.084   5.528  0.2198 -0.5589 -0.1614
  123MOL0     H16942   6.027   2.140   5.794  1.2477 -0.8886  0.5455
  123MOL0     H16943   5.999   2.276   5.692 -2.2634 -0.0203  0.6431
  123MOL0     H16944   6.166   2.198   5.525 -2.6693  1.8524  1.6253
  123MOL0     H16945   6.151   2.033   5.590 -3.3520 -0.3819 -0.8101
  123MOL0     H16946   6.365   2.207   5.648  0.0862  0.6859  0.0844
  123MOL0     H16947   6.252   2.274   5.759  1.8991  0.2942 -0.1385
  123MOL0     H16948   6.355   1.992   5.778 -0.7120  0.7362 -1.4809
  123MOL0     H16949   6.259   2.065   5.907 -0.9596  1.0902 -1.6331
  123MOL0     H16950   6.436   2.252   5.902  1.2769  1.4222 -2.0957
  123MOL0     H16951   6.534   2.139   5.819 -1.8493 -0.2980 -2.8254
  123MOL0     H16952   6.569   2.001   6.006  0.0064  0.8285 -3.3256
  123MOL0     H16953   6.413   2.064   6.086 -0.2108  3.5528  0.9776
  123MOL0     H16954   5.562   1.831   5.843  0.5928 -1.1798 -1.0242
  123MOL0     H16955   5.340   1.779   5.777 -1.2763  0.2923 -2.2991
  123MOL0     H16956   4.939   1.716   5.907  2.8111  5.3697  1.7474
  123MOL0     H16957   4.705   1.629   5.849  0.2805  1.9529  0.5493
  123MOL0     H16958   3.641   0.638   5.053  2.3763 -1.4628 -0.2800
  123MOL0     H16959   3.410   0.565   5.081 -0.2346  1.8288 -2.6159
  123MOL0     H16960   3.025   0.217   4.836  2.7198  0.8821  0.1483
  123MOL0     H16961   2.842   0.052   4.883 -1.4874 -1.1087 -0.1217
  123MOL0     H16962   2.777  -0.267   5.214 -1.4663  0.5708  1.5818
  123MOL0     H16963   2.937  -0.205   5.247 -0.9260 -1.5277  0.9563
  123MOL0     H16964   2.692  -0.043   5.284 -1.6880 -0.8755  2.9776
  123MOL0     H16965   2.849  -0.013   5.364  0.0465  0.5991 -1.0856
  123MOL0     H16966   2.678  -0.262   5.413 -1.3843  0.1468  0.6599
  123MOL0     H16967   2.818  -0.223   5.510  0.0352 -0.6937 -1.6766
  123MOL0     H16968   2.724  -0.017   5.602  1.4428 -2.3950  3.8020
  123MOL0     H16969   2.633  -0.160   5.633 -0.9587  1.3265  0.0827
  123MOL0     H16970   2.326   0.025   5.438 -1.4488 -1.3856  2.4191
  123MOL0     H16971   3.049  -0.038   5.259  1.4696 -2.4390 -0.9572
  123MOL0     H16972   3.239   0.130   5.315  2.0823 -2.7982  2.8579
  123MOL0     H16973   3.308  -0.010   5.229  0.3689  0.4667  1.7645
  123MOL0     H16974   3.358   0.147   5.180  1.4985 -1.4507  0.7212
  124MOL0     O16975   4.210   2.994   8.085 -0.1469 -0.9315  0.0143
  124MOL0     C16976   4.137   2.910   8.033  0.1856 -0.4103 -1.2490
  124MOL0     O16977   4.162   2.773   8.034 -0.4248 -0.2349 -0.6663
  124MOL0     C16978   4.288   2.743   8.075  0.0075  0.4531  0.0392
  124MOL0     C16979   4.313   2.707   8.206 -0.1344 -0.1739  0.4602
  124MOL0     C16980   4.439   2.669   8.247 -0.8410  0.4033 -0.5624
  124MOL0     C16981   4.540   2.653   8.152 -1.0711 -0.0854 -0.4916
  124MOL0     O16982   4.663   2.607   8.184  0.2501  0.3917 -0.1871
  124MOL0     C16983   4.654   2.480   8.247 -0.0803  0.2394 -0.0708
  124MOL0     C16984   4.765   2.398   8.187 -0.7889  0.6852  0.0090
  124MOL0     C16985   4.874   2.373   8.289 -0.9522 -0.0728 -0.3508
  124MOL0     C16986   4.981   2.279   8.231  0.3781 -0.6222  0.0700
  124MOL0     C16987   5.105   2.288   8.318  0.3859 -0.1525 -0.1666
  124MOL0     C16988   5.104   2.266   8.468  0.6705  0.5187 -0.2618
  124MOL0     C16989   5.238   2.214   8.515 -0.5061  0.8933  0.4991
  124MOL0     C16990   5.251   2.219   8.667 -0.0680  0.5952 -0.4322
  124MOL0     N16991   5.382   2.205   8.725 -1.0261 -0.3627  0.3513
  124MOL0     C16992   5.493   2.286   8.715  0.8731 -0.8520  0.3474
  124MOL0     C16993   5.595   2.229   8.783 -0.3847  0.0676 -0.4568
  124MOL0     C16994   5.735   2.276   8.808 -0.4280 -0.0975  0.7743
  124MOL0     C16995   5.826   2.160   8.848  0.9967 -0.2788  0.4972
  124MOL0     C16996   5.967   2.213   8.868  0.1670  0.5265 -0.1027
  124MOL0     C16997   6.068   2.107   8.919  0.5712 -0.2460 -0.2437
  124MOL0     O16998   6.100   2.021   8.813  0.5323 -0.3087 -0.1100
  124MOL0     C16999   6.204   1.924   8.827  0.9022 -0.2260 -0.5942
  124MOL0     C17000   6.246   1.854   8.713  0.5921  0.3757  0.1315
  124MOL0     C17001   6.357   1.757   8.719  1.1274  0.6174  0.4276
  124MOL0     C17002   6.406   1.701   8.592  0.9218  0.5174  0.5082
  124MOL0     C17003   6.424   1.744   8.846  0.9346  0.9691  0.6743
  124MOL0     C17004   6.545   1.663   8.864 -1.1247 -0.5775  0.6017
  124MOL0     O17005   6.554   1.543   8.791 -0.7893  0.0938 -0.1477
  124MOL0     C17006   6.671   1.473   8.791  0.3238  0.3730 -0.1283
  124MOL0     C17007   6.798   1.531   8.788 -0.0609 -0.1063 -0.4104
  124MOL0     C17008   6.911   1.447   8.807  0.1057  0.5557  0.4917
  124MOL0     C17009   6.903   1.310   8.794  0.4997  0.4237 -0.5646
  124MOL0     O17010   7.014   1.227   8.813  0.6321 -0.1307  0.1616
  124MOL0     C17011   7.010   1.088   8.782  0.7944 -0.0880 -0.1240
  124MOL0     C17012   7.150   1.043   8.766  0.2768 -0.1152 -0.3141
  124MOL0     C17013   7.230   1.107   8.663 -0.0204  0.2590 -0.0867
  124MOL0     C17014   7.218   1.029   8.528 -1.2438 -0.7062 -0.2992
  124MOL0     C17015   7.301   1.092   8.415 -0.1125  0.3157 -0.4975
  124MOL0     C17016   7.287   1.022   8.278 -0.2803 -0.1065  0.4648
  124MOL0     C17017   7.384   1.094   8.172  0.1197  0.3259  0.4188
  124MOL0     C17018   7.521   1.029   8.178 -0.9128 -0.3776  0.2162
  124MOL0    Cl17019   7.632   1.115   8.052 -0.3380  0.0734 -0.2483
  124MOL0     C17020   6.775   1.257   8.769  0.4804  0.1460  0.1034
  124MOL0     C17021   6.661   1.337   8.781 -0.1558  0.4897  0.0366
  124MOL0     O17022   6.629   1.714   8.940 -0.7628 -0.2141 -1.1524
  124MOL0     C17023   6.364   1.801   8.962  0.4698  0.8589  0.9887
  124MOL0     C17024   6.257   1.897   8.949  0.0732 -0.1139 -0.0792
  124MOL0     N17025   5.544   2.118   8.847 -0.2655  0.8089  0.8048
  124MOL0     N17026   5.423   2.100   8.799 -0.0081  0.0590  0.2959
  124MOL0     C17027   4.516   2.698   8.022  0.0194  0.4898 -0.2783
  124MOL0     C17028   4.391   2.735   7.981 -0.2053  0.0760 -0.6613
  124MOL0     C17029   4.013   2.961   7.968 -0.3351 -0.0664  1.1530
  124MOL0     C17030   4.016   3.088   7.909 -0.1300 -0.3185 -0.0402
  124MOL0     C17031   3.914   3.140   7.835  0.3382 -0.5604  0.6396
  124MOL0     C17032   3.784   3.077   7.825  0.3970  0.2479  0.4591
  124MOL0     O17033   3.669   3.121   7.767 -0.1456  0.7467  0.1574
  124MOL0     C17034   3.669   3.244   7.702  0.0995 -0.2650  0.5793
  124MOL0     C17035   3.751   3.234   7.568 -0.3009 -0.0106  0.6046
  124MOL0     C17036   3.744   3.351   7.470  0.6521  0.1898 -0.2757
  124MOL0     C17037   3.882   3.406   7.411 -0.0415  0.0211 -0.4656
  124MOL0     C17038   3.946   3.328   7.306  0.0531  0.9458 -0.4074
  124MOL0     C17039   3.997   3.230   7.251 -0.4920  0.0947  0.0293
  124MOL0     C17040   3.772   2.947   7.884 -1.1190  0.3367  0.1118
  124MOL0     C17041   3.882   2.892   7.952 -0.3673  0.2076 -0.0348
  124MOL0     C17042   3.862   2.751   8.004 -0.3291 -0.0043  0.7299
  124MOL0     H17043   4.229   2.709   8.275  0.0406  0.3204  0.6610
  124MOL0     H17044   4.450   2.643   8.351 -2.3625 -1.4923 -0.8122
  124MOL0     H17045   4.557   2.431   8.232 -0.7387  1.6451 -0.6174
  124MOL0     H17046   4.662   2.508   8.352 -1.6095 -0.2162  0.1943
  124MOL0     H17047   4.722   2.301   8.161  0.3807 -0.3574  1.7696
  124MOL0     H17048   4.811   2.448   8.101 -0.8984 -2.9172 -2.3476
  124MOL0     H17049   4.921   2.470   8.308 -0.8792  0.5533 -3.2487
  124MOL0     H17050   4.842   2.344   8.389  1.1697  2.9168  1.3443
  124MOL0     H17051   4.959   2.172   8.225  1.2633 -0.9370  1.7907
  124MOL0     H17052   5.007   2.321   8.133 -0.9241  0.2004  0.0607
  124MOL0     H17053   5.150   2.388   8.312  1.8368 -0.7206  0.6986
  124MOL0     H17054   5.175   2.219   8.271 -0.1172  0.7561 -2.3637
  124MOL0     H17055   5.068   2.359   8.511 -0.0633  1.3613 -2.5183
  124MOL0     H17056   5.025   2.195   8.494  0.8797 -0.5326 -2.2708
  124MOL0     H17057   5.307   2.289   8.474 -1.7379  2.9980  2.0717
  124MOL0     H17058   5.280   2.119   8.481  0.3999  1.9399 -1.5126
  124MOL0     H17059   5.206   2.314   8.697  1.7261  1.8442 -1.4555
  124MOL0     H17060   5.184   2.140   8.703 -0.0867 -0.4672 -2.6298
  124MOL0     H17061   5.498   2.375   8.653 -3.4563 -1.6953 -1.6378
  124MOL0     H17062   5.734   2.343   8.894 -0.3109 -0.8911  1.4020
  124MOL0     H17063   5.764   2.323   8.713 -0.0961 -2.7778 -0.5462
  124MOL0     H17064   5.788   2.124   8.944 -2.0315  0.8764 -0.1464
  124MOL0     H17065   5.819   2.074   8.781 -4.8113  0.3700 -0.2667
  124MOL0     H17066   6.007   2.267   8.782  1.0776  1.6111  0.9536
  124MOL0     H17067   5.950   2.291   8.943 -1.7227  0.9485 -0.9075
  124MOL0     H17068   6.159   2.160   8.946  1.0730 -0.7214 -0.9718
  124MOL0     H17069   6.017   2.062   9.005 -1.8716 -2.1843 -2.5179
  124MOL0     H17070   6.194   1.870   8.620 -2.0898 -3.9291  0.5766
  124MOL0     H17071   6.380   1.759   8.503  0.5750  0.5046  0.6016
  124MOL0     H17072   6.370   1.599   8.578 -1.3663  1.3464 -0.0714
  124MOL0     H17073   6.515   1.702   8.595  0.9740  2.6184 -0.2163
  124MOL0     H17074   6.812   1.637   8.805 -1.9463  0.1822 -0.3691
  124MOL0     H17075   7.009   1.485   8.835  0.6899  0.1756 -0.9629
  124MOL0     H17076   6.971   1.029   8.866  4.8276 -0.7069  1.5706
  124MOL0     H17077   6.946   1.074   8.695  0.6443  0.4266 -0.1035
  124MOL0     H17078   7.201   1.060   8.861  2.1782 -0.3483 -1.2526
  124MOL0     H17079   7.147   0.935   8.748  2.0569 -0.2700  0.1211
  124MOL0     H17080   7.334   1.087   8.688  0.3084  1.0551 -0.7582
  124MOL0     H17081   7.215   1.216   8.666  2.6713  0.7714 -1.9200
  124MOL0     H17082   7.113   1.022   8.496 -0.9730  0.2770 -1.4914
  124MOL0     H17083   7.248   0.924   8.536 -4.1862 -1.4651  3.5562
  124MOL0     H17084   7.271   1.197   8.407 -3.1673 -0.4699 -0.6919
  124MOL0     H17085   7.407   1.093   8.438 -0.2777 -0.0583  0.2895
  124MOL0     H17086   7.183   1.029   8.243  0.4009 -0.6989 -1.8854
  124MOL0     H17087   7.309   0.916   8.291  3.0707  0.7877  3.4840
  124MOL0     H17088   7.388   1.202   8.188 -0.9941  0.8056 -2.0686
  124MOL0     H17089   7.342   1.086   8.072  0.1264 -0.1966  0.4511
  124MOL0     H17090   7.508   0.924   8.147 -1.7827 -0.6781  1.5271
  124MOL0     H17091   7.567   1.035   8.277 -0.7839  1.9868  0.0494
  124MOL0     H17092   6.766   1.150   8.751 -0.9677  0.1310  0.7810
  124MOL0     H17093   6.567   1.282   8.775  0.6080 -1.0208  1.2078
  124MOL0     H17094   6.419   1.787   9.054  1.1377 -0.8631  0.3661
  124MOL0     H17095   6.223   1.951   9.036 -0.2545  1.6390 -1.2458
  124MOL0     H17096   4.594   2.692   7.946 -0.8694  1.8971 -1.3696
  124MOL0     H17097   4.367   2.772   7.882 -1.5878  2.4372  0.4617
  124MOL0     H17098   4.105   3.148   7.924 -2.8809  4.5582 -0.8510
  124MOL0     H17099   3.917   3.246   7.812 -2.0554 -0.6692 -0.4047
  124MOL0     H17100   3.569   3.281   7.675  1.1421  1.8527 -0.6969
  124MOL0     H17101   3.706   3.324   7.767 -2.7830  0.5256  1.4032
  124MOL0     H17102   3.729   3.141   7.514  0.7242 -0.2971  0.6580
  124MOL0     H17103   3.855   3.205   7.585  0.5342  0.5928 -2.6366
  124MOL0     H17104   3.680   3.340   7.382  3.2817 -0.0364 -2.3003
  124MOL0     H17105   3.702   3.433   7.529 -1.1757 -0.1631 -1.0160
  124MOL0     H17106   3.961   3.419   7.486 -0.6528  1.1071  0.0096
  124MOL0     H17107   3.853   3.504   7.371 -0.9191  0.1704  0.5128
  124MOL0     H17108   4.040   3.144   7.204 -2.9011  0.1572 -2.5450
  124MOL0     H17109   3.674   2.901   7.882  0.1578 -2.7499  1.4030
  124MOL0     H17110   3.789   2.697   7.943 -0.9099  1.3107  0.2003
  124MOL0     H17111   3.949   2.685   8.002 -0.7078 -0.5895  2.4061
  124MOL0     H17112   3.834   2.759   8.109  2.0252  2.6072  1.2971
  125MOL0     O17113   3.091   6.779  11.384  0.0755 -0.5577 -0.2834
  125MOL0     C17114   2.967   6.776  11.365  0.1459  0.3284 -0.3372
  125MOL0     O17115   2.911   6.822  11.253  0.1145  0.0967  0.1108
  125MOL0     C17116   2.986   6.829  11.134  0.6089  0.3543 -0.3830
  125MOL0     C17117   3.025   6.710  11.072 -0.5176 -0.3688 -0.2256
  125MOL0     C17118   3.103   6.720  10.959 -0.2101  0.1465 -0.4504
  125MOL0     C17119   3.136   6.846  10.898 -0.2515  1.1963 -0.2308
  125MOL0     O17120   3.208   6.830  10.783  0.1990 -0.1663 -0.0389
  125MOL0     C17121   3.195   6.933  10.689  0.6731 -0.3659  0.2058
  125MOL0     C17122   3.259   6.897  10.557 -0.3962  0.1105  0.0724
  125MOL0     C17123   3.415   6.878  10.568 -0.4720 -0.2626 -0.1291
  125MOL0     C17124   3.491   7.006  10.615 -0.1417 -0.1529 -0.2430
  125MOL0     C17125   3.647   6.992  10.617 -0.2575 -0.0138 -0.3104
  125MOL0     C17126   3.697   7.013  10.475 -0.0905 -0.4598  0.4098
  125MOL0     C17127   3.856   7.036  10.491  0.9812  0.2973 -0.4257
  125MOL0     C17128   3.935   6.975  10.367 -0.1880 -0.3583  0.9168
  125MOL0     N17129   4.079   6.985  10.372 -0.0618 -0.1315  0.5468
  125MOL0     C17130   4.158   6.893  10.426  0.2400  0.1311  0.7791
  125MOL0     C17131   4.285   6.929  10.392 -0.0337  1.2889  0.5271
  125MOL0     C17132   4.403   6.836  10.406  0.1780 -0.2133  0.3858
  125MOL0     C17133   4.424   6.774  10.548  0.3291 -0.0672  0.0017
  125MOL0     C17134   4.555   6.689  10.565 -0.0239 -0.1007  0.4288
  125MOL0     C17135   4.678   6.779  10.575 -0.2552 -0.7727 -0.2117
  125MOL0     O17136   4.786   6.686  10.598  0.1446 -1.1508  0.0941
  125MOL0     C17137   4.824   6.628  10.722 -0.8040  0.3258 -0.3473
  125MOL0     C17138   4.933   6.550  10.733 -0.6796 -0.0434  0.1284
  125MOL0     C17139   4.988   6.509  10.852  0.4587  0.3778 -0.4527
  125MOL0     C17140   5.122   6.455  10.847 -1.6196  0.2009 -0.3648
  125MOL0     C17141   4.908   6.524  10.964  0.2678 -1.0481 -0.6772
  125MOL0     C17142   4.952   6.491  11.103 -0.0984  0.1101 -0.3926
  125MOL0     O17143   4.860   6.519  11.203  0.5024  0.8733  0.0697
  125MOL0     C17144   4.889   6.519  11.341 -0.2931  0.2837 -0.7790
  125MOL0     C17145   5.008   6.541  11.395 -0.0516 -0.1298  0.0690
  125MOL0     C17146   5.019   6.515  11.538  0.0867  0.6055 -0.7874
  125MOL0     C17147   4.912   6.469  11.622 -0.0936 -0.6426  0.1696
  125MOL0     O17148   4.957   6.435  11.747 -0.4102 -0.0609  0.0991
  125MOL0     C17149   4.855   6.392  11.833  0.6652  0.1820 -1.0306
  125MOL0     C17150   4.893   6.352  11.978  0.8346  0.0746 -1.3730
  125MOL0     C17151   4.775   6.321  12.076 -0.4492 -0.4694  0.5722
  125MOL0     C17152   4.683   6.209  12.035  0.3415 -0.8147 -0.9849
  125MOL0     C17153   4.557   6.223  12.120  0.0321  0.2618  0.5093
  125MOL0     C17154   4.453   6.124  12.060  0.3533 -0.1197 -0.0626
  125MOL0     C17155   4.342   6.099  12.162  0.2456  0.2258  0.2228
  125MOL0     C17156   4.232   6.006  12.110 -0.2418 -0.1960  0.1340
  125MOL0    Cl17157   4.096   6.011  12.216  0.1603 -0.2091  0.0650
  125MOL0     C17158   4.785   6.461  11.557 -0.7816  0.2045 -0.1186
  125MOL0     C17159   4.781   6.493  11.417  0.4304  0.7775 -0.2060
  125MOL0     O17160   5.064   6.429  11.128  0.9021 -0.0832 -0.5796
  125MOL0     C17161   4.781   6.586  10.951 -0.5271  0.5035  0.5500
  125MOL0     C17162   4.739   6.638  10.833  0.3396  0.3659 -0.0568
  125MOL0     N17163   4.284   7.041  10.318  0.8445  0.0623  0.1408
  125MOL0     N17164   4.159   7.075  10.300 -0.4027  0.0784 -0.1535
  125MOL0     C17165   3.077   6.959  10.951  0.5149 -0.1919 -0.1324
  125MOL0     C17166   3.006   6.954  11.079  0.3149 -0.3347 -0.0820
  125MOL0     C17167   2.889   6.722  11.478 -0.1518  0.1798  0.0552
  125MOL0     C17168   2.936   6.731  11.607  0.2376  0.7836 -0.3138
  125MOL0     C17169   2.855   6.708  11.711  0.4170  0.5005 -0.6596
  125MOL0     C17170   2.723   6.669  11.695 -0.7102 -0.5620 -0.2512
  125MOL0     O17171   2.643   6.647  11.799  0.2443 -0.5069 -0.0442
  125MOL0     C17172   2.624   6.499  11.822 -0.3618 -0.8306 -0.6510
  125MOL0     C17173   2.557   6.475  11.960 -0.0100 -0.8987 -0.7192
  125MOL0     C17174   2.426   6.564  11.979 -0.7046  0.1701  0.2826
  125MOL0     C17175   2.313   6.495  12.051 -0.2933 -0.6817 -0.6891
  125MOL0     C17176   2.350   6.485  12.199  0.1870 -0.1670 -0.3734
  125MOL0     C17177   2.369   6.492  12.318 -0.0348  0.0451 -0.1105
  125MOL0     C17178   2.678   6.647  11.571  0.5086 -0.1078  0.3956
  125MOL0     C17179   2.757   6.667  11.458  0.2030 -0.4843 -0.6725
  125MOL0     C17180   2.701   6.629  11.328  0.4307 -0.0210 -0.0296
  125MOL0     H17181   3.002   6.614  11.117  0.6227 -0.0552  1.0782
  125MOL0     H17182   3.129   6.619  10.928 -0.0142 -0.3382  1.2077
  125MOL0     H17183   3.228   7.030  10.726  0.3198  0.7486 -2.1574
  125MOL0     H17184   3.088   6.940  10.666  0.7765  1.1562  0.0905
  125MOL0     H17185   3.216   6.801  10.527 -1.7086  0.6427  0.1804
  125MOL0     H17186   3.241   6.980  10.487  1.7428  2.4863  2.1287
  125MOL0     H17187   3.452   6.793  10.626  3.3115  1.0757 -0.2669
  125MOL0     H17188   3.450   6.860  10.466 -2.7495 -3.8397 -0.4412
  125MOL0     H17189   3.451   7.092  10.559  1.2815 -0.1831 -1.3650
  125MOL0     H17190   3.465   7.012  10.721  2.2746 -3.1442  0.6770
  125MOL0     H17191   3.669   6.891  10.654 -0.2223  0.0840 -0.0581
  125MOL0     H17192   3.684   7.071  10.684  0.7022 -1.2321  0.6483
  125MOL0     H17193   3.680   6.925  10.413 -1.6232  0.9491 -1.2751
  125MOL0     H17194   3.649   7.094  10.419 -3.0670 -1.8977  0.7016
  125MOL0     H17195   3.884   6.980  10.581 -0.3290 -1.4595 -1.0656
  125MOL0     H17196   3.873   7.143  10.508 -0.5017  0.5139 -0.1468
  125MOL0     H17197   3.898   6.872  10.376 -1.9435  0.0823 -0.6214
  125MOL0     H17198   3.914   7.028  10.274  1.2724 -0.0096  0.7659
  125MOL0     H17199   4.125   6.797  10.466 -1.1486  0.9178  1.6361
  125MOL0     H17200   4.493   6.892  10.380 -0.2690  1.8467  2.8710
  125MOL0     H17201   4.399   6.754  10.333 -0.1720 -0.5292  0.7544
  125MOL0     H17202   4.419   6.855  10.622 -1.1132  1.2574 -1.4878
  125MOL0     H17203   4.342   6.705  10.569 -0.4526  0.6952 -0.5148
  125MOL0     H17204   4.545   6.619  10.649 -0.4888 -0.9584 -0.3143
  125MOL0     H17205   4.555   6.624  10.477 -2.2971  1.1868 -0.6029
  125MOL0     H17206   4.699   6.843  10.489  3.0436 -1.1310  0.2248
  125MOL0     H17207   4.676   6.860  10.648  1.4301 -0.0885 -0.8597
  125MOL0     H17208   4.987   6.559  10.639 -2.1254  3.8507 -0.5220
  125MOL0     H17209   5.118   6.350  10.878 -0.8594  0.2334 -0.1360
  125MOL0     H17210   5.204   6.495  10.907 -1.4322  0.4422 -0.7808
  125MOL0     H17211   5.156   6.453  10.743 -1.1795 -1.0551 -0.2080
  125MOL0     H17212   5.086   6.579  11.330  0.4021  1.0347  1.2524
  125MOL0     H17213   5.118   6.523  11.582  0.0820  0.1716 -0.6905
  125MOL0     H17214   4.789   6.477  11.854  2.9559  1.4620  1.6542
  125MOL0     H17215   4.801   6.307  11.791  1.9647 -0.4086 -1.5410
  125MOL0     H17216   4.955   6.263  11.983  2.4133  1.1396 -1.2652
  125MOL0     H17217   4.951   6.433  12.023  0.7371 -0.7375  0.2860
  125MOL0     H17218   4.718   6.413  12.083 -0.4442 -0.5623  2.8537
  125MOL0     H17219   4.804   6.308  12.181 -0.4237 -0.3536  0.5789
  125MOL0     H17220   4.734   6.122  12.078 -0.1573 -0.0572  1.3219
  125MOL0     H17221   4.659   6.203  11.929 -4.2220 -0.3144 -0.2078
  125MOL0     H17222   4.568   6.205  12.227  0.9418 -1.6436  0.1304
  125MOL0     H17223   4.516   6.325  12.118  0.7283  0.5455  0.4837
  125MOL0     H17224   4.497   6.029  12.030 -2.3185 -1.4353 -0.1209
  125MOL0     H17225   4.410   6.167  11.969 -1.1058  0.1913  0.7334
  125MOL0     H17226   4.300   6.193  12.196  0.0680  0.0147  0.5883
  125MOL0     H17227   4.384   6.046  12.248 -1.2248 -0.2238  0.6869
  125MOL0     H17228   4.277   5.908  12.098  0.4157  0.4079 -3.0174
  125MOL0     H17229   4.211   6.038  12.008 -0.6036  1.1990  0.6129
  125MOL0     H17230   4.692   6.420  11.595 -1.1248 -1.1409 -2.2040
  125MOL0     H17231   4.690   6.461  11.368 -0.3563 -0.5629  1.9742
  125MOL0     H17232   4.723   6.610  11.040  0.6468  0.0036  1.4795
  125MOL0     H17233   4.647   6.694  10.836 -2.0624 -3.2259  2.4707
  125MOL0     H17234   3.083   7.054  10.899  0.5584  0.2419  0.6410
  125MOL0     H17235   2.963   7.048  11.113 -0.4401 -0.9975  0.8522
  125MOL0     H17236   3.032   6.775  11.631  1.7472 -2.4113 -0.0326
  125MOL0     H17237   2.895   6.720  11.811  1.3891 -1.7375 -0.7110
  125MOL0     H17238   2.558   6.455  11.748 -2.2769  1.8995 -0.7279
  125MOL0     H17239   2.724   6.454  11.822  0.2395  0.4311 -0.2228
  125MOL0     H17240   2.620   6.502  12.045 -0.3148 -0.2328 -0.6968
  125MOL0     H17241   2.529   6.369  11.960 -1.9724 -0.4388 -0.0627
  125MOL0     H17242   2.453   6.658  12.028  0.7738  0.2486 -0.5985
  125MOL0     H17243   2.395   6.581  11.875  3.6445 -0.5014 -1.3642
  125MOL0     H17244   2.285   6.395  12.017  1.1639 -0.9559 -1.1566
  125MOL0     H17245   2.228   6.563  12.043  0.7952  0.5843 -2.0298
  125MOL0     H17246   2.404   6.486  12.419 -0.2312  0.3938 -0.0200
  125MOL0     H17247   2.574   6.616  11.571  0.5907 -0.4239  1.2029
  125MOL0     H17248   2.780   6.593  11.260 -1.3319  1.3356 -3.0217
  125MOL0     H17249   2.629   6.548  11.335 -0.6232  0.4996 -3.2613
  125MOL0     H17250   2.652   6.717  11.285 -1.0732 -0.2402  1.1704
  126MOL0     O17251   5.398   9.352   6.777 -0.3298 -0.3151  0.2712
  126MOL0     C17252   5.429   9.239   6.817 -0.6817  0.7845 -0.6815
  126MOL0     O17253   5.351   9.165   6.893 -0.0816 -0.0910 -0.1948
  126MOL0     C17254   5.217   9.198   6.912  0.0305 -0.6756  0.0216
  126MOL0     C17255   5.169   9.271   7.023  0.3591  0.1477 -0.0494
  126MOL0     C17256   5.035   9.288   7.037  0.3473  0.1156  0.4218
  126MOL0     C17257   4.934   9.237   6.957 -0.4861 -0.9819 -0.1806
  126MOL0     O17258   4.798   9.255   6.982 -0.1901 -0.4845 -0.5064
  126MOL0     C17259   4.691   9.242   6.884  0.2894  0.3339 -0.2590
  126MOL0     C17260   4.640   9.093   6.869 -0.2350 -0.2431  0.5730
  126MOL0     C17261   4.639   9.002   6.990  0.1479 -0.7448 -0.4797
  126MOL0     C17262   4.570   8.860   6.964  0.4098  0.2915  0.3672
  126MOL0     C17263   4.574   8.780   7.093 -0.0029  0.7769  0.6667
  126MOL0     C17264   4.481   8.652   7.084  0.0153  0.0288 -0.7739
  126MOL0     C17265   4.516   8.561   7.198 -1.3292 -0.6668 -0.5115
  126MOL0     C17266   4.458   8.620   7.332 -0.2193  0.2227  0.0006
  126MOL0     N17267   4.469   8.532   7.456  0.7222  0.1254  0.2805
  126MOL0     C17268   4.405   8.414   7.460  0.8013 -0.1114  0.1986
  126MOL0     C17269   4.397   8.377   7.590 -0.3891  0.2465 -0.3607
  126MOL0     C17270   4.327   8.255   7.645  0.8614 -0.1631 -0.0193
  126MOL0     C17271   4.398   8.188   7.762  0.1642  0.3833  0.5861
  126MOL0     C17272   4.501   8.082   7.716  0.4013  0.3689  0.3753
  126MOL0     C17273   4.621   8.136   7.630 -0.0045 -0.5660 -0.0291
  126MOL0     O17274   4.594   8.142   7.491  0.5959 -0.1633  0.1556
  126MOL0     C17275   4.696   8.154   7.402  0.1897 -0.9720 -1.1546
  126MOL0     C17276   4.749   8.275   7.353  0.2834  0.3162 -0.0953
  126MOL0     C17277   4.844   8.275   7.251 -0.0453  0.1493 -0.0614
  126MOL0     C17278   4.895   8.402   7.205 -0.9537 -0.5916 -0.0389
  126MOL0     C17279   4.890   8.157   7.199 -0.2278 -0.2266  0.5471
  126MOL0     C17280   4.979   8.146   7.075 -0.2119 -0.2736 -0.3744
  126MOL0     O17281   5.046   8.257   7.036 -0.0312  0.5879  0.3815
  126MOL0     C17282   5.122   8.262   6.924  0.4920  0.1110  0.3492
  126MOL0     C17283   5.098   8.365   6.829  1.0199 -0.2728 -0.4284
  126MOL0     C17284   5.163   8.379   6.709  0.1698 -0.0103  0.5083
  126MOL0     C17285   5.272   8.297   6.681  0.5641 -0.5117  0.1506
  126MOL0     O17286   5.341   8.297   6.562  0.4050  0.9417 -0.8310
  126MOL0     C17287   5.296   8.375   6.457  0.1037  0.3746  0.2369
  126MOL0     C17288   5.371   8.346   6.329  0.1654  0.1656  0.1202
  126MOL0     C17289   5.301   8.391   6.202  0.1190  0.1986  0.3028
  126MOL0     C17290   5.353   8.321   6.073  0.0928 -0.2749 -1.0203
  126MOL0     C17291   5.308   8.409   5.954  0.0066  0.5663 -0.0463
  126MOL0     C17292   5.384   8.372   5.825  0.7128 -0.5973 -0.5096
  126MOL0     C17293   5.308   8.246   5.757  0.3365  0.0495 -0.2535
  126MOL0     C17294   5.362   8.234   5.613  0.2970  0.2862  0.3816
  126MOL0    Cl17295   5.540   8.223   5.612  0.7015  0.1464  0.0211
  126MOL0     C17296   5.303   8.196   6.772 -0.3429  0.2395  0.2959
  126MOL0     C17297   5.221   8.175   6.888 -0.0750  0.5353  0.3362
  126MOL0     O17298   4.978   8.042   7.018 -0.5687  0.4784  0.5313
  126MOL0     C17299   4.838   8.034   7.251 -0.3238 -0.4862 -0.6901
  126MOL0     C17300   4.743   8.031   7.352  0.5642 -0.1973 -0.2741
  126MOL0     N17301   4.474   8.469   7.665 -0.1984  0.5527  0.7549
  126MOL0     N17302   4.512   8.561   7.583  1.2634 -0.6624 -0.4490
  126MOL0     C17303   4.986   9.170   6.844  0.6196 -1.0822 -0.3331
  126MOL0     C17304   5.123   9.154   6.816 -0.1694  0.6796  0.3969
  126MOL0     C17305   5.559   9.175   6.759 -0.7602  0.4022  0.3337
  126MOL0     C17306   5.661   9.260   6.733 -0.3883 -0.7297  0.1175
  126MOL0     C17307   5.785   9.210   6.715 -0.3208  0.0298 -0.0231
  126MOL0     C17308   5.813   9.068   6.713 -0.8980  0.7370 -0.6041
  126MOL0     O17309   5.934   9.007   6.678 -0.4698 -0.6815  0.1089
  126MOL0     C17310   6.055   9.054   6.733 -0.5380 -1.1676 -0.1637
  126MOL0     C17311   6.159   9.089   6.630  0.2104 -0.0494  0.6254
  126MOL0     C17312   6.302   9.087   6.684  0.3985 -0.4659 -0.0587
  126MOL0     C17313   6.398   9.131   6.576 -0.1198  0.9682 -0.0510
  126MOL0     C17314   6.518   9.184   6.641 -0.4351  0.3722  0.0780
  126MOL0     C17315   6.620   9.226   6.696 -0.2712  0.0800 -0.7835
  126MOL0     C17316   5.701   8.983   6.726 -0.0489  0.3801  0.0032
  126MOL0     C17317   5.579   9.035   6.760 -0.1549  0.6819  0.1929
  126MOL0     C17318   5.481   8.928   6.801  0.2568 -1.2608  0.2326
  126MOL0     H17319   5.231   9.306   7.105 -0.8303  1.4744  0.3333
  126MOL0     H17320   5.008   9.328   7.135  1.9850  2.5477 -0.0175
  126MOL0     H17321   4.720   9.278   6.785 -0.3157  0.1073 -0.5237
  126MOL0     H17322   4.604   9.298   6.920 -1.5182 -3.0963  1.1136
  126MOL0     H17323   4.541   9.103   6.823 -0.6806  0.5149  1.6383
  126MOL0     H17324   4.709   9.042   6.802 -0.8730 -0.3951  0.0199
  126MOL0     H17325   4.743   8.986   7.017  0.3855  0.8370 -0.3701
  126MOL0     H17326   4.595   9.055   7.075 -0.9606  1.8240 -2.5069
  126MOL0     H17327   4.465   8.860   6.933  0.0360 -1.2017  1.4951
  126MOL0     H17328   4.626   8.812   6.883  1.4160  1.6062  0.2497
  126MOL0     H17329   4.557   8.848   7.176  2.0038  0.9889  0.9439
  126MOL0     H17330   4.680   8.753   7.098  0.0661  0.3629 -1.6799
  126MOL0     H17331   4.376   8.681   7.097 -0.4543 -1.4622 -1.0852
  126MOL0     H17332   4.488   8.600   6.988 -2.1595  1.7546 -1.9623
  126MOL0     H17333   4.624   8.553   7.209 -0.9097  3.0058 -0.7660
  126MOL0     H17334   4.475   8.465   7.167  0.8852 -0.8052 -3.5274
  126MOL0     H17335   4.492   8.720   7.361 -0.8112  0.1221  1.1059
  126MOL0     H17336   4.351   8.628   7.313 -0.5505 -3.1279 -0.0849
  126MOL0     H17337   4.363   8.356   7.378  2.4274  1.1653 -1.6136
  126MOL0     H17338   4.303   8.175   7.575  2.0735  0.2763 -0.9577
  126MOL0     H17339   4.237   8.306   7.682 -0.3279 -1.5225 -0.9193
  126MOL0     H17340   4.440   8.268   7.824  1.3207  0.9930 -0.9091
  126MOL0     H17341   4.322   8.128   7.812  1.1694 -3.1168 -1.6788
  126MOL0     H17342   4.543   8.028   7.801 -1.7403 -1.7940  0.1656
  126MOL0     H17343   4.447   8.004   7.663  0.3731  1.8544 -1.9093
  126MOL0     H17344   4.653   8.237   7.655  0.4695 -0.1850 -1.9875
  126MOL0     H17345   4.705   8.067   7.646 -0.0563 -0.8281 -0.8523
  126MOL0     H17346   4.713   8.366   7.399 -0.7364  0.5318 -1.2850
  126MOL0     H17347   4.841   8.486   7.251 -2.0179 -1.0738 -0.3884
  126MOL0     H17348   4.879   8.419   7.098 -2.2518 -0.1511  0.2032
  126MOL0     H17349   5.002   8.419   7.217 -1.2229  2.8559 -1.3968
  126MOL0     H17350   5.021   8.438   6.852 -0.0635 -2.0205  1.9179
  126MOL0     H17351   5.137   8.457   6.638 -1.0064  0.2140  1.1573
  126MOL0     H17352   5.193   8.341   6.438 -1.2867  3.3729  1.7184
  126MOL0     H17353   5.298   8.482   6.481  3.6499  0.1428  1.5911
  126MOL0     H17354   5.477   8.371   6.329  0.6209 -1.3421 -2.5045
  126MOL0     H17355   5.369   8.236   6.323  1.8264  0.0882  0.7127
  126MOL0     H17356   5.323   8.497   6.190 -0.3129  0.2746  0.1355
  126MOL0     H17357   5.192   8.378   6.203  0.3348 -2.0480  0.5775
  126MOL0     H17358   5.321   8.216   6.069  0.6331 -0.8200  3.5563
  126MOL0     H17359   5.462   8.317   6.067  0.1198 -0.8418 -0.2512
  126MOL0     H17360   5.202   8.393   5.932  0.0405 -0.6712  0.5415
  126MOL0     H17361   5.313   8.515   5.980 -0.2411 -0.1630  3.5674
  126MOL0     H17362   5.492   8.368   5.844  0.5188  1.7390  1.6456
  126MOL0     H17363   5.379   8.458   5.756  0.8205  0.1777  0.4267
  126MOL0     H17364   5.199   8.256   5.748  0.5003  1.2322 -1.1465
  126MOL0     H17365   5.342   8.163   5.819  2.0404 -0.6717 -2.0415
  126MOL0     H17366   5.320   8.322   5.564 -0.2201 -1.2914 -2.1779
  126MOL0     H17367   5.329   8.146   5.557 -2.7421  2.9489 -2.4046
  126MOL0     H17368   5.382   8.129   6.741 -0.0853  0.1588  1.0922
  126MOL0     H17369   5.234   8.087   6.950  0.9103  0.5692  0.2019
  126MOL0     H17370   4.874   7.942   7.207 -0.6594 -2.3126  2.5905
  126MOL0     H17371   4.699   7.941   7.394  1.6537 -0.1824  0.9508
  126MOL0     H17372   4.915   9.125   6.775  1.1985 -0.9813 -1.0147
  126MOL0     H17373   5.127   9.095   6.725 -2.6178 -0.1078  0.7410
  126MOL0     H17374   5.645   9.367   6.737  1.9296 -0.1958 -2.2786
  126MOL0     H17375   5.865   9.284   6.707 -0.1455 -0.3112 -2.3021
  126MOL0     H17376   6.031   9.142   6.794  0.2221 -1.0135 -0.0740
  126MOL0     H17377   6.093   8.980   6.804 -3.4870 -2.7274 -0.0066
  126MOL0     H17378   6.121   9.182   6.587  0.9534  0.8225  1.7693
  126MOL0     H17379   6.160   9.014   6.551  0.7981 -0.2077  0.7753
  126MOL0     H17380   6.316   9.165   6.759  0.0673  0.9612 -1.4256
  126MOL0     H17381   6.328   8.989   6.725  3.5727 -0.1120 -0.8891
  126MOL0     H17382   6.355   9.200   6.503 -1.9335  1.5544  1.4668
  126MOL0     H17383   6.421   9.041   6.518  0.8800  2.4178 -2.0119
  126MOL0     H17384   6.709   9.256   6.747 -0.7487 -1.7865  1.3454
  126MOL0     H17385   5.706   8.875   6.714  0.5044  0.5822 -1.9589
  126MOL0     H17386   5.503   8.842   6.736 -1.8167 -2.2446  0.7493
  126MOL0     H17387   5.494   8.904   6.907  0.8105  0.6606  0.6265
  126MOL0     H17388   5.379   8.963   6.787  1.4591  3.7816  1.9921
  127MOL0     O17389   0.690   5.910   2.222  0.4122 -0.2725 -0.5188
  127MOL0     C17390   0.806   5.944   2.231  0.0781  0.0716 -0.8776
  127MOL0     O17391   0.901   5.862   2.278  0.4595  0.7678 -0.1788
  127MOL0     C17392   0.879   5.752   2.355 -0.9578 -0.0111 -0.1936
  127MOL0     C17393   0.896   5.627   2.291 -0.1002  0.7430  0.8393
  127MOL0     C17394   0.863   5.508   2.361 -0.2162 -0.2250  0.5628
  127MOL0     C17395   0.840   5.516   2.505  0.8460 -0.2558  0.2260
  127MOL0     O17396   0.820   5.392   2.570  0.2371 -0.2318  0.2889
  127MOL0     C17397   0.818   5.389   2.711  0.2897 -0.2775 -0.4826
  127MOL0     C17398   0.957   5.431   2.764  0.3578 -0.1014 -0.1183
  127MOL0     C17399   1.067   5.343   2.693 -0.1997  0.4087  0.0523
  127MOL0     C17400   1.208   5.352   2.755 -0.2351 -1.3917  0.0380
  127MOL0     C17401   1.294   5.241   2.716  0.1513 -0.2374 -1.2216
  127MOL0     C17402   1.426   5.252   2.811  0.4481 -0.1232 -0.1668
  127MOL0     C17403   1.546   5.165   2.753  0.5626  0.3639 -0.6659
  127MOL0     C17404   1.608   5.225   2.627 -1.1402 -0.6887 -0.3187
  127MOL0     N17405   1.665   5.363   2.643  0.1086 -0.2659  0.4194
  127MOL0     C17406   1.757   5.413   2.738  1.0999 -0.3023 -0.5609
  127MOL0     C17407   1.771   5.548   2.711 -0.0612  0.3561  0.2693
  127MOL0     C17408   1.834   5.660   2.790  0.1060  0.2212  1.4438
  127MOL0     C17409   1.966   5.614   2.842  0.3499 -0.0128  0.8855
  127MOL0     C17410   2.046   5.734   2.898 -0.0744  0.1703 -0.3904
  127MOL0     C17411   2.191   5.710   2.934  0.5423  0.3924  0.7838
  127MOL0     O17412   2.217   5.581   2.995 -0.1567 -0.4104  0.0320
  127MOL0     C17413   2.310   5.609   3.100 -0.0823 -0.3870 -0.9897
  127MOL0     C17414   2.288   5.529   3.212 -0.1549  0.1590 -1.2010
  127MOL0     C17415   2.360   5.544   3.332 -0.5049 -0.4517  0.3097
  127MOL0     C17416   2.320   5.441   3.439  0.7793 -0.4066 -0.1716
  127MOL0     C17417   2.460   5.646   3.335 -0.4205 -0.0347  1.0234
  127MOL0     C17418   2.533   5.675   3.462 -0.4971 -0.7342  0.0370
  127MOL0     O17419   2.601   5.572   3.522 -0.6137 -0.1026  0.2933
  127MOL0     C17420   2.676   5.592   3.639  0.3152 -0.1132 -0.4586
  127MOL0     C17421   2.790   5.524   3.672 -0.8284  0.1056  0.6015
  127MOL0     C17422   2.857   5.538   3.796  0.1103  0.1832 -0.2071
  127MOL0     C17423   2.812   5.635   3.891 -0.2337 -0.0887 -0.6891
  127MOL0     O17424   2.882   5.657   4.006 -0.1049 -0.2566  1.0614
  127MOL0     C17425   2.818   5.677   4.130 -0.0903 -0.2116  0.1118
  127MOL0     C17426   2.917   5.653   4.245  0.1671  0.4394  0.1755
  127MOL0     C17427   3.050   5.741   4.232  0.2009 -0.1209 -0.3138
  127MOL0     C17428   3.126   5.748   4.369  0.3211  0.8262 -0.8754
  127MOL0     C17429   3.263   5.808   4.347 -0.4522  0.0383 -0.9133
  127MOL0     C17430   3.359   5.759   4.448  0.0758 -0.0294 -0.1948
  127MOL0     C17431   3.330   5.791   4.600 -0.1172  0.9246 -0.0254
  127MOL0     C17432   3.450   5.775   4.700 -0.2533 -0.2236  0.1854
  127MOL0    Cl17433   3.410   5.808   4.860  0.2651  0.2243  0.1870
  127MOL0     C17434   2.692   5.707   3.856 -0.0203 -0.0930 -0.3746
  127MOL0     C17435   2.623   5.688   3.734  0.3977  0.6656 -0.3844
  127MOL0     O17436   2.563   5.790   3.471 -0.2874  0.3032 -0.1493
  127MOL0     C17437   2.494   5.713   3.216 -0.2643 -0.5191 -0.7445
  127MOL0     C17438   2.424   5.685   3.106 -0.0564 -0.6014  0.2528
  127MOL0     N17439   1.693   5.578   2.595  0.1360 -1.1564  0.2519
  127MOL0     N17440   1.626   5.468   2.565 -0.0139 -0.5176 -0.0017
  127MOL0     C17441   0.819   5.640   2.563 -0.5174  0.4942 -0.6071
  127MOL0     C17442   0.853   5.763   2.495 -0.3519  0.3580  0.2044
  127MOL0     C17443   0.852   6.074   2.167 -0.2018 -0.6707  0.1701
  127MOL0     C17444   0.758   6.138   2.089  0.0144  0.7054 -0.0033
  127MOL0     C17445   0.790   6.264   2.032  0.0370 -0.5252 -0.5422
  127MOL0     C17446   0.916   6.324   2.049  0.0744 -0.1106 -0.0412
  127MOL0     O17447   0.936   6.437   1.972 -0.2009 -0.2455  0.0404
  127MOL0     C17448   1.058   6.513   1.969  0.3725 -0.1382 -0.7707
  127MOL0     C17449   1.161   6.444   1.893  0.3303 -0.7190  1.3651
  127MOL0     C17450   1.122   6.398   1.754 -0.2186  0.0625  0.3940
  127MOL0     C17451   1.125   6.512   1.649  0.4311 -0.1401 -0.2964
  127MOL0     C17452   1.260   6.531   1.599  0.1274  0.8781 -0.3431
  127MOL0     C17453   1.367   6.535   1.550 -0.4230 -0.0053  0.5651
  127MOL0     C17454   1.012   6.249   2.112  0.1144  0.4726  0.2388
  127MOL0     C17455   0.984   6.125   2.171  0.1782 -1.2363  0.4078
  127MOL0     C17456   1.101   6.073   2.251  0.0120 -0.4870  0.3408
  127MOL0     H17457   0.917   5.630   2.185  0.6370 -1.5041  0.8761
  127MOL0     H17458   0.857   5.413   2.309  0.9926  1.8425 -3.8763
  127MOL0     H17459   0.796   5.291   2.754 -1.8668  1.0721  1.7499
  127MOL0     H17460   0.746   5.458   2.756  3.1963  2.4754  0.3807
  127MOL0     H17461   0.960   5.539   2.751  0.5740 -0.0871  0.0437
  127MOL0     H17462   0.955   5.398   2.868  4.5187 -2.5623 -0.5577
  127MOL0     H17463   1.018   5.245   2.698  0.5120  0.0491 -0.0193
  127MOL0     H17464   1.076   5.366   2.587 -1.4900  1.2629  0.0962
  127MOL0     H17465   1.247   5.449   2.726 -1.2960 -0.5133  1.3958
  127MOL0     H17466   1.199   5.361   2.864  0.1154  0.4483 -0.0601
  127MOL0     H17467   1.326   5.266   2.614  0.6253  0.0466 -1.0097
  127MOL0     H17468   1.240   5.147   2.722 -1.4506  0.7621  2.0169
  127MOL0     H17469   1.465   5.352   2.828  0.8237  0.0643 -1.9036
  127MOL0     H17470   1.404   5.210   2.909  2.8162  0.5253  0.7087
  127MOL0     H17471   1.520   5.059   2.740  1.1516  0.1678 -0.3103
  127MOL0     H17472   1.622   5.154   2.831  1.6011  0.6347 -1.6205
  127MOL0     H17473   1.682   5.152   2.594  0.0451 -0.3329  1.4371
  127MOL0     H17474   1.537   5.223   2.543 -0.8953 -1.2705 -0.5160
  127MOL0     H17475   1.807   5.371   2.825  2.4628  3.8116  0.8649
  127MOL0     H17476   1.770   5.682   2.876 -1.9975  1.3997 -0.3157
  127MOL0     H17477   1.836   5.762   2.751  0.2798 -0.2240  0.2474
  127MOL0     H17478   1.947   5.532   2.912 -0.9257 -1.8565 -1.4837
  127MOL0     H17479   2.031   5.561   2.770  1.3939 -0.0833  1.8493
  127MOL0     H17480   2.046   5.820   2.830 -0.2623 -1.1411 -2.1232
  127MOL0     H17481   1.994   5.775   2.984  0.4511  1.7371 -0.7739
  127MOL0     H17482   2.245   5.728   2.841 -2.8902  4.1173 -0.7711
  127MOL0     H17483   2.228   5.792   2.995  2.7378  1.4376 -1.7217
  127MOL0     H17484   2.211   5.452   3.209  0.1790 -0.2228 -0.4437
  127MOL0     H17485   2.340   5.473   3.542  0.5792 -1.0448  0.0679
  127MOL0     H17486   2.369   5.347   3.413 -1.1482 -1.2002 -1.0756
  127MOL0     H17487   2.218   5.404   3.433  1.8889 -3.6530 -1.0804
  127MOL0     H17488   2.841   5.457   3.603 -0.4838 -0.9944  1.8750
  127MOL0     H17489   2.937   5.469   3.821 -0.5638 -1.1132 -1.4922
  127MOL0     H17490   2.798   5.784   4.142  0.8449 -0.1336  1.1518
  127MOL0     H17491   2.724   5.624   4.148 -0.5312  0.5120 -0.0266
  127MOL0     H17492   2.855   5.668   4.334  1.4526 -2.4459  1.7400
  127MOL0     H17493   2.944   5.546   4.249 -0.1860  0.3330 -0.2850
  127MOL0     H17494   3.028   5.841   4.195 -1.8023 -0.8985 -1.3736
  127MOL0     H17495   3.104   5.693   4.150 -1.6118 -0.5431 -1.3206
  127MOL0     H17496   3.140   5.653   4.421 -0.2300  1.1847 -0.0453
  127MOL0     H17497   3.058   5.806   4.433 -0.1638  0.8733 -1.4241
  127MOL0     H17498   3.297   5.782   4.247 -1.1470  1.0872 -1.4406
  127MOL0     H17499   3.261   5.916   4.364  0.2333 -0.3408  2.4946
  127MOL0     H17500   3.458   5.801   4.426 -0.1246  1.2212  1.1341
  127MOL0     H17501   3.359   5.650   4.449  0.1296 -0.0563 -1.5422
  127MOL0     H17502   3.253   5.722   4.634  1.9615 -0.6018  1.8448
  127MOL0     H17503   3.291   5.893   4.610 -0.0418  0.8287  1.3527
  127MOL0     H17504   3.534   5.839   4.673  1.0951 -1.6050  0.9060
  127MOL0     H17505   3.495   5.675   4.693  1.7186  0.3273  3.1985
  127MOL0     H17506   2.665   5.795   3.914 -1.5795 -0.0479 -1.1191
  127MOL0     H17507   2.527   5.738   3.723 -0.9248 -1.9411 -1.5950
  127MOL0     H17508   2.574   5.786   3.216  0.0715 -0.7762  2.0539
  127MOL0     H17509   2.447   5.737   3.014 -2.2326  1.5602  0.8293
  127MOL0     H17510   0.798   5.651   2.669 -1.7334 -0.1181 -0.7586
  127MOL0     H17511   0.848   5.863   2.537  2.9060 -0.0289  1.8030
  127MOL0     H17512   0.657   6.098   2.084  0.3044 -0.1360  0.8276
  127MOL0     H17513   0.732   6.309   1.952 -1.2936 -1.4514 -0.1398
  127MOL0     H17514   1.043   6.615   1.932 -0.6878  0.6192  1.5598
  127MOL0     H17515   1.098   6.532   2.069  0.8577 -1.3463 -0.7134
  127MOL0     H17516   1.194   6.362   1.957  0.6995  0.5146  2.7939
  127MOL0     H17517   1.241   6.516   1.870 -1.9947  1.1735 -1.7752
  127MOL0     H17518   1.171   6.311   1.710 -4.2256  0.1747 -5.4234
  127MOL0     H17519   1.021   6.357   1.750  0.0263 -0.4528 -1.0338
  127MOL0     H17520   1.086   6.608   1.683  2.8224  0.7098  0.1967
  127MOL0     H17521   1.073   6.488   1.556 -0.9996 -1.3133  0.7547
  127MOL0     H17522   1.463   6.549   1.507 -1.7695  0.5061 -2.5050
  127MOL0     H17523   1.104   6.300   2.138  1.1043 -1.6769  1.1874
  127MOL0     H17524   1.053   6.023   2.335 -1.2121 -1.6461 -0.9851
  127MOL0     H17525   1.160   6.001   2.193 -1.1119 -1.8941  0.8907
  127MOL0     H17526   1.164   6.153   2.291  0.6552 -0.4415 -0.7156
  128MOL0     O17527   8.744  11.379  10.789 -0.3500 -0.0456  0.7831
  128MOL0     C17528   8.810  11.403  10.686 -0.1922 -0.5673  0.4252
  128MOL0     O17529   8.808  11.524  10.630 -0.5003 -0.0836  0.3499
  128MOL0     C17530   8.725  11.625  10.661 -0.2463 -0.1461  0.2395
  128MOL0     C17531   8.693  11.662  10.789  0.3883  0.2775 -0.1788
  128MOL0     C17532   8.608  11.764  10.814 -0.9135 -0.2245 -0.1999
  128MOL0     C17533   8.553  11.837  10.713  0.6839  0.5576  0.1536
  128MOL0     O17534   8.469  11.937  10.748 -0.4164 -0.0516  0.2827
  128MOL0     C17535   8.431  12.041  10.655 -0.7163  0.1592  0.1289
  128MOL0     C17536   8.310  12.129  10.695 -1.0070  0.7798  0.0396
  128MOL0     C17537   8.357  12.247  10.770  0.1699 -0.5591  0.4188
  128MOL0     C17538   8.457  12.229  10.885  0.3597  0.0518  0.1051
  128MOL0     C17539   8.508  12.358  10.949  0.4775  0.0929 -0.0883
  128MOL0     C17540   8.592  12.448  10.863  0.1342  0.6625  0.8939
  128MOL0     C17541   8.678  12.551  10.935 -0.8509 -0.8311 -0.0475
  128MOL0     C17542   8.688  12.671  10.838  0.1563 -0.5605 -0.9397
  128MOL0     N17543   8.762  12.785  10.892 -0.6012  0.7934 -0.2161
  128MOL0     C17544   8.710  12.894  10.959 -0.0575 -0.2157 -0.2051
  128MOL0     C17545   8.819  12.971  10.986 -0.0937 -0.8349 -0.4509
  128MOL0     C17546   8.817  13.117  11.028 -0.2458 -0.2653 -0.4282
  128MOL0     C17547   8.736  13.214  10.934  0.0089  0.0484 -0.9273
  128MOL0     C17548   8.804  13.227  10.796 -1.0514  0.6590  0.4802
  128MOL0     C17549   8.711  13.298  10.696 -0.1946 -0.2079 -0.0547
  128MOL0     O17550   8.602  13.231  10.656  0.8086  0.1013  0.0751
  128MOL0     C17551   8.615  13.113  10.600 -0.7858 -0.2960 -0.3549
  128MOL0     C17552   8.708  13.089  10.501 -0.4293 -0.2996  0.2256
  128MOL0     C17553   8.712  12.970  10.425  0.5307  0.5174 -0.6286
  128MOL0     C17554   8.800  12.955  10.303 -0.5830 -0.9967  0.0048
  128MOL0     C17555   8.623  12.863  10.465 -0.0285 -0.1846 -0.3429
  128MOL0     C17556   8.603  12.729  10.404 -0.0795  0.0342  0.5266
  128MOL0     O17557   8.510  12.642  10.463 -0.2455 -0.2940  0.3941
  128MOL0     C17558   8.522  12.507  10.432  0.9821  0.4706 -0.1368
  128MOL0     C17559   8.436  12.450  10.328 -0.3815  0.4396 -0.1866
  128MOL0     C17560   8.442  12.315  10.302 -0.1351  0.5411 -0.0213
  128MOL0     C17561   8.536  12.224  10.375 -0.0220  0.1374  0.7695
  128MOL0     O17562   8.548  12.086  10.360 -0.0302  0.2704 -0.3347
  128MOL0     C17563   8.497  12.038  10.234 -0.0263  0.6067  0.2461
  128MOL0     C17564   8.543  11.893  10.215 -0.3424  0.6221  0.2082
  128MOL0     C17565   8.512  11.841  10.076 -0.0793 -0.6225 -0.6332
  128MOL0     C17566   8.521  11.691  10.072  0.1741  0.1875  0.5173
  128MOL0     C17567   8.670  11.641  10.088 -0.4014  0.0727  0.0335
  128MOL0     C17568   8.689  11.490  10.046 -0.0660 -1.3163  1.0373
  128MOL0     C17569   8.613  11.409  10.156 -1.2198 -0.4030 -0.5475
  128MOL0     C17570   8.694  11.384  10.284 -0.7204 -0.1707  0.6531
  128MOL0    Cl17571   8.575  11.360  10.422 -0.1869 -0.0969  0.1048
  128MOL0     C17572   8.620  12.281  10.470  0.0230 -0.6877 -0.5018
  128MOL0     C17573   8.598  12.420  10.500 -0.9663  0.2599 -0.0658
  128MOL0     O17574   8.686  12.689  10.323  0.2177 -0.1459 -0.1601
  128MOL0     C17575   8.538  12.894  10.571 -1.2686  0.1668 -0.6043
  128MOL0     C17576   8.528  13.016  10.637 -0.5217  0.6086  0.7463
  128MOL0     N17577   8.929  12.906  10.937  0.3246 -0.7562 -0.7002
  128MOL0     N17578   8.895  12.795  10.882 -0.4575 -0.4700 -0.6549
  128MOL0     C17579   8.579  11.805  10.572 -0.1996 -0.1611 -1.2491
  128MOL0     C17580   8.673  11.697  10.557  0.1484 -0.5150  0.3391
  128MOL0     C17581   8.900  11.307  10.621 -0.1400 -0.4450 -0.8976
  128MOL0     C17582   8.950  11.331  10.487 -0.4612  0.4331 -0.5483
  128MOL0     C17583   9.035  11.240  10.426  0.0450 -0.2375 -0.0697
  128MOL0     C17584   9.087  11.128  10.498 -0.3689  0.2710 -0.2337
  128MOL0     O17585   9.179  11.050  10.442 -0.1782  0.3463 -0.2292
  128MOL0     C17586   9.209  10.922  10.500  0.0555 -0.1212  0.3263
  128MOL0     C17587   9.309  10.849  10.410  0.5710 -0.6518  0.0108
  128MOL0     C17588   9.345  10.699  10.452  0.4162 -0.4865  0.2947
  128MOL0     C17589   9.430  10.628  10.342  0.3026 -0.3499 -0.0627
  128MOL0     C17590   9.567  10.687  10.324 -0.1098 -0.8094  0.0300
  128MOL0     C17591   9.678  10.725  10.309 -0.0191 -0.4216  0.6951
  128MOL0     C17592   9.044  11.108  10.625 -0.9509  0.1204  0.2487
  128MOL0     C17593   8.951  11.193  10.692  0.2438  0.3925  0.5588
  128MOL0     C17594   8.936  11.155  10.840 -0.4444 -0.3533 -0.1720
  128MOL0     H17595   8.736  11.606  10.871  0.5430 -1.5803 -1.4684
  128MOL0     H17596   8.586  11.786  10.918 -2.2308 -0.7533 -0.3556
  128MOL0     H17597   8.389  11.975  10.578 -0.7985 -1.9143  1.8375
  128MOL0     H17598   8.511  12.102  10.613 -0.1345  0.3150  1.4156
  128MOL0     H17599   8.264  12.158  10.600  0.4891 -1.6175 -1.5105
  128MOL0     H17600   8.242  12.069  10.755  1.1997  0.2561  2.1883
  128MOL0     H17601   8.389  12.319  10.694  1.7888 -1.8242 -0.1834
  128MOL0     H17602   8.270  12.292  10.817  0.4397  1.4746 -0.8963
  128MOL0     H17603   8.405  12.165  10.956 -0.3998  1.0775  0.5025
  128MOL0     H17604   8.543  12.172  10.847 -1.5769 -3.1464  0.1306
  128MOL0     H17605   8.566  12.319  11.034  2.2964 -1.0120 -1.7604
  128MOL0     H17606   8.424  12.416  10.988 -0.8734 -0.3703 -2.1567
  128MOL0     H17607   8.660  12.390  10.799 -0.5043  0.4439  0.3977
  128MOL0     H17608   8.524  12.499  10.794  1.6992  1.5403 -0.0436
  128MOL0     H17609   8.780  12.522  10.962 -0.4161  1.0718  0.5350
  128MOL0     H17610   8.636  12.584  11.031  0.6627  0.3753  0.2510
  128MOL0     H17611   8.744  12.639  10.750 -1.2608 -2.0239 -1.3526
  128MOL0     H17612   8.593  12.713  10.804 -1.5151 -2.0237  1.6595
  128MOL0     H17613   8.603  12.908  10.972 -0.1746 -2.1467  1.4262
  128MOL0     H17614   8.920  13.153  11.023  0.3249 -1.5997  0.9210
  128MOL0     H17615   8.783  13.117  11.132  0.4173  0.3358 -0.2053
  128MOL0     H17616   8.638  13.166  10.922  0.1347 -0.2538 -0.7433
  128MOL0     H17617   8.712  13.311  10.980 -0.9233 -0.3244 -0.6002
  128MOL0     H17618   8.896  13.284  10.812 -3.4307  5.3851 -0.8569
  128MOL0     H17619   8.830  13.131  10.749 -1.4838  1.8115 -2.2782
  128MOL0     H17620   8.675  13.390  10.742  3.0974  0.5473  1.3088
  128MOL0     H17621   8.755  13.318  10.598  0.1549 -1.0459 -0.0809
  128MOL0     H17622   8.771  13.174  10.477 -1.5563  0.5752  0.3002
  128MOL0     H17623   8.866  12.869  10.293  0.3165 -0.0263 -3.7230
  128MOL0     H17624   8.859  13.045  10.288  0.3684 -1.7728 -1.0421
  128MOL0     H17625   8.735  12.951  10.216 -0.2197  3.3561 -0.6547
  128MOL0     H17626   8.376  12.520  10.270  2.6315  3.1804 -0.2410
  128MOL0     H17627   8.382  12.264  10.227  1.1612  0.8165 -1.2918
  128MOL0     H17628   8.388  12.044  10.235 -0.0794  0.5361 -1.7785
  128MOL0     H17629   8.538  12.093  10.150  1.0778 -1.8612 -0.9475
  128MOL0     H17630   8.650  11.898  10.239 -0.5461 -0.7919  1.5982
  128MOL0     H17631   8.497  11.823  10.285  1.9994 -0.7391  0.4972
  128MOL0     H17632   8.585  11.887  10.009 -0.6461  3.2345  1.1288
  128MOL0     H17633   8.410  11.863  10.046  0.4679  0.9275 -1.4149
  128MOL0     H17634   8.479  11.649   9.980  0.7427 -1.8932  1.1325
  128MOL0     H17635   8.451  11.650  10.145 -0.7723 -1.5203 -1.2423
  128MOL0     H17636   8.730  11.706  10.024 -1.1452 -1.3111 -2.1629
  128MOL0     H17637   8.698  11.662  10.192  1.2746  2.8194 -0.8708
  128MOL0     H17638   8.794  11.464  10.055 -0.3020 -2.7137 -0.0058
  128MOL0     H17639   8.647  11.473   9.946  1.3422 -0.6821  0.3184
  128MOL0     H17640   8.598  11.310  10.113  1.4565 -1.1945  0.1254
  128MOL0     H17641   8.516  11.454  10.178 -0.2954  0.8109  1.4048
  128MOL0     H17642   8.756  11.472  10.305  1.9451 -1.3543 -1.6627
  128MOL0     H17643   8.771  11.308  10.276  2.7456  3.0134  1.1668
  128MOL0     H17644   8.683  12.217  10.530  0.3129  0.9878  1.0427
  128MOL0     H17645   8.657  12.448  10.587  2.2626 -1.2409 -1.5938
  128MOL0     H17646   8.460  12.821  10.592 -1.4204 -0.1923 -2.2937
  128MOL0     H17647   8.456  13.018  10.718 -1.5149 -1.6670  0.0197
  128MOL0     H17648   8.529  11.853  10.489 -1.0766  2.7951  0.8256
  128MOL0     H17649   8.696  11.663  10.457  2.0497 -1.8411  1.1786
  128MOL0     H17650   8.938  11.429  10.440  0.1553  1.2799  0.9902
  128MOL0     H17651   9.084  11.264  10.332  0.3305 -0.7171 -0.0445
  128MOL0     H17652   9.244  10.926  10.604  0.0422  0.8096  0.3037
  128MOL0     H17653   9.115  10.867  10.502  0.0454 -0.1173 -0.1459
  128MOL0     H17654   9.396  10.913  10.432 -0.4748  1.3328 -1.3510
  128MOL0     H17655   9.287  10.865  10.304  0.9880  1.0863  0.1507
  128MOL0     H17656   9.413  10.694  10.538  0.9397  0.1640 -0.0639
  128MOL0     H17657   9.256  10.645  10.484  0.7049  1.2819  4.7199
  128MOL0     H17658   9.372  10.630  10.249 -1.7059 -2.8353  1.0265
  128MOL0     H17659   9.452  10.524  10.367  1.0621  0.7255  4.7754
  128MOL0     H17660   9.783  10.748  10.312 -0.2650  0.8114  0.3785
  128MOL0     H17661   9.090  11.031  10.686 -1.1594 -0.2829 -0.1020
  128MOL0     H17662   9.038  11.158  10.880 -0.4178  1.1202 -0.3084
  128MOL0     H17663   8.876  11.225  10.898  0.5471  0.0172  0.4452
  128MOL0     H17664   8.901  11.052  10.848  1.5516 -1.2867 -2.1217
  129MOL0     O17665   7.195   1.264   1.607  0.3509  0.0208  0.1137
  129MOL0     C17666   7.173   1.384   1.595 -0.1678  0.4190  0.0935
  129MOL0     O17667   7.258   1.480   1.553 -0.4487 -0.2647 -0.1598
  129MOL0     C17668   7.379   1.445   1.519 -0.7873 -1.1340  0.1644
  129MOL0     C17669   7.486   1.427   1.614 -0.6784 -0.4385  0.8736
  129MOL0     C17670   7.620   1.433   1.567  0.7329  0.1668 -0.5403
  129MOL0     C17671   7.643   1.442   1.432 -0.4704  0.3474 -0.2838
  129MOL0     O17672   7.764   1.425   1.362 -0.0865  0.7497  0.5186
  129MOL0     C17673   7.879   1.382   1.433 -0.0655  0.5495  0.4460
  129MOL0     C17674   7.999   1.371   1.335 -0.4485 -0.0705  0.3360
  129MOL0     C17675   8.124   1.327   1.409 -0.9285 -1.2356  0.3069
  129MOL0     C17676   8.120   1.180   1.454  0.5879  0.1422 -0.2938
  129MOL0     C17677   8.252   1.144   1.521  0.4086 -0.0318 -0.7041
  129MOL0     C17678   8.240   1.024   1.608 -0.9174  0.1482  0.0288
  129MOL0     C17679   8.358   0.980   1.700 -0.3342  0.4618  0.9269
  129MOL0     C17680   8.489   0.933   1.629  0.9489 -0.5948  0.3895
  129MOL0     N17681   8.471   0.841   1.523 -0.3630 -0.5480  0.0002
  129MOL0     C17682   8.475   0.866   1.390  0.3366 -0.5343 -0.9164
  129MOL0     C17683   8.446   0.750   1.333 -1.0628 -0.6961  0.1489
  129MOL0     C17684   8.413   0.743   1.188 -0.2897  0.8610 -0.2959
  129MOL0     C17685   8.262   0.748   1.166 -0.4650 -0.2256 -0.2999
  129MOL0     C17686   8.185   0.862   1.240 -0.1556 -0.1091  0.0226
  129MOL0     C17687   8.047   0.875   1.190 -0.5389 -0.5408  0.8236
  129MOL0     O17688   7.984   0.999   1.222 -0.1497 -0.2089 -0.2338
  129MOL0     C17689   7.845   0.993   1.205 -0.5690 -0.2137  0.1995
  129MOL0     C17690   7.765   1.050   1.297  0.4618 -0.2178 -0.5358
  129MOL0     C17691   7.623   1.042   1.296  0.7785 -0.5718  0.7026
  129MOL0     C17692   7.544   1.112   1.414  0.9174  0.5805 -0.0542
  129MOL0     C17693   7.561   0.994   1.181  0.0007  0.2018  0.2657
  129MOL0     C17694   7.409   1.007   1.156 -0.1644 -0.1849 -0.0810
  129MOL0     O17695   7.350   1.119   1.199  0.1099 -0.1616 -0.0147
  129MOL0     C17696   7.214   1.147   1.175  0.4408 -0.5062  0.0069
  129MOL0     C17697   7.137   1.102   1.068  1.1275  0.4072  0.3265
  129MOL0     C17698   6.992   1.130   1.058 -0.5349  0.0008  0.0943
  129MOL0     C17699   6.927   1.199   1.166  1.0794  1.2600  0.1616
  129MOL0     O17700   6.788   1.205   1.161  0.7267 -0.1043 -0.0495
  129MOL0     C17701   6.716   1.181   1.284  0.1425 -0.2453  0.4757
  129MOL0     C17702   6.566   1.177   1.256 -0.7362 -0.7919 -0.5598
  129MOL0     C17703   6.477   1.118   1.371 -0.1760  0.1655  0.1375
  129MOL0     C17704   6.518   1.182   1.507  0.2214 -0.0777  0.2944
  129MOL0     C17705   6.413   1.161   1.619  0.2218  0.3013  0.3481
  129MOL0     C17706   6.285   1.233   1.613  0.4223 -0.4443 -0.6505
  129MOL0     C17707   6.190   1.156   1.707 -0.0563 -0.1970 -0.2240
  129MOL0     C17708   6.055   1.215   1.733  0.6944 -0.2759 -0.1375
  129MOL0    Cl17709   5.979   1.080   1.806  0.5743  0.1044 -0.2010
  129MOL0     C17710   7.010   1.244   1.268 -0.1708  0.1492  0.3218
  129MOL0     C17711   7.141   1.226   1.265 -0.6349  0.3144  0.3389
  129MOL0     O17712   7.364   0.908   1.096  0.0382  0.1881 -0.2489
  129MOL0     C17713   7.646   0.951   1.080 -0.3758 -0.3639  0.0612
  129MOL0     C17714   7.788   0.945   1.097 -0.2408  0.2471  1.5440
  129MOL0     N17715   8.444   0.652   1.436 -0.1520  0.3714  0.5541
  129MOL0     N17716   8.464   0.708   1.546 -0.0050 -0.1768 -0.5360
  129MOL0     C17717   7.544   1.470   1.346 -0.1716  0.1653  0.5219
  129MOL0     C17718   7.409   1.474   1.381 -0.4872 -0.1693 -0.1672
  129MOL0     C17719   7.025   1.428   1.603  0.3911 -1.0852 -0.0686
  129MOL0     C17720   6.985   1.558   1.585  0.5635 -0.2086 -0.0840
  129MOL0     C17721   6.856   1.606   1.611  0.0575  0.8858 -0.4698
  129MOL0     C17722   6.765   1.520   1.670  0.7570 -0.1046  0.0657
  129MOL0     O17723   6.652   1.575   1.736 -0.8708  0.4455  0.0718
  129MOL0     C17724   6.570   1.500   1.823  0.0002 -0.2525  0.6037
  129MOL0     C17725   6.625   1.488   1.957  0.3150  0.0867  0.7988
  129MOL0     C17726   6.525   1.407   2.054 -0.1001 -0.3711 -0.3409
  129MOL0     C17727   6.399   1.491   2.101 -0.1778 -0.3847  0.0482
  129MOL0     C17728   6.319   1.417   2.198  0.3356 -0.3930  0.2776
  129MOL0     C17729   6.259   1.372   2.290 -0.3582  0.1840 -0.6579
  129MOL0     C17730   6.791   1.383   1.674  0.5147  0.5494  0.0020
  129MOL0     C17731   6.918   1.338   1.629 -0.0382 -0.1141 -0.2256
  129MOL0     C17732   6.915   1.187   1.612  0.5341 -0.7157 -0.6202
  129MOL0     H17733   7.456   1.404   1.716  1.1800  1.9858  2.0767
  129MOL0     H17734   7.691   1.408   1.645 -1.0095 -0.1925  1.0008
  129MOL0     H17735   7.861   1.281   1.472  2.8832 -1.5006 -2.9128
  129MOL0     H17736   7.903   1.446   1.518  1.3725 -0.6730  1.0093
  129MOL0     H17737   7.982   1.300   1.253  1.9793 -1.3997  0.8773
  129MOL0     H17738   8.021   1.474   1.304 -2.4067  0.3683  0.2981
  129MOL0     H17739   8.209   1.336   1.339 -0.5285 -0.9501  0.8238
  129MOL0     H17740   8.143   1.388   1.497  0.9319  1.3044 -1.6928
  129MOL0     H17741   8.038   1.155   1.521  1.2615  3.1263  1.8688
  129MOL0     H17742   8.119   1.114   1.367  1.1102  0.1472 -0.3054
  129MOL0     H17743   8.278   1.229   1.585  1.6967 -1.6443  0.9987
  129MOL0     H17744   8.332   1.138   1.447  0.4038  0.8969 -0.8057
  129MOL0     H17745   8.159   1.043   1.679 -0.0463 -1.9450  1.7082
  129MOL0     H17746   8.215   0.939   1.546  1.5425  0.6464 -1.8070
  129MOL0     H17747   8.318   0.899   1.761 -0.5115  0.1403  0.3977
  129MOL0     H17748   8.374   1.063   1.769  3.7598 -0.4038  1.2682
  129MOL0     H17749   8.547   1.015   1.587  1.9786 -1.7139 -0.4609
  129MOL0     H17750   8.556   0.900   1.709  0.7926  2.6077  1.9689
  129MOL0     H17751   8.474   0.959   1.335 -1.9176  1.3557  2.0176
  129MOL0     H17752   8.445   0.649   1.141  0.4498  0.0138  1.8020
  129MOL0     H17753   8.458   0.825   1.130  0.4864 -0.8908 -2.2915
  129MOL0     H17754   8.233   0.747   1.061 -1.0279 -1.7120 -0.1568
  129MOL0     H17755   8.208   0.661   1.205 -1.2815  0.0361 -0.8285
  129MOL0     H17756   8.184   0.837   1.347  2.2370  0.0138  0.1343
  129MOL0     H17757   8.239   0.956   1.230  0.1633 -0.1730  1.0193
  129MOL0     H17758   8.053   0.872   1.081  0.6444 -2.7612  0.8875
  129MOL0     H17759   7.987   0.787   1.212  2.0267 -2.5396  0.3049
  129MOL0     H17760   7.817   1.099   1.379  0.3473 -2.3003  0.8441
  129MOL0     H17761   7.598   1.126   1.509 -1.5073 -0.6354  1.6136
  129MOL0     H17762   7.449   1.064   1.438  0.7775  1.6629  1.8171
  129MOL0     H17763   7.516   1.205   1.364  0.5712  1.5286  1.8035
  129MOL0     H17764   7.187   1.043   0.992 -1.1689 -0.6301 -0.4690
  129MOL0     H17765   6.923   1.092   0.983  0.6560  3.0965 -2.8777
  129MOL0     H17766   6.757   1.084   1.312  1.6083  0.0848 -0.4254
  129MOL0     H17767   6.735   1.252   1.365 -0.7527  0.7274 -0.1298
  129MOL0     H17768   6.532   1.281   1.248  1.5250  0.1650  1.2086
  129MOL0     H17769   6.540   1.122   1.165 -2.9722  1.8627 -1.6575
  129MOL0     H17770   6.491   1.010   1.378  3.1577  0.3102 -1.8818
  129MOL0     H17771   6.376   1.154   1.350  0.8960  1.4891 -3.8242
  129MOL0     H17772   6.532   1.289   1.492 -0.8773 -0.1119 -1.1430
  129MOL0     H17773   6.614   1.137   1.535  0.3577 -0.4624 -0.7636
  129MOL0     H17774   6.389   1.056   1.636  2.7197 -0.5888 -1.2517
  129MOL0     H17775   6.455   1.200   1.712  1.0855  0.9595 -0.2979
  129MOL0     H17776   6.239   1.229   1.515  1.8824 -0.5638 -1.3660
  129MOL0     H17777   6.290   1.337   1.648 -3.3296 -0.2896 -0.1680
  129MOL0     H17778   6.253   1.135   1.793  0.5945  2.1518 -0.0572
  129MOL0     H17779   6.165   1.068   1.647 -1.1767 -2.3403  3.1463
  129MOL0     H17780   6.014   1.247   1.637 -0.5134 -0.4348  0.3151
  129MOL0     H17781   6.069   1.296   1.804  1.6952  0.4736 -1.1463
  129MOL0     H17782   6.971   1.316   1.339 -1.5703 -0.0871 -0.1679
  129MOL0     H17783   7.205   1.258   1.346 -0.9973 -1.0610  1.1995
  129MOL0     H17784   7.606   0.917   0.985  1.3158 -0.2606 -0.7215
  129MOL0     H17785   7.848   0.900   1.018 -4.2839 -1.9006 -0.6327
  129MOL0     H17786   7.577   1.486   1.244 -1.1948 -1.6401 -0.1527
  129MOL0     H17787   7.331   1.511   1.315  0.7304  1.8453 -0.5603
  129MOL0     H17788   7.053   1.635   1.547  0.1247  0.3091  0.1632
  129MOL0     H17789   6.828   1.710   1.597  0.0887  1.1407  1.0874
  129MOL0     H17790   6.470   1.544   1.831  0.0966  0.2079 -0.5099
  129MOL0     H17791   6.546   1.403   1.778 -1.3667  0.7791 -1.0382
  129MOL0     H17792   6.649   1.589   1.990  0.8866  1.0029 -2.1048
  129MOL0     H17793   6.718   1.431   1.955 -0.1480 -0.9621 -4.5014
  129MOL0     H17794   6.498   1.313   2.005  1.1435 -0.6094 -0.6001
  129MOL0     H17795   6.583   1.377   2.142 -3.3067  1.2226  2.5235
  129MOL0     H17796   6.338   1.509   2.012  0.2258  1.1226  0.0531
  129MOL0     H17797   6.429   1.585   2.148  0.4536 -1.3616  1.7012
  129MOL0     H17798   6.213   1.340   2.382  0.4266  1.3891  0.1966
  129MOL0     H17799   6.715   1.317   1.716  0.0882 -2.1487 -4.4101
  129MOL0     H17800   6.813   1.149   1.615  0.7091 -1.2844 -1.6418
  129MOL0     H17801   6.954   1.166   1.512 -1.9126 -0.8913 -1.5946
  129MOL0     H17802   6.975   1.144   1.694 -0.9595 -2.2821 -0.2876
  130MOL0     O17803   2.846   9.437   8.175  0.3720 -0.5947  0.5880
  130MOL0     C17804   2.869   9.417   8.295  0.1824 -0.5895  1.1583
  130MOL0     O17805   2.970   9.475   8.370 -0.0704  0.7762  0.5390
  130MOL0     C17806   3.055   9.567   8.309 -0.1804  1.1873  0.1061
  130MOL0     C17807   3.151   9.544   8.210 -0.2654  0.6984 -0.1196
  130MOL0     C17808   3.238   9.640   8.164  0.9377  0.1170 -0.5464
  130MOL0     C17809   3.217   9.771   8.207 -0.4266 -0.8520 -0.4716
  130MOL0     O17810   3.298   9.859   8.138  0.0181 -0.3321 -0.2794
  130MOL0     C17811   3.248   9.996   8.125  0.0366  0.5440 -0.0926
  130MOL0     C17812   3.361  10.096   8.131  0.8896  0.2149  0.1141
  130MOL0     C17813   3.336  10.216   8.049  0.0256  0.0533 -0.6006
  130MOL0     C17814   3.239  10.316   8.116  0.6964  0.6612 -0.5854
  130MOL0     C17815   3.210  10.440   8.025 -0.2033  0.0794 -0.0497
  130MOL0     C17816   3.182  10.564   8.117  1.0897 -1.3313 -0.6408
  130MOL0     C17817   3.117  10.689   8.050 -0.7892 -0.0324 -0.0997
  130MOL0     C17818   3.181  10.733   7.918 -0.0507 -0.6430 -0.2867
  130MOL0     N17819   3.315  10.785   7.945  0.8320 -0.3718  0.6625
  130MOL0     C17820   3.425  10.715   7.935  0.6966  0.4519  0.4519
  130MOL0     C17821   3.519  10.793   7.984  0.4613 -0.4206 -0.9057
  130MOL0     C17822   3.667  10.747   7.989 -0.4133 -0.7167 -0.3745
  130MOL0     C17823   3.742  10.796   7.861 -0.1810  0.1850  0.3317
  130MOL0     C17824   3.697  10.708   7.741  0.2821 -0.0078 -0.0552
  130MOL0     C17825   3.692  10.548   7.758  0.9774  0.0125 -0.0105
  130MOL0     O17826   3.822  10.502   7.805 -0.0854 -1.3828  0.4572
  130MOL0     C17827   3.833  10.381   7.855  0.4719 -0.7373 -0.2787
  130MOL0     C17828   3.949  10.360   7.928 -0.4895 -0.0061  0.4070
  130MOL0     C17829   3.981  10.233   7.976 -0.4606 -1.2684 -0.1108
  130MOL0     C17830   4.111  10.233   8.049  0.6519 -0.5616  0.3154
  130MOL0     C17831   3.885  10.126   7.958 -0.3328 -0.7385  1.1227
  130MOL0     C17832   3.918   9.984   7.995  0.3970  1.1240  0.6235
  130MOL0     O17833   3.807   9.901   7.974 -0.1466  0.0444  0.8221
  130MOL0     C17834   3.815   9.768   8.004  0.0722  0.1500 -1.1123
  130MOL0     C17835   3.703   9.718   8.071  0.3791  0.5373 -0.4055
  130MOL0     C17836   3.697   9.585   8.105  0.3921 -0.0420  0.1593
  130MOL0     C17837   3.789   9.493   8.070  0.6168 -0.5564 -0.5293
  130MOL0     O17838   3.772   9.361   8.110  0.6769 -0.6588 -0.0606
  130MOL0     C17839   3.807   9.260   8.013 -0.2931  0.5138  0.6381
  130MOL0     C17840   3.716   9.240   7.887  0.0954 -0.5841 -0.4686
  130MOL0     C17841   3.578   9.204   7.943  0.0286 -0.2317 -0.4489
  130MOL0     C17842   3.492   9.170   7.827  0.1148 -0.5834 -0.7366
  130MOL0     C17843   3.352   9.143   7.874  0.3700  0.5756  0.8468
  130MOL0     C17844   3.258   9.167   7.747 -0.6044 -0.0972  0.5284
  130MOL0     C17845   3.100   9.174   7.776  0.0678 -0.2669 -0.9302
  130MOL0     C17846   3.014   9.162   7.653 -0.6895 -0.4314 -0.5968
  130MOL0    Cl17847   2.850   9.119   7.694  0.2129 -0.2740  0.5323
  130MOL0     C17848   3.901   9.545   8.006 -0.6841  1.3288  0.4359
  130MOL0     C17849   3.913   9.676   7.973 -0.3548 -1.1306 -1.1310
  130MOL0     O17850   4.030   9.951   8.028 -0.2906 -0.3945 -0.1025
  130MOL0     C17851   3.763  10.153   7.894  0.1361 -0.4065  0.1777
  130MOL0     C17852   3.745  10.278   7.837 -0.2439 -0.6038 -0.0859
  130MOL0     N17853   3.460  10.917   8.017 -0.2461  0.0897  0.9875
  130MOL0     N17854   3.335  10.903   7.998  0.7080  0.1048 -1.0494
  130MOL0     C17855   3.125   9.796   8.311 -0.6042 -0.3889 -0.1784
  130MOL0     C17856   3.049   9.691   8.361 -0.1782 -1.3404  0.2756
  130MOL0     C17857   2.800   9.301   8.348  0.0499  0.3358  0.4681
  130MOL0     C17858   2.726   9.323   8.462 -0.6849  1.4634  0.2292
  130MOL0     C17859   2.646   9.222   8.518 -0.3848 -0.0019  0.2914
  130MOL0     C17860   2.647   9.095   8.457  0.6410 -0.3344  0.8034
  130MOL0     O17861   2.563   9.005   8.512  0.5474  0.4410 -0.4051
  130MOL0     C17862   2.543   8.880   8.451  0.0125 -0.0313  0.1833
  130MOL0     C17863   2.424   8.807   8.508  0.1155  0.3390  0.0729
  130MOL0     C17864   2.283   8.866   8.461  0.0399  0.2912  0.2308
  130MOL0     C17865   2.158   8.772   8.492 -0.3161 -0.6349  0.0884
  130MOL0     C17866   2.184   8.646   8.429 -0.3528 -0.1437 -0.1791
  130MOL0     C17867   2.195   8.539   8.368 -0.6660 -0.2241 -0.2140
  130MOL0     C17868   2.720   9.076   8.338  1.1226  0.3204  0.7972
  130MOL0     C17869   2.797   9.174   8.288 -0.1646 -0.0427  0.0834
  130MOL0     C17870   2.888   9.150   8.173  1.0385  0.2783 -0.3696
  130MOL0     H17871   3.161   9.442   8.174 -0.7916  0.6034 -0.0059
  130MOL0     H17872   3.304   9.615   8.082  1.2732 -1.2477  0.1043
  130MOL0     H17873   3.163  10.029   8.185  0.3414  0.4174  0.4142
  130MOL0     H17874   3.212   9.996   8.021 -0.0081  1.3219 -0.0844
  130MOL0     H17875   3.395  10.111   8.234 -0.3225  1.5622  0.3534
  130MOL0     H17876   3.450  10.048   8.090 -0.1364 -2.6907  1.0227
  130MOL0     H17877   3.432  10.259   8.018  1.1745 -3.7014 -2.9407
  130MOL0     H17878   3.289  10.195   7.952 -1.2561  1.1183 -0.2446
  130MOL0     H17879   3.150  10.263   8.151  0.1479 -0.6837 -3.7235
  130MOL0     H17880   3.270  10.351   8.215 -1.9379  2.2967 -0.2224
  130MOL0     H17881   3.125  10.419   7.960  0.6559  0.1280 -1.2318
  130MOL0     H17882   3.291  10.447   7.952 -0.4041 -1.2716 -0.4235
  130MOL0     H17883   3.102  10.531   8.183  0.2024  1.9448  0.1321
  130MOL0     H17884   3.262  10.596   8.184  0.1789 -1.6078  0.6218
  130MOL0     H17885   3.131  10.773   8.118  4.1383 -0.5632 -0.0824
  130MOL0     H17886   3.010  10.670   8.045 -0.4362 -2.0148 -0.9782
  130MOL0     H17887   3.185  10.658   7.839 -1.4130 -1.2155  0.1543
  130MOL0     H17888   3.127  10.819   7.876 -0.2204 -1.4001 -1.6837
  130MOL0     H17889   3.430  10.615   7.893  0.3296  1.0675 -1.1506
  130MOL0     H17890   3.671  10.638   7.998  2.3618 -0.5621  1.3499
  130MOL0     H17891   3.706  10.787   8.083 -1.7166 -1.5940  0.5827
  130MOL0     H17892   3.731  10.902   7.839  3.7356  0.4425 -1.0813
  130MOL0     H17893   3.848  10.782   7.883 -0.4049 -1.7221  0.3767
  130MOL0     H17894   3.597  10.738   7.707  0.5872  2.2846  0.9108
  130MOL0     H17895   3.771  10.729   7.663  1.6353 -0.1039  1.1693
  130MOL0     H17896   3.604  10.520   7.817 -0.3453  1.2577 -1.3224
  130MOL0     H17897   3.673  10.502   7.660 -2.0820  1.7443 -0.3758
  130MOL0     H17898   4.011  10.446   7.951 -1.0988  1.1804 -2.0807
  130MOL0     H17899   4.134  10.147   8.113  1.2136 -1.0169 -0.4743
  130MOL0     H17900   4.110  10.318   8.117  1.0043 -0.3798  0.0930
  130MOL0     H17901   4.189  10.246   7.974 -0.7969  2.2103 -0.8612
  130MOL0     H17902   3.640   9.793   8.118  2.3847  1.0997  1.6049
  130MOL0     H17903   3.616   9.546   8.165 -0.9355  3.1458  0.6488
  130MOL0     H17904   3.909   9.271   7.976  0.7764  1.5168  3.6188
  130MOL0     H17905   3.800   9.180   8.088  0.5405  1.5056  1.8332
  130MOL0     H17906   3.722   9.334   7.832 -0.4882  0.3279  0.9667
  130MOL0     H17907   3.746   9.162   7.816  0.9526  0.5719 -1.3969
  130MOL0     H17908   3.543   9.288   8.003 -0.3339  1.8760 -3.4231
  130MOL0     H17909   3.588   9.119   8.011 -1.6630 -0.6483 -0.6757
  130MOL0     H17910   3.531   9.083   7.773  0.2840  0.3838 -2.2100
  130MOL0     H17911   3.482   9.264   7.773 -5.9839  0.0718  0.8337
  130MOL0     H17912   3.341   9.039   7.905  1.2053 -0.2058 -1.2512
  130MOL0     H17913   3.328   9.214   7.953  0.0277 -1.0501  2.2550
  130MOL0     H17914   3.279   9.102   7.662 -1.1543  1.2936 -0.7345
  130MOL0     H17915   3.276   9.269   7.711 -3.0924 -0.1759 -1.2941
  130MOL0     H17916   3.075   9.269   7.825  0.2161  1.6332 -4.2273
  130MOL0     H17917   3.077   9.096   7.849  0.8544  0.8542  0.5914
  130MOL0     H17918   3.046   9.087   7.580  1.2905 -0.5229  0.3034
  130MOL0     H17919   3.000   9.256   7.599 -2.4695  1.1590  2.3600
  130MOL0     H17920   3.987   9.482   7.987 -0.3971  1.3916  1.4725
  130MOL0     H17921   4.009   9.707   7.933 -0.3575  2.7015  1.3345
  130MOL0     H17922   3.680  10.084   7.881  1.2000 -2.6913  3.9604
  130MOL0     H17923   3.648  10.293   7.789 -0.1647  5.7601  0.8478
  130MOL0     H17924   3.111   9.897   8.347 -0.4343  0.5774 -2.6203
  130MOL0     H17925   2.976   9.718   8.437 -1.0332  2.8022 -1.6985
  130MOL0     H17926   2.720   9.423   8.505 -0.3781  0.8899  1.6483
  130MOL0     H17927   2.585   9.237   8.606 -0.8161 -0.3476  0.0513
  130MOL0     H17928   2.529   8.901   8.344  0.1383  2.2038  0.5572
  130MOL0     H17929   2.630   8.816   8.469  1.1872  1.8067  1.3664
  130MOL0     H17930   2.430   8.806   8.618  0.7607  1.1828  0.0470
  130MOL0     H17931   2.427   8.705   8.468 -0.5401  0.1617  0.4555
  130MOL0     H17932   2.258   8.962   8.507 -0.4004 -0.0112  0.6377
  130MOL0     H17933   2.278   8.868   8.352 -0.6002 -1.9883  0.1747
  130MOL0     H17934   2.075   8.812   8.434 -1.3854 -1.1073  1.2333
  130MOL0     H17935   2.130   8.777   8.598 -1.6853  4.1116 -0.2339
  130MOL0     H17936   2.206   8.446   8.316 -1.5382  0.7838 -2.3067
  130MOL0     H17937   2.723   8.982   8.284 -0.7455  1.1349 -0.8556
  130MOL0     H17938   2.972   9.221   8.178  0.3250  1.0716  1.0147
  130MOL0     H17939   2.929   9.049   8.172 -0.9778 -0.6882  2.8151
  130MOL0     H17940   2.836   9.164   8.077  1.3445 -5.3688 -1.7030
  131MOL0     O17941   0.984   5.086   6.435  0.9071  0.4453 -0.6045
  131MOL0     C17942   0.929   5.116   6.542 -1.7841  0.5209 -0.2539
  131MOL0     O17943   0.997   5.118   6.655  0.5879  0.0594  0.1328
  131MOL0     C17944   1.122   5.073   6.664 -1.0858  0.8380 -0.3738
  131MOL0     C17945   1.163   4.937   6.641  0.9386  0.1662 -0.6529
  131MOL0     C17946   1.290   4.891   6.659  0.1144 -1.2293  0.3982
  131MOL0     C17947   1.392   4.976   6.695  0.3903  0.4130  0.3110
  131MOL0     O17948   1.509   4.911   6.704 -0.2592  0.3199 -0.3190
  131MOL0     C17949   1.616   4.980   6.776 -0.7799 -0.5988  0.3561
  131MOL0     C17950   1.729   5.013   6.676 -0.3789 -0.2100 -0.3399
  131MOL0     C17951   1.849   5.103   6.734  0.5231 -0.5245 -0.3718
  131MOL0     C17952   1.967   5.096   6.643 -0.6672 -0.2784  0.2190
  131MOL0     C17953   2.099   5.161   6.703 -0.7530 -0.2430 -0.2473
  131MOL0     C17954   2.227   5.080   6.684  0.0247  0.1381  0.2435
  131MOL0     C17955   2.352   5.176   6.707  0.6971 -0.4885 -0.3717
  131MOL0     C17956   2.385   5.197   6.864  0.9442 -1.1381 -0.1291
  131MOL0     N17957   2.506   5.269   6.877  0.2542  0.1256  0.0135
  131MOL0     C17958   2.637   5.208   6.878  0.6058 -0.8431 -0.0347
  131MOL0     C17959   2.718   5.316   6.902  0.4014 -0.0507  0.4752
  131MOL0     C17960   2.861   5.305   6.924  0.6497 -0.0338  0.5058
  131MOL0     C17961   2.927   5.438   6.910  0.4775 -0.8063  0.0604
  131MOL0     C17962   3.077   5.433   6.924 -0.3367 -0.0015  0.3597
  131MOL0     C17963   3.137   5.571   6.938 -0.2983 -0.1367  0.0951
  131MOL0     O17964   3.285   5.572   6.942  0.0588 -0.5493  0.2233
  131MOL0     C17965   3.358   5.687   6.967  0.5679 -1.0009  0.2007
  131MOL0     C17966   3.290   5.807   6.975  0.0879 -0.5430 -0.6476
  131MOL0     C17967   3.364   5.928   7.004  0.0906  0.4541 -0.4114
  131MOL0     C17968   3.278   6.046   7.025 -0.3697 -1.2371 -0.0128
  131MOL0     C17969   3.502   5.915   7.038 -0.0784 -0.1445  0.5603
  131MOL0     C17970   3.587   6.030   7.065  0.2679  0.3217 -0.9927
  131MOL0     O17971   3.705   5.987   7.110 -0.4387  0.1095  0.0900
  131MOL0     C17972   3.789   6.076   7.166 -0.7676 -0.2617 -0.5176
  131MOL0     C17973   3.773   6.129   7.298 -0.5278 -0.2381  0.5092
  131MOL0     C17974   3.856   6.233   7.337 -0.2135  0.0852 -0.7212
  131MOL0     C17975   3.972   6.267   7.267 -0.5847  0.2079 -0.4066
  131MOL0     O17976   4.066   6.364   7.316 -0.0613  0.0283  0.2318
  131MOL0     C17977   4.057   6.405   7.456  0.8723  0.0342  0.1945
  131MOL0     C17978   4.193   6.463   7.506  0.1036  0.2956 -0.1982
  131MOL0     C17979   4.216   6.594   7.434  1.1238  0.1351 -0.7839
  131MOL0     C17980   4.353   6.646   7.477 -0.2059 -1.2632 -0.0926
  131MOL0     C17981   4.349   6.802   7.478  0.0654 -0.0468 -0.0930
  131MOL0     C17982   4.343   6.863   7.338  0.0246 -0.3081  0.4798
  131MOL0     C17983   4.458   6.809   7.249 -0.6428  0.1095 -0.4818
  131MOL0     C17984   4.459   6.896   7.121 -0.6787  0.2893  0.1229
  131MOL0    Cl17985   4.304   6.892   7.031 -0.2103 -0.2117  0.3851
  131MOL0     C17986   3.988   6.221   7.140 -0.1822  0.2046  0.4425
  131MOL0     C17987   3.890   6.133   7.088 -0.1696  0.6440 -1.0653
  131MOL0     O17988   3.550   6.149   7.059  0.3986  0.1583  0.2130
  131MOL0     C17989   3.564   5.789   7.028 -0.1434 -0.3002  0.1477
  131MOL0     C17990   3.495   5.678   6.992 -0.2886 -0.0265  0.7479
  131MOL0     N17991   2.642   5.433   6.897  0.3199 -0.4883 -0.5432
  131MOL0     N17992   2.517   5.404   6.889  0.4277  0.2350 -0.2271
  131MOL0     C17993   1.362   5.115   6.714 -0.4226  0.1125  0.4612
  131MOL0     C17994   1.226   5.158   6.712 -0.3449  0.5079  0.1582
  131MOL0     C17995   0.782   5.148   6.530 -0.0338 -0.6443  0.2378
  131MOL0     C17996   0.729   5.156   6.405  0.1010  0.1167 -0.4234
  131MOL0     C17997   0.585   5.177   6.391 -0.5859  0.3205 -0.1996
  131MOL0     C17998   0.500   5.195   6.503  0.0614  0.5017  0.0003
  131MOL0     O17999   0.363   5.213   6.495 -0.1058  0.2286  0.0439
  131MOL0     C18000   0.297   5.151   6.378  0.5810 -0.4853  0.0075
  131MOL0     C18001   0.233   5.273   6.307  0.0001  0.5250  0.3543
  131MOL0     C18002   0.173   5.242   6.169 -0.1287  0.1710  0.9319
  131MOL0     C18003   0.099   5.362   6.109  0.1684 -0.0800 -0.3291
  131MOL0     C18004   0.079   5.350   5.967 -0.7706 -0.2881 -0.8931
  131MOL0     C18005   0.035   5.325   5.853  0.5030 -0.2643 -0.2873
  131MOL0     C18006   0.565   5.178   6.628  0.9041 -0.2724 -0.6401
  131MOL0     C18007   0.704   5.164   6.645 -0.3698  0.7870  0.3846
  131MOL0     C18008   0.751   5.179   6.790  0.6923 -0.1493  0.4160
  131MOL0     H18009   1.091   4.871   6.595  1.0916 -0.0723 -0.5512
  131MOL0     H18010   1.312   4.791   6.621  3.1929  0.2408 -2.1682
  131MOL0     H18011   1.655   4.909   6.849 -2.9882 -1.3334  0.8678
  131MOL0     H18012   1.586   5.063   6.841  3.6365  1.0134  0.7085
  131MOL0     H18013   1.773   4.924   6.631  2.7886  2.0332 -2.1483
  131MOL0     H18014   1.695   5.077   6.593 -0.5778  0.4904  0.2739
  131MOL0     H18015   1.810   5.206   6.736 -1.9591 -1.2849 -2.7675
  131MOL0     H18016   1.884   5.063   6.829 -0.9425  0.7370  0.7722
  131MOL0     H18017   1.990   4.991   6.625 -1.5558 -0.3333 -0.7028
  131MOL0     H18018   1.946   5.124   6.539 -1.0417 -4.2574 -0.9454
  131MOL0     H18019   2.088   5.177   6.810  2.1951  3.0521 -0.2442
  131MOL0     H18020   2.123   5.256   6.654  1.2442 -0.2482  0.6366
  131MOL0     H18021   2.213   4.989   6.743  3.2485  0.8112  2.3008
  131MOL0     H18022   2.235   5.051   6.579 -0.2586 -0.3628  0.3568
  131MOL0     H18023   2.342   5.279   6.672  0.3240  0.2055  1.6808
  131MOL0     H18024   2.435   5.118   6.664 -0.4761 -4.9782  2.6879
  131MOL0     H18025   2.297   5.251   6.899  1.2131 -0.8082  0.0429
  131MOL0     H18026   2.392   5.103   6.919  0.6003  0.2470  2.3897
  131MOL0     H18027   2.666   5.103   6.874 -2.4748 -1.7937  0.0974
  131MOL0     H18028   2.909   5.245   6.846 -0.1053  1.8967 -1.5525
  131MOL0     H18029   2.881   5.268   7.025  1.2711  3.8611  1.9867
  131MOL0     H18030   2.895   5.498   6.825 -2.7983  1.2041  2.4785
  131MOL0     H18031   2.895   5.496   6.997  1.1177 -2.2733  1.3175
  131MOL0     H18032   3.119   5.375   7.007 -0.6149 -0.9682 -0.1629
  131MOL0     H18033   3.115   5.384   6.834 -0.4416 -2.0008  1.3554
  131MOL0     H18034   3.104   5.628   6.852  1.5835 -0.9819 -1.2672
  131MOL0     H18035   3.094   5.618   7.027  1.2623  1.1648  0.2052
  131MOL0     H18036   3.181   5.813   6.982  0.0974  1.5974 -1.5243
  131MOL0     H18037   3.171   6.023   7.029 -1.8480  4.2802 -0.2712
  131MOL0     H18038   3.283   6.125   6.949 -0.5047  0.1624  1.3776
  131MOL0     H18039   3.315   6.088   7.119  1.1565  0.8711 -1.4544
  131MOL0     H18040   3.695   6.092   7.364 -0.4302 -0.7879  0.3165
  131MOL0     H18041   3.821   6.273   7.432 -5.2866 -0.4501 -2.0605
  131MOL0     H18042   3.976   6.478   7.470  1.5962  0.5327  2.0885
  131MOL0     H18043   4.035   6.317   7.518  0.5840  0.3184  0.5004
  131MOL0     H18044   4.189   6.476   7.614 -0.4192  0.4890 -0.2411
  131MOL0     H18045   4.267   6.385   7.482 -0.5758  0.0411 -1.5617
  131MOL0     H18046   4.138   6.667   7.457  0.7256 -0.7149  0.7324
  131MOL0     H18047   4.208   6.591   7.325  0.5656  0.4516 -0.7532
  131MOL0     H18048   4.435   6.613   7.413  0.1915 -0.1050 -0.1909
  131MOL0     H18049   4.373   6.614   7.580 -1.7187  2.1755  1.4071
  131MOL0     H18050   4.261   6.835   7.533 -0.6949 -2.0931  0.0035
  131MOL0     H18051   4.439   6.839   7.529 -0.7117 -0.6642  1.8135
  131MOL0     H18052   4.354   6.972   7.345 -0.0562 -0.0171 -2.7143
  131MOL0     H18053   4.249   6.841   7.287  0.1225  1.2419 -0.4122
  131MOL0     H18054   4.445   6.705   7.218  1.0090 -0.1951 -0.2544
  131MOL0     H18055   4.550   6.816   7.308 -0.9325  2.4708 -0.2304
  131MOL0     H18056   4.533   6.863   7.047 -1.3388  1.6223 -1.1841
  131MOL0     H18057   4.483   6.998   7.155 -1.3540 -0.5131  3.3771
  131MOL0     H18058   4.065   6.268   7.079  0.6500 -0.3699  1.0333
  131MOL0     H18059   3.895   6.095   6.986  2.3024 -1.3633 -0.2986
  131MOL0     H18060   3.666   5.758   7.048  0.1165  1.0972  1.0848
  131MOL0     H18061   3.548   5.584   6.982  1.0567  0.6734  0.9817
  131MOL0     H18062   1.446   5.183   6.722 -0.4618  0.5602 -2.1937
  131MOL0     H18063   1.210   5.265   6.722  0.0575  0.6220 -0.4010
  131MOL0     H18064   0.786   5.145   6.314  1.3254 -1.1569  0.4604
  131MOL0     H18065   0.545   5.191   6.291  1.9399  3.4344 -0.9520
  131MOL0     H18066   0.361   5.091   6.312  0.4605 -1.7666  1.0115
  131MOL0     H18067   0.224   5.079   6.415  0.4556 -0.5787 -0.4083
  131MOL0     H18068   0.309   5.351   6.308  0.6034 -0.0373 -0.6894
  131MOL0     H18069   0.140   5.297   6.361 -1.0881 -0.3760 -1.0416
  131MOL0     H18070   0.254   5.205   6.106 -0.8698  0.8831 -0.4687
  131MOL0     H18071   0.095   5.166   6.181 -1.8016  1.3059 -1.8571
  131MOL0     H18072   0.159   5.449   6.138  1.3586 -2.2266  4.8567
  131MOL0     H18073   0.006   5.361   6.167  0.2777 -0.2937 -0.1539
  131MOL0     H18074  -0.016   5.296   5.762  1.2058 -2.5261 -0.0102
  131MOL0     H18075   0.498   5.191   6.713  2.3482  1.9941  0.2494
  131MOL0     H18076   0.816   5.102   6.832 -1.2206 -2.7635 -1.1233
  131MOL0     H18077   0.804   5.275   6.795 -1.8284  1.2742  1.9770
  131MOL0     H18078   0.661   5.184   6.852 -0.8618 -0.1944 -1.6874
  132MOL0     O18079  11.059  10.118   8.657 -0.1621  0.6132 -0.4364
  132MOL0     C18080  11.088  10.143   8.770  0.7453 -0.2860 -0.1648
  132MOL0     O18081  11.162  10.065   8.862  0.4694 -0.0290  0.5573
  132MOL0     C18082  11.260   9.982   8.808 -0.1461  0.9516 -1.3090
  132MOL0     C18083  11.379   9.971   8.877  0.4752 -0.9631  0.5569
  132MOL0     C18084  11.491   9.897   8.838 -0.9645  0.2792  0.8570
  132MOL0     C18085  11.481   9.817   8.718 -0.4642  0.1077 -0.6793
  132MOL0     O18086  11.593   9.742   8.682 -0.0653  0.6184 -0.2551
  132MOL0     C18087  11.583   9.642   8.577  1.1973 -0.3516  0.2207
  132MOL0     C18088  11.506   9.515   8.617 -0.7095  0.0383  0.6680
  132MOL0     C18089  11.587   9.431   8.720  0.4401 -0.0731  0.9846
  132MOL0     C18090  11.615   9.489   8.854  0.0485  0.6269  0.1531
  132MOL0     C18091  11.484   9.517   8.931  0.3701 -0.3672  0.5473
  132MOL0     C18092  11.515   9.573   9.070  0.1093  0.3847 -0.8665
  132MOL0     C18093  11.382   9.601   9.151  0.0836  0.1711  0.1261
  132MOL0     C18094  11.303   9.716   9.088  0.3219  0.1788  0.4726
  132MOL0     N18095  11.201   9.755   9.194  0.5929  0.3436  0.0805
  132MOL0     C18096  11.109   9.673   9.242  0.7499 -0.8083 -0.2967
  132MOL0     C18097  11.036   9.739   9.333  0.3196 -0.1127  0.4823
  132MOL0     C18098  10.924   9.674   9.420  0.4561 -0.3644  0.0940
  132MOL0     C18099  10.785   9.751   9.391 -0.1946  0.1337  1.0468
  132MOL0     C18100  10.742   9.735   9.241  0.6361  0.1239 -0.5676
  132MOL0     C18101  10.616   9.811   9.197  0.1594 -0.2106 -0.1611
  132MOL0     O18102  10.496   9.762   9.266  0.1247  0.8757  0.2545
  132MOL0     C18103  10.382   9.823   9.225  1.1198 -0.3359 -0.1500
  132MOL0     C18104  10.283   9.843   9.330  0.6102 -1.2125  0.5012
  132MOL0     C18105  10.150   9.894   9.298  0.3641  0.7394 -1.0151
  132MOL0     C18106  10.050   9.888   9.409  0.6317  0.7011 -0.2430
  132MOL0     C18107  10.133   9.948   9.165 -0.0632 -0.5721  0.7098
  132MOL0     C18108  10.006  10.029   9.118 -0.5705  0.7435 -0.0488
  132MOL0     O18109   9.926  10.081   9.214  0.0905  0.0765 -0.0468
  132MOL0     C18110   9.793  10.082   9.200 -0.7944  0.1121 -0.4878
  132MOL0     C18111   9.723  10.032   9.084 -0.2631 -0.4463  0.6665
  132MOL0     C18112   9.584  10.042   9.079 -0.3892 -0.7819 -1.0628
  132MOL0     C18113   9.516  10.104   9.181 -0.0580  0.0932 -0.3100
  132MOL0     O18114   9.377  10.130   9.164 -0.1047  0.1687 -0.0946
  132MOL0     C18115   9.280  10.131   9.270 -0.5133  0.1303 -0.0541
  132MOL0     C18116   9.292  10.013   9.362  0.4054 -0.0348 -0.3548
  132MOL0     C18117   9.218   9.878   9.323 -0.7521 -0.1045 -0.4626
  132MOL0     C18118   9.222   9.836   9.175  0.3636 -0.3408 -0.1384
  132MOL0     C18119   9.155   9.701   9.155  0.3258  0.8145  0.3064
  132MOL0     C18120   9.012   9.673   9.190  0.7143  0.0231  1.0388
  132MOL0     C18121   8.913   9.766   9.112  0.6314  0.3755  0.0093
  132MOL0     C18122   8.762   9.741   9.153 -0.4487  0.1491  0.5329
  132MOL0    Cl18123   8.743   9.756   9.322  0.0119  0.0286 -0.1518
  132MOL0     C18124   9.581  10.152   9.290  0.0205 -0.0383  0.3169
  132MOL0     C18125   9.722  10.138   9.303 -0.0745  0.3302  1.3577
  132MOL0     O18126   9.995  10.055   8.995 -0.4916  0.6023 -0.5780
  132MOL0     C18127  10.242   9.935   9.066 -0.0447  0.1128 -0.0193
  132MOL0     C18128  10.364   9.873   9.098  0.5160 -0.1208 -0.9677
  132MOL0     N18129  11.104   9.865   9.347  0.3020 -0.0550 -0.2250
  132MOL0     N18130  11.196   9.878   9.254  0.0145  0.6185 -0.5062
  132MOL0     C18131  11.356   9.819   8.651 -0.2339 -1.0784 -0.4488
  132MOL0     C18132  11.251   9.898   8.700 -0.0813  0.1837  1.1211
  132MOL0     C18133  11.037  10.280   8.818 -0.1224 -0.1100 -0.4575
  132MOL0     C18134  11.074  10.322   8.945 -0.9873 -0.1052 -0.0239
  132MOL0     C18135  11.025  10.439   9.000  0.4422 -1.1040 -0.2073
  132MOL0     C18136  10.943  10.521   8.926  0.1320 -0.0627  0.6907
  132MOL0     O18137  10.894  10.635   8.982 -0.1878  0.1241 -0.1037
  132MOL0     C18138  10.792  10.718   8.921  0.2270  0.4320 -0.3894
  132MOL0     C18139  10.726  10.812   9.021 -0.4150  0.1712  0.4700
  132MOL0     C18140  10.660  10.938   8.942  0.9619 -0.0666 -0.0863
  132MOL0     C18141  10.634  11.042   9.043 -0.2432  0.5952  0.8297
  132MOL0     C18142  10.534  11.138   9.017 -0.7138 -0.0192  0.3595
  132MOL0     C18143  10.443  11.214   9.002 -0.4416  0.2214  0.2994
  132MOL0     C18144  10.905  10.487   8.797  0.6239 -0.6494  0.1125
  132MOL0     C18145  10.940  10.358   8.744  0.0458 -0.2085 -0.1535
  132MOL0     C18146  10.861  10.309   8.620 -0.0602 -0.0239  0.4577
  132MOL0     H18147  11.368  10.039   8.961 -2.2910 -1.4142  0.6302
  132MOL0     H18148  11.589   9.914   8.881 -0.3659  1.9223 -1.0330
  132MOL0     H18149  11.684   9.614   8.545  1.2738 -0.5398  0.6138
  132MOL0     H18150  11.535   9.689   8.492  4.0513 -1.4851 -2.2128
  132MOL0     H18151  11.407   9.542   8.656 -0.0224  0.9830  1.8275
  132MOL0     H18152  11.495   9.446   8.533 -2.2466 -1.4177  1.9950
  132MOL0     H18153  11.532   9.338   8.736 -0.2338 -0.1022 -1.1119
  132MOL0     H18154  11.681   9.405   8.669 -0.0630  1.4447 -0.8429
  132MOL0     H18155  11.682   9.423   8.910 -0.9053  0.6629  1.3814
  132MOL0     H18156  11.661   9.587   8.848  0.1363  0.5171 -1.3193
  132MOL0     H18157  11.404   9.442   8.931 -0.8852  0.8904 -1.3341
  132MOL0     H18158  11.445   9.606   8.881 -0.8481 -1.3859 -0.3742
  132MOL0     H18159  11.571   9.493   9.120 -2.6159 -2.5845 -2.1984
  132MOL0     H18160  11.579   9.660   9.054  1.0096  0.0575  0.7224
  132MOL0     H18161  11.401   9.621   9.257 -2.2985 -2.0049  1.0863
  132MOL0     H18162  11.315   9.514   9.144 -1.1407  1.0946  0.0164
  132MOL0     H18163  11.377   9.797   9.085  0.2797  0.2246  0.6560
  132MOL0     H18164  11.258   9.705   8.989 -1.0864 -1.5633  1.2586
  132MOL0     H18165  11.093   9.570   9.210 -0.2138 -1.1546  1.1622
  132MOL0     H18166  10.937   9.672   9.529  1.1258  1.6219  0.0953
  132MOL0     H18167  10.911   9.572   9.384 -2.9097  1.3452 -4.4300
  132MOL0     H18168  10.705   9.707   9.451 -0.5059 -2.3813 -1.0395
  132MOL0     H18169  10.797   9.854   9.428 -3.7332  1.0470  0.0630
  132MOL0     H18170  10.827   9.770   9.181  2.4223 -1.6167  0.7960
  132MOL0     H18171  10.725   9.628   9.227  1.9857 -0.5827  2.4316
  132MOL0     H18172  10.630   9.917   9.219 -0.1943 -0.8706  4.1081
  132MOL0     H18173  10.606   9.803   9.088  2.3058  1.8827 -0.5675
  132MOL0     H18174  10.310   9.801   9.426  1.0310  2.2152  2.0375
  132MOL0     H18175   9.952   9.852   9.375  0.3602 -0.8506  1.9788
  132MOL0     H18176  10.032   9.988   9.449 -1.9517  0.3547 -0.3669
  132MOL0     H18177  10.087   9.815   9.481 -0.9983 -3.9790 -3.5861
  132MOL0     H18178   9.759   9.972   9.001  0.1015 -1.2416  1.3837
  132MOL0     H18179   9.530  10.021   8.987 -1.9100  1.9934 -0.9488
  132MOL0     H18180   9.295  10.225   9.326  1.2258 -0.0551 -0.1419
  132MOL0     H18181   9.175  10.128   9.242 -0.2404 -0.0858 -1.1017
  132MOL0     H18182   9.397   9.982   9.362  0.3173 -0.3615 -1.1857
  132MOL0     H18183   9.247  10.020   9.461 -1.1028 -0.6800 -0.9701
  132MOL0     H18184   9.117   9.862   9.362 -0.1176 -2.6775  0.3413
  132MOL0     H18185   9.272   9.800   9.379 -1.8080 -0.4938  0.0287
  132MOL0     H18186   9.327   9.832   9.143 -0.0509  0.2546 -1.6575
  132MOL0     H18187   9.172   9.911   9.114  1.4133  1.3199  0.9454
  132MOL0     H18188   9.163   9.660   9.054 -4.9196  2.3169 -1.0651
  132MOL0     H18189   9.216   9.645   9.226  0.9160 -2.5577 -2.5683
  132MOL0     H18190   8.998   9.692   9.297 -2.7221  4.8726  0.0495
  132MOL0     H18191   8.975   9.570   9.189  0.8830 -0.0452  1.5404
  132MOL0     H18192   8.919   9.758   9.003  0.4397 -0.7101  0.0639
  132MOL0     H18193   8.950   9.867   9.130  3.9459 -0.5030 -1.1868
  132MOL0     H18194   8.725   9.640   9.133 -0.3175  0.2548 -0.2908
  132MOL0     H18195   8.694   9.800   9.092 -1.4252 -0.7768  0.7068
  132MOL0     H18196   9.535  10.207   9.371 -2.2714  2.1634 -2.2812
  132MOL0     H18197   9.780  10.166   9.391  1.5144 -0.4991  0.6084
  132MOL0     H18198  10.217   9.955   8.962 -2.9650 -0.1317  0.5508
  132MOL0     H18199  10.433   9.853   9.016  0.0893  2.2789 -1.9922
  132MOL0     H18200  11.347   9.760   8.561 -2.5490 -2.1855  0.4415
  132MOL0     H18201  11.155   9.904   8.650  0.1909  3.5788  0.7132
  132MOL0     H18202  11.148  10.262   8.997 -1.4545 -0.0979  0.6529
  132MOL0     H18203  11.057  10.476   9.097 -1.3220  0.5422 -0.1822
  132MOL0     H18204  10.839  10.785   8.848  0.2270  2.7470  1.6158
  132MOL0     H18205  10.714  10.650   8.885 -1.8047  1.9419  0.8881
  132MOL0     H18206  10.806  10.852   9.084  1.1165 -1.5521 -0.2594
  132MOL0     H18207  10.647  10.767   9.081 -1.5951  1.0903 -0.3574
  132MOL0     H18208  10.730  10.979   8.870  0.8053 -1.1726 -0.8985
  132MOL0     H18209  10.576  10.888   8.892  1.0079 -1.9813  1.5887
  132MOL0     H18210  10.727  11.085   9.079 -0.3412  0.0032  1.8224
  132MOL0     H18211  10.602  10.985   9.131  0.6040  0.9896  1.4070
  132MOL0     H18212  10.369  11.288   8.978  0.0994  0.9134  0.7432
  132MOL0     H18213  10.854  10.567   8.746  0.0700 -1.5750 -0.8209
  132MOL0     H18214  10.911  10.335   8.526 -2.0501  4.0708  0.3294
  132MOL0     H18215  10.820  10.209   8.638 -0.7292  0.6517  3.1067
  132MOL0     H18216  10.773  10.373   8.618 -0.3625 -0.4247 -1.3596
  133MOL0     O18217   6.899   5.772   2.118  0.7407  0.3163  0.9354
  133MOL0     C18218   6.811   5.699   2.162  0.7205  0.7195 -2.2721
  133MOL0     O18219   6.697   5.740   2.231 -0.3112  0.1610 -0.5283
  133MOL0     C18220   6.675   5.867   2.264  0.1498 -0.0023 -0.3283
  133MOL0     C18221   6.610   5.892   2.393 -0.1971 -0.1877  0.4912
  133MOL0     C18222   6.570   6.023   2.420  0.8541  0.0361  0.1665
  133MOL0     C18223   6.595   6.128   2.329  0.0314 -0.4261  0.4770
  133MOL0     O18224   6.553   6.255   2.356  0.2771 -0.4258  0.2654
  133MOL0     C18225   6.434   6.286   2.437 -0.3211 -0.6973 -0.2834
  133MOL0     C18226   6.370   6.412   2.384 -0.2591 -1.0843  0.8450
  133MOL0     C18227   6.287   6.395   2.261 -1.1512  0.7562 -0.8415
  133MOL0     C18228   6.224   6.532   2.226  0.2162 -0.2984  0.5693
  133MOL0     C18229   6.111   6.520   2.126  0.5216 -0.5483  0.1174
  133MOL0     C18230   6.028   6.651   2.098  0.0768 -0.2296  0.0730
  133MOL0     C18231   5.987   6.732   2.215  0.3811  0.5167 -0.6712
  133MOL0     C18232   5.929   6.656   2.335 -0.8182  0.2075  0.2630
  133MOL0     N18233   5.801   6.591   2.304 -0.7622 -0.0532 -0.1144
  133MOL0     C18234   5.682   6.649   2.263  0.6956 -0.6833  0.8193
  133MOL0     C18235   5.589   6.547   2.276 -0.5328 -0.4459 -0.1518
  133MOL0     C18236   5.445   6.548   2.216  0.0492 -0.3485 -0.6312
  133MOL0     C18237   5.393   6.407   2.190  0.8932 -0.4317  0.0701
  133MOL0     C18238   5.267   6.417   2.100  0.6081 -0.1136  0.0006
  133MOL0     C18239   5.147   6.493   2.163 -0.5164 -0.6551  0.0368
  133MOL0     O18240   5.019   6.421   2.157 -0.1742 -1.2776 -0.5686
  133MOL0     C18241   4.966   6.395   2.035 -0.0762 -0.0756 -0.1571
  133MOL0     C18242   4.873   6.286   2.030  0.5209  0.0819  0.5930
  133MOL0     C18243   4.804   6.240   1.915 -0.6715  1.3909 -0.1365
  133MOL0     C18244   4.700   6.134   1.935  0.2197 -0.0250  0.2197
  133MOL0     C18245   4.848   6.306   1.796 -0.3903 -0.6850 -0.5222
  133MOL0     C18246   4.771   6.267   1.669  0.2254 -0.6571  0.1037
  133MOL0     O18247   4.649   6.208   1.676 -0.4452  0.3940  0.5456
  133MOL0     C18248   4.593   6.170   1.553  0.3611  0.0266  0.0423
  133MOL0     C18249   4.597   6.227   1.422  0.3538  0.1592 -0.2092
  133MOL0     C18250   4.531   6.162   1.316  0.3933  0.3206 -0.4103
  133MOL0     C18251   4.444   6.053   1.325  0.4159 -0.1682 -0.1114
  133MOL0     O18252   4.376   5.985   1.230 -0.2155  0.0518 -0.3093
  133MOL0     C18253   4.393   6.020   1.089 -0.5139  0.1264  0.0507
  133MOL0     C18254   4.321   6.146   1.051 -0.4772 -0.1960  0.6149
  133MOL0     C18255   4.175   6.115   1.066 -0.3604 -0.2593 -0.1486
  133MOL0     C18256   4.084   6.232   1.003  0.3608 -0.4479 -0.2836
  133MOL0     C18257   3.930   6.183   0.995 -0.4973 -0.2107 -0.6147
  133MOL0     C18258   3.823   6.291   1.012  0.1272 -0.0425 -0.4398
  133MOL0     C18259   3.828   6.404   0.908 -0.6219  0.1397 -0.4616
  133MOL0     C18260   3.808   6.352   0.771  0.3634  0.4864  0.5125
  133MOL0    Cl18261   3.849   6.482   0.662  0.2801 -0.2063  0.2413
  133MOL0     C18262   4.431   6.011   1.456  0.2306  0.2500  0.5279
  133MOL0     C18263   4.506   6.066   1.567 -0.2999  0.4758 -0.2022
  133MOL0     O18264   4.834   6.289   1.565  0.0105 -0.2042 -0.2019
  133MOL0     C18265   4.953   6.409   1.791  0.0780  1.2671 -0.1391
  133MOL0     C18266   5.011   6.444   1.912 -0.0460 -0.5367  0.3047
  133MOL0     N18267   5.648   6.444   2.337  0.6837  0.5485 -0.0760
  133MOL0     N18268   5.776   6.458   2.336 -0.1353 -0.2768  0.1008
  133MOL0     C18269   6.657   6.101   2.207 -0.9461 -0.1818 -0.3476
  133MOL0     C18270   6.701   5.974   2.178 -0.5855  0.0081  0.6764
  133MOL0     C18271   6.834   5.550   2.148  0.5853 -0.4357  0.0483
  133MOL0     C18272   6.751   5.458   2.215  0.5970 -0.2172 -0.8761
  133MOL0     C18273   6.757   5.318   2.196 -0.2782  0.0575  0.1909
  133MOL0     C18274   6.862   5.274   2.109  0.4025 -0.3025 -0.5188
  133MOL0     O18275   6.897   5.137   2.105  0.0181 -0.1699 -0.1984
  133MOL0     C18276   6.801   5.037   2.151  0.9287  0.4321 -0.1752
  133MOL0     C18277   6.661   5.037   2.069 -0.7057  0.0274 -0.4386
  133MOL0     C18278   6.570   4.932   2.138  0.0534  0.2393  0.2155
  133MOL0     C18279   6.439   4.919   2.071  1.2488 -0.2258  0.5056
  133MOL0     C18280   6.368   4.807   2.141 -0.5195 -0.7888  0.4461
  133MOL0     C18281   6.326   4.708   2.196 -0.7866  0.1937 -0.4955
  133MOL0     C18282   6.959   5.358   2.060 -0.2875 -0.0849 -0.0981
  133MOL0     C18283   6.941   5.491   2.069 -0.1326 -0.9961  0.1520
  133MOL0     C18284   7.061   5.570   1.989 -0.1057  0.1855 -0.0459
  133MOL0     H18285   6.604   5.809   2.462 -4.1468  1.3900  2.3284
  133MOL0     H18286   6.524   6.032   2.518 -0.5192  0.2592 -0.4741
  133MOL0     H18287   6.465   6.311   2.539  0.4208  1.8448 -1.0678
  133MOL0     H18288   6.367   6.200   2.441 -0.4826 -0.5406  0.7986
  133MOL0     H18289   6.296   6.447   2.458 -0.6662  2.4640 -1.0187
  133MOL0     H18290   6.447   6.489   2.370  0.9516 -2.4924 -0.6117
  133MOL0     H18291   6.347   6.364   2.175 -1.9166  2.7196 -2.1592
  133MOL0     H18292   6.214   6.317   2.282  1.2575 -0.7741  2.8487
  133MOL0     H18293   6.198   6.586   2.318  0.6323  1.0726 -0.0883
  133MOL0     H18294   6.301   6.590   2.175 -0.3521  3.5123  3.5992
  133MOL0     H18295   6.037   6.448   2.163 -1.0611  2.1223  2.5033
  133MOL0     H18296   6.144   6.481   2.029 -3.0397 -2.1159 -0.6127
  133MOL0     H18297   6.097   6.715   2.042 -0.4609 -0.9208 -1.4459
  133MOL0     H18298   5.937   6.637   2.038 -0.3575  1.0761  0.3973
  133MOL0     H18299   5.931   6.814   2.169 -2.8210 -0.7765  0.5797
  133MOL0     H18300   6.078   6.780   2.251 -0.0999  0.5329  0.5805
  133MOL0     H18301   6.001   6.579   2.362 -1.5843 -0.0450  1.6578
  133MOL0     H18302   5.923   6.731   2.415  2.2019  0.9130 -0.0267
  133MOL0     H18303   5.668   6.749   2.223  2.7643 -0.8397 -0.4233
  133MOL0     H18304   5.438   6.607   2.124  2.5622  0.9738 -0.0965
  133MOL0     H18305   5.390   6.592   2.300  1.1499  1.6606 -0.8789
  133MOL0     H18306   5.463   6.345   2.133  1.6588  2.1346 -1.9688
  133MOL0     H18307   5.374   6.352   2.282  2.4992 -0.4353  0.4226
  133MOL0     H18308   5.297   6.473   2.012 -0.2766  0.6175  0.1416
  133MOL0     H18309   5.229   6.317   2.078  0.9281 -0.0682 -0.7718
  133MOL0     H18310   5.177   6.517   2.266  3.9097  1.1286 -1.4488
  133MOL0     H18311   5.140   6.593   2.119  1.5302  0.8651  2.8023
  133MOL0     H18312   4.866   6.232   2.123 -0.3222  2.5620  2.0855
  133MOL0     H18313   4.604   6.152   1.887  0.2224 -1.8216 -0.5360
  133MOL0     H18314   4.676   6.115   2.040  0.9267 -2.1071  0.0640
  133MOL0     H18315   4.727   6.042   1.883 -1.9429 -0.7653  0.3483
  133MOL0     H18316   4.651   6.321   1.410  1.6597 -0.1914  2.1496
  133MOL0     H18317   4.546   6.202   1.216 -0.1657 -2.3220 -1.6354
  133MOL0     H18318   4.499   6.035   1.069  0.0569 -0.2087  2.5048
  133MOL0     H18319   4.353   5.938   1.029 -0.0823 -0.1930  0.1918
  133MOL0     H18320   4.340   6.232   1.115  1.1767 -0.9265  1.1477
  133MOL0     H18321   4.350   6.173   0.950  0.4634  0.8144  1.1388
  133MOL0     H18322   4.158   6.109   1.174  0.2520  4.4357  0.4262
  133MOL0     H18323   4.142   6.026   1.011 -0.0711  1.2919 -3.0083
  133MOL0     H18324   4.111   6.270   0.904  0.6757  1.2016  0.4049
  133MOL0     H18325   4.089   6.311   1.078 -0.6059 -0.2416 -0.4256
  133MOL0     H18326   3.917   6.120   0.907 -1.8995 -4.2290  2.1449
  133MOL0     H18327   3.910   6.116   1.079 -1.0579  0.9865  0.2377
  133MOL0     H18328   3.839   6.338   1.110  2.1937  0.6192 -1.0451
  133MOL0     H18329   3.718   6.260   1.007  0.4614 -1.3565  0.3254
  133MOL0     H18330   3.928   6.449   0.912  0.1105 -1.1503 -2.3487
  133MOL0     H18331   3.751   6.477   0.931 -1.1958  0.2399 -2.4972
  133MOL0     H18332   3.705   6.318   0.763  0.6490 -0.7725  1.7116
  133MOL0     H18333   3.877   6.268   0.755  1.0221  1.1180 -0.0624
  133MOL0     H18334   4.363   5.931   1.485  1.6612 -1.2765 -0.1686
  133MOL0     H18335   4.485   6.021   1.663 -1.9607 -1.1746 -1.2643
  133MOL0     H18336   4.981   6.447   1.693  1.5635 -2.0328 -1.1531
  133MOL0     H18337   5.083   6.525   1.899  0.7061 -1.5375 -3.0139
  133MOL0     H18338   6.684   6.192   2.154  1.9180 -1.3152 -1.0486
  133MOL0     H18339   6.747   5.955   2.081  0.2624  1.3733  0.7912
  133MOL0     H18340   6.675   5.495   2.283  0.2861 -1.1965 -0.6713
  133MOL0     H18341   6.694   5.251   2.254  0.3359 -1.8974 -1.2913
  133MOL0     H18342   6.839   4.935   2.142  0.8427  0.0465  2.8710
  133MOL0     H18343   6.776   5.051   2.257  0.0933  0.8329 -0.4120
  133MOL0     H18344   6.679   5.017   1.963  1.2827 -0.7478 -0.0042
  133MOL0     H18345   6.615   5.136   2.076  3.7087  2.3674 -1.0299
  133MOL0     H18346   6.607   4.829   2.140 -0.9916 -0.2750 -2.6172
  133MOL0     H18347   6.542   4.968   2.238 -2.2307 -0.9297  0.0616
  133MOL0     H18348   6.455   4.893   1.966  1.5062 -1.3235  0.8116
  133MOL0     H18349   6.382   5.013   2.071 -0.4770 -1.2015 -0.9639
  133MOL0     H18350   6.284   4.613   2.223 -1.1131  0.3668 -0.3843
  133MOL0     H18351   7.035   5.320   1.993 -3.6183 -1.0889 -3.6868
  133MOL0     H18352   7.102   5.503   1.913 -1.2987 -1.0720  0.3911
  133MOL0     H18353   7.015   5.653   1.935  1.3318  0.5949 -0.6857
  133MOL0     H18354   7.143   5.591   2.058 -1.2844 -0.5116  1.6453
  134MOL0     O18355   9.711   2.239   2.495 -0.3613 -0.1489  0.2160
  134MOL0     C18356   9.797   2.245   2.580  1.4294  0.6083  0.1900
  134MOL0     O18357   9.775   2.290   2.705  0.2616 -0.0105  0.4212
  134MOL0     C18358   9.701   2.405   2.727 -0.4621  0.3274 -0.6896
  134MOL0     C18359   9.665   2.504   2.636 -0.3077  0.1742  0.1981
  134MOL0     C18360   9.574   2.614   2.669 -0.7651  0.4597  0.2310
  134MOL0     C18361   9.520   2.622   2.796 -0.1463  0.4813 -0.6359
  134MOL0     O18362   9.416   2.707   2.830  0.0522 -0.0102 -0.0181
  134MOL0     C18363   9.399   2.834   2.761 -0.4578  0.2589 -0.8446
  134MOL0     C18364   9.270   2.898   2.814 -0.1830 -0.5365  0.0125
  134MOL0     C18365   9.282   2.915   2.978 -0.6211  0.3363 -0.2546
  134MOL0     C18366   9.146   2.975   3.017  0.2052 -0.3009  0.4096
  134MOL0     C18367   9.031   2.871   3.024 -0.4639 -0.0690  0.2928
  134MOL0     C18368   8.905   2.937   3.081  0.4987 -0.0724 -0.1993
  134MOL0     C18369   8.832   2.857   3.190 -0.3990  0.4555 -0.3636
  134MOL0     C18370   8.699   2.921   3.229 -0.2554 -0.4063 -0.2173
  134MOL0     N18371   8.679   2.883   3.372 -0.0290  0.4108  0.2107
  134MOL0     C18372   8.652   2.756   3.413 -0.7742 -0.2247  0.1787
  134MOL0     C18373   8.606   2.770   3.538 -0.3932 -0.3132 -0.7291
  134MOL0     C18374   8.547   2.670   3.628  0.2879 -0.6388 -0.7794
  134MOL0     C18375   8.627   2.649   3.755  0.0574  0.6976  0.3008
  134MOL0     C18376   8.757   2.577   3.733  0.0860 -0.2214 -0.0891
  134MOL0     C18377   8.822   2.543   3.870  0.5312 -0.1011  0.2693
  134MOL0     O18378   8.913   2.427   3.874 -0.3667  0.7759  0.1123
  134MOL0     C18379   9.032   2.419   3.802  0.1093 -0.1877 -0.4102
  134MOL0     C18380   9.071   2.286   3.755 -0.0367 -0.0893 -0.0574
  134MOL0     C18381   9.188   2.264   3.683 -0.3638 -0.5889 -0.8384
  134MOL0     C18382   9.208   2.133   3.627  0.4591 -0.0535 -0.1838
  134MOL0     C18383   9.267   2.377   3.650  0.7338  0.1037  0.3140
  134MOL0     C18384   9.387   2.376   3.555  0.0608 -0.6989 -0.7094
  134MOL0     O18385   9.414   2.493   3.476  0.2990  0.1356 -0.1168
  134MOL0     C18386   9.542   2.492   3.419 -0.7685  0.6732 -0.9706
  134MOL0     C18387   9.653   2.563   3.476  1.0633  0.6158  0.7300
  134MOL0     C18388   9.780   2.553   3.429 -0.1957  0.6366  0.5075
  134MOL0     C18389   9.810   2.477   3.319 -0.7366 -0.0034  0.3621
  134MOL0     O18390   9.940   2.481   3.258  0.3875 -0.3546 -0.2398
  134MOL0     C18391  10.020   2.595   3.289  0.1094 -0.3034  0.6386
  134MOL0     C18392  10.129   2.592   3.181 -0.0942  0.3931  1.3538
  134MOL0     C18393  10.269   2.537   3.224 -0.2541  0.2048 -0.3954
  134MOL0     C18394  10.378   2.542   3.117 -0.6710 -0.1747 -0.5012
  134MOL0     C18395  10.507   2.486   3.168 -0.6510  0.7726 -0.6535
  134MOL0     C18396  10.569   2.548   3.293 -0.2342  0.5958  0.1337
  134MOL0     C18397  10.715   2.505   3.317 -0.2470  0.7221 -0.9628
  134MOL0     C18398  10.731   2.439   3.451 -0.5313 -0.4502 -0.8922
  134MOL0    Cl18399  10.900   2.436   3.508  0.0445  0.7447  0.0783
  134MOL0     C18400   9.701   2.411   3.258 -0.4533 -0.0082  0.3441
  134MOL0     C18401   9.572   2.419   3.305 -0.6459 -0.1589 -0.3880
  134MOL0     O18402   9.455   2.277   3.550  0.3121  0.2912  0.1501
  134MOL0     C18403   9.236   2.505   3.690 -0.3405  0.0332  0.6700
  134MOL0     C18404   9.121   2.527   3.761 -1.0276  0.3280 -0.1561
  134MOL0     N18405   8.609   2.903   3.577  0.6574  0.1773  0.7962
  134MOL0     N18406   8.648   2.967   3.474  0.3572 -0.4642 -0.6251
  134MOL0     C18407   9.552   2.512   2.880 -0.1969 -0.1614 -0.8444
  134MOL0     C18408   9.653   2.415   2.861 -0.0420 -0.3681  0.6560
  134MOL0     C18409   9.942   2.202   2.545 -0.0942 -0.1063  0.1671
  134MOL0     C18410  10.025   2.159   2.653 -0.2545 -0.9095 -0.4224
  134MOL0     C18411  10.154   2.114   2.621 -0.6861 -0.2004  0.2285
  134MOL0     C18412  10.200   2.095   2.493 -0.1076 -0.0808  0.3021
  134MOL0     O18413  10.331   2.051   2.481  0.4271 -0.4319 -0.0660
  134MOL0     C18414  10.383   2.020   2.341  0.5168  0.5012 -0.7947
  134MOL0     C18415  10.534   2.052   2.346 -0.3811  0.2454  0.4307
  134MOL0     C18416  10.609   1.931   2.413  1.1126 -0.2725 -1.0669
  134MOL0     C18417  10.759   1.964   2.430 -0.3146  0.8473 -0.5171
  134MOL0     C18418  10.794   2.065   2.528  0.2160  0.2657 -0.3282
  134MOL0     C18419  10.839   2.142   2.610  0.4456  0.0863 -0.2913
  134MOL0     C18420  10.111   2.119   2.385  0.0655 -0.3972  0.0418
  134MOL0     C18421   9.986   2.175   2.410 -0.3203  0.0372 -0.0399
  134MOL0     C18422   9.895   2.209   2.293  0.0360  0.8802  0.5916
  134MOL0     H18423   9.704   2.504   2.535  3.1925 -3.8612  1.2605
  134MOL0     H18424   9.558   2.681   2.585  1.1838  0.4654 -0.1808
  134MOL0     H18425   9.368   2.813   2.658  1.7258 -0.9826 -1.2936
  134MOL0     H18426   9.482   2.904   2.771 -0.4903  0.4578 -1.8217
  134MOL0     H18427   9.253   2.998   2.774  0.4104 -1.3690 -2.4556
  134MOL0     H18428   9.190   2.831   2.781  1.4604 -0.8981 -3.7343
  134MOL0     H18429   9.313   2.826   3.033  0.9983  1.8148  1.3277
  134MOL0     H18430   9.361   2.986   3.003  0.7035 -1.7676  1.9863
  134MOL0     H18431   9.155   3.017   3.118 -0.8098 -1.2458  0.9164
  134MOL0     H18432   9.114   3.061   2.957 -1.5025  1.9745  4.2093
  134MOL0     H18433   9.042   2.781   3.085 -0.5474  0.4987  1.1459
  134MOL0     H18434   8.999   2.833   2.926  0.0999  0.5035 -0.1218
  134MOL0     H18435   8.928   3.034   3.125 -0.2865 -0.3859  0.9469
  134MOL0     H18436   8.837   2.966   3.001  0.5986 -0.4106 -0.4117
  134MOL0     H18437   8.909   2.844   3.266  0.8315 -2.0776 -1.9231
  134MOL0     H18438   8.809   2.758   3.150  3.6726 -1.3313  1.1687
  134MOL0     H18439   8.719   3.027   3.217  1.6350 -0.9119 -2.1272
  134MOL0     H18440   8.612   2.890   3.171 -0.3865 -1.0497  0.3009
  134MOL0     H18441   8.655   2.661   3.359  1.9973  0.1610 -0.4840
  134MOL0     H18442   8.541   2.570   3.582 -2.1389 -0.7072 -0.4535
  134MOL0     H18443   8.446   2.705   3.650  1.0158  0.0391  1.8469
  134MOL0     H18444   8.644   2.749   3.795  0.3509  0.5169  0.6324
  134MOL0     H18445   8.566   2.599   3.831  0.4784 -2.5250 -1.3199
  134MOL0     H18446   8.738   2.492   3.667 -0.0870  0.5026 -1.0058
  134MOL0     H18447   8.816   2.653   3.680  1.0203 -0.8317  0.0685
  134MOL0     H18448   8.872   2.632   3.909 -0.5841  0.4593  0.4583
  134MOL0     H18449   8.741   2.512   3.938 -0.3180 -0.7039 -0.9787
  134MOL0     H18450   8.994   2.214   3.779  0.2812  0.0272  1.3636
  134MOL0     H18451   9.313   2.105   3.640  0.2746 -1.0931 -0.8484
  134MOL0     H18452   9.180   2.122   3.522 -1.0197 -0.6789  0.2431
  134MOL0     H18453   9.142   2.061   3.676 -0.7001  0.3037 -1.1657
  134MOL0     H18454   9.632   2.639   3.551  1.2051  1.9266 -0.5019
  134MOL0     H18455   9.867   2.594   3.481 -0.0159 -0.0518  0.7547
  134MOL0     H18456   9.970   2.692   3.283 -1.3531 -0.9839  1.4147
  134MOL0     H18457  10.060   2.574   3.388 -1.7490 -2.2239  1.0544
  134MOL0     H18458  10.096   2.545   3.088 -0.7228 -0.0890  1.8118
  134MOL0     H18459  10.154   2.696   3.155  0.1706  0.1466  0.6066
  134MOL0     H18460  10.241   2.435   3.252  1.8269  0.3936  2.8665
  134MOL0     H18461  10.308   2.584   3.314  3.4855 -1.3087 -1.0394
  134MOL0     H18462  10.396   2.647   3.091 -1.4318  0.5062  1.4921
  134MOL0     H18463  10.339   2.478   3.038 -1.1684  0.1499 -0.5259
  134MOL0     H18464  10.501   2.379   3.192  0.0658  0.8372 -0.1454
  134MOL0     H18465  10.581   2.503   3.090 -0.0573  0.5541 -0.1489
  134MOL0     H18466  10.502   2.516   3.374 -0.7588  0.0844 -0.4845
  134MOL0     H18467  10.552   2.655   3.281 -1.9062  0.3374 -0.0913
  134MOL0     H18468  10.764   2.603   3.319 -3.2221  2.4308 -3.6925
  134MOL0     H18469  10.757   2.439   3.241 -0.6144  0.1037 -0.6380
  134MOL0     H18470  10.693   2.336   3.454 -0.5239 -0.4404 -0.4272
  134MOL0     H18471  10.682   2.503   3.525  0.0811 -1.4274  0.3988
  134MOL0     H18472   9.713   2.366   3.160 -3.8053  0.2477 -0.2980
  134MOL0     H18473   9.503   2.349   3.259  1.8700 -2.9028 -0.2416
  134MOL0     H18474   9.298   2.591   3.667 -1.0720  0.6173  0.8053
  134MOL0     H18475   9.106   2.629   3.794 -0.7942 -0.0699  1.2200
  134MOL0     H18476   9.507   2.512   2.979  0.8944  1.1112 -0.3252
  134MOL0     H18477   9.683   2.348   2.940  2.3114  1.2181  1.2082
  134MOL0     H18478  10.001   2.176   2.757 -4.0248 -0.4520 -1.2426
  134MOL0     H18479  10.211   2.091   2.710 -1.3559  1.2417  1.0577
  134MOL0     H18480  10.376   1.912   2.327 -1.3529  0.0148  2.6247
  134MOL0     H18481  10.340   2.078   2.259 -0.1933  0.2510 -0.6061
  134MOL0     H18482  10.549   2.140   2.409 -2.0199  2.3589 -1.9781
  134MOL0     H18483  10.569   2.062   2.243 -1.6089  1.6101  0.1191
  134MOL0     H18484  10.564   1.910   2.510 -0.2704 -3.2435 -2.2465
  134MOL0     H18485  10.599   1.839   2.355 -0.9334  0.4837 -1.9882
  134MOL0     H18486  10.801   1.985   2.332  0.4674  2.0511  0.0529
  134MOL0     H18487  10.808   1.874   2.467  1.1609  2.1954  0.9776
  134MOL0     H18488  10.886   2.205   2.683  3.1560 -2.6811  0.5993
  134MOL0     H18489  10.139   2.098   2.283  0.1976  0.3095 -0.0692
  134MOL0     H18490   9.866   2.314   2.290  1.3805  1.2652 -0.1495
  134MOL0     H18491   9.943   2.198   2.195  0.0503 -1.2450  0.7877
  134MOL0     H18492   9.801   2.155   2.291  0.1555  0.5548  2.1849
  135MOL0     O18493   6.187  10.811   9.505  0.1044 -0.1256  0.1582
  135MOL0     C18494   6.073  10.828   9.541  0.6052  0.9668 -1.1556
  135MOL0     O18495   5.973  10.877   9.464 -0.5079 -0.0726 -0.4803
  135MOL0     C18496   6.013  10.933   9.344  0.2775  0.7806  1.2550
  135MOL0     C18497   6.089  10.865   9.246  0.1666  0.5581  0.4213
  135MOL0     C18498   6.113  10.932   9.129  0.0605  0.5869  0.1325
  135MOL0     C18499   6.065  11.057   9.101  0.4664  0.0770 -0.2562
  135MOL0     O18500   6.095  11.120   8.989 -0.2353 -0.1031  0.1078
  135MOL0     C18501   6.088  11.035   8.867 -0.6299 -0.3294 -0.0879
  135MOL0     C18502   6.042  11.134   8.760  0.1920  0.3039 -0.7468
  135MOL0     C18503   6.031  11.051   8.637  0.1843 -0.6885 -0.2746
  135MOL0     C18504   5.989  11.148   8.530 -0.2130 -0.3126 -0.0752
  135MOL0     C18505   5.955  11.069   8.401 -0.4381 -0.0416 -0.1813
  135MOL0     C18506   5.924  11.159   8.285  0.3618 -0.2434 -1.2494
  135MOL0     C18507   5.792  11.225   8.282 -0.0353 -0.2315  0.6139
  135MOL0     C18508   5.750  11.350   8.368 -0.9127  0.3958  0.2519
  135MOL0     N18509   5.856  11.458   8.349  0.7547  0.3980 -0.3723
  135MOL0     C18510   5.945  11.496   8.443  0.6728 -0.2113  1.8720
  135MOL0     C18511   6.011  11.603   8.377 -0.2331 -0.7200  0.1450
  135MOL0     C18512   6.117  11.693   8.431 -0.1557  0.9492 -0.4476
  135MOL0     C18513   6.265  11.659   8.381  0.1978 -0.2780 -0.1277
  135MOL0     C18514   6.375  11.714   8.469 -0.0461 -1.0619  0.2490
  135MOL0     C18515   6.389  11.642   8.601 -0.5629 -0.3505  0.5204
  135MOL0     O18516   6.368  11.496   8.589 -0.1879 -0.5006 -0.3708
  135MOL0     C18517   6.371  11.435   8.707  0.0765 -0.3528  0.3524
  135MOL0     C18518   6.485  11.368   8.742 -0.1793 -0.0745  0.0576
  135MOL0     C18519   6.498  11.320   8.878 -0.4077  0.3801  0.6355
  135MOL0     C18520   6.632  11.241   8.911 -0.0036 -0.2722 -0.1055
  135MOL0     C18521   6.392  11.326   8.969 -0.4926 -0.3169  0.0673
  135MOL0     C18522   6.396  11.261   9.104  0.2692  0.0063  0.6669
  135MOL0     O18523   6.294  11.308   9.187  0.1863 -0.0220  0.0101
  135MOL0     C18524   6.309  11.292   9.321  0.1212  0.2167 -0.3299
  135MOL0     C18525   6.348  11.401   9.396  0.1725 -0.4215 -0.5560
  135MOL0     C18526   6.369  11.390   9.534 -0.0810 -0.3557  0.5599
  135MOL0     C18527   6.348  11.269   9.594  0.0047 -0.5940 -0.4020
  135MOL0     O18528   6.384  11.267   9.726  0.2944  0.6882 -0.0761
  135MOL0     C18529   6.371  11.141   9.786  0.1893 -0.2337  0.3832
  135MOL0     C18530   6.427  11.146   9.923  0.6684  0.4610 -1.2548
  135MOL0     C18531   6.456  10.998   9.978  0.2047 -1.0759 -0.2904
  135MOL0     C18532   6.576  10.929   9.908 -0.2228  0.4171 -0.7030
  135MOL0     C18533   6.618  10.808  10.003 -0.7173 -0.4121 -0.6386
  135MOL0     C18534   6.521  10.690  10.031  0.2651 -0.3199  0.2300
  135MOL0     C18535   6.579  10.577  10.127  0.9726  0.6986  0.4981
  135MOL0     C18536   6.525  10.426  10.098 -0.0151 -0.6977 -0.7065
  135MOL0    Cl18537   6.591  10.372   9.941 -0.4648  0.1498  0.4686
  135MOL0     C18538   6.299  11.163   9.512 -0.8968  0.2419 -0.2426
  135MOL0     C18539   6.274  11.173   9.381 -0.9170 -0.3905  0.2050
  135MOL0     O18540   6.484  11.181   9.146 -0.4196 -0.6588 -0.4301
  135MOL0     C18541   6.278  11.388   8.922 -0.5756 -0.2977  0.0567
  135MOL0     C18542   6.268  11.455   8.800  0.5524 -0.2701 -0.0485
  135MOL0     N18543   5.945  11.631   8.256  0.0647  0.3525 -0.3478
  135MOL0     N18544   5.862  11.534   8.241  0.3327  0.4345 -0.0123
  135MOL0     C18545   5.986  11.124   9.200 -0.6539  0.6280 -0.2637
  135MOL0     C18546   5.954  11.059   9.318 -0.3277 -0.1279 -0.0433
  135MOL0     C18547   6.019  10.763   9.666  0.2824  0.0559 -0.8739
  135MOL0     C18548   5.883  10.724   9.671 -0.0880 -0.1978  0.4133
  135MOL0     C18549   5.824  10.674   9.784  0.2323  0.0856 -0.0179
  135MOL0     C18550   5.892  10.648   9.896  0.4012 -0.0234 -0.1156
  135MOL0     O18551   5.842  10.589  10.014 -0.1414  0.4836 -0.4193
  135MOL0     C18552   5.736  10.672  10.066  0.4978  0.6317 -0.4038
  135MOL0     C18553   5.668  10.604  10.185 -0.1245 -0.2465 -0.0987
  135MOL0     C18554   5.548  10.681  10.236  0.7245  0.2531 -0.3483
  135MOL0     C18555   5.514  10.648  10.388 -0.2740 -0.0140 -0.8742
  135MOL0     C18556   5.378  10.694  10.406 -0.6682 -0.6679 -0.6952
  135MOL0     C18557   5.263  10.724  10.424  0.7713 -0.2683  0.4271
  135MOL0     C18558   6.030  10.669   9.890 -0.7356 -0.4863 -0.5334
  135MOL0     C18559   6.095  10.734   9.777 -0.6771  0.6505 -0.5218
  135MOL0     C18560   6.249  10.747   9.779 -0.2895  0.4025 -0.1530
  135MOL0     H18561   6.141  10.770   9.257  1.1524  0.8095 -1.7013
  135MOL0     H18562   6.163  10.884   9.045 -2.5062 -3.7392  0.7435
  135MOL0     H18563   6.005  10.964   8.868 -0.8980 -0.0487 -1.0626
  135MOL0     H18564   6.183  10.994   8.834 -1.6593 -1.0551 -2.4111
  135MOL0     H18565   5.952  11.180   8.800 -0.8728 -0.5502 -2.0677
  135MOL0     H18566   6.116  11.211   8.739 -0.2566  0.6237 -1.1673
  135MOL0     H18567   6.114  10.987   8.607 -0.6221 -1.7903 -0.2137
  135MOL0     H18568   5.950  10.978   8.645 -1.1755  0.7590 -0.1300
  135MOL0     H18569   5.905  11.216   8.548  1.8374  2.9543 -1.8121
  135MOL0     H18570   6.069  11.219   8.509 -0.4855 -0.0820 -0.3537
  135MOL0     H18571   5.876  10.995   8.421  0.3417 -1.1631 -1.0889
  135MOL0     H18572   6.042  11.011   8.369 -0.5705  0.7857 -2.1589
  135MOL0     H18573   6.007  11.230   8.288 -0.6447  0.9288  0.1187
  135MOL0     H18574   5.929  11.104   8.190 -0.7533  1.0400 -2.0731
  135MOL0     H18575   5.721  11.150   8.319 -0.3131 -0.8539 -1.0658
  135MOL0     H18576   5.761  11.251   8.180 -0.3544 -0.6933  0.5867
  135MOL0     H18577   5.655  11.393   8.334 -0.6180  0.3379 -0.6808
  135MOL0     H18578   5.751  11.332   8.476  1.5597 -1.2399  0.0281
  135MOL0     H18579   5.972  11.460   8.542  0.3253 -1.4268  1.5438
  135MOL0     H18580   6.105  11.695   8.539 -0.4621 -0.9668 -0.4120
  135MOL0     H18581   6.105  11.793   8.387 -0.6129 -0.3270 -3.5311
  135MOL0     H18582   6.275  11.550   8.378 -4.2656 -0.9275  0.8267
  135MOL0     H18583   6.276  11.691   8.277 -0.0240  0.5972  0.1104
  135MOL0     H18584   6.466  11.725   8.410 -0.6435  1.8734 -0.3393
  135MOL0     H18585   6.360  11.822   8.479 -0.6739 -0.6191 -3.7146
  135MOL0     H18586   6.494  11.649   8.632 -0.5158 -1.0842  0.5612
  135MOL0     H18587   6.318  11.685   8.671 -0.5882  0.7187 -0.1510
  135MOL0     H18588   6.568  11.355   8.673  1.5803 -1.2223  2.2824
  135MOL0     H18589   6.709  11.249   8.834  0.5242  1.2272  0.5400
  135MOL0     H18590   6.612  11.134   8.925 -1.3456  0.0416  0.5099
  135MOL0     H18591   6.676  11.284   9.001 -0.0695  3.7380 -1.7977
  135MOL0     H18592   6.366  11.496   9.346  0.5201  2.1654  3.8443
  135MOL0     H18593   6.380  11.482   9.590  0.9605 -0.1954  0.1152
  135MOL0     H18594   6.265  11.115   9.789  0.8310 -3.0545  1.3004
  135MOL0     H18595   6.420  11.071   9.719 -1.3355 -0.8897 -0.0896
  135MOL0     H18596   6.513  11.213   9.917  0.7634  0.2941 -1.7461
  135MOL0     H18597   6.352  11.193   9.988  0.0641 -0.5960 -1.1784
  135MOL0     H18598   6.363  10.946   9.956 -1.0580  1.5149 -1.4882
  135MOL0     H18599   6.480  11.016  10.084 -1.8403  2.2035 -0.2383
  135MOL0     H18600   6.661  10.999   9.904  2.3970 -2.1560  3.2417
  135MOL0     H18601   6.549  10.897   9.807  1.1530 -0.9491 -0.6713
  135MOL0     H18602   6.709  10.759   9.967 -0.4099  0.7817 -1.5671
  135MOL0     H18603   6.645  10.842  10.104 -1.5931 -3.6864  0.8473
  135MOL0     H18604   6.491  10.646   9.935 -1.2706  1.1377  0.0005
  135MOL0     H18605   6.427  10.730  10.072 -1.4182 -0.6203 -3.0186
  135MOL0     H18606   6.545  10.606  10.227 -0.8742 -0.0936  0.1513
  135MOL0     H18607   6.688  10.582  10.123  1.0212 -0.3757  0.1875
  135MOL0     H18608   6.416  10.436  10.100  0.1848  3.0974  1.7633
  135MOL0     H18609   6.554  10.365  10.184  1.9057 -0.1609 -0.9186
  135MOL0     H18610   6.294  11.060   9.546 -1.5988 -0.5273 -2.4931
  135MOL0     H18611   6.254  11.088   9.317  0.1813  0.8257 -1.8697
  135MOL0     H18612   6.186  11.387   8.979 -0.2968  0.1611  0.5195
  135MOL0     H18613   6.172  11.498   8.776 -0.9558  0.1658  5.3902
  135MOL0     H18614   5.966  11.230   9.186  0.7838  0.9036 -0.4442
  135MOL0     H18615   5.899  11.114   9.394  1.5712  0.4175  0.9885
  135MOL0     H18616   5.827  10.738   9.579 -0.7955  1.0893  1.0088
  135MOL0     H18617   5.721  10.642   9.788  0.6739 -1.2693  2.1474
  135MOL0     H18618   5.764  10.772  10.100  2.1810 -0.6261  2.2970
  135MOL0     H18619   5.664  10.678   9.983  0.5461  0.8565 -0.4298
  135MOL0     H18620   5.744  10.588  10.263  0.0240  0.8702  0.0000
  135MOL0     H18621   5.630  10.506  10.154 -1.2339 -0.3286  1.3758
  135MOL0     H18622   5.580  10.785  10.230  2.1533 -0.1799 -0.6696
  135MOL0     H18623   5.463  10.669  10.169  0.2533 -2.3510  0.5826
  135MOL0     H18624   5.591  10.691  10.453 -1.5283  1.7526 -0.4928
  135MOL0     H18625   5.518  10.540  10.410  0.3223  0.0496 -0.6507
  135MOL0     H18626   5.169  10.766  10.453  0.5068 -2.3699  2.9486
  135MOL0     H18627   6.083  10.618   9.969  0.9218  0.7420 -0.7926
  135MOL0     H18628   6.278  10.851   9.766 -1.9548  0.6124 -3.0248
  135MOL0     H18629   6.283  10.705   9.874  0.1605 -2.8547 -1.6176
  135MOL0     H18630   6.304  10.685   9.707  2.3009  0.0133  1.9729
  136MOL0     O18631   7.747   8.342   2.780  0.0301  0.0972  0.3181
  136MOL0     C18632   7.690   8.268   2.707  0.0788 -0.7448  0.3092
  136MOL0     O18633   7.740   8.224   2.583  0.2444 -0.4329 -0.0362
  136MOL0     C18634   7.874   8.209   2.542 -0.0034  0.6165 -0.0694
  136MOL0     C18635   7.982   8.250   2.624 -0.2479 -0.1974  0.3785
  136MOL0     C18636   8.107   8.251   2.576 -0.5357 -0.0362 -0.1302
  136MOL0     C18637   8.133   8.189   2.451  0.6661  0.0127  0.8688
  136MOL0     O18638   8.269   8.194   2.408  1.3217 -0.2866  0.0817
  136MOL0     C18639   8.289   8.234   2.271  0.1135 -0.4671  0.1283
  136MOL0     C18640   8.419   8.315   2.277  0.0268  0.5845 -0.3449
  136MOL0     C18641   8.447   8.398   2.147  0.0982 -0.1155 -0.5864
  136MOL0     C18642   8.581   8.460   2.170  1.1812  0.7755  0.7253
  136MOL0     C18643   8.648   8.510   2.035 -0.1834 -1.0172 -0.5058
  136MOL0     C18644   8.683   8.385   1.963  0.3717 -1.2180  0.1467
  136MOL0     C18645   8.788   8.404   1.849  0.2434 -0.1001 -0.7368
  136MOL0     C18646   8.927   8.359   1.897  0.6536  0.0057  0.1521
  136MOL0     N18647   9.043   8.387   1.806 -0.1465  0.5287 -0.8393
  136MOL0     C18648   9.117   8.292   1.740 -0.1978 -0.0056  0.0245
  136MOL0     C18649   9.224   8.362   1.687  1.0560  0.2488  0.3667
  136MOL0     C18650   9.336   8.303   1.606 -0.2975 -0.6408 -0.2272
  136MOL0     C18651   9.459   8.400   1.599  0.1387 -0.1357  0.1465
  136MOL0     C18652   9.414   8.509   1.493  0.8827 -0.1325 -0.8665
  136MOL0     C18653   9.507   8.635   1.509  0.4154 -0.5962 -0.2825
  136MOL0     O18654   9.644   8.592   1.490 -0.4092  0.1890 -0.5415
  136MOL0     C18655   9.723   8.628   1.383 -0.0222 -0.5019 -0.3444
  136MOL0     C18656   9.670   8.689   1.264 -0.4718  0.6308  0.4108
  136MOL0     C18657   9.748   8.755   1.175 -0.0351  0.0622  0.7519
  136MOL0     C18658   9.684   8.850   1.072  0.1946 -0.0393 -0.1805
  136MOL0     C18659   9.891   8.743   1.187 -0.2016  0.0569 -0.3027
  136MOL0     C18660   9.992   8.784   1.085 -0.2019 -0.3373  0.5611
  136MOL0     O18661  10.132   8.770   1.118  0.0749 -0.3557  0.4808
  136MOL0     C18662  10.239   8.834   1.057  0.2621 -0.1055  0.8732
  136MOL0     C18663  10.361   8.816   1.123  0.5605  0.3230  0.1397
  136MOL0     C18664  10.481   8.873   1.077  0.3448 -0.3429  0.3789
  136MOL0     C18665  10.474   8.945   0.953 -0.0133 -0.1689 -0.6771
  136MOL0     O18666  10.597   8.976   0.901  0.4386 -0.4997  0.1538
  136MOL0     C18667  10.619   8.986   0.758 -0.0979  0.1546  0.5662
  136MOL0     C18668  10.773   8.999   0.727  0.2947 -0.0260 -0.6671
  136MOL0     C18669  10.805   8.959   0.578 -0.1180  0.2066  0.3950
  136MOL0     C18670  10.951   8.981   0.544 -0.3249 -0.4253  0.2357
  136MOL0     C18671  10.974   8.938   0.399 -0.1441  0.5089  0.4992
  136MOL0     C18672  11.119   8.970   0.346 -0.2740 -0.6571  0.8909
  136MOL0     C18673  11.230   8.908   0.425  0.0945  0.1905 -0.9603
  136MOL0     C18674  11.242   8.759   0.420 -0.0181 -0.3370  0.0949
  136MOL0    Cl18675  11.312   8.716   0.258 -0.2381  0.4722  0.1839
  136MOL0     C18676  10.354   8.965   0.892 -0.6486  0.4525  0.9519
  136MOL0     C18677  10.239   8.919   0.950 -0.0903  0.6090  0.7745
  136MOL0     O18678   9.943   8.824   0.974 -0.7780  0.0760 -1.0640
  136MOL0     C18679   9.944   8.676   1.297 -0.0865 -0.6995 -0.2254
  136MOL0     C18680   9.852   8.636   1.400 -0.1418  0.2582  0.0404
  136MOL0     N18681   9.191   8.498   1.713 -0.0483 -0.1881 -0.1649
  136MOL0     N18682   9.083   8.514   1.772  0.6417  0.1630  0.1715
  136MOL0     C18683   8.031   8.135   2.373 -0.1623  0.1077  0.7873
  136MOL0     C18684   7.896   8.145   2.415 -0.2600 -0.5588 -0.3111
  136MOL0     C18685   7.560   8.204   2.754 -0.3136  0.3353  0.1172
  136MOL0     C18686   7.537   8.178   2.887 -0.5526  0.4908  0.0575
  136MOL0     C18687   7.417   8.126   2.930 -0.0851 -0.1244 -0.0207
  136MOL0     C18688   7.303   8.116   2.842 -0.3052  0.2993  0.3036
  136MOL0     O18689   7.198   8.046   2.894  0.3443  0.0880  1.0781
  136MOL0     C18690   7.072   8.048   2.820 -0.9173 -0.0066  0.1807
  136MOL0     C18691   7.065   7.954   2.711  0.7603  1.0518 -0.3117
  136MOL0     C18692   6.958   7.978   2.602  0.5986  0.5832  0.3713
  136MOL0     C18693   6.926   7.851   2.515 -0.5088 -0.3118 -0.6967
  136MOL0     C18694   6.834   7.901   2.409 -0.3838 -0.0854 -1.0042
  136MOL0     C18695   6.751   7.900   2.319  0.3410  1.4224  0.3796
  136MOL0     C18696   7.321   8.143   2.706 -0.4673  0.3112  1.4105
  136MOL0     C18697   7.452   8.193   2.660  0.8070 -0.0687 -0.3781
  136MOL0     C18698   7.469   8.230   2.514  0.9235 -0.0414  1.0204
  136MOL0     H18699   7.960   8.295   2.720  0.1913  1.1628 -0.1292
  136MOL0     H18700   8.187   8.291   2.637 -2.4090  0.5031  2.0918
  136MOL0     H18701   8.203   8.292   2.235  1.0806  0.4635 -0.7504
  136MOL0     H18702   8.299   8.151   2.201  2.6257 -1.2096  1.2568
  136MOL0     H18703   8.409   8.376   2.367  1.3162  2.6362 -1.5025
  136MOL0     H18704   8.505   8.248   2.286  1.9802  3.1710  2.5813
  136MOL0     H18705   8.455   8.323   2.068  2.6041 -3.1081  2.2265
  136MOL0     H18706   8.372   8.474   2.124  1.1397  1.1100 -0.0445
  136MOL0     H18707   8.565   8.546   2.236 -1.9845  1.0357 -0.2167
  136MOL0     H18708   8.643   8.381   2.213 -0.0319 -0.3984  0.3831
  136MOL0     H18709   8.740   8.567   2.047 -0.4726  0.3277 -3.6509
  136MOL0     H18710   8.583   8.577   1.977  0.1759 -1.0492 -0.9502
  136MOL0     H18711   8.724   8.309   2.031  2.7888 -1.7274 -1.7131
  136MOL0     H18712   8.596   8.351   1.907  1.1500 -1.7355 -0.7776
  136MOL0     H18713   8.802   8.506   1.813 -1.2512  0.3603 -0.0817
  136MOL0     H18714   8.770   8.346   1.757  3.7639 -1.2432 -0.8390
  136MOL0     H18715   8.941   8.424   1.983 -0.7048  3.2578 -1.8707
  136MOL0     H18716   8.920   8.255   1.931  0.8862  0.1454  0.6272
  136MOL0     H18717   9.092   8.186   1.741 -0.3679  0.0366  0.7941
  136MOL0     H18718   9.298   8.267   1.510 -1.2944 -0.3702  0.0453
  136MOL0     H18719   9.368   8.215   1.661  0.9450  1.4484  2.6701
  136MOL0     H18720   9.468   8.446   1.698  0.2656  2.0448 -0.8157
  136MOL0     H18721   9.559   8.364   1.573  0.9516  1.9317  0.1592
  136MOL0     H18722   9.426   8.456   1.398 -3.5112 -1.4881 -0.9263
  136MOL0     H18723   9.314   8.553   1.502 -0.3910 -2.9055 -0.4389
  136MOL0     H18724   9.478   8.721   1.449 -0.9118  1.2268  2.7252
  136MOL0     H18725   9.491   8.680   1.608  0.8454  2.4213 -1.4830
  136MOL0     H18726   9.562   8.691   1.250 -0.7070  3.0408  2.0031
  136MOL0     H18727   9.579   8.863   1.098  0.1319  2.2377 -1.3922
  136MOL0     H18728   9.690   8.805   0.972 -0.1542 -0.1378 -0.1604
  136MOL0     H18729   9.725   8.951   1.078  0.5831 -0.2329  0.5487
  136MOL0     H18730  10.369   8.757   1.214  0.5358  1.5280  0.9460
  136MOL0     H18731  10.581   8.867   1.119  1.0908  0.8654 -1.1087
  136MOL0     H18732  10.585   8.896   0.707 -1.2271  1.6145 -1.3809
  136MOL0     H18733  10.565   9.069   0.711  1.2241 -0.7252 -2.7467
  136MOL0     H18734  10.800   9.104   0.741 -2.5064  0.7398 -0.6116
  136MOL0     H18735  10.832   8.940   0.798  1.4770  3.0139  1.1017
  136MOL0     H18736  10.736   8.999   0.503 -2.7941  1.8096  3.4598
  136MOL0     H18737  10.799   8.850   0.572  0.0892  0.2427 -4.3697
  136MOL0     H18738  11.017   8.928   0.613  0.0787 -0.5473 -0.2374
  136MOL0     H18739  10.976   9.086   0.558  1.8899 -0.8361 -0.2890
  136MOL0     H18740  10.952   8.832   0.382  0.5649  0.4407 -0.0554
  136MOL0     H18741  10.903   8.998   0.342 -2.8789 -1.9216  1.0848
  136MOL0     H18742  11.132   9.079   0.352  0.9729 -0.5267 -2.2149
  136MOL0     H18743  11.120   8.964   0.237 -3.4836  0.5633  0.6772
  136MOL0     H18744  11.220   8.937   0.530  2.6786  0.3554 -0.7061
  136MOL0     H18745  11.319   8.955   0.383 -0.3204 -1.0874 -3.4871
  136MOL0     H18746  11.140   8.721   0.431 -1.1719  2.8517  1.7950
  136MOL0     H18747  11.319   8.721   0.488 -0.9476 -1.0343  0.7875
  136MOL0     H18748  10.327   9.023   0.804 -2.1257  0.0538  1.1219
  136MOL0     H18749  10.146   8.957   0.908  0.9951  2.6651  0.1091
  136MOL0     H18750  10.051   8.664   1.311 -0.0561  1.1362  1.4195
  136MOL0     H18751   9.903   8.597   1.487 -0.0901  1.7142  0.6894
  136MOL0     H18752   8.048   8.102   2.271 -0.7984  1.6602  0.1463
  136MOL0     H18753   7.820   8.115   2.343  0.6877  2.3909 -2.7771
  136MOL0     H18754   7.620   8.184   2.957 -2.9358  2.6823  2.9502
  136MOL0     H18755   7.398   8.086   3.029 -0.4493  1.1919  0.4539
  136MOL0     H18756   7.001   8.016   2.896 -2.0649 -1.3394 -1.3931
  136MOL0     H18757   7.044   8.149   2.787  0.6621  0.5855  0.5534
  136MOL0     H18758   7.019   7.863   2.750 -3.2971  1.8813 -2.6380
  136MOL0     H18759   7.161   7.940   2.661  1.0720  0.1472  0.5170
  136MOL0     H18760   6.867   8.004   2.657 -0.3541  1.5057 -1.5498
  136MOL0     H18761   6.979   8.060   2.533 -0.3626 -2.4520 -3.9545
  136MOL0     H18762   6.877   7.781   2.583 -0.6745 -0.8942 -1.4090
  136MOL0     H18763   7.017   7.805   2.475  0.2885 -0.0804  0.7655
  136MOL0     H18764   6.696   7.899   2.227 -1.3980 -1.7107  1.2991
  136MOL0     H18765   7.248   8.144   2.626  0.6186 -0.8897  0.3790
  136MOL0     H18766   7.510   8.332   2.508 -0.0399  0.5011  2.7367
  136MOL0     H18767   7.532   8.162   2.456 -3.2539 -1.6038 -2.1454
  136MOL0     H18768   7.372   8.217   2.465 -0.2537  0.0195  3.1834
  137MOL0     O18769   1.512   3.393  10.261 -0.1331  0.2241  0.2314
  137MOL0     C18770   1.448   3.337  10.169  0.3984 -0.5781 -0.3821
  137MOL0     O18771   1.317   3.288  10.179 -0.5521  0.6847 -0.4131
  137MOL0     C18772   1.259   3.290  10.303 -0.0241  0.3857  0.7404
  137MOL0     C18773   1.127   3.346  10.321 -0.2346 -0.3598 -0.5511
  137MOL0     C18774   1.059   3.326  10.438 -0.2443  0.3619  0.3870
  137MOL0     C18775   1.113   3.264  10.547  0.6259 -0.1287  0.5137
  137MOL0     O18776   1.050   3.255  10.659 -0.5364 -0.0520  0.1182
  137MOL0     C18777   1.117   3.194  10.778  0.4490 -0.4355  0.4042
  137MOL0     C18778   1.028   3.205  10.903  0.6216 -0.5758  0.6058
  137MOL0     C18779   1.088   3.155  11.030 -0.4246 -0.2344 -0.0729
  137MOL0     C18780   1.015   3.224  11.146 -0.1438  0.8774 -0.0913
  137MOL0     C18781   1.058   3.180  11.293 -0.3708  0.9915 -0.3266
  137MOL0     C18782   0.974   3.236  11.405  0.2321 -0.5329 -0.0422
  137MOL0     C18783   0.963   3.387  11.422 -0.6832  0.7383  0.6387
  137MOL0     C18784   1.085   3.435  11.490  0.0009 -0.0890  0.6563
  137MOL0     N18785   1.090   3.585  11.512 -0.0148  0.2195 -0.7376
  137MOL0     C18786   1.121   3.678  11.418 -0.5137  0.3219 -0.9537
  137MOL0     C18787   1.133   3.797  11.485  0.8032  0.0108 -0.2914
  137MOL0     C18788   1.157   3.923  11.407 -0.0204  0.8231  0.2814
  137MOL0     C18789   1.043   3.967  11.320  0.4247  0.6263  0.4069
  137MOL0     C18790   0.944   4.048  11.398  0.6600 -0.2464 -1.2596
  137MOL0     C18791   0.843   4.127  11.324  0.8643 -0.7199 -0.0020
  137MOL0     O18792   0.758   4.041  11.246 -0.0819  0.0088  0.0682
  137MOL0     C18793   0.648   4.095  11.190  0.3927  0.0226  0.4667
  137MOL0     C18794   0.624   4.231  11.155 -0.7417  0.0634  1.5323
  137MOL0     C18795   0.506   4.271  11.098 -0.8659  0.8509  0.0494
  137MOL0     C18796   0.506   4.413  11.054 -0.3388 -0.6184 -0.0077
  137MOL0     C18797   0.404   4.176  11.075 -0.0552  0.1336  0.0905
  137MOL0     C18798   0.280   4.220  11.011  0.1189  0.5920 -0.0484
  137MOL0     O18799   0.227   4.140  10.914  0.6020 -0.2492  0.5000
  137MOL0     C18800   0.112   4.185  10.852 -0.1810 -0.3882 -0.4659
  137MOL0     C18801  -0.008   4.193  10.914 -0.6337 -1.1819  0.1872
  137MOL0     C18802  -0.128   4.235  10.850 -0.5430  0.7406  0.3445
  137MOL0     C18803  -0.125   4.272  10.717 -0.0698 -0.3974 -0.2027
  137MOL0     O18804  -0.240   4.306  10.651  0.0274  0.1376  0.8741
  137MOL0     C18805  -0.305   4.428  10.700 -0.1568  0.1988  1.0486
  137MOL0     C18806  -0.375   4.512  10.584 -0.4373 -0.4006 -1.1830
  137MOL0     C18807  -0.510   4.463  10.523  0.4422 -0.8160  0.3914
  137MOL0     C18808  -0.555   4.564  10.404  0.3460 -0.0121  0.0671
  137MOL0     C18809  -0.693   4.544  10.353  0.8741 -0.3634  0.5549
  137MOL0     C18810  -0.700   4.421  10.260 -1.7901  0.4358  0.8406
  137MOL0     C18811  -0.833   4.424  10.192 -0.5020  0.3816  0.2080
  137MOL0     C18812  -0.837   4.311  10.091 -0.4310  0.3616 -0.4399
  137MOL0    Cl18813  -0.748   4.357   9.948  0.0347 -0.2475  0.2404
  137MOL0     C18814  -0.001   4.269  10.652 -0.5878  0.0377  0.3150
  137MOL0     C18815   0.122   4.227  10.721 -0.5643 -0.0871  0.8573
  137MOL0     O18816   0.237   4.325  11.057 -0.7249 -0.2416  0.1986
  137MOL0     C18817   0.425   4.044  11.100 -0.1299  1.2185 -0.7999
  137MOL0     C18818   0.548   4.000  11.162 -0.1615 -0.5715 -0.2400
  137MOL0     N18819   1.114   3.776  11.624 -0.0923 -0.0905 -0.7861
  137MOL0     N18820   1.088   3.645  11.635  0.3376  0.8405  0.2529
  137MOL0     C18821   1.244   3.198  10.528  0.1118 -0.0539 -0.0885
  137MOL0     C18822   1.308   3.208  10.405 -0.5561  0.1327  0.2726
  137MOL0     C18823   1.518   3.321  10.042  0.3187  0.2463  0.1688
  137MOL0     C18824   1.451   3.286   9.927  0.4152  0.6240  0.1867
  137MOL0     C18825   1.507   3.279   9.800 -0.2400  0.0387 -0.0299
  137MOL0     C18826   1.644   3.292   9.784 -0.5027 -0.0007  0.7429
  137MOL0     O18827   1.701   3.275   9.661 -0.8525  0.2666  0.2605
  137MOL0     C18828   1.838   3.267   9.638  0.7967 -0.7463  0.2498
  137MOL0     C18829   1.866   3.278   9.485  0.3326  0.6181 -0.2549
  137MOL0     C18830   1.806   3.161   9.406  0.4890  0.0033 -0.6349
  137MOL0     C18831   1.667   3.192   9.358  0.2493 -0.1254 -0.0724
  137MOL0     C18832   1.620   3.090   9.254 -0.9384  0.4440 -0.0315
  137MOL0     C18833   1.576   3.019   9.163  0.2966  0.3074 -0.3707
  137MOL0     C18834   1.719   3.332   9.896 -1.0044 -0.2985 -1.1271
  137MOL0     C18835   1.658   3.343  10.025 -0.6809  0.4801  0.2294
  137MOL0     C18836   1.755   3.364  10.144 -0.1771 -0.0257  0.5291
  137MOL0     H18837   1.079   3.399  10.239  1.8828  1.1480 -0.9090
  137MOL0     H18838   0.957   3.365  10.438 -0.3904 -0.0164  0.1132
  137MOL0     H18839   1.211   3.242  10.805 -0.4119 -0.7599  4.6031
  137MOL0     H18840   1.153   3.094  10.752 -0.7387 -0.7979  0.0967
  137MOL0     H18841   1.002   3.310  10.919 -0.3378 -1.1750  3.5486
  137MOL0     H18842   0.938   3.147  10.882  1.0162 -0.6784 -0.9704
  137MOL0     H18843   1.079   3.046  11.033 -0.9554 -0.3675 -3.0734
  137MOL0     H18844   1.196   3.175  11.034 -0.1990 -1.2990 -0.5299
  137MOL0     H18845   1.024   3.330  11.122 -0.1855  0.6026 -1.4164
  137MOL0     H18846   0.908   3.201  11.135  0.1413 -0.9973  0.6500
  137MOL0     H18847   1.164   3.204  11.300  0.1926  0.3005 -4.1540
  137MOL0     H18848   1.047   3.072  11.300  0.7463  0.8445 -0.7413
  137MOL0     H18849   0.868   3.213  11.395  0.9712 -4.0156 -1.4956
  137MOL0     H18850   0.987   3.182  11.499 -1.2717 -0.1932  0.3888
  137MOL0     H18851   0.882   3.391  11.495  0.6259 -0.3101  2.2111
  137MOL0     H18852   0.929   3.442  11.333  0.1460  0.1494 -0.0601
  137MOL0     H18853   1.103   3.387  11.586  1.1454  1.8827  1.5024
  137MOL0     H18854   1.174   3.412  11.430  0.7392  0.7590  1.3833
  137MOL0     H18855   1.136   3.665  11.312 -0.5460  0.0090 -0.9196
  137MOL0     H18856   1.246   3.901  11.347  0.9447  2.0064  1.2207
  137MOL0     H18857   1.194   4.008  11.464  4.0870  1.5394 -2.9781
  137MOL0     H18858   1.085   4.015  11.231  0.7075 -1.9900 -0.9718
  137MOL0     H18859   0.983   3.887  11.275  2.8323 -0.5751 -0.8687
  137MOL0     H18860   0.886   3.975  11.456  0.5198  0.4856 -0.4602
  137MOL0     H18861   0.999   4.111  11.469 -1.5420  1.4558 -0.9538
  137MOL0     H18862   0.783   4.187  11.393  0.4385  3.7505 -3.8101
  137MOL0     H18863   0.887   4.203  11.258  1.0446  0.1496  1.0854
  137MOL0     H18864   0.697   4.308  11.176  0.9879 -1.6295  1.9613
  137MOL0     H18865   0.435   4.469  11.115 -1.3113 -0.8844 -0.8866
  137MOL0     H18866   0.475   4.422  10.950 -0.9517 -1.0606  0.1332
  137MOL0     H18867   0.608   4.453  11.057 -0.6464  0.1497  0.3541
  137MOL0     H18868  -0.019   4.162  11.018 -0.8199 -1.3226  0.1253
  137MOL0     H18869  -0.224   4.228  10.901 -1.4763 -0.8631 -1.4892
  137MOL0     H18870  -0.364   4.389  10.783  2.7477 -2.6365  1.9969
  137MOL0     H18871  -0.231   4.491  10.751  0.0477  1.9652 -1.2806
  137MOL0     H18872  -0.388   4.615  10.620 -1.3760 -0.4435 -1.3666
  137MOL0     H18873  -0.308   4.514  10.498 -0.4662 -1.6379 -1.2503
  137MOL0     H18874  -0.591   4.466  10.597 -0.3612  3.8786 -0.3229
  137MOL0     H18875  -0.494   4.366  10.477 -1.3040 -0.4918 -1.0251
  137MOL0     H18876  -0.485   4.552  10.321 -0.6049 -2.3259 -0.5079
  137MOL0     H18877  -0.550   4.667  10.441  2.2224 -1.4454  4.4125
  137MOL0     H18878  -0.761   4.531  10.438  0.0889  0.8860  0.1428
  137MOL0     H18879  -0.722   4.637  10.303 -1.5784 -0.6468  1.3457
  137MOL0     H18880  -0.684   4.328  10.314 -2.6673 -0.3767 -0.2467
  137MOL0     H18881  -0.621   4.426  10.184 -1.5909 -1.3906  0.8740
  137MOL0     H18882  -0.856   4.516  10.136 -3.4185 -1.7216 -2.3718
  137MOL0     H18883  -0.915   4.410  10.264 -0.8875 -0.0278 -0.3016
  137MOL0     H18884  -0.935   4.280  10.055  0.6015 -3.0965 -0.5810
  137MOL0     H18885  -0.802   4.216  10.131 -2.8144 -0.7842 -0.9139
  137MOL0     H18886   0.013   4.310  10.553  1.2412 -0.1737  0.4533
  137MOL0     H18887   0.216   4.234  10.668 -2.0740  3.0519 -1.7372
  137MOL0     H18888   0.350   3.971  11.072 -0.2482  0.8038  0.5274
  137MOL0     H18889   0.561   3.896  11.191  2.7991 -0.5999 -1.3682
  137MOL0     H18890   1.294   3.136  10.601  0.2071  1.9738  1.6653
  137MOL0     H18891   1.388   3.139  10.378 -2.2841 -0.9988 -2.4460
  137MOL0     H18892   1.351   3.245   9.941  1.2198 -1.6885 -0.3451
  137MOL0     H18893   1.453   3.254   9.709 -1.0705  0.8286  0.2330
  137MOL0     H18894   1.892   3.347   9.690 -0.0555  0.8413 -1.2130
  137MOL0     H18895   1.884   3.172   9.668 -1.1081 -1.9940 -0.6049
  137MOL0     H18896   1.975   3.283   9.478  0.3333  0.7273 -0.1789
  137MOL0     H18897   1.829   3.373   9.445 -1.1411 -0.1619 -0.8144
  137MOL0     H18898   1.857   3.149   9.310 -0.8138  0.4127 -1.4037
  137MOL0     H18899   1.810   3.062   9.453 -0.9099  0.4199  0.4110
  137MOL0     H18900   1.669   3.291   9.312 -0.4402  0.5415  1.2795
  137MOL0     H18901   1.587   3.194   9.432  1.1731  4.1795  1.0541
  137MOL0     H18902   1.519   2.974   9.084 -1.1154 -0.1709  0.8698
  137MOL0     H18903   1.827   3.340   9.901 -0.9379 -0.2367 -2.3063
  137MOL0     H18904   1.721   3.284  10.210  0.6284 -2.2717 -1.6343
  137MOL0     H18905   1.856   3.330  10.120 -1.2594 -3.8345  0.7057
  137MOL0     H18906   1.758   3.468  10.177 -1.8625  0.4250 -0.6017
  138MOL0     O18907   1.161  10.673   3.506  0.6241  0.6561 -0.2626
  138MOL0     C18908   1.138  10.629   3.619  0.6054  0.3338 -0.3083
  138MOL0     O18909   1.227  10.579   3.708 -0.3767 -0.6382 -0.5777
  138MOL0     C18910   1.360  10.634   3.689  0.4987 -0.5374 -0.1066
  138MOL0     C18911   1.461  10.540   3.699  0.5706  0.7118  0.3010
  138MOL0     C18912   1.597  10.571   3.695 -0.7888  0.0291  0.4368
  138MOL0     C18913   1.636  10.703   3.689 -0.6545 -0.3272 -1.1402
  138MOL0     O18914   1.769  10.737   3.688  0.1694  0.3569 -0.0991
  138MOL0     C18915   1.857  10.678   3.791  0.4530 -1.1943  0.7491
  138MOL0     C18916   2.000  10.697   3.727 -0.3868 -1.1783  0.4818
  138MOL0     C18917   2.116  10.707   3.835  0.0334 -0.3616  0.4457
  138MOL0     C18918   2.259  10.684   3.766 -0.0350  0.2306  0.0828
  138MOL0     C18919   2.288  10.788   3.649  0.7964  0.9292  0.0007
  138MOL0     C18920   2.433  10.765   3.603  0.2393  0.5595  0.2600
  138MOL0     C18921   2.504  10.901   3.567 -0.5772  0.2575  0.7491
  138MOL0     C18922   2.638  10.888   3.502  0.0565  0.0922 -0.6989
  138MOL0     N18923   2.622  10.873   3.360  0.3307 -0.2345 -0.5480
  138MOL0     C18924   2.606  10.757   3.293  0.6580 -0.2365  0.0146
  138MOL0     C18925   2.597  10.803   3.162 -1.3154 -0.1330  0.0293
  138MOL0     C18926   2.579  10.723   3.038  0.7734  1.1442 -1.3434
  138MOL0     C18927   2.437  10.676   3.014 -0.1820 -0.0372 -0.1040
  138MOL0     C18928   2.458  10.580   2.898  0.7475  0.2960 -0.6510
  138MOL0     C18929   2.336  10.557   2.806 -0.3976 -0.2134  0.7238
  138MOL0     O18930   2.329  10.658   2.695 -0.8488  0.1620  0.3333
  138MOL0     C18931   2.243  10.646   2.590  1.3688  0.3881 -0.6974
  138MOL0     C18932   2.237  10.741   2.494 -0.1243  0.5772  0.3039
  138MOL0     C18933   2.138  10.746   2.400  0.2862  0.8092  1.1656
  138MOL0     C18934   2.156  10.843   2.284 -0.3719 -0.9425 -0.0070
  138MOL0     C18935   2.039  10.637   2.396  0.1699  0.2638 -1.1241
  138MOL0     C18936   1.935  10.634   2.298 -0.2588 -0.4987  0.0075
  138MOL0     O18937   1.871  10.751   2.263  0.5212 -0.4045  0.1325
  138MOL0     C18938   1.749  10.745   2.192 -0.2862  0.0321 -0.7372
  138MOL0     C18939   1.631  10.782   2.253  0.3584 -0.3890 -0.0626
  138MOL0     C18940   1.503  10.765   2.199 -0.1584 -1.1966 -1.1609
  138MOL0     C18941   1.492  10.718   2.064 -0.2912  0.4626  0.9135
  138MOL0     O18942   1.373  10.720   1.990 -0.0423  0.5413  0.6798
  138MOL0     C18943   1.256  10.742   2.061  0.2031  0.5226 -0.3990
  138MOL0     C18944   1.236  10.890   2.071 -1.0979 -0.4528  0.2109
  138MOL0     C18945   1.093  10.925   2.131  0.4271  0.4998 -0.0762
  138MOL0     C18946   0.968  10.867   2.052  0.8055  0.3028 -0.5564
  138MOL0     C18947   0.965  10.924   1.913 -0.3314  0.0182 -0.0819
  138MOL0     C18948   0.821  10.971   1.891  1.0703  0.5247  0.5412
  138MOL0     C18949   0.796  11.110   1.971 -0.0726  0.4661  0.8501
  138MOL0     C18950   0.650  11.154   1.957  0.4645 -0.5978  0.0316
  138MOL0    Cl18951   0.606  11.189   1.786  0.4159 -0.0917  0.1463
  138MOL0     C18952   1.619  10.683   1.997  0.0840  0.2732  0.0886
  138MOL0     C18953   1.744  10.689   2.069  0.4179  0.7279  0.1966
  138MOL0     O18954   1.886  10.524   2.266 -1.0307 -0.1018  0.3419
  138MOL0     C18955   2.039  10.541   2.506  0.2879 -0.3117  0.3605
  138MOL0     C18956   2.139  10.549   2.599  0.4815 -0.2356  0.5594
  138MOL0     N18957   2.622  10.937   3.160  0.7150  0.1087 -0.1316
  138MOL0     N18958   2.633  10.979   3.275 -0.2917  0.2305 -0.5552
  138MOL0     C18959   1.532  10.798   3.688 -0.1251  0.4794 -0.0652
  138MOL0     C18960   1.399  10.768   3.670  0.1519  0.4914 -1.0666
  138MOL0     C18961   0.991  10.602   3.649 -0.0578 -0.4586  0.0338
  138MOL0     C18962   0.914  10.713   3.625  0.3605 -0.3327  0.6691
  138MOL0     C18963   0.776  10.713   3.651 -0.0371  0.0286 -1.3366
  138MOL0     C18964   0.718  10.609   3.726  0.1792 -0.4019 -0.2221
  138MOL0     O18965   0.582  10.606   3.763 -0.3931 -0.2997 -0.1861
  138MOL0     C18966   0.565  10.576   3.904  0.1091 -0.3471 -0.7717
  138MOL0     C18967   0.419  10.574   3.955 -0.6866 -0.2500 -0.3317
  138MOL0     C18968   0.397  10.486   4.085 -0.0507  0.3015  0.8137
  138MOL0     C18969   0.257  10.508   4.137  0.6199  0.5847 -0.4804
  138MOL0     C18970   0.267  10.610   4.243 -0.4548  0.9977 -0.3558
  138MOL0     C18971   0.276  10.699   4.321  0.0452  0.3488  0.1013
  138MOL0     C18972   0.803  10.500   3.756  0.1448  0.0831 -0.5187
  138MOL0     C18973   0.934  10.492   3.711  0.0158 -0.4445  0.0145
  138MOL0     C18974   1.005  10.361   3.735 -0.9514  0.2111  0.0341
  138MOL0     H18975   1.432  10.435   3.693  1.0618  0.6309 -1.0043
  138MOL0     H18976   1.662  10.484   3.698 -1.0515 -0.1986 -0.2461
  138MOL0     H18977   1.840  10.574   3.818  1.6031 -1.3657  0.8524
  138MOL0     H18978   1.849  10.743   3.880 -0.6662 -2.3662  1.5400
  138MOL0     H18979   2.030  10.628   3.648  2.8197 -0.2675  0.7720
  138MOL0     H18980   2.013  10.797   3.684 -0.7614  0.1643  3.2681
  138MOL0     H18981   2.109  10.810   3.872 -0.5412 -0.8436  1.7212
  138MOL0     H18982   2.106  10.638   3.919  0.2918 -1.1010 -0.1222
  138MOL0     H18983   2.328  10.702   3.849 -0.4914  1.5713  0.1892
  138MOL0     H18984   2.266  10.579   3.737  1.6066  0.1055  0.8020
  138MOL0     H18985   2.272  10.888   3.691 -0.2242  0.9855 -0.5128
  138MOL0     H18986   2.217  10.776   3.567  0.8083 -0.0501  0.1227
  138MOL0     H18987   2.492  10.721   3.684  0.9171  1.5220  0.3130
  138MOL0     H18988   2.424  10.699   3.516 -0.1109 -0.3283  0.9538
  138MOL0     H18989   2.537  10.941   3.663  0.8865  1.8238 -0.3539
  138MOL0     H18990   2.441  10.973   3.515 -1.3516 -1.1173 -0.2950
  138MOL0     H18991   2.707  10.969   3.529  0.6826 -0.8094  0.5323
  138MOL0     H18992   2.679  10.796   3.545 -0.4548  1.2659  2.5851
  138MOL0     H18993   2.589  10.663   3.344  1.2340  0.8370  2.2674
  138MOL0     H18994   2.635  10.630   3.049 -0.1523  0.7715  0.7276
  138MOL0     H18995   2.613  10.771   2.945  0.3739 -3.2715 -4.0725
  138MOL0     H18996   2.392  10.622   3.098  1.9262  1.3698  2.0755
  138MOL0     H18997   2.374  10.755   2.973 -0.0479 -0.7093 -1.6493
  138MOL0     H18998   2.536  10.602   2.824 -1.0907 -0.0801 -2.8239
  138MOL0     H18999   2.480  10.483   2.943 -3.2701 -0.8957 -0.8584
  138MOL0     H19000   2.352  10.458   2.764 -3.3985 -1.9930  3.3668
  138MOL0     H19001   2.246  10.560   2.868 -0.2715  2.6307  0.9379
  138MOL0     H19002   2.315  10.816   2.503  1.5072 -1.2402  2.9536
  138MOL0     H19003   2.090  10.829   2.197  1.3038  1.4183 -1.7984
  138MOL0     H19004   2.259  10.845   2.245  0.8739 -3.7722  2.6909
  138MOL0     H19005   2.135  10.944   2.317 -0.6125 -1.4272  1.3599
  138MOL0     H19006   1.636  10.828   2.351 -0.9297 -1.9031  0.7658
  138MOL0     H19007   1.421  10.804   2.259  0.2974 -2.6893  0.5197
  138MOL0     H19008   1.178  10.695   2.001  0.9721  0.5934 -1.4731
  138MOL0     H19009   1.252  10.688   2.156  1.8473 -0.2190 -0.7274
  138MOL0     H19010   1.309  10.939   2.136 -1.9092  0.0653  0.7478
  138MOL0     H19011   1.250  10.931   1.970  1.1627 -1.2430  0.1325
  138MOL0     H19012   1.080  11.031   2.152 -0.5540  0.3213  0.2568
  138MOL0     H19013   1.092  10.864   2.223  1.8880 -0.9774 -0.9784
  138MOL0     H19014   0.887  10.914   2.109 -0.9033 -1.3901 -1.4759
  138MOL0     H19015   0.957  10.758   2.055  0.5639  0.2870 -1.7601
  138MOL0     H19016   1.041  11.002   1.908  0.4481 -0.7895 -2.2188
  138MOL0     H19017   1.013  10.851   1.847  1.2802  0.9559 -0.0101
  138MOL0     H19018   0.741  10.905   1.925  0.7313  0.3831 -0.4951
  138MOL0     H19019   0.821  10.993   1.784  3.0942  3.0798  0.9549
  138MOL0     H19020   0.856  11.188   1.923  0.1237 -1.4378 -2.2397
  138MOL0     H19021   0.820  11.115   2.078 -0.4693  1.3953  0.9031
  138MOL0     H19022   0.619  11.232   2.027 -1.8430 -2.4298  1.1901
  138MOL0     H19023   0.581  11.076   1.991 -0.7480  0.5846  0.3555
  138MOL0     H19024   1.624  10.652   1.893  3.1785 -1.7438  0.6900
  138MOL0     H19025   1.834  10.649   2.021  0.5871 -2.8547  3.1065
  138MOL0     H19026   1.955  10.477   2.529  0.8260 -0.9923  0.4890
  138MOL0     H19027   2.132  10.483   2.684 -0.5820  0.4279  1.0036
  138MOL0     H19028   1.575  10.897   3.689  0.0332  0.4065  0.2943
  138MOL0     H19029   1.328  10.850   3.668  0.0692  0.4762  0.3149
  138MOL0     H19030   0.957  10.791   3.563 -0.0026 -0.7809 -0.1612
  138MOL0     H19031   0.711  10.793   3.616 -1.0881  1.2303  2.8342
  138MOL0     H19032   0.611  10.480   3.932  0.0512 -0.4041 -0.8722
  138MOL0     H19033   0.619  10.649   3.965 -0.9475 -1.9713  2.3551
  138MOL0     H19034   0.360  10.551   3.866  0.0198 -1.4647 -0.4977
  138MOL0     H19035   0.391  10.679   3.972 -0.5081  0.1634 -2.3820
  138MOL0     H19036   0.426  10.383   4.060 -0.9877  0.6541 -2.1081
  138MOL0     H19037   0.474  10.515   4.157  0.9352 -1.8164  0.6952
  138MOL0     H19038   0.204  10.417   4.166  0.2546  1.0271  0.2680
  138MOL0     H19039   0.185  10.551   4.066 -0.4981 -2.9632 -1.7227
  138MOL0     H19040   0.300  10.779   4.388  1.8610 -1.7941  2.1612
  138MOL0     H19041   0.750  10.412   3.790  1.5951 -0.9887 -0.9304
  138MOL0     H19042   0.953  10.288   3.673 -0.6370 -0.4547  0.5369
  138MOL0     H19043   1.114  10.356   3.730 -1.0254 -0.1371 -2.3185
  138MOL0     H19044   0.978  10.332   3.837  1.2519 -3.5415 -0.2905
  139MOL0     O19045   9.087   9.109   7.125  0.0808 -0.3666  0.6025
  139MOL0     C19046   9.179   9.051   7.065 -0.1148 -0.1851  0.3044
  139MOL0     O19047   9.310   9.047   7.110  0.6827 -0.0855 -1.0574
  139MOL0     C19048   9.361   9.143   7.193 -0.2304 -0.7220  0.1282
  139MOL0     C19049   9.442   9.102   7.298  0.5996  1.3137 -0.9903
  139MOL0     C19050   9.508   9.197   7.374  0.4651 -0.1264 -0.2886
  139MOL0     C19051   9.500   9.336   7.342  0.5108 -0.4366 -0.6327
  139MOL0     O19052   9.565   9.428   7.420  0.5433  0.9763  0.1014
  139MOL0     C19053   9.643   9.398   7.538  1.0753  0.3521 -0.2202
  139MOL0     C19054   9.603   9.503   7.645 -0.2607 -0.0483 -0.4301
  139MOL0     C19055   9.650   9.471   7.784 -0.4484 -0.0302  0.3076
  139MOL0     C19056   9.662   9.596   7.871  0.0489  0.0013 -0.3711
  139MOL0     C19057   9.681   9.552   8.017 -0.0498 -0.1202  0.1388
  139MOL0     C19058   9.631   9.664   8.111 -0.6828 -0.3334 -0.6440
  139MOL0     C19059   9.624   9.615   8.254 -0.4176  0.0290 -0.0712
  139MOL0     C19060   9.515   9.519   8.290  1.0136 -0.5126 -0.2635
  139MOL0     N19061   9.516   9.465   8.425 -0.3686 -0.1829 -0.2995
  139MOL0     C19062   9.616   9.385   8.476 -0.1989  0.0101  0.1945
  139MOL0     C19063   9.605   9.388   8.609  0.6811  0.5585  0.2289
  139MOL0     C19064   9.689   9.324   8.719 -0.3784 -0.7876 -0.5074
  139MOL0     C19065   9.795   9.252   8.642 -0.0323  0.8053 -0.6438
  139MOL0     C19066   9.863   9.148   8.747  0.8222 -0.3879  0.2321
  139MOL0     C19067   9.931   9.034   8.678  0.6545  1.4235  0.8052
  139MOL0     O19068  10.024   9.073   8.573  0.5050 -0.4609 -0.4236
  139MOL0     C19069  10.136   9.004   8.567  0.5176 -0.7464 -0.7979
  139MOL0     C19070  10.138   8.870   8.536 -0.5097 -0.1993 -0.2196
  139MOL0     C19071  10.257   8.799   8.540 -0.4417  0.1512 -0.0458
  139MOL0     C19072  10.247   8.648   8.507  0.3864  0.0606 -0.4660
  139MOL0     C19073  10.374   8.856   8.586  0.1360 -0.0128 -0.3412
  139MOL0     C19074  10.504   8.781   8.588 -0.0934 -0.1962  1.1089
  139MOL0     O19075  10.606   8.845   8.645 -0.6809  0.5753 -0.3571
  139MOL0     C19076  10.731   8.777   8.644  0.5658 -0.1313  0.9494
  139MOL0     C19077  10.754   8.691   8.746 -0.4149  0.3949 -0.7941
  139MOL0     C19078  10.879   8.626   8.752 -0.5039  0.7609 -0.2034
  139MOL0     C19079  10.980   8.648   8.658 -0.3551  0.6719 -0.0714
  139MOL0     O19080  11.101   8.582   8.654  0.0177 -0.0548 -0.2670
  139MOL0     C19081  11.133   8.485   8.758 -0.3032 -0.7919 -0.2571
  139MOL0     C19082  11.274   8.431   8.761 -0.6700  0.0611 -0.5026
  139MOL0     C19083  11.386   8.527   8.727 -0.3845 -0.6416  0.8122
  139MOL0     C19084  11.522   8.452   8.737 -0.0207  0.4018  0.3481
  139MOL0     C19085  11.630   8.567   8.747  0.2762  0.5383  0.3723
  139MOL0     C19086  11.778   8.519   8.742  0.8696  0.6323 -0.0901
  139MOL0     C19087  11.858   8.653   8.738  0.6488 -0.8570  1.0246
  139MOL0     C19088  12.000   8.634   8.774 -0.2406 -0.3317  0.5480
  139MOL0    Cl19089  12.067   8.548   8.635 -0.3980  0.0250  0.1044
  139MOL0     C19090  10.947   8.733   8.549  0.9560 -0.2271 -0.7815
  139MOL0     C19091  10.827   8.795   8.546 -0.7595 -0.1828  0.3761
  139MOL0     O19092  10.511   8.676   8.519  0.3371 -0.6325  0.1083
  139MOL0     C19093  10.363   8.997   8.633  0.2173  0.3455  0.2636
  139MOL0     C19094  10.250   9.069   8.607  0.4599 -0.3257 -0.9657
  139MOL0     N19095   9.500   9.473   8.645 -0.3379  0.2617  0.1827
  139MOL0     N19096   9.446   9.518   8.538  0.2425 -0.0107  0.3079
  139MOL0     C19097   9.414   9.381   7.242 -0.2608 -0.0523 -0.4670
  139MOL0     C19098   9.336   9.280   7.172  0.1138  0.2146 -1.2953
  139MOL0     C19099   9.148   9.000   6.930 -0.1367 -0.8232  0.6243
  139MOL0     C19100   9.240   9.018   6.829  0.1010  0.4512  0.9072
  139MOL0     C19101   9.227   8.963   6.702 -0.4754 -0.1114  0.1084
  139MOL0     C19102   9.118   8.895   6.658  0.2846  0.1867  0.0549
  139MOL0     O19103   9.118   8.848   6.530  0.1281  0.0205 -0.9330
  139MOL0     C19104   9.022   8.752   6.477 -0.2606 -0.3671 -0.3436
  139MOL0     C19105   9.096   8.619   6.485  0.0206 -0.2660  0.3523
  139MOL0     C19106   9.014   8.506   6.414 -0.2818  0.3318  0.3179
  139MOL0     C19107   9.098   8.377   6.389  0.1001  0.3220 -0.7133
  139MOL0     C19108   9.028   8.269   6.324 -0.1148  0.6147  0.1693
  139MOL0     C19109   8.988   8.171   6.266  0.3761 -0.4866  0.1031
  139MOL0     C19110   9.019   8.868   6.759  0.3699  0.9148  0.4319
  139MOL0     C19111   9.041   8.910   6.896  0.5253  1.0456 -0.0070
  139MOL0     C19112   8.931   8.881   6.995 -0.1081 -0.1627  0.2074
  139MOL0     H19113   9.451   9.000   7.333 -2.6290  1.3397  0.2402
  139MOL0     H19114   9.557   9.156   7.462  0.7953  0.7308 -0.0648
  139MOL0     H19115   9.752   9.392   7.528  1.0505  0.1835 -0.3933
  139MOL0     H19116   9.619   9.301   7.582 -2.0403  0.5371 -1.3115
  139MOL0     H19117   9.646   9.599   7.614  2.8819 -0.6399  1.6576
  139MOL0     H19118   9.494   9.514   7.648 -0.2383 -0.0366  0.6547
  139MOL0     H19119   9.587   9.397   7.833 -0.3839 -0.5686 -0.4163
  139MOL0     H19120   9.753   9.434   7.781 -1.2195 -2.3738  0.6892
  139MOL0     H19121   9.739   9.666   7.837  0.2142 -0.5562 -1.1515
  139MOL0     H19122   9.569   9.653   7.860  1.5810  2.8097  0.0954
  139MOL0     H19123   9.785   9.522   8.030 -0.5362 -1.8579  0.2282
  139MOL0     H19124   9.622   9.460   8.027 -0.8662  0.0541 -2.3648
  139MOL0     H19125   9.710   9.739   8.096 -0.3432 -0.9594 -2.2214
  139MOL0     H19126   9.538   9.712   8.081 -0.0154  2.4399  1.3648
  139MOL0     H19127   9.615   9.710   8.308  0.8816  0.3408 -0.3742
  139MOL0     H19128   9.717   9.567   8.286  0.2625  1.4480  0.2127
  139MOL0     H19129   9.423   9.575   8.269 -0.0247 -0.8068  2.9420
  139MOL0     H19130   9.514   9.430   8.228 -3.4460 -0.1565 -1.0085
  139MOL0     H19131   9.686   9.327   8.416  0.3343  1.5303 -0.7038
  139MOL0     H19132   9.634   9.255   8.783 -0.9503  1.0516  1.0438
  139MOL0     H19133   9.739   9.401   8.778 -2.0036 -1.0466  1.3103
  139MOL0     H19134   9.745   9.184   8.571 -4.4165  1.9963  0.9776
  139MOL0     H19135   9.859   9.331   8.603  0.3863  0.3205 -0.9547
  139MOL0     H19136   9.934   9.206   8.806 -0.6691  0.1479  1.5643
  139MOL0     H19137   9.788   9.096   8.806 -0.7051  1.3865 -0.0299
  139MOL0     H19138   9.981   8.968   8.750 -1.2850  0.1649  1.0958
  139MOL0     H19139   9.853   8.979   8.625 -0.6318  0.6038  3.3761
  139MOL0     H19140  10.043   8.824   8.508  0.0903 -1.1252 -0.7920
  139MOL0     H19141  10.293   8.585   8.584  1.7438  1.4895 -0.0465
  139MOL0     H19142  10.296   8.621   8.412 -2.1922 -3.1862 -1.0493
  139MOL0     H19143  10.143   8.622   8.489  0.8080 -0.4477 -2.4646
  139MOL0     H19144  10.676   8.665   8.817 -0.0891 -1.1106 -0.9457
  139MOL0     H19145  10.909   8.562   8.834  0.2338  0.2477 -0.8644
  139MOL0     H19146  11.119   8.528   8.858  0.6003  1.7324 -1.1489
  139MOL0     H19147  11.065   8.399   8.751 -2.3081  0.5191  1.6082
  139MOL0     H19148  11.298   8.397   8.863 -0.9102  2.1112  0.2812
  139MOL0     H19149  11.279   8.347   8.691 -2.4035 -0.5728  0.0659
  139MOL0     H19150  11.385   8.609   8.799  1.8028 -0.8607  1.1392
  139MOL0     H19151  11.360   8.559   8.625 -1.5696 -3.4714  0.1400
  139MOL0     H19152  11.540   8.404   8.640  1.6901  0.9612  0.3665
  139MOL0     H19153  11.540   8.384   8.820  0.7486  0.0277 -0.1164
  139MOL0     H19154  11.608   8.642   8.671 -2.1398  2.8767  3.1424
  139MOL0     H19155  11.617   8.616   8.844 -0.3351  1.3066 -0.0913
  139MOL0     H19156  11.790   8.476   8.642 -1.4029  0.0235 -0.1521
  139MOL0     H19157  11.797   8.460   8.832  0.9540 -0.3522 -0.7448
  139MOL0     H19158  11.816   8.719   8.814  0.8933 -1.2307  1.4933
  139MOL0     H19159  11.851   8.703   8.641 -2.3092  0.0156  1.5906
  139MOL0     H19160  12.005   8.568   8.861  0.6821 -1.9011 -0.6533
  139MOL0     H19161  12.042   8.734   8.791 -0.6588  0.1187 -0.9606
  139MOL0     H19162  11.030   8.758   8.483  1.0935 -0.8054 -0.8396
  139MOL0     H19163  10.814   8.870   8.469  1.1717  1.6159  1.7020
  139MOL0     H19164  10.444   9.056   8.675 -1.6751  3.7999 -0.5223
  139MOL0     H19165  10.242   9.170   8.645  1.2994 -0.0150 -1.5706
  139MOL0     H19166   9.393   9.485   7.219 -3.2492 -0.9421 -2.2879
  139MOL0     H19167   9.252   9.300   7.106 -1.0588 -0.7485 -0.1586
  139MOL0     H19168   9.328   9.080   6.819  1.2873 -1.2520  0.3399
  139MOL0     H19169   9.302   8.979   6.624 -4.1074  1.1137 -3.4942
  139MOL0     H19170   8.925   8.749   6.527  0.4491 -0.8500  1.0473
  139MOL0     H19171   9.019   8.782   6.372  0.3465 -1.2102 -0.6125
  139MOL0     H19172   9.129   8.579   6.582  1.9647  3.5741  1.4601
  139MOL0     H19173   9.192   8.622   6.432 -1.9621 -2.2905 -3.7845
  139MOL0     H19174   8.924   8.480   6.470 -0.4180 -1.8000 -0.7967
  139MOL0     H19175   8.978   8.543   6.318 -0.8992 -0.3374  0.2846
  139MOL0     H19176   9.136   8.348   6.488 -0.1976  3.4403  0.4464
  139MOL0     H19177   9.184   8.396   6.324 -0.0109 -5.7070 -3.3237
  139MOL0     H19178   8.971   8.084   6.205  1.1728  0.2504 -1.2230
  139MOL0     H19179   8.934   8.802   6.743 -0.3501  2.0997 -0.9324
  139MOL0     H19180   8.864   8.801   6.961  2.2890 -2.7240  1.1084
  139MOL0     H19181   8.973   8.855   7.093  0.5776 -2.7113 -0.6692
  139MOL0     H19182   8.859   8.962   6.996  2.6670  2.8874 -4.8577
  140MOL0     O19183   6.542   0.744   8.895 -0.1260  0.1183  0.0470
  140MOL0     C19184   6.643   0.811   8.903 -0.5967 -0.1065  0.3305
  140MOL0     O19185   6.649   0.938   8.864  0.1709 -0.1543 -0.0073
  140MOL0     C19186   6.530   1.012   8.875 -0.4413 -0.1277  0.6171
  140MOL0     C19187   6.463   1.048   8.760 -0.3689  0.5933 -0.4282
  140MOL0     C19188   6.353   1.131   8.764 -0.5077 -0.7519 -0.1043
  140MOL0     C19189   6.317   1.194   8.886 -0.4753  0.3069  0.3109
  140MOL0     O19190   6.212   1.275   8.896  0.1016  0.6005  0.4513
  140MOL0     C19191   6.202   1.372   8.792 -0.2466  0.3095  0.1538
  140MOL0     C19192   6.086   1.450   8.825  0.0744  0.1667 -0.0735
  140MOL0     C19193   6.075   1.573   8.730 -0.0161  0.3985 -0.7168
  140MOL0     C19194   5.929   1.604   8.682 -0.3095  0.8182  1.0670
  140MOL0     C19195   5.915   1.696   8.553  1.1741 -0.5293 -0.4467
  140MOL0     C19196   5.971   1.646   8.415 -0.3716 -0.4896  0.2680
  140MOL0     C19197   5.870   1.548   8.353 -0.3926  0.1275  0.1516
  140MOL0     C19198   5.916   1.481   8.213 -0.0769  0.1482 -0.4990
  140MOL0     N19199   6.050   1.423   8.200  0.3428 -0.2020  0.4985
  140MOL0     C19200   6.094   1.356   8.087 -0.1282  0.5378 -0.3782
  140MOL0     C19201   6.210   1.303   8.121 -0.7897  0.7007  0.4131
  140MOL0     C19202   6.304   1.210   8.049  0.2060 -0.2489  0.7139
  140MOL0     C19203   6.274   1.065   8.088  0.0688  0.0814  0.7220
  140MOL0     C19204   6.130   1.020   8.063  0.4091  0.0139  0.6807
  140MOL0     C19205   6.113   0.869   8.056 -0.4758 -0.5710  0.3812
  140MOL0     O19206   6.015   0.818   7.962  0.6754  0.4994  0.2798
  140MOL0     C19207   5.912   0.747   8.017 -0.2505 -0.1890  0.2793
  140MOL0     C19208   5.784   0.784   7.977 -0.6288  0.3287  0.3966
  140MOL0     C19209   5.670   0.707   8.009  0.2425 -0.0606 -0.5959
  140MOL0     C19210   5.531   0.765   7.977 -0.4999 -0.9483 -0.1650
  140MOL0     C19211   5.689   0.583   8.073  0.7224  0.3418 -0.0323
  140MOL0     C19212   5.586   0.489   8.109 -0.0744  0.7051  0.9180
  140MOL0     O19213   5.586   0.427   8.224  0.4791  1.1018 -1.0749
  140MOL0     C19214   5.507   0.307   8.227 -0.5425 -0.9685  0.6846
  140MOL0     C19215   5.559   0.182   8.191 -0.6722  0.2288 -0.9203
  140MOL0     C19216   5.480   0.070   8.193 -0.2216 -0.3701  0.9576
  140MOL0     C19217   5.348   0.072   8.240 -0.2021  0.8479 -1.2054
  140MOL0     O19218   5.259  -0.034   8.237  0.4767 -0.2006  0.4230
  140MOL0     C19219   5.289  -0.135   8.140  0.2850  0.6543  0.1394
  140MOL0     C19220   5.189  -0.256   8.139  0.3365 -0.1745 -0.5656
  140MOL0     C19221   5.049  -0.201   8.130  0.8887  0.0726  0.0519
  140MOL0     C19222   5.022  -0.139   7.990 -0.6026  0.2412  0.3177
  140MOL0     C19223   4.887  -0.086   7.967  1.6426 -0.0494 -0.4916
  140MOL0     C19224   4.779  -0.201   7.962 -0.9339 -0.6373 -0.6642
  140MOL0     C19225   4.655  -0.164   7.885  0.9448 -0.1946 -0.4191
  140MOL0     C19226   4.548  -0.276   7.909 -0.4940  0.4979  0.0667
  140MOL0    Cl19227   4.616  -0.440   7.851  0.0003  0.5055 -0.2245
  140MOL0     C19228   5.295   0.194   8.286  0.3159  0.4843  0.0971
  140MOL0     C19229   5.376   0.307   8.278 -0.0381 -0.7918  0.1979
  140MOL0     O19230   5.514   0.465   8.020  0.6175  0.6596  0.2237
  140MOL0     C19231   5.817   0.553   8.116 -0.3030  0.6869 -0.4797
  140MOL0     C19232   5.923   0.634   8.093  0.3747 -0.4369 -0.0080
  140MOL0     N19233   6.235   1.346   8.253  0.0504  0.0224  0.4138
  140MOL0     N19234   6.148   1.417   8.296  0.5148 -0.4721 -0.3055
  140MOL0     C19235   6.387   1.159   9.000  0.2308  0.0689 -0.6088
  140MOL0     C19236   6.494   1.073   8.992  0.4781  0.4303  0.1825
  140MOL0     C19237   6.767   0.741   8.930 -0.8264 -0.2355  0.0421
  140MOL0     C19238   6.878   0.769   8.842  1.1390 -0.0712 -0.2398
  140MOL0     C19239   6.975   0.675   8.827 -0.5733 -0.5776 -0.2576
  140MOL0     C19240   6.989   0.574   8.929 -0.3184  0.6726  0.1633
  140MOL0     O19241   7.088   0.482   8.913  0.1427  0.0511 -0.4205
  140MOL0     C19242   7.175   0.467   9.029  0.8960  0.1938 -0.1132
  140MOL0     C19243   7.271   0.354   9.011  0.3010  0.5121  1.0296
  140MOL0     C19244   7.349   0.359   9.138  0.4211  0.0140  0.8262
  140MOL0     C19245   7.465   0.247   9.125  0.5422  0.0836 -0.2700
  140MOL0     C19246   7.528   0.229   9.253 -0.8801 -0.3055  0.2811
  140MOL0     C19247   7.594   0.223   9.358  0.4067 -0.5303 -0.3141
  140MOL0     C19248   6.898   0.571   9.032  0.8022  0.5075 -0.4523
  140MOL0     C19249   6.781   0.642   9.028 -1.2597  0.2025  0.4211
  140MOL0     C19250   6.676   0.602   9.129 -0.1904  0.1191  0.7986
  140MOL0     H19251   6.477   1.006   8.660  2.0610 -0.2383  0.1892
  140MOL0     H19252   6.309   1.155   8.668 -2.3453  0.3948  0.9762
  140MOL0     H19253   6.201   1.330   8.691  2.3283 -0.6337  0.4414
  140MOL0     H19254   6.294   1.433   8.799 -0.6873  0.9080  0.9428
  140MOL0     H19255   6.003   1.379   8.822  0.6368 -0.5380  0.6664
  140MOL0     H19256   6.082   1.479   8.930  3.7704  0.7615  0.0564
  140MOL0     H19257   6.120   1.656   8.785  4.0779 -2.4385  0.7100
  140MOL0     H19258   6.136   1.563   8.640 -0.1464 -2.2178 -0.5943
  140MOL0     H19259   5.887   1.507   8.654 -0.5214  0.9822  0.8179
  140MOL0     H19260   5.864   1.647   8.759 -0.8903 -0.5237  1.3523
  140MOL0     H19261   5.948   1.797   8.579  0.8826 -0.8241  1.2310
  140MOL0     H19262   5.807   1.713   8.541  1.0713 -1.5395 -1.0686
  140MOL0     H19263   5.986   1.724   8.340 -0.2466 -1.1519 -0.3977
  140MOL0     H19264   6.069   1.607   8.447 -0.4558  0.8319  2.3707
  140MOL0     H19265   5.771   1.591   8.338 -1.3919 -1.8225  0.7901
  140MOL0     H19266   5.848   1.469   8.426 -0.8282 -1.4269 -1.6016
  140MOL0     H19267   5.835   1.418   8.176 -0.4556  0.2977  0.0645
  140MOL0     H19268   5.908   1.557   8.134 -0.4685  1.3535  0.6529
  140MOL0     H19269   6.035   1.335   7.998 -0.6460  0.6719 -0.0696
  140MOL0     H19270   6.402   1.240   8.087  0.3659 -0.0615  0.1745
  140MOL0     H19271   6.286   1.222   7.941 -0.4281  0.2748  0.8670
  140MOL0     H19272   6.330   0.999   8.021 -1.0665 -0.7160  0.5115
  140MOL0     H19273   6.300   1.031   8.188  0.7621 -1.4255  0.0664
  140MOL0     H19274   6.075   1.050   8.152 -2.6900 -3.2264  0.0961
  140MOL0     H19275   6.086   1.066   7.974 -0.8729 -3.7590 -0.8360
  140MOL0     H19276   6.207   0.819   8.031 -1.6116 -2.4595 -0.3745
  140MOL0     H19277   6.086   0.831   8.155  2.4515 -1.4086  0.9388
  140MOL0     H19278   5.792   0.882   7.931  1.1385  1.1941  2.4169
  140MOL0     H19279   5.447   0.697   7.959 -2.8238  1.3171  1.4083
  140MOL0     H19280   5.545   0.830   7.890  0.6575 -0.7009  0.1883
  140MOL0     H19281   5.494   0.826   8.060 -0.9782 -0.0947 -0.9961
  140MOL0     H19282   5.664   0.183   8.162  0.3074  1.8383  2.2967
  140MOL0     H19283   5.536  -0.010   8.147  3.8533  1.7882  1.6945
  140MOL0     H19284   5.279  -0.091   8.040 -0.2844 -1.7297 -0.9288
  140MOL0     H19285   5.389  -0.173   8.163 -0.5002 -0.3668  2.0740
  140MOL0     H19286   5.222  -0.334   8.070 -4.2391 -1.8657 -1.2092
  140MOL0     H19287   5.191  -0.296   8.241 -2.3449 -1.8110 -1.0586
  140MOL0     H19288   5.040  -0.127   8.209 -0.0573  0.2969 -0.2502
  140MOL0     H19289   4.977  -0.280   8.151 -0.9455  2.0757  1.6804
  140MOL0     H19290   5.039  -0.221   7.920  1.3863 -0.8600  1.9832
  140MOL0     H19291   5.093  -0.059   7.968 -1.0405  0.6883  0.5324
  140MOL0     H19292   4.853  -0.010   8.037  1.0101 -0.0577 -0.7787
  140MOL0     H19293   4.887  -0.052   7.863 -0.6612 -0.0549 -0.5474
  140MOL0     H19294   4.744  -0.228   8.062  0.5401  0.7419  0.2836
  140MOL0     H19295   4.825  -0.289   7.917 -2.8918 -1.7171 -0.6464
  140MOL0     H19296   4.683  -0.166   7.780 -0.7986  0.1878 -0.9227
  140MOL0     H19297   4.614  -0.066   7.913  2.3095  0.2836 -0.0552
  140MOL0     H19298   4.454  -0.263   7.856 -0.4614  0.8869  0.1046
  140MOL0     H19299   4.520  -0.280   8.014 -3.2549  0.5497 -0.5883
  140MOL0     H19300   5.192   0.192   8.318 -0.2304  0.5090 -1.5801
  140MOL0     H19301   5.330   0.398   8.315 -0.2671 -0.8507  0.0665
  140MOL0     H19302   5.833   0.457   8.163  2.0530  1.2406 -0.0506
  140MOL0     H19303   6.021   0.612   8.133 -0.3820 -0.6041  1.8916
  140MOL0     H19304   6.360   1.216   9.088  2.0056  4.6307 -2.6706
  140MOL0     H19305   6.543   1.043   9.084  0.9761  0.0413 -0.2000
  140MOL0     H19306   6.855   0.841   8.765  0.0534  2.7011  2.4609
  140MOL0     H19307   7.053   0.680   8.752  0.3514 -2.1782  0.5244
  140MOL0     H19308   7.233   0.559   9.043  0.8164 -0.0695  2.4016
  140MOL0     H19309   7.120   0.450   9.122 -1.0282  1.2431 -0.9937
  140MOL0     H19310   7.334   0.364   8.922 -1.2284  0.3123 -0.1178
  140MOL0     H19311   7.212   0.263   8.996 -1.3500  1.8865 -1.5154
  140MOL0     H19312   7.393   0.459   9.145 -0.0833  0.2484  0.7022
  140MOL0     H19313   7.296   0.346   9.232  0.0158 -3.0059  0.2971
  140MOL0     H19314   7.543   0.285   9.058  1.1245  0.4231  0.5750
  140MOL0     H19315   7.433   0.155   9.076  1.6398 -0.3681 -0.1725
  140MOL0     H19316   7.635   0.227   9.457  1.4730  1.2857 -0.7890
  140MOL0     H19317   6.906   0.487   9.100 -1.4782  0.0863 -0.6230
  140MOL0     H19318   6.608   0.683   9.155  1.3116  1.4218  0.8429
  140MOL0     H19319   6.624   0.512   9.094  1.1789 -0.9610  1.4217
  140MOL0     H19320   6.727   0.566   9.219  0.6797  0.8071  0.5891
  141MOL0     O19321   3.611   9.297   2.696  0.1909  0.1790 -0.2432
  141MOL0     C19322   3.510   9.290   2.765 -0.1053  0.6769  1.0669
  141MOL0     O19323   3.491   9.356   2.885 -0.1028 -0.3216  0.4117
  141MOL0     C19324   3.600   9.430   2.931  0.5899  0.4788 -0.8104
  141MOL0     C19325   3.670   9.377   3.043 -0.0930 -0.1411  0.4722
  141MOL0     C19326   3.800   9.419   3.074  0.8569 -0.0174 -0.9698
  141MOL0     C19327   3.852   9.532   3.008 -0.6704 -0.2823  0.2582
  141MOL0     O19328   3.975   9.587   3.042  0.6623 -0.2027  0.1713
  141MOL0     C19329   4.093   9.545   2.966 -0.5755  0.4716  0.3573
  141MOL0     C19330   4.108   9.610   2.824 -0.3718 -1.3371  0.6326
  141MOL0     C19331   4.220   9.566   2.731 -0.2951 -0.1609 -0.7019
  141MOL0     C19332   4.230   9.643   2.590 -0.1951  0.4608  0.3059
  141MOL0     C19333   4.365   9.613   2.522  0.2219 -0.9825 -0.4451
  141MOL0     C19334   4.383   9.476   2.489  0.0404  0.6305 -0.5406
  141MOL0     C19335   4.527   9.459   2.433 -0.4343 -0.1728  0.5083
  141MOL0     C19336   4.525   9.380   2.304 -0.0520  0.7381 -0.1813
  141MOL0     N19337   4.507   9.457   2.190  0.8632 -0.5603  0.0696
  141MOL0     C19338   4.388   9.483   2.127 -0.3537  0.2423 -0.1116
  141MOL0     C19339   4.434   9.547   2.015  0.4744 -0.0910  0.0593
  141MOL0     C19340   4.329   9.610   1.917  0.3454  0.2608  0.6269
  141MOL0     C19341   4.288   9.759   1.934  0.6647 -0.6218  0.5002
  141MOL0     C19342   4.175   9.801   1.845  0.5202  0.3443 -0.5139
  141MOL0     C19343   4.133   9.951   1.835 -0.8362 -0.7133 -0.5255
  141MOL0     O19344   4.006   9.973   1.896  0.0067 -0.2935 -0.1574
  141MOL0     C19345   3.889   9.997   1.823  0.5029 -0.1170 -0.7243
  141MOL0     C19346   3.779  10.053   1.882  1.0196 -0.2942 -0.7363
  141MOL0     C19347   3.657  10.082   1.817  0.4183 -0.3219 -0.4637
  141MOL0     C19348   3.551  10.163   1.901 -0.4571  0.0256 -0.2651
  141MOL0     C19349   3.652  10.061   1.677 -0.3467 -0.2050 -0.1155
  141MOL0     C19350   3.536  10.082   1.594 -0.3093  0.8083 -0.3448
  141MOL0     O19351   3.564  10.112   1.459 -0.6081 -0.6997 -0.3078
  141MOL0     C19352   3.460  10.113   1.366  0.4777  0.4010  0.1163
  141MOL0     C19353   3.371  10.214   1.350  1.0813  0.3187 -0.1408
  141MOL0     C19354   3.245  10.195   1.279  0.7150  0.6596  0.1169
  141MOL0     C19355   3.218  10.073   1.217 -0.6850  0.0679 -0.4751
  141MOL0     O19356   3.092  10.056   1.157  0.1174 -0.6373 -0.4781
  141MOL0     C19357   3.020   9.941   1.191  0.5767  0.2773  0.0285
  141MOL0     C19358   2.957   9.866   1.070  0.0115  0.3233  0.5751
  141MOL0     C19359   3.052   9.802   0.973  0.1393  0.2862 -0.6215
  141MOL0     C19360   3.114   9.907   0.878 -0.1166  0.0297  0.1479
  141MOL0     C19361   3.217   9.841   0.781  0.2535 -0.4155 -0.0220
  141MOL0     C19362   3.308   9.955   0.716  0.4775 -0.5399  0.2324
  141MOL0     C19363   3.442   9.886   0.682  0.7721  0.8110  0.1386
  141MOL0     C19364   3.558   9.947   0.732  0.0354 -0.6988 -0.0169
  141MOL0    Cl19365   3.706   9.843   0.695 -0.0069  0.4334  0.4052
  141MOL0     C19366   3.321   9.979   1.213 -0.1397  0.3683  0.2632
  141MOL0     C19367   3.444  10.000   1.288  0.2471 -0.3630  0.4982
  141MOL0     O19368   3.423  10.067   1.646  0.2851  0.0404  0.2691
  141MOL0     C19369   3.764  10.005   1.618 -0.2616  0.0455 -0.0074
  141MOL0     C19370   3.883   9.979   1.685  0.0856 -0.3172  0.1754
  141MOL0     N19371   4.574   9.553   2.013  0.0417 -0.5930 -0.4432
  141MOL0     N19372   4.619   9.505   2.129 -0.0446  0.2354  0.3000
  141MOL0     C19373   3.782   9.595   2.904  0.6232  0.3063  0.4538
  141MOL0     C19374   3.662   9.537   2.857 -0.0518  0.3705  0.0025
  141MOL0     C19375   3.407   9.202   2.706  0.1591  0.1799  0.3104
  141MOL0     C19376   3.293   9.169   2.782  0.9350 -0.2587 -0.2535
  141MOL0     C19377   3.177   9.106   2.733  0.1825 -0.1308  0.5165
  141MOL0     C19378   3.183   9.055   2.600  0.0086  0.2534  0.2462
  141MOL0     O19379   3.077   8.982   2.552  0.3477  0.2306 -0.0494
  141MOL0     C19380   3.102   8.848   2.517 -0.3644  0.0599 -0.3773
  141MOL0     C19381   3.080   8.753   2.633 -0.3434  0.1627 -0.7525
  141MOL0     C19382   2.965   8.783   2.725  0.2592  0.6236  0.3664
  141MOL0     C19383   2.965   8.705   2.865  0.1550 -0.8171 -0.3801
  141MOL0     C19384   2.945   8.563   2.844  0.2489 -0.3619  1.2575
  141MOL0     C19385   2.922   8.452   2.813  0.6802 -0.1938 -0.6070
  141MOL0     C19386   3.288   9.092   2.517 -0.6060 -0.3273 -0.4158
  141MOL0     C19387   3.404   9.161   2.569  0.5028  0.0304 -0.0810
  141MOL0     C19388   3.520   9.174   2.474  0.1633  0.0174  0.6225
  141MOL0     H19389   3.626   9.288   3.087 -0.2811 -0.9706 -1.3072
  141MOL0     H19390   3.855   9.374   3.156  0.3289  1.4207  0.2203
  141MOL0     H19391   4.088   9.438   2.945  0.3765  0.2182  1.3595
  141MOL0     H19392   4.174   9.574   3.033 -1.2400  2.4598  0.3802
  141MOL0     H19393   4.024   9.577   2.763  0.2378 -0.4856 -0.7164
  141MOL0     H19394   4.113   9.719   2.835  1.5338 -1.4049  0.8637
  141MOL0     H19395   4.315   9.573   2.786 -0.1833 -1.5924 -0.6833
  141MOL0     H19396   4.189   9.462   2.723  0.9572 -0.6441  0.3134
  141MOL0     H19397   4.151   9.606   2.523 -0.9445  2.1131  0.2122
  141MOL0     H19398   4.214   9.751   2.595 -1.7043  0.5724 -3.3924
  141MOL0     H19399   4.444   9.651   2.587 -0.5211 -0.8692  0.4165
  141MOL0     H19400   4.362   9.673   2.430  0.4739  4.3948  2.6359
  141MOL0     H19401   4.365   9.407   2.573  0.4790  1.0164 -0.1214
  141MOL0     H19402   4.318   9.450   2.405  2.2148 -0.1623 -2.0814
  141MOL0     H19403   4.581   9.402   2.510  1.3397 -1.8068 -1.8273
  141MOL0     H19404   4.580   9.554   2.421 -0.5839  0.3593  3.2813
  141MOL0     H19405   4.604   9.305   2.294 -1.3524 -1.1475  2.3690
  141MOL0     H19406   4.436   9.319   2.324  1.7483 -1.4036  1.8666
  141MOL0     H19407   4.286   9.464   2.159 -0.0460  0.7833  1.2249
  141MOL0     H19408   4.239   9.548   1.928 -1.0735  1.6153 -2.2421
  141MOL0     H19409   4.361   9.597   1.813 -2.2110 -2.4041  0.0209
  141MOL0     H19410   4.264   9.770   2.040 -1.5554 -1.4020  0.1443
  141MOL0     H19411   4.371   9.825   1.909 -0.6732  0.3478 -1.7084
  141MOL0     H19412   4.184   9.755   1.747 -2.0236  1.5381 -1.4025
  141MOL0     H19413   4.084   9.749   1.877  1.5277 -2.2673 -1.5886
  141MOL0     H19414   4.208  10.012   1.887 -0.0089 -1.9639 -0.2139
  141MOL0     H19415   4.133   9.967   1.727 -1.2108 -4.0029 -1.1159
  141MOL0     H19416   3.781  10.059   1.990 -1.1045 -1.6962 -0.5668
  141MOL0     H19417   3.594  10.225   1.980 -2.6344 -2.0901  2.7920
  141MOL0     H19418   3.501  10.088   1.963 -2.2110  0.0164 -1.6253
  141MOL0     H19419   3.467  10.202   1.842 -1.1957 -1.4263 -0.2092
  141MOL0     H19420   3.376  10.307   1.404 -0.4708  2.6571 -3.6538
  141MOL0     H19421   3.157  10.258   1.281  0.8679  0.8818  2.0972
  141MOL0     H19422   3.084   9.884   1.258  2.2603 -0.6345 -2.2330
  141MOL0     H19423   2.935   9.963   1.257  0.9325 -2.9362  1.7221
  141MOL0     H19424   2.887   9.787   1.098 -2.5785  1.0574 -2.9949
  141MOL0     H19425   2.903   9.945   1.016 -0.2151  0.4885  1.0436
  141MOL0     H19426   3.004   9.720   0.918  1.7507 -1.7241  0.8170
  141MOL0     H19427   3.128   9.763   1.042 -0.9080 -0.5709  0.0771
  141MOL0     H19428   3.167   9.979   0.940 -0.7872 -0.5807  1.4736
  141MOL0     H19429   3.036   9.956   0.819 -1.0772  0.4073  1.6722
  141MOL0     H19430   3.269   9.775   0.852 -2.6506 -1.8411  0.9122
  141MOL0     H19431   3.167   9.773   0.712  1.3094 -1.8697  0.5836
  141MOL0     H19432   3.325  10.046   0.775  2.6668  1.3306 -2.9747
  141MOL0     H19433   3.266   9.982   0.619  1.0582 -1.1656 -0.2004
  141MOL0     H19434   3.450   9.870   0.574 -0.3185 -1.4989  0.3281
  141MOL0     H19435   3.450   9.784   0.721  1.5074 -0.4810 -3.0802
  141MOL0     H19436   3.556   9.956   0.841  1.2352  0.3837 -0.0568
  141MOL0     H19437   3.571  10.047   0.689 -3.6430 -1.0212 -2.3377
  141MOL0     H19438   3.322   9.889   1.152  0.1201 -0.9233  2.1005
  141MOL0     H19439   3.519   9.922   1.288 -1.7676 -2.4511 -1.1693
  141MOL0     H19440   3.767   9.994   1.510 -0.0545 -0.8893  0.0848
  141MOL0     H19441   3.972   9.950   1.630  1.2043  0.6688  1.4043
  141MOL0     H19442   3.813   9.665   2.828  0.7791  0.4009  0.6036
  141MOL0     H19443   3.618   9.566   2.762  1.7171  2.8667 -0.1556
  141MOL0     H19444   3.294   9.205   2.885 -0.5982  1.1097 -0.6813
  141MOL0     H19445   3.085   9.086   2.787 -0.8061 -0.7089 -1.2951
  141MOL0     H19446   3.026   8.813   2.446  1.5504 -1.6506 -1.7043
  141MOL0     H19447   3.193   8.830   2.458 -0.8388 -4.7951 -0.0154
  141MOL0     H19448   3.171   8.759   2.694 -1.7774 -3.9730  2.2084
  141MOL0     H19449   3.077   8.654   2.585  1.8156  0.0695 -0.8275
  141MOL0     H19450   2.970   8.888   2.754 -0.0600  1.0207 -0.9498
  141MOL0     H19451   2.881   8.757   2.659  0.6865  1.2391 -0.4306
  141MOL0     H19452   2.881   8.742   2.924  0.1864 -2.7971  0.9925
  141MOL0     H19453   3.049   8.733   2.929 -0.7844  0.4528  0.3300
  141MOL0     H19454   2.894   8.360   2.765  1.6764 -1.0213  0.3668
  141MOL0     H19455   3.290   9.075   2.410  0.7286  2.0697 -0.8505
  141MOL0     H19456   3.613   9.125   2.505  0.4066 -0.8741 -1.3680
  141MOL0     H19457   3.497   9.139   2.373  1.1394  1.3194 -0.0875
  141MOL0     H19458   3.539   9.280   2.457 -0.8528 -0.0374 -1.0723
  142MOL0     O19459  11.363   9.194   2.238 -1.0465 -0.1591 -0.8898
  142MOL0     C19460  11.375   9.146   2.125  0.1934 -0.0011 -0.7009
  142MOL0     O19461  11.290   9.053   2.071 -0.1222 -0.2208 -0.1340
  142MOL0     C19462  11.178   9.014   2.130 -0.1884 -0.2686  0.4206
  142MOL0     C19463  11.169   8.961   2.260  0.3961  0.6736  0.7420
  142MOL0     C19464  11.054   8.895   2.300 -0.0099 -0.2831 -0.7116
  142MOL0     C19465  10.938   8.890   2.231  0.2935 -0.0382  0.9246
  142MOL0     O19466  10.817   8.825   2.261  0.4867  0.4999 -0.3114
  142MOL0     C19467  10.800   8.698   2.185 -0.2075  0.0248 -0.6283
  142MOL0     C19468  10.701   8.620   2.283  0.2293 -0.3415 -0.1138
  142MOL0     C19469  10.667   8.489   2.217 -0.3525  0.4055 -0.2793
  142MOL0     C19470  10.593   8.396   2.318  0.5043 -0.4717 -0.0627
  142MOL0     C19471  10.619   8.246   2.299 -0.3255 -0.8447 -0.1812
  142MOL0     C19472  10.722   8.194   2.387  0.4739 -0.1918  0.2741
  142MOL0     C19473  10.753   8.045   2.357 -0.2529  0.0793 -1.0205
  142MOL0     C19474  10.848   7.976   2.467  0.4666  0.3026  0.5622
  142MOL0     N19475  10.807   7.992   2.604  0.3223 -0.1384 -0.0938
  142MOL0     C19476  10.774   7.900   2.704 -0.2650 -0.2511 -1.1852
  142MOL0     C19477  10.763   7.974   2.820 -0.3185 -0.0476 -0.7976
  142MOL0     C19478  10.714   7.917   2.949  0.5530  0.0875 -0.1657
  142MOL0     C19479  10.811   7.945   3.062  0.4396 -0.3018  0.3097
  142MOL0     C19480  10.823   7.844   3.174  0.0022 -1.5310  0.0333
  142MOL0     C19481  10.922   7.897   3.283  0.5254  0.4041 -0.4255
  142MOL0     O19482  10.910   8.034   3.326  0.2671  0.1196 -0.2497
  142MOL0     C19483  10.986   8.064   3.435  0.6326  0.0043 -0.6758
  142MOL0     C19484  11.126   8.082   3.436  0.5899  0.4064  0.4242
  142MOL0     C19485  11.195   8.086   3.556 -0.1605 -0.1115 -0.7098
  142MOL0     C19486  11.345   8.109   3.526  1.0197  0.3482  0.2279
  142MOL0     C19487  11.123   8.093   3.673 -1.2848  0.3540  0.2367
  142MOL0     C19488  11.194   8.070   3.794 -0.6922  0.4472  0.5582
  142MOL0     O19489  11.327   8.034   3.799  0.0149 -0.8951  0.5228
  142MOL0     C19490  11.393   8.059   3.909 -0.2397 -0.4489 -0.0546
  142MOL0     C19491  11.388   8.160   3.995  0.4790  0.1374 -0.3351
  142MOL0     C19492  11.487   8.189   4.089 -0.5724 -0.8037 -0.3140
  142MOL0     C19493  11.601   8.112   4.091  0.8145  1.4993 -0.3422
  142MOL0     O19494  11.699   8.138   4.176 -0.2170  0.0229  0.1886
  142MOL0     C19495  11.831   8.078   4.154  0.1375  1.3745  0.4631
  142MOL0     C19496  11.932   8.123   4.255  0.2587  0.6011  0.3208
  142MOL0     C19497  11.918   8.038   4.384  1.2269 -0.0134  0.2492
  142MOL0     C19498  12.015   8.078   4.490 -1.1542 -0.4206  0.4296
  142MOL0     C19499  11.992   8.009   4.622  0.1664  0.0660  1.3794
  142MOL0     C19500  12.087   8.052   4.731 -1.3230 -0.3612 -0.2298
  142MOL0     C19501  12.075   7.962   4.853  0.4162 -0.5036 -0.8820
  142MOL0     C19502  11.960   8.007   4.945 -0.2669  0.3303  0.3323
  142MOL0    Cl19503  11.794   7.964   4.889  0.0902  0.1505  0.6146
  142MOL0     C19504  11.602   7.991   4.014  1.9154  0.3089  0.2186
  142MOL0     C19505  11.499   7.975   3.928  0.9457  0.9693 -0.2443
  142MOL0     O19506  11.123   8.085   3.892  0.2051  0.6228 -0.0581
  142MOL0     C19507  10.985   8.094   3.670  0.8628 -0.6475  0.2159
  142MOL0     C19508  10.914   8.073   3.553 -0.1835  0.1332 -0.3167
  142MOL0     N19509  10.794   8.100   2.795  0.0833 -0.6667 -0.6317
  142MOL0     N19510  10.820   8.112   2.667  0.2148 -0.1619 -0.0126
  142MOL0     C19511  10.941   8.960   2.102  1.3461  0.1529  0.6202
  142MOL0     C19512  11.060   9.026   2.055  0.6283 -0.7432  0.6487
  142MOL0     C19513  11.493   9.180   2.052 -0.0234 -0.1270 -0.1526
  142MOL0     C19514  11.466   9.213   1.914  0.6038 -0.3985 -0.1444
  142MOL0     C19515  11.573   9.237   1.829 -0.4481 -0.6235 -0.0368
  142MOL0     C19516  11.709   9.233   1.875  0.1658  0.3227 -0.3323
  142MOL0     O19517  11.821   9.242   1.794  0.2124 -0.5329  0.6281
  142MOL0     C19518  11.800   9.246   1.652  0.1721  0.8710  0.1022
  142MOL0     C19519  11.932   9.236   1.578 -1.1276 -0.2257 -0.2903
  142MOL0     C19520  12.000   9.377   1.560 -0.3803  0.6251 -0.1111
  142MOL0     C19521  12.043   9.451   1.690  0.6288  0.1254  1.1405
  142MOL0     C19522  12.118   9.365   1.792  0.8600  0.1495 -0.3803
  142MOL0     C19523  12.189   9.312   1.868 -0.7801  0.6676 -0.6512
  142MOL0     C19524  11.729   9.208   2.008 -0.6294  0.2792 -0.1932
  142MOL0     C19525  11.622   9.185   2.100 -0.1307 -0.3199 -1.2014
  142MOL0     C19526  11.658   9.123   2.228 -0.1155  0.2099  0.9337
  142MOL0     H19527  11.265   8.950   2.310  1.7426 -3.6255 -2.1381
  142MOL0     H19528  11.061   8.838   2.392 -0.0550 -2.4246 -1.9621
  142MOL0     H19529  10.890   8.638   2.172  0.4130  0.6563  0.5454
  142MOL0     H19530  10.750   8.723   2.091 -1.0657  0.7472  0.0043
  142MOL0     H19531  10.749   8.597   2.379 -0.9003  1.1287  0.8320
  142MOL0     H19532  10.608   8.671   2.307  1.8963  3.6252 -1.2811
  142MOL0     H19533  10.595   8.503   2.136 -1.2412  2.6948  0.8288
  142MOL0     H19534  10.758   8.449   2.172 -1.0684  2.1886 -3.6129
  142MOL0     H19535  10.637   8.420   2.416  0.0029  2.6236 -0.4811
  142MOL0     H19536  10.488   8.424   2.326  1.1222  2.1184  0.2146
  142MOL0     H19537  10.651   8.235   2.195  0.8768 -0.9723  0.1860
  142MOL0     H19538  10.533   8.181   2.315 -0.9382 -0.3443 -1.3200
  142MOL0     H19539  10.814   8.252   2.375  0.4121 -0.4335 -1.7300
  142MOL0     H19540  10.670   8.209   2.482  2.3517  0.9608  1.1762
  142MOL0     H19541  10.796   8.021   2.259  2.4660 -0.0173  0.0934
  142MOL0     H19542  10.657   7.995   2.371  0.4713 -0.4847  3.1789
  142MOL0     H19543  10.853   7.870   2.439  0.5582  0.7863 -1.3461
  142MOL0     H19544  10.950   8.008   2.444  1.0202 -1.9244 -0.3842
  142MOL0     H19545  10.748   7.795   2.694  0.7894 -0.5027 -1.4003
  142MOL0     H19546  10.689   7.811   2.940  0.3243  0.1576 -0.3396
  142MOL0     H19547  10.624   7.968   2.984 -0.0713 -0.2563 -1.2409
  142MOL0     H19548  10.914   7.939   3.027  0.7559 -1.6680  1.3581
  142MOL0     H19549  10.793   8.046   3.100  1.0763 -0.4479  1.0460
  142MOL0     H19550  10.731   7.837   3.233  0.1531  1.5861  0.8404
  142MOL0     H19551  10.849   7.746   3.135  0.6235 -0.6895 -1.8225
  142MOL0     H19552  10.925   7.829   3.369  1.1024  0.9733  0.0098
  142MOL0     H19553  11.017   7.873   3.236  0.9842 -3.2727  1.9703
  142MOL0     H19554  11.178   8.077   3.341  2.2999  0.7477  1.3036
  142MOL0     H19555  11.402   8.166   3.600  2.5287  0.7483 -1.1883
  142MOL0     H19556  11.364   8.167   3.436 -0.0437  0.2698 -0.0571
  142MOL0     H19557  11.379   8.005   3.525 -0.3300 -0.1153 -0.0979
  142MOL0     H19558  11.299   8.221   3.986 -0.5619 -1.2104  0.4355
  142MOL0     H19559  11.461   8.275   4.150  1.2147 -1.1022  0.9583
  142MOL0     H19560  11.832   7.969   4.153  1.6245  1.2869  3.3365
  142MOL0     H19561  11.867   8.099   4.053 -1.1156 -0.7238 -0.4773
  142MOL0     H19562  12.033   8.110   4.216 -0.3505 -1.5163 -0.7155
  142MOL0     H19563  11.917   8.229   4.279  1.7022  0.7162  0.7848
  142MOL0     H19564  11.932   7.931   4.364  1.0406 -0.7016  3.2784
  142MOL0     H19565  11.814   8.047   4.419  1.4350 -0.9078  1.1465
  142MOL0     H19566  12.009   8.187   4.494  2.2764 -0.0421 -0.8106
  142MOL0     H19567  12.117   8.056   4.457 -1.5177 -0.4584 -0.7205
  142MOL0     H19568  11.888   8.024   4.652 -0.7371  2.7843 -2.4112
  142MOL0     H19569  12.019   7.905   4.601 -0.4045  0.6352 -3.0118
  142MOL0     H19570  12.076   8.160   4.748  1.4539  0.2749 -1.8492
  142MOL0     H19571  12.185   8.033   4.688 -1.0960  0.2060  0.0187
  142MOL0     H19572  12.175   7.960   4.897  0.8483 -1.6848 -1.8569
  142MOL0     H19573  12.071   7.856   4.826  0.5839 -0.2749 -1.8475
  142MOL0     H19574  11.957   8.115   4.962  0.4715  1.2438 -4.2384
  142MOL0     H19575  11.974   7.950   5.038 -2.8133 -2.4766 -0.8269
  142MOL0     H19576  11.686   7.925   3.995  1.1797 -1.5638  2.8255
  142MOL0     H19577  11.508   7.900   3.850 -0.8432  0.4785 -0.0117
  142MOL0     H19578  10.930   8.115   3.761  1.4200  0.3648  0.3348
  142MOL0     H19579  10.806   8.076   3.544 -0.1555 -0.5506 -1.0381
  142MOL0     H19580  10.847   8.959   2.047 -0.0989 -1.0132  2.9830
  142MOL0     H19581  11.073   9.060   1.953  0.6667 -2.4918  0.0358
  142MOL0     H19582  11.363   9.219   1.880 -0.3237  0.6920  2.5966
  142MOL0     H19583  11.547   9.272   1.729 -2.1109 -0.2836  0.4908
  142MOL0     H19584  11.748   9.154   1.623 -0.8437  0.1098  3.8053
  142MOL0     H19585  11.739   9.329   1.618 -0.8151  0.0259 -0.2358
  142MOL0     H19586  11.902   9.194   1.481  0.1495 -1.3756 -0.2100
  142MOL0     H19587  12.002   9.173   1.633 -1.1252  0.8239  0.9446
  142MOL0     H19588  12.080   9.366   1.485  1.9363 -0.3002  2.3261
  142MOL0     H19589  11.925   9.441   1.512 -1.7745  0.2670  1.5177
  142MOL0     H19590  11.952   9.487   1.739  0.0484 -2.4862  2.1525
  142MOL0     H19591  12.105   9.535   1.656  0.3881 -0.3920 -0.6842
  142MOL0     H19592  12.261   9.269   1.933 -1.0121 -0.0771 -0.8761
  142MOL0     H19593  11.833   9.201   2.040 -0.9208  1.6124  1.1698
  142MOL0     H19594  11.752   9.069   2.236  0.7489  1.7470  1.8354
  142MOL0     H19595  11.670   9.214   2.288  0.6388 -0.4720  1.8530
  142MOL0     H19596  11.576   9.065   2.271 -0.6599  0.8754  0.8155
  143MOL0     O19597   8.569   1.338   9.526 -0.4448 -0.3587  0.4103
  143MOL0     C19598   8.657   1.379   9.595 -0.8910  0.0446  0.5360
  143MOL0     O19599   8.656   1.497   9.664 -0.1093 -0.2778  0.6409
  143MOL0     C19600   8.553   1.581   9.644  0.1391 -0.2858 -0.6325
  143MOL0     C19601   8.444   1.582   9.737 -0.3507 -0.4371  0.1748
  143MOL0     C19602   8.356   1.698   9.733  0.5216  1.3358 -0.1826
  143MOL0     C19603   8.391   1.808   9.651  0.3740 -0.0431  0.7599
  143MOL0     O19604   8.332   1.931   9.662 -0.1265 -1.0590  0.3022
  143MOL0     C19605   8.211   1.946   9.737  0.2772  0.0546 -0.4290
  143MOL0     C19606   8.237   2.046   9.853 -0.8415  0.0416  0.1582
  143MOL0     C19607   8.111   2.084   9.936 -0.2832  0.4250 -0.3149
  143MOL0     C19608   8.135   2.182  10.057  0.4470 -0.2773 -0.1765
  143MOL0     C19609   8.020   2.187  10.152  0.2114 -0.6729 -0.5249
  143MOL0     C19610   8.022   2.294  10.265 -1.0993  0.3653  0.7310
  143MOL0     C19611   7.998   2.442  10.218  0.6784 -0.0539 -0.2100
  143MOL0     C19612   7.971   2.524  10.338  0.3055 -0.2387 -0.2397
  143MOL0     N19613   7.995   2.665  10.313 -0.4095 -0.4550  0.4457
  143MOL0     C19614   7.963   2.741  10.212  0.0461  0.0489 -0.2737
  143MOL0     C19615   8.020   2.857  10.228 -1.1186  0.3206 -0.3201
  143MOL0     C19616   8.027   2.975  10.135  0.2513 -0.5092 -0.7497
  143MOL0     C19617   7.985   3.106  10.200  0.1133  0.4202 -0.4816
  143MOL0     C19618   7.971   3.224  10.111  1.0322 -0.5452 -1.5350
  143MOL0     C19619   7.932   3.344  10.197 -0.1637  0.6077  0.3362
  143MOL0     O19620   7.974   3.473  10.138 -0.0329 -0.0242 -0.8479
  143MOL0     C19621   7.958   3.589  10.210 -0.3486 -0.5361 -0.0557
  143MOL0     C19622   7.875   3.601  10.320 -0.0189 -0.6004 -0.5721
  143MOL0     C19623   7.856   3.723  10.391 -0.0329 -0.8377  0.2496
  143MOL0     C19624   7.761   3.741  10.510  0.3289 -0.2962 -0.1098
  143MOL0     C19625   7.929   3.841  10.344 -0.4143  0.4329 -0.1702
  143MOL0     C19626   7.926   3.974  10.408 -0.3080  0.4719  0.1113
  143MOL0     O19627   7.964   4.071  10.320  0.6180 -0.8158 -0.3658
  143MOL0     C19628   7.947   4.200  10.357  0.0501 -0.1517  0.3358
  143MOL0     C19629   8.014   4.262  10.466 -0.4614 -0.1688 -0.5803
  143MOL0     C19630   8.009   4.405  10.493  0.2424  0.8418  0.4548
  143MOL0     C19631   7.934   4.470  10.395 -0.3048 -0.0845 -0.1089
  143MOL0     O19632   7.922   4.609  10.417 -0.1529 -0.2603  0.1837
  143MOL0     C19633   8.035   4.694  10.421 -0.9773 -0.4136  0.2017
  143MOL0     C19634   8.162   4.655  10.342 -0.0432 -0.0360 -0.5915
  143MOL0     C19635   8.270   4.773  10.360  0.9025  0.2433  0.5844
  143MOL0     C19636   8.386   4.750  10.257  0.1024  0.7960 -0.5028
  143MOL0     C19637   8.500   4.844  10.281  0.9159 -0.7757  0.2564
  143MOL0     C19638   8.590   4.846  10.158 -0.5263 -0.4791 -0.2924
  143MOL0     C19639   8.700   4.955  10.171 -0.4188  0.0213  0.1114
  143MOL0     C19640   8.667   5.097  10.109 -0.3762 -0.1606  0.2631
  143MOL0    Cl19641   8.825   5.194  10.067  0.6265  0.6842  0.6892
  143MOL0     C19642   7.869   4.412  10.292 -0.5019 -0.7189  0.1871
  143MOL0     C19643   7.874   4.279  10.270  0.4359 -0.6441  0.4330
  143MOL0     O19644   7.892   3.986  10.522 -0.1697  1.0043 -1.0651
  143MOL0     C19645   7.997   3.820  10.225 -1.4572 -0.4894  0.1473
  143MOL0     C19646   8.017   3.701  10.162 -0.6031 -0.3657 -0.0027
  143MOL0     N19647   8.094   2.851  10.341  0.5217 -0.4744  0.3357
  143MOL0     N19648   8.079   2.744  10.398 -0.3769 -0.1668  1.0240
  143MOL0     C19649   8.488   1.791   9.548  0.6283  0.4778 -0.2654
  143MOL0     C19650   8.570   1.679   9.550  0.6986 -0.0566  0.5481
  143MOL0     C19651   8.778   1.292   9.616 -0.6300 -0.0819 -0.8708
  143MOL0     C19652   8.852   1.291   9.745  0.3864 -0.7340 -0.0991
  143MOL0     C19653   8.948   1.204   9.769  0.3198  0.7895  0.4838
  143MOL0     C19654   8.989   1.114   9.673 -0.7044 -0.2069 -1.0272
  143MOL0     O19655   9.094   1.026   9.689 -0.7030 -0.3101  0.0362
  143MOL0     C19656   9.133   0.983   9.820 -0.6101  0.0853 -0.5029
  143MOL0     C19657   9.217   0.863   9.822  0.4101  0.7562 -0.0419
  143MOL0     C19658   9.133   0.725   9.806 -0.7108  0.2995 -0.1760
  143MOL0     C19659   9.107   0.682   9.659  1.3025  0.2044  0.1079
  143MOL0     C19660   9.236   0.661   9.598 -0.4151 -0.2686 -0.1211
  143MOL0     C19661   9.349   0.656   9.557 -0.1444  0.5788  0.6149
  143MOL0     C19662   8.924   1.104   9.548 -0.3516  0.0903  0.1958
  143MOL0     C19663   8.815   1.193   9.520 -0.6000 -0.1597 -0.3745
  143MOL0     C19664   8.759   1.180   9.379  0.2985  0.0583 -0.2205
  143MOL0     H19665   8.414   1.508   9.810  0.7087  2.0963  3.4291
  143MOL0     H19666   8.264   1.690   9.791  1.7086 -0.0001  1.6456
  143MOL0     H19667   8.157   1.858   9.773  0.3563 -0.7312 -2.1491
  143MOL0     H19668   8.149   1.998   9.663  2.9298  3.4841 -0.4988
  143MOL0     H19669   8.318   1.998   9.909 -1.5238 -0.2935  0.8828
  143MOL0     H19670   8.301   2.126   9.815  4.8330 -3.7706  0.2886
  143MOL0     H19671   8.033   2.129   9.874 -1.5445 -0.4254  0.6193
  143MOL0     H19672   8.071   1.988   9.971  0.5766  0.3010  0.3647
  143MOL0     H19673   8.232   2.171  10.106  0.4555  3.2704  0.9289
  143MOL0     H19674   8.144   2.283  10.016  1.8863  0.8477  2.6129
  143MOL0     H19675   8.007   2.090  10.202  0.1421  0.8767  2.6813
  143MOL0     H19676   7.929   2.206  10.095 -1.0009 -1.1508  1.1604
  143MOL0     H19677   7.948   2.269  10.341 -0.8426 -1.3634  0.4464
  143MOL0     H19678   8.119   2.276  10.313 -1.0362 -1.5204 -0.0579
  143MOL0     H19679   7.917   2.461  10.147  0.6388  3.2956  0.5971
  143MOL0     H19680   8.091   2.486  10.181  1.0786 -1.6930 -1.2705
  143MOL0     H19681   7.866   2.508  10.365 -0.0241  2.2286  0.1363
  143MOL0     H19682   8.023   2.494  10.430 -0.6143  1.5788  0.9454
  143MOL0     H19683   7.912   2.719  10.119 -1.2740 -1.4374  0.7418
  143MOL0     H19684   7.973   2.946  10.044 -0.6282  0.1877 -0.4692
  143MOL0     H19685   8.131   3.000  10.110 -0.1798 -0.3255 -2.4838
  143MOL0     H19686   7.888   3.087  10.249 -0.0823 -3.4478 -1.9933
  143MOL0     H19687   8.057   3.117  10.281 -0.0607 -1.3248 -0.0317
  143MOL0     H19688   8.065   3.241  10.058  1.6435 -3.2083 -1.4226
  143MOL0     H19689   7.898   3.206  10.031  1.0902  0.8729 -1.9329
  143MOL0     H19690   7.824   3.341  10.214  0.1580  1.2996  3.1056
  143MOL0     H19691   7.980   3.337  10.296  0.3430 -1.2806  0.0074
  143MOL0     H19692   7.818   3.517  10.359 -0.3428 -0.1218 -0.0032
  143MOL0     H19693   7.709   3.649  10.541 -0.9722 -0.7992 -3.3164
  143MOL0     H19694   7.680   3.810  10.484 -1.1994 -0.6313  3.2856
  143MOL0     H19695   7.804   3.772  10.605  1.1428 -2.5457  0.3259
  143MOL0     H19696   8.087   4.203  10.521 -0.0367 -1.5507 -2.5143
  143MOL0     H19697   8.055   4.461  10.574 -0.7641  0.1890  1.5097
  143MOL0     H19698   8.002   4.795  10.393 -1.4081 -0.0397  1.9566
  143MOL0     H19699   8.061   4.700  10.527 -2.6028  0.7471  0.5701
  143MOL0     H19700   8.210   4.563  10.377 -0.0422  0.6409  1.3133
  143MOL0     H19701   8.136   4.632  10.238  1.1033  0.8175 -1.0908
  143MOL0     H19702   8.322   4.751  10.453  1.8572 -0.2904 -0.0590
  143MOL0     H19703   8.231   4.875  10.356  1.2965  0.4356  1.5112
  143MOL0     H19704   8.347   4.774  10.158 -0.7267 -0.1226 -0.4133
  143MOL0     H19705   8.427   4.649  10.267 -1.7736  0.2094  4.0492
  143MOL0     H19706   8.463   4.942  10.313  3.6810 -0.2804  2.2775
  143MOL0     H19707   8.571   4.816  10.360 -1.6821 -0.9620  2.7220
  143MOL0     H19708   8.527   4.868  10.072 -0.5408 -2.1363 -0.7317
  143MOL0     H19709   8.639   4.750  10.138  3.5803  1.5675 -1.1250
  143MOL0     H19710   8.791   4.927  10.119 -0.7056  1.4189 -1.2187
  143MOL0     H19711   8.732   4.948  10.275  0.6791  1.2403 -0.1353
  143MOL0     H19712   8.611   5.159  10.180 -3.4747 -0.2763 -1.8859
  143MOL0     H19713   8.613   5.083  10.015  0.0811 -2.2059  0.2718
  143MOL0     H19714   7.816   4.488  10.235  1.7951  0.6648 -0.2149
  143MOL0     H19715   7.840   4.233  10.178  3.5422 -2.8709  0.2622
  143MOL0     H19716   8.040   3.910  10.183 -0.5116 -0.6976  0.6614
  143MOL0     H19717   8.074   3.705  10.070 -3.0280 -0.5983 -1.6137
  143MOL0     H19718   8.495   1.862   9.466 -1.0754 -0.5585 -1.3883
  143MOL0     H19719   8.645   1.680   9.471  1.5498 -0.9400  1.3126
  143MOL0     H19720   8.839   1.370   9.818 -0.8376 -0.7026 -0.3327
  143MOL0     H19721   9.012   1.215   9.856  0.6417  0.3025  0.3120
  143MOL0     H19722   9.202   1.057   9.861 -1.5706  1.9799 -2.1481
  143MOL0     H19723   9.042   0.971   9.879  0.3551 -3.6134  0.4803
  143MOL0     H19724   9.277   0.860   9.914 -3.5093  0.6967  2.7260
  143MOL0     H19725   9.288   0.874   9.739 -0.3692  0.9616 -0.6887
  143MOL0     H19726   9.184   0.646   9.861 -2.0505 -0.8678 -0.5366
  143MOL0     H19727   9.042   0.736   9.866 -0.9232  2.3760 -0.7718
  143MOL0     H19728   9.057   0.770   9.615  1.3004  0.0524 -0.1959
  143MOL0     H19729   9.042   0.595   9.645  1.3593 -0.0808  1.4892
  143MOL0     H19730   9.450   0.648   9.521 -0.0599 -2.4108  1.2401
  143MOL0     H19731   8.962   1.046   9.465 -0.9139  2.1424 -1.5829
  143MOL0     H19732   8.670   1.118   9.376  1.1249 -1.1141 -1.5633
  143MOL0     H19733   8.762   1.278   9.330  0.9652  1.1710  1.8804
  143MOL0     H19734   8.829   1.120   9.320  0.8353 -1.3844  1.7701
  144MOL0     O19735   0.833   2.784   1.410 -0.3768 -0.4202 -0.4925
  144MOL0     C19736   0.855   2.723   1.511 -0.4123  0.2342 -0.8076
  144MOL0     O19737   0.982   2.708   1.565 -0.1203 -0.2167  0.1002
  144MOL0     C19738   1.090   2.755   1.499 -0.4229 -0.9609  0.2303
  144MOL0     C19739   1.179   2.847   1.566 -0.4952 -0.1741  0.3873
  144MOL0     C19740   1.294   2.889   1.507 -0.6237 -1.0414 -0.5227
  144MOL0     C19741   1.327   2.840   1.377 -0.3662  0.7188  0.2933
  144MOL0     O19742   1.445   2.861   1.311 -0.2824 -0.4487  0.5193
  144MOL0     C19743   1.514   2.980   1.350 -0.7699 -0.0675 -0.1389
  144MOL0     C19744   1.615   3.014   1.238 -0.0609 -0.9627  0.1499
  144MOL0     C19745   1.728   3.120   1.280  0.1317 -0.3393 -0.3514
  144MOL0     C19746   1.832   3.057   1.377 -0.3088  0.0965 -0.5997
  144MOL0     C19747   1.946   3.155   1.401 -0.8503 -0.6639 -0.7974
  144MOL0     C19748   2.062   3.097   1.486  0.9218  0.6410 -0.0058
  144MOL0     C19749   2.144   2.990   1.406 -0.8025  0.0201  0.0004
  144MOL0     C19750   2.247   2.927   1.507  0.4170  0.2734 -0.4455
  144MOL0     N19751   2.319   3.029   1.585 -1.0118  0.1932  0.4264
  144MOL0     C19752   2.422   3.109   1.537 -0.0867  0.1919 -0.3439
  144MOL0     C19753   2.456   3.199   1.628 -0.4079  0.2560 -0.1152
  144MOL0     C19754   2.568   3.299   1.642 -0.2034 -0.7601  1.2571
  144MOL0     C19755   2.611   3.347   1.498  0.3664  0.0589 -0.5582
  144MOL0     C19756   2.712   3.471   1.505  0.7155 -0.3179  0.9720
  144MOL0     C19757   2.775   3.505   1.360  0.2214 -0.0368 -0.8260
  144MOL0     O19758   2.911   3.536   1.384 -0.2422  0.5089  0.1216
  144MOL0     C19759   2.992   3.544   1.272  0.6577  0.0257 -0.0487
  144MOL0     C19760   2.957   3.558   1.140  0.0108 -0.2282  0.0341
  144MOL0     C19761   3.048   3.561   1.039  0.2546  0.5933  0.1672
  144MOL0     C19762   2.995   3.588   0.902 -0.5487 -0.2702  0.7727
  144MOL0     C19763   3.186   3.550   1.072 -0.5200 -0.1872  0.1122
  144MOL0     C19764   3.298   3.563   0.976  0.6424  0.2235  1.1428
  144MOL0     O19765   3.416   3.520   1.012  0.1662  0.2086 -0.0125
  144MOL0     C19766   3.534   3.539   0.946  0.3700  0.5210  0.1262
  144MOL0     C19767   3.646   3.450   0.967  0.5389  0.2622  1.2064
  144MOL0     C19768   3.768   3.471   0.896  0.2870  0.2891 -0.2737
  144MOL0     C19769   3.785   3.579   0.809 -0.9509  0.3441 -0.2876
  144MOL0     O19770   3.901   3.605   0.741  0.1626 -0.3144  0.2239
  144MOL0     C19771   3.951   3.501   0.659  0.5978  0.2945  0.3425
  144MOL0     C19772   4.096   3.463   0.666  0.3352 -0.2618 -0.4125
  144MOL0     C19773   4.176   3.586   0.696  0.1823  0.0678 -0.6543
  144MOL0     C19774   4.327   3.552   0.684 -0.1283  0.3120  0.4886
  144MOL0     C19775   4.404   3.679   0.640 -0.2359 -0.5378 -0.4769
  144MOL0     C19776   4.405   3.681   0.489 -0.2377  0.4993  0.7908
  144MOL0     C19777   4.438   3.823   0.440 -0.0987 -0.5680 -0.6476
  144MOL0     C19778   4.442   3.821   0.282 -0.3999 -0.5039 -0.0069
  144MOL0    Cl19779   4.461   3.981   0.209 -0.1375  0.3563  0.2547
  144MOL0     C19780   3.672   3.659   0.787  0.0278  0.3929  0.4710
  144MOL0     C19781   3.551   3.644   0.852 -0.1058 -0.3601  0.0283
  144MOL0     O19782   3.273   3.609   0.865  0.1626 -0.1387  0.5536
  144MOL0     C19783   3.218   3.532   1.210 -0.0624 -0.7934 -0.6860
  144MOL0     C19784   3.124   3.515   1.299  0.3974  0.3950 -0.3492
  144MOL0     N19785   2.376   3.171   1.738 -0.3139  0.2369  0.2678
  144MOL0     N19786   2.292   3.075   1.715  0.7266  0.1463  0.1138
  144MOL0     C19787   1.236   2.753   1.308 -0.5849 -0.2505 -0.0894
  144MOL0     C19788   1.114   2.714   1.373 -0.3701  0.4898  0.4497
  144MOL0     C19789   0.744   2.636   1.567 -0.7510 -1.3290  0.0581
  144MOL0     C19790   0.741   2.626   1.708  0.4144 -0.6501 -0.3669
  144MOL0     C19791   0.625   2.566   1.771 -0.0306  0.5929  0.6917
  144MOL0     C19792   0.526   2.506   1.694  0.3642 -0.2235 -0.6130
  144MOL0     O19793   0.416   2.447   1.759  0.6363 -0.4624 -0.0650
  144MOL0     C19794   0.329   2.365   1.674  0.5685 -0.5629  0.3364
  144MOL0     C19795   0.208   2.451   1.626  0.1533  0.5615  0.1568
  144MOL0     C19796   0.092   2.367   1.572 -0.4757 -1.2241 -0.0879
  144MOL0     C19797  -0.049   2.430   1.598 -0.6174  0.1027 -0.6204
  144MOL0     C19798  -0.142   2.332   1.535  0.8553  0.8159 -0.3025
  144MOL0     C19799  -0.222   2.236   1.498  0.4041 -0.2337 -0.1982
  144MOL0     C19800   0.546   2.498   1.550  0.0188  0.2163 -0.4565
  144MOL0     C19801   0.654   2.558   1.483 -1.4424 -0.3217 -0.1953
  144MOL0     C19802   0.650   2.558   1.332  0.0445  0.7518 -0.1339
  144MOL0     H19803   1.176   2.888   1.666  2.0810 -0.5633  0.6745
  144MOL0     H19804   1.368   2.944   1.564 -1.9164 -0.7354  0.9420
  144MOL0     H19805   1.553   2.986   1.453  0.5226  0.9237 -0.6494
  144MOL0     H19806   1.440   3.060   1.350  0.5163  1.1734 -0.4509
  144MOL0     H19807   1.661   2.922   1.201 -0.2584 -1.2939  0.7164
  144MOL0     H19808   1.560   3.067   1.159  0.6288  2.6622  1.9195
  144MOL0     H19809   1.787   3.151   1.193 -0.8726 -3.0060 -2.1092
  144MOL0     H19810   1.681   3.204   1.333  2.0201  0.1814  0.5889
  144MOL0     H19811   1.786   3.025   1.470 -0.6716  1.6726 -0.2106
  144MOL0     H19812   1.879   2.977   1.319  3.1589  2.9678 -2.2079
  144MOL0     H19813   1.901   3.234   1.463 -3.6330 -2.1352 -0.7598
  144MOL0     H19814   1.991   3.201   1.313 -1.1164  1.3315  0.0518
  144MOL0     H19815   2.126   3.183   1.507  0.5758  1.3640 -1.7448
  144MOL0     H19816   2.019   3.058   1.579  0.9497  2.0677  0.6301
  144MOL0     H19817   2.182   3.048   1.322 -5.2113 -1.0299 -3.0640
  144MOL0     H19818   2.072   2.915   1.374 -0.2667  0.6594 -2.9246
  144MOL0     H19819   2.209   2.851   1.575  1.1240  1.3387  1.2251
  144MOL0     H19820   2.321   2.882   1.441  0.6758  0.5511 -0.3488
  144MOL0     H19821   2.461   3.104   1.436 -2.9929 -0.0814 -1.5691
  144MOL0     H19822   2.650   3.243   1.689 -0.2661 -0.1808  2.0719
  144MOL0     H19823   2.545   3.386   1.704  1.4427  0.5452  0.1475
  144MOL0     H19824   2.668   3.264   1.456  0.7511  0.4829 -0.8791
  144MOL0     H19825   2.526   3.368   1.432  2.3310  0.9220 -2.9586
  144MOL0     H19826   2.650   3.550   1.547  0.7309 -1.2822  2.9462
  144MOL0     H19827   2.787   3.467   1.584  0.1002  0.9530  1.6568
  144MOL0     H19828   2.755   3.434   1.279  0.3015 -2.4659  1.1949
  144MOL0     H19829   2.720   3.594   1.326  1.3106  1.5113  1.2342
  144MOL0     H19830   2.849   3.569   1.126 -0.1129  1.1381  1.7393
  144MOL0     H19831   2.983   3.695   0.887 -1.1555 -0.6248 -1.7728
  144MOL0     H19832   2.891   3.553   0.908 -2.2144  3.8300 -0.5438
  144MOL0     H19833   3.059   3.540   0.827  3.0875  1.2103  2.6793
  144MOL0     H19834   3.646   3.372   1.042  1.9009 -0.3661  0.5786
  144MOL0     H19835   3.855   3.408   0.908  2.8791  3.4938 -0.6737
  144MOL0     H19836   3.899   3.406   0.667  0.2669  0.3951 -0.4981
  144MOL0     H19837   3.928   3.534   0.557 -0.1751 -0.6250  0.2014
  144MOL0     H19838   4.112   3.385   0.741 -0.9859 -0.1446  0.0233
  144MOL0     H19839   4.124   3.428   0.566 -1.6399 -0.5415 -0.9080
  144MOL0     H19840   4.148   3.633   0.790  1.0330  2.2660 -1.4118
  144MOL0     H19841   4.145   3.652   0.614  1.9797  2.6500  0.6135
  144MOL0     H19842   4.339   3.466   0.617 -2.6898 -0.1607  0.5438
  144MOL0     H19843   4.372   3.522   0.779 -0.1266  1.0137  0.7108
  144MOL0     H19844   4.347   3.763   0.681 -0.2911 -0.0915 -1.4321
  144MOL0     H19845   4.511   3.674   0.661  0.3004 -1.4154 -2.9873
  144MOL0     H19846   4.315   3.664   0.429 -0.7861  0.3679  1.6380
  144MOL0     H19847   4.477   3.608   0.452 -0.0286  0.9202  0.3607
  144MOL0     H19848   4.530   3.864   0.483 -1.1946  0.4636  0.8059
  144MOL0     H19849   4.356   3.892   0.464  0.6216 -0.1621  0.7908
  144MOL0     H19850   4.346   3.774   0.259  0.1222 -0.9823 -1.2966
  144MOL0     H19851   4.517   3.750   0.247  0.7451  1.4889 -1.9163
  144MOL0     H19852   3.677   3.742   0.717 -3.4340  0.2241 -0.1665
  144MOL0     H19853   3.474   3.721   0.845 -2.2541 -2.3220  0.8781
  144MOL0     H19854   3.317   3.517   1.250 -1.1964 -0.6508  2.4427
  144MOL0     H19855   3.160   3.484   1.397  0.7217  0.1300 -0.5491
  144MOL0     H19856   1.248   2.719   1.205 -0.4520 -0.6082  0.0434
  144MOL0     H19857   1.048   2.642   1.326  2.4218 -3.2258  1.7212
  144MOL0     H19858   0.818   2.675   1.768  2.1556 -3.3474 -0.2080
  144MOL0     H19859   0.612   2.558   1.878  4.6120  1.2304  1.5178
  144MOL0     H19860   0.382   2.324   1.588 -0.1653 -1.7581  0.4278
  144MOL0     H19861   0.278   2.293   1.738 -2.0875 -0.8480 -1.8940
  144MOL0     H19862   0.257   2.504   1.544  3.3428 -2.1502  0.1165
  144MOL0     H19863   0.177   2.517   1.707 -0.9342  0.4131 -0.1162
  144MOL0     H19864   0.102   2.356   1.463  1.6620  4.5380 -0.8070
  144MOL0     H19865   0.098   2.270   1.622 -0.6376 -1.0621  0.2471
  144MOL0     H19866  -0.053   2.522   1.539  0.5340  0.5594 -0.0122
  144MOL0     H19867  -0.069   2.441   1.705  2.1065 -2.6719  0.3540
  144MOL0     H19868  -0.276   2.152   1.461  0.4527 -1.5298  2.4874
  144MOL0     H19869   0.466   2.472   1.482 -0.5151  1.3868 -0.3136
  144MOL0     H19870   0.601   2.649   1.295 -1.0482  3.0211  5.7962
  144MOL0     H19871   0.755   2.552   1.299  0.3617  0.0246  0.9708
  144MOL0     H19872   0.601   2.465   1.302  2.8288 -0.8435 -0.1388
  145MOL0     O19873   4.529   5.926   8.492  0.9227  0.5601 -0.6019
  145MOL0     C19874   4.648   5.953   8.484  0.1432 -0.6363  0.1872
  145MOL0     O19875   4.709   5.988   8.360 -0.2908 -0.3355 -0.2326
  145MOL0     C19876   4.631   6.000   8.245 -0.0267 -0.9141 -0.6762
  145MOL0     C19877   4.510   6.080   8.233 -0.4978  0.3859 -0.4922
  145MOL0     C19878   4.444   6.098   8.116  0.6715 -0.1866 -0.2457
  145MOL0     C19879   4.487   6.036   8.002  0.3939  0.2629 -0.2430
  145MOL0     O19880   4.428   6.038   7.888  0.1821 -0.2592 -0.3834
  145MOL0     C19881   4.298   5.973   7.876  0.2923  0.2647 -0.4179
  145MOL0     C19882   4.264   5.945   7.727  0.0445  0.2178 -0.1314
  145MOL0     C19883   4.170   6.050   7.665  0.2909  0.0238  0.5183
  145MOL0     C19884   4.172   6.034   7.510 -0.0235  0.2360 -0.7370
  145MOL0     C19885   4.048   5.961   7.473  0.0904  0.5783 -0.1174
  145MOL0     C19886   4.068   5.894   7.333  0.3960 -0.6861  0.7336
  145MOL0     C19887   4.096   5.740   7.344  0.3374 -0.9584  0.4467
  145MOL0     C19888   4.139   5.696   7.201 -0.3958 -0.2188  0.2288
  145MOL0     N19889   4.033   5.671   7.103 -0.3908 -0.1676  0.5508
  145MOL0     C19890   4.010   5.744   6.993 -0.2568  0.1583  0.1158
  145MOL0     C19891   3.919   5.676   6.925  0.5117  0.6690  0.4331
  145MOL0     C19892   3.878   5.697   6.789 -0.6605 -0.7972 -0.3742
  145MOL0     C19893   3.974   5.643   6.684 -0.3876 -0.6276  0.3625
  145MOL0     C19894   3.946   5.695   6.540  0.0771 -0.2226 -0.0957
  145MOL0     C19895   4.050   5.627   6.441 -0.1676 -0.4221 -1.4229
  145MOL0     O19896   4.039   5.654   6.302  0.4278 -1.0794  0.3554
  145MOL0     C19897   3.909   5.650   6.263  0.4286 -0.2441  0.3108
  145MOL0     C19898   3.841   5.526   6.269  0.2119 -0.7036 -0.4711
  145MOL0     C19899   3.704   5.510   6.216 -0.4815  0.5090  0.5637
  145MOL0     C19900   3.634   5.379   6.243 -0.3704  1.8558 -0.5248
  145MOL0     C19901   3.644   5.611   6.142 -0.0835 -0.0077  1.0042
  145MOL0     C19902   3.511   5.613   6.075 -0.2882 -0.0053  0.4748
  145MOL0     O19903   3.438   5.731   6.071 -0.0902  0.0566  0.2036
  145MOL0     C19904   3.309   5.730   6.022  0.0075 -0.8255  0.5990
  145MOL0     C19905   3.246   5.643   5.932 -0.4486 -0.3590 -0.2104
  145MOL0     C19906   3.113   5.671   5.888  0.3486  0.4205 -1.2710
  145MOL0     C19907   3.039   5.768   5.968 -0.1597 -0.1462 -0.2675
  145MOL0     O19908   2.917   5.821   5.953 -0.1735  0.5469  0.1940
  145MOL0     C19909   2.838   5.745   5.864  0.7471  0.2866  0.3138
  145MOL0     C19910   2.702   5.809   5.841  0.6574  0.0383  0.0901
  145MOL0     C19911   2.601   5.813   5.958 -0.0783  0.6020 -0.3402
  145MOL0     C19912   2.473   5.726   5.920 -0.3436  0.5901 -1.1382
  145MOL0     C19913   2.484   5.573   5.928  0.2507 -0.1814 -0.1788
  145MOL0     C19914   2.349   5.504   5.894 -1.2452  0.0818 -0.1704
  145MOL0     C19915   2.236   5.537   5.990  0.5091  0.5051  0.3417
  145MOL0     C19916   2.116   5.450   5.940  0.1852 -0.4239  0.3131
  145MOL0    Cl19917   2.109   5.278   6.021 -0.5382  0.1921 -0.1089
  145MOL0     C19918   3.102   5.841   6.068  0.5552 -0.4371  0.2980
  145MOL0     C19919   3.235   5.826   6.091  0.2119 -0.2696  0.0445
  145MOL0     O19920   3.463   5.503   6.044 -0.9540  0.0660 -0.0145
  145MOL0     C19921   3.708   5.732   6.138  0.2741 -0.0968  0.0993
  145MOL0     C19922   3.845   5.750   6.193 -0.2328  0.0074 -0.0259
  145MOL0     N19923   3.876   5.568   7.012 -0.4479 -0.0879  0.0609
  145MOL0     N19924   3.940   5.574   7.116 -0.8474 -0.3589 -0.0691
  145MOL0     C19925   4.609   5.974   8.003  0.1328  0.5001 -0.0444
  145MOL0     C19926   4.678   5.951   8.127  0.4305 -0.1015  0.5526
  145MOL0     C19927   4.737   5.980   8.605 -0.3933 -0.6750  1.3189
  145MOL0     C19928   4.859   6.048   8.585 -0.1368  0.2832 -0.1574
  145MOL0     C19929   4.949   6.075   8.685 -0.3213  0.0443 -0.5606
  145MOL0     C19930   4.913   6.046   8.816 -0.5439  0.6039  0.6745
  145MOL0     O19931   4.988   6.070   8.922  0.7870  0.0365  0.6752
  145MOL0     C19932   5.123   6.115   8.910 -0.4357 -0.2669 -0.5804
  145MOL0     C19933   5.218   5.995   8.883  0.2166 -0.3164 -0.2770
  145MOL0     C19934   5.184   5.874   8.972 -0.0299 -0.7427  0.7492
  145MOL0     C19935   5.263   5.754   8.917 -0.7601 -0.0492 -0.1918
  145MOL0     C19936   5.254   5.644   9.015 -0.5259  0.3253  0.4929
  145MOL0     C19937   5.248   5.552   9.088  1.3836 -0.2185 -0.0256
  145MOL0     C19938   4.792   5.987   8.841  0.1228  0.8003  0.6621
  145MOL0     C19939   4.706   5.940   8.740  0.5598 -0.1606  1.0815
  145MOL0     C19940   4.578   5.878   8.784 -0.5933  0.8447 -0.1404
  145MOL0     H19941   4.468   6.136   8.316 -0.7714 -2.2753  1.2893
  145MOL0     H19942   4.358   6.164   8.114  0.0820 -0.7649  2.3808
  145MOL0     H19943   4.224   6.031   7.932  0.1287 -0.7694  0.4674
  145MOL0     H19944   4.317   5.880   7.930  2.9006  2.7420  3.4172
  145MOL0     H19945   4.358   5.944   7.672 -0.3923 -1.2264 -0.9052
  145MOL0     H19946   4.214   5.848   7.721 -0.9932  0.7070  0.2491
  145MOL0     H19947   4.066   6.042   7.698 -0.8201  2.1434 -2.0660
  145MOL0     H19948   4.204   6.149   7.696  0.5153 -0.2177  1.0456
  145MOL0     H19949   4.171   6.127   7.453 -1.1868  0.3954 -0.4737
  145MOL0     H19950   4.260   5.974   7.487 -0.3553 -0.2036 -0.8690
  145MOL0     H19951   3.951   6.011   7.477 -0.3236 -0.2701  2.8163
  145MOL0     H19952   4.046   5.879   7.546  3.0146 -0.0812 -0.6340
  145MOL0     H19953   3.977   5.921   7.278  1.2646  2.0680  0.5369
  145MOL0     H19954   4.151   5.943   7.282 -0.9109 -0.0021 -0.8789
  145MOL0     H19955   4.010   5.688   7.387 -0.7235  2.9176  3.5761
  145MOL0     H19956   4.179   5.724   7.413 -0.5548 -1.5412  1.4144
  145MOL0     H19957   4.212   5.765   7.158  0.4887 -1.2238  0.0593
  145MOL0     H19958   4.199   5.605   7.213  2.5055  1.3663 -1.1946
  145MOL0     H19959   4.069   5.828   6.958 -0.4202  0.2989  0.1774
  145MOL0     H19960   3.869   5.804   6.769 -2.4788 -0.8349  0.0776
  145MOL0     H19961   3.775   5.661   6.784 -0.5041 -1.3674  0.2822
  145MOL0     H19962   4.073   5.669   6.723  0.3343 -1.1805 -1.0172
  145MOL0     H19963   3.953   5.535   6.687 -1.1038 -0.4775  2.9928
  145MOL0     H19964   3.841   5.670   6.519  0.2806 -0.9752 -0.2619
  145MOL0     H19965   3.948   5.804   6.533  1.4143 -0.3543 -3.3193
  145MOL0     H19966   4.151   5.660   6.467 -0.9938  1.2755 -0.1397
  145MOL0     H19967   4.056   5.519   6.459  1.1570 -0.0369  0.8409
  145MOL0     H19968   3.881   5.445   6.329  0.5112  0.9010  1.6022
  145MOL0     H19969   3.530   5.399   6.269 -0.8134  0.9856 -1.5207
  145MOL0     H19970   3.672   5.334   6.335 -4.7657 -0.6293  0.3667
  145MOL0     H19971   3.644   5.312   6.157 -0.9795  1.2027 -0.1014
  145MOL0     H19972   3.291   5.568   5.868 -1.6109  0.5965 -2.2752
  145MOL0     H19973   3.067   5.617   5.805 -1.5234  0.4098 -0.2970
  145MOL0     H19974   2.880   5.742   5.763  0.8674  0.5859  0.3555
  145MOL0     H19975   2.826   5.642   5.898  3.7571 -1.1207 -2.3427
  145MOL0     H19976   2.705   5.913   5.808 -0.9229  0.3736  0.8997
  145MOL0     H19977   2.657   5.750   5.760 -0.5974 -0.9262  1.4467
  145MOL0     H19978   2.567   5.913   5.987  0.3534  0.3913  0.9547
  145MOL0     H19979   2.645   5.763   6.045  2.7605 -2.4072 -3.2102
  145MOL0     H19980   2.434   5.755   5.823  0.3216 -1.6826 -2.1557
  145MOL0     H19981   2.395   5.755   5.992 -0.4231  1.8315 -1.7025
  145MOL0     H19982   2.559   5.533   5.859  1.0318 -1.9983  1.6006
  145MOL0     H19983   2.527   5.532   6.020  0.2254 -1.2392 -0.6195
  145MOL0     H19984   2.358   5.395   5.891 -2.1273 -0.0090  0.0958
  145MOL0     H19985   2.317   5.528   5.793 -0.7598 -1.3692 -0.6977
  145MOL0     H19986   2.218   5.645   5.994  3.5637  1.1104  0.2598
  145MOL0     H19987   2.276   5.505   6.087  1.1059  2.9936  0.9758
  145MOL0     H19988   2.116   5.437   5.831 -3.0917 -0.2877  0.1946
  145MOL0     H19989   2.018   5.492   5.962 -1.1812 -2.2894 -1.7839
  145MOL0     H19990   3.050   5.920   6.121  0.6967  0.1942 -0.4828
  145MOL0     H19991   3.294   5.886   6.160  0.6817 -0.6413 -0.0262
  145MOL0     H19992   3.657   5.814   6.088 -2.0631 -2.7926 -2.2613
  145MOL0     H19993   3.887   5.848   6.176 -5.8850  2.9995  0.8897
  145MOL0     H19994   4.649   5.937   7.910 -1.7866 -0.2830 -0.5951
  145MOL0     H19995   4.770   5.892   8.124  0.3877 -0.1310 -0.3250
  145MOL0     H19996   4.895   6.067   8.484  4.1340  2.2576  1.5413
  145MOL0     H19997   5.040   6.130   8.661 -0.5731  1.5195  1.5255
  145MOL0     H19998   5.138   6.191   8.833  1.7374 -0.4719 -0.4468
  145MOL0     H19999   5.150   6.170   9.000  1.1004 -0.6959 -0.7368
  145MOL0     H20000   5.320   6.034   8.882 -0.9660  3.0660  0.0970
  145MOL0     H20001   5.196   5.948   8.786  0.1133 -1.1959  0.1595
  145MOL0     H20002   5.209   5.897   9.076 -2.1295 -0.2333  1.1963
  145MOL0     H20003   5.078   5.847   8.963  0.2587 -1.6486  0.0618
  145MOL0     H20004   5.366   5.791   8.917 -0.4300 -0.9406  0.2504
  145MOL0     H20005   5.228   5.729   8.816 -0.3804 -1.4774  0.0071
  145MOL0     H20006   5.246   5.476   9.164  1.4814  0.4052  0.6079
  145MOL0     H20007   4.752   5.964   8.939  0.5352 -0.9537  0.4577
  145MOL0     H20008   4.561   5.917   8.885 -1.8122  0.7179 -0.2820
  145MOL0     H20009   4.507   5.933   8.722  1.5265  0.0265 -3.5932
  145MOL0     H20010   4.570   5.771   8.765  2.0764  0.5470  0.0750
  146MOL0     O20011  10.872   8.738   7.125  0.4908 -0.7678 -0.0864
  146MOL0     C20012  10.881   8.693   7.235 -0.1701  0.0145 -0.5885
  146MOL0     O20013  10.785   8.708   7.339 -0.1704 -0.4417 -0.2891
  146MOL0     C20014  10.670   8.759   7.289  0.3382  0.3297  0.1187
  146MOL0     C20015  10.582   8.685   7.221  0.3517 -0.4714  0.3133
  146MOL0     C20016  10.465   8.733   7.167 -0.2634 -0.2720 -0.0544
  146MOL0     C20017  10.441   8.873   7.189 -0.2364  1.0165  0.3948
  146MOL0     O20018  10.330   8.941   7.145  0.4873 -0.1087 -0.4649
  146MOL0     C20019  10.228   8.877   7.072  0.7921  0.1139  0.0613
  146MOL0     C20020  10.088   8.959   7.084  0.0833  0.1331 -0.6189
  146MOL0     C20021  10.052   9.013   7.218 -0.7864 -0.2021 -0.0042
  146MOL0     C20022   9.959   9.139   7.183 -0.4094 -0.6528 -0.1558
  146MOL0     C20023   9.930   9.234   7.312 -0.2517 -0.3865  0.3863
  146MOL0     C20024  10.054   9.246   7.410  0.5454  0.4107  0.1686
  146MOL0     C20025  10.169   9.319   7.333  1.1223  0.6825  1.1608
  146MOL0     C20026  10.299   9.291   7.395 -0.5965  1.1055  0.7641
  146MOL0     N20027  10.410   9.340   7.311 -0.4568 -1.0547  0.9381
  146MOL0     C20028  10.456   9.274   7.203 -0.2924 -0.2479 -0.5597
  146MOL0     C20029  10.569   9.340   7.163  0.1515 -0.5775  0.1839
  146MOL0     C20030  10.661   9.309   7.046  0.8973  0.0817  0.4652
  146MOL0     C20031  10.785   9.245   7.094  0.2870  0.4433 -0.1509
  146MOL0     C20032  10.870   9.349   7.171  1.0085  0.6923 -0.1378
  146MOL0     C20033  11.026   9.309   7.181  0.0301  0.0950  0.0622
  146MOL0     O20034  11.089   9.426   7.243 -0.4218 -0.2093  0.5847
  146MOL0     C20035  11.213   9.421   7.290  0.3544  0.2687  0.0863
  146MOL0     C20036  11.239   9.375   7.412  0.7213  0.0770  0.1678
  146MOL0     C20037  11.363   9.378   7.468  0.2027 -0.4509  0.2965
  146MOL0     C20038  11.366   9.357   7.614 -0.3270  0.0661 -0.2173
  146MOL0     C20039  11.471   9.433   7.393 -0.1901  0.3164  0.4592
  146MOL0     C20040  11.612   9.442   7.458 -0.0907 -0.7676  0.2310
  146MOL0     O20041  11.703   9.532   7.397  0.5360  0.4264 -0.5742
  146MOL0     C20042  11.829   9.522   7.459 -0.3820 -0.7459  0.4563
  146MOL0     C20043  11.842   9.549   7.595  0.1036  1.1083  0.1935
  146MOL0     C20044  11.974   9.535   7.647 -0.1251  0.8040 -0.3840
  146MOL0     C20045  12.086   9.528   7.563 -0.6035  0.2455 -0.0986
  146MOL0     O20046  12.210   9.517   7.626  0.2255 -0.1153 -0.5693
  146MOL0     C20047  12.327   9.538   7.549  0.0038 -0.5192 -0.2252
  146MOL0     C20048  12.434   9.586   7.653  0.0838 -0.9376  0.1915
  146MOL0     C20049  12.576   9.566   7.597 -0.2408  0.9807 -0.4381
  146MOL0     C20050  12.656   9.450   7.675  0.8218  0.4695 -0.5311
  146MOL0     C20051  12.795   9.499   7.692  0.3323  0.0568 -0.2874
  146MOL0     C20052  12.895   9.394   7.741  0.1044 -0.2318  0.3522
  146MOL0     C20053  13.038   9.451   7.767 -1.1513  0.4139  0.5107
  146MOL0     C20054  13.130   9.339   7.785 -0.9668  0.0360  0.5737
  146MOL0    Cl20055  13.143   9.239   7.644  0.0290  0.3636  0.0223
  146MOL0     C20056  12.070   9.542   7.424  0.0006  0.1312 -0.0791
  146MOL0     C20057  11.935   9.529   7.370 -0.5761 -0.1311 -0.2546
  146MOL0     O20058  11.639   9.354   7.550  0.2843 -0.3930 -0.4046
  146MOL0     C20059  11.451   9.465   7.258  0.4276 -0.4809 -0.3428
  146MOL0     C20060  11.318   9.467   7.211 -0.3407  1.8782  0.2907
  146MOL0     N20061  10.579   9.452   7.247 -0.3229 -0.2067  1.1924
  146MOL0     N20062  10.492   9.441   7.336  0.0836  0.3923 -0.1989
  146MOL0     C20063  10.526   8.944   7.270 -0.1433 -0.2573 -0.5807
  146MOL0     C20064  10.643   8.891   7.319 -0.8138  0.2233 -0.8611
  146MOL0     C20065  11.004   8.613   7.268 -0.0776 -0.5085 -0.2960
  146MOL0     C20066  11.045   8.603   7.405 -0.5278  0.3072  0.1827
  146MOL0     C20067  11.166   8.549   7.441  0.0089  0.4935 -0.6965
  146MOL0     C20068  11.255   8.499   7.340  0.7959 -0.0494 -0.4843
  146MOL0     O20069  11.374   8.449   7.386  0.7784 -0.7181  0.1041
  146MOL0     C20070  11.482   8.545   7.396 -0.4115  0.3774  0.2690
  146MOL0     C20071  11.611   8.470   7.391  0.5935 -0.4707 -0.2727
  146MOL0     C20072  11.646   8.378   7.508  0.3120  0.0687 -0.4604
  146MOL0     C20073  11.790   8.358   7.556  0.4364 -0.2928  0.1534
  146MOL0     C20074  11.830   8.480   7.632  0.2780 -0.1037  0.7869
  146MOL0     C20075  11.879   8.565   7.707  0.0980  0.5661 -0.5261
  146MOL0     C20076  11.211   8.497   7.212  0.4534  0.2641  0.1869
  146MOL0     C20077  11.088   8.550   7.173 -0.0441  0.0709  0.6949
  146MOL0     C20078  11.034   8.506   7.042 -0.5564 -0.8384 -0.3052
  146MOL0     H20079  10.614   8.583   7.202 -1.0053 -0.8577 -0.0485
  146MOL0     H20080  10.414   8.668   7.097 -2.1320  0.8483  0.2064
  146MOL0     H20081  10.205   8.781   7.120 -1.9096 -0.6367 -2.4362
  146MOL0     H20082  10.250   8.869   6.965 -1.5163 -2.3738 -0.3608
  146MOL0     H20083  10.099   9.044   7.017 -2.9962  0.6247 -0.6309
  146MOL0     H20084  10.009   8.890   7.054  0.7174 -1.7333  1.6535
  146MOL0     H20085   9.992   8.941   7.273 -1.3716  1.3251  1.4486
  146MOL0     H20086  10.143   9.042   7.272 -0.0812 -1.7179 -0.3378
  146MOL0     H20087  10.007   9.200   7.105 -1.1150 -2.2085 -1.8889
  146MOL0     H20088   9.864   9.099   7.145 -1.3440  1.0570  0.2286
  146MOL0     H20089   9.843   9.199   7.368 -1.6531 -1.2364 -2.1720
  146MOL0     H20090   9.917   9.335   7.273  3.3106  0.7140  1.6187
  146MOL0     H20091  10.030   9.304   7.500  1.1571  1.6361 -0.4281
  146MOL0     H20092  10.085   9.149   7.449 -2.3337 -0.8196 -0.3612
  146MOL0     H20093  10.160   9.428   7.335 -2.7247  0.4905  2.0341
  146MOL0     H20094  10.174   9.281   7.230  1.2961 -0.7809  1.6934
  146MOL0     H20095  10.307   9.344   7.490  1.4989  3.5919 -0.6726
  146MOL0     H20096  10.321   9.184   7.398 -2.5006  0.4424 -3.0721
  146MOL0     H20097  10.420   9.177   7.170 -0.4482 -0.6345  0.6748
  146MOL0     H20098  10.685   9.385   6.971  0.7878 -0.3422 -0.0071
  146MOL0     H20099  10.613   9.224   6.996 -2.0905  1.1953  1.2000
  146MOL0     H20100  10.766   9.156   7.155 -2.8951  1.9693  1.3431
  146MOL0     H20101  10.836   9.207   7.005 -0.2832 -0.9766  0.0907
  146MOL0     H20102  10.869   9.444   7.116 -1.2669 -0.2174 -1.8675
  146MOL0     H20103  10.844   9.375   7.274 -0.1380 -1.0746  0.0752
  146MOL0     H20104  11.047   9.222   7.244  2.5423  0.6641  0.1563
  146MOL0     H20105  11.075   9.283   7.087 -1.1049 -0.6915 -0.3248
  146MOL0     H20106  11.147   9.356   7.465  1.2288  1.5908  1.6887
  146MOL0     H20107  11.421   9.435   7.668  2.0927 -0.0546 -2.2775
  146MOL0     H20108  11.417   9.262   7.631  0.5988  0.4353 -0.7796
  146MOL0     H20109  11.268   9.346   7.661  0.3080  1.5874  1.6127
  146MOL0     H20110  11.759   9.564   7.663 -1.4750 -0.0232 -1.4062
  146MOL0     H20111  11.979   9.528   7.755  1.7539  1.7780 -0.3751
  146MOL0     H20112  12.362   9.443   7.509  2.3611 -0.2612  1.0189
  146MOL0     H20113  12.313   9.614   7.471 -1.0902 -0.6790 -0.1884
  146MOL0     H20114  12.422   9.694   7.667 -0.3018 -0.6456 -2.0661
  146MOL0     H20115  12.416   9.540   7.751 -2.1852 -2.3791 -0.8062
  146MOL0     H20116  12.630   9.661   7.604  2.7033 -0.4495 -1.9425
  146MOL0     H20117  12.586   9.537   7.492  3.3054 -0.5163  0.1389
  146MOL0     H20118  12.656   9.357   7.618 -2.2721  0.3085 -0.4583
  146MOL0     H20119  12.611   9.431   7.774 -2.1825 -0.9495 -2.0284
  146MOL0     H20120  12.835   9.527   7.593  1.4331  2.4707  0.7527
  146MOL0     H20121  12.799   9.591   7.752  3.1440 -1.0264  1.3762
  146MOL0     H20122  12.889   9.323   7.657 -2.7394 -0.1898  0.4179
  146MOL0     H20123  12.846   9.342   7.824 -1.2545  1.4665  0.6549
  146MOL0     H20124  13.050   9.500   7.863  0.2970  0.9951  0.0539
  146MOL0     H20125  13.068   9.508   7.679  2.8876 -1.2461  0.6230
  146MOL0     H20126  13.100   9.283   7.875  0.1050  1.9003  2.1825
  146MOL0     H20127  13.229   9.381   7.803 -1.2411  0.3649  1.3629
  146MOL0     H20128  12.160   9.551   7.363  1.1067  0.8039  1.5972
  146MOL0     H20129  11.914   9.531   7.263 -0.7404 -0.5186 -0.2331
  146MOL0     H20130  11.538   9.507   7.207  1.3431 -0.2873  1.3168
  146MOL0     H20131  11.287   9.492   7.110 -3.0431  0.3149  0.6099
  146MOL0     H20132  10.501   9.046   7.299 -4.5013 -0.7055 -2.0359
  146MOL0     H20133  10.721   8.945   7.373 -1.3868 -0.6813  0.9543
  146MOL0     H20134  10.966   8.627   7.476  0.9782 -1.0917  2.4438
  146MOL0     H20135  11.194   8.532   7.544 -0.5435  1.0413 -0.4481
  146MOL0     H20136  11.475   8.621   7.318  0.4628  2.3382  1.9711
  146MOL0     H20137  11.482   8.606   7.487 -1.2795  1.6894 -0.5778
  146MOL0     H20138  11.696   8.537   7.375  2.2667 -3.0106 -3.0049
  146MOL0     H20139  11.601   8.406   7.303 -1.2763  2.6746 -2.5479
  146MOL0     H20140  11.591   8.423   7.591  1.2387 -0.0371  0.2279
  146MOL0     H20141  11.609   8.276   7.490  0.0306  0.4809 -2.4346
  146MOL0     H20142  11.854   8.351   7.468  1.2443  1.6325  0.5418
  146MOL0     H20143  11.807   8.277   7.626  1.8776  1.8601  2.4699
  146MOL0     H20144  11.924   8.632   7.777  1.2739 -0.2885 -0.4473
  146MOL0     H20145  11.272   8.439   7.144  0.4205 -1.0944  1.2644
  146MOL0     H20146  11.051   8.588   6.972  0.8969 -0.4824  0.4297
  146MOL0     H20147  11.085   8.416   7.007  2.6575  0.1064  1.5950
  146MOL0     H20148  10.927   8.483   7.043 -0.7551 -0.0194 -1.2965
  147MOL0     O20149  10.820   4.874   9.552 -0.4803  0.2212  1.1384
  147MOL0     C20150  10.911   4.949   9.536 -0.2661  0.0251 -0.0450
  147MOL0     O20151  10.900   5.081   9.504 -0.7893  0.7061 -0.2539
  147MOL0     C20152  10.781   5.134   9.536  0.1126 -0.5857  0.2192
  147MOL0     C20153  10.672   5.126   9.452  0.3611  0.4765 -0.4088
  147MOL0     C20154  10.547   5.186   9.490  0.0987 -0.6453 -0.5184
  147MOL0     C20155  10.541   5.266   9.612  0.4679  0.3160 -0.7633
  147MOL0     O20156  10.432   5.346   9.635  0.2680  0.2026 -0.2506
  147MOL0     C20157  10.418   5.415   9.761  0.4809  0.3673  0.6406
  147MOL0     C20158  10.280   5.466   9.785 -0.3545 -0.5176  0.3756
  147MOL0     C20159  10.167   5.360   9.770  0.6165 -1.4778 -0.0627
  147MOL0     C20160  10.024   5.422   9.801  0.3867 -0.0198  0.2273
  147MOL0     C20161   9.910   5.318   9.769  0.4217  0.0127  1.1014
  147MOL0     C20162   9.782   5.336   9.863 -0.1565 -0.7834  0.1201
  147MOL0     C20163   9.711   5.473   9.853 -0.8375  0.0035 -0.7789
  147MOL0     C20164   9.583   5.474   9.934 -0.1804 -0.6243  0.3166
  147MOL0     N20165   9.596   5.409  10.073  0.4933  0.3214 -0.0372
  147MOL0     C20166   9.601   5.277  10.104  0.0978  0.1074  0.6075
  147MOL0     C20167   9.582   5.278  10.244  1.6221  0.4687 -0.2070
  147MOL0     C20168   9.554   5.137  10.301  0.6239 -0.3655 -0.2984
  147MOL0     C20169   9.508   5.146  10.450 -1.2615 -0.0451 -0.7142
  147MOL0     C20170   9.374   5.214  10.473 -0.1228 -0.1395  0.6538
  147MOL0     C20171   9.392   5.304  10.599  1.0040 -1.4476  0.0896
  147MOL0     O20172   9.275   5.380  10.626 -0.2811  0.7013 -0.1965
  147MOL0     C20173   9.165   5.322  10.663 -0.2381  0.0821  0.4681
  147MOL0     C20174   9.048   5.368  10.605  0.0575 -0.6920 -0.5984
  147MOL0     C20175   8.922   5.310  10.638  0.2651 -0.0511  0.6006
  147MOL0     C20176   8.800   5.351  10.563 -0.5418  0.0766 -0.4284
  147MOL0     C20177   8.917   5.210  10.735  0.1191  0.7270  0.6166
  147MOL0     C20178   8.803   5.133  10.769 -0.1143 -0.1885 -0.4379
  147MOL0     O20179   8.674   5.187  10.755  0.7781  0.0038 -0.2638
  147MOL0     C20180   8.560   5.108  10.786  0.1645 -0.1170  0.0171
  147MOL0     C20181   8.522   4.986  10.722  0.3967 -0.6053 -0.4925
  147MOL0     C20182   8.408   4.919  10.753  0.9827 -0.4161 -0.0861
  147MOL0     C20183   8.316   4.964  10.843 -0.4947 -0.7655  0.1110
  147MOL0     O20184   8.199   4.906  10.876  0.8932 -0.0269 -1.1130
  147MOL0     C20185   8.201   4.759  10.866  0.0659  1.1087  0.6650
  147MOL0     C20186   8.075   4.704  10.929 -0.1720  0.4175  0.3451
  147MOL0     C20187   7.973   4.627  10.841 -0.0873 -0.1019 -0.4591
  147MOL0     C20188   7.860   4.546  10.918 -0.5990  1.0950  0.9174
  147MOL0     C20189   7.735   4.629  10.942 -0.5255  0.0843 -0.4802
  147MOL0     C20190   7.638   4.574  11.044  0.5654  0.2676  0.0148
  147MOL0     C20191   7.599   4.435  11.005  0.5732  0.6009 -1.0918
  147MOL0     C20192   7.494   4.363  11.097 -0.0999  0.8960  0.4165
  147MOL0    Cl20193   7.361   4.276  11.007 -0.0876 -0.1947 -0.0684
  147MOL0     C20194   8.350   5.080  10.914 -0.2166  0.5383  0.4994
  147MOL0     C20195   8.473   5.156  10.889 -0.3672 -0.4880  1.0364
  147MOL0     O20196   8.823   5.023  10.818 -0.1784 -0.2991 -0.1567
  147MOL0     C20197   9.029   5.181  10.803  0.2809  0.0769  0.1384
  147MOL0     C20198   9.153   5.234  10.760  0.2625  0.6163 -0.2449
  147MOL0     N20199   9.564   5.407  10.293  0.3039  0.0137  0.5046
  147MOL0     N20200   9.585   5.475  10.189  0.0202 -0.6379 -0.2601
  147MOL0     C20201  10.660   5.273   9.690 -0.2080 -1.2181  0.4569
  147MOL0     C20202  10.772   5.206   9.654  0.1797  0.9266  0.3159
  147MOL0     C20203  11.053   4.906   9.560 -0.6711 -0.5387  0.4348
  147MOL0     C20204  11.147   5.004   9.589 -0.4312 -0.4728  1.6165
  147MOL0     C20205  11.279   4.964   9.580  0.1130 -0.0532 -0.2005
  147MOL0     C20206  11.327   4.832   9.578  0.7579 -0.2776  0.4142
  147MOL0     O20207  11.465   4.819   9.609  0.3113  0.2525  0.1072
  147MOL0     C20208  11.521   4.689   9.603  0.1524  0.4567  0.3318
  147MOL0     C20209  11.647   4.702   9.679  0.2775 -0.6087 -0.2046
  147MOL0     C20210  11.605   4.675   9.830 -0.0648  0.1179  0.2382
  147MOL0     C20211  11.730   4.659   9.921  0.4584 -0.5402 -0.0982
  147MOL0     C20212  11.823   4.549   9.879  0.0814  0.3155  0.2774
  147MOL0     C20213  11.894   4.457   9.842  0.4488  0.4757  0.2380
  147MOL0     C20214  11.230   4.732   9.578  0.9604  0.7104  0.3903
  147MOL0     C20215  11.091   4.767   9.563  0.7741  0.3125  0.1810
  147MOL0     C20216  10.999   4.641   9.557  0.4183 -0.6104  0.2982
  147MOL0     H20217  10.668   5.094   9.348 -4.1940  1.9045 -0.9196
  147MOL0     H20218  10.463   5.188   9.422 -0.2820  2.0179 -0.1015
  147MOL0     H20219  10.482   5.503   9.765 -2.2239  2.4193  3.5202
  147MOL0     H20220  10.445   5.347   9.843  0.7475  2.5666  2.4701
  147MOL0     H20221  10.279   5.508   9.886  1.2578  1.7584 -0.4590
  147MOL0     H20222  10.252   5.550   9.721  0.0516  0.0832  0.9657
  147MOL0     H20223  10.156   5.313   9.671 -0.2305 -1.9255  0.2366
  147MOL0     H20224  10.190   5.271   9.829  2.6893 -2.0534 -1.6407
  147MOL0     H20225  10.028   5.449   9.907  1.7589  0.4949  0.0628
  147MOL0     H20226  10.003   5.510   9.740  1.5214 -0.4070 -0.7740
  147MOL0     H20227   9.949   5.216   9.767 -1.3998 -0.7742  2.4529
  147MOL0     H20228   9.876   5.330   9.665  0.4638 -1.6173  0.8759
  147MOL0     H20229   9.704   5.269   9.828  0.0748 -1.5484  1.0251
  147MOL0     H20230   9.816   5.322   9.966  1.4841  3.3078  0.3450
  147MOL0     H20231   9.704   5.503   9.748  4.0887  0.1573 -1.2997
  147MOL0     H20232   9.773   5.551   9.897  0.7719 -2.4831  1.7151
  147MOL0     H20233   9.540   5.575   9.937 -0.1997 -0.6521  1.6982
  147MOL0     H20234   9.508   5.411   9.886 -1.2647  0.5490  0.4184
  147MOL0     H20235   9.617   5.194  10.036 -1.9261  1.4329 -1.6476
  147MOL0     H20236   9.642   5.073  10.290  0.0894 -1.5327  1.7481
  147MOL0     H20237   9.473   5.095  10.241  0.4593 -0.1505 -0.2253
  147MOL0     H20238   9.525   5.053  10.505  0.7112  1.0913  0.7201
  147MOL0     H20239   9.582   5.207  10.503 -0.9061 -0.0039 -1.2483
  147MOL0     H20240   9.349   5.274  10.386  0.3726  1.5056  1.5893
  147MOL0     H20241   9.294   5.142  10.489  0.8059 -0.5246  4.6420
  147MOL0     H20242   9.414   5.249  10.691  3.0063  0.6389  0.9599
  147MOL0     H20243   9.478   5.368  10.576 -0.1595 -0.6848 -2.4564
  147MOL0     H20244   9.053   5.449  10.533 -0.8756 -0.1236 -0.0367
  147MOL0     H20245   8.711   5.372  10.622 -2.6505 -2.1762 -2.5463
  147MOL0     H20246   8.768   5.289  10.479 -1.9021  1.2678 -0.8300
  147MOL0     H20247   8.838   5.445  10.520  2.6516  0.9755  3.6760
  147MOL0     H20248   8.579   4.957  10.635  0.5683 -0.5162 -0.4103
  147MOL0     H20249   8.383   4.840  10.683 -2.6745  2.0757 -1.9453
  147MOL0     H20250   8.202   4.729  10.761 -1.9411  1.7704  0.4149
  147MOL0     H20251   8.288   4.706  10.908  1.0485  0.6294 -1.7991
  147MOL0     H20252   8.101   4.632  11.006 -0.2038 -2.1168 -1.8604
  147MOL0     H20253   8.029   4.790  10.978  1.5070  1.1792  0.6490
  147MOL0     H20254   8.026   4.555  10.778 -1.9949  0.0150 -2.3082
  147MOL0     H20255   7.934   4.699  10.768  0.8569  0.9235  0.0181
  147MOL0     H20256   7.892   4.493  11.008 -1.1324 -1.4820 -0.3212
  147MOL0     H20257   7.834   4.461  10.854 -3.6379  2.6062 -0.0662
  147MOL0     H20258   7.758   4.724  10.990 -2.5042  0.7408 -0.7561
  147MOL0     H20259   7.682   4.656  10.850  0.1072 -0.3776 -0.9944
  147MOL0     H20260   7.551   4.639  11.054  0.2201 -0.1479 -0.2485
  147MOL0     H20261   7.692   4.577  11.138  0.6864 -0.4691 -0.0231
  147MOL0     H20262   7.690   4.376  11.008  0.8254  1.0072 -0.5017
  147MOL0     H20263   7.556   4.437  10.904 -1.7917 -1.7059 -0.2508
  147MOL0     H20264   7.452   4.434  11.169  1.9209  0.7273  1.8187
  147MOL0     H20265   7.543   4.297  11.168 -0.6283  0.1334  0.0825
  147MOL0     H20266   8.272   5.109  10.984 -0.8829  0.8405 -0.3445
  147MOL0     H20267   8.485   5.249  10.945 -0.6625 -1.2731  2.4374
  147MOL0     H20268   9.042   5.106  10.880 -1.0228 -0.4959 -0.1743
  147MOL0     H20269   9.237   5.220  10.826 -0.7139  0.9878  1.1145
  147MOL0     H20270  10.665   5.336   9.779 -0.5193 -3.1577  1.9284
  147MOL0     H20271  10.872   5.220   9.695  0.8048  1.1445 -1.2081
  147MOL0     H20272  11.124   5.110   9.583  0.5373 -0.3233 -0.1050
  147MOL0     H20273  11.361   5.034   9.592  0.6472 -0.9744  2.3091
  147MOL0     H20274  11.451   4.612   9.638  1.3435 -0.4167  0.8640
  147MOL0     H20275  11.538   4.675   9.496 -0.5117  1.1698  0.1268
  147MOL0     H20276  11.695   4.799   9.667 -1.5566  0.5572  1.1908
  147MOL0     H20277  11.723   4.630   9.648  0.5282  0.2399 -1.6680
  147MOL0     H20278  11.541   4.759   9.860  0.4820  1.7227 -2.6601
  147MOL0     H20279  11.555   4.579   9.849  0.1635  0.3585  2.3112
  147MOL0     H20280  11.702   4.645  10.026 -0.7295  1.0156 -0.1683
  147MOL0     H20281  11.782   4.755   9.922  1.3780 -0.8888 -3.3822
  147MOL0     H20282  11.966   4.383   9.814  1.6966 -0.1996  4.5119
  147MOL0     H20283  11.249   4.626   9.590  0.2440  0.7549  2.4174
  147MOL0     H20284  10.982   4.597   9.656 -4.7161 -2.3262 -1.0232
  147MOL0     H20285  10.905   4.647   9.502  0.2924 -0.5206  0.5238
  147MOL0     H20286  11.052   4.565   9.498 -1.0649 -0.1252 -1.7721
  148MOL0     O20287  10.679   6.594   3.409  0.2482  0.2461  0.1458
  148MOL0     C20288  10.757   6.690   3.435  0.0863  0.3035  0.2501
  148MOL0     O20289  10.876   6.685   3.504 -0.1123 -0.0296  0.4204
  148MOL0     C20290  10.926   6.572   3.557 -0.3124 -0.4025  0.0917
  148MOL0     C20291  11.005   6.577   3.672 -0.0014  0.9388 -0.0660
  148MOL0     C20292  11.072   6.466   3.728 -0.4912  0.0144  0.1535
  148MOL0     C20293  11.071   6.349   3.660 -0.5741  0.9249 -0.8642
  148MOL0     O20294  11.125   6.235   3.713 -0.2579  1.0318 -0.1077
  148MOL0     C20295  11.251   6.237   3.784 -0.5725 -0.9192 -0.2386
  148MOL0     C20296  11.369   6.277   3.690 -0.2214  0.0030 -0.0819
  148MOL0     C20297  11.391   6.194   3.557 -0.5716 -0.3277 -1.2394
  148MOL0     C20298  11.500   6.086   3.579  0.2627  0.0362 -0.0391
  148MOL0     C20299  11.515   5.991   3.461 -0.5472  0.1268  0.4630
  148MOL0     C20300  11.385   5.905   3.454 -0.5388  0.2263 -0.3864
  148MOL0     C20301  11.393   5.795   3.339  0.2333  0.0447 -0.0620
  148MOL0     C20302  11.261   5.720   3.352  0.8716 -0.5365 -0.8548
  148MOL0     N20303  11.256   5.648   3.485  0.2219 -0.3680  0.3070
  148MOL0     C20304  11.341   5.543   3.507 -0.0441  0.5255 -0.3782
  148MOL0     C20305  11.340   5.539   3.642  0.5847  0.4281 -0.1589
  148MOL0     C20306  11.446   5.468   3.726  0.5437 -0.3481 -0.4625
  148MOL0     C20307  11.528   5.579   3.797 -0.4436 -0.1722 -0.2164
  148MOL0     C20308  11.643   5.529   3.894  0.3678 -0.3213  0.5300
  148MOL0     C20309  11.725   5.648   3.950  0.5481 -0.2912 -0.1385
  148MOL0     O20310  11.811   5.582   4.035  0.1619  0.2077 -0.3298
  148MOL0     C20311  11.908   5.671   4.070  0.2592  0.3007  0.3417
  148MOL0     C20312  12.031   5.620   4.123  1.0835  0.0380 -0.7571
  148MOL0     C20313  12.140   5.699   4.155  0.1786 -0.0585 -0.4629
  148MOL0     C20314  12.263   5.627   4.200  0.4465  0.3334 -0.1651
  148MOL0     C20315  12.132   5.833   4.127 -0.6709  1.0817 -0.2217
  148MOL0     C20316  12.248   5.934   4.130 -0.0368  0.0628 -0.8838
  148MOL0     O20317  12.228   6.068   4.109 -0.0978 -0.0321  0.2712
  148MOL0     C20318  12.320   6.171   4.129  0.1025  0.2328  0.1648
  148MOL0     C20319  12.456   6.158   4.154 -0.1741 -0.2426 -0.1145
  148MOL0     C20320  12.530   6.275   4.181  0.5704  0.4328 -0.3034
  148MOL0     C20321  12.476   6.404   4.176 -0.1744 -0.0975  0.2683
  148MOL0     O20322  12.543   6.516   4.212 -0.3506  0.4371 -0.0626
  148MOL0     C20323  12.629   6.510   4.323  0.8536  0.0677  0.1099
  148MOL0     C20324  12.691   6.642   4.366  0.7104 -0.3687 -0.5847
  148MOL0     C20325  12.737   6.739   4.254  0.2489  0.1256  0.2292
  148MOL0     C20326  12.824   6.658   4.150 -0.1410 -0.3065 -0.9406
  148MOL0     C20327  12.873   6.746   4.037 -0.9153 -0.5193 -0.1078
  148MOL0     C20328  12.965   6.865   4.084  0.0675 -1.0054 -0.0202
  148MOL0     C20329  12.899   7.002   4.057  0.2180  0.3188  0.1645
  148MOL0     C20330  12.885   7.057   3.915  0.0688 -0.1256  0.5539
  148MOL0    Cl20331  13.040   7.065   3.821  0.1368  0.2445 -0.5460
  148MOL0     C20332  12.337   6.416   4.144 -0.6840 -0.0792  0.7340
  148MOL0     C20333  12.262   6.303   4.127  0.1081 -0.0928  0.0691
  148MOL0     O20334  12.357   5.885   4.137  0.5323  0.5686  0.1635
  148MOL0     C20335  12.009   5.888   4.067 -0.7768 -0.2695  0.0185
  148MOL0     C20336  11.890   5.811   4.059 -0.2037  0.2960  0.4932
  148MOL0     N20337  11.254   5.625   3.703 -0.2263 -0.2060  0.6535
  148MOL0     N20338  11.200   5.689   3.606 -0.4292  1.2178  0.9067
  148MOL0     C20339  10.988   6.337   3.546  0.2141 -0.1550  0.8497
  148MOL0     C20340  10.918   6.447   3.490  0.1103 -0.4844  0.2305
  148MOL0     C20341  10.710   6.823   3.392  0.0752  1.1202 -0.4368
  148MOL0     C20342  10.775   6.934   3.453  0.4256  0.2238  0.1082
  148MOL0     C20343  10.735   7.063   3.419 -0.6115 -0.1261  0.5327
  148MOL0     C20344  10.636   7.085   3.325  0.4413 -1.0544  0.6400
  148MOL0     O20345  10.606   7.210   3.287 -0.3585 -0.1688 -0.9590
  148MOL0     C20346  10.617   7.233   3.149  0.5497  0.2176 -0.2726
  148MOL0     C20347  10.766   7.238   3.112  0.3666  0.3377 -0.8748
  148MOL0     C20348  10.832   7.366   3.149  1.0073  0.9975 -1.0246
  148MOL0     C20349  10.984   7.348   3.125 -0.2046  0.1221  0.4519
  148MOL0     C20350  11.012   7.344   2.977  0.2797 -0.1190 -0.9703
  148MOL0     C20351  11.044   7.337   2.863 -1.3924 -0.1979 -0.0722
  148MOL0     C20352  10.572   6.974   3.261 -0.1387  0.9131 -0.2236
  148MOL0     C20353  10.608   6.843   3.297 -1.1555  0.5904 -0.4066
  148MOL0     C20354  10.538   6.729   3.219  0.5019  0.7416  0.1816
  148MOL0     H20355  11.011   6.671   3.727 -0.8858  0.8552  0.1847
  148MOL0     H20356  11.129   6.475   3.821  1.1120  2.1855 -0.9382
  148MOL0     H20357  11.265   6.140   3.831  0.1434 -0.2976  0.8887
  148MOL0     H20358  11.238   6.297   3.875 -0.3683 -0.4877 -0.4882
  148MOL0     H20359  11.349   6.380   3.659 -1.2556 -0.1043  0.1704
  148MOL0     H20360  11.463   6.268   3.744 -0.1891 -0.1224 -0.1557
  148MOL0     H20361  11.297   6.141   3.538 -0.4166 -1.2837  0.4688
  148MOL0     H20362  11.408   6.262   3.474 -0.8156  1.6167  0.2436
  148MOL0     H20363  11.591   6.142   3.602  0.6890 -0.2242 -1.0325
  148MOL0     H20364  11.479   6.028   3.669 -0.3828  1.2767  0.6390
  148MOL0     H20365  11.594   5.922   3.489  0.9029  0.9842 -1.3298
  148MOL0     H20366  11.528   6.040   3.364 -0.2631  0.9167  0.8891
  148MOL0     H20367  11.381   5.858   3.552 -0.1295  1.9893  0.5119
  148MOL0     H20368  11.298   5.969   3.436 -1.1789 -0.3809  0.4930
  148MOL0     H20369  11.472   5.721   3.355  0.6774  0.2103 -1.3657
  148MOL0     H20370  11.403   5.830   3.235  2.4320 -1.0917 -0.2934
  148MOL0     H20371  11.182   5.796   3.352  1.0906 -0.3102 -0.3442
  148MOL0     H20372  11.226   5.649   3.276  0.6250 -1.8860  0.4849
  148MOL0     H20373  11.410   5.495   3.437 -0.3641  0.4289 -0.6326
  148MOL0     H20374  11.504   5.397   3.667  0.4912 -0.9520  0.1989
  148MOL0     H20375  11.397   5.408   3.803  1.2106  2.5707  2.4972
  148MOL0     H20376  11.581   5.641   3.725 -0.8064  3.0319  2.0711
  148MOL0     H20377  11.461   5.652   3.843  0.2455  0.3584 -0.0382
  148MOL0     H20378  11.592   5.478   3.977 -0.8176  1.8178  1.1850
  148MOL0     H20379  11.716   5.467   3.842 -1.0961 -2.0548  0.4210
  148MOL0     H20380  11.768   5.705   3.867  0.1347 -0.7463 -0.6764
  148MOL0     H20381  11.651   5.704   4.009  2.4887  0.0917  2.0549
  148MOL0     H20382  12.026   5.512   4.117 -0.9076  0.1022 -1.0110
  148MOL0     H20383  12.233   5.527   4.232  1.6837 -0.0734 -0.2028
  148MOL0     H20384  12.305   5.681   4.286 -0.5173 -1.6164  1.6045
  148MOL0     H20385  12.331   5.615   4.115  2.7226  0.0859  1.5618
  148MOL0     H20386  12.516   6.068   4.162 -0.6786 -0.8927 -2.7263
  148MOL0     H20387  12.638   6.264   4.184  0.7115  1.0222 -1.9305
  148MOL0     H20388  12.587   6.462   4.412  2.4432 -2.8444 -0.5808
  148MOL0     H20389  12.716   6.447   4.301  2.9572  2.7897  0.1132
  148MOL0     H20390  12.624   6.700   4.430  1.2421 -0.8101  0.3986
  148MOL0     H20391  12.777   6.619   4.428 -0.7114 -1.0830  1.2163
  148MOL0     H20392  12.788   6.827   4.293 -2.3451  1.0214  1.8456
  148MOL0     H20393  12.645   6.774   4.207  1.3408  0.8555 -1.4807
  148MOL0     H20394  12.755   6.581   4.114  0.2152 -1.1432  0.1010
  148MOL0     H20395  12.907   6.614   4.207 -1.6207  1.3671  2.8849
  148MOL0     H20396  12.925   6.677   3.970 -2.6073 -2.0713  0.0977
  148MOL0     H20397  12.788   6.783   3.980 -0.7475  1.7112  0.9957
  148MOL0     H20398  13.060   6.860   4.029 -0.4523 -3.1869 -0.8113
  148MOL0     H20399  13.004   6.848   4.185 -0.6007  1.9239  0.8484
  148MOL0     H20400  12.951   7.072   4.122  1.6022 -1.9163  1.5814
  148MOL0     H20401  12.796   6.986   4.090  0.7852  1.6133  2.8815
  148MOL0     H20402  12.838   7.156   3.916  1.7126  0.6776  1.2894
  148MOL0     H20403  12.820   6.988   3.860 -0.3318  0.5601  0.1505
  148MOL0     H20404  12.289   6.513   4.137 -3.7742 -1.4833  0.8027
  148MOL0     H20405  12.155   6.305   4.107  0.3447 -1.6311 -1.6484
  148MOL0     H20406  12.018   5.992   4.038 -0.1167 -0.3784 -0.2034
  148MOL0     H20407  11.808   5.872   4.022 -0.1971 -2.2589 -4.6043
  148MOL0     H20408  10.979   6.254   3.477  2.1942 -0.6435  1.1325
  148MOL0     H20409  10.880   6.430   3.390  4.4482 -1.1942 -1.5077
  148MOL0     H20410  10.847   6.923   3.533  0.0244 -2.4696  0.2087
  148MOL0     H20411  10.773   7.153   3.466 -1.3102  0.8982 -0.7500
  148MOL0     H20412  10.560   7.161   3.089 -0.2270  1.6310 -1.2798
  148MOL0     H20413  10.567   7.328   3.130 -2.7300 -0.7998  2.3339
  148MOL0     H20414  10.756   7.229   3.003 -1.2281 -0.0890 -0.7289
  148MOL0     H20415  10.821   7.152   3.151  1.3353 -0.3758 -3.5847
  148MOL0     H20416  10.781   7.451   3.104 -2.0551 -0.4310 -0.5085
  148MOL0     H20417  10.811   7.375   3.256  1.2164 -0.7721 -0.7986
  148MOL0     H20418  11.037   7.267   3.176  3.3369  2.1618  0.3742
  148MOL0     H20419  11.022   7.445   3.160  1.6154  0.1218 -1.3399
  148MOL0     H20420  11.064   7.332   2.758 -4.3153 -1.0902 -0.6769
  148MOL0     H20421  10.504   6.987   3.177 -0.0736 -1.8751 -0.7971
  148MOL0     H20422  10.615   6.666   3.173  0.3999  2.8114 -3.1859
  148MOL0     H20423  10.473   6.668   3.282  2.1215  1.3131  2.5587
  148MOL0     H20424  10.479   6.768   3.135 -1.7386  0.7274  1.6726
  149MOL0     O20425   0.678   3.400   2.789  0.4787 -0.6212 -0.2962
  149MOL0     C20426   0.619   3.429   2.891  0.3041 -0.0426 -0.0963
  149MOL0     O20427   0.673   3.470   3.011 -0.3747 -0.4293  0.0451
  149MOL0     C20428   0.801   3.528   3.002  0.4271 -0.2050  1.1024
  149MOL0     C20429   0.851   3.627   2.907 -1.0354 -0.4156  0.2870
  149MOL0     C20430   0.982   3.684   2.924 -0.1702 -0.4944 -1.0435
  149MOL0     C20431   1.071   3.634   3.028  0.4968 -0.0881  0.9026
  149MOL0     O20432   1.192   3.685   3.056 -0.4500 -0.6406  0.1328
  149MOL0     C20433   1.253   3.772   2.961  1.0391  0.3072  0.3679
  149MOL0     C20434   1.397   3.806   3.002  0.2779 -0.6068 -0.4509
  149MOL0     C20435   1.478   3.687   3.013 -0.5115  0.4309 -1.2741
  149MOL0     C20436   1.633   3.731   3.010 -0.7629 -1.2705 -0.8816
  149MOL0     C20437   1.729   3.609   2.993  0.6993  0.0705 -0.7789
  149MOL0     C20438   1.874   3.648   2.947  0.2813 -0.4871  0.0991
  149MOL0     C20439   1.969   3.525   2.949 -0.1157  0.1884 -0.2284
  149MOL0     C20440   2.110   3.561   2.892  0.6537 -0.2806 -0.3207
  149MOL0     N20441   2.183   3.650   2.987  0.2339  0.3988 -0.3561
  149MOL0     C20442   2.235   3.608   3.103  0.3010 -0.3862  0.2502
  149MOL0     C20443   2.271   3.723   3.164 -0.0126  0.9654 -0.8422
  149MOL0     C20444   2.339   3.740   3.296  0.1058  0.9239 -0.0299
  149MOL0     C20445   2.253   3.791   3.418  0.0433 -0.3307  0.4713
  149MOL0     C20446   2.327   3.852   3.540  0.2869  0.1345 -0.0477
  149MOL0     C20447   2.442   3.768   3.600 -0.8576  0.3172  0.7137
  149MOL0     O20448   2.415   3.629   3.616  0.4708  0.3837 -0.2770
  149MOL0     C20449   2.485   3.568   3.713 -1.4904  0.1297 -0.0232
  149MOL0     C20450   2.609   3.607   3.770  0.0009 -0.1367  0.7622
  149MOL0     C20451   2.665   3.553   3.882 -0.9704  0.9426  0.0855
  149MOL0     C20452   2.789   3.617   3.938  0.3803 -0.2891  0.1704
  149MOL0     C20453   2.606   3.439   3.940  0.0038 -0.6701  0.3800
  149MOL0     C20454   2.667   3.354   4.055 -1.1294 -0.2495 -0.5309
  149MOL0     O20455   2.583   3.271   4.124 -0.2853  0.3168 -0.7140
  149MOL0     C20456   2.635   3.173   4.201 -0.6312 -0.0769  0.5986
  149MOL0     C20457   2.762   3.157   4.264 -0.2800  0.7141 -0.8580
  149MOL0     C20458   2.799   3.038   4.326 -0.0404  0.5316  1.3084
  149MOL0     C20459   2.712   2.929   4.315 -0.2797  0.1063 -0.0818
  149MOL0     O20460   2.755   2.819   4.380  0.1505  0.2165  0.6458
  149MOL0     C20461   2.694   2.695   4.349  0.2336 -0.0558  0.4608
  149MOL0     C20462   2.619   2.623   4.456 -0.7103 -0.2077  0.0630
  149MOL0     C20463   2.495   2.695   4.518  0.1213  0.1616  0.0372
  149MOL0     C20464   2.462   2.613   4.649 -0.1475 -0.1095 -0.1099
  149MOL0     C20465   2.337   2.676   4.704  0.2668  0.0685 -0.0007
  149MOL0     C20466   2.196   2.657   4.636 -0.1725  0.2935 -1.0610
  149MOL0     C20467   2.095   2.717   4.726  0.2184 -0.6966 -0.6183
  149MOL0     C20468   1.962   2.721   4.665 -0.2630  0.3292 -0.6419
  149MOL0    Cl20469   1.903   2.556   4.626  0.1158  0.1926 -0.0251
  149MOL0     C20470   2.586   2.949   4.261  0.4250  1.3647 -0.8923
  149MOL0     C20471   2.546   3.064   4.206 -0.0903  0.6611 -0.5691
  149MOL0     O20472   2.795   3.349   4.064  0.3273 -0.1730  0.3422
  149MOL0     C20473   2.479   3.406   3.900 -0.4055  0.5141  0.2693
  149MOL0     C20474   2.424   3.461   3.782 -0.2056 -0.0558 -0.3310
  149MOL0     N20475   2.242   3.825   3.081  0.2505  0.8134  0.1422
  149MOL0     N20476   2.187   3.780   2.971 -0.7397  0.4638 -0.1786
  149MOL0     C20477   1.026   3.532   3.111  0.0776  0.5451  0.9919
  149MOL0     C20478   0.897   3.475   3.096  0.1829  0.2024 -0.3217
  149MOL0     C20479   0.471   3.410   2.888  0.7437 -0.6358 -0.0142
  149MOL0     C20480   0.400   3.466   2.780  0.2913  0.3840 -0.5340
  149MOL0     C20481   0.262   3.437   2.762 -0.2483  0.0998 -1.5980
  149MOL0     C20482   0.193   3.361   2.854 -0.7325 -0.3822  1.0576
  149MOL0     O20483   0.054   3.352   2.834 -0.3779 -0.2824  0.5273
  149MOL0     C20484  -0.026   3.273   2.913 -0.8968 -0.0686 -0.3373
  149MOL0     C20485  -0.159   3.228   2.855 -0.0636  0.4667  0.6379
  149MOL0     C20486  -0.150   3.146   2.728  0.1419 -0.0312 -0.6907
  149MOL0     C20487  -0.143   3.000   2.755  0.3950  0.2379 -0.3999
  149MOL0     C20488  -0.151   2.930   2.625 -0.2743 -0.0023 -1.1783
  149MOL0     C20489  -0.132   2.868   2.522  0.0800  0.4638 -0.4066
  149MOL0     C20490   0.273   3.295   2.955  0.7534  0.0184 -0.1820
  149MOL0     C20491   0.406   3.311   2.976 -0.4735  0.0117 -0.1543
  149MOL0     C20492   0.469   3.253   3.096 -0.1317  0.3238  0.1588
  149MOL0     H20493   0.788   3.670   2.831 -2.2022  1.6597  2.3011
  149MOL0     H20494   0.994   3.770   2.859  0.1563 -0.5587 -1.0691
  149MOL0     H20495   1.198   3.866   2.967  3.3022  1.6237  1.8426
  149MOL0     H20496   1.243   3.737   2.857 -0.3570  1.2225  0.1612
  149MOL0     H20497   1.431   3.879   2.928  2.1079  1.6675  2.4334
  149MOL0     H20498   1.384   3.847   3.103  1.8285  0.2736 -0.5767
  149MOL0     H20499   1.447   3.611   3.086 -0.2726  0.3853 -1.2203
  149MOL0     H20500   1.450   3.630   2.924 -0.2663 -0.8739 -0.5500
  149MOL0     H20501   1.649   3.800   2.926 -1.4436  0.8579  0.6712
  149MOL0     H20502   1.655   3.797   3.094  1.1274 -2.1510 -0.6358
  149MOL0     H20503   1.680   3.542   2.921  0.3303 -1.1890  0.5999
  149MOL0     H20504   1.735   3.557   3.089 -2.5428  0.4710 -0.2656
  149MOL0     H20505   1.875   3.692   2.847  0.0164 -1.1444 -0.1976
  149MOL0     H20506   1.895   3.731   3.015 -3.9246  0.7731  0.1119
  149MOL0     H20507   1.923   3.448   2.886 -1.4581 -2.0484  3.1699
  149MOL0     H20508   1.986   3.471   3.043  0.2425 -1.7634 -1.3592
  149MOL0     H20509   2.167   3.468   2.880  1.6806  0.1241  1.1097
  149MOL0     H20510   2.108   3.607   2.793 -2.0984 -0.9743 -0.6531
  149MOL0     H20511   2.241   3.506   3.142 -1.1769 -1.0615 -1.1645
  149MOL0     H20512   2.425   3.804   3.275  1.3347 -1.1635 -1.6996
  149MOL0     H20513   2.369   3.639   3.327 -3.1901 -0.4255 -0.8387
  149MOL0     H20514   2.179   3.864   3.384  2.4182  2.0553  0.0464
  149MOL0     H20515   2.188   3.706   3.441  0.9534 -0.7646  1.5429
  149MOL0     H20516   2.375   3.946   3.509 -0.5549  0.6219  0.1144
  149MOL0     H20517   2.256   3.887   3.615 -1.6981  0.6740 -2.1041
  149MOL0     H20518   2.532   3.769   3.538 -0.3149  1.4406  1.4594
  149MOL0     H20519   2.474   3.822   3.690 -1.1468  0.3807  0.7780
  149MOL0     H20520   2.674   3.682   3.726  0.5116 -0.5191  0.8507
  149MOL0     H20521   2.773   3.646   4.043 -0.0723 -1.1143  0.3388
  149MOL0     H20522   2.821   3.702   3.878 -1.4518  1.0840  1.0623
  149MOL0     H20523   2.873   3.547   3.934  2.7522  2.4866 -1.5866
  149MOL0     H20524   2.845   3.223   4.241  0.6465 -0.4828 -1.0645
  149MOL0     H20525   2.897   3.031   4.373  1.1450  0.5065 -1.0039
  149MOL0     H20526   2.631   2.702   4.260  0.0679 -3.0585  0.2389
  149MOL0     H20527   2.777   2.627   4.328  1.7323  1.8033  0.0951
  149MOL0     H20528   2.598   2.520   4.427  0.1103 -0.6981  1.1366
  149MOL0     H20529   2.688   2.604   4.539 -0.2850 -0.4574 -0.3446
  149MOL0     H20530   2.414   2.684   4.446  0.5132  1.9710 -0.7388
  149MOL0     H20531   2.515   2.800   4.541  1.1404 -0.1799  0.8118
  149MOL0     H20532   2.545   2.639   4.714 -0.4489  1.2689 -0.2403
  149MOL0     H20533   2.468   2.505   4.632 -2.0423 -0.0342 -1.6128
  149MOL0     H20534   2.335   2.645   4.809 -1.8166  1.1140  0.3403
  149MOL0     H20535   2.357   2.784   4.711 -1.1439  0.3638 -0.1921
  149MOL0     H20536   2.193   2.547   4.633 -1.4574 -0.0547  4.0796
  149MOL0     H20537   2.184   2.698   4.535 -2.4766  3.4864  0.3339
  149MOL0     H20538   2.121   2.821   4.749  2.3819 -1.2375 -0.3976
  149MOL0     H20539   2.097   2.665   4.822  0.3908 -0.4876 -0.5077
  149MOL0     H20540   1.962   2.781   4.574 -0.9667 -0.0866 -0.9245
  149MOL0     H20541   1.883   2.773   4.720 -0.8790 -0.8340 -0.3775
  149MOL0     H20542   2.515   2.867   4.267  0.6461  1.2900  1.5189
  149MOL0     H20543   2.452   3.085   4.156  0.4123  1.7118 -1.1145
  149MOL0     H20544   2.422   3.330   3.952 -1.6858  0.8977 -0.5100
  149MOL0     H20545   2.321   3.430   3.762 -0.9505  0.1109  2.7887
  149MOL0     H20546   1.094   3.492   3.185  0.4764 -1.9039 -0.5757
  149MOL0     H20547   0.883   3.399   3.172  0.3477  0.0587 -0.4332
  149MOL0     H20548   0.456   3.524   2.707  1.5193 -0.7224 -0.4920
  149MOL0     H20549   0.200   3.481   2.684 -0.6134  0.6348 -1.0102
  149MOL0     H20550   0.018   3.173   2.925 -0.8518  0.0425  0.5151
  149MOL0     H20551  -0.035   3.336   3.002 -0.0963  2.0584 -1.6826
  149MOL0     H20552  -0.214   3.313   2.815 -0.8000 -1.8726 -4.1231
  149MOL0     H20553  -0.223   3.194   2.936  0.0601  1.4967  1.1906
  149MOL0     H20554  -0.245   3.162   2.676 -0.6232 -1.2293  0.3079
  149MOL0     H20555  -0.070   3.179   2.660 -0.0995  0.4634 -0.7353
  149MOL0     H20556  -0.218   2.960   2.824 -0.1526 -1.2489 -1.7809
  149MOL0     H20557  -0.047   2.980   2.804 -1.1831 -1.4255  2.3237
  149MOL0     H20558  -0.113   2.821   2.428  1.6600  1.2529 -0.5215
  149MOL0     H20559   0.216   3.225   3.014  0.6184  1.2947  1.2733
  149MOL0     H20560   0.404   3.181   3.147 -2.4005  2.2798  0.2745
  149MOL0     H20561   0.547   3.194   3.048 -1.3636 -0.7181 -0.6237
  149MOL0     H20562   0.519   3.312   3.173  0.2868 -1.9520  1.7203
  150MOL0     O20563   1.136   8.763   7.355 -0.3255 -0.4874  0.0671
  150MOL0     C20564   1.036   8.761   7.427  0.7994  0.4554  1.0523
  150MOL0     O20565   1.033   8.770   7.565  0.2349  0.3573  0.2687
  150MOL0     C20566   1.142   8.820   7.629 -0.8813  0.0234  1.1271
  150MOL0     C20567   1.245   8.735   7.669 -0.8220  0.1738  0.3852
  150MOL0     C20568   1.359   8.779   7.728  0.1555  0.0024  0.2014
  150MOL0     C20569   1.364   8.919   7.760  0.0562 -0.4576 -0.3564
  150MOL0     O20570   1.473   8.983   7.812 -0.4056 -0.0622 -0.1280
  150MOL0     C20571   1.562   8.910   7.894  0.4307  0.4620 -0.4947
  150MOL0     C20572   1.705   8.906   7.844  0.0400 -0.8572  1.4098
  150MOL0     C20573   1.718   8.840   7.711 -0.9056  1.0638 -0.0132
  150MOL0     C20574   1.869   8.870   7.685  0.0373 -0.3629 -0.3455
  150MOL0     C20575   1.918   8.825   7.548  0.3190 -0.3591  0.2271
  150MOL0     C20576   1.891   8.678   7.519 -0.7523 -0.5481 -0.1774
  150MOL0     C20577   1.955   8.616   7.389 -0.9175 -0.9262  0.4698
  150MOL0     C20578   2.108   8.635   7.379  0.1913  0.1172  0.0841
  150MOL0     N20579   2.179   8.522   7.444  0.4089 -0.8243 -0.5203
  150MOL0     C20580   2.256   8.530   7.557  0.6512 -0.0987  0.1784
  150MOL0     C20581   2.301   8.405   7.575 -0.6754  0.2988 -0.4557
  150MOL0     C20582   2.388   8.356   7.686  0.2159 -0.1330  0.3833
  150MOL0     C20583   2.541   8.372   7.662  0.2535  0.0977 -0.7158
  150MOL0     C20584   2.603   8.285   7.550 -0.3865  0.6574  0.0308
  150MOL0     C20585   2.601   8.343   7.408  0.7522  0.3707 -0.4869
  150MOL0     O20586   2.666   8.475   7.407  0.3594 -0.1281  0.1997
  150MOL0     C20587   2.576   8.578   7.390 -0.7040  0.2761  0.3694
  150MOL0     C20588   2.588   8.695   7.469 -0.3358 -0.0177  0.2304
  150MOL0     C20589   2.506   8.810   7.463 -0.3447  1.6659  0.8075
  150MOL0     C20590   2.521   8.919   7.575  0.2197  0.4720  0.2968
  150MOL0     C20591   2.411   8.815   7.360  0.4334 -0.1307 -0.0551
  150MOL0     C20592   2.319   8.931   7.335 -0.1922  0.7862 -0.4620
  150MOL0     O20593   2.243   8.918   7.216  0.1763 -0.4269  0.3081
  150MOL0     C20594   2.153   9.017   7.191  0.3934 -0.3485  0.3774
  150MOL0     C20595   2.200   9.127   7.111  1.6528  0.0820 -0.6406
  150MOL0     C20596   2.112   9.231   7.071  0.1504  0.6396 -0.4712
  150MOL0     C20597   1.980   9.225   7.122 -0.2111 -0.3352 -0.6878
  150MOL0     O20598   1.906   9.340   7.093  0.5021  0.2222 -0.2346
  150MOL0     C20599   1.763   9.332   7.120 -0.8538  0.1511  0.0794
  150MOL0     C20600   1.677   9.255   7.017 -0.6789 -0.1309  0.4058
  150MOL0     C20601   1.710   9.302   6.879  1.5795 -0.2716  0.0376
  150MOL0     C20602   1.620   9.227   6.772  0.7836 -0.0479 -0.4840
  150MOL0     C20603   1.680   9.228   6.628  0.1714 -0.0663  0.8025
  150MOL0     C20604   1.596   9.131   6.534 -0.0997 -0.6324  1.2462
  150MOL0     C20605   1.446   9.159   6.530  0.3812  0.0872  1.0216
  150MOL0     C20606   1.376   9.063   6.424  0.0053  0.4190 -0.0697
  150MOL0    Cl20607   1.434   9.093   6.268 -0.0640  0.3826 -0.6925
  150MOL0     C20608   1.942   9.118   7.209  0.0055 -0.3081 -0.8345
  150MOL0     C20609   2.025   9.013   7.249 -1.1699 -0.0226  0.4187
  150MOL0     O20610   2.324   9.024   7.408 -0.1926 -0.6685  0.8675
  150MOL0     C20611   2.405   8.706   7.270  0.8525 -0.2857  0.0696
  150MOL0     C20612   2.489   8.591   7.283 -0.5200  0.1252  0.2564
  150MOL0     N20613   2.257   8.329   7.478 -0.2843 -0.0887  0.3923
  150MOL0     N20614   2.183   8.392   7.396  0.1343 -0.0493 -0.1169
  150MOL0     C20615   1.256   9.011   7.726 -0.2602 -0.0530 -0.9719
  150MOL0     C20616   1.141   8.957   7.663  0.2569  0.7358 -0.5310
  150MOL0     C20617   0.906   8.736   7.354 -0.4145  0.1051  0.6525
  150MOL0     C20618   0.882   8.766   7.217 -1.0284  0.0791 -1.0690
  150MOL0     C20619   0.760   8.757   7.155 -0.6292  0.1724  0.5238
  150MOL0     C20620   0.651   8.712   7.220  0.1874  0.5546  0.9756
  150MOL0     O20621   0.528   8.710   7.162  0.1616 -0.2751 -0.5551
  150MOL0     C20622   0.472   8.819   7.095  0.7428  0.1683 -0.1145
  150MOL0     C20623   0.350   8.772   6.995  0.9149  0.2637  0.3313
  150MOL0     C20624   0.209   8.750   7.063 -0.4434  0.0054  0.1876
  150MOL0     C20625   0.107   8.696   6.959  0.7239  0.4400 -0.2933
  150MOL0     C20626   0.130   8.567   6.901 -0.7672  0.0598  0.1124
  150MOL0     C20627   0.126   8.465   6.848  0.0533  0.4032  0.0366
  150MOL0     C20628   0.666   8.669   7.352  0.4696  0.1013  0.1711
  150MOL0     C20629   0.788   8.685   7.419 -0.2558  0.3643  0.2687
  150MOL0     C20630   0.784   8.625   7.549 -0.3017  0.2696 -0.4109
  150MOL0     H20631   1.226   8.628   7.670 -0.1379 -0.0029 -1.5191
  150MOL0     H20632   1.438   8.705   7.737 -1.1723 -1.3976  0.8721
  150MOL0     H20633   1.544   8.805   7.920  1.1183  0.9565  2.4317
  150MOL0     H20634   1.578   8.971   7.984  0.5586 -1.0044  0.5245
  150MOL0     H20635   1.721   9.014   7.845 -0.5678 -0.7680  1.8538
  150MOL0     H20636   1.766   8.846   7.912 -0.8674 -0.9565  2.1494
  150MOL0     H20637   1.700   8.732   7.720  3.1037  0.3004  0.8336
  150MOL0     H20638   1.656   8.893   7.639 -1.7711 -0.7024 -0.6334
  150MOL0     H20639   1.870   8.979   7.675 -1.7322 -0.3901 -1.1040
  150MOL0     H20640   1.932   8.823   7.761 -1.4599 -1.3071  0.3503
  150MOL0     H20641   2.019   8.867   7.541 -0.8918  3.7732  3.2184
  150MOL0     H20642   1.859   8.878   7.474  2.3309  1.6546 -0.0305
  150MOL0     H20643   1.936   8.621   7.601  1.5431 -0.0300 -1.0027
  150MOL0     H20644   1.786   8.650   7.519 -0.6210 -1.4115 -3.6170
  150MOL0     H20645   1.904   8.671   7.309 -3.0685 -0.5418  2.0075
  150MOL0     H20646   1.933   8.512   7.364 -1.5872 -0.2008 -2.3292
  150MOL0     H20647   2.146   8.634   7.276  0.0006 -0.6367  0.0115
  150MOL0     H20648   2.141   8.724   7.433  2.4176 -0.7181  0.2039
  150MOL0     H20649   2.283   8.618   7.615  3.0030 -2.1177  2.4409
  150MOL0     H20650   2.365   8.252   7.711 -0.1285 -0.5535 -1.5360
  150MOL0     H20651   2.362   8.427   7.765  0.0670 -0.3668  0.5451
  150MOL0     H20652   2.571   8.476   7.650 -1.1995  0.2906 -3.3180
  150MOL0     H20653   2.590   8.345   7.756  0.4157  2.2494 -0.1320
  150MOL0     H20654   2.708   8.267   7.572 -0.3801  0.8822  0.1893
  150MOL0     H20655   2.556   8.186   7.549  4.6464 -2.1105  2.1260
  150MOL0     H20656   2.665   8.269   7.359  1.0435 -0.0616  0.5082
  150MOL0     H20657   2.499   8.340   7.368  0.1440  0.2659  0.9893
  150MOL0     H20658   2.651   8.691   7.557 -0.3993 -2.5426  0.2263
  150MOL0     H20659   2.554   9.013   7.529 -0.1461  1.4064  1.8633
  150MOL0     H20660   2.600   8.893   7.645  0.7833  0.6451 -0.2667
  150MOL0     H20661   2.420   8.920   7.617  0.0237  0.9153 -0.1712
  150MOL0     H20662   2.303   9.129   7.077  1.5207 -1.4235 -1.1823
  150MOL0     H20663   2.151   9.313   7.010  1.1204 -0.0854 -0.8512
  150MOL0     H20664   1.727   9.289   7.214 -2.1422  1.8697  0.4404
  150MOL0     H20665   1.739   9.439   7.124 -1.7557 -0.0777  2.1403
  150MOL0     H20666   1.699   9.148   7.015 -1.4325 -0.4011 -3.9687
  150MOL0     H20667   1.576   9.269   7.056 -1.6774 -2.2383 -1.2401
  150MOL0     H20668   1.815   9.285   6.855  2.1545  2.1819  0.5911
  150MOL0     H20669   1.684   9.408   6.865  1.1511 -0.5601 -1.6435
  150MOL0     H20670   1.519   9.267   6.778  0.8328  0.0175 -0.0307
  150MOL0     H20671   1.613   9.121   6.798 -1.0215  0.4175  1.1527
  150MOL0     H20672   1.681   9.327   6.583 -0.5284 -0.4394 -0.0594
  150MOL0     H20673   1.779   9.182   6.627 -1.1056 -3.1163  2.2137
  150MOL0     H20674   1.616   9.029   6.568  0.2041 -1.1518 -0.4238
  150MOL0     H20675   1.634   9.136   6.432 -0.7370 -1.9174  0.9325
  150MOL0     H20676   1.425   9.263   6.500 -0.5258 -0.4729 -0.3845
  150MOL0     H20677   1.395   9.145   6.625 -1.9059  1.4771  0.1052
  150MOL0     H20678   1.269   9.085   6.419  0.2911  1.7358 -0.9543
  150MOL0     H20679   1.383   8.956   6.448 -4.0138  0.0477  0.1089
  150MOL0     H20680   1.850   9.130   7.265  2.3337  0.8554  3.1552
  150MOL0     H20681   1.995   8.936   7.318 -3.0934  1.1194  0.9128
  150MOL0     H20682   2.334   8.713   7.189 -0.7885 -0.5964  1.4215
  150MOL0     H20683   2.481   8.512   7.209 -2.9079  0.0734  0.4794
  150MOL0     H20684   1.273   9.114   7.754  1.1067 -0.2410 -1.0080
  150MOL0     H20685   1.051   9.016   7.651  0.2084  1.3323  2.1034
  150MOL0     H20686   0.971   8.808   7.171 -1.7339  0.2037 -2.3718
  150MOL0     H20687   0.750   8.794   7.053 -1.3279  0.2695  0.6189
  150MOL0     H20688   0.430   8.881   7.174  0.4800 -1.2053  0.8617
  150MOL0     H20689   0.546   8.884   7.047 -0.5607 -0.4956 -3.3300
  150MOL0     H20690   0.382   8.684   6.939  0.5784  0.1264  0.3498
  150MOL0     H20691   0.353   8.851   6.919 -0.2189 -0.0931 -0.0966
  150MOL0     H20692   0.213   8.665   7.132 -3.2013 -0.2563  0.1519
  150MOL0     H20693   0.163   8.832   7.119 -0.2505  1.5940 -1.8469
  150MOL0     H20694   0.093   8.771   6.881  0.7752  0.0637 -0.6707
  150MOL0     H20695   0.004   8.689   6.995 -0.6128 -0.4444 -3.8410
  150MOL0     H20696   0.134   8.372   6.795  0.8826  0.9940 -0.9270
  150MOL0     H20697   0.578   8.639   7.408  1.8066 -2.5516  0.9965
  150MOL0     H20698   0.801   8.705   7.622  2.4766  0.7743 -1.4969
  150MOL0     H20699   0.688   8.582   7.579  1.0036 -2.2127  0.4560
  150MOL0     H20700   0.868   8.558   7.565 -0.3080  0.7603  2.0839
  151MOL0     O20701   7.807   9.951   9.362  0.2950  0.1631 -0.0581
  151MOL0     C20702   7.741   9.851   9.385  0.7646 -0.0061 -0.6985
  151MOL0     O20703   7.747   9.772   9.495  0.1290 -0.0861  0.2134
  151MOL0     C20704   7.828   9.807   9.596  0.5140 -0.1189 -0.8926
  151MOL0     C20705   7.913   9.701   9.635 -0.0454  0.3273 -0.3111
  151MOL0     C20706   8.004   9.724   9.736 -0.2056  0.3846 -0.0837
  151MOL0     C20707   8.009   9.849   9.803 -0.2441  0.3777  0.3987
  151MOL0     O20708   8.080   9.869   9.914 -0.6373  0.6490 -0.3943
  151MOL0     C20709   8.217   9.901   9.888  0.2740 -0.7110  0.3248
  151MOL0     C20710   8.267   9.983   9.991 -0.4300  0.3089 -0.2661
  151MOL0     C20711   8.224  10.130   9.994  0.0866  0.4408  0.0894
  151MOL0     C20712   8.324  10.214   9.907 -0.1337  0.2676 -0.6776
  151MOL0     C20713   8.288  10.360   9.886 -0.7939 -0.0434 -0.4309
  151MOL0     C20714   8.386  10.452   9.819  0.4228  0.1844  0.2776
  151MOL0     C20715   8.385  10.414   9.676 -0.9422  0.1392  0.2312
  151MOL0     C20716   8.468  10.517   9.598  0.1559 -0.2400  0.2150
  151MOL0     N20717   8.531  10.458   9.481 -0.2474 -0.2379  0.2639
  151MOL0     C20718   8.478  10.437   9.354 -0.8830 -0.7480  0.0287
  151MOL0     C20719   8.559  10.340   9.297 -0.5905 -0.4464 -0.3049
  151MOL0     C20720   8.544  10.262   9.167  0.5349 -0.3112 -0.0273
  151MOL0     C20721   8.481  10.123   9.182 -0.2898  0.6043  0.2318
  151MOL0     C20722   8.470  10.045   9.051 -0.5667 -0.9363 -0.4247
  151MOL0     C20723   8.393   9.918   9.063 -0.2127  0.6386 -0.1460
  151MOL0     O20724   8.390   9.847   8.938  0.7140 -0.0744  0.0237
  151MOL0     C20725   8.410   9.712   8.963 -0.5332  1.1420 -0.5613
  151MOL0     C20726   8.491   9.640   8.878  0.0007 -0.4273  0.2463
  151MOL0     C20727   8.520   9.498   8.892  0.5484  0.0467 -0.9168
  151MOL0     C20728   8.632   9.442   8.805 -0.2489 -0.2599 -0.2561
  151MOL0     C20729   8.459   9.436   9.015  1.1575  0.0482  0.0949
  151MOL0     C20730   8.478   9.292   9.049 -0.2020 -0.2933 -0.2165
  151MOL0     O20731   8.568   9.231   8.977  0.5161  0.3491 -0.1912
  151MOL0     C20732   8.594   9.107   9.012  0.1860 -0.4771  0.4100
  151MOL0     C20733   8.706   9.077   9.091  0.7589  0.4191  0.5760
  151MOL0     C20734   8.724   8.939   9.126  0.2091  1.0661 -0.7042
  151MOL0     C20735   8.634   8.838   9.071  0.3728 -0.3377 -0.7719
  151MOL0     O20736   8.636   8.704   9.096  1.1983 -0.1701  0.3263
  151MOL0     C20737   8.725   8.651   9.188 -0.6165  0.3642  0.2588
  151MOL0     C20738   8.696   8.506   9.211 -0.6837  0.7529  0.1834
  151MOL0     C20739   8.708   8.421   9.084  0.7773 -0.7158 -0.4558
  151MOL0     C20740   8.568   8.406   9.023  0.1789 -1.3069  0.0778
  151MOL0     C20741   8.571   8.343   8.889  0.0871 -0.9370 -0.6007
  151MOL0     C20742   8.424   8.312   8.837  0.2375 -0.1827 -0.7801
  151MOL0     C20743   8.358   8.192   8.900  0.3301  0.5949 -0.2159
  151MOL0     C20744   8.434   8.064   8.880  0.3529 -0.1652 -0.0499
  151MOL0    Cl20745   8.433   8.021   8.699  0.3842  0.4158 -0.1378
  151MOL0     C20746   8.529   8.886   8.985  0.6145  0.3479 -0.1257
  151MOL0     C20747   8.506   9.018   8.961 -0.7050 -0.7937  0.1602
  151MOL0     O20748   8.410   9.238   9.132  0.1604  0.2759  0.0748
  151MOL0     C20749   8.370   9.511   9.088 -0.2123  0.2841  0.2018
  151MOL0     C20750   8.344   9.644   9.068 -0.2171  0.4377  0.2208
  151MOL0     N20751   8.661  10.314   9.382  0.9247  0.4836  0.5674
  151MOL0     N20752   8.641  10.381   9.487  0.5344  0.1530 -0.5535
  151MOL0     C20753   7.923   9.952   9.762 -0.3515 -0.2168  0.0616
  151MOL0     C20754   7.831   9.930   9.659  0.4263 -0.0185 -0.9284
  151MOL0     C20755   7.635   9.816   9.282  1.0670  0.4596  0.1585
  151MOL0     C20756   7.588   9.919   9.200 -0.2921 -0.3697  0.2407
  151MOL0     C20757   7.492   9.903   9.100 -0.2462 -0.2204 -0.1209
  151MOL0     C20758   7.433   9.784   9.080 -0.5413 -0.0754 -0.5265
  151MOL0     O20759   7.331   9.774   8.985 -0.1562 -0.1587  0.3621
  151MOL0     C20760   7.302   9.637   8.939 -0.0757 -0.5032 -0.2847
  151MOL0     C20761   7.182   9.578   9.009 -0.4984 -0.0644 -0.3704
  151MOL0     C20762   7.052   9.651   8.983  0.2294 -0.2774 -0.2306
  151MOL0     C20763   7.004   9.651   8.833  0.4562  0.5679  0.3552
  151MOL0     C20764   6.952   9.510   8.814  0.1995 -0.4797 -0.5450
  151MOL0     C20765   6.910   9.398   8.799  0.3700 -0.0597 -0.0106
  151MOL0     C20766   7.479   9.678   9.161  0.1748  0.3746 -0.1360
  151MOL0     C20767   7.584   9.687   9.254 -0.4110  0.6426  0.6652
  151MOL0     C20768   7.630   9.559   9.322  0.1679 -0.4315 -0.4480
  151MOL0     H20769   7.901   9.604   9.589 -3.8179  0.7689 -0.5623
  151MOL0     H20770   8.080   9.648   9.753  1.5428  2.3454  1.3424
  151MOL0     H20771   8.237   9.947   9.791 -1.0653 -1.9955 -0.6068
  151MOL0     H20772   8.278   9.810   9.881 -0.5845 -1.1990 -1.0314
  151MOL0     H20773   8.218   9.939  10.078  1.2135 -0.6792  0.1915
  151MOL0     H20774   8.375   9.973  10.004 -0.1773  2.3053 -0.5582
  151MOL0     H20775   8.126  10.161   9.957 -0.9980 -1.4236  1.2167
  151MOL0     H20776   8.237  10.167  10.097  3.3311  1.7869 -0.6731
  151MOL0     H20777   8.423  10.207   9.953  0.6701 -2.2265 -2.5375
  151MOL0     H20778   8.335  10.167   9.808 -1.1152  0.9089 -1.0983
  151MOL0     H20779   8.276  10.394   9.989  1.3848 -1.1533  0.2500
  151MOL0     H20780   8.190  10.360   9.836  0.0057 -0.9950 -2.0963
  151MOL0     H20781   8.352  10.555   9.827 -1.8447 -0.3393 -1.4769
  151MOL0     H20782   8.483  10.437   9.866 -0.3516 -1.1664  1.5513
  151MOL0     H20783   8.285  10.392   9.638 -1.3512  1.8005  0.2961
  151MOL0     H20784   8.444  10.324   9.657 -0.3435  0.0408  2.2794
  151MOL0     H20785   8.387  10.577   9.556 -1.6870 -3.1093 -0.6055
  151MOL0     H20786   8.546  10.557   9.664 -1.7629 -0.2479  2.6601
  151MOL0     H20787   8.391  10.483   9.308 -0.9853 -0.9845 -0.0191
  151MOL0     H20788   8.648  10.250   9.134  1.0725 -0.0827  1.5230
  151MOL0     H20789   8.488  10.321   9.093  2.4530 -0.3930 -1.6301
  151MOL0     H20790   8.533  10.062   9.257 -0.8555 -2.9338 -2.0363
  151MOL0     H20791   8.380  10.146   9.217 -0.3965  1.6330 -0.7036
  151MOL0     H20792   8.437  10.116   8.975 -2.8735 -2.2812 -0.8007
  151MOL0     H20793   8.569  10.003   9.031 -0.5061 -1.1983  0.3516
  151MOL0     H20794   8.431   9.863   9.149 -3.4816 -1.8535 -0.1072
  151MOL0     H20795   8.287   9.941   9.078 -0.5371  0.4018 -1.8898
  151MOL0     H20796   8.548   9.703   8.812  0.4192 -0.3439  0.6869
  151MOL0     H20797   8.617   9.342   8.764  1.5395 -0.0558 -1.5401
  151MOL0     H20798   8.729   9.445   8.854 -1.2552  0.2108  1.8253
  151MOL0     H20799   8.643   9.514   8.723  1.4451 -1.1462 -0.8494
  151MOL0     H20800   8.782   9.151   9.115  1.3944  0.7091 -2.0459
  151MOL0     H20801   8.815   8.911   9.178 -0.9872 -0.0007  0.9308
  151MOL0     H20802   8.826   8.674   9.150 -0.2601  0.0735  1.0166
  151MOL0     H20803   8.703   8.710   9.277 -1.0883  1.1432 -0.3549
  151MOL0     H20804   8.764   8.463   9.285  0.9391  0.4707 -1.3967
  151MOL0     H20805   8.594   8.501   9.248 -0.5706  3.6799  1.1903
  151MOL0     H20806   8.748   8.324   9.114  0.6054 -0.8674 -0.7079
  151MOL0     H20807   8.777   8.460   9.009  1.4138 -2.0508 -0.5968
  151MOL0     H20808   8.533   8.509   9.013  3.4544 -0.1003 -0.0164
  151MOL0     H20809   8.498   8.361   9.094 -0.9992  0.8889  0.3941
  151MOL0     H20810   8.626   8.409   8.822  0.9496  1.3173  2.1033
  151MOL0     H20811   8.634   8.254   8.882 -0.5199 -1.4270  0.0090
  151MOL0     H20812   8.411   8.304   8.728 -0.0886  1.0907 -0.8617
  151MOL0     H20813   8.358   8.397   8.856 -0.2867 -0.9845  1.2442
  151MOL0     H20814   8.252   8.182   8.875  0.3197  0.3923 -0.0945
  151MOL0     H20815   8.356   8.209   9.008  0.7971  2.8119 -0.5139
  151MOL0     H20816   8.381   7.990   8.941  0.4519  1.5095  2.2239
  151MOL0     H20817   8.533   8.080   8.924 -0.3691  2.0708  0.9113
  151MOL0     H20818   8.469   8.805   8.944 -0.6416  0.3823  1.5154
  151MOL0     H20819   8.433   9.059   8.892  0.1960  2.5813  1.0195
  151MOL0     H20820   8.311   9.464   9.166  0.6425 -1.3924 -0.0979
  151MOL0     H20821   8.269   9.693   9.129  0.8890  1.6870  0.6234
  151MOL0     H20822   7.913  10.051   9.805  2.8525  1.6654 -3.0688
  151MOL0     H20823   7.769  10.013   9.623  1.5291  0.4866 -1.7074
  151MOL0     H20824   7.621  10.021   9.218  0.9954 -0.1740 -2.6764
  151MOL0     H20825   7.466   9.991   9.042  1.7348  0.7245  0.3559
  151MOL0     H20826   7.290   9.629   8.830 -0.1625 -1.1668 -0.2283
  151MOL0     H20827   7.376   9.562   8.969 -2.4713 -2.4809  1.0475
  151MOL0     H20828   7.193   9.571   9.118 -1.7593  1.0017 -0.1402
  151MOL0     H20829   7.169   9.476   8.972  0.3882  0.7514 -3.1963
  151MOL0     H20830   6.990   9.602   9.058  1.5293 -1.2951  0.2141
  151MOL0     H20831   7.058   9.758   9.009 -1.9570 -0.6118  1.9384
  151MOL0     H20832   7.081   9.683   8.763  1.1110 -0.5851  0.5237
  151MOL0     H20833   6.918   9.717   8.816 -0.2589 -0.7623 -1.6365
  151MOL0     H20834   6.883   9.295   8.798 -1.9556  0.4265  2.1866
  151MOL0     H20835   7.435   9.580   9.154 -3.5152  1.8284  0.7676
  151MOL0     H20836   7.731   9.585   9.357  1.1418 -1.7678 -2.1295
  151MOL0     H20837   7.553   9.544   9.398 -0.4617 -1.3964 -1.2537
  151MOL0     H20838   7.630   9.471   9.257 -1.9518 -0.8103 -0.0026
  152MOL0     O20839   7.546   6.756   9.076  0.0908  0.0558  0.8223
  152MOL0     C20840   7.584   6.759   8.960 -0.8456 -0.4628 -0.4850
  152MOL0     O20841   7.503   6.768   8.851  0.3244 -0.6714  0.0850
  152MOL0     C20842   7.362   6.770   8.862  0.2114 -0.1967  0.6631
  152MOL0     C20843   7.311   6.884   8.814  0.0631  0.1416  0.7462
  152MOL0     C20844   7.172   6.909   8.821  0.0297  0.4456  0.3755
  152MOL0     C20845   7.086   6.815   8.877  0.6471 -0.6832  0.4146
  152MOL0     O20846   6.957   6.851   8.887  0.7362  0.1970 -0.1077
  152MOL0     C20847   6.863   6.735   8.905  0.1189 -0.4454  0.1375
  152MOL0     C20848   6.724   6.784   8.864 -0.7503 -0.4203 -0.7952
  152MOL0     C20849   6.632   6.830   8.981  0.5522 -0.2730  0.0699
  152MOL0     C20850   6.540   6.943   8.933  0.4952  0.2450 -0.4338
  152MOL0     C20851   6.410   6.929   9.012 -0.1790 -0.0039 -0.0056
  152MOL0     C20852   6.326   7.046   8.960 -0.0743  0.1478 -0.6045
  152MOL0     C20853   6.182   7.026   9.022 -0.3028  0.8448 -0.1612
  152MOL0     C20854   6.141   7.073   9.166 -0.0028  0.4322  0.3621
  152MOL0     N20855   6.156   7.214   9.175  0.8520 -0.4228  0.2775
  152MOL0     C20856   6.063   7.312   9.154  0.4788 -0.1025 -0.4778
  152MOL0     C20857   6.129   7.429   9.181 -0.4492 -0.6590 -0.0845
  152MOL0     C20858   6.083   7.573   9.163 -0.3398 -0.2053  0.6928
  152MOL0     C20859   5.935   7.595   9.198 -0.3740  0.5776 -0.9047
  152MOL0     C20860   5.915   7.676   9.322 -0.2392 -0.7222 -1.0391
  152MOL0     C20861   5.768   7.695   9.352  0.3261  0.3129  0.9037
  152MOL0     O20862   5.767   7.776   9.470  0.4149  0.0705 -0.5882
  152MOL0     C20863   5.646   7.835   9.488  0.0827  0.9936 -0.6808
  152MOL0     C20864   5.616   7.956   9.426  0.4971  0.1878  0.1377
  152MOL0     C20865   5.497   8.027   9.445  0.1301 -0.4686 -0.1397
  152MOL0     C20866   5.477   8.140   9.350  0.9411 -0.0649 -0.2592
  152MOL0     C20867   5.410   7.982   9.545 -0.0530 -0.6580 -0.8837
  152MOL0     C20868   5.287   8.063   9.587  0.5027  0.5520 -0.8687
  152MOL0     O20869   5.193   8.110   9.500  0.6388  0.2063  0.0692
  152MOL0     C20870   5.090   8.195   9.537 -1.0763 -0.3786  0.0013
  152MOL0     C20871   4.960   8.171   9.493  0.0059 -0.2711  0.5842
  152MOL0     C20872   4.867   8.254   9.545  0.6353 -0.5230  0.0262
  152MOL0     C20873   4.893   8.360   9.626  0.4576 -0.2211 -0.4710
  152MOL0     O20874   4.795   8.452   9.673 -0.0685 -0.0687 -1.1573
  152MOL0     C20875   4.669   8.405   9.722  0.0517 -0.9113 -0.1767
  152MOL0     C20876   4.571   8.514   9.758  0.2030 -0.2838  0.1810
  152MOL0     C20877   4.419   8.475   9.782  0.3735  0.3680  0.0792
  152MOL0     C20878   4.406   8.355   9.873  0.1571  0.3029 -0.5670
  152MOL0     C20879   4.276   8.332   9.957 -0.3922  0.2693 -1.1375
  152MOL0     C20880   4.293   8.220  10.051  0.2426  1.6261 -0.8884
  152MOL0     C20881   4.339   8.087   9.993 -0.1516 -0.0725  0.1180
  152MOL0     C20882   4.355   7.982  10.104  0.1995  0.8203 -0.5343
  152MOL0    Cl20883   4.377   7.823  10.026 -0.0183 -0.4061 -0.0755
  152MOL0     C20884   5.027   8.393   9.658 -0.8656 -1.2339  0.7352
  152MOL0     C20885   5.126   8.312   9.612  0.0687 -0.3129  0.7868
  152MOL0     O20886   5.264   8.061   9.709 -0.5133  0.5342  0.3983
  152MOL0     C20887   5.450   7.874   9.620  0.2489 -0.4603 -0.2603
  152MOL0     C20888   5.561   7.789   9.589  0.3215 -0.3355  0.2100
  152MOL0     N20889   6.258   7.405   9.223 -0.6189 -0.1571  1.3497
  152MOL0     N20890   6.273   7.271   9.217  0.0054 -0.7790  0.1943
  152MOL0     C20891   7.145   6.695   8.936  0.1147 -0.2417 -0.4354
  152MOL0     C20892   7.283   6.682   8.932 -0.3994 -0.7535 -0.8625
  152MOL0     C20893   7.731   6.778   8.939  0.0990  0.2220 -1.1687
  152MOL0     C20894   7.768   6.768   8.805 -0.1484  0.1932 -0.1824
  152MOL0     C20895   7.896   6.751   8.763  0.0131  0.5784  0.0150
  152MOL0     C20896   7.991   6.736   8.859  0.0443  0.2671  0.1305
  152MOL0     O20897   8.117   6.714   8.804 -0.2017 -0.7730 -0.0623
  152MOL0     C20898   8.238   6.721   8.877 -0.3833  0.7329 -0.6800
  152MOL0     C20899   8.255   6.582   8.954 -0.1254  1.0164  0.1764
  152MOL0     C20900   8.251   6.456   8.858  0.2975  0.2108 -1.2454
  152MOL0     C20901   8.370   6.439   8.768  0.2007  0.7189  0.3203
  152MOL0     C20902   8.324   6.421   8.621  0.6909 -0.3816  0.6075
  152MOL0     C20903   8.289   6.410   8.501 -0.0781 -0.1733  0.2118
  152MOL0     C20904   7.967   6.758   8.995 -0.1954 -0.8454 -0.9849
  152MOL0     C20905   7.832   6.783   9.038 -0.4421 -0.3518 -0.1720
  152MOL0     C20906   7.804   6.801   9.183  0.4715 -0.4993  0.1181
  152MOL0     H20907   7.371   6.962   8.767 -0.1362 -0.9020 -1.3419
  152MOL0     H20908   7.134   7.001   8.778 -0.1969 -0.1684 -0.7895
  152MOL0     H20909   6.860   6.715   9.013  0.1231  1.0814  0.4433
  152MOL0     H20910   6.895   6.645   8.851 -0.3834 -0.0112 -0.8955
  152MOL0     H20911   6.734   6.857   8.784  2.4373 -1.5101 -1.5396
  152MOL0     H20912   6.688   6.691   8.820 -0.9738 -1.6392  1.7855
  152MOL0     H20913   6.586   6.734   9.004  1.1942 -1.1085 -1.9028
  152MOL0     H20914   6.682   6.859   9.074 -1.8586  1.6825  0.8725
  152MOL0     H20915   6.586   7.043   8.933 -1.8775  1.5926  3.5382
  152MOL0     H20916   6.519   6.921   8.829  0.7433  1.5258 -0.7788
  152MOL0     H20917   6.420   6.940   9.120 -3.8237  0.2483  0.4474
  152MOL0     H20918   6.359   6.833   8.997 -0.1958 -0.0249  0.1891
  152MOL0     H20919   6.374   7.141   8.987  0.2402 -0.3797  0.7680
  152MOL0     H20920   6.319   7.029   8.852 -1.4685 -1.8976 -0.2295
  152MOL0     H20921   6.165   6.919   9.017  0.0584  0.7511  0.4965
  152MOL0     H20922   6.114   7.064   8.945 -0.3814  1.8337  0.3786
  152MOL0     H20923   6.036   7.049   9.183 -0.4666  0.7541 -1.6955
  152MOL0     H20924   6.204   7.025   9.242 -0.5789  1.3353  1.4389
  152MOL0     H20925   5.961   7.301   9.120  0.3249 -3.0813  0.6336
  152MOL0     H20926   6.093   7.602   9.058  4.6911 -0.6383  0.8493
  152MOL0     H20927   6.149   7.637   9.223  1.8153  0.9866 -2.6907
  152MOL0     H20928   5.879   7.640   9.115 -1.3689  0.8747 -0.0787
  152MOL0     H20929   5.887   7.500   9.220 -0.6451  0.2485 -2.7512
  152MOL0     H20930   5.954   7.619   9.407 -4.0381  0.4991  1.8051
  152MOL0     H20931   5.981   7.762   9.309  0.3763 -1.3315 -2.1796
  152MOL0     H20932   5.719   7.741   9.266  1.9599  0.8918  0.2522
  152MOL0     H20933   5.727   7.597   9.377  3.0473 -0.9823  0.6341
  152MOL0     H20934   5.697   7.987   9.361  0.2645 -0.5369 -0.5108
  152MOL0     H20935   5.441   8.097   9.256 -0.5671 -0.9957  0.6957
  152MOL0     H20936   5.575   8.187   9.334  0.6505  0.0320 -2.0208
  152MOL0     H20937   5.408   8.216   9.387  1.6130  0.8588 -0.8412
  152MOL0     H20938   4.935   8.076   9.449 -2.0408 -0.1257  1.3362
  152MOL0     H20939   4.764   8.226   9.524 -0.2210  1.4870  1.2474
  152MOL0     H20940   4.626   8.333   9.652 -0.3077 -0.3591 -0.5230
  152MOL0     H20941   4.692   8.342   9.809  0.4483 -1.9347 -0.9922
  152MOL0     H20942   4.612   8.567   9.844  0.0943 -0.5666  0.4071
  152MOL0     H20943   4.571   8.585   9.674 -1.9929  1.0304  1.1872
  152MOL0     H20944   4.365   8.443   9.692  1.0457 -1.1615  0.1791
  152MOL0     H20945   4.359   8.556   9.824  1.0484 -0.0771  2.0327
  152MOL0     H20946   4.477   8.367   9.955 -0.5373  1.2834 -0.0769
  152MOL0     H20947   4.429   8.266   9.813 -0.7828  0.5364 -1.3136
  152MOL0     H20948   4.258   8.425  10.012 -0.3297  0.6995 -1.8229
  152MOL0     H20949   4.193   8.312   9.887 -0.4971 -3.8286 -0.0532
  152MOL0     H20950   4.199   8.208  10.105  2.5081 -0.0456  3.1609
  152MOL0     H20951   4.361   8.258  10.128 -0.5860  3.7633 -1.1372
  152MOL0     H20952   4.440   8.096   9.952 -0.1517 -0.5675  0.0033
  152MOL0     H20953   4.276   8.041   9.916  1.2059 -1.5263 -0.1828
  152MOL0     H20954   4.271   7.988  10.173  0.2351  1.4646 -0.5457
  152MOL0     H20955   4.439   8.012  10.168 -0.9171  1.2762  0.7417
  152MOL0     H20956   5.046   8.486   9.711  1.3596 -0.0022 -1.9449
  152MOL0     H20957   5.222   8.359   9.631 -0.0861  0.3220  0.0560
  152MOL0     H20958   5.393   7.855   9.711 -0.9060 -2.2496 -1.2997
  152MOL0     H20959   5.604   7.715   9.655  2.5934  1.1127  0.4595
  152MOL0     H20960   7.088   6.631   9.003  3.4784 -1.6727  1.3149
  152MOL0     H20961   7.318   6.592   8.980 -1.5393 -1.3110 -1.0422
  152MOL0     H20962   7.689   6.768   8.731 -1.1489  0.7351  0.8611
  152MOL0     H20963   7.925   6.730   8.661  1.8217 -2.3700  0.9872
  152MOL0     H20964   8.305   6.736   8.792  0.2015 -1.1812 -0.5819
  152MOL0     H20965   8.243   6.805   8.947 -1.2619 -0.1332  0.4555
  152MOL0     H20966   8.172   6.575   9.026 -0.8085 -0.8825 -0.7217
  152MOL0     H20967   8.350   6.575   9.007 -0.0924 -2.7719 -0.1001
  152MOL0     H20968   8.235   6.368   8.922 -3.5791  1.6526  0.0660
  152MOL0     H20969   8.167   6.467   8.789  1.5902 -1.6288 -3.2805
  152MOL0     H20970   8.429   6.358   8.812 -1.2996 -0.8185 -0.3849
  152MOL0     H20971   8.441   6.523   8.765  3.7437 -2.0338  0.9939
  152MOL0     H20972   8.249   6.402   8.402  1.6361  2.2871 -0.7872
  152MOL0     H20973   8.040   6.758   9.076 -0.3748  0.5310 -0.8048
  152MOL0     H20974   7.894   6.817   9.242  1.0649  0.0206 -0.8996
  152MOL0     H20975   7.747   6.894   9.186 -0.5308 -0.8529 -3.2980
  152MOL0     H20976   7.747   6.721   9.231 -1.8768  1.1906  0.3641
  153MOL0     O20977   0.661   5.003  10.598  0.8762  1.5393  0.3242
  153MOL0     C20978   0.658   5.109  10.533 -0.2479 -0.1971 -0.4399
  153MOL0     O20979   0.554   5.153  10.459 -0.0957  0.2474 -0.1843
  153MOL0     C20980   0.440   5.079  10.433  0.2270 -0.0987 -0.5026
  153MOL0     C20981   0.441   4.981  10.330 -0.0284  0.2264  0.1726
  153MOL0     C20982   0.324   4.919  10.293 -0.6754  0.5462  0.6490
  153MOL0     C20983   0.193   4.961  10.344 -1.2858  1.3467  0.4377
  153MOL0     O20984   0.084   4.897  10.284  0.3624  0.3576  0.1057
  153MOL0     C20985  -0.043   4.918  10.335 -0.7675 -0.0061  0.6863
  153MOL0     C20986  -0.101   4.802  10.430  0.1109  0.2373  0.4393
  153MOL0     C20987  -0.031   4.807  10.564 -0.4380 -0.4355  0.3735
  153MOL0     C20988   0.081   4.701  10.574  0.3042 -0.1064 -0.6142
  153MOL0     C20989   0.154   4.728  10.697 -0.3146  0.0377 -0.0310
  153MOL0     C20990   0.231   4.606  10.750  0.7697 -0.2048 -1.0792
  153MOL0     C20991   0.349   4.575  10.666 -0.0500  0.4089  1.0527
  153MOL0     C20992   0.459   4.682  10.657  0.0120 -0.4166  0.2410
  153MOL0     N20993   0.558   4.654  10.761 -0.2519 -0.4105  0.0037
  153MOL0     C20994   0.589   4.719  10.874 -0.2724 -0.1166  0.0530
  153MOL0     C20995   0.719   4.676  10.905  0.3558 -0.6310  0.2476
  153MOL0     C20996   0.796   4.746  11.003 -0.1329  0.0671 -0.2279
  153MOL0     C20997   0.888   4.651  11.085 -0.3082  0.5124  0.6744
  153MOL0     C20998   1.020   4.627  10.998  0.3755 -0.1739  0.3729
  153MOL0     C20999   1.109   4.557  11.105 -0.6165  0.1151 -0.4054
  153MOL0     O21000   1.071   4.422  11.111  0.2842  0.1046  0.6200
  153MOL0     C21001   1.162   4.351  11.183  0.6000  0.2525 -0.2202
  153MOL0     C21002   1.169   4.361  11.324 -0.5243  0.5458 -0.5484
  153MOL0     C21003   1.256   4.286  11.401 -0.6396  0.0558  0.3729
  153MOL0     C21004   1.246   4.312  11.549  0.8691 -0.2550  0.1006
  153MOL0     C21005   1.349   4.197  11.337  0.4223  0.1147  0.7261
  153MOL0     C21006   1.442   4.112  11.417 -0.9469  0.9650 -0.1136
  153MOL0     O21007   1.471   3.991  11.364 -0.3085  0.1605  0.6609
  153MOL0     C21008   1.550   3.910  11.448  0.2815 -0.6074 -0.1097
  153MOL0     C21009   1.504   3.829  11.559  0.2024  0.4001  0.6588
  153MOL0     C21010   1.583   3.760  11.640  1.1336  0.4823  0.0338
  153MOL0     C21011   1.722   3.763  11.625 -0.3760  0.0233  0.2316
  153MOL0     O21012   1.798   3.692  11.722  0.5894 -0.5467 -0.3953
  153MOL0     C21013   1.939   3.672  11.705  0.4398 -0.5973  1.2057
  153MOL0     C21014   1.967   3.563  11.596  0.0782 -0.5181  0.1654
  153MOL0     C21015   1.986   3.431  11.670 -0.5554 -0.4832  0.6295
  153MOL0     C21016   2.126   3.418  11.736 -0.1678 -0.3038  0.4550
  153MOL0     C21017   2.153   3.288  11.810  0.3306 -0.1783 -0.0362
  153MOL0     C21018   2.034   3.229  11.884 -0.2969  0.3639 -0.4781
  153MOL0     C21019   2.073   3.085  11.940  0.4746  0.3311  0.1701
  153MOL0     C21020   2.185   3.087  12.043  0.1567 -0.3218 -0.1180
  153MOL0    Cl21021   2.179   2.931  12.134  0.2597  0.4212  0.0729
  153MOL0     C21022   1.775   3.835  11.507 -0.4362  0.4324  1.0951
  153MOL0     C21023   1.680   3.912  11.421 -0.6728  0.3274  0.0910
  153MOL0     O21024   1.490   4.158  11.514 -0.3738 -1.0107  0.1122
  153MOL0     C21025   1.340   4.180  11.199 -0.1936 -0.0314  0.0541
  153MOL0     C21026   1.248   4.256  11.121 -0.3112  0.3656 -0.2752
  153MOL0     N21027   0.752   4.580  10.817 -1.0015  0.5419 -0.5962
  153MOL0     N21028   0.651   4.558  10.737 -0.2770  0.6927 -0.7498
  153MOL0     C21029   0.198   5.056  10.443  0.7523  0.5450 -0.0180
  153MOL0     C21030   0.318   5.114  10.487  1.2514 -0.1732  0.6686
  153MOL0     C21031   0.785   5.192  10.547  0.3535 -0.3530  0.3378
  153MOL0     C21032   0.896   5.152  10.628  0.5917 -0.2979 -0.1156
  153MOL0     C21033   1.018   5.217  10.635  0.7437 -0.2820 -0.0054
  153MOL0     C21034   1.034   5.343  10.570  0.5141  0.9855  0.3550
  153MOL0     O21035   1.158   5.414  10.552 -0.0515  0.9892 -0.2423
  153MOL0     C21036   1.278   5.364  10.607  0.7600 -0.6207  0.3676
  153MOL0     C21037   1.347   5.293  10.500  0.4530  0.0175 -0.6267
  153MOL0     C21038   1.471   5.225  10.549 -0.6022  0.4968 -0.3497
  153MOL0     C21039   1.588   5.317  10.596  0.6325 -0.0762 -1.0263
  153MOL0     C21040   1.715   5.251  10.583  0.0789  0.1527  0.2954
  153MOL0     C21041   1.822   5.194  10.557 -0.3773  0.4066  0.4074
  153MOL0     C21042   0.923   5.395  10.506 -0.1940 -0.7043  0.3479
  153MOL0     C21043   0.806   5.320  10.484  0.4394  0.6268  0.1582
  153MOL0     C21044   0.700   5.380  10.385 -0.0746  0.1657 -0.0537
  153MOL0     H21045   0.534   4.962  10.279  0.6289  1.6542  0.7692
  153MOL0     H21046   0.329   4.845  10.214  0.4168  2.4412 -1.1598
  153MOL0     H21047  -0.106   4.917  10.246  2.1582  1.2081 -1.5369
  153MOL0     H21048  -0.068   5.016  10.378 -1.3748 -1.2878  3.5226
  153MOL0     H21049  -0.207   4.815  10.450  0.5400 -0.3336  3.7302
  153MOL0     H21050  -0.076   4.707  10.380  0.4778  0.9520 -0.7763
  153MOL0     H21051   0.004   4.910  10.578 -1.0635 -0.3047  1.0434
  153MOL0     H21052  -0.111   4.799  10.638 -0.0363  0.1289  0.8692
  153MOL0     H21053   0.045   4.597  10.578  0.8181 -0.4330 -2.9733
  153MOL0     H21054   0.147   4.709  10.488  0.4405 -1.5093 -0.6749
  153MOL0     H21055   0.083   4.755  10.776 -0.0305 -1.4248  0.7541
  153MOL0     H21056   0.214   4.820  10.692  0.1975  0.3579  5.4398
  153MOL0     H21057   0.263   4.634  10.851 -0.9483 -0.7260 -0.3405
  153MOL0     H21058   0.175   4.512  10.755  0.9830 -0.3230  3.0690
  153MOL0     H21059   0.316   4.552  10.564  4.2634 -2.9265  0.0756
  153MOL0     H21060   0.398   4.484  10.703  0.2941  0.8509  1.7087
  153MOL0     H21061   0.514   4.666  10.564  0.4708  1.4576  0.1373
  153MOL0     H21062   0.416   4.783  10.656 -0.2722 -0.4974 -2.1742
  153MOL0     H21063   0.531   4.786  10.937 -0.4634 -0.7209  0.5364
  153MOL0     H21064   0.729   4.798  11.071  0.7464 -1.0648  1.5823
  153MOL0     H21065   0.859   4.816  10.946 -0.1097  0.0704 -0.1976
  153MOL0     H21066   0.915   4.703  11.177 -0.4364 -1.4204  1.8444
  153MOL0     H21067   0.836   4.562  11.122 -1.6985  1.4218  0.9808
  153MOL0     H21068   1.009   4.577  10.902  3.1378  0.8982 -0.5959
  153MOL0     H21069   1.062   4.727  10.985  0.7729 -0.3246  0.5005
  153MOL0     H21070   1.213   4.568  11.074  0.4394  1.1122  3.0626
  153MOL0     H21071   1.103   4.612  11.199 -0.4934 -1.8857  0.8222
  153MOL0     H21072   1.104   4.431  11.375 -1.0365 -0.6549  0.5183
  153MOL0     H21073   1.226   4.217  11.600 -0.6134 -0.0384 -0.0223
  153MOL0     H21074   1.161   4.375  11.578  0.6856 -1.1215  1.5232
  153MOL0     H21075   1.337   4.364  11.580  1.0172 -1.2517  1.3803
  153MOL0     H21076   1.396   3.831  11.573 -0.1839  1.1838 -1.8612
  153MOL0     H21077   1.541   3.720  11.731  2.1926 -2.2963 -0.6096
  153MOL0     H21078   1.984   3.771  11.690 -2.7277  0.8154 -0.0015
  153MOL0     H21079   1.985   3.643  11.800  1.7513  0.4638  0.9328
  153MOL0     H21080   1.882   3.559  11.529  0.6308  0.4977 -0.6245
  153MOL0     H21081   2.054   3.593  11.536  0.2188 -1.7289 -0.2639
  153MOL0     H21082   1.971   3.348  11.601 -0.1351 -1.7665  2.0368
  153MOL0     H21083   1.913   3.418  11.750 -0.5807  0.0287  0.6917
  153MOL0     H21084   2.130   3.496  11.812 -0.8599 -1.6242  1.9046
  153MOL0     H21085   2.210   3.430  11.667  0.2703 -0.1741  1.0074
  153MOL0     H21086   2.177   3.210  11.737 -0.6168 -0.6106  0.1013
  153MOL0     H21087   2.248   3.304  11.861  0.2293  5.9972 -1.1096
  153MOL0     H21088   1.947   3.222  11.818 -1.0708  1.5083  0.3668
  153MOL0     H21089   2.010   3.299  11.965 -0.3265 -0.0763 -0.1038
  153MOL0     H21090   2.101   3.008  11.868  0.7246 -2.3442  2.9088
  153MOL0     H21091   1.975   3.051  11.977  0.7498 -0.3712  0.2651
  153MOL0     H21092   2.191   3.176  12.105  2.3819 -0.0517 -0.6535
  153MOL0     H21093   2.283   3.086  11.995  0.3074  3.8490 -0.2275
  153MOL0     H21094   1.879   3.835  11.477 -1.3317 -3.0209 -3.1242
  153MOL0     H21095   1.714   3.975  11.339  2.2350  0.8287  1.5672
  153MOL0     H21096   1.422   4.114  11.170  0.9835  0.2806  2.3809
  153MOL0     H21097   1.263   4.238  11.015 -0.0485 -2.9426  0.2089
  153MOL0     H21098   0.109   5.098  10.491 -1.6657 -1.3822 -2.5002
  153MOL0     H21099   0.305   5.187  10.566  0.0699 -0.7739  1.0630
  153MOL0     H21100   0.896   5.055  10.677 -0.0153  1.1175  2.8984
  153MOL0     H21101   1.097   5.173  10.695 -3.6634 -5.2554  2.9821
  153MOL0     H21102   1.339   5.453  10.626 -0.0214 -0.2698  1.3884
  153MOL0     H21103   1.275   5.298  10.695 -2.2255 -1.3011 -0.1364
  153MOL0     H21104   1.383   5.352  10.415  2.4161 -0.4595 -0.1810
  153MOL0     H21105   1.278   5.215  10.467 -1.5050  0.7656  1.4334
  153MOL0     H21106   1.451   5.137  10.611  1.1747  0.5714  0.3648
  153MOL0     H21107   1.513   5.184  10.456  2.9344  0.4971  1.1026
  153MOL0     H21108   1.562   5.345  10.698 -0.4033 -2.5984 -0.5167
  153MOL0     H21109   1.593   5.404  10.531 -0.4215 -1.4280 -3.0312
  153MOL0     H21110   1.916   5.148  10.536 -0.2446  0.3026  1.1973
  153MOL0     H21111   0.935   5.488  10.452  0.6959 -1.6466 -1.1912
  153MOL0     H21112   0.615   5.406  10.448 -0.6311 -0.8435 -0.3630
  153MOL0     H21113   0.730   5.474  10.338 -1.8140  1.2029  0.8601
  153MOL0     H21114   0.670   5.306  10.309 -2.2203 -1.4338  2.2039
  154MOL0     O21115  10.580   6.439   2.750  0.3151 -0.0423 -0.0157
  154MOL0     C21116  10.559   6.462   2.873 -0.8610  0.4560 -0.1277
  154MOL0     O21117  10.661   6.469   2.965  0.2134 -0.8395 -0.5107
  154MOL0     C21118  10.797   6.503   2.945 -0.4353  0.6769  0.3006
  154MOL0     C21119  10.871   6.528   3.059 -0.5750  0.7031  0.4459
  154MOL0     C21120  11.016   6.548   3.052 -0.4230 -0.4716  0.4407
  154MOL0     C21121  11.091   6.532   2.931  0.7028  0.5969 -0.0213
  154MOL0     O21122  11.222   6.554   2.915 -0.5095 -0.6639 -1.3712
  154MOL0     C21123  11.315   6.504   3.014  0.5677  0.0298 -0.0556
  154MOL0     C21124  11.441   6.467   2.947  0.8398  0.0700 -0.3815
  154MOL0     C21125  11.553   6.399   3.036  0.0821  0.2136 -0.4552
  154MOL0     C21126  11.579   6.436   3.180 -0.3757 -0.0927 -0.0067
  154MOL0     C21127  11.680   6.334   3.240  0.1041 -0.4338 -0.4624
  154MOL0     C21128  11.700   6.354   3.396 -0.2248  0.1350 -1.4026
  154MOL0     C21129  11.824   6.440   3.432 -0.2217 -0.7200  0.3579
  154MOL0     C21130  11.866   6.413   3.584 -0.1420  0.2489  1.6061
  154MOL0     N21131  11.769   6.468   3.672  0.0909 -0.1872 -0.6374
  154MOL0     C21132  11.695   6.584   3.667  0.3547  0.1696 -0.0033
  154MOL0     C21133  11.613   6.580   3.770  0.8991  0.8080 -0.0895
  154MOL0     C21134  11.509   6.686   3.791 -0.0798 -0.0387 -0.9899
  154MOL0     C21135  11.485   6.722   3.937 -0.0198  0.7768  0.1314
  154MOL0     C21136  11.370   6.629   3.995 -0.3468 -0.2578 -0.0806
  154MOL0     C21137  11.341   6.652   4.145 -0.1404 -0.5300  0.1562
  154MOL0     O21138  11.235   6.563   4.177 -0.1031  0.4247 -0.8092
  154MOL0     C21139  11.227   6.508   4.305  0.5941 -0.3953 -0.3834
  154MOL0     C21140  11.313   6.542   4.413  0.1591  0.3023  0.9673
  154MOL0     C21141  11.300   6.469   4.533  0.8156 -0.4494  0.1562
  154MOL0     C21142  11.404   6.505   4.641 -0.0017 -0.0904  0.8138
  154MOL0     C21143  11.196   6.381   4.557 -0.1029 -0.0214 -0.3716
  154MOL0     C21144  11.159   6.316   4.688 -1.5885 -0.0836 -0.4954
  154MOL0     O21145  11.053   6.229   4.675 -0.4250 -0.1458  0.1847
  154MOL0     C21146  11.040   6.119   4.758 -0.5515 -0.9677  0.4234
  154MOL0     C21147  11.147   6.051   4.831  0.8176 -0.1005  0.3512
  154MOL0     C21148  11.114   5.950   4.927 -0.3468 -0.3236  0.0202
  154MOL0     C21149  10.981   5.912   4.953  0.3606 -0.0262 -0.0137
  154MOL0     O21150  10.944   5.813   5.050 -0.5196 -0.7828  0.2950
  154MOL0     C21151  11.035   5.805   5.165 -0.1667  0.2014 -0.3868
  154MOL0     C21152  10.990   5.710   5.279 -0.1235  0.1368  0.0490
  154MOL0     C21153  11.090   5.719   5.395 -1.0938  0.1835 -0.1649
  154MOL0     C21154  11.203   5.609   5.360  0.1746 -0.0919 -0.2847
  154MOL0     C21155  11.339   5.686   5.372  0.1516  0.0626  0.4117
  154MOL0     C21156  11.459   5.604   5.317 -0.6059  0.3293  0.1242
  154MOL0     C21157  11.505   5.501   5.427 -0.3555 -0.0312  0.1686
  154MOL0     C21158  11.639   5.435   5.384  0.4469 -0.8437 -0.1836
  154MOL0    Cl21159  11.755   5.546   5.289 -0.6650  0.3262 -0.1241
  154MOL0     C21160  10.874   5.975   4.875 -0.3622  0.6681  0.1917
  154MOL0     C21161  10.905   6.071   4.780 -0.1857 -0.3637 -0.1156
  154MOL0     O21162  11.229   6.329   4.790 -1.0138 -0.2056  0.2519
  154MOL0     C21163  11.111   6.351   4.448 -0.2107  0.2461 -0.3653
  154MOL0     C21164  11.131   6.405   4.321  0.7149 -0.7008 -0.0073
  154MOL0     N21165  11.635   6.462   3.851  0.2500 -0.6938  0.4162
  154MOL0     N21166  11.738   6.405   3.797 -0.2339  0.0693  0.0013
  154MOL0     C21167  11.010   6.512   2.816  0.9585 -0.1611 -0.0668
  154MOL0     C21168  10.870   6.500   2.821 -0.7692  0.5891  0.0369
  154MOL0     C21169  10.418   6.481   2.923  0.3820 -1.1000 -0.8239
  154MOL0     C21170  10.324   6.534   2.839 -0.9447 -0.4962 -0.1701
  154MOL0     C21171  10.189   6.560   2.878 -0.0491 -0.0750  0.4144
  154MOL0     C21172  10.142   6.545   3.008  0.0237 -0.5882 -0.4592
  154MOL0     O21173  10.022   6.586   3.060  0.7845 -0.0963 -0.4175
  154MOL0     C21174   9.987   6.720   3.025 -0.1121  0.5258 -0.0560
  154MOL0     C21175   9.908   6.782   3.136 -0.3803  0.0152  0.2516
  154MOL0     C21176   9.777   6.711   3.139  0.3592 -0.7329  0.5703
  154MOL0     C21177   9.665   6.805   3.180 -1.0920  0.6727 -0.5414
  154MOL0     C21178   9.540   6.738   3.222  0.0323 -0.6685  0.2337
  154MOL0     C21179   9.435   6.680   3.254  0.0952 -0.1941 -0.5645
  154MOL0     C21180  10.233   6.488   3.100  0.3840  0.0614 -0.0289
  154MOL0     C21181  10.363   6.445   3.050 -0.5839  0.1478  0.7149
  154MOL0     C21182  10.457   6.374   3.147 -0.3262  0.1177  0.5920
  154MOL0     H21183  10.830   6.538   3.159 -3.0242  3.2087 -0.6914
  154MOL0     H21184  11.075   6.587   3.134  0.6669  1.1930 -1.0722
  154MOL0     H21185  11.280   6.426   3.082  3.6631 -0.7114  0.8089
  154MOL0     H21186  11.334   6.589   3.079  1.6606 -0.0440 -0.2690
  154MOL0     H21187  11.421   6.401   2.862  0.3643 -0.5466  0.2096
  154MOL0     H21188  11.486   6.556   2.901 -1.5219  1.1876 -0.6939
  154MOL0     H21189  11.536   6.291   3.044 -0.8458  0.4517  1.3959
  154MOL0     H21190  11.655   6.401   2.996  0.8203 -0.5197  1.2510
  154MOL0     H21191  11.609   6.541   3.179 -2.4582  0.6151 -2.8725
  154MOL0     H21192  11.485   6.425   3.236 -1.9691  0.8836 -2.2980
  154MOL0     H21193  11.776   6.344   3.190 -0.0753  3.5909 -0.3346
  154MOL0     H21194  11.639   6.233   3.235  0.7168 -0.8530  1.7642
  154MOL0     H21195  11.609   6.401   3.434 -0.5247 -0.9605 -0.7205
  154MOL0     H21196  11.706   6.255   3.442 -0.0702 -0.7243 -3.1911
  154MOL0     H21197  11.810   6.547   3.418 -0.9712 -0.4378  2.7711
  154MOL0     H21198  11.902   6.413   3.361 -1.5217  1.9827 -2.2849
  154MOL0     H21199  11.888   6.307   3.601 -4.2487 -0.4676  3.9251
  154MOL0     H21200  11.962   6.465   3.588 -1.0152  2.0480  0.3499
  154MOL0     H21201  11.687   6.662   3.592  5.2638  0.5795 -0.4340
  154MOL0     H21202  11.414   6.664   3.740  0.0578  1.7753 -2.1051
  154MOL0     H21203  11.556   6.773   3.745 -1.5803  0.6860 -1.2170
  154MOL0     H21204  11.570   6.707   4.005 -0.4071  1.9692  0.9209
  154MOL0     H21205  11.471   6.829   3.955 -0.1466  0.6769  0.6287
  154MOL0     H21206  11.278   6.653   3.941 -0.9400  0.5771  1.2589
  154MOL0     H21207  11.380   6.523   3.972 -1.3645 -0.7772  1.6839
  154MOL0     H21208  11.435   6.627   4.195 -0.0785  2.6112  1.8076
  154MOL0     H21209  11.305   6.750   4.176  0.1213  0.1094 -1.4561
  154MOL0     H21210  11.393   6.614   4.399  1.1173 -0.1654  3.5468
  154MOL0     H21211  11.461   6.597   4.621 -1.8592  0.7435 -1.0203
  154MOL0     H21212  11.469   6.417   4.637 -2.7970 -2.2651 -2.5553
  154MOL0     H21213  11.355   6.517   4.738 -1.9932  2.8436 -0.4056
  154MOL0     H21214  11.251   6.073   4.809  0.4087  0.4439 -1.2067
  154MOL0     H21215  11.194   5.899   4.980  0.1772  2.6486  2.3324
  154MOL0     H21216  11.132   5.765   5.134 -1.6105 -3.5441 -0.6256
  154MOL0     H21217  11.039   5.909   5.200  0.4209  0.4675 -1.1878
  154MOL0     H21218  10.888   5.740   5.305  0.4470  1.2821  1.0367
  154MOL0     H21219  10.987   5.607   5.240 -0.6524  0.7667 -1.6809
  154MOL0     H21220  11.040   5.692   5.489  1.2942 -2.5694  0.4758
  154MOL0     H21221  11.123   5.822   5.414 -2.2623  0.0954  2.8358
  154MOL0     H21222  11.196   5.555   5.265  2.1424 -0.7872 -0.0814
  154MOL0     H21223  11.200   5.535   5.441 -2.8871  0.5457  0.2829
  154MOL0     H21224  11.327   5.783   5.322 -5.2253 -0.7197 -0.4545
  154MOL0     H21225  11.354   5.713   5.476  1.4049  2.7451 -0.3849
  154MOL0     H21226  11.539   5.674   5.288  2.8876 -3.7389 -1.0140
  154MOL0     H21227  11.438   5.553   5.223  0.7735  0.4246 -0.2563
  154MOL0     H21228  11.426   5.426   5.442 -1.0435  0.9330  1.6401
  154MOL0     H21229  11.514   5.555   5.522 -0.5503 -1.4496  1.0249
  154MOL0     H21230  11.627   5.343   5.327  0.4518  0.0168 -1.6315
  154MOL0     H21231  11.679   5.413   5.483 -0.8341  1.1160  0.8345
  154MOL0     H21232  10.768   5.958   4.893 -0.5626  2.4290  0.8047
  154MOL0     H21233  10.820   6.123   4.736 -1.2238 -0.5495  1.5892
  154MOL0     H21234  11.027   6.284   4.456 -0.5531  0.8895  2.6839
  154MOL0     H21235  11.072   6.359   4.242  2.8241 -2.3754 -0.7055
  154MOL0     H21236  11.062   6.488   2.724 -3.5526  0.3349 -3.0993
  154MOL0     H21237  10.818   6.470   2.731 -2.8347 -1.7123  1.8233
  154MOL0     H21238  10.359   6.533   2.736 -2.9659 -3.1299 -0.9086
  154MOL0     H21239  10.118   6.609   2.812 -1.4872 -2.3927  0.1149
  154MOL0     H21240  10.082   6.772   3.010  0.7162  0.1322  3.1322
  154MOL0     H21241   9.926   6.717   2.935  0.7300  0.1760 -0.6271
  154MOL0     H21242   9.897   6.886   3.104 -1.3534  0.7982  2.8400
  154MOL0     H21243   9.966   6.793   3.228 -0.0280 -1.6989  0.2739
  154MOL0     H21244   9.743   6.677   3.041 -1.1732 -2.2658  1.5555
  154MOL0     H21245   9.773   6.629   3.212 -1.6721 -0.0941  1.2276
  154MOL0     H21246   9.649   6.875   3.098 -0.9482 -1.9207 -2.9511
  154MOL0     H21247   9.699   6.858   3.269 -1.7632  1.8434 -0.9621
  154MOL0     H21248   9.341   6.631   3.273 -1.5399  3.3582  1.4171
  154MOL0     H21249  10.208   6.479   3.205  0.8610  1.5479  0.2297
  154MOL0     H21250  10.522   6.304   3.093 -0.3897 -2.7530  3.8424
  154MOL0     H21251  10.513   6.440   3.214 -0.6051  1.3085 -0.3202
  154MOL0     H21252  10.393   6.310   3.210 -0.4391 -0.2312  0.1329
  155MOL0     O21253   9.097   7.177   6.665 -0.1668  0.0818 -0.1227
  155MOL0     C21254   9.147   7.281   6.707  0.7849 -0.3109 -0.3879
  155MOL0     O21255   9.262   7.287   6.770 -0.0105 -0.1523 -0.6427
  155MOL0     C21256   9.343   7.180   6.815  0.7593  0.1982 -0.0098
  155MOL0     C21257   9.439   7.213   6.906 -0.9219  0.1993 -0.1384
  155MOL0     C21258   9.521   7.112   6.964 -0.1361 -0.1596  0.4190
  155MOL0     C21259   9.523   6.982   6.917  1.8775  0.1260 -0.0306
  155MOL0     O21260   9.607   6.905   6.988  1.0604  0.1492  0.0153
  155MOL0     C21261   9.634   6.773   6.941 -0.3191  1.0328  0.5252
  155MOL0     C21262   9.739   6.707   7.034 -0.3900 -0.5983  0.1864
  155MOL0     C21263   9.765   6.563   6.988 -0.4817 -0.6735 -0.5063
  155MOL0     C21264   9.889   6.506   7.054  1.4682 -0.1374 -0.6433
  155MOL0     C21265   9.880   6.357   7.074 -1.0244  0.8126 -0.5495
  155MOL0     C21266  10.018   6.287   7.086 -0.7834  0.5006 -0.6500
  155MOL0     C21267  10.003   6.141   7.139 -0.3728  0.8280 -0.4299
  155MOL0     C21268   9.890   6.066   7.065  0.2512  0.4861  1.1161
  155MOL0     N21269   9.890   5.917   7.072 -0.0633 -0.5654 -1.0289
  155MOL0     C21270   9.922   5.832   6.971 -0.3021  0.6985  0.3257
  155MOL0     C21271   9.893   5.703   7.017 -1.2826 -0.3994 -0.3019
  155MOL0     C21272   9.906   5.574   6.947  0.0903  0.4548  0.1618
  155MOL0     C21273  10.054   5.525   6.937  0.1603 -0.6198  0.7788
  155MOL0     C21274  10.147   5.626   6.879  0.6864  0.1475  0.1068
  155MOL0     C21275  10.288   5.587   6.844 -0.3875 -0.3029 -0.1466
  155MOL0     O21276  10.308   5.474   6.765  0.3493  0.5602  0.1117
  155MOL0     C21277  10.378   5.369   6.818 -0.4788  0.0344 -0.2259
  155MOL0     C21278  10.485   5.333   6.743  0.1021  0.1176 -0.3231
  155MOL0     C21279  10.553   5.212   6.756  0.3261 -0.3423  0.0673
  155MOL0     C21280  10.652   5.183   6.648 -0.1993 -0.3258  0.6432
  155MOL0     C21281  10.522   5.136   6.871  0.1747 -0.7668 -0.0650
  155MOL0     C21282  10.588   5.009   6.912  0.4746 -0.7748 -0.1983
  155MOL0     O21283  10.511   4.921   6.986  0.1077  0.2660  0.3877
  155MOL0     C21284  10.555   4.794   7.023  0.2915  0.9137 -0.5580
  155MOL0     C21285  10.465   4.689   7.049 -0.1292 -0.8162 -0.6652
  155MOL0     C21286  10.506   4.564   7.094 -0.1862 -0.0820 -0.8964
  155MOL0     C21287  10.641   4.529   7.110 -0.6165  0.0205  0.4986
  155MOL0     O21288  10.698   4.410   7.137 -0.1116 -0.3194  0.1223
  155MOL0     C21289  10.634   4.280   7.131 -0.3321  0.1640 -0.2083
  155MOL0     C21290  10.748   4.181   7.136 -0.8770  0.3599  0.8704
  155MOL0     C21291  10.705   4.048   7.119 -0.3608  1.1502  0.6365
  155MOL0     C21292  10.590   3.993   7.201  0.4564  0.0882 -0.1222
  155MOL0     C21293  10.597   3.833   7.198 -0.2244 -0.7023 -0.1076
  155MOL0     C21294  10.581   3.780   7.056 -0.0474 -1.3856  0.5982
  155MOL0     C21295  10.594   3.629   7.068 -0.8313  0.1167 -1.3828
  155MOL0     C21296  10.546   3.550   6.950  0.4646 -0.9092  0.1700
  155MOL0    Cl21297  10.462   3.402   7.007 -0.0701  0.4309  0.0454
  155MOL0     C21298  10.731   4.635   7.081  1.0864  0.1934 -1.1661
  155MOL0     C21299  10.697   4.766   7.047  0.5546  0.0624  0.3855
  155MOL0     O21300  10.689   4.983   6.858  0.3774  0.5539  0.4288
  155MOL0     C21301  10.425   5.192   6.959  0.3525  0.5727  0.3541
  155MOL0     C21302  10.347   5.301   6.934 -0.1841  0.3051 -0.1008
  155MOL0     N21303   9.825   5.720   7.134 -0.5210  0.1346  0.4164
  155MOL0     N21304   9.821   5.847   7.167  0.7773  0.1429  1.3624
  155MOL0     C21305   9.437   6.950   6.810  0.1935 -0.5468  0.1920
  155MOL0     C21306   9.345   7.044   6.762 -0.2235 -0.8409 -0.2160
  155MOL0     C21307   9.081   7.410   6.671 -0.4863  0.1419  0.1387
  155MOL0     C21308   9.161   7.526   6.657  0.6921  0.4684  0.6560
  155MOL0     C21309   9.104   7.647   6.606  0.7441  0.2857  0.4669
  155MOL0     C21310   8.973   7.648   6.557  0.4555 -0.1495 -0.2899
  155MOL0     O21311   8.937   7.764   6.507  0.1037 -0.7634 -0.4844
  155MOL0     C21312   8.819   7.826   6.556  0.0481  0.2934  0.0900
  155MOL0     C21313   8.810   7.978   6.530 -0.5192  0.4988  0.1783
  155MOL0     C21314   8.941   8.038   6.565 -0.4293 -0.3526 -0.5989
  155MOL0     C21315   8.979   8.029   6.710  0.6299  0.1341  0.0966
  155MOL0     C21316   9.080   8.140   6.755  0.3879  0.2665 -0.4811
  155MOL0     C21317   9.140   8.236   6.802 -0.2800  1.1380 -0.9515
  155MOL0     C21318   8.892   7.544   6.572 -1.3288 -0.1542 -0.7515
  155MOL0     C21319   8.944   7.426   6.628  0.2210  0.0418 -0.5008
  155MOL0     C21320   8.845   7.309   6.657 -0.9167 -0.2123  0.3236
  155MOL0     H21321   9.445   7.312   6.952  1.6434 -0.4255  1.0666
  155MOL0     H21322   9.585   7.137   7.048  1.2741 -1.5405 -0.1788
  155MOL0     H21323   9.666   6.780   6.837  0.6482  1.2041  0.8246
  155MOL0     H21324   9.537   6.721   6.946 -0.6289  1.5579  0.0286
  155MOL0     H21325   9.834   6.759   7.019 -0.5183 -1.0977 -3.3769
  155MOL0     H21326   9.712   6.728   7.138 -0.5729 -3.3632  0.7644
  155MOL0     H21327   9.674   6.504   7.006  0.6008 -2.2257  0.0497
  155MOL0     H21328   9.784   6.556   6.881 -0.9140  2.4023 -0.8887
  155MOL0     H21329   9.984   6.533   7.006  2.0915 -0.1177  0.5563
  155MOL0     H21330   9.881   6.539   7.158 -2.3779  0.6473 -1.0410
  155MOL0     H21331   9.835   6.318   6.982  1.6013 -0.9812 -1.1943
  155MOL0     H21332   9.813   6.322   7.153 -0.9039 -0.0555 -0.8229
  155MOL0     H21333  10.083   6.281   6.999 -1.4932 -1.1857 -1.0942
  155MOL0     H21334  10.078   6.336   7.163  0.6150 -1.5684 -0.3355
  155MOL0     H21335   9.970   6.156   7.242 -0.4344  1.9559 -0.6005
  155MOL0     H21336  10.103   6.096   7.142  0.0282  1.6752 -1.0199
  155MOL0     H21337   9.790   6.099   7.095 -0.0394  0.2704  0.3816
  155MOL0     H21338   9.892   6.090   6.959 -1.9320 -2.2276  0.3495
  155MOL0     H21339   9.961   5.865   6.875 -2.2278 -2.2452 -1.6602
  155MOL0     H21340   9.864   5.583   6.846 -2.8810  2.2941  1.4449
  155MOL0     H21341   9.851   5.496   7.000 -0.4789  0.0144 -1.0424
  155MOL0     H21342  10.069   5.512   7.044 -0.1493 -1.9239  0.6869
  155MOL0     H21343  10.059   5.429   6.884 -3.8033 -0.3382 -0.5019
  155MOL0     H21344  10.116   5.674   6.786  3.8158  1.8711 -0.2195
  155MOL0     H21345  10.159   5.699   6.960  2.5110  0.6780 -0.5802
  155MOL0     H21346  10.331   5.670   6.788 -1.0807  0.2481  0.1267
  155MOL0     H21347  10.341   5.570   6.938  2.2747  1.1471 -1.2795
  155MOL0     H21348  10.519   5.404   6.669  3.3037 -0.6260  0.2647
  155MOL0     H21349  10.623   5.239   6.559  0.3866 -1.1778 -0.0944
  155MOL0     H21350  10.655   5.078   6.618 -3.3625  0.5763 -3.7165
  155MOL0     H21351  10.753   5.219   6.671 -0.1414 -0.0324 -0.0443
  155MOL0     H21352  10.359   4.698   7.031  0.3255 -1.0318 -4.1087
  155MOL0     H21353  10.430   4.488   7.110 -1.8730  1.8618  0.8572
  155MOL0     H21354  10.567   4.256   7.214 -1.4946  3.5259 -0.0150
  155MOL0     H21355  10.571   4.277   7.042 -1.5753  1.8732  0.5547
  155MOL0     H21356  10.827   4.215   7.069 -1.0267  0.2648  0.6451
  155MOL0     H21357  10.795   4.176   7.235  3.5547 -1.3843 -1.0451
  155MOL0     H21358  10.786   3.980   7.146 -0.0515  0.8154 -0.9829
  155MOL0     H21359  10.692   4.029   7.012  2.4951  2.4923 -0.0405
  155MOL0     H21360  10.499   4.028   7.152  0.8217  2.7666  0.9351
  155MOL0     H21361  10.593   4.046   7.297  0.3194  1.3474 -0.8049
  155MOL0     H21362  10.686   3.801   7.253  0.8114  4.6918  1.9891
  155MOL0     H21363  10.505   3.795   7.242  0.0326  0.7197  1.7532
  155MOL0     H21364  10.660   3.814   6.989  1.3766 -1.1857  2.2915
  155MOL0     H21365  10.486   3.809   7.011  0.8441 -2.4789 -2.2102
  155MOL0     H21366  10.540   3.589   7.154  2.0922  1.3499  1.2166
  155MOL0     H21367  10.699   3.603   7.084 -0.7288  1.3196  0.1235
  155MOL0     H21368  10.628   3.552   6.878 -0.9732  2.9526 -1.6082
  155MOL0     H21369  10.480   3.601   6.881  3.0211 -0.7402 -2.3168
  155MOL0     H21370  10.832   4.607   7.109  0.5181  0.1762  1.0974
  155MOL0     H21371  10.772   4.844   7.040  0.8156  0.0118  2.1602
  155MOL0     H21372  10.405   5.139   7.052 -2.0791 -0.0897 -0.4581
  155MOL0     H21373  10.268   5.332   7.002 -1.5018  1.1581 -1.9235
  155MOL0     H21374   9.442   6.851   6.767  2.7171 -1.1031  1.5658
  155MOL0     H21375   9.278   7.020   6.680 -2.3203  0.1666  1.0940
  155MOL0     H21376   9.262   7.525   6.697  0.7320 -0.6082  0.5636
  155MOL0     H21377   9.172   7.730   6.589 -1.7849  2.6219  1.0364
  155MOL0     H21378   8.728   7.777   6.519 -0.2954 -0.1264  1.4381
  155MOL0     H21379   8.801   7.796   6.660 -2.4873 -2.7452 -1.0344
  155MOL0     H21380   8.725   8.017   6.586 -1.1734  0.4097 -0.7342
  155MOL0     H21381   8.797   8.002   6.424 -1.7970 -0.2399  0.1450
  155MOL0     H21382   9.019   7.996   6.500  0.0748 -1.4180  0.6477
  155MOL0     H21383   8.933   8.146   6.548 -2.3104 -0.7191 -2.3112
  155MOL0     H21384   9.032   7.934   6.726  0.2102 -0.2694 -0.8456
  155MOL0     H21385   8.891   8.026   6.776  0.7538 -0.1150  0.2552
  155MOL0     H21386   9.191   8.312   6.858  1.7902 -0.9453  0.1744
  155MOL0     H21387   8.784   7.547   6.562 -1.8091  1.7074  3.0725
  155MOL0     H21388   8.743   7.336   6.627 -0.8638 -1.2478 -0.9105
  155MOL0     H21389   8.875   7.230   6.586  0.0472  2.1031 -2.0177
  155MOL0     H21390   8.858   7.290   6.764  1.8895 -0.7118 -0.0236
  156MOL0     O21391   3.434  10.161   0.317  0.1447 -0.0911 -0.1343
  156MOL0     C21392   3.411  10.042   0.307  0.3029  0.7105 -0.9676
  156MOL0     O21393   3.288   9.995   0.297 -0.4745  0.2276 -0.3354
  156MOL0     C21394   3.182  10.082   0.291 -0.3191 -0.5803  1.0276
  156MOL0     C21395   3.085  10.061   0.393 -0.9336 -0.8094 -0.0282
  156MOL0     C21396   2.976  10.144   0.393  0.3962 -0.5606  0.1351
  156MOL0     C21397   2.958  10.256   0.304  0.0841  0.0205  0.3316
  156MOL0     O21398   2.855  10.335   0.336 -0.2705 -0.1914  0.5521
  156MOL0     C21399   2.808  10.432   0.242 -0.0141 -0.4703 -0.0712
  156MOL0     C21400   2.668  10.481   0.268  0.3984  0.9410 -0.8574
  156MOL0     C21401   2.567  10.370   0.265 -0.7795  0.0916  0.5505
  156MOL0     C21402   2.549  10.293   0.400  0.5124  0.0347 -0.2701
  156MOL0     C21403   2.423  10.199   0.398  0.7356 -0.3878 -0.1135
  156MOL0     C21404   2.459  10.090   0.498 -0.0250  0.4709  0.4287
  156MOL0     C21405   2.362   9.968   0.484  0.1830 -0.4564  0.2003
  156MOL0     C21406   2.394   9.866   0.595  0.6468  1.0802  0.1045
  156MOL0     N21407   2.305   9.752   0.605  0.9092  0.2715 -0.4572
  156MOL0     C21408   2.213   9.731   0.700 -0.1040 -0.1347 -0.3614
  156MOL0     C21409   2.131   9.639   0.643  0.4470  0.4626 -0.1126
  156MOL0     C21410   1.998   9.591   0.697 -0.0546 -0.1113  0.3605
  156MOL0     C21411   1.887   9.691   0.705 -0.1636 -0.1939 -0.2329
  156MOL0     C21412   1.864   9.757   0.568  0.6841 -0.0297  0.3207
  156MOL0     C21413   1.734   9.816   0.543 -0.3499  0.0291  0.2517
  156MOL0     O21414   1.697   9.931   0.619 -0.8277  0.2738 -0.3612
  156MOL0     C21415   1.566   9.967   0.607 -0.0400  0.5081 -0.4659
  156MOL0     C21416   1.511  10.029   0.718 -0.1014  0.7802 -0.5926
  156MOL0     C21417   1.379  10.067   0.729  0.7604  0.4475  0.6506
  156MOL0     C21418   1.333  10.150   0.843  0.1798  0.5277  0.2963
  156MOL0     C21419   1.286  10.030   0.626 -1.0609 -0.6464 -0.4360
  156MOL0     C21420   1.143  10.052   0.637  0.0446 -0.5455 -0.0605
  156MOL0     O21421   1.076  10.013   0.528  0.0193  0.2417  0.3710
  156MOL0     C21422   0.945   9.995   0.531  0.2140 -0.0179 -0.3817
  156MOL0     C21423   0.884   9.910   0.621 -0.1453  0.6043 -0.0961
  156MOL0     C21424   0.744   9.894   0.635 -0.3009 -1.3079 -1.0425
  156MOL0     C21425   0.671   9.972   0.550 -0.0030 -0.8838  0.4027
  156MOL0     O21426   0.534   9.966   0.542  0.2997  0.4267 -0.3143
  156MOL0     C21427   0.464   9.869   0.632 -0.4775 -0.7280 -0.3248
  156MOL0     C21428   0.321   9.862   0.593  0.2944  0.6235 -0.0491
  156MOL0     C21429   0.257   9.728   0.640  0.2381  0.4419  0.3048
  156MOL0     C21430   0.144   9.769   0.743 -0.2565  0.2644 -0.1828
  156MOL0     C21431   0.072   9.641   0.789  0.0717  0.4686  0.0144
  156MOL0     C21432   0.166   9.537   0.858 -0.1510 -0.2318 -0.5985
  156MOL0     C21433   0.084   9.430   0.939  0.2262  0.2318  0.7309
  156MOL0     C21434   0.166   9.310   0.979  0.7440 -1.0440  0.3192
  156MOL0    Cl21435   0.087   9.202   1.088 -0.4506  0.1765  0.4259
  156MOL0     C21436   0.726  10.058   0.452 -0.3415  0.1979  0.1149
  156MOL0     C21437   0.861  10.067   0.446 -0.1606  0.9620  0.8014
  156MOL0     O21438   1.092  10.095   0.741 -0.1027 -0.2912  0.3615
  156MOL0     C21439   1.340   9.980   0.512 -0.4027  0.2643 -0.0541
  156MOL0     C21440   1.474   9.936   0.503  0.2750  0.1820 -0.1704
  156MOL0     N21441   2.185   9.591   0.523 -0.5541  0.3433 -0.2613
  156MOL0     N21442   2.297   9.655   0.512  0.5865  0.1642 -1.2391
  156MOL0     C21443   3.059  10.272   0.209 -0.2068 -0.8405  0.3695
  156MOL0     C21444   3.174  10.193   0.202 -0.3550  0.3095  0.4197
  156MOL0     C21445   3.517   9.944   0.324  0.6230  0.0745  0.2945
  156MOL0     C21446   3.471   9.806   0.311  0.2724 -0.3153 -0.3301
  156MOL0     C21447   3.562   9.703   0.325  0.1838  0.1254 -0.7110
  156MOL0     C21448   3.689   9.736   0.367  0.9073 -0.4787 -0.5039
  156MOL0     O21449   3.777   9.628   0.368  0.2858  0.3298  0.7144
  156MOL0     C21450   3.908   9.624   0.425 -0.0824 -0.6697 -1.2316
  156MOL0     C21451   4.017   9.649   0.313  0.3065  0.2189 -0.7060
  156MOL0     C21452   4.152   9.693   0.370 -0.1990 -0.0817 -0.6407
  156MOL0     C21453   4.246   9.710   0.259  0.1368 -0.5888  1.0147
  156MOL0     C21454   4.386   9.688   0.308  0.3255  0.0255  0.4248
  156MOL0     C21455   4.501   9.668   0.326 -0.1175 -0.6117  0.0425
  156MOL0     C21456   3.735   9.865   0.387  0.1121 -0.1630  0.7032
  156MOL0     C21457   3.651   9.973   0.359 -0.1902 -0.1221  0.6730
  156MOL0     C21458   3.710  10.108   0.379  0.3812  0.7207  0.3349
  156MOL0     H21459   3.085   9.986   0.472 -0.7101 -1.6960 -0.8478
  156MOL0     H21460   2.891  10.131   0.460 -0.5479  0.8187 -0.7489
  156MOL0     H21461   2.821  10.390   0.141  2.8584  2.8607 -1.2940
  156MOL0     H21462   2.868  10.522   0.258 -0.2445  0.1772 -2.4763
  156MOL0     H21463   2.678  10.522   0.369 -1.5309 -1.9515  0.6585
  156MOL0     H21464   2.641  10.555   0.192 -3.5528 -1.7826 -2.4458
  156MOL0     H21465   2.471  10.421   0.256  0.0849  2.2320  2.6267
  156MOL0     H21466   2.593  10.325   0.168  1.2824 -0.3818  1.2785
  156MOL0     H21467   2.635  10.234   0.431 -0.3128 -1.3990 -0.6342
  156MOL0     H21468   2.523  10.368   0.475  1.8455 -1.0664  1.3734
  156MOL0     H21469   2.409  10.152   0.300  1.0174  0.7823 -0.7340
  156MOL0     H21470   2.335  10.259   0.422  2.5908  1.5963  2.3545
  156MOL0     H21471   2.561  10.051   0.492 -0.4555 -0.5278 -1.3571
  156MOL0     H21472   2.446  10.141   0.593  3.4814  2.9886 -0.2612
  156MOL0     H21473   2.364   9.921   0.386 -3.5053  1.4159 -0.9447
  156MOL0     H21474   2.261  10.007   0.495  0.5614  0.1004  2.2040
  156MOL0     H21475   2.489   9.833   0.554  0.8518  3.5705 -1.6278
  156MOL0     H21476   2.399   9.911   0.695  1.8695  0.4265  0.3536
  156MOL0     H21477   2.200   9.797   0.785 -1.5225 -1.2608  0.3387
  156MOL0     H21478   2.022   9.537   0.790  0.1472 -1.1238 -0.2579
  156MOL0     H21479   1.967   9.513   0.627  1.1104  0.5846 -0.9626
  156MOL0     H21480   1.790   9.645   0.725  0.6750 -3.0036 -2.0349
  156MOL0     H21481   1.908   9.771   0.776 -1.5851  0.5634 -0.6297
  156MOL0     H21482   1.941   9.832   0.548  1.0488 -0.2193  0.9778
  156MOL0     H21483   1.884   9.684   0.490  2.5913  0.4041  0.3422
  156MOL0     H21484   1.731   9.841   0.436 -2.1255  2.2312  0.7572
  156MOL0     H21485   1.665   9.733   0.560  0.6452 -1.0122 -0.5777
  156MOL0     H21486   1.579  10.061   0.796  1.2700  1.4844 -2.0304
  156MOL0     H21487   1.275  10.236   0.809 -0.8654 -0.7914 -1.4007
  156MOL0     H21488   1.429  10.169   0.893  1.1963 -0.7072 -1.0869
  156MOL0     H21489   1.268  10.111   0.923  0.6767 -0.7705  0.0898
  156MOL0     H21490   0.951   9.849   0.682 -0.5990 -0.1178 -0.3049
  156MOL0     H21491   0.696   9.838   0.714  1.6029 -2.1758 -0.4320
  156MOL0     H21492   0.499   9.769   0.606 -1.1030 -0.5556 -1.9757
  156MOL0     H21493   0.477   9.891   0.738  0.4892 -2.4976 -0.0409
  156MOL0     H21494   0.262   9.946   0.631 -0.6273 -0.3068  0.6223
  156MOL0     H21495   0.319   9.870   0.484 -0.1273 -0.5544 -0.1346
  156MOL0     H21496   0.330   9.674   0.701 -1.6108  1.5630  3.8369
  156MOL0     H21497   0.232   9.676   0.548 -0.6068 -0.4286  1.0108
  156MOL0     H21498   0.069   9.832   0.694 -1.4894 -0.0540  1.2213
  156MOL0     H21499   0.181   9.821   0.831 -4.1173 -0.4700  2.1220
  156MOL0     H21500   0.007   9.688   0.864  1.8331  2.7129  0.2558
  156MOL0     H21501   0.030   9.584   0.706 -0.2076 -1.3574  1.3522
  156MOL0     H21502   0.240   9.582   0.924  0.9763 -0.9036 -1.3747
  156MOL0     H21503   0.221   9.487   0.778 -0.4527 -0.6841 -0.5283
  156MOL0     H21504   0.007   9.374   0.884  0.0448  0.4714  0.7427
  156MOL0     H21505   0.034   9.479   1.023 -1.7012 -1.0196  0.3992
  156MOL0     H21506   0.256   9.354   1.024 -0.5666  3.6421 -1.0944
  156MOL0     H21507   0.198   9.259   0.888  0.6689  1.4359 -1.1750
  156MOL0     H21508   0.644  10.100   0.393 -2.9179  0.2196  3.4351
  156MOL0     H21509   0.913  10.113   0.362  1.5254 -2.2189 -0.0254
  156MOL0     H21510   1.269   9.957   0.434  0.5462  2.2904 -1.5956
  156MOL0     H21511   1.502   9.864   0.427 -0.8415 -0.8511  0.3559
  156MOL0     H21512   3.063  10.363   0.149  1.1877 -1.1034  0.0151
  156MOL0     H21513   3.254  10.224   0.135 -0.0245  1.5718  1.3626
  156MOL0     H21514   3.370   9.779   0.280  0.2626  0.0139 -0.5961
  156MOL0     H21515   3.542   9.597   0.312 -2.3756 -0.1750  3.6567
  156MOL0     H21516   3.920   9.694   0.508 -4.0333 -1.4369  0.1869
  156MOL0     H21517   3.926   9.524   0.466 -1.6388 -0.7527 -0.7123
  156MOL0     H21518   3.984   9.732   0.250 -1.5841  2.5876  3.0303
  156MOL0     H21519   4.039   9.555   0.263  0.1471 -0.5628  0.6273
  156MOL0     H21520   4.137   9.785   0.426 -0.2443 -0.2402 -0.3886
  156MOL0     H21521   4.189   9.617   0.440 -1.3396 -1.1385 -1.1612
  156MOL0     H21522   4.233   9.807   0.209  1.4842  0.7686  3.1523
  156MOL0     H21523   4.239   9.629   0.186  1.6787 -0.7101  0.9822
  156MOL0     H21524   4.606   9.650   0.338 -0.3461 -0.9570  1.6415
  156MOL0     H21525   3.840   9.882   0.409  1.6739 -1.8859 -4.0632
  156MOL0     H21526   3.686  10.188   0.309 -0.9466  2.2361  2.3971
  156MOL0     H21527   3.655  10.141   0.468  0.9244  1.8380  0.2741
  156MOL0     H21528   3.816  10.116   0.404  1.1789 -1.6317 -1.8325
  157MOL0     O21529  11.413   4.696   6.091  0.1901 -0.5548  0.6414
  157MOL0     C21530  11.376   4.813   6.089  1.0153  0.0279 -0.1240
  157MOL0     O21531  11.400   4.903   6.199  0.2127 -0.3065 -0.5648
  157MOL0     C21532  11.444   4.852   6.323  0.0700 -0.0324 -0.0278
  157MOL0     C21533  11.360   4.805   6.419  0.0743 -0.1646  0.2697
  157MOL0     C21534  11.406   4.743   6.534 -1.5830  0.3221  0.2956
  157MOL0     C21535  11.544   4.736   6.561  0.7535  1.0493  0.9475
  157MOL0     O21536  11.576   4.674   6.675 -0.2837 -0.1478  0.5752
  157MOL0     C21537  11.609   4.532   6.649  0.1711 -0.2081  1.2533
  157MOL0     C21538  11.605   4.440   6.772 -0.1551  0.0700  0.0292
  157MOL0     C21539  11.719   4.481   6.855  0.6785 -0.0008  0.1296
  157MOL0     C21540  11.768   4.364   6.944  1.2326 -0.8597  0.1079
  157MOL0     C21541  11.914   4.389   6.992  0.4112  0.4466  0.0707
  157MOL0     C21542  11.964   4.319   7.112  0.5152 -0.1156  0.1510
  157MOL0     C21543  12.108   4.373   7.140 -0.5834  0.6115 -0.0968
  157MOL0     C21544  12.162   4.318   7.277  0.5515 -0.5599  0.3940
  157MOL0     N21545  12.290   4.368   7.302  0.2768  0.2199 -0.0906
  157MOL0     C21546  12.400   4.306   7.287 -0.4377  0.3526  0.1491
  157MOL0     C21547  12.496   4.389   7.307 -1.2346 -0.3535 -0.4990
  157MOL0     C21548  12.639   4.366   7.297  0.1572 -0.2184  0.6607
  157MOL0     C21549  12.690   4.275   7.411  0.8575  0.6229 -0.5212
  157MOL0     C21550  12.662   4.336   7.551 -0.2137  0.5077  0.1662
  157MOL0     C21551  12.712   4.254   7.666 -0.0545  0.1151  0.6655
  157MOL0     O21552  12.858   4.265   7.675  0.5177 -0.3708 -0.1546
  157MOL0     C21553  12.921   4.272   7.793 -0.3809  0.0353 -0.5818
  157MOL0     C21554  12.869   4.292   7.922  1.3998 -0.3895  0.0195
  157MOL0     C21555  12.947   4.303   8.037 -0.3245  0.2873  0.2857
  157MOL0     C21556  12.874   4.329   8.170  0.2215  0.8199  1.0042
  157MOL0     C21557  13.086   4.298   8.018 -0.5469 -0.0891  0.4351
  157MOL0     C21558  13.185   4.321   8.122 -0.1069  0.8060  0.4588
  157MOL0     O21559  13.298   4.386   8.086 -0.0464  0.9387 -0.4858
  157MOL0     C21560  13.365   4.461   8.178 -0.5251 -0.3699  0.1021
  157MOL0     C21561  13.306   4.530   8.280  0.2214  0.6708  0.6121
  157MOL0     C21562  13.388   4.602   8.377 -0.2383  0.2084  0.7386
  157MOL0     C21563  13.521   4.617   8.349 -0.5184 -0.7366  0.7522
  157MOL0     O21564  13.609   4.679   8.431  0.9971  0.3986  0.8461
  157MOL0     C21565  13.561   4.803   8.488 -0.0832  0.2166 -0.5251
  157MOL0     C21566  13.675   4.909   8.522 -0.8766  0.2405  0.0527
  157MOL0     C21567  13.782   4.851   8.616  0.0430  0.3570  0.7017
  157MOL0     C21568  13.857   4.963   8.695  0.4568  0.7506 -0.1010
  157MOL0     C21569  13.931   4.916   8.821  0.0568 -0.2577  0.1728
  157MOL0     C21570  14.039   5.015   8.864  0.1929 -0.8698 -0.4353
  157MOL0     C21571  14.165   4.948   8.914  0.1984  0.5199 -1.2497
  157MOL0     C21572  14.256   5.045   8.996  0.4476  0.0425 -0.1796
  157MOL0    Cl21573  14.306   5.172   8.874  0.1738 -0.5064  0.2655
  157MOL0     C21574  13.577   4.547   8.244 -0.1736  0.0606  0.4514
  157MOL0     C21575  13.499   4.482   8.154 -1.1928 -0.3405 -0.3196
  157MOL0     O21576  13.157   4.281   8.234  0.0428 -0.4464  0.5331
  157MOL0     C21577  13.139   4.278   7.894 -1.2681  0.3390  0.4136
  157MOL0     C21578  13.054   4.268   7.779 -0.5264  0.9054 -0.6986
  157MOL0     N21579  12.445   4.509   7.346  0.8328 -0.4406 -0.1175
  157MOL0     N21580  12.320   4.496   7.331  1.0143 -0.2854 -0.0477
  157MOL0     C21581  11.633   4.804   6.482  0.0881  0.0137  0.6741
  157MOL0     C21582  11.579   4.857   6.356  0.1701  0.0417  0.3184
  157MOL0     C21583  11.310   4.872   5.970  0.5233 -0.7919 -0.5484
  157MOL0     C21584  11.272   5.007   5.986  0.5338  0.4739 -0.5046
  157MOL0     C21585  11.197   5.065   5.884  0.6711 -0.4696  0.2644
  157MOL0     C21586  11.166   4.989   5.766 -0.2545 -0.0583 -0.7232
  157MOL0     O21587  11.084   5.045   5.671  0.1696 -0.6171 -0.6166
  157MOL0     C21588  10.950   5.002   5.697  0.1068  0.2636  0.8277
  157MOL0     C21589  10.850   5.037   5.573 -0.4489  0.6075  0.1766
  157MOL0     C21590  10.880   4.937   5.458 -0.4458  0.4697  0.1391
  157MOL0     C21591  10.767   4.930   5.347 -0.0141  0.3927  0.1181
  157MOL0     C21592  10.816   4.862   5.224 -0.4461  0.4408  0.2190
  157MOL0     C21593  10.857   4.793   5.128  0.0224 -0.3716  0.3732
  157MOL0     C21594  11.219   4.859   5.751  0.8486 -0.0834  0.2622
  157MOL0     C21595  11.293   4.793   5.850  1.2722 -0.4624  0.5948
  157MOL0     C21596  11.342   4.646   5.806 -0.2088 -0.4964  0.6683
  157MOL0     H21597  11.256   4.818   6.394 -0.0366 -3.8199 -2.0063
  157MOL0     H21598  11.346   4.690   6.607 -0.5831 -1.6089 -0.2336
  157MOL0     H21599  11.709   4.537   6.606 -0.2590  1.3130  0.3609
  157MOL0     H21600  11.539   4.493   6.573 -0.1060  2.6060 -0.0562
  157MOL0     H21601  11.512   4.452   6.829 -0.2909  0.4014 -0.2553
  157MOL0     H21602  11.613   4.337   6.738 -1.3429 -0.2211  0.5849
  157MOL0     H21603  11.797   4.510   6.785  2.1617 -0.2923  1.6025
  157MOL0     H21604  11.696   4.565   6.922  0.7498 -0.4030  0.6652
  157MOL0     H21605  11.703   4.352   7.031 -0.2823  3.2797 -0.2300
  157MOL0     H21606  11.778   4.270   6.890 -0.4036  0.1940 -2.1828
  157MOL0     H21607  11.926   4.495   7.015  0.4082  0.7796 -1.3724
  157MOL0     H21608  11.976   4.359   6.908  3.4188 -1.3947  2.7047
  157MOL0     H21609  11.887   4.322   7.189 -0.7458 -4.4141 -0.6775
  157MOL0     H21610  11.962   4.210   7.099 -0.7457 -0.2228  1.0744
  157MOL0     H21611  12.111   4.482   7.144  0.1764  0.5661  1.0537
  157MOL0     H21612  12.180   4.337   7.067 -0.4683  3.0985 -1.3047
  157MOL0     H21613  12.098   4.371   7.349  2.2881  4.1561 -1.1457
  157MOL0     H21614  12.151   4.209   7.272  0.3702 -0.4790 -2.5619
  157MOL0     H21615  12.415   4.200   7.267  0.5764  0.4872  0.1663
  157MOL0     H21616  12.692   4.461   7.310 -2.9476  1.6768  0.5025
  157MOL0     H21617  12.666   4.322   7.201  0.3225 -0.3109  0.7482
  157MOL0     H21618  12.649   4.174   7.398  2.0034  0.0997 -0.1624
  157MOL0     H21619  12.797   4.261   7.397  0.5335 -4.3889  0.1567
  157MOL0     H21620  12.712   4.433   7.562  3.7628 -1.0774 -1.8945
  157MOL0     H21621  12.554   4.332   7.571 -0.8120 -2.8266 -2.7474
  157MOL0     H21622  12.656   4.282   7.756 -0.2287  2.1201 -0.0175
  157MOL0     H21623  12.678   4.151   7.657 -1.7081  0.7021 -0.3122
  157MOL0     H21624  12.763   4.315   7.930  1.6660  0.6643  0.6434
  157MOL0     H21625  12.929   4.399   8.234  3.0329 -3.5527  3.9337
  157MOL0     H21626  12.861   4.239   8.231  0.6965  1.0578  1.4653
  157MOL0     H21627  12.770   4.361   8.157 -1.7057 -2.1486  6.0339
  157MOL0     H21628  13.201   4.518   8.305 -0.4647 -3.1589 -2.9455
  157MOL0     H21629  13.349   4.642   8.470  1.8712  1.1998  1.2622
  157MOL0     H21630  13.495   4.853   8.418 -1.8848  0.0284  0.9727
  157MOL0     H21631  13.512   4.780   8.583  1.9108 -0.4589  0.4007
  157MOL0     H21632  13.726   4.940   8.431 -1.2111 -0.0879 -0.2485
  157MOL0     H21633  13.628   4.999   8.564 -2.4733 -0.2102 -0.6659
  157MOL0     H21634  13.859   4.786   8.573 -0.3088 -0.6754  1.5780
  157MOL0     H21635  13.738   4.791   8.696 -0.0120 -0.8523 -0.1890
  157MOL0     H21636  13.784   5.038   8.727 -1.8940 -0.6520 -1.8538
  157MOL0     H21637  13.922   5.017   8.625  0.0318  1.0939 -0.2399
  157MOL0     H21638  13.856   4.893   8.898  1.1612 -1.5119  0.9210
  157MOL0     H21639  13.980   4.819   8.808  0.8688  0.2655 -0.7699
  157MOL0     H21640  13.991   5.091   8.926 -0.6714  0.0105 -2.0991
  157MOL0     H21641  14.062   5.062   8.768 -0.5362 -4.0228 -2.2859
  157MOL0     H21642  14.225   4.906   8.832  0.5225 -0.1517 -0.6798
  157MOL0     H21643  14.140   4.862   8.976  1.7156 -0.9237 -2.5372
  157MOL0     H21644  14.346   4.992   9.029 -0.0161 -0.1610  0.7534
  157MOL0     H21645  14.192   5.084   9.075 -1.9088  4.3794 -3.7670
  157MOL0     H21646  13.683   4.566   8.228 -0.3804  1.2087  0.4279
  157MOL0     H21647  13.534   4.429   8.066 -0.8083  0.8484 -0.9027
  157MOL0     H21648  13.245   4.256   7.891 -1.5441 -1.7003  2.5419
  157MOL0     H21649  13.105   4.235   7.689 -2.2034 -0.7082 -1.1209
  157MOL0     H21650  11.740   4.806   6.499  0.4703  3.4622 -1.1589
  157MOL0     H21651  11.655   4.898   6.290  1.4384 -1.8645  0.5198
  157MOL0     H21652  11.279   5.072   6.072 -1.1642 -0.1294  0.1511
  157MOL0     H21653  11.156   5.166   5.879 -1.0787 -1.1346  0.5130
  157MOL0     H21654  10.948   4.894   5.714  1.9817  0.1651  0.5857
  157MOL0     H21655  10.915   5.045   5.791 -2.8958  0.5647 -0.3090
  157MOL0     H21656  10.850   5.142   5.542 -0.1005 -0.5397 -4.4761
  157MOL0     H21657  10.747   5.017   5.605 -0.9208  0.9052 -1.0837
  157MOL0     H21658  10.979   4.959   5.416  2.2666 -2.2152  4.2856
  157MOL0     H21659  10.886   4.837   5.501 -1.2552  1.3327  2.3974
  157MOL0     H21660  10.726   5.029   5.326 -3.1592  0.0281  3.6862
  157MOL0     H21661  10.679   4.872   5.376 -1.2848  1.7879 -0.7951
  157MOL0     H21662  10.876   4.725   5.047 -0.0855  1.1558 -0.9835
  157MOL0     H21663  11.201   4.804   5.659  3.5111  0.3505 -0.6005
  157MOL0     H21664  11.301   4.572   5.875 -0.9875 -0.8284 -0.1378
  157MOL0     H21665  11.304   4.617   5.708  1.7988 -4.0115  0.7613
  157MOL0     H21666  11.451   4.629   5.804 -0.0035  0.5696 -1.8557
  158MOL0     O21667   9.570   6.004   5.066  0.1414 -0.2197 -0.0353
  158MOL0     C21668   9.513   5.944   4.977 -0.9447 -0.0706  0.1476
  158MOL0     O21669   9.485   6.004   4.852 -0.2430  0.0286  0.6005
  158MOL0     C21670   9.567   6.111   4.821  0.2994  0.9515 -0.0244
  158MOL0     C21671   9.657   6.103   4.711  0.3771 -0.2303 -0.2814
  158MOL0     C21672   9.727   6.219   4.670 -0.4392  0.4455 -0.7859
  158MOL0     C21673   9.715   6.338   4.742 -0.1755 -0.8596  0.4889
  158MOL0     O21674   9.773   6.460   4.713 -0.0691 -0.0681 -0.4423
  158MOL0     C21675   9.912   6.449   4.697 -0.4479 -0.1442 -0.8793
  158MOL0     C21676   9.979   6.584   4.666 -0.5686 -0.9628 -0.2849
  158MOL0     C21677   9.953   6.700   4.764  0.6033 -0.1397  0.5535
  158MOL0     C21678  10.018   6.680   4.903  0.1431 -0.1463  0.2928
  158MOL0     C21679   9.938   6.592   5.008 -0.1921 -0.5984  0.1890
  158MOL0     C21680   9.991   6.616   5.141  0.1647  0.1197  0.6748
  158MOL0     C21681   9.970   6.763   5.187  0.6528  0.2227  0.7750
  158MOL0     C21682  10.092   6.825   5.253  0.4863 -0.5567 -0.1262
  158MOL0     N21683  10.120   6.751   5.377  0.0022  0.3198  0.4879
  158MOL0     C21684  10.243   6.704   5.416 -0.1821  0.2280  0.5211
  158MOL0     C21685  10.229   6.670   5.546  0.3362 -0.7094  0.1679
  158MOL0     C21686  10.339   6.602   5.618 -0.4080  0.1853 -0.5025
  158MOL0     C21687  10.318   6.593   5.772  0.4987 -0.2334  0.0774
  158MOL0     C21688  10.463   6.556   5.830  0.9314 -0.2665  0.4410
  158MOL0     C21689  10.547   6.680   5.858  0.3352  0.7271  0.2235
  158MOL0     O21690  10.683   6.644   5.881 -0.1752 -0.1801 -0.2405
  158MOL0     C21691  10.726   6.696   5.998 -0.4378 -0.7042 -0.4453
  158MOL0     C21692  10.755   6.833   6.022  0.6580 -0.0754 -0.6072
  158MOL0     C21693  10.818   6.883   6.136 -0.4737 -1.3263 -0.1082
  158MOL0     C21694  10.839   7.036   6.130 -0.9386  0.2923 -0.5648
  158MOL0     C21695  10.851   6.796   6.241  0.0294  0.3956 -1.0457
  158MOL0     C21696  10.930   6.845   6.355 -0.6449 -0.3502  0.5049
  158MOL0     O21697  11.045   6.913   6.340 -0.5371 -0.1360  0.0660
  158MOL0     C21698  11.125   6.936   6.456 -0.5806 -0.3663  0.2608
  158MOL0     C21699  11.086   7.005   6.570  0.0532 -0.0478  0.1059
  158MOL0     C21700  11.173   7.035   6.678  0.9487 -0.7846  0.3115
  158MOL0     C21701  11.314   7.007   6.661 -0.3656  0.2648  0.2725
  158MOL0     O21702  11.399   7.025   6.764  0.0379 -0.7577  0.6765
  158MOL0     C21703  11.525   6.951   6.768 -0.4824  0.3203  0.3183
  158MOL0     C21704  11.562   6.939   6.916 -0.5046  0.5439 -0.1381
  158MOL0     C21705  11.558   7.070   7.004  0.2659  0.3361  0.4248
  158MOL0     C21706  11.646   7.078   7.125  0.4256 -0.4361 -0.9467
  158MOL0     C21707  11.602   7.183   7.226 -1.1420 -0.3615 -0.5457
  158MOL0     C21708  11.722   7.240   7.308  0.8372  0.4403  0.5994
  158MOL0     C21709  11.791   7.353   7.230  0.6751 -0.3827  0.3407
  158MOL0     C21710  11.937   7.339   7.255 -0.3107 -0.4358 -0.3889
  158MOL0    Cl21711  12.004   7.203   7.170  0.4044 -0.5327 -0.1789
  158MOL0     C21712  11.359   6.941   6.542 -0.0043  0.1967 -0.1961
  158MOL0     C21713  11.268   6.906   6.441  0.9021 -0.6355  0.7955
  158MOL0     O21714  10.892   6.801   6.458  0.8015  0.4939  0.0341
  158MOL0     C21715  10.807   6.662   6.236  0.2510 -0.3234  0.2150
  158MOL0     C21716  10.750   6.611   6.111 -0.5371  0.5139 -0.1587
  158MOL0     N21717  10.101   6.702   5.587 -0.0233  1.6154  0.7046
  158MOL0     N21718  10.045   6.752   5.488  0.4665  0.1858  0.3037
  158MOL0     C21719   9.622   6.348   4.844 -0.0504 -0.6558  0.5661
  158MOL0     C21720   9.548   6.232   4.882 -0.8616 -0.2275 -0.0375
  158MOL0     C21721   9.445   5.819   5.002  0.9005 -0.4950  0.4636
  158MOL0     C21722   9.357   5.773   4.899  0.0399 -0.2778 -0.2442
  158MOL0     C21723   9.281   5.664   4.912 -0.1786 -0.0459  0.4756
  158MOL0     C21724   9.276   5.587   5.023 -0.5121  0.3861  0.2514
  158MOL0     O21725   9.196   5.486   5.058 -0.3978 -0.3007  0.7352
  158MOL0     C21726   9.122   5.417   4.948 -1.0640  0.2035  0.3356
  158MOL0     C21727   8.980   5.458   4.949 -0.3854  0.1250 -0.7340
  158MOL0     C21728   8.958   5.602   4.888 -0.5352  0.0368 -0.1755
  158MOL0     C21729   8.805   5.644   4.891 -0.0838  0.3343  0.8996
  158MOL0     C21730   8.795   5.775   4.959  0.7409  0.2293  0.2010
  158MOL0     C21731   8.785   5.891   5.013  0.4698 -0.0006  0.0231
  158MOL0     C21732   9.357   5.639   5.132 -0.0491 -0.5935  0.5700
  158MOL0     C21733   9.440   5.750   5.119  0.0613  0.7035  0.6700
  158MOL0     C21734   9.496   5.800   5.251 -0.1169  0.2450 -0.1149
  158MOL0     H21735   9.662   6.011   4.654 -2.1163 -1.3834  1.1632
  158MOL0     H21736   9.802   6.224   4.592  1.6652  1.8241  1.1720
  158MOL0     H21737   9.937   6.391   4.608 -2.8893 -2.4985 -0.1619
  158MOL0     H21738   9.948   6.402   4.788 -2.0616  0.7880  0.2877
  158MOL0     H21739  10.087   6.567   4.657 -0.2822  0.6744 -0.2868
  158MOL0     H21740   9.936   6.614   4.570  0.1128 -0.1060 -0.3403
  158MOL0     H21741   9.986   6.792   4.715 -1.1355  1.1190  1.6119
  158MOL0     H21742   9.846   6.701   4.785  0.4661 -1.8967  0.0986
  158MOL0     H21743  10.117   6.634   4.896  0.1373 -0.6188  2.7384
  158MOL0     H21744  10.023   6.783   4.940 -2.3402  0.4615 -0.8606
  158MOL0     H21745   9.949   6.486   4.985  2.1460 -0.9965  2.6306
  158MOL0     H21746   9.830   6.611   5.007  0.0163  0.6810 -0.1555
  158MOL0     H21747   9.923   6.561   5.207 -0.6579 -0.5370 -0.6835
  158MOL0     H21748  10.089   6.570   5.153  0.5338  1.3489  2.8664
  158MOL0     H21749   9.903   6.755   5.273  1.4772 -0.2889  1.3832
  158MOL0     H21750   9.928   6.841   5.123  0.4245  1.1016  1.9588
  158MOL0     H21751  10.171   6.848   5.181  1.2483  0.9179  1.1346
  158MOL0     H21752  10.064   6.923   5.293 -0.9857 -0.0048 -2.3198
  158MOL0     H21753  10.329   6.682   5.354  0.2538  1.7553  0.5525
  158MOL0     H21754  10.436   6.649   5.599 -0.0645 -1.8101 -4.9908
  158MOL0     H21755  10.339   6.500   5.579 -0.1490  0.3864 -1.0432
  158MOL0     H21756  10.276   6.687   5.808 -1.6746 -1.2499  0.3708
  158MOL0     H21757  10.249   6.511   5.793 -1.3379  0.6641 -2.0107
  158MOL0     H21758  10.439   6.511   5.927  0.4924 -0.7374  0.1205
  158MOL0     H21759  10.519   6.482   5.772  0.1130 -2.4189  2.2589
  158MOL0     H21760  10.544   6.737   5.765  0.3881 -1.1478 -0.9840
  158MOL0     H21761  10.499   6.725   5.945  0.0433 -3.4140  2.4692
  158MOL0     H21762  10.745   6.902   5.939  2.0820 -0.1356 -0.8457
  158MOL0     H21763  10.934   7.056   6.079  1.0190 -3.2644  1.3148
  158MOL0     H21764  10.836   7.078   6.231  2.0700  0.0830 -0.3136
  158MOL0     H21765  10.762   7.093   6.077  1.2018  0.8010 -3.3610
  158MOL0     H21766  10.982   7.035   6.564 -0.0449 -0.3759  0.1253
  158MOL0     H21767  11.144   7.076   6.774  1.3519  0.4358 -0.0793
  158MOL0     H21768  11.526   6.852   6.722 -0.3434  0.5495 -0.1837
  158MOL0     H21769  11.590   7.015   6.707 -1.1209  1.4022  0.7385
  158MOL0     H21770  11.504   6.864   6.970  3.8888 -1.8123  1.7748
  158MOL0     H21771  11.665   6.904   6.907 -1.0655 -0.9612 -1.0903
  158MOL0     H21772  11.451   7.084   7.022  0.3799  1.5928  0.1955
  158MOL0     H21773  11.587   7.143   6.927  1.0435 -1.3833 -1.0005
  158MOL0     H21774  11.750   7.093   7.096  0.5515  2.1020  0.4540
  158MOL0     H21775  11.635   6.982   7.175 -1.1600 -0.3740 -1.1102
  158MOL0     H21776  11.554   7.265   7.172 -0.4736  0.9027  0.7037
  158MOL0     H21777  11.527   7.142   7.294  0.0245 -2.2409 -0.3013
  158MOL0     H21778  11.785   7.157   7.341 -2.6950 -2.2778  1.1414
  158MOL0     H21779  11.676   7.283   7.397  1.3727 -1.6722  1.9692
  158MOL0     H21780  11.747   7.447   7.264 -0.5683 -0.1862 -1.6249
  158MOL0     H21781  11.784   7.354   7.121 -2.3455 -2.3702  0.4189
  158MOL0     H21782  11.959   7.333   7.362  0.9384 -2.2796 -0.7195
  158MOL0     H21783  11.967   7.439   7.223 -2.5957  0.0830 -1.1324
  158MOL0     H21784  11.465   6.923   6.533 -0.0488 -3.4345  3.3128
  158MOL0     H21785  11.313   6.861   6.353 -1.9762  0.6631 -1.4913
  158MOL0     H21786  10.819   6.586   6.312 -0.7943 -2.4601 -1.6547
  158MOL0     H21787  10.708   6.513   6.092 -2.3312  1.0997  0.5739
  158MOL0     H21788   9.615   6.448   4.885 -1.6134 -1.1755  1.6365
  158MOL0     H21789   9.475   6.245   4.962  0.7305  0.9769  1.2934
  158MOL0     H21790   9.344   5.817   4.800 -2.8402  2.6899  1.2986
  158MOL0     H21791   9.223   5.631   4.827  3.2928 -0.0203 -2.1129
  158MOL0     H21792   9.165   5.428   4.848 -4.3347  1.0136 -1.1155
  158MOL0     H21793   9.117   5.310   4.969 -2.9121 -0.1118 -1.4228
  158MOL0     H21794   8.944   5.458   5.052  0.0826 -0.5607 -0.5661
  158MOL0     H21795   8.921   5.386   4.890 -1.2241 -1.3246  1.7180
  158MOL0     H21796   9.005   5.680   4.948 -1.6810  0.3729  0.3180
  158MOL0     H21797   9.001   5.596   4.787  1.9482  1.5887  0.7063
  158MOL0     H21798   8.746   5.571   4.947 -1.0706  1.7540  1.7706
  158MOL0     H21799   8.775   5.643   4.785 -2.4725 -2.8302  1.4372
  158MOL0     H21800   8.777   5.988   5.056 -0.6123  0.3199 -0.8635
  158MOL0     H21801   9.349   5.604   5.235 -0.0234 -0.6911  0.5388
  158MOL0     H21802   9.447   5.894   5.276 -3.7377 -0.9305 -2.0533
  158MOL0     H21803   9.487   5.729   5.334 -1.9649 -0.2794 -0.7031
  158MOL0     H21804   9.604   5.813   5.243  0.1860 -1.0303  1.3530
  159MOL0     O21805   0.034   3.232  10.573  0.0123  0.1965  0.3395
  159MOL0     C21806  -0.083   3.188  10.550 -0.1343  0.0619  0.3747
  159MOL0     O21807  -0.149   3.201  10.423  0.0327  0.6278 -0.4855
  159MOL0     C21808  -0.077   3.253  10.319 -0.5266 -0.0130 -0.1770
  159MOL0     C21809  -0.011   3.159  10.234 -0.2355  0.7619  1.1415
  159MOL0     C21810   0.051   3.200  10.123  0.0482  0.3743 -0.6509
  159MOL0     C21811   0.059   3.334  10.092 -0.7392 -0.0434 -0.3258
  159MOL0     O21812   0.128   3.365   9.982  0.1463 -1.3653 -0.0722
  159MOL0     C21813   0.111   3.488   9.911 -0.2549  0.0369  0.3808
  159MOL0     C21814   0.170   3.464   9.773  0.3967 -0.3575 -0.2565
  159MOL0     C21815   0.171   3.592   9.688  0.2544 -1.6146  0.7127
  159MOL0     C21816   0.267   3.575   9.573  0.7295 -0.2563 -0.3156
  159MOL0     C21817   0.417   3.596   9.617  0.2857 -0.0223 -0.6026
  159MOL0     C21818   0.500   3.565   9.490  0.3202 -0.2783 -0.1065
  159MOL0     C21819   0.645   3.607   9.526 -0.6159 -0.5145  0.0100
  159MOL0     C21820   0.715   3.515   9.631  1.0075  0.2510 -0.5462
  159MOL0     N21821   0.862   3.529   9.629 -0.7991  0.4242 -0.0691
  159MOL0     C21822   0.943   3.440   9.555 -0.4585 -0.5362 -0.0920
  159MOL0     C21823   1.068   3.495   9.549 -0.0447  0.2584  0.3568
  159MOL0     C21824   1.199   3.430   9.499 -0.8478  0.7229  0.2798
  159MOL0     C21825   1.163   3.281   9.466  0.1942  0.4842  0.0934
  159MOL0     C21826   1.286   3.218   9.423 -1.0164 -0.6050 -0.0697
  159MOL0     C21827   1.241   3.077   9.378  0.3028  0.9403  0.1777
  159MOL0     O21828   1.194   3.001   9.492  0.6602 -0.3713 -0.5917
  159MOL0     C21829   1.275   2.981   9.601 -0.2258 -0.7549 -0.6870
  159MOL0     C21830   1.404   2.936   9.593 -0.5600 -0.2070  0.7175
  159MOL0     C21831   1.479   2.899   9.707 -0.0761 -0.2776  0.7415
  159MOL0     C21832   1.617   2.850   9.688  0.9259  0.4707 -0.9058
  159MOL0     C21833   1.431   2.935   9.833  0.5657 -0.1245 -0.8420
  159MOL0     C21834   1.500   2.917   9.960  0.2007  0.3051 -0.0453
  159MOL0     O21835   1.433   2.959  10.071  0.5955  0.0263 -0.3903
  159MOL0     C21836   1.477   2.919  10.192  1.1447  0.2752 -0.6922
  159MOL0     C21837   1.571   2.988  10.262 -0.6562  0.4306  0.4279
  159MOL0     C21838   1.609   2.944  10.386 -0.0140 -0.2746 -0.3900
  159MOL0     C21839   1.554   2.832  10.442  0.2679  0.5522  0.4386
  159MOL0     O21840   1.580   2.777  10.561  0.1250 -0.3313  0.8823
  159MOL0     C21841   1.721   2.748  10.568 -0.3419  0.1923  0.1771
  159MOL0     C21842   1.773   2.762  10.715  0.2056  0.3569  0.5349
  159MOL0     C21843   1.914   2.715  10.727  0.3059  0.0790  0.6476
  159MOL0     C21844   1.927   2.563  10.710 -0.2431  0.3639 -0.1011
  159MOL0     C21845   2.027   2.494  10.807 -0.2142 -0.5902 -0.8630
  159MOL0     C21846   2.073   2.356  10.760 -0.5505  0.2671  0.0846
  159MOL0     C21847   1.959   2.265  10.728 -1.0667 -0.2339 -0.2319
  159MOL0     C21848   1.983   2.203  10.593  0.3807 -0.2179 -0.0466
  159MOL0    Cl21849   2.135   2.120  10.592  0.3487  0.1659  0.1836
  159MOL0     C21850   1.447   2.767  10.380 -0.1074  0.0100 -0.0434
  159MOL0     C21851   1.411   2.809  10.254 -0.3678 -0.0925  0.1406
  159MOL0     O21852   1.608   2.854   9.969 -0.0203 -0.0282 -0.0819
  159MOL0     C21853   1.293   2.975   9.841  0.0220 -0.2387  0.7685
  159MOL0     C21854   1.217   3.000   9.721  0.6449  0.9698  0.3776
  159MOL0     N21855   1.062   3.622   9.612 -0.1541 -0.3955  0.5774
  159MOL0     N21856   0.949   3.633   9.665 -0.1061 -0.5364 -0.6135
  159MOL0     C21857  -0.006   3.432  10.174  0.4540  0.0643  0.2725
  159MOL0     C21858  -0.075   3.394  10.295 -0.0264  0.2556  0.0560
  159MOL0     C21859  -0.170   3.135  10.662 -0.4905  0.6791 -1.0474
  159MOL0     C21860  -0.309   3.126  10.646  0.1566  0.0366 -0.4140
  159MOL0     C21861  -0.386   3.094  10.761 -0.4832  0.3680 -0.0359
  159MOL0     C21862  -0.332   3.057  10.881 -0.9104  0.1352  0.6747
  159MOL0     O21863  -0.423   3.029  10.984 -0.1507  0.4473  0.4865
  159MOL0     C21864  -0.370   2.956  11.094  0.7988 -0.5507  0.7387
  159MOL0     C21865  -0.479   2.911  11.190 -0.0516 -0.4131 -0.4327
  159MOL0     C21866  -0.426   2.793  11.274  0.4172  0.9702 -0.7266
  159MOL0     C21867  -0.516   2.731  11.376  0.5777 -0.5124 -0.4563
  159MOL0     C21868  -0.636   2.689  11.296  0.5116 -0.4019  0.0987
  159MOL0     C21869  -0.744   2.682  11.248  0.5869  0.1767  0.0987
  159MOL0     C21870  -0.192   3.063  10.890 -0.7157  0.3014 -0.1986
  159MOL0     C21871  -0.103   3.087  10.782  0.1201 -0.4581 -0.9343
  159MOL0     C21872   0.046   3.069  10.814  0.9486  0.1913 -0.1137
  159MOL0     H21873  -0.009   3.051  10.247 -1.8773 -0.2019 -4.0741
  159MOL0     H21874   0.097   3.124  10.061 -0.2434 -0.8787  0.6035
  159MOL0     H21875   0.153   3.573   9.965 -1.5851  0.7299  0.3617
  159MOL0     H21876   0.005   3.513   9.912  0.0663  1.5930 -1.0781
  159MOL0     H21877   0.272   3.425   9.781  0.2182 -0.7685  0.0281
  159MOL0     H21878   0.107   3.390   9.722 -1.5752  1.7277 -1.0701
  159MOL0     H21879   0.069   3.613   9.655  0.3487 -0.4163  1.1340
  159MOL0     H21880   0.211   3.673   9.750 -1.7968  1.6663 -1.9368
  159MOL0     H21881   0.246   3.476   9.531 -1.3537 -0.0724  0.2078
  159MOL0     H21882   0.239   3.646   9.495 -0.8469 -0.4788  0.0161
  159MOL0     H21883   0.440   3.535   9.704 -2.5397  4.6806  3.9896
  159MOL0     H21884   0.418   3.699   9.654  0.0289 -0.0589 -0.4901
  159MOL0     H21885   0.495   3.459   9.463  0.2849 -0.2786 -0.0992
  159MOL0     H21886   0.458   3.618   9.404 -1.1995 -1.4272 -0.0985
  159MOL0     H21887   0.663   3.713   9.545  0.6123 -1.1772  3.0398
  159MOL0     H21888   0.708   3.595   9.437 -0.9447 -1.8154 -0.0659
  159MOL0     H21889   0.678   3.546   9.729  2.3342  0.2892 -0.0408
  159MOL0     H21890   0.683   3.410   9.627 -1.6897  1.0347 -1.4061
  159MOL0     H21891   0.904   3.347   9.515 -2.7364 -0.5590  1.9363
  159MOL0     H21892   1.280   3.436   9.572  0.7484 -1.1475 -1.2436
  159MOL0     H21893   1.223   3.480   9.405  0.7604  0.3240  0.4625
  159MOL0     H21894   1.116   3.245   9.558 -1.3468  5.0243  1.3667
  159MOL0     H21895   1.096   3.268   9.381 -1.4568 -2.4871  1.6656
  159MOL0     H21896   1.313   3.269   9.330  0.3729 -0.5389  0.3458
  159MOL0     H21897   1.367   3.237   9.494  0.0072 -0.7491 -1.1722
  159MOL0     H21898   1.173   3.068   9.293 -0.5890 -1.2269  1.0488
  159MOL0     H21899   1.330   3.022   9.345  0.9970 -0.1019  3.4270
  159MOL0     H21900   1.449   2.934   9.494  0.1039  1.3025  0.9599
  159MOL0     H21901   1.646   2.850   9.582  1.4067  0.1144 -0.7759
  159MOL0     H21902   1.621   2.746   9.722 -2.2032 -1.1966 -4.7189
  159MOL0     H21903   1.689   2.909   9.745 -0.0369  3.7663 -2.8205
  159MOL0     H21904   1.627   3.068  10.215 -0.7474  1.0642  1.3558
  159MOL0     H21905   1.675   3.002  10.451  0.6702  0.7023 -1.9078
  159MOL0     H21906   1.734   2.644  10.537 -1.3558  0.4584 -1.2382
  159MOL0     H21907   1.788   2.811  10.508  2.8727 -3.0496  0.0497
  159MOL0     H21908   1.775   2.864  10.755 -1.4582 -0.2176  2.1839
  159MOL0     H21909   1.716   2.704  10.788  0.4097  0.3635  0.7002
  159MOL0     H21910   1.950   2.733  10.829  0.6434  3.1721  0.0811
  159MOL0     H21911   1.977   2.756  10.647  1.5360 -1.1351  0.9477
  159MOL0     H21912   1.968   2.540  10.611 -0.2264 -1.1724  0.2344
  159MOL0     H21913   1.825   2.523  10.716 -0.3995  0.8569  4.7621
  159MOL0     H21914   2.119   2.553  10.813 -0.9597  0.8402 -2.4383
  159MOL0     H21915   1.974   2.492  10.902  0.4637  0.3371 -0.4477
  159MOL0     H21916   2.134   2.304  10.834 -1.5466  1.6341  1.9603
  159MOL0     H21917   2.147   2.363  10.680 -2.6641 -3.6502 -2.5803
  159MOL0     H21918   1.868   2.325  10.719 -0.6795  0.2402 -1.1486
  159MOL0     H21919   1.947   2.189  10.806  0.5080 -1.1429 -0.8423
  159MOL0     H21920   1.982   2.274  10.510 -1.4375  0.0871  0.1937
  159MOL0     H21921   1.901   2.136  10.565 -0.5261  0.9919 -0.3737
  159MOL0     H21922   1.396   2.680  10.421 -3.3605  2.3150  1.2014
  159MOL0     H21923   1.324   2.767  10.205 -1.7922 -0.1354  2.5716
  159MOL0     H21924   1.236   2.978   9.933 -0.2105 -0.4565  0.6304
  159MOL0     H21925   1.112   3.026   9.731 -0.4094 -2.8768  0.8858
  159MOL0     H21926  -0.012   3.533  10.137  0.9960  0.1307  0.3498
  159MOL0     H21927  -0.128   3.466  10.357 -3.0663 -2.2476  0.6295
  159MOL0     H21928  -0.361   3.145  10.553 -0.4405 -1.1770 -0.3533
  159MOL0     H21929  -0.494   3.103  10.753 -0.6472 -0.0821  1.4828
  159MOL0     H21930  -0.320   2.868  11.051  2.1661  1.8016 -2.9521
  159MOL0     H21931  -0.294   3.011  11.150  3.3068 -1.1013 -1.8747
  159MOL0     H21932  -0.574   2.888  11.141 -0.8372  1.1581  0.2687
  159MOL0     H21933  -0.492   2.992  11.263  0.2736 -0.1068 -0.7089
  159MOL0     H21934  -0.402   2.708  11.210  0.1679  0.3332  0.0110
  159MOL0     H21935  -0.330   2.814  11.321  0.1325  1.8534 -0.5249
  159MOL0     H21936  -0.536   2.812  11.447 -1.4577 -0.3236 -1.1639
  159MOL0     H21937  -0.458   2.652  11.424  2.0864  1.1414  0.5958
  159MOL0     H21938  -0.841   2.658  11.208 -1.4133  1.1215  3.8586
  159MOL0     H21939  -0.146   3.020  10.979 -0.8971  0.3312 -0.0906
  159MOL0     H21940   0.086   3.163  10.855 -0.4723  0.2028  1.3266
  159MOL0     H21941   0.061   2.997  10.894 -0.6089 -0.4871 -0.3968
  159MOL0     H21942   0.104   3.038  10.726 -0.0407  0.1758 -0.7710
  160MOL0     O21943   8.207  10.226   3.827  0.0470  0.5015 -0.8007
  160MOL0     C21944   8.167  10.250   3.942 -0.5236 -0.0622 -0.2840
  160MOL0     O21945   8.182  10.168   4.050  0.3929  0.4603  0.2582
  160MOL0     C21946   8.209  10.042   4.016  0.0744 -0.1403  0.1947
  160MOL0     C21947   8.330   9.997   3.962 -0.3026  0.9728  0.2144
  160MOL0     C21948   8.356   9.862   3.936 -0.3327  0.3577 -0.2215
  160MOL0     C21949   8.261   9.765   3.971 -0.3001 -0.6775  1.0655
  160MOL0     O21950   8.290   9.644   3.963 -0.7589  0.4636  0.5372
  160MOL0     C21951   8.234   9.585   3.841  0.3892  0.1678  0.6552
  160MOL0     C21952   8.208   9.435   3.875  0.2336  0.4560  0.8140
  160MOL0     C21953   8.075   9.418   3.946 -0.2053  0.5763  0.6768
  160MOL0     C21954   8.044   9.265   3.984 -0.8175  0.2887 -1.0363
  160MOL0     C21955   7.933   9.203   3.894 -0.3096 -0.0987  0.1874
  160MOL0     C21956   7.923   9.053   3.927  0.1079  0.4077 -0.5671
  160MOL0     C21957   8.011   8.970   3.832 -0.1300 -0.9163  0.8033
  160MOL0     C21958   7.965   8.960   3.689 -0.5050 -0.9444 -0.0127
  160MOL0     N21959   8.062   8.874   3.618 -0.3983  0.0185 -0.4681
  160MOL0     C21960   8.185   8.910   3.588 -0.2186 -0.1660 -0.1042
  160MOL0     C21961   8.251   8.811   3.533  0.4200  0.0601 -0.3174
  160MOL0     C21962   8.392   8.815   3.478  0.3559 -0.0887  0.1978
  160MOL0     C21963   8.494   8.771   3.593  0.5405  1.5815  0.1276
  160MOL0     C21964   8.632   8.832   3.565  0.5506  0.1694 -0.0286
  160MOL0     C21965   8.741   8.792   3.675 -0.2069  0.1249 -0.2426
  160MOL0     O21966   8.748   8.643   3.691  0.1513  0.1447  0.2426
  160MOL0     C21967   8.832   8.594   3.789  0.5226  0.2998  0.8464
  160MOL0     C21968   8.813   8.454   3.812 -0.3309 -0.6118 -0.1493
  160MOL0     C21969   8.897   8.382   3.889 -0.9489 -0.4127 -0.1394
  160MOL0     C21970   8.875   8.233   3.889 -0.6684  0.1355 -0.7648
  160MOL0     C21971   9.004   8.447   3.949 -0.4107  0.8972 -0.3713
  160MOL0     C21972   9.106   8.385   4.034  0.2618 -0.2898  0.0137
  160MOL0     O21973   9.233   8.441   4.023  0.5893 -0.9458 -0.3303
  160MOL0     C21974   9.322   8.409   4.121 -0.4479 -0.0466 -0.1593
  160MOL0     C21975   9.329   8.477   4.246  0.0654 -0.5315 -0.8840
  160MOL0     C21976   9.438   8.456   4.328  0.0077 -0.4233  0.2963
  160MOL0     C21977   9.539   8.361   4.292  1.1473  0.5364  0.5005
  160MOL0     O21978   9.653   8.319   4.345  0.1584 -0.5238 -0.0646
  160MOL0     C21979   9.661   8.347   4.483 -0.1036 -0.0632 -1.1854
  160MOL0     C21980   9.790   8.295   4.550  0.0402 -0.4582 -0.1383
  160MOL0     C21981   9.822   8.354   4.684  0.4395  0.1179 -0.0688
  160MOL0     C21982   9.930   8.282   4.766 -1.1100 -0.4433  1.0653
  160MOL0     C21983   9.953   8.358   4.893  0.0590 -0.1034 -0.5193
  160MOL0     C21984  10.017   8.499   4.878  0.4782 -0.8764 -0.8271
  160MOL0     C21985  10.150   8.499   4.800  0.3166  0.0301 -0.3911
  160MOL0     C21986  10.214   8.637   4.791  0.6955 -0.0943  0.3183
  160MOL0    Cl21987  10.136   8.745   4.670 -0.0954 -0.8235  0.2627
  160MOL0     C21988   9.513   8.284   4.179 -0.2886 -0.0940 -0.7910
  160MOL0     C21989   9.419   8.319   4.081 -0.5306  0.5182 -0.8352
  160MOL0     O21990   9.072   8.291   4.105  0.2163 -0.1260 -0.1246
  160MOL0     C21991   9.021   8.581   3.932  0.1243 -0.5569 -0.1025
  160MOL0     C21992   8.943   8.662   3.848 -0.0561 -0.8652  0.6176
  160MOL0     N21993   8.171   8.698   3.547 -0.4270 -0.8225  0.0802
  160MOL0     N21994   8.050   8.746   3.578  0.4754 -0.3357  0.0449
  160MOL0     C21995   8.142   9.810   4.030  0.5678  0.5004  0.2656
  160MOL0     C21996   8.110   9.937   4.044  0.5784 -0.7723 -0.0273
  160MOL0     C21997   8.114  10.386   3.973  0.6176  0.5445  0.8156
  160MOL0     C21998   8.129  10.436   4.106 -0.2807 -0.1748 -0.1219
  160MOL0     C21999   8.080  10.570   4.146  0.9625  0.2582 -0.2866
  160MOL0     C22000   7.987  10.640   4.069 -0.9235 -0.0547  0.0818
  160MOL0     O22001   7.933  10.757   4.105  0.0343  0.0039 -0.1289
  160MOL0     C22002   7.898  10.778   4.239  0.2871 -0.1281 -0.5641
  160MOL0     C22003   7.794  10.687   4.286 -0.2175 -0.2839 -0.0643
  160MOL0     C22004   7.656  10.736   4.254 -0.0142 -0.4229  0.3804
  160MOL0     C22005   7.542  10.634   4.279 -0.3445  0.1980  0.4550
  160MOL0     C22006   7.515  10.609   4.421 -0.3274  0.6353  0.5250
  160MOL0     C22007   7.480  10.583   4.531 -0.5055 -0.2904  0.3223
  160MOL0     C22008   7.969  10.595   3.942  0.1737  0.4982  0.0917
  160MOL0     C22009   8.026  10.469   3.893  1.0630  0.1510 -0.0682
  160MOL0     C22010   8.003  10.436   3.746 -0.1111 -0.6794  0.2461
  160MOL0     H22011   8.418  10.060   3.952  0.3082  0.2835  1.1111
  160MOL0     H22012   8.451   9.821   3.905 -0.1751  1.0888 -0.7293
  160MOL0     H22013   8.305   9.589   3.758  0.1566  0.5427  0.4702
  160MOL0     H22014   8.145   9.633   3.799  0.9605 -0.4520 -1.3596
  160MOL0     H22015   8.197   9.385   3.779  1.4557 -0.0135  0.9048
  160MOL0     H22016   8.281   9.376   3.931 -0.4360  0.0273  1.2413
  160MOL0     H22017   8.080   9.482   4.034  1.7219  3.4348 -1.3243
  160MOL0     H22018   7.996   9.459   3.883 -0.3637  2.4624  2.0321
  160MOL0     H22019   8.131   9.199   3.977 -1.1571 -0.5762  1.7461
  160MOL0     H22020   8.008   9.252   4.086 -0.8923  2.9041 -0.6640
  160MOL0     H22021   7.966   9.217   3.791  2.1451 -0.3469  0.8637
  160MOL0     H22022   7.837   9.251   3.914  0.6064  1.4030  1.1670
  160MOL0     H22023   7.946   9.030   4.031  2.6133  0.7861 -0.9749
  160MOL0     H22024   7.825   9.017   3.895 -0.0965  0.5372 -0.0880
  160MOL0     H22025   8.024   8.871   3.877  1.3896 -0.3978  1.5687
  160MOL0     H22026   8.111   9.014   3.831 -1.7255  3.2667  2.6907
  160MOL0     H22027   7.868   8.910   3.684  0.8368 -3.9818  1.8060
  160MOL0     H22028   7.956   9.062   3.649  0.0735 -0.9931 -0.2843
  160MOL0     H22029   8.234   9.004   3.615 -0.6228 -0.8633  3.6219
  160MOL0     H22030   8.408   8.918   3.447 -0.1022 -0.6003 -1.8749
  160MOL0     H22031   8.394   8.758   3.385 -0.7755  0.2902 -0.0753
  160MOL0     H22032   8.450   8.800   3.689 -2.2167 -2.3191  0.2599
  160MOL0     H22033   8.498   8.662   3.589 -0.4195  1.5755 -1.4250
  160MOL0     H22034   8.653   8.804   3.462  0.6280  0.5751 -0.1237
  160MOL0     H22035   8.634   8.942   3.564  1.7968  0.1568 -0.5949
  160MOL0     H22036   8.837   8.832   3.643 -0.7281 -0.0103 -2.0733
  160MOL0     H22037   8.715   8.837   3.772  2.1715 -0.9852  1.0024
  160MOL0     H22038   8.725   8.411   3.766 -0.3312 -0.4420 -0.3134
  160MOL0     H22039   8.816   8.196   3.974 -1.0956 -2.5712 -2.1151
  160MOL0     H22040   8.969   8.177   3.886 -0.3193  0.7137 -0.6676
  160MOL0     H22041   8.810   8.194   3.809 -2.8378 -1.1295  1.4847
  160MOL0     H22042   9.258   8.549   4.285  0.8973 -1.0026  1.6942
  160MOL0     H22043   9.458   8.518   4.415  1.4135 -0.7112  0.2044
  160MOL0     H22044   9.666   8.454   4.502  0.2420 -0.6420  2.9689
  160MOL0     H22045   9.578   8.305   4.542  0.0868 -0.8451 -1.4658
  160MOL0     H22046   9.787   8.186   4.559  2.6454 -0.5229  0.7943
  160MOL0     H22047   9.875   8.312   4.483 -0.4130 -1.3201 -0.9585
  160MOL0     H22048   9.730   8.357   4.743 -1.6456 -0.4633 -3.0292
  160MOL0     H22049   9.849   8.459   4.674  1.1005 -0.0649 -0.2866
  160MOL0     H22050  10.018   8.264   4.703 -2.8496 -3.1067 -0.7888
  160MOL0     H22051   9.901   8.178   4.779  1.5392 -1.2155  1.2634
  160MOL0     H22052   9.861   8.383   4.946 -0.5230  3.5690 -2.9569
  160MOL0     H22053  10.008   8.297   4.966  0.9338  3.1722  1.7868
  160MOL0     H22054  10.030   8.558   4.969 -1.2767 -1.6403 -0.0295
  160MOL0     H22055   9.939   8.565   4.838 -0.0303 -0.6657  0.4608
  160MOL0     H22056  10.139   8.472   4.695  1.6194 -0.6034 -0.3933
  160MOL0     H22057  10.225   8.423   4.827  0.5442  0.5300  0.4228
  160MOL0     H22058  10.321   8.617   4.786  0.5364 -0.8467 -0.1989
  160MOL0     H22059  10.197   8.679   4.891  3.0115 -0.5610  0.9742
  160MOL0     H22060   9.592   8.216   4.150  0.3387 -0.4693  1.6141
  160MOL0     H22061   9.432   8.268   3.986 -2.1355 -2.0588  0.2233
  160MOL0     H22062   9.100   8.634   3.985  0.9442 -1.8088 -0.0526
  160MOL0     H22063   8.956   8.769   3.832 -0.0589 -0.8872  0.4609
  160MOL0     H22064   8.068   9.735   4.053 -1.2636  1.9018 -0.8119
  160MOL0     H22065   8.020   9.974   4.093  1.0225  0.8528 -0.3909
  160MOL0     H22066   8.183  10.364   4.167  1.0537 -0.1424 -1.2273
  160MOL0     H22067   8.114  10.621   4.235  0.2127 -0.7529  0.6082
  160MOL0     H22068   7.990  10.769   4.298 -0.7184  0.7390  1.2132
  160MOL0     H22069   7.869  10.882   4.258 -2.0035 -0.3256 -2.4890
  160MOL0     H22070   7.801  10.684   4.395  2.8232 -4.1411 -0.1409
  160MOL0     H22071   7.814  10.589   4.241  1.7865  0.9479 -2.0867
  160MOL0     H22072   7.629  10.828   4.307 -0.0636 -0.7536  0.9337
  160MOL0     H22073   7.639  10.768   4.150 -2.0848 -3.5870 -0.3851
  160MOL0     H22074   7.568  10.543   4.224  0.3515  1.2467 -0.9876
  160MOL0     H22075   7.450  10.676   4.238 -1.0325 -2.3758 -0.8438
  160MOL0     H22076   7.440  10.556   4.627  2.7401  0.4933  2.0563
  160MOL0     H22077   7.914  10.660   3.873 -1.3984 -0.8705 -0.0136
  160MOL0     H22078   7.967  10.334   3.726 -1.8876  0.1737 -1.2386
  160MOL0     H22079   7.923  10.500   3.705  1.1326 -0.2505 -1.6398
  160MOL0     H22080   8.091  10.457   3.686 -0.7336  0.1043 -0.4140
  161MOL0     O22081   9.558   2.558   2.258  0.2783  0.4492 -0.2987
  161MOL0     C22082   9.464   2.472   2.272 -0.5117 -0.4335 -1.4912
  161MOL0     O22083   9.440   2.370   2.181 -0.5172 -0.6573  0.3864
  161MOL0     C22084   9.335   2.288   2.206 -0.7350  1.3807  1.2118
  161MOL0     C22085   9.354   2.162   2.255 -0.6503 -0.6810  0.3681
  161MOL0     C22086   9.251   2.076   2.260 -0.2684 -0.9096 -0.3386
  161MOL0     C22087   9.118   2.107   2.231 -0.1698  0.5601 -0.0026
  161MOL0     O22088   9.024   2.005   2.229 -0.7217 -0.0779  0.0038
  161MOL0     C22089   8.940   2.010   2.346  0.5459  0.1910 -0.0838
  161MOL0     C22090   9.020   1.979   2.469 -0.0764 -0.2795  0.7361
  161MOL0     C22091   8.932   1.944   2.594  0.1612  0.3707  0.1950
  161MOL0     C22092   8.807   2.029   2.615  0.2769  1.0037 -0.5765
  161MOL0     C22093   8.737   1.990   2.754 -0.4752  0.1547 -0.3165
  161MOL0     C22094   8.820   2.043   2.870 -0.2988  0.2069 -0.3220
  161MOL0     C22095   8.735   2.071   2.998 -0.9349 -0.4881 -0.2933
  161MOL0     C22096   8.817   2.156   3.099  0.9982  0.2463 -0.2567
  161MOL0     N22097   8.873   2.057   3.197 -0.0619 -1.0390  0.1550
  161MOL0     C22098   8.816   2.007   3.312  0.2964  0.5735  0.5944
  161MOL0     C22099   8.903   1.915   3.357 -0.1608 -0.3248 -0.1397
  161MOL0     C22100   8.884   1.815   3.474 -0.2861 -0.5541  1.0808
  161MOL0     C22101   8.878   1.896   3.604  0.1422  1.6757 -0.1949
  161MOL0     C22102   8.949   1.808   3.707 -0.2155 -0.5836 -1.3002
  161MOL0     C22103   8.952   1.879   3.849  0.0410  0.7417  0.3346
  161MOL0     O22104   8.810   1.917   3.875 -0.5413 -0.1842  0.2753
  161MOL0     C22105   8.786   2.031   3.954 -1.0719 -0.2736  0.6522
  161MOL0     C22106   8.888   2.084   4.034  0.4567  0.4763  0.4895
  161MOL0     C22107   8.864   2.196   4.107 -0.5620  0.2318  0.1837
  161MOL0     C22108   8.990   2.244   4.178  1.1182 -0.5739 -1.1192
  161MOL0     C22109   8.737   2.258   4.117  0.8252  0.7899  0.8703
  161MOL0     C22110   8.709   2.381   4.201  0.8488 -0.0307 -0.1122
  161MOL0     O22111   8.780   2.397   4.324  0.7007  0.1314 -0.0440
  161MOL0     C22112   8.765   2.515   4.392  0.1258 -0.6708  0.3412
  161MOL0     C22113   8.654   2.536   4.481 -0.5843  0.1600  0.3097
  161MOL0     C22114   8.636   2.660   4.535  0.7818 -0.2608  0.9221
  161MOL0     C22115   8.738   2.756   4.521 -0.7235 -0.0644 -1.1470
  161MOL0     O22116   8.756   2.868   4.603 -0.3926  0.4156  0.0269
  161MOL0     C22117   8.689   2.877   4.727  0.3034 -0.2873 -0.7747
  161MOL0     C22118   8.667   3.032   4.757  0.5293 -0.0354  0.5155
  161MOL0     C22119   8.587   3.061   4.879  0.4255 -0.3789 -0.6540
  161MOL0     C22120   8.543   3.212   4.904  0.5688  0.8239 -0.4251
  161MOL0     C22121   8.412   3.211   4.986 -0.2168  0.3495  0.1769
  161MOL0     C22122   8.319   3.338   4.988  0.0018 -0.2791 -0.6539
  161MOL0     C22123   8.393   3.470   5.028  0.4566 -0.0560  0.0284
  161MOL0     C22124   8.289   3.579   5.065  0.3584 -0.5902 -0.3008
  161MOL0    Cl22125   8.367   3.728   5.144  0.1147 -0.1581 -0.0532
  161MOL0     C22126   8.845   2.737   4.437 -0.0546  0.6431  0.1821
  161MOL0     C22127   8.858   2.614   4.368 -0.0831 -0.3285 -0.0973
  161MOL0     O22128   8.612   2.452   4.168  0.2444 -0.1976  0.3879
  161MOL0     C22129   8.630   2.198   4.048  1.1142 -0.8829  0.4638
  161MOL0     C22130   8.654   2.089   3.960  0.1470  0.2241 -0.1994
  161MOL0     N22131   9.015   1.911   3.278 -0.3781 -0.5421  0.7227
  161MOL0     N22132   8.990   1.993   3.175  0.8076  0.0693  0.0800
  161MOL0     C22133   9.088   2.245   2.203 -0.6702  0.4948  0.2140
  161MOL0     C22134   9.195   2.325   2.185 -0.8141  0.1181  0.5664
  161MOL0     C22135   9.375   2.499   2.387 -0.6174  0.3669  0.1054
  161MOL0     C22136   9.371   2.416   2.496  0.4589  0.0720  0.0979
  161MOL0     C22137   9.288   2.446   2.607  0.1196  0.3866 -0.3752
  161MOL0     C22138   9.204   2.562   2.609 -0.3686 -0.0557  0.7470
  161MOL0     O22139   9.128   2.611   2.712  0.4129 -0.5014  0.2434
  161MOL0     C22140   9.124   2.546   2.835 -0.1536 -0.4901  0.3801
  161MOL0     C22141   9.036   2.422   2.820  0.0841 -0.1947  0.0959
  161MOL0     C22142   8.883   2.453   2.836  0.1215  0.3111 -0.2761
  161MOL0     C22143   8.832   2.491   2.977 -0.5692  0.3582 -0.3560
  161MOL0     C22144   8.682   2.486   2.980 -0.3043  0.3966  0.0415
  161MOL0     C22145   8.562   2.480   2.980 -0.8732  0.8607 -0.5300
  161MOL0     C22146   9.212   2.640   2.492  0.5612  0.4412  0.4153
  161MOL0     C22147   9.293   2.606   2.381  0.7433  0.0168 -0.6571
  161MOL0     C22148   9.269   2.684   2.254  1.2139  0.2450 -0.3105
  161MOL0     H22149   9.456   2.129   2.267  0.7485  2.1439 -2.5519
  161MOL0     H22150   9.266   1.970   2.278 -0.6509 -0.4733  3.2559
  161MOL0     H22151   8.878   1.921   2.349  1.6017 -0.6557 -1.6997
  161MOL0     H22152   8.873   2.096   2.348  1.0639  0.6034 -0.0806
  161MOL0     H22153   9.083   1.897   2.436  0.9705  0.9713 -0.4820
  161MOL0     H22154   9.081   2.063   2.505  0.5615 -1.3478  2.2416
  161MOL0     H22155   8.891   1.844   2.582 -0.6824  0.6060  1.0520
  161MOL0     H22156   8.993   1.938   2.685 -1.5811 -1.0893  1.3288
  161MOL0     H22157   8.831   2.135   2.615 -2.3545  1.6748 -1.5576
  161MOL0     H22158   8.742   2.002   2.531  3.9577 -0.1884 -3.2908
  161MOL0     H22159   8.728   1.881   2.764  0.1000 -0.0270 -1.5475
  161MOL0     H22160   8.637   2.033   2.765 -0.1241  0.8542  0.2511
  161MOL0     H22161   8.899   1.970   2.887  0.5866  0.2886 -3.4509
  161MOL0     H22162   8.874   2.132   2.836 -1.5381  1.0126 -0.2782
  161MOL0     H22163   8.694   1.977   3.036 -1.9762  0.1481  0.1879
  161MOL0     H22164   8.647   2.133   2.979 -1.9711 -0.9821  2.3382
  161MOL0     H22165   8.896   2.201   3.038 -0.0928  1.1645 -1.0238
  161MOL0     H22166   8.762   2.238   3.147 -0.4559 -1.0509  0.3625
  161MOL0     H22167   8.717   2.010   3.357 -0.2001 -2.6371 -0.0370
  161MOL0     H22168   8.969   1.748   3.489 -0.6627 -1.1860  0.4310
  161MOL0     H22169   8.802   1.745   3.459 -1.3769  1.0376 -0.7201
  161MOL0     H22170   8.933   1.990   3.596  2.0321  0.8026  1.4793
  161MOL0     H22171   8.773   1.903   3.635  0.1005 -0.3739  0.2865
  161MOL0     H22172   8.892   1.715   3.714 -2.3413  0.5946 -1.8358
  161MOL0     H22173   9.056   1.791   3.696  0.6470  3.4158 -0.6750
  161MOL0     H22174   8.994   1.808   3.921  0.8308  2.3825  1.5440
  161MOL0     H22175   9.015   1.968   3.846  1.9544 -0.5778 -1.2566
  161MOL0     H22176   8.986   2.037   4.028 -0.7727 -2.2463  0.2075
  161MOL0     H22177   8.986   2.197   4.277  0.1116 -0.8365 -1.2754
  161MOL0     H22178   8.998   2.351   4.199  1.0840 -1.0128  1.5155
  161MOL0     H22179   9.079   2.217   4.121  1.3736 -0.2181 -0.8920
  161MOL0     H22180   8.585   2.453   4.491 -1.0716  0.2643 -1.7940
  161MOL0     H22181   8.551   2.677   4.601  0.5943  2.5481  0.0669
  161MOL0     H22182   8.596   2.820   4.725 -0.3038  0.6792 -0.2976
  161MOL0     H22183   8.734   2.836   4.818  0.7641 -0.9651 -1.2910
  161MOL0     H22184   8.767   3.076   4.756 -0.1424  1.5522  0.5691
  161MOL0     H22185   8.612   3.076   4.673  0.8605  0.8766  0.7729
  161MOL0     H22186   8.644   3.015   4.961  0.5193  0.5645 -0.1852
  161MOL0     H22187   8.499   2.997   4.862  1.4267 -1.5056 -1.8231
  161MOL0     H22188   8.532   3.251   4.802 -0.4024 -1.6310 -1.3351
  161MOL0     H22189   8.620   3.263   4.961  1.6558 -2.7374  1.5556
  161MOL0     H22190   8.347   3.129   4.952  1.7039 -0.8848 -0.7002
  161MOL0     H22191   8.437   3.176   5.086  0.7407  0.6885  0.0621
  161MOL0     H22192   8.246   3.323   5.068  0.8946 -3.1113 -0.2763
  161MOL0     H22193   8.249   3.353   4.906 -1.6273 -0.5111  0.6379
  161MOL0     H22194   8.464   3.502   4.952  0.6448  1.1892  0.6838
  161MOL0     H22195   8.445   3.446   5.121 -1.7400 -2.2172  0.7966
  161MOL0     H22196   8.224   3.530   5.138  0.1781  1.8432  1.2650
  161MOL0     H22197   8.231   3.608   4.976  2.8670  0.9032 -1.5623
  161MOL0     H22198   8.923   2.812   4.424  1.8914 -1.0348  1.6062
  161MOL0     H22199   8.938   2.600   4.296  1.4499  0.1283  1.4251
  161MOL0     H22200   8.533   2.247   4.047  0.0763 -2.8322  0.2014
  161MOL0     H22201   8.580   2.048   3.892 -1.6085  0.9617  1.1949
  161MOL0     H22202   8.985   2.275   2.190 -1.2456 -1.2044  0.6106
  161MOL0     H22203   9.187   2.427   2.147  1.3381 -0.7371 -2.6629
  161MOL0     H22204   9.437   2.329   2.499  0.6218  0.2046  0.3174
  161MOL0     H22205   9.307   2.385   2.695 -1.3565 -0.5762 -0.6777
  161MOL0     H22206   9.224   2.519   2.868  0.2329  0.0350 -0.3348
  161MOL0     H22207   9.083   2.627   2.897  0.9672 -0.2184  0.7778
  161MOL0     H22208   9.053   2.368   2.913 -0.7860  0.4164  0.6338
  161MOL0     H22209   9.058   2.364   2.731  2.3484 -1.6870  1.5322
  161MOL0     H22210   8.844   2.538   2.781 -0.7419 -0.2016 -0.4879
  161MOL0     H22211   8.824   2.368   2.800 -0.3289  1.4844 -2.4367
  161MOL0     H22212   8.869   2.586   3.015 -2.8929  0.2248  2.5710
  161MOL0     H22213   8.869   2.417   3.049 -0.7502 -0.1213 -0.7473
  161MOL0     H22214   8.457   2.467   2.964 -1.4084  0.4571  2.6874
  161MOL0     H22215   9.153   2.731   2.490 -1.2411 -0.5290  3.3873
  161MOL0     H22216   9.348   2.676   2.179  4.0704 -2.9871  2.6697
  161MOL0     H22217   9.172   2.639   2.229  1.2356 -3.3109  4.5385
  161MOL0     H22218   9.238   2.787   2.276 -1.6934 -0.7269  0.6749
  162MOL0     O22219   4.003  10.967   9.481 -0.2370 -0.0961 -0.0980
  162MOL0     C22220   3.973  11.060   9.400 -0.0144 -0.1495  0.4444
  162MOL0     O22221   4.024  11.193   9.405  0.1699 -0.4478  0.4247
  162MOL0     C22222   4.143  11.200   9.476  1.1663 -0.0843  0.0481
  162MOL0     C22223   4.259  11.169   9.411 -1.3250 -0.2531  0.4181
  162MOL0     C22224   4.375  11.187   9.475  0.4459 -0.0921  0.2630
  162MOL0     C22225   4.376  11.240   9.610  0.1745  0.1934  0.5270
  162MOL0     O22226   4.495  11.270   9.678  0.2680 -0.1653 -0.4361
  162MOL0     C22227   4.601  11.321   9.599  0.0507 -0.0486  0.4729
  162MOL0     C22228   4.719  11.342   9.699 -0.7823  0.5525 -0.2186
  162MOL0     C22229   4.696  11.479   9.772 -0.0035  0.3470 -0.0098
  162MOL0     C22230   4.718  11.481   9.925  0.2414 -0.4089 -0.3584
  162MOL0     C22231   4.664  11.611   9.989  0.0817 -0.7312 -0.2926
  162MOL0     C22232   4.701  11.748   9.924 -0.6460  0.6619  0.4571
  162MOL0     C22233   4.844  11.780   9.918  0.2135  0.0709 -0.4062
  162MOL0     C22234   4.913  11.834  10.048 -0.1667  0.1674  0.4195
  162MOL0     N22235   4.892  11.973  10.086 -0.0828 -0.1089  0.6873
  162MOL0     C22236   4.920  12.081  10.012 -0.2189 -0.0716  0.0736
  162MOL0     C22237   4.900  12.182  10.101 -0.1157 -0.0656  0.1146
  162MOL0     C22238   4.914  12.328  10.071 -0.9018 -0.5242 -0.5824
  162MOL0     C22239   4.782  12.403  10.053 -0.4076 -0.7243 -0.1321
  162MOL0     C22240   4.800  12.539   9.981  0.0300 -0.0445  0.0328
  162MOL0     C22241   4.898  12.636  10.044 -0.4693  0.0507  0.0396
  162MOL0     O22242   4.847  12.763  10.074 -0.2925  0.0930  0.1367
  162MOL0     C22243   4.936  12.864  10.101  0.1721 -0.7075  0.3129
  162MOL0     C22244   5.060  12.843  10.172  0.3459  0.5771 -0.1785
  162MOL0     C22245   5.138  12.951  10.222  1.3959 -0.3254 -0.0421
  162MOL0     C22246   5.256  12.902  10.316  0.6336 -0.6348  0.9240
  162MOL0     C22247   5.099  13.091  10.197  1.3933 -0.1642 -0.4065
  162MOL0     C22248   5.179  13.206  10.236  0.0199 -0.0650 -0.3421
  162MOL0     O22249   5.110  13.316  10.247  0.3515 -1.0538 -0.7315
  162MOL0     C22250   5.176  13.433  10.285 -0.0189 -0.1433  0.6746
  162MOL0     C22251   5.145  13.542  10.204 -0.0881  0.2867 -0.2776
  162MOL0     C22252   5.217  13.659  10.226 -0.3598 -0.2632  0.8692
  162MOL0     C22253   5.299  13.669  10.341 -0.9437  0.6294 -0.1419
  162MOL0     O22254   5.382  13.776  10.367  0.4258 -0.3268  0.3018
  162MOL0     C22255   5.332  13.902  10.320  0.0524  0.9328 -0.4312
  162MOL0     C22256   5.428  14.007  10.377  1.1857 -1.0737 -0.1451
  162MOL0     C22257   5.574  13.984  10.336  0.1209  0.4902  0.3920
  162MOL0     C22258   5.659  13.917  10.444 -0.4561 -0.5493  0.3280
  162MOL0     C22259   5.784  13.861  10.374 -0.4502  0.6381  1.2490
  162MOL0     C22260   5.848  13.759  10.475  0.6581 -0.3652  0.3608
  162MOL0     C22261   5.940  13.660  10.409  0.1286 -0.2452 -0.1004
  162MOL0     C22262   5.925  13.538  10.497 -0.8222 -0.4359 -0.3364
  162MOL0    Cl22263   6.064  13.426  10.443  0.4556  0.0377 -0.1322
  162MOL0     C22264   5.323  13.561  10.428 -1.0289  0.2106  0.3722
  162MOL0     C22265   5.255  13.443  10.398 -0.0000 -0.5377  0.8450
  162MOL0     O22266   5.302  13.193  10.237 -0.4141 -0.3796 -0.1143
  162MOL0     C22267   4.973  13.106  10.126  0.1775  0.1675  0.0713
  162MOL0     C22268   4.902  12.999  10.072  1.2728 -0.3344 -0.8509
  162MOL0     N22269   4.877  12.132  10.225  0.0066  0.4144 -0.0575
  162MOL0     N22270   4.868  12.008  10.216  0.3723  0.7211 -0.0706
  162MOL0     C22271   4.262  11.290   9.665  0.3903 -0.0855  0.1125
  162MOL0     C22272   4.146  11.261   9.599  1.2020 -0.6414 -0.0565
  162MOL0     C22273   3.882  11.033   9.282  0.1320  0.8273  0.5359
  162MOL0     C22274   3.861  11.136   9.195  0.0021  0.0332 -0.1240
  162MOL0     C22275   3.783  11.121   9.077 -0.0514  0.3606  0.6153
  162MOL0     C22276   3.720  10.996   9.056  0.5670 -0.2000 -0.5306
  162MOL0     O22277   3.629  11.003   8.952  0.0616 -0.3201 -0.3753
  162MOL0     C22278   3.501  10.934   8.968  0.1494  0.7666 -0.8558
  162MOL0     C22279   3.408  10.999   9.063 -0.3520  1.5330 -0.5811
  162MOL0     C22280   3.375  11.141   9.010  0.0809 -0.7634 -1.2093
  162MOL0     C22281   3.253  11.211   9.079  0.4024 -0.1568 -0.0052
  162MOL0     C22282   3.221  11.340   9.011  0.3684 -0.0545 -0.6512
  162MOL0     C22283   3.196  11.440   8.952 -0.5733 -0.4728 -0.8376
  162MOL0     C22284   3.734  10.889   9.145 -0.7533 -0.6568  0.1177
  162MOL0     C22285   3.817  10.909   9.262  0.1427  0.4700 -0.0247
  162MOL0     C22286   3.802  10.788   9.355  0.0393  0.0504 -0.2006
  162MOL0     H22287   4.247  11.145   9.306  0.7201  0.5776 -0.0464
  162MOL0     H22288   4.465  11.147   9.430 -0.7173  0.5325 -2.8692
  162MOL0     H22289   4.568  11.404   9.536  2.4110  1.5568  1.2350
  162MOL0     H22290   4.628  11.245   9.525  3.5713  2.2765 -0.8937
  162MOL0     H22291   4.725  11.259   9.770  0.1121 -0.9228 -1.9291
  162MOL0     H22292   4.813  11.346   9.642 -0.9384  0.6698 -0.4691
  162MOL0     H22293   4.764  11.549   9.722  0.7982 -0.6398 -0.3257
  162MOL0     H22294   4.591  11.507   9.763 -0.1760 -0.3969 -0.3653
  162MOL0     H22295   4.655  11.405   9.972 -0.5804 -2.1890 -4.0373
  162MOL0     H22296   4.823  11.459   9.945  0.1115 -2.5899 -1.7949
  162MOL0     H22297   4.703  11.612  10.092  0.5997  4.6474 -0.2501
  162MOL0     H22298   4.556  11.598   9.986 -0.1690  0.7933  0.6706
  162MOL0     H22299   4.661  11.742   9.822 -1.9754 -1.7859  1.0429
  162MOL0     H22300   4.649  11.828   9.977  1.4009  2.9110 -0.7536
  162MOL0     H22301   4.873  11.863   9.853  2.3622  0.2468  0.6682
  162MOL0     H22302   4.898  11.696   9.873  2.6037  0.7757  0.9805
  162MOL0     H22303   4.884  11.771  10.133 -1.6162  0.1565 -0.0546
  162MOL0     H22304   5.020  11.822  10.029  0.0434  2.9212 -0.5142
  162MOL0     H22305   4.934  12.102   9.907 -0.1748 -3.1884 -0.6428
  162MOL0     H22306   4.984  12.356   9.992  0.6458  0.1107  0.9392
  162MOL0     H22307   4.965  12.365  10.161  0.6860 -1.7268 -0.9351
  162MOL0     H22308   4.719  12.336   9.994  1.6809  0.0385 -3.5297
  162MOL0     H22309   4.740  12.425  10.152  1.4801  1.2178  0.3150
  162MOL0     H22310   4.830  12.523   9.877  1.5224  1.6900  0.1635
  162MOL0     H22311   4.704  12.592   9.976 -0.0730 -0.1925  0.4407
  162MOL0     H22312   4.921  12.582  10.136 -1.8213 -1.7209 -0.6064
  162MOL0     H22313   4.986  12.641   9.979  0.3247 -3.2805  0.6955
  162MOL0     H22314   5.093  12.740  10.182  0.8555  0.7976  0.4956
  162MOL0     H22315   5.295  12.802  10.296 -0.2539 -0.8175  0.0787
  162MOL0     H22316   5.221  12.899  10.419  1.5606 -0.9147  1.2408
  162MOL0     H22317   5.338  12.975  10.311  0.1916 -0.2112 -1.7377
  162MOL0     H22318   5.083  13.524  10.117 -1.6894 -0.7553  1.0155
  162MOL0     H22319   5.211  13.741  10.155 -0.2963 -1.5452 -0.6817
  162MOL0     H22320   5.334  13.901  10.210 -1.9046  0.5243 -0.5041
  162MOL0     H22321   5.233  13.932  10.356  0.5615  3.7974 -1.2027
  162MOL0     H22322   5.389  14.099  10.332  2.6065 -1.6176 -2.6992
  162MOL0     H22323   5.419  14.012  10.486  1.3114 -0.1006 -0.1738
  162MOL0     H22324   5.623  14.081  10.322 -0.4641  0.5787 -1.3949
  162MOL0     H22325   5.576  13.940  10.236 -2.2847  2.2992 -0.5453
  162MOL0     H22326   5.596  13.838  10.483  0.7165 -2.3141 -1.1934
  162MOL0     H22327   5.681  13.979  10.531 -1.4503 -1.8335  1.5236
  162MOL0     H22328   5.759  13.806  10.283  1.1447  1.6652  0.1479
  162MOL0     H22329   5.849  13.945  10.348  1.5194 -0.1853  3.1699
  162MOL0     H22330   5.773  13.715  10.542  1.4044 -2.1932  0.0718
  162MOL0     H22331   5.912  13.817  10.542  0.2657  2.3437 -1.4805
  162MOL0     H22332   6.038  13.706  10.399 -0.2577  1.2432  2.1422
  162MOL0     H22333   5.913  13.647  10.304 -0.4940 -0.2359  0.0513
  162MOL0     H22334   5.835  13.486  10.464 -0.9799 -0.5269  0.2209
  162MOL0     H22335   5.922  13.542  10.606  0.6120 -0.3700 -0.2790
  162MOL0     H22336   5.399  13.562  10.505  0.3380 -0.1170 -0.9237
  162MOL0     H22337   5.271  13.358  10.464  0.2744 -3.3167 -2.4904
  162MOL0     H22338   4.947  13.207  10.099 -0.0239 -0.2265 -1.3032
  162MOL0     H22339   4.815  13.014  10.008  0.7671 -0.7759 -0.2709
  162MOL0     H22340   4.271  11.343   9.760 -1.5614  2.7201 -1.1025
  162MOL0     H22341   4.058  11.298   9.652  0.9100 -0.1237 -0.8923
  162MOL0     H22342   3.909  11.232   9.211 -1.7902  0.6551  2.0581
  162MOL0     H22343   3.759  11.197   9.004  0.4268 -2.1439 -2.3927
  162MOL0     H22344   3.452  10.916   8.871  0.9845 -1.9515 -0.8736
  162MOL0     H22345   3.528  10.833   9.001  0.7178  1.0756 -0.3540
  162MOL0     H22346   3.459  10.996   9.160 -0.2600 -1.8172 -0.6071
  162MOL0     H22347   3.322  10.932   9.073  1.1954 -0.9292 -2.3994
  162MOL0     H22348   3.452  11.219   9.012 -1.1476  0.5772 -3.1074
  162MOL0     H22349   3.333  11.135   8.909 -5.7238  1.1793  0.7049
  162MOL0     H22350   3.290  11.223   9.181  2.6862  0.0587 -0.8092
  162MOL0     H22351   3.168  11.141   9.081  0.5637 -0.3853 -0.9469
  162MOL0     H22352   3.163  11.529   8.902  2.4176 -0.2415 -2.6276
  162MOL0     H22353   3.673  10.800   9.138 -2.9239  0.8061 -0.4420
  162MOL0     H22354   3.757  10.701   9.305  0.8875  0.5338 -1.9008
  162MOL0     H22355   3.900  10.761   9.394  0.3612  2.3679  0.7367
  162MOL0     H22356   3.740  10.823   9.438 -0.4997 -0.1746 -0.4961
  163MOL0     O22357   3.923   5.211  10.210  0.7657 -0.8378  0.3565
  163MOL0     C22358   3.824   5.181  10.145  0.6998 -0.0505 -0.3277
  163MOL0     O22359   3.828   5.139  10.014 -0.1457  0.1744  0.0082
  163MOL0     C22360   3.955   5.120   9.958 -0.3474 -0.0615  0.1162
  163MOL0     C22361   4.030   5.227   9.917 -0.1617 -0.2925 -0.2789
  163MOL0     C22362   4.142   5.218   9.830  0.2698  0.5065  0.1207
  163MOL0     C22363   4.192   5.088   9.804  0.0188  0.2747 -0.8075
  163MOL0     O22364   4.314   5.081   9.733  0.1981 -0.6019  0.3780
  163MOL0     C22365   4.405   4.992   9.774 -1.4341  1.1091 -0.0386
  163MOL0     C22366   4.472   5.012   9.906  0.2951 -0.2856 -0.6880
  163MOL0     C22367   4.586   4.924   9.944 -0.4234  0.1511 -0.4345
  163MOL0     C22368   4.546   4.777   9.961 -0.3178  0.6496  0.7770
  163MOL0     C22369   4.645   4.705  10.058 -0.0043 -0.4773  0.8296
  163MOL0     C22370   4.773   4.674   9.972 -0.5355 -0.0986 -0.1164
  163MOL0     C22371   4.891   4.606  10.054  0.6981 -0.2225  0.1175
  163MOL0     C22372   5.013   4.575   9.966 -0.2836 -0.6611  0.8635
  163MOL0     N22373   5.126   4.553  10.060  1.0163  0.5746 -0.7170
  163MOL0     C22374   5.235   4.632  10.091  1.1195 -0.2879 -0.7624
  163MOL0     C22375   5.308   4.562  10.185 -0.7224  0.6249  0.0381
  163MOL0     C22376   5.455   4.591  10.236  0.9917 -0.0525 -0.1558
  163MOL0     C22377   5.469   4.704  10.343 -0.5169  0.0771  0.6881
  163MOL0     C22378   5.576   4.810  10.314 -0.3350 -0.6556  0.5989
  163MOL0     C22379   5.613   4.880  10.448 -0.2203 -0.0743  0.8278
  163MOL0     O22380   5.492   4.956  10.497  0.6065  0.1710 -0.1158
  163MOL0     C22381   5.475   5.082  10.442  0.3136 -0.9084  0.2940
  163MOL0     C22382   5.383   5.169  10.503  0.4534  0.0663  0.9372
  163MOL0     C22383   5.373   5.306  10.477 -0.6469  0.7113  0.9443
  163MOL0     C22384   5.276   5.377  10.565 -0.1584  0.4890  0.5267
  163MOL0     C22385   5.460   5.370  10.372  0.0718  0.0603 -0.2544
  163MOL0     C22386   5.448   5.518  10.329  0.6814  0.3075 -0.1683
  163MOL0     O22387   5.556   5.559  10.263 -0.0617 -1.2000 -0.2219
  163MOL0     C22388   5.571   5.691  10.243  0.2483 -0.1945  0.6527
  163MOL0     C22389   5.533   5.756  10.126  0.3562  0.1350 -0.3432
  163MOL0     C22390   5.516   5.892  10.114 -1.1425 -0.3395  0.0119
  163MOL0     C22391   5.555   5.973  10.223  0.7411  0.5890 -0.0593
  163MOL0     O22392   5.528   6.112  10.237 -0.1913 -0.1459  0.1197
  163MOL0     C22393   5.494   6.185  10.114 -0.1214 -0.8431 -0.1758
  163MOL0     C22394   5.484   6.337  10.155  0.2474 -0.2240 -1.5735
  163MOL0     C22395   5.438   6.409  10.036  0.7177  0.2857 -0.2114
  163MOL0     C22396   5.282   6.412  10.025 -0.4392  0.5340  0.0033
  163MOL0     C22397   5.236   6.502   9.914 -0.5914 -0.4041 -0.1593
  163MOL0     C22398   5.288   6.467   9.767  0.2158 -0.2590  0.3899
  163MOL0     C22399   5.166   6.505   9.676 -0.4013  0.1515 -0.4221
  163MOL0     C22400   5.179   6.445   9.533 -0.6556 -1.1684  0.3712
  163MOL0    Cl22401   5.321   6.527   9.440  0.2643  0.2215  0.0395
  163MOL0     C22402   5.603   5.906  10.334  0.1484 -0.0930  0.3335
  163MOL0     C22403   5.620   5.771  10.348  0.6832 -0.1244  0.0846
  163MOL0     O22404   5.346   5.586  10.346  0.1130 -0.0157  0.1330
  163MOL0     C22405   5.548   5.279  10.304  0.8692 -0.1387  0.3036
  163MOL0     C22406   5.551   5.142  10.335 -0.0634 -0.0413  0.8918
  163MOL0     N22407   5.237   4.451  10.213  0.6642 -0.2925  0.4264
  163MOL0     N22408   5.143   4.436  10.127  0.3882  0.3502  0.3039
  163MOL0     C22409   4.132   4.975   9.867  1.2823  0.9926 -0.7683
  163MOL0     C22410   4.008   4.994   9.929 -0.0615 -0.5335  0.0063
  163MOL0     C22411   3.693   5.182  10.220 -0.5290  0.5240  1.6605
  163MOL0     C22412   3.671   5.279  10.312 -0.5013 -0.1303 -0.6299
  163MOL0     C22413   3.548   5.290  10.377 -1.3040 -0.7186 -0.3405
  163MOL0     C22414   3.444   5.203  10.344  0.9281  0.2094 -0.4292
  163MOL0     O22415   3.310   5.199  10.399  0.8541 -0.2222 -0.3625
  163MOL0     C22416   3.250   5.321  10.434 -1.3461 -0.4508 -0.3926
  163MOL0     C22417   3.105   5.300  10.445 -0.3179 -0.1093 -0.1081
  163MOL0     C22418   3.035   5.424  10.513 -0.4300 -0.5969  0.2143
  163MOL0     C22419   2.906   5.461  10.443 -0.3268 -0.7539 -0.0549
  163MOL0     C22420   2.809   5.351  10.463  0.6605  0.5295 -0.5269
  163MOL0     C22421   2.728   5.252  10.472  0.6510 -0.1073  0.0760
  163MOL0     C22422   3.471   5.098  10.251 -0.3973  0.3950  0.4767
  163MOL0     C22423   3.595   5.090  10.192  0.4353  0.1662 -0.5378
  163MOL0     C22424   3.610   4.969  10.104  0.6540 -0.0372  0.9393
  163MOL0     H22425   4.003   5.325   9.954  1.0946  0.5652 -1.5205
  163MOL0     H22426   4.202   5.304   9.802 -2.4388  2.6882  0.6361
  163MOL0     H22427   4.486   4.993   9.701 -1.5525  0.9891 -0.1744
  163MOL0     H22428   4.372   4.888   9.765  1.4273  0.1846 -0.7920
  163MOL0     H22429   4.497   5.116   9.927 -1.2554 -0.2095  1.1029
  163MOL0     H22430   4.388   4.986   9.971  0.9198 -0.9519 -0.1212
  163MOL0     H22431   4.667   4.946   9.874 -0.6387  2.1322 -0.1110
  163MOL0     H22432   4.614   4.963  10.042 -1.3705 -1.1524  0.3851
  163MOL0     H22433   4.446   4.783  10.005  1.5078  4.3372  5.1390
  163MOL0     H22434   4.531   4.722   9.867  0.2014  0.6762  0.6749
  163MOL0     H22435   4.606   4.609  10.092  1.9130 -0.9504  1.8687
  163MOL0     H22436   4.675   4.756  10.150  2.1662 -1.7983  0.9386
  163MOL0     H22437   4.752   4.607   9.889  2.1760  2.3934 -3.0570
  163MOL0     H22438   4.805   4.765   9.920  1.3995 -0.2073  0.7975
  163MOL0     H22439   4.864   4.518  10.113 -2.5255  0.0094 -0.8455
  163MOL0     H22440   4.923   4.681  10.127 -0.0236  0.0147  0.1896
  163MOL0     H22441   4.982   4.486   9.909 -2.4677 -1.1265  2.6412
  163MOL0     H22442   5.029   4.659   9.897 -2.6686 -1.2251 -0.4939
  163MOL0     H22443   5.257   4.733  10.059  1.0142  0.2755  0.8356
  163MOL0     H22444   5.521   4.614  10.153 -0.8640  2.6445 -0.9937
  163MOL0     H22445   5.475   4.496  10.286  2.8434  0.2641 -0.2269
  163MOL0     H22446   5.374   4.759  10.349 -0.8452 -0.4185  0.1283
  163MOL0     H22447   5.492   4.663  10.442  2.0271  1.1029  0.6045
  163MOL0     H22448   5.668   4.761  10.280 -0.3929 -0.3256 -0.0363
  163MOL0     H22449   5.534   4.885  10.248  0.4756 -1.3429 -0.7432
  163MOL0     H22450   5.639   4.808  10.526 -1.3900 -1.1285  0.2651
  163MOL0     H22451   5.698   4.946  10.430 -0.8061  1.2195  2.5313
  163MOL0     H22452   5.326   5.117  10.580 -0.3678  1.6958  1.4594
  163MOL0     H22453   5.207   5.445  10.514  0.0208 -0.5937 -1.2298
  163MOL0     H22454   5.330   5.424  10.648  1.2488 -1.3665  0.7143
  163MOL0     H22455   5.216   5.310  10.627  2.5268 -2.6918 -0.0309
  163MOL0     H22456   5.504   5.687  10.047  1.7040  2.0226 -2.6154
  163MOL0     H22457   5.494   5.938  10.018 -0.7218 -0.7545 -0.2832
  163MOL0     H22458   5.583   6.193  10.051 -1.0878  0.9100 -1.4307
  163MOL0     H22459   5.401   6.152  10.066 -0.7388 -0.5798  0.8051
  163MOL0     H22460   5.426   6.342  10.248  3.7726  1.0223  0.7487
  163MOL0     H22461   5.580   6.383  10.178  1.0430 -1.5301 -2.1705
  163MOL0     H22462   5.471   6.351   9.949  2.0847  2.1643 -1.0266
  163MOL0     H22463   5.473   6.513  10.040  0.2149  0.4768  4.2381
  163MOL0     H22464   5.249   6.456  10.120  2.6780  3.3841 -0.0417
  163MOL0     H22465   5.245   6.310  10.011 -2.7372  1.2160  0.5063
  163MOL0     H22466   5.127   6.496   9.919 -0.5357 -0.2206  2.1567
  163MOL0     H22467   5.275   6.602   9.933  1.6278 -0.6187 -2.9287
  163MOL0     H22468   5.311   6.361   9.756  0.8274 -0.2093  1.0967
  163MOL0     H22469   5.379   6.524   9.750 -1.8382  2.6632 -1.7978
  163MOL0     H22470   5.166   6.614   9.681  1.8959  0.1483  1.2566
  163MOL0     H22471   5.068   6.471   9.712 -1.0253 -1.3010 -3.2747
  163MOL0     H22472   5.083   6.467   9.486 -0.0956  1.9247  0.4382
  163MOL0     H22473   5.190   6.337   9.547  3.5075 -0.6019  3.4683
  163MOL0     H22474   5.632   5.973  10.413  1.4638  0.6560 -0.7489
  163MOL0     H22475   5.655   5.734  10.444 -0.7262  0.7275  0.9616
  163MOL0     H22476   5.621   5.315  10.232  2.2538  0.4920  1.9433
  163MOL0     H22477   5.615   5.080  10.273  2.4303  0.7930  2.4833
  163MOL0     H22478   4.168   4.873   9.859  1.6735  0.6293  3.2993
  163MOL0     H22479   3.949   4.911   9.968 -0.6690 -0.1123 -0.0055
  163MOL0     H22480   3.747   5.352  10.339 -0.9015  0.2893 -0.6238
  163MOL0     H22481   3.538   5.373  10.446 -1.9026 -1.8265  0.9664
  163MOL0     H22482   3.289   5.357  10.530 -2.0550 -2.2532  0.6165
  163MOL0     H22483   3.276   5.394  10.357 -0.7846 -0.3213 -0.0888
  163MOL0     H22484   3.087   5.205  10.496 -2.2204  0.9129  1.2577
  163MOL0     H22485   3.073   5.299  10.340 -1.4532  4.7719 -0.0819
  163MOL0     H22486   3.004   5.395  10.614 -0.0244  1.0494  0.8393
  163MOL0     H22487   3.111   5.501  10.527 -1.1136  0.2392 -0.5553
  163MOL0     H22488   2.916   5.486  10.337 -3.0015  0.1688 -0.1626
  163MOL0     H22489   2.874   5.554  10.490 -2.5416 -1.2908 -0.3941
  163MOL0     H22490   2.658   5.171  10.481 -2.3150  2.3401  0.3523
  163MOL0     H22491   3.401   5.017  10.234 -3.1151  2.1768  2.4328
  163MOL0     H22492   3.548   4.886  10.136  1.2605 -0.3519  1.3214
  163MOL0     H22493   3.581   4.989  10.001  0.8156  0.1125  0.9204
  163MOL0     H22494   3.712   4.929  10.106  0.3283 -0.8578  1.6958
  164MOL0     O22495   8.421  10.649   7.580 -0.4011 -0.3102 -0.0517
  164MOL0     C22496   8.360  10.564   7.516  0.0773 -0.3994  0.3581
  164MOL0     O22497   8.399  10.432   7.495 -0.5275 -0.0555  0.0276
  164MOL0     C22498   8.494  10.378   7.574  0.1089 -0.0965  0.1794
  164MOL0     C22499   8.618  10.416   7.534  0.3252 -0.5225 -0.0817
  164MOL0     C22500   8.730  10.377   7.608 -0.3096 -0.9366 -0.8251
  164MOL0     C22501   8.715  10.294   7.715 -0.2712  0.7417  0.6141
  164MOL0     O22502   8.832  10.252   7.783  0.2289 -0.5172 -1.0414
  164MOL0     C22503   8.847  10.303   7.918 -0.5752  0.7329  0.5887
  164MOL0     C22504   8.831  10.191   8.017 -0.4670  0.2702  0.0823
  164MOL0     C22505   8.881  10.219   8.155 -0.2087  0.0405 -0.8732
  164MOL0     C22506   8.774  10.239   8.254 -0.2545 -0.4819 -0.1592
  164MOL0     C22507   8.831  10.233   8.396 -0.2278  0.6715  1.2852
  164MOL0     C22508   8.735  10.254   8.506 -0.4753  0.9845 -0.0595
  164MOL0     C22509   8.793  10.216   8.636 -0.0610 -0.1332 -0.5147
  164MOL0     C22510   8.703  10.253   8.767 -0.4008  0.2822  0.3672
  164MOL0     N22511   8.697  10.398   8.791  0.4468 -0.4233  0.9370
  164MOL0     C22512   8.800  10.467   8.851  0.2845 -0.0360 -0.7840
  164MOL0     C22513   8.727  10.572   8.899  0.0915 -0.0547  0.8970
  164MOL0     C22514   8.775  10.659   9.014  1.0030 -0.1280 -0.4439
  164MOL0     C22515   8.714  10.632   9.159  0.4889 -0.4842 -0.0796
  164MOL0     C22516   8.763  10.728   9.267 -0.5494 -0.4909 -1.2638
  164MOL0     C22517   8.695  10.723   9.397 -0.2003 -0.1577 -0.2946
  164MOL0     O22518   8.716  10.850   9.469  0.0849 -0.2738 -0.0376
  164MOL0     C22519   8.725  10.842   9.611 -0.4001 -0.3111 -0.4319
  164MOL0     C22520   8.784  10.729   9.676 -0.2460 -0.3865 -0.7133
  164MOL0     C22521   8.774  10.698   9.810 -0.8909 -0.4208  0.2715
  164MOL0     C22522   8.835  10.570   9.864 -0.1277 -0.4702  0.3254
  164MOL0     C22523   8.706  10.790   9.892  0.1524  0.5024 -0.4515
  164MOL0     C22524   8.702  10.787  10.041 -0.0502 -0.4941  0.2313
  164MOL0     O22525   8.616  10.876  10.106  0.2187  0.1254  0.4041
  164MOL0     C22526   8.617  10.884  10.245 -0.0341 -0.2041  0.6085
  164MOL0     C22527   8.699  10.973  10.317 -0.5789 -0.3041 -0.1138
  164MOL0     C22528   8.695  10.976  10.461  0.7752 -0.2876 -0.1708
  164MOL0     C22529   8.594  10.903  10.528 -0.2288 -0.7457  0.7728
  164MOL0     O22530   8.603  10.910  10.666 -0.3419 -0.3724 -0.0822
  164MOL0     C22531   8.645  10.794  10.740  0.2573 -0.0206  0.0853
  164MOL0     C22532   8.727  10.831  10.862  0.2402 -0.7512  0.7448
  164MOL0     C22533   8.654  10.924  10.959 -0.1121  0.3479  0.1187
  164MOL0     C22534   8.554  10.853  11.041 -0.0710 -0.3087 -0.0843
  164MOL0     C22535   8.476  10.940  11.137 -0.4869  0.0140  0.0492
  164MOL0     C22536   8.545  10.960  11.270 -0.5946 -0.3168 -0.3638
  164MOL0     C22537   8.482  11.082  11.345 -0.2058  0.1438  0.4593
  164MOL0     C22538   8.557  11.218  11.323  1.0688  0.1052  0.7596
  164MOL0    Cl22539   8.647  11.252  11.178 -0.1902  0.1522  0.1311
  164MOL0     C22540   8.503  10.826  10.446  0.2431 -0.2112  0.4545
  164MOL0     C22541   8.521  10.805  10.306  0.9147 -1.0418  0.0979
  164MOL0     O22542   8.782  10.718  10.103  0.1581  0.3443  0.3394
  164MOL0     C22543   8.650  10.903   9.830  0.3881 -0.5970  0.5854
  164MOL0     C22544   8.656  10.924   9.693  0.9513  0.4698 -0.1473
  164MOL0     N22545   8.602  10.574   8.852  0.0280 -0.2058 -1.2646
  164MOL0     N22546   8.576  10.465   8.796 -0.8251  0.2200  0.1693
  164MOL0     C22547   8.586  10.231   7.743  0.1174  0.0774  0.4911
  164MOL0     C22548   8.484  10.275   7.668  0.5934  0.2263 -0.0125
  164MOL0     C22549   8.230  10.593   7.457  0.5965 -0.1064  0.6106
  164MOL0     C22550   8.177  10.492   7.369  0.3740 -0.0793  0.7383
  164MOL0     C22551   8.058  10.514   7.306  0.4778 -0.6900  0.2941
  164MOL0     C22552   7.984  10.620   7.340 -0.3294 -0.2828  0.0963
  164MOL0     O22553   7.881  10.640   7.257 -0.2214 -0.2494  0.0464
  164MOL0     C22554   7.762  10.692   7.316 -0.3134 -0.6426 -0.2800
  164MOL0     C22555   7.637  10.624   7.254 -0.6218  0.4735  0.3112
  164MOL0     C22556   7.639  10.464   7.248  0.0980 -0.8213  0.4918
  164MOL0     C22557   7.493  10.410   7.243 -0.4273 -0.1057  0.3932
  164MOL0     C22558   7.427  10.436   7.106 -0.3332  0.3784 -1.1294
  164MOL0     C22559   7.365  10.436   7.002 -0.2265  0.4109  0.7345
  164MOL0     C22560   8.026  10.706   7.444  0.6343 -0.0751 -0.1014
  164MOL0     C22561   8.147  10.691   7.512 -0.3130 -0.3341 -0.2469
  164MOL0     C22562   8.169  10.780   7.628 -0.4541 -0.2273 -1.4888
  164MOL0     H22563   8.637  10.479   7.448 -2.3812 -0.3326 -0.6165
  164MOL0     H22564   8.822  10.423   7.573 -2.0842  2.1809 -1.7692
  164MOL0     H22565   8.774  10.380   7.947  0.3441  1.6576  0.5130
  164MOL0     H22566   8.949  10.342   7.916 -0.4317  0.4048  1.3439
  164MOL0     H22567   8.728  10.156   8.015 -0.4480  0.2522 -1.6243
  164MOL0     H22568   8.895  10.118   7.967  0.7316 -0.2561  2.2287
  164MOL0     H22569   8.937  10.131   8.189 -1.2348 -0.2746  0.0384
  164MOL0     H22570   8.952  10.302   8.153 -2.3350  2.0503  1.3972
  164MOL0     H22571   8.730  10.337   8.234 -1.8107 -1.2138 -0.5066
  164MOL0     H22572   8.688  10.171   8.253  0.1622 -1.0106 -1.1604
  164MOL0     H22573   8.908  10.311   8.400 -0.3472  0.7839  1.3847
  164MOL0     H22574   8.890  10.141   8.403  1.2818  1.5060  0.2070
  164MOL0     H22575   8.691  10.354   8.511 -1.6871  0.3952  2.3669
  164MOL0     H22576   8.651  10.186   8.494  0.2072  0.3197 -1.2558
  164MOL0     H22577   8.882  10.278   8.651  2.3365 -2.5555 -3.4360
  164MOL0     H22578   8.821  10.110   8.637  0.7882  0.0407 -2.1862
  164MOL0     H22579   8.605  10.203   8.770 -0.1801 -0.3131 -1.3131
  164MOL0     H22580   8.751  10.208   8.855 -3.6686 -1.3879  1.4799
  164MOL0     H22581   8.896  10.425   8.878  0.0395 -0.4531 -0.5526
  164MOL0     H22582   8.764  10.762   8.979  2.5059  0.4282  0.5968
  164MOL0     H22583   8.884  10.645   9.015  1.3961  2.3669 -1.7379
  164MOL0     H22584   8.606  10.645   9.150  0.0659 -2.5937  1.4015
  164MOL0     H22585   8.732  10.527   9.181  1.1263  0.0098  2.0062
  164MOL0     H22586   8.869  10.708   9.290 -0.3054  0.9728 -0.9862
  164MOL0     H22587   8.754  10.833   9.237  0.3788  0.7850  2.3752
  164MOL0     H22588   8.591  10.692   9.380 -0.1071 -0.0925 -1.0352
  164MOL0     H22589   8.738  10.636   9.447  0.3370 -0.7048 -1.6628
  164MOL0     H22590   8.852  10.665   9.622 -2.5310 -1.5610 -2.4017
  164MOL0     H22591   8.758  10.513   9.916 -2.3684  0.2651 -1.9634
  164MOL0     H22592   8.926  10.591   9.922  2.9994  2.5236 -4.8668
  164MOL0     H22593   8.879  10.511   9.783 -0.2058 -1.1682  0.7829
  164MOL0     H22594   8.765  11.037  10.259 -0.4247 -0.9591 -0.6804
  164MOL0     H22595   8.768  11.036  10.516  0.7291 -0.3626 -0.0299
  164MOL0     H22596   8.565  10.728  10.773  1.0474 -2.2847 -2.1413
  164MOL0     H22597   8.721  10.737  10.685 -0.2886  0.2901 -1.0217
  164MOL0     H22598   8.777  10.745  10.909  1.5826 -0.3517  0.1087
  164MOL0     H22599   8.818  10.880  10.825 -0.8193  1.3896  0.8036
  164MOL0     H22600   8.597  11.001  10.905 -0.5729  0.9262  1.3830
  164MOL0     H22601   8.725  10.985  11.016  0.5399  1.3836 -1.7006
  164MOL0     H22602   8.619  10.786  11.098  0.1891  2.4751  3.2353
  164MOL0     H22603   8.485  10.801  10.973 -0.3909 -0.9183  0.6849
  164MOL0     H22604   8.456  11.038  11.094 -0.1106  0.3809  0.6951
  164MOL0     H22605   8.377  10.895  11.153 -0.8774  0.7576 -0.2307
  164MOL0     H22606   8.654  10.956  11.270 -0.5457  0.2501  1.6717
  164MOL0     H22607   8.526  10.866  11.323 -1.5179  0.1296  0.1298
  164MOL0     H22608   8.476  11.060  11.452  0.2672  0.5114  0.5646
  164MOL0     H22609   8.380  11.089  11.306  0.9567 -0.2141 -2.9867
  164MOL0     H22610   8.626  11.246  11.403  2.3326  4.4118 -1.5424
  164MOL0     H22611   8.486  11.301  11.328 -1.9206 -2.2518  1.2741
  164MOL0     H22612   8.431  10.764  10.498  1.2412 -1.4718  0.3944
  164MOL0     H22613   8.454  10.740  10.252 -0.1120  1.2029 -1.4913
  164MOL0     H22614   8.590  10.975   9.885  0.4137  1.3961 -1.7883
  164MOL0     H22615   8.618  11.013   9.644  1.9464  2.3091  2.2041
  164MOL0     H22616   8.567  10.152   7.815  0.0274 -1.2967 -1.0090
  164MOL0     H22617   8.383  10.240   7.690 -1.1286  2.9314 -2.6224
  164MOL0     H22618   8.233  10.407   7.332  2.4361  0.2786  2.7299
  164MOL0     H22619   8.015  10.444   7.235 -0.3255 -2.4261  2.3573
  164MOL0     H22620   7.764  10.660   7.421 -0.2607  1.8813  0.5386
  164MOL0     H22621   7.752  10.800   7.302 -1.3648 -0.3904  2.0029
  164MOL0     H22622   7.629  10.652   7.148  0.2057  1.9641  0.6148
  164MOL0     H22623   7.554  10.652   7.320  1.4171  2.5256  2.1723
  164MOL0     H22624   7.698  10.433   7.161  1.4765 -0.1148  1.1388
  164MOL0     H22625   7.685  10.428   7.340  3.0246  2.0228  0.3298
  164MOL0     H22626   7.434  10.461   7.320  0.1429  1.4842 -0.1700
  164MOL0     H22627   7.491  10.302   7.260  0.8641  0.0923  2.0462
  164MOL0     H22628   7.316  10.429   6.907 -0.0481  0.0519  0.6694
  164MOL0     H22629   7.958  10.788   7.467 -1.1124 -0.7265 -2.5575
  164MOL0     H22630   8.247  10.756   7.701 -0.8154  1.1760 -0.5870
  164MOL0     H22631   8.195  10.875   7.581 -0.7712  0.9366  0.5621
  164MOL0     H22632   8.073  10.803   7.676 -1.2361 -0.0385 -3.0702
  165MOL0     O22633   7.176   4.538   4.416  0.0356 -0.6830  0.4209
  165MOL0     C22634   7.239   4.603   4.332  1.0560 -0.5251  0.6861
  165MOL0     O22635   7.177   4.715   4.274  0.3330 -0.1756  0.4716
  165MOL0     C22636   7.075   4.774   4.342  0.0085  0.3275  0.0820
  165MOL0     C22637   7.097   4.876   4.424  0.4697 -0.4361 -0.7876
  165MOL0     C22638   6.994   4.941   4.492 -0.0330  1.1625  0.0853
  165MOL0     C22639   6.858   4.898   4.468  0.0175  0.6728  1.0004
  165MOL0     O22640   6.764   4.961   4.542 -0.1224 -0.1632  0.3189
  165MOL0     C22641   6.630   4.920   4.556  1.2614  0.0819  0.2943
  165MOL0     C22642   6.559   5.022   4.641 -0.0233 -0.0080 -0.2698
  165MOL0     C22643   6.569   5.161   4.574  0.0542 -0.1161 -0.1599
  165MOL0     C22644   6.475   5.262   4.646  0.7701 -0.2285  0.5066
  165MOL0     C22645   6.465   5.408   4.593 -0.0871  0.7001  0.3518
  165MOL0     C22646   6.390   5.508   4.684 -0.1458 -0.4502  1.3871
  165MOL0     C22647   6.392   5.646   4.609 -0.1664  0.2108  0.2452
  165MOL0     C22648   6.269   5.721   4.667  0.3545  0.2890 -0.4201
  165MOL0     N22649   6.296   5.868   4.661 -0.1669  0.3532 -0.4886
  165MOL0     C22650   6.338   5.944   4.549  0.2330 -0.6854 -0.7759
  165MOL0     C22651   6.356   6.065   4.603 -0.1359 -1.1344  0.3517
  165MOL0     C22652   6.386   6.193   4.527 -0.5546 -0.5845 -0.5604
  165MOL0     C22653   6.531   6.221   4.507 -0.7070  0.1241 -0.6107
  165MOL0     C22654   6.551   6.360   4.449 -0.8051  0.4352  0.0161
  165MOL0     C22655   6.683   6.386   4.387 -0.3560 -0.0762 -0.3950
  165MOL0     O22656   6.689   6.293   4.284  1.1562  0.2450 -0.1563
  165MOL0     C22657   6.779   6.311   4.179  0.2421  0.6679 -0.7476
  165MOL0     C22658   6.787   6.207   4.090 -0.8767  0.0552  0.3761
  165MOL0     C22659   6.868   6.206   3.979 -0.8628 -0.3656 -0.8190
  165MOL0     C22660   6.885   6.069   3.907  0.1467  0.0453  0.5926
  165MOL0     C22661   6.949   6.321   3.951 -0.5793 -0.1664 -0.1006
  165MOL0     C22662   7.039   6.345   3.832 -0.1545 -0.0160 -0.0438
  165MOL0     O22663   7.095   6.468   3.832 -0.2036 -1.1187  0.2179
  165MOL0     C22664   7.192   6.493   3.747 -0.0079  0.3230  0.5469
  165MOL0     C22665   7.303   6.412   3.706  0.1253  0.1858  0.0030
  165MOL0     C22666   7.400   6.474   3.635 -0.0170  0.4162  0.6281
  165MOL0     C22667   7.390   6.602   3.584  0.5182 -0.8330 -0.1571
  165MOL0     O22668   7.492   6.668   3.518  0.2058 -0.0785 -0.2834
  165MOL0     C22669   7.530   6.591   3.400 -0.2564  1.2689 -0.6168
  165MOL0     C22670   7.558   6.694   3.286 -0.3043  0.0935 -0.5786
  165MOL0     C22671   7.655   6.809   3.315  0.5124 -0.0983 -0.3548
  165MOL0     C22672   7.784   6.776   3.385  0.1799 -0.0914  0.8313
  165MOL0     C22673   7.857   6.903   3.421 -0.1634  0.2747  0.8269
  165MOL0     C22674   7.967   6.878   3.528  1.0504  0.7085 -0.0504
  165MOL0     C22675   8.024   7.007   3.561 -0.1472 -0.8211  0.6617
  165MOL0     C22676   8.118   6.983   3.683  0.0805 -0.6990 -0.2189
  165MOL0    Cl22677   8.202   7.137   3.710  0.2412 -0.2000  0.3046
  165MOL0     C22678   7.285   6.680   3.624  0.6349 -0.0641 -0.2403
  165MOL0     C22679   7.193   6.624   3.710 -0.2442 -0.0489  0.6715
  165MOL0     O22680   7.064   6.248   3.760 -0.5394 -0.6760 -0.2967
  165MOL0     C22681   6.921   6.434   4.029  1.0042 -0.6337 -1.1034
  165MOL0     C22682   6.842   6.429   4.143 -0.2600  1.0452 -0.0240
  165MOL0     N22683   6.330   6.057   4.746 -0.6756  0.1825  0.9102
  165MOL0     N22684   6.302   5.938   4.777  0.1628  0.6414  0.0834
  165MOL0     C22685   6.835   4.791   4.376  0.5139 -0.5563  0.2006
  165MOL0     C22686   6.945   4.732   4.309 -1.2076  0.6323 -0.2607
  165MOL0     C22687   7.371   4.546   4.274 -0.2106 -0.0440 -0.3155
  165MOL0     C22688   7.434   4.628   4.183  0.7203  0.7601  0.5358
  165MOL0     C22689   7.556   4.605   4.132 -0.9011  0.3100 -0.8339
  165MOL0     C22690   7.629   4.498   4.179 -0.5819  0.3651  0.3330
  165MOL0     O22691   7.763   4.492   4.142  0.2980  1.3562  0.4327
  165MOL0     C22692   7.845   4.415   4.232  1.0121 -0.8123  0.5267
  165MOL0     C22693   7.988   4.481   4.219  0.2295 -1.4211 -0.3195
  165MOL0     C22694   8.112   4.410   4.277  0.1760 -0.0405  0.3395
  165MOL0     C22695   8.146   4.432   4.426  0.0791  0.4853  0.1047
  165MOL0     C22696   8.281   4.393   4.459  0.1248  1.1014 -0.4423
  165MOL0     C22697   8.403   4.361   4.486  0.9067 -0.1981 -0.5272
  165MOL0     C22698   7.573   4.413   4.269 -0.0469  0.2746 -0.2813
  165MOL0     C22699   7.437   4.436   4.316 -0.0656 -0.0355 -0.4995
  165MOL0     C22700   7.372   4.332   4.407  1.0422  0.1625  0.3995
  165MOL0     H22701   7.199   4.907   4.444  0.5042 -0.0553 -1.5157
  165MOL0     H22702   7.018   5.014   4.568  0.5573  0.1787  0.8704
  165MOL0     H22703   6.628   4.821   4.603  2.5204 -0.4278 -0.6770
  165MOL0     H22704   6.580   4.931   4.459 -1.8007  1.7788  1.9089
  165MOL0     H22705   6.452   5.007   4.650 -0.2532  1.9534  0.7359
  165MOL0     H22706   6.605   5.031   4.740 -0.0663  3.6082 -0.4465
  165MOL0     H22707   6.670   5.199   4.555  0.0749 -0.0388  0.1008
  165MOL0     H22708   6.532   5.157   4.471 -0.6333 -0.6538  0.1010
  165MOL0     H22709   6.374   5.221   4.656  0.3205  0.3105 -1.3853
  165MOL0     H22710   6.517   5.253   4.746 -2.0256 -2.1938  1.6371
  165MOL0     H22711   6.435   5.414   4.488  0.3178  3.1024  0.3151
  165MOL0     H22712   6.569   5.441   4.590  0.8581 -1.7261  2.5519
  165MOL0     H22713   6.289   5.478   4.713 -0.1003 -0.9313  1.0557
  165MOL0     H22714   6.444   5.532   4.776 -0.2243  0.0961  1.2958
  165MOL0     H22715   6.378   5.637   4.501 -0.1881 -1.5982  0.3808
  165MOL0     H22716   6.493   5.680   4.635  0.5932  0.0662 -2.2532
  165MOL0     H22717   6.177   5.682   4.622 -0.2077 -2.3898  2.6841
  165MOL0     H22718   6.254   5.698   4.773 -0.9884 -1.8299 -1.0247
  165MOL0     H22719   6.328   5.912   4.445  1.5538 -1.8538 -0.5734
  165MOL0     H22720   6.331   6.269   4.584 -1.9822 -1.1599 -1.1346
  165MOL0     H22721   6.334   6.187   4.431 -1.9084  0.4261  0.0782
  165MOL0     H22722   6.592   6.222   4.598 -2.4756  0.5921  0.6317
  165MOL0     H22723   6.572   6.145   4.440  0.2733  1.8946 -2.0979
  165MOL0     H22724   6.469   6.371   4.378 -1.6329  3.9285  1.2818
  165MOL0     H22725   6.546   6.433   4.530  0.4398 -1.4566  1.8814
  165MOL0     H22726   6.685   6.490   4.352 -0.7486 -0.6634 -2.2565
  165MOL0     H22727   6.773   6.372   4.447 -0.4658 -0.1877 -0.2532
  165MOL0     H22728   6.733   6.114   4.100  1.1788 -1.4750 -1.7486
  165MOL0     H22729   6.992   6.045   3.901  0.5219  1.4517  1.0726
  165MOL0     H22730   6.838   6.086   3.811  0.3518  1.5482  0.7320
  165MOL0     H22731   6.857   5.979   3.962 -0.1727  0.1220  0.5558
  165MOL0     H22732   7.316   6.306   3.725 -0.7963 -0.1888 -1.2948
  165MOL0     H22733   7.494   6.423   3.615  1.5434  2.5169  2.2063
  165MOL0     H22734   7.625   6.547   3.433 -1.7433 -0.6244  1.4560
  165MOL0     H22735   7.469   6.507   3.368  1.1796 -0.5733  1.1899
  165MOL0     H22736   7.610   6.640   3.207 -0.5995 -2.1084  0.6691
  165MOL0     H22737   7.462   6.722   3.242 -0.7161 -1.1460 -0.4899
  165MOL0     H22738   7.602   6.890   3.366 -0.0418  0.4619 -1.7640
  165MOL0     H22739   7.681   6.840   3.213  1.3570 -0.2404 -0.1838
  165MOL0     H22740   7.847   6.700   3.339  1.1134 -0.6151  2.8576
  165MOL0     H22741   7.747   6.734   3.480 -1.6002  4.3895  2.4189
  165MOL0     H22742   7.889   6.957   3.332  0.4870  2.3433  2.2272
  165MOL0     H22743   7.784   6.972   3.466  0.2319  0.9101  0.5097
  165MOL0     H22744   8.039   6.804   3.492  0.7135  0.9712 -1.3170
  165MOL0     H22745   7.918   6.834   3.615 -0.3649 -2.2824 -2.1857
  165MOL0     H22746   7.954   7.088   3.581  0.1678  0.0329 -1.3986
  165MOL0     H22747   8.093   7.040   3.482  0.8631  3.4289  2.9761
  165MOL0     H22748   8.191   6.904   3.661  0.1756 -0.3694 -1.1472
  165MOL0     H22749   8.062   6.955   3.773 -0.6504  0.1237 -0.4045
  165MOL0     H22750   7.275   6.780   3.583  1.6865  0.1586  0.0076
  165MOL0     H22751   7.105   6.678   3.742 -0.6552 -0.1961 -0.1583
  165MOL0     H22752   6.968   6.530   4.014 -0.8514  0.4151 -0.5835
  165MOL0     H22753   6.835   6.514   4.211  2.6941  0.3786  1.3053
  165MOL0     H22754   6.736   4.751   4.357  1.6829 -2.9157 -1.4302
  165MOL0     H22755   6.944   4.658   4.229 -0.1264 -0.5120  0.7482
  165MOL0     H22756   7.384   4.723   4.166 -3.2668 -1.5008 -2.0800
  165MOL0     H22757   7.612   4.678   4.074 -0.5358  0.8331  0.1601
  165MOL0     H22758   7.812   4.413   4.337  1.8720 -2.7686  0.8044
  165MOL0     H22759   7.840   4.313   4.192 -1.0181  0.4102 -2.6966
  165MOL0     H22760   7.983   4.581   4.262 -3.9018 -1.0606 -1.2163
  165MOL0     H22761   8.000   4.479   4.110 -3.5356 -3.0805 -0.8610
  165MOL0     H22762   8.100   4.303   4.255  0.3014 -0.3800  1.8545
  165MOL0     H22763   8.198   4.439   4.215 -0.8524  1.0451 -0.6316
  165MOL0     H22764   8.087   4.389   4.507  0.4614 -0.2332  0.0017
  165MOL0     H22765   8.138   4.540   4.445 -0.3391  0.5289 -0.2948
  165MOL0     H22766   8.501   4.324   4.509  1.1666  0.0459 -1.2240
  165MOL0     H22767   7.635   4.333   4.305  0.2687  1.6603  2.5142
  165MOL0     H22768   7.367   4.366   4.511 -2.2740 -0.9456  0.7379
  165MOL0     H22769   7.269   4.315   4.376  1.5840 -5.1353  0.6214
  165MOL0     H22770   7.424   4.236   4.398  0.6267 -0.5307  3.8169
  166MOL0     O22771   2.618   1.036   0.467 -0.0156 -0.5302 -0.6144
  166MOL0     C22772   2.535   0.970   0.403 -0.3917 -1.1587  0.6569
  166MOL0     O22773   2.428   1.022   0.329 -0.5265  0.0802 -0.3371
  166MOL0     C22774   2.407   1.151   0.295  0.3295 -0.7941  0.6475
  166MOL0     C22775   2.469   1.265   0.344  0.1185 -0.7702  0.5645
  166MOL0     C22776   2.455   1.386   0.278 -0.2402  0.0005  0.5924
  166MOL0     C22777   2.380   1.397   0.151 -1.0055 -0.2447  0.0136
  166MOL0     O22778   2.353   1.520   0.089 -1.0323  0.3617  0.6287
  166MOL0     C22779   2.452   1.625   0.096 -0.0518 -0.1186  0.2567
  166MOL0     C22780   2.576   1.574   0.024  0.4138 -0.4127 -0.3177
  166MOL0     C22781   2.679   1.686  -0.001  0.3574 -0.5215  0.5099
  166MOL0     C22782   2.813   1.643  -0.063 -0.3702  0.7208  0.0768
  166MOL0     C22783   2.895   1.563   0.036 -0.0175 -0.2070 -0.2011
  166MOL0     C22784   3.049   1.558   0.000 -0.0375  0.1940  0.7033
  166MOL0     C22785   3.113   1.478   0.118  1.1904  0.1420  1.2890
  166MOL0     C22786   3.263   1.460   0.079  0.2564  0.4946 -1.1019
  166MOL0     N22787   3.339   1.382   0.171 -0.1102 -0.3188 -0.0390
  166MOL0     C22788   3.331   1.379   0.307 -0.8102  0.2490 -0.8679
  166MOL0     C22789   3.423   1.297   0.356 -0.6716  0.1371 -0.0638
  166MOL0     C22790   3.465   1.283   0.498  0.2008  0.2933 -0.1831
  166MOL0     C22791   3.499   1.141   0.542  0.4758 -0.6643  0.5227
  166MOL0     C22792   3.528   1.135   0.689  0.3026 -0.2527 -0.8557
  166MOL0     C22793   3.412   1.162   0.781  1.3553  0.5067 -1.4001
  166MOL0     O22794   3.299   1.088   0.738 -0.0231 -0.2846  0.1619
  166MOL0     C22795   3.199   1.071   0.822  0.9848 -0.1123 -0.4968
  166MOL0     C22796   3.096   0.999   0.766 -0.4977 -0.4330  0.1719
  166MOL0     C22797   2.983   0.964   0.842  0.2471 -0.8754 -0.1480
  166MOL0     C22798   2.889   0.870   0.779 -0.6647 -0.6675 -0.0757
  166MOL0     C22799   2.959   1.019   0.973 -0.2661 -0.2138  0.1248
  166MOL0     C22800   2.833   1.001   1.062 -0.5428 -0.4733  0.2090
  166MOL0     O22801   2.806   1.088   1.179 -0.5915  0.3977  0.9991
  166MOL0     C22802   2.707   1.051   1.260  0.0638  0.6670  0.1320
  166MOL0     C22803   2.579   1.102   1.240 -0.0232 -0.6295  0.0603
  166MOL0     C22804   2.477   1.068   1.329 -0.0057 -0.3404 -0.8411
  166MOL0     C22805   2.507   0.986   1.443 -0.4285 -0.2784  1.1222
  166MOL0     O22806   2.398   0.960   1.531 -0.1171  0.1317  0.0979
  166MOL0     C22807   2.381   0.826   1.587 -0.4811  0.4155  0.8225
  166MOL0     C22808   2.253   0.812   1.670  0.8302 -0.3963 -0.3517
  166MOL0     C22809   2.122   0.803   1.588 -0.0009 -0.2991  0.2331
  166MOL0     C22810   2.000   0.803   1.678  0.1105 -0.2762 -0.2782
  166MOL0     C22811   1.876   0.757   1.603 -1.0660  0.2440  0.5200
  166MOL0     C22812   1.760   0.717   1.682  0.4796 -0.1382  0.5735
  166MOL0     C22813   1.778   0.580   1.751 -0.5913 -0.4709 -0.2397
  166MOL0     C22814   1.663   0.536   1.844  0.1408 -0.3097 -0.1758
  166MOL0    Cl22815   1.632   0.675   1.955  0.1147  0.1472  0.0369
  166MOL0     C22816   2.633   0.921   1.456  0.1575 -0.1884  0.0875
  166MOL0     C22817   2.732   0.946   1.352  0.5597  0.0035 -0.1813
  166MOL0     O22818   2.768   0.900   1.030  0.0924 -0.3686  0.6338
  166MOL0     C22819   3.060   1.096   1.026  0.0619 -0.2855  0.6360
  166MOL0     C22820   3.176   1.119   0.958 -0.5229  0.8225 -0.9368
  166MOL0     N22821   3.462   1.223   0.248 -0.0033  0.2279 -0.3401
  166MOL0     N22822   3.404   1.269   0.140 -0.3614 -0.5005 -0.2978
  166MOL0     C22823   2.322   1.276   0.098 -0.1200 -0.8095 -0.2982
  166MOL0     C22824   2.326   1.163   0.177 -0.7204  0.6306  0.4936
  166MOL0     C22825   2.552   0.824   0.387 -1.1308 -0.8850 -0.0615
  166MOL0     C22826   2.642   0.764   0.481 -0.7882 -0.7120  0.8563
  166MOL0     C22827   2.669   0.627   0.471 -1.4509  0.4832 -0.2019
  166MOL0     C22828   2.618   0.547   0.368 -0.2199 -0.4289 -0.0598
  166MOL0     O22829   2.658   0.413   0.356 -0.6223 -0.0358 -0.1360
  166MOL0     C22830   2.664   0.345   0.232  0.7795  0.6327 -0.4972
  166MOL0     C22831   2.704   0.200   0.263 -0.4509 -0.7634  0.9362
  166MOL0     C22832   2.848   0.169   0.302 -0.4565 -0.3838 -0.2467
  166MOL0     C22833   2.883   0.208   0.454  0.2397 -0.9852  0.0094
  166MOL0     C22834   2.962   0.327   0.465 -0.3953  0.9904  0.2353
  166MOL0     C22835   3.034   0.425   0.467 -0.1051  1.1888  0.6045
  166MOL0     C22836   2.536   0.607   0.276 -0.1160 -0.6046 -0.4549
  166MOL0     C22837   2.506   0.742   0.281  0.1728  0.7971 -0.0537
  166MOL0     C22838   2.436   0.800   0.154 -0.7291 -0.5509 -0.0015
  166MOL0     H22839   2.542   1.246   0.422  2.5714 -1.2653 -1.6802
  166MOL0     H22840   2.505   1.477   0.309 -1.7267  1.0488  0.0661
  166MOL0     H22841   2.447   1.657   0.200 -2.1301 -2.3781  0.9572
  166MOL0     H22842   2.420   1.715   0.042  0.1888 -0.7193 -0.9079
  166MOL0     H22843   2.631   1.492   0.071  2.9172  0.3128 -1.7564
  166MOL0     H22844   2.554   1.536  -0.076 -0.5818 -2.9096  0.7767
  166MOL0     H22845   2.633   1.755  -0.073  2.8893  2.6238  1.6662
  166MOL0     H22846   2.712   1.733   0.092  1.4808 -1.1325  0.4332
  166MOL0     H22847   2.793   1.576  -0.147 -1.6319 -0.9054  1.5880
  166MOL0     H22848   2.872   1.730  -0.090 -0.5182  1.2570  1.4086
  166MOL0     H22849   2.848   1.470   0.070  3.2240 -1.0530  2.5082
  166MOL0     H22850   2.894   1.614   0.132  2.2544 -1.2519  0.4378
  166MOL0     H22851   3.064   1.518  -0.100  3.7826  1.8504  0.4264
  166MOL0     H22852   3.086   1.661   0.001 -0.0620  0.2950 -2.0937
  166MOL0     H22853   3.067   1.379   0.119  3.2850 -0.9032  0.6567
  166MOL0     H22854   3.089   1.539   0.206 -3.6164 -0.6269  0.7850
  166MOL0     H22855   3.252   1.413  -0.019  2.1006 -1.4201 -0.4474
  166MOL0     H22856   3.314   1.556   0.065 -0.0874  0.8906  0.1724
  166MOL0     H22857   3.278   1.454   0.365 -0.6522  1.1534 -1.8551
  166MOL0     H22858   3.394   1.337   0.561 -0.5023 -1.7365  0.8407
  166MOL0     H22859   3.559   1.339   0.500  1.1433 -1.2404  0.2371
  166MOL0     H22860   3.420   1.072   0.512 -0.0956  1.0355 -2.1534
  166MOL0     H22861   3.587   1.120   0.480 -0.3426  0.1860 -0.9778
  166MOL0     H22862   3.572   1.038   0.717  1.1882  0.0983 -0.9989
  166MOL0     H22863   3.602   1.213   0.709  0.3742 -0.5945  0.3108
  166MOL0     H22864   3.443   1.136   0.882 -1.6450 -1.8980 -0.9326
  166MOL0     H22865   3.384   1.268   0.789 -0.9992 -0.1219 -0.4219
  166MOL0     H22866   3.099   0.965   0.664  0.0595  1.8945 -0.6586
  166MOL0     H22867   2.931   0.818   0.692  0.8817 -2.0932  1.4508
  166MOL0     H22868   2.798   0.924   0.752  0.0177  1.1619  1.0798
  166MOL0     H22869   2.865   0.783   0.841 -0.5210 -1.6965 -1.4266
  166MOL0     H22870   2.558   1.160   1.151 -1.3280 -2.1772 -0.6921
  166MOL0     H22871   2.373   1.095   1.315 -1.2065 -2.7812  2.2623
  166MOL0     H22872   2.367   0.758   1.502  0.5225 -1.2300  1.9119
  166MOL0     H22873   2.476   0.796   1.632  0.8498 -0.7191 -2.4115
  166MOL0     H22874   2.264   0.714   1.716  1.6405 -0.9435 -1.6957
  166MOL0     H22875   2.242   0.895   1.741 -0.4712  1.0465 -2.1350
  166MOL0     H22876   2.119   0.716   1.521 -0.1830 -0.3596  0.3195
  166MOL0     H22877   2.112   0.894   1.528 -2.3062  0.7926  2.0908
  166MOL0     H22878   1.991   0.907   1.713  1.5760 -0.9397  2.3297
  166MOL0     H22879   2.022   0.743   1.767  0.3489 -2.4000 -1.7158
  166MOL0     H22880   1.849   0.837   1.534 -1.8867 -2.5800 -2.6883
  166MOL0     H22881   1.897   0.672   1.538 -2.3782  2.1755 -2.6749
  166MOL0     H22882   1.671   0.708   1.619 -0.5629 -0.2375  2.0085
  166MOL0     H22883   1.731   0.786   1.762 -0.6795 -2.1710  2.0262
  166MOL0     H22884   1.871   0.595   1.806 -0.8622 -0.4531  0.2184
  166MOL0     H22885   1.786   0.502   1.674 -0.6497 -2.4162  1.6176
  166MOL0     H22886   1.697   0.447   1.897  0.4388 -1.2894 -1.9324
  166MOL0     H22887   1.571   0.510   1.791 -1.5577  2.0960  1.3521
  166MOL0     H22888   2.658   0.848   1.532  0.1662 -0.7531 -0.4436
  166MOL0     H22889   2.829   0.899   1.353 -0.8702 -3.1908  0.5577
  166MOL0     H22890   3.053   1.138   1.126 -0.9515  0.9046  0.0990
  166MOL0     H22891   3.256   1.172   1.010  0.6584 -2.7177  1.1983
  166MOL0     H22892   2.260   1.284   0.010  0.3972 -0.4563 -0.6355
  166MOL0     H22893   2.274   1.085   0.122 -3.9671  3.1794 -0.3997
  166MOL0     H22894   2.697   0.827   0.550  0.6058  0.6214 -1.3179
  166MOL0     H22895   2.735   0.584   0.545 -0.3265  1.1709 -0.7727
  166MOL0     H22896   2.570   0.349   0.177  0.4259  0.5498  0.0934
  166MOL0     H22897   2.749   0.392   0.181  1.1473  0.2422 -0.2578
  166MOL0     H22898   2.688   0.143   0.171 -0.6018  0.3801  0.2339
  166MOL0     H22899   2.636   0.161   0.339  0.9880 -5.6247  0.1089
  166MOL0     H22900   2.882   0.068   0.278  0.1582  0.0720 -1.3955
  166MOL0     H22901   2.904   0.242   0.242 -0.6237 -0.1923 -0.1696
  166MOL0     H22902   2.942   0.123   0.490  0.5844 -0.9374 -0.4329
  166MOL0     H22903   2.789   0.224   0.508  0.1451 -0.5227 -0.2912
  166MOL0     H22904   3.093   0.514   0.463 -1.5431  2.1699 -2.8952
  166MOL0     H22905   2.480   0.560   0.196  1.3916  0.6278 -2.3312
  166MOL0     H22906   2.493   0.863   0.086  0.8489 -1.9170 -0.0051
  166MOL0     H22907   2.398   0.720   0.091 -2.4558  0.4366 -0.2749
  166MOL0     H22908   2.349   0.855   0.192 -0.2976  0.9312 -1.0861
  167MOL0     O22909   8.131  10.746   1.441 -0.7537  0.5783 -0.0157
  167MOL0     C22910   8.121  10.693   1.547  0.6847  0.0617  0.0184
  167MOL0     O22911   8.180  10.580   1.591  0.5567 -0.4845  0.2705
  167MOL0     C22912   8.287  10.524   1.527 -1.2773 -0.2373 -0.1804
  167MOL0     C22913   8.281  10.462   1.396  0.5655  0.0841 -1.1535
  167MOL0     C22914   8.389  10.399   1.351  0.1721  0.7232 -0.2386
  167MOL0     C22915   8.502  10.393   1.418 -0.4391 -0.3910  0.1074
  167MOL0     O22916   8.606  10.325   1.363  0.0859  0.4895  0.0251
  167MOL0     C22917   8.751  10.351   1.399 -0.7755 -0.7284 -0.9170
  167MOL0     C22918   8.844  10.260   1.320  0.8918  0.5663 -0.6766
  167MOL0     C22919   8.843  10.299   1.169  0.9554 -0.4725 -0.2274
  167MOL0     C22920   8.918  10.185   1.091  0.0032 -1.1719  0.4310
  167MOL0     C22921   8.944  10.244   0.944  0.2738  0.2847  0.8192
  167MOL0     C22922   9.002  10.135   0.849  0.1244  0.5479 -0.0598
  167MOL0     C22923   9.145  10.079   0.877  0.0262 -0.2969 -0.7557
  167MOL0     C22924   9.181   9.941   0.806  0.4301  0.2532  0.5385
  167MOL0     N22925   9.173   9.945   0.657  0.5425 -0.4873 -0.0590
  167MOL0     C22926   9.239  10.036   0.577 -0.7237  0.2602  1.0379
  167MOL0     C22927   9.207  10.000   0.451 -0.4605  0.6307  0.9359
  167MOL0     C22928   9.259  10.061   0.324  0.6320 -0.6558  0.1512
  167MOL0     C22929   9.339   9.962   0.237 -0.9318 -0.5918  0.3649
  167MOL0     C22930   9.409  10.043   0.125 -0.0702  0.2076 -0.5106
  167MOL0     C22931   9.475   9.963   0.024  0.0885 -0.0657 -0.1720
  167MOL0     O22932   9.383   9.895  -0.062 -0.2372  0.1212 -0.0239
  167MOL0     C22933   9.434   9.791  -0.148 -0.7524  0.5282 -0.5112
  167MOL0     C22934   9.570   9.746  -0.155 -0.7743  0.5836  0.3489
  167MOL0     C22935   9.612   9.637  -0.232 -1.2503  0.8435 -0.2447
  167MOL0     C22936   9.759   9.594  -0.218  0.0574  0.1809  1.0968
  167MOL0     C22937   9.511   9.564  -0.314  0.1219  0.6679 -0.1658
  167MOL0     C22938   9.539   9.447  -0.398  0.3047 -0.0992 -0.5209
  167MOL0     O22939   9.640   9.378  -0.370 -0.0626  0.4355 -0.3939
  167MOL0     C22940   9.676   9.283  -0.462  0.6348  0.0706  0.5064
  167MOL0     C22941   9.759   9.321  -0.564  0.3243  0.7833  0.2004
  167MOL0     C22942   9.795   9.233  -0.667  0.3251  0.1493 -0.1598
  167MOL0     C22943   9.759   9.097  -0.661  0.2878  0.0541  0.1924
  167MOL0     O22944   9.808   9.020  -0.766  0.5148  0.5731 -0.2368
  167MOL0     C22945   9.804   8.879  -0.753  0.7570 -0.3640  0.1232
  167MOL0     C22946   9.886   8.807  -0.860 -0.0352  0.1764  0.1220
  167MOL0     C22947   9.903   8.652  -0.835 -0.4414  0.0977  0.5149
  167MOL0     C22948  10.045   8.601  -0.879 -0.0437  0.1112 -0.4686
  167MOL0     C22949  10.044   8.450  -0.881  0.6362  0.6722 -0.2061
  167MOL0     C22950  10.162   8.405  -0.962  0.1407  0.2810  0.3867
  167MOL0     C22951  10.190   8.258  -0.956 -0.8100  1.1416 -0.2405
  167MOL0     C22952  10.073   8.172  -1.021  0.6568 -0.7517 -0.3251
  167MOL0    Cl22953  10.125   8.000  -1.006 -0.4228  0.3772  0.4269
  167MOL0     C22954   9.672   9.056  -0.557  0.9412  0.0961  0.2651
  167MOL0     C22955   9.628   9.150  -0.468 -0.8186  1.2790 -0.1423
  167MOL0     O22956   9.467   9.438  -0.501 -0.0968  0.2940 -0.7344
  167MOL0     C22957   9.387   9.619  -0.315 -0.0770 -0.6453  0.1556
  167MOL0     C22958   9.345   9.724  -0.236 -0.8793  0.0934  0.3523
  167MOL0     N22959   9.113   9.901   0.456 -0.1400  0.2116  0.6717
  167MOL0     N22960   9.087   9.869   0.586 -0.2257 -0.5766  0.2622
  167MOL0     C22961   8.516  10.454   1.544  0.3196 -0.5889 -1.0743
  167MOL0     C22962   8.406  10.518   1.603  0.2580  0.4132  0.1263
  167MOL0     C22963   8.020  10.742   1.638 -0.6705  0.0062 -0.0566
  167MOL0     C22964   8.049  10.862   1.700  1.5594 -0.8179  0.8904
  167MOL0     C22965   7.963  10.912   1.787  0.3797 -0.8929 -0.2313
  167MOL0     C22966   7.842  10.853   1.823  0.6928 -0.0553  1.2551
  167MOL0     O22967   7.758  10.914   1.923 -0.3827  0.0599  0.1704
  167MOL0     C22968   7.622  10.873   1.907  0.0662  0.5847  0.7517
  167MOL0     C22969   7.521  10.936   1.999 -0.2590 -0.0239 -0.5542
  167MOL0     C22970   7.506  10.859   2.137  0.6937  0.3445 -0.2203
  167MOL0     C22971   7.599  10.933   2.241  0.0266 -0.3195  0.3516
  167MOL0     C22972   7.582  10.874   2.373  0.6695  0.4899 -0.8911
  167MOL0     C22973   7.561  10.822   2.486  0.0852 -0.9696  0.1047
  167MOL0     C22974   7.813  10.730   1.755 -0.4635  0.4001 -0.1309
  167MOL0     C22975   7.901  10.672   1.667 -0.7986  0.1115  0.4651
  167MOL0     C22976   7.859  10.550   1.589 -0.3349 -0.0374 -0.8070
  167MOL0     H22977   8.191  10.475   1.336 -1.1928 -0.5857  1.1785
  167MOL0     H22978   8.390  10.359   1.250  0.0266 -1.1425  0.4518
  167MOL0     H22979   8.761  10.317   1.503 -1.5655  1.3252 -0.1299
  167MOL0     H22980   8.765  10.458   1.384 -0.6285 -0.2653  1.9391
  167MOL0     H22981   8.947  10.258   1.356  0.5574 -1.3792  0.3360
  167MOL0     H22982   8.819  10.154   1.336 -0.6673  1.0177  0.1206
  167MOL0     H22983   8.740  10.307   1.133  1.4453  1.0276 -1.4161
  167MOL0     H22984   8.903  10.390   1.166 -0.1279  0.3005  0.6731
  167MOL0     H22985   9.015  10.169   1.138 -1.1518 -1.7871  2.7709
  167MOL0     H22986   8.870  10.087   1.084 -1.0625 -0.5524 -2.0816
  167MOL0     H22987   9.011  10.331   0.950 -0.9795  1.5903 -1.9200
  167MOL0     H22988   8.851  10.281   0.899  0.0667 -1.6800 -0.4816
  167MOL0     H22989   8.936  10.048   0.852  2.4740 -1.4483 -1.9672
  167MOL0     H22990   8.993  10.181   0.750 -3.7368 -0.8569 -0.5068
  167MOL0     H22991   9.156  10.052   0.983  3.3731  2.4151 -0.2284
  167MOL0     H22992   9.217  10.156   0.851 -1.5703  1.2203 -0.8615
  167MOL0     H22993   9.285   9.918   0.830  0.0604  0.4344  2.5263
  167MOL0     H22994   9.113   9.862   0.841 -0.7695  0.9963 -0.0450
  167MOL0     H22995   9.314  10.101   0.621 -1.0820 -0.0022  2.0502
  167MOL0     H22996   9.309  10.156   0.346  0.2850  0.2007 -2.3710
  167MOL0     H22997   9.167  10.095   0.275  0.1407 -0.9619  0.8500
  167MOL0     H22998   9.413   9.917   0.304 -0.1440 -0.0986 -0.1538
  167MOL0     H22999   9.266   9.890   0.199  1.5031 -2.9511 -0.0801
  167MOL0     H23000   9.330  10.104   0.079 -3.5844 -3.0814  0.6451
  167MOL0     H23001   9.485  10.110   0.167  0.8967  0.1705 -2.1476
  167MOL0     H23002   9.538  10.029  -0.037  1.7649 -1.2373  0.2445
  167MOL0     H23003   9.542   9.885   0.062  0.2263 -1.0404 -2.2527
  167MOL0     H23004   9.643   9.801  -0.096  0.7386  0.8942 -1.7064
  167MOL0     H23005   9.814   9.613  -0.310 -1.5237 -0.4507 -0.0232
  167MOL0     H23006   9.772   9.487  -0.199 -2.5739 -0.7875 -1.7355
  167MOL0     H23007   9.812   9.647  -0.138 -2.1380  2.1591  1.3537
  167MOL0     H23008   9.799   9.421  -0.550  0.9631  0.6478 -0.5874
  167MOL0     H23009   9.850   9.279  -0.749  2.1102  0.0134  0.9268
  167MOL0     H23010   9.846   8.856  -0.655  1.8992  0.5575 -0.1207
  167MOL0     H23011   9.706   8.832  -0.752  2.0499 -3.2692  0.0179
  167MOL0     H23012   9.842   8.821  -0.959 -1.7708 -0.8929  0.6906
  167MOL0     H23013   9.984   8.855  -0.868 -0.5559  1.3451  0.4976
  167MOL0     H23014   9.830   8.607  -0.902  2.0267 -2.8906 -0.3646
  167MOL0     H23015   9.887   8.617  -0.733 -1.2933 -0.2763  0.2591
  167MOL0     H23016  10.112   8.642  -0.803 -1.5020  0.9767  0.4074
  167MOL0     H23017  10.079   8.638  -0.976 -1.5666 -1.2122 -1.5572
  167MOL0     H23018  10.037   8.420  -0.776 -1.1541  0.9281 -0.2121
  167MOL0     H23019   9.961   8.399  -0.931  2.8479 -2.8285 -0.6707
  167MOL0     H23020  10.250   8.461  -0.928  0.6926 -0.1107 -0.3848
  167MOL0     H23021  10.145   8.427  -1.067  1.8189 -0.6341 -0.1184
  167MOL0     H23022  10.212   8.213  -0.859 -2.0245 -1.5089 -1.0835
  167MOL0     H23023  10.274   8.236  -1.022 -0.2799 -0.1085  0.8169
  167MOL0     H23024  10.053   8.214  -1.120  1.3522 -0.9716 -0.5640
  167MOL0     H23025   9.996   8.184  -0.944  2.0636 -0.8897  1.1904
  167MOL0     H23026   9.626   8.958  -0.551  1.5214 -0.1700  0.4755
  167MOL0     H23027   9.569   9.126  -0.380  0.2512  0.7986  0.4688
  167MOL0     H23028   9.308   9.569  -0.369 -1.4316  2.9880 -1.5123
  167MOL0     H23029   9.246   9.768  -0.246 -0.2877  1.4189 -0.0288
  167MOL0     H23030   8.608  10.455   1.602  0.0609 -0.4440 -0.6662
  167MOL0     H23031   8.411  10.561   1.703  0.7097 -0.2948  0.4090
  167MOL0     H23032   8.132  10.924   1.665 -0.5193  0.6573 -1.8115
  167MOL0     H23033   7.979  11.003   1.845 -1.5134 -0.2249 -0.6743
  167MOL0     H23034   7.601  10.904   1.804 -0.0352 -3.3716 -0.5951
  167MOL0     H23035   7.616  10.765   1.920 -2.2510  0.4338 -0.9397
  167MOL0     H23036   7.421  10.945   1.956 -0.5288  0.4799  0.1616
  167MOL0     H23037   7.535  11.043   2.017 -0.7689 -0.4362  3.0044
  167MOL0     H23038   7.401  10.858   2.168  0.5396 -0.0085 -0.7335
  167MOL0     H23039   7.541  10.757   2.117 -2.2755 -0.2152 -3.5575
  167MOL0     H23040   7.573  11.039   2.246 -2.4583 -0.9029  2.0078
  167MOL0     H23041   7.705  10.917   2.221  0.3868  1.6573  0.4297
  167MOL0     H23042   7.548  10.780   2.584 -1.3601 -0.0539  0.3357
  167MOL0     H23043   7.716  10.680   1.757  0.7212 -2.1581  2.8354
  167MOL0     H23044   7.914  10.458   1.611  1.2857  0.9415 -0.6074
  167MOL0     H23045   7.750  10.546   1.588 -0.3700  0.7333 -1.9637
  167MOL0     H23046   7.890  10.577   1.488  2.0753 -0.0168 -0.1255
  168MOL0     O23047   3.424  10.337   0.728 -0.7877  0.1623  0.0365
  168MOL0     C23048   3.354  10.346   0.827 -0.0541  0.1572 -0.4812
  168MOL0     O23049   3.388  10.352   0.960  0.0442 -0.2498 -0.2027
  168MOL0     C23050   3.521  10.331   0.982  0.2094 -0.6137 -0.2435
  168MOL0     C23051   3.608  10.437   0.983 -0.4239 -0.3502  0.1716
  168MOL0     C23052   3.746  10.430   1.013 -0.0303  0.4334 -0.0986
  168MOL0     C23053   3.797  10.299   1.051  1.0216 -0.2571  1.5220
  168MOL0     O23054   3.923  10.271   1.085 -0.0118 -0.3843 -0.8590
  168MOL0     C23055   4.013  10.381   1.090 -0.5899 -0.2059 -0.4955
  168MOL0     C23056   4.132  10.362   1.184 -1.0387 -0.7926 -1.0532
  168MOL0     C23057   4.225  10.486   1.182  0.0034 -0.4137 -0.2675
  168MOL0     C23058   4.360  10.459   1.248 -0.4758 -0.6423  0.6574
  168MOL0     C23059   4.456  10.583   1.234  0.0479 -0.2651  0.0639
  168MOL0     C23060   4.603  10.550   1.287  0.3050  0.4280  0.1827
  168MOL0     C23061   4.691  10.665   1.268  0.3499 -0.3441 -0.3302
  168MOL0     C23062   4.676  10.769   1.384  0.2911 -0.6908  0.0556
  168MOL0     N23063   4.765  10.887   1.357 -1.2278  0.7040  0.0029
  168MOL0     C23064   4.751  10.982   1.256 -0.5592 -0.3288 -0.2098
  168MOL0     C23065   4.858  11.062   1.283  0.1799 -0.2818  0.0762
  168MOL0     C23066   4.889  11.189   1.215  0.3163  0.0744 -0.1800
  168MOL0     C23067   4.891  11.300   1.326  0.0226  0.1526 -0.1151
  168MOL0     C23068   4.933  11.441   1.271  0.1668  0.0427 -0.4986
  168MOL0     C23069   4.815  11.532   1.283  0.6968 -1.2917 -0.3345
  168MOL0     O23070   4.842  11.653   1.213  0.5658 -0.3810 -0.0053
  168MOL0     C23071   4.742  11.745   1.184 -0.5134  0.3707  0.2702
  168MOL0     C23072   4.780  11.834   1.082 -0.0413 -0.0450 -0.4217
  168MOL0     C23073   4.682  11.926   1.026 -0.6497 -0.5760 -0.0387
  168MOL0     C23074   4.729  12.042   0.952  0.4346 -0.0361  1.0356
  168MOL0     C23075   4.542  11.904   1.062 -0.7281  0.5114 -0.2282
  168MOL0     C23076   4.435  11.989   1.000  0.9257 -0.4879 -0.5983
  168MOL0     O23077   4.456  12.042   0.874 -0.0650 -1.0383  0.1071
  168MOL0     C23078   4.341  12.104   0.803 -0.1108 -0.3801  0.1966
  168MOL0     C23079   4.368  12.219   0.724 -0.5829  0.0658 -0.8178
  168MOL0     C23080   4.274  12.265   0.640 -0.4989 -0.4135  1.4607
  168MOL0     C23081   4.142  12.210   0.643  0.9313  0.0924  0.3248
  168MOL0     O23082   4.052  12.272   0.568  0.7103  0.8937 -0.4616
  168MOL0     C23083   4.020  12.200   0.450  0.7313 -0.0228  0.2075
  168MOL0     C23084   3.871  12.137   0.446 -0.0490  0.8044  0.5333
  168MOL0     C23085   3.851  12.093   0.298 -0.0322  0.3635  0.6721
  168MOL0     C23086   3.708  12.036   0.271 -0.6703  0.7226 -0.0524
  168MOL0     C23087   3.693  11.989   0.120 -0.0346 -1.1438  0.5012
  168MOL0     C23088   3.568  11.893   0.093 -0.3845 -0.2488  0.5425
  168MOL0     C23089   3.577  11.835  -0.043  0.0657  0.0755  0.0409
  168MOL0     C23090   3.515  11.699  -0.052 -1.1521 -1.0303 -0.7134
  168MOL0    Cl23091   3.620  11.570   0.027 -0.0167  0.0181  0.1404
  168MOL0     C23092   4.113  12.102   0.720  0.7384 -0.0473 -0.3174
  168MOL0     C23093   4.211  12.048   0.795 -0.0875 -0.3373 -1.0776
  168MOL0     O23094   4.323  11.990   1.067 -0.1085 -0.1199  0.2983
  168MOL0     C23095   4.511  11.816   1.171  0.2926  0.2772 -0.6618
  168MOL0     C23096   4.606  11.739   1.227  0.1931  0.0507 -0.9527
  168MOL0     N23097   4.932  11.017   1.392  0.3879  0.2251  0.1963
  168MOL0     N23098   4.871  10.916   1.440 -0.0261 -0.0905  0.6342
  168MOL0     C23099   3.705  10.198   1.054  0.7029 -0.1141 -0.8424
  168MOL0     C23100   3.572  10.206   1.017 -0.3494 -0.0211  0.2924
  168MOL0     C23101   3.200  10.345   0.803  0.0422  0.5162  0.1745
  168MOL0     C23102   3.113  10.308   0.910  0.4340 -0.1623  0.1643
  168MOL0     C23103   2.974  10.306   0.893  0.1822  0.5673  0.5676
  168MOL0     C23104   2.908  10.345   0.772 -0.2478  0.1888  0.1222
  168MOL0     O23105   2.770  10.343   0.755 -0.0160 -0.1942 -0.3807
  168MOL0     C23106   2.695  10.229   0.794  0.4550 -0.0939  0.5249
  168MOL0     C23107   2.744  10.099   0.735  0.4149  0.2128  0.6365
  168MOL0     C23108   2.668   9.982   0.805  0.3887 -0.2497  0.5428
  168MOL0     C23109   2.722   9.849   0.755  0.2767 -0.3006  0.0471
  168MOL0     C23110   2.696   9.744   0.849 -0.3280 -0.0481 -0.3532
  168MOL0     C23111   2.654   9.654   0.925 -0.3992  0.0514  0.2588
  168MOL0     C23112   2.993  10.364   0.668  0.9391 -0.3686  0.4225
  168MOL0     C23113   3.133  10.365   0.677 -0.8613 -0.1852  0.5956
  168MOL0     C23114   3.211  10.404   0.546  0.3645  0.0100  1.1191
  168MOL0     H23115   3.568  10.531   0.945  0.9841  0.1161 -0.2161
  168MOL0     H23116   3.807  10.518   1.000 -0.2747  0.6409  0.1491
  168MOL0     H23117   3.970  10.471   1.136  0.9157  0.5556 -0.5182
  168MOL0     H23118   4.040  10.402   0.986  3.2175 -1.5892  0.0548
  168MOL0     H23119   4.100  10.354   1.289  0.2409 -0.4224 -0.6162
  168MOL0     H23120   4.176  10.266   1.158  0.5284 -0.5662  0.5293
  168MOL0     H23121   4.236  10.519   1.078 -2.6235  1.8050  0.0703
  168MOL0     H23122   4.174  10.567   1.234 -2.0285 -1.5936 -0.3097
  168MOL0     H23123   4.356  10.435   1.355 -0.7042  2.0546  1.3312
  168MOL0     H23124   4.418  10.376   1.207  0.3850 -0.4131  1.3846
  168MOL0     H23125   4.426  10.677   1.282  0.5955  0.7087 -1.4353
  168MOL0     H23126   4.460  10.612   1.129 -2.7728  0.4714  0.0756
  168MOL0     H23127   4.599  10.519   1.392 -3.0839 -1.8218 -0.4449
  168MOL0     H23128   4.640  10.465   1.229 -1.1191  0.4741 -0.8415
  168MOL0     H23129   4.666  10.723   1.179 -0.0087  0.6293  0.3837
  168MOL0     H23130   4.798  10.642   1.274  0.1225 -1.6237 -1.0304
  168MOL0     H23131   4.573  10.806   1.388  0.2367 -0.9642  2.7051
  168MOL0     H23132   4.688  10.718   1.480 -6.5165 -2.2327  0.6369
  168MOL0     H23133   4.680  10.995   1.174 -1.4398  1.9545  0.8330
  168MOL0     H23134   4.805  11.205   1.146 -0.5099  1.0836  1.0131
  168MOL0     H23135   4.980  11.185   1.155  1.4146  1.0802  1.3425
  168MOL0     H23136   4.789  11.315   1.363 -0.6236 -0.7866 -1.4320
  168MOL0     H23137   4.958  11.276   1.409  1.7713  0.7334 -1.3037
  168MOL0     H23138   5.018  11.483   1.326  0.9615  1.0411 -2.3984
  168MOL0     H23139   4.985  11.438   1.175  0.4564  2.9906 -0.5048
  168MOL0     H23140   4.730  11.476   1.244  0.3031 -0.4245 -0.7432
  168MOL0     H23141   4.793  11.561   1.386 -2.2818  0.3053 -1.2965
  168MOL0     H23142   4.884  11.840   1.055  0.0519  0.2843 -0.0097
  168MOL0     H23143   4.694  12.041   0.848  1.6515  0.9722  0.5762
  168MOL0     H23144   4.836  12.045   0.929  0.1392  1.2850 -0.4015
  168MOL0     H23145   4.704  12.133   1.007  1.3601  0.5781  0.4902
  168MOL0     H23146   4.465  12.266   0.730 -0.7935  0.3283  0.9312
  168MOL0     H23147   4.305  12.344   0.572 -1.1711 -2.3667 -1.2523
  168MOL0     H23148   4.031  12.273   0.370 -0.1588  0.7472  0.7683
  168MOL0     H23149   4.104  12.131   0.435  1.3704  1.1633 -2.2849
  168MOL0     H23150   3.873  12.054   0.518  2.1495 -0.4795 -0.8883
  168MOL0     H23151   3.795  12.209   0.478  0.9056  3.0051 -1.8094
  168MOL0     H23152   3.933  12.026   0.271 -1.1212 -0.7577  0.0439
  168MOL0     H23153   3.853  12.177   0.229  3.2765 -2.1488 -2.6757
  168MOL0     H23154   3.626  12.102   0.302  0.3004  2.5309 -1.2307
  168MOL0     H23155   3.704  11.944   0.331 -0.3334  2.1004  2.1577
  168MOL0     H23156   3.677  12.079   0.060  1.6148 -0.1944  1.3999
  168MOL0     H23157   3.786  11.941   0.091  0.1954  0.9538 -2.6687
  168MOL0     H23158   3.477  11.952   0.105  1.6606  2.6639  3.4537
  168MOL0     H23159   3.583  11.811   0.164  5.9556 -0.0415  0.0599
  168MOL0     H23160   3.684  11.827  -0.065  0.5040  0.1942  1.8936
  168MOL0     H23161   3.535  11.903  -0.117  1.9725  0.2459 -0.9479
  168MOL0     H23162   3.489  11.692  -0.158 -0.1072  1.0615 -1.1645
  168MOL0     H23163   3.417  11.698  -0.002 -1.0321 -0.4311 -0.4638
  168MOL0     H23164   4.014  12.060   0.718  1.1665 -1.1356  0.4150
  168MOL0     H23165   4.195  11.965   0.863 -0.5829  0.8861  0.3652
  168MOL0     H23166   4.411  11.807   1.213  0.2032  0.6619 -0.7812
  168MOL0     H23167   4.577  11.668   1.304 -0.4675 -0.4491 -1.6493
  168MOL0     H23168   3.736  10.099   1.085 -2.4941 -0.5529  1.4213
  168MOL0     H23169   3.499  10.125   1.021  0.6971 -1.0101 -0.1738
  168MOL0     H23170   3.150  10.274   1.006  3.0367  1.8811  0.0236
  168MOL0     H23171   2.927  10.278   0.987  1.4180 -3.4210  0.1767
  168MOL0     H23172   2.708  10.234   0.902 -0.7249 -2.1865  0.8097
  168MOL0     H23173   2.588  10.243   0.772  0.0033 -0.2864  2.3904
  168MOL0     H23174   2.853  10.093   0.742  0.4288  0.9978  1.1343
  168MOL0     H23175   2.711  10.111   0.631  1.1274  0.4975  0.4378
  168MOL0     H23176   2.680   9.987   0.914 -4.5521  0.2895  1.2817
  168MOL0     H23177   2.563   9.987   0.776 -0.5558 -1.7372  3.2952
  168MOL0     H23178   2.828   9.856   0.731 -0.0855  0.5896 -1.4132
  168MOL0     H23179   2.669   9.815   0.666 -0.0215 -4.0426  1.4708
  168MOL0     H23180   2.620   9.583   0.998 -0.4306  0.7972  0.9799
  168MOL0     H23181   2.944  10.391   0.576  1.0425  1.6230  0.8970
  168MOL0     H23182   3.260  10.318   0.500 -1.2109 -1.5898  2.2814
  168MOL0     H23183   3.144  10.450   0.473  0.1080 -2.6892 -0.4810
  168MOL0     H23184   3.289  10.479   0.561  1.2151 -0.7569  0.6211
  169MOL0     O23185  10.680   5.947   9.667 -0.3539  0.0080 -0.3835
  169MOL0     C23186  10.647   5.840   9.629  0.3447 -0.2173 -0.0648
  169MOL0     O23187  10.514   5.792   9.630 -1.1630  0.6435  0.8291
  169MOL0     C23188  10.423   5.861   9.701  0.3329  0.6614 -0.8703
  169MOL0     C23189  10.450   5.901   9.831 -0.3178  0.4803 -0.3569
  169MOL0     C23190  10.358   5.964   9.912  0.8852 -0.2856  0.1763
  169MOL0     C23191  10.225   5.984   9.871 -0.9874  1.0045 -0.6554
  169MOL0     O23192  10.136   6.053   9.949  0.7689 -0.3739 -0.2894
  169MOL0     C23193  10.177   6.193   9.966 -0.3423 -0.5466 -0.1017
  169MOL0     C23194  10.090   6.245  10.074  0.0217 -0.1090  0.7983
  169MOL0     C23195   9.942   6.279  10.022  0.7586 -0.7844  0.4400
  169MOL0     C23196   9.856   6.329  10.130  0.8052 -0.5792 -0.1197
  169MOL0     C23197   9.820   6.476  10.110  0.4813 -1.2185 -0.0876
  169MOL0     C23198   9.708   6.514  10.209 -0.0490 -0.1190 -0.6746
  169MOL0     C23199   9.646   6.640  10.166 -0.3207 -0.0957  0.0163
  169MOL0     C23200   9.527   6.696  10.253 -0.1509 -0.4520  0.2806
  169MOL0     N23201   9.574   6.704  10.394  0.7406 -0.2872 -0.2392
  169MOL0     C23202   9.675   6.776  10.461  0.3117  0.2160 -0.5230
  169MOL0     C23203   9.665   6.746  10.593  0.1038 -0.4009 -0.0276
  169MOL0     C23204   9.736   6.806  10.710 -0.0381 -0.8170 -0.1159
  169MOL0     C23205   9.829   6.910  10.671 -0.6278  0.5534  0.7048
  169MOL0     C23206   9.916   6.940  10.788 -1.1254 -1.1314  0.5229
  169MOL0     C23207  10.024   7.055  10.745  0.7696 -0.4753  0.5492
  169MOL0     O23208   9.956   7.185  10.750  0.2629 -0.3847  0.2777
  169MOL0     C23209  10.028   7.300  10.767 -0.1035 -0.7503 -0.2826
  169MOL0     C23210   9.975   7.398  10.858 -0.8373  0.0437 -1.0363
  169MOL0     C23211  10.029   7.528  10.869 -0.0492 -0.0426  0.3527
  169MOL0     C23212   9.954   7.624  10.946 -0.5612  0.1251 -0.3544
  169MOL0     C23213  10.156   7.556  10.807 -0.0397  0.6502 -0.0978
  169MOL0     C23214  10.243   7.678  10.822 -0.5809  0.2717 -0.0513
  169MOL0     O23215  10.189   7.773  10.892  0.7157 -0.8131  0.2455
  169MOL0     C23216  10.275   7.869  10.945  0.6450 -0.9307 -0.6626
  169MOL0     C23217  10.322   7.843  11.078  0.2662 -0.1856 -0.1729
  169MOL0     C23218  10.404   7.938  11.143 -0.6381 -0.5981  0.0014
  169MOL0     C23219  10.458   8.040  11.066 -0.2430 -0.2084  0.4173
  169MOL0     O23220  10.545   8.135  11.121 -0.3209 -0.3239 -1.1520
  169MOL0     C23221  10.673   8.158  11.055  0.7496 -0.9860 -0.6244
  169MOL0     C23222  10.747   8.293  11.095  0.9083  0.9836 -0.0743
  169MOL0     C23223  10.667   8.413  11.036 -0.2949 -0.0993 -0.0113
  169MOL0     C23224  10.705   8.543  11.116  0.2528 -0.2629  0.8389
  169MOL0     C23225  10.631   8.659  11.051 -1.1406  0.3175  0.2138
  169MOL0     C23226  10.659   8.786  11.121  0.1355  0.6701  0.3382
  169MOL0     C23227  10.612   8.899  11.028  0.0626 -0.1221  0.0959
  169MOL0     C23228  10.615   9.020  11.110 -0.5997  0.0761 -0.1451
  169MOL0    Cl23229  10.577   9.164  11.010 -0.4530 -0.1400  0.1669
  169MOL0     C23230  10.401   8.076  10.942  0.0995  0.4192 -0.1445
  169MOL0     C23231  10.307   7.990  10.873  1.0635  0.7395  0.3751
  169MOL0     O23232  10.358   7.682  10.777  0.0163  0.4557  0.0443
  169MOL0     C23233  10.210   7.455  10.722  0.4295  0.1912  0.2311
  169MOL0     C23234  10.149   7.331  10.704  0.1541  0.2981  0.6691
  169MOL0     N23235   9.551   6.675  10.609  0.7780 -0.2553  0.8672
  169MOL0     N23236   9.504   6.647  10.496  0.1369  0.5728  0.2162
  169MOL0     C23237  10.203   5.950   9.738  0.3195 -0.5754  0.3894
  169MOL0     C23238  10.296   5.893   9.654  0.3442 -0.1812 -0.4077
  169MOL0     C23239  10.750   5.730   9.591  0.6299 -0.4153 -0.3542
  169MOL0     C23240  10.703   5.618   9.527 -0.1900  0.3697  0.1285
  169MOL0     C23241  10.793   5.523   9.475  0.0837  0.6405 -0.6911
  169MOL0     C23242  10.930   5.531   9.498 -1.0692  0.0129 -0.3487
  169MOL0     O23243  11.024   5.433   9.457  0.0917 -0.1941 -0.3827
  169MOL0     C23244  11.125   5.480   9.371  0.4442 -0.2279  0.1095
  169MOL0     C23245  11.251   5.542   9.440  0.2960  0.1803 -0.6015
  169MOL0     C23246  11.288   5.450   9.558 -0.2085 -0.5662 -0.5683
  169MOL0     C23247  11.401   5.508   9.649  0.5242 -0.1467 -0.3317
  169MOL0     C23248  11.348   5.617   9.738  0.8826  0.3217  0.3070
  169MOL0     C23249  11.321   5.715   9.812  0.1976 -0.0032 -0.9821
  169MOL0     C23250  10.964   5.635   9.591  0.7620  0.6000  0.1412
  169MOL0     C23251  10.880   5.740   9.633  0.0935  0.6172 -0.0051
  169MOL0     C23252  10.953   5.843   9.717  0.3085 -0.2658 -0.6939
  169MOL0     H23253  10.541   5.872   9.883  0.0592 -1.2806 -1.9222
  169MOL0     H23254  10.387   6.008  10.007 -0.7475  0.6930  0.2533
  169MOL0     H23255  10.161   6.236   9.867  0.6884 -0.9566 -0.4636
  169MOL0     H23256  10.283   6.195   9.993  1.0105 -0.8583 -4.6140
  169MOL0     H23257  10.089   6.168  10.152 -1.4326 -0.7790  0.1460
  169MOL0     H23258  10.135   6.334  10.121 -0.8759  1.0393 -0.4327
  169MOL0     H23259   9.950   6.352   9.941 -0.5041 -0.2513  0.7800
  169MOL0     H23260   9.895   6.192   9.975  0.4236  0.0390 -0.8086
  169MOL0     H23261   9.765   6.269  10.119  1.3262 -0.9544 -3.1684
  169MOL0     H23262   9.893   6.308  10.231 -1.1663  1.6038  1.1593
  169MOL0     H23263   9.779   6.484  10.009 -0.3647  1.7695  0.4044
  169MOL0     H23264   9.895   6.556  10.111 -3.3145  2.7569 -1.3790
  169MOL0     H23265   9.636   6.431  10.211  2.4355 -2.4625 -1.9362
  169MOL0     H23266   9.752   6.528  10.307  0.5872 -3.7252 -0.3306
  169MOL0     H23267   9.605   6.630  10.065  2.0222 -2.6139 -0.8127
  169MOL0     H23268   9.725   6.716  10.172  0.6796 -0.8587 -2.3055
  169MOL0     H23269   9.486   6.794  10.227  0.2487 -0.2755  0.3111
  169MOL0     H23270   9.442   6.628  10.253 -1.0073  0.2976 -4.3949
  169MOL0     H23271   9.752   6.838  10.417  0.3795 -0.6077 -1.6062
  169MOL0     H23272   9.781   6.720  10.761 -0.5184 -0.2147  1.3982
  169MOL0     H23273   9.660   6.850  10.775 -0.3005 -0.1917 -0.8370
  169MOL0     H23274   9.890   6.870  10.589 -1.7087  0.0436  0.1246
  169MOL0     H23275   9.770   6.993  10.631 -1.0020 -0.2378 -0.4507
  169MOL0     H23276   9.856   6.977  10.872  0.1420 -1.6830  1.7064
  169MOL0     H23277   9.978   6.854  10.814  0.8538 -0.7868 -2.5737
  169MOL0     H23278  10.107   7.062  10.816  1.8065  0.3593 -0.6893
  169MOL0     H23279  10.068   7.041  10.645  0.2374 -0.8129  0.3572
  169MOL0     H23280   9.888   7.372  10.917  1.3068  0.0387  2.3591
  169MOL0     H23281   9.855   7.585  10.972  0.1822 -2.8775 -1.5657
  169MOL0     H23282   9.949   7.718  10.892 -0.3636 -0.5432 -1.5687
  169MOL0     H23283  10.015   7.634  11.037  0.7235  2.2992 -1.3947
  169MOL0     H23284  10.275   7.764  11.136  0.0641  0.4941  0.6082
  169MOL0     H23285  10.421   7.935  11.250  0.8543  1.3432 -0.1189
  169MOL0     H23286  10.735   8.072  11.083  1.6850 -0.3215 -0.6335
  169MOL0     H23287  10.655   8.154  10.947 -4.0281 -2.5137 -0.0070
  169MOL0     H23288  10.765   8.296  11.203  1.9386 -2.2149 -0.0424
  169MOL0     H23289  10.847   8.290  11.052  0.6350  1.8693 -0.8212
  169MOL0     H23290  10.560   8.409  11.060 -0.2984 -1.1294 -0.1354
  169MOL0     H23291  10.682   8.426  10.929 -1.1642  1.0298 -0.0166
  169MOL0     H23292  10.813   8.554  11.104  0.0514  1.3955  0.3678
  169MOL0     H23293  10.683   8.525  11.222 -0.3465 -0.7789  0.6318
  169MOL0     H23294  10.670   8.653  10.949 -0.3734  0.1195  0.5130
  169MOL0     H23295  10.523   8.640  11.046 -1.1512  0.6511 -2.0833
  169MOL0     H23296  10.766   8.787  11.145 -0.0894  1.9091  1.4173
  169MOL0     H23297  10.616   8.790  11.222  2.2342  0.3839  1.3103
  169MOL0     H23298  10.509   8.878  10.998 -0.4863  0.7853  1.2457
  169MOL0     H23299  10.670   8.916  10.936  0.4641 -1.2630  0.1242
  169MOL0     H23300  10.713   9.028  11.160 -1.4071 -1.4511  1.8041
  169MOL0     H23301  10.540   9.014  11.189  1.9696 -2.8796  2.3904
  169MOL0     H23302  10.420   8.173  10.898 -0.9996  1.2654  1.1623
  169MOL0     H23303  10.257   8.001  10.777 -0.0128  0.3659  0.8734
  169MOL0     H23304  10.310   7.476  10.683 -0.1321  1.2249 -0.7214
  169MOL0     H23305  10.193   7.261  10.634 -1.2153  1.3861 -1.3479
  169MOL0     H23306  10.103   5.977   9.706 -0.0730 -0.3683  1.7294
  169MOL0     H23307  10.267   5.875   9.551  1.3854  1.7582 -1.0927
  169MOL0     H23308  10.597   5.595   9.523  0.1096 -1.4420  1.3963
  169MOL0     H23309  10.743   5.435   9.436  0.5422 -0.3508  0.8673
  169MOL0     H23310  11.148   5.389   9.314 -2.7958 -1.1233  0.0582
  169MOL0     H23311  11.084   5.560   9.308  1.0508 -0.1361 -0.1788
  169MOL0     H23312  11.220   5.638   9.482 -0.0466 -0.9490  1.9193
  169MOL0     H23313  11.326   5.558   9.362 -1.1351  0.8209 -1.8897
  169MOL0     H23314  11.201   5.417   9.616 -0.8398  1.1973 -0.4461
  169MOL0     H23315  11.324   5.356   9.516 -0.7218 -1.1491  0.2664
  169MOL0     H23316  11.481   5.535   9.579 -0.9408 -1.9693 -2.8860
  169MOL0     H23317  11.449   5.437   9.717 -0.0157 -0.4720 -0.2812
  169MOL0     H23318  11.292   5.794   9.879 -0.1916 -0.9037 -0.0520
  169MOL0     H23319  11.065   5.633   9.630  0.2078 -1.8644  1.6223
  169MOL0     H23320  11.062   5.831   9.714  0.2846 -0.9384  0.3671
  169MOL0     H23321  10.922   5.942   9.684 -0.7907 -0.1465  0.6237
  169MOL0     H23322  10.925   5.850   9.822  2.8526  4.4798 -0.0485
  170MOL0     O23323   5.812   2.372  10.967  0.6165  0.5232  0.4817
  170MOL0     C23324   5.841   2.468  10.893 -0.0063  0.7260  0.2241
  170MOL0     O23325   5.957   2.506  10.846 -0.3202 -0.1638 -0.3711
  170MOL0     C23326   6.070   2.455  10.910  0.1362  0.0665  0.2107
  170MOL0     C23327   6.117   2.324  10.901  0.7403 -0.2187 -0.3961
  170MOL0     C23328   6.241   2.282  10.958  0.2080  0.1560  0.8763
  170MOL0     C23329   6.315   2.363  11.047 -0.2072  0.5174  0.5488
  170MOL0     O23330   6.424   2.314  11.118 -0.1166  0.4969  0.5748
  170MOL0     C23331   6.511   2.229  11.044  0.7131 -0.0573 -0.1944
  170MOL0     C23332   6.652   2.282  11.054 -0.1650  0.4604 -0.3472
  170MOL0     C23333   6.687   2.303  11.204 -0.8637 -0.6761  0.1340
  170MOL0     C23334   6.842   2.317  11.216  0.4401 -0.1266 -0.3194
  170MOL0     C23335   6.890   2.333  11.361  0.3593 -0.5049 -0.1359
  170MOL0     C23336   6.872   2.206  11.450  0.2318  0.5659  0.8489
  170MOL0     C23337   6.923   2.225  11.591  1.2600  0.5141 -1.0694
  170MOL0     C23338   7.081   2.243  11.597  0.9564 -0.1667 -0.4486
  170MOL0     N23339   7.122   2.255  11.744  0.1380 -0.4126 -0.0569
  170MOL0     C23340   7.087   2.355  11.825 -0.5689  0.1346 -0.1216
  170MOL0     C23341   7.126   2.327  11.953 -0.2126 -0.1267  0.5940
  170MOL0     C23342   7.099   2.408  12.074  0.9943 -0.6802 -0.0285
  170MOL0     C23343   7.160   2.368  12.201  0.2518 -0.0743 -0.1688
  170MOL0     C23344   7.310   2.397  12.208 -0.1599 -0.1180 -0.0170
  170MOL0     C23345   7.367   2.374  12.349  0.4087 -0.6404  0.7992
  170MOL0     O23346   7.509   2.383  12.352  0.0154 -0.8787 -0.1824
  170MOL0     C23347   7.572   2.391  12.471 -0.1872 -0.4730 -0.6790
  170MOL0     C23348   7.518   2.375  12.594 -0.2868 -0.6181 -0.6375
  170MOL0     C23349   7.605   2.392  12.713 -0.2671  0.5554  0.0122
  170MOL0     C23350   7.525   2.358  12.839 -0.0268 -0.1614  0.8661
  170MOL0     C23351   7.737   2.443  12.699  0.1012 -0.2963 -0.4434
  170MOL0     C23352   7.825   2.482  12.808 -0.5936 -0.3529 -1.8792
  170MOL0     O23353   7.943   2.521  12.765 -0.0304  0.6176  0.1196
  170MOL0     C23354   8.051   2.511  12.852  0.3542 -0.4723  0.3171
  170MOL0     C23355   8.088   2.616  12.941  0.2301 -0.1899 -0.8775
  170MOL0     C23356   8.219   2.605  13.002  0.4932 -1.3208  0.4958
  170MOL0     C23357   8.302   2.503  12.970 -0.8352  0.1306 -0.3613
  170MOL0     O23358   8.419   2.508  13.036  0.7249 -0.1029 -0.3937
  170MOL0     C23359   8.529   2.424  12.991  0.1103 -0.8662  0.3093
  170MOL0     C23360   8.677   2.454  13.042  0.3113 -0.7483 -0.0338
  170MOL0     C23361   8.733   2.592  13.072  0.3214 -0.7317  0.6381
  170MOL0     C23362   8.654   2.692  13.155  0.0653  0.1720 -0.4162
  170MOL0     C23363   8.600   2.648  13.294 -0.6971  0.0804  0.3697
  170MOL0     C23364   8.474   2.726  13.336 -0.2618  0.2920 -0.0804
  170MOL0     C23365   8.518   2.877  13.361  0.1493  0.0903  0.9169
  170MOL0     C23366   8.453   2.954  13.479  0.6407  0.2024 -0.0327
  170MOL0    Cl23367   8.531   2.874  13.626  0.2410  0.2424 -0.0209
  170MOL0     C23368   8.262   2.397  12.895  1.0977  0.9794  0.5390
  170MOL0     C23369   8.135   2.400  12.832  0.9823 -1.4631  0.0876
  170MOL0     O23370   7.796   2.468  12.925  0.7541 -0.7719  0.1727
  170MOL0     C23371   7.777   2.470  12.570 -0.7606  0.1715  0.3075
  170MOL0     C23372   7.699   2.431  12.461 -0.5835 -0.3503  0.4210
  170MOL0     N23373   7.185   2.205  11.947 -0.3076  0.1617  0.2925
  170MOL0     N23374   7.188   2.163  11.815  0.0350  0.1460 -0.0474
  170MOL0     C23375   6.262   2.487  11.066 -0.2684  0.0398 -0.0443
  170MOL0     C23376   6.146   2.532  10.999  0.1665 -0.2540  0.3323
  170MOL0     C23377   5.732   2.559  10.866  0.1333  0.2917  0.6696
  170MOL0     C23378   5.760   2.636  10.743  0.0957 -0.6250  0.7986
  170MOL0     C23379   5.664   2.732  10.701 -0.2029 -0.6539  0.1944
  170MOL0     C23380   5.543   2.757  10.767  0.4737  0.0745 -0.0223
  170MOL0     O23381   5.459   2.859  10.726  0.5122  0.2182  0.1902
  170MOL0     C23382   5.328   2.833  10.680 -0.0766  0.0609  0.5615
  170MOL0     C23383   5.342   2.822  10.529  0.2551 -0.8899 -0.5602
  170MOL0     C23384   5.211   2.819  10.460 -0.2669 -0.4725  0.2634
  170MOL0     C23385   5.235   2.854  10.309 -0.0050 -0.5465 -0.2608
  170MOL0     C23386   5.168   2.751  10.219 -0.3559 -1.2242  0.8720
  170MOL0     C23387   5.116   2.673  10.143 -0.0945 -0.4585 -0.3710
  170MOL0     C23388   5.517   2.683  10.884 -0.3745  0.0608 -0.4467
  170MOL0     C23389   5.609   2.581  10.930 -0.2173  0.0351 -1.1264
  170MOL0     C23390   5.578   2.536  11.064 -0.4991  0.0072  0.4434
  170MOL0     H23391   6.068   2.256  10.832  0.0714  1.2819 -1.4622
  170MOL0     H23392   6.271   2.179  10.945  5.6679  1.3111  1.9036
  170MOL0     H23393   6.488   2.236  10.937 -1.0441  2.4779  0.2446
  170MOL0     H23394   6.499   2.122  11.065  1.1088  0.3117  2.1465
  170MOL0     H23395   6.728   2.219  11.008 -1.5941 -0.3234 -1.7268
  170MOL0     H23396   6.672   2.378  11.006 -1.7826  1.6763  1.2554
  170MOL0     H23397   6.632   2.385  11.251  2.3181  2.0519 -0.5209
  170MOL0     H23398   6.662   2.206  11.246 -1.4935 -0.9999 -0.9280
  170MOL0     H23399   6.875   2.226  11.164 -1.0610  0.2185 -1.9967
  170MOL0     H23400   6.875   2.402  11.155 -0.9721  0.8980  0.3086
  170MOL0     H23401   6.834   2.416  11.407  2.2642  0.8208 -0.1052
  170MOL0     H23402   6.995   2.362  11.354  0.0016  0.6167 -1.2483
  170MOL0     H23403   6.769   2.170  11.455  1.0893 -2.0227  1.7488
  170MOL0     H23404   6.944   2.140  11.400  0.7608  0.8537  1.2166
  170MOL0     H23405   6.891   2.148  11.662 -0.2331  1.6677 -0.4414
  170MOL0     H23406   6.875   2.315  11.631 -1.3430 -0.9264 -0.6866
  170MOL0     H23407   7.120   2.154  11.548 -2.2046 -0.3164 -3.0686
  170MOL0     H23408   7.120   2.334  11.552  2.6687  0.2274  1.6705
  170MOL0     H23409   7.032   2.444  11.795 -1.2003 -0.7400 -1.7056
  170MOL0     H23410   6.992   2.397  12.092  0.3324  1.9440 -1.7790
  170MOL0     H23411   7.113   2.515  12.056  0.5572 -0.0123  3.1080
  170MOL0     H23412   7.111   2.419  12.285  2.7408  1.3861  0.5350
  170MOL0     H23413   7.143   2.261  12.213 -1.5671  0.4156  2.4467
  170MOL0     H23414   7.362   2.336  12.134 -0.6574 -0.0481 -0.4321
  170MOL0     H23415   7.327   2.503  12.187 -0.6465 -0.2414 -1.0607
  170MOL0     H23416   7.322   2.444  12.419 -1.3535 -2.2258  1.3378
  170MOL0     H23417   7.353   2.271  12.383  2.3467 -0.7483  1.3625
  170MOL0     H23418   7.416   2.338  12.601 -1.3173  2.2567  1.6843
  170MOL0     H23419   7.508   2.457  12.883  0.2110  1.4253 -2.3073
  170MOL0     H23420   7.570   2.306  12.924 -1.3442  0.5897  2.0721
  170MOL0     H23421   7.425   2.316  12.826  1.0185 -2.8742  0.8996
  170MOL0     H23422   8.032   2.704  12.973  0.5096 -1.5077  4.0946
  170MOL0     H23423   8.249   2.686  13.068 -1.0032  2.3731 -2.9731
  170MOL0     H23424   8.517   2.319  13.020  1.2456 -0.5028  2.2931
  170MOL0     H23425   8.530   2.446  12.884 -0.0757 -0.1145  0.4567
  170MOL0     H23426   8.693   2.392  13.131 -1.8717 -1.7856 -0.2932
  170MOL0     H23427   8.745   2.412  12.967  2.1745  1.1189  0.5409
  170MOL0     H23428   8.747   2.649  12.980  0.5810  1.2357  1.8433
  170MOL0     H23429   8.828   2.579  13.124  0.8905  0.3817 -0.0719
  170MOL0     H23430   8.570   2.725  13.094  0.0222  0.4762 -0.1959
  170MOL0     H23431   8.715   2.780  13.174  0.8753 -0.7750  1.7873
  170MOL0     H23432   8.568   2.543  13.293 -0.2373 -0.0783  1.2671
  170MOL0     H23433   8.675   2.656  13.373 -0.3422 -0.3659  0.0802
  170MOL0     H23434   8.431   2.695  13.431 -1.4847  1.4995 -0.2054
  170MOL0     H23435   8.395   2.722  13.261 -1.3127  1.6756  0.9016
  170MOL0     H23436   8.517   2.931  13.266 -0.7320 -2.6435 -0.7184
  170MOL0     H23437   8.622   2.885  13.393 -0.4332 -0.0107  3.0168
  170MOL0     H23438   8.345   2.941  13.472  0.8414 -1.1901 -1.0031
  170MOL0     H23439   8.465   3.063  13.482 -0.6869  0.4516 -1.9677
  170MOL0     H23440   8.325   2.311  12.874 -0.1819  0.5534 -1.9176
  170MOL0     H23441   8.099   2.316  12.773 -1.6839 -0.4964  0.2072
  170MOL0     H23442   7.880   2.500  12.552 -1.2559  1.7946  0.0470
  170MOL0     H23443   7.743   2.437  12.361 -1.5707  3.1959  0.0755
  170MOL0     H23444   6.305   2.550  11.142 -0.1194 -3.7493  3.3749
  170MOL0     H23445   6.104   2.628  11.028  0.0715 -0.7989  2.1165
  170MOL0     H23446   5.847   2.621  10.679  1.5300  0.7527  2.3282
  170MOL0     H23447   5.678   2.790  10.610 -0.0446  0.0925  0.6835
  170MOL0     H23448   5.278   2.745  10.723 -1.8719  0.4906 -0.5446
  170MOL0     H23449   5.264   2.919  10.698  0.4702  1.0595 -1.9259
  170MOL0     H23450   5.400   2.732  10.509 -0.2291 -2.0862  2.7376
  170MOL0     H23451   5.405   2.907  10.501  0.4794 -0.5499  0.8964
  170MOL0     H23452   5.171   2.719  10.478 -2.1600  0.3118  0.6245
  170MOL0     H23453   5.143   2.895  10.500  2.0748  2.1566 -0.3963
  170MOL0     H23454   5.343   2.849  10.293 -0.1210 -2.8181 -0.7436
  170MOL0     H23455   5.188   2.949  10.282 -1.3434 -1.5354 -1.6102
  170MOL0     H23456   5.084   2.597  10.074  1.4925  0.3242 -2.0759
  170MOL0     H23457   5.427   2.707  10.939  0.1003 -0.4551  0.5752
  170MOL0     H23458   5.635   2.593  11.138  1.6769 -0.2811 -0.9268
  170MOL0     H23459   5.470   2.549  11.073 -0.5697 -0.0932 -0.2143
  170MOL0     H23460   5.604   2.430  11.073 -2.3895 -0.6732 -1.2648
  171MOL0     O23461   1.108  10.724   2.602  0.4269 -0.0433  0.0831
  171MOL0     C23462   1.104  10.637   2.511 -0.5453 -0.0760 -0.2637
  171MOL0     O23463   1.190  10.529   2.498 -0.4132  1.0115 -0.5446
  171MOL0     C23464   1.316  10.558   2.551  0.1111 -0.1946  0.3797
  171MOL0     C23465   1.425  10.567   2.461  0.2375  0.7307  0.3691
  171MOL0     C23466   1.556  10.593   2.502  0.7026 -0.1712  0.3299
  171MOL0     C23467   1.584  10.625   2.633  0.0831 -0.8566 -0.5322
  171MOL0     O23468   1.715  10.639   2.672 -0.7507 -0.0049 -0.2858
  171MOL0     C23469   1.736  10.679   2.806 -0.0946 -0.5609 -0.1355
  171MOL0     C23470   1.880  10.705   2.816 -0.9972  1.3962 -0.7401
  171MOL0     C23471   1.917  10.782   2.943  0.5278 -0.0322 -0.7723
  171MOL0     C23472   2.044  10.864   2.933 -0.0793  0.4935 -0.1236
  171MOL0     C23473   2.096  10.931   3.062  0.8704  0.3064 -0.0989
  171MOL0     C23474   2.215  11.021   3.037 -0.3288  0.0697 -0.1232
  171MOL0     C23475   2.250  11.133   3.125 -0.0299 -0.6738  0.0681
  171MOL0     C23476   2.324  11.066   3.244 -0.6459 -0.2065 -0.3330
  171MOL0     N23477   2.220  11.061   3.353 -0.2058 -0.1427  0.1237
  171MOL0     C23478   2.217  11.152   3.459 -0.3102 -0.0520 -0.3458
  171MOL0     C23479   2.117  11.103   3.540  0.5005 -1.1853  0.2543
  171MOL0     C23480   2.063  11.178   3.654 -0.4861  1.0756  0.5679
  171MOL0     C23481   1.997  11.086   3.757 -0.5830  0.0520  0.8194
  171MOL0     C23482   1.947  11.174   3.878 -0.9696 -0.7634 -0.3063
  171MOL0     C23483   1.805  11.125   3.912 -0.0332 -0.1532  1.1366
  171MOL0     O23484   1.815  11.072   4.048  0.4780  0.0822 -0.0651
  171MOL0     C23485   1.713  11.000   4.100 -0.1974  0.4149  0.6718
  171MOL0     C23486   1.661  10.882   4.038  0.0822  0.4676  0.3611
  171MOL0     C23487   1.588  10.784   4.102 -0.3912 -0.1556 -0.4751
  171MOL0     C23488   1.536  10.654   4.038 -0.1508  0.2315  0.2482
  171MOL0     C23489   1.539  10.809   4.231 -0.1906  0.2229  1.0485
  171MOL0     C23490   1.463  10.716   4.307  0.9112 -0.5341  0.4241
  171MOL0     O23491   1.327  10.742   4.320 -0.6060  0.0593  0.0406
  171MOL0     C23492   1.253  10.669   4.410  0.3164 -0.1500 -0.2247
  171MOL0     C23493   1.222  10.713   4.539  1.5735 -0.1473 -0.0602
  171MOL0     C23494   1.155  10.633   4.625 -0.3410  0.7074 -0.3284
  171MOL0     C23495   1.100  10.510   4.577 -0.1807  0.1044 -0.1580
  171MOL0     O23496   1.020  10.430   4.647  0.2086 -0.1165 -0.1155
  171MOL0     C23497   0.923  10.483   4.739 -0.4052 -0.2582 -0.0092
  171MOL0     C23498   0.805  10.551   4.667  0.1351  0.4053 -0.0843
  171MOL0     C23499   0.728  10.449   4.572 -0.2379  0.2843  0.2907
  171MOL0     C23500   0.589  10.497   4.513 -0.1954  0.6520  0.5292
  171MOL0     C23501   0.506  10.399   4.423  0.7667  0.0935  0.2534
  171MOL0     C23502   0.459  10.268   4.507  0.5114 -0.3756  0.0288
  171MOL0     C23503   0.306  10.246   4.483 -0.1104 -0.1900 -0.8461
  171MOL0     C23504   0.270  10.105   4.536  0.6965  0.5759  0.3801
  171MOL0    Cl23505   0.100  10.051   4.567  0.0343 -0.0871 -0.0824
  171MOL0     C23506   1.128  10.463   4.449 -0.0081 -0.0175  0.1517
  171MOL0     C23507   1.208  10.542   4.366  0.6059  0.3537 -0.1955
  171MOL0     O23508   1.527  10.652   4.383 -0.7793 -0.2347 -0.7384
  171MOL0     C23509   1.580  10.924   4.296 -0.2142  0.5560  0.6648
  171MOL0     C23510   1.670  11.017   4.235  0.2365  0.8759  0.3354
  171MOL0     N23511   2.064  10.995   3.477  0.2648  0.0323 -0.0469
  171MOL0     N23512   2.125  10.964   3.364 -0.0430 -0.2633 -0.1443
  171MOL0     C23513   1.474  10.635   2.725 -0.2071  0.6085 -0.1194
  171MOL0     C23514   1.343  10.582   2.688 -0.8543  0.0284 -0.0878
  171MOL0     C23515   0.996  10.640   2.417  0.7567  0.0045 -0.4703
  171MOL0     C23516   0.980  10.539   2.324 -0.4140  0.6255 -0.5073
  171MOL0     C23517   0.871  10.532   2.242 -0.5581  0.1004  0.5755
  171MOL0     C23518   0.782  10.644   2.234  0.3806  0.5497  0.0530
  171MOL0     O23519   0.675  10.640   2.139 -0.3190  0.1281 -0.4556
  171MOL0     C23520   0.592  10.755   2.123 -1.0776  0.2731 -0.7925
  171MOL0     C23521   0.474  10.776   2.224 -0.7566 -0.2244  0.1641
  171MOL0     C23522   0.430  10.919   2.210 -1.2014  0.3861  1.1747
  171MOL0     C23523   0.348  10.981   2.331  0.3573  0.4125 -1.0809
  171MOL0     C23524   0.432  11.025   2.431 -0.1067 -0.0219 -0.6831
  171MOL0     C23525   0.489  11.062   2.536  0.0362 -0.5446  0.4005
  171MOL0     C23526   0.803  10.752   2.325  0.1847 -0.5253  0.9651
  171MOL0     C23527   0.910  10.754   2.419  0.0401  1.4486  0.2879
  171MOL0     C23528   0.909  10.871   2.511 -0.1555 -0.1183  0.2276
  171MOL0     H23529   1.409  10.530   2.360 -2.6436  1.6100  0.4145
  171MOL0     H23530   1.627  10.577   2.422 -1.3756  0.4947 -1.7783
  171MOL0     H23531   1.691  10.614   2.881 -4.0604  0.0573 -1.7598
  171MOL0     H23532   1.687  10.775   2.823  1.1018 -0.0136  0.3550
  171MOL0     H23533   1.934  10.612   2.799 -1.9707 -0.0300  2.9923
  171MOL0     H23534   1.916  10.758   2.728  2.7370  0.3484  0.0042
  171MOL0     H23535   1.842  10.857   2.967  1.6801  0.6607  0.8424
  171MOL0     H23536   1.923  10.708   3.024  2.8793  0.2617 -0.6209
  171MOL0     H23537   2.116  10.786   2.905 -1.7249 -1.1163 -0.0949
  171MOL0     H23538   2.047  10.935   2.850 -3.3215  1.0615  0.1252
  171MOL0     H23539   2.118  10.860   3.142 -0.5758 -0.2336 -0.1408
  171MOL0     H23540   2.009  10.991   3.091 -1.3500 -1.8391 -1.8703
  171MOL0     H23541   2.303  10.959   3.018  0.5331  0.8446  1.2091
  171MOL0     H23542   2.191  11.066   2.940  2.2144  0.3811 -0.6764
  171MOL0     H23543   2.175  11.207   3.155  1.2768  1.6641 -2.0372
  171MOL0     H23544   2.320  11.201   3.076 -0.3949 -1.5083 -1.7173
  171MOL0     H23545   2.351  10.962   3.227  2.3575  0.8310 -2.9809
  171MOL0     H23546   2.413  11.123   3.270 -0.2013 -0.2950 -1.6096
  171MOL0     H23547   2.277  11.242   3.469 -0.3185  0.1903 -2.1591
  171MOL0     H23548   1.992  11.249   3.611  0.0793  1.1240 -0.3279
  171MOL0     H23549   2.141  11.238   3.701  1.4141  0.3301 -1.4563
  171MOL0     H23550   1.920  11.034   3.700 -0.5160  0.9585 -0.1168
  171MOL0     H23551   2.063  11.011   3.801  0.1633 -1.2118 -2.2405
  171MOL0     H23552   2.018  11.178   3.960 -0.0696 -0.7801 -1.0715
  171MOL0     H23553   1.935  11.279   3.848  1.5699 -0.1423  0.6448
  171MOL0     H23554   1.741  11.214   3.903  0.9562  0.3549 -1.8477
  171MOL0     H23555   1.764  11.057   3.837  0.0813  1.1579 -0.1619
  171MOL0     H23556   1.685  10.863   3.934 -0.4551 -1.5813  0.5696
  171MOL0     H23557   1.463  10.601   4.099  2.5489 -3.9037  0.2789
  171MOL0     H23558   1.618  10.584   4.016 -1.2364 -1.0348  0.1057
  171MOL0     H23559   1.487  10.677   3.943 -0.5747  0.5584  0.5435
  171MOL0     H23560   1.255  10.811   4.572 -2.7093  1.9048 -1.1050
  171MOL0     H23561   1.136  10.661   4.728 -1.4956 -1.3287  0.0694
  171MOL0     H23562   0.872  10.401   4.791 -1.0667 -1.1213 -1.9454
  171MOL0     H23563   0.966  10.555   4.809 -1.6091  1.3264 -0.8396
  171MOL0     H23564   0.723  10.590   4.729 -0.9327  1.4566 -2.0694
  171MOL0     H23565   0.854  10.633   4.613  2.1834 -1.4410 -1.1852
  171MOL0     H23566   0.702  10.367   4.640  1.2696  0.3374  0.9639
  171MOL0     H23567   0.800  10.421   4.496  1.9405  0.2026  2.2789
  171MOL0     H23568   0.618  10.580   4.447  1.0145 -0.2626 -0.1092
  171MOL0     H23569   0.536  10.522   4.606 -0.0859 -1.3685  1.1662
  171MOL0     H23570   0.421  10.460   4.390  1.5715  0.2828 -1.5656
  171MOL0     H23571   0.563  10.360   4.338  2.4259  1.1673  0.8161
  171MOL0     H23572   0.482  10.281   4.613  1.9061  0.7962 -0.3838
  171MOL0     H23573   0.522  10.185   4.473  3.6696  2.2851 -1.1451
  171MOL0     H23574   0.270  10.256   4.380  0.5670  3.6043 -0.8595
  171MOL0     H23575   0.269  10.326   4.548  6.8853  2.6946  0.5027
  171MOL0     H23576   0.324  10.103   4.631  3.2041 -0.3919 -0.9744
  171MOL0     H23577   0.306  10.037   4.458  0.7874  0.0286  0.8957
  171MOL0     H23578   1.089  10.374   4.401  1.7557 -1.1581  0.7125
  171MOL0     H23579   1.227  10.516   4.263  0.2908 -1.4176  0.1754
  171MOL0     H23580   1.556  10.924   4.401 -1.0985 -0.4363  0.4789
  171MOL0     H23581   1.696  11.112   4.282 -0.3924 -0.0148  2.6028
  171MOL0     H23582   1.493  10.656   2.829  0.7765 -3.0178  0.5878
  171MOL0     H23583   1.256  10.579   2.753  0.0654 -0.6472  1.1352
  171MOL0     H23584   1.056  10.463   2.310 -2.2342 -1.0745 -1.5961
  171MOL0     H23585   0.848  10.446   2.180 -0.1498 -0.9546  1.8240
  171MOL0     H23586   0.657  10.841   2.109 -0.0452 -0.2110  0.7493
  171MOL0     H23587   0.534  10.731   2.033  1.0868 -0.5777 -2.0231
  171MOL0     H23588   0.508  10.750   2.324  2.2942  1.9502 -0.1769
  171MOL0     H23589   0.388  10.712   2.201 -2.0639 -1.1059  6.0014
  171MOL0     H23590   0.522  10.976   2.196 -0.7270 -0.7927 -0.8517
  171MOL0     H23591   0.367  10.930   2.121  0.2761 -0.7847 -0.0713
  171MOL0     H23592   0.281  10.909   2.377  3.3933 -1.1496  1.2464
  171MOL0     H23593   0.289  11.064   2.293 -0.3318  1.8850  2.8070
  171MOL0     H23594   0.538  11.107   2.620 -0.5918  0.6308  0.1768
  171MOL0     H23595   0.738  10.840   2.328  0.8814 -0.0242  1.6665
  171MOL0     H23596   0.879  10.841   2.612  1.4554 -1.9219  0.2238
  171MOL0     H23597   1.010  10.913   2.501 -0.5270  0.3107 -2.4856
  171MOL0     H23598   0.838  10.947   2.479  0.6716 -0.1713 -1.8901
  172MOL0     O23599  11.363   9.924   1.596  0.3293 -0.0215  0.8055
  172MOL0     C23600  11.285   9.978   1.666 -0.8651 -0.3795 -0.8484
  172MOL0     O23601  11.316  10.048   1.781  0.3800  0.1980 -0.2191
  172MOL0     C23602  11.444  10.033   1.830  0.1061 -0.3171 -0.0340
  172MOL0     C23603  11.555  10.071   1.752 -0.2546 -0.6035 -0.8945
  172MOL0     C23604  11.682  10.051   1.801  0.0573 -0.8074  0.1819
  172MOL0     C23605  11.704  10.012   1.928 -0.0385 -0.2421  0.2948
  172MOL0     O23606  11.832   9.998   1.974 -0.4344 -0.0440 -0.1552
  172MOL0     C23607  11.887   9.869   1.944  0.4233  0.1837  0.0714
  172MOL0     C23608  11.972   9.832   2.063 -0.4322  0.1510 -0.0190
  172MOL0     C23609  12.043   9.698   2.053  0.2079 -0.2725  0.0264
  172MOL0     C23610  12.138   9.665   2.169  1.1663  0.1887 -0.3065
  172MOL0     C23611  12.225   9.539   2.146  0.6576  0.9032 -0.1794
  172MOL0     C23612  12.333   9.536   2.245  0.3182 -0.1586 -0.6219
  172MOL0     C23613  12.421   9.414   2.211 -0.4251  0.0356 -0.1186
  172MOL0     C23614  12.548   9.395   2.292 -0.2121  0.3591 -0.2487
  172MOL0     N23615  12.638   9.511   2.281 -0.0050  0.1852 -0.2281
  172MOL0     C23616  12.644   9.601   2.385 -0.4394  0.3159  0.3990
  172MOL0     C23617  12.763   9.663   2.361  0.1213 -0.3349  0.1330
  172MOL0     C23618  12.797   9.789   2.442 -0.2539  0.7133  0.0334
  172MOL0     C23619  12.795   9.749   2.588  0.2679 -0.1971 -0.3829
  172MOL0     C23620  12.848   9.862   2.664 -1.0118 -0.3480 -0.6975
  172MOL0     C23621  13.001   9.874   2.642  0.7384 -0.1924  0.6727
  172MOL0     O23622  13.072   9.746   2.658 -0.0738  0.1860  0.6341
  172MOL0     C23623  13.109   9.692   2.779 -0.3054 -0.6827  0.2500
  172MOL0     C23624  13.096   9.752   2.904  0.2105 -0.1953 -0.0623
  172MOL0     C23625  13.156   9.694   3.015 -0.2004  0.7196 -0.6762
  172MOL0     C23626  13.153   9.769   3.146 -0.1711 -0.9279 -0.4663
  172MOL0     C23627  13.231   9.573   2.994  0.6399  0.3349 -0.3532
  172MOL0     C23628  13.305   9.511   3.108 -0.1916 -0.1371 -0.0253
  172MOL0     O23629  13.295   9.369   3.115  0.3950 -0.9778 -0.0656
  172MOL0     C23630  13.358   9.304   3.224 -0.0026  0.1770 -0.2832
  172MOL0     C23631  13.493   9.260   3.204  0.3282 -0.5906 -0.5418
  172MOL0     C23632  13.562   9.210   3.311 -0.3996  0.5430  0.1583
  172MOL0     C23633  13.501   9.200   3.435 -0.4463 -0.6329 -0.5094
  172MOL0     O23634  13.571   9.163   3.553  0.4435 -0.2887 -0.3313
  172MOL0     C23635  13.697   9.222   3.574  0.8513  0.3802  0.3195
  172MOL0     C23636  13.713   9.211   3.721  0.6435 -0.3237 -0.9368
  172MOL0     C23637  13.853   9.250   3.757  0.1280 -1.1236 -0.7612
  172MOL0     C23638  13.891   9.238   3.912 -0.1341  0.3472  0.2881
  172MOL0     C23639  14.032   9.267   3.935 -0.3496 -0.2623  0.1568
  172MOL0     C23640  14.133   9.172   3.859 -0.3998  0.1078  0.2428
  172MOL0     C23641  14.277   9.213   3.891  0.2683 -1.4123  0.2365
  172MOL0     C23642  14.348   9.121   3.983 -0.1458 -0.3194 -0.0760
  172MOL0    Cl23643  14.263   9.097   4.138 -0.2169 -0.4282  0.2512
  172MOL0     C23644  13.370   9.237   3.456 -0.3675 -0.3677 -0.4489
  172MOL0     C23645  13.301   9.299   3.356 -0.3732 -0.4251  0.5640
  172MOL0     O23646  13.385   9.586   3.169  0.3534  0.0092  0.6869
  172MOL0     C23647  13.227   9.506   2.866  0.0743 -1.2247  0.3980
  172MOL0     C23648  13.164   9.562   2.758 -1.0756 -0.0733  0.2310
  172MOL0     N23649  12.824   9.609   2.251  0.2824 -0.1723  0.2661
  172MOL0     N23650  12.751   9.519   2.213 -0.2634 -0.5424  0.6744
  172MOL0     C23651  11.592   9.990   2.005 -0.0020  0.1163 -0.6320
  172MOL0     C23652  11.463  10.008   1.962  0.2026 -0.3131  0.1815
  172MOL0     C23653  11.146   9.982   1.622 -0.6580 -0.0438  0.2277
  172MOL0     C23654  11.098   9.870   1.548 -0.6711  0.6823  0.1260
  172MOL0     C23655  10.970   9.865   1.501 -0.7542 -0.0623 -0.4132
  172MOL0     C23656  10.877   9.979   1.527 -0.3149 -0.1299  0.8459
  172MOL0     O23657  10.751   9.981   1.473  0.3361  0.2084 -0.6715
  172MOL0     C23658  10.727   9.907   1.350  0.5875  0.3097  0.7184
  172MOL0     C23659  10.606   9.972   1.294  0.2120  0.8198  0.0896
  172MOL0     C23660  10.565   9.880   1.189  0.5750  0.0654  0.5758
  172MOL0     C23661  10.656   9.870   1.064 -0.2346 -0.1848  0.5025
  172MOL0     C23662  10.576   9.809   0.954 -0.0568  0.3304 -0.4817
  172MOL0     C23663  10.494   9.795   0.861  0.0995  1.1990 -0.3943
  172MOL0     C23664  10.928  10.087   1.599 -0.1350  0.1659  0.1155
  172MOL0     C23665  11.060  10.087   1.647 -0.3344  0.4284  0.1693
  172MOL0     C23666  11.082  10.198   1.742 -0.7513 -0.8607  0.5309
  172MOL0     H23667  11.542  10.104   1.650 -2.2358  1.6467 -0.0007
  172MOL0     H23668  11.758  10.083   1.730 -1.7792  2.1724 -0.6391
  172MOL0     H23669  11.950   9.884   1.856  1.4049 -2.8230  0.1544
  172MOL0     H23670  11.806   9.796   1.936  1.6663 -1.4658  1.7185
  172MOL0     H23671  12.045   9.914   2.067 -2.6919  2.3168 -0.2613
  172MOL0     H23672  11.912   9.833   2.155 -1.3527  0.1018 -0.6103
  172MOL0     H23673  11.975   9.612   2.042  0.4154 -1.1147  3.7245
  172MOL0     H23674  12.104   9.692   1.963  0.5919  0.8766  0.2000
  172MOL0     H23675  12.200   9.753   2.188  0.7088  0.1656  1.5134
  172MOL0     H23676  12.085   9.653   2.264 -1.0911 -1.7305 -1.7103
  172MOL0     H23677  12.251   9.535   2.040  1.9370 -1.6300  0.1408
  172MOL0     H23678  12.168   9.446   2.161 -3.2443  3.1377  0.1417
  172MOL0     H23679  12.394   9.627   2.254  0.7596 -0.4338 -0.7863
  172MOL0     H23680  12.287   9.520   2.342  0.5931 -0.9677 -0.6182
  172MOL0     H23681  12.434   9.408   2.102 -2.7803 -0.9768 -0.4030
  172MOL0     H23682  12.368   9.321   2.229 -3.1121  1.5461  0.3453
  172MOL0     H23683  12.530   9.371   2.397  1.0320  0.6902  0.0647
  172MOL0     H23684  12.603   9.308   2.257  0.8362  0.9744 -0.1767
  172MOL0     H23685  12.572   9.613   2.465 -1.7087  2.4292 -0.9865
  172MOL0     H23686  12.719   9.864   2.431  0.2640  1.3016  0.2704
  172MOL0     H23687  12.898   9.823   2.414 -0.1969  0.4967 -0.0235
  172MOL0     H23688  12.687   9.744   2.607  0.0382  1.3185 -1.1088
  172MOL0     H23689  12.833   9.653   2.624 -0.1024  0.5074  2.0926
  172MOL0     H23690  12.799   9.956   2.636 -1.2673 -0.3046 -0.1057
  172MOL0     H23691  12.831   9.848   2.770  2.4377  1.5450  0.2945
  172MOL0     H23692  13.028   9.904   2.541  0.6375 -1.7937  0.1345
  172MOL0     H23693  13.040   9.948   2.712 -0.1116  0.0129  0.9392
  172MOL0     H23694  13.053   9.851   2.913  0.6907  0.1364 -1.2275
  172MOL0     H23695  13.148   9.707   3.236 -1.8959  0.9355  0.8225
  172MOL0     H23696  13.067   9.837   3.143  0.4111 -0.1350  0.1817
  172MOL0     H23697  13.242   9.832   3.149 -1.3072  0.7486 -0.5983
  172MOL0     H23698  13.546   9.285   3.113  0.9279  0.3931  0.0631
  172MOL0     H23699  13.669   9.198   3.297 -0.6809 -0.3144 -1.5328
  172MOL0     H23700  13.776   9.171   3.519  1.0014  1.9551 -0.9764
  172MOL0     H23701  13.690   9.328   3.549  0.1179  0.1128 -0.6781
  172MOL0     H23702  13.638   9.274   3.769  0.5604 -0.2014 -1.2218
  172MOL0     H23703  13.697   9.111   3.763  0.4126 -0.1822 -0.6847
  172MOL0     H23704  13.863   9.356   3.732 -1.1858 -0.1551  2.3827
  172MOL0     H23705  13.923   9.189   3.699  2.9423  0.7172  0.4973
  172MOL0     H23706  13.878   9.138   3.955 -0.3690  0.0828 -0.3791
  172MOL0     H23707  13.832   9.305   3.975  1.5732  1.8069  0.4040
  172MOL0     H23708  14.054   9.370   3.904  1.3567 -0.3641  0.8901
  172MOL0     H23709  14.068   9.272   4.038  0.0776  1.2741 -0.0329
  172MOL0     H23710  14.120   9.172   3.751  0.1031 -0.8753  0.1629
  172MOL0     H23711  14.118   9.068   3.892  1.6513  0.2075  1.7001
  172MOL0     H23712  14.279   9.320   3.915  1.1134 -1.1707 -0.8817
  172MOL0     H23713  14.329   9.212   3.795 -0.0816 -0.2643  0.0150
  172MOL0     H23714  14.454   9.139   4.004  1.1273 -3.5200 -2.9042
  172MOL0     H23715  14.355   9.027   3.928  1.1932 -1.6594  2.1791
  172MOL0     H23716  13.311   9.219   3.545 -0.6898  0.3821 -0.5046
  172MOL0     H23717  13.206   9.344   3.383  1.3939  2.9307  1.7768
  172MOL0     H23718  13.271   9.407   2.857  2.5123 -0.0667 -2.1056
  172MOL0     H23719  13.158   9.514   2.661  0.1636  0.7637 -0.2743
  172MOL0     H23720  11.622   9.957   2.103 -1.7390 -0.0720 -0.1385
  172MOL0     H23721  11.373   9.992   2.021  0.2159 -3.0193 -0.3876
  172MOL0     H23722  11.151   9.776   1.545  2.0788  2.0815  1.3567
  172MOL0     H23723  10.932   9.770   1.464 -0.5448  0.3768 -1.8101
  172MOL0     H23724  10.808   9.915   1.277 -0.3583 -0.5286 -0.4745
  172MOL0     H23725  10.713   9.803   1.379  1.9882 -0.1107 -0.0038
  172MOL0     H23726  10.625  10.070   1.248  0.2716  0.3828 -0.8444
  172MOL0     H23727  10.535   9.973   1.377  1.2322 -1.3391  1.0452
  172MOL0     H23728  10.553   9.780   1.230 -1.7406  0.0038 -0.0636
  172MOL0     H23729  10.464   9.906   1.155  0.2528 -0.7998  0.8559
  172MOL0     H23730  10.746   9.814   1.092 -0.7206  0.2811  3.3457
  172MOL0     H23731  10.683   9.973   1.041  0.6389  0.1694  2.8604
  172MOL0     H23732  10.433   9.790   0.773  2.0053  0.7646 -1.7499
  172MOL0     H23733  10.853  10.165   1.610 -2.2056 -1.7759  0.2392
  172MOL0     H23734  11.158  10.263   1.698 -1.5751 -0.6430 -0.6126
  172MOL0     H23735  10.989  10.255   1.748 -0.1325  0.1712  0.5549
  172MOL0     H23736  11.120  10.166   1.839  0.5618  2.1658  1.1260
  173MOL0     O23737  11.243   2.244   7.166 -0.3155 -0.5468 -0.2608
  173MOL0     C23738  11.250   2.281   7.046  0.3888  0.7426 -0.3521
  173MOL0     O23739  11.141   2.299   6.965 -0.1349  0.1154  0.7613
  173MOL0     C23740  11.020   2.304   7.026 -0.3718  0.8180  0.2247
  173MOL0     C23741  10.928   2.205   7.007  0.5360 -0.3791 -0.5214
  173MOL0     C23742  10.790   2.206   7.059  0.2341 -0.3541  0.2712
  173MOL0     C23743  10.755   2.325   7.119 -0.0136  0.3222 -0.1458
  173MOL0     O23744  10.617   2.329   7.137 -0.0605 -0.9853 -0.3222
  173MOL0     C23745  10.554   2.443   7.185 -0.1960 -0.1636 -0.1311
  173MOL0     C23746  10.409   2.452   7.157 -0.0189  1.3378 -0.3512
  173MOL0     C23747  10.312   2.329   7.198 -0.4822 -0.5128 -0.4577
  173MOL0     C23748  10.165   2.338   7.154  0.6053 -0.6241 -0.4480
  173MOL0     C23749  10.090   2.208   7.184 -0.7834 -0.0759  1.1870
  173MOL0     C23750  10.002   2.147   7.073  0.0057 -0.2537 -0.9937
  173MOL0     C23751   9.880   2.237   7.024 -0.1401 -0.0460  0.3439
  173MOL0     C23752   9.785   2.279   7.130  0.5669  0.3663  0.0084
  173MOL0     N23753   9.673   2.361   7.080  0.6882 -0.6569  0.0672
  173MOL0     C23754   9.681   2.497   7.070  0.8053  0.1162  0.0291
  173MOL0     C23755   9.556   2.531   7.054  0.9353  0.3482  0.7099
  173MOL0     C23756   9.510   2.664   7.071 -0.1626 -0.5438  0.1775
  173MOL0     C23757   9.568   2.767   6.972 -0.4420  0.1340 -0.1529
  173MOL0     C23758   9.539   2.721   6.830  0.6246  0.7795  0.3358
  173MOL0     C23759   9.505   2.824   6.714 -0.0529 -0.2502  0.3521
  173MOL0     O23760   9.383   2.889   6.730  0.1803  0.1401 -0.7392
  173MOL0     C23761   9.273   2.841   6.660 -0.5909 -0.7768 -0.0178
  173MOL0     C23762   9.153   2.880   6.717  1.0414 -0.6123  0.3095
  173MOL0     C23763   9.023   2.842   6.674 -1.0978  0.7260 -1.1776
  173MOL0     C23764   8.899   2.914   6.728 -0.5935  0.1175  0.2375
  173MOL0     C23765   9.015   2.742   6.578  0.1440  0.8015 -0.4006
  173MOL0     C23766   8.892   2.668   6.531  0.6939 -0.6749 -0.8856
  173MOL0     O23767   8.904   2.599   6.421 -0.0115  0.0464 -0.1034
  173MOL0     C23768   8.804   2.530   6.366  0.0060  0.5275  0.5615
  173MOL0     C23769   8.771   2.558   6.238 -0.5362 -0.5276  0.4230
  173MOL0     C23770   8.676   2.491   6.173 -0.2470 -0.3005  0.4571
  173MOL0     C23771   8.609   2.380   6.226 -0.1787  0.6588  0.2156
  173MOL0     O23772   8.510   2.325   6.149 -0.2373 -0.7420  0.3153
  173MOL0     C23773   8.469   2.193   6.192 -0.4506 -0.1312 -0.3009
  173MOL0     C23774   8.395   2.109   6.091  0.0082  0.6922  0.2233
  173MOL0     C23775   8.254   2.171   6.067  0.0548 -0.6619  0.9364
  173MOL0     C23776   8.191   2.094   5.947  0.2441 -0.1744  0.2992
  173MOL0     C23777   8.037   2.080   5.958  0.4336 -0.7835 -0.4098
  173MOL0     C23778   7.969   2.017   5.835  0.4395 -0.6729  0.6255
  173MOL0     C23779   7.827   1.965   5.861 -0.9881 -0.7958  1.0735
  173MOL0     C23780   7.813   1.849   5.958  1.3237 -0.4976 -0.3873
  173MOL0    Cl23781   7.661   1.759   5.927  0.1727  0.1548 -0.2669
  173MOL0     C23782   8.648   2.345   6.358  0.1473 -0.0035  0.7521
  173MOL0     C23783   8.742   2.423   6.420 -0.4439  0.1228 -0.5874
  173MOL0     O23784   8.790   2.667   6.601 -0.1586 -0.2150 -0.0570
  173MOL0     C23785   9.138   2.695   6.526 -0.1215 -1.1765 -0.4453
  173MOL0     C23786   9.269   2.749   6.556 -0.2310  0.2636 -0.7220
  173MOL0     N23787   9.470   2.424   7.034  0.8511 -0.4040 -0.8368
  173MOL0     N23788   9.544   2.324   7.043  0.1104 -0.0944 -0.2870
  173MOL0     C23789  10.850   2.425   7.145  0.4795  0.3289  0.3731
  173MOL0     C23790  10.981   2.419   7.097 -0.5512  1.0438  0.3465
  173MOL0     C23791  11.386   2.301   6.979  0.9501 -0.5453 -1.1874
  173MOL0     C23792  11.394   2.315   6.839  0.2939 -0.8116 -0.7604
  173MOL0     C23793  11.516   2.322   6.773  0.7870  0.2108 -0.5285
  173MOL0     C23794  11.629   2.291   6.843  0.5790  0.0421 -0.2927
  173MOL0     O23795  11.757   2.287   6.789 -0.2232 -0.6968 -0.0986
  173MOL0     C23796  11.801   2.386   6.696 -0.5824 -0.2600  0.5574
  173MOL0     C23797  11.772   2.527   6.733  0.3718 -0.0853  0.0566
  173MOL0     C23798  11.827   2.640   6.635 -0.2583  0.4294 -0.1512
  173MOL0     C23799  11.787   2.629   6.485  0.5862 -0.8667 -0.5373
  173MOL0     C23800  11.646   2.603   6.468 -0.1922  0.0064 -0.1612
  173MOL0     C23801  11.531   2.571   6.456  0.5155  1.0760  0.0634
  173MOL0     C23802  11.627   2.290   6.982 -1.4124  0.3331 -0.7685
  173MOL0     C23803  11.507   2.294   7.057 -0.2391 -0.6080  0.4279
  173MOL0     C23804  11.510   2.288   7.208  0.7500 -0.9320 -0.4038
  173MOL0     H23805  10.955   2.117   6.948 -0.2492 -0.8808 -0.1479
  173MOL0     H23806  10.711   2.137   7.030  1.0240 -0.6481 -1.3302
  173MOL0     H23807  10.599   2.533   7.141  2.3533 -0.4487  1.6083
  173MOL0     H23808  10.564   2.434   7.294  0.0608 -1.6421 -0.2565
  173MOL0     H23809  10.366   2.541   7.203  0.1955  2.4786 -2.2458
  173MOL0     H23810  10.399   2.482   7.052 -0.2460  1.8157 -0.1973
  173MOL0     H23811  10.358   2.239   7.156  3.9565  1.9732 -1.6311
  173MOL0     H23812  10.301   2.321   7.307 -1.9004 -0.4324 -0.5841
  173MOL0     H23813  10.105   2.427   7.177  1.2509  0.5080 -2.8863
  173MOL0     H23814  10.175   2.334   7.045 -0.6658 -3.8482 -0.5612
  173MOL0     H23815  10.014   2.237   7.258 -1.1340 -0.3532  0.9378
  173MOL0     H23816  10.152   2.131   7.230 -1.6870 -0.2155  2.2324
  173MOL0     H23817  10.061   2.115   6.987  2.1869  0.5595  0.1171
  173MOL0     H23818   9.959   2.063   7.129  0.0498  2.8155  4.3586
  173MOL0     H23819   9.833   2.159   6.963  1.3386 -1.1399  0.5551
  173MOL0     H23820   9.915   2.323   6.967 -0.5462  0.1040  0.3163
  173MOL0     H23821   9.745   2.191   7.182  0.9633  0.7090  0.9279
  173MOL0     H23822   9.830   2.336   7.212 -1.4915 -0.9287  2.2044
  173MOL0     H23823   9.767   2.560   7.092  1.7298 -1.5057  1.3357
  173MOL0     H23824   9.548   2.691   7.171 -1.3606  0.7677  0.3140
  173MOL0     H23825   9.402   2.679   7.070 -0.1356 -0.3585 -0.1957
  173MOL0     H23826   9.520   2.863   6.988  2.3578  1.7528 -0.7217
  173MOL0     H23827   9.675   2.772   6.994 -0.1277  1.0060 -1.6854
  173MOL0     H23828   9.623   2.673   6.779  0.0669  0.7015 -0.5420
  173MOL0     H23829   9.452   2.655   6.831  1.6912 -0.6897 -0.1921
  173MOL0     H23830   9.583   2.901   6.708 -2.8562  2.8184  0.1521
  173MOL0     H23831   9.521   2.775   6.617 -1.0113  0.0090  0.0561
  173MOL0     H23832   9.167   2.947   6.801 -1.5379  0.1443  0.2244
  173MOL0     H23833   8.827   2.919   6.645 -0.5731 -2.8944 -0.0502
  173MOL0     H23834   8.921   3.011   6.774  0.0758  0.0594  0.0478
  173MOL0     H23835   8.843   2.849   6.795 -2.5551  3.0200  1.6333
  173MOL0     H23836   8.811   2.637   6.175  0.8966 -0.5470  1.2527
  173MOL0     H23837   8.646   2.511   6.070  0.6227 -4.6115 -0.8564
  173MOL0     H23838   8.548   2.123   6.218 -0.6688 -0.2955 -0.0693
  173MOL0     H23839   8.402   2.208   6.277  1.2419  2.0145  0.7508
  173MOL0     H23840   8.454   2.099   5.999  0.3826 -0.5648  0.5900
  173MOL0     H23841   8.378   2.009   6.132 -4.1689  0.8208 -0.8083
  173MOL0     H23842   8.274   2.275   6.039  2.2799 -0.6856  2.1896
  173MOL0     H23843   8.194   2.160   6.158 -0.0462 -1.0379  0.8290
  173MOL0     H23844   8.240   1.999   5.925  2.5849  0.9933  0.1399
  173MOL0     H23845   8.209   2.146   5.852 -1.0646 -1.9739 -1.0138
  173MOL0     H23846   8.023   2.012   6.043  1.4493 -0.6774 -0.1467
  173MOL0     H23847   7.993   2.177   5.981 -0.1982 -0.8859 -1.1143
  173MOL0     H23848   8.034   1.934   5.804 -2.3283 -3.0848  0.8611
  173MOL0     H23849   7.976   2.103   5.768 -3.3819  0.0320  0.9110
  173MOL0     H23850   7.796   1.927   5.763  1.0271  2.5447 -1.0408
  173MOL0     H23851   7.758   2.048   5.878 -0.6421 -0.5084  1.0976
  173MOL0     H23852   7.816   1.891   6.059  2.0874  0.1887 -0.6821
  173MOL0     H23853   7.899   1.782   5.965 -0.6274 -3.2349 -0.8857
  173MOL0     H23854   8.604   2.262   6.412 -0.3912 -1.8889 -2.3074
  173MOL0     H23855   8.766   2.391   6.521  1.6087  2.9822 -0.0679
  173MOL0     H23856   9.139   2.619   6.447 -1.8274 -1.1195 -0.5645
  173MOL0     H23857   9.362   2.711   6.516 -0.4045  0.2008 -1.0763
  173MOL0     H23858  10.815   2.515   7.193  0.4620  1.8010 -2.2119
  173MOL0     H23859  11.052   2.502   7.101  1.8440 -0.9148  1.3038
  173MOL0     H23860  11.308   2.334   6.777 -1.1791 -1.7861  0.8987
  173MOL0     H23861  11.528   2.349   6.669 -1.5672 -1.0870 -1.2073
  173MOL0     H23862  11.908   2.378   6.672 -0.9772  1.2851 -2.1098
  173MOL0     H23863  11.742   2.362   6.607 -1.0373 -4.5830  1.7753
  173MOL0     H23864  11.818   2.561   6.827 -1.9564  1.9864  0.5582
  173MOL0     H23865  11.665   2.548   6.736 -0.5356 -3.5017 -2.7115
  173MOL0     H23866  11.783   2.736   6.662  0.8542  0.5019  1.6503
  173MOL0     H23867  11.937   2.646   6.630 -0.2369 -0.6426 -1.9522
  173MOL0     H23868  11.850   2.555   6.435  3.3146  2.6014 -2.7550
  173MOL0     H23869  11.805   2.730   6.445 -4.0854 -0.0775 -1.1731
  173MOL0     H23870  11.430   2.544   6.431  0.2431  0.5527  1.6165
  173MOL0     H23871  11.730   2.287   7.015 -0.9264  2.1220 -1.9938
  173MOL0     H23872  11.613   2.297   7.242  0.3533  0.6888  0.4950
  173MOL0     H23873  11.449   2.373   7.241  0.2609 -0.0160 -3.3811
  173MOL0     H23874  11.469   2.189   7.231  0.1262 -0.7265 -0.5996
  174MOL0     O23875   0.246   2.467   3.251  0.1982  0.8597  0.2473
  174MOL0     C23876   0.151   2.415   3.315 -0.3579 -0.2977  0.4455
  174MOL0     O23877   0.121   2.283   3.322  0.0107  0.2374  0.4966
  174MOL0     C23878   0.209   2.193   3.268  0.1470  0.7512  0.6951
  174MOL0     C23879   0.258   2.187   3.136 -0.4108 -0.6342  0.9464
  174MOL0     C23880   0.348   2.090   3.097 -0.0384 -0.5860  0.7077
  174MOL0     C23881   0.393   1.991   3.191 -0.0213 -0.6839  0.1705
  174MOL0     O23882   0.479   1.890   3.142  0.1989  0.2515 -0.4827
  174MOL0     C23883   0.525   1.884   3.012 -0.7166 -0.7649 -0.1956
  174MOL0     C23884   0.607   1.751   3.017 -0.6979  0.2319 -0.3057
  174MOL0     C23885   0.522   1.624   3.017  0.1239 -0.9343 -0.0266
  174MOL0     C23886   0.591   1.516   2.933 -0.6110  1.2289  0.7224
  174MOL0     C23887   0.497   1.401   2.878  0.6881  0.2724 -0.3873
  174MOL0     C23888   0.408   1.346   2.983 -1.2196  0.1967  0.5087
  174MOL0     C23889   0.489   1.281   3.094  0.2979  0.2106 -1.0121
  174MOL0     C23890   0.411   1.232   3.211  0.7863  0.5597 -0.0202
  174MOL0     N23891   0.299   1.312   3.267 -0.9823 -0.1723  0.1970
  174MOL0     C23892   0.315   1.439   3.316  0.2097  0.2818 -0.5561
  174MOL0     C23893   0.187   1.471   3.348 -0.0297  0.2622 -0.5475
  174MOL0     C23894   0.141   1.596   3.415 -0.0357  0.9242 -0.0539
  174MOL0     C23895   0.201   1.610   3.551  0.2693 -0.0090  0.0267
  174MOL0     C23896   0.138   1.520   3.655  0.3181  0.3864  0.2430
  174MOL0     C23897   0.202   1.534   3.792 -0.1638  0.3521  0.1253
  174MOL0     O23898   0.200   1.665   3.839 -1.0156 -0.1169 -0.2763
  174MOL0     C23899   0.127   1.699   3.954  0.9554 -0.2325 -0.1917
  174MOL0     C23900   0.120   1.840   3.975  0.5961 -0.5117  0.1058
  174MOL0     C23901   0.038   1.893   4.075 -0.6128 -0.0335  0.2695
  174MOL0     C23902   0.040   2.042   4.075 -0.2009 -0.0483  0.5712
  174MOL0     C23903  -0.030   1.811   4.167  0.4328 -0.6250 -0.9283
  174MOL0     C23904  -0.114   1.844   4.284  0.6812  0.3987  0.8077
  174MOL0     O23905  -0.191   1.751   4.340  0.2999 -0.1754  0.5136
  174MOL0     C23906  -0.247   1.782   4.464 -0.5735  0.5885 -0.1298
  174MOL0     C23907  -0.169   1.768   4.582  0.9302  0.4105  1.0640
  174MOL0     C23908  -0.230   1.788   4.708 -0.3072 -0.0666  0.1792
  174MOL0     C23909  -0.366   1.824   4.712 -0.8178 -0.1661  0.0180
  174MOL0     O23910  -0.407   1.844   4.847 -0.0849 -0.5719 -0.0098
  174MOL0     C23911  -0.547   1.841   4.877 -0.2315  0.9816  0.6541
  174MOL0     C23912  -0.605   1.983   4.871 -0.3189 -0.4605  0.4438
  174MOL0     C23913  -0.543   2.065   4.990 -0.0740 -0.0985  0.0661
  174MOL0     C23914  -0.555   2.222   4.975 -1.1162 -1.0751  0.5288
  174MOL0     C23915  -0.703   2.261   4.940 -0.3474 -0.2316 -0.4491
  174MOL0     C23916  -0.738   2.411   4.929 -0.0731 -0.3653 -0.1123
  174MOL0     C23917  -0.869   2.454   4.867 -0.0784  0.4002 -0.3614
  174MOL0     C23918  -0.893   2.600   4.905  0.2220 -0.9957  0.4310
  174MOL0    Cl23919  -0.771   2.710   4.838 -0.0435  0.2873  0.1858
  174MOL0     C23920  -0.441   1.849   4.595 -0.1242  0.1584 -0.0749
  174MOL0     C23921  -0.377   1.829   4.472  0.1433 -0.1405  0.4057
  174MOL0     O23922  -0.100   1.959   4.328  0.1963  0.5047 -0.1077
  174MOL0     C23923  -0.041   1.678   4.131  0.0369 -0.3090 -0.4582
  174MOL0     C23924   0.041   1.622   4.027  0.3118  0.4310 -0.5314
  174MOL0     N23925   0.094   1.368   3.328  0.9626  0.3970 -0.3362
  174MOL0     N23926   0.168   1.272   3.281 -0.1224  0.1453 -0.2034
  174MOL0     C23927   0.344   1.985   3.323 -0.0456  0.1379  0.4566
  174MOL0     C23928   0.250   2.094   3.353 -0.7678  0.6002  0.1831
  174MOL0     C23929   0.062   2.505   3.386  0.9587 -0.8259 -0.2692
  174MOL0     C23930   0.124   2.574   3.488  0.7315 -0.2546 -0.4023
  174MOL0     C23931   0.044   2.651   3.576 -0.1231 -0.5166 -0.5468
  174MOL0     C23932  -0.094   2.670   3.547 -0.3662 -0.7445  0.2288
  174MOL0     O23933  -0.181   2.747   3.625  0.0128 -0.4285  0.2711
  174MOL0     C23934  -0.203   2.685   3.755  0.4218  0.1742  0.2597
  174MOL0     C23935  -0.334   2.746   3.797  0.4589  0.3947 -0.6246
  174MOL0     C23936  -0.394   2.683   3.917 -0.2064 -0.1879 -0.4469
  174MOL0     C23937  -0.522   2.759   3.964  0.1070  0.6487 -0.1007
  174MOL0     C23938  -0.630   2.744   3.870  0.6783  0.0686 -0.6160
  174MOL0     C23939  -0.709   2.734   3.779  0.4232  0.5714  0.2997
  174MOL0     C23940  -0.150   2.611   3.436  0.4784  0.3589  0.0466
  174MOL0     C23941  -0.073   2.526   3.351  0.4693  0.0510 -0.4028
  174MOL0     C23942  -0.135   2.451   3.238 -0.7748  0.2844  0.0281
  174MOL0     H23943   0.218   2.261   3.066  0.5024 -0.4523  0.6119
  174MOL0     H23944   0.378   2.091   2.993  0.0944 -1.2551  0.7366
  174MOL0     H23945   0.601   1.959   2.988 -0.4908 -1.1681 -0.7838
  174MOL0     H23946   0.449   1.881   2.934  1.6918  1.6951 -2.8832
  174MOL0     H23947   0.677   1.743   2.933  0.2999 -0.1349  0.5326
  174MOL0     H23948   0.672   1.757   3.105 -0.6531 -2.0003 -0.1315
  174MOL0     H23949   0.505   1.593   3.121 -0.6815  4.5305  1.8550
  174MOL0     H23950   0.428   1.648   2.966  0.5194 -0.4211 -0.5315
  174MOL0     H23951   0.618   1.552   2.834 -0.3746 -0.0203  0.3229
  174MOL0     H23952   0.678   1.472   2.982 -0.8627 -1.6575 -1.2160
  174MOL0     H23953   0.560   1.326   2.831 -0.0768  0.0023 -0.9994
  174MOL0     H23954   0.440   1.444   2.795 -0.7774 -0.5557  0.1506
  174MOL0     H23955   0.337   1.420   3.021 -1.7478  0.8065 -1.5864
  174MOL0     H23956   0.349   1.267   2.935 -1.4335  0.9519 -0.4996
  174MOL0     H23957   0.552   1.356   3.143  2.4522 -2.2339  0.1851
  174MOL0     H23958   0.555   1.204   3.053 -0.2682 -1.5576  1.1662
  174MOL0     H23959   0.375   1.129   3.197  0.7536  0.1423  2.5266
  174MOL0     H23960   0.482   1.224   3.294  3.5704  1.7504 -2.1653
  174MOL0     H23961   0.403   1.499   3.333 -0.0772 -0.1338  3.1162
  174MOL0     H23962   0.032   1.591   3.426 -0.1744 -1.3001 -1.7458
  174MOL0     H23963   0.176   1.673   3.346  3.5140  0.4081  0.9925
  174MOL0     H23964   0.310   1.606   3.560  0.3750  1.7973  0.0193
  174MOL0     H23965   0.183   1.717   3.568  0.5567 -0.2376  1.9201
  174MOL0     H23966   0.034   1.551   3.668 -0.2744 -0.4342 -2.1149
  174MOL0     H23967   0.138   1.419   3.612  1.7188  0.8338 -0.9160
  174MOL0     H23968   0.151   1.458   3.852 -2.3153 -0.2179 -2.2435
  174MOL0     H23969   0.307   1.505   3.792  0.0414  0.8921  2.3889
  174MOL0     H23970   0.186   1.899   3.911 -0.2665  0.6139  0.2183
  174MOL0     H23971  -0.060   2.083   4.056  0.0783  0.3131 -0.1782
  174MOL0     H23972   0.090   2.077   3.984 -3.3694 -1.3540 -1.8783
  174MOL0     H23973   0.076   2.084   4.169 -1.2695 -0.0424  0.9895
  174MOL0     H23974  -0.069   1.728   4.576  0.7701  0.1450 -0.0913
  174MOL0     H23975  -0.171   1.765   4.796  0.7149 -1.9817 -0.9421
  174MOL0     H23976  -0.586   1.763   4.811 -1.6952  1.3052  1.1096
  174MOL0     H23977  -0.560   1.799   4.977  0.5921 -1.4349 -0.1877
  174MOL0     H23978  -0.577   2.032   4.777  1.4598 -0.9507  0.6620
  174MOL0     H23979  -0.714   1.976   4.873 -0.5291  2.2382  1.5634
  174MOL0     H23980  -0.437   2.042   5.003 -0.4474 -0.9626  1.9971
  174MOL0     H23981  -0.593   2.033   5.082 -1.0163  1.9709  0.3324
  174MOL0     H23982  -0.486   2.264   4.902  0.0529  1.3653  2.8710
  174MOL0     H23983  -0.519   2.263   5.070  1.3257  1.8568 -1.4928
  174MOL0     H23984  -0.725   2.209   4.846 -0.4820 -0.9420 -0.0251
  174MOL0     H23985  -0.771   2.224   5.016 -1.0886  3.1800  0.7128
  174MOL0     H23986  -0.666   2.435   4.850 -2.5397  0.2849 -2.3177
  174MOL0     H23987  -0.720   2.456   5.027  0.0299 -1.2137  0.2704
  174MOL0     H23988  -0.949   2.399   4.919  1.0075  0.1674  1.1143
  174MOL0     H23989  -0.862   2.445   4.758 -1.8391  2.9698 -0.7713
  174MOL0     H23990  -0.906   2.614   5.013 -0.3070 -0.5360  0.3122
  174MOL0     H23991  -0.989   2.626   4.859  1.3001 -2.7927 -3.2544
  174MOL0     H23992  -0.543   1.886   4.598  0.2458  1.5620  4.8353
  174MOL0     H23993  -0.439   1.851   4.385  0.7016  3.8962  0.8440
  174MOL0     H23994  -0.105   1.611   4.187  0.0768 -0.2974 -0.3997
  174MOL0     H23995   0.035   1.515   4.015 -0.7307  0.2726  1.0963
  174MOL0     H23996   0.381   1.905   3.386  3.1624  0.5830 -0.6454
  174MOL0     H23997   0.222   2.099   3.458  0.9445 -1.4911  0.8303
  174MOL0     H23998   0.224   2.547   3.519  1.9596  3.7298 -0.3465
  174MOL0     H23999   0.097   2.683   3.665  0.9491  0.6880 -1.5762
  174MOL0     H24000  -0.213   2.576   3.754 -1.9910  0.3256  1.3111
  174MOL0     H24001  -0.122   2.704   3.827  0.7124  2.4129 -0.5738
  174MOL0     H24002  -0.406   2.726   3.717 -0.0209 -1.8120  0.3010
  174MOL0     H24003  -0.315   2.853   3.811  2.1626 -0.0490  0.8580
  174MOL0     H24004  -0.409   2.579   3.889  0.8988 -1.1371  2.2292
  174MOL0     H24005  -0.323   2.675   3.999 -0.2144 -0.2164 -0.4429
  174MOL0     H24006  -0.502   2.866   3.977  0.1957  1.0844 -3.2154
  174MOL0     H24007  -0.556   2.715   4.058  1.6499 -0.6241 -0.1075
  174MOL0     H24008  -0.768   2.736   3.689 -1.2990 -0.9809  1.3192
  174MOL0     H24009  -0.253   2.637   3.411  1.4684  2.0167 -2.7963
  174MOL0     H24010  -0.228   2.500   3.209 -0.1567  2.6170  1.6948
  174MOL0     H24011  -0.069   2.456   3.151  0.7985 -3.9583  0.7099
  174MOL0     H24012  -0.149   2.345   3.260 -0.9870 -0.1026 -1.8127
  175MOL0     O24013  11.422  11.227   5.952  0.4734 -0.1879  0.3559
  175MOL0     C24014  11.343  11.308   5.904  0.0692 -0.5953  0.2404
  175MOL0     O24015  11.365  11.391   5.799 -0.0750  0.2200 -0.4020
  175MOL0     C24016  11.500  11.423   5.792 -0.5164 -0.4178 -0.5622
  175MOL0     C24017  11.556  11.542   5.841 -0.1889 -0.8473  0.0445
  175MOL0     C24018  11.694  11.559   5.835 -0.1262 -0.3013 -0.5576
  175MOL0     C24019  11.772  11.475   5.759 -0.2542 -0.5647  0.2170
  175MOL0     O24020  11.906  11.495   5.751 -0.3059  0.0279 -0.2471
  175MOL0     C24021  11.988  11.460   5.635  0.2075 -0.1702 -1.5086
  175MOL0     C24022  12.130  11.465   5.680 -0.4377  1.0462 -0.5213
  175MOL0     C24023  12.192  11.600   5.647 -0.3176  0.3255 -0.8061
  175MOL0     C24024  12.308  11.646   5.732  0.1114 -0.5732 -0.6012
  175MOL0     C24025  12.350  11.790   5.684  0.0291  0.6864  0.1669
  175MOL0     C24026  12.493  11.781   5.632 -0.4796 -0.6581  0.3556
  175MOL0     C24027  12.528  11.922   5.578 -0.2335  0.1084 -0.4350
  175MOL0     C24028  12.457  11.973   5.447  0.5841  0.5155  0.0419
  175MOL0     N24029  12.522  12.083   5.374  0.4212  0.4209  0.2434
  175MOL0     C24030  12.493  12.115   5.244 -0.4314 -0.1696  0.3946
  175MOL0     C24031  12.524  12.245   5.235 -0.5250  0.4170 -0.3197
  175MOL0     C24032  12.514  12.317   5.104  0.5404 -0.6575  0.7453
  175MOL0     C24033  12.367  12.353   5.077  0.3639  0.1944  0.6559
  175MOL0     C24034  12.353  12.455   4.971  0.2023  0.7999 -0.0088
  175MOL0     C24035  12.383  12.602   5.009 -0.1992 -0.2033 -0.1502
  175MOL0     O24036  12.322  12.685   4.910 -0.3762 -0.0619 -0.2326
  175MOL0     C24037  12.331  12.823   4.928  1.0032 -0.3490  0.8057
  175MOL0     C24038  12.264  12.911   4.837 -0.0250 -0.1416 -0.1926
  175MOL0     C24039  12.264  13.049   4.852 -0.4198 -0.2259 -0.8250
  175MOL0     C24040  12.166  13.134   4.776  0.1067  0.4267  0.1210
  175MOL0     C24041  12.366  13.115   4.938  0.3123  0.3672 -0.1702
  175MOL0     C24042  12.376  13.268   4.934 -1.4396 -0.3759 -0.1153
  175MOL0     O24043  12.450  13.305   5.038 -0.0007 -1.1023 -0.2812
  175MOL0     C24044  12.481  13.435   5.068 -0.7119  0.4284  0.8101
  175MOL0     C24045  12.416  13.544   5.029  0.1916 -0.2057  0.2207
  175MOL0     C24046  12.475  13.669   5.075  0.0072  0.2393 -0.1478
  175MOL0     C24047  12.582  13.676   5.165  0.4497  0.8277  1.5258
  175MOL0     O24048  12.637  13.790   5.208 -1.3394 -0.3423  0.2348
  175MOL0     C24049  12.690  13.885   5.114  0.2914  0.5568  0.0702
  175MOL0     C24050  12.747  14.000   5.195 -0.5651 -0.7098  0.3239
  175MOL0     C24051  12.877  13.969   5.262 -0.1853 -1.3184 -0.3734
  175MOL0     C24052  12.964  14.088   5.315  0.4702  0.8111 -0.9425
  175MOL0     C24053  12.956  14.096   5.468  0.1172 -0.3063  0.4969
  175MOL0     C24054  12.818  14.136   5.521  1.3709 -0.9137 -0.1052
  175MOL0     C24055  12.828  14.190   5.671 -0.1820  1.1215  0.5559
  175MOL0     C24056  12.862  14.075   5.772  0.0270  0.6543 -0.8751
  175MOL0    Cl24057  12.780  14.090   5.935 -0.3661 -0.5662 -0.2089
  175MOL0     C24058  12.637  13.553   5.216  0.3238  0.1350 -0.2711
  175MOL0     C24059  12.593  13.439   5.158  0.3948  1.2521  1.1863
  175MOL0     O24060  12.321  13.345   4.853 -0.5184 -0.3286  0.6733
  175MOL0     C24061  12.428  13.029   5.029 -0.2201 -0.0072  0.1448
  175MOL0     C24062  12.418  12.886   5.021  1.2692  0.2017  1.2350
  175MOL0     N24063  12.576  12.293   5.355 -0.2882 -0.5322  1.2000
  175MOL0     N24064  12.564  12.194   5.445  0.0892 -0.3820  0.1450
  175MOL0     C24065  11.715  11.367   5.701  0.3614  0.4318  0.5533
  175MOL0     C24066  11.577  11.329   5.719 -1.1414 -0.0345 -0.0070
  175MOL0     C24067  11.204  11.303   5.972  0.7909 -0.2115 -0.1472
  175MOL0     C24068  11.196  11.242   6.104 -0.1163  1.1885  1.1662
  175MOL0     C24069  11.078  11.245   6.172 -0.0304  0.1071  0.7097
  175MOL0     C24070  10.969  11.313   6.126  0.6116  1.3023  0.6434
  175MOL0     O24071  10.852  11.297   6.195  0.0517 -0.3624 -0.2163
  175MOL0     C24072  10.779  11.416   6.232  0.8007 -0.6701 -0.4302
  175MOL0     C24073  10.747  11.416   6.386 -0.5673 -0.6096 -0.6107
  175MOL0     C24074  10.691  11.562   6.422 -0.6941 -0.6883  0.2552
  175MOL0     C24075  10.729  11.601   6.566  0.2538 -0.4128 -0.1506
  175MOL0     C24076  10.682  11.734   6.607 -0.0378 -0.3782 -0.0373
  175MOL0     C24077  10.624  11.843   6.646 -0.3811  0.0848  0.3709
  175MOL0     C24078  10.962  11.359   5.992 -0.6337  0.6570  0.0022
  175MOL0     C24079  11.088  11.365   5.920  0.2206  0.3420 -0.3900
  175MOL0     C24080  11.084  11.419   5.783 -0.7746  0.0799 -0.1772
  175MOL0     H24081  11.493  11.626   5.868 -2.0223 -1.9552 -0.6412
  175MOL0     H24082  11.731  11.639   5.899 -3.5130  0.8535  0.1637
  175MOL0     H24083  11.987  11.528   5.549 -0.3279  1.0251 -0.5976
  175MOL0     H24084  11.971  11.355   5.609 -1.9869 -1.0978  2.7687
  175MOL0     H24085  12.132  11.429   5.784 -2.5974  4.3138  0.8181
  175MOL0     H24086  12.185  11.384   5.633 -0.2334 -1.3785  3.4219
  175MOL0     H24087  12.216  11.586   5.542 -1.7245 -1.0095 -0.9841
  175MOL0     H24088  12.122  11.683   5.656  0.3559  1.0391 -1.9498
  175MOL0     H24089  12.275  11.658   5.836  2.6394  0.9949  0.1151
  175MOL0     H24090  12.391  11.575   5.736  1.0139  0.5063  0.8742
  175MOL0     H24091  12.359  11.847   5.777  1.3518 -0.9836  1.1247
  175MOL0     H24092  12.278  11.833   5.615  0.0344  0.8714  0.2769
  175MOL0     H24093  12.552  11.756   5.721 -0.0823  3.1751  1.3623
  175MOL0     H24094  12.493  11.712   5.547  1.0943 -1.1427  0.7068
  175MOL0     H24095  12.633  11.921   5.549 -0.3488 -1.3664 -0.8707
  175MOL0     H24096  12.515  12.004   5.649  0.8680 -0.8988  0.9792
  175MOL0     H24097  12.446  11.887   5.381 -2.0551  1.1240 -0.4309
  175MOL0     H24098  12.357  12.013   5.467 -0.2145  0.3415 -3.1682
  175MOL0     H24099  12.460  12.042   5.170  3.4837 -1.5331 -0.2567
  175MOL0     H24100  12.550  12.254   5.022 -0.3152 -2.4422  1.6921
  175MOL0     H24101  12.581  12.404   5.106 -0.6425  0.4855 -2.1355
  175MOL0     H24102  12.318  12.258   5.054  0.7775 -0.3593  2.0042
  175MOL0     H24103  12.330  12.396   5.170 -1.6137 -0.6678  0.3149
  175MOL0     H24104  12.415  12.428   4.884 -0.6176  1.3166 -0.7649
  175MOL0     H24105  12.252  12.459   4.930  1.1962 -0.4925 -2.8419
  175MOL0     H24106  12.354  12.626   5.111  1.1906 -1.6036  0.6239
  175MOL0     H24107  12.490  12.619   4.998 -0.7797  2.8265 -2.1046
  175MOL0     H24108  12.206  12.872   4.754  2.2825 -2.9502 -0.6260
  175MOL0     H24109  12.221  13.179   4.693  2.6082  0.4133  1.6855
  175MOL0     H24110  12.111  13.212   4.829 -2.9675 -2.4128  1.5228
  175MOL0     H24111  12.093  13.064   4.733 -2.4135  1.2175  2.7956
  175MOL0     H24112  12.327  13.540   4.967 -0.6752 -2.6789  1.4921
  175MOL0     H24113  12.433  13.763   5.040  0.2489  0.1683 -0.6476
  175MOL0     H24114  12.765  13.832   5.054  1.7347 -1.4644  3.3956
  175MOL0     H24115  12.617  13.932   5.047  0.3662 -0.8858 -1.0730
  175MOL0     H24116  12.780  14.084   5.134  0.5034 -0.0937  1.6908
  175MOL0     H24117  12.678  14.033   5.274 -1.9898  0.9822 -1.5251
  175MOL0     H24118  12.930  13.917   5.182  2.1105 -0.8560  0.7360
  175MOL0     H24119  12.857  13.899   5.343  1.0151  0.5366  1.6673
  175MOL0     H24120  12.924  14.184   5.283 -0.0692  1.0650  0.4083
  175MOL0     H24121  13.070  14.074   5.291  0.5863 -5.3259  1.2647
  175MOL0     H24122  12.995  14.004   5.513  3.9044 -0.4133 -2.4836
  175MOL0     H24123  13.033  14.163   5.508 -1.7863  0.7030  2.7594
  175MOL0     H24124  12.741  14.058   5.525 -1.3146  1.5555  0.6891
  175MOL0     H24125  12.772  14.218   5.465 -1.0000 -1.3484  1.0813
  175MOL0     H24126  12.731  14.236   5.691 -3.6064 -4.1872 -1.6892
  175MOL0     H24127  12.907  14.266   5.674  1.3771 -0.1990 -2.5356
  175MOL0     H24128  12.969  14.067   5.793  0.3131  3.0211 -1.1074
  175MOL0     H24129  12.821  13.989   5.719 -2.5811  2.1054 -1.3888
  175MOL0     H24130  12.728  13.554   5.275  0.6904  0.6200 -0.8279
  175MOL0     H24131  12.635  13.340   5.168 -1.5563  0.0234 -1.6553
  175MOL0     H24132  12.494  13.059   5.110  0.5688 -0.1317 -0.4472
  175MOL0     H24133  12.485  12.839   5.093  0.6250 -0.0240  1.6963
  175MOL0     H24134  11.780  11.309   5.636 -1.1049 -0.5920 -0.0677
  175MOL0     H24135  11.538  11.234   5.683  1.8567 -2.3802  2.3901
  175MOL0     H24136  11.279  11.185   6.144 -1.5657 -1.7949  0.2186
  175MOL0     H24137  11.075  11.198   6.270 -1.5193 -0.3690  0.4549
  175MOL0     H24138  10.839  11.506   6.218 -0.1735  0.2590  1.1754
  175MOL0     H24139  10.687  11.422   6.173  0.0236 -1.3387  0.6814
  175MOL0     H24140  10.835  11.406   6.450  0.2920  2.5752 -1.1340
  175MOL0     H24141  10.680  11.332   6.407 -0.5200 -0.4629  0.1585
  175MOL0     H24142  10.730  11.640   6.356  3.1775 -1.5604  1.2667
  175MOL0     H24143  10.585  11.550   6.400 -1.0829  1.3246  0.9073
  175MOL0     H24144  10.837  11.608   6.573  0.2060  1.1346 -0.5290
  175MOL0     H24145  10.691  11.530   6.640  0.4771 -1.0411 -0.6351
  175MOL0     H24146  10.571  11.932   6.676 -0.8847 -0.4811  1.2019
  175MOL0     H24147  10.868  11.392   5.949  0.0964  1.4723 -1.0378
  175MOL0     H24148  11.112  11.338   5.715 -2.3903 -3.0426  2.5878
  175MOL0     H24149  10.993  11.474   5.756 -0.5372  0.4044 -0.3278
  175MOL0     H24150  11.164  11.494   5.773 -0.8567 -0.1126 -2.8691
  176MOL0     O24151   9.372   5.115   3.065 -0.8027 -0.0488 -0.4097
  176MOL0     C24152   9.487   5.103   3.019  0.3671  0.5045 -0.6791
  176MOL0     O24153   9.605   5.072   3.087 -0.1872  0.0729 -0.2134
  176MOL0     C24154   9.594   5.054   3.221 -0.7921 -0.5014 -0.0245
  176MOL0     C24155   9.572   4.926   3.276  0.2091  1.2413 -0.5838
  176MOL0     C24156   9.578   4.897   3.414  0.2319 -0.3670 -0.5181
  176MOL0     C24157   9.602   4.998   3.504 -0.4134 -0.9347 -0.0228
  176MOL0     O24158   9.619   4.967   3.645 -0.5016 -0.1901  0.0831
  176MOL0     C24159   9.645   5.072   3.740 -0.2027 -0.3446 -0.0904
  176MOL0     C24160   9.650   4.998   3.878 -1.1627 -0.0100 -0.7928
  176MOL0     C24161   9.671   5.094   3.999  0.8860  0.6756  0.5481
  176MOL0     C24162   9.673   5.022   4.132 -0.1358 -0.0619 -0.0441
  176MOL0     C24163   9.685   5.111   4.263  0.2278  0.4356  0.3041
  176MOL0     C24164   9.806   5.203   4.267 -0.2472 -0.1989 -0.0155
  176MOL0     C24165   9.946   5.141   4.256 -0.0889 -0.3382 -0.5877
  176MOL0     C24166   9.991   5.078   4.384 -0.4985 -0.3376 -0.2666
  176MOL0     N24167  10.103   4.989   4.352  0.6617 -0.2698 -0.0784
  176MOL0     C24168  10.082   4.864   4.310 -0.1125  0.1738 -0.1047
  176MOL0     C24169  10.207   4.805   4.297 -0.7253  0.7426  0.0524
  176MOL0     C24170  10.241   4.680   4.216 -0.4733  0.4885 -0.1608
  176MOL0     C24171  10.247   4.702   4.066  0.3624  0.9263  0.0181
  176MOL0     C24172  10.312   4.585   4.008  0.5713  0.4404  0.6964
  176MOL0     C24173  10.301   4.597   3.853 -0.0676  0.5499  0.8096
  176MOL0     O24174  10.172   4.557   3.800 -0.6005  0.2047  0.2114
  176MOL0     C24175  10.146   4.441   3.731  0.1814 -0.3206 -0.3647
  176MOL0     C24176  10.232   4.335   3.718 -0.3333  0.1017 -0.8060
  176MOL0     C24177  10.175   4.209   3.675 -0.0699  0.1155  0.5501
  176MOL0     C24178  10.282   4.100   3.670  0.0966  0.2321  0.2687
  176MOL0     C24179  10.039   4.197   3.628  0.1262  0.4728 -0.1340
  176MOL0     C24180   9.986   4.070   3.559 -0.2812 -0.7565 -0.2551
  176MOL0     O24181   9.863   4.025   3.594  0.3263 -0.4864 -0.1541
  176MOL0     C24182   9.800   3.925   3.531  0.8251  0.1926 -0.1762
  176MOL0     C24183   9.854   3.816   3.463  0.3339 -1.0298  0.4126
  176MOL0     C24184   9.759   3.722   3.415  0.1087  0.2882  0.2096
  176MOL0     C24185   9.625   3.741   3.441 -0.4155 -0.8923  0.1952
  176MOL0     O24186   9.535   3.649   3.382  0.3593 -0.6743 -0.4934
  176MOL0     C24187   9.550   3.509   3.404  0.8381 -0.2274  0.6687
  176MOL0     C24188   9.515   3.486   3.542 -0.0507 -0.4402  1.1795
  176MOL0     C24189   9.552   3.347   3.592  0.0380  0.9495  0.1624
  176MOL0     C24190   9.512   3.329   3.741 -0.0577 -1.0004 -0.2641
  176MOL0     C24191   9.362   3.319   3.764 -0.5980  0.3450 -1.0946
  176MOL0     C24192   9.332   3.273   3.913 -0.5818  0.4951 -0.2959
  176MOL0     C24193   9.219   3.169   3.915  0.0584 -0.0617  0.3912
  176MOL0     C24194   9.086   3.252   3.936 -0.9897  0.3778 -0.2811
  176MOL0    Cl24195   9.063   3.286   4.114  0.1989  0.6674 -0.2577
  176MOL0     C24196   9.578   3.851   3.499 -0.1986  0.0937 -0.9710
  176MOL0     C24197   9.660   3.946   3.551 -0.9863 -0.3190 -0.0957
  176MOL0     O24198  10.062   4.027   3.472  0.1567 -0.1259 -0.0714
  176MOL0     C24199   9.964   4.314   3.638  0.6005  0.6870  0.4194
  176MOL0     C24200  10.015   4.435   3.688 -0.4676  0.2234 -0.1512
  176MOL0     N24201  10.298   4.903   4.342  0.4178  0.4216 -0.1333
  176MOL0     N24202  10.238   5.016   4.358  0.6051 -0.2050  0.1304
  176MOL0     C24203   9.613   5.136   3.460  0.2464 -0.6517  0.7275
  176MOL0     C24204   9.608   5.163   3.314 -0.0156  0.2917  0.0442
  176MOL0     C24205   9.495   5.115   2.870 -0.2932  0.3824  0.0091
  176MOL0     C24206   9.401   5.051   2.786  0.5204 -0.8053 -0.0752
  176MOL0     C24207   9.418   5.041   2.649  0.1083 -0.7409  0.7023
  176MOL0     C24208   9.526   5.100   2.583  0.6494  0.5773 -0.3881
  176MOL0     O24209   9.543   5.102   2.453  0.1500  0.3679  0.6018
  176MOL0     C24210   9.566   4.980   2.374 -0.7133 -0.7656 -0.0984
  176MOL0     C24211   9.593   4.991   2.222  0.7575 -0.2547 -0.1859
  176MOL0     C24212   9.605   4.854   2.168  0.3650  0.7274  0.2508
  176MOL0     C24213   9.488   4.804   2.085  0.3602  0.1267 -0.2850
  176MOL0     C24214   9.370   4.787   2.171 -0.6866  0.0399 -0.0454
  176MOL0     C24215   9.270   4.770   2.242  0.1551  0.1704 -0.4210
  176MOL0     C24216   9.621   5.160   2.664  0.5909  0.3110  0.3495
  176MOL0     C24217   9.607   5.166   2.804  0.1298  0.7276  0.3477
  176MOL0     C24218   9.711   5.253   2.876 -0.3237  0.4538  0.8580
  176MOL0     H24219   9.562   4.838   3.213  0.7159 -0.2902  1.3385
  176MOL0     H24220   9.575   4.795   3.451 -0.7423 -1.4074 -3.2163
  176MOL0     H24221   9.568   5.149   3.730 -0.0462  0.1579  2.0395
  176MOL0     H24222   9.744   5.116   3.732 -0.3304  0.0842  0.5962
  176MOL0     H24223   9.558   4.941   3.898 -0.5978 -0.3575  0.9739
  176MOL0     H24224   9.720   4.915   3.868 -2.0779 -1.0205  0.7045
  176MOL0     H24225   9.770   5.131   3.970 -0.1382  2.0718 -1.3885
  176MOL0     H24226   9.594   5.171   3.993  0.3054  0.0078 -1.5945
  176MOL0     H24227   9.586   4.958   4.146  0.1101 -0.9315 -2.0897
  176MOL0     H24228   9.756   4.951   4.141  0.5913  0.4438 -2.2413
  176MOL0     H24229   9.684   5.048   4.352  2.4324  1.1319  0.8817
  176MOL0     H24230   9.591   5.167   4.257 -0.6041 -0.7637  1.6922
  176MOL0     H24231   9.799   5.269   4.181 -0.4579  0.5807  0.5837
  176MOL0     H24232   9.797   5.267   4.356 -1.9452  3.6486 -2.6806
  176MOL0     H24233  10.019   5.217   4.229  2.7890 -2.5872  0.4060
  176MOL0     H24234   9.949   5.059   4.184  0.4549 -1.6459  0.8737
  176MOL0     H24235  10.016   5.155   4.458 -0.2449 -0.5892 -0.0860
  176MOL0     H24236   9.915   5.025   4.443 -0.0253  0.2566  0.9146
  176MOL0     H24237   9.981   4.828   4.296 -0.3988  0.3512  1.3904
  176MOL0     H24238  10.170   4.601   4.241 -0.6896  0.4768 -0.8022
  176MOL0     H24239  10.342   4.653   4.247 -0.4684  0.0427 -0.5563
  176MOL0     H24240  10.144   4.713   4.034 -0.1528  0.0252  1.2723
  176MOL0     H24241  10.305   4.792   4.044  0.4876  0.5744 -1.1659
  176MOL0     H24242  10.416   4.591   4.039  0.2131  3.3338  1.6660
  176MOL0     H24243  10.259   4.497   4.046 -1.0267  0.2008 -1.8577
  176MOL0     H24244  10.334   4.690   3.807  0.5244  0.1264  0.3555
  176MOL0     H24245  10.378   4.531   3.813 -0.9060  0.5021 -0.8265
  176MOL0     H24246  10.338   4.340   3.741 -0.3386  1.6953 -1.0213
  176MOL0     H24247  10.318   4.085   3.772  1.7361  1.6307 -0.0658
  176MOL0     H24248  10.370   4.125   3.611  0.9073  2.2735  2.1882
  176MOL0     H24249  10.238   4.008   3.630  2.6111 -0.5206 -0.9250
  176MOL0     H24250   9.960   3.812   3.442 -0.1881  0.3024 -3.0581
  176MOL0     H24251   9.796   3.638   3.356  2.0291  0.1578  1.5055
  176MOL0     H24252   9.482   3.443   3.350  0.4001 -0.0816  1.0395
  176MOL0     H24253   9.652   3.479   3.376  0.4731  0.0020 -0.9607
  176MOL0     H24254   9.576   3.559   3.596  2.6135 -1.0531 -0.7528
  176MOL0     H24255   9.407   3.498   3.554 -0.0808  3.3630 -1.3824
  176MOL0     H24256   9.659   3.337   3.575 -0.4206 -0.0475 -2.5768
  176MOL0     H24257   9.501   3.279   3.524 -0.3821  2.2729 -0.8998
  176MOL0     H24258   9.555   3.418   3.788 -2.0989 -0.1009  0.0079
  176MOL0     H24259   9.549   3.232   3.774 -0.4405 -0.8948  0.4712
  176MOL0     H24260   9.303   3.406   3.735 -0.5222 -0.1895 -3.0106
  176MOL0     H24261   9.323   3.238   3.701 -3.6588  1.1494 -0.4079
  176MOL0     H24262   9.310   3.354   3.983 -2.6864  1.4768 -1.9679
  176MOL0     H24263   9.414   3.210   3.949 -2.3519 -0.3408  2.6392
  176MOL0     H24264   9.247   3.103   3.997 -0.6995  1.5151  1.9953
  176MOL0     H24265   9.210   3.099   3.832  1.5260 -1.3089  1.2333
  176MOL0     H24266   8.995   3.202   3.901 -0.2610 -0.8548 -0.4393
  176MOL0     H24267   9.087   3.347   3.881  0.3480  0.4024 -0.2490
  176MOL0     H24268   9.475   3.873   3.524 -0.4337  3.4626 -3.9459
  176MOL0     H24269   9.623   4.040   3.592  0.7537  0.0113  0.8050
  176MOL0     H24270   9.860   4.315   3.607  0.4054 -0.2357  0.9832
  176MOL0     H24271   9.956   4.523   3.711  0.8192  0.9374  0.5273
  176MOL0     H24272   9.637   5.213   3.533  0.9452 -1.9012  1.8678
  176MOL0     H24273   9.621   5.267   3.285 -0.2045  0.3170  0.0523
  176MOL0     H24274   9.316   4.998   2.829  0.4151 -0.9581 -0.4698
  176MOL0     H24275   9.349   4.986   2.586 -0.4854 -1.2180  1.7417
  176MOL0     H24276   9.648   4.924   2.420  0.7112  2.2589  1.3050
  176MOL0     H24277   9.478   4.917   2.389 -1.0616 -0.3717 -0.4924
  176MOL0     H24278   9.682   5.052   2.211  1.4460 -1.6299 -2.9967
  176MOL0     H24279   9.506   5.042   2.180  0.3848 -0.8614 -0.1635
  176MOL0     H24280   9.692   4.843   2.102 -0.2042 -2.8820 -0.1086
  176MOL0     H24281   9.632   4.782   2.246  1.3722 -0.0691 -0.7834
  176MOL0     H24282   9.510   4.713   2.029  2.1591 -0.1665  0.7952
  176MOL0     H24283   9.477   4.885   2.012  0.7972  0.9663  0.5563
  176MOL0     H24284   9.185   4.732   2.294  0.8625 -0.9242 -0.0155
  176MOL0     H24285   9.706   5.204   2.613 -0.2664  1.6749  0.0249
  176MOL0     H24286   9.804   5.203   2.905  0.0282  0.1529 -0.7029
  176MOL0     H24287   9.727   5.344   2.818 -2.5683  0.4969  0.2297
  176MOL0     H24288   9.657   5.289   2.964 -4.8846 -0.5201 -1.2449
  177MOL0     O24289   1.003   3.168   3.352 -0.3355  0.3404  0.1461
  177MOL0     C24290   1.067   3.106   3.438  0.1278 -0.1209 -0.8379
  177MOL0     O24291   1.199   3.117   3.469  0.3242  0.8477  0.9952
  177MOL0     C24292   1.300   3.157   3.391  0.1839  0.9459  0.5690
  177MOL0     C24293   1.296   3.254   3.286  0.0515  0.4736  0.0328
  177MOL0     C24294   1.412   3.297   3.221 -0.9135 -0.2467  0.3569
  177MOL0     C24295   1.538   3.249   3.251  0.0513  0.4394 -0.2412
  177MOL0     O24296   1.643   3.304   3.184 -0.3725 -0.4212  0.4643
  177MOL0     C24297   1.783   3.269   3.205  0.2778  0.8530  0.2463
  177MOL0     C24298   1.832   3.336   3.337 -1.3320  0.3065 -0.0952
  177MOL0     C24299   1.987   3.352   3.338  0.8063 -0.0410  0.5916
  177MOL0     C24300   2.059   3.383   3.470  0.5132  0.3384 -0.5394
  177MOL0     C24301   1.989   3.507   3.541 -0.3503  0.1150  0.4317
  177MOL0     C24302   2.068   3.540   3.666  0.6095  0.2635  0.5779
  177MOL0     C24303   1.988   3.643   3.753 -0.8101  0.8899 -0.2083
  177MOL0     C24304   2.043   3.645   3.898 -0.3436  0.3753  0.2447
  177MOL0     N24305   2.159   3.729   3.904  0.9714  0.0404  0.4768
  177MOL0     C24306   2.278   3.697   3.959 -0.7314 -1.8598 -0.5932
  177MOL0     C24307   2.356   3.818   3.950  0.7427 -0.9997 -0.0416
  177MOL0     C24308   2.483   3.853   4.035 -0.9153  0.2651  1.2129
  177MOL0     C24309   2.508   3.772   4.160  0.1803 -0.7019 -0.3125
  177MOL0     C24310   2.555   3.852   4.279  0.1560  0.0373  0.0795
  177MOL0     C24311   2.449   3.931   4.359  0.2371 -0.1408  0.1275
  177MOL0     O24312   2.383   4.023   4.279  0.0780 -0.1919  0.3996
  177MOL0     C24313   2.248   4.044   4.318  0.2753 -0.2694 -0.0480
  177MOL0     C24314   2.210   4.054   4.451  0.4395 -0.2704 -0.5577
  177MOL0     C24315   2.086   4.111   4.475  0.4162 -0.2128 -0.8060
  177MOL0     C24316   2.061   4.143   4.616  0.5506  1.0118  0.3678
  177MOL0     C24317   1.986   4.148   4.382  0.3763  0.1009 -0.3211
  177MOL0     C24318   1.851   4.208   4.412  0.3561  0.0326 -0.9534
  177MOL0     O24319   1.770   4.227   4.305 -0.0343 -0.9450 -0.0777
  177MOL0     C24320   1.645   4.285   4.319  0.3383  0.7238  0.1697
  177MOL0     C24321   1.617   4.387   4.229 -1.1487 -1.1548 -1.2503
  177MOL0     C24322   1.493   4.455   4.240  1.4678  0.2280  0.3398
  177MOL0     C24323   1.395   4.409   4.334 -0.3065 -0.0168  0.8239
  177MOL0     O24324   1.272   4.470   4.354 -0.3651 -1.0207 -1.0674
  177MOL0     C24325   1.260   4.614   4.375  0.7424  0.3511 -0.6424
  177MOL0     C24326   1.161   4.672   4.265 -0.0812 -0.5758  0.2202
  177MOL0     C24327   1.006   4.646   4.304 -0.8398  0.1636 -0.4610
  177MOL0     C24328   0.904   4.696   4.207 -0.1541  0.4749  0.5530
  177MOL0     C24329   0.757   4.671   4.248 -0.0318 -0.3624  0.4335
  177MOL0     C24330   0.711   4.526   4.214 -0.6773 -0.1430  0.2808
  177MOL0     C24331   0.584   4.486   4.284  0.6986  0.1574  0.8765
  177MOL0     C24332   0.607   4.445   4.433  0.1111  0.3007 -0.1980
  177MOL0    Cl24333   0.447   4.408   4.491  0.4016  0.2667  0.4507
  177MOL0     C24334   1.422   4.301   4.417  0.5768  0.2248  0.7736
  177MOL0     C24335   1.547   4.225   4.402  0.5934 -0.5224  0.8616
  177MOL0     O24336   1.812   4.229   4.528 -0.7682  0.2206  0.5552
  177MOL0     C24337   2.021   4.123   4.249  0.2117 -0.4334 -0.0194
  177MOL0     C24338   2.154   4.074   4.221 -0.4547 -0.1299  0.1131
  177MOL0     N24339   2.266   3.914   3.893 -1.0910 -0.3523 -0.2642
  177MOL0     N24340   2.162   3.852   3.852  0.7778 -0.2309 -0.2797
  177MOL0     C24341   1.543   3.157   3.353 -1.0510  0.2888  0.0669
  177MOL0     C24342   1.429   3.111   3.414  0.3480 -0.2073 -0.5004
  177MOL0     C24343   0.989   3.020   3.529  0.0817  0.6450  0.0437
  177MOL0     C24344   0.870   3.076   3.590 -0.1565 -0.2880  0.0275
  177MOL0     C24345   0.784   2.993   3.665  0.3069 -0.4002 -0.0460
  177MOL0     C24346   0.815   2.858   3.675  0.2926  0.2951 -0.3026
  177MOL0     O24347   0.730   2.788   3.753  0.1695  0.2854 -0.1523
  177MOL0     C24348   0.751   2.648   3.787  0.3105  0.8021  0.1337
  177MOL0     C24349   0.675   2.604   3.919 -0.4700  0.2490 -0.7269
  177MOL0     C24350   0.644   2.449   3.936 -0.1909  0.4563 -0.7602
  177MOL0     C24351   0.562   2.406   4.053  0.2400  0.1388 -0.0398
  177MOL0     C24352   0.624   2.429   4.184 -0.2466 -0.0114 -0.4635
  177MOL0     C24353   0.699   2.445   4.280 -0.2959  1.2696 -0.2984
  177MOL0     C24354   0.934   2.800   3.621  0.1596  0.0905 -0.1478
  177MOL0     C24355   1.022   2.881   3.550 -0.4664  0.3844 -0.2231
  177MOL0     C24356   1.151   2.816   3.506 -0.1761 -0.4611 -0.6977
  177MOL0     H24357   1.205   3.284   3.236  1.6484 -0.1282 -3.5387
  177MOL0     H24358   1.408   3.373   3.144  0.2527 -0.2658  0.2535
  177MOL0     H24359   1.840   3.315   3.124 -1.5461  4.8771  0.9754
  177MOL0     H24360   1.784   3.160   3.199 -7.7010  0.2580 -3.3548
  177MOL0     H24361   1.794   3.438   3.344  3.1448  2.1814  0.1501
  177MOL0     H24362   1.813   3.272   3.423 -0.1564 -0.7154 -0.5533
  177MOL0     H24363   2.038   3.259   3.311 -1.4063 -1.4235  0.8708
  177MOL0     H24364   2.020   3.426   3.264 -1.1991 -1.2864 -1.6981
  177MOL0     H24365   2.063   3.293   3.531 -0.2405  2.0101  2.1693
  177MOL0     H24366   2.164   3.405   3.449  0.7272 -2.0421 -2.3849
  177MOL0     H24367   1.892   3.469   3.574  0.3880 -0.1733  2.4083
  177MOL0     H24368   1.964   3.590   3.475 -3.1838 -0.3474  0.8229
  177MOL0     H24369   2.081   3.447   3.720 -0.1362 -0.9146 -1.1759
  177MOL0     H24370   2.163   3.591   3.646 -1.6082  4.8377  0.2582
  177MOL0     H24371   1.887   3.601   3.756  1.3744 -5.2485  1.5724
  177MOL0     H24372   1.983   3.742   3.706  2.0136  1.1920  0.0001
  177MOL0     H24373   1.972   3.679   3.974 -0.7911 -0.5406  0.2501
  177MOL0     H24374   2.071   3.543   3.928 -1.8526  0.3789  1.8382
  177MOL0     H24375   2.286   3.616   4.030 -4.6096 -0.4213  1.8603
  177MOL0     H24376   2.492   3.960   4.051 -2.0277  0.4637  0.5746
  177MOL0     H24377   2.554   3.812   3.963 -1.5558 -0.7130  1.1138
  177MOL0     H24378   2.418   3.721   4.195 -0.2227  0.0550 -0.2063
  177MOL0     H24379   2.587   3.701   4.136  0.9436 -1.3106  3.4475
  177MOL0     H24380   2.595   3.778   4.349 -0.9960 -0.2592  0.4462
  177MOL0     H24381   2.637   3.913   4.241 -0.5775  0.7139 -0.4489
  177MOL0     H24382   2.385   3.854   4.404 -0.4931  0.3850  0.0045
  177MOL0     H24383   2.498   3.992   4.437 -1.5900  1.8117 -0.1598
  177MOL0     H24384   2.279   4.028   4.532 -2.0368  0.2758  1.8717
  177MOL0     H24385   2.157   4.132   4.667 -0.0451 -0.3635  1.2403
  177MOL0     H24386   1.994   4.066   4.656  2.1671 -0.9757 -0.5459
  177MOL0     H24387   2.027   4.245   4.632 -2.0168 -0.0336  2.2966
  177MOL0     H24388   1.701   4.412   4.165  0.4105 -2.0139  0.3735
  177MOL0     H24389   1.461   4.536   4.175 -3.9934  1.2645  3.7345
  177MOL0     H24390   1.221   4.634   4.475 -1.7506 -1.3160 -1.1837
  177MOL0     H24391   1.358   4.660   4.368  1.2465 -0.8905 -2.4210
  177MOL0     H24392   1.165   4.781   4.256 -0.7516 -0.7511 -4.2542
  177MOL0     H24393   1.174   4.623   4.168 -2.4614 -1.3018  0.2159
  177MOL0     H24394   0.990   4.695   4.401 -0.1328  1.4849 -0.9805
  177MOL0     H24395   0.997   4.538   4.310  2.6465 -0.2661 -0.9079
  177MOL0     H24396   0.908   4.651   4.107 -4.0120 -1.0167  0.8949
  177MOL0     H24397   0.922   4.803   4.197  1.7442  0.2917  1.4000
  177MOL0     H24398   0.749   4.688   4.356 -0.8838  0.7902  0.2053
  177MOL0     H24399   0.691   4.747   4.205 -0.0761  0.7094  2.3028
  177MOL0     H24400   0.788   4.455   4.245 -0.9874 -0.7429 -0.2823
  177MOL0     H24401   0.720   4.511   4.106  1.0910  2.1638  0.0432
  177MOL0     H24402   0.540   4.411   4.217  1.6625  1.7149 -1.6711
  177MOL0     H24403   0.518   4.573   4.277 -1.2921 -1.3971 -2.4925
  177MOL0     H24404   0.634   4.536   4.488  2.1046  0.8985 -2.0190
  177MOL0     H24405   0.683   4.369   4.451 -0.7612 -0.9792 -1.7303
  177MOL0     H24406   1.352   4.254   4.486 -0.2272  0.9841  0.4925
  177MOL0     H24407   1.559   4.135   4.463  2.0524 -0.3570  0.8622
  177MOL0     H24408   1.949   4.149   4.173  0.0044  2.0402  0.9295
  177MOL0     H24409   2.192   4.042   4.125 -0.4015 -0.6900  0.3135
  177MOL0     H24410   1.638   3.122   3.392 -1.6141  0.1777  1.4092
  177MOL0     H24411   1.428   3.045   3.500  1.2985  0.0051 -0.3215
  177MOL0     H24412   0.836   3.178   3.573  1.9698  0.5216  0.3481
  177MOL0     H24413   0.695   3.042   3.704  1.6503  1.0847  1.2822
  177MOL0     H24414   0.723   2.591   3.698 -0.3100  0.2835  0.6487
  177MOL0     H24415   0.857   2.624   3.800  0.4036  0.0986 -1.6731
  177MOL0     H24416   0.585   2.664   3.933  0.5731  1.1937  3.1221
  177MOL0     H24417   0.746   2.628   3.998  1.4244 -2.4227 -1.4955
  177MOL0     H24418   0.575   2.432   3.853 -1.7039  0.0091  0.5333
  177MOL0     H24419   0.732   2.386   3.923 -1.5122 -1.1455 -2.6034
  177MOL0     H24420   0.546   2.298   4.052  0.0824 -0.1001  4.7611
  177MOL0     H24421   0.460   2.444   4.043 -0.3797 -0.8182  2.0056
  177MOL0     H24422   0.760   2.469   4.364 -0.5841  1.6702 -0.2027
  177MOL0     H24423   0.967   2.698   3.639  0.1117  0.3016  1.2460
  177MOL0     H24424   1.138   2.708   3.516 -0.7850 -0.2952  0.3206
  177MOL0     H24425   1.161   2.843   3.400 -1.1623 -1.4116 -1.0435
  177MOL0     H24426   1.243   2.840   3.561 -0.4290 -0.8841 -0.0898
  178MOL0     O24427   4.925   0.935   0.100  0.9319 -0.1233 -0.2245
  178MOL0     C24428   4.880   0.860   0.184  0.1762  0.8860  0.9102
  178MOL0     O24429   4.948   0.803   0.281 -0.0472 -0.2144 -0.5282
  178MOL0     C24430   5.082   0.831   0.291  0.3911 -0.6811 -0.2720
  178MOL0     C24431   5.171   0.749   0.223  0.4260 -0.1411 -0.2458
  178MOL0     C24432   5.306   0.759   0.247  0.2415  0.5840 -0.2432
  178MOL0     C24433   5.354   0.850   0.345  0.2489  1.2322  0.0308
  178MOL0     O24434   5.484   0.866   0.368 -0.6468 -0.3778 -0.2801
  178MOL0     C24435   5.578   0.831   0.267 -0.2868 -0.4802  0.1328
  178MOL0     C24436   5.710   0.907   0.302 -0.3340 -0.6130  0.1381
  178MOL0     C24437   5.769   0.850   0.436 -0.5839 -0.1831  0.1322
  178MOL0     C24438   5.930   0.841   0.424  1.0205 -0.9956  0.2518
  178MOL0     C24439   6.012   0.825   0.558  0.0547 -0.0984 -0.7848
  178MOL0     C24440   6.156   0.872   0.541 -0.8741  0.2246 -0.4923
  178MOL0     C24441   6.246   0.829   0.661 -0.4172 -0.0297 -0.6459
  178MOL0     C24442   6.385   0.877   0.634 -1.1924  0.2697 -0.4286
  178MOL0     N24443   6.481   0.809   0.729  0.0240  0.1815  0.0472
  178MOL0     C24444   6.523   0.859   0.849 -0.5244  0.6293 -0.1236
  178MOL0     C24445   6.632   0.777   0.890  0.0253 -0.9083 -0.3738
  178MOL0     C24446   6.709   0.806   1.016 -0.8706 -0.7111 -0.1549
  178MOL0     C24447   6.650   0.734   1.143 -0.3263 -0.8159 -0.4005
  178MOL0     C24448   6.716   0.596   1.174  0.2685 -0.2582 -0.6180
  178MOL0     C24449   6.675   0.547   1.311 -0.1215 -0.2230 -0.1546
  178MOL0     O24450   6.695   0.642   1.420 -0.2016 -0.0109 -0.0028
  178MOL0     C24451   6.826   0.647   1.445  0.3250 -0.4300  0.1163
  178MOL0     C24452   6.892   0.757   1.396 -1.4604  0.9306  0.5361
  178MOL0     C24453   7.032   0.765   1.394  0.7937 -0.3387  0.5270
  178MOL0     C24454   7.099   0.895   1.350  1.3875 -0.7225 -0.5852
  178MOL0     C24455   7.108   0.657   1.451 -0.0496 -0.2249  0.0657
  178MOL0     C24456   7.258   0.663   1.470  1.2420 -0.4279 -0.5873
  178MOL0     O24457   7.320   0.774   1.461 -0.0726 -0.7129  1.1373
  178MOL0     C24458   7.459   0.770   1.469  0.3578 -0.8789 -0.4551
  178MOL0     C24459   7.528   0.835   1.578  0.3818 -0.7118 -0.2953
  178MOL0     C24460   7.673   0.816   1.597  0.3391 -0.5500 -0.4152
  178MOL0     C24461   7.750   0.754   1.496  0.0238 -0.7120  0.0928
  178MOL0     O24462   7.884   0.716   1.507 -0.0150  0.2762 -0.7984
  178MOL0     C24463   7.965   0.728   1.629 -0.7088  0.3657 -0.4291
  178MOL0     C24464   8.089   0.654   1.620 -0.7138  0.5017 -0.8191
  178MOL0     C24465   8.081   0.497   1.586  1.1263  0.1838 -0.0426
  178MOL0     C24466   8.213   0.420   1.558  0.2734  1.3508  0.2881
  178MOL0     C24467   8.189   0.277   1.523 -0.1297 -0.3183 -0.3265
  178MOL0     C24468   8.312   0.201   1.465  0.6437  0.7577  0.6896
  178MOL0     C24469   8.363   0.265   1.335 -0.0997  0.4211 -0.1673
  178MOL0     C24470   8.485   0.187   1.280  0.4373 -0.2332  0.6012
  178MOL0    Cl24471   8.639   0.176   1.373 -0.7701 -0.3490 -0.0487
  178MOL0     C24472   7.685   0.706   1.380 -0.0444  0.4230 -0.3106
  178MOL0     C24473   7.552   0.706   1.374  0.6713  0.0823 -0.1941
  178MOL0     O24474   7.311   0.559   1.495  0.0409  0.0059 -0.5390
  178MOL0     C24475   7.036   0.545   1.503  0.2131  0.8378 -0.0355
  178MOL0     C24476   6.896   0.545   1.506 -0.6421  0.1339 -0.4536
  178MOL0     N24477   6.657   0.695   0.777  0.2154 -0.2119 -0.3922
  178MOL0     N24478   6.567   0.709   0.693 -0.0109  0.2016  0.2544
  178MOL0     C24479   5.262   0.933   0.401  0.7792 -0.4205  0.0801
  178MOL0     C24480   5.125   0.924   0.377  0.3027  0.7867 -0.1584
  178MOL0     C24481   4.747   0.815   0.151 -0.2563  0.3038 -0.6074
  178MOL0     C24482   4.710   0.824   0.015 -0.5538 -0.7239 -0.3462
  178MOL0     C24483   4.577   0.791  -0.030 -0.2654  0.4758 -0.5369
  178MOL0     C24484   4.479   0.752   0.064 -0.6084 -0.3083 -0.2168
  178MOL0     O24485   4.355   0.724   0.014 -0.4236  0.0494  0.6097
  178MOL0     C24486   4.259   0.650   0.105 -0.6665  0.4491  0.5942
  178MOL0     C24487   4.127   0.603   0.028  0.0157 -0.9794 -0.3426
  178MOL0     C24488   4.051   0.727  -0.013 -0.2378  0.5712  0.0811
  178MOL0     C24489   3.933   0.682  -0.103 -0.0466 -0.1448 -0.0498
  178MOL0     C24490   3.839   0.799  -0.087  0.7576  1.1372 -0.9634
  178MOL0     C24491   3.769   0.896  -0.074 -0.1143  1.0194  0.4226
  178MOL0     C24492   4.517   0.740   0.198  0.2196  0.8537 -0.4055
  178MOL0     C24493   4.648   0.769   0.240  0.4328  0.9389  0.0764
  178MOL0     C24494   4.674   0.758   0.385  0.0199  0.0574 -0.4572
  178MOL0     H24495   5.131   0.680   0.149  1.5756 -0.3269 -0.7074
  178MOL0     H24496   5.373   0.699   0.186  2.5380  2.3135  0.4283
  178MOL0     H24497   5.523   0.861   0.178 -0.5866 -0.9446  0.1635
  178MOL0     H24498   5.584   0.722   0.259 -6.7809 -1.0934 -1.2613
  178MOL0     H24499   5.778   0.910   0.217  0.1307 -2.5219  0.4067
  178MOL0     H24500   5.676   1.010   0.317  0.4914 -0.0849 -1.3909
  178MOL0     H24501   5.759   0.925   0.515 -3.4530 -0.8487  0.5044
  178MOL0     H24502   5.720   0.758   0.469  0.8263 -1.1098 -0.2568
  178MOL0     H24503   5.961   0.770   0.346 -0.2068  1.6597 -2.8625
  178MOL0     H24504   5.965   0.937   0.385  0.0502 -0.6912  0.0984
  178MOL0     H24505   6.012   0.725   0.603 -0.5347  0.1297 -0.2441
  178MOL0     H24506   5.972   0.898   0.630  1.3092  0.5574 -0.7385
  178MOL0     H24507   6.196   0.831   0.448  0.0516 -0.5953  0.2461
  178MOL0     H24508   6.152   0.980   0.524 -3.8374 -0.1538 -2.9538
  178MOL0     H24509   6.249   0.720   0.670  0.5178 -0.2823 -3.0993
  178MOL0     H24510   6.231   0.874   0.759  2.3364  3.1051 -1.4751
  178MOL0     H24511   6.407   0.854   0.529 -0.6571 -0.3737 -0.1789
  178MOL0     H24512   6.381   0.986   0.645  0.0772  0.5987 -2.6042
  178MOL0     H24513   6.469   0.931   0.909 -4.8729 -3.1179  1.0620
  178MOL0     H24514   6.710   0.913   1.038  1.9500 -0.5610 -0.6633
  178MOL0     H24515   6.815   0.785   0.999 -0.3106  2.3807 -1.1313
  178MOL0     H24516   6.671   0.805   1.223  0.1166 -0.2843 -0.9833
  178MOL0     H24517   6.543   0.732   1.119 -0.4777  4.8534 -1.4477
  178MOL0     H24518   6.693   0.523   1.096  0.9928  0.2550 -1.3224
  178MOL0     H24519   6.825   0.609   1.180  0.1025  0.9887  0.0985
  178MOL0     H24520   6.569   0.521   1.317  0.0691 -0.7603  1.0545
  178MOL0     H24521   6.736   0.457   1.323  2.0289  1.0584 -0.8943
  178MOL0     H24522   6.829   0.842   1.369 -0.2682  1.0407 -2.3467
  178MOL0     H24523   7.187   0.873   1.289 -0.4794 -1.5733 -3.1479
  178MOL0     H24524   7.137   0.952   1.436  0.0961 -1.4331  0.4990
  178MOL0     H24525   7.025   0.942   1.285  0.8122 -0.5537  0.1828
  178MOL0     H24526   7.469   0.882   1.657  1.9236  0.0378  0.4618
  178MOL0     H24527   7.718   0.844   1.692  0.4048 -1.6365 -0.1131
  178MOL0     H24528   7.983   0.833   1.653 -4.3509  0.8697  0.6253
  178MOL0     H24529   7.915   0.684   1.715 -1.4432  1.0164 -0.5092
  178MOL0     H24530   8.164   0.693   1.551  3.7244 -2.2507  1.9707
  178MOL0     H24531   8.143   0.667   1.714 -0.4253 -2.6752 -0.4203
  178MOL0     H24532   8.040   0.496   1.484  0.8050  3.8339 -0.0831
  178MOL0     H24533   8.008   0.456   1.656  1.7078  0.5909  0.8263
  178MOL0     H24534   8.296   0.429   1.629  1.6933  1.2138 -1.2885
  178MOL0     H24535   8.251   0.469   1.468 -1.0147  1.7481 -0.0641
  178MOL0     H24536   8.174   0.215   1.612  2.7981  1.5518  1.6423
  178MOL0     H24537   8.110   0.268   1.448  1.3709 -0.0087 -2.0156
  178MOL0     H24538   8.288   0.096   1.445 -1.8137  1.3076  0.5285
  178MOL0     H24539   8.396   0.205   1.536  1.3379 -1.8127  0.1333
  178MOL0     H24540   8.396   0.366   1.358  0.7553 -0.0137  0.5636
  178MOL0     H24541   8.287   0.266   1.256  0.1701  0.2867 -0.4290
  178MOL0     H24542   8.513   0.237   1.187 -2.6745  1.7299  0.5432
  178MOL0     H24543   8.444   0.089   1.256 -0.1295 -0.0745  0.9054
  178MOL0     H24544   7.744   0.663   1.300 -1.0788  1.3738 -1.6412
  178MOL0     H24545   7.506   0.669   1.283  1.0997 -1.1529  0.0649
  178MOL0     H24546   7.088   0.464   1.553  2.1926 -0.5173 -3.8856
  178MOL0     H24547   6.837   0.460   1.539 -2.7256  1.8561  0.5228
  178MOL0     H24548   5.290   1.009   0.474  1.0547 -0.3225 -0.1250
  178MOL0     H24549   5.047   0.989   0.415  0.2781  0.7000 -0.0605
  178MOL0     H24550   4.775   0.869  -0.059 -1.4781  0.7919 -0.2850
  178MOL0     H24551   4.538   0.811  -0.129 -1.0324 -0.5096 -0.4532
  178MOL0     H24552   4.301   0.556   0.143 -2.2962  0.3113  2.2105
  178MOL0     H24553   4.233   0.699   0.199 -2.5325 -1.9020  1.4312
  178MOL0     H24554   4.069   0.541   0.098  1.2152 -1.4652  0.2541
  178MOL0     H24555   4.161   0.543  -0.057  2.6089 -0.2371  0.0827
  178MOL0     H24556   4.012   0.785   0.071  0.5899 -1.3732  1.9042
  178MOL0     H24557   4.117   0.786  -0.076  0.6600  2.0332  2.2788
  178MOL0     H24558   3.897   0.588  -0.060 -1.3560  0.3648  0.0179
  178MOL0     H24559   3.968   0.667  -0.205  0.3655 -0.3627  0.1189
  178MOL0     H24560   3.699   0.977  -0.067 -1.6632 -0.3753  2.0187
  178MOL0     H24561   4.449   0.708   0.276  1.6787  1.1260  1.0306
  178MOL0     H24562   4.714   0.658   0.403 -0.7291 -0.6532 -2.4887
  178MOL0     H24563   4.735   0.832   0.439 -0.0120 -1.2025  1.4150
  178MOL0     H24564   4.578   0.754   0.437  0.3848  0.6917  0.2915
  179MOL0     O24565   7.649   8.005   4.797 -0.0501 -0.6408  0.2883
  179MOL0     C24566   7.666   8.099   4.714  0.1519  0.4691 -0.4570
  179MOL0     O24567   7.689   8.099   4.580 -0.1617  0.3833 -0.1299
  179MOL0     C24568   7.685   7.983   4.502 -0.9698 -0.6020  0.0545
  179MOL0     C24569   7.768   7.976   4.392  1.2632  0.2713 -0.1422
  179MOL0     C24570   7.749   7.870   4.300  0.0686 -0.5994  0.0736
  179MOL0     C24571   7.645   7.781   4.320  0.6625 -0.6855  0.3437
  179MOL0     O24572   7.618   7.680   4.231  0.1920  0.5239  0.1636
  179MOL0     C24573   7.594   7.548   4.278 -0.3435  0.2546  0.6095
  179MOL0     C24574   7.719   7.495   4.349 -0.0197  0.0530 -0.2396
  179MOL0     C24575   7.726   7.342   4.355  0.0926  0.9773  0.1689
  179MOL0     C24576   7.651   7.284   4.471  0.8071  0.1523 -0.1523
  179MOL0     C24577   7.495   7.301   4.459 -0.4727  1.2816 -0.6542
  179MOL0     C24578   7.428   7.182   4.539 -0.0185 -0.0045 -0.5247
  179MOL0     C24579   7.449   7.167   4.686 -0.2218 -0.2507  0.3306
  179MOL0     C24580   7.400   7.282   4.760  0.6387 -1.1041 -0.4153
  179MOL0     N24581   7.463   7.415   4.739  0.4726  0.2639  0.7262
  179MOL0     C24582   7.589   7.440   4.788 -0.2696 -0.1248 -0.0427
  179MOL0     C24583   7.587   7.578   4.814  0.8432  0.5583  1.8477
  179MOL0     C24584   7.708   7.640   4.890 -0.3738 -0.2854  0.5316
  179MOL0     C24585   7.679   7.610   5.039  0.4351  0.5767  0.4813
  179MOL0     C24586   7.594   7.716   5.098  1.2697  0.0742  0.3724
  179MOL0     C24587   7.477   7.657   5.184  0.1796 -0.5279 -0.0849
  179MOL0     O24588   7.531   7.591   5.304 -0.5279  0.2992 -0.1344
  179MOL0     C24589   7.434   7.543   5.398 -0.0138 -0.0812  0.2123
  179MOL0     C24590   7.498   7.503   5.512  0.1481  0.8811  0.5474
  179MOL0     C24591   7.431   7.468   5.629  0.0876  0.1374  0.1017
  179MOL0     C24592   7.508   7.455   5.759 -0.4203  0.0595  0.0325
  179MOL0     C24593   7.289   7.454   5.613  0.0867 -0.1187  0.1011
  179MOL0     C24594   7.195   7.412   5.730 -0.2363 -1.3437 -0.0339
  179MOL0     O24595   7.072   7.379   5.692  0.1270  0.3856  0.4571
  179MOL0     C24596   6.975   7.339   5.777  0.5214 -0.1782  0.1873
  179MOL0     C24597   6.984   7.266   5.898  1.2503 -1.0065 -0.4687
  179MOL0     C24598   6.866   7.234   5.968 -0.3480  0.1250 -0.1629
  179MOL0     C24599   6.740   7.263   5.919  0.3635 -0.3715 -0.9690
  179MOL0     O24600   6.628   7.231   5.992 -0.3151  0.5336 -0.4832
  179MOL0     C24601   6.562   7.111   5.955 -0.2141  0.0421  0.3687
  179MOL0     C24602   6.470   7.128   5.838 -0.3817  0.0694  0.0653
  179MOL0     C24603   6.355   7.022   5.834 -0.4347 -0.5496  0.5113
  179MOL0     C24604   6.271   7.028   5.968  0.0661 -0.5177  0.3588
  179MOL0     C24605   6.129   6.984   5.941 -0.5542 -0.6198 -0.0302
  179MOL0     C24606   6.062   6.941   6.071  0.6395  0.1022 -0.1915
  179MOL0     C24607   6.028   7.057   6.161  0.3970  0.0854  0.7811
  179MOL0     C24608   5.977   7.008   6.300 -0.0608 -0.7299  0.4121
  179MOL0    Cl24609   5.922   7.153   6.398  0.5498  0.3305 -0.4008
  179MOL0     C24610   6.730   7.328   5.795  0.3120  0.2308  0.1054
  179MOL0     C24611   6.850   7.377   5.734  0.1771 -0.3010  0.3570
  179MOL0     O24612   7.226   7.434   5.850 -0.0105 -0.2053  0.6317
  179MOL0     C24613   7.218   7.485   5.490  0.1682  0.4284  0.9493
  179MOL0     C24614   7.294   7.536   5.387  0.9405  0.9009  0.0839
  179MOL0     N24615   7.466   7.632   4.763 -0.2260 -0.3147  0.0263
  179MOL0     N24616   7.394   7.531   4.716  0.6508  0.0595  0.7325
  179MOL0     C24617   7.572   7.786   4.442 -0.3967 -0.0086  0.0603
  179MOL0     C24618   7.586   7.893   4.535  0.0705  0.8088  1.1927
  179MOL0     C24619   7.661   8.227   4.774  0.1151 -0.1176 -0.4687
  179MOL0     C24620   7.593   8.239   4.901 -0.3851 -0.8040  0.8498
  179MOL0     C24621   7.582   8.359   4.967 -0.0733 -0.0285  0.5826
  179MOL0     C24622   7.641   8.473   4.921  0.3769  0.0480 -0.2888
  179MOL0     O24623   7.630   8.583   4.991 -0.2844  0.6526  0.1020
  179MOL0     C24624   7.752   8.640   5.051  1.1214 -0.0939  0.0852
  179MOL0     C24625   7.743   8.793   5.031 -0.4784  0.4020  0.3053
  179MOL0     C24626   7.874   8.857   5.098  0.0627  0.2083 -0.2286
  179MOL0     C24627   7.870   8.878   5.244  0.2985  0.5350  0.7795
  179MOL0     C24628   7.773   8.972   5.300  0.1049  0.9727  0.3805
  179MOL0     C24629   7.692   9.036   5.364 -0.2248 -0.6009 -0.1108
  179MOL0     C24630   7.713   8.466   4.800 -0.1358  0.3498 -0.3218
  179MOL0     C24631   7.720   8.349   4.719 -0.0588  0.3495 -0.5453
  179MOL0     C24632   7.804   8.356   4.594 -0.7605  0.4553 -0.4298
  179MOL0     H24633   7.832   8.063   4.387 -2.3788  3.5731  3.5584
  179MOL0     H24634   7.808   7.864   4.209 -0.9790  1.4016 -0.8002
  179MOL0     H24635   7.582   7.493   4.184 -1.9988 -0.0708  0.9676
  179MOL0     H24636   7.493   7.544   4.320 -2.6937  2.4114 -4.0534
  179MOL0     H24637   7.805   7.532   4.293 -1.2457  0.7907 -1.7054
  179MOL0     H24638   7.712   7.527   4.453 -2.3017  1.5379 -0.7639
  179MOL0     H24639   7.681   7.304   4.263  1.1093  0.7444 -0.2479
  179MOL0     H24640   7.832   7.317   4.350  0.1886  0.6102  2.8167
  179MOL0     H24641   7.666   7.177   4.487  1.8535  0.4970  1.4345
  179MOL0     H24642   7.682   7.340   4.560 -0.6345  2.8943 -1.2368
  179MOL0     H24643   7.472   7.283   4.354  0.1770 -1.7481 -0.3796
  179MOL0     H24644   7.473   7.406   4.482  0.0480  1.6040 -1.5371
  179MOL0     H24645   7.319   7.187   4.535 -0.1965 -0.6867  1.8646
  179MOL0     H24646   7.457   7.084   4.500  0.4969  0.4321 -1.2703
  179MOL0     H24647   7.556   7.153   4.703  0.3231  1.1688 -1.5280
  179MOL0     H24648   7.399   7.076   4.720 -6.1463  1.6955 -2.0011
  179MOL0     H24649   7.292   7.292   4.746 -0.1540  2.2864  4.9319
  179MOL0     H24650   7.411   7.263   4.868  1.7773  0.6778 -0.1730
  179MOL0     H24651   7.665   7.365   4.805  1.2455  1.1451 -0.9193
  179MOL0     H24652   7.717   7.749   4.887 -3.2543  0.1062  2.0757
  179MOL0     H24653   7.802   7.594   4.861  0.5386  2.4374 -1.2379
  179MOL0     H24654   7.629   7.514   5.060 -2.1147  1.9236  0.9487
  179MOL0     H24655   7.765   7.624   5.106 -1.4641  0.6721  3.0429
  179MOL0     H24656   7.649   7.789   5.157 -0.6512  1.2664  0.7804
  179MOL0     H24657   7.559   7.773   5.011 -0.4737 -0.6275  0.5643
  179MOL0     H24658   7.403   7.738   5.189 -0.1801 -0.7001 -1.7796
  179MOL0     H24659   7.439   7.573   5.124  0.1281 -0.0417 -0.7441
  179MOL0     H24660   7.603   7.528   5.507  0.0825  1.8136  2.7486
  179MOL0     H24661   7.488   7.364   5.817 -3.5062  0.5780 -0.0300
  179MOL0     H24662   7.509   7.551   5.812 -2.3958  0.7118 -0.9985
  179MOL0     H24663   7.609   7.434   5.724 -0.3471 -2.4564  1.5264
  179MOL0     H24664   7.083   7.242   5.937  1.1668  0.7164  0.9485
  179MOL0     H24665   6.863   7.190   6.068 -0.6515  2.6086  0.9885
  179MOL0     H24666   6.640   7.039   5.928  1.7804  2.5853 -1.0489
  179MOL0     H24667   6.506   7.078   6.043 -1.8127  1.8105  0.0839
  179MOL0     H24668   6.438   7.231   5.823 -1.2306 -0.2494 -0.3975
  179MOL0     H24669   6.521   7.113   5.742  0.8064  0.1211  0.6757
  179MOL0     H24670   6.390   6.919   5.817 -0.8452 -0.6460  0.2317
  179MOL0     H24671   6.289   7.059   5.755  1.7927 -0.3452 -1.3779
  179MOL0     H24672   6.273   7.129   6.009 -1.4241 -0.5581  0.6079
  179MOL0     H24673   6.322   6.963   6.040  0.3974 -1.4496 -0.6996
  179MOL0     H24674   6.072   7.063   5.892  0.7098  1.6683  2.0005
  179MOL0     H24675   6.129   6.901   5.870 -0.4998  1.1461 -2.2064
  179MOL0     H24676   6.116   6.865   6.128 -0.1790 -0.5819 -0.3222
  179MOL0     H24677   5.973   6.884   6.046 -0.5344  1.2714  1.1467
  179MOL0     H24678   5.947   7.113   6.114  0.9274  0.4461  0.2866
  179MOL0     H24679   6.120   7.111   6.183  1.9640 -3.1854  2.9974
  179MOL0     H24680   6.046   6.954   6.365 -0.3583 -1.4909  0.1121
  179MOL0     H24681   5.886   6.947   6.292  0.0347 -1.2001  2.4526
  179MOL0     H24682   6.630   7.353   5.761  0.0531 -0.2578  0.4868
  179MOL0     H24683   6.857   7.439   5.645  0.3652  1.7662  1.7448
  179MOL0     H24684   7.112   7.494   5.468  0.7945  1.4200 -2.1688
  179MOL0     H24685   7.245   7.577   5.299 -1.7644 -1.2204  0.4572
  179MOL0     H24686   7.518   7.696   4.469 -0.8333  0.7264  1.7621
  179MOL0     H24687   7.526   7.887   4.626 -1.4386 -0.9199  0.1537
  179MOL0     H24688   7.545   8.154   4.947 -0.6139 -0.0917  1.9478
  179MOL0     H24689   7.526   8.365   5.060 -0.4967 -3.4571  0.6512
  179MOL0     H24690   7.754   8.615   5.157 -1.5817  0.8736  0.4427
  179MOL0     H24691   7.846   8.606   5.005 -0.4147 -0.9522 -2.6610
  179MOL0     H24692   7.648   8.831   5.071  0.3806 -0.2996  3.1918
  179MOL0     H24693   7.746   8.810   4.923  0.6097  0.0426  0.2649
  179MOL0     H24694   7.957   8.790   5.072  1.9354  2.0784  0.6455
  179MOL0     H24695   7.900   8.955   5.058 -1.4925  0.4522 -0.6937
  179MOL0     H24696   7.968   8.903   5.286  0.2128  0.6051  0.9420
  179MOL0     H24697   7.846   8.785   5.297  1.2483  0.0947  0.4540
  179MOL0     H24698   7.628   9.101   5.419 -1.1909 -0.9127 -0.8303
  179MOL0     H24699   7.765   8.554   4.764  0.4093 -0.4060 -1.4309
  179MOL0     H24700   7.861   8.449   4.591 -2.3502  1.4565 -1.0956
  179MOL0     H24701   7.878   8.276   4.601  0.4010  1.5353  0.1030
  179MOL0     H24702   7.741   8.320   4.512 -0.9212 -1.1789  0.3747
  180MOL0     O24703   8.710   1.790   7.560  0.0628 -0.5958 -0.1483
  180MOL0     C24704   8.658   1.680   7.567  0.9484  1.4802  0.0836
  180MOL0     O24705   8.714   1.567   7.625 -0.3803  0.2726 -0.0169
  180MOL0     C24706   8.851   1.571   7.652  0.7042 -0.1080 -0.2252
  180MOL0     C24707   8.897   1.597   7.787  0.1312 -0.4895  0.1108
  180MOL0     C24708   9.024   1.570   7.824 -1.0337  0.6738  0.4204
  180MOL0     C24709   9.121   1.531   7.721  0.2921  0.4282 -0.4125
  180MOL0     O24710   9.251   1.502   7.750 -0.5948 -0.6138  0.8246
  180MOL0     C24711   9.285   1.490   7.885  0.1791  0.3021  0.2566
  180MOL0     C24712   9.432   1.465   7.916 -0.6802 -0.3602 -0.3231
  180MOL0     C24713   9.485   1.336   7.871 -0.0247  0.7463  0.8787
  180MOL0     C24714   9.606   1.301   7.958 -0.3769  0.0569  0.5615
  180MOL0     C24715   9.680   1.177   7.925 -0.2348 -1.1119 -0.4475
  180MOL0     C24716   9.814   1.177   8.013  0.0862 -0.4864 -0.1392
  180MOL0     C24717   9.916   1.278   7.947  0.6171  0.1233 -0.4009
  180MOL0     C24718  10.024   1.299   8.049 -0.4688  0.1940  0.3709
  180MOL0     N24719  10.114   1.180   8.067 -0.5196 -0.3865  0.1476
  180MOL0     C24720  10.110   1.086   8.179 -0.0790 -0.7496 -0.0348
  180MOL0     C24721  10.231   1.028   8.178  0.4061  0.2357 -0.1794
  180MOL0     C24722  10.253   0.914   8.273  0.6272 -1.0226  0.2310
  180MOL0     C24723  10.403   0.883   8.317 -0.6067 -0.4770 -0.0045
  180MOL0     C24724  10.485   0.811   8.209 -0.3047  0.1458 -0.0327
  180MOL0     C24725  10.606   0.746   8.264  0.5525 -0.2934 -0.1677
  180MOL0     O24726  10.710   0.838   8.243  0.1309 -0.5756  0.4302
  180MOL0     C24727  10.832   0.815   8.304  0.4350 -0.3031  0.3979
  180MOL0     C24728  10.931   0.918   8.293 -0.2538  0.2683  0.3588
  180MOL0     C24729  11.067   0.895   8.328  0.2510 -0.2062 -0.3943
  180MOL0     C24730  11.171   0.988   8.274  0.9174  0.1373  0.0103
  180MOL0     C24731  11.105   0.768   8.390  0.1850 -0.4202  0.2839
  180MOL0     C24732  11.248   0.736   8.434  0.0249  0.9517  0.6087
  180MOL0     O24733  11.273   0.607   8.479  0.0615 -0.1978 -0.4488
  180MOL0     C24734  11.405   0.563   8.491  0.2651  0.0897  0.5782
  180MOL0     C24735  11.445   0.466   8.590  1.4088  0.7657  0.4219
  180MOL0     C24736  11.573   0.412   8.581 -0.3632  1.2411 -0.0051
  180MOL0     C24737  11.666   0.443   8.488  0.1375  0.8897 -0.4847
  180MOL0     O24738  11.786   0.368   8.458  0.1475 -0.6086  0.1790
  180MOL0     C24739  11.823   0.270   8.555  0.5121 -1.3853 -0.7842
  180MOL0     C24740  11.971   0.230   8.524  0.5973  0.5734  0.3245
  180MOL0     C24741  12.023   0.134   8.629 -0.3834  1.1228  0.0801
  180MOL0     C24742  12.141   0.038   8.598 -0.6457 -0.3736  0.2142
  180MOL0     C24743  12.138  -0.080   8.686 -0.2885  0.5451 -0.8757
  180MOL0     C24744  12.244  -0.183   8.643  1.5658 -0.1591 -0.8605
  180MOL0     C24745  12.240  -0.326   8.713  0.3770 -0.5008 -0.4273
  180MOL0     C24746  12.298  -0.436   8.625 -0.9570  0.5473  0.1478
  180MOL0    Cl24747  12.479  -0.461   8.655  0.5671 -0.2608  0.5025
  180MOL0     C24748  11.633   0.539   8.396 -0.2615 -0.2323 -0.2775
  180MOL0     C24749  11.510   0.595   8.397  0.3592  0.2939  0.4380
  180MOL0     O24750  11.327   0.828   8.438  0.9851 -0.0537 -0.0216
  180MOL0     C24751  11.014   0.661   8.382 -0.3294  0.5184  0.3098
  180MOL0     C24752  10.886   0.682   8.338  0.1085 -0.1634  1.3199
  180MOL0     N24753  10.311   1.089   8.075 -0.6308 -0.6668  0.9726
  180MOL0     N24754  10.235   1.172   8.007  0.2309  0.3007  0.7910
  180MOL0     C24755   9.071   1.514   7.594 -0.4201 -1.0082 -0.0238
  180MOL0     C24756   8.940   1.524   7.564  0.2423  0.3027  0.9300
  180MOL0     C24757   8.534   1.660   7.482 -0.7744 -0.2768  0.0120
  180MOL0     C24758   8.472   1.529   7.470  0.7755 -0.4662  0.5021
  180MOL0     C24759   8.369   1.500   7.376 -0.5223 -0.2181  0.2288
  180MOL0     C24760   8.309   1.600   7.312 -0.5402 -1.0759  0.2914
  180MOL0     O24761   8.208   1.588   7.220  0.2626  0.4326  0.3473
  180MOL0     C24762   8.116   1.475   7.217 -0.1913  0.3872  0.3091
  180MOL0     C24763   8.016   1.484   7.331  0.1834 -1.0483  0.8089
  180MOL0     C24764   7.871   1.434   7.298  0.0606 -0.6208  0.6618
  180MOL0     C24765   7.793   1.399   7.422 -0.3566  0.2439 -0.3133
  180MOL0     C24766   7.672   1.324   7.396  0.2983 -0.0634  0.5417
  180MOL0     C24767   7.567   1.269   7.367 -0.2238  0.6667  0.9977
  180MOL0     C24768   8.355   1.731   7.325 -0.7147 -0.3167 -0.0104
  180MOL0     C24769   8.476   1.760   7.395 -0.3541  0.2007  0.5844
  180MOL0     C24770   8.533   1.905   7.376 -0.1317 -0.3328  0.9382
  180MOL0     H24771   8.833   1.631   7.869  0.9022  2.2467 -0.3090
  180MOL0     H24772   9.049   1.588   7.928  0.4653 -0.9387  0.3737
  180MOL0     H24773   9.217   1.414   7.926  0.1765 -0.6083 -1.3610
  180MOL0     H24774   9.270   1.584   7.938 -0.3322 -0.3974  1.3850
  180MOL0     H24775   9.495   1.550   7.887 -0.1219 -1.0104 -1.0247
  180MOL0     H24776   9.441   1.455   8.025 -1.7009 -1.3406 -0.3073
  180MOL0     H24777   9.405   1.262   7.872 -0.5351  1.2062 -1.1952
  180MOL0     H24778   9.521   1.344   7.768 -2.7002 -1.7387 -0.3867
  180MOL0     H24779   9.668   1.391   7.951 -0.0137 -0.1322  1.2072
  180MOL0     H24780   9.564   1.298   8.060 -2.4005 -1.2866 -0.2520
  180MOL0     H24781   9.708   1.174   7.819  0.0872  1.0203 -0.4607
  180MOL0     H24782   9.620   1.088   7.945 -1.5010 -0.0779  0.5486
  180MOL0     H24783   9.799   1.210   8.117  4.3386  1.8463 -0.0396
  180MOL0     H24784   9.858   1.077   8.017 -1.5867 -1.2334  0.3156
  180MOL0     H24785   9.865   1.371   7.918  0.8349  0.1827 -0.5978
  180MOL0     H24786   9.951   1.232   7.854  1.7575  1.5527 -0.7285
  180MOL0     H24787  10.082   1.392   8.039 -2.4267  1.4185 -0.0920
  180MOL0     H24788   9.978   1.304   8.148 -1.1893 -0.1127  0.0583
  180MOL0     H24789  10.030   1.065   8.250  1.9740 -3.3857  1.6756
  180MOL0     H24790  10.198   0.831   8.228 -1.1987  0.5202 -0.5007
  180MOL0     H24791  10.203   0.927   8.370 -0.4981 -1.1476 -0.3177
  180MOL0     H24792  10.456   0.974   8.345 -2.3542  0.0370  1.8758
  180MOL0     H24793  10.399   0.825   8.410 -0.7751 -0.2051  0.1618
  180MOL0     H24794  10.422   0.733   8.164 -0.6491  0.7459 -0.6167
  180MOL0     H24795  10.525   0.873   8.127  2.7540 -1.0447  0.4195
  180MOL0     H24796  10.574   0.709   8.362 -3.2168 -0.9652 -1.4782
  180MOL0     H24797  10.626   0.654   8.210 -1.5226 -3.3695  3.7450
  180MOL0     H24798  10.912   1.012   8.242  0.0342  0.6650  0.9781
  180MOL0     H24799  11.235   0.923   8.213  0.4573 -0.2090 -0.1072
  180MOL0     H24800  11.216   1.034   8.363  0.4646 -0.1776  0.4058
  180MOL0     H24801  11.133   1.060   8.201 -0.2461 -1.7382 -1.3240
  180MOL0     H24802  11.369   0.423   8.654  0.6647  1.8877  0.3399
  180MOL0     H24803  11.605   0.340   8.655  0.7729  0.3324 -1.3345
  180MOL0     H24804  11.839   0.322   8.650  1.0852 -0.2638 -1.4789
  180MOL0     H24805  11.757   0.183   8.566  1.9780 -2.5338 -0.6337
  180MOL0     H24806  11.965   0.179   8.427 -0.2453 -0.0835  0.7099
  180MOL0     H24807  12.042   0.314   8.525  2.1127 -0.6608  1.4348
  180MOL0     H24808  11.934   0.078   8.660 -0.4968  0.7675 -0.8694
  180MOL0     H24809  12.053   0.196   8.714  0.7525 -0.8926  1.2224
  180MOL0     H24810  12.239   0.087   8.591 -1.2705  1.1740  1.6794
  180MOL0     H24811  12.124   0.007   8.495 -2.5782 -2.6926  1.1618
  180MOL0     H24812  12.165  -0.049   8.787  0.4607  1.5922 -1.3766
  180MOL0     H24813  12.037  -0.122   8.686 -0.5768  1.1487  1.0100
  180MOL0     H24814  12.336  -0.127   8.662  2.7778 -1.8260 -1.5598
  180MOL0     H24815  12.229  -0.187   8.535 -1.8542  0.9508 -0.5511
  180MOL0     H24816  12.132  -0.330   8.727  0.4733 -1.0428  0.1966
  180MOL0     H24817  12.288  -0.334   8.811  0.9504 -1.1594 -0.7584
  180MOL0     H24818  12.288  -0.413   8.518  0.1256  4.4684  0.7140
  180MOL0     H24819  12.252  -0.530   8.656  4.1950 -1.6074  2.5940
  180MOL0     H24820  11.693   0.561   8.309 -3.0298 -0.7151 -2.4460
  180MOL0     H24821  11.492   0.677   8.328  3.5209  1.1175  0.4572
  180MOL0     H24822  11.039   0.557   8.401 -1.7072  0.4678  2.1924
  180MOL0     H24823  10.818   0.598   8.328  1.1750 -0.7263 -3.2105
  180MOL0     H24824   9.131   1.477   7.511 -0.8216  0.2191 -0.8819
  180MOL0     H24825   8.888   1.491   7.475  0.0224 -0.0086  1.1702
  180MOL0     H24826   8.511   1.449   7.533 -0.7517 -0.2539  1.7952
  180MOL0     H24827   8.341   1.395   7.369  0.2308 -0.4960  1.1288
  180MOL0     H24828   8.062   1.476   7.122  0.5340  1.9278 -0.1315
  180MOL0     H24829   8.164   1.378   7.233  1.0970  1.0141  0.3849
  180MOL0     H24830   7.997   1.586   7.365 -3.5686 -0.3287 -2.6008
  180MOL0     H24831   8.061   1.428   7.414  2.7439 -0.0949  0.1427
  180MOL0     H24832   7.830   1.509   7.230 -0.0941  0.4842  1.9302
  180MOL0     H24833   7.883   1.340   7.243  1.8406  0.0534 -0.1837
  180MOL0     H24834   7.780   1.480   7.495 -0.8497 -2.0382  2.2748
  180MOL0     H24835   7.854   1.334   7.484 -1.4918 -0.0122  0.5722
  180MOL0     H24836   7.480   1.214   7.340 -0.0046 -0.5815  2.6695
  180MOL0     H24837   8.302   1.810   7.272 -0.2849 -1.9021 -3.0039
  180MOL0     H24838   8.465   1.961   7.311 -0.2719 -0.1942  1.2059
  180MOL0     H24839   8.539   1.945   7.478  0.8980 -1.2882  1.2633
  180MOL0     H24840   8.632   1.915   7.331 -0.4775 -1.6319 -0.1911
  181MOL0     O24841   6.471   2.892  11.095  0.2468  0.1566  0.5793
  181MOL0     C24842   6.493   2.847  10.986 -0.7272  0.0282 -0.2717
  181MOL0     O24843   6.424   2.866  10.876  0.2010 -0.4327 -0.0480
  181MOL0     C24844   6.321   2.956  10.873 -1.8879  0.2389 -0.4569
  181MOL0     C24845   6.355   3.094  10.890 -0.2687 -0.1256  0.1423
  181MOL0     C24846   6.251   3.187  10.883 -0.0743 -0.5639 -0.3866
  181MOL0     C24847   6.123   3.156  10.855 -0.3531 -0.4580  0.1331
  181MOL0     O24848   6.036   3.260  10.849 -0.5525  0.3447  0.3311
  181MOL0     C24849   5.898   3.233  10.806 -0.6061  0.3571  0.1743
  181MOL0     C24850   5.797   3.200  10.914 -0.1573  0.6999  0.1829
  181MOL0     C24851   5.672   3.147  10.868  0.7667  0.4593 -0.0454
  181MOL0     C24852   5.566   3.254  10.828  0.3445 -0.2812 -0.4344
  181MOL0     C24853   5.430   3.186  10.809  0.6631 -0.3588 -0.5240
  181MOL0     C24854   5.320   3.277  10.757  1.0897 -1.5178  0.3294
  181MOL0     C24855   5.195   3.198  10.725 -0.8947 -0.1100  0.6744
  181MOL0     C24856   5.084   3.286  10.666 -1.5331 -0.4239  0.0298
  181MOL0     N24857   4.985   3.196  10.619 -0.1254  0.3807  0.3488
  181MOL0     C24858   4.974   3.153  10.490  0.5567 -0.6940 -0.1885
  181MOL0     C24859   4.896   3.050  10.503 -0.4575 -0.3599  0.4352
  181MOL0     C24860   4.846   2.972  10.389  0.1408  0.9754  0.2802
  181MOL0     C24861   4.789   2.837  10.438 -0.1502 -0.2762  0.0076
  181MOL0     C24862   4.779   2.724  10.336  0.3417 -0.4028  0.7214
  181MOL0     C24863   4.666   2.763  10.230 -0.1395 -0.4612  0.0226
  181MOL0     O24864   4.548   2.820  10.290  0.2470 -0.2091  0.0524
  181MOL0     C24865   4.442   2.856  10.213  0.3020 -0.0197 -0.0217
  181MOL0     C24866   4.324   2.872  10.282 -0.3609 -0.2163  0.4682
  181MOL0     C24867   4.201   2.907  10.222 -0.5594 -0.3720  0.5362
  181MOL0     C24868   4.083   2.936  10.309 -0.5142 -0.6875 -0.3716
  181MOL0     C24869   4.205   2.932  10.076 -0.2964  0.1690 -0.0706
  181MOL0     C24870   4.088   2.983  10.010  0.0184  0.2703  0.4705
  181MOL0     O24871   4.084   2.966   9.881  0.8874 -0.7081 -0.5268
  181MOL0     C24872   3.982   3.019   9.816  0.2296  0.0686 -0.5558
  181MOL0     C24873   4.019   3.048   9.684 -0.0987  0.0516  0.0906
  181MOL0     C24874   3.930   3.107   9.587  0.3318 -0.6558  0.0639
  181MOL0     C24875   3.801   3.143   9.636  0.6597  0.7959 -0.2769
  181MOL0     O24876   3.719   3.199   9.540 -0.2835 -0.3845  0.6670
  181MOL0     C24877   3.597   3.266   9.579 -0.4849 -0.2352  0.1293
  181MOL0     C24878   3.542   3.320   9.449  0.9451  0.6461 -0.1570
  181MOL0     C24879   3.407   3.386   9.466 -0.1585  0.1907 -0.8703
  181MOL0     C24880   3.410   3.505   9.577  1.3042  0.2465  1.1586
  181MOL0     C24881   3.276   3.590   9.572 -0.5855 -0.1113  1.0580
  181MOL0     C24882   3.305   3.732   9.646  0.1063  0.1076  0.2284
  181MOL0     C24883   3.365   3.703   9.780  1.1883 -0.9314 -0.0919
  181MOL0     C24884   3.366   3.835   9.858 -0.0982  0.3807  0.2789
  181MOL0    Cl24885   3.438   3.814  10.023  0.2338 -0.0683  0.2352
  181MOL0     C24886   3.765   3.121   9.769  0.0051  1.1962 -0.1636
  181MOL0     C24887   3.851   3.065   9.862  0.2051 -0.1813  0.1381
  181MOL0     O24888   4.024   3.058  10.079  0.0164 -0.2649 -0.1064
  181MOL0     C24889   4.324   2.891  10.003  0.3267  0.2134 -0.6649
  181MOL0     C24890   4.445   2.866  10.076  0.1635  1.1370  0.1455
  181MOL0     N24891   4.851   3.035  10.631 -0.1713  0.4001  0.2629
  181MOL0     N24892   4.897   3.133  10.703 -0.2370  0.1513  0.0734
  181MOL0     C24893   6.084   3.019  10.837 -0.4539  0.0103 -0.5803
  181MOL0     C24894   6.183   2.921  10.850  0.5310 -0.1438 -0.2573
  181MOL0     C24895   6.614   2.762  10.965  0.1614 -0.3571 -1.0954
  181MOL0     C24896   6.659   2.729  10.840 -0.4959 -1.4352  0.2489
  181MOL0     C24897   6.779   2.660  10.821  0.0854 -0.5815 -0.2666
  181MOL0     C24898   6.839   2.601  10.935  0.0094  0.0425 -0.6309
  181MOL0     O24899   6.939   2.508  10.918  0.2043 -0.1268  0.2872
  181MOL0     C24900   6.948   2.448  10.784  0.4115  0.2808 -0.9202
  181MOL0     C24901   7.048   2.335  10.785  0.0802 -0.1619 -0.9957
  181MOL0     C24902   7.191   2.405  10.812  0.0684  0.5708  0.3412
  181MOL0     C24903   7.300   2.299  10.827  0.3312 -0.7392 -0.3217
  181MOL0     C24904   7.289   2.240  10.962  0.8113  0.0375 -0.6934
  181MOL0     C24905   7.288   2.209  11.084  0.5127  0.5828 -0.1183
  181MOL0     C24906   6.799   2.642  11.057  0.1342  0.0196  0.1047
  181MOL0     C24907   6.688   2.722  11.078  0.3382  1.2749  0.3626
  181MOL0     C24908   6.655   2.741  11.227  0.5739 -0.2689  0.2930
  181MOL0     H24909   6.460   3.121  10.896 -0.0683 -0.6872 -0.7450
  181MOL0     H24910   6.286   3.289  10.897 -0.6281 -0.4866  0.5162
  181MOL0     H24911   5.898   3.153  10.733 -0.0556  1.4441 -1.0520
  181MOL0     H24912   5.870   3.324  10.751 -1.7563 -0.2384 -0.2480
  181MOL0     H24913   5.845   3.130  10.983 -0.4763 -0.1883 -0.4873
  181MOL0     H24914   5.787   3.286  10.981 -1.5610  0.1281  0.7487
  181MOL0     H24915   5.677   3.082  10.781 -2.0219  2.2012 -1.6754
  181MOL0     H24916   5.638   3.081  10.948 -1.4295 -1.7992 -2.6458
  181MOL0     H24917   5.565   3.338  10.898  4.3630 -0.1343 -0.2736
  181MOL0     H24918   5.608   3.297  10.736  2.9498 -2.8809 -0.6232
  181MOL0     H24919   5.389   3.144  10.901 -0.9345  0.3705 -0.8802
  181MOL0     H24920   5.437   3.098  10.746 -0.1322 -0.4668 -0.4718
  181MOL0     H24921   5.297   3.352  10.832 -1.7517  0.9569 -2.6928
  181MOL0     H24922   5.345   3.331  10.665  0.4158 -0.1640  0.9300
  181MOL0     H24923   5.151   3.149  10.813  0.5469 -0.4464  1.2354
  181MOL0     H24924   5.225   3.124  10.650 -2.0274 -0.4271  0.5114
  181MOL0     H24925   5.035   3.354  10.736 -0.1601  1.3134 -0.6092
  181MOL0     H24926   5.129   3.339  10.581  0.7359  3.0099  3.0300
  181MOL0     H24927   5.033   3.197  10.410  2.3806 -3.9935 -0.8510
  181MOL0     H24928   4.931   2.949  10.324  1.0589 -2.8297  2.5223
  181MOL0     H24929   4.768   3.024  10.332  1.7408  2.0369 -1.0264
  181MOL0     H24930   4.859   2.799  10.512 -0.5546  1.8529  1.5663
  181MOL0     H24931   4.692   2.859  10.483  0.5927  3.5005  0.1154
  181MOL0     H24932   4.872   2.694  10.287  0.4068  0.4077  0.3231
  181MOL0     H24933   4.730   2.643  10.391 -1.6978  0.3307  0.1003
  181MOL0     H24934   4.713   2.836  10.163 -2.6732  0.5198 -0.8097
  181MOL0     H24935   4.625   2.675  10.179 -3.4566  1.6197 -1.2371
  181MOL0     H24936   4.327   2.870  10.391  0.5579 -0.8929  0.4434
  181MOL0     H24937   4.104   2.910  10.413  1.4518  0.4607 -0.4267
  181MOL0     H24938   3.995   2.884  10.273  0.1130 -1.3089 -1.0442
  181MOL0     H24939   4.080   3.046  10.312  0.1344 -0.6823  0.5389
  181MOL0     H24940   4.107   3.004   9.639 -0.2585  0.8405 -1.0334
  181MOL0     H24941   3.959   3.118   9.484  1.0876  2.3958  0.5029
  181MOL0     H24942   3.525   3.201   9.628 -2.7322 -0.9692 -3.6860
  181MOL0     H24943   3.613   3.348   9.649 -0.9697 -0.7403  0.8395
  181MOL0     H24944   3.615   3.391   9.410  4.3353 -0.9102  2.7868
  181MOL0     H24945   3.551   3.239   9.376  0.1932 -0.2319  0.7071
  181MOL0     H24946   3.335   3.310   9.499 -0.0324 -1.2918 -3.6865
  181MOL0     H24947   3.373   3.427   9.370  1.5978 -0.1410 -1.6677
  181MOL0     H24948   3.494   3.565   9.541 -0.0568  2.4903  1.5192
  181MOL0     H24949   3.432   3.462   9.675 -0.5439 -1.6876  0.8081
  181MOL0     H24950   3.247   3.623   9.472 -2.4656 -0.7071  1.3610
  181MOL0     H24951   3.191   3.543   9.624 -0.5156 -0.0418  1.2381
  181MOL0     H24952   3.209   3.786   9.647 -0.0409 -0.1594  0.7891
  181MOL0     H24953   3.387   3.782   9.594 -0.2609  0.3160 -0.1585
  181MOL0     H24954   3.466   3.661   9.782  1.9793  0.7887 -1.4302
  181MOL0     H24955   3.291   3.643   9.833  0.3261 -0.6104 -0.9156
  181MOL0     H24956   3.264   3.865   9.880 -0.8006 -0.8807 -1.0442
  181MOL0     H24957   3.423   3.913   9.807  0.7496 -0.2763  0.2008
  181MOL0     H24958   3.664   3.149   9.797 -1.6621 -3.2942 -0.8037
  181MOL0     H24959   3.821   3.041   9.964 -1.2644 -4.9102 -1.1530
  181MOL0     H24960   4.337   2.877   9.896  3.4528 -3.5055 -0.0423
  181MOL0     H24961   4.538   2.838  10.028 -0.9614  0.6958 -1.8797
  181MOL0     H24962   5.987   2.978  10.811 -0.6351 -0.2130  0.3938
  181MOL0     H24963   6.174   2.814  10.832  2.5619 -0.3386 -0.3410
  181MOL0     H24964   6.607   2.769  10.754  0.8296  0.2845  0.1983
  181MOL0     H24965   6.792   2.621  10.721 -0.0848 -0.9028 -0.1651
  181MOL0     H24966   6.852   2.406  10.754 -0.1310  2.7630 -3.0799
  181MOL0     H24967   6.977   2.535  10.723  1.9825  2.2163  2.2720
  181MOL0     H24968   7.041   2.300  10.682  2.2976  1.7996 -1.8990
  181MOL0     H24969   7.027   2.256  10.858  0.9263 -1.6614 -2.3321
  181MOL0     H24970   7.210   2.487  10.742 -1.3268  1.9492  1.5168
  181MOL0     H24971   7.178   2.457  10.907 -0.2854  0.4799  0.3411
  181MOL0     H24972   7.393   2.357  10.817 -0.7845  1.1820 -0.0193
  181MOL0     H24973   7.291   2.225  10.746  0.3227 -0.7061 -0.3503
  181MOL0     H24974   7.281   2.197  11.190 -1.9692 -1.8198 -0.4508
  181MOL0     H24975   6.849   2.615  11.150  1.7461  1.9217 -0.1388
  181MOL0     H24976   6.654   2.843  11.267 -1.2001 -0.2940  0.3659
  181MOL0     H24977   6.558   2.696  11.247  1.2390 -2.4060 -0.9423
  181MOL0     H24978   6.735   2.695  11.285  2.4227 -0.9392 -2.5790
  182MOL0     O24979   5.558  11.143  11.190 -0.1173 -0.5994 -0.6711
  182MOL0     C24980   5.440  11.170  11.222 -0.4578 -0.0064 -0.6729
  182MOL0     O24981   5.392  11.163  11.348  0.0011 -0.6277  0.6330
  182MOL0     C24982   5.451  11.080  11.441  0.1429 -0.3278 -0.0609
  182MOL0     C24983   5.573  11.109  11.503 -0.0293 -0.0728 -0.7315
  182MOL0     C24984   5.630  11.022  11.592 -0.2086 -0.2482 -0.7077
  182MOL0     C24985   5.560  10.902  11.634 -0.2863 -0.1993  0.2726
  182MOL0     O24986   5.601  10.815  11.724  0.0407 -0.1512 -0.4847
  182MOL0     C24987   5.547  10.844  11.855  0.4157 -0.9838 -0.1012
  182MOL0     C24988   5.573  10.723  11.937 -1.4769  0.1887 -0.0832
  182MOL0     C24989   5.534  10.751  12.083 -0.4700 -0.0540 -0.8090
  182MOL0     C24990   5.494  10.622  12.158 -1.2262  0.7730 -0.3508
  182MOL0     C24991   5.464  10.647  12.302 -0.0391  0.8958  0.2042
  182MOL0     C24992   5.405  10.513  12.365  0.0558 -0.3104  1.0965
  182MOL0     C24993   5.513  10.403  12.370 -0.2627  0.3067  0.4438
  182MOL0     C24994   5.632  10.445  12.446 -0.1983  0.7407  0.4616
  182MOL0     N24995   5.721  10.337  12.490  0.3423 -0.6978 -0.6711
  182MOL0     C24996   5.816  10.280  12.417 -1.1220  0.2510 -0.3095
  182MOL0     C24997   5.868  10.194  12.503  0.5279 -0.1546 -0.1428
  182MOL0     C24998   5.950  10.072  12.458  0.7538  0.3355  0.1222
  182MOL0     C24999   6.091  10.115  12.420  0.1514  0.4795 -0.6422
  182MOL0     C25000   6.151  10.007  12.323  0.2956 -0.3463 -0.2537
  182MOL0     C25001   6.310  10.005  12.309  0.0835 -0.9798 -0.2923
  182MOL0     O25002   6.352  10.140  12.272  1.1319 -0.7667 -0.6697
  182MOL0     C25003   6.473  10.163  12.206  0.6915 -0.5974  0.0588
  182MOL0     C25004   6.564  10.261  12.250 -0.2217 -0.2502  0.6920
  182MOL0     C25005   6.683  10.297  12.176 -0.2104  1.4441  0.6680
  182MOL0     C25006   6.772  10.411  12.223 -0.6762  0.2500  0.2531
  182MOL0     C25007   6.708  10.226  12.055  0.4053  0.5499 -0.3563
  182MOL0     C25008   6.817  10.256  11.971  0.1153  0.9361  0.6156
  182MOL0     O25009   6.888  10.150  11.920 -0.8982 -0.4678 -0.4439
  182MOL0     C25010   7.010  10.164  11.861 -0.1803  0.1003 -0.0038
  182MOL0     C25011   7.135  10.185  11.930 -0.8721  0.6320  0.2608
  182MOL0     C25012   7.257  10.214  11.857  0.3442  0.2018  0.5751
  182MOL0     C25013   7.262  10.199  11.718  0.8999 -0.5596 -0.5612
  182MOL0     O25014   7.388  10.219  11.655  0.6748  0.0576 -0.1278
  182MOL0     C25015   7.393  10.194  11.517  1.2543 -0.6181  0.0677
  182MOL0     C25016   7.390  10.337  11.446 -0.7710 -0.2376 -0.0354
  182MOL0     C25017   7.257  10.408  11.408  0.5302  0.2985 -0.1947
  182MOL0     C25018   7.280  10.540  11.332 -0.4587 -0.0585  0.0337
  182MOL0     C25019   7.150  10.618  11.333 -0.0504 -0.3928  0.0324
  182MOL0     C25020   7.055  10.600  11.217  0.7986  0.1619  1.1706
  182MOL0     C25021   7.115  10.663  11.083 -0.7377  0.5846 -0.2355
  182MOL0     C25022   7.107  10.820  11.072 -0.9883  1.3526 -1.0183
  182MOL0    Cl25023   6.954  10.879  11.099 -0.1017  0.0870 -0.1638
  182MOL0     C25024   7.139  10.180  11.652 -0.5474 -0.2656 -0.5716
  182MOL0     C25025   7.018  10.159  11.726 -0.2664 -0.3044 -0.3238
  182MOL0     O25026   6.833  10.374  11.937  0.2567 -0.1856 -0.1742
  182MOL0     C25027   6.614  10.130  12.011 -0.0949  0.5541 -0.7879
  182MOL0     C25028   6.500  10.096  12.089  0.0192 -0.0352 -0.0653
  182MOL0     N25029   5.810  10.204  12.630  0.0501 -0.1473 -0.1035
  182MOL0     N25030   5.731  10.308  12.623 -0.4019  0.1545 -0.2668
  182MOL0     C25031   5.436  10.872  11.572 -0.4993 -0.1967 -1.0372
  182MOL0     C25032   5.389  10.961  11.475  0.2815  0.4174 -0.5060
  182MOL0     C25033   5.368  11.238  11.117 -0.2684  0.3526  1.0183
  182MOL0     C25034   5.447  11.314  11.027 -0.3734  0.0725  0.7055
  182MOL0     C25035   5.383  11.396  10.936  0.6206 -0.3570 -0.4149
  182MOL0     C25036   5.237  11.389  10.923  0.4046  0.0478  0.1474
  182MOL0     O25037   5.162  11.474  10.847  0.8602 -0.0478  0.8562
  182MOL0     C25038   5.210  11.517  10.717 -0.4269  0.0880  0.3116
  182MOL0     C25039   5.238  11.673  10.715  0.0203  0.9866  0.2353
  182MOL0     C25040   5.104  11.741  10.702 -0.5016 -0.3587 -0.8087
  182MOL0     C25041   5.131  11.882  10.646  0.2210 -0.8196  1.0994
  182MOL0     C25042   5.216  11.966  10.729 -0.3691 -0.3849  0.7536
  182MOL0     C25043   5.271  12.047  10.803 -1.5532  0.0521  0.2389
  182MOL0     C25044   5.166  11.300  10.999 -0.2057 -0.0953 -1.2954
  182MOL0     C25045   5.228  11.227  11.105  0.2590 -0.4837  0.5948
  182MOL0     C25046   5.143  11.132  11.187 -0.0332  0.6591  0.0216
  182MOL0     H25047   5.622  11.204  11.486 -0.4954  0.2372 -0.3681
  182MOL0     H25048   5.722  11.034  11.649 -0.3431  0.0464 -0.5510
  182MOL0     H25049   5.441  10.868  11.850  0.7698  0.6489 -0.1521
  182MOL0     H25050   5.589  10.932  11.903  0.3425 -1.9437  1.8010
  182MOL0     H25051   5.517  10.637  11.900 -1.9988  0.3749  0.2777
  182MOL0     H25052   5.679  10.695  11.942 -1.7295 -0.6602  0.6299
  182MOL0     H25053   5.617  10.802  12.133 -0.9891  0.8792 -0.8606
  182MOL0     H25054   5.450  10.822  12.083 -0.9401 -0.6029 -1.7823
  182MOL0     H25055   5.400  10.590  12.112 -1.2494 -0.5665  0.5836
  182MOL0     H25056   5.575  10.550  12.142 -1.4899  0.4513 -0.2261
  182MOL0     H25057   5.391  10.728  12.302  1.0415  1.9563  2.5897
  182MOL0     H25058   5.554  10.680  12.354  1.6591 -0.4017 -1.7414
  182MOL0     H25059   5.365  10.526  12.466 -0.3685 -4.8924  1.6995
  182MOL0     H25060   5.322  10.490  12.297 -1.1243  1.8104  1.7157
  182MOL0     H25061   5.538  10.373  12.268  1.8814  2.1470  0.3525
  182MOL0     H25062   5.478  10.313  12.423 -1.2194  0.2206 -0.3100
  182MOL0     H25063   5.694  10.515  12.389  1.2396  0.9809  2.2220
  182MOL0     H25064   5.595  10.499  12.534 -0.2630  0.2310  0.7535
  182MOL0     H25065   5.849  10.309  12.318  1.8464  5.3491  1.7647
  182MOL0     H25066   5.908  10.017  12.374  0.4819 -2.8694  2.1759
  182MOL0     H25067   5.947   9.991  12.532 -0.5123 -0.4832 -0.7907
  182MOL0     H25068   6.091  10.215  12.377 -0.4137  1.4617  1.4857
  182MOL0     H25069   6.148  10.118  12.514  1.5244 -2.8332 -1.2315
  182MOL0     H25070   6.110   9.907  12.341 -2.9713  0.7573 -0.7270
  182MOL0     H25071   6.125  10.029  12.219 -0.2179  0.9780  0.1345
  182MOL0     H25072   6.350   9.972  12.405 -1.1216  1.1352  1.0056
  182MOL0     H25073   6.345   9.929  12.238 -0.1884  0.3517 -1.9321
  182MOL0     H25074   6.546  10.321  12.338  0.5207  1.0691 -0.0188
  182MOL0     H25075   6.867  10.367  12.256 -0.2490  1.1023  0.2044
  182MOL0     H25076   6.741  10.452  12.320  0.0080  0.2218  0.4952
  182MOL0     H25077   6.794  10.491  12.152  1.4859 -0.0996  0.4491
  182MOL0     H25078   7.140  10.192  12.039 -0.3526  0.4077  0.2547
  182MOL0     H25079   7.347  10.242  11.910  0.8382  0.5593 -0.4249
  182MOL0     H25080   7.495  10.158  11.502  1.8775  1.2572 -0.5112
  182MOL0     H25081   7.315  10.129  11.475  0.2608  0.8287 -0.4031
  182MOL0     H25082   7.448  10.398  11.515  0.3607 -0.2757 -0.9082
  182MOL0     H25083   7.449  10.309  11.358  0.1764 -0.8377  0.7664
  182MOL0     H25084   7.186  10.412  11.491 -1.1851  0.8279 -1.6260
  182MOL0     H25085   7.203  10.348  11.334 -0.5240  1.8663 -0.7520
  182MOL0     H25086   7.318  10.524  11.231  2.3633 -1.0823  1.1608
  182MOL0     H25087   7.357  10.596  11.386 -0.8818  1.6331 -1.0242
  182MOL0     H25088   7.108  10.600  11.433  0.5122  1.6524  0.6918
  182MOL0     H25089   7.186  10.722  11.330 -4.1180  1.1512 -0.8881
  182MOL0     H25090   6.960  10.646  11.244 -2.2765 -5.6912  1.8189
  182MOL0     H25091   7.037  10.494  11.199 -0.8038  0.9436 -2.7206
  182MOL0     H25092   7.065  10.620  10.996 -1.2057  1.5145 -0.4419
  182MOL0     H25093   7.221  10.637  11.084 -1.0921 -1.1583  2.2742
  182MOL0     H25094   7.138  10.857  10.974 -1.9715  2.1825 -1.0401
  182MOL0     H25095   7.179  10.861  11.144  0.9273  1.6960 -3.0171
  182MOL0     H25096   7.136  10.158  11.546  0.9688  0.8876 -0.8798
  182MOL0     H25097   6.929  10.142  11.667  0.9207  0.1364 -2.3589
  182MOL0     H25098   6.621  10.076  11.917 -0.5485  0.6888 -0.9008
  182MOL0     H25099   6.428  10.019  12.065  0.5184 -0.6509  0.3758
  182MOL0     H25100   5.374  10.794  11.615  1.9290 -0.6083  2.1388
  182MOL0     H25101   5.292  10.932  11.435  1.2241 -1.6787 -1.4146
  182MOL0     H25102   5.555  11.322  11.033 -0.5166  2.3085  1.3191
  182MOL0     H25103   5.436  11.473  10.882  2.7883 -0.2862  1.6268
  182MOL0     H25104   5.302  11.461  10.694  0.8011  1.6531  1.2381
  182MOL0     H25105   5.127  11.494  10.649  1.6829 -0.3865 -2.2492
  182MOL0     H25106   5.309  11.697  10.635 -0.8287  2.0020 -0.2336
  182MOL0     H25107   5.296  11.693  10.807  0.8825 -0.1028 -0.0483
  182MOL0     H25108   5.040  11.690  10.629 -0.0924 -1.5428 -0.3715
  182MOL0     H25109   5.055  11.761  10.797  0.9855  0.6242 -0.2193
  182MOL0     H25110   5.034  11.933  10.642  0.3521 -0.3989  2.6640
  182MOL0     H25111   5.168  11.890  10.544 -3.7235  3.9812 -0.3543
  182MOL0     H25112   5.326  12.115  10.865 -2.8617 -0.4319  2.0276
  182MOL0     H25113   5.058  11.297  10.993 -0.3555 -0.3047  0.9967
  182MOL0     H25114   5.127  11.166  11.290  2.0158 -0.5131  0.7954
  182MOL0     H25115   5.043  11.117  11.144  0.4480  0.4731 -1.0603
  182MOL0     H25116   5.184  11.032  11.200 -1.0226  0.0745 -1.1414
  183MOL0     O25117   4.934   7.654   7.926  0.0765  0.9608  0.3878
  183MOL0     C25118   5.013   7.731   7.985 -0.4559  0.2010 -0.3973
  183MOL0     O25119   5.034   7.747   8.116  0.4322 -0.9565  0.1484
  183MOL0     C25120   4.958   7.693   8.221 -0.1208  0.7068 -0.2215
  183MOL0     C25121   4.834   7.633   8.214 -0.2469 -0.3016 -0.0248
  183MOL0     C25122   4.774   7.586   8.331  0.4424  0.2735  0.8282
  183MOL0     C25123   4.834   7.586   8.452 -0.2779  0.4493 -0.1161
  183MOL0     O25124   4.761   7.532   8.558 -0.3430 -0.3069  0.3180
  183MOL0     C25125   4.833   7.525   8.683  0.4364 -0.7238  0.1860
  183MOL0     C25126   4.764   7.417   8.766 -0.9836 -1.2001  0.8375
  183MOL0     C25127   4.825   7.406   8.909 -0.0155  0.5122  0.6197
  183MOL0     C25128   4.768   7.516   8.993 -0.0269  0.4891  0.0882
  183MOL0     C25129   4.832   7.510   9.134 -1.3493  0.3797 -0.6435
  183MOL0     C25130   4.764   7.403   9.221  0.1283 -0.3452  0.9792
  183MOL0     C25131   4.797   7.431   9.371 -0.2931  0.6745  0.2501
  183MOL0     C25132   4.946   7.412   9.392 -0.2187 -0.0069  0.3895
  183MOL0     N25133   4.988   7.411   9.535 -0.0537  0.2900  0.6365
  183MOL0     C25134   4.941   7.490   9.642  0.3364  0.8279  0.9910
  183MOL0     C25135   4.989   7.440   9.755 -0.1562 -0.4504 -0.8408
  183MOL0     C25136   4.977   7.485   9.899  0.0765  0.5534  0.8378
  183MOL0     C25137   5.012   7.630   9.935 -0.0035  0.0498  0.7007
  183MOL0     C25138   5.128   7.647  10.026 -0.5223  0.3625  0.2635
  183MOL0     C25139   5.177   7.789  10.001  0.2604  1.0634  0.3559
  183MOL0     O25140   5.295   7.821  10.082 -0.1977 -0.4012  0.2989
  183MOL0     C25141   5.419   7.772  10.064 -0.4972 -0.0385 -0.5478
  183MOL0     C25142   5.518   7.829   9.972  0.2834 -0.0150 -1.1034
  183MOL0     C25143   5.644   7.775   9.960  0.7151  0.1885  0.4526
  183MOL0     C25144   5.723   7.849   9.865 -0.1102  0.8396  0.6233
  183MOL0     C25145   5.688   7.661  10.034 -0.6745  0.0251 -0.7479
  183MOL0     C25146   5.826   7.614  10.045 -0.4461 -0.2962  0.1406
  183MOL0     O25147   5.909   7.631   9.936 -0.1627  0.3976 -0.2764
  183MOL0     C25148   6.037   7.625   9.970 -0.4391  0.0509 -0.2658
  183MOL0     C25149   6.112   7.742   9.997  0.6916 -0.1880 -0.3743
  183MOL0     C25150   6.245   7.736  10.024  0.8673  0.1319 -0.1266
  183MOL0     C25151   6.303   7.607  10.038 -1.3085  0.0072 -0.8384
  183MOL0     O25152   6.428   7.581  10.085 -0.3348 -0.0901  0.1808
  183MOL0     C25153   6.525   7.691  10.109 -0.5348  0.4426  0.4625
  183MOL0     C25154   6.659   7.628  10.141  0.0673 -0.0368  0.1231
  183MOL0     C25155   6.704   7.538  10.023 -0.2429 -0.3680 -0.4349
  183MOL0     C25156   6.853   7.505  10.032 -0.7350  0.7104  0.4827
  183MOL0     C25157   6.877   7.392   9.931  0.2111 -0.5105  0.2108
  183MOL0     C25158   7.016   7.340   9.920  0.5035 -0.0100  0.2841
  183MOL0     C25159   7.017   7.211   9.829  0.2868 -1.0847 -0.9082
  183MOL0     C25160   7.149   7.132   9.854 -0.3957  0.0445 -0.1711
  183MOL0    Cl25161   7.152   6.981   9.767 -0.6414 -0.5746  0.2064
  183MOL0     C25162   6.238   7.498   9.996  1.2666 -0.1468 -0.1497
  183MOL0     C25163   6.104   7.511   9.966  0.7003  0.4448  0.2763
  183MOL0     O25164   5.863   7.567  10.152 -1.0039  0.0622 -0.2944
  183MOL0     C25165   5.596   7.608  10.132  0.2678  0.6730  0.3788
  183MOL0     C25166   5.462   7.662  10.142 -0.0099 -0.1601  0.5407
  183MOL0     N25167   5.042   7.320   9.726 -0.1232  1.5018  0.0396
  183MOL0     N25168   5.044   7.301   9.595  0.3384  0.2423 -0.1331
  183MOL0     C25169   4.963   7.648   8.461 -0.5117  0.0754  0.4046
  183MOL0     C25170   5.022   7.699   8.345  0.6784 -0.4686 -0.3718
  183MOL0     C25171   5.118   7.787   7.898 -0.1090 -0.1948  0.0881
  183MOL0     C25172   5.134   7.739   7.762  0.0986 -1.1158  0.3344
  183MOL0     C25173   5.243   7.771   7.685  0.6426 -0.1887 -0.5396
  183MOL0     C25174   5.341   7.850   7.736 -1.0648  0.4404 -0.7341
  183MOL0     O25175   5.450   7.870   7.655 -0.0087 -0.3022  0.5347
  183MOL0     C25176   5.505   8.004   7.636 -0.8812 -0.9813  1.1282
  183MOL0     C25177   5.571   8.013   7.498  1.0016  0.2655  1.3599
  183MOL0     C25178   5.711   7.961   7.488 -0.3310 -0.2290  0.1778
  183MOL0     C25179   5.723   7.812   7.511 -0.5979  0.3948  0.3742
  183MOL0     C25180   5.860   7.769   7.511 -0.9039  0.2973 -0.6569
  183MOL0     C25181   5.986   7.759   7.519  0.1879 -0.1353  0.4216
  183MOL0     C25182   5.335   7.897   7.862  0.2357  0.2286  0.7059
  183MOL0     C25183   5.226   7.860   7.945 -0.3777  0.1370 -0.1835
  183MOL0     C25184   5.238   7.935   8.075 -0.3425  0.0193 -0.0811
  183MOL0     H25185   4.765   7.645   8.130  0.8449 -0.3269 -0.9461
  183MOL0     H25186   4.669   7.558   8.322  0.9200 -1.1631 -0.9326
  183MOL0     H25187   4.814   7.619   8.736  0.6084  1.4731 -3.3215
  183MOL0     H25188   4.939   7.503   8.671  0.3383 -0.2832 -1.6543
  183MOL0     H25189   4.655   7.430   8.766 -0.7234  2.2720 -1.7486
  183MOL0     H25190   4.787   7.327   8.708  1.0818  1.1691 -2.3252
  183MOL0     H25191   4.796   7.309   8.950  0.7640  0.5160  1.2039
  183MOL0     H25192   4.934   7.410   8.901  0.1678 -1.8632  1.3437
  183MOL0     H25193   4.797   7.606   8.937  1.6008 -0.1244 -0.0817
  183MOL0     H25194   4.659   7.513   9.008 -0.1768  0.2753 -0.9422
  183MOL0     H25195   4.833   7.608   9.183 -1.0070 -0.4406  1.0489
  183MOL0     H25196   4.939   7.496   9.113 -1.1425 -1.0947  1.1141
  183MOL0     H25197   4.655   7.410   9.210  0.1246  3.6741  1.8873
  183MOL0     H25198   4.786   7.306   9.176  0.4223 -0.6425  1.7467
  183MOL0     H25199   4.745   7.362   9.438  0.5634  2.4827  2.9580
  183MOL0     H25200   4.769   7.528   9.414  0.8193  2.0768 -1.9810
  183MOL0     H25201   4.980   7.317   9.349  1.8740  0.8290  0.0912
  183MOL0     H25202   5.005   7.488   9.341  0.3010 -0.7919 -0.2035
  183MOL0     H25203   4.870   7.573   9.637 -0.4080  0.2591  1.8611
  183MOL0     H25204   5.026   7.410   9.961 -2.8883 -0.7619  1.7387
  183MOL0     H25205   4.873   7.470   9.927 -0.0445  2.2333  1.4158
  183MOL0     H25206   5.033   7.678   9.839  0.7636 -0.3359  0.6611
  183MOL0     H25207   4.930   7.688   9.977 -1.4352 -1.4783  0.1423
  183MOL0     H25208   5.090   7.626  10.127  3.4869  0.8520  2.0778
  183MOL0     H25209   5.213   7.579  10.019 -0.6144  0.2570  0.1589
  183MOL0     H25210   5.211   7.790   9.897 -1.4076 -1.8390 -0.3377
  183MOL0     H25211   5.105   7.867  10.028  0.0197  1.7606 -2.0874
  183MOL0     H25212   5.484   7.913   9.911  1.6512 -0.1694 -2.1093
  183MOL0     H25213   5.777   7.785   9.795 -0.8333 -1.5256  2.1047
  183MOL0     H25214   5.789   7.909   9.929 -1.3569  0.3799  2.4281
  183MOL0     H25215   5.666   7.912   9.796 -2.9685  0.3146  2.3443
  183MOL0     H25216   6.066   7.839  10.006  0.4274 -0.5407  3.8379
  183MOL0     H25217   6.299   7.826  10.051  0.1834  0.7549 -0.7705
  183MOL0     H25218   6.550   7.755  10.023  2.4329 -0.5644  0.4593
  183MOL0     H25219   6.497   7.742  10.201  4.0108  1.5687  1.4519
  183MOL0     H25220   6.742   7.700  10.151 -0.4858  0.4662  1.2648
  183MOL0     H25221   6.637   7.570  10.231 -0.1051 -0.0070  0.1001
  183MOL0     H25222   6.692   7.588   9.927  2.9680 -0.0140 -0.7569
  183MOL0     H25223   6.642   7.449  10.013  2.8909 -2.5696 -1.8625
  183MOL0     H25224   6.869   7.478  10.137 -2.0737 -0.0418  0.5232
  183MOL0     H25225   6.917   7.591  10.009  0.7147  0.6054  3.6395
  183MOL0     H25226   6.814   7.314   9.975  2.2101 -0.4962  3.4329
  183MOL0     H25227   6.846   7.424   9.831  1.4871 -1.9438 -0.7066
  183MOL0     H25228   7.049   7.320  10.022 -0.9000  1.6925  1.1228
  183MOL0     H25229   7.076   7.418   9.873 -0.3265  1.2221  1.2178
  183MOL0     H25230   6.998   7.231   9.723  1.5504 -2.7998 -1.5054
  183MOL0     H25231   6.933   7.151   9.865 -2.7224  2.4668 -1.4205
  183MOL0     H25232   7.157   7.109   9.960 -3.6813 -3.5186 -0.4767
  183MOL0     H25233   7.242   7.181   9.823 -1.4603  1.8329 -0.6994
  183MOL0     H25234   6.287   7.402   9.989  2.4314  0.4041  0.2937
  183MOL0     H25235   6.042   7.426   9.939  0.1204  0.9438 -0.0016
  183MOL0     H25236   5.615   7.515  10.185  0.2878  0.8074  0.6116
  183MOL0     H25237   5.387   7.634  10.215  0.0280  0.8870  1.0109
  183MOL0     H25238   5.023   7.657   8.550  0.1053  2.4013 -0.1850
  183MOL0     H25239   5.116   7.752   8.351  0.0657  0.7194 -0.8587
  183MOL0     H25240   5.068   7.671   7.709  1.0737  0.0257 -2.5335
  183MOL0     H25241   5.243   7.746   7.579  1.8548  1.0584 -0.8716
  183MOL0     H25242   5.428   8.081   7.652  0.9244  1.7677 -2.0077
  183MOL0     H25243   5.587   8.018   7.707  0.2662  1.8372 -0.5793
  183MOL0     H25244   5.569   8.117   7.465  2.1604 -0.3864 -1.0062
  183MOL0     H25245   5.512   7.954   7.427  1.0259  2.9543 -1.0927
  183MOL0     H25246   5.746   7.982   7.387 -0.8082 -1.3643 -0.2421
  183MOL0     H25247   5.774   8.007   7.565 -0.5150 -1.3778  1.0478
  183MOL0     H25248   5.670   7.747   7.441 -1.9213  0.3349  1.3996
  183MOL0     H25249   5.701   7.794   7.617  2.4512  0.8513  1.2014
  183MOL0     H25250   6.092   7.744   7.523  0.0404 -0.9712  2.3526
  183MOL0     H25251   5.414   7.955   7.909 -0.9346  0.5060  2.4194
  183MOL0     H25252   5.137   7.971   8.099 -1.1340 -0.5798 -2.2942
  183MOL0     H25253   5.270   7.876   8.161 -3.2810  1.2823  2.0841
  183MOL0     H25254   5.291   8.030   8.071  0.6515 -0.5480 -0.5309
  184MOL0     O25255   8.845   3.383   6.365  0.7116  1.1926 -0.1978
  184MOL0     C25256   8.765   3.281   6.346  0.4104 -0.5470 -0.0579
  184MOL0     O25257   8.790   3.149   6.372  0.9175 -0.8627 -0.2353
  184MOL0     C25258   8.918   3.108   6.373  0.0981  0.5868 -0.3186
  184MOL0     C25259   9.015   3.146   6.466 -0.1171  0.3596  0.2927
  184MOL0     C25260   9.145   3.101   6.460  0.9489 -0.7745 -0.0224
  184MOL0     C25261   9.186   3.019   6.355  0.7090  0.1608  0.1479
  184MOL0     O25262   9.316   2.987   6.368 -0.4489 -0.1859 -0.0103
  184MOL0     C25263   9.381   2.935   6.246  1.2820 -0.1896 -0.5318
  184MOL0     C25264   9.517   2.927   6.303 -0.1675 -0.3648  0.3534
  184MOL0     C25265   9.615   2.885   6.195 -1.0867 -0.6202  0.8298
  184MOL0     C25266   9.693   3.007   6.131  0.3864 -0.5581  0.6221
  184MOL0     C25267   9.839   2.981   6.111  0.3569  0.1514  0.5742
  184MOL0     C25268   9.921   2.947   6.241 -0.0910  0.5379 -0.3339
  184MOL0     C25269   9.958   3.073   6.319  0.2950  0.2631  1.0670
  184MOL0     C25270  10.100   3.126   6.282 -0.3603  0.7924  0.0212
  184MOL0     N25271  10.202   3.043   6.350  0.1938  0.2459 -0.0379
  184MOL0     C25272  10.283   2.942   6.302 -0.2438 -0.9156 -0.7413
  184MOL0     C25273  10.346   2.895   6.409 -0.9142 -0.9113  1.0868
  184MOL0     C25274  10.453   2.783   6.394 -1.0603 -0.1881  0.8837
  184MOL0     C25275  10.601   2.822   6.432  0.4040 -0.2815  1.3127
  184MOL0     C25276  10.648   2.949   6.358 -0.1159  0.2662  0.1644
  184MOL0     C25277  10.795   2.956   6.378 -0.1868 -0.0923 -1.0040
  184MOL0     O25278  10.848   3.077   6.320 -0.2433 -0.0135 -0.5664
  184MOL0     C25279  10.987   3.098   6.318 -0.2929  0.6237 -0.2446
  184MOL0     C25280  11.039   3.185   6.217  0.8393  0.7575 -0.6050
  184MOL0     C25281  11.173   3.211   6.204  0.4736 -0.2729  0.0456
  184MOL0     C25282  11.226   3.317   6.104 -0.1123  0.9953 -1.2758
  184MOL0     C25283  11.263   3.139   6.288  0.0039  0.4806 -0.4178
  184MOL0     C25284  11.404   3.158   6.275  0.0132 -0.0896  0.2508
  184MOL0     O25285  11.462   3.185   6.155 -0.7205  0.2442 -0.2446
  184MOL0     C25286  11.597   3.202   6.144  1.2221 -0.7074 -0.6106
  184MOL0     C25287  11.629   3.319   6.077 -0.0636  0.8064  0.5468
  184MOL0     C25288  11.763   3.346   6.035 -0.5465 -0.5768 -0.0095
  184MOL0     C25289  11.867   3.261   6.085 -0.4627 -0.8935  1.2010
  184MOL0     O25290  11.992   3.307   6.046 -1.1456  0.1791 -0.2641
  184MOL0     C25291  12.094   3.209   5.996  1.2484 -0.4814  0.8447
  184MOL0     C25292  12.236   3.260   6.001 -0.4741  1.3210  0.1288
  184MOL0     C25293  12.343   3.151   5.996  0.1098 -0.0064  0.1723
  184MOL0     C25294  12.483   3.208   5.958 -0.0601 -0.4915  0.3247
  184MOL0     C25295  12.602   3.120   5.987  0.2907 -0.1490 -0.0198
  184MOL0     C25296  12.727   3.197   5.944 -0.2530  0.6692  0.2674
  184MOL0     C25297  12.863   3.147   5.996 -0.5751  0.4576  0.9399
  184MOL0     C25298  12.972   3.258   6.020 -0.6459 -0.1364  0.1742
  184MOL0    Cl25299  13.129   3.176   6.075  0.2817 -0.2456 -0.6719
  184MOL0     C25300  11.836   3.143   6.148  0.2115 -0.6973 -1.1702
  184MOL0     C25301  11.697   3.113   6.179  0.0266 -0.6448  0.3253
  184MOL0     O25302  11.466   3.136   6.384  0.0085 -0.1413 -0.1692
  184MOL0     C25303  11.215   3.042   6.377  0.3121  0.4765  0.3826
  184MOL0     C25304  11.082   3.024   6.394  0.9318 -0.1716  0.8015
  184MOL0     N25305  10.318   2.964   6.516 -0.5708  0.2970 -1.5057
  184MOL0     N25306  10.227   3.052   6.484  0.0620 -0.1894  0.1689
  184MOL0     C25307   9.094   2.976   6.256  0.4027 -0.6228 -0.2803
  184MOL0     C25308   8.961   3.022   6.261 -0.6635  0.8707  0.6975
  184MOL0     C25309   8.616   3.311   6.314 -0.0496  0.1153  0.3614
  184MOL0     C25310   8.510   3.223   6.349 -0.2562  0.3338 -0.3917
  184MOL0     C25311   8.375   3.245   6.322 -0.2054 -0.6334 -1.1850
  184MOL0     C25312   8.341   3.375   6.275 -0.4185  0.4193  0.0019
  184MOL0     O25313   8.208   3.411   6.242  0.6150  0.0192  0.1711
  184MOL0     C25314   8.096   3.319   6.267  0.4813  0.3470  0.4234
  184MOL0     C25315   8.069   3.235   6.145 -0.3556 -0.4267 -0.1291
  184MOL0     C25316   7.946   3.150   6.167  1.4013  0.5000  0.9700
  184MOL0     C25317   7.916   3.062   6.053 -0.2094  0.4743  0.4296
  184MOL0     C25318   7.804   2.974   6.067  0.3891  0.1190 -0.4798
  184MOL0     C25319   7.697   2.914   6.060  0.7678 -1.4349  1.2615
  184MOL0     C25320   8.439   3.469   6.250 -0.4494  0.0740 -0.1546
  184MOL0     C25321   8.576   3.436   6.261  0.7173  0.8037  0.0095
  184MOL0     C25322   8.678   3.543   6.208  0.6989  1.0460  1.0858
  184MOL0     H25323   8.992   3.205   6.554 -0.3676  0.4017  0.2009
  184MOL0     H25324   9.216   3.138   6.534  0.6986 -0.4333  0.0505
  184MOL0     H25325   9.370   3.010   6.167  2.1134  0.8467  0.2954
  184MOL0     H25326   9.345   2.834   6.228 -0.7089 -0.2322  2.8693
  184MOL0     H25327   9.534   3.023   6.351  0.8564 -0.7235  0.7396
  184MOL0     H25328   9.515   2.841   6.372  1.3423 -1.7010 -1.1732
  184MOL0     H25329   9.688   2.816   6.238  0.5649  0.4872 -0.0589
  184MOL0     H25330   9.564   2.838   6.110  0.8049  0.3498 -0.9237
  184MOL0     H25331   9.638   3.044   6.044  0.1340 -1.3982  0.4144
  184MOL0     H25332   9.704   3.095   6.196  4.2638 -0.7922  0.5126
  184MOL0     H25333   9.885   3.070   6.067  1.6613 -0.2685  1.0396
  184MOL0     H25334   9.833   2.893   6.046 -1.3999 -0.9498  2.0883
  184MOL0     H25335   9.871   2.884   6.315  2.2275  1.4058  2.1870
  184MOL0     H25336  10.011   2.898   6.202  0.0710 -0.7303  1.4697
  184MOL0     H25337   9.960   3.072   6.429  0.5913 -1.8019  1.0882
  184MOL0     H25338   9.883   3.147   6.290 -1.5126 -1.0885  2.1047
  184MOL0     H25339  10.111   3.139   6.174 -0.8786  0.8461 -0.0283
  184MOL0     H25340  10.103   3.229   6.319  2.1236  0.3573  1.2376
  184MOL0     H25341  10.290   2.905   6.200  1.5702 -0.0683 -0.9708
  184MOL0     H25342  10.449   2.737   6.294  3.1294 -1.2625  1.0179
  184MOL0     H25343  10.428   2.704   6.465  2.5935 -2.4927 -0.1018
  184MOL0     H25344  10.613   2.840   6.539  1.9836  2.3898  0.7690
  184MOL0     H25345  10.666   2.736   6.410 -1.6072 -1.9494  1.5377
  184MOL0     H25346  10.629   2.945   6.250  1.8801  0.5443 -0.2402
  184MOL0     H25347  10.590   3.034   6.393 -0.9942 -1.0755  2.1568
  184MOL0     H25348  10.806   2.970   6.486 -1.4106 -1.6716 -0.6416
  184MOL0     H25349  10.853   2.867   6.351  1.8540  0.4562  1.1843
  184MOL0     H25350  10.965   3.229   6.151  0.2087 -0.3401 -0.6479
  184MOL0     H25351  11.285   3.264   6.029  0.6693  0.7237 -0.4902
  184MOL0     H25352  11.279   3.398   6.155 -2.1383  1.6403 -0.0923
  184MOL0     H25353  11.139   3.353   6.049 -0.5738  2.5539  0.3984
  184MOL0     H25354  11.546   3.382   6.047  0.7364  1.2992 -0.6679
  184MOL0     H25355  11.786   3.440   5.987 -1.7201 -0.6666 -0.7941
  184MOL0     H25356  12.087   3.109   6.041 -1.6921  0.0239  1.7383
  184MOL0     H25357  12.070   3.189   5.892 -1.6616 -2.6995  1.8132
  184MOL0     H25358  12.259   3.320   5.912  2.2806 -2.5304 -2.0829
  184MOL0     H25359  12.250   3.322   6.090 -2.1284  1.7021  0.1507
  184MOL0     H25360  12.326   3.067   5.928 -1.3465  0.7554 -0.4344
  184MOL0     H25361  12.345   3.095   6.090 -1.9228  0.8600  0.7775
  184MOL0     H25362  12.492   3.299   6.017 -1.1674  1.4577 -2.3115
  184MOL0     H25363  12.487   3.241   5.854 -1.4282  3.7409  1.4435
  184MOL0     H25364  12.616   3.089   6.091 -0.8196  0.5616  0.3548
  184MOL0     H25365  12.601   3.027   5.929  1.1553 -0.0662 -0.1770
  184MOL0     H25366  12.719   3.302   5.974  3.8901  1.6278 -1.2488
  184MOL0     H25367  12.742   3.212   5.837  0.2477  0.3482  0.2892
  184MOL0     H25368  12.908   3.075   5.927 -1.6190  0.4915  0.1979
  184MOL0     H25369  12.840   3.086   6.084  1.4450 -1.2194  0.3880
  184MOL0     H25370  12.943   3.318   6.107  4.7864  1.7853  1.0991
  184MOL0     H25371  12.980   3.325   5.934 -0.2794 -0.6120 -0.1682
  184MOL0     H25372  11.911   3.079   6.192  1.6363  0.1887 -2.2126
  184MOL0     H25373  11.660   3.023   6.229  2.2807 -1.7833  0.0696
  184MOL0     H25374  11.279   2.991   6.448  1.8023  1.8930  0.1302
  184MOL0     H25375  11.053   2.948   6.466  1.8298 -1.2247  0.0790
  184MOL0     H25376   9.125   2.908   6.178  0.5574 -1.5034  0.5309
  184MOL0     H25377   8.878   2.994   6.196  0.2157  0.5008 -0.3028
  184MOL0     H25378   8.529   3.123   6.388  2.3486  0.0243 -2.2359
  184MOL0     H25379   8.302   3.176   6.363  0.1094 -0.8975 -1.0595
  184MOL0     H25380   8.104   3.250   6.352 -0.9502  1.2693  1.3435
  184MOL0     H25381   8.002   3.371   6.287 -1.6026 -3.4602  1.6637
  184MOL0     H25382   8.157   3.174   6.125  0.8276  0.7551  1.2152
  184MOL0     H25383   8.059   3.292   6.052 -1.0394  2.4039  1.5733
  184MOL0     H25384   7.956   3.099   6.263  2.7338  3.2240  2.3738
  184MOL0     H25385   7.858   3.213   6.186  0.3445 -0.8535  0.7946
  184MOL0     H25386   8.006   3.003   6.033  0.0612  0.6290  1.1584
  184MOL0     H25387   7.901   3.128   5.967  0.8131 -2.0037 -1.7890
  184MOL0     H25388   7.603   2.865   6.053  0.0375  0.1442 -1.5294
  184MOL0     H25389   8.408   3.560   6.198  1.1838  0.6449 -0.1929
  184MOL0     H25390   8.628   3.621   6.149  1.7498  1.5480  0.8318
  184MOL0     H25391   8.742   3.588   6.284  0.6006  0.6793  1.3879
  184MOL0     H25392   8.754   3.502   6.142  0.9930  1.0764  1.4030
  185MOL0     O25393   4.660   7.648   7.248 -0.1548 -0.1775 -0.3986
  185MOL0     C25394   4.603   7.647   7.134 -0.2766 -0.1301 -0.8171
  185MOL0     O25395   4.474   7.695   7.113 -0.4598  0.4294 -0.4823
  185MOL0     C25396   4.410   7.736   7.221  0.4269  0.3157 -0.2592
  185MOL0     C25397   4.434   7.862   7.271 -0.3665 -0.1688  0.3881
  185MOL0     C25398   4.366   7.894   7.394 -0.6933 -0.0173  1.2971
  185MOL0     C25399   4.292   7.799   7.463 -0.1313 -0.7795 -0.5113
  185MOL0     O25400   4.256   7.844   7.589  0.4942  0.1272  0.3901
  185MOL0     C25401   4.173   7.758   7.675 -0.3763 -0.3631  0.0405
  185MOL0     C25402   4.169   7.809   7.815 -0.8853 -0.8294  0.7790
  185MOL0     C25403   4.080   7.935   7.823 -0.9545 -0.3870  0.2345
  185MOL0     C25404   4.060   7.965   7.972 -0.8295 -0.2649 -0.2746
  185MOL0     C25405   3.973   8.081   7.995 -0.3110 -0.6030 -0.1562
  185MOL0     C25406   3.920   8.081   8.136  0.3949 -0.0586  0.2710
  185MOL0     C25407   3.857   8.216   8.182 -0.4877  0.9184  0.2743
  185MOL0     C25408   3.755   8.182   8.293  0.8077  0.4297  0.2653
  185MOL0     N25409   3.708   8.316   8.336 -0.0834 -0.3514  0.2729
  185MOL0     C25410   3.761   8.386   8.443 -0.4520  0.0762  1.0367
  185MOL0     C25411   3.688   8.500   8.455 -0.1574  0.2298  0.1060
  185MOL0     C25412   3.717   8.602   8.564 -0.2035  0.0231 -0.1792
  185MOL0     C25413   3.619   8.720   8.583  0.5540 -0.2378  0.2747
  185MOL0     C25414   3.686   8.843   8.659  0.1921  0.9575 -0.3684
  185MOL0     C25415   3.737   8.816   8.799 -0.2303 -0.2093  0.4708
  185MOL0     O25416   3.864   8.742   8.800  0.3470  0.5292  0.4714
  185MOL0     C25417   3.976   8.811   8.786  0.9210 -0.4359 -0.6225
  185MOL0     C25418   4.002   8.945   8.798 -0.2419  0.4617 -0.3149
  185MOL0     C25419   4.124   9.008   8.793 -0.1585 -0.2375  0.1753
  185MOL0     C25420   4.117   9.165   8.810  0.5346  0.8211 -0.9499
  185MOL0     C25421   4.242   8.927   8.813 -0.5761 -0.6903  0.1597
  185MOL0     C25422   4.376   8.979   8.838 -0.9202  0.1965 -0.4998
  185MOL0     O25423   4.472   8.884   8.876 -0.1451 -0.6137  0.1715
  185MOL0     C25424   4.583   8.911   8.952 -0.3951 -0.1219  0.4494
  185MOL0     C25425   4.618   9.031   9.019 -0.0588  0.5319  0.6457
  185MOL0     C25426   4.736   9.046   9.088  0.2103  0.5349 -0.0272
  185MOL0     C25427   4.833   8.942   9.087 -0.8693 -0.1424 -0.5860
  185MOL0     O25428   4.957   8.945   9.144 -0.3478 -0.4820 -0.0064
  185MOL0     C25429   5.013   9.071   9.192  0.0941 -0.1483 -0.1076
  185MOL0     C25430   5.152   9.045   9.245 -1.3938  0.3925 -1.3117
  185MOL0     C25431   5.227   9.160   9.312  0.2319 -0.1752 -0.2616
  185MOL0     C25432   5.326   9.116   9.426  0.6531  1.2092  0.3340
  185MOL0     C25433   5.421   9.226   9.457  0.6139 -0.6563  0.6228
  185MOL0     C25434   5.370   9.348   9.536  0.7584 -0.1605 -0.0007
  185MOL0     C25435   5.487   9.438   9.562  0.1290  0.9375  0.0413
  185MOL0     C25436   5.446   9.569   9.639 -0.3950  0.1764  0.6441
  185MOL0    Cl25437   5.585   9.682   9.658 -0.2850  0.3702  0.4295
  185MOL0     C25438   4.799   8.822   9.037  1.1330 -0.3923  0.5541
  185MOL0     C25439   4.677   8.806   8.977  0.8215  0.4631  0.7558
  185MOL0     O25440   4.395   9.098   8.834 -0.6062  0.3546 -0.5825
  185MOL0     C25441   4.223   8.787   8.808 -0.5661  1.0302 -0.2922
  185MOL0     C25442   4.089   8.729   8.795 -0.2015 -0.9440  0.5704
  185MOL0     N25443   3.603   8.503   8.354 -0.2016  0.4705 -0.3607
  185MOL0     N25444   3.603   8.391   8.286 -0.7283  0.5829 -0.0397
  185MOL0     C25445   4.262   7.678   7.406  0.7320 -0.7968  0.0775
  185MOL0     C25446   4.320   7.649   7.285 -0.3377 -0.3683  0.5516
  185MOL0     C25447   4.668   7.602   7.016 -0.9830 -0.6457 -0.1425
  185MOL0     C25448   4.587   7.572   6.906  0.4305  0.1722  1.3087
  185MOL0     C25449   4.649   7.536   6.787  0.3519  0.3291 -0.5819
  185MOL0     C25450   4.789   7.509   6.775  0.9406 -0.2550  0.2916
  185MOL0     O25451   4.846   7.483   6.656 -1.1002 -0.3497 -0.0855
  185MOL0     C25452   4.948   7.574   6.618  0.0832  0.5321  0.1540
  185MOL0     C25453   4.973   7.581   6.468 -0.7322  0.9123  0.3659
  185MOL0     C25454   5.042   7.437   6.425 -0.4306 -0.0364 -0.1218
  185MOL0     C25455   5.195   7.449   6.424  0.9312 -0.1954  0.1513
  185MOL0     C25456   5.243   7.526   6.315 -0.2794 -0.1873 -0.7674
  185MOL0     C25457   5.262   7.623   6.244 -0.1386 -0.7371  0.1187
  185MOL0     C25458   4.860   7.522   6.886 -0.5544  0.6184 -0.5134
  185MOL0     C25459   4.806   7.577   7.001 -0.1725  0.4725 -1.0927
  185MOL0     C25460   4.899   7.612   7.110 -0.4677 -0.5399 -0.7887
  185MOL0     H25461   4.508   7.927   7.226  1.7522 -3.1463 -0.8051
  185MOL0     H25462   4.378   7.995   7.431 -1.0076 -0.0971  1.6167
  185MOL0     H25463   4.201   7.653   7.679  1.4753  0.0949  0.1963
  185MOL0     H25464   4.078   7.763   7.621  0.8386  2.8437 -2.1086
  185MOL0     H25465   4.120   7.739   7.884 -2.0287 -0.7916  0.0375
  185MOL0     H25466   4.272   7.830   7.846 -1.1091  2.1745 -0.1833
  185MOL0     H25467   4.134   8.022   7.786  0.8680 -1.9781 -1.0753
  185MOL0     H25468   3.981   7.928   7.778 -2.0858  0.7465  2.3847
  185MOL0     H25469   4.016   7.875   8.017 -0.3173 -0.2596  0.2426
  185MOL0     H25470   4.158   7.971   8.019 -1.7105 -3.1188  2.3304
  185MOL0     H25471   3.885   8.073   7.930 -1.6628 -4.8898  1.8481
  185MOL0     H25472   4.026   8.173   7.971 -2.8158  0.8865 -0.3627
  185MOL0     H25473   3.841   8.005   8.142 -0.0185 -0.0573 -3.3296
  185MOL0     H25474   4.001   8.042   8.198  0.3655 -1.5415 -0.5759
  185MOL0     H25475   3.804   8.273   8.106 -0.3825 -0.4738 -0.8894
  185MOL0     H25476   3.932   8.281   8.228 -0.1239  0.5740  0.1798
  185MOL0     H25477   3.668   8.124   8.262  1.2968 -0.3311  0.2937
  185MOL0     H25478   3.794   8.117   8.372  0.7769 -0.2533 -0.2751
  185MOL0     H25479   3.851   8.367   8.501 -1.5447 -2.1251  2.1359
  185MOL0     H25480   3.808   8.654   8.533  0.1104  0.7730  1.8186
  185MOL0     H25481   3.734   8.540   8.653  2.6685  2.0833  0.8594
  185MOL0     H25482   3.592   8.750   8.481  1.1156 -0.4906  0.0435
  185MOL0     H25483   3.522   8.700   8.627 -0.0310 -0.5141 -1.0960
  185MOL0     H25484   3.766   8.881   8.594  0.3308 -0.6231 -1.1799
  185MOL0     H25485   3.610   8.920   8.669 -0.3820  0.4588 -0.7940
  185MOL0     H25486   3.751   8.906   8.860  3.0567 -1.5564  1.9393
  185MOL0     H25487   3.659   8.754   8.845  1.6242 -1.5703  1.9452
  185MOL0     H25488   3.914   9.007   8.808 -0.6823 -0.0752 -0.7453
  185MOL0     H25489   4.132   9.191   8.915  2.1580  0.9242 -1.1673
  185MOL0     H25490   4.019   9.208   8.788 -0.5174 -0.5839  0.7640
  185MOL0     H25491   4.188   9.216   8.743  3.0798 -1.7345 -0.4141
  185MOL0     H25492   4.562   9.124   9.005 -0.3042  0.1568 -1.0925
  185MOL0     H25493   4.766   9.140   9.133 -1.2334 -0.1452  2.6158
  185MOL0     H25494   5.026   9.137   9.106  1.2248 -3.0506 -2.2936
  185MOL0     H25495   4.950   9.118   9.268  0.4697  1.8337 -0.9543
  185MOL0     H25496   5.145   8.964   9.319 -0.1673  0.6415 -0.9043
  185MOL0     H25497   5.214   9.005   9.164  1.5926  0.5304  0.7737
  185MOL0     H25498   5.153   9.228   9.353  1.6279  1.8751 -0.9625
  185MOL0     H25499   5.274   9.221   9.235  3.4464 -1.6363  0.3664
  185MOL0     H25500   5.391   9.033   9.397  1.0861  0.2816  3.5580
  185MOL0     H25501   5.274   9.101   9.521 -0.1034 -0.3064 -0.2881
  185MOL0     H25502   5.509   9.182   9.505  1.2613 -0.7973 -0.6319
  185MOL0     H25503   5.452   9.262   9.358  0.4982 -0.5675  0.6195
  185MOL0     H25504   5.334   9.323   9.636 -0.5365  2.6298  0.3173
  185MOL0     H25505   5.293   9.401   9.479  0.0322 -0.7268  0.4431
  185MOL0     H25506   5.543   9.463   9.471  1.0417 -3.4302 -0.8408
  185MOL0     H25507   5.558   9.388   9.628 -0.2154  2.3942  1.5755
  185MOL0     H25508   5.402   9.537   9.734  1.4133  2.6177  2.4346
  185MOL0     H25509   5.367   9.615   9.580 -0.1948  1.8029  1.5999
  185MOL0     H25510   4.869   8.739   9.024  2.2135  0.9360 -3.3945
  185MOL0     H25511   4.654   8.708   8.934 -0.0882 -0.5631  3.3813
  185MOL0     H25512   4.307   8.718   8.809 -2.2542 -1.1530  0.7365
  185MOL0     H25513   4.066   8.625   8.773 -2.0540 -0.2718 -0.9947
  185MOL0     H25514   4.193   7.610   7.454  1.1465  0.3894  2.4945
  185MOL0     H25515   4.317   7.545   7.255 -1.8752 -0.2256  0.1265
  185MOL0     H25516   4.479   7.570   6.896  0.4121 -4.2456  0.4178
  185MOL0     H25517   4.596   7.533   6.692  0.1051  1.4456 -0.4918
  185MOL0     H25518   4.933   7.677   6.654 -1.3531  0.0506  1.0216
  185MOL0     H25519   5.041   7.539   6.664 -0.2575 -2.3070 -1.1193
  185MOL0     H25520   5.028   7.670   6.433  0.5563 -0.2435 -0.6395
  185MOL0     H25521   4.868   7.584   6.437 -0.1847  2.2648 -1.5715
  185MOL0     H25522   5.017   7.357   6.496 -0.9328 -2.1223 -2.5074
  185MOL0     H25523   4.994   7.406   6.332  0.8668  1.7869 -1.4619
  185MOL0     H25524   5.232   7.348   6.403  1.9687  0.1647  0.1806
  185MOL0     H25525   5.232   7.486   6.520 -1.1124  2.2129  0.1183
  185MOL0     H25526   5.266   7.713   6.186  0.2097 -0.1513  1.0449
  185MOL0     H25527   4.967   7.501   6.879 -0.6007  0.5719 -1.1305
  185MOL0     H25528   4.995   7.647   7.070  0.1606 -1.5990 -0.2455
  185MOL0     H25529   4.869   7.702   7.164 -0.1072 -0.0815 -1.3514
  185MOL0     H25530   4.911   7.538   7.190 -0.2863 -0.8503 -1.0979
  186MOL0     O25531   1.849   7.559   6.127 -0.2607  0.8702  0.1733
  186MOL0     C25532   1.804   7.660   6.075  0.6107  0.3110 -0.3928
  186MOL0     O25533   1.850   7.782   6.097 -0.2741  0.5632 -0.1890
  186MOL0     C25534   1.956   7.809   6.172 -0.9937 -0.7499 -0.4483
  186MOL0     C25535   2.050   7.877   6.099 -0.2654 -0.2875 -0.2977
  186MOL0     C25536   2.165   7.916   6.155  0.8450 -0.1902 -0.5475
  186MOL0     C25537   2.194   7.892   6.288 -0.2229 -0.2956 -0.4130
  186MOL0     O25538   2.306   7.941   6.350  0.0653 -0.3423  0.7689
  186MOL0     C25539   2.276   8.034   6.461 -0.4624  1.3403 -0.6642
  186MOL0     C25540   2.405   8.099   6.510 -0.0835  1.0141  0.6836
  186MOL0     C25541   2.491   8.007   6.600  0.6699 -0.6960  0.1779
  186MOL0     C25542   2.540   7.878   6.533 -0.4784 -0.1343  0.2546
  186MOL0     C25543   2.667   7.822   6.604 -0.3116 -0.3996  0.2192
  186MOL0     C25544   2.644   7.780   6.747 -1.3787 -0.4099 -0.1732
  186MOL0     C25545   2.778   7.733   6.807  1.2910 -0.4328 -0.0710
  186MOL0     C25546   2.768   7.704   6.963  0.5579  0.1394  0.8312
  186MOL0     N25547   2.898   7.670   7.014 -0.7764  0.0423  0.8360
  186MOL0     C25548   3.007   7.752   7.023 -0.0695  0.2756  0.0681
  186MOL0     C25549   3.099   7.662   7.072 -0.2901 -0.9207 -0.2786
  186MOL0     C25550   3.231   7.702   7.120  0.0951  0.8039 -0.2241
  186MOL0     C25551   3.339   7.650   7.024  0.1722 -0.3801 -0.1965
  186MOL0     C25552   3.477   7.684   7.086  0.2081 -1.9451  0.7570
  186MOL0     C25553   3.588   7.682   6.974 -0.1983 -0.5975  0.1979
  186MOL0     O25554   3.557   7.756   6.854  0.1912 -0.6395  0.8787
  186MOL0     C25555   3.645   7.745   6.746 -0.4714  0.9326 -0.2395
  186MOL0     C25556   3.763   7.667   6.741  0.3205 -0.6516 -0.4346
  186MOL0     C25557   3.849   7.668   6.627  0.2625  0.4236  0.5884
  186MOL0     C25558   3.976   7.586   6.646  0.2457 -0.1873  0.3432
  186MOL0     C25559   3.813   7.745   6.505  0.2270  0.5233  0.9769
  186MOL0     C25560   3.901   7.759   6.390 -0.5008  0.5898  0.0712
  186MOL0     O25561   3.879   7.870   6.310 -0.0622 -0.0002  0.6293
  186MOL0     C25562   3.988   7.914   6.228  0.2173  0.4614 -0.4527
  186MOL0     C25563   3.955   7.947   6.101 -0.1262  0.1458 -0.3731
  186MOL0     C25564   4.053   8.000   6.013 -0.5695  0.1187  0.0737
  186MOL0     C25565   4.180   8.010   6.056 -0.5670  0.4936  0.8123
  186MOL0     O25566   4.278   8.078   5.995 -0.4491 -0.6235 -0.3401
  186MOL0     C25567   4.265   8.119   5.857  0.6525 -0.6712  0.0417
  186MOL0     C25568   4.389   8.203   5.821 -0.2322  0.1104 -0.0029
  186MOL0     C25569   4.361   8.321   5.725 -0.1577 -0.0636 -0.0540
  186MOL0     C25570   4.474   8.351   5.635 -1.1939 -0.8889  0.1463
  186MOL0     C25571   4.512   8.237   5.543  0.3489  0.2189  0.4288
  186MOL0     C25572   4.660   8.204   5.531 -0.2836  0.4193 -0.2823
  186MOL0     C25573   4.716   8.152   5.653 -0.7793 -0.2458 -1.3994
  186MOL0     C25574   4.861   8.124   5.634 -0.5138  0.3233 -0.4202
  186MOL0    Cl25575   4.953   8.080   5.780 -0.0035 -0.7954 -0.0623
  186MOL0     C25576   4.219   7.968   6.186 -0.2889  0.0071 -0.5897
  186MOL0     C25577   4.119   7.919   6.273  0.1796  0.5641 -0.4405
  186MOL0     O25578   3.993   7.682   6.374  0.3934  0.1432  0.1061
  186MOL0     C25579   3.688   7.813   6.512  0.2151  0.1833 -0.3885
  186MOL0     C25580   3.608   7.816   6.633 -0.0355  0.3029 -0.2581
  186MOL0     N25581   3.053   7.543   7.098  0.1903  0.2641  0.0058
  186MOL0     N25582   2.928   7.542   7.056 -0.5160 -0.7638  1.3643
  186MOL0     C25583   2.102   7.821   6.369 -0.0790 -0.8701 -0.0902
  186MOL0     C25584   1.988   7.777   6.305  0.7895 -0.6127 -0.4898
  186MOL0     C25585   1.699   7.662   5.964 -0.4443  0.5473  0.2276
  186MOL0     C25586   1.679   7.775   5.895  0.6717  0.1869  0.3076
  186MOL0     C25587   1.602   7.777   5.780 -0.4930 -1.1375 -1.5444
  186MOL0     C25588   1.546   7.662   5.731  0.9470  0.3914  0.0761
  186MOL0     O25589   1.465   7.655   5.619 -0.2942 -0.7826  0.0507
  186MOL0     C25590   1.376   7.768   5.591 -0.9293  0.3274 -0.8589
  186MOL0     C25591   1.293   7.727   5.477  0.3349  0.4471  1.3280
  186MOL0     C25592   1.371   7.737   5.339  0.1747 -0.3626  0.2571
  186MOL0     C25593   1.279   7.667   5.233  0.4167 -0.0667 -0.2331
  186MOL0     C25594   1.334   7.694   5.104  0.1453  0.2622  0.0736
  186MOL0     C25595   1.367   7.743   4.997 -0.1465  0.6963 -0.8562
  186MOL0     C25596   1.558   7.548   5.808 -0.0626  0.1655  0.8713
  186MOL0     C25597   1.630   7.546   5.921 -0.5938  0.3329 -0.0018
  186MOL0     C25598   1.660   7.412   5.984 -0.4110  0.4441  0.0347
  186MOL0     H25599   2.051   7.906   5.994  2.6236  4.4462  0.7539
  186MOL0     H25600   2.221   7.979   6.087 -2.0726 -0.1630 -3.1130
  186MOL0     H25601   2.234   7.986   6.550  3.8105 -1.2625  0.2179
  186MOL0     H25602   2.214   8.114   6.418  0.8827  0.8939 -3.7004
  186MOL0     H25603   2.467   8.119   6.423  0.1256 -0.6354  0.4092
  186MOL0     H25604   2.379   8.188   6.568  0.2722  1.9680 -0.5861
  186MOL0     H25605   2.580   8.067   6.620 -1.7571  3.3365  0.1332
  186MOL0     H25606   2.447   7.982   6.697  0.7836 -3.3168 -0.3689
  186MOL0     H25607   2.462   7.801   6.531 -1.4240  0.7914 -1.8922
  186MOL0     H25608   2.563   7.904   6.429 -1.3263 -2.6331 -0.6316
  186MOL0     H25609   2.741   7.902   6.592  2.6682 -3.0095 -0.3246
  186MOL0     H25610   2.704   7.742   6.539  2.9411  1.2525 -0.1780
  186MOL0     H25611   2.617   7.870   6.802 -0.3356  0.8043 -1.5762
  186MOL0     H25612   2.566   7.705   6.763  1.6178 -3.7427  0.2757
  186MOL0     H25613   2.847   7.817   6.792 -1.7757  2.2080 -0.4124
  186MOL0     H25614   2.803   7.636   6.762 -4.4231 -2.7190  0.8163
  186MOL0     H25615   2.732   7.794   7.013  0.4769  0.7801 -0.3486
  186MOL0     H25616   2.701   7.619   6.977  0.3848  0.3685  1.4269
  186MOL0     H25617   3.005   7.858   6.997 -1.3827  0.2740  0.1076
  186MOL0     H25618   3.240   7.651   7.217 -1.4461 -1.1440 -1.0309
  186MOL0     H25619   3.250   7.809   7.131  0.0804  0.6771  1.2761
  186MOL0     H25620   3.337   7.542   7.010 -3.8117 -0.2478 -1.9374
  186MOL0     H25621   3.330   7.693   6.924 -0.2597 -1.4264 -0.6202
  186MOL0     H25622   3.484   7.791   7.109 -0.0584 -1.2268 -2.0829
  186MOL0     H25623   3.506   7.626   7.174  2.8232 -1.0700  0.5443
  186MOL0     H25624   3.685   7.711   7.016  0.6790 -0.6009 -1.7526
  186MOL0     H25625   3.601   7.575   6.956  1.4606 -0.1358 -1.6039
  186MOL0     H25626   3.800   7.615   6.828  1.3914 -0.0244 -0.4998
  186MOL0     H25627   3.982   7.502   6.576  1.7521 -0.8893  1.2658
  186MOL0     H25628   3.975   7.548   6.748 -2.0345  1.9562  1.2148
  186MOL0     H25629   4.068   7.644   6.634 -0.7963  1.9060  1.7039
  186MOL0     H25630   3.849   7.947   6.079  0.3366 -0.7324 -3.0048
  186MOL0     H25631   4.017   8.043   5.920 -1.4785  0.4310  0.5485
  186MOL0     H25632   4.246   8.036   5.788  1.2735 -1.3095  0.6278
  186MOL0     H25633   4.177   8.183   5.848  2.0727  1.3656 -0.1871
  186MOL0     H25634   4.433   8.234   5.917  1.5520 -2.5941  0.1408
  186MOL0     H25635   4.455   8.128   5.778 -2.0781 -1.6223  0.0741
  186MOL0     H25636   4.318   8.407   5.776  0.6319  0.0027  0.5279
  186MOL0     H25637   4.281   8.293   5.656 -2.5353 -0.6938  2.7576
  186MOL0     H25638   4.562   8.375   5.697  0.8460 -0.0159 -2.8696
  186MOL0     H25639   4.464   8.447   5.585  2.5992 -2.1560 -3.6776
  186MOL0     H25640   4.470   8.144   5.582 -0.3344 -0.8768 -2.6568
  186MOL0     H25641   4.453   8.252   5.453 -2.2430 -2.2576  1.5367
  186MOL0     H25642   4.718   8.287   5.489 -1.5918  1.2917 -0.4236
  186MOL0     H25643   4.664   8.132   5.449 -0.3822  1.2244 -1.0084
  186MOL0     H25644   4.669   8.061   5.692  1.4619  0.3879  3.6578
  186MOL0     H25645   4.709   8.230   5.730 -1.6854 -2.2690  0.6966
  186MOL0     H25646   4.920   8.209   5.597  1.7882  0.2537  2.6578
  186MOL0     H25647   4.863   8.037   5.569 -1.7373 -2.8389  3.3617
  186MOL0     H25648   4.315   7.988   6.233 -0.4803  2.1421 -1.0311
  186MOL0     H25649   4.148   7.884   6.372  1.3777  1.4918 -0.4375
  186MOL0     H25650   3.649   7.861   6.423 -0.2459 -0.8586 -0.7700
  186MOL0     H25651   3.519   7.878   6.628 -2.0211 -2.1700  1.8199
  186MOL0     H25652   2.104   7.804   6.477  1.9336  1.1599  0.2630
  186MOL0     H25653   1.918   7.721   6.366 -1.5718  1.5301 -1.0805
  186MOL0     H25654   1.725   7.869   5.924  0.3575  2.0699 -4.5028
  186MOL0     H25655   1.601   7.870   5.724  0.7918 -0.1969 -0.0975
  186MOL0     H25656   1.318   7.765   5.684  1.0600 -0.3235  0.4261
  186MOL0     H25657   1.431   7.860   5.571 -2.5209  1.1038 -1.8424
  186MOL0     H25658   1.199   7.783   5.467 -0.0128 -0.0670  1.6868
  186MOL0     H25659   1.268   7.621   5.487 -0.4941  0.6819  1.8482
  186MOL0     H25660   1.390   7.842   5.317 -3.2157  0.4830  0.8447
  186MOL0     H25661   1.464   7.689   5.372  0.7502  1.6345  1.7634
  186MOL0     H25662   1.177   7.706   5.235  1.0240  1.6065  0.4417
  186MOL0     H25663   1.294   7.562   5.260 -0.2829 -0.6097 -1.8902
  186MOL0     H25664   1.398   7.786   4.904  0.8517 -0.4805 -1.0863
  186MOL0     H25665   1.506   7.463   5.764 -1.2002  0.2532  2.0161
  186MOL0     H25666   1.755   7.373   5.947 -0.9077  0.0597 -0.8841
  186MOL0     H25667   1.647   7.412   6.092 -2.5285  2.0576 -0.1469
  186MOL0     H25668   1.586   7.338   5.952 -3.7440  2.4218  2.4161
  187MOL0     O25669   4.008   5.606   9.168  0.3591 -0.8930 -0.0563
  187MOL0     C25670   4.062   5.504   9.213 -0.0090 -0.1071  0.4153
  187MOL0     O25671   4.033   5.382   9.182 -0.2946 -1.0179 -0.0156
  187MOL0     C25672   3.923   5.357   9.106  0.4451 -0.2606  0.1869
  187MOL0     C25673   3.826   5.276   9.163 -0.0207 -0.1031  0.0729
  187MOL0     C25674   3.717   5.238   9.081  0.5041  0.3263 -0.3368
  187MOL0     C25675   3.706   5.296   8.943  0.7834  1.0278  0.2662
  187MOL0     O25676   3.603   5.241   8.864 -0.0468  0.0883 -0.0474
  187MOL0     C25677   3.548   5.305   8.746 -0.0211 -0.2249 -0.8476
  187MOL0     C25678   3.633   5.304   8.621  0.2384 -0.6452  0.7014
  187MOL0     C25679   3.571   5.254   8.490 -0.2502  0.2060  0.0335
  187MOL0     C25680   3.497   5.373   8.413  0.3562 -0.3689 -0.6765
  187MOL0     C25681   3.407   5.318   8.304 -0.0656 -0.6326 -0.2844
  187MOL0     C25682   3.305   5.426   8.254  0.9004 -0.4365 -0.3475
  187MOL0     C25683   3.194   5.357   8.181 -0.2264  1.0192 -0.1829
  187MOL0     C25684   3.101   5.274   8.282 -0.4274 -0.6558 -0.1494
  187MOL0     N25685   2.979   5.236   8.211 -0.8844 -0.3869  0.3219
  187MOL0     C25686   2.857   5.298   8.222 -0.9993 -0.1539 -0.7312
  187MOL0     C25687   2.786   5.230   8.136  0.0131  0.5942 -0.5622
  187MOL0     C25688   2.641   5.253   8.115 -0.0797  0.1049  0.7413
  187MOL0     C25689   2.552   5.290   8.239 -0.2404  0.7232 -0.1096
  187MOL0     C25690   2.586   5.204   8.368 -0.1101  0.0429  0.2399
  187MOL0     C25691   2.508   5.261   8.488  0.0357  0.2319 -0.6637
  187MOL0     O25692   2.369   5.221   8.466  0.1728 -0.7944  0.1555
  187MOL0     C25693   2.263   5.305   8.448 -0.0811  0.0361 -0.4482
  187MOL0     C25694   2.253   5.424   8.518  0.4039 -0.0690  0.4740
  187MOL0     C25695   2.144   5.511   8.494 -0.6754 -0.1720  0.4867
  187MOL0     C25696   2.134   5.641   8.560 -0.5905 -0.6587 -0.4827
  187MOL0     C25697   2.037   5.458   8.416  0.0481 -0.5327  0.0420
  187MOL0     C25698   1.906   5.533   8.382 -0.0386 -0.8130 -0.3172
  187MOL0     O25699   1.806   5.464   8.309 -0.7466 -0.3764  0.5564
  187MOL0     C25700   1.693   5.521   8.266 -0.2307  0.1591 -0.1539
  187MOL0     C25701   1.575   5.451   8.279  0.2719 -0.0346 -1.0205
  187MOL0     C25702   1.459   5.503   8.226  0.2762  0.0235  0.5436
  187MOL0     C25703   1.454   5.631   8.172  0.1559 -0.3706  1.3686
  187MOL0     O25704   1.346   5.681   8.103  1.1822  0.4514 -1.2260
  187MOL0     C25705   1.217   5.657   8.163 -0.4212 -0.0590  0.3144
  187MOL0     C25706   1.105   5.734   8.091  0.3829  0.9373  1.1057
  187MOL0     C25707   1.068   5.675   7.959 -0.1617 -0.0320  0.2098
  187MOL0     C25708   0.985   5.544   7.957 -0.0821 -1.0149  0.0055
  187MOL0     C25709   0.835   5.567   7.969  0.1303  0.5006 -0.0558
  187MOL0     C25710   0.749   5.445   7.962 -0.1331  0.5251  0.4866
  187MOL0     C25711   0.737   5.362   8.095 -1.1199  0.6407 -0.6200
  187MOL0     C25712   0.655   5.231   8.082 -0.6365  0.2095  0.5917
  187MOL0    Cl25713   0.581   5.195   8.230  0.2197 -0.4315 -0.0017
  187MOL0     C25714   1.574   5.697   8.156 -1.1986 -0.9591 -0.0742
  187MOL0     C25715   1.690   5.640   8.206  0.7173 -0.0785 -0.6140
  187MOL0     O25716   1.899   5.652   8.409  0.7068 -0.0396 -0.5816
  187MOL0     C25717   2.044   5.329   8.355 -0.1881 -0.1516  0.1459
  187MOL0     C25718   2.156   5.253   8.375  0.4523  0.4641 -0.4611
  187MOL0     N25719   2.860   5.126   8.080  0.3890  0.0935 -1.2091
  187MOL0     N25720   2.973   5.133   8.125  0.4971  0.5573  0.0974
  187MOL0     C25721   3.801   5.377   8.893 -0.5096  0.5849 -0.0232
  187MOL0     C25722   3.910   5.406   8.977  0.6733 -0.6445  0.0969
  187MOL0     C25723   4.174   5.511   9.307  0.1822 -0.2825 -0.4222
  187MOL0     C25724   4.282   5.598   9.277  0.2431 -0.2450 -0.3080
  187MOL0     C25725   4.391   5.601   9.371  0.0671  0.6714 -0.4792
  187MOL0     C25726   4.390   5.528   9.490 -0.7927 -0.7990 -0.7623
  187MOL0     O25727   4.488   5.523   9.590  0.5376 -0.3861 -0.6847
  187MOL0     C25728   4.564   5.638   9.611 -0.7830 -0.5991 -0.0822
  187MOL0     C25729   4.617   5.652   9.752 -0.4883  0.1638  0.7795
  187MOL0     C25730   4.715   5.543   9.787 -0.1100 -0.2651  0.0450
  187MOL0     C25731   4.641   5.430   9.862 -0.1619 -0.3767  0.6583
  187MOL0     C25732   4.735   5.316   9.889 -0.0402  0.1010  0.4040
  187MOL0     C25733   4.811   5.223   9.909 -0.5534 -0.1154  0.0052
  187MOL0     C25734   4.282   5.445   9.513 -0.4411 -0.5633 -0.3855
  187MOL0     C25735   4.175   5.435   9.430  0.2288 -0.4488  0.4759
  187MOL0     C25736   4.080   5.326   9.458  0.1046 -0.1068  0.0269
  187MOL0     H25737   3.840   5.255   9.268  0.1597  2.3353  0.5890
  187MOL0     H25738   3.635   5.174   9.112  2.1450 -2.1740 -0.8360
  187MOL0     H25739   3.535   5.411   8.768  0.6483 -0.1229 -0.9510
  187MOL0     H25740   3.450   5.258   8.730 -0.0219 -2.0708  3.3963
  187MOL0     H25741   3.665   5.406   8.602  1.0050 -1.0586 -0.3166
  187MOL0     H25742   3.726   5.252   8.647  0.6753 -1.3634 -1.9865
  187MOL0     H25743   3.646   5.203   8.428  0.0563  0.3208  0.3036
  187MOL0     H25744   3.500   5.175   8.516 -0.7135 -1.0391 -4.2064
  187MOL0     H25745   3.444   5.424   8.494  0.0511 -2.4249  0.4993
  187MOL0     H25746   3.571   5.445   8.377 -1.4442  1.5751 -0.6783
  187MOL0     H25747   3.355   5.227   8.337  0.1936 -0.1232  1.6230
  187MOL0     H25748   3.465   5.296   8.213 -2.8238  0.2842 -2.4088
  187MOL0     H25749   3.252   5.463   8.342 -3.2423 -3.4003 -1.3001
  187MOL0     H25750   3.344   5.502   8.186  0.3307 -0.5954 -0.8576
  187MOL0     H25751   3.235   5.298   8.099  0.0036  0.4464  0.3385
  187MOL0     H25752   3.132   5.427   8.124 -0.0159  1.4512  0.1105
  187MOL0     H25753   3.155   5.181   8.303  1.9140  0.2848 -1.6434
  187MOL0     H25754   3.087   5.332   8.373 -0.2900  0.9346 -1.1067
  187MOL0     H25755   2.828   5.385   8.280 -0.1539  0.8134 -1.7002
  187MOL0     H25756   2.605   5.160   8.069 -2.2403  1.3998 -0.3227
  187MOL0     H25757   2.623   5.333   8.043 -2.2100  0.3220  1.4513
  187MOL0     H25758   2.568   5.394   8.266 -2.0565  1.1179 -0.3961
  187MOL0     H25759   2.446   5.281   8.212 -0.2466  3.5418 -1.3878
  187MOL0     H25760   2.559   5.102   8.340  0.1328 -0.2534  1.0639
  187MOL0     H25761   2.692   5.206   8.396  0.0186  2.7266 -0.1183
  187MOL0     H25762   2.543   5.217   8.582 -2.4760 -0.0455  0.2279
  187MOL0     H25763   2.515   5.370   8.488  1.0287  0.2111 -2.6290
  187MOL0     H25764   2.332   5.446   8.589 -0.4590 -2.0101  2.1224
  187MOL0     H25765   2.040   5.665   8.611  0.2018 -1.5647  1.5078
  187MOL0     H25766   2.165   5.719   8.490  2.8455 -3.0377 -1.8629
  187MOL0     H25767   2.209   5.645   8.640 -1.9230  0.0072  0.7910
  187MOL0     H25768   1.588   5.356   8.329  0.1530 -0.2058 -1.3122
  187MOL0     H25769   1.374   5.436   8.226  1.0857 -1.6229 -5.1832
  187MOL0     H25770   1.206   5.548   8.163  1.8995 -0.3568  0.7004
  187MOL0     H25771   1.227   5.694   8.266  0.4409  0.7714 -0.0492
  187MOL0     H25772   1.026   5.721   8.165  2.3542  0.7386  3.2932
  187MOL0     H25773   1.121   5.840   8.068 -0.8848  0.2645 -4.2082
  187MOL0     H25774   1.154   5.662   7.894 -0.1422 -3.0747  0.6979
  187MOL0     H25775   1.010   5.754   7.909  1.0988  1.2250  0.6743
  187MOL0     H25776   1.002   5.494   8.053  2.8647  2.1289  1.3622
  187MOL0     H25777   1.031   5.480   7.880 -0.0850 -0.0169 -0.8573
  187MOL0     H25778   0.815   5.619   8.063  2.6428  1.0957  0.2273
  187MOL0     H25779   0.809   5.638   7.890  0.8737  1.3328  0.4355
  187MOL0     H25780   0.788   5.374   7.889  2.1780 -1.9117  3.7639
  187MOL0     H25781   0.648   5.482   7.941 -0.2019  0.5804  0.9058
  187MOL0     H25782   0.684   5.419   8.173  2.7704  2.5264  0.9246
  187MOL0     H25783   0.836   5.345   8.138 -1.8546  0.0832  0.9214
  187MOL0     H25784   0.719   5.147   8.050 -1.1782  0.2849 -0.7637
  187MOL0     H25785   0.578   5.244   8.005 -0.6166  0.7419  0.6549
  187MOL0     H25786   1.573   5.799   8.118 -0.7325 -1.3603 -1.2205
  187MOL0     H25787   1.779   5.701   8.201 -0.6370  2.0363 -0.1966
  187MOL0     H25788   1.967   5.293   8.287 -0.4792 -0.8952  0.8494
  187MOL0     H25789   2.168   5.155   8.329  1.8160 -1.2696  3.1498
  187MOL0     H25790   3.811   5.399   8.787  2.0919  1.2946  0.2853
  187MOL0     H25791   4.001   5.449   8.937  0.5986  0.8025  1.4147
  187MOL0     H25792   4.279   5.669   9.195 -0.1121  0.1450  0.0374
  187MOL0     H25793   4.478   5.664   9.359  1.0536 -0.3972  0.7297
  187MOL0     H25794   4.651   5.638   9.544 -0.1615  0.0373  0.6940
  187MOL0     H25795   4.509   5.728   9.580  0.8438  0.7155  0.6359
  187MOL0     H25796   4.530   5.644   9.819 -2.5547 -3.7485 -1.9840
  187MOL0     H25797   4.666   5.746   9.779  1.8539 -0.0336 -2.2028
  187MOL0     H25798   4.781   5.507   9.707  1.2048  4.9040 -1.5945
  187MOL0     H25799   4.779   5.586   9.866 -1.4456  3.5845 -0.7382
  187MOL0     H25800   4.570   5.378   9.798 -0.5893  0.9246  0.0268
  187MOL0     H25801   4.584   5.462   9.949  0.5428  2.5779  0.1686
  187MOL0     H25802   4.886   5.147   9.910  0.5990  0.9243 -1.5352
  187MOL0     H25803   4.261   5.389   9.604  0.0620  1.8194  1.2880
  187MOL0     H25804   4.080   5.298   9.564  3.3025  0.2966  0.2291
  187MOL0     H25805   3.977   5.356   9.439  0.0061  1.0959  2.0967
  187MOL0     H25806   4.103   5.235   9.402 -0.1484 -0.5361  0.6097
  188MOL0     O25807   3.473   7.005   1.309 -0.4587 -0.6295  0.3624
  188MOL0     C25808   3.419   6.910   1.363 -0.6056  0.2844  0.1668
  188MOL0     O25809   3.329   6.922   1.453  0.0629  0.4061 -0.5608
  188MOL0     C25810   3.287   7.044   1.496  0.0072  0.4201 -1.0546
  188MOL0     C25811   3.256   7.160   1.422  0.3189  0.1164  0.5325
  188MOL0     C25812   3.184   7.276   1.466 -0.2752 -0.3513 -0.6215
  188MOL0     C25813   3.159   7.277   1.607 -0.0938  0.5826  0.1790
  188MOL0     O25814   3.088   7.384   1.655  0.2331  0.7210  0.0240
  188MOL0     C25815   3.068   7.386   1.797 -0.1399  0.0818  0.5763
  188MOL0     C25816   3.028   7.523   1.846  0.0339  0.2101  0.6699
  188MOL0     C25817   2.910   7.579   1.766  0.0747  0.1408  0.1804
  188MOL0     C25818   2.817   7.659   1.855  0.3405  0.0409  0.3291
  188MOL0     C25819   2.677   7.701   1.783 -1.1382  0.3522 -0.4563
  188MOL0     C25820   2.603   7.809   1.857 -0.0687 -0.7568  0.2967
  188MOL0     C25821   2.677   7.947   1.862  0.4277  0.2241  0.0298
  188MOL0     C25822   2.633   8.038   1.979  0.5003 -0.7797 -0.0763
  188MOL0     N25823   2.724   8.019   2.090 -0.3095  0.3090 -0.3266
  188MOL0     C25824   2.768   7.901   2.146 -0.8385  0.5159  0.1123
  188MOL0     C25825   2.843   7.931   2.253  0.0210 -0.3363 -0.3518
  188MOL0     C25826   2.900   7.820   2.333  0.7399  0.0432 -0.3728
  188MOL0     C25827   3.031   7.757   2.266  0.9823 -0.8941 -0.3764
  188MOL0     C25828   3.156   7.839   2.304 -0.4372  1.1470 -0.2849
  188MOL0     C25829   3.283   7.759   2.289 -0.6295  0.7101  0.2835
  188MOL0     O25830   3.318   7.729   2.151  0.5416 -0.2825  0.0495
  188MOL0     C25831   3.452   7.705   2.128 -0.1044 -0.2502  0.2515
  188MOL0     C25832   3.555   7.797   2.162  0.0501 -0.1835  0.0031
  188MOL0     C25833   3.698   7.777   2.137 -0.8498  0.3554  0.0102
  188MOL0     C25834   3.802   7.888   2.154  0.5976 -0.2706  0.4422
  188MOL0     C25835   3.735   7.649   2.085  0.5062 -0.0656 -0.6642
  188MOL0     C25836   3.884   7.597   2.078 -0.0970  0.1675 -0.4431
  188MOL0     O25837   3.898   7.478   2.009  0.1689 -0.0430  0.0488
  188MOL0     C25838   4.020   7.427   1.976  0.5713  0.2307  0.8176
  188MOL0     C25839   4.113   7.502   1.900  0.1716 -1.0152  1.1893
  188MOL0     C25840   4.238   7.448   1.867 -0.5668  0.1810 -0.8947
  188MOL0     C25841   4.281   7.325   1.920  0.1838 -0.7854  0.5980
  188MOL0     O25842   4.406   7.279   1.898 -1.1298  0.4945  0.0224
  188MOL0     C25843   4.499   7.347   1.814  0.1430 -0.0484 -0.0096
  188MOL0     C25844   4.591   7.241   1.742 -1.1810 -0.1879 -0.0860
  188MOL0     C25845   4.524   7.159   1.629 -0.6250  0.8023  0.2878
  188MOL0     C25846   4.617   7.061   1.566 -0.6731  0.2437 -0.3328
  188MOL0     C25847   4.623   6.933   1.644 -0.2621 -0.5757  0.1770
  188MOL0     C25848   4.711   6.831   1.561 -0.4532 -1.0447 -0.4600
  188MOL0     C25849   4.717   6.690   1.617 -0.6080  0.4837 -1.0649
  188MOL0     C25850   4.590   6.623   1.661 -0.4215 -0.1777 -0.3661
  188MOL0    Cl25851   4.482   6.606   1.513 -0.0104 -0.1198  0.0038
  188MOL0     C25852   4.181   7.247   1.990 -0.0163 -0.0610 -0.2411
  188MOL0     C25853   4.056   7.298   2.015  0.6331 -0.3620  0.5129
  188MOL0     O25854   3.973   7.661   2.134  0.1119 -0.0295 -0.2918
  188MOL0     C25855   3.634   7.549   2.062 -0.0802 -0.8656  0.7532
  188MOL0     C25856   3.496   7.582   2.082  0.0142  0.3227 -0.9105
  188MOL0     N25857   2.845   8.069   2.271 -0.2171  0.1915  0.4727
  188MOL0     N25858   2.767   8.119   2.175  0.0615  0.4947 -0.0456
  188MOL0     C25859   3.183   7.160   1.676 -0.4919  0.2678 -0.0336
  188MOL0     C25860   3.242   7.050   1.630 -0.8906  0.4258  0.3366
  188MOL0     C25861   3.447   6.770   1.333 -1.5671  0.8875  0.3765
  188MOL0     C25862   3.383   6.669   1.411  0.0460 -0.6141  0.4265
  188MOL0     C25863   3.406   6.533   1.390  0.3498  0.5365  0.4367
  188MOL0     C25864   3.503   6.490   1.299 -0.1948  0.3067 -0.5266
  188MOL0     O25865   3.556   6.364   1.275 -0.5404  0.5609  1.1842
  188MOL0     C25866   3.493   6.255   1.335 -0.2735 -0.1175 -0.8085
  188MOL0     C25867   3.546   6.115   1.286  0.5198 -0.6051 -0.6096
  188MOL0     C25868   3.696   6.088   1.296  0.6886  0.1857 -0.7346
  188MOL0     C25869   3.721   5.949   1.234  0.4760  0.3751 -1.2630
  188MOL0     C25870   3.715   5.841   1.339  0.2220 -0.1524  0.8588
  188MOL0     C25871   3.701   5.757   1.423  1.1056  0.0941 -1.1442
  188MOL0     C25872   3.569   6.587   1.230  0.1033  0.1770  0.4040
  188MOL0     C25873   3.540   6.724   1.240  0.1229  0.7438 -0.7111
  188MOL0     C25874   3.616   6.825   1.160 -0.5284  0.1298 -0.8495
  188MOL0     H25875   3.283   7.158   1.317  0.9308 -2.0725  0.6831
  188MOL0     H25876   3.156   7.364   1.410 -1.9681 -0.3581  0.1638
  188MOL0     H25877   3.153   7.349   1.854  1.7460 -0.6607 -2.4850
  188MOL0     H25878   2.985   7.316   1.813  0.0378 -0.5440 -1.0483
  188MOL0     H25879   3.005   7.517   1.953 -1.3051 -1.2888  0.3376
  188MOL0     H25880   3.119   7.582   1.837 -1.7228  2.8051 -5.3813
  188MOL0     H25881   2.947   7.631   1.677  0.4846 -4.3389 -2.5766
  188MOL0     H25882   2.851   7.496   1.725  0.7701  0.1211 -0.8049
  188MOL0     H25883   2.786   7.586   1.931  0.4548  0.0628  0.3951
  188MOL0     H25884   2.871   7.739   1.905 -0.4456  1.2188 -0.6494
  188MOL0     H25885   2.607   7.618   1.797  0.3827 -0.6527  1.9159
  188MOL0     H25886   2.703   7.723   1.680  1.0956  2.6621  0.4935
  188MOL0     H25887   2.502   7.831   1.821 -0.6731 -1.7804  1.2865
  188MOL0     H25888   2.594   7.768   1.958 -0.7965 -1.4144 -0.0298
  188MOL0     H25889   2.658   8.002   1.769  0.5209  2.6905  1.3950
  188MOL0     H25890   2.785   7.934   1.867  0.3660 -0.2765  0.1442
  188MOL0     H25891   2.622   8.144   1.953 -1.6076 -0.1926  2.7285
  188MOL0     H25892   2.531   8.004   2.002  0.1313  0.0537 -0.4160
  188MOL0     H25893   2.741   7.804   2.106 -2.7651  0.7131  0.8046
  188MOL0     H25894   2.838   7.740   2.377  2.9121 -1.4499  0.1225
  188MOL0     H25895   2.926   7.874   2.425 -1.1316  2.2077 -1.0038
  188MOL0     H25896   3.042   7.653   2.299  2.7965 -0.4911  0.4508
  188MOL0     H25897   3.011   7.744   2.159 -0.2379 -1.0243 -0.1486
  188MOL0     H25898   3.166   7.933   2.249  1.4845  1.4791  0.5452
  188MOL0     H25899   3.143   7.862   2.410  4.3732  0.3889  0.7266
  188MOL0     H25900   3.362   7.813   2.341  0.9073 -0.8488 -0.3234
  188MOL0     H25901   3.263   7.668   2.346 -0.5843 -0.2954 -1.2454
  188MOL0     H25902   3.528   7.895   2.201  0.4351  0.3961 -1.1238
  188MOL0     H25903   3.866   7.878   2.242 -1.1392 -0.2421  1.7731
  188MOL0     H25904   3.749   7.979   2.186 -1.1337 -1.6910  1.8348
  188MOL0     H25905   3.865   7.914   2.068  3.1098 -1.3917  1.8471
  188MOL0     H25906   4.082   7.598   1.861 -0.7810 -1.6258  0.4154
  188MOL0     H25907   4.301   7.507   1.801 -2.5605  0.8288 -2.2954
  188MOL0     H25908   4.438   7.388   1.734 -0.0962 -0.6696 -0.1530
  188MOL0     H25909   4.541   7.418   1.886 -0.4897  0.1833  0.1295
  188MOL0     H25910   4.680   7.289   1.701  0.1117 -1.7581  0.7687
  188MOL0     H25911   4.631   7.170   1.815  1.9847 -0.2212 -1.6736
  188MOL0     H25912   4.498   7.227   1.547  3.1790  1.6780 -0.3611
  188MOL0     H25913   4.435   7.106   1.665 -0.2949 -0.7480 -1.0538
  188MOL0     H25914   4.721   7.092   1.568  0.9590 -4.3798  1.6052
  188MOL0     H25915   4.581   7.048   1.463  1.7390  1.0901 -1.3394
  188MOL0     H25916   4.655   6.941   1.749 -0.3207  2.6844  0.0512
  188MOL0     H25917   4.517   6.907   1.648 -1.1221  2.3045 -1.3685
  188MOL0     H25918   4.811   6.874   1.552  0.1316 -2.4375 -0.8894
  188MOL0     H25919   4.681   6.827   1.456 -2.4633 -0.1988  0.0353
  188MOL0     H25920   4.785   6.694   1.702  2.9527  0.5082 -3.6643
  188MOL0     H25921   4.756   6.621   1.541 -0.8597  0.2358 -0.9749
  188MOL0     H25922   4.546   6.686   1.739 -0.9289  0.9993 -1.5789
  188MOL0     H25923   4.603   6.520   1.695 -1.1813 -0.5615 -1.1868
  188MOL0     H25924   4.201   7.154   2.041  0.2015  0.8386  1.3947
  188MOL0     H25925   3.972   7.243   2.054 -2.3448  2.2414 -1.6962
  188MOL0     H25926   3.663   7.449   2.033 -1.0639 -0.4180 -2.1147
  188MOL0     H25927   3.419   7.507   2.068 -0.8059  1.1319 -0.7717
  188MOL0     H25928   3.169   7.159   1.784 -1.0742  3.5429  0.0392
  188MOL0     H25929   3.264   6.966   1.694 -0.9394  2.5148  3.3283
  188MOL0     H25930   3.325   6.687   1.501  2.9568 -2.1167  2.7802
  188MOL0     H25931   3.353   6.457   1.446  0.6981  0.7584  1.0749
  188MOL0     H25932   3.505   6.266   1.443  0.7080 -0.2081 -0.8961
  188MOL0     H25933   3.388   6.256   1.304  0.1790  0.9931 -2.4955
  188MOL0     H25934   3.520   6.112   1.180  2.3407  1.6311 -1.2078
  188MOL0     H25935   3.490   6.040   1.343 -1.9703  0.2236 -1.8070
  188MOL0     H25936   3.758   6.157   1.239  0.8838 -0.9761 -1.9681
  188MOL0     H25937   3.749   6.092   1.392 -0.9452  5.1149  0.2791
  188MOL0     H25938   3.821   5.953   1.190  1.0011 -1.4852 -0.3158
  188MOL0     H25939   3.649   5.927   1.155 -2.4205  0.9228  1.0648
  188MOL0     H25940   3.686   5.677   1.493 -1.9867  2.0273  0.6220
  188MOL0     H25941   3.660   6.570   1.172 -0.4797  3.0420 -1.5310
  188MOL0     H25942   3.692   6.891   1.203  0.4342 -0.5581 -1.4470
  188MOL0     H25943   3.680   6.773   1.088 -0.5461 -0.5527 -0.3779
  188MOL0     H25944   3.547   6.887   1.102 -1.7649  0.0370  0.4763
  189MOL0     O25945   0.986   4.155   8.798 -0.3855  0.2441  0.0596
  189MOL0     C25946   0.946   4.225   8.889  0.4244  0.1863  0.4848
  189MOL0     O25947   1.021   4.266   8.994  0.2110 -0.5005 -0.1948
  189MOL0     C25948   1.155   4.264   8.984  0.5913  0.9601 -0.5213
  189MOL0     C25949   1.230   4.320   8.882 -0.3026  0.1467  0.8708
  189MOL0     C25950   1.372   4.305   8.885  0.1677 -0.4214 -0.2735
  189MOL0     C25951   1.445   4.238   8.987  0.3963 -0.3385  0.2537
  189MOL0     O25952   1.583   4.218   8.975  0.3979  0.4156 -0.2164
  189MOL0     C25953   1.657   4.107   9.019  0.4992  0.5548 -0.2815
  189MOL0     C25954   1.800   4.125   9.037  0.3108  0.0368  0.1528
  189MOL0     C25955   1.863   3.994   9.073 -0.9088 -0.0307 -0.6658
  189MOL0     C25956   2.022   4.006   9.081  0.8266  0.0937  1.1672
  189MOL0     C25957   2.070   3.884   9.154  0.3961  0.2548 -0.4346
  189MOL0     C25958   2.221   3.916   9.187  0.3672  0.1392 -0.0498
  189MOL0     C25959   2.266   3.839   9.321 -0.1438 -0.1717 -0.6553
  189MOL0     C25960   2.419   3.811   9.325  0.6360 -0.4628  0.2085
  189MOL0     N25961   2.442   3.712   9.439  0.3717 -0.1965  0.0948
  189MOL0     C25962   2.518   3.740   9.543 -0.0646 -0.2423 -0.3234
  189MOL0     C25963   2.540   3.617   9.595  1.6198 -0.0843 -0.2017
  189MOL0     C25964   2.628   3.586   9.712 -1.1213 -0.2200 -0.0457
  189MOL0     C25965   2.774   3.611   9.712 -0.9004 -0.3527  0.2026
  189MOL0     C25966   2.855   3.516   9.625 -0.1935  0.3833  0.0182
  189MOL0     C25967   2.844   3.370   9.679 -0.1265 -0.2552 -0.0051
  189MOL0     O25968   2.861   3.344   9.813  0.2644  0.2094  0.0165
  189MOL0     C25969   2.983   3.351   9.872 -0.5547 -0.0746 -0.7172
  189MOL0     C25970   2.991   3.354  10.013 -0.2953 -0.4695  0.0757
  189MOL0     C25971   3.109   3.354  10.085  0.0931 -0.1786 -0.7998
  189MOL0     C25972   3.105   3.341  10.231  0.1122  0.4060  0.1309
  189MOL0     C25973   3.227   3.356  10.009 -0.1513 -0.2363  0.3715
  189MOL0     C25974   3.364   3.371  10.063 -0.8899 -0.3188 -0.5382
  189MOL0     O25975   3.473   3.375   9.978 -0.6044  0.5707  0.2050
  189MOL0     C25976   3.594   3.410  10.031  0.3301  0.7710  0.7742
  189MOL0     C25977   3.628   3.542  10.020  0.8581  0.5234  0.2458
  189MOL0     C25978   3.746   3.589  10.072 -0.3536  0.1280 -0.2834
  189MOL0     C25979   3.837   3.506  10.145  1.4437  0.3910  0.2011
  189MOL0     O25980   3.961   3.550  10.187 -0.0353  0.8100  0.2546
  189MOL0     C25981   3.964   3.682  10.236 -0.7970 -0.0895 -0.2209
  189MOL0     C25982   4.037   3.779  10.146  0.5048  0.5373 -0.0225
  189MOL0     C25983   4.191   3.778  10.155 -0.4015  0.8683 -0.1798
  189MOL0     C25984   4.236   3.815  10.021 -0.0159 -0.9500  0.3082
  189MOL0     C25985   4.394   3.818  10.008 -0.9709  0.0249 -0.2194
  189MOL0     C25986   4.416   3.888   9.873  0.7795 -0.4931 -0.1844
  189MOL0     C25987   4.563   3.894   9.852  0.5475 -0.3056 -0.2763
  189MOL0     C25988   4.630   3.795   9.749 -0.2934 -0.1278 -0.8852
  189MOL0    Cl25989   4.629   3.626   9.812  0.0356  0.2227 -0.0393
  189MOL0     C25990   3.800   3.365  10.151 -0.0483  0.0922 -0.5105
  189MOL0     C25991   3.674   3.317  10.096  1.2159  0.1229  1.1935
  189MOL0     O25992   3.376   3.378  10.188  0.4253 -0.2763  0.6779
  189MOL0     C25993   3.217   3.339   9.864 -0.6338 -0.5733  0.0745
  189MOL0     C25994   3.098   3.348   9.798 -0.2918  0.6601  0.0757
  189MOL0     N25995   2.458   3.523   9.532 -0.5620 -0.1594 -0.3107
  189MOL0     N25996   2.404   3.578   9.439  0.1707 -0.6098  0.0176
  189MOL0     C25997   1.362   4.196   9.094 -0.0611 -0.8068 -0.0279
  189MOL0     C25998   1.217   4.207   9.092 -0.9956 -0.0684 -0.2750
  189MOL0     C25999   0.803   4.244   8.889  0.2834 -0.3628 -0.0741
  189MOL0     C26000   0.750   4.316   8.996  1.0171 -0.1428  0.0369
  189MOL0     C26001   0.611   4.324   9.021 -0.0167  0.0989  0.6088
  189MOL0     C26002   0.528   4.265   8.928  0.0678  0.9134  0.6758
  189MOL0     O26003   0.395   4.292   8.947 -0.5734  1.1209 -0.2679
  189MOL0     C26004   0.319   4.165   8.943 -0.0601 -0.1214  0.6843
  189MOL0     C26005   0.184   4.190   8.871  0.3882  0.2237 -0.0149
  189MOL0     C26006   0.209   4.192   8.724 -0.0394 -1.4145  0.1516
  189MOL0     C26007   0.086   4.204   8.631  0.0232  0.7371  0.2342
  189MOL0     C26008   0.007   4.082   8.636  0.3530 -0.5496 -0.1032
  189MOL0     C26009  -0.065   3.981   8.624 -0.0959 -0.2199 -0.7242
  189MOL0     C26010   0.577   4.210   8.804 -0.5544 -0.2933 -0.0322
  189MOL0     C26011   0.713   4.192   8.789  0.2069 -0.7327  0.4590
  189MOL0     C26012   0.754   4.102   8.673  0.0387  0.0129 -0.9318
  189MOL0     H26013   1.185   4.367   8.795 -0.1360 -1.6753 -0.2441
  189MOL0     H26014   1.436   4.331   8.802  0.7345 -1.3457 -0.1446
  189MOL0     H26015   1.627   4.026   8.951 -0.2526  0.1931  0.4694
  189MOL0     H26016   1.630   4.083   9.122  1.0305 -0.1939 -0.3077
  189MOL0     H26017   1.841   4.163   8.943  0.6214  2.2470  1.1192
  189MOL0     H26018   1.809   4.202   9.115  0.6861 -0.3353  0.4767
  189MOL0     H26019   1.823   3.950   9.164 -1.3014  0.6238 -0.5199
  189MOL0     H26020   1.849   3.928   8.986  0.8914  0.5998 -1.4793
  189MOL0     H26021   2.070   4.027   8.986  1.1792 -2.6396  0.6603
  189MOL0     H26022   2.045   4.096   9.139  2.7041 -0.2369  0.9987
  189MOL0     H26023   2.059   3.794   9.093 -0.6253  0.4599 -0.5777
  189MOL0     H26024   2.014   3.875   9.248  0.3517  0.4063 -0.4468
  189MOL0     H26025   2.282   3.881   9.103  1.3252 -1.7460  1.3577
  189MOL0     H26026   2.251   4.020   9.196  3.2130 -0.2376 -3.3018
  189MOL0     H26027   2.213   3.744   9.334  2.4459 -1.5485  0.6661
  189MOL0     H26028   2.255   3.903   9.408  4.0576 -1.2191  0.8826
  189MOL0     H26029   2.452   3.773   9.228 -2.2017 -1.9984 -0.2847
  189MOL0     H26030   2.469   3.908   9.332  0.5621 -0.4754  1.0251
  189MOL0     H26031   2.550   3.838   9.575  1.7687 -0.7966 -0.3597
  189MOL0     H26032   2.611   3.479   9.726 -0.3160 -0.3307  0.1894
  189MOL0     H26033   2.585   3.641   9.796  0.4326  0.9006  0.0575
  189MOL0     H26034   2.793   3.702   9.653  2.1366 -0.4458  0.9011
  189MOL0     H26035   2.810   3.609   9.815 -4.6495 -0.1331  1.6875
  189MOL0     H26036   2.825   3.535   9.522  2.1285 -0.8160 -0.9389
  189MOL0     H26037   2.961   3.539   9.613 -0.0278 -0.3426  0.0445
  189MOL0     H26038   2.741   3.337   9.659  0.1855 -1.3724  0.1718
  189MOL0     H26039   2.907   3.296   9.629 -2.2091  0.7001 -4.6182
  189MOL0     H26040   2.896   3.350  10.066 -0.6428  0.9062 -0.4013
  189MOL0     H26041   3.157   3.425  10.278 -1.7192  0.9632  1.2746
  189MOL0     H26042   3.143   3.244  10.265 -1.3285 -0.4689 -0.6462
  189MOL0     H26043   3.003   3.356  10.269  0.0445 -0.5242  0.3334
  189MOL0     H26044   3.568   3.615   9.968 -0.0793 -0.2086  0.2739
  189MOL0     H26045   3.768   3.695  10.062 -0.8469  0.0353 -2.9177
  189MOL0     H26046   3.861   3.715  10.251 -0.2483  0.7718  2.0689
  189MOL0     H26047   4.004   3.672  10.338  1.9445 -0.1914 -1.2416
  189MOL0     H26048   3.992   3.779  10.046 -2.1679 -1.6078  1.0495
  189MOL0     H26049   4.006   3.875  10.188 -1.9261 -0.0535 -0.2969
  189MOL0     H26050   4.221   3.676  10.182 -1.0532  0.5230 -0.7290
  189MOL0     H26051   4.234   3.848  10.227 -2.2046 -0.7143  2.6339
  189MOL0     H26052   4.190   3.912  10.000  0.3239 -0.3938  1.9729
  189MOL0     H26053   4.213   3.739   9.946  0.9636  2.0958 -3.4065
  189MOL0     H26054   4.440   3.875  10.089  1.8471 -1.8981 -0.2912
  189MOL0     H26055   4.430   3.714  10.013  0.1144  0.3831 -0.3656
  189MOL0     H26056   4.369   3.986   9.859 -3.0895 -2.1060  0.2560
  189MOL0     H26057   4.374   3.821   9.797 -2.7289  0.9744  0.2817
  189MOL0     H26058   4.608   3.885   9.951 -0.1241  0.4700  0.1058
  189MOL0     H26059   4.591   3.992   9.810 -1.1083 -0.4650 -1.8446
  189MOL0     H26060   4.734   3.823   9.730  0.5955 -3.1499 -0.9329
  189MOL0     H26061   4.575   3.809   9.655 -0.5242  5.2976 -0.2591
  189MOL0     H26062   3.866   3.298  10.206  0.3668  0.6979 -0.2599
  189MOL0     H26063   3.626   3.220  10.096  0.6722  0.3854  1.9789
  189MOL0     H26064   3.304   3.327   9.801 -1.4314  1.6295 -1.6126
  189MOL0     H26065   3.120   3.340   9.692  4.4306 -1.1411  0.9475
  189MOL0     H26066   1.424   4.153   9.173 -0.9374 -1.9244  0.0870
  189MOL0     H26067   1.157   4.165   9.171  0.7724 -0.3254  0.9821
  189MOL0     H26068   0.812   4.369   9.067 -2.9162  4.4527  0.5805
  189MOL0     H26069   0.568   4.365   9.111 -1.2088  0.8676 -0.2743
  189MOL0     H26070   0.377   4.091   8.888  2.3659  0.0914  2.7519
  189MOL0     H26071   0.296   4.133   9.045 -1.0237  0.4641  0.6651
  189MOL0     H26072   0.134   4.282   8.902 -1.9757 -2.4432  5.3455
  189MOL0     H26073   0.113   4.109   8.891 -1.7595  2.2498  1.1448
  189MOL0     H26074   0.260   4.285   8.698 -1.5849 -0.6454 -0.2757
  189MOL0     H26075   0.271   4.110   8.686  1.1291 -1.0042  1.1450
  189MOL0     H26076   0.118   4.208   8.526  0.6971 -3.4703  0.1075
  189MOL0     H26077   0.024   4.292   8.647  1.0907  1.3202  1.2657
  189MOL0     H26078  -0.134   3.904   8.597 -1.4390  0.7588 -0.1591
  189MOL0     H26079   0.506   4.174   8.731  2.1187 -0.0708 -2.9446
  189MOL0     H26080   0.809   4.162   8.599 -1.0750  1.0171 -0.9781
  189MOL0     H26081   0.804   4.015   8.716  1.4749  2.2467  2.3093
  189MOL0     H26082   0.672   4.073   8.606  0.6221 -0.5388 -1.4200
  190MOL0     O26083   5.172   4.854   3.226 -0.1618  0.1175  0.8486
  190MOL0     C26084   5.230   4.931   3.289 -1.5104 -0.7434 -0.9067
  190MOL0     O26085   5.317   5.027   3.242 -0.1591 -0.0148  0.0252
  190MOL0     C26086   5.344   5.039   3.106  0.9817 -0.8233 -0.7316
  190MOL0     C26087   5.330   5.163   3.044 -0.2666 -0.3354  0.4003
  190MOL0     C26088   5.358   5.180   2.905 -0.8646 -0.7605 -0.5761
  190MOL0     C26089   5.406   5.068   2.832  0.2157  0.0580 -0.0509
  190MOL0     O26090   5.441   5.070   2.706 -0.2454  0.2862  0.1698
  190MOL0     C26091   5.474   5.195   2.639 -0.4075 -0.0157  0.6544
  190MOL0     C26092   5.609   5.248   2.693  0.0607  0.3528  0.9589
  190MOL0     C26093   5.673   5.379   2.628 -0.6102 -0.2762  0.1242
  190MOL0     C26094   5.718   5.361   2.482  0.1256  0.4588 -0.5127
  190MOL0     C26095   5.611   5.398   2.380 -0.1403 -0.0523  0.1813
  190MOL0     C26096   5.655   5.354   2.239  0.1060  0.2963 -0.6242
  190MOL0     C26097   5.553   5.381   2.127  0.0689 -0.5405  0.1154
  190MOL0     C26098   5.600   5.333   1.993 -0.5691 -0.4144 -0.3157
  190MOL0     N26099   5.496   5.340   1.893 -0.0405 -0.1033  0.3087
  190MOL0     C26100   5.515   5.363   1.756 -0.0758  0.0733  0.6868
  190MOL0     C26101   5.394   5.340   1.704 -0.6798  0.4887  0.0371
  190MOL0     C26102   5.361   5.368   1.560  0.2424 -0.0225 -0.5062
  190MOL0     C26103   5.230   5.443   1.539  0.3962 -0.0184  0.2836
  190MOL0     C26104   5.227   5.592   1.532 -0.1376 -0.6084  0.1413
  190MOL0     C26105   5.291   5.653   1.662 -0.6029  0.7458  0.9868
  190MOL0     O26106   5.433   5.679   1.644 -0.3939 -0.3422 -0.1397
  190MOL0     C26107   5.508   5.708   1.757  0.0393  0.3597  0.1677
  190MOL0     C26108   5.642   5.670   1.751 -0.4235  0.3287  0.3492
  190MOL0     C26109   5.724   5.655   1.864  0.2429 -0.2735  0.2444
  190MOL0     C26110   5.860   5.589   1.840 -0.2946 -0.6207  0.4486
  190MOL0     C26111   5.672   5.706   1.995 -0.1177  0.4168  0.2175
  190MOL0     C26112   5.748   5.693   2.121 -0.2478 -0.2902 -0.3464
  190MOL0     O26113   5.677   5.713   2.238 -0.4843  1.1131  0.3332
  190MOL0     C26114   5.734   5.727   2.365  0.5562 -0.2803 -0.1104
  190MOL0     C26115   5.635   5.747   2.466 -0.3444  0.2156  0.5037
  190MOL0     C26116   5.661   5.741   2.597 -0.2911 -1.0067 -0.3531
  190MOL0     C26117   5.802   5.715   2.638  0.6295  0.1579  0.6830
  190MOL0     O26118   5.823   5.708   2.774 -0.5434 -0.1234  0.4078
  190MOL0     C26119   5.942   5.630   2.827  0.2263 -0.0950  0.6182
  190MOL0     C26120   5.909   5.625   2.985  0.1728  0.1875 -0.4778
  190MOL0     C26121   6.038   5.576   3.046  0.8582  0.6083  0.5961
  190MOL0     C26122   6.025   5.555   3.201  0.8170  0.0091 -0.7096
  190MOL0     C26123   6.158   5.537   3.267  0.2646 -0.3621  0.3639
  190MOL0     C26124   6.158   5.461   3.401  0.7287 -0.6718  0.0006
  190MOL0     C26125   6.298   5.452   3.448 -0.3026 -0.1908 -0.2619
  190MOL0     C26126   6.324   5.321   3.520 -0.2667 -0.3774 -0.1482
  190MOL0    Cl26127   6.343   5.184   3.396 -0.5007 -0.1111 -0.0851
  190MOL0     C26128   5.903   5.680   2.539  0.1365  0.3062  0.2229
  190MOL0     C26129   5.868   5.700   2.400  0.1818 -0.2476  0.3942
  190MOL0     O26130   5.870   5.689   2.110 -0.6034  0.3860  0.4180
  190MOL0     C26131   5.543   5.757   1.995  0.3540 -0.2630 -0.6675
  190MOL0     C26132   5.459   5.743   1.882  0.1679 -0.6334  1.2724
  190MOL0     N26133   5.306   5.280   1.798  0.5872 -0.4974  1.0540
  190MOL0     N26134   5.366   5.289   1.913 -0.4675  0.5551  0.4385
  190MOL0     C26135   5.410   4.949   2.894 -0.2453  0.2220 -0.4154
  190MOL0     C26136   5.397   4.935   3.035  0.2043 -0.2474  0.2692
  190MOL0     C26137   5.188   4.930   3.443 -0.2359 -1.4453  0.2805
  190MOL0     C26138   5.065   4.884   3.491  0.1964  1.2592 -0.4074
  190MOL0     C26139   5.040   4.875   3.627  0.2076  0.0821  0.1067
  190MOL0     C26140   5.130   4.934   3.721 -0.0765  0.1018  0.2626
  190MOL0     O26141   5.107   4.931   3.856  0.0913 -0.1337 -0.4067
  190MOL0     C26142   4.985   4.869   3.903  0.6213 -0.3766  0.1112
  190MOL0     C26143   4.993   4.870   4.063  0.8699  0.7106 -1.2746
  190MOL0     C26144   5.014   5.010   4.125  0.1512  0.8194  0.0327
  190MOL0     C26145   5.156   5.058   4.157 -0.9753 -0.9634 -0.1198
  190MOL0     C26146   5.214   4.990   4.270 -0.9351  0.2041 -0.4377
  190MOL0     C26147   5.270   4.928   4.357  0.3593  0.3630 -0.1797
  190MOL0     C26148   5.242   4.993   3.671 -0.0793 -0.2717  0.0839
  190MOL0     C26149   5.280   4.988   3.538  0.3504  0.5892  1.1304
  190MOL0     C26150   5.417   5.036   3.507  0.2191  0.5026 -0.4924
  190MOL0     H26151   5.279   5.244   3.094 -0.5501  0.2028 -0.7223
  190MOL0     H26152   5.338   5.273   2.854 -0.0611  1.4882  2.8982
  190MOL0     H26153   5.392   5.267   2.648 -0.9955 -0.3224 -1.5729
  190MOL0     H26154   5.486   5.179   2.531  0.6785 -3.7493  1.2102
  190MOL0     H26155   5.604   5.252   2.802  0.4751 -2.2836  1.1348
  190MOL0     H26156   5.670   5.159   2.672 -1.2059 -0.2237 -0.4344
  190MOL0     H26157   5.610   5.468   2.638  2.0422  1.9476 -1.4798
  190MOL0     H26158   5.759   5.401   2.692 -0.0363 -3.8949  0.8108
  190MOL0     H26159   5.803   5.428   2.470  2.0843 -2.0865 -1.6340
  190MOL0     H26160   5.757   5.260   2.472  0.8700  0.6550  0.2694
  190MOL0     H26161   5.596   5.506   2.382  1.4213  0.1710  1.3429
  190MOL0     H26162   5.512   5.361   2.409 -0.5110  1.6014  1.1439
  190MOL0     H26163   5.730   5.430   2.212  1.0507  0.0089  1.0274
  190MOL0     H26164   5.695   5.253   2.226 -0.8421 -0.2000  0.1741
  190MOL0     H26165   5.518   5.484   2.115 -1.1868 -1.1459 -1.9706
  190MOL0     H26166   5.466   5.321   2.155 -1.8612  1.6225 -0.8866
  190MOL0     H26167   5.694   5.377   1.957  0.1304 -0.9086  0.8410
  190MOL0     H26168   5.616   5.225   1.995  2.2392 -0.0861  0.0270
  190MOL0     H26169   5.592   5.414   1.699 -1.0001 -1.6961 -2.3431
  190MOL0     H26170   5.348   5.270   1.513 -1.4208  1.4662 -3.3819
  190MOL0     H26171   5.442   5.417   1.506  2.6877 -1.1487  1.8632
  190MOL0     H26172   5.193   5.412   1.441 -0.2964 -0.9083  0.8113
  190MOL0     H26173   5.161   5.414   1.619  1.9210 -2.6645  0.7722
  190MOL0     H26174   5.274   5.624   1.438 -2.0850 -1.9363 -1.3666
  190MOL0     H26175   5.124   5.628   1.526  0.3883  1.3507  1.8327
  190MOL0     H26176   5.245   5.752   1.673 -0.3809  1.3137 -2.1437
  190MOL0     H26177   5.270   5.583   1.743 -0.0099 -1.7605 -0.8962
  190MOL0     H26178   5.670   5.634   1.652  0.7627  1.1301  0.3773
  190MOL0     H26179   5.872   5.568   1.733 -1.4564  0.2147  0.1348
  190MOL0     H26180   5.883   5.499   1.897  3.1012 -0.6836 -0.8095
  190MOL0     H26181   5.945   5.654   1.865  0.2411 -2.0299  2.5540
  190MOL0     H26182   5.530   5.765   2.444 -0.0737  1.1382 -0.1217
  190MOL0     H26183   5.576   5.745   2.664  0.1789  0.9360  0.1879
  190MOL0     H26184   5.949   5.527   2.790  2.3396 -0.4490  1.8017
  190MOL0     H26185   6.039   5.680   2.817  1.5052 -2.6836 -1.2785
  190MOL0     H26186   5.898   5.726   3.027  4.7985  1.0912 -0.8629
  190MOL0     H26187   5.837   5.547   3.009  1.7808 -1.1146  0.2735
  190MOL0     H26188   6.115   5.650   3.022  0.4108  1.3405  1.3484
  190MOL0     H26189   6.073   5.483   3.001  3.4371  2.3398 -1.3433
  190MOL0     H26190   5.963   5.467   3.223  1.0828 -0.7675 -2.8277
  190MOL0     H26191   5.973   5.637   3.251  0.6789 -0.3187 -0.3072
  190MOL0     H26192   6.222   5.485   3.196  0.5648 -1.1897  1.2146
  190MOL0     H26193   6.195   5.638   3.283 -2.5821  0.3936  3.3542
  190MOL0     H26194   6.121   5.359   3.390  2.4214 -1.2285 -0.9414
  190MOL0     H26195   6.099   5.521   3.471  0.5841  2.5552 -2.6011
  190MOL0     H26196   6.313   5.535   3.517  1.3345 -0.1745 -0.6046
  190MOL0     H26197   6.367   5.452   3.363  0.4190 -2.9865  0.1960
  190MOL0     H26198   6.238   5.299   3.585 -1.8768  4.2113 -0.3610
  190MOL0     H26199   6.414   5.324   3.582  0.9969 -0.4746 -1.9093
  190MOL0     H26200   6.009   5.681   2.560  0.6467 -2.0482 -1.7996
  190MOL0     H26201   5.945   5.681   2.326 -2.2031 -2.1082 -1.8205
  190MOL0     H26202   5.512   5.807   2.086 -0.1709  3.2264 -2.5753
  190MOL0     H26203   5.356   5.777   1.892  0.3566  0.4802 -0.3141
  190MOL0     H26204   5.439   4.866   2.831 -0.8386 -0.2896 -0.0288
  190MOL0     H26205   5.412   4.837   3.080 -2.9865  0.2859  2.8281
  190MOL0     H26206   4.995   4.852   3.415  3.3753 -2.9707 -1.9314
  190MOL0     H26207   4.944   4.837   3.659  2.5165 -3.1832  4.2900
  190MOL0     H26208   4.895   4.924   3.873 -0.0140  0.1129  2.6421
  190MOL0     H26209   4.984   4.766   3.866 -0.4028  0.5500 -2.7535
  190MOL0     H26210   5.068   4.796   4.093 -0.0622 -0.0281 -0.7058
  190MOL0     H26211   4.905   4.826   4.111  0.9448  2.7689  0.9871
  190MOL0     H26212   4.960   5.083   4.064 -1.9281 -3.2522 -3.5689
  190MOL0     H26213   4.954   4.990   4.214  0.4245  0.0433  0.0490
  190MOL0     H26214   5.163   5.165   4.180 -0.7266 -1.0273  0.0943
  190MOL0     H26215   5.226   5.044   4.074 -0.7196 -0.1129 -0.0559
  190MOL0     H26216   5.333   4.897   4.439 -0.5902 -0.0173  0.4216
  190MOL0     H26217   5.303   5.030   3.753 -1.7020  0.6545  0.9016
  190MOL0     H26218   5.469   5.068   3.598 -0.4049 -0.4623  0.2257
  190MOL0     H26219   5.479   4.955   3.469  1.6692  0.5748  1.5652
  190MOL0     H26220   5.423   5.118   3.434  1.4018  0.1682 -0.7880
  191MOL0     O26221   8.406   1.929   5.314 -0.4713  0.1928 -0.9717
  191MOL0     C26222   8.318   1.988   5.377  0.7265  0.1166 -0.9198
  191MOL0     O26223   8.334   2.067   5.490  0.1479  0.1144  0.0076
  191MOL0     C26224   8.457   2.094   5.545 -0.3774  0.4176  0.4633
  191MOL0     C26225   8.591   2.065   5.504  0.2665 -0.8600  0.0359
  191MOL0     C26226   8.699   2.115   5.573 -0.6799  0.1556 -0.8721
  191MOL0     C26227   8.681   2.181   5.698  0.1509 -0.1531  0.8943
  191MOL0     O26228   8.795   2.217   5.767  0.0162 -0.1289  1.0206
  191MOL0     C26229   8.773   2.343   5.844 -0.5466  0.0642  0.5908
  191MOL0     C26230   8.911   2.411   5.861 -0.4546  0.0666 -0.2270
  191MOL0     C26231   9.019   2.314   5.915 -0.0186  0.4475  0.6403
  191MOL0     C26232   9.155   2.396   5.947  0.9327 -0.4683 -0.2048
  191MOL0     C26233   9.263   2.310   6.007  0.6442  0.3398  0.4049
  191MOL0     C26234   9.373   2.252   5.917 -0.7405  0.5075  0.0715
  191MOL0     C26235   9.308   2.155   5.813 -0.0127 -1.1816 -0.2669
  191MOL0     C26236   9.419   2.100   5.707  0.7266  0.4311 -0.0022
  191MOL0     N26237   9.506   2.198   5.637  0.3277 -0.1483  0.2244
  191MOL0     C26238   9.445   2.303   5.576 -0.2659  0.5378  1.0454
  191MOL0     C26239   9.548   2.388   5.541  0.6875  0.4264 -0.1249
  191MOL0     C26240   9.522   2.528   5.490  0.7667  0.1944 -0.8057
  191MOL0     C26241   9.428   2.610   5.578  0.3294 -0.4731  0.2402
  191MOL0     C26242   9.402   2.747   5.512 -0.3096 -0.4160  0.4923
  191MOL0     C26243   9.317   2.832   5.625  0.3540  0.1293  0.7246
  191MOL0     O26244   9.180   2.781   5.625 -0.5940 -0.3370 -0.1523
  191MOL0     C26245   9.100   2.804   5.515 -0.2922  0.7893  0.1396
  191MOL0     C26246   9.122   2.900   5.408 -0.0078 -0.9203  1.4674
  191MOL0     C26247   9.048   2.903   5.285  0.4642  0.6730 -1.5284
  191MOL0     C26248   9.102   2.981   5.179 -0.2316 -0.1070  0.7664
  191MOL0     C26249   8.928   2.831   5.269 -1.1878 -0.6499 -0.7032
  191MOL0     C26250   8.832   2.839   5.154 -0.3264  0.1618 -0.3040
  191MOL0     O26251   8.727   2.763   5.171 -0.5490  0.3519  0.3281
  191MOL0     C26252   8.605   2.802   5.114 -0.2087  0.1386 -0.5784
  191MOL0     C26253   8.539   2.714   5.032  0.3084  0.6610 -0.0054
  191MOL0     C26254   8.408   2.739   5.000 -0.1489  0.3141 -1.2116
  191MOL0     C26255   8.335   2.840   5.054 -0.5596  0.0001  0.5641
  191MOL0     O26256   8.205   2.849   5.011 -0.2307  0.6350 -0.0321
  191MOL0     C26257   8.121   2.965   5.036 -0.8650  0.1021  0.8453
  191MOL0     C26258   7.979   2.950   4.996  0.8513  0.1164 -0.6182
  191MOL0     C26259   7.939   2.912   4.855 -0.1312 -0.5087 -0.7865
  191MOL0     C26260   7.970   3.020   4.746  0.6437 -0.0407 -0.2930
  191MOL0     C26261   8.117   3.051   4.706  0.8320 -0.0965 -0.2732
  191MOL0     C26262   8.109   3.150   4.588  0.0182 -0.2607  0.1604
  191MOL0     C26263   8.251   3.214   4.582 -0.5725  0.2068 -0.4150
  191MOL0     C26264   8.261   3.314   4.463  0.1359  0.1924  0.7830
  191MOL0    Cl26265   8.407   3.424   4.474  0.3506  0.2348 -0.2040
  191MOL0     C26266   8.392   2.922   5.152 -1.1265  0.0733 -0.4524
  191MOL0     C26267   8.531   2.916   5.165  0.1350  0.4929  0.5354
  191MOL0     O26268   8.853   2.915   5.058 -0.8428 -0.1643  1.1497
  191MOL0     C26269   8.899   2.752   5.380  1.4114 -0.0959 -0.1641
  191MOL0     C26270   8.977   2.741   5.495  0.2986  0.0872  0.6593
  191MOL0     N26271   9.669   2.325   5.565 -0.5139  0.2633  0.3278
  191MOL0     N26272   9.639   2.219   5.622 -0.6706  0.6302  0.2388
  191MOL0     C26273   8.548   2.213   5.730  0.5454 -0.2023 -0.2466
  191MOL0     C26274   8.439   2.173   5.652  0.0205 -0.5923 -0.5797
  191MOL0     C26275   8.182   1.974   5.331 -0.1751 -0.0104 -0.6360
  191MOL0     C26276   8.166   1.883   5.225  0.2576 -0.3763  0.1374
  191MOL0     C26277   8.042   1.874   5.159 -0.1735 -0.2848  0.0339
  191MOL0     C26278   7.940   1.955   5.205  0.4424  0.4607  0.0488
  191MOL0     O26279   7.820   1.934   5.132 -0.2245 -0.5022  0.5171
  191MOL0     C26280   7.752   2.046   5.077 -0.7457 -0.3161  0.1432
  191MOL0     C26281   7.793   2.063   4.934  0.1611  0.4233 -0.1341
  191MOL0     C26282   7.737   1.959   4.837  0.2249 -0.7195 -0.2297
  191MOL0     C26283   7.587   1.946   4.846  0.2586 -0.1163 -0.8745
  191MOL0     C26284   7.492   2.065   4.836  0.2559  0.6225 -0.5753
  191MOL0     C26285   7.413   2.161   4.820  0.0065  0.5533  0.8922
  191MOL0     C26286   7.956   2.043   5.309 -0.4695  0.6923  0.9196
  191MOL0     C26287   8.072   2.050   5.382 -0.5597  0.0450 -0.7407
  191MOL0     C26288   8.076   2.139   5.508 -0.0889  0.9193 -0.8558
  191MOL0     H26289   8.619   1.996   5.426 -0.2732 -1.7265  0.5846
  191MOL0     H26290   8.799   2.076   5.555 -0.6678 -1.5343  2.1217
  191MOL0     H26291   8.714   2.316   5.932 -0.1730 -0.1971  0.7639
  191MOL0     H26292   8.722   2.412   5.776  1.1398 -1.0216 -1.9241
  191MOL0     H26293   8.940   2.438   5.759  1.7206 -0.0978  0.3029
  191MOL0     H26294   8.893   2.508   5.908  0.5634  0.3538 -0.4136
  191MOL0     H26295   8.987   2.265   6.008 -0.9976 -0.9067 -0.3767
  191MOL0     H26296   9.032   2.228   5.849 -5.3746 -0.6703  0.5294
  191MOL0     H26297   9.189   2.443   5.854 -0.6140  0.6516 -0.2480
  191MOL0     H26298   9.115   2.460   6.026  0.5013 -1.2463  0.2200
  191MOL0     H26299   9.212   2.234   6.066 -1.3722  1.3144 -0.0096
  191MOL0     H26300   9.314   2.381   6.073 -3.2932  3.1179  0.7933
  191MOL0     H26301   9.434   2.329   5.868  0.4879  1.2142  2.5444
  191MOL0     H26302   9.450   2.199   5.974 -0.5309 -0.9039 -1.4429
  191MOL0     H26303   9.236   2.210   5.752  1.2882  0.4433 -0.4218
  191MOL0     H26304   9.265   2.066   5.857 -1.9542 -2.2225 -3.8468
  191MOL0     H26305   9.475   2.026   5.764  0.4993 -0.2538 -0.6515
  191MOL0     H26306   9.369   2.050   5.623  0.7334  0.0223  0.2405
  191MOL0     H26307   9.338   2.322   5.574 -0.2222  1.0868  2.5186
  191MOL0     H26308   9.483   2.514   5.389 -3.1615 -0.3822  0.6201
  191MOL0     H26309   9.619   2.579   5.487  2.1148 -2.2111 -0.7035
  191MOL0     H26310   9.330   2.563   5.586 -0.2253  0.6575  0.2027
  191MOL0     H26311   9.474   2.608   5.677  1.9282 -1.5489 -0.4793
  191MOL0     H26312   9.494   2.802   5.489 -0.3222 -1.0212 -1.0862
  191MOL0     H26313   9.354   2.722   5.417  0.7077  0.5928 -0.3230
  191MOL0     H26314   9.373   2.814   5.718  2.4092  1.5922 -0.1530
  191MOL0     H26315   9.307   2.938   5.600 -1.7707 -0.3192 -0.5684
  191MOL0     H26316   9.210   2.964   5.418 -1.3957  1.2255  0.6596
  191MOL0     H26317   9.116   2.913   5.094 -0.8640 -0.3457  0.8517
  191MOL0     H26318   9.199   3.022   5.208  0.3574  1.7497 -3.0935
  191MOL0     H26319   9.033   3.059   5.148 -0.5882 -1.2024 -1.3890
  191MOL0     H26320   8.587   2.623   4.996 -0.4600  1.6219 -3.9737
  191MOL0     H26321   8.351   2.682   4.927 -0.0207  0.9066 -1.7838
  191MOL0     H26322   8.121   2.981   5.144 -1.7079  1.1997  0.7055
  191MOL0     H26323   8.163   3.050   4.983 -4.0294 -0.6954 -3.4838
  191MOL0     H26324   7.928   2.881   5.064  0.6186  0.7929 -0.1017
  191MOL0     H26325   7.936   3.047   5.023 -0.0624 -0.4058 -0.1725
  191MOL0     H26326   7.833   2.889   4.852 -0.5478  1.2537 -0.8730
  191MOL0     H26327   7.993   2.820   4.831  1.3371 -0.3759  1.6452
  191MOL0     H26328   7.932   3.119   4.773  1.8151  0.2468  0.3946
  191MOL0     H26329   7.923   2.996   4.651  0.0654  1.4638 -0.4028
  191MOL0     H26330   8.164   3.109   4.786  0.1864  1.4917 -0.9973
  191MOL0     H26331   8.173   2.961   4.679 -1.2236 -1.0395 -1.6894
  191MOL0     H26332   8.035   3.228   4.605 -1.4648 -1.8377  1.3227
  191MOL0     H26333   8.090   3.099   4.493  1.9023  1.0429 -0.9731
  191MOL0     H26334   8.330   3.138   4.580 -2.6119 -2.1176 -4.0854
  191MOL0     H26335   8.263   3.281   4.667 -4.3799  2.9173 -1.6996
  191MOL0     H26336   8.164   3.366   4.458 -0.9232 -1.6100  1.4307
  191MOL0     H26337   8.268   3.260   4.369 -1.8384  1.0508  0.0739
  191MOL0     H26338   8.336   2.995   5.209 -2.1208  1.4359 -3.0022
  191MOL0     H26339   8.582   2.976   5.240 -1.0744 -0.1219  1.8940
  191MOL0     H26340   8.804   2.701   5.393  1.3902  0.0971  0.4730
  191MOL0     H26341   8.938   2.673   5.570 -2.7331 -0.4189 -1.2306
  191MOL0     H26342   8.503   2.253   5.820 -2.1883  0.0629 -1.6189
  191MOL0     H26343   8.338   2.190   5.688  0.6144  2.5904 -0.1002
  191MOL0     H26344   8.246   1.821   5.184 -0.5576 -0.1727 -1.8958
  191MOL0     H26345   8.029   1.802   5.079 -0.1277 -0.5988  0.3081
  191MOL0     H26346   7.643   2.039   5.091 -1.1043  3.3184  0.0761
  191MOL0     H26347   7.784   2.133   5.134 -0.2122  0.7759 -1.7708
  191MOL0     H26348   7.901   2.048   4.931 -0.0430 -1.2188 -0.2141
  191MOL0     H26349   7.781   2.167   4.903  3.4650  0.2543 -2.4951
  191MOL0     H26350   7.771   1.983   4.735  1.1937  1.8832  0.5975
  191MOL0     H26351   7.783   1.862   4.857  1.0712 -0.4526 -0.8097
  191MOL0     H26352   7.569   1.893   4.940  0.4371  1.3381  0.0339
  191MOL0     H26353   7.544   1.887   4.765 -3.8147  1.0602  0.2270
  191MOL0     H26354   7.355   2.247   4.795 -0.7532 -1.0159 -3.6551
  191MOL0     H26355   7.874   2.101   5.350 -0.7491 -0.5576  2.2370
  191MOL0     H26356   7.984   2.194   5.528  1.4893  2.2015  4.7292
  191MOL0     H26357   8.100   2.072   5.591  0.3578  0.5136 -1.3081
  191MOL0     H26358   8.152   2.217   5.504 -0.1995  0.9914 -1.7350
  192MOL0     O26359   1.019   3.736  11.088  0.7889  0.1618 -0.2576
  192MOL0     C26360   1.088   3.787  10.995 -0.6530  0.4195 -0.4700
  192MOL0     O26361   1.218   3.760  10.975 -0.2678 -0.1325 -0.4586
  192MOL0     C26362   1.270   3.664  11.061 -0.0370  0.0807  0.0042
  192MOL0     C26363   1.371   3.713  11.140 -0.9684 -0.6049  0.8757
  192MOL0     C26364   1.442   3.635  11.229 -0.6855 -1.0896  0.0429
  192MOL0     C26365   1.410   3.502  11.242  0.0678  0.8161  0.4236
  192MOL0     O26366   1.484   3.422  11.333  0.1544  0.1699  0.0186
  192MOL0     C26367   1.474   3.471  11.469 -0.2397 -0.3738 -0.3542
  192MOL0     C26368   1.473   3.356  11.570  0.8469  0.0884 -0.4434
  192MOL0     C26369   1.463   3.407  11.711 -0.3433 -0.3704  0.8257
  192MOL0     C26370   1.439   3.296  11.816  0.3980 -0.9023 -0.6427
  192MOL0     C26371   1.563   3.219  11.868  0.4600  0.5299 -0.3420
  192MOL0     C26372   1.679   3.312  11.909 -0.2738 -0.6261 -0.4132
  192MOL0     C26373   1.639   3.434  11.994 -0.3366  0.3286  0.0726
  192MOL0     C26374   1.743   3.456  12.110 -0.4642 -0.8304  0.1783
  192MOL0     N26375   1.724   3.587  12.180  0.5193 -0.1056  0.1544
  192MOL0     C26376   1.616   3.614  12.258  0.2598 -0.4197  0.1484
  192MOL0     C26377   1.621   3.749  12.260  0.6555 -0.3161 -0.3770
  192MOL0     C26378   1.513   3.834  12.330  0.3921  0.6950  0.0684
  192MOL0     C26379   1.385   3.853  12.236  0.9063  0.0005  0.6029
  192MOL0     C26380   1.431   3.898  12.101 -0.4286  0.2331 -0.4927
  192MOL0     C26381   1.310   3.943  12.013  0.2504 -1.1915 -0.1424
  192MOL0     O26382   1.257   4.064  12.065  0.2318  0.5047 -0.0880
  192MOL0     C26383   1.155   4.129  11.999  1.1957 -0.2835 -1.1999
  192MOL0     C26384   1.103   4.236  12.074  0.9390 -0.0569  0.2654
  192MOL0     C26385   1.002   4.317  12.017  0.2626  0.6397 -0.4474
  192MOL0     C26386   0.950   4.427  12.107  0.5278 -0.2930  0.1454
  192MOL0     C26387   0.956   4.285  11.882  0.0272  0.3175 -1.0307
  192MOL0     C26388   0.843   4.361  11.820  0.8289  0.4933  0.0687
  192MOL0     O26389   0.764   4.430  11.900  0.7387  0.0745 -0.5059
  192MOL0     C26390   0.642   4.491  11.870  0.0322 -0.2781 -0.5128
  192MOL0     C26391   0.527   4.418  11.846  0.2133 -0.6383 -0.1369
  192MOL0     C26392   0.415   4.480  11.794  0.3318 -0.3091 -0.2159
  192MOL0     C26393   0.405   4.612  11.759  0.4608  0.4159 -0.4901
  192MOL0     O26394   0.302   4.680  11.705 -0.1924  0.3528  0.2057
  192MOL0     C26395   0.170   4.628  11.708 -1.3951  0.5015 -0.2451
  192MOL0     C26396   0.079   4.712  11.620 -0.4002  0.5862  0.1266
  192MOL0     C26397   0.068   4.863  11.664  0.2623  0.0765  0.0710
  192MOL0     C26398  -0.032   4.878  11.776  0.6094 -0.4186 -0.5088
  192MOL0     C26399  -0.047   5.029  11.813 -0.0525 -0.0081  0.5494
  192MOL0     C26400  -0.178   5.042  11.896  0.1111  0.1097 -0.1427
  192MOL0     C26401  -0.228   5.181  11.872  0.0051 -0.5368  0.5710
  192MOL0     C26402  -0.312   5.180  11.755  0.6783 -0.2759  0.3712
  192MOL0    Cl26403  -0.455   5.072  11.759 -0.1116  0.1118  0.1120
  192MOL0     C26404   0.521   4.686  11.779  0.2307 -0.0021  1.0904
  192MOL0     C26405   0.638   4.628  11.826 -0.3795 -0.4142  0.0446
  192MOL0     O26406   0.815   4.327  11.702 -0.3648 -0.4178 -0.3129
  192MOL0     C26407   1.015   4.175  11.812 -0.6145 -0.6428 -0.1716
  192MOL0     C26408   1.116   4.100  11.867 -0.1734 -0.4026  0.0221
  192MOL0     N26409   1.727   3.810  12.188  0.2523  0.7278  0.1152
  192MOL0     N26410   1.785   3.704  12.132 -0.4383 -0.0976 -0.2673
  192MOL0     C26411   1.310   3.438  11.168  0.8522 -0.1101  0.1510
  192MOL0     C26412   1.248   3.522  11.069 -0.3964 -0.1479 -0.1710
  192MOL0     C26413   1.028   3.897  10.907 -1.0112  1.2215 -0.7063
  192MOL0     C26414   0.914   3.960  10.950 -0.2230 -0.3951  1.1867
  192MOL0     C26415   0.841   4.042  10.871 -0.6424 -0.0214  0.0913
  192MOL0     C26416   0.880   4.070  10.741 -0.3755  0.7618 -0.1151
  192MOL0     O26417   0.828   4.154  10.651 -0.1006 -0.1449  0.2389
  192MOL0     C26418   0.713   4.235  10.698 -0.2948 -0.2737 -0.7489
  192MOL0     C26419   0.566   4.167  10.709  0.2605 -0.0995 -0.0658
  192MOL0     C26420   0.516   4.097  10.585 -0.5005 -0.3423  0.5528
  192MOL0     C26421   0.399   3.999  10.611 -0.3315  0.2511  1.1769
  192MOL0     C26422   0.440   3.856  10.617  0.0549  0.6440  0.7568
  192MOL0     C26423   0.453   3.738  10.644 -0.5216 -0.1110 -0.2473
  192MOL0     C26424   1.005   4.017  10.698 -0.1241  0.5476 -0.9507
  192MOL0     C26425   1.076   3.926  10.778  0.4864 -0.0392  0.8201
  192MOL0     C26426   1.201   3.866  10.705  0.7758 -0.6803 -0.3093
  192MOL0     H26427   1.398   3.818  11.139 -1.5624 -0.4474  0.2381
  192MOL0     H26428   1.511   3.680  11.300 -1.3099 -0.8307  0.4923
  192MOL0     H26429   1.382   3.527  11.486 -0.1474 -0.6374  1.1892
  192MOL0     H26430   1.555   3.540  11.497 -2.7578  1.8601  2.0459
  192MOL0     H26431   1.389   3.292  11.541  3.0874 -1.8186 -3.2943
  192MOL0     H26432   1.571   3.311  11.554  1.0498 -0.3829  1.7697
  192MOL0     H26433   1.552   3.461  11.745 -0.4430 -0.8835  1.9645
  192MOL0     H26434   1.385   3.483  11.715 -0.4282 -0.4496  0.7022
  192MOL0     H26435   1.392   3.347  11.901 -0.4402 -0.2126 -1.4964
  192MOL0     H26436   1.362   3.226  11.782 -1.8761 -0.5622  3.1330
  192MOL0     H26437   1.597   3.153  11.788  0.6998  1.8599 -1.3764
  192MOL0     H26438   1.526   3.148  11.942 -2.1855  2.0923 -0.0466
  192MOL0     H26439   1.749   3.252  11.968 -0.3899 -0.0968  0.2806
  192MOL0     H26440   1.727   3.353  11.819 -2.6003  2.4012 -0.4383
  192MOL0     H26441   1.547   3.408  12.047  2.7130 -3.7059  4.1625
  192MOL0     H26442   1.623   3.533  11.950 -0.2399 -0.3271 -1.5125
  192MOL0     H26443   1.724   3.376  12.182 -2.7652  1.4348  2.3012
  192MOL0     H26444   1.842   3.462  12.064 -0.7662  0.7863 -0.3206
  192MOL0     H26445   1.544   3.562  12.320  0.8806 -0.4724  0.8410
  192MOL0     H26446   1.554   3.932  12.356 -0.1107  1.4333 -1.7905
  192MOL0     H26447   1.485   3.791  12.427 -0.1363  1.8875  0.4662
  192MOL0     H26448   1.319   3.767  12.219  1.2033  0.3424 -2.9988
  192MOL0     H26449   1.325   3.926  12.292  1.6247 -2.0275  4.3822
  192MOL0     H26450   1.508   3.974  12.109 -0.6890  0.2859  2.8347
  192MOL0     H26451   1.471   3.811  12.048 -3.0893 -3.0819  2.4417
  192MOL0     H26452   1.362   3.970  11.922  1.7283  2.5453  1.6108
  192MOL0     H26453   1.239   3.860  12.002  0.0501 -1.2193  1.0985
  192MOL0     H26454   1.149   4.264  12.168  1.7470 -0.3857 -0.0191
  192MOL0     H26455   1.017   4.450  12.191 -0.6214  1.6732  0.6052
  192MOL0     H26456   0.853   4.399  12.148  1.1828 -0.1773  1.8472
  192MOL0     H26457   0.947   4.519  12.047  2.2228  0.3534  0.9719
  192MOL0     H26458   0.529   4.309  11.853 -1.6086 -0.8326 -1.6924
  192MOL0     H26459   0.336   4.413  11.759  0.9071 -1.6544  0.9384
  192MOL0     H26460   0.172   4.528  11.664  0.7875  0.1614  0.5176
  192MOL0     H26461   0.140   4.631  11.813 -0.8618  0.0197 -0.0728
  192MOL0     H26462   0.118   4.711  11.518  0.9732 -1.0741  0.6114
  192MOL0     H26463  -0.019   4.665  11.614  1.2058 -3.3933  1.2714
  192MOL0     H26464   0.024   4.917  11.579  0.0521  2.3985  1.5833
  192MOL0     H26465   0.165   4.909  11.685  0.1917  1.5418 -2.4129
  192MOL0     H26466  -0.000   4.836  11.872  0.4305  0.7147  0.0664
  192MOL0     H26467  -0.133   4.849  11.746  0.4737  0.9320 -1.4681
  192MOL0     H26468   0.039   5.067  11.868  1.6602  0.1497 -2.0606
  192MOL0     H26469  -0.050   5.075  11.714 -2.9068  1.1103  1.0411
  192MOL0     H26470  -0.152   5.041  12.002 -2.9658  3.6963  0.8754
  192MOL0     H26471  -0.253   4.963  11.891 -0.5293  0.6505  0.6397
  192MOL0     H26472  -0.148   5.256  11.867  0.4036 -0.9517  0.6949
  192MOL0     H26473  -0.297   5.213  11.951 -0.0728 -1.1627  0.7626
  192MOL0     H26474  -0.249   5.153  11.670  1.7842  1.6077  0.5423
  192MOL0     H26475  -0.351   5.281  11.742  0.0067 -0.5228  0.4510
  192MOL0     H26476   0.510   4.785  11.738  0.8421 -1.0553 -1.8487
  192MOL0     H26477   0.733   4.681  11.827 -0.5478 -0.1078  0.5397
  192MOL0     H26478   0.988   4.152  11.710  1.4798 -0.4825 -0.7939
  192MOL0     H26479   1.153   4.023  11.799  2.4833  1.1333 -0.4226
  192MOL0     H26480   1.295   3.332  11.185  1.4452  0.1294  2.7334
  192MOL0     H26481   1.190   3.472  10.992  0.2606 -1.1711 -0.0179
  192MOL0     H26482   0.882   3.947  11.053  1.3064  0.3673  1.7879
  192MOL0     H26483   0.762   4.094  10.923 -0.0971 -0.8687  1.8406
  192MOL0     H26484   0.737   4.291  10.788 -0.4137  2.6698 -2.4339
  192MOL0     H26485   0.705   4.310  10.619  1.1543 -1.0549 -1.6837
  192MOL0     H26486   0.494   4.240  10.745  1.4897  1.5323 -0.7886
  192MOL0     H26487   0.570   4.096  10.792  1.0214  1.7580  1.5695
  192MOL0     H26488   0.479   4.176  10.519  2.3875  2.8998  2.4860
  192MOL0     H26489   0.602   4.042  10.545  0.6589 -0.7802  3.4271
  192MOL0     H26490   0.332   4.006  10.525  2.6814  0.5736 -1.3000
  192MOL0     H26491   0.336   4.033  10.694 -0.8711  3.2793 -0.3128
  192MOL0     H26492   0.469   3.634  10.662  1.1671 -0.2528 -2.1427
  192MOL0     H26493   1.041   4.057  10.604  2.6753  1.3696  0.3639
  192MOL0     H26494   1.281   3.917  10.760 -0.9616  1.8041  0.0975
  192MOL0     H26495   1.196   3.759  10.726 -1.1047 -0.9538 -1.8936
  192MOL0     H26496   1.207   3.888  10.598 -2.0718  1.7411 -0.1064
  193MOL0     O26497  10.953   5.867  10.623  0.4875  0.4604  0.0884
  193MOL0     C26498  11.030   5.770  10.650  0.3974 -0.2887  0.2721
  193MOL0     O26499  10.988   5.639  10.682 -0.3049  0.6948  0.7006
  193MOL0     C26500  10.857   5.605  10.658 -0.1571  0.4135  0.1611
  193MOL0     C26501  10.749   5.663  10.723 -0.0358  0.5638 -0.3339
  193MOL0     C26502  10.619   5.621  10.694 -0.1165 -0.4346  0.0431
  193MOL0     C26503  10.592   5.512  10.609  0.2126 -0.0044  0.1179
  193MOL0     O26504  10.459   5.483  10.592 -0.8251  0.0270  0.1815
  193MOL0     C26505  10.421   5.380  10.498  0.4456 -0.4943 -0.0680
  193MOL0     C26506  10.440   5.238  10.548 -0.1471 -0.6051 -0.6138
  193MOL0     C26507  10.443   5.124  10.444 -0.1357  0.4804  0.2601
  193MOL0     C26508  10.473   4.986  10.520  1.0003  0.0425 -0.5392
  193MOL0     C26509  10.499   4.871  10.424 -0.4793  0.3543 -0.5284
  193MOL0     C26510  10.401   4.856  10.300  0.3385  0.8012 -0.0445
  193MOL0     C26511  10.416   4.723  10.231 -0.4725  0.5090  0.4268
  193MOL0     C26512  10.280   4.684  10.165 -0.2350  0.3979  0.2561
  193MOL0     N26513  10.280   4.550  10.112  0.1584  0.6364  0.4589
  193MOL0     C26514  10.321   4.506   9.981 -0.4387 -0.5663 -0.8664
  193MOL0     C26515  10.315   4.371   9.988  0.4101 -0.3362  0.4672
  193MOL0     C26516  10.346   4.279   9.874  0.4173 -0.0406 -0.6227
  193MOL0     C26517  10.338   4.140   9.929 -0.7369  0.2608 -0.0725
  193MOL0     C26518  10.383   4.015   9.840 -0.5827 -0.1873 -0.2303
  193MOL0     C26519  10.538   4.010   9.806  0.5696  0.4127  0.2276
  193MOL0     O26520  10.556   3.889   9.737  0.6401 -0.0768  0.5605
  193MOL0     C26521  10.681   3.860   9.700 -0.3367  0.1468 -0.0415
  193MOL0     C26522  10.685   3.764   9.601  0.6029 -0.3829 -0.3192
  193MOL0     C26523  10.800   3.704   9.557 -0.3434 -1.2286  0.7502
  193MOL0     C26524  10.789   3.588   9.461 -0.0955  0.1261  0.4296
  193MOL0     C26525  10.923   3.760   9.602 -0.3215  0.7513 -0.8902
  193MOL0     C26526  11.059   3.715   9.562 -0.8240 -0.8499 -0.4870
  193MOL0     O26527  11.070   3.648   9.446  0.9004  0.0211 -0.5079
  193MOL0     C26528  11.189   3.602   9.410  1.0292  0.1050  0.0254
  193MOL0     C26529  11.265   3.533   9.505  0.4132 -0.0413  0.6081
  193MOL0     C26530  11.392   3.475   9.470 -0.4492  0.1246 -0.0530
  193MOL0     C26531  11.430   3.468   9.328 -0.0147  0.6216  0.7764
  193MOL0     O26532  11.546   3.405   9.286  0.6581  0.4022 -0.7183
  193MOL0     C26533  11.648   3.473   9.205 -1.3176  0.1294 -1.1732
  193MOL0     C26534  11.693   3.391   9.092  0.5526 -0.2536 -0.0602
  193MOL0     C26535  11.754   3.258   9.121  0.5087  0.3818  0.1952
  193MOL0     C26536  11.877   3.272   9.202 -0.4621  0.4734 -0.2352
  193MOL0     C26537  11.953   3.141   9.214 -0.4370 -0.5693  0.6762
  193MOL0     C26538  12.059   3.163   9.323 -1.0957  1.1075 -0.4892
  193MOL0     C26539  12.133   3.030   9.352 -0.2816 -0.6529  1.0204
  193MOL0     C26540  12.281   3.057   9.395 -0.0952 -0.2442 -0.1331
  193MOL0    Cl26541  12.276   3.130   9.570  0.2528 -0.1663  0.1211
  193MOL0     C26542  11.344   3.528   9.243 -0.4554 -0.5938  0.3176
  193MOL0     C26543  11.230   3.602   9.276 -0.0594  0.0496 -0.1402
  193MOL0     O26544  11.156   3.758   9.632 -0.6098 -1.0695  0.9242
  193MOL0     C26545  10.921   3.863   9.698  0.5309  0.4811  0.5300
  193MOL0     C26546  10.802   3.916   9.750 -0.8775 -0.3119  0.5334
  193MOL0     N26547  10.272   4.333  10.112  0.4827 -0.2310  0.4531
  193MOL0     N26548  10.239   4.436  10.188 -0.6275 -0.1566 -0.1586
  193MOL0     C26549  10.696   5.455  10.541  0.1678  0.0475  0.7688
  193MOL0     C26550  10.832   5.506  10.565 -0.1200  0.1601 -1.0951
  193MOL0     C26551  11.170   5.806  10.662  0.2727  0.2632  0.7057
  193MOL0     C26552  11.256   5.708  10.719  1.0240  0.0715  0.1440
  193MOL0     C26553  11.396   5.724  10.721 -0.2845  0.3260  0.2710
  193MOL0     C26554  11.456   5.833  10.662  0.5712 -0.2065  0.1509
  193MOL0     O26555  11.591   5.837  10.668 -0.1778 -0.2331  1.1876
  193MOL0     C26556  11.667   5.951  10.604  0.2380  0.6981 -0.1434
  193MOL0     C26557  11.662   5.926  10.457  0.5503  0.6935  0.4351
  193MOL0     C26558  11.766   5.996  10.382 -0.0247 -0.1968  0.1900
  193MOL0     C26559  11.717   6.110  10.291 -0.4500 -0.5919 -0.1046
  193MOL0     C26560  11.660   6.213  10.374  0.3481 -0.2209  0.4251
  193MOL0     C26561  11.644   6.306  10.455 -0.3852  1.0353  0.6336
  193MOL0     C26562  11.370   5.935  10.609  0.4614 -0.3460  0.0642
  193MOL0     C26563  11.230   5.914  10.604  0.7521  0.5731  0.1518
  193MOL0     C26564  11.155   6.027  10.535 -0.0718 -0.7457  0.5767
  193MOL0     H26565  10.768   5.737  10.800 -3.5693  1.4933 -0.1691
  193MOL0     H26566  10.540   5.669  10.751  1.8038  0.9722  1.6592
  193MOL0     H26567  10.479   5.406  10.409 -0.2588  1.0412 -0.0999
  193MOL0     H26568  10.314   5.389  10.477  0.0943  0.3593  1.8553
  193MOL0     H26569  10.533   5.237  10.606  0.3529  0.3099 -1.3777
  193MOL0     H26570  10.356   5.223  10.616  0.9615 -1.9407  0.5442
  193MOL0     H26571  10.350   5.117  10.387  0.4281 -1.3325 -0.5068
  193MOL0     H26572  10.522   5.119  10.369  0.0332 -2.9397  0.4981
  193MOL0     H26573  10.557   4.988  10.590 -0.6261  0.7288  1.4921
  193MOL0     H26574  10.384   4.971  10.582  1.0705  1.1747 -0.1502
  193MOL0     H26575  10.506   4.776  10.476  0.2814  0.8916  0.3797
  193MOL0     H26576  10.592   4.891  10.371 -0.0680 -0.0420  0.0432
  193MOL0     H26577  10.303   4.851  10.348  1.2161  0.5095  1.7828
  193MOL0     H26578  10.409   4.944  10.236 -3.8966  1.6444  0.2710
  193MOL0     H26579  10.433   4.647  10.308  3.1796  1.7845  1.0833
  193MOL0     H26580  10.493   4.717  10.153 -3.5269  0.5537 -2.8293
  193MOL0     H26581  10.197   4.690  10.236 -1.1965  1.2083 -0.9033
  193MOL0     H26582  10.257   4.764  10.094 -1.2139 -0.1142 -0.0183
  193MOL0     H26583  10.352   4.581   9.908 -1.6276 -0.7079 -1.5429
  193MOL0     H26584  10.444   4.304   9.834  0.8166 -0.6714 -0.0460
  193MOL0     H26585  10.275   4.288   9.791  0.3664 -0.5986 -0.6415
  193MOL0     H26586  10.399   4.130  10.019  2.4639 -1.3246 -2.2320
  193MOL0     H26587  10.242   4.112   9.974  0.0987 -0.6596  1.2060
  193MOL0     H26588  10.357   3.923   9.895  1.3695 -1.3203 -1.1051
  193MOL0     H26589  10.319   4.017   9.751  1.8319  2.1995 -2.0608
  193MOL0     H26590  10.566   4.099   9.750 -2.4085  0.9889 -0.4893
  193MOL0     H26591  10.590   4.007   9.902 -0.1188 -0.2208  0.5839
  193MOL0     H26592  10.593   3.714   9.574 -0.7796  2.7723 -2.0171
  193MOL0     H26593  10.807   3.620   9.358  0.4175  0.8988  0.7498
  193MOL0     H26594  10.687   3.550   9.464  0.2283 -0.7453  0.7019
  193MOL0     H26595  10.851   3.502   9.486 -1.3822 -0.3191  2.3437
  193MOL0     H26596  11.249   3.526   9.612 -1.5864  3.0992  0.6387
  193MOL0     H26597  11.449   3.420   9.544  0.2147 -0.4741 -0.9844
  193MOL0     H26598  11.616   3.570   9.166  0.2728  0.5769 -1.4667
  193MOL0     H26599  11.730   3.493   9.274 -0.6860 -1.4666 -1.4127
  193MOL0     H26600  11.603   3.384   9.029  0.4030  1.8021 -0.1441
  193MOL0     H26601  11.764   3.450   9.033  2.1606  0.0276  2.0244
  193MOL0     H26602  11.765   3.202   9.028 -1.1936  0.3026  0.0140
  193MOL0     H26603  11.688   3.193   9.179  0.5140 -1.6583 -1.9511
  193MOL0     H26604  11.846   3.293   9.304  0.3654  1.0187 -0.0830
  193MOL0     H26605  11.933   3.360   9.167 -1.1266  1.6595  1.5526
  193MOL0     H26606  11.890   3.059   9.249 -1.4431  0.0578  0.3968
  193MOL0     H26607  11.998   3.120   9.117 -0.3300  1.4093  0.2473
  193MOL0     H26608  12.016   3.189   9.420  0.4512  1.6085  0.0995
  193MOL0     H26609  12.127   3.246   9.300 -0.4373  0.9164  0.6896
  193MOL0     H26610  12.129   2.958   9.270  1.7697 -1.2604  1.4115
  193MOL0     H26611  12.076   2.987   9.435  0.8277 -1.9057  1.1720
  193MOL0     H26612  12.325   3.124   9.321 -0.0284  1.0747  1.0653
  193MOL0     H26613  12.325   2.957   9.402 -2.2936 -1.3555 -1.0093
  193MOL0     H26614  11.340   3.487   9.143 -3.2809 -2.7715  1.1980
  193MOL0     H26615  11.159   3.624   9.196 -2.2645 -2.9981  0.7806
  193MOL0     H26616  11.011   3.916   9.727  0.8457 -0.6316  1.6794
  193MOL0     H26617  10.804   3.999   9.820  1.1689  3.0260 -3.0505
  193MOL0     H26618  10.687   5.378  10.466 -1.9509  0.9519  0.0192
  193MOL0     H26619  10.917   5.476  10.506 -1.7864 -0.7888 -3.1169
  193MOL0     H26620  11.210   5.621  10.764 -0.1174  1.9950  2.9944
  193MOL0     H26621  11.454   5.643  10.763 -1.0382  0.4541  1.6212
  193MOL0     H26622  11.639   6.053  10.629  1.1989  0.9554 -0.0940
  193MOL0     H26623  11.771   5.936  10.634  0.6403 -0.1330 -1.7967
  193MOL0     H26624  11.566   5.970  10.428 -0.5017 -0.6865  1.6709
  193MOL0     H26625  11.664   5.819  10.435  2.2352  0.7119  0.3650
  193MOL0     H26626  11.842   6.034  10.451 -0.0380 -3.6969  2.3861
  193MOL0     H26627  11.814   5.917  10.322 -0.7513  1.0038 -2.0738
  193MOL0     H26628  11.637   6.074  10.226 -2.9955  3.2465  0.5651
  193MOL0     H26629  11.802   6.156  10.241 -1.1427 -0.1311 -0.8925
  193MOL0     H26630  11.635   6.397  10.512 -0.1834  0.7198  1.1824
  193MOL0     H26631  11.408   6.022  10.555  0.1731 -0.8422 -0.9623
  193MOL0     H26632  11.085   5.999  10.456 -1.4127  2.7161  0.3787
  193MOL0     H26633  11.089   6.088  10.598 -0.2720  0.0234 -0.3607
  193MOL0     H26634  11.230   6.091  10.490 -1.4186  1.4009  1.2298
  194MOL0     O26635   5.185   9.593   4.177  0.0037 -0.1735  0.0517
  194MOL0     C26636   5.221   9.498   4.248  0.1322 -0.3201 -0.3304
  194MOL0     O26637   5.321   9.512   4.342  0.1963 -0.1967 -0.2179
  194MOL0     C26638   5.360   9.645   4.364  0.4704  0.5836  0.1009
  194MOL0     C26639   5.319   9.704   4.482 -0.9522 -0.2783  0.0905
  194MOL0     C26640   5.369   9.821   4.530  0.2867 -0.0856  0.3792
  194MOL0     C26641   5.460   9.891   4.455  0.4837  1.0046  0.0162
  194MOL0     O26642   5.511  10.003   4.522  0.1755 -0.4181  0.9541
  194MOL0     C26643   5.571  10.113   4.440  0.5443  0.8939 -1.1786
  194MOL0     C26644   5.683  10.191   4.501 -0.6307  0.0061 -0.7826
  194MOL0     C26645   5.639  10.250   4.640  0.9390  0.9003 -0.8737
  194MOL0     C26646   5.747  10.313   4.715 -0.4196 -0.1618 -0.0272
  194MOL0     C26647   5.698  10.398   4.833 -0.0507  0.2752  0.6058
  194MOL0     C26648   5.613  10.326   4.936  0.1059 -0.0847 -0.3027
  194MOL0     C26649   5.519  10.421   5.009  0.5760  0.2588 -0.0108
  194MOL0     C26650   5.418  10.350   5.102 -0.3655  0.8830 -0.3316
  194MOL0     N26651   5.495  10.279   5.207  0.0243 -0.0762  0.1095
  194MOL0     C26652   5.585  10.349   5.283  0.9401  1.0774  0.1516
  194MOL0     C26653   5.664  10.250   5.334  0.4856  0.0865  0.4270
  194MOL0     C26654   5.793  10.271   5.401 -0.0680 -0.0265 -0.6593
  194MOL0     C26655   5.905  10.286   5.310  0.1094 -0.2386  0.2269
  194MOL0     C26656   5.937  10.154   5.232 -0.1681 -0.2730  0.1332
  194MOL0     C26657   5.995  10.184   5.100 -0.0480  0.2503 -0.5788
  194MOL0     O26658   6.131  10.233   5.107 -0.5014  0.2783  0.2062
  194MOL0     C26659   6.197  10.266   4.994 -0.8335  0.1811  0.4960
  194MOL0     C26660   6.153  10.238   4.866  0.5848 -0.5587  0.5722
  194MOL0     C26661   6.231  10.264   4.754  0.4871  0.5189  0.1814
  194MOL0     C26662   6.171  10.212   4.622 -0.3899 -1.1633  0.6995
  194MOL0     C26663   6.359  10.325   4.767 -0.4731  0.2877  0.9312
  194MOL0     C26664   6.455  10.349   4.655  0.1510 -0.0506  0.5954
  194MOL0     O26665   6.591  10.374   4.691 -0.3535  0.6749  0.7825
  194MOL0     C26666   6.703  10.352   4.608  0.6496 -0.2989  0.5534
  194MOL0     C26667   6.811  10.429   4.629  0.8889  0.4583 -0.5294
  194MOL0     C26668   6.912  10.434   4.536 -0.1576  0.8163  0.8040
  194MOL0     C26669   6.917  10.346   4.431 -0.7538  0.5728  0.3271
  194MOL0     O26670   7.023  10.347   4.339 -0.3158  0.3533  0.3120
  194MOL0     C26671   7.132  10.439   4.360 -0.3374  1.5662  0.4696
  194MOL0     C26672   7.237  10.432   4.255 -0.1742 -0.0854 -0.0591
  194MOL0     C26673   7.184  10.457   4.116  0.1173  0.8807 -0.5795
  194MOL0     C26674   7.296  10.441   4.017 -0.6774 -0.5110  0.3165
  194MOL0     C26675   7.254  10.429   3.875 -0.5280 -0.2165  0.0798
  194MOL0     C26676   7.383  10.441   3.787 -0.4401 -0.1817  0.6511
  194MOL0     C26677   7.362  10.446   3.633  0.5856 -0.4537 -0.1987
  194MOL0     C26678   7.469  10.530   3.571 -0.1378 -0.9713  0.1055
  194MOL0    Cl26679   7.623  10.462   3.618 -0.0678 -0.2979  0.3021
  194MOL0     C26680   6.813  10.256   4.413  0.6062  0.0857  0.2850
  194MOL0     C26681   6.704  10.257   4.503 -0.4492 -0.8179 -0.5885
  194MOL0     O26682   6.414  10.348   4.536 -0.3024 -0.0650  0.5388
  194MOL0     C26683   6.401  10.353   4.897 -0.0564  0.1919 -0.3132
  194MOL0     C26684   6.320  10.323   5.005 -0.4720  0.0486 -0.7239
  194MOL0     N26685   5.602  10.123   5.301 -0.4646 -0.0356 -0.0225
  194MOL0     N26686   5.499  10.146   5.233  0.1162 -1.0716  0.3786
  194MOL0     C26687   5.509   9.827   4.331  0.8397 -0.1140  0.2892
  194MOL0     C26688   5.453   9.712   4.278 -0.7478  0.6527 -0.8672
  194MOL0     C26689   5.173   9.363   4.222 -0.4350 -0.0991 -0.0561
  194MOL0     C26690   5.227   9.254   4.308 -0.0063 -0.3654 -0.3346
  194MOL0     C26691   5.192   9.116   4.296 -0.7832 -1.0900  0.3967
  194MOL0     C26692   5.109   9.088   4.191 -0.7168  0.7181 -0.8706
  194MOL0     O26693   5.095   8.952   4.185  0.6540  0.5682 -0.3073
  194MOL0     C26694   4.988   8.889   4.117 -0.2309 -0.3932  0.4885
  194MOL0     C26695   4.974   8.739   4.156 -0.7180 -0.4629 -0.4655
  194MOL0     C26696   4.875   8.667   4.065  0.1852 -0.6486  0.6320
  194MOL0     C26697   4.746   8.628   4.132  1.3236 -0.1253  0.0565
  194MOL0     C26698   4.662   8.741   4.144 -0.1896  1.0001 -0.1828
  194MOL0     C26699   4.588   8.833   4.172 -0.3014 -0.3803  0.4556
  194MOL0     C26700   5.051   9.185   4.118  0.0542 -0.0825 -0.0149
  194MOL0     C26701   5.067   9.323   4.137  0.8685 -0.1636  0.5720
  194MOL0     C26702   4.980   9.424   4.047 -0.1567  1.2447 -0.3215
  194MOL0     H26703   5.261   9.650   4.557  1.1837 -2.6652  0.1534
  194MOL0     H26704   5.330   9.868   4.620 -1.3438  0.0825 -0.3764
  194MOL0     H26705   5.487  10.176   4.409 -0.8148 -0.7544 -1.0052
  194MOL0     H26706   5.615  10.069   4.350 -0.7435  2.3777 -2.6010
  194MOL0     H26707   5.772  10.128   4.515 -1.3756 -1.2593 -1.5132
  194MOL0     H26708   5.717  10.271   4.435 -0.2612 -0.2258 -0.8786
  194MOL0     H26709   5.554  10.318   4.639 -2.0189 -2.3120  2.6508
  194MOL0     H26710   5.605  10.162   4.696  3.6673 -0.9878 -1.9160
  194MOL0     H26711   5.807  10.232   4.757 -0.7160  0.1131  0.9376
  194MOL0     H26712   5.812  10.374   4.650 -0.1138  0.5912  0.9662
  194MOL0     H26713   5.642  10.485   4.800 -0.1635  0.5666  1.5649
  194MOL0     H26714   5.787  10.443   4.877  0.9913  0.6255 -1.6820
  194MOL0     H26715   5.561  10.237   4.898  0.2602  0.6705 -2.4387
  194MOL0     H26716   5.688  10.285   5.004  0.5681  0.5982 -0.3875
  194MOL0     H26717   5.454  10.461   4.931 -2.5080 -2.8173  0.7317
  194MOL0     H26718   5.572  10.502   5.060  1.1195 -1.1306  1.7401
  194MOL0     H26719   5.358  10.419   5.162 -0.3672 -0.4698  1.2699
  194MOL0     H26720   5.349  10.280   5.055 -1.3397 -0.0855  2.3619
  194MOL0     H26721   5.587  10.456   5.298 -2.2245  1.2064  0.2700
  194MOL0     H26722   5.822  10.183   5.460  1.0873 -0.9475 -2.5067
  194MOL0     H26723   5.780  10.359   5.465 -0.8700 -0.0755 -0.7430
  194MOL0     H26724   5.882  10.360   5.233  0.9159 -0.1865  0.0172
  194MOL0     H26725   5.999  10.315   5.358  1.1348 -1.3369 -0.9961
  194MOL0     H26726   6.005  10.088   5.285  0.5040  0.4548  0.1972
  194MOL0     H26727   5.841  10.104   5.212 -0.2516 -1.7225  3.4528
  194MOL0     H26728   6.000  10.092   5.042 -0.2890  1.5626 -2.8050
  194MOL0     H26729   5.929  10.244   5.036 -1.6799 -0.1481  0.6586
  194MOL0     H26730   6.052  10.203   4.850  0.8660 -0.6049 -1.2417
  194MOL0     H26731   6.128  10.293   4.562  1.3492 -2.7824 -3.0855
  194MOL0     H26732   6.097  10.134   4.640 -0.7745 -1.1561 -0.6869
  194MOL0     H26733   6.246  10.168   4.555 -2.4673 -1.6270 -1.4675
  194MOL0     H26734   6.811  10.495   4.715  3.6076  2.3303 -1.8213
  194MOL0     H26735   6.993  10.500   4.566  1.1829  0.1208 -1.1291
  194MOL0     H26736   7.085  10.538   4.369 -2.8096  0.5145 -0.0603
  194MOL0     H26737   7.178  10.421   4.457  0.9094  0.6740 -0.2592
  194MOL0     H26738   7.308  10.511   4.284  0.4610 -0.8529  0.5116
  194MOL0     H26739   7.289  10.336   4.260  1.8412  0.8486 -1.3627
  194MOL0     H26740   7.138  10.555   4.102 -0.9570  0.1611 -2.5378
  194MOL0     H26741   7.098  10.392   4.095 -0.6727  1.5946  0.3881
  194MOL0     H26742   7.354  10.349   4.033 -0.6854 -0.4107  0.9447
  194MOL0     H26743   7.364  10.523   4.040 -2.5661  1.1167  0.3334
  194MOL0     H26744   7.212  10.330   3.854  3.1825 -1.6228 -1.3710
  194MOL0     H26745   7.178  10.508   3.864 -0.7000 -0.2434  0.9748
  194MOL0     H26746   7.441  10.348   3.791 -1.6138 -1.1566 -2.3420
  194MOL0     H26747   7.454  10.520   3.814  1.8178 -0.9313 -2.5522
  194MOL0     H26748   7.266  10.490   3.606  0.9808 -0.5997 -1.9325
  194MOL0     H26749   7.358  10.342   3.599 -1.3855 -1.8284  3.5741
  194MOL0     H26750   7.457  10.631   3.612  1.0049 -1.3780  1.5133
  194MOL0     H26751   7.457  10.534   3.463 -1.8832  1.0648  0.3031
  194MOL0     H26752   6.795  10.192   4.328 -2.3365 -1.5144  1.9781
  194MOL0     H26753   6.612  10.200   4.492 -2.6909  1.9921  1.6439
  194MOL0     H26754   6.498  10.397   4.915  0.0659 -0.0247 -0.4308
  194MOL0     H26755   6.352  10.360   5.102 -2.0001 -3.1124  1.1320
  194MOL0     H26756   5.592   9.862   4.270 -0.8175  1.9792 -0.9362
  194MOL0     H26757   5.485   9.659   4.188 -3.3748  0.4083 -1.7369
  194MOL0     H26758   5.297   9.281   4.386 -0.8756  1.2516 -0.0767
  194MOL0     H26759   5.252   9.044   4.351  0.6562 -0.4990 -0.3447
  194MOL0     H26760   4.893   8.935   4.144 -1.1040 -1.3302 -0.8097
  194MOL0     H26761   5.003   8.904   4.010  0.0467  0.0122  0.5861
  194MOL0     H26762   4.944   8.761   4.259 -0.6433  2.1765 -0.9271
  194MOL0     H26763   5.073   8.692   4.153 -0.4824 -0.3420  2.3513
  194MOL0     H26764   4.855   8.727   3.976  1.5709 -0.5606  0.3698
  194MOL0     H26765   4.922   8.578   4.025 -1.7195 -1.6400  0.4684
  194MOL0     H26766   4.761   8.579   4.229 -2.4781 -4.1823 -1.1220
  194MOL0     H26767   4.685   8.567   4.066  1.4471 -2.1946  1.7326
  194MOL0     H26768   4.531   8.914   4.213  0.9301  0.0970  1.2884
  194MOL0     H26769   4.974   9.144   4.052  0.6161 -0.4990 -0.4199
  194MOL0     H26770   5.005   9.407   3.942  0.3836 -0.1004 -0.0075
  194MOL0     H26771   4.876   9.395   4.067  0.0637  0.4796 -0.2267
  194MOL0     H26772   4.994   9.529   4.072 -1.5557  1.5310 -0.7094
  195MOL0     O26773   0.610   5.925   7.730 -1.0318 -0.0677  0.6091
  195MOL0     C26774   0.592   6.033   7.781  0.7554  0.0053 -0.1067
  195MOL0     O26775   0.680   6.100   7.863  0.3930 -0.3394  0.3516
  195MOL0     C26776   0.819   6.083   7.834 -0.1734 -0.1743  0.1718
  195MOL0     C26777   0.903   6.091   7.943 -1.1332  0.0410 -0.4081
  195MOL0     C26778   1.042   6.072   7.927  0.4655  0.4697 -0.3784
  195MOL0     C26779   1.097   6.043   7.803  0.2018  0.1080  1.1205
  195MOL0     O26780   1.228   6.013   7.787 -0.3099 -0.1366 -0.3830
  195MOL0     C26781   1.278   5.970   7.664 -0.0041  0.2031  0.2640
  195MOL0     C26782   1.427   5.940   7.662  0.2906 -0.7072 -1.1469
  195MOL0     C26783   1.447   5.809   7.739 -0.8975 -0.0616  0.6924
  195MOL0     C26784   1.598   5.774   7.771  0.6144 -0.0445 -0.2796
  195MOL0     C26785   1.618   5.620   7.796 -0.1801 -0.8584  0.5692
  195MOL0     C26786   1.747   5.584   7.868 -0.7914 -0.9073  0.3427
  195MOL0     C26787   1.749   5.449   7.931 -0.7102 -0.0423 -0.5758
  195MOL0     C26788   1.748   5.329   7.839 -0.3007 -0.4252 -1.1934
  195MOL0     N26789   1.794   5.222   7.927  0.9041  0.0740 -0.2602
  195MOL0     C26790   1.864   5.113   7.887  0.1202 -0.2312 -0.1782
  195MOL0     C26791   1.896   5.050   8.004 -0.6366 -0.2906 -0.1704
  195MOL0     C26792   1.976   4.931   8.033 -0.1708 -0.4770  0.5185
  195MOL0     C26793   2.129   4.960   8.036  0.5275  0.6295  0.5359
  195MOL0     C26794   2.200   4.838   8.098 -0.1790 -0.5362  0.0628
  195MOL0     C26795   2.350   4.856   8.074 -0.2078 -0.2524 -0.2874
  195MOL0     O26796   2.384   4.830   7.935  0.3107  0.4186  0.1400
  195MOL0     C26797   2.511   4.810   7.885 -0.1783  0.0420 -0.4176
  195MOL0     C26798   2.525   4.727   7.767  0.1369  0.1616 -0.2593
  195MOL0     C26799   2.655   4.706   7.720  0.1063  0.1637 -0.3090
  195MOL0     C26800   2.662   4.619   7.608 -0.1975  0.5847 -0.6547
  195MOL0     C26801   2.767   4.766   7.784 -0.4156  0.4127  0.4792
  195MOL0     C26802   2.902   4.729   7.751  0.6039  0.0842 -0.0806
  195MOL0     O26803   2.994   4.692   7.852  0.2092  0.2510  0.4682
  195MOL0     C26804   3.107   4.631   7.818  0.9783 -0.4095  0.9099
  195MOL0     C26805   3.121   4.508   7.886 -0.6180  0.4342 -0.7506
  195MOL0     C26806   3.249   4.444   7.873  0.6727  0.4018  0.2883
  195MOL0     C26807   3.348   4.492   7.785 -0.1532  0.4683 -0.7143
  195MOL0     O26808   3.460   4.412   7.782 -0.1823  0.3775  1.0834
  195MOL0     C26809   3.559   4.448   7.681  0.0867  0.5995 -0.9711
  195MOL0     C26810   3.671   4.350   7.690  0.8247 -0.9841 -0.8314
  195MOL0     C26811   3.633   4.221   7.619 -0.4231  0.4202 -0.2749
  195MOL0     C26812   3.713   4.184   7.496 -0.8228 -0.2719  0.7829
  195MOL0     C26813   3.642   4.236   7.369 -0.2307 -0.3720  0.5396
  195MOL0     C26814   3.626   4.387   7.327 -0.3699  0.2516 -0.0294
  195MOL0     C26815   3.772   4.442   7.299  0.0484 -0.0690 -0.2249
  195MOL0     C26816   3.768   4.593   7.278  0.3227 -0.0858 -0.3474
  195MOL0    Cl26817   3.929   4.656   7.219  0.2603 -0.3271  0.5417
  195MOL0     C26818   3.325   4.612   7.716  0.7011  1.1382 -0.4060
  195MOL0     C26819   3.210   4.685   7.731  1.2146  0.7760 -0.0709
  195MOL0     O26820   2.929   4.736   7.631 -0.2933  0.1697 -0.5612
  195MOL0     C26821   2.747   4.858   7.890  0.1761 -0.1176  0.3020
  195MOL0     C26822   2.622   4.880   7.937  0.4168  0.4645 -0.3157
  195MOL0     N26823   1.848   5.122   8.102 -0.4879  0.2337 -0.3370
  195MOL0     N26824   1.781   5.220   8.064  0.4378  0.3354  0.0337
  195MOL0     C26825   1.009   6.061   7.698 -0.1928  1.0250  0.0536
  195MOL0     C26826   0.869   6.073   7.710 -0.2274  0.4273  0.1628
  195MOL0     C26827   0.450   6.080   7.774  0.0932  0.5087 -0.0111
  195MOL0     C26828   0.348   6.011   7.688 -0.5981  0.4343  0.1362
  195MOL0     C26829   0.213   6.062   7.680 -0.2301 -0.5354 -1.3843
  195MOL0     C26830   0.174   6.180   7.753  0.2819 -0.2962  0.2144
  195MOL0     O26831   0.042   6.242   7.737 -0.2239  0.2091  0.3536
  195MOL0     C26832  -0.004   6.354   7.818 -0.7128  0.0741 -0.0171
  195MOL0     C26833  -0.038   6.317   7.955 -0.8406 -1.2784 -0.6793
  195MOL0     C26834  -0.124   6.436   8.005  0.1557 -0.0814 -0.1987
  195MOL0     C26835  -0.145   6.435   8.158 -0.6478  0.5128 -0.0536
  195MOL0     C26836  -0.032   6.488   8.233  0.7142 -0.9021 -1.0094
  195MOL0     C26837   0.043   6.535   8.308 -0.2635 -0.0274  0.1727
  195MOL0     C26838   0.278   6.247   7.821  0.4056 -0.3307 -0.3335
  195MOL0     C26839   0.406   6.196   7.852  0.5820  0.0076 -0.1411
  195MOL0     C26840   0.482   6.282   7.956  0.3237  0.0964 -0.8422
  195MOL0     H26841   0.860   6.106   8.041 -0.7061 -1.5222  0.0420
  195MOL0     H26842   1.107   6.078   8.013 -0.8364  0.5840  0.6295
  195MOL0     H26843   1.257   6.053   7.596 -0.4412  1.7136  2.1534
  195MOL0     H26844   1.222   5.880   7.638 -3.7066  2.1746  0.8247
  195MOL0     H26845   1.471   5.927   7.562 -1.5357 -3.6900 -1.7207
  195MOL0     H26846   1.483   6.022   7.707 -2.4531  0.3027  0.7593
  195MOL0     H26847   1.381   5.814   7.827 -0.5435  3.1666  0.8973
  195MOL0     H26848   1.414   5.731   7.671  0.1123 -0.8654  1.0993
  195MOL0     H26849   1.668   5.801   7.691 -0.7069 -1.8039 -2.1324
  195MOL0     H26850   1.636   5.833   7.855  4.4312  0.7624 -2.3529
  195MOL0     H26851   1.608   5.579   7.695 -0.6660  1.0259 -0.1832
  195MOL0     H26852   1.537   5.586   7.861  1.0174 -2.0174  1.5086
  195MOL0     H26853   1.819   5.593   7.786 -1.6840 -3.2926 -0.7866
  195MOL0     H26854   1.765   5.667   7.936  0.7979  1.5399 -2.7650
  195MOL0     H26855   1.664   5.439   8.000 -0.8129  1.4656 -0.4604
  195MOL0     H26856   1.845   5.460   7.981 -1.5368  3.9967  0.4994
  195MOL0     H26857   1.651   5.302   7.797  0.2384 -0.4096 -2.4925
  195MOL0     H26858   1.797   5.354   7.745 -1.5114  1.1316 -1.4458
  195MOL0     H26859   1.894   5.092   7.785 -0.9127  2.3731 -1.1065
  195MOL0     H26860   1.957   4.863   7.950  0.4610  1.1765 -1.0478
  195MOL0     H26861   1.949   4.871   8.120  4.2530 -2.7237  0.6090
  195MOL0     H26862   2.168   4.988   7.938  2.2479 -1.1246  0.6595
  195MOL0     H26863   2.150   5.046   8.101  1.9780  0.9449 -0.3005
  195MOL0     H26864   2.178   4.838   8.206 -1.0174 -0.0185 -0.1009
  195MOL0     H26865   2.168   4.744   8.053 -1.0070 -0.5008  0.5462
  195MOL0     H26866   2.389   4.951   8.112 -0.4777 -1.7595  4.3280
  195MOL0     H26867   2.409   4.786   8.135  0.4806  0.4666 -0.1069
  195MOL0     H26868   2.438   4.678   7.724 -1.1363 -0.7266  3.0199
  195MOL0     H26869   2.569   4.562   7.611 -0.9420  1.7622 -0.7568
  195MOL0     H26870   2.741   4.545   7.621  0.9538  1.8808  0.0563
  195MOL0     H26871   2.678   4.655   7.506  0.5658 -1.1550 -1.1779
  195MOL0     H26872   3.041   4.469   7.949  1.1671  0.0240  1.4112
  195MOL0     H26873   3.267   4.351   7.927 -2.2024 -0.7393 -0.5023
  195MOL0     H26874   3.530   4.449   7.576 -0.4406  1.3162 -0.8238
  195MOL0     H26875   3.610   4.545   7.686  0.6038  0.2791  0.8859
  195MOL0     H26876   3.752   4.395   7.632  1.0785 -0.2846  0.0403
  195MOL0     H26877   3.693   4.329   7.795 -1.6982  3.3071  0.8016
  195MOL0     H26878   3.524   4.208   7.621 -0.7350  2.7765  0.8589
  195MOL0     H26879   3.661   4.147   7.695 -0.3809 -1.0021 -1.6392
  195MOL0     H26880   3.727   4.076   7.495  1.2072 -0.0405  1.0800
  195MOL0     H26881   3.814   4.225   7.494 -1.5778  1.7422 -1.7239
  195MOL0     H26882   3.700   4.183   7.293  2.2584  0.7208  1.5496
  195MOL0     H26883   3.542   4.192   7.369 -0.9830  1.1725 -1.8707
  195MOL0     H26884   3.576   4.447   7.404 -2.5537 -1.7716  0.2596
  195MOL0     H26885   3.560   4.398   7.241  1.9969  1.0588 -1.8325
  195MOL0     H26886   3.820   4.388   7.217 -0.0861 -0.5548  0.0115
  195MOL0     H26887   3.839   4.425   7.384  0.6819  0.8342 -0.5278
  195MOL0     H26888   3.735   4.639   7.372  3.6570  1.3827  0.2621
  195MOL0     H26889   3.696   4.619   7.200 -0.5718  0.8606  0.7464
  195MOL0     H26890   3.399   4.651   7.648  2.5636  1.2933  1.6030
  195MOL0     H26891   3.203   4.773   7.669  1.3292 -0.1691 -1.4716
  195MOL0     H26892   2.839   4.905   7.923  1.1735 -2.7183  1.4388
  195MOL0     H26893   2.600   4.949   8.018 -4.7362 -2.6235  1.4068
  195MOL0     H26894   1.051   6.065   7.599  0.8405  1.4692  0.4971
  195MOL0     H26895   0.808   6.084   7.621 -4.5899 -2.4781  2.4646
  195MOL0     H26896   0.376   5.925   7.628 -0.1328  0.8705 -0.2763
  195MOL0     H26897   0.143   6.015   7.613  0.1276 -4.0479  0.4763
  195MOL0     H26898   0.073   6.432   7.823  1.2028 -1.7748  0.8603
  195MOL0     H26899  -0.088   6.397   7.763 -0.0481 -0.8700 -1.8714
  195MOL0     H26900   0.058   6.304   8.006  0.2572 -2.5884 -2.9038
  195MOL0     H26901  -0.094   6.223   7.963  2.4255 -3.2901  0.8225
  195MOL0     H26902  -0.067   6.525   7.975 -0.6878  0.5312 -0.0227
  195MOL0     H26903  -0.218   6.439   7.950  0.1975 -0.4084 -0.2902
  195MOL0     H26904  -0.149   6.327   8.175  2.1502 -0.0584 -2.3278
  195MOL0     H26905  -0.244   6.476   8.183 -1.6797 -1.1728 -1.1362
  195MOL0     H26906   0.111   6.584   8.374 -1.8739  2.9246 -0.1850
  195MOL0     H26907   0.257   6.336   7.879 -0.5582 -0.6424 -0.1863
  195MOL0     H26908   0.540   6.361   7.908  0.5826  0.7705  0.5148
  195MOL0     H26909   0.418   6.332   8.029 -0.2472 -3.0334  0.9952
  195MOL0     H26910   0.550   6.233   8.027 -0.4481  2.5356  1.7776
  196MOL0     O26911   1.584   3.710   8.843  1.1172 -0.0283  0.5074
  196MOL0     C26912   1.513   3.681   8.746 -0.7227 -1.2902  0.4968
  196MOL0     O26913   1.542   3.674   8.616  0.0620  0.1451 -0.2090
  196MOL0     C26914   1.635   3.747   8.554  0.0371  0.6238 -0.1065
  196MOL0     C26915   1.617   3.759   8.423  0.0900  0.2812  0.6232
  196MOL0     C26916   1.721   3.829   8.348 -1.0700 -0.0977  0.7316
  196MOL0     C26917   1.833   3.880   8.400 -0.0467  0.6285 -0.5572
  196MOL0     O26918   1.923   3.940   8.318 -0.0121 -0.3801 -0.3605
  196MOL0     C26919   2.018   4.026   8.376  0.1472 -0.6744 -0.4236
  196MOL0     C26920   2.077   4.118   8.267 -0.3937 -1.3116  0.3765
  196MOL0     C26921   2.206   4.197   8.300 -0.3241  0.5963  0.0331
  196MOL0     C26922   2.194   4.278   8.434  0.0124  0.3243 -0.0850
  196MOL0     C26923   2.309   4.367   8.470 -0.3807 -0.3770  0.7234
  196MOL0     C26924   2.408   4.309   8.577  0.5917 -0.4058  0.5988
  196MOL0     C26925   2.509   4.419   8.619 -0.0322  0.1901  0.1102
  196MOL0     C26926   2.598   4.376   8.728 -0.2454  1.0131 -0.1272
  196MOL0     N26927   2.692   4.482   8.773 -0.3939  0.0897 -0.1969
  196MOL0     C26928   2.819   4.507   8.736 -1.1061 -0.6363 -0.2726
  196MOL0     C26929   2.862   4.608   8.816 -0.7331  0.4278  1.6542
  196MOL0     C26930   3.014   4.649   8.811  0.7128  0.1798 -0.1052
  196MOL0     C26931   3.084   4.583   8.928  0.5419 -0.1672  1.0382
  196MOL0     C26932   3.051   4.651   9.071  0.2999 -0.4932 -0.3891
  196MOL0     C26933   3.151   4.597   9.176  0.8800 -0.5274  0.0502
  196MOL0     O26934   3.151   4.451   9.163  0.0376 -0.1416 -0.2291
  196MOL0     C26935   3.234   4.377   9.238 -0.7681 -0.2969  0.3808
  196MOL0     C26936   3.314   4.426   9.340  0.1615  0.1366 -0.6840
  196MOL0     C26937   3.422   4.351   9.388 -0.3439  1.1822 -0.4812
  196MOL0     C26938   3.517   4.421   9.486 -1.0624  0.1760  0.5726
  196MOL0     C26939   3.436   4.216   9.347  0.2625  0.0076 -0.3038
  196MOL0     C26940   3.546   4.136   9.396  0.5927 -0.5125 -0.3620
  196MOL0     O26941   3.560   4.115   9.530  0.6603 -0.5025 -0.9921
  196MOL0     C26942   3.621   4.004   9.582 -0.5185  0.1853  0.6981
  196MOL0     C26943   3.639   3.886   9.507  0.6297 -0.9002 -0.5546
  196MOL0     C26944   3.692   3.771   9.566 -0.5067 -0.6121  0.2446
  196MOL0     C26945   3.743   3.777   9.688  0.5862 -0.0388  0.1295
  196MOL0     O26946   3.804   3.672   9.748  0.1363 -0.0486 -0.1960
  196MOL0     C26947   3.859   3.560   9.671 -0.3013 -0.3212 -0.2993
  196MOL0     C26948   3.922   3.451   9.768  0.2701 -0.9104  0.3460
  196MOL0     C26949   4.055   3.483   9.830  0.4517  0.3111  0.1368
  196MOL0     C26950   4.103   3.383   9.939  0.6130 -0.5086  0.1037
  196MOL0     C26951   4.254   3.398   9.974 -0.2954  0.1243 -0.5211
  196MOL0     C26952   4.306   3.293  10.065 -0.0274  0.3515 -0.0695
  196MOL0     C26953   4.424   3.349  10.146  0.2314  0.2513 -0.4891
  196MOL0     C26954   4.467   3.263  10.262  0.3614 -0.1677 -1.0848
  196MOL0    Cl26955   4.588   3.347  10.355  0.0455 -0.6386  0.4288
  196MOL0     C26956   3.742   3.899   9.759 -0.4241 -0.2422  0.4560
  196MOL0     C26957   3.678   4.012   9.708  0.4206 -0.3047  0.7920
  196MOL0     O26958   3.611   4.091   9.309 -0.2425 -0.3301 -0.0241
  196MOL0     C26959   3.352   4.164   9.248  0.1370 -0.2319  0.7357
  196MOL0     C26960   3.251   4.245   9.201 -0.4597 -0.8167 -0.6818
  196MOL0     N26961   2.776   4.624   8.913 -0.0372 -0.7822 -0.2143
  196MOL0     N26962   2.665   4.563   8.886 -0.1481 -0.3512  0.4531
  196MOL0     C26963   1.857   3.859   8.541  0.9233 -0.3993 -0.0917
  196MOL0     C26964   1.754   3.793   8.612  0.0016  0.0691  0.2341
  196MOL0     C26965   1.376   3.645   8.776 -0.2038  0.2588 -0.7993
  196MOL0     C26966   1.345   3.513   8.715  0.2356 -0.0601 -0.6902
  196MOL0     C26967   1.209   3.488   8.701  0.5203  0.8038  0.1014
  196MOL0     C26968   1.108   3.571   8.736  0.1016  0.0464 -0.2430
  196MOL0     O26969   0.974   3.559   8.722  0.3853  0.3155  0.0441
  196MOL0     C26970   0.924   3.448   8.648  0.4211  0.6973 -0.7157
  196MOL0     C26971   0.786   3.407   8.696  1.2384  0.5526 -0.6928
  196MOL0     C26972   0.765   3.406   8.845  0.2813  0.0609 -0.8412
  196MOL0     C26973   0.621   3.384   8.887  1.1570 -0.7534  0.0937
  196MOL0     C26974   0.559   3.255   8.858  0.1413 -0.4995  0.0732
  196MOL0     C26975   0.495   3.155   8.832  0.7201 -0.4232 -0.2383
  196MOL0     C26976   1.138   3.687   8.803 -0.6496  0.5352 -0.1527
  196MOL0     C26977   1.276   3.717   8.834 -0.0426  1.2289 -0.2076
  196MOL0     C26978   1.300   3.851   8.897  0.0679  0.5496 -0.2256
  196MOL0     H26979   1.531   3.716   8.373 -0.2618  2.2859 -0.6090
  196MOL0     H26980   1.700   3.850   8.244 -1.7809 -0.4258  0.8030
  196MOL0     H26981   2.100   3.966   8.416  0.4405 -0.1599 -0.2524
  196MOL0     H26982   1.985   4.096   8.452 -2.0561 -0.7783 -1.2040
  196MOL0     H26983   2.103   4.054   8.182 -0.5920  0.0158 -0.7146
  196MOL0     H26984   2.000   4.183   8.225 -1.4553 -1.5556  1.8827
  196MOL0     H26985   2.285   4.121   8.306  2.2397  2.9463 -1.3339
  196MOL0     H26986   2.228   4.267   8.219 -2.0032 -0.1677 -1.1474
  196MOL0     H26987   2.095   4.321   8.418 -1.2806 -3.0870 -2.6619
  196MOL0     H26988   2.175   4.205   8.513 -1.7848  1.4862  0.6238
  196MOL0     H26989   2.282   4.469   8.500  1.2636 -0.0381  1.1442
  196MOL0     H26990   2.365   4.387   8.378  1.5526 -0.7697  1.7621
  196MOL0     H26991   2.350   4.279   8.665 -1.4930  1.1379 -0.1508
  196MOL0     H26992   2.457   4.220   8.538 -0.3771  1.4242 -6.1924
  196MOL0     H26993   2.454   4.510   8.643 -1.0730  0.4296 -2.7364
  196MOL0     H26994   2.563   4.429   8.524 -2.2187 -2.9323 -1.6538
  196MOL0     H26995   2.538   4.365   8.818  0.5186  2.4099  0.5825
  196MOL0     H26996   2.641   4.278   8.705 -0.0740  1.1800 -0.5277
  196MOL0     H26997   2.889   4.453   8.674  2.0764  1.3296  1.3419
  196MOL0     H26998   3.036   4.755   8.829  2.9760 -0.2512 -0.0005
  196MOL0     H26999   3.059   4.625   8.714  0.9891  1.2910 -0.2683
  196MOL0     H27000   3.066   4.475   8.924 -0.1788 -0.0086 -0.8735
  196MOL0     H27001   3.191   4.591   8.909  0.4892  1.2255  1.2079
  196MOL0     H27002   3.060   4.759   9.054  0.1753  0.0500  2.4951
  196MOL0     H27003   2.951   4.625   9.106  0.0325  0.3857 -0.4841
  196MOL0     H27004   3.254   4.632   9.175  0.6218  0.3012  0.8616
  196MOL0     H27005   3.099   4.620   9.269 -1.1065 -1.3599 -0.7916
  196MOL0     H27006   3.308   4.532   9.364 -1.9784  0.1470 -1.0773
  196MOL0     H27007   3.523   4.354   9.572  0.7359  1.8559  1.8328
  196MOL0     H27008   3.482   4.523   9.506  0.1256  0.7304 -0.0582
  196MOL0     H27009   3.618   4.407   9.448 -0.8877 -2.4309  1.8069
  196MOL0     H27010   3.588   3.888   9.411  0.4078 -0.8887 -0.4375
  196MOL0     H27011   3.709   3.677   9.515  4.5465  0.1155  0.1138
  196MOL0     H27012   3.791   3.501   9.610 -0.6930 -0.2764  0.0915
  196MOL0     H27013   3.934   3.602   9.603 -3.4418  2.6989 -2.1568
  196MOL0     H27014   3.850   3.429   9.847  0.1761  0.5462  0.6897
  196MOL0     H27015   3.951   3.360   9.714  1.1854 -0.9845  0.9496
  196MOL0     H27016   4.050   3.579   9.882 -1.1090  1.9214 -2.7094
  196MOL0     H27017   4.130   3.489   9.750 -0.1591  0.8719 -0.4110
  196MOL0     H27018   4.097   3.283   9.895 -3.7028 -1.3386  2.1130
  196MOL0     H27019   4.045   3.380  10.032  0.4510 -0.0428  0.0223
  196MOL0     H27020   4.321   3.397   9.887 -0.6950 -0.0933 -0.8306
  196MOL0     H27021   4.259   3.498  10.019 -2.1617  0.4450 -0.9030
  196MOL0     H27022   4.350   3.210  10.009 -1.9574 -1.7156  1.2973
  196MOL0     H27023   4.224   3.263  10.131  0.8955  2.4409  2.1754
  196MOL0     H27024   4.394   3.445  10.189 -1.1345 -1.7791  3.6380
  196MOL0     H27025   4.503   3.358  10.072  1.6451 -0.4325  0.8744
  196MOL0     H27026   4.514   3.170  10.230 -1.1226 -1.9521  1.5283
  196MOL0     H27027   4.389   3.239  10.334  3.2379 -0.5706  2.1812
  196MOL0     H27028   3.794   3.888   9.854 -0.2952 -3.6421  0.1254
  196MOL0     H27029   3.677   4.106   9.762  2.8731 -0.0496  0.4888
  196MOL0     H27030   3.369   4.068   9.200  0.8105  0.1685  0.1452
  196MOL0     H27031   3.197   4.199   9.119  2.6097 -2.4700 -1.9488
  196MOL0     H27032   1.936   3.898   8.604  1.6674 -0.3257 -1.0609
  196MOL0     H27033   1.782   3.775   8.715 -0.6885 -4.0061 -0.1390
  196MOL0     H27034   1.424   3.448   8.678  2.5280  0.0408  3.4132
  196MOL0     H27035   1.176   3.392   8.660 -2.3188  0.5346  2.6594
  196MOL0     H27036   0.936   3.464   8.541  1.1941  0.9488 -0.5972
  196MOL0     H27037   0.990   3.363   8.667  3.5899  3.1564  0.0073
  196MOL0     H27038   0.760   3.308   8.656  1.8441  0.6168 -1.2536
  196MOL0     H27039   0.714   3.476   8.652 -0.0304 -0.1318  0.2208
  196MOL0     H27040   0.823   3.326   8.890  0.2239  1.0447  1.0564
  196MOL0     H27041   0.794   3.506   8.879  0.9778  0.3638 -2.2103
  196MOL0     H27042   0.552   3.461   8.851 -1.3654 -2.9821 -0.1847
  196MOL0     H27043   0.614   3.382   8.997 -2.1482 -2.9933  0.0019
  196MOL0     H27044   0.437   3.069   8.807  1.1798 -0.6857 -0.4029
  196MOL0     H27045   1.060   3.748   8.847 -0.5609  0.8913 -0.4846
  196MOL0     H27046   1.407   3.867   8.912  0.2053 -1.5241  1.5100
  196MOL0     H27047   1.260   3.925   8.828  0.5356 -1.2062 -2.5166
  196MOL0     H27048   1.258   3.853   8.998  4.1519 -1.7784  1.7948
  197MOL0     O27049   3.812   5.028  11.171  0.4486  0.9360 -0.1087
  197MOL0     C27050   3.861   5.094  11.266  0.4955  0.5991  0.4090
  197MOL0     O27051   3.837   5.071  11.395  0.5938  0.7589  0.9109
  197MOL0     C27052   3.741   4.983  11.441  0.2056 -0.4479  0.2056
  197MOL0     C27053   3.629   5.032  11.530  0.2992  0.1488  0.9160
  197MOL0     C27054   3.532   4.945  11.577 -0.0321 -0.2304  0.0887
  197MOL0     C27055   3.548   4.804  11.558  0.2250 -0.8777  0.6222
  197MOL0     O27056   3.456   4.704  11.584  0.0390 -0.4805  0.1321
  197MOL0     C27057   3.341   4.737  11.665 -0.0247  0.8200  0.6588
  197MOL0     C27058   3.351   4.679  11.809  0.1204 -0.8907 -0.0206
  197MOL0     C27059   3.466   4.743  11.883  0.7827 -0.0193 -0.1470
  197MOL0     C27060   3.491   4.694  12.029 -0.1950 -0.4211  0.5710
  197MOL0     C27061   3.608   4.759  12.103  0.1076  0.1593  0.2024
  197MOL0     C27062   3.743   4.710  12.050 -0.4425  0.3739  0.1799
  197MOL0     C27063   3.859   4.784  12.123 -0.2306  0.5755  1.0005
  197MOL0     C27064   3.985   4.722  12.068 -0.7916 -0.6067  0.7444
  197MOL0     N27065   4.105   4.795  12.109  1.1407  0.0449  0.4501
  197MOL0     C27066   4.222   4.786  12.038 -0.3696  0.9353  0.1300
  197MOL0     C27067   4.315   4.858  12.108  0.0081  0.0923  0.1988
  197MOL0     C27068   4.457   4.891  12.067 -0.3671  0.1295  0.2060
  197MOL0     C27069   4.496   4.868  11.918  0.0041  0.3036  0.1008
  197MOL0     C27070   4.635   4.903  11.882  0.3695  0.0651 -0.8112
  197MOL0     C27071   4.682   5.048  11.882  0.3957 -0.0919  0.0556
  197MOL0     O27072   4.601   5.131  11.805  0.0878 -0.0918  0.7217
  197MOL0     C27073   4.610   5.140  11.670 -0.3838  0.3626  0.9412
  197MOL0     C27074   4.539   5.243  11.610  0.3732  0.0259  0.3830
  197MOL0     C27075   4.523   5.255  11.468  0.5670 -0.0250 -1.1755
  197MOL0     C27076   4.419   5.364  11.424  0.2659  0.3920 -0.1817
  197MOL0     C27077   4.602   5.180  11.386 -0.2460 -0.0255  0.4953
  197MOL0     C27078   4.606   5.195  11.231  1.6033 -0.5826  0.1096
  197MOL0     O27079   4.511   5.264  11.154 -0.9621 -0.6947 -0.1522
  197MOL0     C27080   4.523   5.233  11.019 -0.0270  0.8317 -0.6147
  197MOL0     C27081   4.564   5.331  10.924 -0.5164  0.7926  0.5413
  197MOL0     C27082   4.559   5.303  10.794  0.2670  0.1288  0.9841
  197MOL0     C27083   4.515   5.177  10.748  0.3175  0.2782 -0.0542
  197MOL0     O27084   4.513   5.126  10.619  0.4728 -0.4907 -0.2707
  197MOL0     C27085   4.619   5.174  10.547 -0.8358  0.1876  0.4520
  197MOL0     C27086   4.641   5.076  10.421  0.7545  0.1637 -0.0966
  197MOL0     C27087   4.661   4.924  10.466  0.4404  0.4363  0.4989
  197MOL0     C27088   4.530   4.837  10.451  0.7987  0.2123  0.1176
  197MOL0     C27089   4.537   4.689  10.504 -0.8506  0.1117 -0.3074
  197MOL0     C27090   4.672   4.612  10.461 -0.2572 -0.6187  0.2069
  197MOL0     C27091   4.688   4.470  10.508 -0.3902 -0.1675  0.0134
  197MOL0     C27092   4.786   4.388  10.423 -0.3231 -0.5432 -0.3276
  197MOL0    Cl27093   4.767   4.219  10.447 -0.2741  0.2499 -0.1166
  197MOL0     C27094   4.471   5.086  10.841  0.0812  0.3701  0.9534
  197MOL0     C27095   4.468   5.116  10.976  0.7058  0.5762 -0.2094
  197MOL0     O27096   4.708   5.153  11.180 -0.7804  0.0932  0.1645
  197MOL0     C27097   4.696   5.085  11.446  0.3719 -0.2533 -0.1488
  197MOL0     C27098   4.696   5.062  11.589  0.5878 -0.4020  0.0345
  197MOL0     N27099   4.253   4.913  12.218  0.5129 -0.5211 -0.9337
  197MOL0     N27100   4.128   4.875  12.220  0.1978  0.5922 -0.3508
  197MOL0     C27101   3.655   4.763  11.473  0.6893 -0.2927  0.0574
  197MOL0     C27102   3.748   4.845  11.408 -0.0221 -0.0113  0.4905
  197MOL0     C27103   3.955   5.202  11.240 -0.4351  0.7827  0.3377
  197MOL0     C27104   3.983   5.292  11.342 -0.1941  0.5661  0.1656
  197MOL0     C27105   4.072   5.399  11.326 -0.1893  0.6096 -0.5499
  197MOL0     C27106   4.140   5.418  11.202  0.0136  0.8735 -0.1791
  197MOL0     O27107   4.252   5.505  11.207  0.8136 -0.6562  0.2459
  197MOL0     C27108   4.323   5.524  11.086 -0.9110  0.1245 -0.0717
  197MOL0     C27109   4.427   5.636  11.127  0.1245  0.0805 -0.1793
  197MOL0     C27110   4.363   5.780  11.134 -0.0482 -0.2530  0.0182
  197MOL0     C27111   4.383   5.845  11.269 -0.4521  0.1194 -0.1296
  197MOL0     C27112   4.352   5.775  11.393  0.2978  0.4292  0.0954
  197MOL0     C27113   4.327   5.709  11.494 -0.5786 -0.5771 -0.1394
  197MOL0     C27114   4.088   5.353  11.090 -0.3408 -0.3042 -1.1838
  197MOL0     C27115   4.015   5.230  11.112  0.1741 -0.6310  0.1047
  197MOL0     C27116   3.995   5.150  10.985 -0.9978 -0.4175 -0.7285
  197MOL0     H27117   3.618   5.137  11.558 -2.4829 -0.2224  1.4959
  197MOL0     H27118   3.451   4.995  11.629 -1.3666 -2.3012  0.1436
  197MOL0     H27119   3.254   4.682  11.627  1.3668 -1.8616  1.0715
  197MOL0     H27120   3.315   4.842  11.655  0.6709  1.2412  2.7778
  197MOL0     H27121   3.264   4.709  11.868  0.3754 -0.3454  0.0821
  197MOL0     H27122   3.369   4.571  11.811  0.3284 -0.8516  0.4959
  197MOL0     H27123   3.557   4.707  11.834  1.7488  0.5150  1.1919
  197MOL0     H27124   3.463   4.852  11.872 -1.3224 -0.0656 -0.4438
  197MOL0     H27125   3.406   4.727  12.090  2.2015  2.8853  2.4680
  197MOL0     H27126   3.504   4.586  12.021 -1.1065 -0.6672  2.0295
  197MOL0     H27127   3.601   4.742  12.210  1.1176  2.1124  0.6288
  197MOL0     H27128   3.598   4.865  12.080 -0.5436 -0.4817 -3.0388
  197MOL0     H27129   3.755   4.605  12.076  0.3041  0.3752 -0.1537
  197MOL0     H27130   3.749   4.722  11.942 -0.6582 -1.8310 -0.1150
  197MOL0     H27131   3.846   4.787  12.232 -1.0238  2.9628  0.9076
  197MOL0     H27132   3.868   4.885  12.083  1.0242 -0.5513 -1.7640
  197MOL0     H27133   4.002   4.622  12.109  1.1982 -0.2572  0.8546
  197MOL0     H27134   3.980   4.715  11.959 -2.8148 -0.4497  0.7901
  197MOL0     H27135   4.246   4.729  11.949  1.4628 -0.0108  1.1483
  197MOL0     H27136   4.526   4.836  12.132 -1.7895 -2.5027 -0.3451
  197MOL0     H27137   4.469   4.998  12.084 -1.1767  0.2818 -0.1130
  197MOL0     H27138   4.493   4.761  11.896 -2.2349  1.0421 -4.3843
  197MOL0     H27139   4.423   4.909  11.847 -0.8039 -1.9453 -0.4530
  197MOL0     H27140   4.701   4.843  11.946 -0.8473 -0.8106 -0.3173
  197MOL0     H27141   4.647   4.852  11.786 -0.3984 -1.7840  0.0234
  197MOL0     H27142   4.691   5.094  11.981  0.6616  0.5188 -0.2511
  197MOL0     H27143   4.783   5.054  11.839  0.2424  1.3258 -0.1509
  197MOL0     H27144   4.484   5.319  11.664  2.3294 -0.2080  2.8514
  197MOL0     H27145   4.477   5.441  11.373  0.8702 -0.9827 -1.6815
  197MOL0     H27146   4.380   5.422  11.508  2.4008  3.2026 -0.9868
  197MOL0     H27147   4.348   5.317  11.356  2.1112 -0.2091 -1.7885
  197MOL0     H27148   4.580   5.434  10.956 -1.8596  0.8976  0.9254
  197MOL0     H27149   4.587   5.381  10.724 -2.1504 -0.4421 -0.7413
  197MOL0     H27150   4.584   5.271  10.512 -2.4643 -1.3796 -2.7779
  197MOL0     H27151   4.715   5.192  10.594 -0.0024  0.8777 -1.4207
  197MOL0     H27152   4.561   5.093  10.349  2.0201  0.9616 -1.3829
  197MOL0     H27153   4.733   5.104  10.369  0.5196  1.7645  0.3015
  197MOL0     H27154   4.691   4.922  10.571  1.6538  1.2023  0.1804
  197MOL0     H27155   4.732   4.876  10.399  1.8837  0.9059  1.6458
  197MOL0     H27156   4.498   4.832  10.347  2.5503  0.1582 -0.4539
  197MOL0     H27157   4.452   4.894  10.504 -0.2240 -1.5082  0.5476
  197MOL0     H27158   4.543   4.695  10.613 -2.1153 -1.4699 -0.1062
  197MOL0     H27159   4.456   4.619  10.482  0.3178 -1.4836  0.2044
  197MOL0     H27160   4.765   4.668  10.473  0.0821 -0.8165 -1.2878
  197MOL0     H27161   4.662   4.607  10.352 -0.7603 -0.9416  0.2676
  197MOL0     H27162   4.588   4.427  10.508 -1.2905  1.8187 -0.2368
  197MOL0     H27163   4.736   4.460  10.606 -1.6727 -0.0218  0.6782
  197MOL0     H27164   4.885   4.426  10.449 -1.9398  1.9904  2.8536
  197MOL0     H27165   4.771   4.404  10.316 -0.9362 -4.3818 -0.9536
  197MOL0     H27166   4.448   4.981  10.827  1.3680 -0.0608  1.8236
  197MOL0     H27167   4.432   5.041  11.046 -1.5713  1.2546 -0.5936
  197MOL0     H27168   4.755   5.028  11.374 -1.5521 -2.0940 -0.3429
  197MOL0     H27169   4.756   4.980  11.626  3.3046 -0.8303 -4.5295
  197MOL0     H27170   3.658   4.659  11.442  3.3559  0.3027 -2.0350
  197MOL0     H27171   3.814   4.802  11.334 -4.4147 -2.2969 -2.5312
  197MOL0     H27172   3.934   5.284  11.439 -0.9902 -1.1764 -0.3446
  197MOL0     H27173   4.091   5.475  11.400 -3.8806  0.1073  1.1417
  197MOL0     H27174   4.373   5.429  11.064  0.7549  0.8602  0.3662
  197MOL0     H27175   4.263   5.568  11.006 -1.0207 -0.9904 -0.6302
  197MOL0     H27176   4.513   5.634  11.060 -0.7905  0.8023 -1.4279
  197MOL0     H27177   4.456   5.616  11.230  0.9685 -0.0055 -0.4286
  197MOL0     H27178   4.405   5.850  11.061  0.6105  2.2396  2.5962
  197MOL0     H27179   4.254   5.772  11.121  0.2594 -1.2291 -2.5319
  197MOL0     H27180   4.320   5.934  11.282 -1.8153 -0.6080 -1.3877
  197MOL0     H27181   4.486   5.882  11.267 -1.0825  2.2946  2.1551
  197MOL0     H27182   4.332   5.665  11.591 -1.9649 -1.4794 -0.4528
  197MOL0     H27183   4.127   5.382  10.993  0.1176 -0.5914 -1.0895
  197MOL0     H27184   4.021   5.207  10.896 -3.5236  0.1017 -1.2295
  197MOL0     H27185   4.048   5.055  10.984 -0.7087 -0.2886  0.5365
  197MOL0     H27186   3.892   5.115  10.971 -0.5365 -1.7182 -0.9538
  198MOL0     O27187   7.834   7.715   6.087  0.5314  0.2016  0.0480
  198MOL0     C27188   7.834   7.778   5.978 -1.3028 -0.4102 -0.7449
  198MOL0     O27189   7.935   7.770   5.879 -0.7329  0.3086  0.7568
  198MOL0     C27190   8.037   7.672   5.901 -0.6206  0.2558 -0.3215
  198MOL0     C27191   8.058   7.564   5.820  0.1195 -0.2692  0.6476
  198MOL0     C27192   8.165   7.483   5.836  0.6783  0.5939  0.6226
  198MOL0     C27193   8.248   7.484   5.941 -0.4775 -0.0086  0.2661
  198MOL0     O27194   8.360   7.404   5.956  0.2749 -0.5399  0.2384
  198MOL0     C27195   8.366   7.337   6.082  0.2690  0.3412 -0.1450
  198MOL0     C27196   8.475   7.221   6.087  0.7037  0.3954  0.1421
  198MOL0     C27197   8.438   7.092   6.021  0.5125  0.7817 -0.8463
  198MOL0     C27198   8.447   7.094   5.868 -0.8707 -0.0098 -0.6740
  198MOL0     C27199   8.438   6.949   5.808  0.3624 -0.3281  0.0175
  198MOL0     C27200   8.428   6.943   5.657 -0.3631  0.5231 -0.0539
  198MOL0     C27201   8.537   7.022   5.579  0.5739  0.4927  0.4352
  198MOL0     C27202   8.498   7.045   5.431  0.4888 -0.2975  0.5551
  198MOL0     N27203   8.465   6.915   5.360 -0.3589 -0.0502 -0.5220
  198MOL0     C27204   8.547   6.820   5.312 -1.1205  0.0349  0.0524
  198MOL0     C27205   8.471   6.728   5.257  1.0952  1.3672 -0.0983
  198MOL0     C27206   8.510   6.597   5.203  0.2077 -0.1482 -0.8761
  198MOL0     C27207   8.498   6.474   5.294  0.2273 -0.5648 -0.6057
  198MOL0     C27208   8.596   6.470   5.408  0.0702 -0.5473  0.3153
  198MOL0     C27209   8.558   6.369   5.504  0.1000 -0.1276  0.2464
  198MOL0     O27210   8.614   6.248   5.447 -0.4116  0.1410  0.0160
  198MOL0     C27211   8.627   6.139   5.532  0.7566  0.6044  0.1101
  198MOL0     C27212   8.679   6.023   5.481  0.0477 -0.4660 -0.7293
  198MOL0     C27213   8.699   5.910   5.568  1.1051  0.1672 -0.0742
  198MOL0     C27214   8.766   5.786   5.505 -0.7750  0.9592 -0.0331
  198MOL0     C27215   8.653   5.922   5.706 -0.1689  1.1294 -0.2722
  198MOL0     C27216   8.654   5.809   5.802 -0.7137 -0.2816  0.2661
  198MOL0     O27217   8.609   5.841   5.932 -0.0685  0.3954 -0.4305
  198MOL0     C27218   8.605   5.737   6.023  0.2921 -0.0727  0.3401
  198MOL0     C27219   8.531   5.772   6.141 -0.2568  0.1071  0.8097
  198MOL0     C27220   8.526   5.681   6.243 -0.3631  0.7402 -0.2505
  198MOL0     C27221   8.569   5.549   6.224  0.6910  0.4912  0.0617
  198MOL0     O27222   8.545   5.461   6.330  0.4867 -0.3257 -0.1613
  198MOL0     C27223   8.579   5.327   6.313  0.0855  0.1253 -0.3044
  198MOL0     C27224   8.564   5.262   6.447  0.6231  0.0023 -0.9400
  198MOL0     C27225   8.646   5.336   6.548  0.4486 -1.0258 -0.2448
  198MOL0     C27226   8.566   5.446   6.621 -0.7802  0.8846  0.6487
  198MOL0     C27227   8.646   5.509   6.732  0.2183  0.4341 -0.3403
  198MOL0     C27228   8.576   5.618   6.813 -0.2869  0.9983  1.4277
  198MOL0     C27229   8.546   5.726   6.713 -0.2978 -0.4606  0.4160
  198MOL0     C27230   8.540   5.863   6.780 -0.1146 -0.5803  0.0092
  198MOL0    Cl27231   8.379   5.888   6.858  0.4665  0.2147  0.7578
  198MOL0     C27232   8.645   5.521   6.110  0.6879 -0.1878  0.3988
  198MOL0     C27233   8.660   5.609   6.011 -0.3489  0.3742  0.8236
  198MOL0     O27234   8.659   5.700   5.751 -0.4894  0.1327 -0.7568
  198MOL0     C27235   8.589   6.037   5.752 -0.1216  0.1529  0.0448
  198MOL0     C27236   8.581   6.142   5.667 -1.0148  0.5238  0.8872
  198MOL0     N27237   8.341   6.775   5.259  0.2602  1.0189  0.0891
  198MOL0     N27238   8.343   6.890   5.306 -0.3055 -0.2319  0.4511
  198MOL0     C27239   8.230   7.585   6.033  0.3111  0.0022  0.2932
  198MOL0     C27240   8.124   7.677   6.021 -0.4060 -0.3778  1.0379
  198MOL0     C27241   7.718   7.859   5.954  0.4767 -0.5948  0.2051
  198MOL0     C27242   7.590   7.807   5.997  0.3381  0.3887  0.1508
  198MOL0     C27243   7.479   7.885   5.973  0.4793 -0.1272  0.2939
  198MOL0     C27244   7.481   8.010   5.913 -0.0225  0.2989 -0.0479
  198MOL0     O27245   7.363   8.071   5.911  0.0753  0.3333 -0.4593
  198MOL0     C27246   7.367   8.206   5.859  1.3227 -0.9478 -0.5125
  198MOL0     C27247   7.241   8.277   5.903  0.4475 -0.1541 -0.1789
  198MOL0     C27248   7.232   8.276   6.060  0.0239 -0.2091  0.3639
  198MOL0     C27249   7.359   8.318   6.139  0.3463 -1.0936  0.5798
  198MOL0     C27250   7.327   8.319   6.286  0.6741 -0.1954  0.1875
  198MOL0     C27251   7.293   8.338   6.403 -0.4417 -0.1293  0.0004
  198MOL0     C27252   7.605   8.056   5.873 -0.6570 -0.1728  0.1645
  198MOL0     C27253   7.723   7.983   5.884  0.6071  0.3308  0.0509
  198MOL0     C27254   7.849   8.039   5.825  0.0209  0.1730  0.7158
  198MOL0     H27255   7.991   7.549   5.736  0.5224  1.1238  0.0362
  198MOL0     H27256   8.181   7.411   5.756 -0.5470  2.3689 -1.3483
  198MOL0     H27257   8.272   7.291   6.112 -0.3958 -1.3365 -4.1315
  198MOL0     H27258   8.389   7.418   6.152 -1.6427  1.7602 -1.0697
  198MOL0     H27259   8.577   7.254   6.069  1.3579 -0.4514  2.0559
  198MOL0     H27260   8.478   7.183   6.189 -1.2001 -0.3198 -0.0202
  198MOL0     H27261   8.505   7.018   6.065 -0.2425  0.0826 -0.8403
  198MOL0     H27262   8.333   7.065   6.036  0.5306  2.0397  2.2372
  198MOL0     H27263   8.376   7.169   5.833  1.1125  2.8014  0.8927
  198MOL0     H27264   8.546   7.133   5.841 -0.5165  0.6172  1.3899
  198MOL0     H27265   8.354   6.894   5.853 -0.5961 -1.0339 -2.4180
  198MOL0     H27266   8.532   6.895   5.824 -0.6369 -2.6168 -1.2273
  198MOL0     H27267   8.431   6.838   5.626 -0.4067  0.0502  1.4885
  198MOL0     H27268   8.331   6.969   5.615 -0.5936 -2.0379 -1.3008
  198MOL0     H27269   8.625   6.957   5.582  0.5556  0.4799  0.7248
  198MOL0     H27270   8.571   7.118   5.620  2.8640  1.3278 -2.9927
  198MOL0     H27271   8.418   7.120   5.434 -0.7265 -1.4710 -0.7848
  198MOL0     H27272   8.583   7.080   5.371 -0.8107  0.9113 -0.6484
  198MOL0     H27273   8.653   6.801   5.322 -1.6381 -4.4335 -0.9230
  198MOL0     H27274   8.615   6.600   5.172  0.7605 -3.3664  0.3126
  198MOL0     H27275   8.450   6.575   5.114 -2.8240  0.0266  0.9806
  198MOL0     H27276   8.392   6.465   5.317 -0.5602 -0.9324 -3.9470
  198MOL0     H27277   8.514   6.380   5.241 -3.4130 -1.0476 -1.1133
  198MOL0     H27278   8.695   6.470   5.362 -0.3010 -2.5108 -0.5779
  198MOL0     H27279   8.591   6.569   5.454 -2.8040 -0.2289 -0.4570
  198MOL0     H27280   8.604   6.397   5.599  0.2802 -0.2609  0.1979
  198MOL0     H27281   8.449   6.367   5.517 -0.2304  1.8709 -1.5595
  198MOL0     H27282   8.722   6.030   5.382 -0.3688 -1.8045 -1.0255
  198MOL0     H27283   8.846   5.760   5.576  0.2895  1.7584 -0.9144
  198MOL0     H27284   8.811   5.817   5.411  0.7505  2.8648  1.2449
  198MOL0     H27285   8.693   5.704   5.501  1.7813 -1.6618  2.2264
  198MOL0     H27286   8.501   5.875   6.158  0.9930  0.3290  1.7951
  198MOL0     H27287   8.473   5.709   6.334  1.9585  0.2763  1.3537
  198MOL0     H27288   8.515   5.283   6.235 -1.2097 -1.3665  1.5119
  198MOL0     H27289   8.684   5.311   6.287 -0.1418 -1.9513 -0.1167
  198MOL0     H27290   8.458   5.257   6.474  0.9326 -1.4100  0.0637
  198MOL0     H27291   8.605   5.162   6.435 -1.1293 -0.8279 -0.4075
  198MOL0     H27292   8.737   5.377   6.502  0.3550  1.0399  1.2518
  198MOL0     H27293   8.681   5.270   6.629  0.3204  1.8620  2.3511
  198MOL0     H27294   8.474   5.408   6.668 -1.4591 -0.7475 -1.8008
  198MOL0     H27295   8.546   5.526   6.550  0.6563  2.5586  2.0301
  198MOL0     H27296   8.673   5.437   6.810  0.7174  3.7945  2.8057
  198MOL0     H27297   8.741   5.537   6.685 -0.4512 -1.2499 -2.9193
  198MOL0     H27298   8.646   5.648   6.892  0.9225 -0.6038  1.0092
  198MOL0     H27299   8.483   5.582   6.858 -0.1724 -0.7927  0.3284
  198MOL0     H27300   8.447   5.703   6.672  0.6501 -1.0649 -1.7064
  198MOL0     H27301   8.614   5.725   6.627  0.0049 -5.8922  0.3952
  198MOL0     H27302   8.561   5.939   6.704 -1.6467  0.5997  0.7141
  198MOL0     H27303   8.611   5.867   6.863  0.2709  0.1769 -0.3378
  198MOL0     H27304   8.693   5.425   6.098 -1.4976 -1.1576 -1.1529
  198MOL0     H27305   8.734   5.586   5.935 -0.0693 -1.7236  1.6810
  198MOL0     H27306   8.577   6.060   5.857  1.3938 -1.0699  0.5067
  198MOL0     H27307   8.522   6.228   5.695 -0.4373  0.9834  0.7071
  198MOL0     H27308   8.293   7.589   6.121 -0.6804  0.4842  1.0092
  198MOL0     H27309   8.111   7.743   6.106 -1.4071 -5.8516  5.7430
  198MOL0     H27310   7.573   7.709   6.039  3.7183  0.1856  1.3805
  198MOL0     H27311   7.381   7.861   6.012 -0.0328  1.8997  0.3559
  198MOL0     H27312   7.441   8.281   5.887 -1.0009  2.0168 -1.7329
  198MOL0     H27313   7.368   8.201   5.750  0.2188  0.4809 -0.6208
  198MOL0     H27314   7.156   8.234   5.850  0.9539  0.1211 -1.2358
  198MOL0     H27315   7.242   8.377   5.859  0.5553 -0.0373  0.0873
  198MOL0     H27316   7.147   8.337   6.090  0.8944  1.4713 -0.4178
  198MOL0     H27317   7.209   8.171   6.079 -0.1129 -0.0331  1.1941
  198MOL0     H27318   7.386   8.420   6.112 -2.3674  0.5884  3.4760
  198MOL0     H27319   7.431   8.238   6.119  0.8267 -0.8714  1.4042
  198MOL0     H27320   7.272   8.365   6.505 -0.1115 -1.5259  0.4677
  198MOL0     H27321   7.609   8.135   5.799  1.1251 -1.1045 -0.8195
  198MOL0     H27322   7.892   7.965   5.757  1.0924  0.8062  0.6842
  198MOL0     H27323   7.845   8.138   5.779  1.3187 -0.1366 -0.1059
  198MOL0     H27324   7.919   8.053   5.908  1.8884  1.4358 -0.9911
  199MOL0     O27325   3.720   7.095   0.899 -0.5383  0.0627 -0.2559
  199MOL0     C27326   3.633   7.175   0.934  0.3086  0.2012 -0.1187
  199MOL0     O27327   3.520   7.206   0.860 -0.2065  0.2169  0.2452
  199MOL0     C27328   3.493   7.155   0.732 -0.6538  0.5065 -0.2217
  199MOL0     C27329   3.586   7.112   0.636  0.0601 -0.4834  0.9843
  199MOL0     C27330   3.545   7.087   0.501  0.3004  0.5667 -0.4412
  199MOL0     C27331   3.407   7.084   0.472 -0.3643 -0.1583  0.4660
  199MOL0     O27332   3.352   7.056   0.346  0.2014 -0.9427  0.5928
  199MOL0     C27333   3.419   7.098   0.235 -0.1541 -0.1188  0.0736
  199MOL0     C27334   3.341   7.038   0.111  0.2136 -0.1193  0.7982
  199MOL0     C27335   3.239   7.138   0.060  0.1497 -0.2868 -1.4474
  199MOL0     C27336   3.096   7.090   0.080 -0.4668 -0.4917 -0.3591
  199MOL0     C27337   2.997   7.175   0.013 -0.5956  1.1096  0.3948
  199MOL0     C27338   2.847   7.140   0.023 -0.7247  0.8728 -0.1465
  199MOL0     C27339   2.772   7.247  -0.047 -0.0599  0.1548 -0.4495
  199MOL0     C27340   2.618   7.221  -0.055  0.7469 -0.5061  0.8334
  199MOL0     N27341   2.591   7.112  -0.152 -0.9127 -0.9769 -0.3607
  199MOL0     C27342   2.627   7.112  -0.282 -0.1758  0.2559 -0.1303
  199MOL0     C27343   2.570   7.006  -0.343  0.7148  1.3571 -0.8419
  199MOL0     C27344   2.603   6.962  -0.487  0.0283  0.5531  0.5106
  199MOL0     C27345   2.632   6.808  -0.483  0.2836 -0.1125 -0.4631
  199MOL0     C27346   2.630   6.746  -0.626  0.9262 -0.4093 -0.7855
  199MOL0     C27347   2.722   6.805  -0.725  0.0781 -0.4435 -0.9475
  199MOL0     O27348   2.697   6.738  -0.848 -0.1454  0.3670  1.3243
  199MOL0     C27349   2.779   6.778  -0.950 -0.4411 -0.1496 -0.7672
  199MOL0     C27350   2.863   6.681  -1.004 -0.5796  0.1047 -0.1350
  199MOL0     C27351   2.960   6.724  -1.096 -0.9054  0.5730  0.6554
  199MOL0     C27352   3.039   6.607  -1.153  0.0666  0.3645 -0.6537
  199MOL0     C27353   2.973   6.864  -1.136 -1.5699  0.0820 -0.3951
  199MOL0     C27354   3.083   6.912  -1.235  0.0356  0.1207  0.8560
  199MOL0     O27355   3.084   7.046  -1.245 -0.1767 -0.0538 -0.0459
  199MOL0     C27356   3.171   7.118  -1.326  0.1462  1.0524 -0.5143
  199MOL0     C27357   3.299   7.147  -1.284 -1.0431  0.5458  0.2455
  199MOL0     C27358   3.384   7.240  -1.346 -0.0861  0.1416 -0.1412
  199MOL0     C27359   3.342   7.296  -1.468 -0.0463 -0.4936 -0.4886
  199MOL0     O27360   3.412   7.393  -1.530 -0.1014 -0.6604  0.4282
  199MOL0     C27361   3.530   7.454  -1.464 -0.4042 -0.7143  0.1972
  199MOL0     C27362   3.488   7.561  -1.365  0.4599 -0.5133 -0.2086
  199MOL0     C27363   3.401   7.665  -1.439 -0.8914  0.1783 -0.2531
  199MOL0     C27364   3.378   7.789  -1.347 -0.1050 -0.1497 -0.4483
  199MOL0     C27365   3.318   7.907  -1.418 -0.5092  0.0982  0.3146
  199MOL0     C27366   3.171   7.877  -1.468 -0.2950  0.5820 -0.3711
  199MOL0     C27367   3.065   7.886  -1.363 -0.2322 -0.3495 -0.1910
  199MOL0     C27368   2.962   7.773  -1.360 -0.1347  0.3164 -0.4165
  199MOL0    Cl27369   2.865   7.788  -1.206  0.4862 -0.1720 -0.2848
  199MOL0     C27370   3.215   7.262  -1.519 -0.9814 -0.1909  0.2723
  199MOL0     C27371   3.128   7.167  -1.453 -0.7765  0.5129  0.1748
  199MOL0     O27372   3.156   6.831  -1.290 -0.2610  0.1846 -0.1907
  199MOL0     C27373   2.886   6.954  -1.085 -0.3373  0.5130 -0.0192
  199MOL0     C27374   2.793   6.913  -0.989  0.4816 -0.5711 -0.7111
  199MOL0     N27375   2.500   6.937  -0.240  0.5346 -0.3725  0.6460
  199MOL0     N27376   2.519   7.006  -0.128  0.1332  0.4955  0.4281
  199MOL0     C27377   3.313   7.115   0.570 -0.5689  0.3307 -0.5796
  199MOL0     C27378   3.359   7.148   0.702  0.8261  0.3182  0.8494
  199MOL0     C27379   3.647   7.231   1.081  0.8144 -0.7804  0.4030
  199MOL0     C27380   3.774   7.213   1.145 -1.3655 -1.0386 -0.1004
  199MOL0     C27381   3.808   7.264   1.270 -0.2673 -0.7535 -0.0910
  199MOL0     C27382   3.713   7.337   1.344 -0.4501  0.0633 -1.6122
  199MOL0     O27383   3.746   7.383   1.465  0.7927  0.0765  0.3710
  199MOL0     C27384   3.651   7.408   1.573 -1.6517 -0.7790  0.4394
  199MOL0     C27385   3.626   7.285   1.663  0.4245  0.0581 -0.4456
  199MOL0     C27386   3.518   7.306   1.773 -0.2910 -0.4180  0.6471
  199MOL0     C27387   3.480   7.176   1.840  0.4384  1.1536  0.0101
  199MOL0     C27388   3.589   7.149   1.937  0.4242 -0.6412  0.2006
  199MOL0     C27389   3.667   7.156   2.028 -0.1136 -0.7662 -1.2599
  199MOL0     C27390   3.582   7.347   1.293 -0.8922 -0.1918  0.2940
  199MOL0     C27391   3.554   7.304   1.158 -0.3367 -0.3785  0.0381
  199MOL0     C27392   3.415   7.321   1.112  0.4203  0.0539  0.9698
  199MOL0     H27393   3.692   7.113   0.660  0.9914  1.8380 -2.5346
  199MOL0     H27394   3.624   7.079   0.427  1.4345 -4.2282  0.9141
  199MOL0     H27395   3.523   7.064   0.234  0.8855  2.6814  1.8712
  199MOL0     H27396   3.417   7.207   0.235 -2.1592 -0.0691 -2.5081
  199MOL0     H27397   3.413   7.009   0.034  0.1843  0.3983  0.5764
  199MOL0     H27398   3.285   6.950   0.144  0.5426 -1.6188 -2.2628
  199MOL0     H27399   3.243   7.233   0.114  0.7430 -0.7557 -0.6479
  199MOL0     H27400   3.255   7.164  -0.045  1.2186  1.2504 -0.9452
  199MOL0     H27401   3.079   6.990   0.039 -2.1238 -0.3979  0.0501
  199MOL0     H27402   3.070   7.079   0.185  0.2288  2.6335  0.2200
  199MOL0     H27403   3.022   7.175  -0.093 -2.3363  0.4637 -0.0501
  199MOL0     H27404   3.004   7.271   0.064  1.5325  0.9976  0.3885
  199MOL0     H27405   2.828   7.039  -0.014  0.2690  1.1221 -1.4348
  199MOL0     H27406   2.810   7.137   0.126 -2.1358  1.0950 -0.6255
  199MOL0     H27407   2.805   7.256  -0.151 -0.9344 -0.1804 -0.7655
  199MOL0     H27408   2.796   7.344  -0.002  1.2702 -1.0256  1.5855
  199MOL0     H27409   2.558   7.199   0.035 -0.2592 -1.9629 -0.1477
  199MOL0     H27410   2.587   7.317  -0.097  1.0347  0.4991  2.7723
  199MOL0     H27411   2.693   7.170  -0.346  0.1885  0.6330  0.5850
  199MOL0     H27412   2.678   7.023  -0.540  1.7052 -0.1980  1.9150
  199MOL0     H27413   2.508   6.977  -0.539  0.3368 -0.1308 -0.2816
  199MOL0     H27414   2.735   6.786  -0.453 -0.1302 -0.5097  0.7451
  199MOL0     H27415   2.563   6.755  -0.417  0.8416  0.0412  0.2685
  199MOL0     H27416   2.652   6.639  -0.618  0.4127 -0.3847  1.5396
  199MOL0     H27417   2.523   6.751  -0.648  0.5882  2.2309  1.0300
  199MOL0     H27418   2.705   6.913  -0.723 -3.5852 -0.8908  1.5744
  199MOL0     H27419   2.824   6.790  -0.689 -0.1195  0.6047  0.1275
  199MOL0     H27420   2.869   6.584  -0.957  1.2852  0.2762  0.0210
  199MOL0     H27421   3.022   6.519  -1.091 -0.7894 -0.1890 -1.6397
  199MOL0     H27422   3.144   6.638  -1.155 -0.5540  2.5927 -1.0651
  199MOL0     H27423   3.004   6.573  -1.251 -1.7298 -0.7585  0.3381
  199MOL0     H27424   3.333   7.103  -1.191 -2.3291  1.6174  1.2737
  199MOL0     H27425   3.483   7.260  -1.305 -1.4060  2.9755  1.9723
  199MOL0     H27426   3.610   7.387  -1.431  3.6993  3.7450  0.2803
  199MOL0     H27427   3.579   7.511  -1.543 -2.8242  0.0056 -0.8842
  199MOL0     H27428   3.422   7.523  -1.286  0.7434 -2.1123 -0.6939
  199MOL0     H27429   3.576   7.600  -1.313 -0.6690 -1.2519  2.4535
  199MOL0     H27430   3.305   7.625  -1.470 -1.4402  0.5594  0.8977
  199MOL0     H27431   3.457   7.688  -1.530  0.2691 -1.7598 -0.0904
  199MOL0     H27432   3.471   7.828  -1.306 -1.6691  2.3638  1.0138
  199MOL0     H27433   3.311   7.764  -1.264  2.1437  1.0962  1.8910
  199MOL0     H27434   3.320   7.990  -1.347  0.1678  2.0921 -1.9084
  199MOL0     H27435   3.388   7.933  -1.498 -1.2827 -0.8081 -0.6956
  199MOL0     H27436   3.171   7.787  -1.530  0.2077  0.8456 -0.7636
  199MOL0     H27437   3.129   7.957  -1.529  1.2013  1.2670 -0.5574
  199MOL0     H27438   2.998   7.973  -1.369 -1.1891 -1.1510 -1.6815
  199MOL0     H27439   3.117   7.912  -1.270 -2.0922  4.3028 -0.1897
  199MOL0     H27440   3.020   7.681  -1.374  2.2324  1.7589 -0.6301
  199MOL0     H27441   2.892   7.774  -1.444 -0.7916 -0.0594  0.1155
  199MOL0     H27442   3.166   7.315  -1.600  0.7638  1.7845  0.4127
  199MOL0     H27443   3.031   7.133  -1.488 -2.3681 -0.8576  5.1031
  199MOL0     H27444   2.887   7.050  -1.134  3.2218  0.3965 -0.3747
  199MOL0     H27445   2.718   6.977  -0.943  0.7688 -0.1814 -0.7798
  199MOL0     H27446   3.208   7.120   0.541 -1.9112  1.0963  3.6190
  199MOL0     H27447   3.290   7.176   0.780  0.3721 -1.4846  1.1307
  199MOL0     H27448   3.847   7.152   1.093 -1.5765 -1.3641 -0.0157
  199MOL0     H27449   3.905   7.247   1.316 -0.3396 -0.3721  0.2114
  199MOL0     H27450   3.702   7.471   1.647  3.2310 -2.3409 -1.1478
  199MOL0     H27451   3.559   7.454   1.538 -1.0706 -1.5726 -2.3636
  199MOL0     H27452   3.728   7.258   1.695  0.1949 -2.5156 -1.6379
  199MOL0     H27453   3.595   7.206   1.594 -1.5997 -1.6374  2.1964
  199MOL0     H27454   3.558   7.378   1.845  2.1346  0.3078 -1.2755
  199MOL0     H27455   3.439   7.359   1.719  0.6948 -0.4757 -0.9102
  199MOL0     H27456   3.479   7.087   1.775 -2.6991  1.2502 -0.2611
  199MOL0     H27457   3.380   7.188   1.883  0.6142  0.5799  0.5835
  199MOL0     H27458   3.738   7.175   2.106  0.4729  1.5431 -2.2757
  199MOL0     H27459   3.514   7.402   1.357 -1.8319 -1.8378  0.7800
  199MOL0     H27460   3.360   7.378   1.187 -1.0467 -1.6090  1.2253
  199MOL0     H27461   3.414   7.368   1.013 -0.3424 -0.9118  0.4970
  199MOL0     H27462   3.351   7.234   1.094  1.4196 -0.8521  1.7322
  200MOL0     O27463   3.093   8.653   6.606 -0.4968 -0.2416  0.0873
  200MOL0     C27464   3.008   8.564   6.628 -0.9137 -0.4820  0.4006
  200MOL0     O27465   2.920   8.575   6.729  0.2241  0.6793 -0.1514
  200MOL0     C27466   2.962   8.606   6.856  0.0581 -0.9808  0.3994
  200MOL0     C27467   3.095   8.620   6.904  0.0655 -0.9961  0.6752
  200MOL0     C27468   3.113   8.671   7.035 -0.7250  0.0417 -0.0603
  200MOL0     C27469   3.011   8.698   7.126  0.0216 -0.1019  0.3668
  200MOL0     O27470   3.054   8.733   7.246 -0.3386 -0.2063 -0.3427
  200MOL0     C27471   2.963   8.772   7.352 -0.0696 -0.3054 -0.8613
  200MOL0     C27472   3.039   8.805   7.483  0.0644 -0.4472 -0.3744
  200MOL0     C27473   3.143   8.710   7.531  0.3732 -0.0030 -0.0039
  200MOL0     C27474   3.078   8.579   7.584 -0.3327  0.5542 -0.1331
  200MOL0     C27475   2.991   8.591   7.711 -0.0119 -0.7036  0.6748
  200MOL0     C27476   2.963   8.440   7.750 -0.5100 -0.6140  0.6310
  200MOL0     C27477   2.927   8.426   7.897 -1.2379 -0.2076 -0.0798
  200MOL0     C27478   2.910   8.278   7.915  0.3405  0.3967 -0.6824
  200MOL0     N27479   2.938   8.267   8.062  0.2164  0.1065 -0.2739
  200MOL0     C27480   2.838   8.239   8.156 -0.2686 -0.0989 -0.4078
  200MOL0     C27481   2.913   8.219   8.267 -0.4145  0.4558  0.5349
  200MOL0     C27482   2.863   8.211   8.411  0.2812  1.2736  0.1543
  200MOL0     C27483   2.872   8.066   8.465 -0.6791 -0.1354 -0.5746
  200MOL0     C27484   2.780   7.968   8.389  0.8005  0.6168  0.3497
  200MOL0     C27485   2.809   7.821   8.421 -0.1407  0.3439  0.1124
  200MOL0     O27486   2.741   7.753   8.305 -1.0287  0.0339 -0.1388
  200MOL0     C27487   2.631   7.671   8.329  1.2148 -0.0872 -0.9162
  200MOL0     C27488   2.611   7.608   8.456  0.4305  0.2582 -0.3586
  200MOL0     C27489   2.502   7.522   8.484 -0.2365 -0.1526  0.9554
  200MOL0     C27490   2.501   7.456   8.618 -0.1640  1.0365  0.2464
  200MOL0     C27491   2.413   7.493   8.379 -0.3140  0.1536 -0.6180
  200MOL0     C27492   2.306   7.396   8.390  0.6565  0.9684  0.0821
  200MOL0     O27493   2.222   7.419   8.498 -0.0343  0.8880 -0.1235
  200MOL0     C27494   2.127   7.320   8.516  0.7041  0.0669  0.9500
  200MOL0     C27495   2.129   7.244   8.635 -0.2679  0.0029  0.1097
  200MOL0     C27496   2.014   7.182   8.681 -0.7560 -0.2423  0.0429
  200MOL0     C27497   1.909   7.171   8.592  0.1946  0.2462 -0.2496
  200MOL0     O27498   1.803   7.085   8.615 -0.4823  0.1306 -0.0560
  200MOL0     C27499   1.672   7.136   8.594  1.1271  0.4545 -0.5445
  200MOL0     C27500   1.583   7.035   8.664  1.0061  0.1687  0.4340
  200MOL0     C27501   1.545   6.925   8.566  0.0658 -0.0536 -0.1034
  200MOL0     C27502   1.500   6.806   8.643  0.4406  0.7783  0.6611
  200MOL0     C27503   1.467   6.691   8.532  0.7774 -0.2442 -0.9203
  200MOL0     C27504   1.350   6.612   8.590  0.7025  0.5422 -0.5184
  200MOL0     C27505   1.208   6.674   8.569 -0.0839 -0.1176 -0.2308
  200MOL0     C27506   1.103   6.566   8.599 -0.4024  0.4763  0.0805
  200MOL0    Cl27507   1.113   6.513   8.761  0.1089 -0.2575 -0.0884
  200MOL0     C27508   1.918   7.222   8.460  0.0188 -0.5597  0.4757
  200MOL0     C27509   2.024   7.306   8.429  0.0212  0.2046  0.8325
  200MOL0     O27510   2.293   7.303   8.302  0.5064  0.5480  0.2891
  200MOL0     C27511   2.440   7.556   8.250 -0.4479 -0.0730 -0.6748
  200MOL0     C27512   2.534   7.649   8.228 -1.6575  0.4318 -0.3240
  200MOL0     N27513   3.049   8.215   8.232 -0.6935 -0.3237 -0.2384
  200MOL0     N27514   3.062   8.248   8.105 -0.9438  0.7194  0.7738
  200MOL0     C27515   2.879   8.681   7.077 -1.7346  0.6724 -0.9164
  200MOL0     C27516   2.858   8.646   6.938 -0.4897  1.3060 -1.1398
  200MOL0     C27517   2.975   8.469   6.521 -0.1477  0.8912 -0.0345
  200MOL0     C27518   2.839   8.460   6.482 -0.2533  0.8438 -0.3355
  200MOL0     C27519   2.787   8.375   6.390  0.2331 -0.4788  0.3419
  200MOL0     C27520   2.871   8.281   6.328  0.2452 -0.1077  0.1980
  200MOL0     O27521   2.828   8.185   6.237  0.1427  0.3974 -0.3482
  200MOL0     C27522   2.699   8.195   6.187  0.8074 -0.2848 -0.7847
  200MOL0     C27523   2.690   8.105   6.074 -0.0969  0.0603  0.2551
  200MOL0     C27524   2.540   8.077   6.035  0.2335 -0.1854  0.1097
  200MOL0     C27525   2.528   7.967   5.922  1.1462 -0.6954  0.7449
  200MOL0     C27526   2.582   8.022   5.794  0.5430  0.5516 -0.8700
  200MOL0     C27527   2.609   8.070   5.686 -0.9441 -0.5571 -0.2999
  200MOL0     C27528   3.005   8.278   6.367  0.0795 -0.7509 -0.1044
  200MOL0     C27529   3.063   8.369   6.463  0.6943  0.7838  0.3236
  200MOL0     C27530   3.210   8.358   6.497  1.4346 -0.7823  0.7503
  200MOL0     H27531   3.182   8.603   6.842  0.3265 -0.8660  1.0087
  200MOL0     H27532   3.218   8.674   7.063 -0.8366  1.6030  0.2974
  200MOL0     H27533   2.877   8.704   7.358 -1.0133  0.8582 -0.9715
  200MOL0     H27534   2.918   8.863   7.312  0.8449 -0.6337 -2.7637
  200MOL0     H27535   3.100   8.894   7.466  0.6110 -0.9889 -1.3414
  200MOL0     H27536   2.962   8.826   7.558 -2.0849 -2.1714 -1.9713
  200MOL0     H27537   3.223   8.696   7.457  0.4964 -3.7218  0.6584
  200MOL0     H27538   3.178   8.761   7.621 -1.5239 -0.2435  0.8926
  200MOL0     H27539   3.012   8.538   7.507 -1.7150  2.9017 -0.2931
  200MOL0     H27540   3.162   8.514   7.611 -1.1568 -0.2888  0.4605
  200MOL0     H27541   2.898   8.642   7.683 -0.3003 -2.1944 -1.3005
  200MOL0     H27542   3.046   8.648   7.786  1.6919 -0.5279 -0.6488
  200MOL0     H27543   2.882   8.414   7.681 -1.0494  3.0308 -0.2865
  200MOL0     H27544   3.054   8.385   7.724 -0.6320 -1.3990  1.7736
  200MOL0     H27545   2.828   8.467   7.920 -1.2314 -0.2317 -0.0108
  200MOL0     H27546   3.006   8.464   7.962  0.6013 -2.6065 -0.7433
  200MOL0     H27547   2.820   8.237   7.868 -0.2462 -0.3829  1.0380
  200MOL0     H27548   2.989   8.220   7.866  2.4197  3.0653 -0.7157
  200MOL0     H27549   2.732   8.217   8.142  0.6412 -3.4090 -3.9700
  200MOL0     H27550   2.765   8.248   8.441  0.7258  0.5851  2.7113
  200MOL0     H27551   2.934   8.262   8.477  1.4845  1.2318 -1.0599
  200MOL0     H27552   2.974   8.026   8.458 -0.5538  0.0264  0.2216
  200MOL0     H27553   2.845   8.066   8.571  2.4373 -3.5923  0.4366
  200MOL0     H27554   2.678   7.987   8.423  0.2120  0.3343 -1.1616
  200MOL0     H27555   2.795   7.983   8.282  1.0308 -0.3675  0.2320
  200MOL0     H27556   2.915   7.794   8.413 -0.6787 -2.5182  1.3633
  200MOL0     H27557   2.777   7.803   8.524  0.2294  1.3704  0.4173
  200MOL0     H27558   2.680   7.642   8.532  2.6903  2.2401 -3.0535
  200MOL0     H27559   2.401   7.428   8.653 -1.5286 -1.2333 -4.5845
  200MOL0     H27560   2.559   7.499   8.700  0.3086 -1.7214  1.4919
  200MOL0     H27561   2.541   7.355   8.605  0.1950  0.3692  4.9431
  200MOL0     H27562   2.214   7.253   8.702  1.2531 -0.6452 -1.6500
  200MOL0     H27563   2.007   7.117   8.767 -0.6897  0.0486  0.2693
  200MOL0     H27564   1.654   7.233   8.640  4.6994  1.7344 -1.5370
  200MOL0     H27565   1.651   7.152   8.488  0.1167 -1.3104 -0.6561
  200MOL0     H27566   1.643   7.010   8.752 -1.9440 -0.0314  2.5280
  200MOL0     H27567   1.496   7.084   8.707 -0.5670 -0.7409 -1.5216
  200MOL0     H27568   1.634   6.897   8.509  0.3946 -0.8016  0.7318
  200MOL0     H27569   1.471   6.947   8.488  0.0409 -1.1857 -0.4250
  200MOL0     H27570   1.416   6.824   8.711  0.1147 -0.7130  0.6893
  200MOL0     H27571   1.583   6.763   8.700 -0.1378 -1.5197 -0.1099
  200MOL0     H27572   1.431   6.719   8.432  0.4732 -3.1618 -1.7151
  200MOL0     H27573   1.547   6.620   8.513  1.7932  0.1538  1.4854
  200MOL0     H27574   1.373   6.594   8.696  0.5227 -0.0043 -0.5723
  200MOL0     H27575   1.348   6.513   8.544  0.4232 -0.6748  1.9512
  200MOL0     H27576   1.198   6.711   8.466 -0.2171  0.4976  0.0011
  200MOL0     H27577   1.203   6.758   8.639 -0.4430 -0.8563  0.6522
  200MOL0     H27578   1.117   6.484   8.527 -3.8021  1.5253 -2.0219
  200MOL0     H27579   1.003   6.609   8.595 -0.9778 -0.4341  2.6664
  200MOL0     H27580   1.845   7.196   8.384 -2.0516  1.1584  1.7938
  200MOL0     H27581   2.028   7.354   8.331  0.3565 -1.8560 -0.2111
  200MOL0     H27582   2.384   7.522   8.163 -0.5015 -1.6350 -0.0654
  200MOL0     H27583   2.558   7.699   8.134  1.1668 -1.7923 -0.9405
  200MOL0     H27584   2.793   8.707   7.138 -0.1939  1.6620  0.9378
  200MOL0     H27585   2.754   8.652   6.907 -0.8230  1.9473  0.0152
  200MOL0     H27586   2.776   8.530   6.536  0.0985  1.2925 -0.5015
  200MOL0     H27587   2.680   8.366   6.376 -0.6342  4.2825  2.0840
  200MOL0     H27588   2.631   8.164   6.267  0.8402  1.8492  0.1478
  200MOL0     H27589   2.664   8.295   6.160  1.0708 -0.8870 -3.7028
  200MOL0     H27590   2.745   8.016   6.105  0.9925  0.8026  0.5240
  200MOL0     H27591   2.735   8.151   5.986 -2.9828  1.3578 -0.6894
  200MOL0     H27592   2.474   8.051   6.119  0.0437  0.7840  0.2687
  200MOL0     H27593   2.501   8.167   5.987 -0.2973  0.2279  1.2702
  200MOL0     H27594   2.424   7.938   5.904  0.5893  1.2654  0.5335
  200MOL0     H27595   2.588   7.881   5.952  2.8968  0.2264  0.0310
  200MOL0     H27596   2.625   8.105   5.586 -0.3246 -1.0909 -0.3959
  200MOL0     H27597   3.065   8.199   6.322  0.3958  0.8189 -2.6060
  200MOL0     H27598   3.245   8.254   6.502  0.1108 -1.2146  1.6679
  200MOL0     H27599   3.267   8.410   6.420  3.6355 -2.4757  1.1117
  200MOL0     H27600   3.237   8.407   6.590  1.6311 -0.1196  0.3507
  201MOL0     O27601   8.950   9.435   8.658  0.2567 -0.0714  0.6957
  201MOL0     C27602   8.957   9.550   8.702  0.2521 -0.2741 -0.2858
  201MOL0     O27603   9.021   9.585   8.814 -0.5658 -0.4544  0.2842
  201MOL0     C27604   9.072   9.478   8.887 -0.0334  0.0828  0.9419
  201MOL0     C27605   8.988   9.403   8.979 -0.3301  0.3943  0.2855
  201MOL0     C27606   9.038   9.287   9.029  0.6748  0.6437  0.9907
  201MOL0     C27607   9.168   9.238   8.990  0.0147  0.4975  0.4362
  201MOL0     O27608   9.203   9.115   9.040  0.0456  0.4123  0.3564
  201MOL0     C27609   9.112   9.014   8.997 -0.5583  0.8251 -0.2344
  201MOL0     C27610   9.156   8.884   9.058  0.5474  0.1353  0.1546
  201MOL0     C27611   9.305   8.859   9.021  0.2012  0.1194 -0.5762
  201MOL0     C27612   9.338   8.705   9.044 -0.1085 -0.6961 -0.0595
  201MOL0     C27613   9.472   8.657   8.994  0.1209 -0.3179 -0.3630
  201MOL0     C27614   9.458   8.507   8.985 -0.4808  0.6047 -0.3990
  201MOL0     C27615   9.597   8.435   8.979  2.0128 -0.8012 -0.2191
  201MOL0     C27616   9.587   8.291   9.011  0.8191 -0.1487  0.4263
  201MOL0     N27617   9.718   8.222   9.001  0.4859 -0.1052 -0.1859
  201MOL0     C27618   9.814   8.211   9.100  0.0670  0.1862  0.2483
  201MOL0     C27619   9.925   8.146   9.031  0.4688 -0.0763 -0.1345
  201MOL0     C27620  10.066   8.113   9.062  0.5216 -0.2842 -0.3593
  201MOL0     C27621  10.093   7.966   9.048  0.2570  0.4082 -1.2479
  201MOL0     C27622  10.214   7.918   9.124  0.1208  0.4328  0.0329
  201MOL0     C27623  10.218   7.765   9.139  0.8090  0.0613  0.3225
  201MOL0     O27624  10.321   7.712   9.229 -0.7933 -0.4248 -0.3324
  201MOL0     C27625  10.455   7.715   9.196  0.5237  0.8821  0.4975
  201MOL0     C27626  10.507   7.746   9.067 -0.3777  0.0594  0.1227
  201MOL0     C27627  10.643   7.759   9.036  0.0957 -0.4366  0.5518
  201MOL0     C27628  10.682   7.810   8.899 -0.8962  0.5088 -0.0094
  201MOL0     C27629  10.723   7.710   9.143  0.5470 -0.0323 -0.0844
  201MOL0     C27630  10.873   7.694   9.130  0.7161 -0.4077 -0.1533
  201MOL0     O27631  10.912   7.612   9.029 -0.3693  0.3923  0.3446
  201MOL0     C27632  11.048   7.617   8.991  0.1496 -0.1658 -0.3280
  201MOL0     C27633  11.109   7.742   8.971 -0.5055  0.2430  0.2602
  201MOL0     C27634  11.240   7.746   8.914  0.1010  0.6966  0.1888
  201MOL0     C27635  11.327   7.636   8.917 -0.0222 -0.8514 -0.2526
  201MOL0     O27636  11.462   7.646   8.885 -0.2277  0.7126 -1.0785
  201MOL0     C27637  11.538   7.662   9.007 -0.8350 -0.3538  0.3434
  201MOL0     C27638  11.676   7.588   9.003 -1.1709  0.0657  0.0654
  201MOL0     C27639  11.740   7.645   8.878  0.4987  0.2610 -0.9471
  201MOL0     C27640  11.890   7.623   8.872 -0.6319  0.1758  1.2788
  201MOL0     C27641  11.935   7.475   8.875 -1.0756  0.4312  0.1768
  201MOL0     C27642  12.081   7.447   8.833  0.2064 -0.2226  0.9384
  201MOL0     C27643  12.128   7.300   8.861  0.1397  0.2607  0.7523
  201MOL0     C27644  12.278   7.284   8.826  0.7984 -0.1090 -0.8449
  201MOL0    Cl27645  12.316   7.262   8.664 -0.4572 -0.2427 -0.2643
  201MOL0     C27646  11.268   7.513   8.961 -1.4938 -0.7028 -0.4375
  201MOL0     C27647  11.131   7.505   8.998  0.1240 -0.4036 -0.0239
  201MOL0     O27648  10.942   7.751   9.216  0.5588  0.6619 -0.3419
  201MOL0     C27649  10.680   7.684   9.276 -0.3694  1.2148 -0.2223
  201MOL0     C27650  10.544   7.685   9.301  1.2694 -0.0654  0.0505
  201MOL0     N27651   9.879   8.092   8.909  0.8736 -0.4134 -0.0619
  201MOL0     N27652   9.760   8.140   8.896  0.4101  0.4383  0.3119
  201MOL0     C27653   9.253   9.307   8.899  0.4082 -0.1700 -1.2881
  201MOL0     C27654   9.196   9.423   8.845 -0.5654  0.2046  0.2530
  201MOL0     C27655   8.882   9.657   8.632  0.1805  0.0229 -0.2091
  201MOL0     C27656   8.807   9.743   8.706  0.0014 -0.1462  0.0210
  201MOL0     C27657   8.708   9.836   8.652 -0.2027 -0.2574  0.0712
  201MOL0     C27658   8.698   9.847   8.514  0.2585 -0.8857 -0.5346
  201MOL0     O27659   8.593   9.925   8.460  0.1575 -0.2283  0.3170
  201MOL0     C27660   8.563   9.915   8.316 -0.2053  0.2230 -0.6186
  201MOL0     C27661   8.445  10.012   8.291 -0.6163 -0.2489 -0.1979
  201MOL0     C27662   8.405  10.012   8.145 -0.3248 -0.4175  0.5918
  201MOL0     C27663   8.313  10.127   8.103  0.4460  0.6238  0.2537
  201MOL0     C27664   8.384  10.260   8.107 -1.0591  1.1073  0.4727
  201MOL0     C27665   8.442  10.360   8.134  0.2073 -0.4060  0.9116
  201MOL0     C27666   8.782   9.763   8.431  0.2761 -0.2553 -0.2963
  201MOL0     C27667   8.867   9.672   8.491  0.2606  0.5043  0.8048
  201MOL0     C27668   8.953   9.591   8.385  0.2072 -0.0900 -0.1902
  201MOL0     H27669   8.895   9.440   9.021  0.0132 -0.0094  1.4357
  201MOL0     H27670   8.976   9.229   9.097 -0.3271  0.9488  0.3674
  201MOL0     H27671   9.130   9.014   8.889  0.0326  0.3882 -0.1452
  201MOL0     H27672   9.006   9.035   9.008 -1.1673 -1.1209 -1.8644
  201MOL0     H27673   9.139   8.887   9.166 -0.3339 -0.1005  0.0318
  201MOL0     H27674   9.096   8.801   9.019 -0.4290  0.5941  0.6501
  201MOL0     H27675   9.325   8.899   8.921 -1.5070 -0.6271 -1.2541
  201MOL0     H27676   9.374   8.911   9.088  2.2220  0.5609 -2.8527
  201MOL0     H27677   9.311   8.669   9.143  1.6137 -2.2242 -0.0951
  201MOL0     H27678   9.258   8.659   8.986 -1.8763  2.1947 -0.1158
  201MOL0     H27679   9.546   8.695   9.065 -0.1352  1.5482 -1.0461
  201MOL0     H27680   9.511   8.688   8.897  0.0589 -1.8120 -0.8857
  201MOL0     H27681   9.409   8.466   9.073  2.3539  0.4920  1.2353
  201MOL0     H27682   9.400   8.481   8.895 -1.5976  2.0293 -0.1439
  201MOL0     H27683   9.650   8.492   9.055 -2.0059  3.2755 -0.0182
  201MOL0     H27684   9.643   8.448   8.880  2.3854  0.0463  0.0545
  201MOL0     H27685   9.542   8.273   9.109 -0.9143  1.0247 -0.1269
  201MOL0     H27686   9.514   8.257   8.938 -1.4759  2.5768  1.2754
  201MOL0     H27687   9.790   8.245   9.201 -2.9092  0.0476 -0.3019
  201MOL0     H27688  10.098   8.160   9.155  2.2892 -0.9346 -0.6041
  201MOL0     H27689  10.132   8.151   8.984  0.2116  1.3530  0.1326
  201MOL0     H27690  10.010   7.910   9.092 -0.6336  1.9278 -0.9121
  201MOL0     H27691  10.103   7.924   8.948 -1.1752 -0.3394 -1.1020
  201MOL0     H27692  10.299   7.958   9.068 -0.6298  0.2680 -1.2641
  201MOL0     H27693  10.216   7.957   9.227  1.0774  0.1182  0.1406
  201MOL0     H27694  10.123   7.728   9.181  0.8104 -0.5809 -0.2293
  201MOL0     H27695  10.222   7.717   9.041  0.6279 -1.1179  0.8716
  201MOL0     H27696  10.438   7.778   8.990  0.1417  1.0296  0.0471
  201MOL0     H27697  10.700   7.730   8.827 -1.9967  1.0826 -0.9752
  201MOL0     H27698  10.769   7.876   8.910 -0.1424 -0.3805 -0.5332
  201MOL0     H27699  10.607   7.874   8.850  0.7842  1.3549 -1.6161
  201MOL0     H27700  11.045   7.829   8.981  0.2731  0.8337  0.1869
  201MOL0     H27701  11.277   7.838   8.871  0.3850 -1.3500 -4.5279
  201MOL0     H27702  11.564   7.767   9.029  2.5963 -1.2513  1.2064
  201MOL0     H27703  11.487   7.624   9.096 -1.4929  0.9437  0.5514
  201MOL0     H27704  11.745   7.617   9.083 -1.9814  0.0905  0.7716
  201MOL0     H27705  11.652   7.482   8.994 -0.3377 -0.3938  2.4250
  201MOL0     H27706  11.714   7.751   8.876 -0.6074  0.2280  3.2024
  201MOL0     H27707  11.699   7.590   8.792 -0.1197 -1.1421  0.1930
  201MOL0     H27708  11.947   7.674   8.950 -2.4843  1.5706  1.7698
  201MOL0     H27709  11.926   7.669   8.780 -0.2505 -2.7775 -0.1666
  201MOL0     H27710  11.915   7.443   8.978 -1.4367  2.1705  0.6697
  201MOL0     H27711  11.865   7.420   8.811  0.3290  0.8363 -1.8092
  201MOL0     H27712  12.143   7.520   8.884  2.1995 -2.1609  1.4522
  201MOL0     H27713  12.089   7.452   8.724 -0.4576 -1.7911  0.7773
  201MOL0     H27714  12.069   7.229   8.802 -0.9960 -0.5338  2.7475
  201MOL0     H27715  12.115   7.276   8.967  1.4834 -2.4893  0.3986
  201MOL0     H27716  12.331   7.206   8.882  1.3582  0.1400 -1.0209
  201MOL0     H27717  12.336   7.370   8.858 -0.1738  0.2653 -0.0446
  201MOL0     H27718  11.333   7.425   8.958 -1.2016 -0.4624 -1.2831
  201MOL0     H27719  11.097   7.412   9.042  0.9479  0.3356  2.3548
  201MOL0     H27720  10.746   7.664   9.360 -2.0747 -0.5452  0.7703
  201MOL0     H27721  10.506   7.667   9.401  0.4793 -0.0576 -0.2431
  201MOL0     H27722   9.350   9.266   8.875  0.8604  0.6668 -0.9558
  201MOL0     H27723   9.245   9.476   8.763 -0.5640 -0.9187 -0.5080
  201MOL0     H27724   8.820   9.745   8.814 -0.7682  0.0953  0.1148
  201MOL0     H27725   8.640   9.901   8.704 -0.8322 -2.5620  2.3361
  201MOL0     H27726   8.654   9.945   8.262  0.6248  0.9229  1.0630
  201MOL0     H27727   8.530   9.816   8.286  2.2991 -0.9604  0.2251
  201MOL0     H27728   8.457  10.115   8.326  0.3772 -0.5782  0.4640
  201MOL0     H27729   8.353   9.974   8.337 -2.1542  0.6967 -2.3127
  201MOL0     H27730   8.489  10.006   8.075 -2.3214 -1.0375 -1.8719
  201MOL0     H27731   8.351   9.918   8.132 -3.4274  1.3102 -0.0060
  201MOL0     H27732   8.228  10.148   8.169  0.2306  0.2255  0.1063
  201MOL0     H27733   8.281  10.115   7.999  1.8782  2.4704 -0.4725
  201MOL0     H27734   8.493  10.451   8.156 -3.1062  1.2773  2.2054
  201MOL0     H27735   8.763   9.772   8.325 -4.9032 -1.7428  0.2082
  201MOL0     H27736   9.049   9.552   8.419  0.4563 -0.9687 -1.8313
  201MOL0     H27737   8.909   9.501   8.342  1.8744 -0.8080 -0.4568
  201MOL0     H27738   8.980   9.659   8.303  1.2397 -0.0133  0.1978
  202MOL0     O27739   9.544   4.170   8.728 -0.4522  0.0092 -0.7464
  202MOL0     C27740   9.449   4.209   8.665  0.0310 -0.0167  1.4862
  202MOL0     O27741   9.320   4.175   8.693 -0.1108 -1.2053 -0.4430
  202MOL0     C27742   9.286   4.108   8.810  0.6384 -0.1185 -0.3167
  202MOL0     C27743   9.162   4.146   8.873 -0.0335  0.1533  0.1531
  202MOL0     C27744   9.098   4.074   8.972  0.3617 -1.9008 -0.6812
  202MOL0     C27745   9.152   3.959   9.023  0.1799  0.1055 -0.2156
  202MOL0     O27746   9.091   3.905   9.138 -0.3609  0.5548 -0.0687
  202MOL0     C27747   9.185   3.826   9.214 -0.2408 -0.8029  0.5697
  202MOL0     C27748   9.143   3.775   9.344 -0.7567 -0.3116 -0.2955
  202MOL0     C27749   9.028   3.854   9.414 -0.2763 -0.4740  0.5781
  202MOL0     C27750   9.092   3.979   9.474 -0.4237 -0.5745  0.4929
  202MOL0     C27751   8.985   4.065   9.536  0.2799 -1.1530  0.6564
  202MOL0     C27752   9.044   4.207   9.570 -0.1535 -0.3019  0.1253
  202MOL0     C27753   8.945   4.287   9.639 -0.0853 -0.3947 -0.5781
  202MOL0     C27754   8.815   4.316   9.568  0.3159 -0.6584  0.1060
  202MOL0     N27755   8.723   4.401   9.644 -0.3946 -0.5285  1.1676
  202MOL0     C27756   8.625   4.356   9.724 -1.2490  1.1550 -0.0476
  202MOL0     C27757   8.554   4.468   9.765 -0.8196 -0.6498  0.2382
  202MOL0     C27758   8.428   4.463   9.842 -0.9679 -0.9413  0.8192
  202MOL0     C27759   8.444   4.402   9.977  0.8302  0.4770 -0.3688
  202MOL0     C27760   8.307   4.396  10.049 -0.9942  0.0248 -0.4645
  202MOL0     C27761   8.308   4.294  10.163  0.0864  0.5227 -0.0704
  202MOL0     O27762   8.335   4.172  10.093 -0.5569  0.3240  0.7994
  202MOL0     C27763   8.347   4.046  10.158  1.1806 -0.3918 -0.5862
  202MOL0     C27764   8.321   4.025  10.291 -0.0424  0.3284  0.3272
  202MOL0     C27765   8.316   3.895  10.341  0.8984 -0.0983  0.2262
  202MOL0     C27766   8.273   3.878  10.477  0.1365  0.6155  0.2122
  202MOL0     C27767   8.358   3.784  10.261 -0.5125  0.0329  0.8460
  202MOL0     C27768   8.386   3.648  10.315  0.0443  1.0452  0.8030
  202MOL0     O27769   8.405   3.562  10.216  0.6528 -0.8180  0.4581
  202MOL0     C27770   8.419   3.434  10.250  0.0060 -0.0433 -0.4794
  202MOL0     C27771   8.531   3.376  10.201 -0.3059  0.3382 -0.7713
  202MOL0     C27772   8.565   3.244  10.215  0.8709  0.2007 -0.0797
  202MOL0     C27773   8.472   3.161  10.284  0.2309 -0.4538 -0.1828
  202MOL0     O27774   8.506   3.031  10.293  0.3014 -0.1673  0.0979
  202MOL0     C27775   8.417   2.929  10.255 -0.1418 -0.9816  0.0899
  202MOL0     C27776   8.507   2.809  10.229 -0.2022  0.1060 -0.6890
  202MOL0     C27777   8.421   2.675  10.208 -0.2862  0.3098 -0.5592
  202MOL0     C27778   8.507   2.552  10.231  0.3871  0.2860  0.1252
  202MOL0     C27779   8.446   2.415  10.250  0.2620  0.1368 -0.0516
  202MOL0     C27780   8.543   2.316  10.325 -0.6904 -0.4389 -0.4996
  202MOL0     C27781   8.460   2.192  10.354  0.0527 -0.4589 -0.7217
  202MOL0     C27782   8.556   2.097  10.422  0.2829  0.2997 -0.4334
  202MOL0    Cl27783   8.552   1.936  10.334 -0.5347  0.1417 -0.0344
  202MOL0     C27784   8.347   3.210  10.330 -0.3513  0.4861  0.9338
  202MOL0     C27785   8.323   3.346  10.312 -0.3714 -0.3693  0.0190
  202MOL0     O27786   8.398   3.624  10.434 -0.6300  0.6354 -0.7476
  202MOL0     C27787   8.375   3.809  10.120 -0.6352  0.6444 -0.9316
  202MOL0     C27788   8.371   3.942  10.076  0.0144 -0.2035  0.1409
  202MOL0     N27789   8.614   4.579   9.702  0.4371  0.7150  0.3078
  202MOL0     N27790   8.717   4.538   9.639  0.5168  0.7225  0.8963
  202MOL0     C27791   9.278   3.920   8.971 -0.4047  0.2528  0.3022
  202MOL0     C27792   9.342   3.997   8.868  0.3790  0.0393 -0.1462
  202MOL0     C27793   9.471   4.267   8.532  0.1704  0.6754  0.4710
  202MOL0     C27794   9.376   4.227   8.431  0.2369 -0.0322  0.3623
  202MOL0     C27795   9.390   4.269   8.300 -0.2430 -0.8172 -0.0663
  202MOL0     C27796   9.494   4.347   8.265 -0.5857  0.1660  0.6711
  202MOL0     O27797   9.519   4.370   8.131 -0.0322  1.0490  0.5068
  202MOL0     C27798   9.455   4.485   8.074 -0.6607  0.0771  0.5400
  202MOL0     C27799   9.557   4.584   8.009 -0.5968 -0.7362  0.3004
  202MOL0     C27800   9.647   4.671   8.099 -0.8542 -0.2346 -0.5014
  202MOL0     C27801   9.753   4.752   8.036 -1.0774 -0.3553  0.0712
  202MOL0     C27802   9.837   4.831   8.131 -0.6743  0.5382 -0.1442
  202MOL0     C27803   9.896   4.898   8.213 -0.2657  0.3802 -0.6264
  202MOL0     C27804   9.584   4.397   8.359 -0.1966  0.0105 -0.8402
  202MOL0     C27805   9.578   4.353   8.493 -0.0135 -0.2103  0.1496
  202MOL0     C27806   9.673   4.400   8.592 -0.0246  0.0032  0.1655
  202MOL0     H27807   9.116   4.239   8.843  2.9003  1.5935 -0.2209
  202MOL0     H27808   9.008   4.121   9.012  1.5952 -1.9160  2.4275
  202MOL0     H27809   9.267   3.892   9.243 -0.4870 -0.5543  0.7093
  202MOL0     H27810   9.205   3.748   9.140 -0.4210  1.0460 -1.5471
  202MOL0     H27811   9.122   3.669   9.331  0.2806 -0.8779  2.0297
  202MOL0     H27812   9.227   3.767   9.415  0.5758 -1.4565 -1.9230
  202MOL0     H27813   8.955   3.876   9.336  0.6283 -3.4024 -1.2835
  202MOL0     H27814   8.975   3.807   9.497 -1.6840  0.5688  0.3015
  202MOL0     H27815   9.169   3.951   9.546 -0.2295  1.3639  1.0852
  202MOL0     H27816   9.135   4.034   9.390  0.1023 -2.6261 -0.6554
  202MOL0     H27817   8.946   4.023   9.629 -0.8568  0.2547  0.8553
  202MOL0     H27818   8.898   4.066   9.471  0.9385  1.4921 -0.3257
  202MOL0     H27819   9.132   4.195   9.635 -1.8815 -2.4703  2.2245
  202MOL0     H27820   9.064   4.250   9.472 -3.5442  0.2392 -0.4356
  202MOL0     H27821   8.989   4.385   9.660 -2.4386  0.2091  2.1712
  202MOL0     H27822   8.909   4.237   9.729 -4.4516 -1.3652 -2.5838
  202MOL0     H27823   8.849   4.359   9.473  1.2604 -0.8360  0.3582
  202MOL0     H27824   8.772   4.217   9.548  2.4220 -1.4541 -0.8747
  202MOL0     H27825   8.604   4.250   9.729 -1.6713  1.2717  1.0666
  202MOL0     H27826   8.346   4.422   9.783 -2.7385  0.4711  2.1976
  202MOL0     H27827   8.399   4.563   9.877  0.2674 -0.3388  0.2000
  202MOL0     H27828   8.493   4.304   9.975  1.0944  0.4898  2.1673
  202MOL0     H27829   8.513   4.460  10.040 -1.4376  0.3803  2.4130
  202MOL0     H27830   8.280   4.490  10.099 -1.6472 -0.2865 -0.2185
  202MOL0     H27831   8.231   4.372   9.974  1.4501  1.7637 -3.7283
  202MOL0     H27832   8.393   4.307  10.231  3.1166 -0.6070 -3.3315
  202MOL0     H27833   8.214   4.298  10.218 -1.5797  0.5566 -2.7292
  202MOL0     H27834   8.290   4.117  10.340 -1.7619  1.1126 -2.0573
  202MOL0     H27835   8.190   3.808  10.481  1.7621 -1.4404 -0.1275
  202MOL0     H27836   8.250   3.975  10.523  2.5927  0.9263  0.9373
  202MOL0     H27837   8.355   3.834  10.535 -0.0444 -1.1061 -0.7797
  202MOL0     H27838   8.601   3.449  10.162  0.6186 -0.9749 -1.6562
  202MOL0     H27839   8.654   3.206  10.166  1.2482  1.7741 -0.6958
  202MOL0     H27840   8.340   2.908  10.330 -2.8842 -0.6345 -2.4570
  202MOL0     H27841   8.361   2.949  10.163 -0.1976 -2.5178 -0.2416
  202MOL0     H27842   8.559   2.824  10.134  0.4305 -2.0207 -0.7305
  202MOL0     H27843   8.588   2.809  10.303 -1.2037  3.2369  0.5746
  202MOL0     H27844   8.372   2.675  10.110 -0.3113  2.6466 -0.6110
  202MOL0     H27845   8.346   2.676  10.287 -0.2072 -3.2040 -0.3000
  202MOL0     H27846   8.581   2.582  10.306  0.5075  2.3724 -0.7714
  202MOL0     H27847   8.573   2.532  10.147  0.7565  1.7803  0.0267
  202MOL0     H27848   8.349   2.434  10.298 -0.5681 -1.6179 -0.9467
  202MOL0     H27849   8.431   2.381  10.147  3.3298  1.2457 -0.9815
  202MOL0     H27850   8.584   2.359  10.417 -1.9446 -1.5599  0.6271
  202MOL0     H27851   8.625   2.295  10.257  0.7143 -4.0733  2.0409
  202MOL0     H27852   8.414   2.140  10.270 -0.9665 -0.0546 -0.4343
  202MOL0     H27853   8.371   2.223  10.410  0.7111  0.4991 -0.1886
  202MOL0     H27854   8.517   2.080  10.523  0.4347  1.8017 -0.0934
  202MOL0     H27855   8.663   2.118  10.428  0.4968 -0.4717 -1.3142
  202MOL0     H27856   8.284   3.135  10.377  0.0069 -0.3196  0.1615
  202MOL0     H27857   8.222   3.377  10.337 -0.3838 -0.3925 -0.0019
  202MOL0     H27858   8.389   3.732  10.045 -1.0773  0.0178 -0.3853
  202MOL0     H27859   8.397   3.961   9.973  1.3482  2.3248  0.8665
  202MOL0     H27860   9.333   3.837   9.013 -0.8953  1.0390  2.6460
  202MOL0     H27861   9.440   3.957   8.841  1.0223  0.0763  1.9416
  202MOL0     H27862   9.287   4.172   8.461 -1.5329  2.0853 -0.7488
  202MOL0     H27863   9.321   4.255   8.217  1.7136  3.7272 -2.8671
  202MOL0     H27864   9.393   4.440   7.997 -2.0950 -0.6096  2.0339
  202MOL0     H27865   9.387   4.537   8.143 -2.6333 -0.9474 -0.5601
  202MOL0     H27866   9.499   4.660   7.955  0.8527  0.5953  0.5497
  202MOL0     H27867   9.612   4.525   7.935  0.3334 -1.3758  1.4833
  202MOL0     H27868   9.582   4.741   8.152  1.1176  0.0672  1.6795
  202MOL0     H27869   9.690   4.609   8.179 -1.8350 -0.5855 -0.2295
  202MOL0     H27870   9.698   4.804   7.957 -1.9847 -1.0138  0.2522
  202MOL0     H27871   9.812   4.683   7.974 -2.6374  0.5597 -2.6203
  202MOL0     H27872   9.936   4.965   8.286  1.0433 -1.1299  0.1198
  202MOL0     H27873   9.668   4.461   8.334 -0.4349  0.7739  0.2621
  202MOL0     H27874   9.733   4.481   8.549  1.9061 -3.3825 -4.5171
  202MOL0     H27875   9.627   4.436   8.684  2.0533  0.2495  1.1728
  202MOL0     H27876   9.747   4.322   8.614 -2.3142 -2.1038  0.9248
  203MOL0     O27877  10.019   5.460   1.304 -0.4367  0.1250 -0.6747
  203MOL0     C27878  10.038   5.541   1.211  0.3632 -0.0479 -0.0206
  203MOL0     O27879  10.158   5.571   1.152  0.2119 -0.0009 -0.4989
  203MOL0     C27880  10.265   5.493   1.186 -0.3828 -0.9058  0.3702
  203MOL0     C27881  10.388   5.560   1.204 -0.0720  1.1223 -0.1813
  203MOL0     C27882  10.510   5.483   1.227  0.3469 -0.4149  0.0437
  203MOL0     C27883  10.510   5.345   1.241 -0.1383 -0.0640  0.1157
  203MOL0     O27884  10.631   5.293   1.270  0.0361  0.3888  0.5785
  203MOL0     C27885  10.705   5.240   1.153 -0.0519 -0.0887  0.0197
  203MOL0     C27886  10.850   5.232   1.198 -0.5352 -0.2526 -0.4064
  203MOL0     C27887  10.918   5.371   1.200  0.1159 -1.1341  0.5825
  203MOL0     C27888  11.041   5.367   1.295  0.2359  0.0953  0.4247
  203MOL0     C27889  11.163   5.330   1.206 -0.0985  0.5185 -0.0867
  203MOL0     C27890  11.303   5.342   1.271 -0.5833 -0.9233 -0.5216
  203MOL0     C27891  11.417   5.283   1.174 -0.5411  0.3639  0.1866
  203MOL0     C27892  11.436   5.376   1.054 -1.0894  0.2568 -0.4397
  203MOL0     N27893  11.554   5.343   0.979 -0.6398 -0.3853  0.3997
  203MOL0     C27894  11.676   5.400   1.003 -0.0450  0.1968 -0.2113
  203MOL0     C27895  11.771   5.310   0.965 -0.1950  0.1307 -0.7169
  203MOL0     C27896  11.910   5.321   1.001 -0.1633 -0.3580  0.0306
  203MOL0     C27897  11.987   5.433   0.918  1.3445  0.0866 -1.2495
  203MOL0     C27898  12.051   5.382   0.790 -0.8357  0.8051  0.4145
  203MOL0     C27899  12.177   5.298   0.824  0.3487 -0.4623 -0.7186
  203MOL0     O27900  12.277   5.377   0.896 -0.1339 -0.4677 -0.0837
  203MOL0     C27901  12.403   5.328   0.906 -0.4347  0.7114  0.1269
  203MOL0     C27902  12.444   5.202   0.876  0.2804 -0.3699 -0.9967
  203MOL0     C27903  12.577   5.155   0.889  0.4568 -0.5246  0.4123
  203MOL0     C27904  12.599   5.010   0.868  0.1117  0.8520  0.4195
  203MOL0     C27905  12.683   5.246   0.925 -0.7231  0.6227  0.2662
  203MOL0     C27906  12.824   5.219   0.939  0.0991 -0.6099 -0.0500
  203MOL0     O27907  12.865   5.093   0.908  0.1211  1.1705 -0.3956
  203MOL0     C27908  12.985   5.035   0.939 -0.7957 -0.5321  0.4707
  203MOL0     C27909  13.071   5.084   1.045  0.7423  0.1008  0.2530
  203MOL0     C27910  13.181   5.013   1.092 -0.5902 -0.3075 -0.0554
  203MOL0     C27911  13.204   4.886   1.026 -0.5847 -0.7635  0.0010
  203MOL0     O27912  13.321   4.834   1.063  0.6158  0.7484 -0.2301
  203MOL0     C27913  13.348   4.699   1.041 -0.8226  0.5840  1.2665
  203MOL0     C27914  13.449   4.679   0.919 -0.3403  0.2154 -0.0507
  203MOL0     C27915  13.594   4.694   0.963 -0.6412 -0.4035  0.1588
  203MOL0     C27916  13.695   4.671   0.855 -0.2532 -0.4507 -0.1872
  203MOL0     C27917  13.744   4.524   0.842  0.6029 -0.2646  0.2927
  203MOL0     C27918  13.843   4.518   0.724 -0.2558 -1.2671 -0.3065
  203MOL0     C27919  13.982   4.574   0.742 -0.1721 -0.6812  0.0987
  203MOL0     C27920  14.084   4.527   0.636  0.3889 -0.1816  0.7205
  203MOL0    Cl27921  14.229   4.631   0.637 -0.2013  0.0144 -0.0547
  203MOL0     C27922  13.134   4.843   0.916  0.3325  0.3189 -0.0019
  203MOL0     C27923  13.020   4.915   0.868  1.0738 -0.0072 -0.3646
  203MOL0     O27924  12.896   5.315   0.958 -0.4651 -0.1617  0.0492
  203MOL0     C27925  12.639   5.381   0.953  1.5061  0.2204 -0.2781
  203MOL0     C27926  12.504   5.420   0.947  0.8610  0.6958  0.3139
  203MOL0     N27927  11.703   5.202   0.914  0.2459 -0.2579 -0.6735
  203MOL0     N27928  11.573   5.232   0.905 -1.3468 -0.2376  0.4219
  203MOL0     C27929  10.386   5.280   1.229 -0.0596 -1.2217 -0.3669
  203MOL0     C27930  10.274   5.355   1.200 -0.1986  0.8210  0.6864
  203MOL0     C27931   9.919   5.618   1.164  0.3751  0.2123 -0.5451
  203MOL0     C27932   9.841   5.678   1.270 -0.0723  0.0677  0.1834
  203MOL0     C27933   9.753   5.784   1.238  0.1032  0.4304  0.2014
  203MOL0     C27934   9.721   5.816   1.106 -0.0707  0.0200  0.4253
  203MOL0     O27935   9.628   5.919   1.088  0.1963  0.1300 -0.3269
  203MOL0     C27936   9.585   5.960   0.954  0.2179 -0.0804  0.3115
  203MOL0     C27937   9.475   6.068   0.968  0.4053 -0.6436  0.2896
  203MOL0     C27938   9.526   6.202   1.014 -0.0264 -0.3565  0.1828
  203MOL0     C27939   9.657   6.250   0.924  0.3805 -0.4170 -1.0464
  203MOL0     C27940   9.650   6.255   0.782  0.3174  0.0124 -0.1563
  203MOL0     C27941   9.636   6.283   0.666  0.0190  0.4253  0.7344
  203MOL0     C27942   9.795   5.755   1.001  0.3086 -0.0188  1.3454
  203MOL0     C27943   9.889   5.651   1.032  0.4221  0.9952 -1.0522
  203MOL0     C27944   9.944   5.575   0.922 -0.2670 -0.1661  0.2569
  203MOL0     H27945  10.383   5.667   1.193 -3.4415  1.0557 -0.4070
  203MOL0     H27946  10.600   5.542   1.238  0.2401 -0.7073  3.3125
  203MOL0     H27947  10.697   5.308   1.067 -2.5709 -2.6888 -2.0026
  203MOL0     H27948  10.679   5.138   1.124  0.6397 -0.4629  0.6802
  203MOL0     H27949  10.851   5.176   1.292  0.6529  0.5309  0.0727
  203MOL0     H27950  10.904   5.170   1.127 -1.8435 -1.1758 -0.6267
  203MOL0     H27951  10.954   5.395   1.100  1.0161 -1.2235  0.8760
  203MOL0     H27952  10.849   5.450   1.233  1.2095  0.5592 -1.0500
  203MOL0     H27953  11.065   5.467   1.333  2.4841  0.0207 -0.6499
  203MOL0     H27954  11.029   5.287   1.370  2.5126 -1.7064 -0.9970
  203MOL0     H27955  11.177   5.388   1.114 -0.1239 -1.2485 -1.2406
  203MOL0     H27956  11.155   5.224   1.179  2.2633  0.8349 -2.4373
  203MOL0     H27957  11.337   5.445   1.289  1.2686 -1.1367 -2.3610
  203MOL0     H27958  11.303   5.294   1.369  1.6310 -2.9357 -1.4059
  203MOL0     H27959  11.374   5.190   1.136  0.5798 -0.2278  0.3263
  203MOL0     H27960  11.508   5.267   1.233  0.5846  1.3250 -1.2202
  203MOL0     H27961  11.346   5.366   0.991 -1.9912  2.5987  0.3570
  203MOL0     H27962  11.458   5.481   1.074  1.1955  0.2317 -2.3800
  203MOL0     H27963  11.682   5.494   1.058 -1.2588 -1.1863  2.5056
  203MOL0     H27964  11.950   5.220   0.985 -2.5084 -0.8551 -4.3960
  203MOL0     H27965  11.907   5.364   1.101  0.1699 -1.4336  0.5093
  203MOL0     H27966  11.921   5.514   0.888  2.4137  1.5257  0.1246
  203MOL0     H27967  12.059   5.472   0.991 -0.6793  2.8541 -0.5403
  203MOL0     H27968  11.984   5.316   0.735  2.1286 -0.5122 -1.9097
  203MOL0     H27969  12.083   5.460   0.721 -3.1537  0.7874 -0.7825
  203MOL0     H27970  12.152   5.219   0.896  0.2112  0.0561 -0.1836
  203MOL0     H27971  12.223   5.260   0.733  0.1079 -2.0045 -0.2152
  203MOL0     H27972  12.368   5.134   0.841 -1.2576  0.2460  0.9479
  203MOL0     H27973  12.682   4.986   0.800  0.8818  1.3244  1.1579
  203MOL0     H27974  12.518   4.963   0.814  0.1136 -0.0194  1.1559
  203MOL0     H27975  12.631   4.949   0.954  0.9606  1.1677  0.3404
  203MOL0     H27976  13.034   5.171   1.098 -3.7312 -1.7128  0.5703
  203MOL0     H27977  13.247   5.030   1.176 -0.5618 -2.6941  0.4513
  203MOL0     H27978  13.393   4.643   1.123  0.0845 -2.9518 -1.3771
  203MOL0     H27979  13.255   4.643   1.025  1.3968 -2.3192 -3.5385
  203MOL0     H27980  13.414   4.591   0.865 -1.2339 -0.3289  1.3449
  203MOL0     H27981  13.430   4.762   0.851  0.4293 -0.5008 -1.1613
  203MOL0     H27982  13.609   4.615   1.037  2.3890  0.4899  0.5942
  203MOL0     H27983  13.604   4.792   1.010  0.1817 -1.4775  2.3143
  203MOL0     H27984  13.786   4.726   0.882  0.0133 -1.0672  0.1756
  203MOL0     H27985  13.652   4.717   0.765  0.8878  2.4295  0.6132
  203MOL0     H27986  13.797   4.485   0.929  2.2014 -0.3272 -0.6769
  203MOL0     H27987  13.656   4.462   0.823 -0.9635  2.3610 -1.7133
  203MOL0     H27988  13.803   4.554   0.629 -1.5058 -0.9587  0.3094
  203MOL0     H27989  13.857   4.411   0.705 -1.4398 -1.4447 -0.2895
  203MOL0     H27990  14.023   4.559   0.843 -1.3501 -0.3553  0.6486
  203MOL0     H27991  13.977   4.682   0.732  2.7155 -0.0073  3.7623
  203MOL0     H27992  14.036   4.536   0.538  0.5437  0.2318  0.6811
  203MOL0     H27993  14.099   4.420   0.654  3.6013  0.0437 -0.0680
  203MOL0     H27994  13.155   4.749   0.867 -2.8377 -0.1453 -0.6456
  203MOL0     H27995  12.964   4.875   0.784  1.5576 -1.3550 -0.0574
  203MOL0     H27996  12.703   5.465   0.978 -5.0647  6.0539  0.0713
  203MOL0     H27997  12.475   5.523   0.965 -1.1210 -0.2453  3.3536
  203MOL0     H27998  10.374   5.173   1.246  4.6181 -1.6339  1.8824
  203MOL0     H27999  10.175   5.313   1.188 -0.4761  1.9683 -1.6528
  203MOL0     H28000   9.858   5.638   1.370 -0.4999 -2.3998 -0.6655
  203MOL0     H28001   9.701   5.830   1.321  0.5050  0.7283  0.2932
  203MOL0     H28002   9.668   5.997   0.892  0.7982  2.7931  2.5899
  203MOL0     H28003   9.531   5.873   0.917 -1.1212  0.1123  1.7031
  203MOL0     H28004   9.404   6.031   1.042  3.4721  0.0430  3.8531
  203MOL0     H28005   9.423   6.085   0.873 -1.2423 -1.3160  1.0493
  203MOL0     H28006   9.451   6.279   0.993  0.5423  0.7235  1.9086
  203MOL0     H28007   9.553   6.202   1.120 -1.0909 -3.8062  0.5734
  203MOL0     H28008   9.747   6.192   0.948 -0.3702 -0.8809  0.8337
  203MOL0     H28009   9.676   6.351   0.962  0.7304 -0.6984 -0.4591
  203MOL0     H28010   9.644   6.307   0.562 -0.5252 -1.0808  0.3248
  203MOL0     H28011   9.766   5.778   0.899 -1.6107 -2.5480  1.2345
  203MOL0     H28012   9.876   5.565   0.837 -0.8320 -1.2322  0.8025
  203MOL0     H28013  10.030   5.633   0.886 -1.5645  1.5078 -0.2739
  203MOL0     H28014   9.967   5.477   0.965  0.3503 -1.0853 -2.0375
  204MOL0     O28015  10.410   6.210   4.889 -0.7982  0.7286  0.2796
  204MOL0     C28016  10.297   6.253   4.884 -0.7160 -0.0454  0.2467
  204MOL0     O28017  10.262   6.366   4.813 -0.3469 -0.0802 -0.5164
  204MOL0     C28018  10.363   6.433   4.742 -0.4245 -0.4152  0.1287
  204MOL0     C28019  10.390   6.573   4.759 -0.3384 -0.3789  1.3307
  204MOL0     C28020  10.482   6.641   4.683 -0.4305  0.4501  0.2616
  204MOL0     C28021  10.565   6.578   4.588  0.7133  0.0303  0.2635
  204MOL0     O28022  10.659   6.640   4.502  0.1203 -0.2361  0.0997
  204MOL0     C28023  10.707   6.773   4.536 -0.0023  1.2783  0.1468
  204MOL0     C28024  10.839   6.784   4.468  0.2954  0.7697 -0.1655
  204MOL0     C28025  10.954   6.713   4.527 -0.1365  0.0872  0.0546
  204MOL0     C28026  11.003   6.780   4.657  0.1399 -0.9543 -0.1171
  204MOL0     C28027  11.108   6.700   4.721 -1.3308  0.0574  0.4759
  204MOL0     C28028  11.134   6.705   4.874  0.7555  0.2852 -0.2264
  204MOL0     C28029  11.024   6.626   4.952  0.5512 -0.7031  0.1242
  204MOL0     C28030  11.029   6.633   5.107  0.2887  0.3112 -0.5878
  204MOL0     N28031  11.156   6.590   5.163  0.1962  0.0228 -0.5791
  204MOL0     C28032  11.223   6.476   5.128 -0.6315  0.7044 -0.7225
  204MOL0     C28033  11.338   6.479   5.203  0.3331  0.5998  0.5228
  204MOL0     C28034  11.454   6.390   5.194  0.2810  0.2324  0.7805
  204MOL0     C28035  11.522   6.409   5.066 -0.2479 -0.1614  1.3900
  204MOL0     C28036  11.547   6.546   5.013 -0.8183 -1.6737 -0.1687
  204MOL0     C28037  11.640   6.617   5.117  0.7459 -0.0322 -0.5472
  204MOL0     O28038  11.766   6.566   5.117 -0.4054  0.4283 -0.0608
  204MOL0     C28039  11.856   6.627   5.199  0.3838  0.6313 -0.5696
  204MOL0     C28040  11.992   6.582   5.188  1.0304  0.0586 -1.1317
  204MOL0     C28041  12.098   6.632   5.269  0.3925  1.0811  0.1956
  204MOL0     C28042  12.243   6.612   5.221  0.4973 -0.7170 -0.4869
  204MOL0     C28043  12.064   6.720   5.375 -1.3515 -0.0424 -0.0189
  204MOL0     C28044  12.155   6.754   5.489 -0.0731  0.4583  0.8841
  204MOL0     O28045  12.156   6.884   5.532 -0.4252  0.2568 -0.4666
  204MOL0     C28046  12.219   6.923   5.649 -0.5188 -0.3053  0.2467
  204MOL0     C28047  12.231   6.850   5.762 -0.2048  0.2637  0.4042
  204MOL0     C28048  12.297   6.906   5.875 -0.3021  0.5281  0.4403
  204MOL0     C28049  12.357   7.032   5.862 -0.2267 -0.0267  0.2157
  204MOL0     O28050  12.432   7.066   5.977 -0.5686 -1.0743 -0.1956
  204MOL0     C28051  12.488   7.201   5.987 -0.2951  0.3847  0.9032
  204MOL0     C28052  12.581   7.207   6.100  0.0316 -0.3891 -0.1325
  204MOL0     C28053  12.721   7.155   6.066  0.0955 -0.8696  0.6283
  204MOL0     C28054  12.802   7.123   6.192  0.2426 -0.6418  0.2306
  204MOL0     C28055  12.947   7.140   6.156  0.1586  0.8619 -0.3528
  204MOL0     C28056  13.046   7.082   6.269  0.6434  0.0225 -0.0387
  204MOL0     C28057  13.031   7.149   6.405  0.1079  0.3742 -0.0300
  204MOL0     C28058  13.144   7.103   6.488 -0.7647  0.4709 -0.6423
  204MOL0    Cl28059  13.292   7.165   6.414 -0.2772 -0.0229 -0.0167
  204MOL0     C28060  12.348   7.108   5.742 -0.1029 -0.5023 -0.1200
  204MOL0     C28061  12.273   7.053   5.635 -0.1740  0.1360 -0.3795
  204MOL0     O28062  12.227   6.661   5.528  0.0396 -0.0485 -0.0760
  204MOL0     C28063  11.937   6.764   5.377  0.0121 -0.5784 -0.3491
  204MOL0     C28064  11.831   6.718   5.302 -0.5435  0.0006 -0.8945
  204MOL0     N28065  11.336   6.592   5.283  0.2719  0.4008  0.0253
  204MOL0     N28066  11.224   6.656   5.256 -0.5718 -0.3499 -0.4050
  204MOL0     C28067  10.538   6.442   4.562 -0.8508 -0.2580  0.1036
  204MOL0     C28068  10.438   6.375   4.639  0.1865 -0.1713 -0.6833
  204MOL0     C28069  10.189   6.150   4.929 -0.1021 -0.4183  0.7920
  204MOL0     C28070  10.059   6.196   4.949  0.5410 -0.8612  0.6624
  204MOL0     C28071   9.950   6.114   4.974  0.1329  0.1729  0.1340
  204MOL0     C28072   9.969   5.976   4.995 -1.4198  0.4674 -0.0496
  204MOL0     O28073   9.850   5.911   5.013  1.2724  0.2340 -0.2446
  204MOL0     C28074   9.838   5.770   5.036  0.3183  0.0780 -0.5376
  204MOL0     C28075   9.861   5.699   4.904  0.3047 -0.2627  0.3545
  204MOL0     C28076   9.736   5.711   4.804 -0.1638 -0.9617 -0.4330
  204MOL0     C28077   9.768   5.642   4.665 -0.2833 -0.4506 -0.6530
  204MOL0     C28078   9.880   5.714   4.600  0.8691 -0.4066 -0.4568
  204MOL0     C28079   9.974   5.784   4.559  0.2370  0.3573  0.8024
  204MOL0     C28080  10.104   5.931   4.974  0.3359 -0.2385  0.5188
  204MOL0     C28081  10.208   6.009   4.938  0.8269 -0.1489 -0.4329
  204MOL0     C28082  10.346   5.941   4.923 -0.7250 -0.2107 -1.2097
  204MOL0     H28083  10.341   6.631   4.836 -0.9113 -0.2964  0.9093
  204MOL0     H28084  10.500   6.747   4.694  2.8285  0.4288 -2.9353
  204MOL0     H28085  10.706   6.799   4.643  0.0903 -1.9155  1.0473
  204MOL0     H28086  10.638   6.847   4.495 -1.0606 -0.0734 -0.6330
  204MOL0     H28087  10.821   6.751   4.366  0.6131 -3.3281  0.9176
  204MOL0     H28088  10.864   6.890   4.480 -1.4898  0.9330  4.6919
  204MOL0     H28089  10.948   6.607   4.551  2.4193  0.1434  1.1679
  204MOL0     H28090  11.038   6.727   4.458 -1.3947  0.8818 -1.4031
  204MOL0     H28091  11.042   6.880   4.636  1.0560 -0.6855  2.4805
  204MOL0     H28092  10.914   6.793   4.720 -0.8883 -2.3013 -1.2441
  204MOL0     H28093  11.202   6.726   4.672 -1.9187  2.6008  0.5780
  204MOL0     H28094  11.091   6.594   4.697 -1.0996  0.5919 -2.4740
  204MOL0     H28095  11.234   6.671   4.905  0.0643 -0.2467  1.5537
  204MOL0     H28096  11.126   6.811   4.899  1.8558  0.9127 -2.3176
  204MOL0     H28097  11.034   6.520   4.930  1.3142 -0.2136 -2.1319
  204MOL0     H28098  10.924   6.664   4.931  0.3101 -1.7232 -0.6422
  204MOL0     H28099  11.003   6.732   5.145  1.1044 -0.0407  0.9455
  204MOL0     H28100  10.956   6.568   5.155 -1.8419  3.2711  0.5104
  204MOL0     H28101  11.190   6.404   5.054  0.4679  2.4077 -3.0171
  204MOL0     H28102  11.429   6.284   5.196  1.6765 -0.1205  0.1725
  204MOL0     H28103  11.529   6.404   5.272  0.0277 -3.1972  1.8034
  204MOL0     H28104  11.621   6.364   5.079  1.4739  2.8508 -0.0898
  204MOL0     H28105  11.469   6.361   4.984  1.2068  1.6726 -0.7338
  204MOL0     H28106  11.601   6.540   4.918  0.7385 -1.1465  0.6440
  204MOL0     H28107  11.462   6.613   5.001  0.5785  0.8360  2.6750
  204MOL0     H28108  11.631   6.723   5.093 -1.8533 -0.0391  0.1466
  204MOL0     H28109  11.601   6.611   5.219  1.0899 -1.1199 -0.4640
  204MOL0     H28110  12.023   6.510   5.113  0.5799 -1.2283 -0.1116
  204MOL0     H28111  12.294   6.545   5.291 -3.4840 -1.1255  2.3895
  204MOL0     H28112  12.300   6.705   5.228 -0.5390 -0.0970  0.0297
  204MOL0     H28113  12.247   6.574   5.119  1.6997 -0.8024 -0.4254
  204MOL0     H28114  12.187   6.750   5.766  0.9675 -0.2627  0.5033
  204MOL0     H28115  12.296   6.859   5.973 -1.4645  1.7035  1.0397
  204MOL0     H28116  12.536   7.232   5.894  0.9553 -0.0844  1.3676
  204MOL0     H28117  12.402   7.265   6.009 -3.1223 -2.3704 -1.2020
  204MOL0     H28118  12.586   7.308   6.143 -1.7418 -1.4385  2.7999
  204MOL0     H28119  12.552   7.143   6.183  0.8998 -1.0064 -0.2902
  204MOL0     H28120  12.773   7.238   6.017 -2.5363 -0.0362 -0.9612
  204MOL0     H28121  12.715   7.069   5.999 -2.9519 -0.2671 -0.0461
  204MOL0     H28122  12.784   7.019   6.224  2.3530 -0.7435  1.2745
  204MOL0     H28123  12.783   7.182   6.282  0.8006  1.2232 -0.8411
  204MOL0     H28124  12.966   7.088   6.062  2.4874 -1.9840  1.4990
  204MOL0     H28125  12.963   7.247   6.144 -1.3236  1.1315 -0.1155
  204MOL0     H28126  13.149   7.089   6.232  1.8685 -2.0738  2.6355
  204MOL0     H28127  13.030   6.975   6.282 -1.0914  0.5518  3.0938
  204MOL0     H28128  12.943   7.119   6.463 -0.4652  0.2119 -0.9598
  204MOL0     H28129  13.036   7.257   6.392  0.2160  0.2687 -0.8874
  204MOL0     H28130  13.154   6.994   6.489 -0.6592  0.4297  2.2462
  204MOL0     H28131  13.138   7.130   6.594 -2.4101 -0.8757 -0.3550
  204MOL0     H28132  12.385   7.209   5.728  2.2046 -0.9997  1.7459
  204MOL0     H28133  12.265   7.109   5.543 -2.8918 -0.8849 -0.8753
  204MOL0     H28134  11.911   6.842   5.447  1.1445 -0.5742  0.0787
  204MOL0     H28135  11.732   6.762   5.304 -0.2834  0.5886 -0.9780
  204MOL0     H28136  10.581   6.396   4.473  0.3630  0.3220  0.3710
  204MOL0     H28137  10.437   6.267   4.625  3.4196 -0.2754 -0.8271
  204MOL0     H28138  10.037   6.302   4.935  1.3317 -0.9112 -1.2437
  204MOL0     H28139   9.845   6.141   4.978  0.1240  0.3801 -1.0221
  204MOL0     H28140   9.922   5.730   5.095 -0.2386  1.6298  1.3981
  204MOL0     H28141   9.742   5.736   5.077 -0.2174  2.4688  0.3177
  204MOL0     H28142   9.869   5.592   4.923 -0.0722  0.0119  2.2732
  204MOL0     H28143   9.958   5.728   4.863  1.1945 -3.4863 -0.0573
  204MOL0     H28144   9.649   5.667   4.853  0.6499  0.2595  2.3477
  204MOL0     H28145   9.705   5.814   4.783  1.0038 -0.3334  0.7494
  204MOL0     H28146   9.680   5.632   4.601 -0.0616 -0.9670 -0.8875
  204MOL0     H28147   9.805   5.539   4.668 -1.2295 -1.1080 -4.9062
  204MOL0     H28148  10.059   5.841   4.529 -0.4201  1.2204  0.5297
  204MOL0     H28149  10.125   5.825   4.985 -0.6027 -0.4147  0.7242
  204MOL0     H28150  10.410   5.967   5.008 -2.7661  2.8376 -0.4322
  204MOL0     H28151  10.340   5.833   4.907 -0.9586 -0.7866  2.0726
  204MOL0     H28152  10.384   5.983   4.830 -5.5056  0.6048 -3.0874
  205MOL0     O28153   8.421  10.048   7.035 -0.6571  0.2371 -0.9663
  205MOL0     C28154   8.476  10.130   7.107  1.3060  0.4161 -0.5455
  205MOL0     O28155   8.578  10.107   7.186  0.1353 -0.4845 -0.0472
  205MOL0     C28156   8.666  10.001   7.164  0.3343 -0.2158  0.2920
  205MOL0     C28157   8.765   9.990   7.259 -0.0564  0.2862 -1.4330
  205MOL0     C28158   8.877   9.904   7.258 -0.5401  0.3790  1.0562
  205MOL0     C28159   8.882   9.812   7.151 -0.3640 -0.5290 -0.4935
  205MOL0     O28160   8.990   9.726   7.159  0.1507  0.0917  0.1174
  205MOL0     C28161   8.966   9.603   7.089 -0.2095 -0.3174  0.2293
  205MOL0     C28162   9.056   9.493   7.127 -0.5655 -0.2958  0.2582
  205MOL0     C28163   9.034   9.442   7.274 -0.4329  0.6862 -0.0534
  205MOL0     C28164   9.104   9.515   7.389  0.3772 -0.0115 -0.3506
  205MOL0     C28165   9.079   9.431   7.514  0.0203  0.2040  0.4116
  205MOL0     C28166   9.130   9.505   7.634  0.9769 -0.1301 -0.9663
  205MOL0     C28167   9.142   9.407   7.760  0.2086  0.7976  0.8008
  205MOL0     C28168   9.245   9.448   7.860  0.1711 -0.5507 -0.2727
  205MOL0     N28169   9.213   9.411   7.997  0.0806  0.5791 -0.3857
  205MOL0     C28170   9.219   9.288   8.061 -0.7728  0.7631 -0.5251
  205MOL0     C28171   9.200   9.316   8.188  0.1468 -0.1610  0.6987
  205MOL0     C28172   9.204   9.222   8.311 -0.4922  0.0375  1.1490
  205MOL0     C28173   9.113   9.258   8.427 -0.0498  0.4349 -0.0834
  205MOL0     C28174   9.129   9.157   8.534 -0.6672 -0.6987  0.7895
  205MOL0     C28175   9.258   9.123   8.600 -0.1759  0.3347  0.3018
  205MOL0     O28176   9.328   9.028   8.520  0.0297 -0.3236 -0.0920
  205MOL0     C28177   9.436   8.964   8.573 -0.0919  0.2052 -0.0815
  205MOL0     C28178   9.500   8.862   8.492  0.5332 -0.7071 -0.6830
  205MOL0     C28179   9.611   8.790   8.528 -0.1830  0.1047 -0.0847
  205MOL0     C28180   9.665   8.700   8.419  0.4509  0.1823  0.4138
  205MOL0     C28181   9.658   8.798   8.664  0.1389 -0.1492  0.1897
  205MOL0     C28182   9.755   8.708   8.728 -0.0904  0.9713  0.0859
  205MOL0     O28183   9.818   8.742   8.846  0.6374 -1.1573  0.3356
  205MOL0     C28184   9.916   8.662   8.890  0.0592 -0.0402 -0.5411
  205MOL0     C28185  10.023   8.624   8.803  0.5604 -0.5850  0.8991
  205MOL0     C28186  10.113   8.533   8.856  0.3824  0.8551  0.2029
  205MOL0     C28187  10.113   8.486   8.991  0.5003  0.1211  0.3292
  205MOL0     O28188  10.206   8.407   9.040  0.3728  0.3071 -0.6098
  205MOL0     C28189  10.330   8.469   9.045 -0.3238  0.7451 -0.4288
  205MOL0     C28190  10.445   8.377   9.088 -0.2202  0.0903 -0.1734
  205MOL0     C28191  10.419   8.236   9.031 -0.0387  0.1589  0.2024
  205MOL0     C28192  10.549   8.152   9.016  0.2984  0.8130 -0.0306
  205MOL0     C28193  10.645   8.147   9.136  0.6993  0.4590 -0.0448
  205MOL0     C28194  10.574   8.086   9.260 -0.0386 -0.4613 -0.4878
  205MOL0     C28195  10.679   8.058   9.366 -0.1410 -0.1235  0.7945
  205MOL0     C28196  10.608   8.012   9.492 -0.2308 -0.3495 -0.4144
  205MOL0    Cl28197  10.722   8.028   9.632 -0.0981 -0.0753 -0.1960
  205MOL0     C28198  10.007   8.528   9.073 -0.0793  0.0575  0.5160
  205MOL0     C28199   9.905   8.615   9.021 -0.6630 -0.3280 -0.5802
  205MOL0     O28200   9.760   8.586   8.684  0.5812  0.3032 -0.5129
  205MOL0     C28201   9.601   8.899   8.743 -0.6237  0.2433  0.2921
  205MOL0     C28202   9.493   8.977   8.704 -0.4183  0.2129 -0.2582
  205MOL0     N28203   9.162   9.444   8.206 -0.9196 -0.4093  0.1772
  205MOL0     N28204   9.182   9.498   8.091 -0.6083 -0.5973 -0.0373
  205MOL0     C28205   8.780   9.811   7.059 -0.5038 -0.8896 -0.5199
  205MOL0     C28206   8.684   9.912   7.059  0.1883 -0.3731  0.3007
  205MOL0     C28207   8.430  10.275   7.096  0.1239  0.2838 -0.6384
  205MOL0     C28208   8.489  10.377   7.172  0.1353  0.3717  0.4835
  205MOL0     C28209   8.451  10.514   7.168 -0.0980  0.8024  0.0037
  205MOL0     C28210   8.345  10.555   7.090 -0.2717  0.7993  1.1583
  205MOL0     O28211   8.302  10.683   7.058 -0.5048  0.0444 -0.1185
  205MOL0     C28212   8.337  10.790   7.136  0.2284 -1.0562 -0.2588
  205MOL0     C28213   8.258  10.910   7.083  1.3897 -0.1595  0.4836
  205MOL0     C28214   8.114  10.931   7.130  0.2769  0.7479  0.7120
  205MOL0     C28215   8.001  10.888   7.039  0.3003 -1.0948 -0.0580
  205MOL0     C28216   8.016  10.970   6.919 -0.1066  0.5609  1.0515
  205MOL0     C28217   8.031  11.039   6.822  0.6192 -0.2216  0.4701
  205MOL0     C28218   8.276  10.453   7.025 -0.3867  0.8305 -0.6945
  205MOL0     C28219   8.308  10.316   7.040  0.0007 -0.1143  0.7348
  205MOL0     C28220   8.186  10.224   7.007 -0.2304 -0.7245 -0.2058
  205MOL0     H28221   8.772  10.067   7.335  0.2597  0.1543 -1.3285
  205MOL0     H28222   8.962   9.912   7.326 -0.0857 -1.5755  0.7841
  205MOL0     H28223   8.994   9.625   6.986 -1.3233  2.8266  0.5091
  205MOL0     H28224   8.861   9.573   7.090  0.1146 -1.4933  0.2925
  205MOL0     H28225   9.032   9.412   7.058  0.8786 -0.8597  0.3835
  205MOL0     H28226   9.159   9.526   7.110 -0.4079  0.3604  2.2075
  205MOL0     H28227   8.925   9.441   7.289 -0.7815  2.3499 -2.0381
  205MOL0     H28228   9.069   9.339   7.272 -0.2756  0.7471 -0.3331
  205MOL0     H28229   9.214   9.519   7.385  0.6147 -2.0826  1.9781
  205MOL0     H28230   9.059   9.614   7.404  0.5833 -0.0685  0.7053
  205MOL0     H28231   9.133   9.335   7.506 -1.1940 -0.4137 -0.6853
  205MOL0     H28232   8.973   9.412   7.531 -0.6487  0.9024 -2.4293
  205MOL0     H28233   9.232   9.522   7.600  2.1495 -1.6769  1.5089
  205MOL0     H28234   9.069   9.594   7.655  0.6100 -0.9354  1.7277
  205MOL0     H28235   9.173   9.310   7.721 -0.1888  1.0773 -0.2283
  205MOL0     H28236   9.039   9.388   7.793 -0.7191  1.3282 -1.5824
  205MOL0     H28237   9.343   9.406   7.836  0.0748 -0.8292 -0.1802
  205MOL0     H28238   9.258   9.556   7.850 -2.1181 -0.3281 -1.7015
  205MOL0     H28239   9.243   9.198   8.004 -1.8665  1.7616 -2.7127
  205MOL0     H28240   9.307   9.234   8.345  0.0035 -0.7496 -0.0304
  205MOL0     H28241   9.202   9.116   8.287 -0.4015 -0.6045  3.6893
  205MOL0     H28242   9.143   9.357   8.463  3.2169 -0.2984 -0.4455
  205MOL0     H28243   9.010   9.255   8.392  0.9490 -2.9104 -3.4922
  205MOL0     H28244   9.064   9.202   8.610  0.7208  0.2567  1.4794
  205MOL0     H28245   9.080   9.070   8.491  1.4558  0.1173 -3.8531
  205MOL0     H28246   9.314   9.212   8.630 -1.0717  1.4043 -1.0619
  205MOL0     H28247   9.233   9.072   8.693 -2.4571 -0.9771 -0.9299
  205MOL0     H28248   9.457   8.860   8.392  0.0944  0.1460 -0.5171
  205MOL0     H28249   9.645   8.748   8.323 -1.5913  3.2428  2.1962
  205MOL0     H28250   9.616   8.604   8.438 -0.4059  0.9287  2.2986
  205MOL0     H28251   9.774   8.688   8.426  0.4013 -2.5793 -1.7857
  205MOL0     H28252  10.022   8.650   8.697  0.3631 -0.1669  1.0016
  205MOL0     H28253  10.188   8.506   8.782 -0.2845  1.9781 -0.9099
  205MOL0     H28254  10.365   8.490   8.944 -1.5584  1.0812 -0.8047
  205MOL0     H28255  10.325   8.560   9.107 -0.4356 -0.6198  1.6822
  205MOL0     H28256  10.539   8.413   9.046 -1.5823  0.6639 -2.9702
  205MOL0     H28257  10.452   8.370   9.197 -0.2280 -0.6458 -0.2108
  205MOL0     H28258  10.366   8.243   8.936 -1.0387 -0.8561  0.6613
  205MOL0     H28259  10.354   8.183   9.102 -0.9320  0.5331 -0.3135
  205MOL0     H28260  10.613   8.184   8.934 -1.7997  0.1114 -2.0597
  205MOL0     H28261  10.531   8.047   8.989  0.7233  0.1335  2.1166
  205MOL0     H28262  10.731   8.082   9.117  0.6936  0.5425 -0.3655
  205MOL0     H28263  10.684   8.246   9.161  1.8348 -0.3734  1.6682
  205MOL0     H28264  10.512   8.001   9.232  2.1015 -0.8996 -4.6621
  205MOL0     H28265  10.518   8.169   9.305  2.2632  2.2082 -2.2104
  205MOL0     H28266  10.724   8.155   9.391 -1.4359  1.8345 -3.5076
  205MOL0     H28267  10.742   7.985   9.313 -0.3184  1.5939 -2.0336
  205MOL0     H28268  10.570   7.910   9.485  2.7116 -1.4086 -3.0621
  205MOL0     H28269  10.531   8.088   9.510  2.5605  3.4037 -2.7112
  205MOL0     H28270  10.008   8.485   9.173  0.8342  2.7776  1.7816
  205MOL0     H28271   9.813   8.642   9.071  0.0698  2.4299 -0.5130
  205MOL0     H28272   9.631   8.912   8.846  1.2199  3.2359 -0.5174
  205MOL0     H28273   9.440   9.039   8.776 -0.3790 -0.8417  0.6978
  205MOL0     H28274   8.784   9.745   6.973 -0.6420 -1.5513 -0.0273
  205MOL0     H28275   8.613   9.906   6.977  1.1106  0.5940 -0.5807
  205MOL0     H28276   8.549  10.357   7.260  0.4579  1.2830  0.4737
  205MOL0     H28277   8.516  10.581   7.223 -1.3815  1.8719  0.2802
  205MOL0     H28278   8.308  10.781   7.241  1.0487  2.1879  0.3749
  205MOL0     H28279   8.442  10.820   7.134 -0.7130  2.7573 -1.3814
  205MOL0     H28280   8.279  10.914   6.976 -1.3780  0.6866 -0.1143
  205MOL0     H28281   8.313  10.995   7.124  3.7361 -1.5887  0.5039
  205MOL0     H28282   8.089  10.866   7.215 -0.0770  2.4783  1.9832
  205MOL0     H28283   8.102  11.034   7.164 -1.7091  0.2424  1.6606
  205MOL0     H28284   7.909  10.917   7.092  0.1432 -2.2502  0.3339
  205MOL0     H28285   7.992  10.779   7.034 -1.0213 -0.9696 -0.8066
  205MOL0     H28286   8.046  11.099   6.735  0.2124 -2.7204 -1.4611
  205MOL0     H28287   8.184  10.486   6.976  1.2501  2.5499 -2.8056
  205MOL0     H28288   8.101  10.287   6.982  0.7057  0.3943 -0.6495
  205MOL0     H28289   8.209  10.163   6.919  0.7616  0.3296 -0.7047
  205MOL0     H28290   8.146  10.166   7.091 -3.9281  3.6164  1.4197
  206MOL0     O28291   9.202   9.712   3.585  0.2473  0.6114 -0.6922
  206MOL0     C28292   9.131   9.752   3.498  0.2881 -0.1784  0.0356
  206MOL0     O28293   9.104   9.685   3.386  0.5994  0.1701  0.0713
  206MOL0     C28294   9.207   9.622   3.336  0.0604 -0.1653  0.0988
  206MOL0     C28295   9.307   9.694   3.263  1.8953 -0.1947  0.7806
  206MOL0     C28296   9.409   9.626   3.207  1.1669 -0.0774  0.3089
  206MOL0     C28297   9.429   9.490   3.215 -0.2925  0.5981  0.9914
  206MOL0     O28298   9.538   9.432   3.153 -0.0921  0.2564  0.2987
  206MOL0     C28299   9.562   9.297   3.178 -0.9623 -0.3386 -0.6158
  206MOL0     C28300   9.682   9.229   3.100 -0.0496 -0.9117  0.4897
  206MOL0     C28301   9.797   9.229   3.191 -0.3363 -1.1554 -0.3721
  206MOL0     C28302   9.863   9.097   3.178 -0.9039 -0.5143  0.1226
  206MOL0     C28303  10.010   9.103   3.208  0.1047 -0.8390 -0.4836
  206MOL0     C28304  10.053   9.089   3.358  0.6528  0.1910  0.0531
  206MOL0     C28305  10.201   9.122   3.383 -0.0303 -0.3261  0.3693
  206MOL0     C28306  10.247   9.264   3.381  0.3379 -1.0260 -0.0548
  206MOL0     N28307  10.375   9.282   3.456  0.2607 -0.2136 -0.7136
  206MOL0     C28308  10.500   9.235   3.417  0.7536  0.0105 -0.5208
  206MOL0     C28309  10.583   9.275   3.513 -0.6431  0.0383 -0.0745
  206MOL0     C28310  10.730   9.234   3.514  0.4589  0.0577  0.3567
  206MOL0     C28311  10.751   9.081   3.525 -0.0099 -0.1680 -0.1921
  206MOL0     C28312  10.894   9.049   3.538 -0.5212 -0.3508 -0.0511
  206MOL0     C28313  10.898   8.912   3.594 -0.2246 -0.0793  0.1469
  206MOL0     O28314  11.036   8.872   3.597  0.2602  0.2140 -0.1848
  206MOL0     C28315  11.066   8.815   3.720 -0.0189 -0.3363  0.8424
  206MOL0     C28316  11.082   8.680   3.734 -1.0750  0.2600 -0.4368
  206MOL0     C28317  11.129   8.625   3.855 -0.2715  0.1260 -0.1731
  206MOL0     C28318  11.153   8.471   3.866 -0.0315  0.1312 -0.3999
  206MOL0     C28319  11.160   8.716   3.962 -0.0568 -0.9611 -0.6573
  206MOL0     C28320  11.222   8.678   4.094 -0.4431 -0.0371  0.1591
  206MOL0     O28321  11.216   8.775   4.191  0.0610 -0.6273 -0.3487
  206MOL0     C28322  11.270   8.758   4.308  0.2769 -0.1240 -0.2754
  206MOL0     C28323  11.213   8.685   4.416 -0.0528  0.1724 -0.4051
  206MOL0     C28324  11.284   8.682   4.537  0.8781  0.1706 -0.6328
  206MOL0     C28325  11.397   8.752   4.555 -0.9886 -0.7502  0.0805
  206MOL0     O28326  11.459   8.771   4.672 -1.3041 -0.3454  0.1000
  206MOL0     C28327  11.384   8.751   4.792 -0.2467  0.2599  0.4582
  206MOL0     C28328  11.467   8.788   4.910  0.2301 -0.3592 -0.0829
  206MOL0     C28329  11.603   8.710   4.929 -0.2220 -0.0035 -0.5421
  206MOL0     C28330  11.663   8.747   5.061 -0.0971  0.2524 -1.0155
  206MOL0     C28331  11.808   8.708   5.078  0.0871 -0.8306  0.4068
  206MOL0     C28332  11.857   8.735   5.222 -0.0060  0.1989  0.3525
  206MOL0     C28333  12.001   8.690   5.250 -0.5615  0.2976  0.1952
  206MOL0     C28334  12.044   8.733   5.394  0.0082 -0.0708 -0.1542
  206MOL0    Cl28335  12.023   8.904   5.422  0.1905  0.2349 -0.5366
  206MOL0     C28336  11.452   8.809   4.442  0.2163  1.0419 -1.3298
  206MOL0     C28337  11.389   8.812   4.317 -0.7074  0.6444  0.1735
  206MOL0     O28338  11.260   8.563   4.119  0.6812 -0.6316 -0.3356
  206MOL0     C28339  11.138   8.854   3.943 -0.0565  0.3371 -0.1158
  206MOL0     C28340  11.094   8.902   3.824  0.5867  0.0246 -0.8102
  206MOL0     N28341  10.516   9.340   3.618 -0.1080  0.7528  0.6266
  206MOL0     N28342  10.393   9.350   3.571  0.1829  0.2115 -0.7079
  206MOL0     C28343   9.330   9.417   3.287  1.1752  0.2573 -0.7389
  206MOL0     C28344   9.226   9.480   3.356  0.1732 -0.3457 -0.4890
  206MOL0     C28345   9.058   9.888   3.509 -0.5786  0.0046 -0.4902
  206MOL0     C28346   8.969   9.934   3.402 -0.3562  0.8156  0.5508
  206MOL0     C28347   8.930  10.065   3.406  0.0720  0.0785  0.2343
  206MOL0     C28348   8.950  10.152   3.512 -0.7600 -0.3331 -0.1179
  206MOL0     O28349   8.900  10.280   3.509 -0.2223  0.3651  0.3774
  206MOL0     C28350   8.967  10.394   3.562 -0.0271 -0.2544  0.3339
  206MOL0     C28351   8.867  10.498   3.615 -0.7802  0.2116  0.4499
  206MOL0     C28352   8.889  10.638   3.561  0.0154  0.9228  0.8158
  206MOL0     C28353   8.873  10.665   3.406  0.4559 -0.4014  0.1825
  206MOL0     C28354   8.745  10.631   3.340  0.0623  0.5930 -1.4092
  206MOL0     C28355   8.643  10.615   3.279  0.7798  0.4139  0.0936
  206MOL0     C28356   9.028  10.104   3.622  0.2553 -0.0679  0.3334
  206MOL0     C28357   9.072   9.973   3.627 -0.3815 -0.5572  0.2787
  206MOL0     C28358   9.144   9.940   3.755 -0.2726  0.4312  0.2947
  206MOL0     H28359   9.297   9.801   3.249 -0.9087 -0.7183 -2.4590
  206MOL0     H28360   9.490   9.673   3.152  1.7524 -2.2237 -0.8055
  206MOL0     H28361   9.468   9.245   3.155 -0.8349  0.0815 -2.2035
  206MOL0     H28362   9.571   9.288   3.287 -0.2230  0.7041 -0.5744
  206MOL0     H28363   9.642   9.128   3.088 -2.9585  0.3495 -1.6443
  206MOL0     H28364   9.710   9.278   3.006 -1.8852  2.0301  1.3569
  206MOL0     H28365   9.861   9.310   3.155 -2.3982  0.3040 -0.9367
  206MOL0     H28366   9.775   9.245   3.297  0.9768  0.6395 -0.3252
  206MOL0     H28367   9.805   9.030   3.241 -2.5626  0.7224 -0.0165
  206MOL0     H28368   9.853   9.057   3.076 -0.6766  1.5800 -0.7735
  206MOL0     H28369  10.047   9.201   3.178 -0.2360 -0.5376  0.0623
  206MOL0     H28370  10.063   9.028   3.148 -0.1755  0.6996 -2.7785
  206MOL0     H28371   9.996   9.152   3.426  3.6978  1.9180  1.2126
  206MOL0     H28372  10.026   8.990   3.395  0.2456  0.9186  1.8084
  206MOL0     H28373  10.265   9.074   3.309 -0.7584  1.9121 -1.8924
  206MOL0     H28374  10.217   9.084   3.484  1.3244 -0.9746 -0.0669
  206MOL0     H28375  10.260   9.301   3.279 -2.2038  2.8547  0.7847
  206MOL0     H28376  10.171   9.326   3.430  1.9261  1.2971 -0.3410
  206MOL0     H28377  10.530   9.183   3.326  2.8780  0.6159 -0.2082
  206MOL0     H28378  10.794   9.281   3.589  1.8475 -1.2464  0.0476
  206MOL0     H28379  10.771   9.278   3.423  0.3238  0.1806  0.3552
  206MOL0     H28380  10.704   9.052   3.620  1.8878  0.1508  0.8812
  206MOL0     H28381  10.711   9.018   3.444  1.6491 -1.2801 -0.1813
  206MOL0     H28382  10.954   9.055   3.447 -0.3834  0.5908  0.0895
  206MOL0     H28383  10.951   9.113   3.606 -0.3002  0.4157 -0.9323
  206MOL0     H28384  10.847   8.915   3.690  1.2499  2.5946  0.9509
  206MOL0     H28385  10.839   8.841   3.536 -0.2515 -2.7585  3.2152
  206MOL0     H28386  11.082   8.619   3.645 -1.9348  0.2649 -0.4435
  206MOL0     H28387  11.262   8.458   3.862  0.5668  3.9752 -1.4705
  206MOL0     H28388  11.106   8.423   3.780  0.1583  0.1571 -0.5189
  206MOL0     H28389  11.112   8.427   3.957  0.4651  1.6317  0.5973
  206MOL0     H28390  11.119   8.631   4.419 -0.2350  0.3668 -2.0624
  206MOL0     H28391  11.249   8.620   4.619  1.0817 -0.6190 -1.1278
  206MOL0     H28392  11.297   8.817   4.782  0.2477  0.7303 -0.8890
  206MOL0     H28393  11.355   8.645   4.800  1.7386 -0.3540  0.1261
  206MOL0     H28394  11.491   8.894   4.901  1.8878 -0.8654 -2.9958
  206MOL0     H28395  11.400   8.775   4.995  1.5522 -0.0557  1.0451
  206MOL0     H28396  11.686   8.744   4.867  0.9311  1.1106  1.5043
  206MOL0     H28397  11.586   8.602   4.916 -0.8390  0.1954 -1.4515
  206MOL0     H28398  11.611   8.691   5.139  1.3059 -2.3270 -1.8023
  206MOL0     H28399  11.657   8.855   5.075 -1.6749  0.2434 -1.3745
  206MOL0     H28400  11.839   8.605   5.055  1.8109 -0.1252 -0.5898
  206MOL0     H28401  11.870   8.776   5.020  0.8062  0.8976  3.0119
  206MOL0     H28402  11.787   8.696   5.296  2.0851  1.8529  3.4467
  206MOL0     H28403  11.837   8.842   5.235 -3.4010 -0.1724 -0.8561
  206MOL0     H28404  12.076   8.731   5.183  0.6002 -0.4592  0.9981
  206MOL0     H28405  12.008   8.580   5.250  0.6847  0.3504 -1.4006
  206MOL0     H28406  12.150   8.706   5.395 -0.1924 -0.8694 -0.1069
  206MOL0     H28407  12.002   8.668   5.471  1.1414 -1.5284 -0.7089
  206MOL0     H28408  11.552   8.846   4.463 -0.3027  1.1279  1.3012
  206MOL0     H28409  11.437   8.858   4.231  1.0104 -0.8727  0.2393
  206MOL0     H28410  11.157   8.921   4.026 -1.3531  0.3044  0.2217
  206MOL0     H28411  11.077   9.009   3.821  3.1405  0.5274  0.4374
  206MOL0     H28412   9.316   9.310   3.294 -2.2984  0.6826  2.6535
  206MOL0     H28413   9.159   9.433   3.427 -0.2471 -0.1073 -0.7258
  206MOL0     H28414   8.956   9.866   3.318  0.4439 -2.5136  2.9059
  206MOL0     H28415   8.884  10.103   3.315 -0.1101 -2.0964 -0.6615
  206MOL0     H28416   9.046  10.380   3.636  0.2509  2.6815  0.7289
  206MOL0     H28417   9.020  10.432   3.474  1.7113  1.5312  2.0475
  206MOL0     H28418   8.862  10.495   3.724  0.5920 -0.5558  0.5151
  206MOL0     H28419   8.765  10.479   3.582 -0.9274  2.9983 -1.0150
  206MOL0     H28420   8.813  10.704   3.604 -2.5023 -0.3846 -1.3440
  206MOL0     H28421   8.986  10.677   3.594  0.2429  0.8194  0.2791
  206MOL0     H28422   8.949  10.602   3.357 -0.6975 -2.8256  1.3569
  206MOL0     H28423   8.899  10.770   3.388  2.3318 -0.6292  1.2663
  206MOL0     H28424   8.550  10.600   3.229  1.3632  1.0496 -1.2056
  206MOL0     H28425   9.042  10.164   3.712 -0.5364  0.7000 -0.0472
  206MOL0     H28426   9.159  10.030   3.817 -0.0430  0.2815  0.4592
  206MOL0     H28427   9.086   9.867   3.813  2.6655 -2.7919 -0.4971
  206MOL0     H28428   9.239   9.888   3.744  1.1932  2.0201  3.8807
  207MOL0     O28429   6.611   8.758   5.291 -0.3759 -0.1055 -0.5477
  207MOL0     C28430   6.562   8.859   5.329  0.4856 -0.3320 -0.6465
  207MOL0     O28431   6.512   8.954   5.255 -0.0446 -0.7978  0.5168
  207MOL0     C28432   6.581   9.001   5.140  0.8806 -0.1758 -0.2792
  207MOL0     C28433   6.577   9.144   5.128 -0.3405 -0.2617  0.0866
  207MOL0     C28434   6.645   9.192   5.011  0.0518  0.0361  0.2594
  207MOL0     C28435   6.685   9.105   4.911  0.1891  0.0506 -0.0610
  207MOL0     O28436   6.742   9.152   4.796 -0.4729  0.0887 -0.4518
  207MOL0     C28437   6.794   9.286   4.783  0.2358  0.0689  0.1722
  207MOL0     C28438   6.790   9.312   4.631  0.7614 -0.1243 -0.2608
  207MOL0     C28439   6.848   9.207   4.545  0.4225 -0.5882 -0.1928
  207MOL0     C28440   6.869   9.252   4.400  0.1283 -0.5795 -0.5148
  207MOL0     C28441   7.010   9.297   4.363  0.3513 -0.5364  0.3154
  207MOL0     C28442   7.009   9.352   4.220  0.7467  0.1453  0.0040
  207MOL0     C28443   7.152   9.368   4.164 -0.9040 -0.7699 -0.5126
  207MOL0     C28444   7.219   9.509   4.194  0.4921  0.3149 -0.3546
  207MOL0     N28445   7.253   9.538   4.334 -0.0596 -0.2648  0.0822
  207MOL0     C28446   7.161   9.594   4.421 -0.9556 -0.2799 -0.8127
  207MOL0     C28447   7.236   9.611   4.527  0.4663 -0.4472  0.2321
  207MOL0     C28448   7.183   9.665   4.655  0.3222 -0.3213 -0.7782
  207MOL0     C28449   7.083   9.565   4.744 -0.8028  0.0408 -1.0146
  207MOL0     C28450   7.006   9.642   4.848  0.3384 -0.4448  0.1949
  207MOL0     C28451   7.051   9.632   4.991  0.0436 -0.1064  0.1254
  207MOL0     O28452   7.005   9.512   5.060  0.9257  0.0559  0.0153
  207MOL0     C28453   6.875   9.511   5.111  0.3511  0.8301  0.3060
  207MOL0     C28454   6.766   9.589   5.067  0.5035 -0.6321 -0.0634
  207MOL0     C28455   6.637   9.574   5.125 -0.9222  0.5312 -0.1689
  207MOL0     C28456   6.543   9.678   5.091  1.2024 -0.3937 -0.2721
  207MOL0     C28457   6.621   9.471   5.229 -0.4553 -0.4365 -0.0947
  207MOL0     C28458   6.500   9.453   5.292  0.4187 -0.4346  0.3269
  207MOL0     O28459   6.495   9.427   5.425 -0.1869  0.0854  0.1430
  207MOL0     C28460   6.388   9.471   5.499 -0.4573 -0.0928 -0.4760
  207MOL0     C28461   6.335   9.377   5.592  0.4184  0.0004 -0.8004
  207MOL0     C28462   6.242   9.418   5.690 -0.4792  0.7797 -0.2754
  207MOL0     C28463   6.214   9.556   5.702  1.1037 -0.4681 -0.1969
  207MOL0     O28464   6.130   9.584   5.808  0.0728  0.0007  0.1700
  207MOL0     C28465   6.094   9.722   5.836  0.0548  0.1151  0.9774
  207MOL0     C28466   6.016   9.708   5.966 -0.6627 -0.2634 -0.2012
  207MOL0     C28467   5.875   9.683   5.925 -0.4449  0.0206  0.8127
  207MOL0     C28468   5.804   9.807   5.863 -0.6191 -0.3721 -0.6574
  207MOL0     C28469   5.687   9.764   5.776 -0.5389 -0.6309  0.5861
  207MOL0     C28470   5.575   9.667   5.827 -0.1687 -0.1171 -0.5736
  207MOL0     C28471   5.485   9.745   5.927 -0.5848  0.6274  0.7005
  207MOL0     C28472   5.357   9.665   5.951 -0.1677 -0.4439  0.5936
  207MOL0    Cl28473   5.404   9.507   6.034  0.4497 -0.2339  0.1661
  207MOL0     C28474   6.262   9.652   5.606  0.7340 -0.2760 -0.5078
  207MOL0     C28475   6.347   9.608   5.509 -0.3870 -1.0934  0.2655
  207MOL0     O28476   6.398   9.466   5.226 -0.2638  0.0334 -0.2508
  207MOL0     C28477   6.732   9.395   5.266  0.4417  0.8679 -0.2557
  207MOL0     C28478   6.854   9.418   5.212 -0.5154 -0.6248 -0.0205
  207MOL0     N28479   7.366   9.564   4.519 -0.2188  0.0126 -0.5494
  207MOL0     N28480   7.363   9.519   4.400 -0.2921 -0.1058  0.2109
  207MOL0     C28481   6.685   8.966   4.934 -1.1757 -0.3519  1.0111
  207MOL0     C28482   6.636   8.918   5.047 -0.2928 -0.7352 -0.1201
  207MOL0     C28483   6.506   8.867   5.464  0.0583 -0.5975 -0.5588
  207MOL0     C28484   6.397   8.956   5.498  0.3727 -0.2023 -0.3048
  207MOL0     C28485   6.338   8.964   5.622  0.3164  0.7382  0.2675
  207MOL0     C28486   6.402   8.906   5.735 -0.8149  0.5276  0.4880
  207MOL0     O28487   6.354   8.914   5.862 -0.2450 -0.0338  0.4244
  207MOL0     C28488   6.235   8.994   5.888  0.3210  0.6734  0.0080
  207MOL0     C28489   6.193   8.973   6.033  0.8599 -0.6378 -0.2289
  207MOL0     C28490   6.173   8.835   6.073 -0.4124  0.8944 -0.2716
  207MOL0     C28491   6.154   8.824   6.225 -0.5187  0.9336 -0.0795
  207MOL0     C28492   6.052   8.916   6.285 -0.5777 -0.6850 -0.2509
  207MOL0     C28493   5.959   8.991   6.320 -0.1420  0.5999 -0.9563
  207MOL0     C28494   6.511   8.823   5.711 -1.2013 -0.0287 -0.8601
  207MOL0     C28495   6.557   8.792   5.579  0.4224 -0.1642 -0.3725
  207MOL0     C28496   6.679   8.698   5.569 -0.4593 -0.1332  0.2239
  207MOL0     H28497   6.508   9.212   5.177 -1.6011  0.1118 -2.0689
  207MOL0     H28498   6.642   9.297   4.985  0.4569 -0.4189 -1.8503
  207MOL0     H28499   6.894   9.285   4.826 -0.4038 -0.0906  1.7490
  207MOL0     H28500   6.725   9.357   4.830 -0.2634 -0.6705  0.5999
  207MOL0     H28501   6.684   9.330   4.609  0.5547  0.1745  0.8702
  207MOL0     H28502   6.844   9.403   4.604  0.5651  0.1125  0.1335
  207MOL0     H28503   6.942   9.179   4.593  1.7889  1.4839 -1.4977
  207MOL0     H28504   6.777   9.124   4.540 -1.1341  0.6110  0.8425
  207MOL0     H28505   6.847   9.165   4.338  4.8688  1.5096 -5.9800
  207MOL0     H28506   6.799   9.325   4.359  2.2004  2.3608  0.8109
  207MOL0     H28507   7.067   9.204   4.362  1.0645 -0.1091 -1.2437
  207MOL0     H28508   7.052   9.370   4.433  1.8207 -2.0186  1.0281
  207MOL0     H28509   6.949   9.283   4.160 -0.7086 -0.4489  2.0167
  207MOL0     H28510   6.954   9.446   4.209  0.6279 -0.2048 -3.3850
  207MOL0     H28511   7.147   9.373   4.054  2.5126  3.3963 -0.7438
  207MOL0     H28512   7.216   9.292   4.209  1.4008  2.3669  1.9133
  207MOL0     H28513   7.312   9.515   4.137  0.9488 -0.9882  0.2294
  207MOL0     H28514   7.153   9.586   4.153  1.1840  0.7911 -0.5974
  207MOL0     H28515   7.057   9.627   4.415 -0.3560  1.6533 -1.3960
  207MOL0     H28516   7.142   9.764   4.630 -1.9942 -1.1244 -0.3856
  207MOL0     H28517   7.269   9.686   4.719  1.5742 -6.1261  0.0193
  207MOL0     H28518   7.016   9.517   4.672 -0.8158 -0.8340 -0.4295
  207MOL0     H28519   7.138   9.487   4.798 -0.7354 -0.7912 -2.2515
  207MOL0     H28520   7.013   9.748   4.821  3.3559 -0.5174  0.3801
  207MOL0     H28521   6.902   9.607   4.844  0.7361 -1.5326 -1.3489
  207MOL0     H28522   7.160   9.631   4.988  0.0424  0.0147  0.0418
  207MOL0     H28523   7.022   9.722   5.047  1.7621  0.4509  0.1634
  207MOL0     H28524   6.774   9.671   4.996 -0.2969 -0.7456 -0.2939
  207MOL0     H28525   6.591   9.768   5.050  1.9206 -1.2449 -1.3638
  207MOL0     H28526   6.486   9.712   5.178 -2.6806 -4.0670 -1.0543
  207MOL0     H28527   6.467   9.648   5.018 -0.6537 -2.6978  2.3979
  207MOL0     H28528   6.365   9.273   5.588 -7.1055 -2.6954 -1.9409
  207MOL0     H28529   6.195   9.352   5.761  1.8308  1.3696  1.9230
  207MOL0     H28530   6.179   9.789   5.855 -0.2277  1.1036 -1.0203
  207MOL0     H28531   6.038   9.762   5.751 -0.5256  1.0307  1.7663
  207MOL0     H28532   6.061   9.629   6.027 -0.4410  0.6404  0.8430
  207MOL0     H28533   6.016   9.799   6.027  0.0310 -0.6378  0.3778
  207MOL0     H28534   5.813   9.648   6.009  0.1183 -0.2305  1.1258
  207MOL0     H28535   5.859   9.605   5.851 -1.4715  0.4854  0.5160
  207MOL0     H28536   5.869   9.867   5.800 -1.1680 -1.0261 -1.8934
  207MOL0     H28537   5.773   9.867   5.949 -1.3004 -0.4556 -0.8379
  207MOL0     H28538   5.636   9.852   5.739 -1.1576 -0.3358  2.0592
  207MOL0     H28539   5.728   9.710   5.690 -1.8247  0.2619 -0.6229
  207MOL0     H28540   5.632   9.586   5.874  1.0629  0.8751 -0.2657
  207MOL0     H28541   5.515   9.633   5.743 -1.5298  2.4989 -0.7553
  207MOL0     H28542   5.463   9.842   5.881 -2.7340 -0.5860 -1.0267
  207MOL0     H28543   5.533   9.770   6.021  1.3296  0.9637 -0.3181
  207MOL0     H28544   5.296   9.649   5.861 -5.0253  1.7295  3.0924
  207MOL0     H28545   5.290   9.724   6.014  1.0689 -0.7322  2.2314
  207MOL0     H28546   6.232   9.755   5.624 -1.7002 -1.2427  1.6510
  207MOL0     H28547   6.391   9.673   5.435  0.0049 -0.6324  0.8945
  207MOL0     H28548   6.731   9.315   5.339 -1.9441  1.1727  0.1129
  207MOL0     H28549   6.926   9.348   5.252 -0.6936 -0.8086 -0.0220
  207MOL0     H28550   6.728   8.896   4.864 -0.0539 -0.0160  1.3328
  207MOL0     H28551   6.622   8.814   5.071  3.3717 -1.3370  0.1080
  207MOL0     H28552   6.372   9.026   5.419 -0.0562 -0.9939 -0.8797
  207MOL0     H28553   6.257   9.035   5.639  1.9201  1.9827  3.3944
  207MOL0     H28554   6.260   9.097   5.864 -1.8036  1.1596 -0.2991
  207MOL0     H28555   6.146   8.973   5.828 -1.1622  0.4003  2.1747
  207MOL0     H28556   6.093   9.019   6.038  1.3990  0.5173  0.2963
  207MOL0     H28557   6.265   9.018   6.100  1.8162 -1.2266 -0.8402
  207MOL0     H28558   6.086   8.799   6.017 -1.2829  1.6863  0.5412
  207MOL0     H28559   6.260   8.777   6.041 -0.4778 -0.9354  2.4981
  207MOL0     H28560   6.247   8.838   6.281 -1.7542 -0.6005  2.5837
  207MOL0     H28561   6.113   8.724   6.242 -0.2412  0.4948 -1.7779
  207MOL0     H28562   5.894   9.068   6.357  1.4336  1.6927 -0.3338
  207MOL0     H28563   6.571   8.788   5.794 -2.5460  0.4103  0.3385
  207MOL0     H28564   6.754   8.722   5.492 -1.6147 -1.9744 -1.5673
  207MOL0     H28565   6.734   8.695   5.663 -0.3916  1.6793  0.2825
  207MOL0     H28566   6.642   8.597   5.554 -2.3076  0.6488 -0.8912
  208MOL0     O28567   8.505   9.365   6.923 -0.4358 -0.2979 -0.0752
  208MOL0     C28568   8.535   9.329   7.036  0.0490 -0.1854  1.4773
  208MOL0     O28569   8.582   9.202   7.068 -0.3770  0.2332 -0.0452
  208MOL0     C28570   8.597   9.112   6.967 -0.2070 -0.3852 -0.7557
  208MOL0     C28571   8.706   9.140   6.880  0.3174 -1.1573 -0.3793
  208MOL0     C28572   8.724   9.056   6.777 -0.4053 -0.2746  0.4104
  208MOL0     C28573   8.642   8.946   6.752  0.0859  0.8376  0.3185
  208MOL0     O28574   8.677   8.874   6.637 -0.0505 -0.3888 -0.3616
  208MOL0     C28575   8.579   8.784   6.577  0.1244  0.1274 -0.2418
  208MOL0     C28576   8.657   8.717   6.458 -0.2152  0.4746 -0.1023
  208MOL0     C28577   8.571   8.621   6.359  0.6066 -0.1293  0.1565
  208MOL0     C28578   8.660   8.561   6.238  0.5313 -0.1581 -0.3249
  208MOL0     C28579   8.579   8.476   6.143 -0.8581 -0.1928  0.6575
  208MOL0     C28580   8.662   8.428   6.021 -0.1713  0.3049  0.0969
  208MOL0     C28581   8.585   8.326   5.941  0.2297  0.8094 -0.6027
  208MOL0     C28582   8.661   8.293   5.816 -0.6110 -0.0508 -0.0595
  208MOL0     N28583   8.790   8.227   5.855 -0.5022  0.5357  0.3826
  208MOL0     C28584   8.911   8.285   5.877  0.2120 -0.2850  0.3333
  208MOL0     C28585   8.997   8.178   5.894  0.9522  0.1606  0.0443
  208MOL0     C28586   9.147   8.182   5.903  0.1191 -0.5606 -0.9395
  208MOL0     C28587   9.208   8.308   5.951  0.2388 -0.7280 -0.5684
  208MOL0     C28588   9.363   8.310   5.913  0.2708  0.2224 -0.5646
  208MOL0     C28589   9.446   8.217   6.011  0.5609  0.1837  0.2669
  208MOL0     O28590   9.582   8.255   6.002 -0.2076  0.1996 -0.4189
  208MOL0     C28591   9.672   8.212   6.102 -0.4927 -0.4554 -0.0386
  208MOL0     C28592   9.645   8.126   6.211  0.2765  0.2579  0.9391
  208MOL0     C28593   9.744   8.085   6.304 -0.2079  0.3055 -1.0154
  208MOL0     C28594   9.696   7.990   6.421  0.4884 -0.8100  0.4353
  208MOL0     C28595   9.869   8.141   6.294 -0.7116 -0.4094  0.2354
  208MOL0     C28596   9.981   8.114   6.391 -0.3874 -0.7794 -0.0034
  208MOL0     O28597  10.111   8.139   6.353  0.5879 -0.7490  0.5475
  208MOL0     C28598  10.216   8.100   6.436  0.5235 -0.0587 -0.3675
  208MOL0     C28599  10.333   8.038   6.384 -0.3654 -0.1080 -0.1803
  208MOL0     C28600  10.445   8.005   6.471  0.0977  0.2152 -0.6262
  208MOL0     C28601  10.442   8.043   6.600  0.4774 -0.1537 -0.1726
  208MOL0     O28602  10.554   8.026   6.681  0.2594  0.4000 -0.2364
  208MOL0     C28603  10.533   7.990   6.823  1.1141 -0.1384 -0.7846
  208MOL0     C28604  10.564   8.110   6.909 -1.0486  0.1493 -0.7578
  208MOL0     C28605  10.553   8.077   7.057 -0.1323 -0.2090 -0.4853
  208MOL0     C28606  10.622   8.190   7.138  0.1383 -0.2075  0.2298
  208MOL0     C28607  10.634   8.149   7.286  0.3134 -0.2803  0.0733
  208MOL0     C28608  10.687   8.260   7.378 -0.7743 -0.5637  0.3755
  208MOL0     C28609  10.828   8.309   7.336  0.1180 -0.4515 -0.4340
  208MOL0     C28610  10.935   8.206   7.373 -0.6095 -0.7405 -0.0021
  208MOL0    Cl28611  10.986   8.216   7.542  0.5249 -0.1765  0.1193
  208MOL0     C28612  10.327   8.112   6.654 -0.5210  0.4707 -0.5296
  208MOL0     C28613  10.214   8.134   6.577 -0.1232  0.6579  0.1984
  208MOL0     O28614   9.948   8.075   6.502  0.4237 -0.3800 -0.2979
  208MOL0     C28615   9.900   8.236   6.191  0.7581  0.2915  0.5049
  208MOL0     C28616   9.805   8.275   6.092  0.1429 -0.0518  0.8184
  208MOL0     N28617   8.926   8.061   5.884  0.4969  0.4056  0.0179
  208MOL0     N28618   8.801   8.092   5.863 -0.2915  0.4929  0.1308
  208MOL0     C28619   8.546   8.907   6.844 -0.1402 -0.0320 -1.1873
  208MOL0     C28620   8.517   8.994   6.955 -0.0870  0.4281 -0.3309
  208MOL0     C28621   8.542   9.437   7.137  0.2979 -0.1735  0.4871
  208MOL0     C28622   8.611   9.406   7.252 -0.1211 -1.0222  0.5674
  208MOL0     C28623   8.639   9.506   7.350  0.0425  0.0815  1.0122
  208MOL0     C28624   8.568   9.626   7.351 -1.0588 -0.0467 -0.1697
  208MOL0     O28625   8.583   9.720   7.457 -1.3169  0.6223  0.4600
  208MOL0     C28626   8.716   9.735   7.518  0.4089 -0.4302  0.6216
  208MOL0     C28627   8.726   9.649   7.641  0.0815  0.7340 -0.1190
  208MOL0     C28628   8.637   9.707   7.756 -0.3822  0.0685  0.6294
  208MOL0     C28629   8.725   9.793   7.840  0.1459 -0.5340  0.0042
  208MOL0     C28630   8.813   9.709   7.915 -0.9252 -0.0352 -0.8074
  208MOL0     C28631   8.880   9.638   7.984 -0.2258  0.1369 -0.1234
  208MOL0     C28632   8.477   9.651   7.240 -0.5726 -0.5795 -0.5565
  208MOL0     C28633   8.468   9.564   7.134 -0.6488 -0.2474 -0.3544
  208MOL0     C28634   8.373   9.609   7.022  0.0781  0.2544  0.0844
  208MOL0     H28635   8.773   9.225   6.895  1.8988 -2.0031 -2.1361
  208MOL0     H28636   8.797   9.073   6.699  0.6118 -1.5452  1.0494
  208MOL0     H28637   8.494   8.843   6.543  1.0144  4.0087  3.3374
  208MOL0     H28638   8.553   8.713   6.656 -0.3596  0.0842 -0.4371
  208MOL0     H28639   8.697   8.799   6.397 -0.7021  1.3282  0.7031
  208MOL0     H28640   8.730   8.650   6.505 -0.2378  0.5919  0.1014
  208MOL0     H28641   8.517   8.544   6.415 -1.4853  1.0568 -0.1236
  208MOL0     H28642   8.490   8.689   6.332  0.5135  0.4312  1.7202
  208MOL0     H28643   8.696   8.657   6.201  1.6766  0.8587  3.0469
  208MOL0     H28644   8.747   8.509   6.279 -0.4852 -0.6891  1.2625
  208MOL0     H28645   8.505   8.548   6.105  3.4236  3.4194 -1.8596
  208MOL0     H28646   8.538   8.390   6.195  0.4741 -0.9888  0.4309
  208MOL0     H28647   8.697   8.509   5.958  2.2638  1.8045  3.1239
  208MOL0     H28648   8.748   8.387   6.074  0.5681  2.5656  0.7221
  208MOL0     H28649   8.486   8.367   5.921  1.5812  4.8404  0.1376
  208MOL0     H28650   8.563   8.233   5.994 -0.1206  2.8240  3.0923
  208MOL0     H28651   8.595   8.223   5.764 -0.0644 -1.3194  0.8910
  208MOL0     H28652   8.677   8.381   5.753  0.9308  1.4043  2.2008
  208MOL0     H28653   8.938   8.389   5.863  1.6425 -0.5038  1.1456
  208MOL0     H28654   9.182   8.155   5.803 -0.6989  0.1869 -1.4416
  208MOL0     H28655   9.169   8.104   5.976 -2.6347 -1.2694 -0.7600
  208MOL0     H28656   9.150   8.389   5.905 -1.1671 -0.2362  1.8825
  208MOL0     H28657   9.194   8.317   6.059  0.1172 -5.3148 -0.0002
  208MOL0     H28658   9.385   8.270   5.814  3.4490 -3.6597  1.4057
  208MOL0     H28659   9.391   8.415   5.922 -0.5378  0.2567  3.2447
  208MOL0     H28660   9.406   8.229   6.112 -1.4113  0.1997 -0.4721
  208MOL0     H28661   9.426   8.112   5.987 -0.7106 -0.2116  2.7298
  208MOL0     H28662   9.551   8.072   6.218  0.3637 -0.0360  0.0138
  208MOL0     H28663   9.782   7.929   6.448  1.3327  0.6291  1.0833
  208MOL0     H28664   9.612   7.929   6.386  0.0866  0.0705 -0.1823
  208MOL0     H28665   9.665   8.045   6.510 -3.3031  0.2376 -1.3058
  208MOL0     H28666  10.333   7.990   6.287 -1.2943 -3.1188  1.1988
  208MOL0     H28667  10.540   7.968   6.433 -0.0339  2.7068 -3.7458
  208MOL0     H28668  10.440   7.934   6.840  2.8562 -2.8489  0.5748
  208MOL0     H28669  10.612   7.916   6.840  0.0477 -1.0982  0.1887
  208MOL0     H28670  10.667   8.141   6.889 -0.8016 -0.4158 -0.3921
  208MOL0     H28671  10.501   8.198   6.888 -1.0158 -0.0599 -1.7962
  208MOL0     H28672  10.596   7.979   7.079 -2.3071 -1.1280 -0.0211
  208MOL0     H28673  10.451   8.063   7.093 -0.7232  1.5731 -1.3508
  208MOL0     H28674  10.567   8.284   7.143  3.2865  1.7327  2.5231
  208MOL0     H28675  10.724   8.212   7.104  0.2856 -1.2680 -0.0610
  208MOL0     H28676  10.539   8.112   7.324  0.8262 -0.9310  0.7513
  208MOL0     H28677  10.694   8.057   7.293  1.0556  0.2913  1.6437
  208MOL0     H28678  10.686   8.220   7.480  0.4677  0.8243  0.9682
  208MOL0     H28679  10.617   8.343   7.393 -1.5419 -1.2026  0.4227
  208MOL0     H28680  10.839   8.404   7.390  0.8917  0.1057 -1.5438
  208MOL0     H28681  10.842   8.337   7.231  2.2553 -0.1140 -0.1089
  208MOL0     H28682  11.022   8.223   7.309  0.1159  2.3006  1.5779
  208MOL0     H28683  10.889   8.109   7.352 -0.7112 -0.2883 -2.0170
  208MOL0     H28684  10.338   8.138   6.759  1.5266 -1.3817 -0.2016
  208MOL0     H28685  10.136   8.191   6.626 -1.4243  1.4371 -2.5476
  208MOL0     H28686   9.998   8.282   6.188  1.5835 -1.4493 -0.5543
  208MOL0     H28687   9.836   8.344   6.015  1.0863  0.8115  1.9345
  208MOL0     H28688   8.485   8.817   6.846  0.3448 -0.3571  0.3875
  208MOL0     H28689   8.444   8.975   7.033 -0.5668 -1.3582 -1.1616
  208MOL0     H28690   8.658   9.308   7.254  4.9383  1.0850  2.6455
  208MOL0     H28691   8.719   9.485   7.420  2.7367  2.0471 -1.2334
  208MOL0     H28692   8.794   9.709   7.446 -0.6124  0.7127 -0.9653
  208MOL0     H28693   8.725   9.844   7.523  0.1228  0.1024 -4.7291
  208MOL0     H28694   8.830   9.634   7.669  0.0489  1.8844  0.7224
  208MOL0     H28695   8.683   9.551   7.617 -0.6317  1.1885 -0.7642
  208MOL0     H28696   8.549   9.765   7.730 -1.1362 -0.7259  1.3535
  208MOL0     H28697   8.602   9.619   7.811  0.4729 -0.5001  0.2849
  208MOL0     H28698   8.656   9.838   7.911 -1.1745  0.4433 -1.7988
  208MOL0     H28699   8.762   9.870   7.772  0.0246  0.5495  1.1325
  208MOL0     H28700   8.944   9.583   8.051 -1.8262 -2.4523 -0.5782
  208MOL0     H28701   8.414   9.740   7.242  0.1047 -0.0723 -1.1520
  208MOL0     H28702   8.307   9.528   6.988 -0.6959 -0.0199  2.0816
  208MOL0     H28703   8.313   9.692   7.058 -0.8683 -0.4459  0.1635
  208MOL0     H28704   8.425   9.650   6.935  0.4573  0.7471  0.5438
  209MOL0     O28705   5.659   4.998   0.191  0.5351  0.6833  0.6210
  209MOL0     C28706   5.566   4.920   0.170 -0.6458 -0.5391  0.1580
  209MOL0     O28707   5.438   4.932   0.213 -0.4856  0.1538  0.4191
  209MOL0     C28708   5.424   5.034   0.312 -0.6362  0.6219  0.2697
  209MOL0     C28709   5.473   4.990   0.436 -0.0408  0.2787  0.6777
  209MOL0     C28710   5.447   5.070   0.548  0.0661  0.3330 -0.2362
  209MOL0     C28711   5.387   5.203   0.530  0.1226  0.5914 -0.8076
  209MOL0     O28712   5.377   5.285   0.641  0.1250 -0.2225  0.3638
  209MOL0     C28713   5.474   5.389   0.643 -0.3602 -0.8716  0.6343
  209MOL0     C28714   5.513   5.398   0.793  0.5031 -0.3518 -0.3541
  209MOL0     C28715   5.666   5.431   0.804  0.1885  0.9425 -0.6059
  209MOL0     C28716   5.712   5.419   0.948 -0.5288  0.1228 -0.4115
  209MOL0     C28717   5.853   5.467   0.986 -0.0849 -0.9715  0.0367
  209MOL0     C28718   5.961   5.395   0.902  0.0739 -0.0897  0.5800
  209MOL0     C28719   6.101   5.430   0.966  0.2560 -0.3144 -0.2225
  209MOL0     C28720   6.214   5.322   0.963  0.0824 -0.0696  0.0940
  209MOL0     N28721   6.210   5.272   0.823 -0.3769 -0.2330 -0.2650
  209MOL0     C28722   6.293   5.330   0.726  0.3749 -0.2966 -0.9350
  209MOL0     C28723   6.254   5.265   0.615  0.6366  0.2974  0.0436
  209MOL0     C28724   6.320   5.290   0.481  0.4732  0.4415 -0.6750
  209MOL0     C28725   6.268   5.417   0.417 -0.0588 -0.3563 -0.8527
  209MOL0     C28726   6.355   5.468   0.294 -0.2975  0.1218 -0.7746
  209MOL0     C28727   6.348   5.622   0.280  0.3099  0.3174  0.2980
  209MOL0     O28728   6.233   5.661   0.201  0.0756 -0.0301 -0.0024
  209MOL0     C28729   6.124   5.729   0.257 -0.3947  0.2568  0.1656
  209MOL0     C28730   6.002   5.694   0.213  0.3748 -0.1553  0.9683
  209MOL0     C28731   5.893   5.754   0.277  0.1507  0.4402  0.0721
  209MOL0     C28732   5.756   5.717   0.218 -0.2796  0.0415  0.3820
  209MOL0     C28733   5.910   5.850   0.374 -0.4235 -0.2874  0.9906
  209MOL0     C28734   5.803   5.901   0.456 -0.0699  0.0088 -0.6608
  209MOL0     O28735   5.702   5.811   0.500 -0.3553 -0.2746 -0.2979
  209MOL0     C28736   5.605   5.841   0.584  0.7993 -0.5339 -0.2786
  209MOL0     C28737   5.624   5.813   0.718 -0.2738 -0.2100 -0.7212
  209MOL0     C28738   5.514   5.833   0.809  0.3270  0.5545  0.7319
  209MOL0     C28739   5.386   5.869   0.752  0.9614 -0.7461 -0.2034
  209MOL0     O28740   5.261   5.869   0.826  0.0569 -0.5965 -0.0481
  209MOL0     C28741   5.264   5.844   0.969 -0.0112  0.2941 -0.0509
  209MOL0     C28742   5.124   5.848   1.027  0.5403  0.4655  0.3685
  209MOL0     C28743   5.123   5.827   1.179 -0.1769 -0.0526  0.3943
  209MOL0     C28744   5.154   5.950   1.262  0.0320 -0.3250  0.8273
  209MOL0     C28745   5.173   5.916   1.409 -0.1140  0.1701  0.5242
  209MOL0     C28746   5.193   6.038   1.490 -0.8080 -0.2565  0.3206
  209MOL0     C28747   5.256   6.025   1.628  0.3906  0.3614 -0.7192
  209MOL0     C28748   5.251   6.151   1.709  0.5447 -1.3549 -0.8320
  209MOL0    Cl28749   5.348   6.137   1.866  0.4333  0.3029  0.0781
  209MOL0     C28750   5.378   5.904   0.622  1.1109  0.9808 -0.2343
  209MOL0     C28751   5.482   5.884   0.537  0.2016 -0.7579 -0.1395
  209MOL0     O28752   5.801   6.026   0.478  0.3087  0.7563 -0.0757
  209MOL0     C28753   6.041   5.885   0.416  0.2532  0.2457 -0.0249
  209MOL0     C28754   6.146   5.833   0.350 -0.5414  0.2892  0.0643
  209MOL0     N28755   6.161   5.167   0.645  0.6364  0.1052  0.1917
  209MOL0     N28756   6.134   5.180   0.769 -0.2447 -0.4500  0.1323
  209MOL0     C28757   5.342   5.236   0.407 -0.0570  0.5868 -1.7659
  209MOL0     C28758   5.354   5.152   0.294 -0.8643 -0.1218 -0.4483
  209MOL0     C28759   5.601   4.801   0.087  0.1096 -0.7389 -0.4411
  209MOL0     C28760   5.536   4.784  -0.034  0.4972 -0.6082  0.2781
  209MOL0     C28761   5.552   4.676  -0.120 -0.7493 -0.4015 -0.6938
  209MOL0     C28762   5.653   4.586  -0.083 -0.2779  0.7881  0.0622
  209MOL0     O28763   5.689   4.495  -0.174 -0.0993  0.1396 -0.0223
  209MOL0     C28764   5.702   4.550  -0.307 -0.0275  0.7098  0.7153
  209MOL0     C28765   5.804   4.464  -0.391  0.5117 -0.2676 -0.2406
  209MOL0     C28766   5.757   4.317  -0.378  0.8546 -0.8994 -0.1744
  209MOL0     C28767   5.866   4.224  -0.415 -0.0328  0.1308  0.9059
  209MOL0     C28768   5.898   4.251  -0.556 -0.0006  1.1270  0.2115
  209MOL0     C28769   5.953   4.282  -0.664  0.2244 -0.5438 -0.3821
  209MOL0     C28770   5.721   4.590   0.039 -0.0638 -0.4137 -0.6019
  209MOL0     C28771   5.699   4.707   0.119 -0.3722 -0.1253 -0.3043
  209MOL0     C28772   5.787   4.726   0.238 -0.2338  0.6855 -0.1270
  209MOL0     H28773   5.522   4.894   0.447  1.1140  0.2330 -3.2566
  209MOL0     H28774   5.481   5.018   0.638 -1.8231  0.3609  0.5304
  209MOL0     H28775   5.429   5.481   0.605  1.7851 -0.8051 -2.1151
  209MOL0     H28776   5.556   5.374   0.571 -3.6491 -3.2860 -3.0588
  209MOL0     H28777   5.447   5.473   0.836  0.7903  1.0489 -2.2336
  209MOL0     H28778   5.492   5.302   0.841 -4.5377  1.4465  1.6760
  209MOL0     H28779   5.717   5.360   0.739  0.0948 -0.1697  0.4914
  209MOL0     H28780   5.688   5.532   0.768  1.4486  0.8367 -0.2091
  209MOL0     H28781   5.647   5.475   1.016 -0.7628 -2.5656  1.7541
  209MOL0     H28782   5.706   5.315   0.983  0.1811  1.1000  2.9912
  209MOL0     H28783   5.870   5.443   1.091 -1.3511 -2.5991 -0.0825
  209MOL0     H28784   5.867   5.574   0.966 -0.9310 -0.9391 -0.4470
  209MOL0     H28785   5.954   5.286   0.916  0.7108 -0.2343 -0.1518
  209MOL0     H28786   5.950   5.437   0.801 -1.1211  1.1870  1.2168
  209MOL0     H28787   6.086   5.452   1.072 -0.8944 -1.8508 -0.0228
  209MOL0     H28788   6.141   5.521   0.920 -0.1347  0.7961  1.5464
  209MOL0     H28789   6.310   5.365   0.994  1.8852 -4.6467  1.7216
  209MOL0     H28790   6.208   5.231   1.024  2.2602  0.0358  0.5507
  209MOL0     H28791   6.362   5.414   0.726  2.0890 -1.6326 -1.6837
  209MOL0     H28792   6.301   5.212   0.407 -0.5899  1.0102 -1.0178
  209MOL0     H28793   6.429   5.299   0.492  0.5490 -0.1039 -0.9716
  209MOL0     H28794   6.162   5.400   0.395 -0.2221 -1.7264  0.7720
  209MOL0     H28795   6.261   5.497   0.492  0.6696  0.9629 -2.1439
  209MOL0     H28796   6.460   5.442   0.312 -0.8114 -0.3894  2.0009
  209MOL0     H28797   6.319   5.425   0.201  1.5569 -0.8863 -1.0702
  209MOL0     H28798   6.336   5.667   0.379 -1.1505 -0.8278  0.6882
  209MOL0     H28799   6.438   5.662   0.233 -0.3176 -1.4598 -2.6780
  209MOL0     H28800   5.972   5.632   0.129  1.1155  0.7092  0.0430
  209MOL0     H28801   5.725   5.635   0.283  1.5738  1.4419  3.2456
  209MOL0     H28802   5.764   5.688   0.113  3.1130 -1.3518  0.8923
  209MOL0     H28803   5.701   5.812   0.226  0.7173  0.5922  0.8929
  209MOL0     H28804   5.713   5.770   0.763 -2.4874 -1.1352  3.2372
  209MOL0     H28805   5.506   5.809   0.914 -1.6923 -2.3530  0.0210
  209MOL0     H28806   5.301   5.744   0.994 -4.9314 -1.8177 -0.1247
  209MOL0     H28807   5.325   5.920   1.018 -0.0721  1.9003 -2.2969
  209MOL0     H28808   5.085   5.950   1.021  2.0584  1.0300 -0.2674
  209MOL0     H28809   5.076   5.772   0.965  0.2152  0.9542  0.0189
  209MOL0     H28810   5.195   5.750   1.209  1.6707  1.8842  1.1220
  209MOL0     H28811   5.021   5.799   1.206 -0.2832  2.0180  2.3615
  209MOL0     H28812   5.078   6.028   1.254  3.2945  3.1034  0.2396
  209MOL0     H28813   5.243   5.995   1.219 -0.2782  0.4980  1.0349
  209MOL0     H28814   5.089   5.856   1.446 -0.9851 -2.6595 -4.9800
  209MOL0     H28815   5.270   5.866   1.411  0.0639  0.3211 -1.6899
  209MOL0     H28816   5.102   6.095   1.511 -0.8219  0.5164 -1.6609
  209MOL0     H28817   5.257   6.098   1.425  1.8978 -4.1967 -1.0694
  209MOL0     H28818   5.356   5.982   1.639  0.8889  1.5843 -0.3680
  209MOL0     H28819   5.200   5.958   1.695  2.1438 -0.0720  0.3638
  209MOL0     H28820   5.153   6.200   1.720  1.8257  0.9066  1.7739
  209MOL0     H28821   5.304   6.232   1.659 -3.7030  4.6102  2.9376
  209MOL0     H28822   5.280   5.926   0.580 -0.7642 -1.5782  2.3885
  209MOL0     H28823   5.469   5.895   0.430  1.4765  3.9753 -0.0546
  209MOL0     H28824   6.049   5.958   0.496 -0.8994  0.8817 -0.4651
  209MOL0     H28825   6.246   5.864   0.377 -0.2411 -0.2589 -0.3972
  209MOL0     H28826   5.299   5.335   0.395 -1.0204  0.0052 -3.4608
  209MOL0     H28827   5.303   5.184   0.205 -0.5188 -0.5784 -0.8173
  209MOL0     H28828   5.465   4.860  -0.065 -0.2289 -0.8013  1.4345
  209MOL0     H28829   5.486   4.659  -0.205  0.2144 -0.4279 -1.4582
  209MOL0     H28830   5.604   4.541  -0.355  0.9985 -0.4661 -1.2782
  209MOL0     H28831   5.735   4.654  -0.298 -0.1058  0.6339  2.1456
  209MOL0     H28832   5.901   4.475  -0.342  0.6046 -2.2743  0.1455
  209MOL0     H28833   5.814   4.502  -0.492 -2.0582 -2.5786 -1.5119
  209MOL0     H28834   5.723   4.280  -0.281  0.9818  1.4239  0.8335
  209MOL0     H28835   5.672   4.301  -0.445  0.9640 -1.6001 -0.1555
  209MOL0     H28836   5.839   4.120  -0.392 -0.0479 -0.2017 -0.5096
  209MOL0     H28837   5.959   4.245  -0.362 -0.2242  2.5521  0.3602
  209MOL0     H28838   6.011   4.313  -0.749  2.5425 -2.0402  0.5451
  209MOL0     H28839   5.790   4.515   0.075  0.8871  1.8326  2.6968
  209MOL0     H28840   5.732   4.741   0.331  0.0715 -1.0741  0.3758
  209MOL0     H28841   5.842   4.634   0.260  3.4254  2.8018  0.3665
  209MOL0     H28842   5.867   4.800   0.224  0.1887 -0.3320 -4.7526
  210MOL0     O28843   7.517  11.139   5.457  0.1753  0.8718 -0.0956
  210MOL0     C28844   7.619  11.202   5.423 -0.0549 -0.5803 -0.1107
  210MOL0     O28845   7.663  11.319   5.467  0.1880 -0.3999 -0.4421
  210MOL0     C28846   7.581  11.393   5.545 -0.5472  1.5999 -0.5287
  210MOL0     C28847   7.459  11.452   5.530 -0.3344 -0.1182  0.2036
  210MOL0     C28848   7.379  11.527   5.622 -0.2593  0.8164  0.1017
  210MOL0     C28849   7.438  11.545   5.750  0.0958 -0.4636  0.3677
  210MOL0     O28850   7.376  11.605   5.860  0.4114  0.4389 -0.1799
  210MOL0     C28851   7.259  11.690   5.839 -0.8897 -0.0399  0.0316
  210MOL0     C28852   7.177  11.686   5.966  0.3961  0.0894 -0.1364
  210MOL0     C28853   7.266  11.727   6.089 -0.2299  0.3174  0.0295
  210MOL0     C28854   7.206  11.775   6.221 -0.2287  0.2227 -0.4287
  210MOL0     C28855   7.315  11.818   6.319 -0.8776 -0.6425 -0.7880
  210MOL0     C28856   7.425  11.712   6.352  0.0648 -0.9889 -0.3017
  210MOL0     C28857   7.489  11.725   6.498 -0.4140 -1.4620  0.0285
  210MOL0     C28858   7.602  11.832   6.498  0.5780  0.8468  0.4793
  210MOL0     N28859   7.717  11.796   6.412  0.6332 -0.2395  0.2174
  210MOL0     C28860   7.785  11.681   6.406 -0.7935  0.7542 -0.1878
  210MOL0     C28861   7.902  11.713   6.329 -0.6627  1.7546 -1.1295
  210MOL0     C28862   8.015  11.611   6.295  0.5595 -0.1162 -0.1241
  210MOL0     C28863   8.139  11.639   6.367 -0.5448 -0.2304 -0.4244
  210MOL0     C28864   8.258  11.551   6.320 -0.2670 -0.1301  0.4586
  210MOL0     C28865   8.262  11.410   6.361  0.1689  0.5795  0.3633
  210MOL0     O28866   8.260  11.388   6.498 -0.2118 -0.0064 -1.3080
  210MOL0     C28867   8.372  11.337   6.562 -0.2202  0.6411  0.3403
  210MOL0     C28868   8.357  11.267   6.681  0.5350  1.3501 -0.5856
  210MOL0     C28869   8.470  11.229   6.753  0.0272 -0.3454 -0.0202
  210MOL0     C28870   8.445  11.149   6.873 -0.4688 -0.2918 -1.2988
  210MOL0     C28871   8.599  11.255   6.703  0.3947 -0.4855  1.1500
  210MOL0     C28872   8.722  11.218   6.775 -0.1383 -0.4112 -0.9416
  210MOL0     O28873   8.825  11.191   6.695  0.3222  0.0902 -0.4974
  210MOL0     C28874   8.953  11.185   6.754 -0.5953  0.6074 -1.0111
  210MOL0     C28875   9.007  11.311   6.808  0.3444 -1.0194 -0.3830
  210MOL0     C28876   9.147  11.316   6.848  0.4174 -0.4438  0.1255
  210MOL0     C28877   9.224  11.208   6.848  0.4263  0.5571 -0.7284
  210MOL0     O28878   9.348  11.229   6.907 -0.3834  0.8018  1.0811
  210MOL0     C28879   9.431  11.115   6.944  0.1379 -0.3495  0.3158
  210MOL0     C28880   9.569  11.165   6.987 -0.8721  0.4360 -0.5136
  210MOL0     C28881   9.579  11.198   7.140 -0.1924  0.2114 -0.7349
  210MOL0     C28882   9.708  11.259   7.178 -1.1392  0.0719 -0.0529
  210MOL0     C28883   9.704  11.345   7.319 -0.2828 -0.3267 -0.0238
  210MOL0     C28884   9.713  11.263   7.444  0.1142 -0.4872 -0.3014
  210MOL0     C28885   9.664  11.343   7.567  0.7161  0.7658  0.4544
  210MOL0     C28886   9.772  11.343   7.676  0.9655 -0.0722 -0.5666
  210MOL0    Cl28887   9.914  11.441   7.639 -0.3279 -0.4101  0.3570
  210MOL0     C28888   9.169  11.082   6.821 -0.3260  0.0575 -0.2389
  210MOL0     C28889   9.040  11.072   6.763  0.4113  0.5024 -0.5190
  210MOL0     O28890   8.727  11.227   6.897  0.2073  0.0268 -0.1513
  210MOL0     C28891   8.617  11.329   6.587  0.8415  0.9498 -0.2108
  210MOL0     C28892   8.502  11.370   6.521  0.2157 -0.2814 -0.0012
  210MOL0     N28893   7.884  11.844   6.296 -0.2938 -0.1258 -0.0876
  210MOL0     N28894   7.770  11.892   6.342 -0.3834 -0.3994  0.2976
  210MOL0     C28895   7.572  11.495   5.774  0.6962 -0.6028  0.9328
  210MOL0     C28896   7.638  11.423   5.675 -0.1551 -0.5693 -0.0601
  210MOL0     C28897   7.706  11.122   5.332 -0.8179  0.1265  0.4395
  210MOL0     C28898   7.648  11.045   5.233 -0.1750 -0.4365  0.1296
  210MOL0     C28899   7.722  10.959   5.152 -0.2521  0.2460  0.3040
  210MOL0     C28900   7.860  10.956   5.163  0.7009 -0.2641 -0.8116
  210MOL0     O28901   7.954  10.887   5.094 -0.1823  0.0086 -0.0544
  210MOL0     C28902   7.909  10.832   4.965 -1.4649  0.5358  1.0783
  210MOL0     C28903   8.018  10.857   4.855 -0.4294  0.8443 -0.5751
  210MOL0     C28904   7.996  10.757   4.748 -0.0324  0.2400 -0.2581
  210MOL0     C28905   8.109  10.735   4.635 -0.3248  0.1405 -0.9396
  210MOL0     C28906   8.080  10.626   4.543 -0.8164  0.0168 -0.1913
  210MOL0     C28907   8.036  10.520   4.492  0.0480 -0.2454  0.6743
  210MOL0     C28908   7.916  11.044   5.256 -0.2801  0.6252 -0.0727
  210MOL0     C28909   7.844  11.131   5.339  0.6679  0.1743  0.8029
  210MOL0     C28910   7.929  11.221   5.424  0.2350  0.7811  0.3960
  210MOL0     H28911   7.402  11.437   5.439 -0.5773  0.0503  0.3288
  210MOL0     H28912   7.281  11.567   5.598 -1.9117 -0.9455  3.2973
  210MOL0     H28913   7.186  11.660   5.763 -0.3794 -0.4596 -0.2991
  210MOL0     H28914   7.288  11.793   5.819  0.7420 -0.3734  0.5765
  210MOL0     H28915   7.091  11.753   5.960 -0.5570 -1.2463 -2.4615
  210MOL0     H28916   7.140  11.585   5.986 -4.3182  1.9578  2.0654
  210MOL0     H28917   7.334  11.645   6.114  0.3655 -0.1126 -2.5920
  210MOL0     H28918   7.336  11.807   6.059  1.6985 -1.3536 -0.1304
  210MOL0     H28919   7.133  11.854   6.205 -0.3045  0.1828 -0.2895
  210MOL0     H28920   7.172  11.684   6.272 -0.5766 -0.8867 -2.5406
  210MOL0     H28921   7.277  11.852   6.416  2.1269  0.6339  0.0295
  210MOL0     H28922   7.374  11.901   6.278 -0.1085 -1.1038 -0.6147
  210MOL0     H28923   7.382  11.611   6.342  1.0446 -1.2357 -2.5412
  210MOL0     H28924   7.502  11.712   6.275  2.5623 -2.1269  2.0216
  210MOL0     H28925   7.526  11.631   6.539 -0.7106 -1.2351  0.8313
  210MOL0     H28926   7.411  11.753   6.569 -0.6522  1.5218 -1.2756
  210MOL0     H28927   7.555  11.926   6.469  1.2604  1.2948  0.8029
  210MOL0     H28928   7.643  11.845   6.598 -2.6843  1.6995  1.8034
  210MOL0     H28929   7.765  11.587   6.459  4.2070 -1.5016 -1.7297
  210MOL0     H28930   8.034  11.636   6.190 -0.1306  0.7672 -0.0485
  210MOL0     H28931   7.985  11.508   6.315  1.6759 -0.3498  0.4571
  210MOL0     H28932   8.165  11.745   6.354 -0.2029 -0.4466 -1.6437
  210MOL0     H28933   8.134  11.622   6.475  0.8461 -6.2336 -0.9385
  210MOL0     H28934   8.265  11.571   6.213 -2.4487  3.5028  0.8531
  210MOL0     H28935   8.348  11.598   6.361 -0.1654 -0.0812  0.1840
  210MOL0     H28936   8.185  11.342   6.321  0.8020 -0.0827  0.2516
  210MOL0     H28937   8.355  11.365   6.326 -0.6698 -0.6498 -0.3566
  210MOL0     H28938   8.257  11.246   6.718  0.7033  2.0671  0.3176
  210MOL0     H28939   8.465  11.194   6.971  0.3065 -0.6367 -1.2900
  210MOL0     H28940   8.511  11.062   6.874  0.5991  0.4823  0.3224
  210MOL0     H28941   8.341  11.115   6.872 -0.6006  0.0778 -2.8036
  210MOL0     H28942   8.955  11.406   6.799  4.1072  1.1746 -1.2423
  210MOL0     H28943   9.193  11.412   6.873  1.5073 -0.5326 -1.3920
  210MOL0     H28944   9.393  11.060   7.031 -0.1924 -1.2546 -0.3818
  210MOL0     H28945   9.436  11.046   6.859  0.9762 -0.1713  0.2064
  210MOL0     H28946   9.647  11.090   6.973  0.7276  2.0903 -0.8776
  210MOL0     H28947   9.590  11.251   6.923  2.9669  0.2182  0.2486
  210MOL0     H28948   9.563  11.117   7.212 -1.5098  3.0514  2.4412
  210MOL0     H28949   9.497  11.269   7.144  0.4527  0.9389 -0.1008
  210MOL0     H28950   9.746  11.326   7.100 -1.4839 -0.0569 -0.3337
  210MOL0     H28951   9.787  11.183   7.188 -0.8567  0.6642  3.3644
  210MOL0     H28952   9.791  11.411   7.320  0.6504 -1.3702  3.8625
  210MOL0     H28953   9.612  11.404   7.317  0.3792  0.7713  0.9547
  210MOL0     H28954   9.808  11.218   7.473  0.2328  0.9444  1.7280
  210MOL0     H28955   9.648  11.176   7.433  1.1329 -1.3146  0.0674
  210MOL0     H28956   9.571  11.304   7.609 -0.7533  0.6684 -2.6321
  210MOL0     H28957   9.652  11.450   7.544 -1.9239  0.4604  0.1618
  210MOL0     H28958   9.804  11.240   7.695  2.2394  0.6289  1.4413
  210MOL0     H28959   9.748  11.382   7.775  0.1754 -3.0374  0.5303
  210MOL0     H28960   9.227  10.992   6.834  2.0590  1.4695 -0.4291
  210MOL0     H28961   9.000  10.977   6.732  0.9256  0.6671 -1.7434
  210MOL0     H28962   8.717  11.362   6.560  1.2644  0.5061  0.7549
  210MOL0     H28963   8.510  11.432   6.433 -0.7768 -1.9151 -1.2809
  210MOL0     H28964   7.610  11.529   5.870  1.5903 -1.8173  1.0379
  210MOL0     H28965   7.739  11.390   5.698 -0.4761 -0.1837  2.1700
  210MOL0     H28966   7.540  11.041   5.224 -0.0827 -0.1272 -1.6354
  210MOL0     H28967   7.663  10.896   5.086  2.5017 -1.2067 -0.9372
  210MOL0     H28968   7.902  10.724   4.979 -0.6585  0.1115 -1.2488
  210MOL0     H28969   7.813  10.868   4.927 -1.7647 -1.3356 -0.0426
  210MOL0     H28970   8.109  10.829   4.910 -1.7253 -0.7382  0.8957
  210MOL0     H28971   8.016  10.953   4.804 -0.8490 -0.5142 -3.2868
  210MOL0     H28972   7.978  10.661   4.798  1.1542  1.1322  2.0383
  210MOL0     H28973   7.901  10.783   4.699 -0.6507  0.0882  0.8213
  210MOL0     H28974   8.206  10.715   4.681 -0.2746  2.0730 -0.1238
  210MOL0     H28975   8.121  10.822   4.569  3.2512  0.3712 -0.1914
  210MOL0     H28976   8.000  10.429   4.448  0.1555  0.1311 -0.2075
  210MOL0     H28977   8.024  11.038   5.268 -0.0782 -5.0401 -1.6637
  210MOL0     H28978   7.922  11.325   5.392 -0.3454  0.9320  0.9806
  210MOL0     H28979   7.887  11.218   5.525  0.8242 -0.4474  0.6326
  210MOL0     H28980   8.034  11.194   5.438  0.5757  0.6865 -1.8718
  211MOL0     O28981   8.403   9.744   9.624 -0.0068 -0.2679 -0.7589
  211MOL0     C28982   8.360   9.773   9.512  0.1041  0.4924 -0.8103
  211MOL0     O28983   8.334   9.681   9.414 -0.2721 -0.7949  0.0634
  211MOL0     C28984   8.361   9.556   9.433  0.1479  0.0062  0.7382
  211MOL0     C28985   8.486   9.491   9.438 -0.0085 -0.4692 -1.3863
  211MOL0     C28986   8.489   9.354   9.432 -0.4642  0.3573  0.6540
  211MOL0     C28987   8.373   9.276   9.433 -0.2502 -0.3437 -0.6110
  211MOL0     O28988   8.362   9.146   9.432 -0.3019  0.5621  0.7274
  211MOL0     C28989   8.477   9.064   9.395 -0.4635 -0.3962  0.6621
  211MOL0     C28990   8.433   8.926   9.355  0.1415  0.1400  0.3926
  211MOL0     C28991   8.347   8.858   9.452 -0.6846  0.3870  0.8355
  211MOL0     C28992   8.299   8.733   9.375  0.1475  0.2258 -0.3067
  211MOL0     C28993   8.282   8.613   9.477 -0.3953 -0.2669 -0.0930
  211MOL0     C28994   8.226   8.484   9.413  0.0889 -0.1906 -1.0692
  211MOL0     C28995   8.185   8.386   9.523  0.0482  1.1683 -1.0530
  211MOL0     C28996   8.026   8.372   9.528 -0.5556 -0.1633  0.9614
  211MOL0     N28997   7.972   8.320   9.653  0.4935 -0.1735  0.2081
  211MOL0     C28998   8.008   8.196   9.692  0.1707 -0.0283 -0.2432
  211MOL0     C28999   7.921   8.165   9.798 -0.5963 -0.2420 -0.7109
  211MOL0     C29000   7.920   8.050   9.890 -0.4525  0.3774  0.2255
  211MOL0     C29001   8.046   8.047   9.975  0.3268  0.7658 -1.1808
  211MOL0     C29002   8.077   8.162  10.078 -0.3535 -0.1186 -0.2164
  211MOL0     C29003   8.189   8.130  10.185  0.4203 -0.2780 -0.2480
  211MOL0     O29004   8.311   8.074  10.135 -0.1682 -0.1515  0.4118
  211MOL0     C29005   8.370   8.121  10.017  0.6113  0.2740 -0.1207
  211MOL0     C29006   8.436   8.027   9.934  1.0759 -0.7524 -0.4409
  211MOL0     C29007   8.509   8.079   9.829  0.0314 -0.3525 -0.0592
  211MOL0     C29008   8.582   7.979   9.739 -0.7908  0.5559  0.2215
  211MOL0     C29009   8.505   8.220   9.787 -0.7813  0.5864  0.2376
  211MOL0     C29010   8.569   8.258   9.659 -0.7759 -0.4371 -0.0219
  211MOL0     O29011   8.680   8.339   9.639  0.3986  0.3405 -0.0675
  211MOL0     C29012   8.731   8.397   9.749  0.9646 -1.0189  1.4753
  211MOL0     C29013   8.820   8.337   9.824 -0.5208  0.0984  0.9206
  211MOL0     C29014   8.881   8.409   9.932 -0.1335 -0.0937 -0.2916
  211MOL0     C29015   8.845   8.548   9.949 -0.2760 -0.4812  0.5940
  211MOL0     O29016   8.899   8.618  10.055 -0.2278 -0.0911 -0.2281
  211MOL0     C29017   9.001   8.566  10.149  0.0096  1.3566  0.5002
  211MOL0     C29018   9.073   8.678  10.228 -0.1964  0.6605 -0.3782
  211MOL0     C29019   8.962   8.746  10.305 -0.1045 -0.7188  0.3624
  211MOL0     C29020   8.991   8.905  10.315  0.5520 -0.1784 -0.1287
  211MOL0     C29021   8.894   8.969  10.412  0.4037  0.4990 -0.0799
  211MOL0     C29022   8.856   9.108  10.388  1.0899 -0.5716 -0.5294
  211MOL0     C29023   8.741   9.127  10.291 -0.2628  0.0877  0.0660
  211MOL0     C29024   8.726   9.271  10.257 -0.3377 -1.2347  0.1952
  211MOL0    Cl29025   8.563   9.289  10.187  0.2811  0.3166 -0.0785
  211MOL0     C29026   8.753   8.602   9.867  0.2242  0.5279 -0.5886
  211MOL0     C29027   8.698   8.531   9.767 -0.2234  0.1498 -0.7745
  211MOL0     O29028   8.508   8.209   9.564 -0.2186  0.2733  0.6650
  211MOL0     C29029   8.446   8.312   9.871  0.4949 -0.2072  0.2650
  211MOL0     C29030   8.381   8.259   9.983 -0.1865  0.3358 -0.9917
  211MOL0     N29031   7.829   8.272   9.811  0.1792 -0.2086 -0.3793
  211MOL0     N29032   7.868   8.366   9.730  1.0318  1.2694  1.0596
  211MOL0     C29033   8.257   9.348   9.454  0.4889 -0.5238 -0.3494
  211MOL0     C29034   8.247   9.485   9.453 -0.2373  0.2729  0.0749
  211MOL0     C29035   8.311   9.913   9.484 -0.4014 -0.1713 -1.1352
  211MOL0     C29036   8.177   9.936   9.445  0.5683 -0.5630  0.3859
  211MOL0     C29037   8.133  10.067   9.409 -0.4564 -0.3030 -0.1421
  211MOL0     C29038   8.218  10.176   9.415 -0.4930 -0.2814  0.1349
  211MOL0     O29039   8.196  10.312   9.389  0.2044 -0.4270  0.1301
  211MOL0     C29040   8.082  10.370   9.444 -0.2995  0.8114 -0.2830
  211MOL0     C29041   7.957  10.341   9.362 -0.1172 -0.2658  0.1193
  211MOL0     C29042   7.847  10.446   9.380 -0.5235 -0.5306  0.3300
  211MOL0     C29043   7.714  10.408   9.337 -0.1309  0.8201  0.2669
  211MOL0     C29044   7.692  10.403   9.191 -0.6998  0.5473 -0.8221
  211MOL0     C29045   7.699  10.376   9.069 -0.3216  0.3844  0.3948
  211MOL0     C29046   8.345  10.152   9.465  0.7002 -0.4960 -0.1256
  211MOL0     C29047   8.400  10.026   9.497  0.9937  0.1813 -0.8564
  211MOL0     C29048   8.542  10.024   9.551 -0.7309 -0.0087  0.0780
  211MOL0     H29049   8.579   9.547   9.435 -0.2664  0.0951  0.3578
  211MOL0     H29050   8.581   9.295   9.428 -1.7964 -2.1322  3.3645
  211MOL0     H29051   8.546   9.061   9.481 -0.8571  2.5402  1.1784
  211MOL0     H29052   8.540   9.109   9.318 -0.1167 -1.7090  0.1400
  211MOL0     H29053   8.378   8.938   9.262 -1.9362 -0.9351  1.4185
  211MOL0     H29054   8.525   8.870   9.331  0.5838  1.5571 -1.4175
  211MOL0     H29055   8.403   8.832   9.543 -0.5368  2.0277  1.2560
  211MOL0     H29056   8.271   8.932   9.481  1.8308  3.1496  0.9142
  211MOL0     H29057   8.205   8.769   9.334 -0.8833  1.1599  2.6300
  211MOL0     H29058   8.367   8.709   9.293  1.5411  1.0660  0.5576
  211MOL0     H29059   8.203   8.638   9.547  0.0464 -1.2890  0.7867
  211MOL0     H29060   8.380   8.596   9.523 -0.9888 -0.2525  1.2174
  211MOL0     H29061   8.138   8.502   9.351 -0.4527 -1.7718 -0.8008
  211MOL0     H29062   8.290   8.433   9.340 -1.2336 -0.5206 -2.0406
  211MOL0     H29063   8.208   8.409   9.628 -3.1346 -1.4167  0.4085
  211MOL0     H29064   8.222   8.286   9.501  3.1188  1.6961  1.0384
  211MOL0     H29065   7.974   8.466   9.510 -1.8407 -0.8455  1.0375
  211MOL0     H29066   8.004   8.294   9.454 -3.1165 -0.1249  1.5901
  211MOL0     H29067   8.098   8.144   9.660  0.1999 -1.7074  2.3011
  211MOL0     H29068   7.918   7.956   9.833  0.1102  0.5457 -0.0746
  211MOL0     H29069   7.833   8.056   9.956 -0.9626  0.0241 -0.4025
  211MOL0     H29070   8.041   7.950  10.026 -0.8140  1.0602 -0.7068
  211MOL0     H29071   8.129   8.049   9.903 -0.1575 -2.6981 -2.0439
  211MOL0     H29072   8.080   8.261  10.031 -3.0400  0.7320  1.1325
  211MOL0     H29073   7.984   8.162  10.136  1.3713 -0.0599  2.7740
  211MOL0     H29074   8.201   8.218  10.248  1.0369  1.0568 -2.1249
  211MOL0     H29075   8.139   8.055  10.247  1.2418  0.8449  1.8548
  211MOL0     H29076   8.424   7.923   9.962  0.1744 -0.4346  0.3942
  211MOL0     H29077   8.610   7.885   9.786  0.2902  0.4515 -0.6055
  211MOL0     H29078   8.673   8.022   9.697  0.1795 -0.7895  0.9089
  211MOL0     H29079   8.518   7.961   9.651 -0.7445  0.7294  0.1497
  211MOL0     H29080   8.828   8.234   9.792 -2.8806  0.2834 -0.5684
  211MOL0     H29081   8.946   8.347   9.993 -2.5040 -2.3409  0.0765
  211MOL0     H29082   8.951   8.506  10.225  0.3732 -0.5800 -0.7224
  211MOL0     H29083   9.070   8.494  10.105 -1.5268 -0.4343  0.8729
  211MOL0     H29084   9.150   8.641  10.296 -1.1091 -0.4316  0.0970
  211MOL0     H29085   9.135   8.735  10.158  2.5992 -1.6753  0.0051
  211MOL0     H29086   8.961   8.699  10.404  2.6419 -1.9634 -0.1113
  211MOL0     H29087   8.860   8.748  10.265 -1.7284  2.2872  4.0147
  211MOL0     H29088   8.969   8.946  10.216 -1.8161 -1.8260 -0.3803
  211MOL0     H29089   9.097   8.928  10.334 -0.0356  0.9888  1.9804
  211MOL0     H29090   8.801   8.914  10.426  1.1245  0.0299  4.5558
  211MOL0     H29091   8.942   8.962  10.510 -1.5924 -0.0681  0.9084
  211MOL0     H29092   8.943   9.168  10.359  0.0676  0.4553 -1.5384
  211MOL0     H29093   8.825   9.138  10.488  1.7527  1.5145 -0.9069
  211MOL0     H29094   8.652   9.088  10.341  1.9450 -1.6144  3.0044
  211MOL0     H29095   8.752   9.053  10.211  0.0855  0.6995 -0.4609
  211MOL0     H29096   8.802   9.322  10.198 -1.3759 -1.9837 -1.8770
  211MOL0     H29097   8.722   9.328  10.350 -2.3456 -0.1471 -0.5190
  211MOL0     H29098   8.743   8.710   9.876  0.1107  0.6495 -1.9696
  211MOL0     H29099   8.627   8.582   9.702 -3.4509 -0.3371  2.0357
  211MOL0     H29100   8.442   8.419   9.854 -2.2713 -0.0946  1.0580
  211MOL0     H29101   8.343   8.327  10.058 -1.0408 -2.6504  1.4675
  211MOL0     H29102   8.169   9.286   9.469  0.3794 -0.1968  0.4370
  211MOL0     H29103   8.149   9.529   9.466 -0.4741  0.6945 -2.6101
  211MOL0     H29104   8.103   9.858   9.444 -1.3892  1.1861  0.9723
  211MOL0     H29105   8.034  10.087   9.369 -0.6595 -0.7973  0.1144
  211MOL0     H29106   8.065  10.344   9.548 -1.3070 -2.2177 -1.1086
  211MOL0     H29107   8.115  10.474   9.434 -1.1063  1.0860 -0.1697
  211MOL0     H29108   7.929  10.244   9.405  1.7330 -0.3603  1.1848
  211MOL0     H29109   7.985  10.317   9.259  0.9268 -0.3337  0.4065
  211MOL0     H29110   7.846  10.469   9.487  1.5197  0.9308  0.1118
  211MOL0     H29111   7.864  10.542   9.331  1.5551 -0.4345  1.1475
  211MOL0     H29112   7.647  10.484   9.378  1.7923  1.3875  2.5770
  211MOL0     H29113   7.685  10.317   9.390  1.3265  1.0846  1.6121
  211MOL0     H29114   7.711  10.360   8.964  2.1654  2.3484  0.2971
  211MOL0     H29115   8.418  10.232   9.473 -1.9812  1.9944  1.3919
  211MOL0     H29116   8.577  10.128   9.548 -0.8822  0.0258 -0.9362
  211MOL0     H29117   8.557  10.004   9.657  1.1492 -0.2915 -0.2216
  211MOL0     H29118   8.603   9.957   9.489 -0.8635  1.0844 -1.3070
  212MOL0     O29119   0.404   6.611   9.192 -0.1377 -0.1161  0.6983
  212MOL0     C29120   0.501   6.623   9.270  0.1861  0.0016  0.6727
  212MOL0     O29121   0.514   6.731   9.353  0.5585 -0.1430  0.6948
  212MOL0     C29122   0.409   6.802   9.394  0.6492 -0.7731 -0.1080
  212MOL0     C29123   0.420   6.940   9.386  0.0871 -0.5135 -0.1180
  212MOL0     C29124   0.312   7.020   9.428  0.4231 -0.1347 -0.1367
  212MOL0     C29125   0.194   6.964   9.465  0.0436 -0.0102  0.6863
  212MOL0     O29126   0.084   7.044   9.478 -0.0414  0.6374 -0.3245
  212MOL0     C29127  -0.043   6.988   9.510  0.3163 -0.2021  0.4055
  212MOL0     C29128  -0.131   7.106   9.539 -0.1628  0.2995 -0.5572
  212MOL0     C29129  -0.114   7.158   9.685  0.4004  0.1095 -0.4668
  212MOL0     C29130  -0.175   7.059   9.785 -0.0933 -0.4298 -0.0583
  212MOL0     C29131  -0.172   7.127   9.921  0.4245  0.4293 -0.2713
  212MOL0     C29132  -0.248   7.053  10.029 -0.0656  0.3451  0.3786
  212MOL0     C29133  -0.221   7.114  10.170 -0.1571 -0.1094  0.4897
  212MOL0     C29134  -0.072   7.136  10.217  1.1281  0.0640 -0.3746
  212MOL0     N29135  -0.066   7.181  10.357  0.0420 -0.4398  0.5339
  212MOL0     C29136  -0.006   7.103  10.455  0.4064  0.0750 -0.0255
  212MOL0     C29137   0.007   7.188  10.557 -0.3813  1.2157  0.0658
  212MOL0     C29138   0.070   7.153  10.692  0.1732  0.4595 -0.3610
  212MOL0     C29139   0.217   7.185  10.724  0.7811  0.4805 -0.5080
  212MOL0     C29140   0.322   7.126  10.625  0.5135 -0.3770 -0.8782
  212MOL0     C29141   0.462   7.120  10.694  0.5498  0.8791  0.5342
  212MOL0     O29142   0.517   7.252  10.711 -0.8289 -0.3869  0.5268
  212MOL0     C29143   0.655   7.258  10.715 -0.6271  0.3211  0.4355
  212MOL0     C29144   0.739   7.145  10.741 -0.7285  0.0751  0.3094
  212MOL0     C29145   0.874   7.153  10.743  0.4121 -0.6611  0.3529
  212MOL0     C29146   0.955   7.045  10.804  0.3657  0.6770  0.3199
  212MOL0     C29147   0.934   7.273  10.698  0.5389 -0.6918 -0.0948
  212MOL0     C29148   1.078   7.282  10.682 -0.3404 -0.1526  0.1386
  212MOL0     O29149   1.136   7.185  10.591 -0.6284 -0.7633  0.8246
  212MOL0     C29150   1.276   7.187  10.561  0.5892 -0.3788 -0.0970
  212MOL0     C29151   1.329   7.077  10.489 -0.4751 -0.1657  0.3837
  212MOL0     C29152   1.466   7.084  10.443  0.3306  0.1931  0.6916
  212MOL0     C29153   1.553   7.187  10.463 -1.0101 -0.3266 -0.0040
  212MOL0     O29154   1.684   7.181  10.409 -0.3545 -0.6861 -0.3563
  212MOL0     C29155   1.678   7.232  10.280 -0.6957 -0.4783 -0.4189
  212MOL0     C29156   1.697   7.126  10.179  0.1161 -0.2976  0.5988
  212MOL0     C29157   1.679   7.175  10.037  0.4929  0.0643  0.0984
  212MOL0     C29158   1.800   7.259   9.979 -0.0886  0.2834 -0.2395
  212MOL0     C29159   1.784   7.311   9.834  1.1911  0.8186  0.0287
  212MOL0     C29160   1.773   7.209   9.715  0.5669  0.1513 -0.2612
  212MOL0     C29161   1.756   7.279   9.575  0.0593 -0.7324  0.2177
  212MOL0     C29162   1.762   7.171   9.461  0.1560 -0.5322  0.5229
  212MOL0    Cl29163   1.644   7.042   9.476  0.1529  0.4574  0.4199
  212MOL0     C29164   1.504   7.296  10.539  0.1169 -0.6552  0.4695
  212MOL0     C29165   1.366   7.298  10.583 -0.2179  0.9450 -0.5367
  212MOL0     O29166   1.141   7.375  10.728  0.5599 -0.1267  0.0982
  212MOL0     C29167   0.847   7.382  10.671  0.5803  0.3989  0.2212
  212MOL0     C29168   0.711   7.376  10.683  0.4213  0.0221  0.2292
  212MOL0     N29169  -0.051   7.304  10.529  0.3063 -0.4247  0.5313
  212MOL0     N29170  -0.099   7.299  10.403  0.9310 -1.9071 -0.0348
  212MOL0     C29171   0.183   6.825   9.482 -0.4909  0.3560 -0.1567
  212MOL0     C29172   0.292   6.745   9.438  0.3075  0.3706 -0.6145
  212MOL0     C29173   0.610   6.521   9.252  0.1112 -0.6561 -0.3592
  212MOL0     C29174   0.731   6.548   9.322 -0.6626 -0.0308 -0.3732
  212MOL0     C29175   0.847   6.465   9.306  0.0872  0.2650  0.2890
  212MOL0     C29176   0.870   6.381   9.203  1.1696 -0.7114  0.5881
  212MOL0     O29177   0.994   6.324   9.173  0.0941 -0.2836  0.0505
  212MOL0     C29178   1.002   6.213   9.085 -0.9786  0.0982 -0.1733
  212MOL0     C29179   1.140   6.145   9.065  0.0208 -0.5360  0.9698
  212MOL0     C29180   1.249   6.246   9.005 -0.1037 -0.1514  0.7474
  212MOL0     C29181   1.318   6.182   8.881 -0.2581 -0.5121  0.6374
  212MOL0     C29182   1.442   6.261   8.843  0.4303 -1.0486  0.2174
  212MOL0     C29183   1.521   6.340   8.782 -0.6479  0.8556  0.6666
  212MOL0     C29184   0.750   6.359   9.123  0.3359 -0.3164 -0.1888
  212MOL0     C29185   0.627   6.425   9.148 -0.0495  0.7636 -0.6593
  212MOL0     C29186   0.512   6.374   9.065 -0.1436 -0.0787 -0.6477
  212MOL0     H29187   0.518   6.983   9.364  1.0980 -1.9344  1.4244
  212MOL0     H29188   0.311   7.128   9.412 -0.6718 -0.1522 -0.2369
  212MOL0     H29189  -0.026   6.933   9.603 -0.4785 -0.5464  0.3579
  212MOL0     H29190  -0.088   6.924   9.433  0.1390  0.7374 -0.3005
  212MOL0     H29191  -0.106   7.189   9.472 -0.8135 -1.2273 -2.7958
  212MOL0     H29192  -0.234   7.079   9.515  0.0785 -0.0592 -1.2368
  212MOL0     H29193  -0.009   7.188   9.698 -0.4028  1.9849  2.9316
  212MOL0     H29194  -0.150   7.257   9.714  0.6243  0.8989 -2.6901
  212MOL0     H29195  -0.275   7.028   9.756  0.4232 -0.7350 -1.6107
  212MOL0     H29196  -0.119   6.965   9.794 -0.3844 -0.7372 -1.3381
  212MOL0     H29197  -0.214   7.227   9.916 -2.8181 -0.7666  0.8209
  212MOL0     H29198  -0.068   7.120   9.956 -0.3242 -0.4703  1.9615
  212MOL0     H29199  -0.357   7.063  10.019 -0.1707  0.3183  1.3920
  212MOL0     H29200  -0.226   6.947  10.040  0.6191  0.4750  0.2761
  212MOL0     H29201  -0.262   7.058  10.255 -0.1858  0.7995  1.1019
  212MOL0     H29202  -0.275   7.209  10.182 -3.6178 -2.0046  1.4416
  212MOL0     H29203  -0.008   7.048  10.207 -0.0508 -1.0496  1.2326
  212MOL0     H29204  -0.032   7.218  10.158  1.4386  1.2920  1.4660
  212MOL0     H29205   0.039   7.004  10.447  0.8105 -0.1479  3.5963
  212MOL0     H29206   0.048   7.050  10.720 -1.1921  1.3317  2.0772
  212MOL0     H29207   0.019   7.214  10.767 -2.8654 -0.5819 -1.3979
  212MOL0     H29208   0.241   7.292  10.727  0.8798  0.5613 -2.6470
  212MOL0     H29209   0.239   7.147  10.824  2.1266 -1.5268 -1.5053
  212MOL0     H29210   0.289   7.022  10.615  2.2551 -1.3382  2.1889
  212MOL0     H29211   0.337   7.191  10.538  0.1939  0.9609  0.0390
  212MOL0     H29212   0.467   7.061  10.786  0.2751  0.9700  0.6068
  212MOL0     H29213   0.515   7.071  10.612  0.1553  0.2961  0.6226
  212MOL0     H29214   0.704   7.048  10.773  0.9872 -1.2511 -1.5795
  212MOL0     H29215   0.997   6.995  10.717  0.8917  0.3483  0.7551
  212MOL0     H29216   0.896   6.972  10.860 -0.3212 -1.4352 -2.9190
  212MOL0     H29217   1.036   7.079  10.870  0.1417  0.3921  0.7452
  212MOL0     H29218   1.270   6.994  10.451 -0.0015  0.6919 -2.4477
  212MOL0     H29219   1.508   7.004  10.384  0.4366  0.7323  0.0305
  212MOL0     H29220   1.582   7.279  10.259 -0.2046  1.3163  0.9959
  212MOL0     H29221   1.749   7.315  10.269  0.0101 -1.1799 -1.2658
  212MOL0     H29222   1.796   7.082  10.190  1.7329  2.9731  0.3664
  212MOL0     H29223   1.624   7.046  10.198  0.2879  0.1431  3.6997
  212MOL0     H29224   1.593   7.240  10.020  2.6765  2.4033 -3.1616
  212MOL0     H29225   1.671   7.080   9.983  3.1178 -1.0544  1.4761
  212MOL0     H29226   1.894   7.204   9.988  0.0033  0.4094 -0.4188
  212MOL0     H29227   1.806   7.339  10.055  3.0003  0.2903 -0.3462
  212MOL0     H29228   1.694   7.372   9.846 -0.5195 -1.8888  2.0678
  212MOL0     H29229   1.868   7.376   9.807  0.3511  2.4835  1.1946
  212MOL0     H29230   1.676   7.160   9.730 -0.2141  1.4652 -0.8013
  212MOL0     H29231   1.856   7.138   9.708 -0.8266 -1.6723  0.9622
  212MOL0     H29232   1.843   7.344   9.564 -0.5818 -0.1323 -1.7943
  212MOL0     H29233   1.667   7.343   9.567  0.0903 -0.3329  2.3859
  212MOL0     H29234   1.862   7.129   9.451 -0.5030 -1.5074 -3.4704
  212MOL0     H29235   1.756   7.219   9.363  3.1631 -0.0556  0.4807
  212MOL0     H29236   1.565   7.383  10.560 -2.0260  0.6886  1.4309
  212MOL0     H29237   1.324   7.392  10.618 -2.5045  0.8350 -2.7354
  212MOL0     H29238   0.869   7.481  10.631  1.7464 -0.5415 -1.5845
  212MOL0     H29239   0.649   7.464  10.673  0.8091  0.2652 -0.0609
  212MOL0     H29240   0.091   6.771   9.499  1.1736 -2.7569 -0.3007
  212MOL0     H29241   0.277   6.637   9.432  1.6110  0.1940 -0.9111
  212MOL0     H29242   0.739   6.626   9.397  1.3365  0.3549 -0.9093
  212MOL0     H29243   0.935   6.497   9.360 -0.4578  0.4691  1.0843
  212MOL0     H29244   0.932   6.138   9.122  0.0754 -0.3616  0.9565
  212MOL0     H29245   0.977   6.246   8.984 -0.1104 -1.9071 -1.1046
  212MOL0     H29246   1.126   6.060   8.998 -1.5127  1.0300 -0.8112
  212MOL0     H29247   1.176   6.107   9.161 -1.4175 -1.0070  1.3414
  212MOL0     H29248   1.202   6.342   8.982  1.5718  1.5291  3.6404
  212MOL0     H29249   1.315   6.269   9.089  0.8224  2.4496 -0.5907
  212MOL0     H29250   1.252   6.191   8.794  0.1626 -0.5709  0.3045
  212MOL0     H29251   1.344   6.077   8.897 -1.7531 -0.8395  1.0631
  212MOL0     H29252   1.583   6.412   8.734  1.0634 -0.7933  0.2683
  212MOL0     H29253   0.771   6.289   9.043  3.3619  2.4587 -2.0275
  212MOL0     H29254   0.500   6.441   8.979  0.1254 -2.5107 -2.6915
  212MOL0     H29255   0.542   6.280   9.018  1.6751  0.0885  0.1007
  212MOL0     H29256   0.424   6.364   9.129 -0.4752 -0.4041 -1.1390
  213MOL0     O29257   5.210   8.856   6.581 -0.7100  0.7469 -0.1293
  213MOL0     C29258   5.166   8.817   6.472  1.4124 -0.5360  0.8944
  213MOL0     O29259   5.220   8.850   6.354 -0.1775 -0.5800  0.6700
  213MOL0     C29260   5.319   8.949   6.351  0.1966  0.0405 -0.3091
  213MOL0     C29261   5.300   9.070   6.286  0.3036  0.4248  0.3433
  213MOL0     C29262   5.392   9.177   6.281  0.5108 -0.0926  0.6448
  213MOL0     C29263   5.509   9.157   6.350  0.0852  0.2129  0.3742
  213MOL0     O29264   5.610   9.252   6.361  0.2756 -0.5039  0.2123
  213MOL0     C29265   5.578   9.387   6.313 -0.3922 -0.2375  0.4475
  213MOL0     C29266   5.689   9.496   6.343  0.5566 -1.2523 -0.4435
  213MOL0     C29267   5.832   9.458   6.288  0.1776  0.2841 -0.5552
  213MOL0     C29268   5.924   9.390   6.393 -0.6308 -0.0368  0.9735
  213MOL0     C29269   6.051   9.346   6.337 -0.0778  0.1420  1.0054
  213MOL0     C29270   6.134   9.471   6.294  0.0146 -0.1004  0.1189
  213MOL0     C29271   6.275   9.434   6.267 -0.9839 -0.4942 -0.1237
  213MOL0     C29272   6.346   9.552   6.208 -0.8729 -0.7074  0.3889
  213MOL0     N29273   6.474   9.507   6.148 -0.2899  0.4975 -0.5650
  213MOL0     C29274   6.494   9.481   6.012 -0.8178 -1.1442 -1.2924
  213MOL0     C29275   6.625   9.451   6.008 -0.4437  0.7111 -0.6521
  213MOL0     C29276   6.678   9.408   5.875  0.5164 -0.8356  0.0913
  213MOL0     C29277   6.696   9.261   5.848 -0.0691  0.0130  0.5309
  213MOL0     C29278   6.697   9.234   5.699  0.5346  0.0519 -0.1662
  213MOL0     C29279   6.753   9.099   5.668  0.3368  0.4825 -0.4009
  213MOL0     O29280   6.768   9.087   5.527  0.5396 -0.1016 -0.2620
  213MOL0     C29281   6.890   9.118   5.468 -0.0428  0.3834 -0.1053
  213MOL0     C29282   6.921   9.058   5.347 -0.3585  0.4057 -0.6747
  213MOL0     C29283   7.037   9.087   5.282 -0.6677 -0.7847 -0.5425
  213MOL0     C29284   7.065   9.026   5.144  0.3329  0.6487  1.3206
  213MOL0     C29285   7.130   9.183   5.342 -0.1933  0.0410 -0.0433
  213MOL0     C29286   7.252   9.222   5.267 -0.8419  0.2331  0.3703
  213MOL0     O29287   7.314   9.132   5.192 -0.3844 -0.1744  0.0715
  213MOL0     C29288   7.390   9.161   5.088 -1.0222 -0.7875  0.0888
  213MOL0     C29289   7.510   9.092   5.060 -0.3141 -0.7231 -0.0425
  213MOL0     C29290   7.572   9.108   4.932 -1.0224 -0.7557  0.2509
  213MOL0     C29291   7.517   9.180   4.831  1.1814 -0.7211 -1.2650
  213MOL0     O29292   7.587   9.189   4.713 -0.5633 -0.0469 -0.0613
  213MOL0     C29293   7.536   9.280   4.608  0.4472  0.2976  0.4838
  213MOL0     C29294   7.601   9.265   4.468  0.8519 -0.8525 -0.3393
  213MOL0     C29295   7.581   9.124   4.404 -0.4578 -0.2037  0.2518
  213MOL0     C29296   7.702   9.070   4.339  0.1984 -0.0548  0.2032
  213MOL0     C29297   7.658   8.938   4.275 -0.1796 -0.3127 -0.3317
  213MOL0     C29298   7.641   8.826   4.380 -0.2100  0.0068  0.1797
  213MOL0     C29299   7.634   8.707   4.290 -0.2270  0.0607  0.8582
  213MOL0     C29300   7.608   8.579   4.370  0.3557  0.7482 -1.5339
  213MOL0    Cl29301   7.445   8.567   4.431 -0.0048 -0.0605 -0.1020
  213MOL0     C29302   7.411   9.262   4.867  1.2349 -1.0317  0.7316
  213MOL0     C29303   7.347   9.249   4.987 -0.2976  0.2838 -0.1892
  213MOL0     O29304   7.284   9.340   5.272 -0.3284  0.3290  0.6045
  213MOL0     C29305   7.094   9.243   5.462  0.6173  0.3880 -0.6052
  213MOL0     C29306   6.973   9.215   5.523 -0.2400 -0.2487 -0.0139
  213MOL0     N29307   6.684   9.454   6.135  0.2311  0.5374 -0.2098
  213MOL0     N29308   6.587   9.483   6.218 -0.7517  0.2944 -0.0042
  213MOL0     C29309   5.540   9.035   6.411 -0.0476  0.3619 -0.3238
  213MOL0     C29310   5.451   8.930   6.410  0.5381 -0.8951 -0.9558
  213MOL0     C29311   5.055   8.719   6.473 -0.3880  0.3838 -0.2227
  213MOL0     C29312   5.026   8.644   6.356  0.4875  0.0294  0.3253
  213MOL0     C29313   4.928   8.558   6.343  1.5814 -0.1887 -0.0839
  213MOL0     C29314   4.839   8.542   6.451 -0.8411  0.4744  0.6688
  213MOL0     O29315   4.729   8.455   6.437  0.5879 -0.6248 -0.2175
  213MOL0     C29316   4.657   8.460   6.310 -0.9798  0.0141  0.4878
  213MOL0     C29317   4.518   8.400   6.330  0.4206 -0.5868  0.6307
  213MOL0     C29318   4.517   8.260   6.393  0.1757 -0.2041  0.2673
  213MOL0     C29319   4.610   8.142   6.351  0.5396 -0.2175 -0.2264
  213MOL0     C29320   4.613   8.110   6.205  0.1524 -0.3289  0.2080
  213MOL0     C29321   4.604   8.082   6.085 -0.4225 -1.2232  0.3916
  213MOL0     C29322   4.856   8.615   6.562 -0.6307 -0.5667 -1.1410
  213MOL0     C29323   4.957   8.712   6.573 -0.2614  0.8711 -0.3024
  213MOL0     C29324   4.953   8.810   6.693 -0.1758 -0.0689  0.2920
  213MOL0     H29325   5.211   9.073   6.223  0.7870  1.5681 -0.3211
  213MOL0     H29326   5.361   9.265   6.225 -0.5682 -0.8341  0.0548
  213MOL0     H29327   5.486   9.415   6.365  0.3428  0.5650  1.3295
  213MOL0     H29328   5.572   9.375   6.204  0.6474  1.8032  0.1163
  213MOL0     H29329   5.660   9.588   6.291  0.0403 -0.1649  1.6717
  213MOL0     H29330   5.691   9.512   6.451  2.0477 -0.7420 -0.5103
  213MOL0     H29331   5.817   9.391   6.203  0.7092  0.8659 -1.1191
  213MOL0     H29332   5.871   9.554   6.252 -0.9604  0.8655 -0.2860
  213MOL0     H29333   5.941   9.451   6.482  0.0911 -0.8700  1.4235
  213MOL0     H29334   5.872   9.303   6.435  5.6964 -3.6574  2.6036
  213MOL0     H29335   6.036   9.274   6.256  1.0835  0.0094  0.8881
  213MOL0     H29336   6.100   9.289   6.417 -0.9914  0.3878  1.7574
  213MOL0     H29337   6.102   9.508   6.196 -0.9360 -1.4635 -0.1052
  213MOL0     H29338   6.121   9.552   6.367 -0.6278 -0.8198  0.8187
  213MOL0     H29339   6.286   9.352   6.195 -1.4284 -1.8441  1.2839
  213MOL0     H29340   6.338   9.396   6.348 -0.8956 -5.7744 -2.2209
  213MOL0     H29341   6.278   9.604   6.140 -0.6716  0.2616  0.9079
  213MOL0     H29342   6.371   9.619   6.290 -2.5296 -0.4593  0.7401
  213MOL0     H29343   6.428   9.487   5.926  1.1650 -2.5016 -3.0122
  213MOL0     H29344   6.774   9.455   5.852  0.1778 -0.5853 -0.8434
  213MOL0     H29345   6.608   9.439   5.797 -0.9777 -2.1781  0.8329
  213MOL0     H29346   6.801   9.248   5.878  0.9659  3.6712 -1.0054
  213MOL0     H29347   6.638   9.193   5.911  1.7891  1.2945  3.9095
  213MOL0     H29348   6.594   9.233   5.662 -0.2187 -0.4605  1.7931
  213MOL0     H29349   6.753   9.307   5.640  3.7424 -1.8440  0.3068
  213MOL0     H29350   6.853   9.093   5.713 -0.1505  3.3032  1.3387
  213MOL0     H29351   6.695   9.025   5.724  2.1717  0.0776  1.1161
  213MOL0     H29352   6.866   8.970   5.315 -0.8026  0.6063 -0.4686
  213MOL0     H29353   7.146   8.953   5.132 -2.9734 -3.1350 -0.5250
  213MOL0     H29354   7.075   9.098   5.062 -1.1476  0.1945  0.6994
  213MOL0     H29355   6.976   8.971   5.113  1.5219 -1.1810  1.0246
  213MOL0     H29356   7.548   9.037   5.145  0.5475  0.3592  0.3067
  213MOL0     H29357   7.660   9.048   4.912  0.6000  1.4575  0.4275
  213MOL0     H29358   7.428   9.272   4.594  0.2050  1.5215  1.4763
  213MOL0     H29359   7.567   9.381   4.634  0.9211  0.9972 -2.4425
  213MOL0     H29360   7.548   9.342   4.411 -0.3696 -0.8174  0.8050
  213MOL0     H29361   7.706   9.290   4.486  0.1433  1.2142  1.3005
  213MOL0     H29362   7.503   9.132   4.328  1.2973 -2.5468 -2.0011
  213MOL0     H29363   7.534   9.059   4.478  1.2251 -1.1644  0.5204
  213MOL0     H29364   7.782   9.056   4.412  0.7332  2.3319  0.1548
  213MOL0     H29365   7.734   9.139   4.261 -0.7210 -0.4915 -0.5779
  213MOL0     H29366   7.571   8.949   4.210 -0.6353  1.5349  0.5294
  213MOL0     H29367   7.725   8.912   4.192 -1.4080  0.7701 -1.7056
  213MOL0     H29368   7.543   8.832   4.428 -0.9857 -1.2653 -1.1634
  213MOL0     H29369   7.724   8.808   4.450 -0.9684 -2.7910  0.4981
  213MOL0     H29370   7.726   8.694   4.232 -0.0753 -0.6720  1.2497
  213MOL0     H29371   7.557   8.718   4.213  0.3536 -1.2747  0.0632
  213MOL0     H29372   7.687   8.582   4.446  0.4857  1.5897 -1.6923
  213MOL0     H29373   7.620   8.490   4.308  2.5532  0.8568 -1.3481
  213MOL0     H29374   7.361   9.329   4.798 -1.8303 -0.2419  3.4768
  213MOL0     H29375   7.256   9.308   5.000 -0.3832 -0.1637  1.4464
  213MOL0     H29376   7.164   9.305   5.517  0.1495 -0.3847  0.8995
  213MOL0     H29377   6.955   9.263   5.619  2.2164 -4.8499  3.1806
  213MOL0     H29378   5.638   9.021   6.457 -0.1729 -0.8290 -0.4075
  213MOL0     H29379   5.487   8.832   6.442 -0.4224 -2.4185 -4.1495
  213MOL0     H29380   5.087   8.660   6.268  0.3940  0.9538  0.4154
  213MOL0     H29381   4.921   8.497   6.253  1.4226 -1.4803  0.7656
  213MOL0     H29382   4.657   8.550   6.246  1.0852 -1.4180 -1.7053
  213MOL0     H29383   4.716   8.383   6.259  1.3904  1.4912  0.8281
  213MOL0     H29384   4.478   8.389   6.229  1.0027 -2.2779  0.5560
  213MOL0     H29385   4.451   8.464   6.389 -0.5324 -1.8352  0.9588
  213MOL0     H29386   4.527   8.275   6.501  0.2385 -1.8061  0.5041
  213MOL0     H29387   4.416   8.222   6.373 -0.1890  1.3865 -1.1851
  213MOL0     H29388   4.587   8.055   6.413 -0.8671  0.4857  0.2755
  213MOL0     H29389   4.716   8.169   6.359  0.5536 -0.0175 -0.9691
  213MOL0     H29390   4.594   8.049   5.984 -0.8509 -1.4926  0.5149
  213MOL0     H29391   4.800   8.597   6.654  0.4540 -2.5179 -0.8274
  213MOL0     H29392   4.858   8.804   6.747  0.5727  2.7027  2.1411
  213MOL0     H29393   5.031   8.786   6.765  1.9055  0.8773 -1.5433
  213MOL0     H29394   4.973   8.913   6.662 -1.5194 -0.5926 -2.6629
  214MOL0     O29395   6.225   6.077   9.050  0.5238  0.3854 -0.5912
  214MOL0     C29396   6.343   6.063   9.079  0.1365 -0.1602 -0.3800
  214MOL0     O29397   6.387   5.988   9.183 -0.0878  0.0764 -0.2034
  214MOL0     C29398   6.300   5.913   9.258  0.6981  0.9715 -0.0300
  214MOL0     C29399   6.196   5.823   9.198  0.0275 -0.2403 -0.2984
  214MOL0     C29400   6.113   5.761   9.294  0.7399 -0.1743 -0.1231
  214MOL0     C29401   6.132   5.768   9.431  0.0954 -0.0519  0.0684
  214MOL0     O29402   6.060   5.684   9.515 -0.1266 -0.1209  0.2262
  214MOL0     C29403   6.148   5.584   9.570  0.4602  0.2966 -0.8999
  214MOL0     C29404   6.174   5.471   9.472 -0.4763 -0.7412 -0.1126
  214MOL0     C29405   6.049   5.389   9.453 -0.6288  0.2160 -0.4715
  214MOL0     C29406   6.033   5.286   9.566 -0.9989  0.1768 -0.5675
  214MOL0     C29407   5.931   5.185   9.520  1.4585 -0.1461 -0.0129
  214MOL0     C29408   5.907   5.095   9.639 -0.8207  0.8318  0.1007
  214MOL0     C29409   5.774   5.014   9.637 -0.7381  0.4498  0.2048
  214MOL0     C29410   5.755   4.930   9.765 -0.2604 -0.1299 -0.0121
  214MOL0     N29411   5.622   4.854   9.762  0.3078 -0.3251  0.6570
  214MOL0     C29412   5.580   4.767   9.664  0.2472 -0.4765  0.3359
  214MOL0     C29413   5.459   4.715   9.708  0.0335 -0.3362  0.5493
  214MOL0     C29414   5.403   4.607   9.623  0.3175  0.8259 -0.4671
  214MOL0     C29415   5.259   4.564   9.655  0.3192 -0.7225 -0.2733
  214MOL0     C29416   5.185   4.462   9.559  0.0864 -0.3902  0.3916
  214MOL0     C29417   5.035   4.449   9.595  0.3354  0.0778 -1.1707
  214MOL0     O29418   4.959   4.560   9.550 -0.0494  0.0286 -0.4709
  214MOL0     C29419   4.825   4.559   9.578  0.8762  0.5536 -0.0620
  214MOL0     C29420   4.746   4.467   9.656  0.2191 -0.2868  0.5028
  214MOL0     C29421   4.611   4.475   9.673  0.1062  0.0063  0.3668
  214MOL0     C29422   4.531   4.356   9.732 -0.2027  0.5251  0.3569
  214MOL0     C29423   4.542   4.593   9.624 -0.2787 -0.3700  0.0081
  214MOL0     C29424   4.396   4.630   9.649  0.5058  0.1103 -0.6874
  214MOL0     O29425   4.327   4.700   9.557 -0.2874 -0.4471  0.2097
  214MOL0     C29426   4.195   4.731   9.585  0.1618 -0.5873  0.2346
  214MOL0     C29427   4.159   4.857   9.552 -0.2876 -0.2732 -0.5243
  214MOL0     C29428   4.032   4.898   9.566  0.4272  0.3389 -0.1090
  214MOL0     C29429   3.932   4.793   9.593 -0.6119  0.0537 -0.3638
  214MOL0     O29430   3.794   4.815   9.579  0.7770 -0.1638  0.8181
  214MOL0     C29431   3.723   4.869   9.698  0.3772 -0.0464  0.4386
  214MOL0     C29432   3.572   4.819   9.684 -0.2725  0.3240 -0.4645
  214MOL0     C29433   3.505   4.888   9.566  0.2951 -0.3186 -0.5699
  214MOL0     C29434   3.364   4.840   9.520  0.7605  0.7122 -0.2005
  214MOL0     C29435   3.313   4.902   9.386  0.2053 -0.2163 -0.7142
  214MOL0     C29436   3.353   5.049   9.379 -1.7763 -0.0202 -0.0304
  214MOL0     C29437   3.332   5.101   9.235 -0.1304  0.5239 -0.0790
  214MOL0     C29438   3.188   5.111   9.197  1.1822 -0.6820 -0.3785
  214MOL0    Cl29439   3.189   5.193   9.029  0.0756 -0.1318  0.3111
  214MOL0     C29440   3.972   4.664   9.626 -0.6187 -0.3635 -0.1852
  214MOL0     C29441   4.102   4.633   9.622 -0.0326  0.8957 -0.1180
  214MOL0     O29442   4.355   4.598   9.763 -0.4481  0.2474  0.1033
  214MOL0     C29443   4.622   4.687   9.550 -1.1390 -0.4113 -0.8567
  214MOL0     C29444   4.754   4.667   9.534  0.7414 -0.0550  0.6096
  214MOL0     N29445   5.425   4.766   9.833  0.3740  0.2920 -0.2244
  214MOL0     N29446   5.530   4.841   9.868 -0.0524 -0.1909  0.7239
  214MOL0     C29447   6.223   5.856   9.473  0.1917 -0.0476  0.1207
  214MOL0     C29448   6.313   5.922   9.395 -0.0111  0.1225  0.0264
  214MOL0     C29449   6.452   6.153   9.006  0.0854  0.0405 -1.0171
  214MOL0     C29450   6.582   6.108   9.028 -0.5962 -0.0380 -0.1565
  214MOL0     C29451   6.685   6.181   8.975 -1.1304  0.8664 -0.6863
  214MOL0     C29452   6.664   6.290   8.895 -0.4583  0.4877 -0.0223
  214MOL0     O29453   6.767   6.367   8.844 -0.1408  0.3654  0.1275
  214MOL0     C29454   6.901   6.337   8.881  0.2553 -0.3734  0.6164
  214MOL0     C29455   6.934   6.372   9.022  0.5743 -0.4927 -0.2602
  214MOL0     C29456   7.079   6.347   9.059  0.6700 -0.3638 -0.1666
  214MOL0     C29457   7.101   6.204   9.115 -0.2413  0.1057 -0.0458
  214MOL0     C29458   7.237   6.171   9.107 -0.2707 -0.9137 -0.7351
  214MOL0     C29459   7.358   6.148   9.104  0.5779  0.3673 -0.0142
  214MOL0     C29460   6.534   6.333   8.867  0.1514 -0.2767 -0.6868
  214MOL0     C29461   6.425   6.269   8.930 -0.0126  0.0040  0.4329
  214MOL0     C29462   6.290   6.346   8.919  0.0416 -0.4451 -0.0049
  214MOL0     H29463   6.185   5.804   9.092  1.8983  1.0119 -0.7680
  214MOL0     H29464   6.027   5.701   9.265  0.9979 -0.0427 -1.1653
  214MOL0     H29465   6.097   5.545   9.659  0.5364  0.9930 -0.5476
  214MOL0     H29466   6.243   5.629   9.600 -0.6069  1.3385  1.1249
  214MOL0     H29467   6.210   5.506   9.375  0.1456 -0.5281  0.1922
  214MOL0     H29468   6.249   5.401   9.511  1.0724  0.3973 -0.9354
  214MOL0     H29469   5.961   5.455   9.452  1.2786  3.2102  3.3283
  214MOL0     H29470   6.070   5.337   9.359  1.1024  1.3427 -0.7516
  214MOL0     H29471   6.123   5.225   9.578 -1.8965 -1.4419 -1.6579
  214MOL0     H29472   6.010   5.337   9.660  1.1215  3.7485 -1.7456
  214MOL0     H29473   5.972   5.130   9.434  1.3258 -2.9797  1.5873
  214MOL0     H29474   5.844   5.243   9.491  1.5587  0.5202  0.9685
  214MOL0     H29475   5.990   5.025   9.651 -0.2383  1.6500  1.0313
  214MOL0     H29476   5.918   5.155   9.730  1.7818  2.1820 -0.9947
  214MOL0     H29477   5.761   4.961   9.542  0.7379  2.3940 -1.1776
  214MOL0     H29478   5.697   5.091   9.644 -0.6791  0.7442 -1.9061
  214MOL0     H29479   5.842   4.864   9.778  1.5159  2.0940  0.0256
  214MOL0     H29480   5.754   4.996   9.852 -0.7132 -0.1889  0.0298
  214MOL0     H29481   5.637   4.739   9.576  1.2063 -0.9098  1.0686
  214MOL0     H29482   5.460   4.514   9.630 -0.2009  0.5432  0.0994
  214MOL0     H29483   5.404   4.636   9.517 -0.1037 -0.6038 -0.8832
  214MOL0     H29484   5.257   4.521   9.755 -3.7268 -0.5528 -0.1244
  214MOL0     H29485   5.193   4.650   9.668  0.8126  0.0150 -2.2481
  214MOL0     H29486   5.192   4.499   9.457  2.7548 -0.3846  0.5203
  214MOL0     H29487   5.228   4.362   9.559 -1.6027 -1.1547 -0.5388
  214MOL0     H29488   4.991   4.365   9.541 -1.6311  0.7724 -0.7088
  214MOL0     H29489   5.020   4.425   9.701 -0.8285  0.5328 -1.2208
  214MOL0     H29490   4.785   4.383   9.714  1.7038 -0.4746 -0.7000
  214MOL0     H29491   4.472   4.318   9.648 -0.1072  0.2662  0.4069
  214MOL0     H29492   4.463   4.393   9.810 -2.1508 -0.6664 -0.7053
  214MOL0     H29493   4.599   4.279   9.769  0.1829  0.6928  0.0143
  214MOL0     H29494   4.235   4.922   9.512  1.1453  0.5611  3.2203
  214MOL0     H29495   4.010   5.002   9.541 -1.2724  0.6135  2.2177
  214MOL0     H29496   3.754   4.841   9.799  1.7241  4.4652  1.5113
  214MOL0     H29497   3.735   4.978   9.695  3.8865 -0.3457 -0.6194
  214MOL0     H29498   3.573   4.715   9.650 -0.0358  0.8297 -2.0999
  214MOL0     H29499   3.514   4.841   9.774 -0.9049  1.9877 -1.2569
  214MOL0     H29500   3.566   4.869   9.478  0.0680 -0.7685 -0.6362
  214MOL0     H29501   3.505   4.993   9.597  1.0014 -0.4705 -0.0182
  214MOL0     H29502   3.294   4.876   9.596 -2.0803 -0.3627 -2.1041
  214MOL0     H29503   3.353   4.731   9.524  0.2331  0.5308 -3.4746
  214MOL0     H29504   3.349   4.841   9.302 -0.5395 -0.8302 -0.6009
  214MOL0     H29505   3.204   4.903   9.381  0.0505 -1.1136  1.2492
  214MOL0     H29506   3.462   5.056   9.392 -1.9823 -1.3078  2.9040
  214MOL0     H29507   3.304   5.106   9.458  0.9492  0.1235  1.6829
  214MOL0     H29508   3.396   5.051   9.162 -0.9059  1.1370 -1.2134
  214MOL0     H29509   3.373   5.202   9.233 -1.1515  0.9574  0.5071
  214MOL0     H29510   3.128   5.175   9.263 -0.5958 -1.4858 -1.1628
  214MOL0     H29511   3.124   5.022   9.202 -1.4044  1.0819 -0.0122
  214MOL0     H29512   3.894   4.588   9.632 -1.6779  0.7800  2.5102
  214MOL0     H29513   4.128   4.528   9.632 -1.7293  0.2748 -1.6842
  214MOL0     H29514   4.577   4.784   9.531  0.6230  0.5277 -0.3800
  214MOL0     H29515   4.805   4.742   9.475  0.1506 -0.6399 -0.6685
  214MOL0     H29516   6.211   5.888   9.576  1.0071 -3.6814  1.5185
  214MOL0     H29517   6.368   6.001   9.444  1.5212 -1.5595  1.1086
  214MOL0     H29518   6.601   6.025   9.095  0.2049  1.6629  1.8413
  214MOL0     H29519   6.782   6.145   9.009 -1.0440  1.0140 -0.7753
  214MOL0     H29520   6.918   6.230   8.866  1.1934 -0.0090 -1.1750
  214MOL0     H29521   6.968   6.393   8.816 -0.2869 -0.8272 -0.3454
  214MOL0     H29522   6.873   6.320   9.096  3.2731 -3.0694  0.3542
  214MOL0     H29523   6.923   6.481   9.027  3.1470 -0.2102  0.5706
  214MOL0     H29524   7.139   6.353   8.967 -0.4491 -1.7619 -1.0204
  214MOL0     H29525   7.113   6.422   9.132 -1.4234 -0.9256  1.4907
  214MOL0     H29526   7.045   6.134   9.054  0.5689  2.1217 -3.3427
  214MOL0     H29527   7.077   6.190   9.221  1.3151 -1.3042  0.1672
  214MOL0     H29528   7.464   6.134   9.102  0.8873  1.4694  3.2887
  214MOL0     H29529   6.530   6.411   8.792  3.1885  1.6057  0.8961
  214MOL0     H29530   6.213   6.271   8.898 -0.6336  0.8466 -2.5285
  214MOL0     H29531   6.276   6.381   9.021  5.5474 -0.9050  1.2623
  214MOL0     H29532   6.277   6.429   8.849  1.4616  1.6014  2.0263
  215MOL0     O29533   9.593   1.649   2.314 -0.0554  0.1058  0.1381
  215MOL0     C29534   9.542   1.698   2.215 -0.0613 -1.4344  0.7116
  215MOL0     O29535   9.605   1.761   2.123  1.0696  0.7063  0.0147
  215MOL0     C29536   9.737   1.790   2.113 -0.3121  0.2305 -1.2520
  215MOL0     C29537   9.795   1.747   1.999  0.2313  0.0708 -0.2686
  215MOL0     C29538   9.931   1.773   1.974 -0.6934  0.2428  0.4140
  215MOL0     C29539  10.017   1.830   2.080 -0.8462 -0.6458  0.9263
  215MOL0     O29540  10.156   1.835   2.073 -0.0110  0.1495  0.0245
  215MOL0     C29541  10.221   1.835   1.932  0.3256 -0.5859 -0.1953
  215MOL0     C29542  10.331   1.942   1.924  0.2862 -0.1804  0.2740
  215MOL0     C29543  10.270   2.083   1.892 -0.2641  0.5909 -0.1620
  215MOL0     C29544  10.373   2.187   1.895  0.1412 -1.5475 -0.2381
  215MOL0     C29545  10.333   2.304   1.979 -0.0080 -0.5016 -1.0338
  215MOL0     C29546  10.220   2.389   1.916 -0.1944  0.1730 -0.2571
  215MOL0     C29547  10.189   2.509   2.019 -0.5062 -0.7516 -0.6749
  215MOL0     C29548  10.073   2.469   2.120  0.4086 -0.1439 -0.1517
  215MOL0     N29549  10.007   2.589   2.191 -0.5153 -0.1385  0.2716
  215MOL0     C29550   9.990   2.718   2.146  0.6524  0.9089  0.7244
  215MOL0     C29551   9.924   2.779   2.246  0.8594  0.3494 -0.2880
  215MOL0     C29552   9.856   2.908   2.238  0.0166 -0.4146  0.0948
  215MOL0     C29553   9.963   3.008   2.285  0.4467 -1.5365 -0.7856
  215MOL0     C29554   9.902   3.144   2.285 -0.1629  0.4992 -0.6806
  215MOL0     C29555  10.001   3.247   2.348 -0.5966  0.0827 -0.4134
  215MOL0     O29556  10.127   3.247   2.282  0.4412 -0.0442 -0.0388
  215MOL0     C29557  10.217   3.321   2.351 -0.0640  0.7187  0.3772
  215MOL0     C29558  10.207   3.449   2.385  0.1639 -0.1749 -0.0253
  215MOL0     C29559  10.304   3.521   2.459  0.0447 -0.7360 -0.6585
  215MOL0     C29560  10.253   3.654   2.518  0.1178 -0.3296  0.1609
  215MOL0     C29561  10.428   3.460   2.480 -0.0245 -0.1739  0.0979
  215MOL0     C29562  10.545   3.513   2.555 -0.0012  0.3227  0.6409
  215MOL0     O29563  10.632   3.421   2.607  0.0051  0.2481  0.4714
  215MOL0     C29564  10.750   3.474   2.665 -0.9131  0.2436 -0.2486
  215MOL0     C29565  10.763   3.547   2.779 -0.0549 -0.7103 -0.0119
  215MOL0     C29566  10.890   3.569   2.840 -0.1628  0.5036  0.5087
  215MOL0     C29567  11.012   3.517   2.792  0.0088  0.1343  0.5319
  215MOL0     O29568  11.133   3.537   2.857 -0.3958 -0.0329  0.1552
  215MOL0     C29569  11.152   3.663   2.908  0.0923 -0.8810 -0.7069
  215MOL0     C29570  11.155   3.643   3.065  0.8062  0.4346  0.2216
  215MOL0     C29571  11.282   3.576   3.114 -0.4495  0.6489 -1.0432
  215MOL0     C29572  11.414   3.661   3.120  0.1116  0.2514 -0.1276
  215MOL0     C29573  11.520   3.581   3.189 -1.2095 -0.1620  0.5283
  215MOL0     C29574  11.648   3.672   3.193  0.5593  0.3942 -0.2881
  215MOL0     C29575  11.759   3.580   3.245 -0.4379 -0.7431 -0.0342
  215MOL0     C29576  11.896   3.636   3.223 -0.2023  0.4774  0.3600
  215MOL0    Cl29577  12.025   3.541   3.311 -0.3899 -0.4082 -0.2135
  215MOL0     C29578  10.993   3.429   2.687  0.3048  0.0280 -0.5460
  215MOL0     C29579  10.871   3.413   2.625  0.1897 -0.3441 -0.3049
  215MOL0     O29580  10.563   3.630   2.555 -0.0887  0.5082 -0.0290
  215MOL0     C29581  10.446   3.335   2.425 -0.2207  0.4285 -0.2376
  215MOL0     C29582  10.342   3.266   2.363 -0.0789 -0.5035 -0.2164
  215MOL0     N29583   9.887   2.689   2.348 -0.0380 -0.5768 -0.3251
  215MOL0     N29584   9.965   2.586   2.322 -0.4882  0.6058 -0.2755
  215MOL0     C29585   9.963   1.854   2.200 -0.2827  0.4885  0.5627
  215MOL0     C29586   9.820   1.839   2.217  0.5782  0.8402  0.7674
  215MOL0     C29587   9.392   1.692   2.221  0.5402  0.7532 -0.0948
  215MOL0     C29588   9.323   1.753   2.115 -0.7909 -0.0366 -0.1916
  215MOL0     C29589   9.192   1.725   2.084  0.7779  0.6943 -0.4385
  215MOL0     C29590   9.115   1.642   2.169 -0.1750 -0.1496 -0.1698
  215MOL0     O29591   8.982   1.626   2.129  0.0649 -0.6256 -0.3192
  215MOL0     C29592   8.893   1.551   2.215  0.0895  0.7990 -0.2581
  215MOL0     C29593   8.749   1.562   2.159  0.5533  0.1852 -0.0028
  215MOL0     C29594   8.707   1.705   2.179  0.9932  0.9199 -0.2158
  215MOL0     C29595   8.584   1.737   2.098  0.4118 -0.5162 -0.1801
  215MOL0     C29596   8.466   1.667   2.161 -0.5707  0.2120  0.3229
  215MOL0     C29597   8.374   1.613   2.206 -0.7217  0.2656  0.3595
  215MOL0     C29598   9.177   1.589   2.282  0.3719 -0.5224 -0.5210
  215MOL0     C29599   9.310   1.610   2.309  0.3901 -0.0476  0.2715
  215MOL0     C29600   9.350   1.527   2.426 -0.2818  0.6380  0.0736
  215MOL0     H29601   9.732   1.699   1.925  1.1813 -0.9428 -0.4448
  215MOL0     H29602   9.973   1.744   1.878  1.4048  2.3114  0.5982
  215MOL0     H29603  10.141   1.863   1.862 -1.3000  1.4141  2.3033
  215MOL0     H29604  10.260   1.734   1.918  1.9044 -0.1069  0.5071
  215MOL0     H29605  10.380   1.948   2.021 -0.3763 -2.5575  0.7990
  215MOL0     H29606  10.401   1.912   1.846  3.4618 -0.5292  3.0562
  215MOL0     H29607  10.206   2.075   1.804 -1.8738 -2.2883  1.1381
  215MOL0     H29608  10.200   2.103   1.974 -1.8681 -1.6389 -0.8969
  215MOL0     H29609  10.458   2.150   1.953  0.9484 -1.9812 -1.6493
  215MOL0     H29610  10.399   2.218   1.793 -0.6612 -1.3484 -0.3919
  215MOL0     H29611  10.410   2.379   1.999 -1.7024  0.7271  1.3241
  215MOL0     H29612  10.299   2.257   2.071 -0.5178 -2.4690 -2.1705
  215MOL0     H29613  10.256   2.431   1.821  2.6092  0.5548  0.8614
  215MOL0     H29614  10.132   2.325   1.902  1.1039 -1.4691 -1.2946
  215MOL0     H29615  10.175   2.603   1.965  0.8967  0.3352  0.7471
  215MOL0     H29616  10.273   2.530   2.086 -1.0441  1.9988 -0.7435
  215MOL0     H29617   9.996   2.423   2.058  1.7410 -2.8713  0.0924
  215MOL0     H29618  10.109   2.399   2.196  3.0654  2.8322  1.5756
  215MOL0     H29619  10.011   2.748   2.044  0.2577  3.4448  1.3135
  215MOL0     H29620   9.772   2.906   2.308 -0.7065  1.0708 -0.6986
  215MOL0     H29621   9.826   2.928   2.134 -2.0282 -1.9076  0.3175
  215MOL0     H29622   9.994   2.987   2.388 -2.0634 -1.3656  0.0678
  215MOL0     H29623  10.045   3.004   2.212 -0.0439 -2.6618 -1.3113
  215MOL0     H29624   9.871   3.176   2.186  0.5661  1.4620 -0.6124
  215MOL0     H29625   9.813   3.141   2.349 -0.1891 -1.8807 -0.7241
  215MOL0     H29626   9.955   3.345   2.361  0.0021  0.3899 -0.5609
  215MOL0     H29627  10.025   3.224   2.453  0.6152  1.5336 -0.3293
  215MOL0     H29628  10.113   3.500   2.368  0.0190 -0.8198 -1.2417
  215MOL0     H29629  10.188   3.712   2.451  1.7620  0.6033 -0.6926
  215MOL0     H29630  10.338   3.723   2.526 -2.4111  3.1483 -0.5305
  215MOL0     H29631  10.222   3.640   2.622  2.1580 -1.0379  0.7216
  215MOL0     H29632  10.679   3.584   2.837 -1.7544 -2.7905 -1.0408
  215MOL0     H29633  10.887   3.638   2.923  0.8062  0.4342  0.6138
  215MOL0     H29634  11.250   3.699   2.874  0.9158 -1.1273  1.2673
  215MOL0     H29635  11.077   3.742   2.894  2.3081  1.1739 -1.6506
  215MOL0     H29636  11.136   3.738   3.116 -2.4132 -1.4514  2.8802
  215MOL0     H29637  11.071   3.578   3.090 -1.1065  2.3477 -0.8156
  215MOL0     H29638  11.299   3.487   3.052  0.0754  1.7883 -2.6178
  215MOL0     H29639  11.269   3.538   3.215  0.8365  1.7318 -0.4343
  215MOL0     H29640  11.390   3.749   3.181  0.3571  0.7256 -0.7029
  215MOL0     H29641  11.441   3.699   3.021  1.1382 -0.7181 -0.2422
  215MOL0     H29642  11.497   3.566   3.295  2.1697  1.2970  1.6165
  215MOL0     H29643  11.543   3.492   3.131 -0.6909 -0.0028  0.4888
  215MOL0     H29644  11.626   3.761   3.252  0.6475  0.0914  0.2036
  215MOL0     H29645  11.671   3.704   3.090  0.2506 -0.5527 -0.6562
  215MOL0     H29646  11.756   3.479   3.201  0.0990 -1.4094  1.3839
  215MOL0     H29647  11.742   3.567   3.352  1.6868  1.3565  0.6285
  215MOL0     H29648  11.891   3.739   3.260 -1.5453  0.5113  0.1532
  215MOL0     H29649  11.930   3.652   3.120  2.2466  2.5542  1.3815
  215MOL0     H29650  11.080   3.380   2.643  0.0101  1.2284 -2.6046
  215MOL0     H29651  10.853   3.337   2.550 -2.2520  0.0946 -0.2731
  215MOL0     H29652  10.536   3.276   2.439 -1.0716 -1.1087 -0.9373
  215MOL0     H29653  10.374   3.170   2.324 -1.0047 -0.4508 -1.1408
  215MOL0     H29654  10.022   1.901   2.279 -2.0497  3.3379  0.3422
  215MOL0     H29655   9.778   1.851   2.316 -1.0001 -1.2427  0.4088
  215MOL0     H29656   9.380   1.818   2.050  0.9325  2.0935  3.1156
  215MOL0     H29657   9.146   1.789   2.010  3.2006  3.4206  0.2187
  215MOL0     H29658   8.918   1.445   2.211 -0.4296  0.6981 -1.3312
  215MOL0     H29659   8.895   1.600   2.313  2.3206  1.4983 -0.6108
  215MOL0     H29660   8.677   1.495   2.207 -0.0994  0.3925 -0.6756
  215MOL0     H29661   8.757   1.533   2.054  0.8629  1.2058 -0.2719
  215MOL0     H29662   8.702   1.733   2.285  2.1795  0.3916 -0.0086
  215MOL0     H29663   8.791   1.767   2.147  0.8514  2.6003  2.3285
  215MOL0     H29664   8.600   1.702   1.996 -1.3265 -0.7869 -0.3940
  215MOL0     H29665   8.560   1.844   2.087 -1.2187 -0.7412  0.7468
  215MOL0     H29666   8.295   1.556   2.251 -1.9973  0.5155 -1.4743
  215MOL0     H29667   9.112   1.531   2.347 -2.9805  1.8878 -1.4353
  215MOL0     H29668   9.436   1.581   2.467  0.2656  1.5018 -2.0549
  215MOL0     H29669   9.276   1.530   2.506 -0.1490  0.8712  0.1882
  215MOL0     H29670   9.369   1.423   2.399 -1.9202 -0.3519  2.3947
  216MOL0     O29671   9.972   1.950   1.696  0.4788 -0.3564 -0.0748
  216MOL0     C29672   9.863   1.998   1.682  0.5478 -0.2609  0.3628
  216MOL0     O29673   9.769   1.946   1.600 -0.2015  0.1980  0.5723
  216MOL0     C29674   9.804   1.818   1.546 -0.4721 -0.1112 -0.3705
  216MOL0     C29675   9.899   1.810   1.449 -0.3903  0.2404  0.7121
  216MOL0     C29676   9.937   1.687   1.401 -0.1629  0.2403  0.6522
  216MOL0     C29677   9.873   1.567   1.448  0.6641 -0.9497  0.2167
  216MOL0     O29678   9.909   1.435   1.417 -0.3154 -0.2656  0.3315
  216MOL0     C29679   9.947   1.423   1.282 -0.1999  0.3994 -0.0562
  216MOL0     C29680  10.008   1.278   1.262 -0.6362 -0.5208  0.3353
  216MOL0     C29681  10.135   1.258   1.353  0.5704  0.0694 -0.7454
  216MOL0     C29682  10.220   1.137   1.313 -0.8866  0.9324  0.0365
  216MOL0     C29683  10.341   1.116   1.407  1.0939  1.1964 -0.4025
  216MOL0     C29684  10.416   0.988   1.370 -0.3764 -0.4176 -0.6252
  216MOL0     C29685  10.538   0.954   1.468  0.1488 -0.1977 -0.4345
  216MOL0     C29686  10.581   0.816   1.459 -0.0890 -0.3284 -0.7454
  216MOL0     N29687  10.684   0.780   1.555  0.0820  0.0438 -0.5301
  216MOL0     C29688  10.678   0.795   1.692 -0.4020  0.2157  0.0356
  216MOL0     C29689  10.796   0.741   1.741 -0.4794  0.8991  0.1837
  216MOL0     C29690  10.841   0.736   1.879  0.2905  1.7071 -0.4032
  216MOL0     C29691  10.887   0.599   1.932 -0.1819 -0.2204 -0.0542
  216MOL0     C29692  11.036   0.596   1.978  0.0436  0.0383 -0.7792
  216MOL0     C29693  11.070   0.455   2.031 -0.1844  0.2233  0.1114
  216MOL0     O29694  11.183   0.470   2.115  0.0357  0.4362 -0.0888
  216MOL0     C29695  11.207   0.352   2.185 -0.4051  1.0081  0.3771
  216MOL0     C29696  11.238   0.234   2.114  0.1344  0.4042  0.0969
  216MOL0     C29697  11.252   0.118   2.183  0.1976  0.8954  0.6911
  216MOL0     C29698  11.276  -0.017   2.102  0.3992 -0.2272 -0.4319
  216MOL0     C29699  11.237   0.108   2.322  0.1023 -0.8134 -0.3045
  216MOL0     C29700  11.271  -0.008   2.404  0.3897  0.0954  0.1437
  216MOL0     O29701  11.184  -0.024   2.513  0.0231 -0.1675 -0.5266
  216MOL0     C29702  11.143  -0.141   2.573  0.2419 -0.3183  1.1033
  216MOL0     C29703  11.082  -0.120   2.695 -0.0716  0.0943  0.6049
  216MOL0     C29704  11.037  -0.222   2.775  0.1396  0.7832 -0.4677
  216MOL0     C29705  11.040  -0.354   2.724 -0.3576  0.3646 -0.1889
  216MOL0     O29706  11.008  -0.453   2.817 -0.1527 -0.2448  0.2304
  216MOL0     C29707  10.996  -0.590   2.772  0.1008 -1.0942 -0.2264
  216MOL0     C29708  11.124  -0.663   2.747 -0.2540 -0.0362  0.2279
  216MOL0     C29709  11.201  -0.677   2.887  0.4776 -0.0362  0.5064
  216MOL0     C29710  11.138  -0.794   2.968 -0.2634  0.6422  0.8752
  216MOL0     C29711  11.218  -0.811   3.094  0.4907 -0.3732 -0.0748
  216MOL0     C29712  11.139  -0.881   3.202 -0.1239 -0.2383  0.9815
  216MOL0     C29713  11.224  -0.898   3.320 -0.0393  1.0073 -0.3785
  216MOL0     C29714  11.144  -0.940   3.449  0.1884  0.1523 -0.0343
  216MOL0    Cl29715  11.216  -0.889   3.607  0.2773  0.3996 -0.0719
  216MOL0     C29716  11.080  -0.372   2.585 -0.3792  0.3136 -0.3399
  216MOL0     C29717  11.130  -0.267   2.506 -1.0223  0.6037 -0.2321
  216MOL0     O29718  11.365  -0.082   2.383  0.0991  0.9831  1.3849
  216MOL0     C29719  11.215   0.226   2.393 -0.2371  0.3376  0.2949
  216MOL0     C29720  11.203   0.349   2.328 -0.8308 -0.6551 -0.1612
  216MOL0     N29721  10.868   0.695   1.633 -0.1485 -0.2325 -0.4808
  216MOL0     N29722  10.802   0.725   1.519  0.0495  0.2432  0.3960
  216MOL0     C29723   9.771   1.580   1.549  0.6920  0.1946 -0.2199
  216MOL0     C29724   9.741   1.709   1.600 -0.0232 -0.4053  0.0589
  216MOL0     C29725   9.839   2.136   1.727  0.4981 -0.4089 -0.8073
  216MOL0     C29726   9.924   2.241   1.687  0.7838  0.5279  0.2216
  216MOL0     C29727   9.910   2.370   1.737  0.2356 -0.6285  0.1505
  216MOL0     C29728   9.807   2.401   1.834 -0.4575  1.1068 -0.5402
  216MOL0     O29729   9.783   2.534   1.862 -0.1032  0.2671  0.0264
  216MOL0     C29730   9.710   2.558   1.986 -0.3989  0.0485  0.3922
  216MOL0     C29731   9.685   2.705   1.992 -0.4028  0.3047 -0.2815
  216MOL0     C29732   9.568   2.741   1.902  0.6702 -0.4168 -0.0702
  216MOL0     C29733   9.507   2.883   1.929 -0.3403 -0.9918 -0.0347
  216MOL0     C29734   9.611   2.992   1.947 -0.4117 -0.6848 -0.5272
  216MOL0     C29735   9.690   3.092   1.944  0.0760  0.3243 -0.4151
  216MOL0     C29736   9.735   2.291   1.879  0.9015 -0.2458  0.1824
  216MOL0     C29737   9.746   2.161   1.826 -0.2488  0.5107 -0.2879
  216MOL0     C29738   9.652   2.048   1.885 -0.7206 -0.2631 -0.3168
  216MOL0     H29739   9.937   1.896   1.395 -2.1177  0.8495  0.3772
  216MOL0     H29740  10.007   1.687   1.318  1.8410 -0.0829  2.2731
  216MOL0     H29741  10.023   1.495   1.252 -0.2764  0.1447 -0.8851
  216MOL0     H29742   9.855   1.437   1.224  0.0946 -1.7251 -1.1367
  216MOL0     H29743   9.938   1.198   1.286  0.5493 -0.9442  2.6345
  216MOL0     H29744  10.041   1.268   1.158  0.7126 -0.2290  0.7170
  216MOL0     H29745  10.203   1.344   1.349 -0.0618  0.6344  0.3424
  216MOL0     H29746  10.103   1.257   1.457  0.6891  0.2810 -0.7071
  216MOL0     H29747  10.158   1.047   1.307 -1.1480  1.1266 -0.2116
  216MOL0     H29748  10.247   1.165   1.211  4.3144 -0.8030  0.6295
  216MOL0     H29749  10.291   1.113   1.504 -0.3541 -1.9415 -1.1378
  216MOL0     H29750  10.412   1.198   1.392  1.7945  0.6142 -0.3185
  216MOL0     H29751  10.339   0.911   1.383 -1.9035  1.2143  0.4181
  216MOL0     H29752  10.459   0.988   1.269  0.5869  0.4733 -0.2322
  216MOL0     H29753  10.502   0.982   1.567 -0.2163  2.2470 -1.1891
  216MOL0     H29754  10.617   1.028   1.450 -1.7647  1.9691 -0.3207
  216MOL0     H29755  10.496   0.749   1.469  0.9306 -1.5280  0.2560
  216MOL0     H29756  10.626   0.804   1.360  0.7461 -0.3375 -0.3753
  216MOL0     H29757  10.598   0.830   1.756 -1.1771 -1.7003  0.1873
  216MOL0     H29758  10.755   0.773   1.936 -1.1869 -1.1462 -0.5591
  216MOL0     H29759  10.919   0.812   1.879  1.7561  0.2555  0.8748
  216MOL0     H29760  10.825   0.585   2.022 -1.9870  0.7048 -1.0950
  216MOL0     H29761  10.877   0.516   1.861  2.8220  0.0661 -0.9311
  216MOL0     H29762  11.093   0.615   1.887 -1.2840  1.4629 -1.3618
  216MOL0     H29763  11.062   0.673   2.051 -0.5818 -0.0213 -0.4817
  216MOL0     H29764  10.982   0.421   2.087 -0.7217 -2.9082 -2.3156
  216MOL0     H29765  11.084   0.385   1.948 -0.8801  2.4568 -2.0176
  216MOL0     H29766  11.252   0.234   2.007  0.7647  0.2675  0.1764
  216MOL0     H29767  11.219  -0.092   2.157 -1.4982  3.2471  2.7670
  216MOL0     H29768  11.382  -0.045   2.103  1.0548  2.0235  1.7376
  216MOL0     H29769  11.229  -0.014   2.003 -2.5192  1.6998  0.8908
  216MOL0     H29770  11.089  -0.024   2.746 -0.9407  0.5675 -0.1330
  216MOL0     H29771  11.014  -0.192   2.877  1.4300  1.2759 -0.3039
  216MOL0     H29772  10.930  -0.649   2.837 -4.9194  1.4873 -2.4177
  216MOL0     H29773  10.923  -0.581   2.692 -1.3107  2.3025  1.2578
  216MOL0     H29774  11.110  -0.755   2.688 -0.0297 -0.0471  0.1903
  216MOL0     H29775  11.173  -0.593   2.679 -2.4046  2.0135  0.6906
  216MOL0     H29776  11.213  -0.579   2.934 -1.0501 -1.2936  3.8623
  216MOL0     H29777  11.305  -0.706   2.870  1.0049  0.9875  1.8682
  216MOL0     H29778  11.138  -0.893   2.921  3.0555  0.6729  0.6136
  216MOL0     H29779  11.034  -0.764   2.985  0.6918  4.7013  0.5143
  216MOL0     H29780  11.311  -0.865   3.070  0.7897  0.5350 -1.0336
  216MOL0     H29781  11.249  -0.715   3.136  0.1023 -0.7504  1.1220
  216MOL0     H29782  11.111  -0.979   3.164  2.5462 -1.1618  1.1750
  216MOL0     H29783  11.043  -0.836   3.227  0.3301  0.0604  2.2692
  216MOL0     H29784  11.254  -0.795   3.340  1.9064  0.5609 -0.7061
  216MOL0     H29785  11.318  -0.954   3.314 -0.3518  0.2865  1.0577
  216MOL0     H29786  11.136  -1.048   3.463  0.1498  0.3912  2.0952
  216MOL0     H29787  11.047  -0.891   3.445  0.6955  1.3315  1.2993
  216MOL0     H29788  11.063  -0.470   2.542 -2.5776  0.3457  0.3000
  216MOL0     H29789  11.148  -0.290   2.401  1.5362  0.4506  0.1729
  216MOL0     H29790  11.216   0.235   2.501  2.1431 -2.1323  0.5700
  216MOL0     H29791  11.182   0.438   2.386 -3.2279 -0.6086 -0.9951
  216MOL0     H29792   9.710   1.495   1.579  0.5402  0.8408  1.4453
  216MOL0     H29793   9.657   1.708   1.669  0.0747 -0.4575  0.1769
  216MOL0     H29794   9.996   2.225   1.608 -1.0050  1.4469 -1.6952
  216MOL0     H29795   9.968   2.452   1.696  0.5186 -0.7357  0.3335
  216MOL0     H29796   9.620   2.496   1.986 -1.5576  1.6143  2.0471
  216MOL0     H29797   9.774   2.540   2.073 -0.5110  0.6381  0.6013
  216MOL0     H29798   9.779   2.751   1.960  0.4060 -1.3441 -0.3920
  216MOL0     H29799   9.662   2.730   2.096 -2.4804 -3.2989  0.3025
  216MOL0     H29800   9.609   2.737   1.801  0.0061 -2.3335 -0.3002
  216MOL0     H29801   9.486   2.668   1.903 -1.1190  1.3012 -3.5229
  216MOL0     H29802   9.441   2.889   2.017  0.1714  0.6698  0.2823
  216MOL0     H29803   9.437   2.911   1.850  1.4437 -0.8747 -1.6371
  216MOL0     H29804   9.747   3.180   1.921  0.9275  0.6331  2.5011
  216MOL0     H29805   9.653   2.294   1.951  0.3239  0.1098 -0.4825
  216MOL0     H29806   9.547   2.078   1.872 -0.3461  2.4130  1.7812
  216MOL0     H29807   9.667   1.946   1.850  0.6555  0.8037 -3.0972
  216MOL0     H29808   9.657   2.061   1.994 -0.0890  3.5518 -0.6557
  217MOL0     O29809   3.254   0.847   1.741 -0.1239  0.0097 -0.2705
  217MOL0     C29810   3.331   0.884   1.650 -0.1318  0.0331  1.0629
  217MOL0     O29811   3.314   0.991   1.578 -0.2098  0.3162  0.1898
  217MOL0     C29812   3.191   1.056   1.589 -0.0828 -0.8138 -0.0770
  217MOL0     C29813   3.105   1.057   1.484  1.3363  0.0296 -0.3919
  217MOL0     C29814   2.988   1.130   1.507 -0.0441  0.1124  0.1781
  217MOL0     C29815   2.951   1.204   1.618 -0.8961 -0.0645 -0.1424
  217MOL0     O29816   2.842   1.276   1.638  0.6043  0.3132 -0.2391
  217MOL0     C29817   2.713   1.219   1.599  0.5886  0.0118 -0.0026
  217MOL0     C29818   2.600   1.321   1.654 -0.3201 -0.8125  0.4726
  217MOL0     C29819   2.594   1.463   1.573  0.4150 -0.7531 -0.5582
  217MOL0     C29820   2.592   1.442   1.416  0.2163  1.2273 -0.0121
  217MOL0     C29821   2.613   1.585   1.369 -0.1475  0.3182 -0.8414
  217MOL0     C29822   2.654   1.590   1.226 -0.3719  0.2408 -0.4415
  217MOL0     C29823   2.541   1.573   1.126  0.2834  0.2087 -0.5490
  217MOL0     C29824   2.578   1.582   0.981 -0.1087 -0.2964 -0.2612
  217MOL0     N29825   2.680   1.685   0.962 -0.1736  0.0877 -0.7350
  217MOL0     C29826   2.668   1.815   0.939  0.7069  0.2931  0.5855
  217MOL0     C29827   2.796   1.861   0.925 -0.1838 -0.2739 -0.4899
  217MOL0     C29828   2.822   1.997   0.891 -0.1881  0.2953  0.7461
  217MOL0     C29829   2.971   2.013   0.843 -0.7067 -0.2637 -0.0881
  217MOL0     C29830   2.997   2.157   0.792  0.3849  0.9200 -0.4418
  217MOL0     C29831   2.933   2.195   0.655 -0.1022  0.2205  0.4203
  217MOL0     O29832   2.795   2.235   0.682 -0.7369  0.8107  0.7701
  217MOL0     C29833   2.762   2.366   0.680  0.1056 -0.3159  1.4221
  217MOL0     C29834   2.628   2.392   0.700 -0.5868 -0.8108  0.5245
  217MOL0     C29835   2.576   2.526   0.699  0.7310  0.6233  1.0728
  217MOL0     C29836   2.423   2.520   0.718  0.1016 -0.2074 -0.5550
  217MOL0     C29837   2.666   2.635   0.666 -0.0156 -0.3797  0.5842
  217MOL0     C29838   2.626   2.764   0.619  0.4801  0.5883 -0.9123
  217MOL0     O29839   2.713   2.863   0.608  1.4678 -0.8829  0.4818
  217MOL0     C29840   2.660   2.982   0.567 -0.7838 -0.0345  0.2727
  217MOL0     C29841   2.682   3.031   0.433 -0.0417 -0.5082 -0.7028
  217MOL0     C29842   2.624   3.157   0.392 -0.5884 -0.1610 -0.5341
  217MOL0     C29843   2.551   3.238   0.482 -0.0191  0.4305 -0.0903
  217MOL0     O29844   2.521   3.367   0.443  0.0537  0.2787 -0.1919
  217MOL0     C29845   2.541   3.419   0.307  0.3101 -0.8106 -0.1956
  217MOL0     C29846   2.457   3.548   0.312  1.1505 -0.7279  0.0859
  217MOL0     C29847   2.448   3.621   0.180  0.4415 -0.4810 -0.1931
  217MOL0     C29848   2.332   3.736   0.179 -0.6315  0.3043  0.7258
  217MOL0     C29849   2.339   3.802   0.039 -0.3611 -0.1456 -0.2721
  217MOL0     C29850   2.231   3.912   0.020 -0.1333  1.1267 -0.2889
  217MOL0     C29851   2.240   3.991  -0.116  0.8564  0.0546 -1.1214
  217MOL0     C29852   2.113   4.080  -0.124  0.9964  0.1486  0.4180
  217MOL0    Cl29853   2.133   4.185  -0.263 -0.1616 -0.4604  0.2058
  217MOL0     C29854   2.523   3.188   0.605 -1.0111  1.0430 -0.1670
  217MOL0     C29855   2.586   3.058   0.649  1.2090 -0.1563 -0.6082
  217MOL0     O29856   2.506   2.763   0.589  0.2427  0.1811 -0.1108
  217MOL0     C29857   2.798   2.608   0.643 -0.0049  0.2186  0.0712
  217MOL0     C29858   2.850   2.479   0.653 -0.0285  0.4847  0.4762
  217MOL0     N29859   2.887   1.749   0.918  0.3732 -0.1331 -0.6302
  217MOL0     N29860   2.811   1.651   0.946  0.5965  0.2152  0.5557
  217MOL0     C29861   3.049   1.210   1.717  0.2461  0.2025 -0.1098
  217MOL0     C29862   3.171   1.145   1.699 -0.4163 -0.2893 -0.3121
  217MOL0     C29863   3.474   0.822   1.637  0.2904  0.4665 -0.1984
  217MOL0     C29864   3.561   0.886   1.549 -0.2777  0.6683  1.1806
  217MOL0     C29865   3.683   0.825   1.513 -0.7540 -0.2564  0.3193
  217MOL0     C29866   3.711   0.694   1.568  0.2676  0.0887  0.0545
  217MOL0     O29867   3.835   0.644   1.532 -0.6389  0.0293 -0.0068
  217MOL0     C29868   3.854   0.506   1.558 -1.1059 -0.0736  1.3537
  217MOL0     C29869   3.950   0.459   1.461  0.3398  0.0768 -0.0635
  217MOL0     C29870   4.094   0.525   1.463  1.0937 -0.6591 -0.3801
  217MOL0     C29871   4.203   0.443   1.395 -0.2581  0.7837  0.0795
  217MOL0     C29872   4.274   0.353   1.483  0.1847 -0.0805 -0.1926
  217MOL0     C29873   4.346   0.290   1.555  0.2828  0.1943 -0.2486
  217MOL0     C29874   3.626   0.634   1.662 -0.1002  0.5946  0.7875
  217MOL0     C29875   3.504   0.694   1.699  0.6915  0.1563  0.0579
  217MOL0     C29876   3.412   0.615   1.782  0.9877  0.7427  0.5393
  217MOL0     H29877   3.105   0.982   1.406 -1.7586  1.4380 -1.9281
  217MOL0     H29878   2.912   1.141   1.430  1.1039  1.7995 -0.7695
  217MOL0     H29879   2.697   1.128   1.657 -2.7431  0.8302  0.5387
  217MOL0     H29880   2.684   1.201   1.495 -0.2979  0.4510  0.1628
  217MOL0     H29881   2.505   1.268   1.662 -1.8680  2.0596  3.7068
  217MOL0     H29882   2.627   1.342   1.758  0.9648 -0.6222  0.1144
  217MOL0     H29883   2.505   1.522   1.595 -0.0651 -0.4210 -3.0721
  217MOL0     H29884   2.683   1.525   1.591  0.5074  0.0151 -3.2441
  217MOL0     H29885   2.667   1.383   1.362 -3.1743 -1.5698 -2.0637
  217MOL0     H29886   2.492   1.407   1.392  0.6241 -0.6777  0.8973
  217MOL0     H29887   2.689   1.643   1.422 -0.0103 -1.7642  1.4164
  217MOL0     H29888   2.519   1.639   1.381 -0.7778 -0.6812 -1.1730
  217MOL0     H29889   2.694   1.692   1.218  0.0875  0.0679 -0.3804
  217MOL0     H29890   2.731   1.517   1.201  1.6039  1.8614  0.5771
  217MOL0     H29891   2.471   1.654   1.147 -0.7646 -1.0761  1.3065
  217MOL0     H29892   2.490   1.478   1.148 -0.0805  0.5104 -0.0433
  217MOL0     H29893   2.614   1.484   0.949 -0.4950  0.0324 -1.7835
  217MOL0     H29894   2.489   1.618   0.930 -0.5744 -2.4684 -1.0761
  217MOL0     H29895   2.574   1.867   0.918  0.6414  0.9519  2.3161
  217MOL0     H29896   2.812   2.060   0.980 -1.7529  1.6409 -0.3162
  217MOL0     H29897   2.759   2.031   0.809  0.1014  1.3259  0.9358
  217MOL0     H29898   3.041   1.974   0.917 -2.5757 -1.8380  0.9532
  217MOL0     H29899   2.994   1.946   0.759  1.3504  0.3849 -0.0977
  217MOL0     H29900   2.955   2.222   0.870  3.5250  2.3211  0.2390
  217MOL0     H29901   3.104   2.178   0.784  0.4529  0.5979 -0.3863
  217MOL0     H29902   2.988   2.267   0.594  1.2875 -0.8404  0.3606
  217MOL0     H29903   2.924   2.111   0.585 -2.7331  1.6860 -1.1349
  217MOL0     H29904   2.553   2.315   0.712 -4.2992  2.2049 -1.0251
  217MOL0     H29905   2.372   2.469   0.636 -2.0272 -0.0614  0.5943
  217MOL0     H29906   2.382   2.621   0.723 -0.0823 -0.2815 -0.5293
  217MOL0     H29907   2.383   2.470   0.807  2.1542  1.0919  1.1725
  217MOL0     H29908   2.744   2.971   0.367  1.1279  0.9049 -0.9429
  217MOL0     H29909   2.653   3.185   0.291  3.3945  2.4153  1.0533
  217MOL0     H29910   2.646   3.449   0.299 -0.2668  0.8947 -2.7999
  217MOL0     H29911   2.518   3.354   0.222 -1.4279 -2.5078  1.4677
  217MOL0     H29912   2.357   3.520   0.345  0.7751  1.4341  0.9821
  217MOL0     H29913   2.509   3.618   0.378 -0.9200  0.5213  0.4879
  217MOL0     H29914   2.441   3.554   0.094 -0.8169  1.6951 -1.8785
  217MOL0     H29915   2.547   3.667   0.168  1.1325 -2.1734 -1.3563
  217MOL0     H29916   2.349   3.814   0.255 -1.2778 -0.7663  2.0123
  217MOL0     H29917   2.235   3.688   0.193 -0.0519 -0.7378  1.3065
  217MOL0     H29918   2.440   3.843   0.030  0.2828 -0.9725  2.3717
  217MOL0     H29919   2.334   3.719  -0.032 -2.3578 -0.7607  0.5144
  217MOL0     H29920   2.272   3.979   0.096  1.5534  0.9654 -1.0233
  217MOL0     H29921   2.129   3.877   0.040 -0.1542 -1.1757 -3.5964
  217MOL0     H29922   2.231   3.914  -0.194  1.6775 -1.4545  0.2098
  217MOL0     H29923   2.336   4.042  -0.126 -0.2721  2.0633 -2.3340
  217MOL0     H29924   2.092   4.137  -0.033  1.3201 -0.9592  1.2190
  217MOL0     H29925   2.026   4.015  -0.141  1.3291 -0.3626  0.6276
  217MOL0     H29926   2.470   3.258   0.667 -1.9795  0.4604 -0.3150
  217MOL0     H29927   2.573   3.019   0.749 -0.2454  0.6308 -0.4592
  217MOL0     H29928   2.870   2.687   0.623  3.3740 -2.0636  2.3052
  217MOL0     H29929   2.956   2.462   0.638 -0.6553 -1.4331 -2.8709
  217MOL0     H29930   3.032   1.273   1.804  0.6280 -0.9111  0.8113
  217MOL0     H29931   3.252   1.140   1.770 -1.1075 -2.1816  0.4272
  217MOL0     H29932   3.543   0.987   1.515  2.4363  0.1407 -2.6056
  217MOL0     H29933   3.755   0.872   1.447  2.1115 -3.8945  0.4702
  217MOL0     H29934   3.898   0.500   1.658  0.5053  1.2352  0.7707
  217MOL0     H29935   3.760   0.450   1.560 -2.0945  1.5051  1.2263
  217MOL0     H29936   3.916   0.468   1.358 -1.1472  3.8968  0.5683
  217MOL0     H29937   3.950   0.352   1.484 -0.9606  0.0123 -0.2652
  217MOL0     H29938   4.077   0.617   1.408 -2.5822  0.2942  2.0062
  217MOL0     H29939   4.119   0.552   1.566  1.1275 -0.6318 -0.3955
  217MOL0     H29940   4.271   0.514   1.347  0.1906  1.0156  1.0376
  217MOL0     H29941   4.181   0.384   1.306 -0.3963 -1.0414  1.2673
  217MOL0     H29942   4.409   0.250   1.633  0.3774  1.7101  0.4832
  217MOL0     H29943   3.653   0.534   1.695 -3.6972 -1.0711 -0.7185
  217MOL0     H29944   3.461   0.524   1.818  0.3346 -0.4793 -1.5066
  217MOL0     H29945   3.370   0.659   1.873  2.5218 -1.0856  2.2479
  217MOL0     H29946   3.325   0.595   1.719  0.8827  1.7492  0.3548
  218MOL0     O29947   5.123   0.504   1.356  1.1901  0.2057  0.7331
  218MOL0     C29948   5.072   0.530   1.250 -0.0591 -0.3887  0.1042
  218MOL0     O29949   5.119   0.483   1.123 -0.4853  0.1210 -0.2346
  218MOL0     C29950   5.225   0.398   1.127  0.0670  0.0879 -0.6575
  218MOL0     C29951   5.357   0.456   1.130 -0.4819  0.6350 -0.8625
  218MOL0     C29952   5.473   0.382   1.153 -0.1755  0.6917 -0.5383
  218MOL0     C29953   5.461   0.241   1.178  0.4280  0.3544  0.7596
  218MOL0     O29954   5.569   0.162   1.211  0.5917 -0.2681  0.2252
  218MOL0     C29955   5.595   0.103   1.331 -0.3394  0.9533  0.3231
  218MOL0     C29956   5.669  -0.035   1.316 -0.2724 -0.2106  0.1804
  218MOL0     C29957   5.816  -0.022   1.267  0.4665  0.2978 -0.3167
  218MOL0     C29958   5.873  -0.155   1.225 -0.6336 -0.7454  0.2541
  218MOL0     C29959   5.878  -0.263   1.334  0.0278  0.0768 -0.4633
  218MOL0     C29960   5.975  -0.212   1.442 -0.4044  0.7617  0.1108
  218MOL0     C29961   6.005  -0.324   1.549 -0.2587 -0.0350 -0.6122
  218MOL0     C29962   6.070  -0.282   1.679  0.3688 -0.5803 -0.0045
  218MOL0     N29963   6.203  -0.325   1.697 -0.3925  0.3033  0.1705
  218MOL0     C29964   6.227  -0.444   1.756  0.1289  0.0191  0.1147
  218MOL0     C29965   6.360  -0.446   1.783  0.0299 -0.3088  0.3637
  218MOL0     C29966   6.425  -0.559   1.858 -0.6789 -0.1362  0.0459
  218MOL0     C29967   6.572  -0.581   1.819  0.8319 -0.4623  0.7620
  218MOL0     C29968   6.618  -0.701   1.911  0.3935 -0.0931 -0.1960
  218MOL0     C29969   6.767  -0.751   1.903 -0.2740  0.1423 -0.0050
  218MOL0     O29970   6.803  -0.792   1.772 -0.4794 -0.1291  0.4500
  218MOL0     C29971   6.938  -0.827   1.745 -0.1332 -0.2256  0.5516
  218MOL0     C29972   7.041  -0.862   1.840 -0.1768 -0.2291 -0.4151
  218MOL0     C29973   7.172  -0.880   1.793  0.1223 -0.0722 -0.0784
  218MOL0     C29974   7.276  -0.924   1.900 -0.4399  0.2804  0.0113
  218MOL0     C29975   7.215  -0.869   1.659  0.3528 -0.4202 -0.1606
  218MOL0     C29976   7.353  -0.897   1.607  0.2187 -0.9233 -0.2431
  218MOL0     O29977   7.350  -0.969   1.489 -0.0050 -0.4460 -0.3212
  218MOL0     C29978   7.465  -0.988   1.413  0.4584  0.3216  0.0025
  218MOL0     C29979   7.514  -0.878   1.354 -0.0147  0.1364  0.5857
  218MOL0     C29980   7.632  -0.884   1.283 -0.0131  0.4972 -0.6687
  218MOL0     C29981   7.696  -1.006   1.266  0.4515  0.0601  0.2306
  218MOL0     O29982   7.820  -0.999   1.193 -0.1174  0.3079 -0.3410
  218MOL0     C29983   7.905  -1.108   1.210 -0.0483  0.6750  0.3047
  218MOL0     C29984   8.029  -1.083   1.135  0.2958 -0.4971 -0.6843
  218MOL0     C29985   8.015  -1.102   0.985  0.4405 -0.3603  0.0103
  218MOL0     C29986   7.910  -1.003   0.909  0.6701  0.5388  0.4040
  218MOL0     C29987   7.960  -0.857   0.898  0.1270  0.1293  0.1936
  218MOL0     C29988   7.844  -0.776   0.825 -0.3473 -0.3912 -0.3791
  218MOL0     C29989   7.717  -0.752   0.897  0.1329  0.0626  0.9429
  218MOL0     C29990   7.623  -0.681   0.799  0.6827 -0.0127  0.1143
  218MOL0    Cl29991   7.466  -0.632   0.862 -0.2780  0.0294 -0.6211
  218MOL0     C29992   7.643  -1.123   1.321  0.6329  0.4419  0.2065
  218MOL0     C29993   7.518  -1.116   1.388 -0.1748 -0.5818  0.6713
  218MOL0     O29994   7.453  -0.862   1.664 -0.2539 -0.7352  0.0526
  218MOL0     C29995   7.117  -0.830   1.562  0.6593 -0.5046 -0.8203
  218MOL0     C29996   6.982  -0.814   1.607  0.2908  0.7225  0.0896
  218MOL0     N29997   6.415  -0.325   1.743  0.3593  0.2489  0.4109
  218MOL0     N29998   6.321  -0.261   1.677 -0.8646 -0.5132  0.5150
  218MOL0     C29999   5.333   0.189   1.161 -0.5696 -0.2053 -1.1109
  218MOL0     C30000   5.222   0.258   1.137  0.2877  0.3830  0.0541
  218MOL0     C30001   4.950   0.608   1.261  0.0404 -0.3272  0.3428
  218MOL0     C30002   4.861   0.569   1.369  0.1904  0.4844  0.6891
  218MOL0     C30003   4.742   0.647   1.379  0.1066  1.1601  0.3285
  218MOL0     C30004   4.708   0.750   1.299  0.1971 -0.5726  0.0843
  218MOL0     O30005   4.603   0.839   1.325  0.4226 -0.1242 -0.2747
  218MOL0     C30006   4.548   0.836   1.462  0.1190 -1.3120 -0.4187
  218MOL0     C30007   4.445   0.954   1.474 -0.1431 -0.2609 -0.1365
  218MOL0     C30008   4.529   1.083   1.477  0.4388 -0.9154 -0.1603
  218MOL0     C30009   4.446   1.218   1.485 -0.6880 -0.2942 -0.3363
  218MOL0     C30010   4.361   1.217   1.606  0.4925 -0.3749 -0.7344
  218MOL0     C30011   4.297   1.220   1.707 -0.0007  0.6866 -0.8203
  218MOL0     C30012   4.796   0.779   1.195 -0.3205 -0.4294 -0.7647
  218MOL0     C30013   4.921   0.710   1.171  0.1842  0.2744 -0.3659
  218MOL0     C30014   5.013   0.770   1.061 -0.3507  0.7901 -1.0362
  218MOL0     H30015   5.368   0.564   1.126 -0.5077  0.7445  1.0624
  218MOL0     H30016   5.566   0.434   1.173  0.5713 -0.9863  0.5878
  218MOL0     H30017   5.502   0.081   1.385 -0.0185  0.3740  0.6445
  218MOL0     H30018   5.667   0.160   1.391  0.3327  0.0509  0.3826
  218MOL0     H30019   5.671  -0.082   1.415 -1.8689 -3.1884 -1.0898
  218MOL0     H30020   5.606  -0.091   1.247  0.8816  0.0525 -1.1250
  218MOL0     H30021   5.819   0.041   1.178  2.6757  0.8832  0.1119
  218MOL0     H30022   5.886   0.032   1.331 -0.9019 -0.7723  2.2130
  218MOL0     H30023   5.807  -0.186   1.143 -0.9449  0.0698  0.1870
  218MOL0     H30024   5.975  -0.145   1.187 -1.4846  1.1010 -1.7792
  218MOL0     H30025   5.917  -0.359   1.299 -0.7599 -0.2373 -0.5109
  218MOL0     H30026   5.775  -0.279   1.369 -0.9083  1.9203 -2.1665
  218MOL0     H30027   6.074  -0.180   1.408 -0.8240  2.0975  0.1125
  218MOL0     H30028   5.924  -0.129   1.492  0.4031  1.8260 -0.7885
  218MOL0     H30029   6.061  -0.408   1.508  0.6888 -0.9027  2.2299
  218MOL0     H30030   5.902  -0.353   1.572 -0.5963 -0.6632 -2.6475
  218MOL0     H30031   6.069  -0.172   1.685  2.9638 -0.4537 -0.7161
  218MOL0     H30032   6.010  -0.325   1.759 -0.5402  1.8768  0.7268
  218MOL0     H30033   6.151  -0.521   1.767 -0.0893  0.1255 -0.5922
  218MOL0     H30034   6.371  -0.652   1.836 -1.8003  0.3497  0.6382
  218MOL0     H30035   6.400  -0.549   1.964 -1.3955 -0.7889 -0.0498
  218MOL0     H30036   6.566  -0.615   1.715  0.9437 -1.9153  1.2143
  218MOL0     H30037   6.633  -0.489   1.821  0.7376 -0.1892 -2.7726
  218MOL0     H30038   6.625  -0.667   2.015  2.1569  0.6090 -0.5150
  218MOL0     H30039   6.546  -0.782   1.898 -3.4316  3.4417 -3.6946
  218MOL0     H30040   6.825  -0.662   1.930  0.1479  0.1676 -0.9542
  218MOL0     H30041   6.770  -0.835   1.973 -4.2830 -1.5227 -1.5314
  218MOL0     H30042   7.027  -0.874   1.947  2.3511  1.5575  0.2130
  218MOL0     H30043   7.330  -0.834   1.931 -1.6079  0.7076  0.8440
  218MOL0     H30044   7.335  -1.005   1.856  1.5975  1.8929 -0.4419
  218MOL0     H30045   7.228  -0.955   1.993  2.8198  1.7024  2.3941
  218MOL0     H30046   7.465  -0.787   1.388  0.1388 -0.0706  1.3746
  218MOL0     H30047   7.673  -0.789   1.250  0.8809  0.1623 -0.5705
  218MOL0     H30048   7.923  -1.121   1.317  1.8887  4.5309  0.6449
  218MOL0     H30049   7.867  -1.202   1.169  1.9249 -0.5951  1.2343
  218MOL0     H30050   8.062  -0.980   1.149  0.8044 -0.5325 -1.5624
  218MOL0     H30051   8.094  -1.154   1.186 -2.1236 -0.2328  3.1769
  218MOL0     H30052   7.976  -1.203   0.966 -2.2898  0.7761 -0.9911
  218MOL0     H30053   8.112  -1.080   0.941  0.9296  1.3793  1.7918
  218MOL0     H30054   7.811  -1.006   0.956  0.2275  0.9846 -0.4903
  218MOL0     H30055   7.902  -1.041   0.807 -0.2977 -0.1214  0.7032
  218MOL0     H30056   7.978  -0.820   1.000  1.3608  1.0959 -0.3500
  218MOL0     H30057   8.052  -0.838   0.843  0.4468 -1.1198  0.2722
  218MOL0     H30058   7.825  -0.827   0.730 -2.2789 -0.9009  0.2380
  218MOL0     H30059   7.877  -0.674   0.803  1.5610 -0.7247  0.6829
  218MOL0     H30060   7.732  -0.681   0.979 -0.7340  0.5668  0.6734
  218MOL0     H30061   7.670  -0.843   0.936 -2.8838 -0.2238 -2.7840
  218MOL0     H30062   7.597  -0.751   0.718  0.3208 -1.3312  1.3266
  218MOL0     H30063   7.670  -0.585   0.777 -0.3264  0.5882  0.5003
  218MOL0     H30064   7.690  -1.220   1.309 -1.6656 -0.6715 -0.2479
  218MOL0     H30065   7.466  -1.203   1.428  0.1664 -0.3724  1.5991
  218MOL0     H30066   7.148  -0.812   1.459  2.4953 -1.5680 -0.5061
  218MOL0     H30067   6.893  -0.780   1.555  0.1352 -2.5451 -2.0335
  218MOL0     H30068   5.312   0.084   1.183  0.8082 -0.2566  0.1216
  218MOL0     H30069   5.125   0.211   1.125  0.5248 -0.1523  0.1998
  218MOL0     H30070   4.879   0.484   1.434  0.8243  0.3460  0.3406
  218MOL0     H30071   4.688   0.631   1.472  0.4165  0.4418  0.3983
  218MOL0     H30072   4.487   0.745   1.460 -1.3524 -0.3645 -1.3213
  218MOL0     H30073   4.631   0.842   1.532  0.1877  0.1120 -0.5939
  218MOL0     H30074   4.390   0.947   1.568 -1.4939  0.3122 -0.8634
  218MOL0     H30075   4.384   0.946   1.384 -1.7242  0.8965  0.7831
  218MOL0     H30076   4.599   1.076   1.561 -1.4345  3.4556  2.0559
  218MOL0     H30077   4.591   1.091   1.388 -0.2209 -1.8310 -0.7261
  218MOL0     H30078   4.387   1.239   1.396  0.5953 -3.3334 -2.0532
  218MOL0     H30079   4.517   1.301   1.497  0.9733 -1.7669  0.4495
  218MOL0     H30080   4.224   1.213   1.785  2.5863 -0.7068  1.6267
  218MOL0     H30081   4.779   0.868   1.135  1.5784  0.7399  0.3165
  218MOL0     H30082   4.970   0.865   1.028  0.1491  2.7351  3.2502
  218MOL0     H30083   5.108   0.800   1.106 -1.4961  0.1730  2.0360
  218MOL0     H30084   5.024   0.697   0.980  3.7601 -1.3647  1.1686
  219MOL0     O30085   0.246  10.770   0.323 -0.0076 -0.6204  0.3417
  219MOL0     C30086   0.274  10.886   0.297 -0.1364  0.3557  0.3153
  219MOL0     O30087   0.201  11.002   0.342 -0.1991  0.9584 -0.6135
  219MOL0     C30088   0.080  10.992   0.400  0.0234 -1.2639  0.3233
  219MOL0     C30089  -0.027  11.056   0.326 -0.2422  0.5364 -0.3374
  219MOL0     C30090  -0.159  11.067   0.368 -1.0650  0.1350  0.1097
  219MOL0     C30091  -0.185  11.039   0.504  0.6048 -0.3027 -0.6536
  219MOL0     O30092  -0.319  11.039   0.533  0.4246 -0.9352 -0.5007
  219MOL0     C30093  -0.341  11.075   0.673 -0.3857 -0.1656  0.5202
  219MOL0     C30094  -0.484  11.102   0.705 -0.0214  0.1698 -0.5522
  219MOL0     C30095  -0.572  10.983   0.675  0.4212  0.3174 -0.0277
  219MOL0     C30096  -0.721  10.995   0.726 -0.6435  1.3067  0.1525
  219MOL0     C30097  -0.802  10.883   0.675  0.2970 -1.0870 -0.3269
  219MOL0     C30098  -0.783  10.749   0.741 -0.0636 -1.0133 -0.2806
  219MOL0     C30099  -0.855  10.640   0.677  0.3954  0.3864  0.7651
  219MOL0     C30100  -0.788  10.599   0.536  0.0580  0.2135 -0.2315
  219MOL0     N30101  -0.648  10.564   0.560  0.4158 -0.1827  0.6448
  219MOL0     C30102  -0.554  10.651   0.515  0.0392  0.6404  0.2097
  219MOL0     C30103  -0.440  10.589   0.560 -0.2802 -1.0491  0.2194
  219MOL0     C30104  -0.305  10.639   0.541  0.0109 -0.1471  0.6942
  219MOL0     C30105  -0.252  10.591   0.405  0.8270  0.9298  0.2664
  219MOL0     C30106  -0.147  10.676   0.351  0.4820 -0.0471  0.5850
  219MOL0     C30107  -0.090  10.624   0.224 -0.4493 -0.7944  1.3523
  219MOL0     O30108  -0.192  10.599   0.115 -0.6241 -0.9647 -0.6254
  219MOL0     C30109  -0.150  10.632  -0.008  0.8210 -0.1340  0.6618
  219MOL0     C30110  -0.017  10.628  -0.041 -0.0613  0.7855 -0.1710
  219MOL0     C30111   0.034  10.672  -0.162 -0.1831  0.1734  0.2313
  219MOL0     C30112   0.187  10.681  -0.178 -0.1517 -0.3469 -0.5467
  219MOL0     C30113  -0.059  10.723  -0.261 -0.0706  0.2787  0.3355
  219MOL0     C30114  -0.016  10.770  -0.398  0.3219  0.4745 -0.3418
  219MOL0     O30115   0.118  10.785  -0.422  0.7354  0.1353  0.4094
  219MOL0     C30116   0.156  10.837  -0.543  0.0221 -0.4097  0.3077
  219MOL0     C30117   0.233  10.763  -0.636  0.1918  0.0812 -0.6530
  219MOL0     C30118   0.280  10.821  -0.757  0.3116 -0.0872 -0.0404
  219MOL0     C30119   0.241  10.955  -0.796 -0.0919 -0.2176  1.4611
  219MOL0     O30120   0.266  11.019  -0.914 -0.1993 -0.0450 -0.1559
  219MOL0     C30121   0.324  10.947  -1.031 -0.0957  0.7175  0.0468
  219MOL0     C30122   0.474  10.951  -1.022  0.4100 -0.1374  0.6397
  219MOL0     C30123   0.536  11.076  -0.955  0.1476  0.3541 -0.5226
  219MOL0     C30124   0.663  11.124  -1.020 -0.4210  0.3013 -0.4785
  219MOL0     C30125   0.787  11.062  -0.952 -0.5881  0.2001 -0.8103
  219MOL0     C30126   0.922  11.104  -1.016 -0.4478 -0.2944 -0.4332
  219MOL0     C30127   1.030  11.065  -0.923 -0.3647  0.5229 -1.1353
  219MOL0     C30128   1.164  11.033  -0.996  0.1376  0.9558 -0.1089
  219MOL0    Cl30129   1.195  11.139  -1.147  0.1811  0.1498  0.2595
  219MOL0     C30130   0.166  11.024  -0.706  0.7589 -0.0210 -0.1830
  219MOL0     C30131   0.126  10.968  -0.578 -0.9297 -0.2025 -0.3939
  219MOL0     O30132  -0.106  10.790  -0.472 -0.3977 -0.0126 -0.5563
  219MOL0     C30133  -0.199  10.705  -0.231  0.4310 -0.3102 -0.0723
  219MOL0     C30134  -0.239  10.663  -0.105 -0.3776 -0.1484 -0.6169
  219MOL0     N30135  -0.470  10.476   0.626 -1.1709 -0.0576 -0.0772
  219MOL0     N30136  -0.595  10.463   0.627  0.6221  0.0574 -0.4349
  219MOL0     C30137  -0.081  10.991   0.593  0.5346 -0.2413  0.1424
  219MOL0     C30138   0.054  10.970   0.539 -0.2264 -0.8912  0.1463
  219MOL0     C30139   0.399  10.912   0.208  0.0172 -0.6136 -0.2842
  219MOL0     C30140   0.492  10.809   0.208 -0.1176 -0.9290  0.2841
  219MOL0     C30141   0.619  10.824   0.148  0.1229  0.0099 -0.0024
  219MOL0     C30142   0.648  10.940   0.086  0.6801  0.2521  0.1715
  219MOL0     O30143   0.766  10.952   0.017  0.1165  0.2499 -0.6900
  219MOL0     C30144   0.857  11.041   0.087 -0.3929  0.5352  0.3452
  219MOL0     C30145   0.994  10.974   0.098  0.5391  0.0947 -0.6414
  219MOL0     C30146   1.001  10.842   0.179  0.2059 -1.3895 -0.1884
  219MOL0     C30147   0.969  10.850   0.338  0.1842  0.7289 -0.4766
  219MOL0     C30148   1.064  10.940   0.413 -0.0502 -0.8072 -0.0360
  219MOL0     C30149   1.138  11.023   0.470 -0.0067  0.4514  0.0252
  219MOL0     C30150   0.561  11.048   0.084  0.2686 -0.1042 -0.3477
  219MOL0     C30151   0.436  11.030   0.142 -0.0195 -0.1018  0.1545
  219MOL0     C30152   0.333  11.138   0.138 -0.4158  0.1410 -0.6874
  219MOL0     H30153  -0.017  11.075   0.219 -3.0523 -0.5627 -0.8762
  219MOL0     H30154  -0.239  11.087   0.297 -1.3887  3.2829  1.2310
  219MOL0     H30155  -0.291  11.171   0.690 -1.9272  0.9018 -0.6296
  219MOL0     H30156  -0.306  10.994   0.737 -1.3673  0.4043  1.8243
  219MOL0     H30157  -0.498  11.117   0.812 -0.5033  1.0238 -0.7302
  219MOL0     H30158  -0.509  11.193   0.650  2.3896  1.7618  0.8221
  219MOL0     H30159  -0.571  10.957   0.569  0.9093 -0.5323  0.1791
  219MOL0     H30160  -0.532  10.896   0.728 -0.3309 -0.2436 -0.3780
  219MOL0     H30161  -0.731  10.994   0.835  2.4234  0.6957  0.5223
  219MOL0     H30162  -0.766  11.090   0.695  0.6584  1.3075 -1.9591
  219MOL0     H30163  -0.795  10.876   0.566 -0.0495 -0.0256 -0.4351
  219MOL0     H30164  -0.905  10.917   0.688  0.5227  0.6355 -2.3745
  219MOL0     H30165  -0.675  10.731   0.733  0.1749 -0.1879  0.8761
  219MOL0     H30166  -0.808  10.751   0.847  0.2154 -0.5878 -0.2210
  219MOL0     H30167  -0.953  10.689   0.666  0.0417 -0.7887 -2.8631
  219MOL0     H30168  -0.867  10.555   0.744 -0.6207  1.0251  1.4282
  219MOL0     H30169  -0.841  10.518   0.484 -0.1357  2.1932 -3.4133
  219MOL0     H30170  -0.781  10.682   0.466  1.3669  1.7921  1.6694
  219MOL0     H30171  -0.551  10.738   0.450 -0.6219 -0.8884 -1.9914
  219MOL0     H30172  -0.234  10.602   0.617  1.3380  0.9505  0.0405
  219MOL0     H30173  -0.303  10.748   0.556  1.4760 -0.2649  1.6724
  219MOL0     H30174  -0.223  10.485   0.407 -1.3094  0.2992  1.9667
  219MOL0     H30175  -0.336  10.588   0.335 -1.3228 -1.8603  2.6927
  219MOL0     H30176  -0.200  10.769   0.330  1.5636  0.5355  0.3576
  219MOL0     H30177  -0.067  10.695   0.423  2.4098 -0.4344 -1.3302
  219MOL0     H30178  -0.015  10.699   0.199 -0.5598 -1.3535 -0.8032
  219MOL0     H30179  -0.042  10.527   0.242 -1.4133 -1.6573 -0.5303
  219MOL0     H30180   0.051  10.599   0.039 -2.4746 -1.6168  1.1695
  219MOL0     H30181   0.216  10.779  -0.216 -0.1163 -1.1505 -2.7614
  219MOL0     H30182   0.218  10.603  -0.248  0.1402  0.4540 -1.3246
  219MOL0     H30183   0.242  10.677  -0.083  1.0371  5.1982 -0.6760
  219MOL0     H30184   0.271  10.662  -0.619  0.0432 -0.0810 -1.2564
  219MOL0     H30185   0.349  10.767  -0.821  0.2828  1.4403 -1.4288
  219MOL0     H30186   0.287  10.845  -1.036  0.5258  0.3991  1.4692
  219MOL0     H30187   0.283  11.001  -1.118  0.1921  2.2453  0.8176
  219MOL0     H30188   0.510  10.866  -0.964 -0.6214 -0.2226  1.1617
  219MOL0     H30189   0.521  10.931  -1.119  0.3127 -1.0408  0.7760
  219MOL0     H30190   0.542  11.069  -0.846 -2.1029 -1.2332 -0.4354
  219MOL0     H30191   0.459  11.151  -0.972 -1.5532 -1.3434 -0.6962
  219MOL0     H30192   0.668  11.233  -1.006  0.2317 -0.0006  2.2946
  219MOL0     H30193   0.651  11.107  -1.127 -0.6143 -1.9260 -0.1401
  219MOL0     H30194   0.777  11.080  -0.844  4.4225 -2.6064  0.4741
  219MOL0     H30195   0.778  10.955  -0.974  0.7137  0.1026 -0.9859
  219MOL0     H30196   0.929  11.211  -1.037  0.5959 -0.0358  1.0521
  219MOL0     H30197   0.931  11.051  -1.112 -1.0950 -1.5096  0.1541
  219MOL0     H30198   1.011  10.976  -0.863  2.1175 -0.1551 -1.2576
  219MOL0     H30199   1.044  11.159  -0.868  1.4975 -0.7489  0.7282
  219MOL0     H30200   1.153  10.927  -1.022  1.2818  0.1965  2.2359
  219MOL0     H30201   1.253  11.044  -0.933 -0.9719 -0.0581  1.7241
  219MOL0     H30202   0.140  11.125  -0.735 -0.0876 -0.3475 -0.5813
  219MOL0     H30203   0.062  11.031  -0.516 -2.7603 -1.7427 -0.6422
  219MOL0     H30204  -0.287  10.726  -0.290 -1.8050 -2.2591  2.3605
  219MOL0     H30205  -0.346  10.653  -0.092 -0.0704 -0.1596  2.6540
  219MOL0     H30206  -0.106  10.958   0.693  0.4436  2.4040  1.0776
  219MOL0     H30207   0.135  10.941   0.605  0.0906 -0.2535  0.0461
  219MOL0     H30208   0.465  10.718   0.261 -2.3639 -1.0419 -0.9050
  219MOL0     H30209   0.700  10.758   0.178  2.2716  3.5037  2.7167
  219MOL0     H30210   0.862  11.124   0.016 -1.3996 -2.4142 -3.5307
  219MOL0     H30211   0.825  11.069   0.187  0.3989  0.2748  0.6785
  219MOL0     H30212   1.076  11.038   0.129  0.0538  0.8190 -0.8236
  219MOL0     H30213   1.017  10.940  -0.004 -2.5250  1.6841 -2.0161
  219MOL0     H30214   0.932  10.774   0.128 -0.6734 -0.4785 -0.2257
  219MOL0     H30215   1.096  10.788   0.178  0.6733 -0.5838 -0.7450
  219MOL0     H30216   0.983  10.749   0.377 -1.8482  1.0379  1.2377
  219MOL0     H30217   0.864  10.869   0.359  0.1838 -0.3060  0.5472
  219MOL0     H30218   1.195  11.094   0.527 -0.9183 -0.4101  2.1522
  219MOL0     H30219   0.588  11.148   0.050  0.9923  0.0036  0.5108
  219MOL0     H30220   0.312  11.191   0.232  0.1715  1.2618 -1.1710
  219MOL0     H30221   0.364  11.222   0.076 -1.8456  1.1270 -0.1096
  219MOL0     H30222   0.238  11.110   0.094 -1.3313  0.7679  0.7988
  220MOL0     O30223   3.057   3.080  11.420 -0.2769 -0.1024  0.2922
  220MOL0     C30224   2.984   2.990  11.451 -0.2495  0.8591 -0.0541
  220MOL0     O30225   2.849   2.995  11.485  0.4835  0.1194  0.2995
  220MOL0     C30226   2.803   3.121  11.503 -0.7589 -0.8512  0.2039
  220MOL0     C30227   2.753   3.197  11.396  0.3823  0.3962  0.1691
  220MOL0     C30228   2.739   3.331  11.401  0.0678  0.2286 -0.3494
  220MOL0     C30229   2.781   3.410  11.504 -0.1561  1.0484  1.0554
  220MOL0     O30230   2.774   3.549  11.499 -0.6185 -0.8397  0.9080
  220MOL0     C30231   2.765   3.627  11.380 -0.0314 -1.0972  0.5192
  220MOL0     C30232   2.784   3.774  11.423  0.6009  1.1313 -0.4664
  220MOL0     C30233   2.921   3.813  11.462 -0.2619 -0.1594 -1.5344
  220MOL0     C30234   3.031   3.775  11.369 -0.2407  1.0414 -0.5655
  220MOL0     C30235   3.162   3.838  11.422  0.0803  0.1508  0.0155
  220MOL0     C30236   3.293   3.803  11.344  0.3912  0.0789 -0.2321
  220MOL0     C30237   3.423   3.838  11.411 -0.2358 -0.3699  0.0086
  220MOL0     C30238   3.524   3.898  11.310  0.0839  0.7640  0.5484
  220MOL0     N30239   3.653   3.937  11.368  0.2693 -0.0595  0.1220
  220MOL0     C30240   3.679   4.075  11.391  0.8738  0.8630 -0.5058
  220MOL0     C30241   3.789   4.074  11.474 -0.5959  0.0912  0.2144
  220MOL0     C30242   3.836   4.200  11.517 -0.0124 -0.8243  0.9814
  220MOL0     C30243   3.944   4.267  11.426  0.0350  0.2536  0.7523
  220MOL0     C30244   3.940   4.420  11.429 -0.5294  0.3412  0.0913
  220MOL0     C30245   4.053   4.483  11.348 -0.9846  0.1758  0.1945
  220MOL0     O30246   4.045   4.453  11.205  1.1013 -0.0069  0.0144
  220MOL0     C30247   4.164   4.454  11.133 -0.6637  0.2396 -0.1848
  220MOL0     C30248   4.176   4.372  11.022  0.2242 -0.1069  0.6643
  220MOL0     C30249   4.305   4.352  10.959  0.0604 -0.2184 -0.3569
  220MOL0     C30250   4.306   4.259  10.844 -0.1751 -0.0655  0.2998
  220MOL0     C30251   4.416   4.412  11.016 -0.3543 -0.3406 -0.0445
  220MOL0     C30252   4.553   4.395  10.967  0.0486  0.4831 -0.8068
  220MOL0     O30253   4.569   4.293  10.882 -0.1508  0.4449  0.4259
  220MOL0     C30254   4.693   4.236  10.858  0.1873 -0.6289  0.5281
  220MOL0     C30255   4.808   4.309  10.850 -0.2622 -0.8022 -0.4783
  220MOL0     C30256   4.933   4.253  10.849 -0.5591 -0.3692  0.0973
  220MOL0     C30257   4.948   4.119  10.819  0.7668 -0.6886 -1.2007
  220MOL0     O30258   5.081   4.088  10.819  0.0480  0.2124  0.5499
  220MOL0     C30259   5.112   3.954  10.806 -0.4077 -0.6420  0.1593
  220MOL0     C30260   5.093   3.893  10.944 -0.3976  0.2493 -0.5583
  220MOL0     C30261   5.196   3.940  11.061 -0.1378  0.5393  0.1333
  220MOL0     C30262   5.318   3.852  11.070  0.5414 -0.6257 -0.2531
  220MOL0     C30263   5.422   3.905  11.164 -0.2940 -0.1511  0.2651
  220MOL0     C30264   5.543   3.818  11.161 -0.0260 -0.8673  0.0465
  220MOL0     C30265   5.629   3.834  11.284 -0.1605  0.1335 -0.8145
  220MOL0     C30266   5.741   3.729  11.307 -0.5276 -0.2129 -0.8869
  220MOL0    Cl30267   5.826   3.752  11.464 -0.4552  0.4531  0.3279
  220MOL0     C30268   4.834   4.039  10.807  0.2970  0.3258  0.7948
  220MOL0     C30269   4.714   4.098  10.834 -0.2110 -0.1175  0.2486
  220MOL0     O30270   4.643   4.461  11.023  0.2084 -0.4606  0.2750
  220MOL0     C30271   4.400   4.505  11.118  0.0752  0.4497  0.1893
  220MOL0     C30272   4.273   4.526  11.172  0.4507 -0.2449 -0.6309
  220MOL0     N30273   3.836   3.934  11.476  0.3434 -0.4566 -0.5378
  220MOL0     N30274   3.751   3.863  11.413 -0.2327 -0.0474  0.5206
  220MOL0     C30275   2.835   3.331  11.613 -0.6211 -0.2740 -0.9362
  220MOL0     C30276   2.837   3.193  11.612 -1.0479  0.1588 -0.0962
  220MOL0     C30277   3.049   2.861  11.451 -0.8098 -0.4136 -0.0562
  220MOL0     C30278   3.145   2.840  11.548 -0.0748  0.4185 -0.2200
  220MOL0     C30279   3.205   2.708  11.552 -0.1072 -0.4143  0.0626
  220MOL0     C30280   3.175   2.621  11.453  1.1537  0.3568  0.1319
  220MOL0     O30281   3.243   2.507  11.446 -0.4554 -0.5135  0.4512
  220MOL0     C30282   3.159   2.390  11.467  0.0483 -0.1695  0.4536
  220MOL0     C30283   3.254   2.304  11.547  0.4280 -0.6334 -0.0466
  220MOL0     C30284   3.354   2.239  11.454  0.0764 -0.4877 -0.0317
  220MOL0     C30285   3.311   2.109  11.381 -0.4642 -0.3894 -0.9406
  220MOL0     C30286   3.206   2.130  11.282 -0.0981 -1.2452 -0.8679
  220MOL0     C30287   3.107   2.126  11.221  0.0674  0.6121 -0.5469
  220MOL0     C30288   3.073   2.646  11.363  0.9238  0.2397  0.2148
  220MOL0     C30289   3.000   2.763  11.364  0.4434 -0.6520 -0.1029
  220MOL0     C30290   2.877   2.780  11.274  0.6062  0.5515 -0.1637
  220MOL0     H30291   2.736   3.156  11.298 -0.0441 -2.3446  1.3015
  220MOL0     H30292   2.680   3.378  11.323 -1.1487 -0.2839  0.2367
  220MOL0     H30293   2.668   3.605  11.334  0.2799  2.2971 -2.1698
  220MOL0     H30294   2.838   3.605  11.302 -1.7136  3.1972 -2.7045
  220MOL0     H30295   2.745   3.831  11.339 -2.7916 -2.0828 -1.3673
  220MOL0     H30296   2.705   3.795  11.496 -0.5079  0.3172 -1.3964
  220MOL0     H30297   2.926   3.921  11.448  0.4370  0.4261  2.2047
  220MOL0     H30298   2.946   3.787  11.566  2.8818 -0.2572 -2.2216
  220MOL0     H30299   3.043   3.666  11.373 -3.9425  0.5367  0.8678
  220MOL0     H30300   3.019   3.807  11.265 -1.6170  0.0816 -0.7271
  220MOL0     H30301   3.169   3.801  11.525 -1.4357 -0.8533 -0.2195
  220MOL0     H30302   3.137   3.945  11.418 -3.6867 -0.6227 -0.2702
  220MOL0     H30303   3.295   3.694  11.339 -0.4631 -0.1066  2.2217
  220MOL0     H30304   3.286   3.843  11.243  0.7662 -1.4135 -0.8841
  220MOL0     H30305   3.467   3.753  11.464 -0.0267  0.4880  1.2456
  220MOL0     H30306   3.392   3.909  11.488  0.8648 -0.0483  0.1661
  220MOL0     H30307   3.544   3.832  11.225  0.9259  1.5039  0.1687
  220MOL0     H30308   3.467   3.981  11.267  2.1614  1.5668 -0.7888
  220MOL0     H30309   3.622   4.165  11.370  0.2085  0.0436 -2.4914
  220MOL0     H30310   3.869   4.205  11.621 -2.0694  0.3634  1.6283
  220MOL0     H30311   3.750   4.266  11.534  1.6241  0.9429  3.1631
  220MOL0     H30312   4.042   4.236  11.462  0.3757  0.5563  0.0949
  220MOL0     H30313   3.925   4.242  11.322  1.3300 -1.5499  0.9082
  220MOL0     H30314   3.840   4.450  11.396 -0.0194 -0.7440 -2.7070
  220MOL0     H30315   3.961   4.455  11.530 -3.4063 -1.0853  1.2884
  220MOL0     H30316   4.066   4.590  11.368 -4.3368  0.6487  0.3764
  220MOL0     H30317   4.144   4.436  11.386 -0.9421 -1.0711 -1.3871
  220MOL0     H30318   4.096   4.308  10.985 -0.0599  2.0200 -2.9261
  220MOL0     H30319   4.366   4.169  10.864 -0.2475  0.3536  2.6661
  220MOL0     H30320   4.346   4.302  10.751 -0.0163 -5.2522 -2.4242
  220MOL0     H30321   4.207   4.231  10.806 -2.4056  5.6576  0.9332
  220MOL0     H30322   4.801   4.417  10.865 -1.3162 -0.9334  0.0962
  220MOL0     H30323   5.017   4.309  10.886  1.5306 -2.9345 -0.4338
  220MOL0     H30324   5.057   3.905  10.726 -1.1837 -0.4647  0.5797
  220MOL0     H30325   5.220   3.947  10.789 -0.5750  0.5318 -1.5416
  220MOL0     H30326   4.992   3.895  10.988 -0.2829 -1.5587 -0.1179
  220MOL0     H30327   5.119   3.788  10.930  1.3657  0.8405 -2.1082
  220MOL0     H30328   5.138   3.945  11.153 -1.0642  0.7563 -0.4423
  220MOL0     H30329   5.220   4.043  11.035  0.7950  0.1066 -0.8025
  220MOL0     H30330   5.359   3.840  10.970  0.4986 -3.1551 -0.0186
  220MOL0     H30331   5.290   3.751  11.098  2.0405 -0.8607  0.5098
  220MOL0     H30332   5.446   4.010  11.147  5.3992 -1.2492 -0.4092
  220MOL0     H30333   5.384   3.895  11.266  1.0960 -1.3443  0.6985
  220MOL0     H30334   5.602   3.847  11.073  2.6231  1.3574  2.3520
  220MOL0     H30335   5.515   3.713  11.153 -2.3143 -0.4804  1.9772
  220MOL0     H30336   5.561   3.836  11.370 -0.4950  1.1566 -1.0872
  220MOL0     H30337   5.676   3.933  11.294 -1.5081  0.6007  2.0525
  220MOL0     H30338   5.819   3.727  11.231  1.6142  3.9283  0.8217
  220MOL0     H30339   5.698   3.629  11.308  0.0436 -0.4594 -0.9682
  220MOL0     H30340   4.842   3.931  10.797  0.4764  0.3556  0.6293
  220MOL0     H30341   4.620   4.043  10.829  0.3460 -1.0289 -0.5643
  220MOL0     H30342   4.481   4.560  11.163 -0.7907 -0.9279  3.7145
  220MOL0     H30343   4.278   4.604  11.247  2.1565 -1.5115  0.6464
  220MOL0     H30344   2.885   3.381  11.695 -0.5664 -2.4938  0.4915
  220MOL0     H30345   2.896   3.140  11.685 -0.1277  1.0916 -0.1399
  220MOL0     H30346   3.167   2.918  11.620 -1.4202  0.6659 -0.0449
  220MOL0     H30347   3.293   2.699  11.616  1.2910  1.2500 -1.5038
  220MOL0     H30348   3.072   2.399  11.533  1.3495 -1.8867  2.5527
  220MOL0     H30349   3.141   2.348  11.368  1.9675  2.5398 -1.1703
  220MOL0     H30350   3.207   2.225  11.607 -1.3187  2.0439  2.4230
  220MOL0     H30351   3.297   2.376  11.618  1.6041  0.5884 -1.9277
  220MOL0     H30352   3.370   2.313  11.375 -1.5976  0.7422  0.7103
  220MOL0     H30353   3.454   2.224  11.494  0.4079  1.0737 -0.2251
  220MOL0     H30354   3.284   2.045  11.466  1.1315  0.3020  0.1483
  220MOL0     H30355   3.392   2.062  11.326 -1.1112 -0.8935 -1.4861
  220MOL0     H30356   3.008   2.122  11.179 -0.7074  0.2057  1.2578
  220MOL0     H30357   3.045   2.569  11.291  2.6514  0.1157 -0.3648
  220MOL0     H30358   2.899   2.861  11.204  3.0969  0.5398  0.5221
  220MOL0     H30359   2.849   2.689  11.221  1.2976  0.8136 -1.0012
  220MOL0     H30360   2.785   2.796  11.332 -1.7964 -1.7411 -3.0307
  221MOL0     O30361   1.653   6.801   1.564  0.2798  0.1240 -0.3122
  221MOL0     C30362   1.566   6.840   1.489  0.4350  0.0938 -0.2466
  221MOL0     O30363   1.560   6.813   1.358 -0.5537 -0.1702  0.3616
  221MOL0     C30364   1.657   6.746   1.298 -0.6272 -0.0909  1.1568
  221MOL0     C30365   1.731   6.626   1.326 -0.2534  0.0962  0.0103
  221MOL0     C30366   1.815   6.572   1.228  0.2085  0.2012 -1.2054
  221MOL0     C30367   1.825   6.626   1.103 -0.5946  0.3649  0.4743
  221MOL0     O30368   1.898   6.572   1.000 -0.5866 -0.0696 -0.3938
  221MOL0     C30369   1.872   6.438   0.972 -0.2376  0.5189  0.4686
  221MOL0     C30370   1.973   6.390   0.869 -0.2326  0.7323  0.0370
  221MOL0     C30371   1.959   6.236   0.852 -0.4262  0.6539  0.7951
  221MOL0     C30372   2.072   6.187   0.754  0.3053  0.0551  0.9297
  221MOL0     C30373   2.048   6.027   0.743  0.3779 -0.3869  0.5628
  221MOL0     C30374   1.918   5.980   0.659  0.5451 -0.1405  0.3011
  221MOL0     C30375   1.897   5.829   0.651 -0.0664 -0.8272 -0.1385
  221MOL0     C30376   2.001   5.775   0.555  0.3420  0.1505 -0.1961
  221MOL0     N30377   1.961   5.645   0.518  0.9845  0.4961  0.5821
  221MOL0     C30378   1.953   5.545   0.611  0.0506  0.0963  0.0457
  221MOL0     C30379   1.901   5.439   0.547 -0.4481  0.4684 -0.7149
  221MOL0     C30380   1.889   5.300   0.606 -1.0034  0.1167  0.2078
  221MOL0     C30381   2.028   5.231   0.622  0.1352 -0.3931  0.6650
  221MOL0     C30382   2.022   5.084   0.665 -0.1588 -0.0348 -0.2350
  221MOL0     C30383   2.030   5.061   0.817 -0.1704 -0.3040  0.7578
  221MOL0     O30384   2.160   5.101   0.870  0.1860 -0.0878 -0.0648
  221MOL0     C30385   2.190   5.060   0.999  0.0244  0.0009 -0.1343
  221MOL0     C30386   2.108   5.031   1.106  0.0463  0.3852  0.1987
  221MOL0     C30387   2.151   4.991   1.237 -0.0102  0.2001  0.0995
  221MOL0     C30388   2.044   4.954   1.342 -0.7522 -0.1290 -0.9124
  221MOL0     C30389   2.293   4.987   1.256  1.0003 -0.8514 -0.7407
  221MOL0     C30390   2.352   4.968   1.394  0.7535  0.2459  0.4076
  221MOL0     O30391   2.275   4.925   1.499 -0.0970  0.0738  0.1502
  221MOL0     C30392   2.334   4.899   1.625  0.7104  0.4058 -0.6650
  221MOL0     C30393   2.254   4.931   1.732 -0.4689  0.6586 -0.8993
  221MOL0     C30394   2.299   4.904   1.863  0.7578  0.7164 -0.7388
  221MOL0     C30395   2.409   4.822   1.881  1.5753 -1.2945 -0.5729
  221MOL0     O30396   2.436   4.773   2.006 -0.8509 -0.4123 -0.8055
  221MOL0     C30397   2.577   4.757   2.045  1.2704  0.6382 -0.7500
  221MOL0     C30398   2.593   4.768   2.207  0.1265 -0.0988 -0.2364
  221MOL0     C30399   2.535   4.902   2.250  0.4099 -0.2557 -0.7414
  221MOL0     C30400   2.574   4.917   2.396  0.5221  0.0420  0.0462
  221MOL0     C30401   2.521   5.053   2.438  0.4972 -1.7611  0.6389
  221MOL0     C30402   2.515   5.071   2.588  0.2555  0.1176 -0.1175
  221MOL0     C30403   2.658   5.108   2.626 -0.9032 -0.7988 -0.8485
  221MOL0     C30404   2.674   5.133   2.778 -0.4033 -0.4687  0.0861
  221MOL0    Cl30405   2.841   5.117   2.832 -0.4305  0.4066 -0.1658
  221MOL0     C30406   2.486   4.787   1.777  0.1922  0.2354  1.3708
  221MOL0     C30407   2.445   4.830   1.646 -0.1922  0.0667 -0.3167
  221MOL0     O30408   2.469   5.004   1.393 -0.9292 -0.3743  0.1280
  221MOL0     C30409   2.373   5.012   1.144 -0.1870  0.2282 -0.0987
  221MOL0     C30410   2.316   5.055   1.024  0.0722  0.5087 -0.4014
  221MOL0     N30411   1.871   5.475   0.412 -0.4144  0.5270  0.8483
  221MOL0     N30412   1.909   5.602   0.402  0.0315  0.8990 -0.3923
  221MOL0     C30413   1.759   6.749   1.075 -0.6148 -0.3999  0.0437
  221MOL0     C30414   1.676   6.798   1.168  0.5184 -0.3786 -0.1947
  221MOL0     C30415   1.451   6.916   1.551 -0.6300  1.2386 -0.0092
  221MOL0     C30416   1.402   7.016   1.477  0.7514  0.1717 -0.1838
  221MOL0     C30417   1.286   7.085   1.515 -0.8938  0.0125  0.0005
  221MOL0     C30418   1.222   7.058   1.636 -0.0725 -0.5060 -0.1650
  221MOL0     O30419   1.099   7.114   1.669 -0.0608  0.0262 -0.2647
  221MOL0     C30420   1.026   7.204   1.587  0.5108 -0.3471  0.2054
  221MOL0     C30421   0.916   7.266   1.668  0.9199  0.4337  0.2533
  221MOL0     C30422   0.968   7.349   1.789 -0.8185  0.1144  0.1113
  221MOL0     C30423   0.861   7.378   1.900  0.8313 -0.1325 -0.0366
  221MOL0     C30424   0.922   7.424   2.023 -0.3361  0.1576  0.3726
  221MOL0     C30425   0.970   7.462   2.131  0.6775 -0.8362  0.2227
  221MOL0     C30426   1.270   6.959   1.708  0.2930  0.1118 -0.1693
  221MOL0     C30427   1.387   6.880   1.675  0.2398 -0.8799 -0.0251
  221MOL0     C30428   1.451   6.793   1.772  0.2247  0.2681 -0.4034
  221MOL0     H30429   1.722   6.573   1.421 -3.3484  1.2550  0.5137
  221MOL0     H30430   1.870   6.486   1.264  3.0033  2.9990  1.8213
  221MOL0     H30431   1.768   6.436   0.939  0.4948  1.0097 -2.1220
  221MOL0     H30432   1.885   6.365   1.053  1.1349 -0.7101 -0.7930
  221MOL0     H30433   1.951   6.425   0.768  1.6085 -1.7033 -1.3449
  221MOL0     H30434   2.074   6.428   0.887  1.9384 -2.8509 -2.9176
  221MOL0     H30435   1.965   6.185   0.948  0.9661 -5.8059 -2.1751
  221MOL0     H30436   1.862   6.206   0.810  1.0952 -0.2936 -2.3530
  221MOL0     H30437   2.054   6.229   0.654 -2.4725 -2.2562  0.3219
  221MOL0     H30438   2.176   6.210   0.780  2.4080 -4.0718 -2.5052
  221MOL0     H30439   2.024   5.991   0.843 -1.9030  0.1910  0.2813
  221MOL0     H30440   2.123   5.968   0.689 -0.6796 -2.2809  1.0457
  221MOL0     H30441   1.829   6.023   0.706 -0.7411 -0.8556 -1.3823
  221MOL0     H30442   1.917   6.019   0.557  1.9429  0.6457  0.5628
  221MOL0     H30443   1.796   5.805   0.615  0.3279 -1.9049 -0.5569
  221MOL0     H30444   1.903   5.783   0.750  0.0161 -0.1459  0.1758
  221MOL0     H30445   2.008   5.837   0.465  0.5223 -2.5272 -2.1187
  221MOL0     H30446   2.094   5.773   0.611  0.0166  0.0031  0.3505
  221MOL0     H30447   1.975   5.541   0.717 -3.7776  0.6827  1.0172
  221MOL0     H30448   1.828   5.232   0.546 -1.5640  0.9797 -0.2111
  221MOL0     H30449   1.837   5.306   0.702 -2.6185  4.4348 -0.7135
  221MOL0     H30450   2.077   5.233   0.525 -0.4505  0.0323  0.3657
  221MOL0     H30451   2.091   5.280   0.696 -0.2903 -0.0843  0.8286
  221MOL0     H30452   1.923   5.044   0.641 -0.9730  1.0404  1.1564
  221MOL0     H30453   2.104   5.033   0.613  2.3302  1.3619  2.0436
  221MOL0     H30454   1.944   5.112   0.861 -0.9678 -0.6974 -0.3165
  221MOL0     H30455   2.007   4.957   0.841 -3.5827  0.0550 -0.4468
  221MOL0     H30456   2.000   5.041   1.097 -0.1029 -1.2515 -0.1684
  221MOL0     H30457   2.035   4.848   1.366 -0.8263  0.1436  0.3406
  221MOL0     H30458   1.947   4.984   1.301 -2.1457  2.4166  3.5489
  221MOL0     H30459   2.063   5.016   1.431  2.2643  1.3646 -2.4381
  221MOL0     H30460   2.158   4.981   1.726 -0.1975  1.3123  0.0324
  221MOL0     H30461   2.252   4.941   1.953 -2.8514 -2.1938 -1.1935
  221MOL0     H30462   2.610   4.660   2.007  0.7402  0.0808  0.1505
  221MOL0     H30463   2.626   4.839   1.993 -1.6636  2.7536 -0.4484
  221MOL0     H30464   2.538   4.686   2.253  1.3149 -0.9429 -0.2854
  221MOL0     H30465   2.696   4.761   2.242  0.3125 -1.1454 -0.9476
  221MOL0     H30466   2.428   4.917   2.239  0.4888 -0.2700 -1.5620
  221MOL0     H30467   2.578   4.990   2.200 -0.1150  0.2913 -0.2470
  221MOL0     H30468   2.682   4.907   2.410  0.6954 -2.4829 -2.1953
  221MOL0     H30469   2.517   4.847   2.457  0.9836 -0.3725  0.0083
  221MOL0     H30470   2.588   5.130   2.397  1.0179 -2.8693 -0.6713
  221MOL0     H30471   2.417   5.063   2.407  0.5247  0.3375  1.0583
  221MOL0     H30472   2.482   4.977   2.631  0.8406  1.1153  2.7372
  221MOL0     H30473   2.445   5.150   2.618  1.2567  2.1175 -2.6297
  221MOL0     H30474   2.690   5.200   2.576 -2.1858 -1.0131 -2.1308
  221MOL0     H30475   2.722   5.025   2.597  0.5008  0.6709 -2.1332
  221MOL0     H30476   2.621   5.051   2.828 -0.2555 -0.7996 -0.2891
  221MOL0     H30477   2.634   5.227   2.816  0.3633 -0.8018  1.7677
  221MOL0     H30478   2.569   4.718   1.772 -0.6014 -0.7782 -3.5409
  221MOL0     H30479   2.495   4.804   1.553  0.1470  1.2506 -0.4754
  221MOL0     H30480   2.479   5.029   1.160 -0.6541  4.2758 -0.4510
  221MOL0     H30481   2.376   5.093   0.941  1.4535 -1.3307 -0.2960
  221MOL0     H30482   1.755   6.796   0.977  0.0174  1.0101  0.6575
  221MOL0     H30483   1.623   6.891   1.148 -0.5917 -0.5279  1.8033
  221MOL0     H30484   1.437   7.044   1.378  2.9377  1.5302  0.8815
  221MOL0     H30485   1.261   7.163   1.444  1.2321  1.0684  0.3134
  221MOL0     H30486   1.083   7.284   1.538 -1.1881  0.7558 -0.0722
  221MOL0     H30487   0.973   7.147   1.510  1.5643  0.0457 -0.8627
  221MOL0     H30488   0.843   7.193   1.704  0.5852  0.6481  0.0190
  221MOL0     H30489   0.860   7.330   1.599  0.4377 -2.0410 -1.8075
  221MOL0     H30490   1.057   7.295   1.823 -1.0544 -0.2638  0.1216
  221MOL0     H30491   1.011   7.444   1.755  3.3618 -0.3705  3.1521
  221MOL0     H30492   0.801   7.290   1.926 -0.5997  1.8333  4.2347
  221MOL0     H30493   0.792   7.456   1.868  1.5467  1.3121  1.8191
  221MOL0     H30494   1.021   7.503   2.215  4.0369  1.5344 -2.6582
  221MOL0     H30495   1.223   6.939   1.804  2.3157  2.2047  1.3577
  221MOL0     H30496   1.472   6.695   1.729 -1.0975  0.4746 -1.5983
  221MOL0     H30497   1.550   6.822   1.807 -0.1457 -0.3154  1.2306
  221MOL0     H30498   1.396   6.778   1.866  2.2075  3.0911  1.3662
  222MOL0     O30499   1.332   0.163   9.783  0.0758  0.8167  0.9952
  222MOL0     C30500   1.268   0.062   9.808 -0.3964  0.5718 -0.3472
  222MOL0     O30501   1.319  -0.064   9.830 -0.4164  0.1923 -0.1355
  222MOL0     C30502   1.434  -0.094   9.768 -0.1951 -0.6787  0.0783
  222MOL0     C30503   1.448  -0.070   9.630  0.4119  0.0220 -0.7305
  222MOL0     C30504   1.559  -0.118   9.568  0.3543 -0.8829  0.8305
  222MOL0     C30505   1.656  -0.191   9.637  0.7939  0.2037  0.4408
  222MOL0     O30506   1.773  -0.227   9.575 -0.0009  0.4991 -0.3272
  222MOL0     C30507   1.782  -0.226   9.435  0.4200 -0.0257  0.3655
  222MOL0     C30508   1.921  -0.266   9.397  0.2930  0.3760 -0.3611
  222MOL0     C30509   1.950  -0.258   9.239  0.3861  0.3173 -0.3305
  222MOL0     C30510   1.829  -0.307   9.154 -0.7860 -0.2482  0.5574
  222MOL0     C30511   1.860  -0.299   9.004  0.0471  0.0857 -0.5666
  222MOL0     C30512   1.860  -0.146   8.944 -0.4692  0.1873 -0.2597
  222MOL0     C30513   1.854  -0.151   8.794  0.2022 -0.2310  0.3540
  222MOL0     C30514   1.812  -0.013   8.725 -0.0255  0.1302 -0.5857
  222MOL0     N30515   1.716  -0.042   8.624 -0.1413  0.1514  0.1465
  222MOL0     C30516   1.592  -0.088   8.651 -0.1233  0.3753 -0.5993
  222MOL0     C30517   1.534  -0.084   8.530  1.0598  0.2465  0.0726
  222MOL0     C30518   1.385  -0.100   8.504 -0.1722 -0.2107  0.1673
  222MOL0     C30519   1.318   0.040   8.489  0.4671 -0.8000 -0.0975
  222MOL0     C30520   1.170   0.037   8.436  0.2308 -0.0381  0.1689
  222MOL0     C30521   1.115   0.162   8.366 -0.6662 -0.6343 -0.2054
  222MOL0     O30522   0.964   0.159   8.347 -0.3426  0.1210 -0.4855
  222MOL0     C30523   0.897   0.253   8.272  0.4177  1.4182 -0.1126
  222MOL0     C30524   0.767   0.227   8.229  0.3471 -0.3165  0.0905
  222MOL0     C30525   0.682   0.330   8.173  0.1525  0.3319 -0.2382
  222MOL0     C30526   0.540   0.292   8.129 -0.5151 -0.1640  0.5846
  222MOL0     C30527   0.735   0.457   8.146  0.1921  1.2662 -0.0209
  222MOL0     C30528   0.656   0.562   8.087  0.4014  0.3406 -0.4331
  222MOL0     O30529   0.580   0.535   7.970  0.0042 -0.3391  0.1134
  222MOL0     C30530   0.515   0.647   7.923  0.6092 -0.8157  0.2496
  222MOL0     C30531   0.562   0.733   7.824 -0.5532 -0.1767  0.1143
  222MOL0     C30532   0.488   0.841   7.770 -0.3142 -0.7200  0.7196
  222MOL0     C30533   0.362   0.874   7.824 -0.4380 -0.2040 -0.6949
  222MOL0     O30534   0.275   0.968   7.783  0.0687 -0.7020  0.2420
  222MOL0     C30535   0.295   1.031   7.656 -0.2899  0.6423  0.4232
  222MOL0     C30536   0.194   1.148   7.623  0.5616  0.4168 -0.2966
  222MOL0     C30537   0.230   1.232   7.507  0.3005 -0.1573 -0.6318
  222MOL0     C30538   0.263   1.141   7.385 -0.0691 -0.4306 -0.4413
  222MOL0     C30539   0.415   1.144   7.339 -0.1265  1.3452  0.0169
  222MOL0     C30540   0.462   1.102   7.196 -0.1820 -0.7224 -0.2801
  222MOL0     C30541   0.611   1.144   7.185 -0.0533  0.1503 -0.2660
  222MOL0     C30542   0.692   1.129   7.046  0.1325 -0.5147 -0.0888
  222MOL0    Cl30543   0.762   0.960   7.026  0.0550 -0.5162 -0.4522
  222MOL0     C30544   0.312   0.794   7.932  0.0200 -0.7067  0.5638
  222MOL0     C30545   0.389   0.689   7.981 -0.2474 -0.4344  0.5560
  222MOL0     O30546   0.670   0.673   8.141  0.1775 -0.5900  1.4581
  222MOL0     C30547   0.866   0.482   8.187 -0.6046  0.1748 -0.4260
  222MOL0     C30548   0.945   0.380   8.249  0.3386 -0.2706 -0.0834
  222MOL0     N30549   1.621  -0.038   8.438  0.6702  0.0647 -0.7489
  222MOL0     N30550   1.737  -0.024   8.490 -0.0324 -0.5710 -0.7796
  222MOL0     C30551   1.634  -0.224   9.771  0.2363  1.0643  1.1050
  222MOL0     C30552   1.525  -0.170   9.843 -0.4060 -0.8417 -0.4415
  222MOL0     C30553   1.118   0.076   9.795 -0.4028 -0.1047 -0.4381
  222MOL0     C30554   1.038  -0.036   9.763  0.1951 -0.2061 -0.0641
  222MOL0     C30555   0.901  -0.031   9.736  0.0826 -0.4987 -0.5501
  222MOL0     C30556   0.831   0.089   9.766  0.2692  0.7006 -0.4845
  222MOL0     O30557   0.698   0.092   9.731  0.6466 -0.0838 -0.1973
  222MOL0     C30558   0.608   0.150   9.835  0.4539  0.9388 -0.0388
  222MOL0     C30559   0.476   0.085   9.820  0.8646 -0.2267  0.0529
  222MOL0     C30560   0.379   0.161   9.913  0.4842  0.5882  0.1875
  222MOL0     C30561   0.345   0.095  10.051 -0.1981  0.1284  0.0571
  222MOL0     C30562   0.460   0.095  10.141  0.1453 -1.1327 -0.4507
  222MOL0     C30563   0.541   0.103  10.234 -0.1097  0.0147  0.2863
  222MOL0     C30564   0.901   0.207   9.792 -0.9713 -0.1086  0.3316
  222MOL0     C30565   1.040   0.196   9.812  0.3518 -0.0207 -0.4761
  222MOL0     C30566   1.114   0.327   9.845  0.7141 -0.2888  0.7075
  222MOL0     H30567   1.368  -0.021   9.575  1.0456  0.1635 -1.5423
  222MOL0     H30568   1.577  -0.094   9.464  1.5793 -0.4032  1.1347
  222MOL0     H30569   1.753  -0.127   9.399 -2.5939 -0.5037  1.2178
  222MOL0     H30570   1.711  -0.295   9.388  1.9019 -0.7463 -0.9244
  222MOL0     H30571   1.998  -0.203   9.444  0.5033  0.1384 -0.3856
  222MOL0     H30572   1.947  -0.369   9.424  1.5842  0.9967  0.9641
  222MOL0     H30573   1.967  -0.152   9.214 -0.4582  1.0279  1.8868
  222MOL0     H30574   2.038  -0.315   9.210  0.1285  0.3558 -1.2481
  222MOL0     H30575   1.806  -0.410   9.182  0.1657 -0.0396  2.2288
  222MOL0     H30576   1.740  -0.244   9.162 -0.0898  1.4744 -2.9369
  222MOL0     H30577   1.789  -0.362   8.950  2.1679  0.0799 -3.6066
  222MOL0     H30578   1.953  -0.355   8.992  1.7268  1.6949  3.3085
  222MOL0     H30579   1.779  -0.094   8.995 -2.2409 -2.5057 -0.1560
  222MOL0     H30580   1.950  -0.089   8.970 -1.3193  1.9416 -0.9789
  222MOL0     H30581   1.781  -0.230   8.772 -2.1374  2.6042 -3.1840
  222MOL0     H30582   1.951  -0.188   8.760  0.0952  0.4231 -0.7186
  222MOL0     H30583   1.760   0.053   8.795 -1.4770 -0.3113 -1.2102
  222MOL0     H30584   1.900   0.029   8.676  1.3202 -3.3689 -1.4632
  222MOL0     H30585   1.541  -0.085   8.747  0.7797 -1.9760  0.0001
  222MOL0     H30586   1.346  -0.159   8.588 -0.3108  1.6571  1.4721
  222MOL0     H30587   1.372  -0.156   8.411  2.3062 -0.1179 -0.3102
  222MOL0     H30588   1.314   0.079   8.591 -3.8780 -1.8218  0.3248
  222MOL0     H30589   1.381   0.109   8.432  0.4768 -0.9016 -0.2100
  222MOL0     H30590   1.147  -0.053   8.379 -2.3736  0.3719  0.4374
  222MOL0     H30591   1.119   0.030   8.533  0.5036 -1.3865  0.2333
  222MOL0     H30592   1.133   0.250   8.427 -3.7779  0.5074 -0.7827
  222MOL0     H30593   1.167   0.182   8.272  1.1132 -0.5915  0.7332
  222MOL0     H30594   0.730   0.127   8.247 -0.7690  0.0292 -0.1945
  222MOL0     H30595   0.528   0.261   8.025  1.2609  1.1930 -0.0889
  222MOL0     H30596   0.480   0.383   8.134 -0.5816 -0.2345  1.1025
  222MOL0     H30597   0.488   0.210   8.179 -2.8122  0.2281 -1.0340
  222MOL0     H30598   0.661   0.720   7.782 -1.4743 -0.2991 -2.1110
  222MOL0     H30599   0.536   0.908   7.700 -1.3843 -1.0711 -0.3887
  222MOL0     H30600   0.392   1.081   7.665 -0.7161  1.2864  1.9094
  222MOL0     H30601   0.308   0.953   7.581 -0.8292 -1.2285  2.1769
  222MOL0     H30602   0.090   1.115   7.637  0.1941  1.5118 -0.3280
  222MOL0     H30603   0.214   1.219   7.704  0.5098  0.9199 -0.7194
  222MOL0     H30604   0.311   1.301   7.532  1.2786 -1.6976  0.6453
  222MOL0     H30605   0.144   1.295   7.480 -0.1366  1.0957  3.0365
  222MOL0     H30606   0.212   1.189   7.301  1.4403 -0.3080 -1.3365
  222MOL0     H30607   0.219   1.042   7.401 -2.2817  0.4771 -0.6366
  222MOL0     H30608   0.441   1.250   7.339 -0.3893  1.4203  0.9426
  222MOL0     H30609   0.486   1.094   7.405  1.5557  2.4798 -0.8830
  222MOL0     H30610   0.406   1.163   7.126  0.2586  1.2617  0.9964
  222MOL0     H30611   0.457   0.996   7.171 -0.7909 -0.4762 -1.2551
  222MOL0     H30612   0.665   1.100   7.269 -2.4761 -2.5424  0.0434
  222MOL0     H30613   0.616   1.253   7.197  0.0030  0.3054 -1.5392
  222MOL0     H30614   0.771   1.204   7.056 -0.2668 -0.0821 -0.1569
  222MOL0     H30615   0.626   1.147   6.961 -0.4599 -4.8453 -0.7727
  222MOL0     H30616   0.208   0.806   7.962 -0.4283  1.2330 -1.5216
  222MOL0     H30617   0.346   0.628   8.059 -0.0692 -1.8295 -0.3943
  222MOL0     H30618   0.906   0.578   8.156  0.4031 -0.7301 -2.0819
  222MOL0     H30619   1.047   0.411   8.269 -0.1759 -0.2288  2.9715
  222MOL0     H30620   1.704  -0.283   9.830 -0.5226 -0.1899  0.7838
  222MOL0     H30621   1.494  -0.209   9.940 -0.5937 -0.1797 -0.2309
  222MOL0     H30622   1.069  -0.140   9.763  2.3295  0.3764  0.8089
  222MOL0     H30623   0.831  -0.114   9.737  0.6911 -1.0171 -0.0477
  222MOL0     H30624   0.643   0.141   9.938  1.8883 -2.0003 -0.7082
  222MOL0     H30625   0.614   0.257   9.812  2.0375  0.4249 -2.3079
  222MOL0     H30626   0.474  -0.015   9.864  0.1286 -0.5848 -0.7758
  222MOL0     H30627   0.454   0.089   9.713  1.7930  2.1962 -0.1151
  222MOL0     H30628   0.418   0.261   9.932 -2.5774  1.5907  1.9316
  222MOL0     H30629   0.285   0.164   9.857  0.8253  1.6201 -0.3684
  222MOL0     H30630   0.326  -0.010  10.027 -0.1240  0.6711 -2.6591
  222MOL0     H30631   0.253   0.140  10.090  0.2509  0.0815  1.2169
  222MOL0     H30632   0.626   0.100  10.299  0.4806 -1.5726 -0.4922
  222MOL0     H30633   0.844   0.297   9.812 -1.3653 -0.5096  1.0820
  222MOL0     H30634   1.177   0.361   9.763 -1.1681  0.6756 -0.4086
  222MOL0     H30635   1.041   0.402   9.878 -0.3713  0.4574 -2.9719
  222MOL0     H30636   1.191   0.308   9.921  2.6618 -1.5836 -1.4693
  223MOL0     O30637   7.092  10.676   0.903  0.2386 -0.6262  0.1456
  223MOL0     C30638   7.196  10.630   0.943 -0.8879 -0.2504 -1.2114
  223MOL0     O30639   7.220  10.616   1.076 -0.2884  0.1813  0.0332
  223MOL0     C30640   7.151  10.702   1.157  0.4353  0.5983 -0.4218
  223MOL0     C30641   7.009  10.687   1.180  1.0815 -0.2101  0.6964
  223MOL0     C30642   6.933  10.776   1.252  0.1466 -0.5369 -0.7959
  223MOL0     C30643   7.001  10.887   1.310  0.3491  1.1309  0.6870
  223MOL0     O30644   6.914  10.965   1.383 -0.2142  0.3912  0.0682
  223MOL0     C30645   6.948  11.103   1.395  0.8336  0.5137 -0.3482
  223MOL0     C30646   6.837  11.180   1.471 -0.1898  0.0219 -0.1530
  223MOL0     C30647   6.685  11.144   1.439 -0.6968 -0.6402 -0.2450
  223MOL0     C30648   6.654  11.162   1.300 -0.9323  0.9139 -0.0298
  223MOL0     C30649   6.505  11.145   1.273 -0.3803 -0.3053 -0.3292
  223MOL0     C30650   6.437  11.016   1.328 -0.5460 -0.4743  0.4738
  223MOL0     C30651   6.285  11.026   1.296 -0.3076 -0.0734 -0.3901
  223MOL0     C30652   6.223  10.886   1.279 -0.5875 -0.2831 -0.3708
  223MOL0     N30653   6.262  10.796   1.394 -0.2636  0.0635 -1.3556
  223MOL0     C30654   6.339  10.682   1.397 -1.1826 -0.5218 -0.2289
  223MOL0     C30655   6.342  10.646   1.535  0.7692  0.7872  0.0672
  223MOL0     C30656   6.392  10.516   1.588  0.2357  0.6130 -0.7190
  223MOL0     C30657   6.543  10.507   1.583 -0.1889 -0.1440 -0.4946
  223MOL0     C30658   6.607  10.370   1.614  0.3624  0.2939 -0.3807
  223MOL0     C30659   6.766  10.373   1.618 -0.3488 -0.1350  0.9226
  223MOL0     O30660   6.816  10.323   1.738 -0.1579 -0.1359 -0.2595
  223MOL0     C30661   6.946  10.291   1.752  0.1735  0.6347 -0.2706
  223MOL0     C30662   6.990  10.253   1.874  0.2646  0.2911  0.3331
  223MOL0     C30663   7.126  10.221   1.903  1.0927 -0.4294 -0.1241
  223MOL0     C30664   7.152  10.175   2.042  0.0796  0.2385  0.0724
  223MOL0     C30665   7.218  10.233   1.802  0.8425  0.4090 -0.1719
  223MOL0     C30666   7.364  10.230   1.821  0.3097 -0.4526  0.4542
  223MOL0     O30667   7.436  10.253   1.706 -0.0986  0.2303  0.0187
  223MOL0     C30668   7.570  10.234   1.722  0.4627 -0.0344  0.7421
  223MOL0     C30669   7.648  10.313   1.807 -0.6137  1.0267  0.8449
  223MOL0     C30670   7.786  10.299   1.803  0.4973 -0.7942 -0.0773
  223MOL0     C30671   7.842  10.210   1.713  0.2074 -0.9936  0.1381
  223MOL0     O30672   7.977  10.192   1.700 -0.1531 -0.0659  0.0766
  223MOL0     C30673   8.068  10.283   1.761 -0.5696 -0.7203 -0.5133
  223MOL0     C30674   8.209  10.232   1.735  0.4324  0.5446 -0.9437
  223MOL0     C30675   8.229  10.101   1.812  0.2146 -0.4607 -0.9807
  223MOL0     C30676   8.322  10.002   1.747  0.7546  0.4014  0.2511
  223MOL0     C30677   8.459  10.063   1.741  0.3211  0.0722 -1.0008
  223MOL0     C30678   8.546  10.003   1.637 -0.2787  0.2236 -0.4279
  223MOL0     C30679   8.486  10.040   1.495 -0.2364 -0.1766  0.3153
  223MOL0     C30680   8.453   9.902   1.430 -0.6315 -0.8219  0.1323
  223MOL0    Cl30681   8.422   9.947   1.258  0.3223 -0.0175  0.0267
  223MOL0     C30682   7.768  10.121   1.642 -0.2324 -0.9036  0.5681
  223MOL0     C30683   7.633  10.140   1.630  0.8959  0.4038  0.4729
  223MOL0     O30684   7.413  10.212   1.932  0.0611  0.8534  0.1574
  223MOL0     C30685   7.165  10.253   1.676  0.6664  1.1532  0.3167
  223MOL0     C30686   7.033  10.283   1.651 -0.1629 -0.3825  0.3345
  223MOL0     N30687   6.267  10.746   1.604 -1.0166  0.4118 -0.0513
  223MOL0     N30688   6.218  10.823   1.520 -0.1780  0.5776 -0.1703
  223MOL0     C30689   7.133  10.911   1.279 -0.0213 -0.3152  0.2001
  223MOL0     C30690   7.212  10.812   1.210  0.5696  0.0560 -0.9437
  223MOL0     C30691   7.284  10.556   0.855  0.1490  0.3002  0.5114
  223MOL0     C30692   7.411  10.515   0.901 -0.9394  0.3066  0.2077
  223MOL0     C30693   7.505  10.466   0.806 -0.6262 -0.4543  0.0290
  223MOL0     C30694   7.479  10.446   0.669  0.0347 -0.4320  0.1663
  223MOL0     O30695   7.570  10.409   0.573  0.7208  0.1823 -0.8307
  223MOL0     C30696   7.686  10.333   0.606 -0.5525  0.4918 -0.2930
  223MOL0     C30697   7.666  10.188   0.630 -0.3122 -1.3824  0.8310
  223MOL0     C30698   7.795  10.127   0.644  0.2954  0.4281 -0.2181
  223MOL0     C30699   7.790   9.981   0.680 -0.0759  0.0211 -0.0735
  223MOL0     C30700   7.924   9.919   0.664 -0.0611 -0.5202  0.6716
  223MOL0     C30701   8.040   9.888   0.649  0.0102  0.1073  0.4417
  223MOL0     C30702   7.351  10.481   0.629  0.4547 -0.2374  0.7654
  223MOL0     C30703   7.256  10.540   0.715  0.4949 -0.4376  0.8315
  223MOL0     C30704   7.125  10.575   0.643 -0.5208  0.0421 -0.3545
  223MOL0     H30705   6.969  10.604   1.123  1.4102 -0.2688  0.5463
  223MOL0     H30706   6.826  10.762   1.255  0.0628  0.2214  0.4195
  223MOL0     H30707   6.967  11.141   1.294 -1.4444 -0.7447 -1.3389
  223MOL0     H30708   7.041  11.117   1.451 -0.8916 -0.6389  3.0691
  223MOL0     H30709   6.841  11.163   1.579 -1.5920  1.6901  0.2090
  223MOL0     H30710   6.843  11.287   1.449 -1.5480  0.0853 -0.2992
  223MOL0     H30711   6.687  11.037   1.457 -0.7542 -0.7677 -0.9648
  223MOL0     H30712   6.618  11.199   1.506  1.0959  1.4649 -0.0346
  223MOL0     H30713   6.682  11.264   1.273 -0.9851  0.5075 -1.7011
  223MOL0     H30714   6.707  11.102   1.226 -1.3878 -0.2246  0.5359
  223MOL0     H30715   6.480  11.163   1.168 -1.5028 -3.2443 -0.6671
  223MOL0     H30716   6.457  11.227   1.327 -1.1207 -1.1752  0.3651
  223MOL0     H30717   6.479  10.928   1.279 -0.3884 -0.9552  1.4407
  223MOL0     H30718   6.458  11.017   1.435  0.1661  3.9528  0.4930
  223MOL0     H30719   6.263  11.085   1.207 -0.5950 -0.3525 -0.5080
  223MOL0     H30720   6.241  11.083   1.378 -0.4460 -0.3145 -0.2958
  223MOL0     H30721   6.114  10.893   1.279 -0.7621  0.8453 -5.5674
  223MOL0     H30722   6.265  10.847   1.186 -0.7748 -0.4884 -0.3717
  223MOL0     H30723   6.375  10.625   1.312  1.4747  2.3778 -1.2130
  223MOL0     H30724   6.349  10.435   1.528  0.6153  0.0383 -0.2275
  223MOL0     H30725   6.360  10.510   1.692  0.9929 -2.3893 -0.5696
  223MOL0     H30726   6.584  10.539   1.487  0.3721  2.7842  0.5954
  223MOL0     H30727   6.581  10.579   1.656 -1.2509  0.9359 -0.9723
  223MOL0     H30728   6.574  10.349   1.716 -4.1267  0.9503 -1.4827
  223MOL0     H30729   6.583  10.288   1.546 -1.0563  1.5471 -1.4636
  223MOL0     H30730   6.799  10.310   1.535  1.6608 -1.0683  2.3396
  223MOL0     H30731   6.799  10.474   1.594  0.9193 -0.3698  1.5962
  223MOL0     H30732   6.924  10.260   1.961 -2.7430  2.7271 -1.9044
  223MOL0     H30733   7.192  10.251   2.110  1.9191 -1.2342  0.7317
  223MOL0     H30734   7.227  10.096   2.034  0.6590  0.7509  0.3115
  223MOL0     H30735   7.062  10.132   2.087  1.0277 -1.4964  0.3791
  223MOL0     H30736   7.593  10.368   1.883 -0.5475  2.0595  0.1545
  223MOL0     H30737   7.848  10.363   1.865 -1.6054  3.8011 -2.2362
  223MOL0     H30738   8.058  10.388   1.734 -0.5402  0.1971  2.6861
  223MOL0     H30739   8.056  10.288   1.870  1.9015 -1.4071 -0.1603
  223MOL0     H30740   8.233  10.208   1.631  1.9099 -3.6687  0.1403
  223MOL0     H30741   8.269  10.317   1.767 -2.1528  2.3635 -0.6065
  223MOL0     H30742   8.134  10.047   1.818  1.4578 -2.6321  0.5173
  223MOL0     H30743   8.257  10.129   1.914 -4.3438 -3.7355  1.5439
  223MOL0     H30744   8.285   9.979   1.647  0.2143  2.9456 -0.2127
  223MOL0     H30745   8.327   9.910   1.805  2.6178 -0.4274 -1.1426
  223MOL0     H30746   8.446  10.168   1.711  1.2320 -0.5318 -3.7369
  223MOL0     H30747   8.512  10.056   1.836 -2.7524 -2.5648  0.7157
  223MOL0     H30748   8.566   9.898   1.662 -1.4978 -0.6107 -2.6783
  223MOL0     H30749   8.648  10.044   1.643  0.6408 -2.0547  0.6243
  223MOL0     H30750   8.566  10.097   1.446 -0.0589 -0.0705  0.7231
  223MOL0     H30751   8.403  10.111   1.502  2.6322  3.4210  1.1038
  223MOL0     H30752   8.363   9.861   1.476 -4.1385  3.1077 -2.4502
  223MOL0     H30753   8.546   9.845   1.426  1.0233  1.6890  0.5092
  223MOL0     H30754   7.820  10.034   1.604  0.3101  0.0952 -1.0723
  223MOL0     H30755   7.572  10.078   1.566 -1.1847 -0.0533  2.7469
  223MOL0     H30756   7.226  10.239   1.587  0.0596  0.1399  0.0395
  223MOL0     H30757   7.005  10.301   1.548 -0.4989  0.8427  0.6186
  223MOL0     H30758   7.186  11.000   1.311 -2.2551  1.0306  0.3693
  223MOL0     H30759   7.318  10.827   1.188  0.5364  0.1529 -1.0370
  223MOL0     H30760   7.442  10.534   1.003 -0.0167 -3.7800  0.8582
  223MOL0     H30761   7.603  10.441   0.844 -0.9989 -2.4810 -0.2500
  223MOL0     H30762   7.757  10.341   0.523 -2.9135  0.3568 -2.4327
  223MOL0     H30763   7.735  10.358   0.701 -0.5451 -4.5136  1.3151
  223MOL0     H30764   7.602  10.152   0.549  1.7574 -0.7638 -1.1820
  223MOL0     H30765   7.608  10.186   0.723 -2.2370  2.8873 -0.0108
  223MOL0     H30766   7.841  10.129   0.545 -1.1402 -1.0463 -0.9816
  223MOL0     H30767   7.859  10.178   0.715  2.7627  0.1317 -2.0980
  223MOL0     H30768   7.733   9.925   0.606  1.4149 -1.8510  0.1159
  223MOL0     H30769   7.750   9.958   0.780 -0.8509  0.1403 -0.3492
  223MOL0     H30770   8.142   9.859   0.636 -0.4773 -2.5004  1.7575
  223MOL0     H30771   7.318  10.487   0.526  0.3665  1.0249  0.8481
  223MOL0     H30772   7.108  10.683   0.631  1.5476  0.8504  2.6925
  223MOL0     H30773   7.122  10.521   0.548  3.9951 -1.2342  0.0044
  223MOL0     H30774   7.040  10.541   0.703 -0.7948  1.6522  0.2274
  224MOL0     O30775  10.015   1.018   9.090 -0.0338  0.8916 -0.6733
  224MOL0     C30776   9.932   0.941   9.142 -0.5576 -0.4396  0.5967
  224MOL0     O30777   9.826   0.988   9.214  0.1955  0.3280 -0.6115
  224MOL0     C30778   9.765   1.108   9.181  0.8413 -1.3141 -0.0880
  224MOL0     C30779   9.801   1.211   9.087  0.0756  0.3895  0.3661
  224MOL0     C30780   9.725   1.322   9.086  0.4179 -0.1883 -0.2286
  224MOL0     C30781   9.612   1.340   9.163 -0.1195  1.0890 -0.2328
  224MOL0     O30782   9.539   1.457   9.144 -0.7477  0.2267 -0.3357
  224MOL0     C30783   9.426   1.438   9.064 -0.5278  0.9414 -0.6094
  224MOL0     C30784   9.309   1.524   9.116 -0.4114 -0.7339 -0.3780
  224MOL0     C30785   9.337   1.675   9.120  0.4617 -0.5160 -0.3356
  224MOL0     C30786   9.210   1.748   9.144 -0.0575  0.0003  0.6941
  224MOL0     C30787   9.254   1.890   9.182 -0.1859 -0.1395  1.2534
  224MOL0     C30788   9.150   1.990   9.129  0.2269  0.1252  0.6509
  224MOL0     C30789   9.176   2.129   9.181  0.0907  0.1579  0.2411
  224MOL0     C30790   9.145   2.128   9.331 -0.4469  0.1546  0.2258
  224MOL0     N30791   9.091   2.255   9.364 -0.0639  0.2250 -0.3016
  224MOL0     C30792   9.160   2.376   9.367 -0.6121 -0.1609 -0.9000
  224MOL0     C30793   9.070   2.475   9.364 -0.3562 -0.6995 -0.1374
  224MOL0     C30794   9.083   2.629   9.376  0.2339 -0.5678 -0.0880
  224MOL0     C30795   9.125   2.661   9.521  0.4040 -0.6359 -0.0337
  224MOL0     C30796   9.084   2.807   9.537  0.0182 -0.0095  0.0409
  224MOL0     C30797   9.093   2.836   9.686  0.0611 -1.1301 -0.6272
  224MOL0     O30798   9.042   2.971   9.720 -0.7056 -0.8011  0.2050
  224MOL0     C30799   9.112   3.085   9.692  0.5196 -0.4335  1.6019
  224MOL0     C30800   9.044   3.211   9.673 -0.2441 -0.8308 -0.9347
  224MOL0     C30801   9.118   3.327   9.653  0.9817  0.2754  1.2626
  224MOL0     C30802   9.045   3.454   9.614  0.5003 -0.5380 -0.0792
  224MOL0     C30803   9.264   3.331   9.671  0.4989 -0.6325  0.5459
  224MOL0     C30804   9.356   3.450   9.653  0.4007 -0.1364 -0.6279
  224MOL0     O30805   9.468   3.444   9.732 -0.0461 -0.0918  0.3942
  224MOL0     C30806   9.574   3.528   9.695 -0.3780 -0.3401  0.6385
  224MOL0     C30807   9.633   3.516   9.570  0.4541  0.3619  0.3081
  224MOL0     C30808   9.741   3.595   9.534  0.7125 -0.1595 -0.3653
  224MOL0     C30809   9.786   3.690   9.622 -0.4433  0.4839  0.7762
  224MOL0     O30810   9.887   3.784   9.600  0.4185 -0.1482 -0.2211
  224MOL0     C30811   9.955   3.781   9.476  0.1719  0.1411  0.1202
  224MOL0     C30812  10.045   3.908   9.454  0.9880  0.1619 -0.5552
  224MOL0     C30813  10.084   3.937   9.304 -0.0546 -0.2973  0.0280
  224MOL0     C30814  10.142   4.077   9.303 -0.7211  0.3876  0.3573
  224MOL0     C30815  10.207   4.121   9.161  0.4744  0.8222 -0.9443
  224MOL0     C30816  10.100   4.089   9.050 -0.8088 -0.1860  1.2947
  224MOL0     C30817  10.158   4.179   8.931  0.6708  0.6429 -1.0313
  224MOL0     C30818  10.052   4.171   8.813  0.3263 -0.2530 -0.0555
  224MOL0    Cl30819  10.134   4.256   8.680 -0.2943  0.2858  0.0677
  224MOL0     C30820   9.727   3.694   9.754 -0.6041 -0.8091 -0.5515
  224MOL0     C30821   9.621   3.613   9.788 -1.2265 -0.1591 -0.2581
  224MOL0     O30822   9.328   3.533   9.566 -0.7650  0.5197 -0.1272
  224MOL0     C30823   9.326   3.208   9.702 -0.7493 -0.1263 -0.9625
  224MOL0     C30824   9.251   3.089   9.716  1.1129  0.5664  0.3102
  224MOL0     N30825   8.944   2.412   9.366  0.6413  0.0087 -0.0658
  224MOL0     N30826   8.956   2.281   9.361 -0.3508  0.2417  0.1224
  224MOL0     C30827   9.567   1.239   9.252 -0.1133  1.3591  0.0071
  224MOL0     C30828   9.648   1.126   9.256 -0.5360  0.8955  0.5790
  224MOL0     C30829   9.972   0.802   9.153  0.5165  0.6697 -0.2158
  224MOL0     C30830  10.038   0.765   9.267 -0.0789 -0.3480  0.7310
  224MOL0     C30831  10.096   0.641   9.280 -0.3495 -0.6954 -0.5451
  224MOL0     C30832  10.085   0.545   9.186 -0.2497  0.1177  0.3263
  224MOL0     O30833  10.135   0.412   9.208 -0.4191 -0.3873 -0.2588
  224MOL0     C30834  10.084   0.295   9.151 -0.2123 -0.4735  0.0417
  224MOL0     C30835  10.132   0.158   9.201 -0.4936  0.3072 -0.6466
  224MOL0     C30836  10.139   0.040   9.091  0.3548 -0.3729  0.9525
  224MOL0     C30837  10.006  -0.001   9.022  1.2535 -1.3655  0.4620
  224MOL0     C30838  10.025  -0.054   8.886  0.2403 -0.2709 -0.2352
  224MOL0     C30839  10.059  -0.090   8.777  0.1548 -0.5913  0.3218
  224MOL0     C30840  10.013   0.577   9.071 -0.1167  0.6676 -0.5121
  224MOL0     C30841   9.958   0.701   9.049 -0.3275  0.4186  0.3895
  224MOL0     C30842   9.898   0.738   8.919  0.0052 -0.2077 -0.6173
  224MOL0     H30843   9.887   1.204   9.022 -0.3828  0.7549 -0.2871
  224MOL0     H30844   9.762   1.388   9.009  1.1092 -0.1677  0.1212
  224MOL0     H30845   9.390   1.335   9.068 -1.2946  1.2448  1.0849
  224MOL0     H30846   9.460   1.476   8.967  2.6524  0.0820  0.0248
  224MOL0     H30847   9.218   1.499   9.061 -0.4040 -0.6441 -0.4296
  224MOL0     H30848   9.287   1.494   9.219  0.2157 -1.2992 -0.3992
  224MOL0     H30849   9.402   1.704   9.203 -1.0109 -1.6974  1.2880
  224MOL0     H30850   9.375   1.715   9.025  0.1093  0.3136 -0.1312
  224MOL0     H30851   9.168   1.747   9.043 -0.9226  0.7479  1.0335
  224MOL0     H30852   9.146   1.699   9.217 -1.9446  2.6672  0.9907
  224MOL0     H30853   9.352   1.911   9.138 -0.0028 -1.2404  1.1003
  224MOL0     H30854   9.279   1.900   9.288 -2.5443  1.5526  1.7215
  224MOL0     H30855   9.154   1.986   9.020 -0.4884 -0.5332  0.6409
  224MOL0     H30856   9.048   1.970   9.162 -0.9054  3.3210 -0.5503
  224MOL0     H30857   9.111   2.206   9.138  0.9127  1.3966  1.1107
  224MOL0     H30858   9.280   2.162   9.164 -0.2389  0.4518 -1.4180
  224MOL0     H30859   9.076   2.060   9.382 -0.6673  1.4326  1.7218
  224MOL0     H30860   9.240   2.114   9.385  0.4693  0.7750 -1.1820
  224MOL0     H30861   9.267   2.384   9.380 -0.8583  2.2328  0.2214
  224MOL0     H30862   8.985   2.674   9.356  0.1901  0.0700  1.3845
  224MOL0     H30863   9.151   2.661   9.297 -1.1404  4.1031  0.2819
  224MOL0     H30864   9.073   2.605   9.599 -0.6550  1.5449  0.9259
  224MOL0     H30865   9.226   2.628   9.545  0.8263  0.9516  0.4678
  224MOL0     H30866   9.141   2.881   9.480 -3.1391  4.7878  2.4246
  224MOL0     H30867   8.982   2.835   9.509 -0.4098  1.0810  2.4212
  224MOL0     H30868   9.028   2.765   9.739 -1.3094 -1.0862 -2.1700
  224MOL0     H30869   9.195   2.811   9.719 -0.1109 -0.6322  0.3231
  224MOL0     H30870   8.935   3.211   9.665 -0.8579 -1.4242  3.8982
  224MOL0     H30871   8.937   3.442   9.626  0.1526 -0.2899 -2.4177
  224MOL0     H30872   9.056   3.480   9.508 -0.3266 -1.2226 -0.3486
  224MOL0     H30873   9.072   3.539   9.677 -1.5330  2.6449 -3.1337
  224MOL0     H30874   9.600   3.438   9.502  0.5050 -2.8512  3.6523
  224MOL0     H30875   9.774   3.595   9.431 -0.8748  0.1103 -0.9014
  224MOL0     H30876  10.007   3.685   9.467 -0.6142 -0.4085  1.1628
  224MOL0     H30877   9.886   3.777   9.391  0.5680 -1.9806 -0.1495
  224MOL0     H30878   9.994   3.999   9.485  0.3823 -0.1367 -0.6671
  224MOL0     H30879  10.132   3.888   9.519  1.3485 -0.2823 -1.1630
  224MOL0     H30880   9.991   3.931   9.247 -0.1226  0.9286 -0.0025
  224MOL0     H30881  10.151   3.865   9.256  0.5532  1.4989 -1.9331
  224MOL0     H30882  10.229   4.079   9.368  1.3592 -1.0906 -2.1885
  224MOL0     H30883  10.080   4.157   9.344  0.1268  1.2456  0.0068
  224MOL0     H30884  10.228   4.228   9.169  2.6574  0.3367  0.9290
  224MOL0     H30885  10.303   4.071   9.151  0.7098  1.6360 -3.2728
  224MOL0     H30886   9.999   4.119   9.078 -0.3725  1.1041  1.5856
  224MOL0     H30887  10.106   3.983   9.023 -1.1751  0.1092 -0.0389
  224MOL0     H30888  10.254   4.143   8.894  0.2055  1.6721 -3.3790
  224MOL0     H30889  10.165   4.283   8.965 -0.7047  0.4379  0.0009
  224MOL0     H30890   9.958   4.218   8.845 -0.3205 -1.2606 -0.4164
  224MOL0     H30891  10.027   4.073   8.771  0.6787  0.3461 -1.7258
  224MOL0     H30892   9.770   3.766   9.823 -3.8182  1.1090 -0.3504
  224MOL0     H30893   9.580   3.619   9.888 -2.4664 -1.3756 -0.6677
  224MOL0     H30894   9.433   3.192   9.699 -0.4993  1.4720 -1.4124
  224MOL0     H30895   9.303   2.999   9.748  0.0815 -0.3067 -0.3858
  224MOL0     H30896   9.472   1.246   9.306 -1.4845  2.2840 -2.3915
  224MOL0     H30897   9.625   1.045   9.325  2.0339  0.7576  1.3803
  224MOL0     H30898  10.056   0.833   9.350  4.6742 -0.4883  0.1372
  224MOL0     H30899  10.152   0.620   9.371 -0.6845  1.8168  0.3039
  224MOL0     H30900   9.976   0.299   9.170 -0.4203 -1.6519 -0.7778
  224MOL0     H30901  10.096   0.287   9.042  0.1152 -1.4950  0.1440
  224MOL0     H30902  10.059   0.120   9.273 -1.8051  0.2910 -1.9362
  224MOL0     H30903  10.234   0.155   9.240 -1.0939  1.4739  1.1503
  224MOL0     H30904  10.197   0.078   9.006 -3.8476 -0.9902 -2.4953
  224MOL0     H30905  10.185  -0.048   9.138 -2.1168 -2.5760 -0.4852
  224MOL0     H30906   9.935   0.081   9.009  0.2592 -2.1964  0.5675
  224MOL0     H30907   9.952  -0.078   9.078  0.9375 -1.7341 -0.3338
  224MOL0     H30908  10.078  -0.115   8.675 -4.2853  2.7130 -1.6276
  224MOL0     H30909   9.991   0.498   9.000 -1.0381 -0.7159  1.2257
  224MOL0     H30910   9.862   0.841   8.917 -0.8079 -0.4147  1.4627
  224MOL0     H30911   9.976   0.715   8.846  1.9989  1.2159  0.9777
  224MOL0     H30912   9.800   0.693   8.897  0.0307  0.4308 -2.1516
  225MOL0     O30913   7.510   1.521  10.599 -0.0225 -0.6382 -0.1608
  225MOL0     C30914   7.617   1.486  10.649  0.3625  0.0536 -0.4598
  225MOL0     O30915   7.617   1.441  10.775  0.0450  0.3718  0.2641
  225MOL0     C30916   7.502   1.442  10.854 -0.2567 -0.9971 -0.1905
  225MOL0     C30917   7.440   1.567  10.892  0.0711  0.5207 -0.1685
  225MOL0     C30918   7.327   1.567  10.979  0.2171  0.0794 -0.0977
  225MOL0     C30919   7.264   1.452  11.032  0.3604  0.7969  0.8485
  225MOL0     O30920   7.168   1.462  11.128 -0.6082 -0.2712  0.8933
  225MOL0     C30921   7.173   1.363  11.220  0.3787  0.6257  0.1782
  225MOL0     C30922   7.132   1.422  11.355 -0.5880 -0.2542 -0.3993
  225MOL0     C30923   7.119   1.313  11.458 -0.4716 -0.2901  0.0329
  225MOL0     C30924   6.986   1.255  11.454  0.0040 -0.1837  1.2702
  225MOL0     C30925   6.959   1.176  11.577  0.3717  0.7250  0.1743
  225MOL0     C30926   7.050   1.040  11.585  0.6630 -0.2268 -0.3075
  225MOL0     C30927   7.176   1.060  11.681 -0.4636 -1.0559  0.7036
  225MOL0     C30928   7.191   0.956  11.792  0.5335  0.0317 -0.7415
  225MOL0     N30929   7.235   0.826  11.760 -0.1663  0.3667  0.7408
  225MOL0     C30930   7.147   0.739  11.701  0.4114  0.3513  1.0162
  225MOL0     C30931   7.208   0.658  11.619 -0.3413  0.2166  0.8687
  225MOL0     C30932   7.146   0.552  11.532  0.1564  0.0247  0.8340
  225MOL0     C30933   7.235   0.432  11.493  0.0922  0.0287  0.3379
  225MOL0     C30934   7.150   0.316  11.437 -0.5598  0.0012 -0.4868
  225MOL0     C30935   7.221   0.181  11.400  0.2507 -0.1980 -0.8841
  225MOL0     O30936   7.340   0.204  11.328  0.1976  0.3058  0.1197
  225MOL0     C30937   7.400   0.089  11.278 -0.2162 -0.8062 -0.7124
  225MOL0     C30938   7.497   0.097  11.182 -0.4811 -0.3216  0.0322
  225MOL0     C30939   7.565  -0.013  11.125 -0.5229 -0.2114 -0.3816
  225MOL0     C30940   7.666   0.009  11.015 -0.4681  0.7127  0.2880
  225MOL0     C30941   7.550  -0.141  11.187 -0.7463  0.4034  0.1278
  225MOL0     C30942   7.615  -0.267  11.146 -0.4978 -0.2086  0.2531
  225MOL0     O30943   7.578  -0.378  11.218 -0.6955 -0.0020  0.6952
  225MOL0     C30944   7.571  -0.500  11.165  1.3565 -0.1660  0.3745
  225MOL0     C30945   7.491  -0.524  11.050 -0.4348  0.4535 -0.3163
  225MOL0     C30946   7.463  -0.650  10.996  0.5263  0.8518 -0.9160
  225MOL0     C30947   7.502  -0.771  11.068 -0.8478 -0.0243 -0.4528
  225MOL0     O30948   7.472  -0.893  11.023  0.4497  0.3184 -0.3031
  225MOL0     C30949   7.556  -1.002  11.048 -0.8341  0.4504 -0.6281
  225MOL0     C30950   7.518  -1.130  10.976  0.0973 -0.0726 -0.8562
  225MOL0     C30951   7.378  -1.198  11.021 -0.9433  0.7037 -0.2199
  225MOL0     C30952   7.324  -1.286  10.900 -0.5838  0.5572 -1.0899
  225MOL0     C30953   7.183  -1.324  10.929 -0.2927  0.4115  0.1305
  225MOL0     C30954   7.169  -1.439  11.028  0.0707  0.6852 -0.4861
  225MOL0     C30955   7.024  -1.455  11.056  0.3902 -0.2673 -0.5534
  225MOL0     C30956   6.996  -1.585  11.138  0.0798  0.8050 -0.5110
  225MOL0    Cl30957   7.102  -1.594  11.274 -0.1300  0.1049  0.8642
  225MOL0     C30958   7.580  -0.755  11.190 -0.0959 -0.4216  0.8141
  225MOL0     C30959   7.616  -0.621  11.228 -0.5413 -0.3829  0.1295
  225MOL0     O30960   7.679  -0.270  11.050 -0.7567 -0.7990 -0.2746
  225MOL0     C30961   7.446  -0.146  11.279  0.2535 -0.4044 -0.2889
  225MOL0     C30962   7.362  -0.043  11.317 -0.3150  0.9581 -0.5638
  225MOL0     N30963   7.341   0.693  11.631  0.7178  0.5700 -0.0525
  225MOL0     N30964   7.362   0.798  11.713  0.4700  0.0128  0.5704
  225MOL0     C30965   7.308   1.330  10.967 -0.0541  0.7132  0.6536
  225MOL0     C30966   7.424   1.330  10.887 -0.2338  0.1646  0.4374
  225MOL0     C30967   7.742   1.489  10.576 -0.5837 -0.8634  0.0502
  225MOL0     C30968   7.870   1.503  10.648  0.2359 -0.0980  0.2970
  225MOL0     C30969   7.992   1.517  10.585  0.6503 -0.3312 -0.0684
  225MOL0     C30970   7.999   1.527  10.446 -0.5005  0.5605  0.2280
  225MOL0     O30971   8.109   1.553  10.363  1.0789  0.7668  0.2801
  225MOL0     C30972   8.231   1.569  10.427  0.6804  0.9911 -0.0310
  225MOL0     C30973   8.339   1.591  10.323 -0.1340 -0.5355  0.2954
  225MOL0     C30974   8.377   1.462  10.245  0.2016  0.2843  1.0920
  225MOL0     C30975   8.450   1.483  10.117 -0.3664 -0.4341 -1.1708
  225MOL0     C30976   8.504   1.361  10.067  0.6159 -0.2449 -0.7098
  225MOL0     C30977   8.574   1.284  10.012  0.4353  0.4682  0.4153
  225MOL0     C30978   7.882   1.507  10.379 -0.5242  0.0593  0.1064
  225MOL0     C30979   7.749   1.494  10.434 -0.1861  0.6761  0.1492
  225MOL0     C30980   7.628   1.487  10.345  0.1506 -0.0709 -0.5400
  225MOL0     H30981   7.485   1.644  10.831  3.9340 -1.0819  0.4101
  225MOL0     H30982   7.281   1.661  11.008  0.5042 -0.7222  3.3643
  225MOL0     H30983   7.268   1.311  11.229 -0.1893 -1.0654 -2.2754
  225MOL0     H30984   7.105   1.280  11.196  0.3035  1.0343 -1.0956
  225MOL0     H30985   7.214   1.489  11.384 -0.7639 -0.7412  1.3161
  225MOL0     H30986   7.050   1.494  11.342 -0.1377  0.1005 -1.3743
  225MOL0     H30987   7.190   1.234  11.434  0.1594  0.4184 -0.4855
  225MOL0     H30988   7.131   1.364  11.554 -2.9887 -2.3900  1.6166
  225MOL0     H30989   6.909   1.331  11.437  2.1204  1.7761 -0.3477
  225MOL0     H30990   6.977   1.197  11.362 -1.1627 -0.9834  1.8692
  225MOL0     H30991   6.852   1.152  11.575  0.7719 -1.9645  2.8621
  225MOL0     H30992   6.975   1.232  11.670 -3.9542  0.0292  1.5660
  225MOL0     H30993   6.985   0.968  11.636  0.8033  0.1552  0.4206
  225MOL0     H30994   7.079   1.001  11.486  2.2909  0.6852 -0.2273
  225MOL0     H30995   7.156   1.147  11.744 -1.2276 -1.9874  1.7936
  225MOL0     H30996   7.265   1.072  11.619 -1.9864 -2.8583 -2.0352
  225MOL0     H30997   7.272   0.993  11.856 -0.5351  0.9194  0.1282
  225MOL0     H30998   7.102   0.953  11.855  0.5664 -2.1215 -0.7463
  225MOL0     H30999   7.041   0.730  11.722  0.5977 -3.3268  1.1383
  225MOL0     H31000   7.111   0.606  11.443  1.1579  0.7139  0.8463
  225MOL0     H31001   7.064   0.507  11.589 -0.3146 -1.3210 -0.8001
  225MOL0     H31002   7.302   0.467  11.414 -1.4290 -0.9889 -1.5103
  225MOL0     H31003   7.300   0.386  11.568  2.2376 -2.3948 -2.7408
  225MOL0     H31004   7.075   0.278  11.506 -0.4460 -2.7252 -1.7245
  225MOL0     H31005   7.092   0.341  11.347 -0.0866 -2.4811 -1.5678
  225MOL0     H31006   7.240   0.135  11.498  1.8969  1.6894 -0.2467
  225MOL0     H31007   7.156   0.110  11.347  2.6781 -0.8342 -3.1883
  225MOL0     H31008   7.524   0.194  11.141 -1.2200  0.4853  1.3847
  225MOL0     H31009   7.771  -0.003  11.042  0.0687 -1.6864 -2.4056
  225MOL0     H31010   7.646   0.107  10.970  1.9073  1.6942  1.2307
  225MOL0     H31011   7.643  -0.064  10.937  0.0991  1.1665 -0.3120
  225MOL0     H31012   7.436  -0.436  11.020 -1.8161  1.2163  3.7614
  225MOL0     H31013   7.401  -0.658  10.907  0.0879 -0.3505 -0.5214
  225MOL0     H31014   7.659  -0.993  11.013 -0.9404 -2.4233 -2.0204
  225MOL0     H31015   7.544  -1.037  11.151 -0.6231 -0.9457 -1.0618
  225MOL0     H31016   7.515  -1.118  10.867 -1.5552 -4.8956 -1.5784
  225MOL0     H31017   7.601  -1.201  10.982  0.5793  0.2843 -2.5749
  225MOL0     H31018   7.300  -1.124  11.042 -3.8207 -2.4222  0.9074
  225MOL0     H31019   7.378  -1.255  11.114 -2.6180  0.2160 -0.4909
  225MOL0     H31020   7.382  -1.375  10.873 -2.3886 -0.6831 -1.0919
  225MOL0     H31021   7.317  -1.216  10.816 -1.2848  2.0431  0.1509
  225MOL0     H31022   7.132  -1.233  10.960 -0.1770  1.0806 -1.5600
  225MOL0     H31023   7.144  -1.365  10.835 -1.7062  0.8330  0.5125
  225MOL0     H31024   7.229  -1.419  11.118 -0.3346  2.3634 -0.5631
  225MOL0     H31025   7.207  -1.531  10.983 -1.0770 -0.5864  1.0501
  225MOL0     H31026   6.975  -1.460  10.959 -0.4784  0.3824 -0.1642
  225MOL0     H31027   6.980  -1.375  11.117  0.2682 -0.5377 -0.2801
  225MOL0     H31028   7.006  -1.668  11.067 -0.9158  0.4102 -0.2129
  225MOL0     H31029   6.892  -1.597  11.169 -0.0864  0.8695 -1.0249
  225MOL0     H31030   7.620  -0.841  11.243  3.1458 -0.5600 -1.5689
  225MOL0     H31031   7.665  -0.587  11.318  0.5474 -1.7033  0.0602
  225MOL0     H31032   7.414  -0.242  11.318 -2.4295  0.4773 -0.1398
  225MOL0     H31033   7.291  -0.063  11.397  1.7787  1.0269  1.4160
  225MOL0     H31034   7.254   1.237  10.984 -0.5585  0.7552 -0.6423
  225MOL0     H31035   7.460   1.231  10.861 -2.4681 -1.1600  2.0381
  225MOL0     H31036   7.871   1.495  10.756 -0.8284 -0.5833  0.2927
  225MOL0     H31037   8.084   1.529  10.642  0.7851  1.1624 -0.5475
  225MOL0     H31038   8.236   1.652  10.498 -3.5041  1.4872 -0.0349
  225MOL0     H31039   8.261   1.480  10.481 -2.4356  0.0803  0.3917
  225MOL0     H31040   8.431   1.642  10.353  0.1580 -0.2339 -1.0268
  225MOL0     H31041   8.299   1.666  10.253  0.3219 -0.6796 -0.1268
  225MOL0     H31042   8.421   1.386  10.310  0.0324 -0.8784 -0.1315
  225MOL0     H31043   8.284   1.412  10.221 -0.0766  1.4019 -0.2861
  225MOL0     H31044   8.532   1.556  10.125  0.0768 -1.1669  1.9617
  225MOL0     H31045   8.373   1.525  10.051  0.0732  4.4813  0.9923
  225MOL0     H31046   8.649   1.224   9.964 -0.7238 -0.1002 -0.7190
  225MOL0     H31047   7.889   1.535  10.275  1.5990  3.7367  1.0614
  225MOL0     H31048   7.655   1.467  10.241 -1.9087 -3.1931 -0.6233
  225MOL0     H31049   7.566   1.404  10.380  2.8985 -2.4462 -0.8891
  225MOL0     H31050   7.571   1.579  10.340  1.4760  0.8015 -0.1990
  226MOL0     O31051   8.263   7.189   8.085  0.3118 -0.3717 -0.7275
  226MOL0     C31052   8.169   7.263   8.107  0.9703  0.5963  0.2667
  226MOL0     O31053   8.049   7.224   8.168 -0.6532  0.4503  0.1410
  226MOL0     C31054   8.025   7.100   8.220  0.1386  0.2587  0.1284
  226MOL0     C31055   8.090   7.056   8.335 -0.3575  0.1682  0.5505
  226MOL0     C31056   8.067   6.929   8.385  0.2876 -0.0408  0.7330
  226MOL0     C31057   7.972   6.845   8.320  0.1121  0.3151  0.7999
  226MOL0     O31058   7.921   6.727   8.354  0.5472 -0.2466 -0.2375
  226MOL0     C31059   8.019   6.629   8.394  0.1541  0.1892 -0.8555
  226MOL0     C31060   7.961   6.488   8.419 -0.1863  0.0089 -1.4409
  226MOL0     C31061   7.835   6.494   8.512  1.2650 -0.0661  0.0879
  226MOL0     C31062   7.722   6.391   8.456 -0.0718  0.1013  0.4164
  226MOL0     C31063   7.676   6.418   8.313  0.9238  0.8211  0.0003
  226MOL0     C31064   7.610   6.553   8.296 -0.3557 -0.0333  0.5320
  226MOL0     C31065   7.496   6.580   8.395  0.8778  1.1291  0.6827
  226MOL0     C31066   7.506   6.657   8.529  0.1696  0.5111 -0.3145
  226MOL0     N31067   7.511   6.800   8.524 -0.0394 -0.6665 -0.9220
  226MOL0     C31068   7.625   6.866   8.505 -0.5922  0.4607  0.7312
  226MOL0     C31069   7.597   6.991   8.500 -0.5260  0.2582  0.2783
  226MOL0     C31070   7.695   7.100   8.473  0.0262 -0.0012 -0.2356
  226MOL0     C31071   7.817   7.122   8.578  0.7532  0.7588  0.2870
  226MOL0     C31072   7.906   7.252   8.539 -0.6582 -0.3659  0.3349
  226MOL0     C31073   8.009   7.281   8.634  0.3469  0.0031 -0.3687
  226MOL0     O31074   8.128   7.342   8.576 -0.1882 -0.5485  0.3050
  226MOL0     C31075   8.113   7.477   8.557 -0.0343 -0.5867  0.7577
  226MOL0     C31076   8.219   7.543   8.505 -1.0060 -0.5157 -0.3559
  226MOL0     C31077   8.232   7.690   8.497  0.3885  0.2469 -0.1975
  226MOL0     C31078   8.375   7.738   8.461  0.8371  0.2112  0.1429
  226MOL0     C31079   8.116   7.769   8.518  0.3117  0.5077  0.0300
  226MOL0     C31080   8.110   7.919   8.495  0.0112 -0.5370 -0.7591
  226MOL0     O31081   7.994   7.978   8.551 -0.4930  0.2563 -0.1457
  226MOL0     C31082   7.979   8.114   8.544  0.5414  0.8375 -0.0896
  226MOL0     C31083   7.851   8.152   8.498 -1.2838  0.0598  0.4258
  226MOL0     C31084   7.819   8.287   8.473  0.4790  0.7779  0.6082
  226MOL0     C31085   7.917   8.382   8.497 -0.6504  0.2455  0.4850
  226MOL0     O31086   7.896   8.518   8.472 -0.0840 -0.6025  0.5434
  226MOL0     C31087   7.758   8.558   8.445 -0.1540 -0.0065 -0.3880
  226MOL0     C31088   7.744   8.715   8.448 -0.0402  0.7165 -0.4022
  226MOL0     C31089   7.802   8.797   8.334 -1.1841 -0.7213 -1.0677
  226MOL0     C31090   7.704   8.830   8.225  0.4182 -0.7016  0.0917
  226MOL0     C31091   7.599   8.936   8.266 -0.1130  0.7926 -0.5756
  226MOL0     C31092   7.674   9.075   8.267 -0.7012  0.5733 -0.0441
  226MOL0     C31093   7.579   9.190   8.279 -0.2001 -0.1519 -0.6933
  226MOL0     C31094   7.639   9.315   8.338  0.8990 -0.0638 -1.1776
  226MOL0    Cl31095   7.804   9.338   8.293 -0.3558 -0.4466  0.2416
  226MOL0     C31096   8.050   8.339   8.532 -0.6700 -0.8265  0.0472
  226MOL0     C31097   8.077   8.207   8.563 -0.1754 -0.1386 -0.4952
  226MOL0     O31098   8.200   7.973   8.443 -0.6909  0.2790 -0.5392
  226MOL0     C31099   7.997   7.695   8.550  0.3976 -0.2879 -0.3759
  226MOL0     C31100   8.004   7.560   8.588  0.6170 -0.2598  0.0701
  226MOL0     N31101   7.459   7.004   8.504  0.0379 -0.8411 -0.6148
  226MOL0     N31102   7.406   6.888   8.527  0.3194 -0.5029  0.5055
  226MOL0     C31103   7.895   6.903   8.212 -0.2555  0.5861  0.0671
  226MOL0     C31104   7.928   7.020   8.152 -0.4646 -0.8009  1.3236
  226MOL0     C31105   8.183   7.406   8.077 -0.4924  0.7648 -0.1298
  226MOL0     C31106   8.145   7.495   8.171  0.4341 -0.0397  0.1466
  226MOL0     C31107   8.164   7.630   8.168  0.1864  0.5549 -0.2173
  226MOL0     C31108   8.227   7.690   8.062 -0.6812 -0.4789  0.4836
  226MOL0     O31109   8.248   7.827   8.044 -0.2821  0.0645  0.5671
  226MOL0     C31110   8.140   7.914   8.090  0.4117  0.4876  0.2513
  226MOL0     C31111   8.187   8.051   8.078  0.6439 -0.0347  0.3258
  226MOL0     C31112   8.105   8.148   8.165  1.3606 -0.4988 -0.8333
  226MOL0     C31113   8.178   8.278   8.189  0.1705  0.9163 -0.3088
  226MOL0     C31114   8.210   8.351   8.060  0.9031  0.8293  0.4990
  226MOL0     C31115   8.242   8.394   7.956 -0.0404  0.2706  0.3023
  226MOL0     C31116   8.282   7.601   7.967  0.2697  1.1828  0.3318
  226MOL0     C31117   8.271   7.456   7.976  0.3705 -1.1490 -0.4882
  226MOL0     C31118   8.350   7.367   7.881 -0.8002 -0.3091 -0.2367
  226MOL0     H31119   8.151   7.133   8.380 -2.9334  2.8776 -0.3185
  226MOL0     H31120   8.109   6.898   8.480 -3.3723 -2.3079  1.8173
  226MOL0     H31121   8.066   6.674   8.482 -1.5707  4.4912 -1.9193
  226MOL0     H31122   8.097   6.611   8.320 -1.1399 -0.8971 -2.0090
  226MOL0     H31123   7.942   6.440   8.323 -2.0975 -0.8973 -0.6636
  226MOL0     H31124   8.030   6.423   8.474 -1.0661 -1.5941 -2.1617
  226MOL0     H31125   7.866   6.461   8.611  2.7138 -4.5684 -1.6231
  226MOL0     H31126   7.791   6.594   8.517  0.4696 -0.3705 -0.5912
  226MOL0     H31127   7.759   6.288   8.461 -5.2267 -2.0363  0.2166
  226MOL0     H31128   7.637   6.396   8.525 -0.2792 -3.7260  0.6238
  226MOL0     H31129   7.593   6.349   8.295  0.4630  1.4448 -0.3047
  226MOL0     H31130   7.758   6.397   8.244  0.1902  0.6939 -0.8447
  226MOL0     H31131   7.675   6.639   8.314  1.9679 -1.2022 -1.6894
  226MOL0     H31132   7.581   6.567   8.191 -2.6955 -1.8519  0.8527
  226MOL0     H31133   7.451   6.482   8.414 -0.5946  1.0083 -2.6595
  226MOL0     H31134   7.422   6.638   8.339  0.1018  0.2259  0.7412
  226MOL0     H31135   7.413   6.630   8.580  0.2708 -0.1163 -0.4559
  226MOL0     H31136   7.580   6.610   8.594  0.3166 -1.1927 -1.6374
  226MOL0     H31137   7.721   6.818   8.486 -1.5673 -1.6483  0.8831
  226MOL0     H31138   7.635   7.190   8.488  1.1794  0.5657  1.1711
  226MOL0     H31139   7.736   7.105   8.371  1.9469 -2.3717  0.3181
  226MOL0     H31140   7.785   7.119   8.683  0.3880 -1.3599  0.1505
  226MOL0     H31141   7.877   7.032   8.561  0.3484  0.4800  0.3268
  226MOL0     H31142   7.945   7.246   8.437  0.5061  3.0671  0.4722
  226MOL0     H31143   7.839   7.338   8.539  2.0813  1.8964  1.0110
  226MOL0     H31144   7.967   7.338   8.717 -2.0904  0.2573 -1.6818
  226MOL0     H31145   8.038   7.192   8.691  0.6965  0.9369  0.9773
  226MOL0     H31146   8.305   7.479   8.484  0.6340  1.2606  0.6156
  226MOL0     H31147   8.456   7.666   8.444  0.3090 -0.5868  0.9207
  226MOL0     H31148   8.418   7.812   8.529  2.5758  0.2030 -0.8752
  226MOL0     H31149   8.364   7.781   8.360  1.8433 -1.7820 -0.8642
  226MOL0     H31150   7.775   8.076   8.484 -1.2200 -0.5120  2.7952
  226MOL0     H31151   7.721   8.303   8.428  0.0565 -1.2651  0.7165
  226MOL0     H31152   7.726   8.519   8.348  0.7886 -0.4920 -0.5200
  226MOL0     H31153   7.700   8.508   8.523  1.0061 -1.9012 -0.6572
  226MOL0     H31154   7.639   8.744   8.455 -0.9374 -2.1692 -0.6264
  226MOL0     H31155   7.799   8.751   8.536  3.0626  3.8103 -3.2688
  226MOL0     H31156   7.877   8.733   8.286  0.9038 -1.4983  2.8299
  226MOL0     H31157   7.843   8.892   8.367  0.5494 -1.4905 -0.8905
  226MOL0     H31158   7.655   8.742   8.182  0.7473 -0.3407 -1.0572
  226MOL0     H31159   7.759   8.875   8.143 -0.2072  0.2426  0.1694
  226MOL0     H31160   7.520   8.934   8.191 -3.5677  0.6831  2.7985
  226MOL0     H31161   7.547   8.914   8.360 -1.5604  0.1365 -1.5016
  226MOL0     H31162   7.733   9.087   8.176 -0.0024 -0.1697  0.3017
  226MOL0     H31163   7.737   9.070   8.356 -0.8129  3.5472  0.3045
  226MOL0     H31164   7.500   9.173   8.353  0.2176  0.6487 -0.0456
  226MOL0     H31165   7.540   9.221   8.182 -1.6482 -3.0365 -1.1345
  226MOL0     H31166   7.655   9.292   8.444  4.7693 -1.5036 -1.9211
  226MOL0     H31167   7.576   9.402   8.324 -1.3284 -0.9270  2.2778
  226MOL0     H31168   8.116   8.424   8.546 -2.6036  1.0693 -1.5995
  226MOL0     H31169   8.166   8.191   8.622  0.9861  2.6377 -1.3573
  226MOL0     H31170   7.898   7.739   8.563 -0.7974 -2.9266  0.3162
  226MOL0     H31171   7.928   7.527   8.658  1.3198  0.4670  1.2108
  226MOL0     H31172   7.816   6.842   8.170 -0.2516 -0.0027  0.8915
  226MOL0     H31173   7.876   7.073   8.073 -0.6109  0.5347  2.2913
  226MOL0     H31174   8.091   7.447   8.252 -1.4366  0.1801 -0.9193
  226MOL0     H31175   8.124   7.681   8.255 -0.3141 -0.3768  0.1153
  226MOL0     H31176   8.046   7.917   8.034  0.9192 -1.4493 -0.8000
  226MOL0     H31177   8.113   7.889   8.193 -1.1754  0.9987 -0.0153
  226MOL0     H31178   8.210   8.084   7.976 -0.5591  0.1146  0.0938
  226MOL0     H31179   8.281   8.053   8.135  0.8833  0.3865 -0.0780
  226MOL0     H31180   7.999   8.149   8.135 -0.0059 -2.2500  3.2295
  226MOL0     H31181   8.094   8.107   8.265 -1.8769  2.5347  0.2921
  226MOL0     H31182   8.267   8.256   8.249 -0.6239 -1.0509  0.2369
  226MOL0     H31183   8.109   8.331   8.254  1.7326  2.1499  0.4072
  226MOL0     H31184   8.265   8.418   7.854 -0.5943  0.0868  0.1319
  226MOL0     H31185   8.339   7.639   7.883 -0.7938  2.9937  0.3856
  226MOL0     H31186   8.447   7.342   7.924 -0.4116  0.4225 -0.6738
  226MOL0     H31187   8.291   7.284   7.843 -0.8088 -0.3497 -0.1360
  226MOL0     H31188   8.368   7.422   7.788  0.4109 -2.2315 -1.1906
  227MOL0     O31189   6.148   7.424   8.623  0.1954  0.0505  0.7348
  227MOL0     C31190   6.167   7.309   8.641 -0.7061  0.2747 -0.6153
  227MOL0     O31191   6.271   7.255   8.709  0.6969 -0.0941  0.1780
  227MOL0     C31192   6.369   7.341   8.749 -0.9002 -0.7112  0.1030
  227MOL0     C31193   6.471   7.373   8.659 -0.5605  0.6193 -0.3676
  227MOL0     C31194   6.588   7.443   8.701 -0.1759 -0.4177 -0.8059
  227MOL0     C31195   6.593   7.501   8.834 -1.1144  0.3082 -0.0223
  227MOL0     O31196   6.700   7.573   8.885 -0.4955  0.4586 -1.3568
  227MOL0     C31197   6.801   7.625   8.805 -0.0326 -0.1835 -0.6257
  227MOL0     C31198   6.895   7.712   8.898  0.0729 -0.0706 -0.9143
  227MOL0     C31199   6.951   7.617   9.003 -0.3178 -0.2857 -0.2364
  227MOL0     C31200   7.039   7.674   9.106  1.0698  0.1348 -0.7227
  227MOL0     C31201   7.161   7.732   9.051 -0.0913 -0.1963  0.2972
  227MOL0     C31202   7.275   7.755   9.154 -0.3806  0.2239  0.3423
  227MOL0     C31203   7.228   7.858   9.270  0.0220 -0.1366  0.9463
  227MOL0     C31204   7.200   7.992   9.215 -0.2075 -0.2974  0.1600
  227MOL0     N31205   7.166   8.104   9.300  0.2598 -0.0425  0.2350
  227MOL0     C31206   7.223   8.116   9.429  0.0467  0.5584 -0.2362
  227MOL0     C31207   7.145   8.216   9.485  0.4463 -1.3132  0.4977
  227MOL0     C31208   7.146   8.237   9.635  0.1201  0.3140  0.8900
  227MOL0     C31209   7.184   8.388   9.664 -0.4700  0.1360 -0.3687
  227MOL0     C31210   7.232   8.411   9.809 -0.3945  0.1062 -0.6932
  227MOL0     C31211   7.293   8.551   9.830 -1.2316  0.3350  0.0699
  227MOL0     O31212   7.422   8.561   9.763  0.2347 -0.0477  0.3927
  227MOL0     C31213   7.517   8.653   9.799 -0.4407 -0.2758 -0.9745
  227MOL0     C31214   7.489   8.765   9.880 -0.0456 -0.5389 -0.7297
  227MOL0     C31215   7.601   8.854   9.923 -0.0132  0.9073  0.4051
  227MOL0     C31216   7.545   8.971  10.001 -0.3840  0.7366 -0.0016
  227MOL0     C31217   7.735   8.827   9.875 -0.3265  0.2740  0.2289
  227MOL0     C31218   7.846   8.924   9.908  0.2731  0.0853 -0.3720
  227MOL0     O31219   7.946   8.919   9.819  0.1205 -0.5767 -0.4569
  227MOL0     C31220   8.022   9.035   9.830 -0.0938  0.2354 -0.7610
  227MOL0     C31221   8.119   9.058   9.927  0.1554  0.5315 -0.8743
  227MOL0     C31222   8.203   9.170   9.928  0.2911  0.1981 -0.4047
  227MOL0     C31223   8.186   9.270   9.832  0.3791  0.0660  0.7957
  227MOL0     O31224   8.257   9.384   9.821  0.6128  0.4756 -0.6566
  227MOL0     C31225   8.333   9.426   9.937  0.7047  0.1954  0.1412
  227MOL0     C31226   8.260   9.516  10.033 -0.0763 -0.1172  0.5538
  227MOL0     C31227   8.344   9.549  10.159  0.0064  0.3157  0.1540
  227MOL0     C31228   8.458   9.646  10.127  0.1357  0.6029  0.9611
  227MOL0     C31229   8.545   9.697  10.246  0.2279 -0.8529  0.6089
  227MOL0     C31230   8.626   9.823  10.222 -0.3694 -1.1142 -0.4421
  227MOL0     C31231   8.664   9.871  10.363  0.9844 -0.5414 -0.0265
  227MOL0     C31232   8.746  10.004  10.368 -0.8244  0.0730 -0.5343
  227MOL0    Cl31233   8.636  10.143  10.343 -0.4636 -0.1305 -0.0595
  227MOL0     C31234   8.082   9.252   9.744  0.2718 -0.6134  0.0244
  227MOL0     C31235   8.006   9.136   9.734 -0.2946  0.5487  0.6161
  227MOL0     O31236   7.829   9.004   9.999 -0.0047 -0.2603 -0.3834
  227MOL0     C31237   7.748   8.720   9.791 -0.2705  0.4040  0.0200
  227MOL0     C31238   7.642   8.635   9.748 -0.1366  0.1534  0.0415
  227MOL0     N31239   7.049   8.252   9.390  0.4006  0.7966  0.3167
  227MOL0     N31240   7.052   8.183   9.283  0.1399  0.3256 -0.1452
  227MOL0     C31241   6.487   7.470   8.920  0.6099  0.3389  0.3811
  227MOL0     C31242   6.378   7.391   8.879 -0.2996 -0.9470 -0.0163
  227MOL0     C31243   6.080   7.211   8.576  0.8036  0.3789 -0.5542
  227MOL0     C31244   6.006   7.123   8.662  0.0619 -0.1108  0.3122
  227MOL0     C31245   5.936   7.017   8.611  0.2763  0.6266  0.3426
  227MOL0     C31246   5.910   7.007   8.470 -0.0995  0.4155 -0.2893
  227MOL0     O31247   5.825   6.916   8.421 -0.4239  0.2684  0.1633
  227MOL0     C31248   5.799   6.792   8.494  0.3363  0.1577  0.1850
  227MOL0     C31249   5.913   6.700   8.533  0.0018 -1.0366  0.2574
  227MOL0     C31250   5.869   6.566   8.592  0.4365  0.0471  0.6439
  227MOL0     C31251   5.797   6.482   8.484 -0.2802 -0.4776  0.5321
  227MOL0     C31252   5.771   6.340   8.533  0.3924  0.8782  0.3748
  227MOL0     C31253   5.745   6.225   8.572 -0.7590  0.1972 -0.4075
  227MOL0     C31254   5.972   7.096   8.390  0.0053  0.0275  0.5621
  227MOL0     C31255   6.052   7.195   8.440 -1.5484  0.3416  0.7464
  227MOL0     C31256   6.125   7.282   8.347  0.1882  0.0226 -0.6769
  227MOL0     H31257   6.461   7.344   8.555  2.5212 -4.5308  0.4449
  227MOL0     H31258   6.666   7.458   8.627 -0.6140  2.5097 -0.7572
  227MOL0     H31259   6.755   7.687   8.728 -1.1129  0.5494  0.5556
  227MOL0     H31260   6.859   7.542   8.763 -2.7211 -3.3992  1.4592
  227MOL0     H31261   6.977   7.747   8.834  2.1007  2.1829  2.5934
  227MOL0     H31262   6.831   7.788   8.943 -1.3777 -3.5231  3.6448
  227MOL0     H31263   6.871   7.567   9.058 -1.5296  1.9117  0.1135
  227MOL0     H31264   7.004   7.535   8.953  1.0036 -0.5369  1.4685
  227MOL0     H31265   6.993   7.754   9.166  1.1299  0.1112 -0.6456
  227MOL0     H31266   7.050   7.587   9.171 -0.1450 -1.5286 -2.6311
  227MOL0     H31267   7.148   7.822   8.991  0.0260  0.0763  0.6812
  227MOL0     H31268   7.192   7.654   8.981  1.0645  1.6300 -1.3151
  227MOL0     H31269   7.306   7.662   9.202 -0.3498  1.0161  1.9256
  227MOL0     H31270   7.362   7.791   9.098  0.9344 -1.1111  1.4590
  227MOL0     H31271   7.312   7.876   9.337 -0.2137  2.5424  0.6311
  227MOL0     H31272   7.134   7.832   9.319  0.2715 -2.4615  0.3255
  227MOL0     H31273   7.291   8.016   9.160 -1.3909  2.7240 -0.6670
  227MOL0     H31274   7.116   7.977   9.147  0.5185  2.2144 -1.4541
  227MOL0     H31275   7.294   8.050   9.478  1.0299  1.2240 -0.7295
  227MOL0     H31276   7.226   8.172   9.672  1.0941  0.1780 -1.3319
  227MOL0     H31277   7.051   8.216   9.684  0.9793 -2.7278  1.4445
  227MOL0     H31278   7.270   8.411   9.601  1.4901  1.0418  2.4692
  227MOL0     H31279   7.109   8.464   9.640 -0.3039  0.4077 -0.0394
  227MOL0     H31280   7.147   8.400   9.878  1.0201  0.1572  1.1418
  227MOL0     H31281   7.308   8.337   9.835 -0.2003 -0.7041 -3.2869
  227MOL0     H31282   7.228   8.628   9.786  0.7635  1.5202 -0.9744
  227MOL0     H31283   7.319   8.573   9.934 -1.2616 -2.9194  0.8855
  227MOL0     H31284   7.388   8.777   9.917 -0.1597 -2.8863 -0.1174
  227MOL0     H31285   7.551   9.066   9.947  1.8219  2.9530  3.6171
  227MOL0     H31286   7.583   8.988  10.103 -1.7987 -0.8492  0.8447
  227MOL0     H31287   7.442   8.947  10.027 -0.3943 -0.0947 -0.7846
  227MOL0     H31288   8.145   8.983  10.001 -3.6724  0.2957  0.4409
  227MOL0     H31289   8.284   9.184  10.000  0.0325  2.5517 -0.4963
  227MOL0     H31290   8.377   9.346   9.998 -2.8025 -2.5772 -0.6770
  227MOL0     H31291   8.421   9.479   9.898 -0.5063  1.6032 -0.7592
  227MOL0     H31292   8.238   9.611   9.984 -1.4650  2.4620  5.5218
  227MOL0     H31293   8.166   9.476  10.074 -0.1488  0.9014  1.4416
  227MOL0     H31294   8.380   9.461  10.214 -0.2890  1.6856  2.6745
  227MOL0     H31295   8.275   9.603  10.224  0.3137  2.2343 -1.0451
  227MOL0     H31296   8.413   9.727  10.068 -1.3148 -0.4085  0.6028
  227MOL0     H31297   8.525   9.602  10.053 -0.8605 -1.1723  1.0573
  227MOL0     H31298   8.483   9.718  10.334  1.3047  2.1094  0.7860
  227MOL0     H31299   8.605   9.613  10.281 -0.0854 -1.4310 -0.2233
  227MOL0     H31300   8.565   9.905  10.183  0.4666 -0.1770  0.1379
  227MOL0     H31301   8.714   9.811  10.158  1.0394  2.1082  0.6685
  227MOL0     H31302   8.705   9.793  10.427 -0.7425 -0.8041  0.8339
  227MOL0     H31303   8.568   9.892  10.412  0.5287 -0.9728 -0.7089
  227MOL0     H31304   8.829  10.010  10.297 -0.4044 -2.0030 -0.2990
  227MOL0     H31305   8.800  10.022  10.462  1.8181 -2.7185 -1.3274
  227MOL0     H31306   8.047   9.324   9.671 -0.4721  0.4777  1.4130
  227MOL0     H31307   7.938   9.127   9.650 -0.6500 -0.1546  0.9679
  227MOL0     H31308   7.841   8.690   9.744  1.0593 -0.2745  2.8752
  227MOL0     H31309   7.659   8.543   9.693  1.4631  0.1333  0.5145
  227MOL0     H31310   6.485   7.513   9.020 -1.3017 -0.1898  0.6119
  227MOL0     H31311   6.299   7.358   8.945 -1.8179 -3.2541 -2.7505
  227MOL0     H31312   6.003   7.138   8.769 -4.2105 -2.0193  0.6495
  227MOL0     H31313   5.892   6.951   8.685  4.8889 -1.7812  1.2575
  227MOL0     H31314   5.743   6.831   8.580 -2.6224  3.7816 -2.9581
  227MOL0     H31315   5.723   6.739   8.436  1.7561  1.2728 -2.9341
  227MOL0     H31316   5.967   6.742   8.618  3.3903  0.7153 -2.4596
  227MOL0     H31317   5.991   6.689   8.456  3.2367 -1.2199  3.3255
  227MOL0     H31318   5.954   6.512   8.634 -1.7343 -2.6108  1.8856
  227MOL0     H31319   5.808   6.594   8.678  1.7829  0.9378  1.3434
  227MOL0     H31320   5.862   6.464   8.398 -1.8472  2.6026 -1.5049
  227MOL0     H31321   5.701   6.528   8.457 -0.4699 -0.7866  0.6781
  227MOL0     H31322   5.752   6.123   8.604 -2.0106 -1.5932 -5.0608
  227MOL0     H31323   5.951   7.090   8.284  2.8847 -2.0167 -0.0120
  227MOL0     H31324   6.073   7.312   8.256 -0.9468  2.5798  0.7054
  227MOL0     H31325   6.148   7.375   8.400 -0.0773 -0.5759  0.5428
  227MOL0     H31326   6.212   7.230   8.305  2.3100  2.8417 -0.0392
  228MOL0     O31327   8.483   6.332   4.794  0.5140 -0.2697 -1.0245
  228MOL0     C31328   8.484   6.229   4.862  0.5601 -0.0880  1.1616
  228MOL0     O31329   8.561   6.123   4.834 -0.8236  0.1824  0.0230
  228MOL0     C31330   8.680   6.149   4.761  1.0671 -0.0163  0.2377
  228MOL0     C31331   8.697   6.096   4.632  0.0922  0.2495 -1.2501
  228MOL0     C31332   8.818   6.107   4.562 -0.3708  0.8916  0.0459
  228MOL0     C31333   8.925   6.174   4.625  0.8589  0.7993 -0.0726
  228MOL0     O31334   9.039   6.188   4.553  0.1727  0.3716 -0.2891
  228MOL0     C31335   9.152   6.126   4.608  0.0228 -0.1139  0.5111
  228MOL0     C31336   9.220   6.085   4.477 -0.6848  0.4668 -0.3517
  228MOL0     C31337   9.314   5.964   4.503 -0.2378  0.5685  0.1573
  228MOL0     C31338   9.413   5.943   4.392  0.4669  0.0255  0.6012
  228MOL0     C31339   9.511   5.828   4.445  1.0416  0.0123 -0.0648
  228MOL0     C31340   9.602   5.775   4.324 -0.6746  0.2645 -0.4855
  228MOL0     C31341   9.695   5.885   4.276  0.2475 -0.2010 -0.7749
  228MOL0     C31342   9.769   5.837   4.147 -0.5484  0.0053  0.0250
  228MOL0     N31343   9.861   5.732   4.167  0.2604 -0.4429 -0.5956
  228MOL0     C31344   9.979   5.744   4.218 -0.0182 -0.0539 -1.0666
  228MOL0     C31345  10.030   5.620   4.224  0.0196 -0.4502 -0.5124
  228MOL0     C31346  10.159   5.578   4.295 -0.1838  0.0055 -0.9502
  228MOL0     C31347  10.133   5.495   4.415  0.4008 -0.1846  0.8551
  228MOL0     C31348  10.243   5.382   4.462  1.1553 -0.2662  0.3404
  228MOL0     C31349  10.362   5.458   4.513  0.3475  0.7960  0.1158
  228MOL0     O31350  10.437   5.357   4.578  0.7833 -0.9195 -0.1636
  228MOL0     C31351  10.568   5.385   4.614  0.0142 -0.0944  0.7870
  228MOL0     C31352  10.620   5.505   4.652  0.0736  0.6425  0.0968
  228MOL0     C31353  10.754   5.517   4.679  0.3084 -0.3496  0.2068
  228MOL0     C31354  10.806   5.650   4.718 -0.7421  0.4055  0.2464
  228MOL0     C31355  10.843   5.406   4.658 -0.7220 -0.4461 -0.0196
  228MOL0     C31356  10.994   5.410   4.684  0.2348  0.3122 -0.7271
  228MOL0     O31357  11.062   5.521   4.718  0.0108 -0.5990  0.5454
  228MOL0     C31358  11.182   5.520   4.779  0.4212 -0.2000 -0.2732
  228MOL0     C31359  11.199   5.608   4.891  0.3884 -1.4753 -0.9695
  228MOL0     C31360  11.323   5.616   4.959 -0.3379 -0.4872 -0.6153
  228MOL0     C31361  11.436   5.552   4.904  0.0320  0.1159 -1.2023
  228MOL0     O31362  11.559   5.569   4.960  0.7052 -0.5266 -0.2813
  228MOL0     C31363  11.669   5.577   4.876 -0.3708 -1.3712  0.1873
  228MOL0     C31364  11.798   5.614   4.960 -0.5210 -0.6556  0.6077
  228MOL0     C31365  11.784   5.760   5.020  0.0688  0.4102  0.4308
  228MOL0     C31366  11.913   5.811   5.086  0.0017 -0.2231 -0.3064
  228MOL0     C31367  11.882   5.947   5.157  0.1901 -0.1380 -0.5694
  228MOL0     C31368  12.001   6.007   5.227  0.1590  0.0497  0.2179
  228MOL0     C31369  11.953   6.114   5.331 -0.0313 -0.3742  0.0775
  228MOL0     C31370  11.898   6.239   5.266 -0.4186 -0.3934  0.0355
  228MOL0    Cl31371  11.836   6.335   5.401 -0.2423  0.2744 -0.6699
  228MOL0     C31372  11.418   5.461   4.805  0.8779  0.1881  0.2953
  228MOL0     C31373  11.294   5.442   4.739  0.2583 -0.4482  0.1514
  228MOL0     O31374  11.048   5.302   4.676 -0.0760  0.4194  0.0385
  228MOL0     C31375  10.781   5.284   4.615 -0.4287  0.1933 -0.3275
  228MOL0     C31376  10.644   5.277   4.599  1.1128 -0.2962  0.9409
  228MOL0     N31377   9.936   5.535   4.175 -0.4500  0.1832 -0.1586
  228MOL0     N31378   9.834   5.600   4.133  0.0014 -0.0221 -0.5579
  228MOL0     C31379   8.915   6.216   4.757 -0.4174 -1.0350  0.4251
  228MOL0     C31380   8.792   6.213   4.825  0.0403 -0.6415  0.6984
  228MOL0     C31381   8.393   6.215   4.985  0.3711  0.0168  0.4728
  228MOL0     C31382   8.411   6.094   5.064  0.4603  1.1533  0.8004
  228MOL0     C31383   8.329   6.068   5.180 -0.2901  0.0240  0.2170
  228MOL0     C31384   8.229   6.167   5.208 -1.0333 -0.2472 -0.4978
  228MOL0     O31385   8.148   6.165   5.317  0.1129 -0.5008 -0.5511
  228MOL0     C31386   8.215   6.208   5.442 -0.3370  0.0878 -0.2724
  228MOL0     C31387   8.186   6.117   5.567  0.0206 -0.4444 -0.3087
  228MOL0     C31388   8.183   5.969   5.541 -0.3693  0.1429 -0.4252
  228MOL0     C31389   8.129   5.885   5.657  0.4082 -0.1730 -0.0930
  228MOL0     C31390   8.227   5.875   5.764 -0.1975  0.0680  0.2598
  228MOL0     C31391   8.288   5.868   5.869  0.2457  1.2260 -0.1325
  228MOL0     C31392   8.213   6.274   5.116  0.4183 -0.4747  0.1002
  228MOL0     C31393   8.297   6.308   5.012  0.7496 -0.8902  1.4275
  228MOL0     C31394   8.269   6.443   4.942  0.3910  0.2355 -0.3483
  228MOL0     H31395   8.620   6.029   4.595 -0.2146  0.0767 -0.3247
  228MOL0     H31396   8.845   6.074   4.462  0.3884 -0.0115  0.5365
  228MOL0     H31397   9.122   6.036   4.662  0.2160 -0.5302 -0.0693
  228MOL0     H31398   9.211   6.198   4.665 -1.3552 -0.8268  2.9986
  228MOL0     H31399   9.146   6.064   4.399 -1.5677 -1.6337  0.9877
  228MOL0     H31400   9.269   6.176   4.440  1.0627 -1.2657 -2.6434
  228MOL0     H31401   9.360   5.976   4.601 -0.4373  0.8862  0.2141
  228MOL0     H31402   9.248   5.877   4.506 -0.3974  0.7064  2.6626
  228MOL0     H31403   9.359   5.916   4.301  1.8153 -0.9051  0.0551
  228MOL0     H31404   9.464   6.033   4.355 -1.4766  1.1722  0.5337
  228MOL0     H31405   9.447   5.746   4.481  1.9498  0.3973  2.6402
  228MOL0     H31406   9.573   5.860   4.529 -0.7486  1.8455  0.6535
  228MOL0     H31407   9.656   5.685   4.355 -1.0818  0.1241 -0.1807
  228MOL0     H31408   9.536   5.743   4.243 -1.1593 -0.0936  0.0453
  228MOL0     H31409   9.768   5.898   4.357 -2.3253 -1.2422  1.8944
  228MOL0     H31410   9.634   5.974   4.261 -0.8385 -0.7561  0.1576
  228MOL0     H31411   9.698   5.810   4.068 -0.3257  0.4487 -0.3369
  228MOL0     H31412   9.822   5.928   4.115 -1.1170  0.7171  1.0536
  228MOL0     H31413  10.021   5.837   4.253  1.8765 -0.8003 -1.2356
  228MOL0     H31414  10.219   5.664   4.327 -0.7143 -0.9722  3.1484
  228MOL0     H31415  10.221   5.520   4.226  0.2474  0.0182 -0.5748
  228MOL0     H31416  10.102   5.551   4.504 -2.9037  1.5602 -1.2138
  228MOL0     H31417  10.045   5.434   4.395  1.4948 -1.4428 -0.3558
  228MOL0     H31418  10.192   5.313   4.530  1.8137 -2.4504 -1.2783
  228MOL0     H31419  10.272   5.321   4.377 -0.8929  1.1141 -1.4562
  228MOL0     H31420  10.408   5.499   4.423 -1.7497 -0.3414 -1.5710
  228MOL0     H31421  10.331   5.541   4.578 -0.5345  1.8318 -1.5649
  228MOL0     H31422  10.559   5.595   4.662 -1.0880 -0.0128 -0.7819
  228MOL0     H31423  10.734   5.731   4.732  1.4923  2.4674  0.5692
  228MOL0     H31424  10.876   5.674   4.637 -1.4489 -0.9726 -0.8198
  228MOL0     H31425  10.854   5.651   4.816 -0.7851 -0.6509  0.2882
  228MOL0     H31426  11.118   5.673   4.921  0.9615 -0.9585 -0.5131
  228MOL0     H31427  11.324   5.681   5.045 -1.4801 -0.2992 -0.7276
  228MOL0     H31428  11.690   5.486   4.819 -2.5003 -1.3231 -0.7474
  228MOL0     H31429  11.655   5.660   4.806 -0.6308 -1.1665  0.4816
  228MOL0     H31430  11.813   5.545   5.044  3.0635 -2.2551 -1.1510
  228MOL0     H31431  11.884   5.601   4.895 -0.4237  0.5692  0.4843
  228MOL0     H31432  11.706   5.745   5.094  1.1097 -2.6362  1.0620
  228MOL0     H31433  11.748   5.829   4.943 -1.5418  0.2500  1.0023
  228MOL0     H31434  11.982   5.829   5.003  1.0591 -3.1039 -0.1494
  228MOL0     H31435  11.961   5.741   5.155 -0.7288 -1.2141 -0.7644
  228MOL0     H31436  11.847   6.026   5.090 -0.6180  0.4250  0.4662
  228MOL0     H31437  11.805   5.918   5.230  0.1865 -2.2072 -1.3304
  228MOL0     H31438  12.057   6.048   5.142 -3.5624  1.6019 -1.7426
  228MOL0     H31439  12.046   5.927   5.286 -3.8103 -1.8818  1.0084
  228MOL0     H31440  12.041   6.140   5.390  0.3685  0.4132 -0.8322
  228MOL0     H31441  11.875   6.068   5.392 -0.7061  2.3487  1.4167
  228MOL0     H31442  11.825   6.207   5.191 -0.9238  0.9037 -0.0588
  228MOL0     H31443  11.969   6.300   5.210  0.7760 -0.7920  1.0620
  228MOL0     H31444  11.502   5.399   4.773 -0.5654 -0.3269 -2.8947
  228MOL0     H31445  11.298   5.378   4.652 -1.0148  0.8688 -0.9441
  228MOL0     H31446  10.843   5.204   4.576 -3.2538 -1.7412 -1.1540
  228MOL0     H31447  10.599   5.181   4.572  0.2953  0.5847 -1.0480
  228MOL0     H31448   8.999   6.264   4.806 -0.7876  0.3410 -0.2329
  228MOL0     H31449   8.787   6.255   4.925  5.6644 -0.6977  1.3506
  228MOL0     H31450   8.484   6.021   5.034  0.4229  2.3118 -2.5789
  228MOL0     H31451   8.332   5.973   5.232 -0.0641  0.1569  0.4472
  228MOL0     H31452   8.320   6.202   5.410 -1.5412  1.3827 -5.4644
  228MOL0     H31453   8.202   6.316   5.458 -1.8322 -0.3928  2.2349
  228MOL0     H31454   8.095   6.154   5.615  0.7400  1.8407 -0.5994
  228MOL0     H31455   8.267   6.147   5.634  0.6282  0.7561 -1.5473
  228MOL0     H31456   8.127   5.944   5.451 -1.4024 -0.2355  0.3118
  228MOL0     H31457   8.287   5.936   5.530 -0.7618 -1.9197  1.3423
  228MOL0     H31458   8.099   5.787   5.621 -0.8237 -0.3724  1.3804
  228MOL0     H31459   8.031   5.921   5.691  0.0258 -1.1997 -0.0799
  228MOL0     H31460   8.362   5.862   5.947  1.4946 -1.6549 -1.3913
  228MOL0     H31461   8.139   6.347   5.145  2.6251  3.1107 -2.4398
  228MOL0     H31462   8.220   6.514   5.008  2.1700  2.3728 -1.1931
  228MOL0     H31463   8.353   6.498   4.899  0.2094  2.9521  2.4009
  228MOL0     H31464   8.208   6.425   4.853  0.3510  0.3261 -0.3392
  229MOL0     O31465  10.412  10.998  10.525 -0.0815  0.4245 -0.5056
  229MOL0     C31466  10.388  11.043  10.417  0.7699  0.3866  1.6105
  229MOL0     O31467  10.451  11.018  10.311  0.2807  0.2014  0.4606
  229MOL0     C31468  10.544  10.926  10.297  0.3464 -0.6142  0.3676
  229MOL0     C31469  10.656  10.916  10.383  0.5267 -0.0056 -0.2486
  229MOL0     C31470  10.766  10.833  10.359 -0.1902 -0.2685 -0.7401
  229MOL0     C31471  10.769  10.755  10.253  1.0732 -0.0927  0.3825
  229MOL0     O31472  10.883  10.679  10.243  0.5461 -0.3263 -0.8620
  229MOL0     C31473  10.859  10.554  10.178 -0.3969 -1.3336  0.8436
  229MOL0     C31474  10.912  10.438  10.255 -0.1321 -0.2629 -0.8429
  229MOL0     C31475  10.878  10.458  10.408 -0.0873 -0.4326  0.2333
  229MOL0     C31476  10.895  10.333  10.497 -0.0845 -0.4464  0.0127
  229MOL0     C31477  10.888  10.360  10.654  0.4298 -0.3088 -0.6260
  229MOL0     C31478  11.013  10.436  10.697  1.2099  0.1127  0.9862
  229MOL0     C31479  11.028  10.467  10.847  0.0069 -0.1763 -0.1777
  229MOL0     C31480  11.163  10.543  10.876  0.0556 -0.4269 -0.6423
  229MOL0     N31481  11.277  10.447  10.873 -0.0135  0.3456  0.4679
  229MOL0     C31482  11.411  10.482  10.863  0.0234 -0.1362 -0.5086
  229MOL0     C31483  11.477  10.368  10.884 -0.8129  0.7631  0.6875
  229MOL0     C31484  11.624  10.353  10.871  0.4756  0.6829 -0.5411
  229MOL0     C31485  11.688  10.324  11.013  0.0314  0.0067  0.6293
  229MOL0     C31486  11.834  10.281  10.984 -0.4109 -0.0455  0.1542
  229MOL0     C31487  11.926  10.398  11.014 -0.3587 -0.7977  0.5590
  229MOL0     O31488  11.951  10.473  10.891 -0.3840 -0.4012 -0.4007
  229MOL0     C31489  12.059  10.440  10.806  0.1373  0.1504 -1.0103
  229MOL0     C31490  12.090  10.521  10.697 -0.9494  0.9060  0.2324
  229MOL0     C31491  12.199  10.505  10.611  0.5960 -0.7177 -0.1266
  229MOL0     C31492  12.222  10.603  10.503 -0.0090 -1.4977  0.3385
  229MOL0     C31493  12.284  10.394  10.627 -0.3184 -0.5788 -0.6190
  229MOL0     C31494  12.393  10.358  10.541 -0.2659 -0.3385 -0.2968
  229MOL0     O31495  12.503  10.292  10.588  0.4481 -0.0414  0.1877
  229MOL0     C31496  12.599  10.260  10.495 -0.1306 -0.2772 -0.9893
  229MOL0     C31497  12.622  10.127  10.479  0.1583 -0.5213 -0.5324
  229MOL0     C31498  12.734  10.081  10.397  0.1618  0.5221  0.3275
  229MOL0     C31499  12.814  10.177  10.331 -0.1541  0.8502 -0.6117
  229MOL0     O31500  12.925  10.124  10.271 -0.3413  0.0234 -0.5994
  229MOL0     C31501  12.999  10.196  10.175  0.1112 -0.6920 -0.7579
  229MOL0     C31502  13.114  10.120  10.098  0.6872  0.8008  0.4616
  229MOL0     C31503  13.242  10.101  10.182  0.6154  0.2779 -0.5285
  229MOL0     C31504  13.322  10.224  10.208 -0.1737 -0.3473 -0.1661
  229MOL0     C31505  13.464  10.189  10.268 -0.0517  1.1601 -1.1716
  229MOL0     C31506  13.461  10.124  10.406 -0.9683  0.2442  0.5639
  229MOL0     C31507  13.598  10.101  10.467  0.9936 -0.4623 -0.7602
  229MOL0     C31508  13.603  10.011  10.598 -0.2971 -0.9237 -0.9050
  229MOL0    Cl31509  13.580   9.840  10.576  0.0077  0.4615 -0.1433
  229MOL0     C31510  12.789  10.317  10.344 -1.1532 -0.0465  0.4623
  229MOL0     C31511  12.683  10.357  10.434 -0.2262 -0.4593  0.6736
  229MOL0     O31512  12.369  10.370  10.420  0.2296  0.3504  0.0126
  229MOL0     C31513  12.258  10.314  10.739 -0.4766  0.5338  0.4045
  229MOL0     C31514  12.141  10.334  10.821 -0.5012  0.2985  0.3258
  229MOL0     N31515  11.383  10.268  10.902  0.6799  0.2607  0.6863
  229MOL0     N31516  11.266  10.314  10.883  0.0940 -0.0541  1.2161
  229MOL0     C31517  10.653  10.767  10.157 -0.8788 -1.2704 -0.0168
  229MOL0     C31518  10.544  10.844  10.180  0.0858 -0.1513 -0.3101
  229MOL0     C31519  10.279  11.140  10.389  0.1405  0.4580 -0.1690
  229MOL0     C31520  10.243  11.172  10.260  0.5359  0.3815 -0.1985
  229MOL0     C31521  10.144  11.266  10.234 -0.9007 -0.0952  1.0388
  229MOL0     C31522  10.071  11.323  10.326  0.4315  0.8919  0.3798
  229MOL0     O31523   9.977  11.411  10.276 -0.3132 -0.2339 -0.2016
  229MOL0     C31524   9.836  11.384  10.308  0.1263 -1.1349 -0.2619
  229MOL0     C31525   9.763  11.518  10.342  0.2553 -0.5952 -0.5872
  229MOL0     C31526   9.838  11.613  10.445 -0.0478 -0.6025  0.7826
  229MOL0     C31527   9.760  11.743  10.495  0.4790 -0.4462 -0.2852
  229MOL0     C31528   9.634  11.723  10.577  0.1480 -0.9336 -0.3626
  229MOL0     C31529   9.530  11.714  10.645 -0.5605  0.1141  0.0088
  229MOL0     C31530  10.108  11.300  10.460  0.3351  0.4406  0.3714
  229MOL0     C31531  10.214  11.216  10.494 -0.1375 -0.9858  0.2037
  229MOL0     C31532  10.247  11.211  10.641 -0.2153  0.6332  0.4791
  229MOL0     H31533  10.654  10.986  10.466 -3.2367 -0.7784  0.5040
  229MOL0     H31534  10.837  10.820  10.440 -1.9691 -2.7503  0.5522
  229MOL0     H31535  10.919  10.557  10.086 -0.2512 -0.6785  0.9556
  229MOL0     H31536  10.752  10.536  10.164 -0.2727 -0.6278 -1.5332
  229MOL0     H31537  10.868  10.340  10.235 -2.5604  0.8768 -1.3620
  229MOL0     H31538  11.021  10.437  10.246  0.2947 -0.2674  2.8969
  229MOL0     H31539  10.955  10.526  10.445 -0.9297 -0.0660  1.3747
  229MOL0     H31540  10.785  10.513  10.426  0.4848  0.2836  1.0228
  229MOL0     H31541  10.808  10.274  10.467 -0.4981  1.5836 -3.3219
  229MOL0     H31542  10.985  10.274  10.479 -0.7691 -1.7804  0.8906
  229MOL0     H31543  10.897  10.267  10.710  0.4451 -0.1024 -0.2835
  229MOL0     H31544  10.804  10.423  10.685  2.9324  2.6375  0.6900
  229MOL0     H31545  11.099  10.384  10.654  0.0491  0.2439 -1.7105
  229MOL0     H31546  11.017  10.534  10.648 -0.3986 -0.1444  0.2770
  229MOL0     H31547  11.018  10.370  10.896 -1.2400 -0.7254 -1.4512
  229MOL0     H31548  10.950  10.534  10.883 -0.0825  0.0136 -0.7170
  229MOL0     H31549  11.183  10.631  10.815  0.8103 -0.7662 -0.8946
  229MOL0     H31550  11.153  10.589  10.975  1.8646 -0.3809 -0.4473
  229MOL0     H31551  11.451  10.580  10.840  0.0852 -0.8564 -4.0564
  229MOL0     H31552  11.671  10.433  10.813 -3.0419  1.7807 -2.1392
  229MOL0     H31553  11.633  10.262  10.812 -2.3766 -0.9097  1.2125
  229MOL0     H31554  11.695  10.418  11.068  1.5766  0.6356 -0.5666
  229MOL0     H31555  11.639  10.238  11.061 -0.1375 -1.0637 -1.3631
  229MOL0     H31556  11.874  10.202  11.048  4.1738  0.7173 -1.3611
  229MOL0     H31557  11.850  10.240  10.884  2.7073 -0.8580  0.8848
  229MOL0     H31558  11.902  10.469  11.094  0.6424 -1.3549  1.3813
  229MOL0     H31559  12.019  10.353  11.049  0.3821  1.1725  1.2709
  229MOL0     H31560  12.016  10.600  10.690  0.0090  1.8809  0.8750
  229MOL0     H31561  12.325  10.598  10.465 -0.7204 -0.3419 -1.9344
  229MOL0     H31562  12.216  10.705  10.542  0.6911 -1.1923 -0.3166
  229MOL0     H31563  12.159  10.597  10.414  2.3112 -1.6866 -1.3820
  229MOL0     H31564  12.568  10.051  10.534  1.8882  0.2780  2.5059
  229MOL0     H31565  12.766   9.978  10.386  3.4184  1.1089  2.5550
  229MOL0     H31566  12.934  10.213  10.089 -0.0563 -0.5565 -0.6043
  229MOL0     H31567  13.035  10.288  10.222  1.9095 -1.4771 -0.5291
  229MOL0     H31568  13.073  10.023  10.070 -0.6363  2.4741 -4.2062
  229MOL0     H31569  13.135  10.172  10.004 -0.4312  3.5240  1.5796
  229MOL0     H31570  13.303  10.019  10.143  1.2670  1.6522 -2.5294
  229MOL0     H31571  13.203  10.064  10.278 -0.6964 -1.5076 -1.6906
  229MOL0     H31572  13.268  10.290  10.277  0.5868  1.3870 -1.1476
  229MOL0     H31573  13.334  10.291  10.122  1.5903  3.3689  2.6639
  229MOL0     H31574  13.525  10.133  10.197 -1.7775  0.7242 -2.3580
  229MOL0     H31575  13.519  10.284  10.278 -0.8973  1.4459  1.6043
  229MOL0     H31576  13.404  10.031  10.398 -0.8216 -0.0690  2.4964
  229MOL0     H31577  13.404  10.185  10.477  1.4006  2.9590  0.3500
  229MOL0     H31578  13.649  10.193  10.496  0.4877 -0.6821  0.9569
  229MOL0     H31579  13.659  10.049  10.393  0.1369  0.2574 -2.0102
  229MOL0     H31580  13.533  10.056  10.669  0.9383 -2.1031  1.1656
  229MOL0     H31581  13.703  10.031  10.637 -1.3180 -0.1361  1.5178
  229MOL0     H31582  12.839  10.394  10.286  0.0384 -0.3908  0.9877
  229MOL0     H31583  12.659  10.460  10.459  0.9669 -0.2727  1.1147
  229MOL0     H31584  12.324  10.230  10.760 -1.9519 -0.6228  0.6471
  229MOL0     H31585  12.128  10.261  10.901 -0.9928  0.0536  0.0278
  229MOL0     H31586  10.652  10.713  10.063 -0.1641  0.2697 -0.9507
  229MOL0     H31587  10.471  10.848  10.100 -0.9568 -2.1749  0.4642
  229MOL0     H31588  10.287  11.123  10.174 -0.2467  0.4238 -0.6356
  229MOL0     H31589  10.138  11.269  10.126  0.8650  0.1043  0.9114
  229MOL0     H31590   9.780  11.331  10.230 -3.9333 -0.2043  1.7663
  229MOL0     H31591   9.833  11.324  10.399  1.2704  1.6631  1.7758
  229MOL0     H31592   9.664  11.497  10.383  0.1659 -0.4890 -0.7460
  229MOL0     H31593   9.753  11.571  10.246  0.5623 -3.2626 -2.2011
  229MOL0     H31594   9.869  11.549  10.528  1.3617 -1.2555 -0.2158
  229MOL0     H31595   9.927  11.645  10.389 -0.1937 -0.3040  0.7170
  229MOL0     H31596   9.726  11.801  10.408 -1.9211 -0.2925  0.6814
  229MOL0     H31597   9.821  11.811  10.555 -0.9279  1.9134 -1.3742
  229MOL0     H31598   9.437  11.709  10.698 -0.9041  0.6530 -0.5257
  229MOL0     H31599  10.060  11.355  10.540  3.5534  0.3663  2.5595
  229MOL0     H31600  10.265  11.112  10.682  4.4680  2.0700  2.5388
  229MOL0     H31601  10.343  11.262  10.656 -0.8856  1.2455  3.2850
  229MOL0     H31602  10.167  11.258  10.698 -0.9780 -0.3306  0.2224
  230MOL0     O31603   3.909   1.321   4.417 -0.5635  0.1385  0.6794
  230MOL0     C31604   3.912   1.199   4.409 -1.0308 -0.7806  1.4279
  230MOL0     O31605   4.023   1.120   4.454  0.2862 -1.0224 -0.3029
  230MOL0     C31606   4.147   1.156   4.491  0.0810 -0.7690 -0.7659
  230MOL0     C31607   4.199   1.285   4.488  0.5414 -0.6720  0.3055
  230MOL0     C31608   4.334   1.305   4.525  0.1532 -0.3101 -0.5680
  230MOL0     C31609   4.413   1.196   4.567 -0.6831  0.3298  0.0198
  230MOL0     O31610   4.548   1.200   4.589 -0.2306 -0.4153  0.9762
  230MOL0     C31611   4.621   1.311   4.523  0.4091 -1.0914  0.4440
  230MOL0     C31612   4.770   1.274   4.517 -0.1167 -0.2446 -0.6506
  230MOL0     C31613   4.832   1.208   4.638 -0.2207  0.2530 -0.0225
  230MOL0     C31614   4.975   1.177   4.602 -0.5419 -0.0978  0.6380
  230MOL0     C31615   5.047   1.138   4.731 -0.5983 -0.9561 -0.2153
  230MOL0     C31616   5.200   1.142   4.717 -0.1389 -0.3139 -0.7005
  230MOL0     C31617   5.242   1.022   4.645 -1.3316 -0.0098  0.3387
  230MOL0     C31618   5.231   0.886   4.715 -1.0393 -0.5827  0.9800
  230MOL0     N31619   5.141   0.810   4.637 -0.4776  0.3267 -0.1683
  230MOL0     C31620   5.179   0.694   4.576 -0.2526 -0.0769 -0.4696
  230MOL0     C31621   5.068   0.639   4.528  0.1291  0.3092  0.5719
  230MOL0     C31622   5.060   0.507   4.447  0.2550 -1.0325 -0.9520
  230MOL0     C31623   4.918   0.444   4.422 -0.4805 -0.2213  0.1717
  230MOL0     C31624   4.915   0.316   4.339 -0.7928 -0.1887 -0.3676
  230MOL0     C31625   4.787   0.257   4.286 -0.8865  0.7379  0.5836
  230MOL0     O31626   4.728   0.340   4.191  0.3243  0.1575  0.4915
  230MOL0     C31627   4.602   0.326   4.145 -0.9165 -0.0746  0.6093
  230MOL0     C31628   4.564   0.413   4.046  0.7945  0.8791 -0.3124
  230MOL0     C31629   4.434   0.413   3.994  1.0419 -1.1550 -0.0088
  230MOL0     C31630   4.409   0.518   3.879 -0.5567  0.6930  0.3861
  230MOL0     C31631   4.344   0.316   4.046  0.6177  0.2485  0.4949
  230MOL0     C31632   4.204   0.310   3.998  0.1279  0.4608 -0.1383
  230MOL0     O31633   4.139   0.197   4.035  0.4394  0.7515 -0.2019
  230MOL0     C31634   3.998   0.198   4.042 -0.1788  0.1043  0.2702
  230MOL0     C31635   3.918   0.211   3.937  0.4075  0.2230 -0.0576
  230MOL0     C31636   3.782   0.171   3.941  0.4356  0.8391  0.0469
  230MOL0     C31637   3.726   0.126   4.061  0.4862 -0.0573 -0.4565
  230MOL0     O31638   3.589   0.100   4.071 -0.8568 -0.4000 -0.4658
  230MOL0     C31639   3.553   0.012   4.180 -0.4203 -0.2306  0.1943
  230MOL0     C31640   3.416  -0.060   4.145 -0.1141 -0.5590  0.7406
  230MOL0     C31641   3.380  -0.160   4.250 -0.4959 -0.0356  1.2034
  230MOL0     C31642   3.247  -0.225   4.217 -0.0676  0.2507  0.7684
  230MOL0     C31643   3.215  -0.357   4.292 -0.3724 -0.3870 -0.4494
  230MOL0     C31644   3.080  -0.363   4.349 -0.0498  0.5019 -0.3182
  230MOL0     C31645   2.963  -0.374   4.249  0.1743  1.2767 -0.5878
  230MOL0     C31646   2.838  -0.392   4.324 -0.7827  0.4227  0.0379
  230MOL0    Cl31647   2.836  -0.544   4.408 -0.4407 -0.3708 -0.3870
  230MOL0     C31648   3.808   0.128   4.178  0.2019  0.0566  0.9561
  230MOL0     C31649   3.945   0.158   4.159 -0.8113 -0.9400 -0.3092
  230MOL0     O31650   4.146   0.412   3.963  0.3788  0.1520  0.1664
  230MOL0     C31651   4.386   0.221   4.141  0.2189  0.8154  0.1975
  230MOL0     C31652   4.517   0.228   4.187  0.2523 -0.0388  1.3264
  230MOL0     N31653   4.960   0.723   4.570  0.2362  1.1193 -0.1683
  230MOL0     N31654   5.001   0.821   4.641  0.0996  0.0363  0.3060
  230MOL0     C31655   4.353   1.067   4.581 -0.1650 -0.9382 -0.6104
  230MOL0     C31656   4.224   1.055   4.539  0.1438  0.4691 -0.1525
  230MOL0     C31657   3.798   1.124   4.346  0.4364 -0.4078  0.3836
  230MOL0     C31658   3.805   0.990   4.308  0.2031  0.4338 -0.4317
  230MOL0     C31659   3.698   0.930   4.237 -0.1558 -0.2181  0.3904
  230MOL0     C31660   3.576   0.998   4.213 -0.1087  0.7553 -0.0558
  230MOL0     O31661   3.473   0.937   4.145 -0.4768 -0.2237  0.3710
  230MOL0     C31662   3.516   0.878   4.019 -0.0210  0.0148  0.2965
  230MOL0     C31663   3.405   0.865   3.922  0.5106  0.9099  0.1654
  230MOL0     C31664   3.302   0.980   3.914 -0.0353 -0.4106 -0.0177
  230MOL0     C31665   3.173   0.947   3.841 -1.2792  0.4822  0.3146
  230MOL0     C31666   3.204   0.876   3.708 -0.2136  0.1598 -0.2271
  230MOL0     C31667   3.241   0.835   3.603 -0.6710  0.3961  0.4600
  230MOL0     C31668   3.569   1.127   4.261  0.4677  0.2167 -0.7907
  230MOL0     C31669   3.675   1.193   4.322 -0.8783 -0.0813 -0.0023
  230MOL0     C31670   3.639   1.336   4.362 -0.7074 -0.5498  0.6161
  230MOL0     H31671   4.142   1.374   4.461  3.8494  0.9496 -2.1018
  230MOL0     H31672   4.377   1.404   4.517  3.8591 -1.7143 -0.0331
  230MOL0     H31673   4.609   1.394   4.593  1.1366 -0.0348 -0.6455
  230MOL0     H31674   4.581   1.324   4.422  0.5765  3.6425  0.8073
  230MOL0     H31675   4.777   1.214   4.425  1.4416 -0.3722 -0.4678
  230MOL0     H31676   4.819   1.368   4.494  0.2038 -0.1055  0.5635
  230MOL0     H31677   4.829   1.275   4.724 -2.4189  0.6974 -0.3927
  230MOL0     H31678   4.779   1.114   4.658  2.7447 -0.9938  2.9158
  230MOL0     H31679   4.978   1.091   4.534  3.3320  1.4682 -1.4872
  230MOL0     H31680   5.006   1.259   4.537 -1.8196  1.3308  1.7552
  230MOL0     H31681   5.010   1.041   4.765  2.3043 -1.8036  0.8627
  230MOL0     H31682   5.027   1.210   4.811  1.6182  1.0728 -1.3822
  230MOL0     H31683   5.228   1.223   4.650 -0.6898  0.2275 -0.2788
  230MOL0     H31684   5.257   1.153   4.811 -0.4409 -2.1244 -0.2626
  230MOL0     H31685   5.348   1.039   4.621 -0.8707 -1.2564  1.3734
  230MOL0     H31686   5.195   1.026   4.546  1.5855  1.0324 -1.1329
  230MOL0     H31687   5.334   0.850   4.710 -0.5151  0.9903 -3.0189
  230MOL0     H31688   5.205   0.894   4.821 -2.2954 -1.9205  0.8017
  230MOL0     H31689   5.285   0.673   4.566 -0.0658  1.3012 -1.6748
  230MOL0     H31690   5.110   0.435   4.513 -1.7601 -2.7818 -1.1887
  230MOL0     H31691   5.123   0.508   4.357  2.1692  0.3546  0.3297
  230MOL0     H31692   4.865   0.434   4.518 -0.4248 -1.7746  0.0693
  230MOL0     H31693   4.864   0.518   4.362 -0.4234  1.4006  2.0033
  230MOL0     H31694   4.981   0.314   4.252  2.8058  0.5048  2.1378
  230MOL0     H31695   4.969   0.240   4.397 -0.9492 -0.0041  0.0266
  230MOL0     H31696   4.806   0.158   4.243 -1.8191  0.0776  1.6254
  230MOL0     H31697   4.726   0.241   4.375  1.5718 -0.0503  2.2277
  230MOL0     H31698   4.626   0.496   4.014  1.8875  0.5992  1.0076
  230MOL0     H31699   4.363   0.474   3.789 -5.3585  2.8561  1.4607
  230MOL0     H31700   4.502   0.553   3.832  0.2603  0.7744  1.9773
  230MOL0     H31701   4.361   0.610   3.912 -0.0100  0.3586  2.2524
  230MOL0     H31702   3.963   0.247   3.846 -0.7469 -0.3367 -0.8799
  230MOL0     H31703   3.729   0.186   3.848  2.6505  2.6828 -1.0414
  230MOL0     H31704   3.619  -0.074   4.193 -1.2801 -0.5731  2.9090
  230MOL0     H31705   3.539   0.056   4.279 -2.1684 -1.2634  0.4595
  230MOL0     H31706   3.348   0.025   4.153  0.5504 -0.1490  2.3869
  230MOL0     H31707   3.428  -0.108   4.047 -1.6852 -1.6947  1.0545
  230MOL0     H31708   3.367  -0.104   4.344  1.2000  0.9028  0.9186
  230MOL0     H31709   3.452  -0.241   4.261 -1.1856 -0.6085  1.5802
  230MOL0     H31710   3.241  -0.252   4.111  3.8677  0.8448  0.2622
  230MOL0     H31711   3.174  -0.149   4.246  0.4204  0.9962  0.0751
  230MOL0     H31712   3.229  -0.448   4.233 -1.4846 -2.6459  2.4934
  230MOL0     H31713   3.293  -0.364   4.368  1.2590 -2.8750 -2.2043
  230MOL0     H31714   3.073  -0.267   4.401  1.5926  0.9010 -0.7728
  230MOL0     H31715   3.079  -0.443   4.423  1.7585  1.1669  0.4905
  230MOL0     H31716   2.974  -0.463   4.187  0.5246 -0.2312  1.5041
  230MOL0     H31717   2.952  -0.291   4.178 -1.3369 -0.2160 -2.1725
  230MOL0     H31718   2.757  -0.393   4.250 -0.1574 -2.9705 -0.7710
  230MOL0     H31719   2.817  -0.307   4.391 -0.4712  0.6442 -0.1441
  230MOL0     H31720   3.768   0.100   4.274 -0.9204  0.3021  0.5653
  230MOL0     H31721   4.017   0.145   4.239  1.9724 -1.3849 -2.6845
  230MOL0     H31722   4.318   0.143   4.175 -1.9003  2.7417  0.5986
  230MOL0     H31723   4.538   0.153   4.263  1.0867  1.1511  2.3143
  230MOL0     H31724   4.405   0.978   4.615 -1.0497 -1.1437  0.2572
  230MOL0     H31725   4.169   0.962   4.543 -1.2167  1.2680  0.6632
  230MOL0     H31726   3.896   0.933   4.322 -0.9220 -1.5730 -0.7738
  230MOL0     H31727   3.719   0.830   4.200 -1.2964  0.5806 -2.7566
  230MOL0     H31728   3.600   0.939   3.985  3.7529 -3.8199  1.8332
  230MOL0     H31729   3.548   0.774   4.030 -2.4671 -0.8712 -0.3775
  230MOL0     H31730   3.353   0.773   3.947  0.2264  0.0997 -3.0104
  230MOL0     H31731   3.451   0.852   3.823  0.1760 -1.2114  0.2440
  230MOL0     H31732   3.264   1.011   4.012 -0.9947 -0.2789 -0.4174
  230MOL0     H31733   3.343   1.063   3.856 -1.5190 -1.4872 -2.8084
  230MOL0     H31734   3.119   1.038   3.814 -0.6412  1.5295  2.3594
  230MOL0     H31735   3.113   0.871   3.893 -0.2288 -0.5486  0.0594
  230MOL0     H31736   3.267   0.778   3.516 -3.3203  2.2227 -1.6939
  230MOL0     H31737   3.478   1.186   4.251 -0.6759 -1.3457  0.0577
  230MOL0     H31738   3.705   1.408   4.313 -1.1736 -0.0095  0.7711
  230MOL0     H31739   3.539   1.363   4.325 -1.4188 -4.2836 -0.6338
  230MOL0     H31740   3.652   1.358   4.468 -0.3301 -2.8048  1.0844
  231MOL0     O31741   7.729   3.041   8.126  0.3605  0.7325  1.1486
  231MOL0     C31742   7.701   3.005   8.012  0.5242  0.1025 -1.1019
  231MOL0     O31743   7.797   2.963   7.923 -0.2887  0.2400  0.4518
  231MOL0     C31744   7.922   3.001   7.934 -0.2075  0.3065  0.1716
  231MOL0     C31745   7.996   2.937   8.031 -1.0616  0.7933 -0.5128
  231MOL0     C31746   8.135   2.965   8.033 -0.1768  0.0551  1.0737
  231MOL0     C31747   8.191   3.067   7.951  0.4908  0.0517 -1.0025
  231MOL0     O31748   8.325   3.078   7.968  0.3920 -0.5568  0.5177
  231MOL0     C31749   8.399   3.069   7.847 -0.4117 -0.0274 -0.0383
  231MOL0     C31750   8.396   2.930   7.796  0.6106 -0.1535  0.1416
  231MOL0     C31751   8.509   2.895   7.708 -0.7144 -0.4108 -0.9251
  231MOL0     C31752   8.500   2.988   7.584 -1.1341  0.1995  0.4056
  231MOL0     C31753   8.615   2.997   7.489  0.5419  0.7988 -0.9669
  231MOL0     C31754   8.566   3.064   7.369  0.7005  1.0213 -0.0641
  231MOL0     C31755   8.664   3.131   7.282 -0.4527  0.1373  0.7267
  231MOL0     C31756   8.778   3.044   7.246 -0.4564  0.3937  0.1355
  231MOL0     N31757   8.731   2.933   7.168 -0.4583  0.3463 -0.1674
  231MOL0     C31758   8.683   2.933   7.039  1.1571 -0.4671 -0.2570
  231MOL0     C31759   8.651   2.805   7.013 -0.0129 -0.8698 -0.0378
  231MOL0     C31760   8.578   2.745   6.886  0.3895  0.1200 -1.5053
  231MOL0     C31761   8.446   2.692   6.940 -0.0541  0.1185  0.2504
  231MOL0     C31762   8.342   2.688   6.824 -0.2906 -0.3660  0.2187
  231MOL0     C31763   8.222   2.585   6.863 -0.3835  0.1328 -0.0717
  231MOL0     O31764   8.123   2.591   6.757 -0.5535  0.1502  0.0763
  231MOL0     C31765   7.995   2.543   6.788 -0.0713 -0.3772  0.0143
  231MOL0     C31766   7.943   2.508   6.910 -0.2234  0.3827 -0.1767
  231MOL0     C31767   7.818   2.456   6.926  0.2509 -0.1971  0.7060
  231MOL0     C31768   7.776   2.434   7.065  0.6146  0.4173 -0.3348
  231MOL0     C31769   7.736   2.433   6.810  0.4222  0.3285 -0.8974
  231MOL0     C31770   7.598   2.380   6.819  0.0957 -0.0807 -0.3040
  231MOL0     O31771   7.555   2.320   6.705  0.2251  0.4680  0.9580
  231MOL0     C31772   7.430   2.252   6.708 -0.6527  0.1426  0.0172
  231MOL0     C31773   7.432   2.119   6.666  0.3192 -0.2934  0.3009
  231MOL0     C31774   7.314   2.049   6.638  0.4025 -0.4178  0.1361
  231MOL0     C31775   7.190   2.114   6.653  0.0355  0.3438  0.1882
  231MOL0     O31776   7.065   2.053   6.621  0.0663  1.3492 -0.6837
  231MOL0     C31777   7.060   1.909   6.605 -0.7764  0.0236  0.7351
  231MOL0     C31778   6.913   1.880   6.587  0.3094  1.2854  0.1068
  231MOL0     C31779   6.904   1.722   6.582 -0.3947 -0.5099  0.6904
  231MOL0     C31780   6.894   1.662   6.719 -0.3684  0.6315 -0.7361
  231MOL0     C31781   6.961   1.523   6.751 -0.2305  0.0730 -0.1049
  231MOL0     C31782   7.102   1.506   6.691  0.2149 -0.6109 -0.1808
  231MOL0     C31783   7.181   1.391   6.754 -0.6222  0.0350  0.4681
  231MOL0     C31784   7.307   1.441   6.832  0.1340 -0.2425 -0.8649
  231MOL0    Cl31785   7.393   1.309   6.928  0.4673  0.5319  0.0506
  231MOL0     C31786   7.187   2.245   6.702  1.0042 -0.3155  0.1501
  231MOL0     C31787   7.306   2.311   6.736  0.3386 -0.0951  1.3315
  231MOL0     O31788   7.535   2.391   6.917  0.7741 -0.7041 -0.2012
  231MOL0     C31789   7.788   2.474   6.681 -0.0932 -0.3722  0.2429
  231MOL0     C31790   7.912   2.531   6.679  0.0977 -0.4793  0.4598
  231MOL0     N31791   8.688   2.724   7.121  1.1537  0.7230  0.6540
  231MOL0     N31792   8.732   2.800   7.212  0.4066 -0.2474 -0.2923
  231MOL0     C31793   8.109   3.140   7.867 -0.9565 -0.3943  0.5295
  231MOL0     C31794   7.980   3.100   7.855  0.3019 -0.8724 -0.6932
  231MOL0     C31795   7.556   2.975   7.970 -0.3955  0.2124  1.1012
  231MOL0     C31796   7.466   3.013   8.064  0.3279 -1.5576 -0.6072
  231MOL0     C31797   7.326   2.992   8.046  0.5786 -0.1756 -0.0221
  231MOL0     C31798   7.285   2.937   7.924 -0.5031 -0.3114  0.0503
  231MOL0     O31799   7.156   2.901   7.898  0.1050 -0.4026  0.1469
  231MOL0     C31800   7.100   2.795   7.976  0.2488 -0.4573 -0.8601
  231MOL0     C31801   7.055   2.830   8.124 -0.9528 -0.2984 -0.5890
  231MOL0     C31802   6.990   2.970   8.137 -0.0841  0.0371 -0.6725
  231MOL0     C31803   6.850   2.961   8.085  0.5899 -0.4792 -0.3991
  231MOL0     C31804   6.783   3.085   8.116 -0.4774  0.3103  0.5987
  231MOL0     C31805   6.726   3.187   8.147 -0.1260 -0.3110 -0.4583
  231MOL0     C31806   7.380   2.908   7.827 -0.5181  0.2528 -0.8250
  231MOL0     C31807   7.512   2.926   7.847 -0.5407  0.2202  0.0847
  231MOL0     C31808   7.598   2.911   7.726  0.4962  0.4518 -0.0936
  231MOL0     H31809   7.950   2.858   8.089 -0.1383  0.1582 -0.6324
  231MOL0     H31810   8.203   2.904   8.091  0.4269 -2.6315 -2.1729
  231MOL0     H31811   8.504   3.101   7.854 -0.7885  1.2570  0.0438
  231MOL0     H31812   8.348   3.132   7.773 -0.8718 -0.2918  0.0512
  231MOL0     H31813   8.384   2.865   7.884  0.7941 -1.3958 -0.7358
  231MOL0     H31814   8.301   2.918   7.744  0.7536 -2.2908  0.2867
  231MOL0     H31815   8.606   2.910   7.758 -0.6263  2.3019 -1.7851
  231MOL0     H31816   8.501   2.791   7.674 -0.3529 -0.8727  0.3392
  231MOL0     H31817   8.411   2.965   7.524  0.1763  1.6990 -2.2645
  231MOL0     H31818   8.488   3.093   7.612  3.4786  1.4932 -1.6095
  231MOL0     H31819   8.655   2.896   7.474  0.2151  0.4683  0.2544
  231MOL0     H31820   8.694   3.055   7.537  0.8721  1.2501 -2.0249
  231MOL0     H31821   8.518   2.980   7.319  0.0187  2.3383 -1.7331
  231MOL0     H31822   8.495   3.140   7.402  3.9480  4.7027 -0.7734
  231MOL0     H31823   8.700   3.220   7.333 -1.0970 -0.8922  3.1050
  231MOL0     H31824   8.610   3.156   7.190 -0.4758 -0.1898  0.6485
  231MOL0     H31825   8.860   3.095   7.196 -0.4018 -1.0836 -1.3761
  231MOL0     H31826   8.826   3.008   7.338 -0.6820  0.9130  0.4599
  231MOL0     H31827   8.657   3.017   6.976 -1.4220 -1.6984 -1.0112
  231MOL0     H31828   8.645   2.681   6.828 -0.8304 -1.7516 -0.9421
  231MOL0     H31829   8.556   2.822   6.811  1.1843  1.6645 -0.2191
  231MOL0     H31830   8.466   2.590   6.974  0.5653  0.4851  1.0071
  231MOL0     H31831   8.410   2.751   7.024  1.7347  1.2483  0.2767
  231MOL0     H31832   8.300   2.788   6.806 -0.9950 -0.3711  1.6773
  231MOL0     H31833   8.394   2.651   6.735 -0.5384 -3.0227  1.0909
  231MOL0     H31834   8.244   2.478   6.875 -1.2895 -0.7921 -4.6913
  231MOL0     H31835   8.172   2.616   6.955 -0.2366  0.1840 -0.0090
  231MOL0     H31836   8.001   2.524   7.000 -1.2528 -0.6793  0.7091
  231MOL0     H31837   7.701   2.506   7.101  2.0617  0.5829  2.6388
  231MOL0     H31838   7.865   2.440   7.129 -0.5749  2.2413  1.2793
  231MOL0     H31839   7.737   2.333   7.076  5.4303 -1.7150 -0.6410
  231MOL0     H31840   7.524   2.062   6.658  0.4200 -0.0900 -0.0247
  231MOL0     H31841   7.321   1.947   6.603 -0.7147 -0.9269  1.3044
  231MOL0     H31842   7.116   1.859   6.526 -1.2355 -0.7423  0.8821
  231MOL0     H31843   7.088   1.868   6.703 -2.0193  0.4177  1.2843
  231MOL0     H31844   6.856   1.918   6.672 -2.5372 -0.6567 -0.7812
  231MOL0     H31845   6.873   1.913   6.491 -2.1950  0.3087  0.7359
  231MOL0     H31846   6.981   1.670   6.525 -1.1766  1.1714 -2.1213
  231MOL0     H31847   6.811   1.693   6.532  0.2751 -2.0556  0.2830
  231MOL0     H31848   6.788   1.645   6.737 -0.1628  0.5360  0.4513
  231MOL0     H31849   6.931   1.731   6.796  0.8734 -2.6686  1.8500
  231MOL0     H31850   6.956   1.520   6.861 -1.3524  1.4452 -0.0831
  231MOL0     H31851   6.895   1.445   6.712 -1.1327  0.5471  0.4245
  231MOL0     H31852   7.165   1.596   6.695  0.3813 -0.6147 -1.9183
  231MOL0     H31853   7.073   1.490   6.587 -0.8134  3.8533 -0.7867
  231MOL0     H31854   7.199   1.332   6.664  0.2167  0.2408  0.4867
  231MOL0     H31855   7.120   1.335   6.826  0.2782  1.5402  2.5139
  231MOL0     H31856   7.289   1.523   6.902  0.9115 -1.3753  0.7091
  231MOL0     H31857   7.364   1.482   6.748 -0.1774  4.3347  0.8711
  231MOL0     H31858   7.096   2.294   6.735  0.6330 -0.0301 -1.2475
  231MOL0     H31859   7.300   2.413   6.770 -1.2423  0.7740 -1.2899
  231MOL0     H31860   7.735   2.460   6.587  0.9494 -1.3933 -0.2123
  231MOL0     H31861   7.953   2.558   6.582  1.3504 -2.7406  0.2807
  231MOL0     H31862   8.146   3.219   7.803 -1.7095  1.0577  1.8094
  231MOL0     H31863   7.927   3.135   7.766  1.1965 -2.4697 -1.9060
  231MOL0     H31864   7.504   3.043   8.162  0.0661 -3.6241  0.1645
  231MOL0     H31865   7.261   3.014   8.130 -3.8833 -0.9058 -2.9308
  231MOL0     H31866   7.005   2.761   7.934  0.1070  0.8381 -1.6227
  231MOL0     H31867   7.163   2.705   7.976  0.1214 -0.6032  1.1165
  231MOL0     H31868   7.144   2.826   8.188 -1.1402  4.1571  0.2591
  231MOL0     H31869   6.989   2.749   8.157  0.1043 -0.9791 -0.1032
  231MOL0     H31870   6.983   2.995   8.244 -3.2380 -2.2766 -0.1990
  231MOL0     H31871   7.035   3.044   8.070 -2.9091  1.2436 -1.4108
  231MOL0     H31872   6.779   2.891   8.130 -2.2230  3.1288  1.1694
  231MOL0     H31873   6.840   2.949   7.976 -1.5839  4.3730 -0.9748
  231MOL0     H31874   6.675   3.276   8.179  0.6029 -0.0097 -0.1286
  231MOL0     H31875   7.332   2.874   7.736  0.3618  5.5064 -3.6870
  231MOL0     H31876   7.659   3.001   7.712  0.0221  1.1265  1.9091
  231MOL0     H31877   7.659   2.820   7.726 -1.7820 -1.1597  0.2561
  231MOL0     H31878   7.535   2.893   7.638 -0.5522 -2.2905  1.1163
  232MOL0     O31879  10.055   8.258   0.904  0.2449 -0.0634  0.0704
  232MOL0     C31880  10.069   8.330   0.809 -0.0325 -0.6261 -0.0327
  232MOL0     O31881  10.174   8.416   0.790  0.1251 -0.4779  1.0249
  232MOL0     C31882  10.281   8.388   0.874 -0.6756  0.3613 -0.7874
  232MOL0     C31883  10.359   8.273   0.859  0.5889  0.6203  0.2538
  232MOL0     C31884  10.474   8.252   0.938  0.2206  0.2538  0.2482
  232MOL0     C31885  10.513   8.343   1.036  0.0248 -0.8911  0.4622
  232MOL0     O31886  10.609   8.327   1.137 -0.7191  0.4376  0.6398
  232MOL0     C31887  10.710   8.232   1.113 -0.0205 -0.5678  0.3432
  232MOL0     C31888  10.810   8.250   1.229  0.0595 -0.8761  0.1823
  232MOL0     C31889  10.950   8.226   1.182 -0.2981 -0.0105  0.0275
  232MOL0     C31890  11.053   8.337   1.182 -1.2444 -0.3171 -0.4677
  232MOL0     C31891  11.070   8.407   1.318  0.0178  0.2491  0.6561
  232MOL0     C31892  11.100   8.557   1.308  0.1285 -0.7828 -0.3729
  232MOL0     C31893  11.255   8.583   1.280 -0.7323  0.4566  0.3380
  232MOL0     C31894  11.279   8.728   1.271  0.3390  0.8844  0.0769
  232MOL0     N31895  11.417   8.751   1.245 -0.2960  0.3604  0.3296
  232MOL0     C31896  11.471   8.836   1.153  0.4294 -0.1642 -0.6289
  232MOL0     C31897  11.604   8.819   1.171 -0.1431 -0.2366  0.5365
  232MOL0     C31898  11.701   8.901   1.099  0.3525 -0.1660  0.1770
  232MOL0     C31899  11.795   8.983   1.178 -0.2317 -0.5212  0.3459
  232MOL0     C31900  11.905   9.041   1.085  1.0684  0.2936 -0.1598
  232MOL0     C31901  12.008   9.113   1.176 -0.4100 -0.5727 -0.4529
  232MOL0     O31902  12.135   9.143   1.108  0.7997  0.0628 -0.4705
  232MOL0     C31903  12.249   9.195   1.169 -0.5167 -0.5070 -0.1452
  232MOL0     C31904  12.260   9.206   1.303  0.0598  0.6347 -0.4632
  232MOL0     C31905  12.371   9.264   1.369  0.0112  0.5206  0.2567
  232MOL0     C31906  12.364   9.259   1.526  0.4125  0.5407  0.6997
  232MOL0     C31907  12.473   9.329   1.299  0.4020  0.9310  0.7519
  232MOL0     C31908  12.589   9.408   1.354  0.4039  0.2894 -0.9040
  232MOL0     O31909  12.617   9.409   1.490  0.1640 -0.4073  0.7107
  232MOL0     C31910  12.725   9.465   1.550  0.0128  0.4386 -0.8813
  232MOL0     C31911  12.833   9.541   1.495 -0.6216 -0.5327 -0.7082
  232MOL0     C31912  12.933   9.599   1.584  0.5758 -0.3152  1.2119
  232MOL0     C31913  12.927   9.573   1.725  0.2801  0.9998  0.0932
  232MOL0     O31914  13.020   9.631   1.813  0.3980 -0.0394  0.1192
  232MOL0     C31915  12.960   9.689   1.926  0.2550 -0.5921 -0.3806
  232MOL0     C31916  12.971   9.845   1.913 -1.2704  0.2889  1.2122
  232MOL0     C31917  12.893   9.913   1.803  1.2594 -1.1977  0.8821
  232MOL0     C31918  12.957  10.042   1.759  0.1516 -0.2472 -0.7731
  232MOL0     C31919  13.084  10.007   1.674  0.2666 -0.4229  0.9856
  232MOL0     C31920  13.152  10.139   1.623 -0.1938 -0.1635 -0.1504
  232MOL0     C31921  13.264  10.181   1.713  0.3974  0.1986  0.3087
  232MOL0     C31922  13.213  10.262   1.824  0.4677  0.3018  0.0798
  232MOL0    Cl31923  13.343  10.369   1.894  0.7094  0.1387 -0.0602
  232MOL0     C31924  12.832   9.478   1.769  0.7854  0.2418  0.3370
  232MOL0     C31925  12.736   9.420   1.682 -0.1947 -1.0769  0.2536
  232MOL0     O31926  12.642   9.475   1.269 -0.5207 -0.7446 -0.5364
  232MOL0     C31927  12.472   9.290   1.155 -0.0346 -0.3758 -1.5480
  232MOL0     C31928  12.368   9.224   1.088  0.2017 -0.0088  0.2430
  232MOL0     N31929  11.626   8.744   1.283 -0.6289 -0.4121 -0.5325
  232MOL0     N31930  11.512   8.703   1.326  0.0089 -0.5857 -0.1862
  232MOL0     C31931  10.428   8.456   1.046  0.1602 -0.7841  0.7645
  232MOL0     C31932  10.318   8.478   0.963 -0.6041  0.4526  0.2067
  232MOL0     C31933   9.953   8.341   0.717  0.0090 -0.2825 -0.3349
  232MOL0     C31934   9.866   8.224   0.706 -0.9149  0.0939  0.0483
  232MOL0     C31935   9.763   8.218   0.618 -0.7423  0.2475 -0.2106
  232MOL0     C31936   9.732   8.329   0.547 -1.6086 -1.1589 -0.9693
  232MOL0     O31937   9.630   8.346   0.465  0.3902 -0.1209  0.0803
  232MOL0     C31938   9.527   8.247   0.475  0.5037 -0.5595 -0.4646
  232MOL0     C31939   9.407   8.282   0.382 -0.5999  1.0289  0.9219
  232MOL0     C31940   9.345   8.415   0.413 -0.4119  0.5153  0.1321
  232MOL0     C31941   9.251   8.416   0.539 -0.1741  0.1360 -0.2606
  232MOL0     C31942   9.169   8.525   0.554  0.3840  0.0582  0.7332
  232MOL0     C31943   9.080   8.611   0.578 -1.0795 -0.0996 -0.9273
  232MOL0     C31944   9.810   8.448   0.564 -1.0425  0.5640 -0.1089
  232MOL0     C31945   9.921   8.455   0.646 -1.2432 -0.3814 -0.1780
  232MOL0     C31946   9.990   8.589   0.645  0.9114  0.7363  0.7855
  232MOL0     H31947  10.347   8.214   0.769  0.1593  0.0445  0.6791
  232MOL0     H31948  10.520   8.153   0.937  2.0512  1.0012  2.1716
  232MOL0     H31949  10.758   8.255   1.017  1.9357 -0.7669  1.2286
  232MOL0     H31950  10.672   8.130   1.120 -2.0867  0.0849 -0.4791
  232MOL0     H31951  10.793   8.354   1.259 -1.9723 -1.7709  2.4403
  232MOL0     H31952  10.792   8.184   1.314 -0.9258 -1.3777 -0.4054
  232MOL0     H31953  10.982   8.141   1.242  0.7800  0.8309  0.6748
  232MOL0     H31954  10.951   8.202   1.075  1.2434 -0.6445  0.1618
  232MOL0     H31955  11.149   8.299   1.146 -1.5381 -1.7716  0.2088
  232MOL0     H31956  11.025   8.404   1.100  1.5499  1.1634 -0.3433
  232MOL0     H31957  11.151   8.358   1.374  1.4902 -1.6406 -2.7398
  232MOL0     H31958  10.981   8.394   1.379 -0.4107 -3.7811 -0.5176
  232MOL0     H31959  11.030   8.612   1.245  0.0173  2.7908  2.5638
  232MOL0     H31960  11.090   8.601   1.408  0.2226 -0.2716 -0.5878
  232MOL0     H31961  11.287   8.529   1.190  1.0217 -2.5522  2.6008
  232MOL0     H31962  11.321   8.554   1.361 -0.4498  2.7410  0.9836
  232MOL0     H31963  11.221   8.771   1.189  1.8655 -0.3278 -1.7393
  232MOL0     H31964  11.242   8.770   1.365 -0.2643 -1.5209  0.9852
  232MOL0     H31965  11.425   8.896   1.075  0.9561  2.2415  0.8105
  232MOL0     H31966  11.650   8.970   1.031 -0.1430  0.9533  1.6115
  232MOL0     H31967  11.757   8.828   1.040  0.0235 -0.3491  0.0899
  232MOL0     H31968  11.743   9.063   1.231 -1.7262  0.0106 -1.8059
  232MOL0     H31969  11.838   8.926   1.261  1.0634  0.2162  0.2033
  232MOL0     H31970  11.958   8.957   1.038  0.1595  1.7371 -4.1777
  232MOL0     H31971  11.863   9.094   0.999  4.2081 -1.9592 -3.3861
  232MOL0     H31972  11.960   9.201   1.219 -0.4749  0.0740 -1.7937
  232MOL0     H31973  12.043   9.046   1.255  0.9412  0.2432 -0.3227
  232MOL0     H31974  12.181   9.172   1.370 -1.9630  3.5492 -1.1715
  232MOL0     H31975  12.260   9.228   1.544 -0.0339  2.5145  1.9876
  232MOL0     H31976  12.379   9.356   1.576  1.0969 -0.0713  1.7261
  232MOL0     H31977  12.439   9.189   1.564  0.4758  0.5195  0.5345
  232MOL0     H31978  12.838   9.573   1.391 -2.8507 -1.2828 -1.0993
  232MOL0     H31979  12.997   9.684   1.561  0.6622 -0.5939  0.4109
  232MOL0     H31980  12.857   9.663   1.951  1.3223 -5.0460  0.2150
  232MOL0     H31981  13.028   9.664   2.009  1.8256 -1.3931 -1.8510
  232MOL0     H31982  12.950   9.898   2.007  0.5672  1.4658  0.9979
  232MOL0     H31983  13.079   9.855   1.906 -1.1710 -0.5837  1.3139
  232MOL0     H31984  12.794   9.943   1.838  1.2315  1.0270 -0.8521
  232MOL0     H31985  12.871   9.845   1.720 -0.5309  0.0558  0.2609
  232MOL0     H31986  12.988  10.102   1.845 -1.7259 -2.3545  1.5537
  232MOL0     H31987  12.886  10.091   1.691 -0.3212 -2.1291 -1.7116
  232MOL0     H31988  13.160   9.949   1.726  2.9385 -0.6163 -2.7151
  232MOL0     H31989  13.046   9.939   1.597  1.4240 -2.5600  2.2238
  232MOL0     H31990  13.082  10.221   1.608  0.9112  0.6518 -0.9912
  232MOL0     H31991  13.191  10.115   1.524 -1.3017  1.1466 -0.9250
  232MOL0     H31992  13.328  10.244   1.649 -0.6641  0.2359 -0.7569
  232MOL0     H31993  13.328  10.104   1.756  0.4820  0.3844  0.5183
  232MOL0     H31994  13.184  10.194   1.904  2.3437 -0.2735  0.3032
  232MOL0     H31995  13.131  10.334   1.811 -0.0960  0.2627  2.9193
  232MOL0     H31996  12.842   9.446   1.872 -0.5858  0.2804  0.4909
  232MOL0     H31997  12.663   9.347   1.716 -2.1268  0.5125 -0.3241
  232MOL0     H31998  12.563   9.311   1.100  1.7295  0.1155  1.3181
  232MOL0     H31999  12.372   9.200   0.982  0.4348 -1.1546  0.5073
  232MOL0     H32000  10.471   8.540   1.099  1.3034 -1.0223  0.2505
  232MOL0     H32001  10.258   8.569   0.964 -2.6194 -0.8194  1.1198
  232MOL0     H32002   9.878   8.140   0.774  4.8812  0.1764 -0.4064
  232MOL0     H32003   9.701   8.129   0.609  1.1075 -0.8832 -2.9839
  232MOL0     H32004   9.568   8.150   0.446  3.2226 -0.5144  2.6016
  232MOL0     H32005   9.505   8.245   0.583  0.4338 -2.4210 -0.4875
  232MOL0     H32006   9.335   8.199   0.374 -1.7339  1.9345  1.4114
  232MOL0     H32007   9.441   8.299   0.280 -1.0273  3.4171  1.1296
  232MOL0     H32008   9.434   8.475   0.428  2.3275 -3.1215 -0.1228
  232MOL0     H32009   9.292   8.467   0.332 -0.3440 -0.0210 -0.2639
  232MOL0     H32010   9.311   8.409   0.630 -0.4001  3.1295  0.2320
  232MOL0     H32011   9.178   8.335   0.534  1.0321 -0.8866 -2.7510
  232MOL0     H32012   8.992   8.671   0.590 -1.4407 -0.8189  0.1070
  232MOL0     H32013   9.766   8.540   0.527 -1.2069  0.4859 -0.1099
  232MOL0     H32014   9.933   8.658   0.582 -1.1826 -1.5751  0.0277
  232MOL0     H32015  10.011   8.624   0.747  4.4000 -1.7640  1.0908
  232MOL0     H32016  10.088   8.584   0.597 -0.0638 -1.6203 -1.1187
  233MOL0     O32017   9.343   9.983   5.714 -0.2660 -0.4698  0.2635
  233MOL0     C32018   9.269   9.892   5.696  0.2197  0.1257 -0.2380
  233MOL0     O32019   9.304   9.762   5.684 -0.8110 -0.6760 -1.1475
  233MOL0     C32020   9.438   9.730   5.689  0.5405  0.7694  0.2983
  233MOL0     C32021   9.525   9.772   5.595 -0.7981 -0.9177 -0.4224
  233MOL0     C32022   9.660   9.729   5.588 -0.2566  1.0370 -0.9301
  233MOL0     C32023   9.705   9.648   5.696 -0.2102  0.1087  1.3358
  233MOL0     O32024   9.833   9.598   5.693  0.2211  0.4209 -0.2328
  233MOL0     C32025   9.931   9.682   5.759  0.4605  0.1830  0.8582
  233MOL0     C32026   9.966   9.806   5.674 -0.7493 -0.3769  0.1582
  233MOL0     C32027  10.022   9.749   5.546  1.0012  0.5073  0.0086
  233MOL0     C32028  10.119   9.858   5.480  1.1427 -0.0160 -0.0186
  233MOL0     C32029  10.209   9.791   5.372 -0.4822  0.9396  0.3012
  233MOL0     C32030  10.250   9.881   5.252  0.2898  0.3250 -0.3040
  233MOL0     C32031  10.352   9.995   5.270 -0.0716 -0.6889  0.5755
  233MOL0     C32032  10.371  10.081   5.148 -0.1517  0.3128  0.1242
  233MOL0     N32033  10.482  10.169   5.193  0.0677 -0.7365  0.4038
  233MOL0     C32034  10.462  10.301   5.239 -0.3717  0.4759 -0.8271
  233MOL0     C32035  10.579  10.326   5.293  0.3597  0.5726  0.0814
  233MOL0     C32036  10.630  10.451   5.354 -1.0362 -0.0263 -0.0484
  233MOL0     C32037  10.730  10.537   5.272 -0.4823 -0.2711 -0.0553
  233MOL0     C32038  10.808  10.630   5.367  0.0169 -0.0185  0.4058
  233MOL0     C32039  10.907  10.713   5.286  0.2477 -0.6123  0.2671
  233MOL0     O32040  10.838  10.789   5.190  0.7000  0.0765  0.8053
  233MOL0     C32041  10.903  10.842   5.087 -0.0334 -0.0027 -0.6386
  233MOL0     C32042  10.819  10.881   4.977 -0.0461  0.2635 -0.1999
  233MOL0     C32043  10.877  10.952   4.873  0.9062  0.7985  0.2401
  233MOL0     C32044  10.785  10.995   4.762  0.0386  0.5142  0.2146
  233MOL0     C32045  11.011  10.986   4.867 -0.2237 -0.0632  0.8088
  233MOL0     C32046  11.086  11.043   4.754  0.0030 -0.3468  0.0379
  233MOL0     O32047  11.210  11.105   4.782  0.5719  0.5319 -0.0596
  233MOL0     C32048  11.283  11.133   4.673 -0.5072  0.0099  0.1675
  233MOL0     C32049  11.352  11.035   4.601  0.6273  0.9671 -0.5550
  233MOL0     C32050  11.428  11.058   4.489  0.2323  0.0460 -0.3836
  233MOL0     C32051  11.432  11.194   4.437  0.5141  0.3201  0.0842
  233MOL0     O32052  11.516  11.220   4.336 -0.1800  0.3810 -0.0713
  233MOL0     C32053  11.647  11.271   4.368  0.6257 -0.5598 -0.2520
  233MOL0     C32054  11.761  11.177   4.327  0.0273  0.2806  0.0786
  233MOL0     C32055  11.856  11.243   4.239 -0.3951 -0.1879  0.5256
  233MOL0     C32056  11.972  11.150   4.183 -0.3048  0.4020  0.6374
  233MOL0     C32057  12.066  11.224   4.081 -1.1305 -0.2439 -0.0870
  233MOL0     C32058  12.157  11.127   4.008 -0.3994 -0.1907  0.4367
  233MOL0     C32059  12.215  11.199   3.872 -0.8819  0.3981 -0.0073
  233MOL0     C32060  12.319  11.116   3.797  0.3764 -0.3632 -0.3338
  233MOL0    Cl32061  12.428  11.220   3.704  0.4982 -0.2043  0.0106
  233MOL0     C32062  11.368  11.297   4.510  0.7627 -0.5948 -0.0366
  233MOL0     C32063  11.289  11.262   4.627  0.7192 -0.5546  0.7383
  233MOL0     O32064  11.039  11.023   4.638 -0.2222  0.4613 -0.6577
  233MOL0     C32065  11.083  10.961   4.988 -0.1711  0.2418 -0.5829
  233MOL0     C32066  11.033  10.889   5.094 -0.3595  0.7636  0.0170
  233MOL0     N32067  10.669  10.222   5.273  0.4330  0.0232  0.3872
  233MOL0     N32068  10.613  10.130   5.207  0.0703 -0.6365 -0.6623
  233MOL0     C32069   9.612   9.593   5.781  0.2351  0.0777 -0.3054
  233MOL0     C32070   9.483   9.627   5.770  0.3463  0.4860  0.4324
  233MOL0     C32071   9.124   9.902   5.704  0.2924 -0.6353 -0.1029
  233MOL0     C32072   9.051   9.783   5.740 -0.0629 -0.4709  0.4700
  233MOL0     C32073   8.916   9.796   5.780  0.8020 -0.0576 -0.3560
  233MOL0     C32074   8.857   9.918   5.788  0.3051 -0.0036  0.0780
  233MOL0     O32075   8.724   9.921   5.833 -0.5065  0.4693  0.0844
  233MOL0     C32076   8.681  10.027   5.915 -0.0887 -0.0070 -0.8370
  233MOL0     C32077   8.541   9.996   5.978  0.7909 -0.0062  0.4346
  233MOL0     C32078   8.510  10.090   6.097 -0.7182 -0.3750  0.1565
  233MOL0     C32079   8.395  10.032   6.183  0.6177  0.1774  0.0814
  233MOL0     C32080   8.265  10.017   6.110 -0.1672  0.0472  0.1485
  233MOL0     C32081   8.161  10.003   6.052  0.0491  0.3896 -0.1648
  233MOL0     C32082   8.931  10.035   5.757 -0.6671  0.0390 -0.2500
  233MOL0     C32083   9.059  10.032   5.709  0.3021  0.6775 -0.3124
  233MOL0     C32084   9.124  10.152   5.649  0.0449  0.3232 -0.3114
  233MOL0     H32085   9.489   9.845   5.523  1.4109  1.0988  0.3992
  233MOL0     H32086   9.732   9.782   5.525  1.6761 -1.5318 -1.0144
  233MOL0     H32087  10.023   9.627   5.784  0.7349 -0.8287 -2.0594
  233MOL0     H32088   9.897   9.711   5.859 -2.2870  0.1869 -0.0102
  233MOL0     H32089   9.889   9.881   5.655  0.4317  0.6780 -0.6477
  233MOL0     H32090  10.037   9.870   5.727 -0.5252 -0.4902 -0.0021
  233MOL0     H32091  10.086   9.665   5.574 -0.0078 -0.6436 -1.0560
  233MOL0     H32092   9.941   9.713   5.482  2.0324 -0.6394 -0.6943
  233MOL0     H32093  10.064   9.937   5.428  2.0837  2.2330  2.2058
  233MOL0     H32094  10.188   9.910   5.547  0.5295 -1.4539  1.8366
  233MOL0     H32095  10.168   9.700   5.326 -0.3108  0.7245  0.5660
  233MOL0     H32096  10.296   9.749   5.424  0.3662  0.0926 -1.6900
  233MOL0     H32097  10.295   9.813   5.180  0.3416 -0.1683  0.1870
  233MOL0     H32098  10.162   9.923   5.203 -0.9993 -2.6497 -0.7084
  233MOL0     H32099  10.451   9.951   5.288  1.2388  1.9081  0.1769
  233MOL0     H32100  10.314  10.064   5.346 -0.8045  1.5447 -1.6901
  233MOL0     H32101  10.417  10.024   5.067  0.0116  0.7821 -0.1184
  233MOL0     H32102  10.283  10.132   5.109 -0.1125  1.1187  1.0429
  233MOL0     H32103  10.374  10.362   5.221 -2.5688 -2.5926 -1.3687
  233MOL0     H32104  10.686  10.422   5.443 -0.5580  0.6375 -0.1258
  233MOL0     H32105  10.538  10.500   5.387  0.4112  0.8031  3.1074
  233MOL0     H32106  10.802  10.481   5.212  4.8517  4.4199  1.0907
  233MOL0     H32107  10.667  10.597   5.206  0.3393  0.9516  0.2335
  233MOL0     H32108  10.733  10.689   5.420 -0.3239 -0.7651  0.7676
  233MOL0     H32109  10.873  10.581   5.440  1.9770 -0.9353 -1.8370
  233MOL0     H32110  10.944  10.785   5.359 -0.7936 -0.8014  0.9958
  233MOL0     H32111  10.973  10.646   5.230 -0.5077 -1.0089 -0.1656
  233MOL0     H32112  10.715  10.855   4.989  0.5900 -1.0955  3.7016
  233MOL0     H32113  10.683  11.015   4.796 -0.4513 -0.7882 -0.4410
  233MOL0     H32114  10.770  10.919   4.686  0.9499 -0.2377  0.7622
  233MOL0     H32115  10.818  11.086   4.711 -0.4528 -0.4548 -1.9343
  233MOL0     H32116  11.352  10.931   4.632  1.0033  1.4452  1.1414
  233MOL0     H32117  11.479  10.973   4.444  2.9903 -0.2053  2.7681
  233MOL0     H32118  11.663  11.362   4.311 -0.5556 -0.9438 -1.2255
  233MOL0     H32119  11.661  11.294   4.475 -0.7748 -0.6046 -0.0420
  233MOL0     H32120  11.795  11.147   4.427 -4.2950 -0.7121  1.4788
  233MOL0     H32121  11.721  11.087   4.282  1.3361 -0.7591  0.9006
  233MOL0     H32122  11.902  11.335   4.277  2.6651 -0.5658 -1.9486
  233MOL0     H32123  11.796  11.277   4.155 -2.9284 -2.8438  1.0714
  233MOL0     H32124  11.925  11.062   4.138  1.9020 -1.5546  1.9338
  233MOL0     H32125  12.030  11.117   4.270  1.3557  1.3371 -0.0590
  233MOL0     H32126  12.001  11.271   4.007 -3.2419 -0.8080  1.3159
  233MOL0     H32127  12.126  11.308   4.116 -0.0354 -1.1805  0.3481
  233MOL0     H32128  12.104  11.035   3.980  0.8031 -1.0461  0.9017
  233MOL0     H32129  12.240  11.099   4.073  1.9764 -1.8881 -3.0622
  233MOL0     H32130  12.259  11.293   3.904 -0.4245  0.8493 -1.8421
  233MOL0     H32131  12.134  11.230   3.806 -0.6637  1.7651  0.3447
  233MOL0     H32132  12.268  11.043   3.734  0.5626 -0.1304 -0.7599
  233MOL0     H32133  12.385  11.060   3.865  2.7405  2.7832  0.1974
  233MOL0     H32134  11.363  11.395   4.463  3.0837  1.2331  3.1809
  233MOL0     H32135  11.243  11.347   4.676  0.2849 -0.1873 -0.2622
  233MOL0     H32136  11.189  10.979   5.002 -0.8246  3.0823  1.7333
  233MOL0     H32137  11.083  10.869   5.188  1.5545 -0.1736 -1.1479
  233MOL0     H32138   9.644   9.515   5.849 -1.8990 -2.4448 -1.9483
  233MOL0     H32139   9.407   9.588   5.836  0.3651 -0.3120  0.0085
  233MOL0     H32140   9.093   9.683   5.741  0.5080 -0.2434  1.6112
  233MOL0     H32141   8.861   9.710   5.817  1.3986 -1.3801 -2.3704
  233MOL0     H32142   8.753  10.028   5.996  1.4173 -3.5490 -1.9610
  233MOL0     H32143   8.671  10.124   5.865  0.8107  0.8574  0.5905
  233MOL0     H32144   8.528   9.890   6.002 -3.3384  0.6424  1.8481
  233MOL0     H32145   8.465  10.015   5.902  0.3196 -0.0947  0.8795
  233MOL0     H32146   8.602  10.105   6.154 -1.6206  0.1984  1.5181
  233MOL0     H32147   8.485  10.191   6.064  0.3387  1.2173  3.7138
  233MOL0     H32148   8.375  10.099   6.267  4.6761  1.3395  0.3496
  233MOL0     H32149   8.432   9.939   6.228  3.5817  1.9340  1.5713
  233MOL0     H32150   8.061   9.995   6.015  0.3269  0.9650 -1.0676
  233MOL0     H32151   8.875  10.127   5.754 -2.6516 -1.1435 -1.8767
  233MOL0     H32152   9.050  10.229   5.626 -0.2772  0.3789  0.8124
  233MOL0     H32153   9.193  10.206   5.714 -0.5692  1.0176 -0.2250
  233MOL0     H32154   9.185  10.120   5.564  2.6095 -0.3916  1.6684
  234MOL0     O32155  10.025   4.543   0.824 -0.7516  0.8276  1.0610
  234MOL0     C32156   9.943   4.626   0.782  0.5401  0.5243 -0.0837
  234MOL0     O32157   9.806   4.610   0.779 -0.5467 -0.2328 -0.0961
  234MOL0     C32158   9.756   4.484   0.786 -0.0954  0.1095  0.4305
  234MOL0     C32159   9.791   4.375   0.871 -0.3420  0.2614 -0.0658
  234MOL0     C32160   9.725   4.251   0.866  0.3309 -0.4038  0.6420
  234MOL0     C32161   9.623   4.231   0.778 -0.9873  0.1798 -0.4674
  234MOL0     O32162   9.577   4.103   0.755  0.3442 -0.0925 -0.7068
  234MOL0     C32163   9.438   4.089   0.702 -0.5265  0.6867  0.8434
  234MOL0     C32164   9.367   3.972   0.773 -0.5264  0.0143 -0.3396
  234MOL0     C32165   9.361   3.980   0.925  0.2337  0.0123 -0.3315
  234MOL0     C32166   9.252   3.893   0.978 -0.4693 -0.2721 -0.2069
  234MOL0     C32167   9.311   3.749   0.990  0.6580  0.4143 -0.5497
  234MOL0     C32168   9.194   3.670   1.061 -0.8659 -0.5110  0.1127
  234MOL0     C32169   9.222   3.531   1.095 -0.8082  0.4448 -1.2010
  234MOL0     C32170   9.269   3.456   0.976 -0.0733 -0.4911  0.0914
  234MOL0     N32171   9.254   3.310   1.002 -0.5171  0.3861 -0.5490
  234MOL0     C32172   9.356   3.236   1.051  0.5033  0.7371  0.2824
  234MOL0     C32173   9.303   3.124   1.098  0.9566 -0.4547 -0.0288
  234MOL0     C32174   9.375   3.028   1.189  0.0778  0.5577  0.0690
  234MOL0     C32175   9.470   2.928   1.124  0.1403  0.4589  0.3986
  234MOL0     C32176   9.607   2.983   1.097 -0.4825  0.2241 -0.6465
  234MOL0     C32177   9.669   2.930   0.969  0.0740 -0.4137 -0.0568
  234MOL0     O32178   9.699   2.786   0.979 -0.3831  0.6610  0.5120
  234MOL0     C32179   9.733   2.731   0.857 -0.2473  0.8384  0.7172
  234MOL0     C32180   9.863   2.734   0.811 -0.2829 -0.2147  0.1870
  234MOL0     C32181   9.904   2.691   0.675  0.6811  0.4944 -0.1452
  234MOL0     C32182  10.049   2.723   0.632  0.1142  0.5473  1.1535
  234MOL0     C32183   9.810   2.638   0.586  0.5555 -0.0745 -0.3019
  234MOL0     C32184   9.841   2.618   0.440  0.2592 -0.9577 -0.6096
  234MOL0     O32185   9.724   2.592   0.375  0.6691  0.0079 -0.2166
  234MOL0     C32186   9.715   2.606   0.238  1.0185 -0.2268 -0.0065
  234MOL0     C32187   9.799   2.549   0.137  0.1980 -0.5460  0.0286
  234MOL0     C32188   9.773   2.555   0.007 -0.1042  0.7556  0.0907
  234MOL0     C32189   9.676   2.641  -0.032  0.4216 -0.5338  0.6890
  234MOL0     O32190   9.644   2.675  -0.164  0.3649  0.2649  0.5885
  234MOL0     C32191   9.754   2.691  -0.258 -0.6501  0.8903 -0.2679
  234MOL0     C32192   9.708   2.744  -0.398 -0.4515  0.0284 -0.7513
  234MOL0     C32193   9.818   2.743  -0.502  0.0396  0.0421  1.0334
  234MOL0     C32194   9.848   2.596  -0.550 -0.2887 -0.1032  0.0029
  234MOL0     C32195   9.989   2.575  -0.613  0.4669 -0.2759 -1.0298
  234MOL0     C32196  10.023   2.665  -0.727  0.2833 -0.3693 -0.0336
  234MOL0     C32197  10.163   2.640  -0.762  0.4002 -0.0138 -0.6283
  234MOL0     C32198  10.176   2.683  -0.912  1.1095  0.3498 -0.0614
  234MOL0    Cl32199  10.097   2.564  -1.026  0.0988 -0.1460  0.3858
  234MOL0     C32200   9.588   2.697   0.058  0.0645  0.4387  0.0058
  234MOL0     C32201   9.602   2.677   0.197 -0.8630  0.4652 -0.5098
  234MOL0     O32202   9.951   2.600   0.393 -0.1058  0.2428  0.4757
  234MOL0     C32203   9.680   2.630   0.642 -0.3519  1.1450  1.4767
  234MOL0     C32204   9.637   2.672   0.768 -0.7561 -0.9378 -0.2161
  234MOL0     N32205   9.176   3.115   1.055 -0.3880  0.0996 -0.1309
  234MOL0     N32206   9.143   3.227   0.994 -0.2134  0.0658 -0.0439
  234MOL0     C32207   9.590   4.337   0.690  0.1902 -0.2821  0.0900
  234MOL0     C32208   9.655   4.462   0.694  0.7172  0.4941  0.0594
  234MOL0     C32209   9.978   4.770   0.754  0.2095  0.2668 -0.1281
  234MOL0     C32210   9.876   4.870   0.747 -0.0387 -0.0680 -0.9486
  234MOL0     C32211   9.900   5.007   0.729 -0.3255 -0.5054  0.3154
  234MOL0     C32212  10.032   5.046   0.714 -0.1155  0.8463  0.5489
  234MOL0     O32213  10.065   5.183   0.699 -0.2607 -0.5119  0.1110
  234MOL0     C32214   9.962   5.278   0.663  0.3857 -0.1026  0.1233
  234MOL0     C32215  10.035   5.396   0.599 -0.0658  0.7760  0.3330
  234MOL0     C32216  10.150   5.356   0.501  0.6284 -0.4218 -0.1973
  234MOL0     C32217  10.115   5.274   0.374  0.2324 -0.5126  0.2177
  234MOL0     C32218  10.014   5.339   0.296 -0.6277 -0.2317  0.3855
  234MOL0     C32219   9.932   5.403   0.232  0.8217 -0.7998 -0.7426
  234MOL0     C32220  10.135   4.943   0.716  0.3548 -0.3887  0.1965
  234MOL0     C32221  10.111   4.810   0.747 -0.6396 -0.5312  0.3220
  234MOL0     C32222  10.228   4.725   0.758  0.5026  0.3921 -0.2976
  234MOL0     H32223   9.855   4.392   0.956 -0.4837  0.3412  0.0260
  234MOL0     H32224   9.748   4.157   0.915  0.7847 -0.3902  0.4602
  234MOL0     H32225   9.442   4.066   0.595  0.4623  0.1209  0.9927
  234MOL0     H32226   9.375   4.176   0.725 -0.1313  1.1603  0.1790
  234MOL0     H32227   9.270   3.990   0.726  0.9436  3.4388 -2.5127
  234MOL0     H32228   9.388   3.867   0.754  2.2611  0.0146  2.0745
  234MOL0     H32229   9.453   3.942   0.969 -0.7518 -1.6391  0.3755
  234MOL0     H32230   9.324   4.080   0.950 -1.0940 -0.7339  0.8463
  234MOL0     H32231   9.212   3.933   1.071 -2.5501 -0.9765 -0.7439
  234MOL0     H32232   9.171   3.887   0.905  0.1628 -0.5666 -0.9084
  234MOL0     H32233   9.403   3.744   1.049 -0.2979 -0.6714  0.9172
  234MOL0     H32234   9.328   3.703   0.892  0.1836 -0.2134 -0.3476
  234MOL0     H32235   9.160   3.724   1.150  0.2197 -2.0944  1.5568
  234MOL0     H32236   9.112   3.668   0.989  0.0454  0.1957 -0.9723
  234MOL0     H32237   9.136   3.478   1.138  1.0846 -0.3355  1.9996
  234MOL0     H32238   9.298   3.514   1.172 -3.5878 -1.0814  1.4547
  234MOL0     H32239   9.205   3.474   0.889 -0.9424 -0.1509  0.7896
  234MOL0     H32240   9.373   3.477   0.950  0.3674 -0.5850  1.7051
  234MOL0     H32241   9.455   3.278   1.065 -0.7307  5.2280 -2.3262
  234MOL0     H32242   9.299   2.969   1.241  2.4450 -0.9431  1.9714
  234MOL0     H32243   9.424   3.080   1.272  1.9174 -2.9472  1.3608
  234MOL0     H32244   9.485   2.847   1.197  1.6758  0.7384  0.4235
  234MOL0     H32245   9.426   2.897   1.029 -0.4482  1.0682  0.4675
  234MOL0     H32246   9.600   3.091   1.086 -0.1578  0.3768  0.5201
  234MOL0     H32247   9.676   2.948   1.175 -0.8295 -1.5544 -1.0836
  234MOL0     H32248   9.604   2.948   0.882 -0.0345 -0.4934  0.0072
  234MOL0     H32249   9.762   2.986   0.958  0.3535 -0.4730  1.7051
  234MOL0     H32250   9.945   2.782   0.864 -0.3538  0.5917 -0.4029
  234MOL0     H32251  10.113   2.765   0.710  0.9292 -0.1024  0.8481
  234MOL0     H32252  10.059   2.801   0.556  3.8967 -1.5838 -0.8451
  234MOL0     H32253  10.094   2.636   0.583 -1.4747  0.8475 -1.0203
  234MOL0     H32254   9.888   2.491   0.161  0.8220 -0.0139 -0.9266
  234MOL0     H32255   9.830   2.498  -0.065 -2.3506 -2.7615  0.8609
  234MOL0     H32256   9.832   2.758  -0.222  0.3231 -0.2806 -0.1325
  234MOL0     H32257   9.790   2.591  -0.284  0.2854  1.5513 -1.6469
  234MOL0     H32258   9.621   2.687  -0.430 -2.3201  0.8447  2.4433
  234MOL0     H32259   9.679   2.847  -0.374  5.3550  1.7857  0.4078
  234MOL0     H32260   9.904   2.800  -0.465  1.4062  0.5283 -2.4986
  234MOL0     H32261   9.796   2.808  -0.587  0.5888  0.1091  0.9365
  234MOL0     H32262   9.777   2.581  -0.632 -2.4706  1.0122  1.5903
  234MOL0     H32263   9.829   2.523  -0.471 -2.0855  1.9091  1.5457
  234MOL0     H32264  10.069   2.574  -0.537 -0.6311 -1.1178  0.1651
  234MOL0     H32265   9.979   2.471  -0.645  1.6774 -0.5320 -0.6451
  234MOL0     H32266   9.998   2.770  -0.709  3.3375  0.6224 -0.9540
  234MOL0     H32267   9.959   2.625  -0.807  0.4983  1.3946 -1.1453
  234MOL0     H32268  10.199   2.538  -0.743  0.8959  0.7991  3.7473
  234MOL0     H32269  10.237   2.698  -0.707 -1.0359  1.9745 -0.6929
  234MOL0     H32270  10.277   2.696  -0.950  0.0658  2.2234 -2.4656
  234MOL0     H32271  10.128   2.780  -0.925  0.5296  0.2078  0.9344
  234MOL0     H32272   9.507   2.767   0.041  1.0748  1.6010 -0.1135
  234MOL0     H32273   9.526   2.700   0.271 -0.5609 -4.0578  1.5472
  234MOL0     H32274   9.605   2.586   0.578  1.2314  0.6244 -0.0856
  234MOL0     H32275   9.531   2.661   0.788 -1.3489  2.6450 -0.7810
  234MOL0     H32276   9.513   4.310   0.620  0.4603 -0.2209 -0.2338
  234MOL0     H32277   9.619   4.545   0.634  1.7355  0.6542 -0.3540
  234MOL0     H32278   9.769   4.852   0.753 -1.4399  6.2724  2.4486
  234MOL0     H32279   9.820   5.079   0.720  0.9566  0.9129 -0.1447
  234MOL0     H32280   9.890   5.244   0.588 -0.9898 -0.1094  1.4130
  234MOL0     H32281   9.903   5.298   0.752 -1.1073  0.4105 -0.9524
  234MOL0     H32282  10.078   5.454   0.682  1.5872  0.8828 -0.5606
  234MOL0     H32283   9.953   5.450   0.550 -2.3962 -2.8971 -0.1929
  234MOL0     H32284  10.193   5.452   0.472  1.1233  0.2584  2.5873
  234MOL0     H32285  10.227   5.310   0.563 -1.7911 -0.0066  3.4269
  234MOL0     H32286  10.073   5.182   0.417  2.1217 -1.4885  0.0803
  234MOL0     H32287  10.202   5.241   0.316 -0.3595  0.0640 -1.0258
  234MOL0     H32288   9.862   5.472   0.187  0.9900  1.6860  2.4670
  234MOL0     H32289  10.237   4.972   0.694 -0.3767  0.3187 -2.8538
  234MOL0     H32290  10.321   4.782   0.765 -0.0586  1.3315 -0.2600
  234MOL0     H32291  10.229   4.670   0.853 -1.4172  3.0262  1.4087
  234MOL0     H32292  10.232   4.650   0.679  0.4909  1.4160 -1.2889
  235MOL0     O32293  10.667   1.164   4.214  0.3102  0.2948 -0.3992
  235MOL0     C32294  10.652   1.133   4.329 -0.0709 -0.7847  0.5021
  235MOL0     O32295  10.535   1.126   4.392  0.2942 -0.2763  0.3452
  235MOL0     C32296  10.412   1.111   4.335  0.0694 -0.0267  0.2960
  235MOL0     C32297  10.371   1.069   4.206 -0.1562  0.8144  0.1540
  235MOL0     C32298  10.240   1.084   4.165  0.1166 -0.1191 -0.7479
  235MOL0     C32299  10.142   1.119   4.254  0.4065  0.3005 -0.8406
  235MOL0     O32300  10.009   1.125   4.230 -0.5523  0.4371 -0.2565
  235MOL0     C32301   9.959   1.077   4.097 -0.6518 -0.2524  0.3516
  235MOL0     C32302   9.826   1.008   4.128 -0.2996 -0.3072  0.5451
  235MOL0     C32303   9.753   0.965   4.001  0.9683  0.3408 -0.1941
  235MOL0     C32304   9.623   0.896   4.019 -0.0318  0.0325 -0.4968
  235MOL0     C32305   9.530   0.877   3.891 -0.1578 -0.4713  0.2508
  235MOL0     C32306   9.604   0.793   3.785  0.4189  0.3134  0.9517
  235MOL0     C32307   9.519   0.770   3.664  0.1212 -0.5366  0.6568
  235MOL0     C32308   9.569   0.658   3.574  0.2562 -0.1167 -0.3641
  235MOL0     N32309   9.496   0.662   3.449 -0.5905  0.1401  0.3435
  235MOL0     C32310   9.398   0.580   3.414 -0.2340 -0.1703 -0.6382
  235MOL0     C32311   9.360   0.617   3.286 -0.9149  0.6737  0.3807
  235MOL0     C32312   9.254   0.562   3.190  0.3711  0.1311 -0.4949
  235MOL0     C32313   9.121   0.519   3.255  0.6239 -0.0538  0.2828
  235MOL0     C32314   9.005   0.629   3.258  0.8249 -0.6436  0.9442
  235MOL0     C32315   9.034   0.745   3.346 -0.0468  0.5409  0.2881
  235MOL0     O32316   9.037   0.695   3.482 -0.2798 -0.5273  0.1655
  235MOL0     C32317   9.093   0.773   3.577  0.4365 -0.8932 -0.4982
  235MOL0     C32318   9.071   0.736   3.704 -0.0200  0.2378  0.3379
  235MOL0     C32319   9.095   0.818   3.811 -0.5499 -0.9214  0.0711
  235MOL0     C32320   9.046   0.771   3.947 -0.1576 -0.0846  0.2084
  235MOL0     C32321   9.174   0.938   3.782  0.6655 -0.1617 -0.0685
  235MOL0     C32322   9.222   1.034   3.887  0.7208 -0.0748 -0.3116
  235MOL0     O32323   9.277   1.150   3.843  1.0141 -1.1821  0.2377
  235MOL0     C32324   9.309   1.249   3.929 -0.2360 -0.3414 -0.4270
  235MOL0     C32325   9.265   1.376   3.902  0.2826 -0.8189 -0.0420
  235MOL0     C32326   9.306   1.494   3.972 -0.2665 -0.3257  0.3604
  235MOL0     C32327   9.398   1.469   4.075 -0.6571 -0.5525  0.3573
  235MOL0     O32328   9.451   1.573   4.145  0.1468  0.0235  0.3666
  235MOL0     C32329   9.373   1.694   4.172 -1.0714 -0.1140  0.0881
  235MOL0     C32330   9.258   1.670   4.271  0.2732 -0.7357 -0.5428
  235MOL0     C32331   9.200   1.801   4.321 -0.1755 -0.1829  0.3349
  235MOL0     C32332   9.112   1.772   4.448 -0.5630 -0.4468  0.1429
  235MOL0     C32333   9.060   1.906   4.508 -0.2944 -0.2652  0.0447
  235MOL0     C32334   8.920   1.951   4.456  0.2565 -0.0274  0.1334
  235MOL0     C32335   8.863   2.071   4.527  0.2642  0.0265  0.2997
  235MOL0     C32336   8.711   2.064   4.484  0.2628  0.1061 -0.4396
  235MOL0    Cl32337   8.639   2.221   4.546  0.5239  0.0083 -0.4396
  235MOL0     C32338   9.446   1.345   4.100 -0.2823 -0.0278 -0.0697
  235MOL0     C32339   9.399   1.233   4.028 -0.5269  0.4222  0.3835
  235MOL0     O32340   9.208   1.003   4.012 -0.7260  0.4353 -0.5071
  235MOL0     C32341   9.196   0.978   3.654 -0.7024 -0.3298  0.5650
  235MOL0     C32342   9.159   0.893   3.552  1.1296  0.3164  0.4616
  235MOL0     N32343   9.448   0.716   3.248 -0.4700  0.3323 -0.4225
  235MOL0     N32344   9.522   0.750   3.346 -0.1470 -0.3068  0.7668
  235MOL0     C32345  10.179   1.157   4.380  0.9273  0.4503 -0.3517
  235MOL0     C32346  10.309   1.146   4.420 -1.0262 -0.3020 -0.3997
  235MOL0     C32347  10.778   1.110   4.402  0.1026 -0.2556 -0.3338
  235MOL0     C32348  10.902   1.152   4.345 -0.5624 -0.4785  0.3017
  235MOL0     C32349  11.021   1.122   4.409 -0.1061 -0.2595  0.1504
  235MOL0     C32350  11.039   1.050   4.530  0.7951  0.2067  0.2219
  235MOL0     O32351  11.165   1.031   4.587  0.8890  0.2808 -0.1158
  235MOL0     C32352  11.182   0.927   4.688 -0.0326  0.5920 -0.8265
  235MOL0     C32353  11.326   0.920   4.741  0.0430  0.2488  0.3059
  235MOL0     C32354  11.373   1.054   4.801 -0.7528  0.4823  0.3389
  235MOL0     C32355  11.522   1.041   4.829 -0.0290  0.8429 -0.0526
  235MOL0     C32356  11.546   1.117   4.952 -0.2033  0.2237 -0.0234
  235MOL0     C32357  11.570   1.187   5.046  0.8592  0.1995 -0.0002
  235MOL0     C32358  10.909   0.997   4.579  0.5157 -0.0118 -0.6428
  235MOL0     C32359  10.787   1.030   4.519  0.3474 -0.3408  0.7527
  235MOL0     C32360  10.668   0.958   4.573  0.5797 -0.7171  0.2475
  235MOL0     H32361  10.428   1.030   4.122 -2.0904 -0.0310 -0.8334
  235MOL0     H32362  10.217   1.057   4.062  1.0582 -1.9463 -0.5151
  235MOL0     H32363  10.023   1.001   4.053  0.7838  2.2834 -2.2436
  235MOL0     H32364   9.952   1.162   4.028  0.4454 -0.2943  0.1753
  235MOL0     H32365   9.848   0.920   4.190 -1.5615 -1.0051  0.0416
  235MOL0     H32366   9.761   1.076   4.185 -0.4665 -0.0152  0.0105
  235MOL0     H32367   9.740   1.054   3.939 -2.3415  0.2139  0.1505
  235MOL0     H32368   9.817   0.889   3.955  0.3050 -0.7626  0.6439
  235MOL0     H32369   9.636   0.801   4.073 -1.7021  0.7293  1.2443
  235MOL0     H32370   9.582   0.953   4.103 -0.0038  1.8625 -1.6877
  235MOL0     H32371   9.513   0.975   3.844  1.6423 -0.7067 -0.9769
  235MOL0     H32372   9.438   0.827   3.921  0.4589 -1.1033  1.1506
  235MOL0     H32373   9.705   0.821   3.756 -0.2286  0.3025 -1.5642
  235MOL0     H32374   9.618   0.694   3.831 -1.9278 -0.3981  0.2706
  235MOL0     H32375   9.510   0.861   3.604 -3.0645 -0.9070  0.4379
  235MOL0     H32376   9.413   0.758   3.684 -0.1795 -2.2068 -1.5987
  235MOL0     H32377   9.674   0.675   3.552  0.1427  0.7436 -0.2678
  235MOL0     H32378   9.548   0.565   3.629  1.4201 -1.5663 -2.2413
  235MOL0     H32379   9.363   0.500   3.478  1.5878 -0.5084 -0.0194
  235MOL0     H32380   9.299   0.493   3.118 -1.8935 -2.1499  0.1306
  235MOL0     H32381   9.220   0.645   3.127 -4.1547  0.4169  1.8755
  235MOL0     H32382   9.084   0.436   3.194 -0.8878 -1.0903  2.4623
  235MOL0     H32383   9.125   0.486   3.359 -5.2499  0.3163  0.9568
  235MOL0     H32384   8.991   0.667   3.156  1.4082  2.8194  2.0216
  235MOL0     H32385   8.912   0.577   3.283  0.3258 -2.7155 -3.9912
  235MOL0     H32386   9.126   0.793   3.310 -0.4606  1.8320  0.9080
  235MOL0     H32387   8.960   0.825   3.336  1.9738  2.2836 -2.0189
  235MOL0     H32388   9.015   0.645   3.724 -2.1287  0.7044 -2.6940
  235MOL0     H32389   9.017   0.666   3.937 -2.0780  0.3172  1.0687
  235MOL0     H32390   8.954   0.823   3.972 -0.4502 -0.6212  0.2501
  235MOL0     H32391   9.131   0.784   4.015  0.7145  3.4603 -1.3298
  235MOL0     H32392   9.203   1.390   3.815  0.5903 -0.9940 -0.2940
  235MOL0     H32393   9.274   1.594   3.947 -1.5308 -0.4268  1.4342
  235MOL0     H32394   9.446   1.760   4.219 -0.9656 -0.4249  0.3697
  235MOL0     H32395   9.339   1.736   4.077 -0.2664 -0.8701 -0.5567
  235MOL0     H32396   9.177   1.619   4.218 -0.4022  0.5126 -0.7754
  235MOL0     H32397   9.286   1.602   4.352 -1.8390 -0.0516  0.8346
  235MOL0     H32398   9.138   1.850   4.246  1.2128  1.6239  0.2895
  235MOL0     H32399   9.281   1.873   4.336 -2.6046  2.5306  1.3538
  235MOL0     H32400   9.172   1.716   4.520  0.8071  2.7907  1.6828
  235MOL0     H32401   9.028   1.708   4.418  0.7011 -3.2720  2.1783
  235MOL0     H32402   9.059   1.898   4.617 -0.9729 -4.5119 -0.1413
  235MOL0     H32403   9.126   1.990   4.484  0.8693 -0.5170  2.1209
  235MOL0     H32404   8.849   1.867   4.461 -4.2450  3.4590  4.0204
  235MOL0     H32405   8.936   1.971   4.350  1.6686 -1.0509  0.1189
  235MOL0     H32406   8.904   2.166   4.494  1.7667  0.1631  2.3685
  235MOL0     H32407   8.875   2.054   4.635  0.3379 -1.4044  0.0833
  235MOL0     H32408   8.667   1.979   4.537  1.4231  0.5843  1.3871
  235MOL0     H32409   8.697   2.053   4.376  1.9093 -0.4039 -0.6290
  235MOL0     H32410   9.524   1.328   4.174 -1.3431 -0.8379  0.8805
  235MOL0     H32411   9.436   1.134   4.048  0.1206  0.5894  0.0549
  235MOL0     H32412   9.241   1.074   3.634 -0.6958 -0.3259  0.5974
  235MOL0     H32413   9.177   0.933   3.453  0.2012 -0.1209  0.1034
  235MOL0     H32414  10.114   1.193   4.459  1.4064 -2.7122  1.6921
  235MOL0     H32415  10.329   1.163   4.525  0.8615 -2.5127 -0.3277
  235MOL0     H32416  10.911   1.201   4.249  2.6993 -1.6961 -0.1518
  235MOL0     H32417  11.111   1.137   4.350 -0.1667  2.6704  0.6604
  235MOL0     H32418  11.118   0.948   4.774 -2.3755 -2.7119 -1.5591
  235MOL0     H32419  11.138   0.837   4.645 -0.5010  1.1079 -1.4564
  235MOL0     H32420  11.400   0.910   4.660  2.4407  3.8725  1.7749
  235MOL0     H32421  11.334   0.840   4.814 -3.7591  0.5826  1.2906
  235MOL0     H32422  11.355   1.141   4.738  1.7807  0.5086 -0.4529
  235MOL0     H32423  11.322   1.076   4.895 -2.6360 -1.8359 -0.0233
  235MOL0     H32424  11.581   1.080   4.745  1.7044 -1.2501  0.1042
  235MOL0     H32425  11.551   0.936   4.838 -0.0602  0.8134 -0.2900
  235MOL0     H32426  11.594   1.250   5.129  0.4707  1.6833 -0.9697
  235MOL0     H32427  10.909   0.917   4.651 -0.8077 -0.5379 -1.1904
  235MOL0     H32428  10.604   0.911   4.498 -2.1340  2.3339  0.4434
  235MOL0     H32429  10.689   0.878   4.645 -2.0503 -0.1643  1.7845
  235MOL0     H32430  10.605   1.030   4.627  0.1280 -0.7685 -0.2068
  236MOL0     O32431   8.908   2.917   9.202 -0.4747 -0.4784 -0.2056
  236MOL0     C32432   8.796   2.857   9.201 -0.4870 -0.6495 -0.2200
  236MOL0     O32433   8.764   2.738   9.136  0.4229  0.2314 -0.0941
  236MOL0     C32434   8.866   2.677   9.067 -0.2202  0.6182  0.2549
  236MOL0     C32435   8.931   2.743   8.966 -0.3357 -0.2454  0.0206
  236MOL0     C32436   9.038   2.681   8.888  0.6562  0.1045  0.4087
  236MOL0     C32437   9.063   2.552   8.924 -0.6974 -0.0184  0.2211
  236MOL0     O32438   9.157   2.490   8.841  0.1846 -0.4504 -0.1353
  236MOL0     C32439   9.240   2.399   8.907  0.1151  0.6909 -0.8837
  236MOL0     C32440   9.389   2.438   8.868  1.0201  0.4918  0.4786
  236MOL0     C32441   9.428   2.581   8.894  0.4474 -0.2613  0.1804
  236MOL0     C32442   9.429   2.606   9.049  1.0991  0.2980  0.2262
  236MOL0     C32443   9.497   2.735   9.088  0.2421 -1.4843  0.8305
  236MOL0     C32444   9.431   2.864   9.026 -0.3262  0.4084 -0.3151
  236MOL0     C32445   9.279   2.890   9.079 -1.3475  0.3703 -0.0663
  236MOL0     C32446   9.249   2.963   9.217 -0.0694  0.7158  0.3046
  236MOL0     N32447   9.310   3.090   9.235 -0.3491 -0.7126 -0.1548
  236MOL0     C32448   9.262   3.211   9.195 -0.4400 -0.2788  0.1968
  236MOL0     C32449   9.347   3.301   9.247 -0.2252 -0.0161 -0.3752
  236MOL0     C32450   9.338   3.449   9.227 -0.4184 -0.8788 -0.5296
  236MOL0     C32451   9.344   3.499   9.080 -0.1975 -0.6891 -0.3204
  236MOL0     C32452   9.475   3.466   9.014 -1.4426  0.7969  0.0788
  236MOL0     C32453   9.478   3.528   8.882  0.1837  0.3563 -0.8152
  236MOL0     O32454   9.391   3.462   8.794  0.6466 -0.1067  0.1134
  236MOL0     C32455   9.353   3.524   8.676  0.5745 -0.7758  0.2685
  236MOL0     C32456   9.421   3.631   8.610 -0.0449 -0.0099  0.9885
  236MOL0     C32457   9.366   3.688   8.496 -0.3274  0.7577 -0.3698
  236MOL0     C32458   9.446   3.807   8.442 -0.3197  0.0360 -0.2792
  236MOL0     C32459   9.242   3.642   8.435 -0.2427  0.9410  1.0709
  236MOL0     C32460   9.187   3.697   8.303  0.5983  0.3272  0.4319
  236MOL0     O32461   9.095   3.621   8.240  0.4805  0.2311 -0.2222
  236MOL0     C32462   9.047   3.664   8.118  0.8506 -0.3944 -0.8033
  236MOL0     C32463   9.089   3.604   7.993 -0.3489 -0.1168  0.3311
  236MOL0     C32464   9.037   3.660   7.873 -0.2670 -0.0984  0.2148
  236MOL0     C32465   8.930   3.745   7.869  0.2598 -0.0269  0.0706
  236MOL0     O32466   8.838   3.759   7.765  0.0045 -0.1760  0.5240
  236MOL0     C32467   8.831   3.643   7.678  0.8455  0.5695 -0.8654
  236MOL0     C32468   8.734   3.696   7.572 -0.2815  0.7360  0.0656
  236MOL0     C32469   8.812   3.803   7.485 -0.5540 -0.6317 -0.3756
  236MOL0     C32470   8.714   3.891   7.406 -0.1864 -0.2759  0.4065
  236MOL0     C32471   8.777   3.955   7.283 -1.5458 -0.0460  0.2895
  236MOL0     C32472   8.695   4.050   7.198  0.1379  0.5205  0.4131
  236MOL0     C32473   8.550   4.004   7.150 -1.2134  0.4492  0.1547
  236MOL0     C32474   8.476   4.129   7.105  0.0938  0.7021  0.0326
  236MOL0    Cl32475   8.311   4.096   7.055 -0.0123 -0.2243 -0.5214
  236MOL0     C32476   8.891   3.800   7.992 -0.5607 -0.0383 -0.5971
  236MOL0     C32477   8.951   3.774   8.114  0.2635 -0.1784  0.8058
  236MOL0     O32478   9.221   3.807   8.268 -0.2606 -0.3541  0.0850
  236MOL0     C32479   9.175   3.536   8.497 -0.1513  0.1589  0.2118
  236MOL0     C32480   9.227   3.487   8.622  0.6833 -0.1298 -1.0837
  236MOL0     N32481   9.441   3.241   9.332 -0.4768  0.1550  0.0198
  236MOL0     N32482   9.418   3.115   9.328  0.8595 -0.4769  0.4509
  236MOL0     C32483   8.991   2.481   9.022  0.1821 -0.8157  0.0624
  236MOL0     C32484   8.888   2.543   9.088  0.0478 -0.4128  0.0468
  236MOL0     C32485   8.684   2.918   9.287  0.0800  0.2111 -0.3978
  236MOL0     C32486   8.566   2.848   9.318 -0.3175  1.1776  0.3723
  236MOL0     C32487   8.473   2.888   9.412 -0.3458  0.4952  0.7394
  236MOL0     C32488   8.479   3.018   9.462 -0.7600 -0.9777 -0.2588
  236MOL0     O32489   8.389   3.075   9.546  0.0980 -0.5536 -0.3812
  236MOL0     C32490   8.275   3.013   9.600 -0.0439  0.9580  0.5113
  236MOL0     C32491   8.193   3.097   9.703 -0.5670  0.1391  0.1959
  236MOL0     C32492   8.145   3.231   9.642  0.3398  0.0422  1.0980
  236MOL0     C32493   8.253   3.335   9.650  0.1126 -0.8361 -0.2741
  236MOL0     C32494   8.280   3.377   9.791 -0.9131  0.4383 -0.6654
  236MOL0     C32495   8.286   3.406   9.907  0.8426 -0.7065 -0.0948
  236MOL0     C32496   8.598   3.096   9.427  0.7752  0.2172 -0.7916
  236MOL0     C32497   8.695   3.046   9.345 -0.1753 -0.5677  0.7607
  236MOL0     C32498   8.805   3.152   9.311  0.3216  1.0221 -0.5947
  236MOL0     H32499   8.895   2.844   8.949 -3.0452 -0.4782  3.3700
  236MOL0     H32500   9.077   2.739   8.804 -0.5037  1.1162  0.5365
  236MOL0     H32501   9.214   2.297   8.879 -2.2275  0.9017  0.2664
  236MOL0     H32502   9.226   2.408   9.015  1.4695  2.3161 -0.8173
  236MOL0     H32503   9.462   2.379   8.923  0.2737 -0.7763  0.1418
  236MOL0     H32504   9.392   2.430   8.759  0.6112  1.0049  0.4255
  236MOL0     H32505   9.525   2.602   8.849 -0.5387  1.2389 -1.3851
  236MOL0     H32506   9.355   2.635   8.832 -0.0829 -3.0139 -1.8103
  236MOL0     H32507   9.323   2.603   9.078  0.9626 -1.5046 -0.2874
  236MOL0     H32508   9.486   2.525   9.095 -0.8684 -2.2424 -1.4975
  236MOL0     H32509   9.605   2.720   9.086  1.3893  3.1522  5.6351
  236MOL0     H32510   9.484   2.753   9.195  1.6057  3.0096  0.4333
  236MOL0     H32511   9.493   2.953   9.041 -0.4080  0.5633 -0.8665
  236MOL0     H32512   9.420   2.850   8.918  1.4804  0.6473 -0.5526
  236MOL0     H32513   9.222   2.797   9.087 -0.2837 -0.2722  0.2012
  236MOL0     H32514   9.235   2.946   8.996 -0.0586  0.3358 -0.8023
  236MOL0     H32515   9.144   2.946   9.245 -0.2897  0.8404 -0.4100
  236MOL0     H32516   9.303   2.906   9.293 -0.8499  1.1013  1.1607
  236MOL0     H32517   9.181   3.232   9.126 -1.3575  2.9616  2.0625
  236MOL0     H32518   9.420   3.499   9.279 -1.2161  1.3426 -1.3011
  236MOL0     H32519   9.248   3.491   9.273  1.0711 -1.3766  3.1758
  236MOL0     H32520   9.258   3.448   9.036 -0.0742 -1.5390  0.3890
  236MOL0     H32521   9.345   3.608   9.069  0.2862 -0.9307 -3.5473
  236MOL0     H32522   9.556   3.508   9.074  0.5301  0.3042 -2.1057
  236MOL0     H32523   9.483   3.358   9.002 -0.0376  0.9205 -0.3148
  236MOL0     H32524   9.463   3.635   8.896 -0.7468  0.1878 -0.4503
  236MOL0     H32525   9.580   3.520   8.845 -0.2096  1.8003 -2.3066
  236MOL0     H32526   9.518   3.665   8.647 -0.5621  1.7867  0.8137
  236MOL0     H32527   9.533   3.833   8.504  0.9165 -2.9829 -0.5829
  236MOL0     H32528   9.375   3.890   8.441 -2.8094 -1.9432  1.0429
  236MOL0     H32529   9.484   3.776   8.344 -1.8703 -4.2150  0.2440
  236MOL0     H32530   9.160   3.522   7.989 -0.5849 -0.2623 -1.3055
  236MOL0     H32531   9.068   3.613   7.780 -0.1128 -0.5312  0.4805
  236MOL0     H32532   8.932   3.619   7.644  1.3418  0.8129  0.3988
  236MOL0     H32533   8.789   3.558   7.733 -0.3558  1.7952  0.1618
  236MOL0     H32534   8.716   3.610   7.506 -1.7464  1.8535 -1.0756
  236MOL0     H32535   8.641   3.731   7.617  0.1193  1.4050  0.3947
  236MOL0     H32536   8.891   3.752   7.430 -0.6908 -0.8516 -0.3694
  236MOL0     H32537   8.862   3.874   7.551  2.3726 -1.2217 -1.7859
  236MOL0     H32538   8.669   3.973   7.463  0.7701  0.5811 -0.0550
  236MOL0     H32539   8.620   3.842   7.376 -1.9047  2.3478  1.1725
  236MOL0     H32540   8.876   3.997   7.305 -0.7046  0.1391 -3.2028
  236MOL0     H32541   8.792   3.864   7.224 -3.7749 -1.4961  1.8083
  236MOL0     H32542   8.749   4.082   7.108  0.2469  1.0585  0.6655
  236MOL0     H32543   8.681   4.139   7.260 -0.4642 -0.2298  1.3791
  236MOL0     H32544   8.502   3.952   7.234 -1.6448  0.6252  0.0202
  236MOL0     H32545   8.552   3.940   7.061  2.7597  1.9332 -1.0283
  236MOL0     H32546   8.523   4.176   7.018 -1.0704  0.3476 -0.8129
  236MOL0     H32547   8.478   4.211   7.178 -1.0966  0.5639  0.2363
  236MOL0     H32548   8.810   3.872   7.986 -0.7779 -0.3836 -2.3992
  236MOL0     H32549   8.930   3.845   8.194  1.4434  1.3551 -0.1853
  236MOL0     H32550   9.085   3.497   8.451  0.4312  1.3953 -2.1555
  236MOL0     H32551   9.169   3.422   8.687  1.6708  0.6222  0.6133
  236MOL0     H32552   9.008   2.380   9.058 -0.3244  0.3291  3.9803
  236MOL0     H32553   8.828   2.495   9.165 -1.5137  0.8604 -0.3126
  236MOL0     H32554   8.542   2.759   9.261 -0.5796  1.1519  0.5224
  236MOL0     H32555   8.394   2.818   9.436 -0.1204  0.6447  1.9529
  236MOL0     H32556   8.205   2.988   9.520  1.0288  0.0571 -0.1860
  236MOL0     H32557   8.313   2.925   9.653 -0.2369  1.1697  1.0036
  236MOL0     H32558   8.254   3.116   9.792 -0.5498  2.5026 -0.2564
  236MOL0     H32559   8.112   3.030   9.731  0.9530 -1.3402  1.2614
  236MOL0     H32560   8.139   3.205   9.536  1.1265  0.3163  0.9795
  236MOL0     H32561   8.047   3.253   9.686  0.3635 -2.3454  2.5004
  236MOL0     H32562   8.222   3.419   9.587 -1.6137 -1.6843 -0.6373
  236MOL0     H32563   8.345   3.307   9.599  1.1823  1.9661 -0.0165
  236MOL0     H32564   8.275   3.428  10.012 -3.7510  1.4114 -0.7786
  236MOL0     H32565   8.598   3.191   9.481  0.4759 -0.5927  0.7059
  236MOL0     H32566   8.772   3.246   9.356 -1.0587  1.1968 -1.8784
  236MOL0     H32567   8.899   3.129   9.361 -1.0105  0.2234  1.7190
  236MOL0     H32568   8.819   3.162   9.203  1.4366 -3.2239 -1.0016
  237MOL0     O32569   3.407   1.198   6.248 -0.0597  0.1445  0.6968
  237MOL0     C32570   3.384   1.235   6.133 -0.7463 -1.2842 -0.3105
  237MOL0     O32571   3.439   1.340   6.077  0.1627  0.3564  0.1394
  237MOL0     C32572   3.545   1.408   6.134  0.4970 -0.8504  0.1088
  237MOL0     C32573   3.534   1.549   6.125 -0.8077 -0.5285 -0.0621
  237MOL0     C32574   3.645   1.629   6.173 -0.1088  0.2509 -0.2742
  237MOL0     C32575   3.755   1.571   6.236 -0.3408  0.7943  0.4816
  237MOL0     O32576   3.854   1.659   6.259  0.0486 -0.4073  0.0159
  237MOL0     C32577   3.973   1.622   6.335  0.0573 -0.7652 -0.4588
  237MOL0     C32578   3.946   1.629   6.477  0.1616 -0.9270 -0.4935
  237MOL0     C32579   4.065   1.679   6.564 -0.2601 -0.3661  0.8478
  237MOL0     C32580   4.043   1.658   6.716  1.4293 -0.3514 -0.3130
  237MOL0     C32581   3.912   1.731   6.770 -0.2597 -0.0913 -0.5573
  237MOL0     C32582   3.936   1.884   6.764 -0.2423 -0.2152 -1.2507
  237MOL0     C32583   3.839   1.962   6.864  0.2772  1.0135  0.2629
  237MOL0     C32584   3.887   1.951   7.005  0.0404 -0.1981  0.1232
  237MOL0     N32585   4.019   2.012   7.030  0.5787 -0.2455 -0.0401
  237MOL0     C32586   4.045   2.151   7.047 -0.0908  0.2709  0.4783
  237MOL0     C32587   4.180   2.156   7.076  0.4903  0.0508 -0.1369
  237MOL0     C32588   4.264   2.280   7.103 -1.2357 -0.3515  0.1040
  237MOL0     C32589   4.411   2.233   7.065  0.1643 -0.5080  0.0866
  237MOL0     C32590   4.518   2.338   7.098 -0.4069 -0.0093  0.5176
  237MOL0     C32591   4.658   2.281   7.097 -0.9551 -0.5490  0.5613
  237MOL0     O32592   4.751   2.385   7.113 -0.0219 -0.6187 -0.1727
  237MOL0     C32593   4.879   2.377   7.059  0.6776  0.7410  0.1398
  237MOL0     C32594   4.956   2.494   7.076 -0.6326  0.3297 -1.0043
  237MOL0     C32595   5.089   2.501   7.026  0.6289  0.0506 -0.3374
  237MOL0     C32596   5.168   2.629   7.071  0.9866 -0.1799  0.6833
  237MOL0     C32597   5.145   2.396   6.954 -0.1106 -0.2685 -0.6546
  237MOL0     C32598   5.276   2.399   6.904  0.1481  0.2953 -0.3389
  237MOL0     O32599   5.320   2.284   6.843  0.8645 -0.5120  0.0416
  237MOL0     C32600   5.463   2.272   6.831  0.2451 -0.9788 -0.1388
  237MOL0     C32601   5.536   2.266   6.948  0.9699  0.4290 -0.0366
  237MOL0     C32602   5.675   2.230   6.942 -0.7511  0.3731  0.0112
  237MOL0     C32603   5.734   2.216   6.815 -0.2991  0.0958 -0.3032
  237MOL0     O32604   5.877   2.187   6.823  0.1556 -0.5569  0.2722
  237MOL0     C32605   5.958   2.233   6.720 -0.4657 -0.2608  0.1762
  237MOL0     C32606   6.097   2.231   6.768  0.1894  0.0242 -0.0615
  237MOL0     C32607   6.199   2.300   6.672  0.1450  0.5678  0.3611
  237MOL0     C32608   6.190   2.225   6.529 -0.4805  0.2861 -0.0324
  237MOL0     C32609   6.283   2.290   6.422 -1.0450 -0.8042  0.0243
  237MOL0     C32610   6.212   2.422   6.371 -0.2803  0.4895  0.5945
  237MOL0     C32611   6.271   2.474   6.235 -0.6794 -0.6809 -0.5862
  237MOL0     C32612   6.261   2.388   6.114  0.1411 -0.4110  0.2698
  237MOL0    Cl32613   6.111   2.299   6.099  0.0169 -0.2661 -0.4225
  237MOL0     C32614   5.663   2.248   6.689 -0.1975  0.4637  0.0006
  237MOL0     C32615   5.521   2.268   6.702 -0.9244  0.0133 -0.6786
  237MOL0     O32616   5.349   2.493   6.929 -0.9997 -0.4080 -0.5783
  237MOL0     C32617   5.069   2.277   6.945 -0.1388  0.0079  0.3434
  237MOL0     C32618   4.937   2.268   6.993  0.2229 -0.1718  0.0915
  237MOL0     N32619   4.226   2.028   7.082 -0.3973 -0.0034  0.5020
  237MOL0     N32620   4.131   1.947   7.057  0.1065 -0.2220 -0.4322
  237MOL0     C32621   3.747   1.430   6.250 -0.6438 -0.6060  0.4980
  237MOL0     C32622   3.655   1.351   6.190 -0.5145 -0.2978 -0.3381
  237MOL0     C32623   3.309   1.152   6.038  1.3220  0.1025  0.6937
  237MOL0     C32624   3.381   1.096   5.933  0.4296  0.0665 -0.0757
  237MOL0     C32625   3.321   1.027   5.827 -0.1023 -1.0516 -0.4280
  237MOL0     C32626   3.183   0.995   5.837  0.4659  0.2658  0.8533
  237MOL0     O32627   3.112   0.920   5.740 -0.3782  0.0175  0.1820
  237MOL0     C32628   3.158   0.909   5.609 -0.7173 -0.6180 -0.5055
  237MOL0     C32629   3.047   0.866   5.515 -0.1864  0.4595  0.0828
  237MOL0     C32630   2.902   0.905   5.559 -0.4586 -0.1204  0.8033
  237MOL0     C32631   2.830   0.923   5.432  0.1805 -0.2990  0.8821
  237MOL0     C32632   2.685   0.957   5.427  0.5988  1.1925 -0.4531
  237MOL0     C32633   2.561   0.978   5.424 -0.5100 -0.1727 -0.3392
  237MOL0     C32634   3.114   1.047   5.949  1.0432  0.1221 -0.2243
  237MOL0     C32635   3.177   1.121   6.051 -0.2205  0.1980 -0.7554
  237MOL0     C32636   3.094   1.167   6.181 -0.5475  0.9053 -0.4131
  237MOL0     H32637   3.451   1.593   6.070 -1.4727 -3.1187 -1.2462
  237MOL0     H32638   3.647   1.735   6.152 -1.9978  1.0469  2.9224
  237MOL0     H32639   4.055   1.688   6.307 -0.5650 -1.2527 -3.7698
  237MOL0     H32640   4.007   1.524   6.301  0.0991 -1.1058  0.5267
  237MOL0     H32641   3.868   1.704   6.488 -0.1857 -1.4624  0.9246
  237MOL0     H32642   3.922   1.530   6.518  1.6127 -3.0580 -4.2347
  237MOL0     H32643   4.149   1.618   6.530  0.5689 -0.4822  2.9555
  237MOL0     H32644   4.098   1.783   6.552  1.6324 -0.7060  2.5789
  237MOL0     H32645   4.057   1.553   6.744  2.4953  0.1155  0.9602
  237MOL0     H32646   4.133   1.704   6.757  0.7673  1.9685 -1.2883
  237MOL0     H32647   3.887   1.696   6.871  2.4930 -1.7606 -0.3562
  237MOL0     H32648   3.828   1.688   6.716  0.6283 -2.6115 -0.0929
  237MOL0     H32649   4.042   1.910   6.773 -0.7088  1.8069 -0.9617
  237MOL0     H32650   3.902   1.920   6.666 -2.9096 -1.0904 -0.7503
  237MOL0     H32651   3.739   1.919   6.863  0.2217  0.9055  2.9917
  237MOL0     H32652   3.847   2.069   6.844  4.7203  0.5581 -1.4826
  237MOL0     H32653   3.813   1.998   7.070  0.3661 -0.5392  0.7520
  237MOL0     H32654   3.884   1.847   7.039 -1.7393 -0.4793 -0.7632
  237MOL0     H32655   3.974   2.233   7.040  2.2706  2.3637 -0.9242
  237MOL0     H32656   4.276   2.298   7.211  2.3896 -1.5667  0.0279
  237MOL0     H32657   4.226   2.367   7.049 -1.1311 -0.2167  0.2470
  237MOL0     H32658   4.441   2.139   7.113  2.1354 -0.2208 -0.5068
  237MOL0     H32659   4.422   2.221   6.956 -1.8308  2.4048 -0.5526
  237MOL0     H32660   4.511   2.436   7.049  1.1398  0.7425  1.6696
  237MOL0     H32661   4.492   2.354   7.203 -0.8613 -0.4835  0.4769
  237MOL0     H32662   4.665   2.199   7.169  2.7379 -3.1674 -2.4040
  237MOL0     H32663   4.663   2.240   6.996 -3.7612 -2.8056  1.2301
  237MOL0     H32664   4.915   2.573   7.138  1.6012  2.5523 -2.1678
  237MOL0     H32665   5.098   2.688   7.132 -0.4890 -1.8123  0.6397
  237MOL0     H32666   5.203   2.691   6.988 -2.7263 -1.7594 -2.3591
  237MOL0     H32667   5.248   2.593   7.136  0.8514 -1.9609 -0.0842
  237MOL0     H32668   5.488   2.265   7.046  2.7314 -1.6602  0.9093
  237MOL0     H32669   5.727   2.222   7.037 -0.8145  1.0809  0.1124
  237MOL0     H32670   5.943   2.152   6.647  2.2574 -0.9509  0.2741
  237MOL0     H32671   5.931   2.330   6.678 -0.1829  2.1516  4.9623
  237MOL0     H32672   6.102   2.281   6.866 -1.5670 -0.4472  0.3001
  237MOL0     H32673   6.132   2.127   6.771 -0.0860 -0.0548  0.6205
  237MOL0     H32674   6.300   2.289   6.713 -0.1805  0.9274  1.2608
  237MOL0     H32675   6.189   2.408   6.659 -0.7565  0.2090 -3.2052
  237MOL0     H32676   6.085   2.221   6.497 -1.2593  3.7359  1.5635
  237MOL0     H32677   6.221   2.120   6.531 -2.8833 -0.5065 -0.8635
  237MOL0     H32678   6.379   2.312   6.470 -0.8820 -0.9389 -0.2397
  237MOL0     H32679   6.302   2.212   6.348  1.3162 -2.4137  2.1688
  237MOL0     H32680   6.229   2.507   6.438  0.8305  1.0495 -0.3672
  237MOL0     H32681   6.104   2.414   6.354 -0.7523  2.1361  2.4339
  237MOL0     H32682   6.377   2.491   6.253 -1.4083  1.6639  2.5896
  237MOL0     H32683   6.232   2.574   6.215 -0.2765 -0.5102 -0.5211
  237MOL0     H32684   6.334   2.306   6.106 -1.9884 -2.2284 -2.0054
  237MOL0     H32685   6.269   2.456   6.029  2.0499  0.5217  1.1262
  237MOL0     H32686   5.715   2.240   6.594  0.6397 -0.4292  0.5166
  237MOL0     H32687   5.454   2.279   6.617 -2.3500  1.0868  0.5275
  237MOL0     H32688   5.099   2.201   6.874 -2.3157  1.3084 -2.1488
  237MOL0     H32689   4.894   2.169   6.978  0.6422 -0.2334 -0.7631
  237MOL0     H32690   3.833   1.381   6.294  1.0024  1.0574 -0.7308
  237MOL0     H32691   3.660   1.243   6.184  0.7817 -0.2145 -1.0699
  237MOL0     H32692   3.488   1.117   5.933  0.8346 -1.5527 -2.2021
  237MOL0     H32693   3.389   1.005   5.746  0.0351  2.4946 -1.4385
  237MOL0     H32694   3.198   1.004   5.572  2.0679 -1.4671  0.1126
  237MOL0     H32695   3.243   0.840   5.618 -1.7684 -1.7252  1.7304
  237MOL0     H32696   3.070   0.760   5.500  3.4586  1.1022  0.1000
  237MOL0     H32697   3.078   0.920   5.424 -1.2436  0.9224 -0.0158
  237MOL0     H32698   2.869   0.814   5.609  3.0700 -0.1958  3.3958
  237MOL0     H32699   2.889   0.996   5.618  0.4434 -0.7016  1.9342
  237MOL0     H32700   2.845   0.828   5.381  1.8081 -0.0446  0.8442
  237MOL0     H32701   2.877   0.998   5.368 -2.3016  0.1851 -0.4893
  237MOL0     H32702   2.456   0.993   5.409 -0.2226 -0.4921 -3.2150
  237MOL0     H32703   3.009   1.020   5.950  1.5083 -1.8348  0.2995
  237MOL0     H32704   3.065   1.268   6.151 -0.4411  1.2060  0.4441
  237MOL0     H32705   2.999   1.116   6.194  0.8596 -1.6970  0.4145
  237MOL0     H32706   3.154   1.154   6.272 -0.8541  2.5876  0.0671
  238MOL0     O32707   9.402   6.204   4.115 -0.7789 -0.2823  0.3893
  238MOL0     C32708   9.501   6.254   4.066 -0.5254  0.1281 -0.5090
  238MOL0     O32709   9.562   6.363   4.103  0.1516  0.5691 -0.2690
  238MOL0     C32710   9.532   6.423   4.221 -0.2125 -0.1870  0.0125
  238MOL0     C32711   9.506   6.358   4.343  0.9473 -0.1398  0.9632
  238MOL0     C32712   9.487   6.437   4.457 -1.0823 -0.7365 -0.3909
  238MOL0     C32713   9.517   6.574   4.461 -0.0735 -0.0781 -0.2053
  238MOL0     O32714   9.529   6.633   4.585  0.1222 -0.2852  1.2706
  238MOL0     C32715   9.617   6.752   4.602  0.8987  0.6550 -0.3749
  238MOL0     C32716   9.611   6.797   4.754  1.0385 -0.1138  0.8410
  238MOL0     C32717   9.481   6.866   4.787  0.5860  0.7812  0.3505
  238MOL0     C32718   9.495   7.019   4.801 -0.0121 -0.1617 -0.3276
  238MOL0     C32719   9.369   7.098   4.837 -0.5532  0.1757 -0.2910
  238MOL0     C32720   9.395   7.245   4.807 -0.6320  0.2871 -0.1865
  238MOL0     C32721   9.267   7.323   4.790  0.2449  0.3486  0.0456
  238MOL0     C32722   9.295   7.475   4.780 -0.4622 -0.0354 -0.1867
  238MOL0     N32723   9.360   7.494   4.653  0.7261  0.0673  0.1008
  238MOL0     C32724   9.291   7.509   4.533 -0.3607 -0.8370  0.3373
  238MOL0     C32725   9.397   7.519   4.436  0.7703  0.0166 -0.6412
  238MOL0     C32726   9.390   7.567   4.293  0.4934  0.2880  0.6103
  238MOL0     C32727   9.467   7.489   4.175  0.3041 -0.4953 -0.3406
  238MOL0     C32728   9.498   7.583   4.064 -0.1567 -0.9226  0.0716
  238MOL0     C32729   9.380   7.652   3.991 -0.9594  0.2281 -0.4741
  238MOL0     O32730   9.273   7.568   3.976  0.3717 -0.4075 -0.2325
  238MOL0     C32731   9.199   7.597   3.867 -0.5086 -0.1483 -0.0938
  238MOL0     C32732   9.248   7.616   3.729  0.5890  0.8162 -0.2255
  238MOL0     C32733   9.153   7.644   3.626  0.3118  0.9125  0.0958
  238MOL0     C32734   9.205   7.672   3.484  0.7789 -0.3142  0.1254
  238MOL0     C32735   9.019   7.669   3.664  0.3743  0.8119 -0.2642
  238MOL0     C32736   8.907   7.700   3.566 -0.7936 -0.1792  0.5501
  238MOL0     O32737   8.796   7.772   3.613  0.8078 -0.4525  0.1467
  238MOL0     C32738   8.676   7.791   3.543  0.1657 -0.0521  0.2923
  238MOL0     C32739   8.598   7.904   3.583 -0.5493  0.1657  0.2567
  238MOL0     C32740   8.472   7.929   3.522  0.6273 -0.4152  0.4023
  238MOL0     C32741   8.407   7.829   3.445  0.4726  0.3228 -0.9692
  238MOL0     O32742   8.285   7.864   3.396  0.2585 -0.6702 -0.4637
  238MOL0     C32743   8.200   7.771   3.350  0.5187 -0.4440  0.4334
  238MOL0     C32744   8.053   7.831   3.356  0.7364 -0.3360  0.5162
  238MOL0     C32745   8.013   7.845   3.503  0.1524 -0.5861  0.0198
  238MOL0     C32746   7.875   7.905   3.515 -1.1188 -0.1816 -0.5299
  238MOL0     C32747   7.830   7.919   3.675 -0.6141  0.7633 -0.0809
  238MOL0     C32748   7.909   8.015   3.763  0.5760 -0.6533  0.5181
  238MOL0     C32749   7.841   8.024   3.902  0.0036 -0.4015  0.1845
  238MOL0     C32750   7.940   8.058   4.007 -0.2212 -0.1780 -0.2724
  238MOL0    Cl32751   8.059   7.925   4.027 -0.0438 -0.3472 -0.0841
  238MOL0     C32752   8.483   7.715   3.417  0.3478 -0.0604 -0.3482
  238MOL0     C32753   8.609   7.696   3.466 -0.7339  0.6832 -0.6521
  238MOL0     O32754   8.914   7.660   3.451 -0.1125 -0.0413 -0.5936
  238MOL0     C32755   8.978   7.645   3.796  0.8010 -0.6742 -0.2264
  238MOL0     C32756   9.066   7.603   3.894 -0.0575  0.7550 -0.0692
  238MOL0     N32757   9.519   7.508   4.500  0.1409 -0.1414 -0.5619
  238MOL0     N32758   9.494   7.500   4.632 -0.6941  0.6324  0.2714
  238MOL0     C32759   9.542   6.636   4.337  0.2358  0.0029 -0.0299
  238MOL0     C32760   9.540   6.563   4.217 -0.2762  0.1968  0.4190
  238MOL0     C32761   9.577   6.196   3.947 -0.4725  0.3423 -0.3836
  238MOL0     C32762   9.571   6.061   3.926  0.0490  0.3225 -0.5717
  238MOL0     C32763   9.647   5.989   3.838 -0.4826  0.3722  1.1245
  238MOL0     C32764   9.748   6.062   3.766 -0.1470  0.2954 -0.4330
  238MOL0     O32765   9.825   6.005   3.665  0.1151 -0.5890  1.1180
  238MOL0     C32766   9.778   5.883   3.602  0.3088  0.4272  0.7677
  238MOL0     C32767   9.864   5.850   3.484 -0.1867  0.3091 -0.0563
  238MOL0     C32768   9.997   5.804   3.539 -0.8242 -0.2331 -0.0871
  238MOL0     C32769  10.084   5.730   3.426 -0.2571 -0.1921 -0.3049
  238MOL0     C32770  10.228   5.744   3.458 -0.9837  0.2301  1.1793
  238MOL0     C32771  10.348   5.749   3.470  0.4682 -0.2244  0.0839
  238MOL0     C32772   9.755   6.198   3.778  0.2474 -0.0738 -0.5045
  238MOL0     C32773   9.668   6.269   3.865 -0.4038  0.7087  0.1832
  238MOL0     C32774   9.681   6.418   3.868 -0.0511 -0.7800 -0.4598
  238MOL0     H32775   9.512   6.250   4.348  1.4932 -0.2495 -1.2375
  238MOL0     H32776   9.479   6.391   4.556 -1.4157 -0.5272 -0.3187
  238MOL0     H32777   9.601   6.831   4.529 -0.7975  0.1707 -0.5665
  238MOL0     H32778   9.722   6.724   4.585  1.3775  3.2648 -2.2702
  238MOL0     H32779   9.617   6.708   4.819 -2.3065 -1.7273 -0.8173
  238MOL0     H32780   9.695   6.866   4.769  0.9268 -0.5566  4.1289
  238MOL0     H32781   9.402   6.836   4.717  1.2286  2.6589 -1.2617
  238MOL0     H32782   9.451   6.826   4.884  0.1126  0.4927  0.0897
  238MOL0     H32783   9.578   7.052   4.864 -1.8411  2.0392  1.0742
  238MOL0     H32784   9.519   7.051   4.700 -0.4911  0.0762 -0.3686
  238MOL0     H32785   9.346   7.092   4.944  3.0269 -1.5417  0.5159
  238MOL0     H32786   9.280   7.067   4.781 -0.2225  0.4449 -0.9785
  238MOL0     H32787   9.444   7.286   4.896 -1.7995  1.5155 -0.0638
  238MOL0     H32788   9.453   7.263   4.716 -0.3332 -0.1467 -0.0846
  238MOL0     H32789   9.204   7.305   4.877 -1.6446  3.1661 -0.6489
  238MOL0     H32790   9.214   7.282   4.704  2.0554 -2.2232  0.0357
  238MOL0     H32791   9.203   7.533   4.788 -0.0430  0.5057  0.8366
  238MOL0     H32792   9.361   7.503   4.863 -0.7630 -2.5048  0.9697
  238MOL0     H32793   9.186   7.532   4.524  0.4029  2.9574 -0.2609
  238MOL0     H32794   9.434   7.667   4.288 -2.5643  1.8245  1.8901
  238MOL0     H32795   9.286   7.571   4.262  0.3112 -0.3638  1.1139
  238MOL0     H32796   9.551   7.439   4.225 -1.0634  0.7271  3.5384
  238MOL0     H32797   9.412   7.404   4.135 -1.0406 -0.3754  1.1750
  238MOL0     H32798   9.579   7.654   4.085 -0.3814 -0.6550  0.0340
  238MOL0     H32799   9.543   7.514   3.992 -0.4171 -0.8060 -0.2047
  238MOL0     H32800   9.353   7.736   4.056 -0.9635 -2.2781  3.0344
  238MOL0     H32801   9.429   7.699   3.906  2.3891  1.8423  2.1255
  238MOL0     H32802   9.351   7.599   3.698 -0.1439 -3.3613 -1.0323
  238MOL0     H32803   9.197   7.582   3.421  1.4150 -0.4811  0.2864
  238MOL0     H32804   9.304   7.718   3.489  0.3647  0.8016 -1.1698
  238MOL0     H32805   9.137   7.746   3.441 -1.6981 -1.5140  1.7289
  238MOL0     H32806   8.634   7.979   3.651 -2.6398  1.5093 -0.0284
  238MOL0     H32807   8.429   8.027   3.540 -0.2772 -0.9233  1.0714
  238MOL0     H32808   8.232   7.752   3.247 -0.1682  1.3607 -0.1531
  238MOL0     H32809   8.210   7.676   3.404  5.5479  0.5968  1.8408
  238MOL0     H32810   8.047   7.931   3.311 -0.6367 -0.2301  0.9088
  238MOL0     H32811   7.980   7.766   3.308 -1.4659  1.4547  1.2877
  238MOL0     H32812   8.083   7.906   3.561  0.5740 -0.7623 -0.2955
  238MOL0     H32813   7.998   7.742   3.537 -1.9296 -0.0633  0.8270
  238MOL0     H32814   7.804   7.859   3.446  0.2435  1.1441 -2.9803
  238MOL0     H32815   7.882   8.006   3.475 -0.5714  0.9497  2.1910
  238MOL0     H32816   7.731   7.966   3.672  0.4869  3.2543  0.3349
  238MOL0     H32817   7.828   7.820   3.723  1.5457  0.2664 -0.9185
  238MOL0     H32818   7.908   8.113   3.715  3.7791  0.4466  2.3907
  238MOL0     H32819   8.013   7.983   3.769  0.4839 -1.2332 -0.6482
  238MOL0     H32820   7.798   7.930   3.939 -0.2830  0.2462  1.5680
  238MOL0     H32821   7.762   8.098   3.886 -0.8585 -1.5703 -1.2555
  238MOL0     H32822   7.892   8.087   4.100  0.7105  0.3876  0.0484
  238MOL0     H32823   8.004   8.144   3.986 -2.5213  1.9244  0.9853
  238MOL0     H32824   8.435   7.633   3.365  2.2677 -2.0043  0.8399
  238MOL0     H32825   8.663   7.604   3.444 -0.3880  1.1693 -1.9208
  238MOL0     H32826   8.875   7.641   3.829  0.0357 -1.7033 -2.6000
  238MOL0     H32827   9.024   7.572   3.989 -2.3337  0.1790 -1.2081
  238MOL0     H32828   9.560   6.743   4.339 -0.3852  0.1179 -0.3748
  238MOL0     H32829   9.565   6.605   4.120  2.0835 -2.5448 -0.2938
  238MOL0     H32830   9.507   5.998   3.987  0.4466 -0.1696 -0.6599
  238MOL0     H32831   9.636   5.883   3.815 -0.1000  0.8540 -1.5914
  238MOL0     H32832   9.773   5.803   3.676 -0.7065  0.9864  1.3305
  238MOL0     H32833   9.677   5.900   3.562  1.0271  1.3953 -0.7593
  238MOL0     H32834   9.882   5.936   3.418 -1.2617  1.7142  1.3995
  238MOL0     H32835   9.814   5.768   3.432 -2.1339  0.9476  0.6836
  238MOL0     H32836  10.044   5.892   3.584 -0.6820 -0.8660  1.0360
  238MOL0     H32837   9.981   5.736   3.623  1.3183 -0.0712  0.5127
  238MOL0     H32838  10.067   5.772   3.327 -0.3122 -3.1348 -1.6499
  238MOL0     H32839  10.042   5.629   3.426 -2.0562  0.5138  0.1077
  238MOL0     H32840  10.455   5.742   3.476  0.5185  0.7714  0.6017
  238MOL0     H32841   9.827   6.240   3.708  1.3608 -1.5348 -0.2910
  238MOL0     H32842   9.719   6.444   3.968 -3.0590 -0.2148  0.6342
  238MOL0     H32843   9.755   6.450   3.794  0.7999 -2.0836 -0.2062
  238MOL0     H32844   9.580   6.459   3.856 -0.6441 -1.5071  1.6130
  239MOL0     O32845   3.613   9.080   3.240 -0.2009  0.6100  0.3139
  239MOL0     C32846   3.511   9.014   3.247  0.2885  0.6683 -0.6489
  239MOL0     O32847   3.497   8.883   3.293  0.7784 -0.5434 -0.4255
  239MOL0     C32848   3.620   8.824   3.311  0.5923  0.1437  0.4683
  239MOL0     C32849   3.673   8.728   3.221 -0.1622 -1.1840 -0.1719
  239MOL0     C32850   3.800   8.666   3.244  0.6131 -0.3626 -1.3466
  239MOL0     C32851   3.857   8.689   3.374 -0.6506  0.1832 -0.0602
  239MOL0     O32852   3.970   8.628   3.399  0.5014 -0.1690 -0.0702
  239MOL0     C32853   3.980   8.481   3.370 -0.1512  0.3967 -0.6694
  239MOL0     C32854   4.055   8.444   3.494  0.2373  0.3923 -0.0887
  239MOL0     C32855   4.098   8.294   3.503  0.4918 -0.6635 -0.3077
  239MOL0     C32856   4.145   8.248   3.643 -0.6938 -1.0100  0.6310
  239MOL0     C32857   4.183   8.103   3.639  0.2026  0.6064  0.2387
  239MOL0     C32858   4.314   8.072   3.572 -0.3101  0.5962  1.1235
  239MOL0     C32859   4.357   7.930   3.606 -0.8883 -0.9903  0.1750
  239MOL0     C32860   4.496   7.899   3.549 -0.3820  0.3179  0.0886
  239MOL0     N32861   4.497   7.898   3.402 -0.7529  0.4079 -0.4803
  239MOL0     C32862   4.604   7.945   3.335 -0.6953  0.5791  0.7909
  239MOL0     C32863   4.570   7.958   3.208  1.3031  0.4865 -0.1417
  239MOL0     C32864   4.646   8.019   3.097 -0.0713 -0.1995  0.8837
  239MOL0     C32865   4.601   7.988   2.957 -0.1523 -0.2804  0.5421
  239MOL0     C32866   4.622   8.098   2.846  0.1948  0.6937 -0.0916
  239MOL0     C32867   4.767   8.123   2.809 -0.1368 -0.5290  1.3945
  239MOL0     O32868   4.833   8.200   2.914  0.1480 -0.5920 -0.0317
  239MOL0     C32869   4.957   8.239   2.901 -0.0244 -1.1272  0.5731
  239MOL0     C32870   5.043   8.223   2.794 -0.3179  0.5531  0.8149
  239MOL0     C32871   5.172   8.274   2.794 -0.5838 -0.2152  0.5321
  239MOL0     C32872   5.245   8.276   2.657 -0.0022 -0.4397  0.2934
  239MOL0     C32873   5.226   8.332   2.912 -0.1567 -0.6325  0.2290
  239MOL0     C32874   5.360   8.397   2.916  0.4121  0.2732 -0.3001
  239MOL0     O32875   5.429   8.432   2.808 -0.3394  0.1805  0.6968
  239MOL0     C32876   5.554   8.485   2.816  0.0692 -0.4291 -0.0723
  239MOL0     C32877   5.586   8.605   2.882  0.9375  0.2890  0.1567
  239MOL0     C32878   5.708   8.659   2.872 -0.6632  0.1405 -0.0533
  239MOL0     C32879   5.813   8.602   2.799 -0.6094 -0.4766 -0.1550
  239MOL0     O32880   5.932   8.654   2.788  0.1594 -0.4526  0.5278
  239MOL0     C32881   5.939   8.791   2.740  0.2987  0.5582 -0.5837
  239MOL0     C32882   6.040   8.790   2.624  0.3330  0.7498 -0.1731
  239MOL0     C32883   6.073   8.931   2.572 -0.6843 -1.0857  0.2078
  239MOL0     C32884   5.972   8.979   2.471 -0.4240 -1.2178  0.1639
  239MOL0     C32885   6.001   9.131   2.436  0.2326  0.3225  1.0001
  239MOL0     C32886   6.007   9.237   2.545 -0.2018 -0.7223 -0.5033
  239MOL0     C32887   5.987   9.383   2.484  0.2201 -0.2198 -0.3696
  239MOL0     C32888   6.048   9.498   2.563  0.0669 -0.2523 -0.2223
  239MOL0    Cl32889   6.065   9.638   2.469 -0.3907  0.3555  0.0687
  239MOL0     C32890   5.785   8.480   2.737  0.2011  0.2647 -0.5190
  239MOL0     C32891   5.656   8.429   2.735  0.4547  0.6951  0.4748
  239MOL0     O32892   5.407   8.391   3.030 -0.0986 -0.0102  0.6200
  239MOL0     C32893   5.140   8.342   3.027 -0.3110 -0.6304  0.4529
  239MOL0     C32894   5.010   8.293   3.017  0.2805  0.5644 -1.1770
  239MOL0     N32895   4.439   7.918   3.198 -0.3411 -0.0456 -0.1182
  239MOL0     N32896   4.394   7.885   3.310  0.5337  0.1379 -0.8448
  239MOL0     C32897   3.796   8.769   3.468  0.1740  0.2751  0.8794
  239MOL0     C32898   3.671   8.829   3.442 -0.3428 -0.0637 -0.0984
  239MOL0     C32899   3.379   9.075   3.224  0.1532 -0.0664  0.2372
  239MOL0     C32900   3.288   9.002   3.149 -0.4162  0.7939  0.6158
  239MOL0     C32901   3.164   9.051   3.118  0.8315  0.8051 -0.0588
  239MOL0     C32902   3.114   9.173   3.155 -0.4978 -0.3931 -0.7634
  239MOL0     O32903   2.982   9.201   3.120 -0.0174 -0.7210  0.6771
  239MOL0     C32904   2.935   9.334   3.158  0.2920 -0.1202 -0.1783
  239MOL0     C32905   2.786   9.341   3.123 -0.9543  0.2484  0.3514
  239MOL0     C32906   2.758   9.315   2.972  0.4598 -0.4079  0.3998
  239MOL0     C32907   2.610   9.323   2.932  0.3316  0.5310  0.2901
  239MOL0     C32908   2.555   9.457   2.968  0.3016 -0.6267  0.1256
  239MOL0     C32909   2.500   9.562   3.011  0.3922  0.4541  0.0230
  239MOL0     C32910   3.206   9.253   3.227  1.0135 -0.2754 -0.4339
  239MOL0     C32911   3.329   9.204   3.262 -0.2579  0.5825  0.0116
  239MOL0     C32912   3.430   9.299   3.324  0.7284  0.9240 -0.5094
  239MOL0     H32913   3.631   8.714   3.123  2.9259 -3.4166 -1.3473
  239MOL0     H32914   3.845   8.594   3.177  2.1612 -0.7225  0.0334
  239MOL0     H32915   4.045   8.460   3.285  2.7576  0.1719  1.4841
  239MOL0     H32916   3.884   8.428   3.361 -0.9425  1.7176 -0.3269
  239MOL0     H32917   4.153   8.493   3.490  0.8741 -0.8976 -3.0550
  239MOL0     H32918   3.999   8.465   3.586  0.1601 -2.3404  0.6020
  239MOL0     H32919   4.010   8.235   3.477  0.2814 -0.4673 -0.0431
  239MOL0     H32920   4.183   8.282   3.435  0.8563  1.2253 -0.2291
  239MOL0     H32921   4.228   8.312   3.674 -2.0425  0.6907  0.8888
  239MOL0     H32922   4.066   8.266   3.717  0.2045  0.0970  1.3481
  239MOL0     H32923   4.105   8.050   3.582  1.6088 -0.7004 -0.5452
  239MOL0     H32924   4.195   8.062   3.740  3.1738 -3.9545 -1.6399
  239MOL0     H32925   4.298   8.076   3.464  1.1081  0.4678  0.8829
  239MOL0     H32926   4.393   8.132   3.619  0.9606 -1.8488  2.3018
  239MOL0     H32927   4.286   7.852   3.577  0.5571 -2.2562 -0.0642
  239MOL0     H32928   4.373   7.925   3.714 -1.2290 -0.5801  0.2489
  239MOL0     H32929   4.557   7.984   3.580 -1.3064  1.5022 -1.2049
  239MOL0     H32930   4.545   7.807   3.583 -2.2251 -1.1126 -0.9567
  239MOL0     H32931   4.702   7.971   3.375  0.6793  2.0886 -3.0628
  239MOL0     H32932   4.749   7.989   3.114 -0.0265 -0.2233  0.5753
  239MOL0     H32933   4.645   8.129   3.101 -0.6486 -0.2345  1.8159
  239MOL0     H32934   4.644   7.894   2.920 -1.1989 -0.2804 -0.7457
  239MOL0     H32935   4.493   7.971   2.962 -0.0630 -1.0581  0.0353
  239MOL0     H32936   4.565   8.068   2.757  1.5158 -0.7748 -0.4668
  239MOL0     H32937   4.586   8.197   2.876 -1.3083  1.1829 -3.0965
  239MOL0     H32938   4.824   8.032   2.788 -1.2531 -0.7086 -1.2172
  239MOL0     H32939   4.757   8.172   2.712 -2.4263  0.4908  2.0774
  239MOL0     H32940   4.994   8.192   2.702  1.3803  0.4526 -0.0832
  239MOL0     H32941   5.274   8.378   2.633  3.1097 -1.5653 -1.2926
  239MOL0     H32942   5.178   8.244   2.577  2.3377  0.6582 -2.2487
  239MOL0     H32943   5.330   8.208   2.653  1.4268  1.1974  1.4312
  239MOL0     H32944   5.515   8.660   2.944  0.6965  1.7346 -1.3118
  239MOL0     H32945   5.747   8.749   2.920  2.4204  0.4928 -2.8651
  239MOL0     H32946   5.840   8.831   2.715  0.1485 -0.0255 -0.9429
  239MOL0     H32947   5.977   8.856   2.819  1.4287 -2.2378  1.3159
  239MOL0     H32948   6.132   8.746   2.664 -1.0803 -0.1484  2.3254
  239MOL0     H32949   6.003   8.725   2.545 -0.6802  1.2025 -0.0927
  239MOL0     H32950   6.173   8.923   2.528 -0.9209 -2.5903 -0.1122
  239MOL0     H32951   6.085   9.002   2.654 -0.6843 -2.4321  1.4216
  239MOL0     H32952   5.877   8.958   2.520 -0.1700  1.8054  2.2571
  239MOL0     H32953   5.970   8.919   2.380 -0.4959 -0.1135 -0.5927
  239MOL0     H32954   6.091   9.131   2.374 -1.0154  1.2231 -0.9043
  239MOL0     H32955   5.921   9.158   2.366  0.3311 -1.9835 -0.0925
  239MOL0     H32956   6.100   9.236   2.602 -0.3863 -3.0636 -0.1454
  239MOL0     H32957   5.925   9.215   2.614 -0.0989  0.8567  0.1592
  239MOL0     H32958   5.885   9.401   2.449  0.3381 -1.9909 -1.8223
  239MOL0     H32959   6.035   9.397   2.386 -0.8099 -0.7115 -0.9624
  239MOL0     H32960   6.145   9.462   2.597  0.8426  0.1654 -1.9162
  239MOL0     H32961   5.983   9.525   2.647 -0.1697 -0.2482 -0.4063
  239MOL0     H32962   5.864   8.440   2.673 -1.5774 -1.5154 -1.7516
  239MOL0     H32963   5.634   8.337   2.682  0.8711 -0.0299  1.5392
  239MOL0     H32964   5.181   8.376   3.121  1.7856 -0.5329 -0.4362
  239MOL0     H32965   4.948   8.278   3.105 -0.7249  3.9862 -1.1299
  239MOL0     H32966   3.841   8.793   3.564 -0.0190 -0.3074  1.1187
  239MOL0     H32967   3.617   8.890   3.514  0.1149 -1.3566  1.4048
  239MOL0     H32968   3.320   8.906   3.111  0.5352  1.6260 -0.8029
  239MOL0     H32969   3.092   8.991   3.064  0.2370 -0.1617  1.7168
  239MOL0     H32970   2.942   9.356   3.265 -0.0200  0.6744 -0.3194
  239MOL0     H32971   2.983   9.407   3.093  1.2490  1.2176  1.9022
  239MOL0     H32972   2.749   9.440   3.151  0.8784  1.0348  0.1178
  239MOL0     H32973   2.735   9.266   3.183  0.2863  2.1263  4.0419
  239MOL0     H32974   2.807   9.393   2.913 -0.5833 -0.3669 -0.4243
  239MOL0     H32975   2.804   9.222   2.939  2.8393  1.0478 -0.6496
  239MOL0     H32976   2.561   9.238   2.981  3.0024 -2.3915 -1.6908
  239MOL0     H32977   2.599   9.304   2.825  2.0812 -1.5440  0.4056
  239MOL0     H32978   2.445   9.650   3.039  0.9890  0.6407  0.6480
  239MOL0     H32979   3.174   9.348   3.267 -2.0774 -0.1471 -2.8400
  239MOL0     H32980   3.508   9.331   3.255 -0.3783  0.0528 -2.2464
  239MOL0     H32981   3.379   9.389   3.360  0.0427 -0.0834  1.1874
  239MOL0     H32982   3.482   9.243   3.403  0.7876  0.2288 -1.0270
  240MOL0     O32983   0.255   6.305  11.232 -0.0137  0.2434  0.2329
  240MOL0     C32984   0.288   6.344  11.345 -0.6876  0.0385  0.1468
  240MOL0     O32985   0.207   6.410  11.428 -0.6600 -0.1121 -0.0927
  240MOL0     C32986   0.081   6.435  11.384 -0.2922 -0.4506  0.4919
  240MOL0     C32987  -0.034   6.381  11.436  0.3958 -0.4541 -0.4152
  240MOL0     C32988  -0.156   6.409  11.382  0.7422  0.3241 -0.2364
  240MOL0     C32989  -0.160   6.497  11.275 -0.4514  0.0692 -0.0975
  240MOL0     O32990  -0.265   6.531  11.192  0.5017  0.5177  0.0932
  240MOL0     C32991  -0.391   6.489  11.240  0.0736  0.4328 -0.6237
  240MOL0     C32992  -0.494   6.525  11.125  0.3835  0.1616  0.1053
  240MOL0     C32993  -0.613   6.437  11.107  0.2237  0.4201 -0.5106
  240MOL0     C32994  -0.713   6.517  11.022 -0.3695 -0.0682 -0.4743
  240MOL0     C32995  -0.837   6.427  10.988 -0.9334 -0.0551  0.6220
  240MOL0     C32996  -0.953   6.481  10.905  0.3685  0.8807 -0.4307
  240MOL0     C32997  -1.058   6.369  10.865 -0.5500  0.5885  0.0298
  240MOL0     C32998  -1.149   6.409  10.749  0.5447 -0.1232  0.1172
  240MOL0     N32999  -1.095   6.352  10.628 -0.1534 -0.0190 -0.8639
  240MOL0     C33000  -1.140   6.245  10.562  0.3518 -0.0484  0.0075
  240MOL0     C33001  -1.082   6.255  10.440  0.3030 -0.1190  0.2754
  240MOL0     C33002  -1.086   6.168  10.321 -0.3647 -0.0963  0.4826
  240MOL0     C33003  -1.180   6.045  10.314  0.4179 -0.2198  1.0069
  240MOL0     C33004  -1.146   5.924  10.409 -1.4146  0.2912 -0.3444
  240MOL0     C33005  -1.001   5.871  10.407  0.5432 -0.0276 -0.4932
  240MOL0     O33006  -0.987   5.810  10.268  0.3172  0.2768 -0.0850
  240MOL0     C33007  -0.863   5.753  10.249 -0.3613  0.0102  0.3212
  240MOL0     C33008  -0.844   5.689  10.126  0.0186  0.6682  0.4228
  240MOL0     C33009  -0.720   5.628  10.095 -0.2015 -1.1225 -0.4122
  240MOL0     C33010  -0.716   5.560   9.956  0.2786 -0.1625  1.0503
  240MOL0     C33011  -0.609   5.631  10.188  0.6130  0.3538  0.2884
  240MOL0     C33012  -0.490   5.546  10.178  0.2097 -0.6851  0.4717
  240MOL0     O33013  -0.457   5.525  10.043 -0.6478 -0.7222  0.0997
  240MOL0     C33014  -0.360   5.425  10.020  0.3308  0.5758 -0.4140
  240MOL0     C33015  -0.224   5.457  10.042  0.0869  0.4336 -0.4413
  240MOL0     C33016  -0.128   5.356   9.997 -0.7723  0.3817 -0.0262
  240MOL0     C33017  -0.166   5.231   9.934  0.0955 -0.6238  0.5212
  240MOL0     O33018  -0.079   5.143   9.864  0.3222 -0.9466 -0.0209
  240MOL0     C33019   0.061   5.162   9.867 -0.4932 -0.7518  0.4978
  240MOL0     C33020   0.126   5.137  10.002  0.5598 -0.3483  0.2944
  240MOL0     C33021   0.275   5.165  10.001  0.6897  0.7391 -0.3635
  240MOL0     C33022   0.314   5.309   9.997  0.8209  0.2051 -0.2172
  240MOL0     C33023   0.361   5.358  10.138 -0.6626 -1.2220  0.4826
  240MOL0     C33024   0.432   5.497  10.121 -0.1077  0.4145 -0.0122
  240MOL0     C33025   0.338   5.607  10.094 -0.0038 -0.5168  1.4018
  240MOL0     C33026   0.413   5.722  10.050  0.1381  0.8659 -0.3278
  240MOL0    Cl33027   0.287   5.837   9.995 -0.3615 -0.0154 -0.1043
  240MOL0     C33028  -0.302   5.203   9.921  0.0878 -0.9488 -0.9577
  240MOL0     C33029  -0.394   5.296   9.974  0.6740 -0.6713  0.5543
  240MOL0     O33030  -0.451   5.482  10.268 -0.3994 -0.0432  0.0867
  240MOL0     C33031  -0.629   5.707  10.308 -0.5463 -0.0063  0.2563
  240MOL0     C33032  -0.752   5.753  10.341  0.3142 -0.9862  0.4080
  240MOL0     N33033  -1.001   6.365  10.438  0.5888 -0.1496 -0.2555
  240MOL0     N33034  -1.007   6.424  10.548 -0.0819 -0.0940 -0.2610
  240MOL0     C33035  -0.044   6.560  11.232 -0.0755 -0.7763 -0.3087
  240MOL0     C33036   0.078   6.533  11.287  0.7665  0.4306  0.0155
  240MOL0     C33037   0.425   6.317  11.384  0.0571  0.4286 -0.3951
  240MOL0     C33038   0.500   6.409  11.446 -1.0629  0.4943  0.1953
  240MOL0     C33039   0.634   6.377  11.485 -0.1511  0.1208 -0.4363
  240MOL0     C33040   0.689   6.248  11.474  0.6814 -0.3180 -0.5949
  240MOL0     O33041   0.818   6.232  11.514  0.4309 -0.8693 -0.0779
  240MOL0     C33042   0.895   6.127  11.468 -0.3465  0.5609 -0.9104
  240MOL0     C33043   1.049   6.150  11.462 -0.4959 -0.8744 -0.1686
  240MOL0     C33044   1.093   6.287  11.402 -0.3057 -0.9189  0.0735
  240MOL0     C33045   1.245   6.308  11.424 -0.1553  0.1681  0.1899
  240MOL0     C33046   1.271   6.338  11.567  1.2518 -0.9059  0.3496
  240MOL0     C33047   1.297   6.370  11.685  0.2318 -0.6721 -0.8369
  240MOL0     C33048   0.611   6.166  11.393 -0.2646 -0.8938 -0.2784
  240MOL0     C33049   0.482   6.194  11.355  1.0891  0.4141  0.3480
  240MOL0     C33050   0.413   6.075  11.289 -0.1485  0.4469  0.6346
  240MOL0     H33051  -0.028   6.322  11.527 -1.5766  0.3084  0.2468
  240MOL0     H33052  -0.241   6.358  11.428  1.8076 -1.3612 -0.0169
  240MOL0     H33053  -0.424   6.543  11.329 -0.2315  1.8682 -1.5766
  240MOL0     H33054  -0.399   6.380  11.248 -0.0786  0.3231 -2.0318
  240MOL0     H33055  -0.524   6.629  11.144 -2.4103 -0.1741 -1.9181
  240MOL0     H33056  -0.439   6.528  11.030 -0.7960  1.7709 -0.5823
  240MOL0     H33057  -0.591   6.349  11.044  0.5547  1.5519 -2.0345
  240MOL0     H33058  -0.653   6.407  11.204  1.5330  0.1537 -0.0259
  240MOL0     H33059  -0.744   6.610  11.070 -0.9097 -1.6825  2.5606
  240MOL0     H33060  -0.660   6.539  10.929 -2.4698 -1.5004 -2.1182
  240MOL0     H33061  -0.871   6.395  11.087  0.5909  0.3428  1.3033
  240MOL0     H33062  -0.803   6.337  10.937 -1.8034 -0.8636  1.4280
  240MOL0     H33063  -0.998   6.565  10.960  1.5524 -0.2253  2.4250
  240MOL0     H33064  -0.906   6.516  10.813 -0.5257  2.1205 -0.4465
  240MOL0     H33065  -1.116   6.342  10.953 -4.2192 -0.3193 -2.4206
  240MOL0     H33066  -0.988   6.293  10.829 -0.9260  1.1360 -2.0326
  240MOL0     H33067  -1.245   6.358  10.764  1.2571 -1.0341  1.8320
  240MOL0     H33068  -1.166   6.517  10.742 -1.0838 -0.2186  1.6871
  240MOL0     H33069  -1.205   6.168  10.601 -0.6440  0.8087  0.0692
  240MOL0     H33070  -0.987   6.126  10.297 -0.8446 -0.5167 -0.8691
  240MOL0     H33071  -1.119   6.223  10.232 -1.1758 -1.5631 -0.1682
  240MOL0     H33072  -1.285   6.072  10.320  1.0280  2.9760 -0.5275
  240MOL0     H33073  -1.176   6.008  10.211 -0.9179 -0.2884  0.9605
  240MOL0     H33074  -1.179   5.949  10.510  2.8485  0.5966  1.1836
  240MOL0     H33075  -1.212   5.848  10.367 -3.6381  2.3730 -0.8196
  240MOL0     H33076  -0.917   5.933  10.440  1.7352 -1.4267 -0.8042
  240MOL0     H33077  -1.002   5.792  10.483  0.6986  0.1973 -0.2558
  240MOL0     H33078  -0.931   5.691  10.061 -1.4923 -2.1955  2.1367
  240MOL0     H33079  -0.655   5.619   9.887 -3.0856 -0.5679 -2.6247
  240MOL0     H33080  -0.811   5.550   9.902  0.9296  0.8583 -0.3431
  240MOL0     H33081  -0.679   5.461   9.983  1.1998  0.3523  1.7190
  240MOL0     H33082  -0.193   5.556  10.073  2.4724 -0.6039  0.8377
  240MOL0     H33083  -0.025   5.380  10.022 -0.1656 -1.4920 -0.5012
  240MOL0     H33084   0.101   5.083   9.801 -1.0497  0.8932 -1.9637
  240MOL0     H33085   0.084   5.264   9.835  0.7879 -0.7569  1.3088
  240MOL0     H33086   0.094   5.213  10.074  4.5317  0.2300  1.6957
  240MOL0     H33087   0.116   5.034  10.038 -3.4941  0.0226  0.6900
  240MOL0     H33088   0.310   5.121   9.907  0.4203 -2.1507  0.8045
  240MOL0     H33089   0.311   5.116  10.092  0.8268  0.6600 -0.4602
  240MOL0     H33090   0.245   5.369   9.937  0.7482  0.6763  0.3293
  240MOL0     H33091   0.397   5.318   9.925  0.7192 -0.8142 -0.4700
  240MOL0     H33092   0.278   5.360  10.209 -2.8400  1.5046 -1.8746
  240MOL0     H33093   0.435   5.284  10.171 -1.4464 -1.5668  1.5047
  240MOL0     H33094   0.509   5.488  10.044  1.6658 -1.6723  1.8627
  240MOL0     H33095   0.489   5.512  10.213 -0.1173 -2.1225  0.4692
  240MOL0     H33096   0.267   5.627  10.175  1.2479  0.5264  2.2951
  240MOL0     H33097   0.288   5.582  10.000  1.7898 -0.1938  0.3053
  240MOL0     H33098   0.480   5.692   9.970  0.9167 -0.4840  0.7709
  240MOL0     H33099   0.476   5.766  10.128 -2.3737  3.1213  0.5867
  240MOL0     H33100  -0.330   5.115   9.865 -1.7723 -1.1620  0.2307
  240MOL0     H33101  -0.498   5.267   9.965  0.0507  1.5701  0.0127
  240MOL0     H33102  -0.550   5.713  10.381  0.1552 -0.0495 -0.4836
  240MOL0     H33103  -0.764   5.800  10.438  0.3150 -0.4569  0.1555
  240MOL0     H33104  -0.055   6.637  11.156 -0.1816 -0.3324  0.1533
  240MOL0     H33105   0.170   6.581  11.254  1.2574  0.4859  1.4255
  240MOL0     H33106   0.459   6.506  11.469 -0.5467  0.7608  0.0105
  240MOL0     H33107   0.692   6.456  11.532 -1.0474  2.0256 -2.3675
  240MOL0     H33108   0.870   6.046  11.537  0.1655  1.5745  0.5069
  240MOL0     H33109   0.868   6.076  11.375 -2.7109 -1.2805  0.6779
  240MOL0     H33110   1.093   6.073  11.399  2.0270  1.8871 -2.0234
  240MOL0     H33111   1.109   6.127  11.550  0.0292 -0.2837 -0.3657
  240MOL0     H33112   1.061   6.293  11.298  1.9324 -3.7800 -0.9083
  240MOL0     H33113   1.040   6.365  11.457 -2.1523 -0.4590 -2.1854
  240MOL0     H33114   1.279   6.399  11.372  0.1014 -1.0082 -1.8247
  240MOL0     H33115   1.305   6.221  11.393 -0.3091  0.5178 -1.1886
  240MOL0     H33116   1.315   6.401  11.786 -0.0656  0.1487 -1.0285
  240MOL0     H33117   0.663   6.076  11.360  0.0345 -1.3710  1.3985
  240MOL0     H33118   0.459   5.982  11.323  1.1662  1.8560  2.8493
  240MOL0     H33119   0.303   6.072  11.291 -0.3643 -0.6424 -3.1371
  240MOL0     H33120   0.430   6.065  11.181  1.2993 -0.1752  0.8983
  241MOL0     O33121   9.005   4.344   7.580 -0.4109  0.0926  0.6063
  241MOL0     C33122   8.902   4.377   7.523 -0.7856  0.0041  0.7844
  241MOL0     O33123   8.787   4.411   7.589  1.0130  0.0109  0.2037
  241MOL0     C33124   8.754   4.342   7.699  0.9220  1.2750  1.0512
  241MOL0     C33125   8.769   4.201   7.711  0.8102 -0.3963  0.3444
  241MOL0     C33126   8.743   4.120   7.827 -0.0208  0.2797  0.1455
  241MOL0     C33127   8.689   4.185   7.945 -0.0289  0.4903 -0.6177
  241MOL0     O33128   8.643   4.103   8.041  0.4172  0.9404 -0.3452
  241MOL0     C33129   8.519   4.142   8.092  0.1627 -0.9467  0.2517
  241MOL0     C33130   8.511   4.169   8.241  0.0717  0.3025 -0.0955
  241MOL0     C33131   8.479   4.052   8.326 -0.1515 -0.2073 -0.6856
  241MOL0     C33132   8.598   3.956   8.317  0.4014  1.1122 -0.2480
  241MOL0     C33133   8.585   3.829   8.397 -0.1715  0.1009 -0.5119
  241MOL0     C33134   8.694   3.721   8.376 -0.8724 -0.2889 -0.9443
  241MOL0     C33135   8.685   3.594   8.467 -0.1358  0.7077 -0.0583
  241MOL0     C33136   8.778   3.612   8.594 -0.2790  0.3839  0.7725
  241MOL0     N33137   8.804   3.487   8.664  0.5595  1.2157  0.0770
  241MOL0     C33138   8.711   3.386   8.679  0.2923  0.0749  0.6947
  241MOL0     C33139   8.785   3.278   8.716  0.6108 -0.4104  0.8317
  241MOL0     C33140   8.735   3.145   8.774 -0.2288  0.3833  0.0202
  241MOL0     C33141   8.596   3.153   8.835 -0.8547 -0.9956 -0.4593
  241MOL0     C33142   8.571   3.052   8.954  0.6503  0.8123 -0.2338
  241MOL0     C33143   8.431   3.087   9.027 -0.8615  0.3150 -0.3261
  241MOL0     O33144   8.436   3.224   9.066  0.0673 -0.0062 -0.0530
  241MOL0     C33145   8.342   3.268   9.150  0.6582  0.0590 -0.6407
  241MOL0     C33146   8.349   3.409   9.178 -0.2433  0.0694 -0.4705
  241MOL0     C33147   8.247   3.480   9.238  0.4916 -0.7082  0.7061
  241MOL0     C33148   8.275   3.632   9.277 -0.4141 -0.0075 -0.8734
  241MOL0     C33149   8.132   3.406   9.278  0.0862 -0.5562  0.2597
  241MOL0     C33150   8.025   3.467   9.362 -1.0708 -0.4797 -0.6265
  241MOL0     O33151   7.907   3.407   9.348  0.6665  0.1866  0.5495
  241MOL0     C33152   7.810   3.425   9.444 -0.4578 -0.7809  0.9348
  241MOL0     C33153   7.677   3.435   9.393 -0.1821  0.6930  1.3559
  241MOL0     C33154   7.574   3.444   9.483  1.2098  0.1941  0.6015
  241MOL0     C33155   7.590   3.444   9.622 -0.0935 -0.4533  1.1531
  241MOL0     O33156   7.493   3.463   9.717 -0.5089  0.1316 -0.2495
  241MOL0     C33157   7.355   3.459   9.679  0.0613  0.0120 -0.2043
  241MOL0     C33158   7.254   3.449   9.787  1.3298 -0.2749 -0.4756
  241MOL0     C33159   7.112   3.452   9.731 -0.6837  0.1388  0.6229
  241MOL0     C33160   7.012   3.455   9.846  0.3153  0.4811 -0.8226
  241MOL0     C33161   6.874   3.490   9.804 -0.0981 -0.1772 -0.0038
  241MOL0     C33162   6.814   3.384   9.723 -0.1161  0.1258  0.1479
  241MOL0     C33163   6.663   3.413   9.706  0.4326 -0.2707  0.7810
  241MOL0     C33164   6.587   3.353   9.576  0.1535  0.3628 -0.3239
  241MOL0    Cl33165   6.417   3.385   9.610  0.4897  0.8127 -0.5248
  241MOL0     C33166   7.719   3.450   9.671  0.2832 -1.7795  0.2463
  241MOL0     C33167   7.830   3.434   9.578  0.4105  0.5805 -0.0485
  241MOL0     O33168   8.053   3.560   9.441 -0.6973 -0.2970 -0.2249
  241MOL0     C33169   8.129   3.265   9.256 -0.1012  0.2058  0.3145
  241MOL0     C33170   8.230   3.194   9.196  0.3842 -0.3918 -0.2055
  241MOL0     N33171   8.919   3.313   8.716 -0.5550 -0.1651  0.5229
  241MOL0     N33172   8.928   3.435   8.685  0.2081  0.7864 -0.5666
  241MOL0     C33173   8.692   4.331   7.942 -0.1928  0.1488 -0.1551
  241MOL0     C33174   8.721   4.404   7.824 -0.6075  0.4939 -0.1047
  241MOL0     C33175   8.905   4.377   7.370 -0.2521 -0.4884  0.0545
  241MOL0     C33176   9.010   4.332   7.300  0.0825  0.9747  0.3590
  241MOL0     C33177   9.010   4.327   7.158 -0.1477 -0.1154  0.5153
  241MOL0     C33178   8.904   4.378   7.082  0.1199  0.3401  0.2994
  241MOL0     O33179   8.920   4.364   6.952  0.3675  0.0221 -0.1343
  241MOL0     C33180   8.933   4.480   6.870 -0.2579  0.5610 -0.5074
  241MOL0     C33181   9.068   4.551   6.876  1.2523 -0.6614 -0.5992
  241MOL0     C33182   9.176   4.461   6.828  0.2450 -0.3130  0.6090
  241MOL0     C33183   9.304   4.549   6.832  0.0003 -0.8362 -0.6632
  241MOL0     C33184   9.422   4.473   6.777  0.3993 -0.6250  0.8217
  241MOL0     C33185   9.505   4.407   6.712  0.1352  0.7312 -0.2655
  241MOL0     C33186   8.791   4.429   7.144 -0.3085 -1.2398 -0.5088
  241MOL0     C33187   8.795   4.430   7.290 -0.2731 -0.3689 -0.6382
  241MOL0     C33188   8.671   4.480   7.354  0.0977 -0.1508  0.7592
  241MOL0     H33189   8.805   4.160   7.617 -1.2621  2.2263 -1.7651
  241MOL0     H33190   8.744   4.012   7.828  2.1424  0.2627  1.1288
  241MOL0     H33191   8.451   4.061   8.064 -1.5577  1.1504 -2.1523
  241MOL0     H33192   8.473   4.221   8.033  0.5382 -3.1730 -3.2962
  241MOL0     H33193   8.604   4.223   8.259 -0.3760  1.4500 -1.1044
  241MOL0     H33194   8.430   4.242   8.250  0.7546  1.3425 -1.8746
  241MOL0     H33195   8.472   4.099   8.424 -4.5121 -0.1718 -0.8149
  241MOL0     H33196   8.388   4.001   8.292  1.2321 -0.7862 -3.9705
  241MOL0     H33197   8.618   3.917   8.217 -1.1930  0.5811 -0.3926
  241MOL0     H33198   8.686   4.005   8.358  2.8974 -3.3635  0.4057
  241MOL0     H33199   8.493   3.779   8.368 -0.7549 -0.8719  2.5948
  241MOL0     H33200   8.586   3.852   8.505  0.5368  1.5732 -0.7979
  241MOL0     H33201   8.688   3.695   8.269  0.8914 -2.1251 -0.6705
  241MOL0     H33202   8.790   3.772   8.389 -0.1132 -1.4426 -1.7689
  241MOL0     H33203   8.703   3.501   8.412  1.3462  0.9039  0.0362
  241MOL0     H33204   8.580   3.579   8.491 -0.1104 -0.8360 -0.7536
  241MOL0     H33205   8.879   3.642   8.566 -0.1635 -0.3052  0.4386
  241MOL0     H33206   8.737   3.687   8.662 -0.6752 -0.3403  1.3474
  241MOL0     H33207   8.605   3.388   8.658  0.3889 -2.4701 -0.3061
  241MOL0     H33208   8.792   3.122   8.864  2.6248  0.4726 -1.6339
  241MOL0     H33209   8.743   3.062   8.703 -0.0282  0.5957 -0.2089
  241MOL0     H33210   8.591   3.255   8.873  0.0652 -1.3916  0.7852
  241MOL0     H33211   8.519   3.129   8.762 -2.1830  1.6829 -0.0425
  241MOL0     H33212   8.582   2.953   8.910  0.6667  0.0815  1.3521
  241MOL0     H33213   8.649   3.071   9.029  0.9932  1.6818 -0.7929
  241MOL0     H33214   8.359   3.063   8.949  1.6008 -0.4717 -2.5114
  241MOL0     H33215   8.426   3.030   9.120 -1.8521  1.1858  0.1733
  241MOL0     H33216   8.440   3.458   9.144 -1.9904  2.8311 -1.4515
  241MOL0     H33217   8.195   3.704   9.256  0.1164  1.0953  0.7260
  241MOL0     H33218   8.371   3.672   9.244  1.2066  1.5542  4.6309
  241MOL0     H33219   8.304   3.635   9.382 -0.8802 -0.2798 -0.7335
  241MOL0     H33220   7.667   3.425   9.286 -1.8488 -0.5509  1.5827
  241MOL0     H33221   7.476   3.456   9.438  1.6212  0.1332 -0.3502
  241MOL0     H33222   7.333   3.548   9.618  1.8055  1.8453  1.6956
  241MOL0     H33223   7.327   3.373   9.618 -1.8662  0.0513  0.5542
  241MOL0     H33224   7.271   3.353   9.835  1.4740 -0.6744 -1.3133
  241MOL0     H33225   7.263   3.533   9.857  0.7539  0.9361 -1.7851
  241MOL0     H33226   7.098   3.360   9.673  0.0520 -1.3050  2.6277
  241MOL0     H33227   7.094   3.542   9.672 -1.2694 -0.7730 -0.6516
  241MOL0     H33228   7.046   3.535   9.912 -3.6408  2.3471 -0.8067
  241MOL0     H33229   7.010   3.359   9.900  0.8139  1.4637  1.0114
  241MOL0     H33230   6.802   3.509   9.885 -1.2877 -2.1944 -0.5095
  241MOL0     H33231   6.878   3.581   9.743 -1.0129 -0.8001 -1.0396
  241MOL0     H33232   6.831   3.287   9.771 -1.8112  0.7677  2.1641
  241MOL0     H33233   6.863   3.373   9.625 -1.3860  0.5781 -0.5588
  241MOL0     H33234   6.658   3.522   9.707  2.8600 -0.1075  1.3540
  241MOL0     H33235   6.601   3.394   9.794 -0.9612 -1.8993 -0.4914
  241MOL0     H33236   6.611   3.247   9.562  3.1550  1.0757 -1.3824
  241MOL0     H33237   6.624   3.406   9.488 -3.7470  0.0550 -2.3495
  241MOL0     H33238   7.750   3.483   9.769  3.4039  2.7636 -1.8756
  241MOL0     H33239   7.927   3.455   9.621 -0.8206  1.8653  2.2828
  241MOL0     H33240   8.044   3.217   9.303  0.9480 -1.9055  0.1463
  241MOL0     H33241   8.213   3.088   9.182 -5.8822 -0.3978  3.4480
  241MOL0     H33242   8.661   4.372   8.038  0.0563 -4.1525  2.0222
  241MOL0     H33243   8.718   4.512   7.840  0.2124  0.8684 -2.1564
  241MOL0     H33244   9.100   4.308   7.356  0.2361 -0.2317 -0.3726
  241MOL0     H33245   9.101   4.297   7.106 -1.9338 -3.4619 -0.9595
  241MOL0     H33246   8.908   4.460   6.766  2.2043 -0.6204 -0.9334
  241MOL0     H33247   8.855   4.549   6.905 -0.2576 -0.1752  1.0737
  241MOL0     H33248   9.077   4.583   6.980 -2.7175  1.5414 -0.7516
  241MOL0     H33249   9.064   4.644   6.820 -0.0443 -0.2548  0.1221
  241MOL0     H33250   9.182   4.371   6.890 -0.2985 -0.8092 -0.0507
  241MOL0     H33251   9.166   4.417   6.728 -0.4708  1.9150 -0.3460
  241MOL0     H33252   9.330   4.561   6.938 -0.1060  1.7357 -0.8801
  241MOL0     H33253   9.296   4.644   6.779 -0.3412 -2.1304 -3.1035
  241MOL0     H33254   9.583   4.362   6.654 -0.2499 -0.6346  0.2319
  241MOL0     H33255   8.702   4.464   7.092 -0.2932  0.2365  0.3946
  241MOL0     H33256   8.691   4.567   7.417 -0.0504  0.9231 -0.6114
  241MOL0     H33257   8.600   4.518   7.279 -0.1572  1.6288  1.8278
  241MOL0     H33258   8.617   4.402   7.408  0.9926 -2.1370 -1.0521
  242MOL0     O33259   9.420   8.174  11.408  0.0318 -0.2434  0.9220
  242MOL0     C33260   9.449   8.280  11.461  0.1250  0.2682 -0.1266
  242MOL0     O33261   9.573   8.321  11.489 -0.5419 -0.5672 -0.1715
  242MOL0     C33262   9.688   8.265  11.443  0.0437  0.5943  0.1066
  242MOL0     C33263   9.790   8.350  11.405 -0.5697 -0.7921 -0.4213
  242MOL0     C33264   9.910   8.306  11.362 -0.4205  1.2860  0.4622
  242MOL0     C33265   9.931   8.166  11.348  0.3539  0.1450 -1.1147
  242MOL0     O33266  10.046   8.122  11.279  1.0053  1.1600  0.0919
  242MOL0     C33267  10.144   8.059  11.364  0.2712 -0.7795 -0.2999
  242MOL0     C33268  10.232   8.152  11.452 -0.1715 -0.0567 -0.2674
  242MOL0     C33269  10.293   8.076  11.577  0.1005 -0.1024 -1.1422
  242MOL0     C33270  10.435   8.103  11.614 -0.1907  0.5419 -0.8298
  242MOL0     C33271  10.527   8.031  11.523 -0.4753 -1.0864  0.4236
  242MOL0     C33272  10.677   8.062  11.545  0.7190 -0.6507 -0.4904
  242MOL0     C33273  10.766   8.004  11.435  0.0949 -0.8711  0.1437
  242MOL0     C33274  10.916   8.022  11.461  0.4715  0.0947 -0.4388
  242MOL0     N33275  10.995   8.032  11.333  0.4188  0.0151 -0.1693
  242MOL0     C33276  11.023   7.922  11.261 -0.2522 -0.2140  0.2530
  242MOL0     C33277  11.088   7.962  11.144 -0.1334 -0.2613 -0.1712
  242MOL0     C33278  11.132   7.878  11.032 -0.9229  0.2338  1.2312
  242MOL0     C33279  11.283   7.895  11.005  0.6508 -0.8383  0.2133
  242MOL0     C33280  11.374   7.865  11.124  0.0743  0.3420  0.8558
  242MOL0     C33281  11.523   7.883  11.103  0.5150  0.8720 -0.0428
  242MOL0     O33282  11.582   7.835  11.225 -0.6693 -0.6204 -0.3616
  242MOL0     C33283  11.721   7.830  11.230 -0.1149 -0.5448 -1.1241
  242MOL0     C33284  11.770   7.778  11.347  0.8832 -0.0431 -0.1427
  242MOL0     C33285  11.908   7.757  11.375 -0.5528  0.2519  0.5689
  242MOL0     C33286  11.961   7.719  11.514  0.1944 -0.5070 -0.4382
  242MOL0     C33287  12.000   7.797  11.275  0.2734 -0.1446 -0.0232
  242MOL0     C33288  12.145   7.795  11.298  0.5193  0.6640  0.2602
  242MOL0     O33289  12.211   7.906  11.260  0.3305  0.1347 -0.1241
  242MOL0     C33290  12.331   7.924  11.310  0.0340 -0.1843  0.2341
  242MOL0     C33291  12.440   7.860  11.243  0.3862  0.4971 -0.3535
  242MOL0     C33292  12.568   7.859  11.300 -1.2839  0.1452 -0.5083
  242MOL0     C33293  12.588   7.929  11.417 -0.0657 -0.2196 -0.1880
  242MOL0     O33294  12.707   7.927  11.487  1.3374 -0.1694  0.4177
  242MOL0     C33295  12.762   7.804  11.496 -0.5205  0.3144  0.5045
  242MOL0     C33296  12.872   7.809  11.606 -0.3969 -0.0377  0.1153
  242MOL0     C33297  12.920   7.673  11.642 -0.1643  0.5885  0.2566
  242MOL0     C33298  12.971   7.587  11.525 -0.4761  0.2035  0.0338
  242MOL0     C33299  13.036   7.455  11.562  0.0725  0.0326 -0.1622
  242MOL0     C33300  13.122   7.384  11.446  0.0027 -0.2464 -0.2441
  242MOL0     C33301  13.187   7.254  11.494 -0.4137  0.3542 -0.1578
  242MOL0     C33302  13.235   7.177  11.371 -0.0429 -0.6666 -0.1600
  242MOL0    Cl33303  13.293   7.035  11.443  0.4673  0.2609  0.2797
  242MOL0     C33304  12.484   8.001  11.472  0.5326  0.1718 -0.0695
  242MOL0     C33305  12.358   7.998  11.423  0.8641  0.5209  0.4527
  242MOL0     O33306  12.196   7.701  11.358  0.1451 -0.3530 -0.5842
  242MOL0     C33307  11.950   7.858  11.156 -0.4330  0.6176  0.4044
  242MOL0     C33308  11.814   7.863  11.128  0.8043 -0.2549 -0.4554
  242MOL0     N33309  11.092   8.103  11.155 -0.2101 -1.2514  0.7057
  242MOL0     N33310  11.026   8.145  11.265 -0.6531 -0.0461  0.1069
  242MOL0     C33311   9.828   8.072  11.381  0.2011 -0.1417 -0.4008
  242MOL0     C33312   9.708   8.128  11.428 -0.2951 -0.0112  0.3351
  242MOL0     C33313   9.346   8.364  11.521  0.6093 -0.7545  0.8553
  242MOL0     C33314   9.358   8.507  11.513  0.3457 -0.4535  0.3322
  242MOL0     C33315   9.257   8.591  11.562  0.7137  0.3281 -1.0725
  242MOL0     C33316   9.150   8.530  11.623  0.0970  0.0870  0.2754
  242MOL0     O33317   9.060   8.618  11.678  0.2019  0.6048  0.3463
  242MOL0     C33318   8.942   8.577  11.752  0.7208 -0.3958  0.3340
  242MOL0     C33319   8.819   8.561  11.663 -1.2815  0.6700  0.4772
  242MOL0     C33320   8.786   8.695  11.598  0.4019 -0.4455  0.0734
  242MOL0     C33321   8.883   8.758  11.498 -0.4117  0.6362  0.0995
  242MOL0     C33322   8.812   8.859  11.411  0.3361  0.0906 -0.2002
  242MOL0     C33323   8.763   8.945  11.345 -0.0085 -0.3225  0.1071
  242MOL0     C33324   9.135   8.392  11.631 -1.0585  0.6299  0.8699
  242MOL0     C33325   9.229   8.304  11.574 -0.4928 -0.3017 -0.0422
  242MOL0     C33326   9.214   8.159  11.617  0.1335  0.8892  0.5637
  242MOL0     H33327   9.781   8.457  11.423  4.1591 -0.1934 -0.2559
  242MOL0     H33328   9.980   8.377  11.318  1.3542 -0.3548  0.5504
  242MOL0     H33329  10.218   7.994  11.316 -0.1754 -0.4245 -1.5086
  242MOL0     H33330  10.087   7.994  11.431  1.6529  1.5127  3.4032
  242MOL0     H33331  10.312   8.192  11.388 -1.4464  2.6202 -0.3455
  242MOL0     H33332  10.166   8.235  11.480  0.0334 -0.0806  0.2942
  242MOL0     H33333  10.232   8.106  11.663  2.0164 -2.0350  1.0122
  242MOL0     H33334  10.275   7.968  11.579  1.2989 -0.3006 -0.3295
  242MOL0     H33335  10.457   8.209  11.626 -0.8228  0.7255 -1.2078
  242MOL0     H33336  10.455   8.063  11.713  0.4941  0.7733 -0.8750
  242MOL0     H33337  10.506   8.061  11.420 -0.4023 -3.9595 -0.5430
  242MOL0     H33338  10.515   7.922  11.530  2.0339 -1.4258  0.3969
  242MOL0     H33339  10.695   8.170  11.552 -2.7983  0.0470  0.1828
  242MOL0     H33340  10.716   8.003  11.628  0.7246  1.7978  1.3564
  242MOL0     H33341  10.741   8.061  11.346 -1.5929 -0.4701  0.8360
  242MOL0     H33342  10.729   7.902  11.423  0.1545 -0.7930 -0.6924
  242MOL0     H33343  10.944   8.111  11.518  2.6751  0.2773 -1.6745
  242MOL0     H33344  10.962   7.933  11.505 -0.6710 -0.8374 -1.0941
  242MOL0     H33345  11.008   7.821  11.296  1.1542 -0.2417  0.8045
  242MOL0     H33346  11.079   7.895  10.938  2.6258 -0.3042 -1.0213
  242MOL0     H33347  11.120   7.772  11.056 -3.3156 -0.9194 -3.6800
  242MOL0     H33348  11.302   7.827  10.922 -2.6886 -0.0544 -1.3347
  242MOL0     H33349  11.317   7.992  10.967  0.0181  0.3759  2.5548
  242MOL0     H33350  11.347   7.919  11.215  1.5554  2.5765  0.0628
  242MOL0     H33351  11.365   7.758  11.143  0.0899 -0.1742 -1.6669
  242MOL0     H33352  11.558   7.829  11.015 -4.2421  2.1360 -3.0884
  242MOL0     H33353  11.550   7.988  11.092  3.8080  0.2039  0.7296
  242MOL0     H33354  11.699   7.763  11.428  0.6380  2.0111  0.0706
  242MOL0     H33355  12.011   7.622  11.513 -2.3614 -1.9432  0.9087
  242MOL0     H33356  11.874   7.703  11.579  0.5423  1.1197  0.4947
  242MOL0     H33357  12.034   7.790  11.554  1.5407 -1.4115 -1.1991
  242MOL0     H33358  12.415   7.805  11.152  0.9050 -1.6315  0.7202
  242MOL0     H33359  12.643   7.797  11.252 -2.3847 -0.2287 -1.8244
  242MOL0     H33360  12.681   7.731  11.506 -1.0613  0.7993 -0.2081
  242MOL0     H33361  12.815   7.777  11.405 -0.1704  3.0404 -0.1880
  242MOL0     H33362  12.952   7.880  11.584  0.5261 -0.8875  0.6111
  242MOL0     H33363  12.819   7.848  11.693 -0.7362 -1.9546  0.8280
  242MOL0     H33364  12.831   7.622  11.681 -0.2504 -0.0060 -0.6763
  242MOL0     H33365  12.992   7.669  11.724  0.8000 -1.7091 -0.6114
  242MOL0     H33366  13.042   7.653  11.474 -2.0995  2.9682  1.0870
  242MOL0     H33367  12.893   7.561  11.452  0.3493 -1.9665 -0.1384
  242MOL0     H33368  13.117   7.468  11.635  1.6773 -1.7383 -1.5128
  242MOL0     H33369  12.962   7.386  11.603 -1.9181  1.0602 -1.8401
  242MOL0     H33370  13.203   7.451  11.417 -0.6121 -0.4271 -2.6005
  242MOL0     H33371  13.051   7.356  11.367  1.4358 -0.6457 -1.4228
  242MOL0     H33372  13.110   7.197  11.548 -1.3013  1.6474  0.0025
  242MOL0     H33373  13.274   7.272  11.557 -0.8270  0.4382  0.3997
  242MOL0     H33374  13.320   7.220  11.318 -0.4336  2.6710  1.6443
  242MOL0     H33375  13.148   7.155  11.309  0.4624 -1.1055 -0.7241
  242MOL0     H33376  12.506   8.052  11.566 -0.3658  0.3439  0.0576
  242MOL0     H33377  12.275   8.047  11.473 -0.7210  1.0580 -2.5121
  242MOL0     H33378  12.010   7.902  11.077  1.1334 -3.2214 -0.7873
  242MOL0     H33379  11.777   7.900  11.033  1.5589  1.6453 -0.0583
  242MOL0     H33380   9.848   7.965  11.375  1.9358 -0.4518  5.1224
  242MOL0     H33381   9.623   8.068  11.458 -0.8325  1.0879  1.0728
  242MOL0     H33382   9.442   8.552  11.460 -2.2617  1.7504 -2.2561
  242MOL0     H33383   9.264   8.699  11.559 -0.8630  0.4303 -3.0813
  242MOL0     H33384   8.953   8.480  11.802 -2.0780 -1.8212 -1.4994
  242MOL0     H33385   8.928   8.651  11.831  1.1679  0.4924 -0.4074
  242MOL0     H33386   8.733   8.521  11.718  0.2794 -2.2981  0.9484
  242MOL0     H33387   8.833   8.491  11.580 -3.8126  1.4825 -0.7421
  242MOL0     H33388   8.691   8.679  11.545  0.0696  0.4999  0.3477
  242MOL0     H33389   8.768   8.760  11.685  1.2504 -1.0953  0.7498
  242MOL0     H33390   8.915   8.679  11.430 -0.7688  2.1902 -1.9756
  242MOL0     H33391   8.972   8.795  11.550  0.2402 -1.1613  0.3288
  242MOL0     H33392   8.729   9.035  11.298 -0.7089 -1.4664 -1.7040
  242MOL0     H33393   9.056   8.343  11.686 -0.2985 -1.9713 -0.2407
  242MOL0     H33394   9.180   8.105  11.528  2.4447  2.4041 -1.3521
  242MOL0     H33395   9.317   8.127  11.637  2.1907  3.9515 -3.5822
  242MOL0     H33396   9.158   8.147  11.710  2.5763 -4.1363  1.7460
  243MOL0     O33397   3.749   2.184   9.929  0.2012  0.5827  0.1374
  243MOL0     C33398   3.631   2.214   9.938  0.1751 -0.8657 -0.0323
  243MOL0     O33399   3.531   2.129   9.940 -0.3810  0.3274  0.6811
  243MOL0     C33400   3.548   2.003   9.995  0.0486  0.5302  0.0063
  243MOL0     C33401   3.632   1.914   9.937  0.7094  0.3911 -0.3922
  243MOL0     C33402   3.634   1.779   9.976  0.2979 -0.1147 -0.9108
  243MOL0     C33403   3.561   1.744  10.088 -0.1130  0.2901  1.4142
  243MOL0     O33404   3.581   1.614  10.127  0.2224  0.8829 -0.6179
  243MOL0     C33405   3.533   1.586  10.261 -0.2914 -0.1800  1.3597
  243MOL0     C33406   3.565   1.457  10.310  0.0552 -0.0608  0.5053
  243MOL0     C33407   3.707   1.427  10.287 -0.4787 -0.0331  0.1407
  243MOL0     C33408   3.735   1.294  10.356 -0.3984 -0.1996 -0.2384
  243MOL0     C33409   3.738   1.307  10.509 -0.8595 -0.0113 -1.1683
  243MOL0     C33410   3.801   1.184  10.576  0.8744  0.0987 -0.5208
  243MOL0     C33411   3.775   1.180  10.734 -0.1340 -0.0757  0.7259
  243MOL0     C33412   3.840   1.307  10.795  0.1102  0.8939  0.0654
  243MOL0     N33413   3.849   1.281  10.939 -0.3648 -0.3595  0.4370
  243MOL0     C33414   3.929   1.193  11.013  0.1763 -0.0323  0.3202
  243MOL0     C33415   3.889   1.202  11.140  0.3589 -0.1641 -0.7256
  243MOL0     C33416   3.946   1.154  11.271  0.1457 -0.6334 -0.0146
  243MOL0     C33417   4.085   1.218  11.298 -1.0339 -0.4657  0.6678
  243MOL0     C33418   4.184   1.111  11.354  0.3504 -0.7663 -0.4554
  243MOL0     C33419   4.323   1.170  11.375 -0.2508  0.4502 -0.9751
  243MOL0     O33420   4.392   1.197  11.253 -0.1794 -0.7044  0.0201
  243MOL0     C33421   4.526   1.186  11.246 -0.3043  0.4675 -1.0287
  243MOL0     C33422   4.585   1.156  11.118  0.6648  0.2563  0.4866
  243MOL0     C33423   4.719   1.130  11.097  0.4754 -0.0527 -0.9425
  243MOL0     C33424   4.764   1.114  10.956  0.1189  0.3266 -0.1058
  243MOL0     C33425   4.810   1.124  11.207  0.0672  0.6444  0.2252
  243MOL0     C33426   4.954   1.101  11.206 -0.4476  0.3193 -0.2499
  243MOL0     O33427   5.016   1.130  11.321 -0.6827  0.0003  0.2452
  243MOL0     C33428   5.150   1.122  11.330 -0.9427  0.7378  0.4610
  243MOL0     C33429   5.211   1.022  11.414  0.0439 -0.7238  0.2369
  243MOL0     C33430   5.351   0.998  11.409  0.4097  0.3258 -0.3488
  243MOL0     C33431   5.436   1.070  11.325  0.2611 -0.6539 -0.2351
  243MOL0     O33432   5.568   1.034  11.333  0.2501  0.0617 -0.3669
  243MOL0     C33433   5.675   1.087  11.250  0.1623 -0.1058  0.2635
  243MOL0     C33434   5.803   1.009  11.283  0.1526 -0.0004  0.1702
  243MOL0     C33435   5.923   1.081  11.231 -0.1749 -0.1806  0.7009
  243MOL0     C33436   6.056   1.006  11.250  0.8067 -0.3575  0.2214
  243MOL0     C33437   6.057   0.860  11.182  0.1638 -0.8797 -0.0868
  243MOL0     C33438   6.203   0.801  11.186  0.8796  0.9173 -0.1247
  243MOL0     C33439   6.197   0.652  11.160  0.1866 -0.5445 -0.1564
  243MOL0     C33440   6.330   0.590  11.185  0.4864 -0.1128  0.3873
  243MOL0    Cl33441   6.373   0.593  11.359 -0.0065  0.5447 -0.2966
  243MOL0     C33442   5.378   1.175  11.251 -0.4941 -0.7028 -1.1964
  243MOL0     C33443   5.238   1.196  11.253 -0.3017 -0.2810 -0.3485
  243MOL0     O33444   5.005   1.059  11.102 -0.2957 -0.4774 -0.8743
  243MOL0     C33445   4.751   1.146  11.337 -0.1540  0.5009  0.3295
  243MOL0     C33446   4.613   1.175  11.361  0.0139  0.3038  0.7654
  243MOL0     N33447   3.783   1.292  11.143  0.1127  0.1885 -0.5065
  243MOL0     N33448   3.762   1.334  11.027 -0.6333 -0.3436  0.4265
  243MOL0     C33449   3.470   1.836  10.147  0.3161 -0.6511 -0.7053
  243MOL0     C33450   3.463   1.973  10.102  0.2700  0.4998  0.5293
  243MOL0     C33451   3.598   2.362   9.942  0.5238  0.6817  1.1715
  243MOL0     C33452   3.680   2.445  10.019 -0.2579  0.4315 -0.4932
  243MOL0     C33453   3.657   2.582  10.026 -0.5412  0.6305  0.5007
  243MOL0     C33454   3.548   2.641   9.960 -0.6597  0.0506  0.2575
  243MOL0     O33455   3.530   2.773   9.979  0.2292  0.5349  0.4574
  243MOL0     C33456   3.439   2.849   9.898  1.1194 -0.1091 -1.0227
  243MOL0     C33457   3.401   2.986   9.954  0.2346 -0.5241 -0.5625
  243MOL0     C33458   3.334   2.983  10.091 -0.6596  0.6888  0.3659
  243MOL0     C33459   3.194   2.916  10.085 -0.8046  0.1587  0.6483
  243MOL0     C33460   3.092   2.984   9.996  0.0616  0.3467  0.0420
  243MOL0     C33461   3.009   3.041   9.933  0.1089 -0.4665  0.3429
  243MOL0     C33462   3.479   2.563   9.872 -0.5058  1.0314 -1.0087
  243MOL0     C33463   3.496   2.423   9.858 -0.3018 -0.0610 -1.0713
  243MOL0     C33464   3.409   2.357   9.758 -0.7559  0.5494 -0.5114
  243MOL0     H33465   3.692   1.941   9.851 -0.4827 -2.6531 -2.3273
  243MOL0     H33466   3.716   1.727   9.929  1.1038  0.9641 -0.7378
  243MOL0     H33467   3.424   1.587  10.250 -0.4903 -1.5258  2.8503
  243MOL0     H33468   3.567   1.661  10.333  0.8555 -0.1274  0.7782
  243MOL0     H33469   3.532   1.466  10.414 -0.2357 -4.1489  0.9417
  243MOL0     H33470   3.491   1.395  10.259 -1.2857  0.9840  1.1177
  243MOL0     H33471   3.740   1.427  10.183  2.3978  2.9868  0.8684
  243MOL0     H33472   3.770   1.503  10.335 -2.4300  1.0492  1.1236
  243MOL0     H33473   3.665   1.212  10.339  1.5748 -3.1542  3.9762
  243MOL0     H33474   3.830   1.247  10.327  0.1167 -0.3423  1.5931
  243MOL0     H33475   3.635   1.311  10.547 -1.2866  1.0624 -2.3892
  243MOL0     H33476   3.793   1.395  10.544 -3.7274  0.0558  4.3490
  243MOL0     H33477   3.757   1.096  10.528  1.1251  0.1410 -0.8314
  243MOL0     H33478   3.907   1.193  10.549  0.7421 -1.8512 -1.8618
  243MOL0     H33479   3.826   1.090  10.769  1.5096  0.2397 -0.7256
  243MOL0     H33480   3.671   1.163  10.763 -0.2941 -2.9262 -1.1876
  243MOL0     H33481   3.932   1.334  10.742  0.8655  4.5225  2.8044
  243MOL0     H33482   3.768   1.388  10.782  1.1442  2.6192  3.7326
  243MOL0     H33483   4.019   1.153  10.968  1.4042  2.4445  0.4278
  243MOL0     H33484   3.941   1.045  11.263 -0.5800 -0.6800  0.9367
  243MOL0     H33485   3.882   1.189  11.352 -1.3101 -0.6264 -1.1142
  243MOL0     H33486   4.117   1.250  11.199  1.2390 -1.3374  1.0370
  243MOL0     H33487   4.077   1.298  11.372 -0.4516 -1.1429  1.4835
  243MOL0     H33488   4.145   1.065  11.446 -0.8589 -2.0262 -1.5398
  243MOL0     H33489   4.203   1.033  11.279  1.6924 -0.4660 -0.4427
  243MOL0     H33490   4.311   1.264  11.430  0.5021  0.3058 -0.5551
  243MOL0     H33491   4.380   1.101  11.437  1.1643  0.5047 -2.1321
  243MOL0     H33492   4.513   1.159  11.037  0.3913 -0.0111  0.7173
  243MOL0     H33493   4.848   1.179  10.931  1.7757 -0.3892  3.0726
  243MOL0     H33494   4.691   1.120  10.875  3.5138 -2.4298 -3.7168
  243MOL0     H33495   4.814   1.017  10.956  0.0285  0.2760  0.3198
  243MOL0     H33496   5.145   0.972  11.483  1.6129 -0.8066  1.7423
  243MOL0     H33497   5.391   0.916  11.467 -1.3362 -1.8000 -1.9399
  243MOL0     H33498   5.654   1.097  11.143 -0.4106 -0.9548  0.2915
  243MOL0     H33499   5.678   1.192  11.280 -2.2012  0.5935 -1.5976
  243MOL0     H33500   5.816   0.990  11.390  0.0220  2.9645  0.7988
  243MOL0     H33501   5.797   0.910  11.237 -1.2569  0.4395 -0.6618
  243MOL0     H33502   5.933   1.179  11.279  3.0331  1.3134 -2.5246
  243MOL0     H33503   5.905   1.096  11.124 -0.7275 -0.5019  0.7463
  243MOL0     H33504   6.089   1.005  11.354 -0.6651  1.1387  0.7419
  243MOL0     H33505   6.132   1.056  11.188 -1.2668 -1.3876 -3.4805
  243MOL0     H33506   5.990   0.804  11.248  0.4133 -0.9627  0.0987
  243MOL0     H33507   6.021   0.868  11.079 -0.5457  1.5610  0.3002
  243MOL0     H33508   6.252   0.820  11.282 -2.2047 -0.8321  1.9565
  243MOL0     H33509   6.252   0.844  11.098  0.9884 -1.5675 -1.3741
  243MOL0     H33510   6.180   0.642  11.052 -0.0775  0.8906 -0.2768
  243MOL0     H33511   6.119   0.615  11.227  0.4556  1.6803  1.5080
  243MOL0     H33512   6.394   0.660  11.132  1.0957 -1.0731 -0.1601
  243MOL0     H33513   6.333   0.490  11.141  2.2007  0.7959 -1.7102
  243MOL0     H33514   5.436   1.239  11.186  3.4614 -2.3438  0.4118
  243MOL0     H33515   5.192   1.268  11.186 -0.3037 -2.0820 -2.3717
  243MOL0     H33516   4.809   1.148  11.429  2.9690  1.0633 -1.5040
  243MOL0     H33517   4.570   1.192  11.459  1.3187 -1.9759  1.8137
  243MOL0     H33518   3.401   1.816  10.228 -2.1725  1.2995 -2.1676
  243MOL0     H33519   3.387   2.044  10.132  0.4546  1.6259 -1.4904
  243MOL0     H33520   3.773   2.404  10.059 -1.0331 -1.0922 -0.1740
  243MOL0     H33521   3.730   2.642  10.079  0.0996  0.6017 -0.3304
  243MOL0     H33522   3.482   2.856   9.798  1.5366  1.1806 -0.7683
  243MOL0     H33523   3.341   2.799   9.890  0.1930  1.2696  0.8989
  243MOL0     H33524   3.348   3.050   9.883  2.8640 -0.2715 -2.4430
  243MOL0     H33525   3.493   3.045   9.962  0.2178 -0.5409 -0.2356
  243MOL0     H33526   3.394   2.943  10.173 -0.3324  1.2700  0.4144
  243MOL0     H33527   3.320   3.085  10.128  0.3391  0.4247  1.5048
  243MOL0     H33528   3.170   2.910  10.191  1.8392 -1.9911  1.2279
  243MOL0     H33529   3.199   2.811  10.057  0.4711  0.7080 -1.4457
  243MOL0     H33530   2.940   3.101   9.878 -0.8326  0.0713  2.0501
  243MOL0     H33531   3.396   2.609   9.820 -0.0771  2.0175 -0.8452
  243MOL0     H33532   3.306   2.388   9.774 -0.3870  1.5010  0.0883
  243MOL0     H33533   3.442   2.389   9.658 -1.1513  1.4300 -0.3691
  243MOL0     H33534   3.422   2.250   9.739 -0.5266  0.4574  0.1445
  244MOL0     O33535   5.838   2.891   1.035 -0.0687  0.9476  0.7633
  244MOL0     C33536   5.784   2.892   1.145  0.3488  0.4224  1.1758
  244MOL0     O33537   5.851   2.912   1.261  0.2568  0.4000  0.6184
  244MOL0     C33538   5.975   2.957   1.269 -1.0721  0.0208  0.1620
  244MOL0     C33539   6.020   3.065   1.198  0.3202  0.1062 -0.2044
  244MOL0     C33540   6.154   3.106   1.200  0.5882 -0.0770  0.2394
  244MOL0     C33541   6.237   3.028   1.282 -0.7865 -0.4457  0.2379
  244MOL0     O33542   6.365   3.064   1.288 -0.0346  0.0067  0.3964
  244MOL0     C33543   6.406   3.167   1.385  0.4070  0.8770 -0.2157
  244MOL0     C33544   6.536   3.222   1.336 -0.0776  0.4748 -0.2702
  244MOL0     C33545   6.582   3.337   1.434  0.2525  0.0435  0.1437
  244MOL0     C33546   6.641   3.280   1.562  0.3271 -0.4110  0.0214
  244MOL0     C33547   6.712   3.384   1.651 -0.1080  0.1406  0.0759
  244MOL0     C33548   6.805   3.309   1.749  0.6077 -0.9867  0.0326
  244MOL0     C33549   6.887   3.390   1.839 -0.2672 -0.0616 -0.9548
  244MOL0     C33550   6.970   3.497   1.769 -0.2419 -0.5613  0.5372
  244MOL0     N33551   7.048   3.590   1.857  0.0986 -0.1451 -0.9101
  244MOL0     C33552   7.160   3.562   1.939  0.0049  0.0208 -0.2689
  244MOL0     C33553   7.188   3.683   2.000  0.2887  0.4924 -0.1904
  244MOL0     C33554   7.289   3.707   2.111  0.3846 -0.2948 -0.4350
  244MOL0     C33555   7.399   3.805   2.065 -0.2357  0.4900 -0.5629
  244MOL0     C33556   7.522   3.780   2.159 -0.5093  1.0332 -0.5669
  244MOL0     C33557   7.644   3.867   2.143  0.5864 -0.2838  0.9479
  244MOL0     O33558   7.621   4.000   2.184 -0.1980 -0.0387  0.9136
  244MOL0     C33559   7.730   4.080   2.161 -0.9485 -0.3743  0.2753
  244MOL0     C33560   7.852   4.043   2.104 -0.3724  0.0535 -0.5285
  244MOL0     C33561   7.956   4.139   2.096  0.1642  0.2366  0.0330
  244MOL0     C33562   8.092   4.084   2.058  0.2673 -1.0005  0.7317
  244MOL0     C33563   7.940   4.271   2.120  0.5084 -0.6694  0.1173
  244MOL0     C33564   8.055   4.369   2.139  0.5190 -0.2208 -0.7861
  244MOL0     O33565   8.169   4.313   2.207  0.5960 -0.6306  1.3211
  244MOL0     C33566   8.268   4.394   2.239 -0.9035 -0.4569 -0.6618
  244MOL0     C33567   8.257   4.496   2.339 -0.2880 -0.0687  0.4293
  244MOL0     C33568   8.371   4.571   2.372  0.0982  0.1206 -0.4124
  244MOL0     C33569   8.501   4.530   2.315  0.1585 -0.2470 -0.1174
  244MOL0     O33570   8.617   4.586   2.361 -0.4758 -0.3833 -0.7980
  244MOL0     C33571   8.622   4.729   2.379 -0.5598 -0.5090  0.8283
  244MOL0     C33572   8.776   4.747   2.371  0.2185  0.1770  0.1198
  244MOL0     C33573   8.811   4.895   2.379  0.3499  0.3307 -0.8201
  244MOL0     C33574   8.966   4.927   2.364  0.0647  0.8468 -0.1786
  244MOL0     C33575   8.985   5.080   2.345 -0.2510  0.2048  0.3844
  244MOL0     C33576   9.134   5.106   2.336 -1.7743  1.0448 -0.0207
  244MOL0     C33577   9.161   5.255   2.305 -0.3385 -0.5451 -0.0138
  244MOL0     C33578   9.284   5.308   2.379 -0.6091 -0.4468  0.1482
  244MOL0    Cl33579   9.283   5.489   2.376 -0.1396  0.2078  0.0877
  244MOL0     C33580   8.506   4.434   2.217  0.7602  0.3799 -0.0181
  244MOL0     C33581   8.391   4.371   2.175 -0.1446 -0.2113  0.0011
  244MOL0     O33582   8.033   4.488   2.121 -0.1512  0.4771 -0.0210
  244MOL0     C33583   7.810   4.315   2.149  0.7509  1.3837  0.0922
  244MOL0     C33584   7.714   4.219   2.165 -0.3518  0.4009 -0.6126
  244MOL0     N33585   7.089   3.772   1.969 -0.7697  0.3443  0.7427
  244MOL0     N33586   7.003   3.715   1.889 -1.1528 -0.2337 -0.4250
  244MOL0     C33587   6.197   2.922   1.359  0.7425  0.0173 -0.5539
  244MOL0     C33588   6.060   2.889   1.358 -0.7092  0.1520  0.0725
  244MOL0     C33589   5.637   2.859   1.155 -0.0997  0.0322 -0.7860
  244MOL0     C33590   5.581   2.842   1.287  0.2001  0.4012  0.5795
  244MOL0     C33591   5.444   2.801   1.298 -0.2724 -0.1348  0.5258
  244MOL0     C33592   5.368   2.783   1.186  0.1951  0.9058  0.3756
  244MOL0     O33593   5.238   2.728   1.187  0.1263  0.8516 -0.4536
  244MOL0     C33594   5.144   2.816   1.247 -0.4691 -0.1669 -0.5818
  244MOL0     C33595   5.011   2.741   1.262 -0.0675 -0.1384 -0.4090
  244MOL0     C33596   4.886   2.822   1.308 -0.0466  0.7613 -0.2201
  244MOL0     C33597   4.752   2.739   1.296  0.1476  0.1743 -0.4812
  244MOL0     C33598   4.740   2.628   1.393  0.1052  0.3787  0.1896
  244MOL0     C33599   4.731   2.529   1.456 -0.2981  0.3892  0.3747
  244MOL0     C33600   5.419   2.804   1.058  0.5991  0.5759  0.3802
  244MOL0     C33601   5.554   2.839   1.041  0.8971 -0.2723 -0.2820
  244MOL0     C33602   5.600   2.851   0.903 -0.3655  0.0815 -0.1756
  244MOL0     H33603   5.953   3.117   1.130 -0.4397 -2.4239 -1.5167
  244MOL0     H33604   6.197   3.186   1.141  1.8442 -2.5439 -2.4607
  244MOL0     H33605   6.400   3.133   1.489  0.1901  0.7345 -0.2742
  244MOL0     H33606   6.333   3.248   1.388 -0.0152  0.5586 -1.3652
  244MOL0     H33607   6.615   3.146   1.332 -0.4484 -0.0755  1.9165
  244MOL0     H33608   6.531   3.267   1.236 -1.8476  1.5075  0.2479
  244MOL0     H33609   6.654   3.388   1.369 -0.2254 -1.5557 -1.7201
  244MOL0     H33610   6.512   3.417   1.463 -0.8182 -0.6974 -0.3435
  244MOL0     H33611   6.557   3.245   1.622 -1.4825  2.3050 -0.7405
  244MOL0     H33612   6.718   3.206   1.539  0.9116  0.1917 -0.0198
  244MOL0     H33613   6.639   3.453   1.695 -1.1451 -0.5083 -0.5959
  244MOL0     H33614   6.773   3.444   1.583 -1.6639  1.2514 -0.4113
  244MOL0     H33615   6.742   3.250   1.816  1.2148 -0.4764  1.0773
  244MOL0     H33616   6.876   3.250   1.691 -1.9040 -2.3161 -1.8863
  244MOL0     H33617   6.955   3.324   1.895 -0.8824 -0.0705 -0.2107
  244MOL0     H33618   6.820   3.440   1.910  1.1189  3.0698 -1.6915
  244MOL0     H33619   7.036   3.443   1.700 -1.2385 -0.0356 -0.8628
  244MOL0     H33620   6.907   3.571   1.719 -0.1450 -1.4366 -0.9329
  244MOL0     H33621   7.212   3.467   1.947 -0.5617 -0.2048  0.9534
  244MOL0     H33622   7.328   3.610   2.142  0.1343 -0.5556 -0.9438
  244MOL0     H33623   7.240   3.745   2.201 -0.1423  1.0620 -1.2624
  244MOL0     H33624   7.413   3.793   1.957 -1.3732  1.1527 -0.8059
  244MOL0     H33625   7.359   3.901   2.099 -0.4295 -0.5530  2.5214
  244MOL0     H33626   7.483   3.806   2.258 -0.6814  2.5096 -1.0041
  244MOL0     H33627   7.559   3.678   2.141 -2.5861  0.0240  0.4577
  244MOL0     H33628   7.724   3.826   2.204  1.2742 -0.1771  0.1392
  244MOL0     H33629   7.669   3.856   2.037 -0.8960  0.1671  0.5261
  244MOL0     H33630   7.873   3.941   2.074 -0.8446  0.3455 -1.9496
  244MOL0     H33631   8.136   4.162   1.996  0.4807  0.7047  2.8981
  244MOL0     H33632   8.087   3.990   2.002  0.7994 -1.1770  0.9721
  244MOL0     H33633   8.151   4.070   2.150 -0.1805 -1.9375  0.8928
  244MOL0     H33634   8.162   4.528   2.381  0.6418  1.8566  1.1841
  244MOL0     H33635   8.362   4.651   2.444  2.5596  1.1163 -1.1183
  244MOL0     H33636   8.578   4.794   2.303  0.5722  1.7849  2.0112
  244MOL0     H33637   8.581   4.751   2.478 -2.2765 -2.1514  0.5324
  244MOL0     H33638   8.834   4.705   2.454  1.9108 -1.4036 -1.7596
  244MOL0     H33639   8.811   4.691   2.284 -0.3838  0.7503 -0.5013
  244MOL0     H33640   8.780   4.937   2.475 -1.0240 -2.9272  0.2749
  244MOL0     H33641   8.755   4.950   2.302 -0.5906  3.0104  1.5812
  244MOL0     H33642   9.005   4.873   2.277  0.9669 -4.7229  3.1841
  244MOL0     H33643   9.010   4.895   2.459 -0.6365  2.3445  0.6739
  244MOL0     H33644   8.921   5.107   2.259  1.9379  2.4701 -0.6649
  244MOL0     H33645   8.942   5.140   2.426 -1.5026 -0.3482  0.1528
  244MOL0     H33646   9.184   5.042   2.263 -1.5235  0.2319  0.8398
  244MOL0     H33647   9.166   5.086   2.439  0.1814  1.7712 -0.4351
  244MOL0     H33648   9.069   5.307   2.334 -0.3789 -1.6553  2.1006
  244MOL0     H33649   9.177   5.267   2.198  0.0639  1.9098  0.2586
  244MOL0     H33650   9.377   5.265   2.339 -1.6809 -0.2662 -2.7663
  244MOL0     H33651   9.284   5.277   2.484  0.7630 -0.4120  0.1807
  244MOL0     H33652   8.604   4.398   2.184 -0.3697 -1.9990 -1.0118
  244MOL0     H33653   8.408   4.282   2.116  1.1556 -1.1289  1.6870
  244MOL0     H33654   7.801   4.423   2.158 -1.5787  1.2825 -0.3820
  244MOL0     H33655   7.612   4.255   2.180 -1.3316 -1.9242 -1.2033
  244MOL0     H33656   6.266   2.865   1.420  2.1927  1.8403 -0.3802
  244MOL0     H33657   6.033   2.806   1.422  1.1311  0.0886  0.8209
  244MOL0     H33658   5.649   2.846   1.372  1.7172 -1.0771 -0.4943
  244MOL0     H33659   5.414   2.765   1.396  2.2404 -4.5743 -0.0919
  244MOL0     H33660   5.173   2.853   1.346  0.5343 -1.0718 -0.5311
  244MOL0     H33661   5.139   2.904   1.182 -2.3791 -1.0454 -1.7146
  244MOL0     H33662   5.031   2.662   1.335 -0.1546 -0.9254 -1.2120
  244MOL0     H33663   4.985   2.695   1.166 -3.3014  1.1043 -0.2454
  244MOL0     H33664   4.899   2.853   1.412  1.0557  0.4512 -0.2516
  244MOL0     H33665   4.884   2.915   1.250  0.9336  1.8431  1.3830
  244MOL0     H33666   4.762   2.705   1.193  0.8837 -1.0135 -0.0396
  244MOL0     H33667   4.671   2.812   1.302  0.7868  1.4404 -4.3654
  244MOL0     H33668   4.727   2.434   1.504  1.1936  0.6187  1.0200
  244MOL0     H33669   5.355   2.786   0.972  1.7534  1.1074 -0.6271
  244MOL0     H33670   5.616   2.954   0.870 -1.0781  0.7330  1.3910
  244MOL0     H33671   5.692   2.797   0.882  0.8606  2.5498 -1.6380
  244MOL0     H33672   5.525   2.808   0.836 -2.1350  0.0464  1.7196
  245MOL0     O33673   2.425   9.211   9.920 -0.3494 -0.0996  0.2183
  245MOL0     C33674   2.467   9.323   9.887  1.1363 -0.2545 -0.3296
  245MOL0     O33675   2.388   9.432   9.870  0.5129 -0.6697  0.1011
  245MOL0     C33676   2.255   9.428   9.907 -0.6992  0.4171 -0.0118
  245MOL0     C33677   2.213   9.495  10.027 -0.7953  0.1636  0.4523
  245MOL0     C33678   2.091   9.464  10.079  0.0854  0.1185  1.1094
  245MOL0     C33679   1.993   9.401  10.000  0.1966  0.6308 -0.9553
  245MOL0     O33680   1.861   9.386  10.054 -0.5114  0.0078  0.4507
  245MOL0     C33681   1.764   9.314   9.987 -0.5097  0.0021  0.1081
  245MOL0     C33682   1.657   9.414   9.943  1.3077 -0.4415 -0.2627
  245MOL0     C33683   1.558   9.324   9.863  0.4597 -0.3574  0.7001
  245MOL0     C33684   1.408   9.372   9.852 -0.0576  0.2231 -0.0369
  245MOL0     C33685   1.337   9.336   9.726  1.0766  0.0776  0.2961
  245MOL0     C33686   1.343   9.179   9.702 -1.0182 -0.1391  0.1199
  245MOL0     C33687   1.236   9.115   9.615 -0.2127  0.0743  0.3956
  245MOL0     C33688   1.106   9.111   9.694  0.5657  0.7155 -0.4533
  245MOL0     N33689   0.997   9.039   9.619 -0.1884 -0.2629 -0.0927
  245MOL0     C33690   0.874   9.095   9.576 -0.5034  0.3237  0.3152
  245MOL0     C33691   0.817   8.991   9.510 -0.1017 -0.3627 -0.4487
  245MOL0     C33692   0.687   8.988   9.435 -0.5702  0.2768 -0.2264
  245MOL0     C33693   0.697   8.916   9.306 -0.1518  0.5468 -0.2250
  245MOL0     C33694   0.553   8.920   9.243  0.0162 -0.5891  0.5484
  245MOL0     C33695   0.541   9.045   9.142 -0.4217  0.2912 -0.9059
  245MOL0     O33696   0.451   9.142   9.195 -0.5626  0.0129 -1.0947
  245MOL0     C33697   0.319   9.133   9.183  0.1611 -0.7747  0.8405
  245MOL0     C33698   0.262   9.013   9.141  0.1845 -0.3222  1.1195
  245MOL0     C33699   0.123   9.000   9.122 -0.1715  0.5988 -0.0938
  245MOL0     C33700   0.080   8.867   9.052 -0.3378  0.9273 -0.1849
  245MOL0     C33701   0.042   9.112   9.158 -0.4668  0.5642 -0.7662
  245MOL0     C33702  -0.113   9.110   9.155  0.3929 -0.3686  0.6108
  245MOL0     O33703  -0.174   9.224   9.159  0.6124  0.6611 -0.5237
  245MOL0     C33704  -0.311   9.214   9.184  0.0229 -0.2012  0.2442
  245MOL0     C33705  -0.385   9.281   9.086 -0.0992  0.6604 -0.1828
  245MOL0     C33706  -0.527   9.297   9.110 -1.0180 -0.0467 -0.1569
  245MOL0     C33707  -0.581   9.244   9.230 -0.6003 -0.6199 -0.7875
  245MOL0     O33708  -0.718   9.265   9.244 -0.4825 -0.5766 -0.1200
  245MOL0     C33709  -0.780   9.255   9.369  0.5161 -0.6053 -0.9509
  245MOL0     C33710  -0.938   9.274   9.344 -0.0241 -0.3099  0.3261
  245MOL0     C33711  -1.029   9.330   9.451  0.2584 -0.1375 -0.3537
  245MOL0     C33712  -1.174   9.328   9.412 -0.4394 -0.1055 -0.0013
  245MOL0     C33713  -1.266   9.348   9.526 -0.0091  0.5170  0.0930
  245MOL0     C33714  -1.411   9.342   9.485  0.1217  0.4705  0.1001
  245MOL0     C33715  -1.499   9.311   9.614  0.4541 -0.6559  0.0354
  245MOL0     C33716  -1.646   9.284   9.571 -0.0171 -0.1498  0.1706
  245MOL0    Cl33717  -1.721   9.183   9.694  0.3070 -0.0040 -0.6983
  245MOL0     C33718  -0.498   9.190   9.318  0.3813  0.5061  0.0237
  245MOL0     C33719  -0.361   9.177   9.307  0.5393  0.2574  0.5779
  245MOL0     O33720  -0.160   8.998   9.136  0.3782  0.1525 -0.0804
  245MOL0     C33721   0.104   9.231   9.200 -0.1633 -0.4295  1.0676
  245MOL0     C33722   0.239   9.242   9.211 -0.3933 -0.0246 -0.2810
  245MOL0     N33723   0.895   8.882   9.526 -0.5504 -0.7836  0.7643
  245MOL0     N33724   1.000   8.908   9.588 -0.2527  0.4199  0.0454
  245MOL0     C33725   2.033   9.356   9.870  0.5412  0.0167  0.4045
  245MOL0     C33726   2.157   9.364   9.831 -0.5050  0.4238  0.0027
  245MOL0     C33727   2.613   9.344   9.886 -0.1598  0.1711  0.1643
  245MOL0     C33728   2.695   9.237   9.850 -0.3894 -0.3653 -0.3058
  245MOL0     C33729   2.832   9.245   9.827  0.6734 -0.4938 -0.1586
  245MOL0     C33730   2.894   9.368   9.852  0.5251 -0.2296  0.2805
  245MOL0     O33731   3.021   9.395   9.827 -0.4190 -0.1910 -0.2847
  245MOL0     C33732   3.091   9.296   9.752  0.6759  0.4478 -0.2876
  245MOL0     C33733   3.225   9.338   9.716 -0.2210  0.7160 -1.2198
  245MOL0     C33734   3.298   9.219   9.657  0.3058 -0.4393 -0.7521
  245MOL0     C33735   3.446   9.255   9.623 -0.6380  0.3501  0.1905
  245MOL0     C33736   3.532   9.153   9.683 -0.9990  0.3454  0.1805
  245MOL0     C33737   3.597   9.060   9.728 -0.3517  0.1715 -0.5022
  245MOL0     C33738   2.812   9.478   9.886 -0.7369 -0.1942 -0.5816
  245MOL0     C33739   2.677   9.470   9.915  0.0986 -0.5443  0.7042
  245MOL0     C33740   2.594   9.595   9.949  0.1044  0.2479  0.1695
  245MOL0     H33741   2.277   9.557  10.089 -0.1691  0.2432 -0.2680
  245MOL0     H33742   2.052   9.510  10.170 -1.7133  0.6040  0.1446
  245MOL0     H33743   1.720   9.240  10.054 -1.8189  1.0946  0.5103
  245MOL0     H33744   1.796   9.260   9.897 -0.1073  1.0990 -0.4362
  245MOL0     H33745   1.602   9.464  10.024 -1.4513 -1.5180 -1.3615
  245MOL0     H33746   1.702   9.498   9.891 -1.1871  1.0030 -0.2624
  245MOL0     H33747   1.596   9.326   9.760  1.4671  2.1251  1.0340
  245MOL0     H33748   1.545   9.219   9.888 -1.9020 -0.0175  1.1579
  245MOL0     H33749   1.351   9.331   9.935 -0.0980 -0.1235 -0.2352
  245MOL0     H33750   1.393   9.478   9.876 -1.8874 -0.7511  4.0653
  245MOL0     H33751   1.399   9.387   9.652  2.1233 -1.4345  0.0841
  245MOL0     H33752   1.234   9.372   9.726  0.7910 -0.6917 -0.5135
  245MOL0     H33753   1.439   9.154   9.656  0.2579  2.3841  1.2154
  245MOL0     H33754   1.350   9.123   9.796  0.5960  0.1351  0.1901
  245MOL0     H33755   1.278   9.017   9.591 -1.0805  0.0538 -1.1187
  245MOL0     H33756   1.230   9.166   9.519 -1.3679 -0.0057  0.4169
  245MOL0     H33757   1.124   9.057   9.787  1.7199  1.8288  0.0004
  245MOL0     H33758   1.080   9.213   9.727 -3.4993 -1.1257  3.0245
  245MOL0     H33759   0.848   9.200   9.572  0.4293  0.6175  1.4638
  245MOL0     H33760   0.654   9.090   9.412 -2.7106  0.1056  1.7651
  245MOL0     H33761   0.614   8.931   9.494  0.1888  1.5618  2.0586
  245MOL0     H33762   0.775   8.965   9.247  0.4951 -1.3437 -0.9915
  245MOL0     H33763   0.728   8.812   9.316 -0.9992  0.3161  0.1315
  245MOL0     H33764   0.543   8.828   9.186  0.1161  0.5616 -1.4337
  245MOL0     H33765   0.472   8.927   9.316 -1.5014  0.4251 -1.1423
  245MOL0     H33766   0.636   9.096   9.121 -0.1967 -0.0019 -0.5938
  245MOL0     H33767   0.512   9.007   9.043 -0.4055 -0.7240 -0.5226
  245MOL0     H33768   0.317   8.920   9.135 -0.3874 -0.5728 -0.6865
  245MOL0     H33769   0.006   8.823   9.119 -1.1394 -1.3717 -2.4012
  245MOL0     H33770   0.162   8.802   9.018 -1.0209 -0.2643  0.3684
  245MOL0     H33771   0.034   8.880   8.954  0.5092 -1.8183 -1.0588
  245MOL0     H33772  -0.335   9.311   8.995  0.8118 -0.1956  0.0220
  245MOL0     H33773  -0.588   9.343   9.034 -0.7402  1.3699  0.4474
  245MOL0     H33774  -0.762   9.152   9.400  1.2948 -0.7596 -1.8671
  245MOL0     H33775  -0.739   9.334   9.432  0.9603 -0.7459 -1.0599
  245MOL0     H33776  -0.940   9.339   9.256  1.0893  0.9057  1.1787
  245MOL0     H33777  -0.981   9.177   9.314 -0.3240  0.2237 -1.0488
  245MOL0     H33778  -0.999   9.427   9.490  0.1623 -0.6316  0.9999
  245MOL0     H33779  -1.016   9.264   9.538 -0.3487 -0.7823 -0.7434
  245MOL0     H33780  -1.193   9.229   9.372 -1.5165 -1.3454  3.2379
  245MOL0     H33781  -1.190   9.408   9.339  3.2216  1.5192  0.7572
  245MOL0     H33782  -1.254   9.257   9.584  1.1143 -0.8082 -2.0941
  245MOL0     H33783  -1.236   9.434   9.587  0.9552  1.2185 -1.3080
  245MOL0     H33784  -1.415   9.260   9.412  0.2016  1.0213 -0.5345
  245MOL0     H33785  -1.449   9.436   9.443 -3.0523  0.2105  2.0178
  245MOL0     H33786  -1.501   9.390   9.689 -0.4993 -0.7667  0.1375
  245MOL0     H33787  -1.465   9.218   9.659 -1.7759 -1.2094  0.6839
  245MOL0     H33788  -1.656   9.232   9.476  2.5640 -1.4078  0.4964
  245MOL0     H33789  -1.691   9.380   9.543  0.0372 -1.0419 -3.4826
  245MOL0     H33790  -0.548   9.166   9.412 -2.5817  2.4678 -0.9089
  245MOL0     H33791  -0.300   9.137   9.388 -1.2710 -1.7467  1.0226
  245MOL0     H33792   0.037   9.312   9.228 -1.4180 -1.2045  0.4022
  245MOL0     H33793   0.296   9.324   9.253 -0.0605  1.0215 -2.6326
  245MOL0     H33794   1.961   9.306   9.806  2.1000  0.7585 -2.0692
  245MOL0     H33795   2.197   9.317   9.742  1.6152  1.2364  0.4692
  245MOL0     H33796   2.650   9.144   9.817 -0.7604  0.3748 -2.0166
  245MOL0     H33797   2.884   9.156   9.794  2.4525  0.8279 -1.0763
  245MOL0     H33798   3.095   9.204   9.812  1.3651  0.2921 -0.5675
  245MOL0     H33799   3.041   9.283   9.656 -0.9035  3.2674  0.0449
  245MOL0     H33800   3.278   9.374   9.804  1.0885  3.9586 -3.1775
  245MOL0     H33801   3.220   9.420   9.644  2.4935  1.1826 -0.9540
  245MOL0     H33802   3.292   9.136   9.727 -0.0455 -1.4549 -1.9558
  245MOL0     H33803   3.242   9.194   9.567 -1.6025  4.2192 -1.1685
  245MOL0     H33804   3.477   9.345   9.677  0.3145 -0.5373  1.1934
  245MOL0     H33805   3.460   9.277   9.517 -2.3891  2.3456  0.3278
  245MOL0     H33806   3.661   8.981   9.762 -1.1219 -0.9072 -1.4751
  245MOL0     H33807   2.857   9.576   9.895 -0.2873 -0.5081  0.7055
  245MOL0     H33808   2.664   9.675   9.974  1.9579 -1.8320  2.0870
  245MOL0     H33809   2.536   9.621   9.860  1.7241 -0.2013 -1.0702
  245MOL0     H33810   2.520   9.574  10.027 -1.1112  1.1398 -0.7040
  246MOL0     O33811   1.791   1.796   0.429  0.7808  0.1960 -1.0172
  246MOL0     C33812   1.726   1.900   0.426 -0.2645 -0.7282 -0.4070
  246MOL0     O33813   1.725   1.993   0.522 -0.2484  0.3066 -0.1283
  246MOL0     C33814   1.737   1.947   0.648  0.3833  0.0750  0.2294
  246MOL0     C33815   1.646   1.864   0.715  0.3644  0.7475 -0.4788
  246MOL0     C33816   1.685   1.812   0.842  0.4956  1.1886  0.4237
  246MOL0     C33817   1.804   1.837   0.900 -0.1972  0.0997 -0.2926
  246MOL0     O33818   1.827   1.771   1.019 -0.1715  0.2205  0.2191
  246MOL0     C33819   1.943   1.827   1.094 -1.0456  0.3776 -0.2601
  246MOL0     C33820   1.926   1.973   1.139 -0.9022 -0.6371 -0.6291
  246MOL0     C33821   1.780   2.019   1.171  0.4301  0.8668 -0.2720
  246MOL0     C33822   1.720   1.923   1.283 -0.8494 -0.0397  0.0487
  246MOL0     C33823   1.581   1.974   1.320 -0.4189  0.2832 -0.0210
  246MOL0     C33824   1.500   1.892   1.425  0.6444  0.5476 -0.6438
  246MOL0     C33825   1.503   1.742   1.399 -0.2083 -0.3855  0.3033
  246MOL0     C33826   1.430   1.715   1.271  0.4636 -0.5759 -0.0845
  246MOL0     N33827   1.287   1.742   1.288 -0.2571 -1.0628 -0.2202
  246MOL0     C33828   1.218   1.673   1.379  0.1790  0.0380 -0.3237
  246MOL0     C33829   1.094   1.730   1.379 -0.2730 -0.4245  0.0683
  246MOL0     C33830   0.978   1.686   1.453  0.2552  0.3778  0.4349
  246MOL0     C33831   0.943   1.772   1.574  0.1865  0.1603  0.0095
  246MOL0     C33832   1.061   1.784   1.669 -0.2355 -0.5442  0.1159
  246MOL0     C33833   1.020   1.845   1.802  0.1168 -0.7066 -0.1102
  246MOL0     O33834   1.023   1.988   1.795  0.3198 -0.1396  0.0101
  246MOL0     C33835   1.148   2.042   1.807 -1.0819 -0.5464 -0.1548
  246MOL0     C33836   1.221   2.082   1.693 -0.8402  0.6171  0.3518
  246MOL0     C33837   1.342   2.160   1.702 -0.3918 -0.0775  0.3411
  246MOL0     C33838   1.382   2.236   1.576  0.7881  0.1156 -0.8851
  246MOL0     C33839   1.378   2.194   1.837  0.1911 -0.6155  0.2796
  246MOL0     C33840   1.501   2.279   1.860  1.2663  1.1021 -0.1165
  246MOL0     O33841   1.554   2.265   1.978 -0.3500 -0.3252  0.0396
  246MOL0     C33842   1.665   2.336   2.011  0.4895  1.1101  0.6366
  246MOL0     C33843   1.789   2.296   1.956 -0.3669 -0.0894  0.0602
  246MOL0     C33844   1.903   2.371   1.981 -0.3067  0.7374  1.3244
  246MOL0     C33845   1.900   2.467   2.080 -0.3887  0.3898 -0.4414
  246MOL0     O33846   2.008   2.539   2.122 -0.0109 -0.1170 -0.5008
  246MOL0     C33847   2.105   2.457   2.193  0.3218 -0.4517  0.7188
  246MOL0     C33848   2.213   2.538   2.238  0.7699 -0.2610 -0.6543
  246MOL0     C33849   2.324   2.454   2.297 -0.1051  0.2591 -0.0451
  246MOL0     C33850   2.458   2.534   2.318 -0.1509  1.0811  0.5087
  246MOL0     C33851   2.563   2.437   2.373  0.3166 -0.5216 -0.0979
  246MOL0     C33852   2.555   2.419   2.525 -1.0155 -1.6395 -0.0085
  246MOL0     C33853   2.675   2.351   2.585  0.2128  0.8032 -0.1169
  246MOL0     C33854   2.801   2.424   2.546  0.0924 -0.5280  0.8903
  246MOL0    Cl33855   2.932   2.362   2.657  0.2547  0.5489  0.2669
  246MOL0     C33856   1.776   2.497   2.146  0.2319  1.1783 -0.2245
  246MOL0     C33857   1.657   2.447   2.099  0.4583  0.8635 -0.6749
  246MOL0     O33858   1.554   2.338   1.769 -0.3487  0.0048 -0.0955
  246MOL0     C33859   1.300   2.152   1.952  0.1077 -0.1646  0.1028
  246MOL0     C33860   1.195   2.072   1.932 -0.4483  0.3450 -0.9104
  246MOL0     N33861   1.090   1.826   1.282 -0.3733  0.1169 -0.5365
  246MOL0     N33862   1.204   1.832   1.221 -0.3194  0.4170 -0.3762
  246MOL0     C33863   1.886   1.933   0.841  0.5987 -0.2618 -0.0368
  246MOL0     C33864   1.851   1.978   0.716  0.2588  0.1043 -0.4656
  246MOL0     C33865   1.648   1.932   0.296 -0.3568 -0.0843 -0.4065
  246MOL0     C33866   1.664   1.835   0.196  0.3192 -0.7301  0.4856
  246MOL0     C33867   1.580   1.842   0.082 -0.8364  0.0433  0.0416
  246MOL0     C33868   1.482   1.944   0.061  0.3277  0.8805  0.3322
  246MOL0     O33869   1.373   1.945  -0.030  0.1275  0.0971 -1.0106
  246MOL0     C33870   1.374   1.883  -0.155  0.0730 -0.2861  0.0569
  246MOL0     C33871   1.295   1.955  -0.259  0.6005  0.6155 -0.0158
  246MOL0     C33872   1.323   1.899  -0.398  0.6804 -0.1834 -0.2870
  246MOL0     C33873   1.265   1.978  -0.511  0.0683 -0.5368 -0.4749
  246MOL0     C33874   1.125   1.981  -0.487 -0.2630  0.1745 -0.1159
  246MOL0     C33875   1.005   1.964  -0.475 -0.0664  0.3132  0.4538
  246MOL0     C33876   1.477   2.040   0.154 -0.5518 -0.2629  0.2255
  246MOL0     C33877   1.557   2.037   0.271  0.1603 -0.2496 -0.7072
  246MOL0     C33878   1.545   2.152   0.372 -0.4431  0.0241  0.8268
  246MOL0     H33879   1.556   1.821   0.673  1.3347 -0.8799 -0.9931
  246MOL0     H33880   1.622   1.755   0.910  1.5515  2.3709  2.5016
  246MOL0     H33881   2.036   1.822   1.036 -1.1431  1.0873 -0.4891
  246MOL0     H33882   1.952   1.756   1.177 -1.7591 -1.3846 -1.6357
  246MOL0     H33883   1.985   1.990   1.230  4.7558  1.4712 -4.1242
  246MOL0     H33884   1.981   2.039   1.072 -0.4222  0.0929  0.4422
  246MOL0     H33885   1.794   2.122   1.206  1.0887  0.0923  1.9026
  246MOL0     H33886   1.715   2.011   1.084 -2.6239 -4.3106  2.0211
  246MOL0     H33887   1.712   1.826   1.233  1.2040  0.8983 -2.2965
  246MOL0     H33888   1.791   1.927   1.366  2.0365 -3.7101 -1.9305
  246MOL0     H33889   1.524   1.969   1.226  1.5463 -0.4239 -1.2471
  246MOL0     H33890   1.582   2.079   1.351  5.2524  0.5872 -0.2688
  246MOL0     H33891   1.533   1.910   1.527  0.2299  1.1022 -0.6056
  246MOL0     H33892   1.396   1.924   1.421  0.8080  1.0122 -2.0754
  246MOL0     H33893   1.455   1.688   1.480 -1.7358 -0.1646 -0.4306
  246MOL0     H33894   1.609   1.715   1.399  0.2652  1.1739 -2.0530
  246MOL0     H33895   1.467   1.784   1.195  2.2748 -2.1045 -0.6472
  246MOL0     H33896   1.448   1.616   1.229  4.6862  0.9112 -2.2871
  246MOL0     H33897   1.250   1.592   1.444 -1.4266  1.6081  2.6281
  246MOL0     H33898   0.986   1.579   1.477 -3.4805 -0.2347 -0.4025
  246MOL0     H33899   0.895   1.675   1.382 -0.3810 -1.2909  1.3758
  246MOL0     H33900   0.901   1.870   1.551 -1.3174 -0.6473 -0.8654
  246MOL0     H33901   0.864   1.716   1.625 -1.4059  0.6198 -1.8120
  246MOL0     H33902   1.096   1.681   1.680 -0.0527 -0.5426 -0.4324
  246MOL0     H33903   1.128   1.848   1.611  0.5897  0.3462  1.9964
  246MOL0     H33904   0.933   1.784   1.829 -1.8133  2.1046  0.4363
  246MOL0     H33905   1.104   1.811   1.863  1.3814 -2.0768 -2.4513
  246MOL0     H33906   1.177   2.051   1.599 -0.7228  0.7998  0.2383
  246MOL0     H33907   1.327   2.198   1.489 -0.3912 -0.0763 -0.0728
  246MOL0     H33908   1.490   2.234   1.558  1.1457  0.4671  1.0296
  246MOL0     H33909   1.340   2.336   1.589 -0.6825 -0.0454 -3.5582
  246MOL0     H33910   1.779   2.221   1.878  0.9291  0.9096 -1.1080
  246MOL0     H33911   1.996   2.359   1.926 -0.6440  1.6317  0.5342
  246MOL0     H33912   2.047   2.415   2.275 -3.4139  0.4887 -1.1927
  246MOL0     H33913   2.142   2.385   2.119 -0.1146  1.0047 -0.9970
  246MOL0     H33914   2.257   2.615   2.173  2.6959  1.3823  2.3389
  246MOL0     H33915   2.172   2.601   2.317  1.2675  0.2228 -0.7729
  246MOL0     H33916   2.350   2.368   2.234  1.7860 -0.0736  1.0965
  246MOL0     H33917   2.284   2.403   2.385 -2.7853 -0.2056 -1.3967
  246MOL0     H33918   2.455   2.619   2.386  5.2457  2.2029 -0.1521
  246MOL0     H33919   2.498   2.581   2.227 -2.0222  2.9316  0.5493
  246MOL0     H33920   2.547   2.341   2.324 -0.6906  0.5857 -2.0820
  246MOL0     H33921   2.663   2.481   2.359  0.0267  1.4273  2.9486
  246MOL0     H33922   2.461   2.372   2.557 -1.3737  0.3454  2.1289
  246MOL0     H33923   2.560   2.521   2.563  1.3348 -2.0892  1.0577
  246MOL0     H33924   2.673   2.249   2.543 -1.5205  1.0743 -0.7936
  246MOL0     H33925   2.659   2.350   2.694  2.1821 -0.2225  0.2036
  246MOL0     H33926   2.793   2.533   2.552  1.2700 -0.4788  1.8243
  246MOL0     H33927   2.831   2.395   2.445 -3.6900  2.2523 -1.3035
  246MOL0     H33928   1.781   2.586   2.209  1.7626 -0.1118  1.5970
  246MOL0     H33929   1.563   2.482   2.140  0.4372 -1.0591  1.0427
  246MOL0     H33930   1.338   2.179   2.050 -1.1368 -0.3964  0.6732
  246MOL0     H33931   1.130   2.044   2.014  0.3092 -0.5193 -0.5752
  246MOL0     H33932   1.985   1.967   0.868 -0.2387  1.2279  1.2741
  246MOL0     H33933   1.915   2.044   0.658 -2.1769  3.1474  0.0220
  246MOL0     H33934   1.724   1.745   0.192  0.2572 -0.7688  0.4233
  246MOL0     H33935   1.574   1.756   0.016  0.9745 -0.2051  0.1526
  246MOL0     H33936   1.474   1.886  -0.200 -0.9899  0.1491 -2.4153
  246MOL0     H33937   1.328   1.784  -0.148  0.3526 -0.2843  2.8116
  246MOL0     H33938   1.335   2.056  -0.268  3.6311 -0.6551 -2.7268
  246MOL0     H33939   1.189   1.960  -0.230  1.3212  0.5115  3.0036
  246MOL0     H33940   1.432   1.885  -0.406  0.7395 -0.3242  0.5910
  246MOL0     H33941   1.284   1.797  -0.411  1.5512 -0.4857 -0.6402
  246MOL0     H33942   1.283   1.922  -0.603  0.4255 -0.6259 -0.3533
  246MOL0     H33943   1.308   2.078  -0.520 -1.3893  0.4377  2.1258
  246MOL0     H33944   0.900   1.945  -0.467 -0.8211  2.1612 -3.1146
  246MOL0     H33945   1.398   2.115   0.156  1.5157  2.2642 -3.0536
  246MOL0     H33946   1.642   2.203   0.372 -1.5287  2.2256 -0.2495
  246MOL0     H33947   1.469   2.226   0.345  0.7987  0.7931 -0.7421
  246MOL0     H33948   1.527   2.114   0.473  1.2532 -4.2296 -0.2951
  247MOL0     O33949  10.034   2.089   0.982 -0.3848  0.5028  0.6114
  247MOL0     C33950   9.939   2.070   1.065 -1.2421  0.2935  0.3804
  247MOL0     O33951   9.908   1.946   1.119 -0.3208 -0.1096  0.1286
  247MOL0     C33952   9.996   1.851   1.094  0.3560  0.0528 -0.1851
  247MOL0     C33953   9.962   1.730   1.031  0.2052  0.2869 -0.7480
  247MOL0     C33954  10.045   1.619   1.011 -0.6374  0.7212 -0.1277
  247MOL0     C33955  10.177   1.620   1.050  1.0401 -0.0876  0.2815
  247MOL0     O33956  10.257   1.510   1.024  0.3838  0.3188 -0.0726
  247MOL0     C33957  10.400   1.542   1.002  0.9661  0.6998  0.2577
  247MOL0     C33958  10.484   1.412   0.976 -0.6966  0.9563  0.7086
  247MOL0     C33959  10.453   1.287   1.054  0.2758  0.0631 -0.5500
  247MOL0     C33960  10.534   1.160   1.048  0.0450  0.6256 -0.1091
  247MOL0     C33961  10.671   1.193   1.117 -0.8558  0.2538 -0.1495
  247MOL0     C33962  10.752   1.065   1.141 -0.1854  0.6313 -0.9426
  247MOL0     C33963  10.864   1.106   1.246 -0.7635 -0.3104  0.6887
  247MOL0     C33964  10.956   0.996   1.286  0.6037 -0.2160 -0.1345
  247MOL0     N33965  11.047   1.051   1.387  0.4922  0.5081 -0.0319
  247MOL0     C33966  11.122   1.168   1.369  0.1613  0.1483 -0.5503
  247MOL0     C33967  11.177   1.181   1.488 -0.2662 -0.6793  0.4449
  247MOL0     C33968  11.280   1.276   1.541 -0.5960  1.1327  0.8855
  247MOL0     C33969  11.422   1.228   1.536  0.0250 -0.2783 -0.2321
  247MOL0     C33970  11.460   1.167   1.401  0.2689 -0.1492 -0.6596
  247MOL0     C33971  11.607   1.149   1.406 -0.5424  0.2258  0.7525
  247MOL0     O33972  11.673   1.278   1.410 -0.1497 -0.1412 -0.3246
  247MOL0     C33973  11.812   1.297   1.387  0.5077 -1.3430 -0.6174
  247MOL0     C33974  11.874   1.426   1.412  0.4154 -0.5156 -0.6711
  247MOL0     C33975  12.012   1.428   1.400 -0.6936  0.4706  0.7688
  247MOL0     C33976  12.085   1.565   1.395 -0.0160  1.0375 -0.6033
  247MOL0     C33977  12.087   1.312   1.379  1.0403 -0.1753 -0.3465
  247MOL0     C33978  12.235   1.309   1.376 -0.2560 -0.1304 -0.3329
  247MOL0     O33979  12.293   1.227   1.286  0.2360 -0.1765 -0.1965
  247MOL0     C33980  12.426   1.246   1.277  0.5449  0.3896  0.3601
  247MOL0     C33981  12.481   1.359   1.225 -0.0218 -0.2476  1.0388
  247MOL0     C33982  12.616   1.384   1.230 -0.1218  1.3336 -0.2750
  247MOL0     C33983  12.704   1.289   1.273 -0.2683 -0.3060 -0.4241
  247MOL0     O33984  12.836   1.328   1.271 -0.1427 -0.0817 -0.2646
  247MOL0     C33985  12.936   1.239   1.227  0.0834 -0.6421 -0.0248
  247MOL0     C33986  13.054   1.324   1.190  0.1397  0.3159 -0.3839
  247MOL0     C33987  13.181   1.231   1.199  0.5528  0.0860  0.8402
  247MOL0     C33988  13.303   1.308   1.151 -0.3314 -0.6635  0.3850
  247MOL0     C33989  13.435   1.232   1.203  0.6282  0.3278  0.0676
  247MOL0     C33990  13.548   1.318   1.153  0.8005 -0.0254 -0.3794
  247MOL0     C33991  13.552   1.456   1.239 -0.5869  0.3632 -0.6163
  247MOL0     C33992  13.691   1.470   1.294  0.3212 -1.1193  0.0473
  247MOL0    Cl33993  13.696   1.632   1.356 -0.2223 -0.0897 -0.2715
  247MOL0     C33994  12.656   1.164   1.316 -0.6223 -0.4756  0.4228
  247MOL0     C33995  12.516   1.152   1.330 -0.3996  0.3154  0.3218
  247MOL0     O33996  12.300   1.381   1.456  0.1598 -0.0814  0.4382
  247MOL0     C33997  12.019   1.195   1.347 -0.6932 -0.7988  0.1269
  247MOL0     C33998  11.884   1.194   1.349  0.0663 -0.6294 -0.4220
  247MOL0     N33999  11.131   1.077   1.572 -0.4043  0.0832 -0.0966
  247MOL0     N34000  11.049   1.002   1.512  0.1771  0.2038  0.1077
  247MOL0     C34001  10.208   1.740   1.117  0.2295  0.2946  0.2810
  247MOL0     C34002  10.130   1.856   1.142 -0.2283  0.8605 -0.2628
  247MOL0     C34003   9.872   2.184   1.131  0.2303  0.4266  0.7325
  247MOL0     C34004   9.864   2.181   1.272  0.3658 -0.0735  0.0282
  247MOL0     C34005   9.833   2.296   1.337  0.1619  0.3069 -0.1937
  247MOL0     C34006   9.806   2.415   1.270  0.6444  0.1459  0.0598
  247MOL0     O34007   9.782   2.541   1.324  0.4454  0.1840 -0.1612
  247MOL0     C34008   9.798   2.565   1.468  0.0544  0.6607 -1.3319
  247MOL0     C34009   9.700   2.675   1.519  0.3507 -0.4669 -1.0746
  247MOL0     C34010   9.695   2.794   1.422  0.3755  0.5535 -0.7464
  247MOL0     C34011   9.644   2.917   1.506  0.1167 -0.3438 -0.7808
  247MOL0     C34012   9.501   2.891   1.537  0.2944 -0.8023 -0.5161
  247MOL0     C34013   9.380   2.872   1.544  0.3826 -1.1092 -0.7860
  247MOL0     C34014   9.809   2.414   1.135 -0.0619 -1.3628  0.5226
  247MOL0     C34015   9.839   2.303   1.056  0.6398 -0.4754  0.2636
  247MOL0     C34016   9.851   2.318   0.905 -0.1377  0.7846  0.2662
  247MOL0     H34017   9.862   1.727   0.989 -0.4440  4.6573  0.0721
  247MOL0     H34018  10.019   1.523   0.966  0.6646  0.3844 -0.2011
  247MOL0     H34019  10.442   1.585   1.093  1.6717 -0.3635  0.4547
  247MOL0     H34020  10.418   1.600   0.911  1.7861  0.5516  0.3202
  247MOL0     H34021  10.469   1.382   0.872  1.8461  0.4309  0.4428
  247MOL0     H34022  10.590   1.437   0.983 -0.4970 -0.0991  1.6931
  247MOL0     H34023  10.451   1.314   1.160 -2.4436 -1.5054 -0.1018
  247MOL0     H34024  10.351   1.267   1.022 -0.9390  1.7384  1.8980
  247MOL0     H34025  10.479   1.087   1.108  0.4300  2.1889  2.3053
  247MOL0     H34026  10.552   1.133   0.943  0.7565 -0.9455  0.3872
  247MOL0     H34027  10.661   1.242   1.215 -1.4902 -0.5887  0.2211
  247MOL0     H34028  10.732   1.259   1.055 -2.3488  1.7012 -0.1558
  247MOL0     H34029  10.685   0.997   1.195  2.0941 -1.3197 -0.3853
  247MOL0     H34030  10.787   1.012   1.052 -0.0029  0.9815 -1.0788
  247MOL0     H34031  10.824   1.152   1.337 -2.6812  1.9661 -1.1643
  247MOL0     H34032  10.921   1.181   1.190  1.3885 -1.7089  0.9062
  247MOL0     H34033  10.894   0.914   1.323 -2.0227  1.7717  0.1591
  247MOL0     H34034  11.016   0.955   1.203  2.5801 -1.1035  1.6411
  247MOL0     H34035  11.127   1.235   1.284 -0.4897  2.0524  0.8269
  247MOL0     H34036  11.265   1.303   1.646  2.3364  0.8776  1.4498
  247MOL0     H34037  11.270   1.372   1.490  0.2880  0.6403 -0.2359
  247MOL0     H34038  11.496   1.301   1.569  1.7173 -0.5987 -2.9415
  247MOL0     H34039  11.421   1.142   1.604  0.1626 -2.0854 -2.3663
  247MOL0     H34040  11.400   1.076   1.394  0.5742 -0.4187  0.1420
  247MOL0     H34041  11.436   1.245   1.327 -1.5747  0.4049  0.4573
  247MOL0     H34042  11.631   1.085   1.492  0.1646  0.9344  1.1008
  247MOL0     H34043  11.636   1.113   1.308  0.6493  0.9116  0.8273
  247MOL0     H34044  11.811   1.509   1.443 -0.7089 -1.3494 -0.6601
  247MOL0     H34045  12.011   1.640   1.366 -1.0144  0.3235  0.0114
  247MOL0     H34046  12.172   1.564   1.329  1.4262  0.2677  1.2397
  247MOL0     H34047  12.118   1.588   1.497 -1.3193 -1.3604  0.4615
  247MOL0     H34048  12.419   1.439   1.186  0.2867 -0.0709  0.9028
  247MOL0     H34049  12.648   1.476   1.182  2.4918  0.7200  0.1281
  247MOL0     H34050  12.959   1.172   1.310 -0.3825  0.1336  0.7504
  247MOL0     H34051  12.905   1.184   1.138 -0.6510 -2.1950  1.1340
  247MOL0     H34052  13.036   1.371   1.093 -2.0677 -2.5388 -1.5300
  247MOL0     H34053  13.055   1.406   1.262 -0.6480  0.5130 -0.5865
  247MOL0     H34054  13.157   1.147   1.133 -3.0798  3.0644 -2.0756
  247MOL0     H34055  13.186   1.193   1.301 -1.8250 -4.0564 -0.3801
  247MOL0     H34056  13.300   1.413   1.182  2.8898 -0.4062  0.1604
  247MOL0     H34057  13.301   1.285   1.044 -1.2270 -2.7991  0.7955
  247MOL0     H34058  13.430   1.214   1.311 -1.8448 -1.6122 -0.2710
  247MOL0     H34059  13.413   1.135   1.159 -1.5209  0.4352  0.7895
  247MOL0     H34060  13.549   1.325   1.044 -1.2788 -1.1789 -0.5135
  247MOL0     H34061  13.639   1.262   1.177  0.0191 -2.8588 -3.3632
  247MOL0     H34062  13.478   1.442   1.318 -2.8092 -0.1654 -2.6830
  247MOL0     H34063  13.533   1.527   1.158 -0.3357 -1.8069 -2.6898
  247MOL0     H34064  13.768   1.439   1.223  2.1787 -1.6580  2.1825
  247MOL0     H34065  13.687   1.394   1.373 -0.0776 -0.9094  0.2334
  247MOL0     H34066  12.728   1.096   1.361 -3.2123 -2.4947  1.8090
  247MOL0     H34067  12.473   1.059   1.367  0.4764 -0.7650 -1.2476
  247MOL0     H34068  12.068   1.099   1.331  0.1159 -0.5920  1.1949
  247MOL0     H34069  11.841   1.097   1.327  2.5768 -1.6448 -1.1374
  247MOL0     H34070  10.304   1.750   1.167 -0.0782 -4.0674  2.1873
  247MOL0     H34071  10.166   1.940   1.201 -1.0670  0.6236  0.6048
  247MOL0     H34072   9.901   2.093   1.323 -1.0093 -0.2306  0.8175
  247MOL0     H34073   9.838   2.288   1.445  1.7292  1.0949 -0.1815
  247MOL0     H34074   9.774   2.481   1.533  0.3214  2.4393  1.2320
  247MOL0     H34075   9.902   2.582   1.500 -0.5601  0.8827  0.6660
  247MOL0     H34076   9.730   2.699   1.621 -0.9899 -0.6795 -0.6124
  247MOL0     H34077   9.605   2.623   1.532 -0.2588  0.3661 -2.0615
  247MOL0     H34078   9.795   2.822   1.388 -0.2519  1.6823 -1.7412
  247MOL0     H34079   9.637   2.762   1.334 -2.7222 -2.7750  2.1995
  247MOL0     H34080   9.645   3.011   1.450 -4.1218  1.7408  2.0528
  247MOL0     H34081   9.693   2.937   1.602 -0.4832 -1.5810 -0.1991
  247MOL0     H34082   9.278   2.840   1.545 -0.0904  0.3569 -0.7324
  247MOL0     H34083   9.795   2.507   1.083 -3.0743 -1.3835  1.1152
  247MOL0     H34084   9.934   2.383   0.876  0.9906 -0.3646  0.8322
  247MOL0     H34085   9.876   2.221   0.861  0.1156  0.8378  0.2900
  247MOL0     H34086   9.753   2.349   0.867 -0.5984 -0.4563  0.4139
  248MOL0     O34087   1.759   7.720   3.269 -0.3296  0.2245 -0.3086
  248MOL0     C34088   1.669   7.652   3.215 -0.3285  0.5119 -0.2326
  248MOL0     O34089   1.678   7.553   3.119  0.6205  0.3580 -0.1533
  248MOL0     C34090   1.799   7.491   3.104  0.8546  0.0986  0.1731
  248MOL0     C34091   1.855   7.436   3.217 -0.1821  0.0142  0.3277
  248MOL0     C34092   1.978   7.373   3.220 -0.3873  0.7008 -0.3520
  248MOL0     C34093   2.052   7.368   3.099  0.7798  0.0922 -0.6420
  248MOL0     O34094   2.181   7.318   3.102  0.0257 -0.2475 -0.4669
  248MOL0     C34095   2.191   7.190   3.053 -0.1197 -0.0674  0.6234
  248MOL0     C34096   2.244   7.090   3.150  0.2398  0.1587 -1.0935
  248MOL0     C34097   2.373   7.129   3.224  0.9664  0.0712  0.9047
  248MOL0     C34098   2.419   7.001   3.291  0.3044  0.2072 -0.3120
  248MOL0     C34099   2.556   7.035   3.339  0.4427  0.1790  0.3738
  248MOL0     C34100   2.604   6.922   3.436 -0.0258 -0.3677  0.3971
  248MOL0     C34101   2.707   6.986   3.527 -0.3448  0.0036 -0.4037
  248MOL0     C34102   2.776   6.886   3.617  0.5793 -0.9333  1.2182
  248MOL0     N34103   2.893   6.940   3.692  0.3231 -0.6523 -1.1754
  248MOL0     C34104   3.023   6.929   3.647 -0.0962 -0.8266  1.3589
  248MOL0     C34105   3.094   7.017   3.720  0.4300  0.3741  1.4088
  248MOL0     C34106   3.236   7.047   3.696  0.1344 -0.1880  1.0943
  248MOL0     C34107   3.328   6.915   3.713  0.2054  0.1311 -0.1700
  248MOL0     C34108   3.478   6.942   3.686  0.2956  0.0177 -0.5953
  248MOL0     C34109   3.558   6.803   3.688  0.5707 -0.1987 -0.5592
  248MOL0     O34110   3.496   6.704   3.781 -0.3237  0.2969  0.0319
  248MOL0     C34111   3.559   6.686   3.902  0.4377  0.3757  0.0132
  248MOL0     C34112   3.492   6.700   4.020  0.5124  0.0485 -0.2546
  248MOL0     C34113   3.538   6.667   4.150 -0.4023  0.3065 -0.0275
  248MOL0     C34114   3.444   6.680   4.266 -0.7956 -0.5735  0.0703
  248MOL0     C34115   3.677   6.615   4.161 -0.0742 -0.9339 -0.0884
  248MOL0     C34116   3.743   6.570   4.286  0.1929 -0.6246 -0.3628
  248MOL0     O34117   3.877   6.545   4.280  0.4661  0.0204  0.2601
  248MOL0     C34118   3.935   6.485   4.390 -0.7685 -0.5134  0.7991
  248MOL0     C34119   3.935   6.354   4.409  1.0663  0.8569 -0.1989
  248MOL0     C34120   3.998   6.289   4.519 -0.5360 -0.0689  0.4970
  248MOL0     C34121   4.063   6.367   4.609 -0.1759  0.0195  0.2529
  248MOL0     O34122   4.124   6.318   4.715 -0.2852  0.7867 -0.4433
  248MOL0     C34123   4.115   6.180   4.759 -0.6525  0.0707  0.5703
  248MOL0     C34124   4.216   6.164   4.879  0.1020  0.0660 -0.2178
  248MOL0     C34125   4.356   6.123   4.837 -0.6543  0.4101  1.1289
  248MOL0     C34126   4.452   6.130   4.954  0.1532 -0.0279  0.8988
  248MOL0     C34127   4.420   6.027   5.063 -0.1338 -0.2940 -0.3028
  248MOL0     C34128   4.554   5.960   5.112 -0.0802 -0.3463  0.1657
  248MOL0     C34129   4.510   5.854   5.222  0.0399 -0.1962  0.9061
  248MOL0     C34130   4.639   5.773   5.272  1.0829  0.2634 -0.3333
  248MOL0    Cl34131   4.800   5.865   5.303  0.2206  0.0150  0.4470
  248MOL0     C34132   4.057   6.507   4.592 -0.4903  0.3740  0.2143
  248MOL0     C34133   4.004   6.567   4.478 -0.2971 -0.4229  0.5422
  248MOL0     O34134   3.679   6.558   4.385  0.2096 -0.5413 -0.3727
  248MOL0     C34135   3.751   6.614   4.041 -0.1587 -0.7779 -0.4637
  248MOL0     C34136   3.695   6.647   3.920  0.3314 -0.2137 -0.7603
  248MOL0     N34137   3.008   7.073   3.812  0.3048  0.3039  0.6067
  248MOL0     N34138   2.893   7.032   3.799 -0.1751 -0.1987 -0.2762
  248MOL0     C34139   1.989   7.416   2.987 -0.6421  0.4753 -0.1110
  248MOL0     C34140   1.862   7.470   2.984 -0.1846  0.0770  0.1626
  248MOL0     C34141   1.530   7.671   3.261  0.3363 -0.4385 -0.1347
  248MOL0     C34142   1.434   7.592   3.207  0.3017  0.7668  1.2298
  248MOL0     C34143   1.309   7.591   3.240  0.9879  0.2692 -0.2865
  248MOL0     C34144   1.257   7.665   3.344 -0.0836 -0.1683  0.2416
  248MOL0     O34145   1.135   7.651   3.404 -0.0898 -0.3193 -0.4490
  248MOL0     C34146   1.087   7.516   3.423  0.4606  0.1160  0.5663
  248MOL0     C34147   1.132   7.454   3.551 -0.3744  0.6505 -0.3212
  248MOL0     C34148   1.282   7.411   3.561  0.0979 -1.1285 -0.2416
  248MOL0     C34149   1.357   7.504   3.661  0.5133 -0.0751 -0.1331
  248MOL0     C34150   1.508   7.507   3.650 -1.1064  0.1935  0.3221
  248MOL0     C34151   1.621   7.507   3.641  0.0254  0.1534  0.4932
  248MOL0     C34152   1.348   7.751   3.403 -1.2178 -0.5552 -0.1178
  248MOL0     C34153   1.483   7.758   3.364  0.1121 -0.6819 -0.3691
  248MOL0     C34154   1.573   7.846   3.445 -0.8699 -1.1406 -1.1435
  248MOL0     H34155   1.802   7.459   3.309 -0.8689 -0.0243 -0.0510
  248MOL0     H34156   2.012   7.323   3.310  0.8973 -0.5223 -1.4661
  248MOL0     H34157   2.263   7.192   2.970 -1.0582  0.4168 -0.1999
  248MOL0     H34158   2.094   7.145   3.029  0.1081 -1.9199  2.7741
  248MOL0     H34159   2.168   7.060   3.223  2.9886 -1.9234  1.1276
  248MOL0     H34160   2.262   7.002   3.087 -3.0089 -2.3759  1.1714
  248MOL0     H34161   2.437   7.175   3.148  2.5501  2.5800  3.5295
  248MOL0     H34162   2.347   7.210   3.293 -1.8389 -0.4352  0.5546
  248MOL0     H34163   2.360   6.969   3.378  0.7695 -0.6780 -0.3161
  248MOL0     H34164   2.432   6.929   3.211 -0.2613  0.2074 -0.4070
  248MOL0     H34165   2.546   7.126   3.400 -1.9954  0.2381  0.0140
  248MOL0     H34166   2.621   7.050   3.253 -1.9475 -1.5588 -1.9245
  248MOL0     H34167   2.521   6.876   3.491 -0.5124  0.5905  0.4893
  248MOL0     H34168   2.644   6.846   3.368 -2.3463 -0.6034 -0.8200
  248MOL0     H34169   2.653   7.063   3.583  1.3716  0.1078  1.1990
  248MOL0     H34170   2.784   7.042   3.474  0.8001 -0.2187  0.9625
  248MOL0     H34171   2.700   6.845   3.684 -0.0421 -0.0782  1.0465
  248MOL0     H34172   2.817   6.802   3.560  0.9797  0.0266  0.0513
  248MOL0     H34173   3.069   6.866   3.572 -0.5835  1.0497 -0.5945
  248MOL0     H34174   3.263   7.113   3.779 -1.3981 -1.5427  2.7756
  248MOL0     H34175   3.245   7.084   3.594 -1.5994 -2.6997 -0.0656
  248MOL0     H34176   3.317   6.883   3.817  1.6968 -2.4996 -0.7470
  248MOL0     H34177   3.292   6.836   3.646  3.0088 -1.0563 -0.3958
  248MOL0     H34178   3.505   6.988   3.590  3.8361  0.4926  0.4738
  248MOL0     H34179   3.516   7.010   3.762  1.2195 -1.2132  0.0791
  248MOL0     H34180   3.553   6.762   3.587 -2.6788 -2.1932  0.2650
  248MOL0     H34181   3.661   6.822   3.719  0.7097 -0.4921 -0.8274
  248MOL0     H34182   3.386   6.724   4.016  0.9760  2.6240  1.0237
  248MOL0     H34183   3.495   6.729   4.349  1.7809 -1.2106 -1.0280
  248MOL0     H34184   3.424   6.579   4.304  2.4703 -1.0030  0.8750
  248MOL0     H34185   3.356   6.744   4.251  0.4220  1.2493  0.3694
  248MOL0     H34186   3.897   6.288   4.331  2.1694 -0.1764  0.1011
  248MOL0     H34187   3.994   6.182   4.532 -2.2875 -0.1328 -0.2196
  248MOL0     H34188   4.010   6.166   4.787 -0.8292  1.1754  0.5330
  248MOL0     H34189   4.142   6.104   4.685  2.6188  0.1628  1.4894
  248MOL0     H34190   4.205   6.252   4.943  1.4383 -1.1479  1.7746
  248MOL0     H34191   4.171   6.088   4.943 -1.5355  2.3278  1.4963
  248MOL0     H34192   4.392   6.191   4.759  1.2324  0.0493  1.6441
  248MOL0     H34193   4.367   6.020   4.803 -0.1903 -0.3642  3.4575
  248MOL0     H34194   4.461   6.228   5.002 -1.8568  0.6494  0.0125
  248MOL0     H34195   4.554   6.119   4.918 -0.1505  1.1474 -0.4332
  248MOL0     H34196   4.358   6.072   5.141 -0.9182  0.7203 -1.4887
  248MOL0     H34197   4.354   5.953   5.017 -4.1450  1.1507  2.5386
  248MOL0     H34198   4.605   6.032   5.177  0.0501  1.1347 -1.4823
  248MOL0     H34199   4.614   5.917   5.032  1.5124  1.1577  0.4877
  248MOL0     H34200   4.445   5.780   5.173  0.3209  1.1111 -1.6194
  248MOL0     H34201   4.450   5.907   5.297 -2.3591 -2.1654  0.5296
  248MOL0     H34202   4.654   5.690   5.202 -1.4297  0.7860 -1.5864
  248MOL0     H34203   4.621   5.727   5.369 -2.4318 -0.2446 -1.1000
  248MOL0     H34204   4.114   6.563   4.665  3.4680 -1.8973 -0.8516
  248MOL0     H34205   4.028   6.671   4.457 -0.1077 -0.0628  2.3720
  248MOL0     H34206   3.855   6.585   4.028  0.1994  0.8223 -1.4596
  248MOL0     H34207   3.748   6.636   3.826 -2.1711  1.6609 -2.5551
  248MOL0     H34208   2.050   7.413   2.898 -1.5481  0.0788 -0.7384
  248MOL0     H34209   1.845   7.516   2.888  1.3760  0.5279  0.0760
  248MOL0     H34210   1.455   7.510   3.138  1.6327  2.4229 -0.4264
  248MOL0     H34211   1.249   7.519   3.186 -2.1644  2.0330  0.6046
  248MOL0     H34212   0.979   7.513   3.409  0.6373  0.5255 -1.0666
  248MOL0     H34213   1.124   7.448   3.345 -1.5709  0.2353 -0.5663
  248MOL0     H34214   1.072   7.363   3.560  0.0022  0.3238 -1.0274
  248MOL0     H34215   1.105   7.515   3.638  0.0929 -0.1383  0.3945
  248MOL0     H34216   1.290   7.309   3.598  0.4717 -0.5139  1.4550
  248MOL0     H34217   1.331   7.422   3.464 -0.1368  3.2249 -0.0777
  248MOL0     H34218   1.326   7.466   3.759 -2.2092 -1.4258 -1.4194
  248MOL0     H34219   1.324   7.605   3.637  0.2904  0.1066  0.8823
  248MOL0     H34220   1.727   7.492   3.633  0.0675 -0.3150  1.6182
  248MOL0     H34221   1.313   7.800   3.494  2.5881 -0.4841  1.4621
  248MOL0     H34222   1.514   7.914   3.508 -0.2744 -1.4067 -0.2786
  248MOL0     H34223   1.646   7.785   3.499 -1.2244  0.5537  1.4817
  248MOL0     H34224   1.624   7.911   3.373  1.7506  1.1951  2.4530
  249MOL0     O34225   1.482   0.610   4.683  0.4449 -0.1537  0.3369
  249MOL0     C34226   1.471   0.715   4.742 -0.1375 -0.1456 -0.3417
  249MOL0     O34227   1.349   0.775   4.771  0.7193  0.8191  0.0286
  249MOL0     C34228   1.232   0.693   4.782  1.6606 -1.1380 -0.3926
  249MOL0     C34229   1.233   0.565   4.844  0.4743 -0.1862 -0.3855
  249MOL0     C34230   1.110   0.494   4.859  0.1307 -0.8474 -0.5237
  249MOL0     C34231   0.985   0.551   4.817 -0.3954 -0.5014  0.3965
  249MOL0     O34232   0.874   0.481   4.813  0.4553 -0.2048 -0.8360
  249MOL0     C34233   0.856   0.360   4.881  0.3319  0.0968 -0.3612
  249MOL0     C34234   0.724   0.386   4.956 -0.1790  0.2414 -0.9192
  249MOL0     C34235   0.680   0.256   5.027  0.3602  0.7807  0.9836
  249MOL0     C34236   0.541   0.293   5.078  0.1688  0.3175  0.2539
  249MOL0     C34237   0.485   0.189   5.176 -0.5799  0.6605 -0.1511
  249MOL0     C34238   0.346   0.238   5.230  1.1638 -0.0345 -0.2131
  249MOL0     C34239   0.354   0.329   5.354  0.1094 -0.7780  0.0874
  249MOL0     C34240   0.227   0.369   5.425  1.0535  0.6130  0.8151
  249MOL0     N34241   0.245   0.455   5.539 -0.4402 -0.8066 -1.0920
  249MOL0     C34242   0.285   0.410   5.658 -0.8083 -0.1857 -0.4932
  249MOL0     C34243   0.289   0.510   5.741 -0.3102 -0.0870 -0.9545
  249MOL0     C34244   0.316   0.517   5.897 -0.5583  0.6240 -0.8582
  249MOL0     C34245   0.386   0.633   5.949 -0.3394  0.6930 -0.6824
  249MOL0     C34246   0.438   0.607   6.099 -0.1204  0.5867  1.0300
  249MOL0     C34247   0.589   0.604   6.115  0.1487 -0.1331 -0.5942
  249MOL0     O34248   0.635   0.585   6.248 -0.6016 -0.2795 -0.1967
  249MOL0     C34249   0.764   0.560   6.287 -0.1092  0.8813 -0.4749
  249MOL0     C34250   0.864   0.555   6.192 -1.0606 -0.4575  0.0071
  249MOL0     C34251   0.992   0.510   6.223  0.4575 -0.6085 -0.7886
  249MOL0     C34252   1.072   0.483   6.104 -0.1387 -0.3304  0.4757
  249MOL0     C34253   1.016   0.455   6.357  0.0834 -0.2362  0.2115
  249MOL0     C34254   1.137   0.375   6.398  0.4848  0.3408 -0.7172
  249MOL0     O34255   1.148   0.349   6.536 -0.0193 -0.4392  0.1431
  249MOL0     C34256   1.255   0.272   6.568  0.0348  0.1321 -0.4198
  249MOL0     C34257   1.241   0.145   6.622 -0.0016  1.0581 -0.4122
  249MOL0     C34258   1.348   0.055   6.647  0.6724  0.2318 -0.1812
  249MOL0     C34259   1.478   0.104   6.624 -0.2792  0.2927  0.0234
  249MOL0     O34260   1.596   0.032   6.623 -0.6271 -0.5695 -0.1270
  249MOL0     C34261   1.594  -0.089   6.700  0.3651  0.2262 -0.9674
  249MOL0     C34262   1.730  -0.147   6.694 -0.3303 -0.4608  0.6382
  249MOL0     C34263   1.821  -0.064   6.782  0.6666  0.0607  0.7957
  249MOL0     C34264   1.808  -0.077   6.931 -0.0880  0.0556  1.3541
  249MOL0     C34265   1.935  -0.014   6.985  0.0796 -0.4985  0.0012
  249MOL0     C34266   1.917   0.143   6.994  1.1434  1.0103  0.7846
  249MOL0     C34267   2.048   0.227   6.997 -0.8370 -0.1939  0.6607
  249MOL0     C34268   2.038   0.363   7.050  0.2474 -0.1943  0.5319
  249MOL0    Cl34269   2.216   0.414   7.055 -0.1561 -0.1004  0.3772
  249MOL0     C34270   1.492   0.235   6.581  0.1751 -0.6705 -0.0541
  249MOL0     C34271   1.386   0.314   6.542  0.1823  0.3217  0.0427
  249MOL0     O34272   1.214   0.339   6.310  0.3924 -0.2759  0.4889
  249MOL0     C34273   0.918   0.477   6.454  0.4264 -0.0110  0.0549
  249MOL0     C34274   0.792   0.524   6.424 -0.3526  0.1459  0.6477
  249MOL0     N34275   0.253   0.622   5.663  0.0776 -0.2940  0.0347
  249MOL0     N34276   0.225   0.587   5.545  0.3706 -0.0018  0.4724
  249MOL0     C34277   0.979   0.684   4.770 -0.1003  0.2061 -0.0120
  249MOL0     C34278   1.105   0.746   4.747 -0.4491 -0.5001 -0.1309
  249MOL0     C34279   1.588   0.781   4.803  0.8777 -0.0599 -1.2060
  249MOL0     C34280   1.570   0.878   4.904  0.6764  0.2572 -0.7534
  249MOL0     C34281   1.681   0.942   4.967 -0.1736  0.0541 -0.1204
  249MOL0     C34282   1.808   0.899   4.931  0.2178 -0.1931 -0.3880
  249MOL0     O34283   1.918   0.947   5.007  0.0437 -1.0053  0.3115
  249MOL0     C34284   2.059   0.917   4.968  0.4759 -0.5053 -0.2774
  249MOL0     C34285   2.172   0.997   5.037 -0.5327  0.1992  0.5475
  249MOL0     C34286   2.155   1.018   5.186  0.0386 -0.5350  0.0524
  249MOL0     C34287   2.136   0.903   5.283  0.0632  0.5698 -0.4436
  249MOL0     C34288   2.005   0.837   5.298  0.5698  0.3036 -0.3677
  249MOL0     C34289   1.906   0.781   5.345 -0.0848  0.6151  0.2028
  249MOL0     C34290   1.828   0.802   4.836 -0.1422 -0.4378 -1.4578
  249MOL0     C34291   1.724   0.745   4.769 -0.1100  0.4491  0.4855
  249MOL0     C34292   1.773   0.628   4.678 -0.7930 -0.5829  0.3934
  249MOL0     H34293   1.329   0.517   4.859  1.9838  2.3036 -1.4505
  249MOL0     H34294   1.116   0.397   4.907  1.7009  0.7616  2.8447
  249MOL0     H34295   0.932   0.336   4.956 -0.5580  1.7688  1.1698
  249MOL0     H34296   0.846   0.270   4.818 -0.3433 -0.5498  0.6370
  249MOL0     H34297   0.742   0.455   5.040  1.3683 -1.6560  0.4072
  249MOL0     H34298   0.658   0.422   4.877 -0.6664 -2.7925 -2.0079
  249MOL0     H34299   0.675   0.167   4.963 -4.8303 -1.2322  3.6834
  249MOL0     H34300   0.739   0.229   5.115 -0.3578 -1.5165  0.8212
  249MOL0     H34301   0.542   0.391   5.128  1.3327 -1.8617  5.0276
  249MOL0     H34302   0.474   0.304   4.992 -0.6147 -1.4932  0.5910
  249MOL0     H34303   0.560   0.178   5.255  0.6260  1.4393 -1.1398
  249MOL0     H34304   0.478   0.095   5.121 -1.5300 -0.5957  2.0262
  249MOL0     H34305   0.287   0.286   5.152 -0.3179 -1.2502  0.1103
  249MOL0     H34306   0.297   0.150   5.271  2.3538  0.7441  3.2272
  249MOL0     H34307   0.399   0.419   5.310  2.6136 -0.8737  2.2186
  249MOL0     H34308   0.426   0.287   5.425  0.4517  0.9944  0.8476
  249MOL0     H34309   0.158   0.421   5.358  0.7019  2.9398  2.8095
  249MOL0     H34310   0.178   0.280   5.464 -0.6826  1.2986  0.2711
  249MOL0     H34311   0.304   0.312   5.699 -1.5721 -0.9197 -1.8384
  249MOL0     H34312   0.356   0.417   5.917 -1.1678 -0.3804 -4.0836
  249MOL0     H34313   0.222   0.512   5.952  0.8312  0.5427  1.6803
  249MOL0     H34314   0.474   0.654   5.888 -1.2829  1.2143 -1.9142
  249MOL0     H34315   0.316   0.717   5.938 -1.1179 -0.2355 -3.8562
  249MOL0     H34316   0.387   0.679   6.164  0.0749 -0.6336  2.6020
  249MOL0     H34317   0.393   0.518   6.144  0.4673  0.7785  2.0212
  249MOL0     H34318   0.620   0.514   6.062  2.1540 -0.0634  0.3415
  249MOL0     H34319   0.633   0.699   6.081 -2.2321  2.1414  2.1556
  249MOL0     H34320   0.860   0.591   6.090 -0.0775  1.4411  0.5910
  249MOL0     H34321   1.177   0.510   6.115 -0.3478  0.4071  0.7241
  249MOL0     H34322   1.040   0.539   6.016 -0.0138 -0.6358  0.2358
  249MOL0     H34323   1.043   0.380   6.082 -1.3796 -0.3888  2.1368
  249MOL0     H34324   1.147   0.094   6.643  0.9239 -0.2778  0.6933
  249MOL0     H34325   1.325  -0.049   6.667  2.1742  0.0433  0.7537
  249MOL0     H34326   1.565  -0.063   6.802  1.6388  0.4310 -0.6482
  249MOL0     H34327   1.523  -0.160   6.656 -1.0235  0.4841  0.7167
  249MOL0     H34328   1.737  -0.251   6.727 -0.0971 -0.7454 -0.2612
  249MOL0     H34329   1.765  -0.151   6.590 -0.0189 -1.0963  0.7607
  249MOL0     H34330   1.826   0.039   6.744 -0.2576  0.0523  0.6238
  249MOL0     H34331   1.923  -0.094   6.758 -0.0833  0.4732 -3.8640
  249MOL0     H34332   1.815  -0.183   6.957 -1.5704 -1.0214 -2.1197
  249MOL0     H34333   1.717  -0.037   6.977 -2.4227 -1.3108 -1.7372
  249MOL0     H34334   1.932  -0.032   7.093 -1.4325 -1.7664 -0.2186
  249MOL0     H34335   2.032  -0.042   6.945  0.7329 -0.2120  1.3107
  249MOL0     H34336   1.873   0.165   7.092 -0.9005 -2.0574  0.7126
  249MOL0     H34337   1.861   0.185   6.910  2.7328  1.9322  0.1415
  249MOL0     H34338   2.100   0.230   6.901 -0.9621  0.3956  0.6096
  249MOL0     H34339   2.112   0.175   7.070 -1.8532 -0.2825  1.5238
  249MOL0     H34340   1.996   0.366   7.151 -2.6357 -1.6533 -0.5328
  249MOL0     H34341   1.994   0.432   6.978  1.8713 -0.2285 -0.5477
  249MOL0     H34342   1.595   0.261   6.561 -0.4215 -0.2287 -2.9844
  249MOL0     H34343   1.409   0.413   6.504  1.6999 -0.7491 -2.0372
  249MOL0     H34344   0.946   0.454   6.556  0.0490 -0.4834  0.0528
  249MOL0     H34345   0.712   0.536   6.495 -2.6829  4.1838 -2.2696
  249MOL0     H34346   0.884   0.725   4.737 -1.5927  1.0400  4.5684
  249MOL0     H34347   1.108   0.833   4.682  1.7485 -0.5893 -0.2245
  249MOL0     H34348   1.476   0.913   4.946  1.4048  3.0763 -1.2364
  249MOL0     H34349   1.670   1.016   5.045  1.1649  0.9808 -0.7604
  249MOL0     H34350   2.073   0.809   4.973  0.8662 -0.4299  0.2593
  249MOL0     H34351   2.068   0.933   4.860 -2.1772 -0.3775 -0.5611
  249MOL0     H34352   2.189   1.090   4.982 -1.7292 -0.0353 -0.2732
  249MOL0     H34353   2.267   0.945   5.023  0.6098  2.5442 -1.0359
  249MOL0     H34354   2.254   1.056   5.210  0.6608 -1.3198 -1.1668
  249MOL0     H34355   2.080   1.097   5.201  3.1887  2.3685  1.7573
  249MOL0     H34356   2.181   0.940   5.376  1.5694  0.4565 -1.0895
  249MOL0     H34357   2.200   0.822   5.246 -1.0525 -0.3373 -0.4584
  249MOL0     H34358   1.823   0.724   5.384 -0.4492  0.1259 -1.2012
  249MOL0     H34359   1.926   0.756   4.837 -0.6797 -1.6652  0.3354
  249MOL0     H34360   1.882   0.625   4.669 -0.9597 -0.9274 -2.2456
  249MOL0     H34361   1.723   0.535   4.706  2.7210 -2.1568  2.0785
  249MOL0     H34362   1.750   0.667   4.578  0.5696  3.5527  1.4911
  250MOL0     O34363   0.138   3.993   5.247  0.0237 -0.5293 -1.0341
  250MOL0     C34364   0.091   3.930   5.153 -0.6329 -0.4560  0.2317
  250MOL0     O34365   0.153   3.917   5.034 -0.3331 -0.1568 -0.0709
  250MOL0     C34366   0.248   4.004   5.007  0.1569  0.5455 -0.8099
  250MOL0     C34367   0.367   4.009   5.083 -0.0643  0.5500 -0.5760
  250MOL0     C34368   0.473   4.089   5.048  0.8618 -0.7753 -0.5484
  250MOL0     C34369   0.460   4.183   4.942  0.6353  0.7315 -0.1284
  250MOL0     O34370   0.568   4.252   4.912  0.3066  0.8516 -0.0047
  250MOL0     C34371   0.548   4.390   4.891 -0.0314  0.4342  0.1923
  250MOL0     C34372   0.614   4.458   5.012  0.3737  0.9105  0.8587
  250MOL0     C34373   0.769   4.469   5.010 -0.4363  0.4685  0.5003
  250MOL0     C34374   0.834   4.550   5.125 -0.8385  1.1851 -0.1868
  250MOL0     C34375   0.987   4.571   5.116  0.5391 -0.4851 -0.3994
  250MOL0     C34376   1.043   4.626   5.243 -0.2518 -0.4689 -0.4902
  250MOL0     C34377   1.199   4.626   5.237  0.0785  0.2827  0.0742
  250MOL0     C34378   1.258   4.691   5.369 -0.3743 -0.3413  0.0661
  250MOL0     N34379   1.261   4.603   5.480  0.3543  0.4641  0.0419
  250MOL0     C34380   1.350   4.501   5.492 -0.6377  0.3340 -1.4781
  250MOL0     C34381   1.332   4.454   5.623 -0.5461  0.1517 -0.2587
  250MOL0     C34382   1.422   4.350   5.687 -0.1347  0.5984  0.6483
  250MOL0     C34383   1.573   4.387   5.724  0.7373 -0.2250 -0.0892
  250MOL0     C34384   1.575   4.480   5.847 -0.6149  0.8653  0.0733
  250MOL0     C34385   1.714   4.508   5.907  0.4484  0.5944 -0.0005
  250MOL0     O34386   1.695   4.609   6.011  0.0034  0.9248 -0.7916
  250MOL0     C34387   1.791   4.692   6.056 -0.0497  0.0920 -0.3738
  250MOL0     C34388   1.750   4.799   6.145 -0.0124 -0.2058 -0.1789
  250MOL0     C34389   1.846   4.883   6.203 -0.3865 -0.5248  1.3118
  250MOL0     C34390   1.791   4.994   6.286  0.4288  0.7499 -0.0314
  250MOL0     C34391   1.983   4.870   6.161  0.4635  0.1166 -0.1480
  250MOL0     C34392   2.091   4.967   6.205  0.7864 -0.0920 -0.3741
  250MOL0     O34393   2.210   4.960   6.128  0.2783  0.4069 -0.6097
  250MOL0     C34394   2.330   5.003   6.190  0.1757  0.1382  0.0823
  250MOL0     C34395   2.417   4.903   6.239  0.5040 -0.4510  0.4020
  250MOL0     C34396   2.533   4.935   6.314 -0.1750 -0.1385 -0.1833
  250MOL0     C34397   2.570   5.069   6.338  0.1490 -0.3616 -0.3626
  250MOL0     O34398   2.684   5.099   6.404 -0.4549 -0.1645  0.6092
  250MOL0     C34399   2.699   5.220   6.473 -0.1339  0.2025  0.3227
  250MOL0     C34400   2.816   5.234   6.559  0.0103 -0.4290 -0.6424
  250MOL0     C34401   2.942   5.215   6.479  0.0213 -0.1121  0.4777
  250MOL0     C34402   3.055   5.269   6.573  0.4455 -0.5768 -0.1428
  250MOL0     C34403   3.182   5.298   6.491 -0.1819 -0.3597 -0.6911
  250MOL0     C34404   3.290   5.334   6.604  0.0732  0.0328 -0.5846
  250MOL0     C34405   3.431   5.376   6.547  0.2383 -0.3201  0.3358
  250MOL0     C34406   3.538   5.368   6.654  0.0054 -0.0358 -0.1180
  250MOL0    Cl34407   3.658   5.495   6.617 -0.3346 -0.1189  0.4401
  250MOL0     C34408   2.483   5.172   6.294  0.4622  0.0858 -0.1555
  250MOL0     C34409   2.364   5.140   6.224  0.3502  0.2009  1.1911
  250MOL0     O34410   2.073   5.048   6.299 -0.3710 -0.3474  0.3177
  250MOL0     C34411   2.016   4.764   6.082  0.1198  0.6249  0.0710
  250MOL0     C34412   1.923   4.672   6.033 -0.8314  0.0354  0.1383
  250MOL0     N34413   1.222   4.508   5.674  0.4568 -0.7207  0.7143
  250MOL0     N34414   1.172   4.602   5.588 -0.2258 -0.1492 -1.1386
  250MOL0     C34415   0.344   4.179   4.863 -0.3295  0.3100 -0.3150
  250MOL0     C34416   0.238   4.090   4.904  0.2013 -0.2725 -0.5901
  250MOL0     C34417  -0.009   3.830   5.172 -0.0765 -0.6670 -0.3697
  250MOL0     C34418  -0.003   3.709   5.109 -0.2689  0.2820 -0.6075
  250MOL0     C34419  -0.097   3.617   5.130  0.5481 -0.2900 -0.5189
  250MOL0     C34420  -0.206   3.637   5.225 -0.4084 -0.1347  0.4600
  250MOL0     O34421  -0.296   3.538   5.234 -0.2171  0.5307 -0.4572
  250MOL0     C34422  -0.413   3.561   5.312 -0.4510  0.1193  0.5200
  250MOL0     C34423  -0.401   3.535   5.466  0.3013  0.6551 -0.6321
  250MOL0     C34424  -0.431   3.383   5.488  0.8637  0.1640  0.0164
  250MOL0     C34425  -0.446   3.360   5.638  1.0203 -0.6628 -0.2664
  250MOL0     C34426  -0.321   3.377   5.711  0.1664  0.4561  0.7510
  250MOL0     C34427  -0.216   3.385   5.771  0.0301 -0.3795 -0.1227
  250MOL0     C34428  -0.211   3.757   5.290 -0.3079 -0.3920 -0.5229
  250MOL0     C34429  -0.120   3.861   5.261 -0.1580 -0.5646 -0.0107
  250MOL0     C34430  -0.140   3.998   5.319 -0.0959 -0.5381 -0.3445
  250MOL0     H34431   0.375   3.945   5.170 -1.0149  0.4999 -0.5160
  250MOL0     H34432   0.569   4.087   5.100  1.0010  3.6890 -0.2487
  250MOL0     H34433   0.441   4.413   4.888 -0.4956 -1.5513 -0.1711
  250MOL0     H34434   0.594   4.416   4.795  2.1127 -2.2906  0.3577
  250MOL0     H34435   0.582   4.562   5.017  3.0542  1.8116  1.1176
  250MOL0     H34436   0.585   4.408   5.105 -1.7581  0.8275  0.1925
  250MOL0     H34437   0.810   4.368   5.015  0.5938  0.9142  1.5591
  250MOL0     H34438   0.797   4.523   4.920 -2.3757  1.8770  0.6660
  250MOL0     H34439   0.781   4.646   5.136 -0.8889  0.9130  2.7387
  250MOL0     H34440   0.818   4.487   5.213 -0.3280  1.4469  0.0980
  250MOL0     H34441   1.022   4.619   5.024  0.0129 -1.8913 -1.3742
  250MOL0     H34442   1.028   4.470   5.114 -0.7641 -1.0306 -1.9594
  250MOL0     H34443   1.004   4.727   5.256 -0.5710 -0.8271  1.6340
  250MOL0     H34444   1.021   4.575   5.337 -2.0480  0.6933 -0.2218
  250MOL0     H34445   1.231   4.686   5.151  1.0936  2.1784  1.6883
  250MOL0     H34446   1.234   4.522   5.228  1.0479  0.4192  1.8032
  250MOL0     H34447   1.362   4.721   5.352 -0.6751  0.3376 -0.6018
  250MOL0     H34448   1.201   4.782   5.389  1.0371  0.7341 -0.5767
  250MOL0     H34449   1.422   4.467   5.418 -1.0005 -2.1830 -0.7698
  250MOL0     H34450   1.433   4.263   5.623 -0.2941  1.4827 -0.6098
  250MOL0     H34451   1.369   4.311   5.775  0.0945 -1.2435  0.0116
  250MOL0     H34452   1.630   4.298   5.751 -1.0247 -1.0570  1.0214
  250MOL0     H34453   1.626   4.433   5.640  1.5112 -1.5575 -0.3574
  250MOL0     H34454   1.524   4.576   5.830 -2.7607 -0.2840 -0.4247
  250MOL0     H34455   1.514   4.433   5.925  2.0564 -1.6316  0.8354
  250MOL0     H34456   1.763   4.414   5.935  3.3518  1.3385 -2.0803
  250MOL0     H34457   1.785   4.550   5.834  1.2700 -0.9448 -0.1279
  250MOL0     H34458   1.642   4.802   6.161  0.2852  1.1892  2.0456
  250MOL0     H34459   1.809   5.092   6.240 -0.0215  0.0520 -1.7835
  250MOL0     H34460   1.838   5.003   6.384 -0.0304 -0.5072  0.3173
  250MOL0     H34461   1.681   4.997   6.285  0.4480  1.9633 -0.2264
  250MOL0     H34462   2.398   4.798   6.218  0.0025 -0.4879  0.9956
  250MOL0     H34463   2.598   4.855   6.347 -3.0900 -2.5134  0.2464
  250MOL0     H34464   2.703   5.303   6.401  3.9538  1.0592  1.2832
  250MOL0     H34465   2.616   5.246   6.538  1.7849  3.0606  1.8240
  250MOL0     H34466   2.819   5.331   6.610  1.5835 -2.1023  2.8302
  250MOL0     H34467   2.808   5.162   6.641 -3.9890 -1.3662 -1.6646
  250MOL0     H34468   2.935   5.279   6.391 -1.2955 -4.0405 -2.5342
  250MOL0     H34469   2.953   5.109   6.456  2.7670 -0.2704  2.0875
  250MOL0     H34470   3.068   5.201   6.658 -0.0660  1.3535  1.5569
  250MOL0     H34471   3.026   5.364   6.618  0.1164  0.0557 -1.6170
  250MOL0     H34472   3.215   5.210   6.436 -1.2414 -1.3842  0.2481
  250MOL0     H34473   3.162   5.378   6.420  1.0568 -2.5800 -3.7607
  250MOL0     H34474   3.307   5.241   6.658  0.5784 -0.1458 -1.0419
  250MOL0     H34475   3.238   5.410   6.664  0.8545  0.7217 -0.7504
  250MOL0     H34476   3.419   5.478   6.510 -0.4021  0.4877  2.6094
  250MOL0     H34477   3.460   5.309   6.465  1.0900 -1.0386  1.2021
  250MOL0     H34478   3.590   5.272   6.646 -0.2374 -0.0397 -4.7053
  250MOL0     H34479   3.500   5.370   6.756  1.2861  0.0872  0.3785
  250MOL0     H34480   2.503   5.277   6.314 -2.0245  0.3582  1.2962
  250MOL0     H34481   2.315   5.223   6.176  2.1044  2.3866  2.9670
  250MOL0     H34482   2.118   4.748   6.048  0.7043 -1.2977  2.4523
  250MOL0     H34483   1.950   4.596   5.960  1.0783  0.1542  0.6672
  250MOL0     H34484   0.345   4.240   4.772  1.4041  2.2366  0.8878
  250MOL0     H34485   0.142   4.083   4.852 -0.3553 -2.7006  0.6065
  250MOL0     H34486   0.081   3.689   5.043  1.1778 -0.2953  1.3133
  250MOL0     H34487  -0.097   3.527   5.070 -0.9123 -1.1936  0.7632
  250MOL0     H34488  -0.451   3.661   5.291  0.9520  1.4102  3.5026
  250MOL0     H34489  -0.482   3.486   5.272  0.6737 -0.5458 -0.2139
  250MOL0     H34490  -0.477   3.596   5.516 -0.3953  1.2783 -2.3669
  250MOL0     H34491  -0.304   3.573   5.498 -0.0615  1.5069 -0.5347
  250MOL0     H34492  -0.530   3.367   5.444  1.0235  2.0863 -1.1470
  250MOL0     H34493  -0.363   3.331   5.420 -3.1844 -3.1404 -1.9838
  250MOL0     H34494  -0.483   3.258   5.657 -1.8585  0.2928 -0.1508
  250MOL0     H34495  -0.525   3.430   5.668  0.8093  0.2112 -2.6644
  250MOL0     H34496  -0.123   3.403   5.821 -1.7399 -0.2796  3.4809
  250MOL0     H34497  -0.294   3.778   5.357  0.5722  0.2695  0.3854
  250MOL0     H34498  -0.096   4.074   5.253 -0.8950 -1.2693 -1.7678
  250MOL0     H34499  -0.244   4.033   5.318  0.1503  0.2382  0.2643
  250MOL0     H34500  -0.111   3.989   5.424 -1.6460 -1.3908  0.0428
  251MOL0     O34501   7.610   6.454  10.944 -0.2764 -0.5000  0.2969
  251MOL0     C34502   7.705   6.530  10.957  0.2648 -0.3283  0.9738
  251MOL0     O34503   7.818   6.505  11.031  0.4839 -0.7814 -0.1138
  251MOL0     C34504   7.827   6.376  11.081 -1.2566 -0.3368  0.0952
  251MOL0     C34505   7.762   6.361  11.201 -0.7474  0.3808  0.3814
  251MOL0     C34506   7.770   6.238  11.271 -0.0460  0.4857 -0.7513
  251MOL0     C34507   7.846   6.131  11.211 -0.0936  0.8329  0.1467
  251MOL0     O34508   7.851   6.015  11.276  0.7060  0.8029 -0.0082
  251MOL0     C34509   7.788   5.905  11.209 -0.1532 -0.6519 -0.6043
  251MOL0     C34510   7.868   5.777  11.233 -0.1912  0.6939 -0.0026
  251MOL0     C34511   7.799   5.669  11.160 -0.5869  1.2908  0.5461
  251MOL0     C34512   7.838   5.540  11.230  0.3350  0.3028  0.6477
  251MOL0     C34513   7.749   5.521  11.358  0.5573  0.6365  0.0497
  251MOL0     C34514   7.818   5.419  11.453 -0.8284  1.4902  0.1237
  251MOL0     C34515   7.737   5.366  11.563  0.2106 -0.2850  0.0229
  251MOL0     C34516   7.622   5.272  11.522 -0.1364 -0.0822 -0.3806
  251MOL0     N34517   7.521   5.282  11.627 -0.5716  0.3490 -0.0971
  251MOL0     C34518   7.404   5.341  11.606  0.3575  0.6048 -0.6435
  251MOL0     C34519   7.331   5.313  11.720 -0.4717 -0.8964  0.3231
  251MOL0     C34520   7.201   5.372  11.762 -0.8779 -0.2228  0.1532
  251MOL0     C34521   7.221   5.461  11.885  0.4567  0.7081 -0.1832
  251MOL0     C34522   7.278   5.602  11.840 -0.4802  0.2212  0.2899
  251MOL0     C34523   7.169   5.705  11.832 -0.0724  1.5558  0.2191
  251MOL0     O34524   7.082   5.656  11.724 -0.3721 -0.3938  0.7697
  251MOL0     C34525   6.965   5.737  11.706  0.3762 -0.4601 -0.4797
  251MOL0     C34526   6.950   5.863  11.772 -0.0971  0.2890 -0.2387
  251MOL0     C34527   6.831   5.930  11.765  0.4568 -0.4389  0.3166
  251MOL0     C34528   6.830   6.060  11.841  0.3108  0.1784 -0.7234
  251MOL0     C34529   6.724   5.888  11.683 -0.4416  0.5911 -0.4075
  251MOL0     C34530   6.595   5.953  11.681  0.4564 -1.0660  0.5476
  251MOL0     O34531   6.563   6.041  11.575  0.1294  0.2726 -0.4012
  251MOL0     C34532   6.433   6.082  11.578  0.0612  0.6677 -0.3222
  251MOL0     C34533   6.403   6.213  11.566  0.3600 -0.7086  0.1024
  251MOL0     C34534   6.266   6.257  11.564 -0.0763 -0.1358  0.3227
  251MOL0     C34535   6.162   6.161  11.576  0.3725 -0.7831 -0.2210
  251MOL0     O34536   6.028   6.206  11.584 -0.2521 -0.0949 -0.0528
  251MOL0     C34537   5.936   6.138  11.668 -0.2652 -0.4546  0.7228
  251MOL0     C34538   5.840   6.238  11.724 -0.2367 -0.0312 -0.3624
  251MOL0     C34539   5.897   6.321  11.843  0.0902  0.6990 -0.0410
  251MOL0     C34540   6.002   6.414  11.798 -0.0860 -0.1550 -0.2880
  251MOL0     C34541   6.038   6.532  11.888 -0.1851 -0.7729 -0.1924
  251MOL0     C34542   6.153   6.632  11.832  0.1643  0.0254  0.8727
  251MOL0     C34543   6.154   6.769  11.893  0.1497 -0.4100  0.1344
  251MOL0     C34544   6.252   6.863  11.821 -0.4480  0.0204 -0.6750
  251MOL0    Cl34545   6.158   6.962  11.701  0.1175  0.5093 -0.6324
  251MOL0     C34546   6.191   6.026  11.574  0.5314 -1.3445  0.9309
  251MOL0     C34547   6.330   5.985  11.563 -0.8068 -0.5715 -0.4539
  251MOL0     O34548   6.528   5.929  11.783  0.0651 -0.2699  0.3453
  251MOL0     C34549   6.743   5.766  11.624  0.3447 -0.3203  0.3497
  251MOL0     C34550   6.863   5.695  11.621  0.4585 -0.0153 -0.5485
  251MOL0     N34551   7.412   5.236  11.800 -0.6750  0.0674 -0.1679
  251MOL0     N34552   7.514   5.192  11.738  0.3052 -0.0977  0.5390
  251MOL0     C34553   7.891   6.151  11.082 -0.1776  0.2028 -0.0862
  251MOL0     C34554   7.889   6.275  11.021  0.3482  0.7515 -0.0177
  251MOL0     C34555   7.690   6.669  10.899 -0.0529  0.4055  0.1637
  251MOL0     C34556   7.770   6.771  10.935  0.2916  0.2433 -0.4241
  251MOL0     C34557   7.766   6.895  10.882  0.2659 -0.7006 -0.1216
  251MOL0     C34558   7.670   6.927  10.780  1.0052  0.3498 -0.3418
  251MOL0     O34559   7.658   7.049  10.721 -0.6080  0.8482  0.3296
  251MOL0     C34560   7.650   7.166  10.799 -0.8565  0.6811  0.8390
  251MOL0     C34561   7.519   7.185  10.864  1.1015  0.4576 -0.5190
  251MOL0     C34562   7.407   7.193  10.757 -0.2686 -0.7845 -0.3182
  251MOL0     C34563   7.306   7.298  10.794  0.0772 -0.2668  0.1355
  251MOL0     C34564   7.226   7.274  10.922 -0.4042 -0.4823  0.8437
  251MOL0     C34565   7.173   7.247  11.027  0.3446 -0.5943 -0.4319
  251MOL0     C34566   7.602   6.819  10.723  0.5984  0.3906  0.8163
  251MOL0     C34567   7.601   6.689  10.785  0.0231 -1.0319 -0.3915
  251MOL0     C34568   7.507   6.581  10.712  1.4713  0.2309 -0.9985
  251MOL0     H34569   7.685   6.428  11.238 -1.1751  0.8719 -1.3248
  251MOL0     H34570   7.731   6.213  11.369 -0.1384 -2.5907 -1.4783
  251MOL0     H34571   7.779   5.933  11.103 -2.6313  2.1411  0.2191
  251MOL0     H34572   7.683   5.892  11.236 -0.3045 -0.6987 -1.1888
  251MOL0     H34573   7.971   5.799  11.201  0.4567  0.7208  1.9604
  251MOL0     H34574   7.878   5.764  11.341  0.8610  2.7546  0.2088
  251MOL0     H34575   7.690   5.672  11.153 -0.6303 -0.8658 -0.6800
  251MOL0     H34576   7.836   5.670  11.057  0.4637  0.3389  0.8879
  251MOL0     H34577   7.823   5.465  11.152 -1.4274  1.7946 -0.5329
  251MOL0     H34578   7.944   5.534  11.258  0.2266 -2.3036  0.7992
  251MOL0     H34579   7.649   5.493  11.325  0.6661  2.3887 -1.9541
  251MOL0     H34580   7.734   5.614  11.414  1.8512 -0.3148  2.1134
  251MOL0     H34581   7.855   5.332  11.398 -1.0869  0.7909  1.0262
  251MOL0     H34582   7.906   5.469  11.494 -0.4626 -0.3497  1.7189
  251MOL0     H34583   7.704   5.452  11.621  2.6316 -1.6266  3.7565
  251MOL0     H34584   7.805   5.303  11.622 -2.1865 -2.3098  0.7988
  251MOL0     H34585   7.585   5.301  11.423  1.1387 -3.0796 -1.8511
  251MOL0     H34586   7.644   5.167  11.499  0.7671  0.3320 -1.5073
  251MOL0     H34587   7.367   5.403  11.526 -0.1910 -0.6723 -1.4173
  251MOL0     H34588   7.121   5.301  11.787 -2.5008  1.8903  1.3503
  251MOL0     H34589   7.157   5.415  11.671 -0.5692 -0.1416  0.0429
  251MOL0     H34590   7.130   5.468  11.944  0.6688 -1.1557  0.4534
  251MOL0     H34591   7.291   5.406  11.949  1.4646 -0.1411 -1.9365
  251MOL0     H34592   7.350   5.625  11.919  2.1947 -0.0872 -1.9108
  251MOL0     H34593   7.329   5.609  11.744 -1.8528  1.4742 -0.4009
  251MOL0     H34594   7.114   5.705  11.927  0.7191 -3.8976  1.0280
  251MOL0     H34595   7.206   5.805  11.807  0.1436  1.2731 -0.6215
  251MOL0     H34596   7.026   5.901  11.839 -3.2503  1.9983  2.5949
  251MOL0     H34597   6.724   6.084  11.855 -0.0114 -1.8792  0.9132
  251MOL0     H34598   6.869   6.137  11.773  0.9245  0.4893 -0.0385
  251MOL0     H34599   6.883   6.061  11.936 -1.6435  0.0211  0.4072
  251MOL0     H34600   6.477   6.291  11.558 -0.1320 -0.3786 -1.4848
  251MOL0     H34601   6.253   6.363  11.544  1.1791 -0.2776 -1.5398
  251MOL0     H34602   5.882   6.067  11.605 -1.0079  1.3483 -0.7769
  251MOL0     H34603   5.989   6.082  11.745  0.2612  0.1138  0.7838
  251MOL0     H34604   5.805   6.306  11.646  1.5552 -1.7000 -2.7737
  251MOL0     H34605   5.745   6.187  11.746 -0.0305  0.1298  0.9924
  251MOL0     H34606   5.929   6.263  11.930 -0.5435 -0.8848 -0.8330
  251MOL0     H34607   5.819   6.384  11.887  0.0450  0.5587  0.0819
  251MOL0     H34608   5.979   6.461  11.703 -0.8133  2.1686  0.9723
  251MOL0     H34609   6.097   6.359  11.797 -1.4578 -2.7046 -0.6071
  251MOL0     H34610   5.944   6.584  11.909  0.3497 -0.6534  2.1992
  251MOL0     H34611   6.069   6.499  11.988 -0.2986 -1.1731 -0.2889
  251MOL0     H34612   6.158   6.625  11.723 -0.9847 -1.8732  0.8897
  251MOL0     H34613   6.250   6.588  11.858  0.6344  0.2604 -0.3850
  251MOL0     H34614   6.185   6.754  11.997  0.3464  1.9180  0.4471
  251MOL0     H34615   6.060   6.823  11.904  0.6005  0.6030 -0.7416
  251MOL0     H34616   6.330   6.812  11.763 -1.1191 -1.2457 -0.4990
  251MOL0     H34617   6.311   6.924  11.889  4.4332 -1.9995 -2.6010
  251MOL0     H34618   6.111   5.953  11.575 -0.8063  0.0779  2.0023
  251MOL0     H34619   6.358   5.881  11.557  0.8175 -0.1165 -1.2542
  251MOL0     H34620   6.660   5.724  11.567  1.5982  0.1540 -1.9772
  251MOL0     H34621   6.879   5.600  11.571  2.2129 -0.0811  0.0706
  251MOL0     H34622   7.939   6.069  11.029  1.9020  1.6482 -0.5298
  251MOL0     H34623   7.943   6.289  10.927  0.7161  0.6818  0.1808
  251MOL0     H34624   7.834   6.758  11.023 -1.1111 -1.3731  0.4138
  251MOL0     H34625   7.835   6.973  10.914 -0.6641  1.2440 -2.4810
  251MOL0     H34626   7.728   7.156  10.875 -0.0685  1.7281  0.1766
  251MOL0     H34627   7.681   7.241  10.726  4.6619 -1.5243  0.3919
  251MOL0     H34628   7.515   7.281  10.916  0.6177  1.1432 -1.7707
  251MOL0     H34629   7.489   7.095  10.918 -0.0795 -0.0858 -2.0151
  251MOL0     H34630   7.443   7.222  10.658  1.3686  1.4032  0.8334
  251MOL0     H34631   7.372   7.091  10.738  1.5189 -1.5372  0.1886
  251MOL0     H34632   7.230   7.316  10.718 -0.6974  3.3567  1.5584
  251MOL0     H34633   7.358   7.393  10.809 -1.7743  0.9264 -0.6023
  251MOL0     H34634   7.109   7.219  11.108  1.7934 -0.6695  0.7315
  251MOL0     H34635   7.527   6.819  10.644 -0.6843 -1.5977  1.9600
  251MOL0     H34636   7.444   6.529  10.785  1.9738  1.1135  0.1049
  251MOL0     H34637   7.452   6.623  10.627 -1.1685 -0.4642  0.2533
  251MOL0     H34638   7.564   6.500  10.665 -1.4500 -2.8080  0.3154
  252MOL0     O34639  10.048   0.489   2.900  0.1324 -0.3578  0.0755
  252MOL0     C34640   9.971   0.497   2.990  1.2658  0.4871  0.3461
  252MOL0     O34641   9.983   0.579   3.099 -0.5470 -0.2803 -0.1107
  252MOL0     C34642  10.106   0.618   3.131 -0.5682  0.5646  0.5862
  252MOL0     C34643  10.208   0.539   3.203  0.3561  0.5908  0.7694
  252MOL0     C34644  10.338   0.589   3.230 -0.1841 -0.0333 -0.7425
  252MOL0     C34645  10.371   0.716   3.196 -0.5659  0.7916 -0.3203
  252MOL0     O34646  10.495   0.778   3.214 -0.0947 -0.0238 -0.1626
  252MOL0     C34647  10.575   0.711   3.309  0.1559  0.0688 -0.2943
  252MOL0     C34648  10.695   0.791   3.350 -0.0479 -0.5819  1.3380
  252MOL0     C34649  10.815   0.777   3.257  0.6183  0.2159 -0.3081
  252MOL0     C34650  10.932   0.868   3.300  0.5862 -0.3417 -0.0843
  252MOL0     C34651  11.056   0.863   3.227  0.0206  0.5287 -0.2757
  252MOL0     C34652  11.127   1.004   3.228  0.4859  0.4850  0.0858
  252MOL0     C34653  11.059   1.103   3.130 -0.4287  0.4730  0.3842
  252MOL0     C34654  11.136   1.233   3.113  0.2946  0.4508 -0.1329
  252MOL0     N34655  11.126   1.323   3.229  0.0972 -0.0642 -0.3940
  252MOL0     C34656  11.235   1.375   3.291 -0.8018 -0.1217  0.1487
  252MOL0     C34657  11.185   1.418   3.405 -0.3224 -0.1418 -0.1884
  252MOL0     C34658  11.273   1.481   3.512  0.2190 -0.0286  0.0845
  252MOL0     C34659  11.228   1.475   3.657 -0.2275  0.3957  0.3719
  252MOL0     C34660  11.157   1.610   3.700  0.3947 -0.9844 -0.1619
  252MOL0     C34661  11.246   1.683   3.796  0.1606  0.2755  0.3586
  252MOL0     O34662  11.215   1.826   3.809  0.5964 -0.5085 -0.3027
  252MOL0     C34663  11.127   1.858   3.911 -0.3209 -0.5062  0.1575
  252MOL0     C34664  11.125   1.987   3.953  0.1057  0.0259 -0.2833
  252MOL0     C34665  11.036   2.030   4.059 -0.1262 -0.3473  0.2986
  252MOL0     C34666  11.049   2.181   4.093  0.3124  0.6811 -1.3427
  252MOL0     C34667  10.951   1.929   4.123  0.5097 -0.8323 -0.2322
  252MOL0     C34668  10.843   1.964   4.227 -0.8001 -0.1186 -0.8054
  252MOL0     O34669  10.760   1.866   4.267  0.0793  0.0669  0.2280
  252MOL0     C34670  10.682   1.879   4.384 -0.0149 -1.2546 -0.5339
  252MOL0     C34671  10.564   1.819   4.392  0.2822 -0.1019  0.3139
  252MOL0     C34672  10.477   1.822   4.498 -0.2532 -0.6072 -0.2139
  252MOL0     C34673  10.509   1.905   4.605 -1.3266  0.3305 -0.6047
  252MOL0     O34674  10.425   1.909   4.712  0.4512  0.0402  0.9220
  252MOL0     C34675  10.445   1.816   4.819  0.4296  0.7373 -1.0600
  252MOL0     C34676  10.322   1.783   4.894  1.0437 -0.5734  0.4990
  252MOL0     C34677  10.204   1.712   4.812 -0.5632  0.5050  0.5884
  252MOL0     C34678  10.072   1.696   4.896 -0.8236 -0.1809  0.3391
  252MOL0     C34679  10.006   1.836   4.929  0.5521  0.6826 -0.1095
  252MOL0     C34680   9.920   1.889   4.817  0.3481 -0.5967  0.2043
  252MOL0     C34681   9.855   2.026   4.845 -0.3293 -0.2668 -0.0796
  252MOL0     C34682   9.814   2.104   4.719  0.4442 -0.3386  0.9444
  252MOL0    Cl34683   9.676   2.033   4.622  0.0868 -0.5988  1.0878
  252MOL0     C34684  10.631   1.979   4.603 -0.4116 -0.1922  0.0463
  252MOL0     C34685  10.718   1.967   4.494 -0.4739  0.6188 -0.2252
  252MOL0     O34686  10.837   2.084   4.260  0.2520 -0.7892  0.7694
  252MOL0     C34687  10.964   1.798   4.080 -0.0983 -0.7396  0.1173
  252MOL0     C34688  11.048   1.765   3.978 -0.8470  0.1992 -1.4220
  252MOL0     N34689  11.052   1.378   3.415 -0.2759 -1.0234  0.2520
  252MOL0     N34690  11.016   1.321   3.308 -0.7098 -0.0252  0.8986
  252MOL0     C34691  10.280   0.796   3.117 -0.5158  0.4172 -0.8170
  252MOL0     C34692  10.152   0.749   3.085  0.3135  0.1498  0.0803
  252MOL0     C34693   9.849   0.433   2.968  0.2771  0.6214 -0.2768
  252MOL0     C34694   9.730   0.500   2.988  0.0859  0.6417 -0.8061
  252MOL0     C34695   9.608   0.446   2.964 -0.7718  0.3213  0.1406
  252MOL0     C34696   9.597   0.305   2.927  0.3465  0.5330  0.3752
  252MOL0     O34697   9.471   0.263   2.894  0.2292 -1.1206  0.5520
  252MOL0     C34698   9.456   0.137   2.839 -0.1019  0.1802 -0.5737
  252MOL0     C34699   9.503   0.131   2.692 -0.8591  0.3859 -0.5596
  252MOL0     C34700   9.539  -0.005   2.631  0.3088  0.2929  0.4603
  252MOL0     C34701   9.621  -0.008   2.502 -0.2735 -0.7377 -0.3757
  252MOL0     C34702   9.758   0.045   2.512  0.0956 -0.2594 -0.3514
  252MOL0     C34703   9.871   0.079   2.508 -0.8053 -1.0730 -0.0240
  252MOL0     C34704   9.712   0.236   2.900  0.4088  0.6571 -0.8075
  252MOL0     C34705   9.833   0.289   2.936 -0.5154 -0.4705  0.7570
  252MOL0     C34706   9.946   0.184   2.918  0.3430  0.0812 -0.0645
  252MOL0     H34707  10.175   0.440   3.233  3.5656  0.3061  4.0260
  252MOL0     H34708  10.409   0.528   3.285  0.4085 -0.3534 -1.8337
  252MOL0     H34709  10.597   0.608   3.278 -1.0397 -0.0179 -0.9214
  252MOL0     H34710  10.518   0.707   3.403 -0.8422 -2.4486 -0.9108
  252MOL0     H34711  10.669   0.897   3.360  3.1910  0.6414 -1.2660
  252MOL0     H34712  10.731   0.753   3.446 -2.9235 -1.3343  2.2175
  252MOL0     H34713  10.858   0.677   3.256 -1.7642 -0.9108  1.1566
  252MOL0     H34714  10.791   0.806   3.154  2.6631  3.0777 -0.1041
  252MOL0     H34715  10.886   0.964   3.274 -0.1430 -0.7015 -0.1423
  252MOL0     H34716  10.954   0.871   3.407  0.5149  2.2606 -0.0808
  252MOL0     H34717  11.040   0.829   3.125 -0.5617  2.8507 -1.0170
  252MOL0     H34718  11.122   0.791   3.277 -0.7278  0.1842  0.2520
  252MOL0     H34719  11.118   1.036   3.332  1.0546  1.1329 -0.0564
  252MOL0     H34720  11.234   0.994   3.209  0.7960  3.7906 -0.3964
  252MOL0     H34721  10.958   1.131   3.161 -1.2079 -3.1978  1.6015
  252MOL0     H34722  11.069   1.054   3.033  2.4009 -2.7304  2.0989
  252MOL0     H34723  11.240   1.212   3.087  0.7154 -2.2839  3.0428
  252MOL0     H34724  11.076   1.292   3.043 -2.5261 -0.0279  1.7129
  252MOL0     H34725  11.332   1.383   3.245  1.4008  1.5252  4.5300
  252MOL0     H34726  11.277   1.589   3.491 -0.1839 -0.0087  0.1065
  252MOL0     H34727  11.375   1.442   3.508  0.7210  0.8838  2.3889
  252MOL0     H34728  11.159   1.391   3.662 -1.5372  1.4901  1.7124
  252MOL0     H34729  11.315   1.451   3.719  0.1223 -0.7908 -0.5410
  252MOL0     H34730  11.127   1.657   3.606  3.0552 -0.6249 -0.9104
  252MOL0     H34731  11.057   1.592   3.740  0.4664  1.1509  1.0981
  252MOL0     H34732  11.254   1.631   3.892  0.1018 -0.5598 -0.0762
  252MOL0     H34733  11.347   1.672   3.755  0.3114 -0.7063  0.9658
  252MOL0     H34734  11.187   2.061   3.903 -0.4087 -0.6149 -1.9150
  252MOL0     H34735  11.134   2.227   4.042 -0.0112  0.1407 -2.4142
  252MOL0     H34736  11.076   2.197   4.198  2.4740  1.1361 -1.9374
  252MOL0     H34737  10.961   2.238   4.060  1.0366  0.7187 -3.3358
  252MOL0     H34738  10.537   1.766   4.302  3.0238 -2.1957  0.5978
  252MOL0     H34739  10.390   1.757   4.501  1.3573 -2.9156 -0.2923
  252MOL0     H34740  10.486   1.722   4.780 -1.9861 -0.9556  0.2173
  252MOL0     H34741  10.518   1.870   4.880  1.0563  0.7788 -1.8220
  252MOL0     H34742  10.342   1.712   4.975 -1.6864 -2.8942 -0.6576
  252MOL0     H34743  10.277   1.874   4.934  3.5681  0.5783  0.9091
  252MOL0     H34744  10.249   1.616   4.784 -3.1578 -0.1679 -1.6660
  252MOL0     H34745  10.180   1.769   4.722 -3.0118  0.6027  1.2476
  252MOL0     H34746  10.104   1.644   4.987  1.5885  0.1936 -0.2291
  252MOL0     H34747   9.997   1.637   4.841 -2.4270 -0.9123  3.1353
  252MOL0     H34748   9.935   1.822   5.012  0.1916 -0.4035 -0.5857
  252MOL0     H34749  10.079   1.912   4.960 -0.8739  2.4307 -0.8754
  252MOL0     H34750   9.847   1.817   4.779  1.1477 -1.4001  0.1672
  252MOL0     H34751   9.978   1.915   4.728 -0.0838  0.2616  0.1642
  252MOL0     H34752   9.923   2.090   4.902 -2.0207  1.4536  0.0843
  252MOL0     H34753   9.771   2.023   4.916  2.5590  0.9289  3.7609
  252MOL0     H34754   9.901   2.122   4.656  1.4488 -1.9988  1.7831
  252MOL0     H34755   9.780   2.199   4.762 -1.7858 -0.5592 -0.1902
  252MOL0     H34756  10.660   2.050   4.680  1.4950  0.7218 -1.4287
  252MOL0     H34757  10.814   2.017   4.477  0.0865  0.2980  1.6976
  252MOL0     H34758  10.920   1.707   4.119 -1.8456 -1.4910 -3.2096
  252MOL0     H34759  11.045   1.662   3.944 -1.0114  0.3556 -1.8993
  252MOL0     H34760  10.308   0.897   3.088 -2.6004  0.7374 -1.9186
  252MOL0     H34761  10.078   0.798   3.023 -1.0216  1.5252  2.6249
  252MOL0     H34762   9.725   0.604   3.021 -3.1173  0.2233  0.4361
  252MOL0     H34763   9.512   0.493   2.979 -0.8319  0.2011  0.1343
  252MOL0     H34764   9.499   0.054   2.896 -1.3810 -0.9408 -1.1976
  252MOL0     H34765   9.350   0.109   2.841  0.6431 -3.1151  1.5502
  252MOL0     H34766   9.584   0.199   2.664 -1.1751  0.2617 -1.8175
  252MOL0     H34767   9.415   0.168   2.640 -1.2909  0.8919  0.5151
  252MOL0     H34768   9.580  -0.074   2.705  1.8619  0.2625 -0.3718
  252MOL0     H34769   9.443  -0.049   2.601 -1.5777  3.8585  0.8041
  252MOL0     H34770   9.571   0.034   2.415 -1.1597  2.6119  1.5631
  252MOL0     H34771   9.636  -0.112   2.473  0.4139 -1.0753  1.0626
  252MOL0     H34772   9.975   0.101   2.490 -0.8911  1.6400  2.0530
  252MOL0     H34773   9.709   0.137   2.856  0.0722  0.5474 -0.5420
  252MOL0     H34774   9.928   0.128   2.825 -0.8413 -1.7037  1.1755
  252MOL0     H34775  10.039   0.242   2.920  0.2054  0.3131 -0.3916
  252MOL0     H34776   9.932   0.114   3.001 -1.4459  0.0972 -0.3100
  253MOL0     O34777   9.374   3.571   7.745 -0.4256  0.5935 -1.0176
  253MOL0     C34778   9.493   3.531   7.763 -0.0411 -0.4309  0.3094
  253MOL0     O34779   9.522   3.410   7.825  0.4368 -0.5045  0.4142
  253MOL0     C34780   9.419   3.327   7.857 -0.4218 -0.0241 -0.2410
  253MOL0     C34781   9.385   3.204   7.797  0.0299  0.4459 -0.4706
  253MOL0     C34782   9.282   3.122   7.849  0.1155 -0.3082 -0.2979
  253MOL0     C34783   9.227   3.159   7.971  0.2405  0.6143  0.8163
  253MOL0     O34784   9.130   3.075   8.029  0.2652  0.0720  0.4743
  253MOL0     C34785   9.134   2.934   8.013  0.9506  0.2624  0.3957
  253MOL0     C34786   9.020   2.872   8.091  0.9021  0.2346  0.4698
  253MOL0     C34787   9.071   2.809   8.222  0.1556 -0.4331 -0.2457
  253MOL0     C34788   9.111   2.670   8.211  0.3066 -0.0517  0.2029
  253MOL0     C34789   9.160   2.610   8.348 -0.2510 -0.6646 -0.4871
  253MOL0     C34790   9.162   2.462   8.335 -0.0294  0.5052 -0.2061
  253MOL0     C34791   9.188   2.381   8.471  0.4859  0.6548  0.4378
  253MOL0     C34792   9.245   2.249   8.424  0.2042  0.0190 -0.3458
  253MOL0     N34793   9.268   2.159   8.532 -0.1345 -0.2086  0.5591
  253MOL0     C34794   9.217   2.033   8.544 -0.2991  0.6914 -0.9841
  253MOL0     C34795   9.257   1.993   8.666 -0.6747 -0.2699  1.1120
  253MOL0     C34796   9.239   1.860   8.725 -0.9970 -0.0603 -0.4832
  253MOL0     C34797   9.298   1.748   8.638  0.6491  1.0075 -0.3980
  253MOL0     C34798   9.300   1.610   8.697  0.2407 -0.0831  0.6079
  253MOL0     C34799   9.382   1.520   8.614 -1.1082 -0.3359  0.5265
  253MOL0     O34800   9.399   1.396   8.682  0.5375 -0.7598 -0.5133
  253MOL0     C34801   9.485   1.297   8.643  1.3821  0.1993 -0.0321
  253MOL0     C34802   9.535   1.208   8.739 -0.8103  0.5779  1.3861
  253MOL0     C34803   9.629   1.110   8.704 -0.1174  0.1155 -0.4546
  253MOL0     C34804   9.678   1.024   8.821  0.3190 -0.7564 -0.2444
  253MOL0     C34805   9.684   1.106   8.574 -0.5999  0.0497 -0.2734
  253MOL0     C34806   9.778   1.006   8.525  0.1280  0.2483 -0.6166
  253MOL0     O34807   9.770   0.882   8.591 -0.1502 -0.7323  0.2290
  253MOL0     C34808   9.842   0.776   8.533 -0.5837  0.5194 -0.2703
  253MOL0     C34809   9.791   0.666   8.465  0.7795  1.0338  0.4278
  253MOL0     C34810   9.870   0.569   8.396 -1.1525 -0.3494  0.2541
  253MOL0     C34811  10.013   0.574   8.412  0.4428  0.3827 -0.1385
  253MOL0     O34812  10.104   0.493   8.353  0.0663  0.1734 -0.5031
  253MOL0     C34813  10.064   0.367   8.295  0.0372  0.1178  0.3268
  253MOL0     C34814  10.181   0.280   8.254  0.8139 -0.3221 -0.7118
  253MOL0     C34815  10.223   0.184   8.367  0.1647  0.3928  0.1635
  253MOL0     C34816  10.281   0.047   8.330 -0.5969 -0.4082 -0.2830
  253MOL0     C34817  10.346  -0.029   8.455  0.0948 -0.7164  0.2662
  253MOL0     C34818  10.304  -0.171   8.424  0.5023 -0.4290  0.4190
  253MOL0     C34819  10.404  -0.276   8.456  0.1869 -0.4738  0.8211
  253MOL0     C34820  10.461  -0.288   8.601  0.2166 -0.2698  0.2403
  253MOL0    Cl34821  10.579  -0.417   8.588 -0.0059  0.2979  0.1449
  253MOL0     C34822  10.062   0.692   8.471  0.0166  0.6890  0.0075
  253MOL0     C34823   9.982   0.797   8.533  0.1602  0.7619 -0.7379
  253MOL0     O34824   9.835   1.028   8.424 -1.3084 -0.3736 -0.5685
  253MOL0     C34825   9.638   1.209   8.484 -0.7943  0.7618  0.4217
  253MOL0     C34826   9.536   1.301   8.513 -0.2699  0.0134 -0.1900
  253MOL0     N34827   9.332   2.086   8.730  0.1515 -0.3157  0.3654
  253MOL0     N34828   9.328   2.187   8.647  0.8088  0.3964  0.1866
  253MOL0     C34829   9.270   3.270   8.041  0.1439 -0.4045  0.5556
  253MOL0     C34830   9.368   3.351   7.989 -0.7347  0.3497 -0.1971
  253MOL0     C34831   9.602   3.598   7.682 -0.1983  0.2107  0.6971
  253MOL0     C34832   9.717   3.527   7.651 -0.6967  1.3073 -0.2393
  253MOL0     C34833   9.826   3.575   7.577 -0.0047  1.3983  0.4441
  253MOL0     C34834   9.814   3.701   7.522 -0.7804 -0.0652 -0.5347
  253MOL0     O34835   9.923   3.756   7.456 -0.3522  0.0652 -0.3526
  253MOL0     C34836   9.920   3.888   7.408 -0.1569  0.3486 -0.5675
  253MOL0     C34837  10.063   3.899   7.360  0.4284  0.1342  0.6245
  253MOL0     C34838  10.081   4.030   7.293 -0.7055 -1.1320 -0.3853
  253MOL0     C34839  10.224   4.051   7.238  0.6106  0.1802  0.1240
  253MOL0     C34840  10.220   4.190   7.189 -0.3377 -0.4852  0.6025
  253MOL0     C34841  10.210   4.294   7.127  0.1136 -0.9827  0.8560
  253MOL0     C34842   9.697   3.770   7.539  0.0798  0.2414  1.2971
  253MOL0     C34843   9.598   3.724   7.623 -0.3923  0.3154 -0.1245
  253MOL0     C34844   9.476   3.827   7.637 -0.5159 -0.3605 -0.0272
  253MOL0     H34845   9.430   3.176   7.702  0.9899 -0.8978  0.3386
  253MOL0     H34846   9.264   3.032   7.790  1.8494 -1.1389  0.3890
  253MOL0     H34847   9.232   2.894   8.041  0.5469 -2.1004 -1.2224
  253MOL0     H34848   9.111   2.909   7.909 -4.0012  0.3898  1.2060
  253MOL0     H34849   8.956   2.958   8.117  1.8847  0.9024  0.7412
  253MOL0     H34850   8.962   2.806   8.026 -1.0989  2.5299 -0.2403
  253MOL0     H34851   9.158   2.868   8.254 -0.0681 -0.2675  0.0585
  253MOL0     H34852   8.991   2.816   8.296  0.9064 -2.2717  0.8022
  253MOL0     H34853   9.026   2.612   8.175  0.1338 -0.3276  1.0260
  253MOL0     H34854   9.185   2.658   8.131 -2.2310 -1.9174 -2.0253
  253MOL0     H34855   9.100   2.643   8.433  2.1571  0.9894  0.6818
  253MOL0     H34856   9.255   2.657   8.375 -2.1139  2.4482  1.1857
  253MOL0     H34857   9.078   2.413   8.285 -1.4169  3.2433 -0.7938
  253MOL0     H34858   9.249   2.452   8.270 -1.5717 -0.9969 -2.1779
  253MOL0     H34859   9.093   2.360   8.522  2.1376  0.0542  3.4648
  253MOL0     H34860   9.265   2.437   8.523 -0.7444  3.1127 -0.2507
  253MOL0     H34861   9.175   2.203   8.353  0.3077  0.7709 -0.9484
  253MOL0     H34862   9.338   2.270   8.371  0.5075  1.2561  0.6174
  253MOL0     H34863   9.161   1.972   8.475 -0.6764  0.8014 -0.7790
  253MOL0     H34864   9.134   1.845   8.750  0.1438 -4.3150  3.1195
  253MOL0     H34865   9.291   1.867   8.822  1.4721  3.8610 -1.8644
  253MOL0     H34866   9.257   1.731   8.538  0.1608 -3.2515  0.3422
  253MOL0     H34867   9.403   1.772   8.618  1.5222 -0.9465  1.5058
  253MOL0     H34868   9.349   1.614   8.795  0.1500  0.8888  0.6189
  253MOL0     H34869   9.194   1.588   8.715 -0.3570  3.4537  2.2744
  253MOL0     H34870   9.338   1.510   8.515 -1.3400 -1.3762  0.7212
  253MOL0     H34871   9.480   1.558   8.586  0.0049 -1.9725  1.9560
  253MOL0     H34872   9.494   1.220   8.839 -0.7302  1.3410  1.3311
  253MOL0     H34873   9.608   0.940   8.834 -1.2679  0.4387 -0.7199
  253MOL0     H34874   9.688   1.084   8.911 -1.5944  0.8102 -1.0087
  253MOL0     H34875   9.782   0.995   8.803  0.6263 -1.4745  2.3180
  253MOL0     H34876   9.683   0.652   8.457  0.6271  2.8876 -2.5351
  253MOL0     H34877   9.821   0.492   8.336 -1.7206  0.6734 -0.6463
  253MOL0     H34878  10.006   0.312   8.369  1.3063 -0.2789  1.0626
  253MOL0     H34879  10.011   0.389   8.202 -1.0273 -1.6662  0.4860
  253MOL0     H34880  10.155   0.208   8.176 -0.7926 -1.1624  0.5676
  253MOL0     H34881  10.258   0.344   8.209  0.5385 -0.2330 -1.0539
  253MOL0     H34882  10.141   0.159   8.435 -1.1999 -0.7864 -1.8280
  253MOL0     H34883  10.298   0.239   8.426 -0.3716 -0.3698  1.6100
  253MOL0     H34884  10.354   0.055   8.249  2.0256  1.6349  2.0980
  253MOL0     H34885  10.194  -0.012   8.298 -0.2093 -1.9163  1.2808
  253MOL0     H34886  10.453  -0.012   8.450 -0.0588  1.1327  2.1823
  253MOL0     H34887  10.308   0.012   8.549  1.3315  2.2141 -0.4338
  253MOL0     H34888  10.276  -0.191   8.320  0.7608 -0.9806  0.4500
  253MOL0     H34889  10.216  -0.196   8.484  0.1461  0.2596  0.1906
  253MOL0     H34890  10.481  -0.251   8.382 -0.0659 -1.0249  0.3706
  253MOL0     H34891  10.359  -0.372   8.431  1.9931 -0.9471 -0.9611
  253MOL0     H34892  10.380  -0.305   8.673  1.4513  1.2511  2.0918
  253MOL0     H34893  10.512  -0.195   8.625 -0.9256  0.0192  1.7078
  253MOL0     H34894  10.169   0.700   8.453  0.0982  0.6603  0.4699
  253MOL0     H34895  10.031   0.887   8.570 -1.1319  1.0629  0.3090
  253MOL0     H34896   9.680   1.228   8.386 -1.0820  0.0178  0.1462
  253MOL0     H34897   9.500   1.370   8.437  0.3719 -1.0519 -1.4892
  253MOL0     H34898   9.215   3.299   8.130 -2.6499  0.1502 -1.2153
  253MOL0     H34899   9.400   3.437   8.046 -3.7302  1.4438 -0.0154
  253MOL0     H34900   9.720   3.424   7.684  1.0086  1.8388  1.4177
  253MOL0     H34901   9.912   3.510   7.564 -0.9647  0.0897  0.4803
  253MOL0     H34902   9.838   3.901   7.336  1.1736 -2.9831 -2.9597
  253MOL0     H34903   9.904   3.956   7.492 -1.9081 -0.7872  0.0842
  253MOL0     H34904  10.074   3.820   7.285 -1.1972 -0.2723  0.7686
  253MOL0     H34905  10.122   3.877   7.449  2.8372 -0.2601 -0.9734
  253MOL0     H34906  10.003   4.050   7.219 -1.5245 -1.2564  0.4234
  253MOL0     H34907  10.061   4.097   7.377  2.4275 -1.8481  1.0933
  253MOL0     H34908  10.245   3.984   7.154  1.9838  2.8308 -1.7986
  253MOL0     H34909  10.304   4.039   7.311 -0.1770 -0.8419  0.8482
  253MOL0     H34910  10.193   4.384   7.071  0.6420 -0.6888  1.1535
  253MOL0     H34911   9.675   3.862   7.487 -1.8696 -1.0989 -0.3660
  253MOL0     H34912   9.502   3.930   7.610  1.3498 -0.7149  0.2988
  253MOL0     H34913   9.398   3.801   7.565 -1.6291  2.5597 -0.0331
  253MOL0     H34914   9.437   3.810   7.738 -0.0617 -0.4348  0.1361
  254MOL0     O34915  11.449   8.351   9.637 -0.0814 -0.6322  0.1699
  254MOL0     C34916  11.381   8.260   9.602  0.3341  0.1916 -0.2748
  254MOL0     O34917  11.420   8.128   9.583  0.3564 -0.7828 -0.2798
  254MOL0     C34918  11.548   8.097   9.633 -0.5293 -0.3609 -0.4211
  254MOL0     C34919  11.669   8.169   9.614 -0.3133  1.0433  0.0265
  254MOL0     C34920  11.790   8.119   9.655  0.4256  0.2089 -0.5164
  254MOL0     C34921  11.801   7.988   9.699 -0.4542 -0.1984  0.0412
  254MOL0     O34922  11.919   7.928   9.731 -1.2277 -1.1325 -0.2089
  254MOL0     C34923  11.920   7.787   9.757  0.0611 -0.1100  1.3417
  254MOL0     C34924  12.058   7.766   9.796 -0.1190  1.3589 -0.3677
  254MOL0     C34925  12.096   7.617   9.764  0.4937  0.0213 -0.7738
  254MOL0     C34926  12.030   7.505   9.853  1.0230  0.3645 -0.4796
  254MOL0     C34927  12.098   7.382   9.863  0.4208 -0.1044  0.5191
  254MOL0     C34928  12.096   7.299   9.737  0.1496 -0.3046  0.2007
  254MOL0     C34929  11.958   7.228   9.711 -0.5810  0.9089 -0.6908
  254MOL0     C34930  11.928   7.109   9.809  0.5052  0.3132  0.2575
  254MOL0     N34931  12.035   7.007   9.819  0.6720 -0.0060 -0.1512
  254MOL0     C34932  12.092   6.944   9.712  0.0689  0.0668  0.2327
  254MOL0     C34933  12.175   6.852   9.761 -0.4023 -0.0280  0.3870
  254MOL0     C34934  12.250   6.750   9.686 -0.1234 -0.7192  0.1233
  254MOL0     C34935  12.392   6.797   9.643 -0.3736 -0.1722 -0.3810
  254MOL0     C34936  12.485   6.682   9.685  0.3784 -0.2285 -0.3209
  254MOL0     C34937  12.623   6.684   9.618  0.5572 -0.4820 -0.3957
  254MOL0     O34938  12.629   6.627   9.481  0.5460 -0.8112 -0.3084
  254MOL0     C34939  12.738   6.658   9.398  0.9482 -0.0580 -0.4405
  254MOL0     C34940  12.739   6.618   9.262 -1.3549  0.4822 -0.6920
  254MOL0     C34941  12.844   6.653   9.176 -0.3759  0.3968 -0.3201
  254MOL0     C34942  12.824   6.608   9.033 -0.2218 -0.1142 -0.2152
  254MOL0     C34943  12.952   6.732   9.215 -0.1937 -0.8957 -1.0789
  254MOL0     C34944  13.081   6.760   9.140  0.4641 -0.3159  0.1766
  254MOL0     O34945  13.179   6.827   9.212  1.2980  0.5738  0.3911
  254MOL0     C34946  13.291   6.850   9.145 -0.3275 -0.2804 -0.1916
  254MOL0     C34947  13.319   6.983   9.107  0.3127  0.9585  0.1703
  254MOL0     C34948  13.440   7.010   9.045 -0.1758  0.2094  0.1922
  254MOL0     C34949  13.542   6.913   9.024 -0.1914 -0.7968 -0.6013
  254MOL0     O34950  13.657   6.955   8.952  0.3018 -0.2131  0.2533
  254MOL0     C34951  13.769   6.864   8.937 -0.3625  1.0411 -0.2250
  254MOL0     C34952  13.861   6.925   8.832 -0.4842  0.0773  0.7227
  254MOL0     C34953  13.946   7.044   8.888 -0.0408 -0.5870 -0.0538
  254MOL0     C34954  14.006   7.123   8.767 -0.5121 -0.5269 -0.2415
  254MOL0     C34955  14.135   7.049   8.713 -0.4418 -0.9397 -0.3220
  254MOL0     C34956  14.147   7.090   8.570 -0.1551  0.0951  0.2907
  254MOL0     C34957  14.255   7.021   8.498  0.0590 -0.6261  0.6720
  254MOL0     C34958  14.214   6.888   8.455 -0.6688 -0.2789 -0.5236
  254MOL0    Cl34959  14.355   6.783   8.433 -0.0125 -0.2174 -0.2995
  254MOL0     C34960  13.522   6.784   9.076 -0.2256  0.0924 -0.4973
  254MOL0     C34961  13.396   6.753   9.139 -0.1499  0.2494 -0.2687
  254MOL0     O34962  13.085   6.720   9.023  0.4681 -0.0152  1.1659
  254MOL0     C34963  12.959   6.755   9.352 -0.2557 -0.3794 -0.0875
  254MOL0     C34964  12.851   6.721   9.449 -0.4972 -1.0506 -0.0182
  254MOL0     N34965  12.163   6.858   9.895 -0.5543 -0.4921  0.2562
  254MOL0     N34966  12.086   6.950   9.933 -0.1561  0.2410 -0.7191
  254MOL0     C34967  11.683   7.918   9.711 -0.5251 -0.2561 -0.1363
  254MOL0     C34968  11.559   7.969   9.681 -0.3261  0.4186  0.1346
  254MOL0     C34969  11.249   8.293   9.545 -0.8988 -0.0064 -0.4440
  254MOL0     C34970  11.217   8.425   9.528  0.7111 -0.6217  0.5450
  254MOL0     C34971  11.093   8.466   9.471  0.2218  0.5273  1.5486
  254MOL0     C34972  10.996   8.374   9.452 -0.2533  0.3291  0.1167
  254MOL0     O34973  10.868   8.411   9.404  0.0518 -0.4171  0.4513
  254MOL0     C34974  10.785   8.484   9.495 -0.4971 -0.0533  0.5659
  254MOL0     C34975  10.714   8.399   9.600 -0.2260 -0.2677  0.0022
  254MOL0     C34976  10.589   8.459   9.658  0.2948  0.3516 -0.6673
  254MOL0     C34977  10.469   8.436   9.571  0.2996 -0.5026  0.7056
  254MOL0     C34978  10.335   8.479   9.630  0.4662  0.0606 -0.1855
  254MOL0     C34979  10.230   8.509   9.673 -0.5246  0.0463  0.1156
  254MOL0     C34980  11.022   8.244   9.491  0.3456 -0.0304  1.2827
  254MOL0     C34981  11.148   8.196   9.528 -0.2295  0.1919  0.6956
  254MOL0     C34982  11.149   8.061   9.593 -0.0983 -0.0663  0.0361
  254MOL0     H34983  11.655   8.264   9.564 -1.0570  1.3173  0.7318
  254MOL0     H34984  11.882   8.177   9.650  0.4066  0.5986  2.3618
  254MOL0     H34985  11.894   7.741   9.662  2.2160  0.6136  0.3111
  254MOL0     H34986  11.856   7.743   9.833  1.9183 -4.4411  0.6530
  254MOL0     H34987  12.119   7.818   9.722 -1.5188 -2.9145 -5.0994
  254MOL0     H34988  12.070   7.799   9.900 -1.1802  1.0507 -0.1353
  254MOL0     H34989  12.045   7.602   9.669 -2.1363  0.6153  0.4413
  254MOL0     H34990  12.205   7.622   9.758  0.3890  3.7530 -1.8120
  254MOL0     H34991  12.020   7.526   9.960  0.3088 -3.3236  0.2917
  254MOL0     H34992  11.931   7.492   9.808  1.7301  1.4317 -2.5140
  254MOL0     H34993  12.066   7.324   9.951  1.8243 -2.0650 -0.1805
  254MOL0     H34994  12.202   7.398   9.893  0.2097  2.9183 -0.1414
  254MOL0     H34995  12.131   7.356   9.650  0.5559  1.6454  1.5893
  254MOL0     H34996  12.166   7.215   9.742 -0.3457 -1.1567 -3.6484
  254MOL0     H34997  11.964   7.184   9.611  1.2573  1.0169 -0.6720
  254MOL0     H34998  11.872   7.295   9.720 -1.7935 -0.2535 -2.8416
  254MOL0     H34999  11.910   7.146   9.910  0.3886 -1.2301  0.8288
  254MOL0     H35000  11.830   7.061   9.797  1.4357 -1.4058 -0.8499
  254MOL0     H35001  12.067   6.963   9.608 -0.1082 -1.2939 -0.0021
  254MOL0     H35002  12.199   6.728   9.592  0.5896  1.4386 -0.8289
  254MOL0     H35003  12.248   6.657   9.744 -1.9826 -0.3756  0.6854
  254MOL0     H35004  12.393   6.815   9.535 -1.8333  0.3851 -0.3198
  254MOL0     H35005  12.431   6.889   9.686 -0.8779 -2.0538  4.7220
  254MOL0     H35006  12.496   6.683   9.794 -0.3078  0.4672 -0.2483
  254MOL0     H35007  12.430   6.595   9.648 -2.4158  1.4748 -0.5135
  254MOL0     H35008  12.661   6.787   9.608  1.6575 -0.9859 -1.7057
  254MOL0     H35009  12.683   6.634   9.695  0.5147  1.6890  1.1558
  254MOL0     H35010  12.655   6.561   9.226 -0.5910 -0.9641 -0.2685
  254MOL0     H35011  12.730   6.553   9.033 -0.6541  0.5494 -2.1663
  254MOL0     H35012  12.902   6.546   8.988  0.3614 -1.4373  2.4271
  254MOL0     H35013  12.814   6.695   8.968  1.6774  2.0334  2.1465
  254MOL0     H35014  13.234   7.051   9.116 -1.0425 -0.8314  1.7726
  254MOL0     H35015  13.468   7.111   9.017  2.5758 -0.4985  0.0349
  254MOL0     H35016  13.814   6.846   9.035 -0.0829 -1.7272 -0.7737
  254MOL0     H35017  13.735   6.767   8.900  1.4832  0.6371 -0.9872
  254MOL0     H35018  13.928   6.851   8.789 -1.2042 -0.4677  0.5125
  254MOL0     H35019  13.804   6.960   8.746  0.1320  1.1686  0.7365
  254MOL0     H35020  14.021   7.009   8.959 -0.8921 -0.8054  0.7558
  254MOL0     H35021  13.884   7.113   8.945  1.5110  0.2861  0.6417
  254MOL0     H35022  14.038   7.220   8.808 -1.7770 -1.2910  2.8326
  254MOL0     H35023  13.931   7.135   8.689  1.4057  0.2200 -2.0713
  254MOL0     H35024  14.228   7.084   8.759  0.0139  1.3423 -2.7562
  254MOL0     H35025  14.125   6.940   8.714 -0.0102 -1.0322 -2.2884
  254MOL0     H35026  14.172   7.197   8.581  0.2973 -0.1663  2.0842
  254MOL0     H35027  14.055   7.069   8.514  0.7424 -4.2728  0.0888
  254MOL0     H35028  14.343   7.017   8.562 -0.0881  0.0778  0.9330
  254MOL0     H35029  14.293   7.068   8.407 -1.9312 -0.6243 -0.2137
  254MOL0     H35030  14.151   6.889   8.365 -4.2721 -1.6507  1.7615
  254MOL0     H35031  14.146   6.843   8.528 -0.6351  0.2807 -0.1462
  254MOL0     H35032  13.592   6.701   9.072  2.0984  1.8941  0.3826
  254MOL0     H35033  13.384   6.650   9.171  0.3003 -0.2847 -1.7547
  254MOL0     H35034  13.047   6.798   9.398 -0.3281  0.1264 -0.4250
  254MOL0     H35035  12.861   6.750   9.553 -1.1022 -1.1683  0.0810
  254MOL0     H35036  11.667   7.821   9.758 -2.8210  1.0210  1.9786
  254MOL0     H35037  11.468   7.913   9.702 -0.0997 -0.4730 -1.1596
  254MOL0     H35038  11.279   8.513   9.538 -0.2127 -0.0880  1.8541
  254MOL0     H35039  11.073   8.572   9.466 -0.2032  0.4696  1.9046
  254MOL0     H35040  10.835   8.570   9.539 -2.7812  0.9828  1.2953
  254MOL0     H35041  10.706   8.534   9.437 -0.6109 -1.8238 -0.9204
  254MOL0     H35042  10.783   8.379   9.684 -0.0640 -0.2001 -0.1131
  254MOL0     H35043  10.696   8.303   9.551  0.3321 -0.0564 -0.6256
  254MOL0     H35044  10.569   8.404   9.750  0.7851 -2.1474 -1.9414
  254MOL0     H35045  10.602   8.566   9.672 -1.3832  0.7067 -1.4956
  254MOL0     H35046  10.467   8.331   9.540  1.0109 -0.1322 -0.6840
  254MOL0     H35047  10.488   8.489   9.477 -0.2532 -0.2272  0.7435
  254MOL0     H35048  10.137   8.547   9.710 -1.2671 -2.2524  0.7660
  254MOL0     H35049  10.944   8.168   9.484 -0.2923  0.4281  2.8872
  254MOL0     H35050  11.189   8.070   9.695 -2.6435 -0.2064  1.1091
  254MOL0     H35051  11.053   8.010   9.588  0.4296 -1.2948  1.5895
  254MOL0     H35052  11.216   7.999   9.531  1.9844  0.4806  1.6033
  255MOL0     O35053   9.771   3.372   6.382 -0.8881  0.0690 -0.2660
  255MOL0     C35054   9.762   3.484   6.434 -0.5761  0.4320 -0.6798
  255MOL0     O35055   9.819   3.595   6.383 -0.0891  0.0287 -0.0564
  255MOL0     C35056   9.911   3.603   6.281  0.2969  0.5295 -0.3640
  255MOL0     C35057  10.032   3.540   6.298 -0.6600 -0.2903  0.9382
  255MOL0     C35058  10.140   3.581   6.217  0.0034  0.6000  0.2208
  255MOL0     C35059  10.110   3.673   6.108  0.7405 -0.6402  0.2791
  255MOL0     O35060  10.217   3.711   6.030 -0.3630  0.3828  0.8685
  255MOL0     C35061  10.351   3.655   6.013  0.0770  0.7725  0.7205
  255MOL0     C35062  10.412   3.728   5.892 -0.2166  0.0580  0.0997
  255MOL0     C35063  10.326   3.693   5.772 -0.1051 -0.4410 -0.7303
  255MOL0     C35064  10.385   3.754   5.654 -0.3132 -0.2679 -0.2686
  255MOL0     C35065  10.295   3.733   5.533 -0.2544  0.3560 -0.8567
  255MOL0     C35066  10.164   3.810   5.536  0.0824  0.7299 -0.6582
  255MOL0     C35067  10.073   3.794   5.418  0.8740  0.0541 -0.2752
  255MOL0     C35068  10.106   3.870   5.285  0.0807 -0.2406 -0.3935
  255MOL0     N35069  10.038   3.805   5.167  0.5221 -0.2200  1.1260
  255MOL0     C35070   9.903   3.822   5.127 -0.6726  0.7387 -0.8181
  255MOL0     C35071   9.905   3.760   5.009 -0.0190  0.2884  0.2991
  255MOL0     C35072   9.783   3.758   4.917 -0.2289  0.5053 -0.1435
  255MOL0     C35073   9.701   3.630   4.953 -0.3579 -0.4823  0.0457
  255MOL0     C35074   9.764   3.493   4.914  0.1123  0.7326  0.2073
  255MOL0     C35075   9.747   3.465   4.762 -0.4446  0.1460  0.5906
  255MOL0     O35076   9.823   3.354   4.735 -0.5789  0.0014 -0.2370
  255MOL0     C35077   9.961   3.359   4.692  0.1387 -0.3269  0.0225
  255MOL0     C35078   9.998   3.239   4.628 -0.3895 -0.1052 -0.1825
  255MOL0     C35079  10.126   3.239   4.569  0.4389  0.2226 -0.2697
  255MOL0     C35080  10.165   3.124   4.475  0.0072 -0.8562  0.4368
  255MOL0     C35081  10.218   3.352   4.582  0.5059 -0.6370 -0.4358
  255MOL0     C35082  10.333   3.369   4.505 -0.1442  0.3830  0.1329
  255MOL0     O35083  10.339   3.324   4.377  0.6497 -0.4652 -0.6503
  255MOL0     C35084  10.461   3.319   4.315  0.1575 -0.3603  0.0796
  255MOL0     C35085  10.531   3.193   4.325 -0.2616  0.4434  0.5195
  255MOL0     C35086  10.646   3.173   4.244  0.2895  0.0814 -0.5633
  255MOL0     C35087  10.687   3.277   4.158  0.0153  0.2004  0.3392
  255MOL0     O35088  10.817   3.250   4.098  0.1561 -0.0879 -0.8729
  255MOL0     C35089  10.915   3.349   4.137 -0.5467 -0.0785  0.7300
  255MOL0     C35090  10.932   3.447   4.021  0.3995  0.4665  0.4329
  255MOL0     C35091  10.999   3.574   4.068 -0.9605  0.4360 -0.1789
  255MOL0     C35092  10.998   3.695   3.959 -0.2806 -0.1153  0.7954
  255MOL0     C35093  11.080   3.818   4.008 -0.4899 -0.3798 -0.2293
  255MOL0     C35094  11.083   3.913   3.896  0.7856  0.0754  0.4744
  255MOL0     C35095  11.128   4.055   3.939 -0.8379  0.4277 -0.1490
  255MOL0     C35096  11.151   4.151   3.827 -0.7029  0.0768  0.7267
  255MOL0    Cl35097  11.003   4.230   3.764  0.0557  0.0943  0.6068
  255MOL0     C35098  10.616   3.402   4.159 -1.2484 -0.0459 -0.2204
  255MOL0     C35099  10.501   3.428   4.233 -0.4046  0.2475  0.0067
  255MOL0     O35100  10.422   3.435   4.561 -0.2349 -0.0995 -0.3289
  255MOL0     C35101  10.168   3.468   4.642 -0.9024 -0.4866  0.3027
  255MOL0     C35102  10.041   3.476   4.685 -0.5930  0.0243 -0.3735
  255MOL0     N35103  10.032   3.704   4.975 -0.3207 -0.2699 -0.1557
  255MOL0     N35104  10.100   3.726   5.075 -0.3745 -0.0002 -0.5670
  255MOL0     C35105   9.981   3.722   6.089 -0.3368  0.9341 -0.4691
  255MOL0     C35106   9.880   3.688   6.179 -0.3399 -0.3559 -0.2486
  255MOL0     C35107   9.682   3.511   6.553 -0.0752  0.7174  0.7407
  255MOL0     C35108   9.679   3.639   6.612  0.5807 -0.2680  0.1849
  255MOL0     C35109   9.592   3.672   6.722  0.5558 -0.3227  0.5192
  255MOL0     C35110   9.512   3.578   6.780  0.5722  0.2222 -0.1123
  255MOL0     O35111   9.427   3.611   6.888 -0.1115  1.0731 -0.3542
  255MOL0     C35112   9.318   3.519   6.917  0.7322  0.2122 -0.2937
  255MOL0     C35113   9.356   3.404   7.011 -0.9589 -0.5712  0.0027
  255MOL0     C35114   9.259   3.285   6.995 -0.6197 -0.4958  0.6917
  255MOL0     C35115   9.254   3.190   7.111  0.3303  0.3041  0.3938
  255MOL0     C35116   9.159   3.083   7.082  0.0752 -0.1313 -0.5729
  255MOL0     C35117   9.076   3.004   7.051 -0.7006 -0.0344 -1.0104
  255MOL0     C35118   9.517   3.448   6.726  0.2365  0.2371 -0.5529
  255MOL0     C35119   9.603   3.405   6.618  0.5166 -0.5219 -0.7642
  255MOL0     C35120   9.606   3.258   6.582  0.1779 -0.6861  0.5336
  255MOL0     H35121  10.057   3.498   6.395  0.1017  0.3563  1.0302
  255MOL0     H35122  10.240   3.544   6.239 -0.2082 -1.2453 -1.6715
  255MOL0     H35123  10.350   3.549   5.988  2.1385  1.0150 -0.6429
  255MOL0     H35124  10.410   3.671   6.103  1.2153 -1.8514  0.5277
  255MOL0     H35125  10.412   3.836   5.914  1.7259 -0.2969  2.2024
  255MOL0     H35126  10.516   3.695   5.880  0.9318  3.9717 -3.0876
  255MOL0     H35127  10.331   3.585   5.754 -0.5306 -0.7152  0.6423
  255MOL0     H35128  10.220   3.719   5.785  0.3618  0.1838  2.7726
  255MOL0     H35129  10.407   3.860   5.673  2.8978 -0.8533 -0.2019
  255MOL0     H35130  10.481   3.706   5.635 -0.6082 -0.5605 -1.1119
  255MOL0     H35131  10.270   3.627   5.532 -2.4897  0.8438 -0.7028
  255MOL0     H35132  10.346   3.761   5.440 -1.5181 -0.5017 -1.8510
  255MOL0     H35133  10.105   3.780   5.623  2.3517 -3.6003 -0.3350
  255MOL0     H35134  10.180   3.918   5.549  0.5817  0.6084 -0.2299
  255MOL0     H35135   9.974   3.834   5.443  1.2233  1.6548 -1.2931
  255MOL0     H35136  10.053   3.689   5.400  0.9148  0.5293 -3.8777
  255MOL0     H35137  10.098   3.979   5.299  2.4180 -0.3201  2.7220
  255MOL0     H35138  10.213   3.859   5.263  0.3796  1.7939 -0.2413
  255MOL0     H35139   9.822   3.874   5.176 -0.9722 -1.3418  1.0581
  255MOL0     H35140   9.820   3.768   4.814  1.3347  4.0267  0.6132
  255MOL0     H35141   9.714   3.843   4.922 -1.1762 -0.0163 -2.5879
  255MOL0     H35142   9.667   3.640   5.056 -0.3637  0.1007 -0.0076
  255MOL0     H35143   9.609   3.629   4.894 -0.0362  2.9413 -0.7438
  255MOL0     H35144   9.872   3.485   4.929  0.3420  0.3286 -1.4210
  255MOL0     H35145   9.709   3.411   4.961 -2.4266  1.4511 -1.3220
  255MOL0     H35146   9.641   3.447   4.742 -0.7422 -0.2346  2.3275
  255MOL0     H35147   9.770   3.552   4.700 -0.8208  0.6766  1.1810
  255MOL0     H35148   9.933   3.153   4.613  1.3641 -1.1411 -2.5737
  255MOL0     H35149  10.096   3.040   4.488  0.1545 -0.9917  0.3400
  255MOL0     H35150  10.266   3.090   4.499  0.1287  1.0718  3.0803
  255MOL0     H35151  10.168   3.158   4.371 -0.1793 -2.0244  0.0307
  255MOL0     H35152  10.504   3.117   4.397 -0.6726 -1.3464 -1.4452
  255MOL0     H35153  10.698   3.079   4.259 -0.6990 -0.7779 -2.1990
  255MOL0     H35154  10.895   3.399   4.233  0.0938  0.9401  0.3486
  255MOL0     H35155  11.012   3.299   4.141 -0.1859  0.5299 -0.2588
  255MOL0     H35156  10.992   3.390   3.950 -0.1188 -0.1217  0.4612
  255MOL0     H35157  10.834   3.468   3.977  0.2584 -4.1549 -2.0332
  255MOL0     H35158  11.099   3.551   4.103 -1.4875 -0.1321  1.0010
  255MOL0     H35159  10.935   3.615   4.147 -0.9416 -2.2798  1.3499
  255MOL0     H35160  10.895   3.710   3.925 -0.5670 -1.0366  1.2479
  255MOL0     H35161  11.039   3.652   3.868  2.2543  0.9668  1.3451
  255MOL0     H35162  11.034   3.872   4.090 -1.5449  0.5133 -1.3666
  255MOL0     H35163  11.181   3.786   4.035 -1.4412 -1.1599  2.7437
  255MOL0     H35164  10.980   3.925   3.863  0.5657 -3.7486 -0.6096
  255MOL0     H35165  11.141   3.876   3.811  0.6877  1.1317 -0.0795
  255MOL0     H35166  11.225   4.037   3.987  0.1095 -1.6101 -2.5998
  255MOL0     H35167  11.060   4.111   4.005  0.2558 -0.9120  2.2677
  255MOL0     H35168  11.194   4.099   3.741 -1.7286 -1.3766  1.0411
  255MOL0     H35169  11.228   4.220   3.864  1.4218 -2.0270  0.4837
  255MOL0     H35170  10.664   3.475   4.095  0.4323 -1.4552 -0.6502
  255MOL0     H35171  10.444   3.520   4.232 -3.4027 -1.4706 -1.1817
  255MOL0     H35172  10.218   3.563   4.622 -2.8731  0.4125 -0.5984
  255MOL0     H35173   9.982   3.564   4.711  0.3054  0.6474 -0.3765
  255MOL0     H35174   9.963   3.784   6.002 -1.6802 -1.3579 -1.9352
  255MOL0     H35175   9.780   3.727   6.165  0.4693  1.0375 -2.7462
  255MOL0     H35176   9.728   3.714   6.551 -3.4959 -0.4848 -3.8290
  255MOL0     H35177   9.584   3.767   6.772  4.2212 -0.3010  1.2934
  255MOL0     H35178   9.237   3.564   6.976  1.7418 -0.1989  1.4673
  255MOL0     H35179   9.276   3.483   6.823  2.2256 -0.2381 -0.8079
  255MOL0     H35180   9.357   3.430   7.118 -0.3922  1.9070 -0.5571
  255MOL0     H35181   9.459   3.374   6.992  0.2061  1.4666  2.4972
  255MOL0     H35182   9.161   3.333   6.980  0.1864  0.4932 -1.9581
  255MOL0     H35183   9.295   3.239   6.903 -1.8139  1.2098 -0.7123
  255MOL0     H35184   9.223   3.249   7.198 -1.6976  0.2455 -0.2424
  255MOL0     H35185   9.348   3.139   7.133  1.0070  1.6891  0.8218
  255MOL0     H35186   8.998   2.933   7.033 -0.0040 -1.3912  0.9227
  255MOL0     H35187   9.446   3.373   6.761  1.2284 -0.1649  0.6485
  255MOL0     H35188   9.547   3.204   6.656  1.1016  1.3712  2.9356
  255MOL0     H35189   9.558   3.250   6.485  0.2114 -2.0958  0.6132
  255MOL0     H35190   9.705   3.218   6.559  0.4853  0.6150 -0.5353
  256MOL0     O35191   0.960   3.557   2.074  0.2470  0.5761  0.5315
  256MOL0     C35192   1.066   3.507   2.035 -0.2558 -0.5729 -0.4738
  256MOL0     O35193   1.082   3.388   1.966  0.3432 -0.5135  0.2567
  256MOL0     C35194   0.981   3.304   1.936 -0.0888 -0.0375  0.1905
  256MOL0     C35195   0.998   3.241   1.813 -0.3503 -0.3502  0.3332
  256MOL0     C35196   0.894   3.174   1.752  0.1644  1.1829 -0.5127
  256MOL0     C35197   0.770   3.171   1.813  0.0555 -0.8166  0.5161
  256MOL0     O35198   0.652   3.110   1.768 -0.0128 -0.1359  0.1107
  256MOL0     C35199   0.675   3.033   1.645  0.4135  0.8950 -0.2959
  256MOL0     C35200   0.560   2.939   1.608 -0.1692  0.2763  0.4535
  256MOL0     C35201   0.417   3.009   1.604 -1.0263  0.1504  0.0098
  256MOL0     C35202   0.313   2.902   1.605  0.2944 -0.3095 -0.3518
  256MOL0     C35203   0.178   2.971   1.573 -0.1743 -0.1201  0.6961
  256MOL0     C35204   0.074   2.861   1.557 -0.3112  0.1272 -0.7094
  256MOL0     C35205  -0.062   2.921   1.543  0.6974 -0.0369 -0.8705
  256MOL0     C35206  -0.165   2.820   1.481 -0.0517  0.1399 -0.0475
  256MOL0     N35207  -0.291   2.880   1.438 -0.8710 -0.0933 -0.0892
  256MOL0     C35208  -0.385   2.927   1.524  0.0065  0.5523 -0.0704
  256MOL0     C35209  -0.499   2.938   1.460 -0.1706  0.7876  0.5331
  256MOL0     C35210  -0.622   2.994   1.516  0.7874 -0.5524  0.0874
  256MOL0     C35211  -0.654   3.126   1.451 -0.1884 -0.0380  0.1803
  256MOL0     C35212  -0.739   3.214   1.549 -0.9347  0.3339  0.0554
  256MOL0     C35213  -0.649   3.299   1.647  1.7515  0.2463  0.8272
  256MOL0     O35214  -0.581   3.401   1.574 -0.0761  0.3002  0.1342
  256MOL0     C35215  -0.494   3.481   1.646  1.6867 -0.3272 -0.2740
  256MOL0     C35216  -0.417   3.580   1.589  0.0632  0.5301 -0.1877
  256MOL0     C35217  -0.326   3.666   1.667 -1.1676  0.4678 -0.0263
  256MOL0     C35218  -0.234   3.762   1.587  0.3390 -0.5862 -0.1191
  256MOL0     C35219  -0.313   3.646   1.804 -0.3743  0.2149 -0.0307
  256MOL0     C35220  -0.232   3.728   1.892 -0.0088  0.1183  0.1630
  256MOL0     O35221  -0.221   3.862   1.868  0.5046 -0.4533 -0.2182
  256MOL0     C35222  -0.134   3.930   1.952 -0.5098 -0.4581  0.0437
  256MOL0     C35223  -0.200   4.009   2.054 -0.5420 -0.4238  0.5764
  256MOL0     C35224  -0.131   4.078   2.158 -0.4938  0.0207  0.3581
  256MOL0     C35225   0.011   4.060   2.164 -0.1801 -0.5074 -0.3307
  256MOL0     O35226   0.092   4.138   2.246 -0.0993  0.9084  0.0792
  256MOL0     C35227   0.019   4.206   2.352  0.5871 -0.3449 -0.7534
  256MOL0     C35228   0.104   4.205   2.479 -0.7908 -0.2270 -0.4480
  256MOL0     C35229   0.218   4.311   2.477 -1.1797  0.6637 -0.9646
  256MOL0     C35230   0.302   4.296   2.611 -0.2049  0.0267 -0.3908
  256MOL0     C35231   0.367   4.427   2.648  0.0004  0.7942 -0.7333
  256MOL0     C35232   0.462   4.419   2.764 -0.4171 -0.6380 -0.5800
  256MOL0     C35233   0.498   4.564   2.796 -0.1069 -0.1690 -0.9950
  256MOL0     C35234   0.606   4.579   2.909  0.0099 -0.4914  0.2406
  256MOL0    Cl35235   0.526   4.569   3.062 -0.1440 -0.0424 -0.0747
  256MOL0     C35236   0.073   3.989   2.068 -0.7037 -0.0878  0.9635
  256MOL0     C35237   0.002   3.916   1.972 -0.9476  0.2990  0.4909
  256MOL0     O35238  -0.169   3.666   1.981  0.0810  0.1012  0.5593
  256MOL0     C35239  -0.398   3.548   1.862 -0.3995  0.7907  0.6207
  256MOL0     C35240  -0.482   3.462   1.782 -1.3015  0.3093  0.4656
  256MOL0     N35241  -0.476   2.921   1.326 -0.1452 -0.2836  0.5478
  256MOL0     N35242  -0.347   2.889   1.311 -0.1411  0.4133 -0.2964
  256MOL0     C35243   0.758   3.222   1.940 -0.0795 -0.1917 -0.7667
  256MOL0     C35244   0.865   3.285   2.005  0.0356 -0.6011 -0.1088
  256MOL0     C35245   1.188   3.589   2.041 -0.6210  0.4466 -0.0478
  256MOL0     C35246   1.295   3.557   1.956  1.3329  0.4641  0.2369
  256MOL0     C35247   1.398   3.641   1.936 -0.3318 -0.7328  0.6258
  256MOL0     C35248   1.401   3.759   2.001 -0.6885  0.5471  0.7347
  256MOL0     O35249   1.502   3.832   1.956 -0.1291  0.2601  0.8991
  256MOL0     C35250   1.511   3.969   1.995 -0.1926  1.0519  0.8337
  256MOL0     C35251   1.625   4.034   1.924  0.0981  0.1683 -0.6818
  256MOL0     C35252   1.762   3.988   1.958 -0.2141 -0.0948  0.7079
  256MOL0     C35253   1.812   4.033   2.096  0.0053  0.5550 -0.7027
  256MOL0     C35254   1.962   4.009   2.103  0.0794  0.3188  0.9565
  256MOL0     C35255   2.079   4.018   2.098  0.2298  0.0460 -0.2265
  256MOL0     C35256   1.307   3.782   2.102  0.5895 -0.3676  0.4875
  256MOL0     C35257   1.212   3.690   2.134 -0.2393  1.0401  0.3253
  256MOL0     C35258   1.121   3.720   2.237  0.0374  0.1253 -0.0756
  256MOL0     H35259   1.098   3.231   1.773 -0.2288 -0.9058  0.7606
  256MOL0     H35260   0.916   3.124   1.658 -0.1022 -1.3943  0.7253
  256MOL0     H35261   0.765   2.973   1.659 -0.0339 -0.5085 -2.7738
  256MOL0     H35262   0.697   3.102   1.562 -1.5240  3.0872  0.8912
  256MOL0     H35263   0.580   2.889   1.513  1.6044  1.1894  0.3026
  256MOL0     H35264   0.551   2.853   1.675  0.4519 -0.3578 -0.2743
  256MOL0     H35265   0.393   3.066   1.694 -2.3712  0.0876 -0.2972
  256MOL0     H35266   0.414   3.069   1.513 -0.5435  0.8497  0.4424
  256MOL0     H35267   0.337   2.822   1.534 -1.8556 -2.0956  0.7871
  256MOL0     H35268   0.319   2.858   1.705 -0.2105 -0.4920 -0.3959
  256MOL0     H35269   0.190   3.007   1.471 -1.4552 -2.2551 -0.2825
  256MOL0     H35270   0.158   3.049   1.647  2.6309 -0.0667  1.4850
  256MOL0     H35271   0.096   2.790   1.476 -2.0127 -2.3509  0.8533
  256MOL0     H35272   0.068   2.799   1.647  0.0911 -0.4520 -1.0722
  256MOL0     H35273  -0.060   3.011   1.481 -0.4047  0.6815  0.0779
  256MOL0     H35274  -0.093   2.954   1.643  2.6053  1.0829 -0.6000
  256MOL0     H35275  -0.118   2.766   1.398  1.1835  1.6972 -0.4066
  256MOL0     H35276  -0.194   2.748   1.559  0.8292 -3.6027 -2.8619
  256MOL0     H35277  -0.369   2.939   1.631  1.2613  1.6298 -0.3506
  256MOL0     H35278  -0.613   3.013   1.623 -0.6229  3.7579 -0.3589
  256MOL0     H35279  -0.701   2.919   1.511 -1.6430  1.8017  0.7259
  256MOL0     H35280  -0.562   3.181   1.429 -0.3784  1.3784  2.5111
  256MOL0     H35281  -0.706   3.106   1.357  0.2837 -0.9769  0.1065
  256MOL0     H35282  -0.804   3.275   1.485 -0.7069 -1.3322 -1.8554
  256MOL0     H35283  -0.806   3.151   1.609 -1.0019  0.3555  0.0035
  256MOL0     H35284  -0.726   3.333   1.717 -3.3273 -0.9443 -3.5351
  256MOL0     H35285  -0.574   3.240   1.700 -1.0715 -1.4689  3.2482
  256MOL0     H35286  -0.437   3.601   1.485 -1.9796  2.3047  0.4817
  256MOL0     H35287  -0.131   3.748   1.623 -0.3476  0.4345  2.4699
  256MOL0     H35288  -0.262   3.867   1.586  1.7856 -0.0722  2.4352
  256MOL0     H35289  -0.255   3.737   1.483 -2.8686 -1.1098  0.5513
  256MOL0     H35290  -0.307   4.016   2.040 -0.3139 -0.1781 -1.2310
  256MOL0     H35291  -0.192   4.127   2.233 -1.1133 -0.1788 -0.0045
  256MOL0     H35292  -0.007   4.307   2.318 -4.2069 -1.9300 -2.6540
  256MOL0     H35293  -0.072   4.159   2.392 -0.3894  2.1790  0.1728
  256MOL0     H35294   0.053   4.223   2.574 -0.1376 -0.4915 -0.0398
  256MOL0     H35295   0.151   4.107   2.489  0.9172  0.3883 -1.7761
  256MOL0     H35296   0.174   4.411   2.477 -1.7359  0.4516  0.8834
  256MOL0     H35297   0.283   4.303   2.389  1.9597 -1.5528  1.3474
  256MOL0     H35298   0.371   4.212   2.602 -0.3393 -0.5004  2.5870
  256MOL0     H35299   0.241   4.267   2.697 -0.7526 -0.0568 -0.8042
  256MOL0     H35300   0.420   4.469   2.563 -1.0058 -0.5614 -2.0852
  256MOL0     H35301   0.289   4.501   2.671  0.7934  2.2726 -2.5589
  256MOL0     H35302   0.547   4.360   2.730 -0.1330 -2.0419  2.2838
  256MOL0     H35303   0.414   4.391   2.859  0.6658  1.8866  0.8144
  256MOL0     H35304   0.405   4.618   2.815  0.4897  1.2089 -1.8500
  256MOL0     H35305   0.535   4.610   2.704  1.7943 -1.2866 -0.8367
  256MOL0     H35306   0.647   4.680   2.903 -0.9930 -0.0545  0.5565
  256MOL0     H35307   0.675   4.497   2.889 -0.2306 -0.4675 -0.7767
  256MOL0     H35308   0.180   3.974   2.068 -0.8997 -1.7309  2.0005
  256MOL0     H35309   0.065   3.843   1.923 -0.7786 -0.5015  1.8467
  256MOL0     H35310  -0.388   3.529   1.968 -1.8810  4.4189  1.5554
  256MOL0     H35311  -0.534   3.386   1.841 -0.3598 -1.2557 -0.6327
  256MOL0     H35312   0.659   3.220   1.984  0.3175  0.8354  0.2255
  256MOL0     H35313   0.835   3.335   2.097 -0.6222 -1.0675 -0.0594
  256MOL0     H35314   1.289   3.468   1.893  1.7120 -0.5743  1.6263
  256MOL0     H35315   1.477   3.623   1.863 -1.0075  0.9366 -0.5636
  256MOL0     H35316   1.418   4.020   1.968  0.8289  3.3561  1.3735
  256MOL0     H35317   1.527   3.976   2.103  1.1853 -2.8211  1.0355
  256MOL0     H35318   1.619   4.140   1.951 -1.9431 -0.4948  1.9447
  256MOL0     H35319   1.606   4.044   1.817  0.1428 -0.7636 -0.7800
  256MOL0     H35320   1.762   3.880   1.941 -2.8383 -0.0987  0.3398
  256MOL0     H35321   1.838   4.031   1.892  0.7168  1.6875  2.8068
  256MOL0     H35322   1.764   3.976   2.177  1.9641  0.0337  0.1714
  256MOL0     H35323   1.790   4.139   2.112  1.9159  1.1523 -1.7251
  256MOL0     H35324   2.186   4.025   2.092  0.3563 -2.4477 -2.7628
  256MOL0     H35325   1.306   3.871   2.166 -1.5193 -0.0173  0.0290
  256MOL0     H35326   1.109   3.630   2.299  1.8091 -1.2937 -1.6766
  256MOL0     H35327   1.166   3.796   2.301 -1.5531  0.2970  0.9068
  256MOL0     H35328   1.028   3.769   2.209 -0.2567  0.5924  1.5964
  257MOL0     O35329   9.364   8.220   3.688  0.3051  0.0247 -0.0597
  257MOL0     C35330   9.251   8.172   3.706 -0.0600  0.2093 -0.8726
  257MOL0     O35331   9.227   8.053   3.787 -0.2014 -0.7334 -0.1183
  257MOL0     C35332   9.336   8.014   3.860 -0.1081  0.2113 -0.5070
  257MOL0     C35333   9.316   7.999   3.999  0.4825 -0.5359 -0.9915
  257MOL0     C35334   9.407   7.976   4.090  0.3409  1.3378  0.2433
  257MOL0     C35335   9.541   7.961   4.048 -0.4581 -0.0897  0.2862
  257MOL0     O35336   9.649   7.945   4.139  1.0111 -0.0047 -0.8239
  257MOL0     C35337   9.638   7.951   4.285 -0.4431 -0.4881  0.3419
  257MOL0     C35338   9.774   7.940   4.347 -0.4032 -0.3757  0.6333
  257MOL0     C35339   9.755   7.889   4.497  0.4160  0.8355  0.4769
  257MOL0     C35340   9.895   7.894   4.562  0.3286  0.4312 -0.5086
  257MOL0     C35341   9.892   7.856   4.716  0.1616  0.2536  0.5641
  257MOL0     C35342  10.031   7.849   4.780  0.1530 -0.3033  0.1346
  257MOL0     C35343  10.034   7.787   4.927 -0.3740  0.4439  0.0813
  257MOL0     C35344  10.175   7.743   4.988  0.9125 -0.7884  0.0870
  257MOL0     N35345  10.251   7.641   4.917  0.4854 -0.0921  0.4219
  257MOL0     C35346  10.313   7.654   4.795  0.3953 -0.5059 -0.4149
  257MOL0     C35347  10.341   7.525   4.768  0.3174  0.2481 -1.3109
  257MOL0     C35348  10.405   7.480   4.642  0.1668 -0.8380  0.2843
  257MOL0     C35349  10.562   7.449   4.645 -1.1444 -0.2528 -0.7041
  257MOL0     C35350  10.601   7.365   4.517 -0.4240 -0.2990 -1.0194
  257MOL0     C35351  10.761   7.342   4.510  1.0919  0.6647  0.2205
  257MOL0     O35352  10.788   7.257   4.403 -0.5188  0.5358  0.2659
  257MOL0     C35353  10.911   7.205   4.392  0.1711 -0.6153 -0.2158
  257MOL0     C35354  10.929   7.095   4.309 -0.2022 -0.4149 -0.1105
  257MOL0     C35355  11.059   7.037   4.286  0.6177 -0.9346  0.3364
  257MOL0     C35356  11.054   6.922   4.182 -0.1211 -0.4074 -0.0442
  257MOL0     C35357  11.167   7.079   4.371  0.4577  0.3446  0.0519
  257MOL0     C35358  11.296   7.010   4.379 -0.3091  0.3810 -0.2864
  257MOL0     O35359  11.399   7.088   4.439 -0.1253  0.1335  0.3200
  257MOL0     C35360  11.512   7.034   4.482 -1.3746 -0.0866  0.5751
  257MOL0     C35361  11.521   6.910   4.542  0.1400  0.4273  0.0412
  257MOL0     C35362  11.655   6.871   4.574 -0.1492 -0.1397 -0.5148
  257MOL0     C35363  11.768   6.943   4.544 -0.4072 -0.0888  0.6022
  257MOL0     O35364  11.894   6.889   4.567  0.3251  0.1866  0.3741
  257MOL0     C35365  11.956   6.835   4.449 -0.4090  0.5113 -0.1578
  257MOL0     C35366  12.106   6.857   4.468  0.3204  0.2731 -0.7817
  257MOL0     C35367  12.196   6.816   4.344  0.9707 -0.3741 -0.0776
  257MOL0     C35368  12.195   6.919   4.233  0.8248 -0.7176  0.1301
  257MOL0     C35369  12.327   6.926   4.155  1.6923  0.5580  0.0698
  257MOL0     C35370  12.311   7.023   4.036 -0.3899 -0.7115  0.6415
  257MOL0     C35371  12.436   7.053   3.956 -0.0574  0.1090  0.1344
  257MOL0     C35372  12.405   7.146   3.843  0.3043  0.2004 -0.3636
  257MOL0    Cl35373  12.543   7.229   3.778 -0.1383 -0.0349  0.2049
  257MOL0     C35374  11.757   7.068   4.478 -0.5625  0.6860  0.1051
  257MOL0     C35375  11.623   7.110   4.446 -0.6151 -0.2858 -0.2835
  257MOL0     O35376  11.299   6.892   4.353 -0.4103 -0.0917  0.0991
  257MOL0     C35377  11.139   7.183   4.467  0.4859  0.5582 -0.7868
  257MOL0     C35378  11.019   7.243   4.473 -0.0609 -0.0912 -0.5005
  257MOL0     N35379  10.290   7.442   4.863  0.3131 -0.0222  0.2422
  257MOL0     N35380  10.241   7.514   4.957 -0.0870 -0.3570 -0.1876
  257MOL0     C35381   9.568   7.974   3.909 -0.0789 -0.1979 -0.2980
  257MOL0     C35382   9.467   7.992   3.810 -0.3784 -0.8851 -0.5694
  257MOL0     C35383   9.129   8.213   3.628 -0.8922 -0.0582  0.4047
  257MOL0     C35384   9.035   8.107   3.600 -0.2511 -0.2116  0.5851
  257MOL0     C35385   8.910   8.137   3.545  0.7167  0.0941 -0.4400
  257MOL0     C35386   8.880   8.261   3.488 -0.2805  0.0095 -0.4908
  257MOL0     O35387   8.765   8.274   3.424  0.1906  0.2731 -0.0449
  257MOL0     C35388   8.698   8.400   3.425  0.1327  0.1703 -0.3777
  257MOL0     C35389   8.556   8.393   3.365  1.0685  0.5847  0.6143
  257MOL0     C35390   8.454   8.324   3.450  0.2542  0.4571 -0.1379
  257MOL0     C35391   8.326   8.321   3.381  0.2021  0.7160  0.1334
  257MOL0     C35392   8.219   8.241   3.442  0.1860 -0.7754  0.7606
  257MOL0     C35393   8.139   8.181   3.508 -0.5811  0.5027  0.6315
  257MOL0     C35394   8.974   8.363   3.513  0.2456 -0.7660  0.1275
  257MOL0     C35395   9.094   8.341   3.581 -1.0156 -0.8889 -0.6807
  257MOL0     C35396   9.183   8.452   3.620  0.1044  0.7896 -0.2288
  257MOL0     H35397   9.219   8.031   4.037  2.3218  3.6344  0.9124
  257MOL0     H35398   9.376   7.979   4.194 -1.7391  2.2212 -0.3663
  257MOL0     H35399   9.577   7.862   4.304  0.5556 -1.7681 -1.9823
  257MOL0     H35400   9.591   8.035   4.336 -2.5165 -0.5000 -1.4045
  257MOL0     H35401   9.843   7.875   4.294  2.1544  1.2152  1.7804
  257MOL0     H35402   9.820   8.039   4.345 -0.7431 -0.2179  0.4859
  257MOL0     H35403   9.684   7.950   4.554 -2.9404 -0.6953 -1.7627
  257MOL0     H35404   9.709   7.791   4.482 -0.8538  1.4310  0.3220
  257MOL0     H35405   9.959   7.826   4.504 -2.0147 -3.5605  1.1420
  257MOL0     H35406   9.924   7.999   4.553  1.7837 -0.0581 -1.9023
  257MOL0     H35407   9.844   7.758   4.724  0.8130 -0.3535 -2.0191
  257MOL0     H35408   9.828   7.923   4.773 -0.2629 -0.7511  1.3102
  257MOL0     H35409  10.100   7.800   4.711 -1.7161  1.2566 -3.0266
  257MOL0     H35410  10.075   7.949   4.780  3.6556 -1.6840 -0.1335
  257MOL0     H35411   9.951   7.716   4.934  0.1257 -0.2109 -0.3845
  257MOL0     H35412  10.001   7.876   4.981 -0.6543  1.1116 -1.1524
  257MOL0     H35413  10.228   7.838   4.990 -0.4438 -0.0015 -0.0149
  257MOL0     H35414  10.159   7.699   5.087 -1.6713 -2.4892 -0.9746
  257MOL0     H35415  10.334   7.737   4.728  0.7993  2.5868  3.2010
  257MOL0     H35416  10.376   7.555   4.567  0.2765  0.0466  1.1016
  257MOL0     H35417  10.349   7.392   4.612 -0.6972 -0.5924  1.1372
  257MOL0     H35418  10.612   7.546   4.650 -3.1442  0.9137 -2.0127
  257MOL0     H35419  10.581   7.378   4.726 -0.2703 -0.1944 -0.8489
  257MOL0     H35420  10.555   7.266   4.523  0.2729 -0.5603  0.3694
  257MOL0     H35421  10.568   7.427   4.433  0.2453  1.4361 -0.0320
  257MOL0     H35422  10.809   7.438   4.488  1.3636 -0.0514 -2.6392
  257MOL0     H35423  10.800   7.314   4.608 -1.7965  0.7100  1.4665
  257MOL0     H35424  10.841   7.057   4.259  2.1795 -3.0960 -2.6306
  257MOL0     H35425  10.952   6.882   4.181 -0.5452  0.6200 -0.3913
  257MOL0     H35426  11.116   6.836   4.207 -2.8406 -2.4989 -0.0927
  257MOL0     H35427  11.064   6.958   4.079  1.2091  1.7396  0.7684
  257MOL0     H35428  11.435   6.848   4.567  0.3467  1.0435  2.5220
  257MOL0     H35429  11.674   6.781   4.631 -1.4556  0.0354  0.2462
  257MOL0     H35430  11.943   6.726   4.443 -0.1722  0.4846 -0.1921
  257MOL0     H35431  11.909   6.878   4.360 -0.7753 -0.8410 -0.6424
  257MOL0     H35432  12.114   6.958   4.509 -0.0298 -0.0781  0.1832
  257MOL0     H35433  12.141   6.791   4.548  0.1618 -2.7787 -3.0628
  257MOL0     H35434  12.168   6.715   4.313  0.0276  0.0801 -0.7835
  257MOL0     H35435  12.296   6.806   4.385  0.6161 -2.0255  0.4640
  257MOL0     H35436  12.187   7.019   4.277 -0.2034 -0.9828  0.5791
  257MOL0     H35437  12.115   6.919   4.159 -0.3472  1.0521  1.2959
  257MOL0     H35438  12.414   6.945   4.219 -0.0647 -0.8327  3.0973
  257MOL0     H35439  12.349   6.828   4.111  0.8023 -0.5029  1.8612
  257MOL0     H35440  12.280   7.121   4.075  0.0038 -0.3348  0.0297
  257MOL0     H35441  12.225   7.000   3.972 -3.4190  0.7131  3.8845
  257MOL0     H35442  12.471   6.960   3.911 -0.9579  0.5612 -1.5946
  257MOL0     H35443  12.515   7.101   4.015  2.0939 -0.6323 -2.0130
  257MOL0     H35444  12.344   7.219   3.898  0.6595 -0.0680  0.3983
  257MOL0     H35445  12.345   7.100   3.764  0.8271  1.2465 -1.4018
  257MOL0     H35446  11.844   7.121   4.439  0.1544 -1.8324 -2.0320
  257MOL0     H35447  11.606   7.198   4.384 -0.7395  0.7157  1.1332
  257MOL0     H35448  11.212   7.207   4.543 -0.2382 -3.2905  1.3685
  257MOL0     H35449  11.018   7.314   4.555 -1.6435 -2.6118  1.8536
  257MOL0     H35450   9.669   7.963   3.872  0.0761 -2.2361  0.6057
  257MOL0     H35451   9.482   8.000   3.703 -1.3209 -0.9386 -0.7123
  257MOL0     H35452   9.054   8.003   3.624  2.5185 -0.0440 -0.5815
  257MOL0     H35453   8.841   8.060   3.515  0.1087  0.7735 -0.8124
  257MOL0     H35454   8.690   8.442   3.525  1.5711 -2.2146  0.8173
  257MOL0     H35455   8.755   8.471   3.366 -0.5432 -0.8312 -2.3521
  257MOL0     H35456   8.561   8.333   3.273  3.4028  2.6380 -0.7541
  257MOL0     H35457   8.524   8.497   3.349 -0.9204 -0.1844 -0.8074
  257MOL0     H35458   8.487   8.221   3.467  1.5910  0.9906  0.6344
  257MOL0     H35459   8.448   8.358   3.553  0.4104 -1.6459  0.6213
  257MOL0     H35460   8.343   8.281   3.281 -0.6493 -1.3026  0.7403
  257MOL0     H35461   8.278   8.420   3.379 -0.3537  0.5164 -3.6981
  257MOL0     H35462   8.070   8.118   3.560  0.6585 -1.0654  0.4380
  257MOL0     H35463   8.947   8.461   3.474  4.2340 -0.1814 -1.7051
  257MOL0     H35464   9.145   8.546   3.578 -0.7684  0.4406 -0.2285
  257MOL0     H35465   9.190   8.451   3.730  1.7385  1.8677 -0.2756
  257MOL0     H35466   9.278   8.443   3.567  0.4450  3.6763 -0.2977
  258MOL0     O35467   2.583   1.802  11.040  0.1227 -0.1729 -0.4516
  258MOL0     C35468   2.601   1.719  10.952  0.4450 -0.2475  0.4574
  258MOL0     O35469   2.533   1.597  10.947 -0.0507 -0.4914 -0.0438
  258MOL0     C35470   2.430   1.598  11.035  0.1160 -0.6622  0.0832
  258MOL0     C35471   2.427   1.517  11.149  0.9480 -0.4605 -0.2734
  258MOL0     C35472   2.319   1.492  11.238  0.8064  0.1228 -0.4000
  258MOL0     C35473   2.202   1.569  11.205  0.3815 -0.4233  0.4280
  258MOL0     O35474   2.090   1.558  11.283 -0.2998  0.1665 -0.2476
  258MOL0     C35475   2.020   1.681  11.325 -0.6726 -0.5047 -0.5143
  258MOL0     C35476   2.119   1.774  11.399 -0.5611 -0.4532 -0.4149
  258MOL0     C35477   2.039   1.873  11.488  0.1839 -0.3901  0.2466
  258MOL0     C35478   2.119   1.998  11.541 -0.5150 -0.1001 -0.3173
  258MOL0     C35479   2.041   2.084  11.640 -0.4458 -0.7756 -0.3912
  258MOL0     C35480   1.926   2.166  11.565 -0.3849  0.7467  0.3546
  258MOL0     C35481   1.883   2.286  11.654  0.7945  0.8436  0.3005
  258MOL0     C35482   1.784   2.385  11.581  0.4606 -0.1643 -0.3842
  258MOL0     N35483   1.745   2.497  11.666 -0.0593 -0.0852 -0.5597
  258MOL0     C35484   1.832   2.575  11.748 -0.5569 -0.7374 -0.1129
  258MOL0     C35485   1.749   2.657  11.814  0.6481 -0.4243  0.2846
  258MOL0     C35486   1.793   2.761  11.918 -0.9180  0.3903  0.6661
  258MOL0     C35487   1.684   2.849  11.963 -0.6211  0.2530 -0.9879
  258MOL0     C35488   1.717   2.913  12.098  0.5941  1.0168  0.2037
  258MOL0     C35489   1.689   2.818  12.216 -0.2205  0.5337 -0.1340
  258MOL0     O35490   1.625   2.883  12.325 -0.1537  0.4154  0.0366
  258MOL0     C35491   1.487   2.895  12.319  0.3467  0.2569  0.0389
  258MOL0     C35492   1.403   2.900  12.210 -0.5705  0.7017  0.4030
  258MOL0     C35493   1.265   2.902  12.220  0.2375  0.0879 -0.4898
  258MOL0     C35494   1.188   2.888  12.089  0.6336 -0.1265  0.7854
  258MOL0     C35495   1.206   2.909  12.351  0.0857 -0.1276  0.1188
  258MOL0     C35496   1.063   2.913  12.371  0.2473  0.0763  0.6326
  258MOL0     O35497   1.018   2.990  12.471  0.2766 -0.6847 -1.0008
  258MOL0     C35498   0.889   3.001  12.499 -0.6368  0.2209 -0.7324
  258MOL0     C35499   0.819   3.117  12.467 -0.0944 -0.0465 -0.2561
  258MOL0     C35500   0.675   3.107  12.469 -0.2455 -0.2722 -0.5542
  258MOL0     C35501   0.606   2.999  12.520  0.1286 -0.1453 -0.5944
  258MOL0     O35502   0.471   2.998  12.526 -0.8502  0.2920  0.0146
  258MOL0     C35503   0.406   2.973  12.652  0.1924  0.3941  0.3575
  258MOL0     C35504   0.244   2.963  12.644  0.1418  0.3611 -0.2176
  258MOL0     C35505   0.181   3.098  12.646 -0.0317  0.3043 -1.0667
  258MOL0     C35506   0.029   3.086  12.634 -0.0787 -0.5169 -0.0552
  258MOL0     C35507  -0.042   3.210  12.705 -0.7379 -0.1130  0.6556
  258MOL0     C35508  -0.186   3.202  12.659  0.8381 -0.0134 -0.3032
  258MOL0     C35509  -0.247   3.334  12.719 -0.4377  0.5724  0.9407
  258MOL0     C35510  -0.390   3.345  12.681 -0.3734 -0.3008 -0.0046
  258MOL0    Cl35511  -0.462   3.511  12.726  0.4027 -0.2111 -0.2848
  258MOL0     C35512   0.678   2.885  12.565 -0.1958 -0.0223 -0.9885
  258MOL0     C35513   0.819   2.884  12.549 -0.0247 -0.6540 -0.3798
  258MOL0     O35514   0.996   2.841  12.304  0.2752  0.0194  0.2559
  258MOL0     C35515   1.291   2.911  12.464  0.8951 -0.1751 -0.0181
  258MOL0     C35516   1.426   2.896  12.445 -0.6150  0.1264 -0.3123
  258MOL0     N35517   1.619   2.628  11.772 -0.8503  0.4044  0.9627
  258MOL0     N35518   1.620   2.541  11.675 -0.3084 -0.4570  0.4276
  258MOL0     C35519   2.197   1.653  11.087 -0.5763 -0.5887 -1.3763
  258MOL0     C35520   2.308   1.663  11.011 -0.4562  0.3149 -0.3896
  258MOL0     C35521   2.691   1.747  10.833  0.5505  0.1231 -0.5804
  258MOL0     C35522   2.674   1.682  10.705 -1.9803 -0.1071 -0.5412
  258MOL0     C35523   2.753   1.711  10.593 -0.4071  0.9607  0.2079
  258MOL0     C35524   2.849   1.804  10.594  0.1394 -0.6066  0.2402
  258MOL0     O35525   2.915   1.835  10.466  0.6278 -0.4070 -0.2209
  258MOL0     C35526   3.037   1.918  10.472  0.7225 -0.3604 -1.4651
  258MOL0     C35527   3.091   1.930  10.333  0.1633 -0.8945  0.0233
  258MOL0     C35528   2.993   1.992  10.229 -0.6195 -0.2050 -0.6037
  258MOL0     C35529   2.941   2.127  10.267 -0.4499  0.0652 -0.3145
  258MOL0     C35530   2.885   2.204  10.152 -0.8529  0.1789 -0.3293
  258MOL0     C35531   2.831   2.268  10.066  0.7163  0.5576  0.0526
  258MOL0     C35532   2.871   1.875  10.716  0.4393  0.4716 -0.6368
  258MOL0     C35533   2.799   1.837  10.835  0.1488 -0.4656  0.1408
  258MOL0     C35534   2.851   1.906  10.957 -0.1881 -0.1961  0.3200
  258MOL0     H35535   2.516   1.464  11.183  1.3065  0.7777  0.7923
  258MOL0     H35536   2.311   1.418  11.316 -2.6378 -0.3960 -1.0608
  258MOL0     H35537   1.933   1.663  11.389  0.4611 -2.0701  0.6623
  258MOL0     H35538   1.967   1.730  11.243 -0.8204  1.8202  0.8666
  258MOL0     H35539   2.171   1.708  11.469 -1.6518  0.9418  1.8689
  258MOL0     H35540   2.189   1.829  11.335 -1.0614 -3.2090 -3.5677
  258MOL0     H35541   1.954   1.902  11.426  0.7305  1.0516  0.1290
  258MOL0     H35542   1.990   1.818  11.569  0.9200 -1.9304 -0.3012
  258MOL0     H35543   2.209   1.960  11.590  0.2311  0.5027 -1.1819
  258MOL0     H35544   2.153   2.052  11.452  2.4601  0.4860  1.0583
  258MOL0     H35545   2.107   2.150  11.697 -0.9881 -2.5882  2.5833
  258MOL0     H35546   1.999   2.023  11.721 -1.5774  1.3394  0.6858
  258MOL0     H35547   1.949   2.206  11.466 -3.1352  0.9703 -0.2820
  258MOL0     H35548   1.846   2.091  11.556 -0.0427  0.3060  0.9217
  258MOL0     H35549   1.973   2.340  11.686  2.6763 -0.9758 -1.5424
  258MOL0     H35550   1.830   2.250  11.742 -2.4938  1.7974 -1.1273
  258MOL0     H35551   1.827   2.425  11.489  0.8508 -0.1178 -0.1817
  258MOL0     H35552   1.697   2.329  11.545  0.1494 -1.4555  2.1643
  258MOL0     H35553   1.939   2.562  11.765 -0.7105 -0.4315  1.1912
  258MOL0     H35554   1.884   2.810  11.883 -1.2912  0.9881  0.5264
  258MOL0     H35555   1.821   2.703  12.006  2.8367 -3.0794 -2.4357
  258MOL0     H35556   1.671   2.927  11.887 -1.5006 -0.2282 -1.3485
  258MOL0     H35557   1.592   2.790  11.966  1.8068 -3.9389  0.3009
  258MOL0     H35558   1.818   2.954  12.110  0.9900  0.8255 -2.0120
  258MOL0     H35559   1.653   3.001  12.109 -0.2200  0.8376 -2.4914
  258MOL0     H35560   1.626   2.736  12.179 -1.7409  2.2117 -1.4492
  258MOL0     H35561   1.781   2.769  12.249 -1.7041 -1.1879  1.6643
  258MOL0     H35562   1.440   2.894  12.108 -0.0481  2.1987  0.4732
  258MOL0     H35563   1.143   2.789  12.083  0.8346 -0.1783  0.0630
  258MOL0     H35564   1.236   2.908  11.993 -2.2619  3.2217 -0.2105
  258MOL0     H35565   1.109   2.964  12.095  1.9903  1.4265 -0.1876
  258MOL0     H35566   0.879   3.203  12.438  2.1753 -1.2130  0.7111
  258MOL0     H35567   0.619   3.192  12.431 -0.5357 -0.9900 -1.7757
  258MOL0     H35568   0.433   2.874  12.692 -2.4947 -0.4283  0.3155
  258MOL0     H35569   0.435   3.043  12.731 -1.3931  0.4076  0.9566
  258MOL0     H35570   0.213   2.897  12.563 -2.2821  1.5888 -0.3795
  258MOL0     H35571   0.209   2.907  12.731  0.4602  2.5845  1.4588
  258MOL0     H35572   0.221   3.153  12.560  1.0957 -1.4471 -1.7237
  258MOL0     H35573   0.215   3.155  12.733 -1.0901  1.8663 -1.6253
  258MOL0     H35574  -0.011   3.001  12.689 -0.5292  1.2720  2.5860
  258MOL0     H35575   0.005   3.082  12.527  1.4028  2.7920 -0.6560
  258MOL0     H35576  -0.029   3.209  12.814 -0.2760  1.9604  0.6557
  258MOL0     H35577  -0.004   3.309  12.682 -1.5101  0.1158  0.3009
  258MOL0     H35578  -0.241   3.121  12.708  0.8997 -0.9399 -1.7314
  258MOL0     H35579  -0.195   3.204  12.550 -1.5579 -1.5643 -0.2152
  258MOL0     H35580  -0.188   3.417  12.681  0.5704 -1.6542 -2.9591
  258MOL0     H35581  -0.238   3.328  12.828  0.8711 -0.6821  0.7960
  258MOL0     H35582  -0.444   3.264  12.731  0.3246 -0.4251  0.5583
  258MOL0     H35583  -0.395   3.327  12.574  2.0254 -0.8957 -0.0835
  258MOL0     H35584   0.631   2.796  12.605 -0.6377  0.6401 -0.0147
  258MOL0     H35585   0.878   2.798  12.578 -0.7646 -0.3515  2.3336
  258MOL0     H35586   1.248   2.921  12.563  1.9399  2.5896  0.2643
  258MOL0     H35587   1.490   2.869  12.528  0.0122  0.0456 -0.8171
  258MOL0     H35588   2.106   1.707  11.065 -1.6649 -0.5203  2.5777
  258MOL0     H35589   2.298   1.724  10.922  0.4239 -1.8724 -2.0763
  258MOL0     H35590   2.585   1.621  10.693 -0.8326 -1.6399 -1.7708
  258MOL0     H35591   2.721   1.667  10.499  1.7864  1.0116 -0.6048
  258MOL0     H35592   3.013   2.012  10.521 -0.4033 -1.0474 -0.6494
  258MOL0     H35593   3.121   1.878  10.531 -1.2607  0.1254  1.9429
  258MOL0     H35594   3.115   1.827  10.303 -4.1874 -1.6846 -1.4888
  258MOL0     H35595   3.184   1.986  10.338 -1.7528  2.6254 -0.3411
  258MOL0     H35596   3.054   2.007  10.140  0.9286 -0.9389  0.2839
  258MOL0     H35597   2.911   1.920  10.221 -1.2506  0.2613  1.1210
  258MOL0     H35598   3.012   2.193  10.318 -2.2954 -0.4774  3.2890
  258MOL0     H35599   2.863   2.104  10.340 -2.2837  0.9473 -1.9374
  258MOL0     H35600   2.798   2.320   9.978  0.3545  0.5709  0.1936
  258MOL0     H35601   2.946   1.953  10.720 -2.2537  3.2559 -0.4438
  258MOL0     H35602   2.781   1.982  10.992  0.0070 -0.4640  1.3110
  258MOL0     H35603   2.865   1.826  11.030  5.7266  0.1477  0.0231
  258MOL0     H35604   2.948   1.953  10.938 -0.9572  0.2297 -3.2398
  259MOL0     O35605   4.078   9.430   2.270  0.4406 -0.9663  0.3002
  259MOL0     C35606   3.972   9.449   2.319  0.4240  0.2225 -0.3074
  259MOL0     O35607   3.937   9.404   2.442  0.4604 -0.4790  0.4877
  259MOL0     C35608   4.019   9.319   2.524  0.3124  0.0564 -0.9337
  259MOL0     C35609   3.960   9.301   2.654 -0.6393 -0.2425  0.5233
  259MOL0     C35610   4.012   9.213   2.745 -0.9532  0.0451  0.2120
  259MOL0     C35611   4.129   9.141   2.710  0.1965  0.3128 -0.0950
  259MOL0     O35612   4.196   9.057   2.790 -0.3722  0.9193 -0.3495
  259MOL0     C35613   4.204   9.074   2.930  0.7118 -0.3138  0.0381
  259MOL0     C35614   4.335   9.049   2.989 -0.3188  0.1393 -0.6722
  259MOL0     C35615   4.443   9.151   2.941 -0.5575  0.5844 -0.2506
  259MOL0     C35616   4.566   9.138   3.024 -0.1656 -0.6270  0.2486
  259MOL0     C35617   4.655   9.266   3.018 -0.0639 -0.2807 -0.1986
  259MOL0     C35618   4.791   9.226   3.073  1.0448  0.3556  0.0272
  259MOL0     C35619   4.880   9.347   3.089  0.0785 -0.6553  0.9004
  259MOL0     C35620   4.910   9.425   2.960 -0.4077 -0.4553 -0.4668
  259MOL0     N35621   5.005   9.536   3.004 -0.1452 -0.5463 -0.8075
  259MOL0     C35622   5.136   9.523   3.003 -0.4168  0.0103 -1.2417
  259MOL0     C35623   5.178   9.642   3.047 -0.3373 -1.2286  0.6169
  259MOL0     C35624   5.319   9.688   3.057 -0.2826  0.5501 -0.6122
  259MOL0     C35625   5.370   9.683   3.205 -0.2364  0.9875  0.6927
  259MOL0     C35626   5.328   9.806   3.276  0.8445 -0.0706 -0.5679
  259MOL0     C35627   5.362   9.809   3.426 -0.2507  0.0933  0.8592
  259MOL0     O35628   5.497   9.820   3.433 -0.0530 -0.1026 -0.3349
  259MOL0     C35629   5.556   9.813   3.560  0.1661 -0.5997 -0.2928
  259MOL0     C35630   5.495   9.813   3.683  0.8081 -0.4011  0.1392
  259MOL0     C35631   5.567   9.813   3.809  0.2875 -1.0226  0.1757
  259MOL0     C35632   5.486   9.817   3.939  0.8829 -0.4560 -0.0365
  259MOL0     C35633   5.708   9.795   3.806 -0.8050  0.3613 -0.8646
  259MOL0     C35634   5.791   9.780   3.933 -0.4668  0.0583  0.6422
  259MOL0     O35635   5.929   9.797   3.911 -0.4338 -0.4123  0.2867
  259MOL0     C35636   6.019   9.796   4.011 -0.0556  0.4883  0.0087
  259MOL0     C35637   5.998   9.739   4.133 -0.5851  0.3816 -0.0394
  259MOL0     C35638   6.095   9.765   4.234  0.7283  0.0244 -0.2231
  259MOL0     C35639   6.207   9.849   4.222  0.0842  0.0106  0.8436
  259MOL0     O35640   6.295   9.890   4.317 -0.1112  0.4154 -0.5564
  259MOL0     C35641   6.309   9.796   4.430  0.4288  0.0995 -0.6088
  259MOL0     C35642   6.404   9.861   4.535 -0.0534  0.6019  0.1595
  259MOL0     C35643   6.367   9.811   4.679  0.0230 -0.3361  0.4164
  259MOL0     C35644   6.295   9.922   4.762 -0.4929  0.5072  0.5529
  259MOL0     C35645   6.301   9.890   4.911 -0.7775 -0.4219 -0.1657
  259MOL0     C35646   6.209   9.779   4.950 -0.1872  0.1718  0.1043
  259MOL0     C35647   6.162   9.799   5.097  0.1746  0.1901 -0.3121
  259MOL0     C35648   6.089   9.672   5.125  0.6316  0.6658 -0.0686
  259MOL0    Cl35649   6.001   9.705   5.276  0.1758 -0.1521 -0.1327
  259MOL0     C35650   6.230   9.894   4.093 -0.6215  0.3910 -0.0087
  259MOL0     C35651   6.131   9.875   3.985  0.2144  0.0210 -0.7243
  259MOL0     O35652   5.732   9.754   4.034  0.0725  0.7794  0.0015
  259MOL0     C35653   5.771   9.793   3.681 -0.7049 -0.0391 -0.0185
  259MOL0     C35654   5.692   9.800   3.560  0.0006  0.2034 -0.5222
  259MOL0     N35655   5.061   9.726   3.077  0.0937  0.4927  0.1815
  259MOL0     N35656   4.956   9.654   3.053 -0.5563 -0.0117 -0.3804
  259MOL0     C35657   4.194   9.172   2.597  0.2998 -0.4302  0.5735
  259MOL0     C35658   4.132   9.248   2.497 -0.7417  0.2219  0.4506
  259MOL0     C35659   3.858   9.516   2.239  0.3927  0.5647 -0.1537
  259MOL0     C35660   3.726   9.465   2.242 -0.5600  0.7347  0.3541
  259MOL0     C35661   3.613   9.526   2.195 -0.1738 -0.6508 -0.0582
  259MOL0     C35662   3.632   9.650   2.129 -0.2929 -0.3012 -1.3595
  259MOL0     O35663   3.522   9.722   2.092  0.2721 -0.2088  0.4922
  259MOL0     C35664   3.516   9.779   1.960 -0.1198 -0.2464  0.4086
  259MOL0     C35665   3.477   9.672   1.857 -0.9429  0.6208  0.3221
  259MOL0     C35666   3.487   9.723   1.714 -0.4755 -0.5179 -0.7418
  259MOL0     C35667   3.485   9.613   1.609 -0.1065 -0.0408 -0.0030
  259MOL0     C35668   3.356   9.549   1.582 -0.3000 -0.2345  0.4926
  259MOL0     C35669   3.239   9.520   1.546  0.7711  0.9349  0.3484
  259MOL0     C35670   3.762   9.704   2.115  0.4776  0.7459 -0.6539
  259MOL0     C35671   3.873   9.639   2.169  0.5087 -0.3313 -0.5353
  259MOL0     C35672   4.010   9.705   2.153  0.6859 -0.6510  0.1270
  259MOL0     H35673   3.868   9.354   2.676  0.3556  0.4927  3.2005
  259MOL0     H35674   3.969   9.195   2.843 -0.4873 -0.6105  0.3051
  259MOL0     H35675   4.135   9.003   2.978  1.0320 -0.7683 -0.1623
  259MOL0     H35676   4.175   9.177   2.951  0.3577 -0.5373  0.6758
  259MOL0     H35677   4.325   9.055   3.098  1.3646  1.4379 -0.5517
  259MOL0     H35678   4.353   8.944   2.961  0.5345  0.3536 -0.9398
  259MOL0     H35679   4.472   9.138   2.836 -1.4917  1.6350 -0.6670
  259MOL0     H35680   4.402   9.250   2.962 -0.4268  0.3733  1.0837
  259MOL0     H35681   4.543   9.125   3.130 -0.4192 -0.5576  0.2013
  259MOL0     H35682   4.610   9.044   2.988 -2.0946 -0.7707 -1.9497
  259MOL0     H35683   4.617   9.357   3.066 -1.8226 -0.4494 -1.1916
  259MOL0     H35684   4.651   9.306   2.916  1.3198  1.7595  0.4662
  259MOL0     H35685   4.785   9.176   3.170 -1.0247  2.6399  1.1738
  259MOL0     H35686   4.830   9.158   2.996 -1.4017  0.7796 -1.7027
  259MOL0     H35687   4.969   9.309   3.141 -0.3877 -0.9733  1.4729
  259MOL0     H35688   4.826   9.420   3.150 -1.4964 -1.2794  0.2940
  259MOL0     H35689   4.951   9.365   2.879 -0.5700 -0.2150 -0.7276
  259MOL0     H35690   4.818   9.466   2.919 -0.4790  0.3925  0.4794
  259MOL0     H35691   5.190   9.441   2.955 -1.7827 -1.5026 -0.2864
  259MOL0     H35692   5.326   9.792   3.022 -1.7799  1.4903  1.6183
  259MOL0     H35693   5.375   9.624   2.988 -0.0640  1.4790 -1.3222
  259MOL0     H35694   5.335   9.592   3.255  0.0479  0.2212 -0.4856
  259MOL0     H35695   5.479   9.680   3.206 -0.2104  1.7441  1.0108
  259MOL0     H35696   5.368   9.895   3.226  0.5888 -0.1970 -1.0058
  259MOL0     H35697   5.219   9.813   3.265  1.0691  1.0466 -2.6952
  259MOL0     H35698   5.306   9.883   3.483 -1.5760 -2.3292  2.8919
  259MOL0     H35699   5.332   9.714   3.470 -0.2653 -1.3417 -2.0019
  259MOL0     H35700   5.387   9.811   3.689  0.9050 -1.6208  3.0747
  259MOL0     H35701   5.404   9.888   3.927  1.9068  0.4481 -2.1987
  259MOL0     H35702   5.538   9.859   4.026  2.7201 -0.9883 -0.8333
  259MOL0     H35703   5.448   9.715   3.954 -2.4590  0.1265 -3.1612
  259MOL0     H35704   5.902   9.691   4.150  0.4211 -1.4011  0.8420
  259MOL0     H35705   6.071   9.717   4.328 -3.1251  5.0791  1.8821
  259MOL0     H35706   6.206   9.781   4.462 -0.3523  1.4787 -2.3161
  259MOL0     H35707   6.352   9.697   4.410  2.3117  0.5498  0.9564
  259MOL0     H35708   6.506   9.830   4.510  0.4446  1.0268  1.5952
  259MOL0     H35709   6.393   9.969   4.527 -0.7044  0.5859  0.7844
  259MOL0     H35710   6.462   9.781   4.724 -0.2216 -0.0607  1.1225
  259MOL0     H35711   6.302   9.724   4.667  0.1737 -0.2979 -0.7866
  259MOL0     H35712   6.194   9.950   4.732  0.2063  2.5853 -0.0150
  259MOL0     H35713   6.348  10.018   4.753  0.6409 -0.1086  0.4120
  259MOL0     H35714   6.405   9.870   4.937 -0.6267 -1.9357 -1.7763
  259MOL0     H35715   6.269   9.981   4.964 -0.8098 -0.5870  0.1019
  259MOL0     H35716   6.254   9.680   4.937  0.1095  0.2816  0.3120
  259MOL0     H35717   6.113   9.790   4.899 -0.2988  0.0867  0.2932
  259MOL0     H35718   6.097   9.886   5.100 -0.7952 -0.3247 -3.2221
  259MOL0     H35719   6.254   9.806   5.156 -1.4180 -1.9599  2.6359
  259MOL0     H35720   6.164   9.593   5.128 -0.7244 -0.6457  1.6872
  259MOL0     H35721   6.016   9.647   5.047 -1.9958  1.8151  1.8539
  259MOL0     H35722   6.319   9.952   4.073  1.0502 -1.4480  1.6846
  259MOL0     H35723   6.164   9.910   3.888  1.7838  1.3659  0.2451
  259MOL0     H35724   5.878   9.780   3.691 -0.5198  1.3497  0.0091
  259MOL0     H35725   5.741   9.785   3.465  3.2037 -1.3905  1.2225
  259MOL0     H35726   4.294   9.133   2.589 -0.2723 -1.7667 -0.3709
  259MOL0     H35727   4.188   9.263   2.405  0.3047 -2.1175  0.6432
  259MOL0     H35728   3.715   9.360   2.266  0.8887  0.0375 -1.7850
  259MOL0     H35729   3.515   9.480   2.207 -0.4110  0.4755  3.5256
  259MOL0     H35730   3.437   9.855   1.956  1.8587  1.8655 -1.3389
  259MOL0     H35731   3.611   9.816   1.920 -0.2478 -0.4972 -0.1424
  259MOL0     H35732   3.374   9.639   1.871 -0.4340 -1.5644 -0.7030
  259MOL0     H35733   3.549   9.590   1.869 -1.0756 -0.0398 -2.6671
  259MOL0     H35734   3.409   9.799   1.705  2.0619  3.0139  3.1424
  259MOL0     H35735   3.579   9.780   1.698 -0.0166 -0.9201  0.3122
  259MOL0     H35736   3.547   9.532   1.647 -0.8941 -0.1826  1.0317
  259MOL0     H35737   3.533   9.646   1.517  3.3801 -3.2185  0.4760
  259MOL0     H35738   3.140   9.506   1.508  0.4079  3.5273  0.1545
  259MOL0     H35739   3.784   9.798   2.066 -1.3075  0.8886 -1.2403
  259MOL0     H35740   4.009   9.811   2.126 -0.9319 -0.6266  0.1742
  259MOL0     H35741   4.067   9.714   2.247 -2.0056 -2.6783  2.1214
  259MOL0     H35742   4.071   9.641   2.089  0.3106  1.5617 -2.6223
  260MOL0     O35743   3.957  11.135   8.131  0.9668  0.0316  0.3969
  260MOL0     C35744   4.047  11.165   8.045 -0.1900  0.4537  0.8044
  260MOL0     O35745   4.166  11.103   8.031  0.4067 -0.0954  0.1527
  260MOL0     C35746   4.193  10.995   8.111 -0.8106  0.4883  0.1809
  260MOL0     C35747   4.281  11.019   8.219  0.3816  0.2365  0.7715
  260MOL0     C35748   4.322  10.922   8.304 -0.9219 -0.0946  1.0708
  260MOL0     C35749   4.287  10.784   8.277  0.0170  0.6585  0.9647
  260MOL0     O35750   4.339  10.671   8.347  0.0022 -0.3383 -0.1361
  260MOL0     C35751   4.247  10.559   8.364 -0.1644 -0.2961  0.4742
  260MOL0     C35752   4.288  10.465   8.471 -0.1494  0.2208 -0.8421
  260MOL0     C35753   4.401  10.374   8.424 -0.3517 -1.1478 -0.7049
  260MOL0     C35754   4.498  10.348   8.542  0.6231  0.2221 -0.4115
  260MOL0     C35755   4.615  10.258   8.519 -0.1283  0.1729 -0.3579
  260MOL0     C35756   4.564  10.116   8.476  0.4526  0.0931 -0.1113
  260MOL0     C35757   4.661  10.008   8.497 -0.6294 -0.0119  0.4833
  260MOL0     C35758   4.645   9.891   8.400  0.2199 -0.5135  0.2248
  260MOL0     N35759   4.756   9.804   8.407  1.4623 -0.3365 -0.5430
  260MOL0     C35760   4.756   9.682   8.480 -0.3792  0.2949 -0.9341
  260MOL0     C35761   4.875   9.632   8.440 -0.2077  0.2341 -0.4502
  260MOL0     C35762   4.921   9.497   8.489  0.8412  0.6012 -0.6694
  260MOL0     C35763   5.059   9.461   8.424 -0.0427  0.0104  0.2324
  260MOL0     C35764   5.087   9.316   8.423  0.1412  0.4363 -0.2602
  260MOL0     C35765   5.221   9.279   8.370 -0.4185  0.5714 -0.0924
  260MOL0     O35766   5.307   9.311   8.474 -0.1417  0.3322 -0.3375
  260MOL0     C35767   5.441   9.295   8.459 -0.1341  0.2798  0.4499
  260MOL0     C35768   5.505   9.210   8.369  0.3961 -1.6519  0.1795
  260MOL0     C35769   5.639   9.230   8.340 -0.2336  0.2228  0.5308
  260MOL0     C35770   5.700   9.142   8.241  0.4272 -0.3218  0.2762
  260MOL0     C35771   5.715   9.337   8.402  0.3782  0.2764 -0.2209
  260MOL0     C35772   5.861   9.357   8.389  0.1702 -0.1729  0.1038
  260MOL0     O35773   5.916   9.468   8.449 -0.0798  0.9888  0.2831
  260MOL0     C35774   6.056   9.484   8.456  0.5635 -0.0472 -0.0078
  260MOL0     C35775   6.162   9.386   8.444  0.3035 -0.4334 -0.8039
  260MOL0     C35776   6.290   9.427   8.465 -0.5692  0.6703 -0.4321
  260MOL0     C35777   6.324   9.563   8.482  0.1262  0.2110 -0.9293
  260MOL0     O35778   6.455   9.601   8.494  0.2282 -0.4950 -0.0824
  260MOL0     C35779   6.500   9.664   8.612 -0.3278 -0.9088 -0.2192
  260MOL0     C35780   6.656   9.680   8.602 -0.3637 -0.1497  0.0295
  260MOL0     C35781   6.710   9.782   8.496  0.2723  0.2761 -0.5838
  260MOL0     C35782   6.857   9.819   8.537 -0.7435 -0.6405  0.2849
  260MOL0     C35783   6.909   9.894   8.414 -0.3337 -1.0285 -0.1507
  260MOL0     C35784   7.040   9.970   8.453  0.4813 -0.4013 -0.3055
  260MOL0     C35785   7.085  10.038   8.322  0.4685 -0.2975 -0.1907
  260MOL0     C35786   7.199  10.137   8.344  0.1679  0.4175 -0.4911
  260MOL0    Cl35787   7.258  10.216   8.196  0.1230  0.0439  0.3785
  260MOL0     C35788   6.221   9.656   8.490 -1.1157 -0.1316  0.0812
  260MOL0     C35789   6.084   9.617   8.484 -0.8311 -0.4333 -0.1121
  260MOL0     O35790   5.927   9.276   8.322 -0.4570  0.8867  0.1551
  260MOL0     C35791   5.654   9.406   8.506 -0.7818 -0.2176  0.2265
  260MOL0     C35792   5.522   9.390   8.528  0.4535  0.5981 -0.0331
  260MOL0     N35793   4.946   9.717   8.359 -0.0848  0.3486  0.4713
  260MOL0     N35794   4.876   9.825   8.351  0.0132 -0.2660 -0.4519
  260MOL0     C35795   4.196  10.765   8.172  0.1403  0.2699  0.1771
  260MOL0     C35796   4.151  10.864   8.088 -0.2717 -0.8786  0.8064
  260MOL0     C35797   4.000  11.251   7.938 -0.0248  0.4380 -0.0763
  260MOL0     C35798   3.874  11.217   7.887  0.2217 -0.5325 -0.2869
  260MOL0     C35799   3.826  11.294   7.777 -1.2305  0.5282  0.0520
  260MOL0     C35800   3.908  11.396   7.714 -0.1637  0.7346  0.2823
  260MOL0     O35801   3.868  11.449   7.593 -0.1288  0.1870  0.0950
  260MOL0     C35802   3.924  11.573   7.544  0.5376  0.0929  0.6678
  260MOL0     C35803   3.810  11.658   7.491  0.1552 -0.2594  1.0311
  260MOL0     C35804   3.711  11.706   7.596 -0.0870 -0.3298  0.4399
  260MOL0     C35805   3.600  11.798   7.541  0.9769 -0.6272  0.2347
  260MOL0     C35806   3.508  11.713   7.453  0.4116 -0.3318  0.0536
  260MOL0     C35807   3.445  11.642   7.380  0.6269  0.1015 -0.2688
  260MOL0     C35808   4.036  11.428   7.772  0.8429  0.3054 -0.0953
  260MOL0     C35809   4.077  11.366   7.890  0.3809 -0.0914  0.2117
  260MOL0     C35810   4.205  11.406   7.962 -0.1428 -0.4178 -0.3706
  260MOL0     H35811   4.305  11.125   8.226 -0.5274  0.5764 -0.8097
  260MOL0     H35812   4.380  10.945   8.392  0.6957  0.0936 -0.0021
  260MOL0     H35813   4.245  10.501   8.271 -0.1101 -1.6438  1.2872
  260MOL0     H35814   4.153  10.605   8.396  0.9564  1.6825  1.0635
  260MOL0     H35815   4.326  10.526   8.554 -0.6904 -0.6130  0.0386
  260MOL0     H35816   4.205  10.408   8.512 -1.1562  1.6572 -0.8260
  260MOL0     H35817   4.359  10.278   8.392  0.4408 -1.8944  0.4084
  260MOL0     H35818   4.446  10.431   8.343 -1.2812  1.1970  0.3451
  260MOL0     H35819   4.541  10.443   8.575  1.6530 -0.5709  0.6642
  260MOL0     H35820   4.430  10.305   8.616 -1.3427  0.4648 -1.9830
  260MOL0     H35821   4.663  10.249   8.617  2.7005 -1.4631 -1.7424
  260MOL0     H35822   4.683  10.305   8.447 -1.2636  2.0297 -0.2811
  260MOL0     H35823   4.476  10.077   8.528  2.1297  0.6490  3.4818
  260MOL0     H35824   4.537  10.130   8.371  2.0571  2.0574 -0.3193
  260MOL0     H35825   4.662   9.979   8.603  0.9888 -2.1477 -0.0304
  260MOL0     H35826   4.761  10.050   8.481  0.9439 -2.9555  1.7430
  260MOL0     H35827   4.551   9.837   8.418  1.4017 -2.3230  1.3352
  260MOL0     H35828   4.636   9.932   8.299  0.6343 -1.6842 -0.3031
  260MOL0     H35829   4.676   9.623   8.524  0.1469 -1.0979 -1.7843
  260MOL0     H35830   4.860   9.413   8.454  0.9091 -0.0469  0.6825
  260MOL0     H35831   4.918   9.496   8.599  0.7118 -3.6318 -0.5391
  260MOL0     H35832   5.062   9.480   8.316  0.0877 -1.6871 -0.0941
  260MOL0     H35833   5.127   9.520   8.485  0.2068  0.8428 -0.8159
  260MOL0     H35834   5.063   9.272   8.521 -1.2480  0.3984 -0.5903
  260MOL0     H35835   5.016   9.281   8.348 -0.0895  4.1661 -2.0147
  260MOL0     H35836   5.210   9.174   8.342  0.5908  0.1191  1.0984
  260MOL0     H35837   5.264   9.333   8.285 -0.4931 -0.6264 -0.9087
  260MOL0     H35838   5.437   9.138   8.325 -0.4199 -1.0838  0.4930
  260MOL0     H35839   5.630   9.060   8.225  1.8503 -2.0284  2.2395
  260MOL0     H35840   5.784   9.094   8.292 -0.1899 -2.5165 -0.6572
  260MOL0     H35841   5.724   9.188   8.144 -1.9273 -0.6419 -0.5196
  260MOL0     H35842   6.144   9.281   8.425 -1.1620 -0.5203  0.8536
  260MOL0     H35843   6.371   9.357   8.447 -0.4338  0.9499 -0.9559
  260MOL0     H35844   6.454   9.762   8.631 -1.4195 -1.5429  0.5170
  260MOL0     H35845   6.468   9.604   8.698  0.1593 -1.1643 -0.2136
  260MOL0     H35846   6.684   9.715   8.701  2.9730 -0.5981 -0.6522
  260MOL0     H35847   6.698   9.581   8.584  0.9265  0.5341 -0.9157
  260MOL0     H35848   6.637   9.862   8.507 -1.2499 -0.9765 -1.1179
  260MOL0     H35849   6.695   9.754   8.392 -1.1784  1.3913 -0.6982
  260MOL0     H35850   6.919   9.729   8.545 -1.3972 -1.0982  0.3505
  260MOL0     H35851   6.853   9.884   8.625 -3.3363 -1.7342  1.0858
  260MOL0     H35852   6.925   9.827   8.329 -1.8694 -2.3591  0.5615
  260MOL0     H35853   6.834   9.970   8.390  1.1939  0.2012 -1.3145
  260MOL0     H35854   7.126   9.906   8.475  0.3380 -0.9739 -1.3179
  260MOL0     H35855   7.033  10.047   8.530  2.0482 -1.3975  0.9018
  260MOL0     H35856   7.000  10.100   8.291  2.3165  2.1720 -0.7035
  260MOL0     H35857   7.108   9.966   8.244  1.8899 -0.9900  0.8387
  260MOL0     H35858   7.286  10.086   8.385  0.6026  0.4730 -1.3344
  260MOL0     H35859   7.166  10.212   8.416  2.9709  0.3199  1.0071
  260MOL0     H35860   6.253   9.760   8.500  1.3575 -0.7705 -0.5785
  260MOL0     H35861   6.003   9.686   8.504 -0.7225 -0.9455  2.5078
  260MOL0     H35862   5.714   9.479   8.559 -1.1813  0.3314 -0.0719
  260MOL0     H35863   5.477   9.452   8.605 -0.4830 -0.0597 -0.0362
  260MOL0     H35864   4.171  10.665   8.138 -3.2138  0.7202  1.0016
  260MOL0     H35865   4.102  10.839   7.994  2.1634 -1.6273 -0.3449
  260MOL0     H35866   3.819  11.132   7.926  1.5144 -2.0565 -1.6152
  260MOL0     H35867   3.730  11.266   7.735 -0.4974 -2.3059  0.0967
  260MOL0     H35868   3.979  11.639   7.611 -2.6985  1.8292  1.8640
  260MOL0     H35869   3.974  11.533   7.456 -2.0385 -0.6475 -0.5593
  260MOL0     H35870   3.772  11.607   7.402  2.0330  0.6641 -0.3551
  260MOL0     H35871   3.853  11.742   7.437 -1.0793 -0.5713 -0.5228
  260MOL0     H35872   3.682  11.613   7.644 -0.5289 -0.0543  0.7153
  260MOL0     H35873   3.765  11.767   7.669 -0.6690 -0.6799  1.1789
  260MOL0     H35874   3.639  11.879   7.479  1.3816 -2.5375 -2.1687
  260MOL0     H35875   3.552  11.853   7.622  0.6953  2.4328 -1.8321
  260MOL0     H35876   3.414  11.575   7.302  2.3167  0.8697 -1.6638
  260MOL0     H35877   4.104  11.499   7.727  0.9086  1.3687  1.5825
  260MOL0     H35878   4.206  11.358   8.060 -1.1496 -1.0967 -0.6681
  260MOL0     H35879   4.289  11.365   7.905 -0.0512  1.3635 -1.6046
  260MOL0     H35880   4.210  11.514   7.973  0.0323 -0.6208  1.8619
  261MOL0     O35881   7.396   4.953   1.045  0.6616 -0.0248  0.1959
  261MOL0     C35882   7.401   4.925   1.167 -0.5410 -0.0454  0.9711
  261MOL0     O35883   7.299   4.947   1.252  0.1373 -0.0236  1.0823
  261MOL0     C35884   7.171   4.985   1.209 -0.1397  0.4885 -0.5329
  261MOL0     C35885   7.099   4.918   1.106 -0.4304  0.0899  0.1642
  261MOL0     C35886   6.961   4.929   1.093 -0.5594  0.5011  0.1692
  261MOL0     C35887   6.896   5.015   1.179 -0.0988 -0.5641  0.5608
  261MOL0     O35888   6.762   5.043   1.160  0.1906  0.7193 -0.0251
  261MOL0     C35889   6.705   4.916   1.157  1.1378  0.0820  0.1182
  261MOL0     C35890   6.568   4.937   1.229 -0.0440  0.6732  0.6708
  261MOL0     C35891   6.464   4.835   1.201 -0.4409  0.1631 -0.1906
  261MOL0     C35892   6.381   4.854   1.075 -0.2976  0.7224  0.1871
  261MOL0     C35893   6.289   4.737   1.047 -0.1127 -0.5335 -0.0120
  261MOL0     C35894   6.166   4.739   1.141 -0.4954  0.1209  0.9004
  261MOL0     C35895   6.056   4.628   1.102 -0.5263  0.0615 -0.2750
  261MOL0     C35896   6.104   4.478   1.113 -0.0726  0.0975  0.0483
  261MOL0     N35897   6.111   4.418   1.246  0.0257 -0.3634 -0.3526
  261MOL0     C35898   6.211   4.432   1.341  0.0816  0.5061  1.0613
  261MOL0     C35899   6.163   4.364   1.446  0.6583  0.5201 -0.2067
  261MOL0     C35900   6.226   4.320   1.577  0.0774 -0.5514  0.1183
  261MOL0     C35901   6.273   4.443   1.668  0.2853  0.3850 -0.3763
  261MOL0     C35902   6.368   4.543   1.596 -0.5686 -0.1956  0.7129
  261MOL0     C35903   6.433   4.643   1.686 -0.0201  0.2173 -0.4503
  261MOL0     O35904   6.478   4.600   1.817 -0.7286 -0.2765 -0.2053
  261MOL0     C35905   6.607   4.570   1.832 -0.4220  0.2279  0.0955
  261MOL0     C35906   6.657   4.446   1.802  0.0467 -0.6204 -0.4604
  261MOL0     C35907   6.795   4.418   1.804  0.2461  0.9019 -0.5206
  261MOL0     C35908   6.844   4.276   1.776  0.0382 -0.6623  0.2401
  261MOL0     C35909   6.894   4.513   1.845  0.5579 -0.0827 -0.6175
  261MOL0     C35910   7.041   4.510   1.839 -0.2281 -0.2941 -0.3125
  261MOL0     O35911   7.107   4.624   1.867  0.6459 -0.0655  0.1295
  261MOL0     C35912   7.246   4.629   1.844 -0.1964  0.4025  0.2403
  261MOL0     C35913   7.305   4.589   1.723 -0.4350  0.3903  0.0432
  261MOL0     C35914   7.439   4.617   1.695  0.1535  0.2664  0.5272
  261MOL0     C35915   7.518   4.675   1.796 -0.9595  0.1952  0.4658
  261MOL0     O35916   7.652   4.694   1.756 -0.4954  0.2479  0.9119
  261MOL0     C35917   7.731   4.754   1.867  0.5022 -0.6435  0.2104
  261MOL0     C35918   7.866   4.752   1.803 -0.3461  0.0817  0.6107
  261MOL0     C35919   7.969   4.770   1.900 -0.3967  0.0095  0.1785
  261MOL0     C35920   8.117   4.750   1.841 -0.1084 -0.2452  0.0401
  261MOL0     C35921   8.217   4.710   1.949 -0.1198  0.8703 -0.2439
  261MOL0     C35922   8.347   4.785   1.936 -0.5799 -0.0569  0.0037
  261MOL0     C35923   8.468   4.731   2.018  0.5490  0.1137  0.1323
  261MOL0     C35924   8.608   4.782   1.980 -0.2874 -0.1749 -0.3398
  261MOL0    Cl35925   8.644   4.939   2.061 -0.2472  0.1313 -0.4291
  261MOL0     C35926   7.456   4.694   1.929  0.1449  0.3865  0.8207
  261MOL0     C35927   7.319   4.672   1.949  0.1155 -0.7406 -0.0595
  261MOL0     O35928   7.096   4.403   1.808  0.1496  0.2071  0.2219
  261MOL0     C35929   6.834   4.632   1.898  0.0629  0.1777  0.4420
  261MOL0     C35930   6.698   4.664   1.873  0.2111  1.0404  0.3781
  261MOL0     N35931   6.036   4.316   1.423 -0.5972  0.4769  0.4601
  261MOL0     N35932   6.003   4.350   1.297 -0.3707 -0.9505 -0.5747
  261MOL0     C35933   6.964   5.082   1.281 -0.3307 -0.4983 -0.2852
  261MOL0     C35934   7.097   5.072   1.292  0.4836  0.0286 -1.2829
  261MOL0     C35935   7.508   4.849   1.225 -0.3800 -0.1817 -0.3575
  261MOL0     C35936   7.601   4.786   1.129  0.0959  0.4491 -0.7891
  261MOL0     C35937   7.695   4.696   1.169 -1.1028  0.3900 -0.5484
  261MOL0     C35938   7.709   4.663   1.300 -0.1787  1.1769 -1.4065
  261MOL0     O35939   7.806   4.568   1.342 -0.3755  0.4145 -0.1255
  261MOL0     C35940   7.917   4.623   1.410  0.4253  0.5223  0.0786
  261MOL0     C35941   8.028   4.525   1.442 -0.1650  0.4271  0.3564
  261MOL0     C35942   8.169   4.597   1.450  0.9552 -0.2084 -0.3916
  261MOL0     C35943   8.266   4.489   1.495 -0.2278 -0.3467  0.3457
  261MOL0     C35944   8.392   4.547   1.544 -0.3137 -0.1826  0.2062
  261MOL0     C35945   8.482   4.600   1.603 -0.3608 -0.0683 -0.1994
  261MOL0     C35946   7.635   4.735   1.395 -0.2140  0.5896 -0.3172
  261MOL0     C35947   7.526   4.821   1.357  0.7690  0.2649  0.6250
  261MOL0     C35948   7.433   4.861   1.468 -0.0714 -0.0430 -1.1468
  261MOL0     H35949   7.155   4.864   1.030 -0.8356  0.2973 -0.2829
  261MOL0     H35950   6.909   4.884   1.009 -0.8597 -0.5376  0.8988
  261MOL0     H35951   6.763   4.833   1.197  1.7606 -1.4718 -3.5676
  261MOL0     H35952   6.681   4.887   1.054  0.8988 -1.3727  0.5748
  261MOL0     H35953   6.596   4.954   1.334  0.5832  0.4014  0.5521
  261MOL0     H35954   6.524   5.025   1.180  0.0974  0.2687 -0.1958
  261MOL0     H35955   6.509   4.737   1.220  1.7782  1.6619  3.1632
  261MOL0     H35956   6.396   4.854   1.284 -0.6368 -0.5290 -0.1839
  261MOL0     H35957   6.326   4.948   1.088  0.3070  1.0185  0.6644
  261MOL0     H35958   6.449   4.874   0.992  0.8498  2.0604  1.3981
  261MOL0     H35959   6.346   4.644   1.061 -0.3622 -0.7621 -0.4950
  261MOL0     H35960   6.250   4.747   0.945 -0.1051  0.1591  0.0550
  261MOL0     H35961   6.202   4.727   1.244 -1.3547 -1.0302  1.0912
  261MOL0     H35962   6.122   4.839   1.131 -0.2671  0.2382  1.0591
  261MOL0     H35963   6.020   4.649   1.001 -2.6764 -1.8658  0.0218
  261MOL0     H35964   5.971   4.631   1.170  1.0559  1.2906  1.7746
  261MOL0     H35965   6.042   4.425   1.040 -2.2669  2.0403  0.4013
  261MOL0     H35966   6.205   4.474   1.070  0.2103 -2.9269  0.7592
  261MOL0     H35967   6.307   4.478   1.319 -0.3874  0.6335 -0.8926
  261MOL0     H35968   6.309   4.251   1.559  1.4346  1.3642 -1.3452
  261MOL0     H35969   6.157   4.258   1.636  1.3327 -2.0466  0.0930
  261MOL0     H35970   6.184   4.501   1.695 -0.1833 -0.6507  0.3564
  261MOL0     H35971   6.319   4.406   1.759  1.6713  0.1681 -1.1391
  261MOL0     H35972   6.451   4.488   1.549  1.9678  2.6420  1.5462
  261MOL0     H35973   6.315   4.603   1.522  0.1496 -2.1028 -1.4556
  261MOL0     H35974   6.513   4.707   1.647  0.8497  1.1599  2.5412
  261MOL0     H35975   6.357   4.719   1.707 -0.7832 -0.4538 -0.7646
  261MOL0     H35976   6.582   4.374   1.771 -0.0822  0.2160 -2.2705
  261MOL0     H35977   6.925   4.251   1.846  1.8004  0.0661 -1.4434
  261MOL0     H35978   6.876   4.266   1.672 -1.2360 -2.0940 -0.0335
  261MOL0     H35979   6.766   4.203   1.795 -0.5191 -0.3477 -0.7714
  261MOL0     H35980   7.251   4.541   1.642 -0.9594  2.3216 -0.8026
  261MOL0     H35981   7.476   4.595   1.595 -0.2460  2.6785 -0.2332
  261MOL0     H35982   7.686   4.853   1.880  2.0428  0.1467 -0.3229
  261MOL0     H35983   7.747   4.696   1.959  1.1041  0.1767  0.6324
  261MOL0     H35984   7.876   4.665   1.738  2.0392  0.6220  0.1282
  261MOL0     H35985   7.876   4.841   1.740 -0.1559  2.1371  3.3459
  261MOL0     H35986   7.950   4.694   1.977 -1.5761  0.5552  0.4473
  261MOL0     H35987   7.959   4.867   1.950  1.2154  0.0287  0.5318
  261MOL0     H35988   8.154   4.839   1.789 -0.3836 -0.6099 -0.7994
  261MOL0     H35989   8.104   4.676   1.762  2.1541  0.9452 -1.5653
  261MOL0     H35990   8.186   4.722   2.053  1.2248 -0.3332  0.3300
  261MOL0     H35991   8.242   4.604   1.937 -0.6071  0.5930  1.0269
  261MOL0     H35992   8.320   4.888   1.961  2.9605  0.8437  0.7462
  261MOL0     H35993   8.378   4.799   1.832 -0.3042  0.1312  0.1085
  261MOL0     H35994   8.477   4.622   2.011 -1.6433 -0.0384 -1.3732
  261MOL0     H35995   8.450   4.764   2.120  1.8074 -1.2215  0.8223
  261MOL0     H35996   8.626   4.778   1.873 -2.5786  0.0776 -0.7995
  261MOL0     H35997   8.672   4.707   2.028  0.1057  1.8304  2.5704
  261MOL0     H35998   7.517   4.729   2.013  0.0975  0.3700  0.8623
  261MOL0     H35999   7.265   4.684   2.043  1.6207 -0.2218  0.7668
  261MOL0     H36000   6.894   4.716   1.934  0.5964 -0.3293  0.7534
  261MOL0     H36001   6.647   4.760   1.874  0.7601  1.3326  0.8486
  261MOL0     H36002   6.902   5.146   1.343 -2.2703 -0.4677 -2.1246
  261MOL0     H36003   7.153   5.117   1.373  0.6033 -1.9772 -0.2037
  261MOL0     H36004   7.583   4.809   1.024 -1.6421 -1.3049 -0.9392
  261MOL0     H36005   7.765   4.654   1.098 -1.6890 -0.6902 -0.5144
  261MOL0     H36006   7.957   4.707   1.353  1.9881  0.9054  1.6349
  261MOL0     H36007   7.875   4.665   1.502  0.0047 -0.9277  0.5686
  261MOL0     H36008   8.031   4.459   1.355 -0.9668 -0.6383  1.1068
  261MOL0     H36009   7.998   4.459   1.524 -2.8331  0.5692 -0.4146
  261MOL0     H36010   8.202   4.641   1.355  1.5150  2.0634  0.7773
  261MOL0     H36011   8.172   4.678   1.523 -2.2381 -1.5313  1.4136
  261MOL0     H36012   8.281   4.420   1.412  0.3124 -1.7134  1.5414
  261MOL0     H36013   8.234   4.417   1.571 -0.1265 -0.9282 -0.1551
  261MOL0     H36014   8.564   4.639   1.660 -0.5769  0.5110 -0.2824
  261MOL0     H36015   7.653   4.700   1.496 -3.6851 -0.1083  0.1581
  261MOL0     H36016   7.489   4.857   1.562  0.4004  0.9013 -1.3706
  261MOL0     H36017   7.403   4.967   1.468 -0.5402 -0.0483  2.1436
  261MOL0     H36018   7.344   4.797   1.472 -0.2016  0.1711  1.2016
  262MOL0     O36019   6.512   6.969   4.983  0.8195  0.0880 -0.3331
  262MOL0     C36020   6.399   6.919   4.989  0.2075  0.2628  0.5146
  262MOL0     O36021   6.361   6.801   4.929  0.4181  0.1893  0.2730
  262MOL0     C36022   6.463   6.729   4.874 -0.2067 -0.0675 -0.3910
  262MOL0     C36023   6.516   6.767   4.751  0.4803 -0.1561  1.0301
  262MOL0     C36024   6.618   6.690   4.686  0.1967  0.2460 -0.6165
  262MOL0     C36025   6.670   6.575   4.746 -0.6287  0.1879 -0.1760
  262MOL0     O36026   6.761   6.487   4.687 -0.2298 -0.5446  0.6767
  262MOL0     C36027   6.873   6.569   4.631  0.0150  0.2662 -0.8014
  262MOL0     C36028   7.011   6.499   4.614  0.0257  0.8017 -0.3428
  262MOL0     C36029   7.057   6.410   4.727  0.6656  0.8442 -0.3635
  262MOL0     C36030   7.084   6.493   4.853  0.0110 -0.0990 -0.0914
  262MOL0     C36031   7.131   6.420   4.977 -0.1351 -1.2235 -0.3984
  262MOL0     C36032   7.026   6.392   5.082  0.4667  0.8251  0.8594
  262MOL0     C36033   6.934   6.282   5.035  0.5517 -0.3777  0.3207
  262MOL0     C36034   6.988   6.144   5.056 -0.1901 -0.1122 -0.8639
  262MOL0     N36035   7.009   6.109   5.205 -0.2120 -0.5777  0.7887
  262MOL0     C36036   6.909   6.068   5.289 -0.3250 -0.0328 -0.0097
  262MOL0     C36037   6.964   6.037   5.405 -0.6886 -0.5163  0.2603
  262MOL0     C36038   6.892   5.996   5.532  0.5246 -0.2283 -0.4315
  262MOL0     C36039   6.929   5.857   5.585  0.9758 -0.0872  0.4838
  262MOL0     C36040   6.917   5.746   5.476 -0.0410 -0.0999  0.5638
  262MOL0     C36041   6.991   5.621   5.522  0.6009 -0.2167 -1.0838
  262MOL0     O36042   6.954   5.518   5.433 -0.4168  0.1408  0.3460
  262MOL0     C36043   6.820   5.478   5.433 -0.4564  0.2126  0.6505
  262MOL0     C36044   6.761   5.444   5.314 -0.1746  0.0714  0.1573
  262MOL0     C36045   6.626   5.407   5.295  0.6356 -0.4377  0.3582
  262MOL0     C36046   6.592   5.373   5.154  0.7542 -0.9435 -1.0984
  262MOL0     C36047   6.540   5.422   5.403 -0.0994 -0.1110  0.2365
  262MOL0     C36048   6.388   5.398   5.403 -0.3954 -0.4323  1.0363
  262MOL0     O36049   6.340   5.360   5.279  0.2624 -0.0118 -0.3657
  262MOL0     C36050   6.202   5.333   5.268 -0.1660  0.5302 -0.3094
  262MOL0     C36051   6.122   5.445   5.230 -0.8971  0.0079 -0.2668
  262MOL0     C36052   5.986   5.422   5.217  0.1170  0.9860 -0.0997
  262MOL0     C36053   5.931   5.292   5.225 -0.2239  0.5833 -0.3662
  262MOL0     O36054   5.799   5.261   5.201 -0.2473  0.4262 -0.4148
  262MOL0     C36055   5.699   5.364   5.144 -0.2159 -0.3976  0.6318
  262MOL0     C36056   5.555   5.315   5.166  0.7036  0.4502  0.1814
  262MOL0     C36057   5.541   5.253   5.309  0.1148 -0.7360 -0.1713
  262MOL0     C36058   5.423   5.316   5.376  0.9053  0.7073 -0.5489
  262MOL0     C36059   5.287   5.248   5.339 -0.0892 -0.2740 -0.4221
  262MOL0     C36060   5.166   5.304   5.418  0.3272  0.1294 -0.5735
  262MOL0     C36061   5.039   5.251   5.356 -0.1820  0.0713  0.4905
  262MOL0     C36062   4.976   5.344   5.260  0.0928 -0.2947 -0.1095
  262MOL0    Cl36063   4.934   5.503   5.329  0.0536  0.1797  0.3889
  262MOL0     C36064   6.009   5.187   5.267 -0.9161 -0.3784  0.3143
  262MOL0     C36065   6.143   5.204   5.282  0.5541  0.1634  0.2477
  262MOL0     O36066   6.318   5.414   5.508 -0.2102  0.1212  0.2296
  262MOL0     C36067   6.603   5.456   5.532  0.3950  0.0586  0.4444
  262MOL0     C36068   6.738   5.480   5.547 -0.3439  0.0909  0.5691
  262MOL0     N36069   7.103   6.059   5.385 -0.0369  0.1356  0.0266
  262MOL0     N36070   7.132   6.102   5.271  0.6381 -0.2082 -0.1120
  262MOL0     C36071   6.610   6.534   4.870 -0.3765  0.8636 -0.0200
  262MOL0     C36072   6.507   6.613   4.930  0.3610  0.3201  0.4757
  262MOL0     C36073   6.309   7.003   5.076 -0.8930 -0.2463  0.1313
  262MOL0     C36074   6.382   7.077   5.174  0.8202 -0.0012  0.2273
  262MOL0     C36075   6.307   7.146   5.271 -0.3888  0.4972  0.3108
  262MOL0     C36076   6.169   7.155   5.269 -0.5455 -0.2577  0.5089
  262MOL0     O36077   6.092   7.227   5.357  0.3988 -0.1702 -0.2510
  262MOL0     C36078   6.157   7.287   5.470  0.3783  0.5782  1.3302
  262MOL0     C36079   6.038   7.304   5.570 -0.2195  0.8242 -0.1229
  262MOL0     C36080   6.063   7.370   5.703 -0.2264  0.2278 -0.9385
  262MOL0     C36081   5.926   7.382   5.772  0.0951 -0.3427 -0.1391
  262MOL0     C36082   5.863   7.252   5.792 -1.1209  0.5670  0.2160
  262MOL0     C36083   5.814   7.142   5.819 -1.3983 -0.4711 -0.1314
  262MOL0     C36084   6.103   7.087   5.169  0.1334  0.5170 -0.3452
  262MOL0     C36085   6.172   7.015   5.071  0.4036 -0.1104  0.1722
  262MOL0     C36086   6.088   6.964   4.956  0.1583  0.6334  0.1998
  262MOL0     H36087   6.468   6.852   4.702 -1.7826 -2.1087 -0.3566
  262MOL0     H36088   6.646   6.729   4.588  1.7349  0.0168 -0.2952
  262MOL0     H36089   6.897   6.646   4.705 -1.3011 -0.8440  0.8596
  262MOL0     H36090   6.834   6.603   4.535 -2.1168  2.2057  0.6217
  262MOL0     H36091   7.011   6.431   4.529  1.1776 -0.9739  1.0058
  262MOL0     H36092   7.094   6.566   4.591  2.5670 -2.1300 -0.3280
  262MOL0     H36093   6.982   6.336   4.756  0.8930  1.0262  0.7340
  262MOL0     H36094   7.143   6.359   4.683 -0.3067  1.8234 -3.7082
  262MOL0     H36095   7.147   6.579   4.830 -1.0970  1.4285  2.2228
  262MOL0     H36096   6.989   6.543   4.872  1.8431  3.8676 -0.4170
  262MOL0     H36097   7.180   6.499   5.034 -3.2256  0.9398 -0.4624
  262MOL0     H36098   7.190   6.333   4.947  2.3573  0.9873 -2.3886
  262MOL0     H36099   7.068   6.369   5.180 -3.7604  0.1608  2.7201
  262MOL0     H36100   6.955   6.475   5.090 -2.8881 -1.7597  0.4298
  262MOL0     H36101   6.887   6.307   4.940 -1.4696  2.9732  1.9960
  262MOL0     H36102   6.844   6.283   5.097 -0.9980 -0.5035 -1.8020
  262MOL0     H36103   6.917   6.072   5.016 -3.1672  1.0098  1.9521
  262MOL0     H36104   7.078   6.136   4.994  0.1592 -1.3433 -0.2231
  262MOL0     H36105   6.803   6.054   5.270  0.2786 -1.5701 -2.8280
  262MOL0     H36106   6.783   6.002   5.520  0.4345  0.9030  0.6735
  262MOL0     H36107   6.914   6.077   5.603 -3.5425 -1.1903  2.2716
  262MOL0     H36108   7.034   5.868   5.614  0.4513  1.7473  1.8244
  262MOL0     H36109   6.874   5.818   5.671  0.3893  0.3297  0.3062
  262MOL0     H36110   6.810   5.739   5.451  0.4689 -2.5737 -1.2760
  262MOL0     H36111   6.971   5.781   5.388  0.1889 -0.1364  0.6896
  262MOL0     H36112   7.100   5.630   5.510  0.8454  1.1583  1.3367
  262MOL0     H36113   6.974   5.587   5.625  2.1923  3.4681  0.5923
  262MOL0     H36114   6.819   5.442   5.223 -3.5773 -3.9867 -2.2995
  262MOL0     H36115   6.677   5.360   5.087  1.3914  2.1413 -1.0740
  262MOL0     H36116   6.521   5.445   5.112 -0.8640 -1.6122  0.3754
  262MOL0     H36117   6.531   5.283   5.157 -0.8426  0.0617  2.9490
  262MOL0     H36118   6.170   5.542   5.223 -1.7852  0.3755 -1.7033
  262MOL0     H36119   5.932   5.507   5.177  0.5761  1.6532  0.6760
  262MOL0     H36120   5.717   5.459   5.196  3.1182 -0.6150  0.0770
  262MOL0     H36121   5.719   5.382   5.038 -0.1707 -0.3162  0.6536
  262MOL0     H36122   5.478   5.390   5.151  2.4654  2.4827  0.8163
  262MOL0     H36123   5.539   5.233   5.096 -3.1103  0.3239  0.9794
  262MOL0     H36124   5.630   5.260   5.373 -0.9340  0.8897  1.1900
  262MOL0     H36125   5.522   5.145   5.310  0.6918 -0.8485 -0.6948
  262MOL0     H36126   5.417   5.421   5.345  0.5543  0.4038 -1.5636
  262MOL0     H36127   5.432   5.306   5.484  0.4623 -1.1077 -0.6425
  262MOL0     H36128   5.264   5.260   5.233 -0.9600  2.4531 -0.0143
  262MOL0     H36129   5.302   5.140   5.348  0.5865 -0.4301 -2.8212
  262MOL0     H36130   5.168   5.413   5.413  4.4620  0.3038  0.8548
  262MOL0     H36131   5.162   5.293   5.527 -3.1881 -3.5910 -0.8295
  262MOL0     H36132   4.968   5.238   5.438  1.6093 -1.4720  1.8991
  262MOL0     H36133   5.054   5.155   5.307  3.6857 -0.1855  1.8411
  262MOL0     H36134   4.880   5.300   5.232 -0.1800  0.0842  0.2246
  262MOL0     H36135   5.035   5.350   5.167 -0.3281 -0.0914 -0.3657
  262MOL0     H36136   5.970   5.085   5.270  1.8616 -1.5990 -1.2926
  262MOL0     H36137   6.194   5.112   5.306  2.7038  1.4198  0.7853
  262MOL0     H36138   6.543   5.464   5.623 -1.6811  0.5942 -0.8976
  262MOL0     H36139   6.777   5.512   5.643 -1.6421 -0.2591  1.2338
  262MOL0     H36140   6.628   6.432   4.902  1.7639  1.3743  0.5201
  262MOL0     H36141   6.437   6.577   5.005 -1.0049  3.0109  0.5835
  262MOL0     H36142   6.489   7.093   5.176  1.0135 -1.2477  0.4590
  262MOL0     H36143   6.372   7.212   5.328  1.0873 -0.5329 -0.1152
  262MOL0     H36144   6.239   7.225   5.507  0.4294  0.2189  0.6372
  262MOL0     H36145   6.203   7.383   5.443 -0.0989  0.5914  0.5446
  262MOL0     H36146   6.012   7.199   5.587  2.3748  0.2603  0.7664
  262MOL0     H36147   5.960   7.355   5.512  1.4241  2.8116 -0.6965
  262MOL0     H36148   6.131   7.310   5.763 -2.3526 -0.8980  0.4724
  262MOL0     H36149   6.111   7.464   5.674 -1.1268  0.8737 -0.3779
  262MOL0     H36150   5.852   7.447   5.724 -2.1554 -0.0818  3.2912
  262MOL0     H36151   5.936   7.429   5.871 -0.0846 -0.9669  0.1823
  262MOL0     H36152   5.782   7.043   5.845 -1.0833 -0.2970  1.0046
  262MOL0     H36153   5.995   7.088   5.182  0.1295  2.8136 -0.2829
  262MOL0     H36154   5.991   6.937   5.000  2.4763 -1.7747  4.5878
  262MOL0     H36155   6.092   7.047   4.886  0.4520  1.8270  1.5797
  262MOL0     H36156   6.131   6.869   4.922  2.6630  0.9983  2.0176
  263MOL0     O36157   6.249  11.375   5.968  0.5659 -0.2072 -0.1748
  263MOL0     C36158   6.196  11.447   5.885 -0.5185 -0.3826  0.1798
  263MOL0     O36159   6.070  11.441   5.840  0.8109  0.1020  0.2907
  263MOL0     C36160   5.988  11.349   5.895 -0.6233  0.6601  0.1868
  263MOL0     C36161   6.005  11.218   5.845 -0.8007 -0.6733 -0.3636
  263MOL0     C36162   5.933  11.112   5.902  0.1757 -0.1900 -0.8821
  263MOL0     C36163   5.851  11.141   6.014 -0.0057  0.5603  0.5925
  263MOL0     O36164   5.774  11.051   6.078 -0.0121 -0.0411 -0.0154
  263MOL0     C36165   5.715  10.944   6.004 -0.4631 -0.3684 -0.4845
  263MOL0     C36166   5.581  10.922   6.072 -0.7142  0.6224  0.5120
  263MOL0     C36167   5.510  10.809   5.985 -0.2270  0.1466  0.7883
  263MOL0     C36168   5.385  10.738   6.055  0.3251 -0.2059 -0.3471
  263MOL0     C36169   5.300  10.659   5.953 -0.5249  0.5170 -0.1814
  263MOL0     C36170   5.363  10.521   5.924 -0.8427  0.8790  0.3699
  263MOL0     C36171   5.250  10.422   5.880 -0.2419  0.9711 -1.7184
  263MOL0     C36172   5.184  10.335   5.987 -0.9712  0.2048 -1.0603
  263MOL0     N36173   5.087  10.247   5.926 -0.8738 -0.5581  0.8999
  263MOL0     C36174   4.952  10.276   5.903 -0.8688 -0.3441 -0.7798
  263MOL0     C36175   4.895  10.160   5.862  0.6155  1.0846  0.2995
  263MOL0     C36176   4.751  10.146   5.810 -0.1881  0.5690  0.2537
  263MOL0     C36177   4.758  10.204   5.666  0.3156 -0.4920 -0.3303
  263MOL0     C36178   4.617  10.193   5.614 -1.0524  0.5778 -0.1545
  263MOL0     C36179   4.607  10.217   5.458  0.2910  0.2929 -0.1364
  263MOL0     O36180   4.471  10.198   5.423 -0.9318 -0.1611  0.3092
  263MOL0     C36181   4.448  10.160   5.294  0.2103  0.5438 -0.6095
  263MOL0     C36182   4.320  10.107   5.277  0.2049  0.3070  0.3890
  263MOL0     C36183   4.281  10.067   5.151 -1.2464  0.3506  0.2480
  263MOL0     C36184   4.137  10.023   5.142  0.2024 -0.0279 -0.5480
  263MOL0     C36185   4.372  10.069   5.036 -0.1087  0.3523 -0.5208
  263MOL0     C36186   4.334  10.052   4.891 -0.8361 -0.2190  0.1734
  263MOL0     O36187   4.240   9.959   4.864 -0.1196  0.5258 -0.0715
  263MOL0     C36188   4.204   9.935   4.727  0.4879 -0.3786 -0.9099
  263MOL0     C36189   4.074   9.987   4.677 -0.0004 -1.0763 -0.2683
  263MOL0     C36190   4.023   9.951   4.553 -0.6391 -0.7335  0.0426
  263MOL0     C36191   4.106   9.875   4.470  0.2747  0.3777  0.8861
  263MOL0     O36192   4.072   9.857   4.337 -0.7686 -0.3148 -0.8027
  263MOL0     C36193   4.104   9.732   4.276  0.0455  0.2461  0.2411
  263MOL0     C36194   4.026   9.718   4.154 -0.2277 -0.4650 -0.2897
  263MOL0     C36195   3.877   9.683   4.188 -0.7942 -0.9624 -0.3320
  263MOL0     C36196   3.803   9.675   4.057  0.4489  0.7204  0.3955
  263MOL0     C36197   3.656   9.655   4.084  0.1374 -0.1496 -0.1394
  263MOL0     C36198   3.623   9.541   4.174  0.0134 -0.3285 -0.0975
  263MOL0     C36199   3.470   9.527   4.151  0.0373  0.4766 -0.8392
  263MOL0     C36200   3.418   9.409   4.228 -0.5172  0.4692 -0.7883
  263MOL0    Cl36201   3.464   9.255   4.150 -0.0841 -0.1480  0.1593
  263MOL0     C36202   4.232   9.829   4.520 -0.2200  0.2261 -0.3474
  263MOL0     C36203   4.286   9.862   4.645  0.3646 -0.2149 -0.9252
  263MOL0     O36204   4.390  10.123   4.810 -0.6352  0.8186  0.1391
  263MOL0     C36205   4.498  10.134   5.060  0.5687  0.1524  0.5969
  263MOL0     C36206   4.530  10.182   5.186 -1.4363  0.7857 -0.7329
  263MOL0     N36207   4.997  10.059   5.859 -0.2749 -0.8352  0.3153
  263MOL0     N36208   5.111  10.114   5.894 -0.0181 -0.8165  0.0096
  263MOL0     C36209   5.846  11.265   6.066 -0.7813 -0.7285 -0.0564
  263MOL0     C36210   5.915  11.372   6.013  0.9075  0.6449  0.4263
  263MOL0     C36211   6.288  11.550   5.817 -0.4286  1.1292 -0.9096
  263MOL0     C36212   6.231  11.643   5.732 -0.2718 -0.1026  0.0622
  263MOL0     C36213   6.300  11.737   5.661  0.9652 -0.3436  0.2338
  263MOL0     C36214   6.442  11.752   5.692  0.6833  0.6820  0.9226
  263MOL0     O36215   6.534  11.845   5.639 -0.1991  0.0338  0.3552
  263MOL0     C36216   6.489  11.923   5.527 -0.0158 -0.1836  0.3690
  263MOL0     C36217   6.501  11.835   5.398  0.3654 -0.2238  0.2149
  263MOL0     C36218   6.632  11.767   5.394 -0.0044  0.2249 -0.9648
  263MOL0     C36219   6.662  11.698   5.260  0.6298 -0.1951  0.0924
  263MOL0     C36220   6.696  11.795   5.149 -1.0275 -0.4067  0.2314
  263MOL0     C36221   6.721  11.879   5.059  0.7956  0.2089 -0.1029
  263MOL0     C36222   6.497  11.663   5.793  0.3393 -0.2986  0.0461
  263MOL0     C36223   6.424  11.558   5.845 -0.0884  0.5042 -1.0541
  263MOL0     C36224   6.517  11.467   5.935 -0.7545 -0.7638 -0.2122
  263MOL0     H36225   6.060  11.197   5.753 -0.4936 -1.1037 -0.0883
  263MOL0     H36226   5.945  11.015   5.855 -0.4008 -0.1469 -1.1372
  263MOL0     H36227   5.776  10.854   6.019  1.6084  0.6555 -2.1585
  263MOL0     H36228   5.701  10.965   5.897 -0.9565  2.1495  0.0276
  263MOL0     H36229   5.593  10.886   6.175  2.8302  1.2626  0.4455
  263MOL0     H36230   5.520  11.012   6.063  0.7830  1.4568 -2.9074
  263MOL0     H36231   5.489  10.859   5.890  0.1183  0.9571  1.1276
  263MOL0     H36232   5.587  10.733   5.968 -0.6469 -0.0318 -0.3758
  263MOL0     H36233   5.427  10.686   6.141  1.7378 -1.7511 -1.8921
  263MOL0     H36234   5.314  10.813   6.091  0.8466  0.2489 -0.2619
  263MOL0     H36235   5.278  10.709   5.858  1.0803 -2.2424 -2.1377
  263MOL0     H36236   5.206  10.633   6.003  1.4373 -4.0279  1.6899
  263MOL0     H36237   5.437  10.528   5.843 -0.3426 -0.3199  0.7160
  263MOL0     H36238   5.417  10.478   6.009  0.8654  0.2497 -0.9669
  263MOL0     H36239   5.288  10.352   5.805 -0.3891  0.8057 -1.6404
  263MOL0     H36240   5.179  10.480   5.821 -1.2547  0.9864 -0.5175
  263MOL0     H36241   5.264  10.276   6.034 -3.0297 -1.3583  0.7067
  263MOL0     H36242   5.138  10.400   6.062 -0.3446  0.5967 -1.0093
  263MOL0     H36243   4.911  10.376   5.914  1.4987  0.4503  1.9717
  263MOL0     H36244   4.680  10.200   5.873  0.0813  0.2063  0.8771
  263MOL0     H36245   4.732  10.038   5.803  2.1934  0.1350 -0.4893
  263MOL0     H36246   4.780  10.311   5.674  3.2602 -1.1641  3.2333
  263MOL0     H36247   4.841  10.162   5.609 -1.0091  0.2468 -2.9946
  263MOL0     H36248   4.584  10.090   5.632  1.2115  0.1188  1.9974
  263MOL0     H36249   4.562  10.274   5.664  0.5264  1.5006  0.1561
  263MOL0     H36250   4.658  10.308   5.424  3.2513 -0.6684  1.3017
  263MOL0     H36251   4.672  10.143   5.410  2.9357  2.9159 -0.8848
  263MOL0     H36252   4.248  10.105   5.359 -0.8375 -1.4255 -0.5225
  263MOL0     H36253   4.074  10.112   5.149 -1.0573 -0.6928 -2.4109
  263MOL0     H36254   4.114   9.940   5.210  1.8413 -1.5270 -1.7297
  263MOL0     H36255   4.111   9.979   5.045  0.4160  0.7180 -0.9491
  263MOL0     H36256   4.013  10.045   4.745 -1.5844 -0.3376 -2.2446
  263MOL0     H36257   3.923   9.969   4.514  0.0383 -0.9817 -1.9067
  263MOL0     H36258   4.210   9.737   4.249 -0.4927  1.3771 -1.9197
  263MOL0     H36259   4.081   9.645   4.337 -0.7145  0.1008 -0.2440
  263MOL0     H36260   4.042   9.816   4.107  2.2754 -1.0687 -0.8126
  263MOL0     H36261   4.067   9.638   4.092 -2.0407 -1.4941 -0.2269
  263MOL0     H36262   3.828   9.757   4.253 -1.4714 -0.2174 -1.6567
  263MOL0     H36263   3.877   9.590   4.246 -2.0901 -0.1028  1.1445
  263MOL0     H36264   3.846   9.589   4.005  0.5787  1.4646 -0.7576
  263MOL0     H36265   3.822   9.759   3.989  0.7845 -0.7183 -1.3842
  263MOL0     H36266   3.610   9.744   4.127 -3.1191 -1.9943  0.5318
  263MOL0     H36267   3.615   9.633   3.985 -1.9052 -1.3259  0.9014
  263MOL0     H36268   3.647   9.572   4.276 -2.1091  1.6214 -0.0929
  263MOL0     H36269   3.685   9.456   4.143 -0.1176 -0.4910  0.0895
  263MOL0     H36270   3.426   9.517   4.052  0.8796  0.0918 -1.1826
  263MOL0     H36271   3.425   9.618   4.193 -1.2621  0.1278 -1.4342
  263MOL0     H36272   3.311   9.422   4.245 -0.7837 -0.2268 -1.8376
  263MOL0     H36273   3.459   9.398   4.329  2.1857 -0.8247 -1.9058
  263MOL0     H36274   4.294   9.762   4.461 -1.8783 -1.4103 -0.3283
  263MOL0     H36275   4.388   9.833   4.672  1.4697  2.3290 -2.0034
  263MOL0     H36276   4.563  10.140   4.973 -0.4099 -0.3340 -0.1940
  263MOL0     H36277   4.621  10.241   5.190 -0.9399 -0.0320  0.7840
  263MOL0     H36278   5.799  11.298   6.158  1.4702  3.4992 -0.1543
  263MOL0     H36279   5.897  11.472   6.049 -3.8398  0.8784 -1.7702
  263MOL0     H36280   6.131  11.611   5.706 -0.4073 -1.7661  2.2990
  263MOL0     H36281   6.256  11.795   5.581  1.0160  1.2206  1.3022
  263MOL0     H36282   6.392  11.970   5.544  0.5614  0.6424  1.4669
  263MOL0     H36283   6.560  12.006   5.522  1.6726 -1.3960  2.5445
  263MOL0     H36284   6.496  11.892   5.304  0.4243 -0.4255  0.0893
  263MOL0     H36285   6.419  11.762   5.392 -2.1858  2.5275 -1.7125
  263MOL0     H36286   6.711  11.828   5.439  0.9074 -1.2660 -0.4873
  263MOL0     H36287   6.623  11.683   5.464 -1.1269 -1.8261 -3.4269
  263MOL0     H36288   6.571  11.643   5.233 -1.4350  2.1102  1.8771
  263MOL0     H36289   6.738  11.622   5.282  2.6336 -0.2151 -5.4024
  263MOL0     H36290   6.738  11.954   4.984 -0.2656 -1.2699 -1.9296
  263MOL0     H36291   6.601  11.677   5.817  1.0717 -2.8942 -1.3075
  263MOL0     H36292   6.540  11.506   6.035 -2.2441  0.2039 -0.2167
  263MOL0     H36293   6.473  11.370   5.958  2.1830 -2.1119  0.1585
  263MOL0     H36294   6.616  11.450   5.892 -0.3994  1.9241 -0.6566
  264MOL0     O36295   6.531   6.054   5.386  0.1165  0.0877 -0.0312
  264MOL0     C36296   6.477   5.960   5.322  0.1927  0.3313  1.0059
  264MOL0     O36297   6.388   5.871   5.369 -0.5138 -0.0073  0.4675
  264MOL0     C36298   6.331   5.886   5.497 -0.7346 -0.2072  0.2559
  264MOL0     C36299   6.399   5.919   5.615 -0.1152  0.2885  0.2461
  264MOL0     C36300   6.335   5.936   5.745  0.0954  0.2094  0.4701
  264MOL0     C36301   6.199   5.896   5.754 -0.4185 -1.4028  0.1978
  264MOL0     O36302   6.133   5.889   5.878 -0.4358  0.4714  0.2916
  264MOL0     C36303   6.158   5.975   5.983  0.0917 -0.2346 -0.3912
  264MOL0     C36304   6.146   6.131   5.985 -0.5945 -0.3463 -0.4750
  264MOL0     C36305   6.009   6.186   6.008  1.1173  0.5262 -0.2776
  264MOL0     C36306   5.894   6.144   5.921  0.1985  0.6618  1.0416
  264MOL0     C36307   5.764   6.225   5.914  0.7769  0.3936 -0.6825
  264MOL0     C36308   5.706   6.245   6.052 -0.0451 -0.2709 -0.6574
  264MOL0     C36309   5.552   6.300   6.042 -0.1417  0.3745  0.3479
  264MOL0     C36310   5.475   6.279   6.170  0.8682  0.2221  0.4654
  264MOL0     N36311   5.437   6.403   6.235 -0.4384  0.3118 -1.1726
  264MOL0     C36312   5.334   6.480   6.188 -0.2950 -0.9604  0.2003
  264MOL0     C36313   5.312   6.587   6.278 -0.8794  0.7828  0.3346
  264MOL0     C36314   5.227   6.711   6.262  1.2287 -1.1249  0.6747
  264MOL0     C36315   5.304   6.837   6.232  0.8896  0.4338 -1.0264
  264MOL0     C36316   5.233   6.950   6.162 -0.6532  0.1654 -0.0995
  264MOL0     C36317   5.325   7.056   6.112 -0.6399 -0.5580  0.2995
  264MOL0     O36318   5.375   7.131   6.232  0.1016 -0.9907 -0.3182
  264MOL0     C36319   5.487   7.207   6.220 -0.6315  0.6187 -0.1267
  264MOL0     C36320   5.500   7.312   6.312  1.0835  0.5814  0.4472
  264MOL0     C36321   5.611   7.398   6.309 -0.3949  0.1754  0.0112
  264MOL0     C36322   5.609   7.497   6.428 -0.6775  0.3299  0.5098
  264MOL0     C36323   5.721   7.378   6.224  0.2115 -0.6559 -0.0771
  264MOL0     C36324   5.841   7.467   6.215  0.2643 -0.2507  0.2026
  264MOL0     O36325   5.949   7.414   6.142 -0.1537  0.3264 -0.0009
  264MOL0     C36326   6.069   7.481   6.145 -0.0731  0.2307 -0.2981
  264MOL0     C36327   6.183   7.417   6.190  0.3145 -0.0280  0.2826
  264MOL0     C36328   6.304   7.481   6.201 -0.8392  0.3277  1.2741
  264MOL0     C36329   6.318   7.619   6.179  0.6838 -0.4726  0.1127
  264MOL0     O36330   6.437   7.681   6.188  0.1843 -1.0256 -0.0845
  264MOL0     C36331   6.552   7.605   6.202 -0.1227 -0.0687  0.2430
  264MOL0     C36332   6.663   7.708   6.175  0.1509  0.3998 -0.3588
  264MOL0     C36333   6.652   7.768   6.032 -0.3098 -0.1723 -0.3970
  264MOL0     C36334   6.771   7.849   5.987 -0.9113  0.4321  0.1618
  264MOL0     C36335   6.879   7.737   5.946  0.1242  0.1086 -0.1239
  264MOL0     C36336   7.014   7.784   5.889 -0.5808 -0.5627 -0.0947
  264MOL0     C36337   7.005   7.813   5.746  0.0774 -0.1459  1.0985
  264MOL0     C36338   7.130   7.822   5.668 -0.0025  0.0645 -0.2024
  264MOL0    Cl36339   7.102   7.834   5.484 -0.2762 -0.1172 -0.2582
  264MOL0     C36340   6.199   7.683   6.139  0.1481 -0.0900 -0.2736
  264MOL0     C36341   6.076   7.618   6.111 -0.7930 -0.7333  0.5815
  264MOL0     O36342   5.843   7.576   6.279  0.0390  0.7585 -0.0799
  264MOL0     C36343   5.716   7.268   6.143 -0.5042  0.8004 -0.0804
  264MOL0     C36344   5.598   7.187   6.131  0.4857  0.0452 -0.5079
  264MOL0     N36345   5.405   6.560   6.377 -0.2366  0.0822 -0.0963
  264MOL0     N36346   5.462   6.448   6.364 -0.1725  0.5092 -0.6594
  264MOL0     C36347   6.134   5.852   5.639 -0.7442  0.2737  1.0561
  264MOL0     C36348   6.198   5.860   5.510 -0.2359 -0.6003 -0.6619
  264MOL0     C36349   6.525   5.932   5.186 -0.2110 -1.0123  0.3135
  264MOL0     C36350   6.577   5.803   5.158  0.1686 -0.3151  0.1767
  264MOL0     C36351   6.640   5.771   5.037 -0.3538 -0.0198 -0.0322
  264MOL0     C36352   6.651   5.875   4.939  0.5058  0.1614  0.6659
  264MOL0     O36353   6.697   5.835   4.814  0.5553 -0.3508  0.0871
  264MOL0     C36354   6.699   5.923   4.700 -0.1185  0.7932  0.1140
  264MOL0     C36355   6.810   6.029   4.715 -0.3548  0.1586 -0.2985
  264MOL0     C36356   6.900   6.045   4.592  0.0505  0.0293  0.7272
  264MOL0     C36357   7.023   5.950   4.584  0.4398 -0.1765  0.4306
  264MOL0     C36358   7.130   5.992   4.672 -0.0074  0.1277 -0.4593
  264MOL0     C36359   7.228   6.037   4.729 -0.6305  0.1830 -0.6326
  264MOL0     C36360   6.594   6.006   4.963 -0.3181  0.6147 -0.1105
  264MOL0     C36361   6.528   6.031   5.090  0.7880 -0.6512  0.4207
  264MOL0     C36362   6.492   6.175   5.118 -0.0417  1.3932 -0.2766
  264MOL0     H36363   6.506   5.933   5.605  0.4240 -2.5040  1.1647
  264MOL0     H36364   6.386   5.975   5.832 -1.1151  2.8904  0.0964
  264MOL0     H36365   6.259   5.950   6.014 -0.7569 -2.4998  0.7859
  264MOL0     H36366   6.099   5.939   6.068  1.7987 -2.7079 -0.1646
  264MOL0     H36367   6.209   6.164   6.068  0.4714 -0.7075 -1.1181
  264MOL0     H36368   6.185   6.167   5.889 -3.2827  1.4926 -0.9868
  264MOL0     H36369   5.968   6.156   6.105  0.8717 -2.8078 -1.2991
  264MOL0     H36370   6.019   6.295   6.007  2.2924  0.4177 -1.2624
  264MOL0     H36371   5.930   6.139   5.818 -1.3731 -3.8468  0.5086
  264MOL0     H36372   5.865   6.041   5.940 -0.3945  0.7775  0.8011
  264MOL0     H36373   5.691   6.166   5.858  0.7950  0.5765 -0.8994
  264MOL0     H36374   5.771   6.322   5.865 -1.6418  0.4692 -1.0313
  264MOL0     H36375   5.702   6.151   6.108 -1.9390 -0.6488 -1.3429
  264MOL0     H36376   5.763   6.314   6.115  1.0773  0.7562 -2.7048
  264MOL0     H36377   5.501   6.246   5.962 -0.6136  1.7261 -0.2961
  264MOL0     H36378   5.556   6.400   5.997 -0.3381  0.7303  1.1069
  264MOL0     H36379   5.379   6.235   6.143 -0.7572  3.7204 -0.0465
  264MOL0     H36380   5.535   6.212   6.232  2.0668  1.3851  0.6021
  264MOL0     H36381   5.273   6.471   6.099 -1.0791  2.0073  0.3414
  264MOL0     H36382   5.169   6.719   6.355  0.9600 -0.6200  0.4688
  264MOL0     H36383   5.159   6.689   6.180 -1.7229  0.2178  2.5586
  264MOL0     H36384   5.348   6.872   6.327  1.9611  0.3268 -1.4636
  264MOL0     H36385   5.383   6.808   6.162 -3.0954 -0.6115 -5.5843
  264MOL0     H36386   5.183   6.899   6.079 -1.3421 -2.1079  1.6063
  264MOL0     H36387   5.163   6.995   6.234  0.4129 -0.8005  1.6011
  264MOL0     H36388   5.408   7.003   6.066  1.1932  1.6356  0.9227
  264MOL0     H36389   5.273   7.128   6.048  1.4814  0.9709  0.2051
  264MOL0     H36390   5.419   7.327   6.384 -0.0149 -1.9345 -0.1371
  264MOL0     H36391   5.518   7.485   6.488 -1.8165 -1.3273 -1.4101
  264MOL0     H36392   5.605   7.598   6.386  0.6473  0.9086  1.7140
  264MOL0     H36393   5.703   7.485   6.483 -1.1925 -0.7404  1.2021
  264MOL0     H36394   6.192   7.313   6.219  1.3895 -0.8753 -2.7136
  264MOL0     H36395   6.384   7.418   6.238  1.9720  2.5065 -0.6637
  264MOL0     H36396   6.559   7.565   6.304 -0.4724  3.8743  2.0053
  264MOL0     H36397   6.561   7.532   6.121  1.3412  0.1675  0.1522
  264MOL0     H36398   6.651   7.791   6.245 -4.6065  0.9529 -1.4594
  264MOL0     H36399   6.751   7.644   6.184 -0.4563 -1.4308 -4.6476
  264MOL0     H36400   6.569   7.839   6.030 -0.4907 -0.3950 -1.1130
  264MOL0     H36401   6.613   7.704   5.952  1.1197  1.1407 -2.2452
  264MOL0     H36402   6.790   7.928   6.061 -1.5627 -0.1281  0.9407
  264MOL0     H36403   6.744   7.907   5.898  2.3350  1.4412 -0.2941
  264MOL0     H36404   6.892   7.683   6.041  0.1582  0.9705  0.3716
  264MOL0     H36405   6.835   7.669   5.873  1.2407 -3.7142  2.4278
  264MOL0     H36406   7.090   7.709   5.913  2.1157  1.9934  0.0035
  264MOL0     H36407   7.053   7.872   5.942 -4.2100 -0.3904  2.7015
  264MOL0     H36408   6.950   7.908   5.740  2.2282  1.1539  0.9920
  264MOL0     H36409   6.942   7.737   5.699 -1.9557  0.7653  2.1883
  264MOL0     H36410   7.200   7.742   5.693  0.1748 -0.5314 -2.3683
  264MOL0     H36411   7.181   7.914   5.700  2.1401 -0.8013 -0.9644
  264MOL0     H36412   6.198   7.786   6.106 -2.9561 -0.6655 -2.4436
  264MOL0     H36413   5.987   7.669   6.077 -0.2276 -1.0358 -1.4861
  264MOL0     H36414   5.804   7.242   6.085  1.0269  0.8303  2.0900
  264MOL0     H36415   5.605   7.102   6.063 -2.2587 -2.3802  2.0046
  264MOL0     H36416   6.032   5.820   5.657  0.3077 -3.7160  0.7167
  264MOL0     H36417   6.139   5.844   5.421  0.2888 -1.1900 -0.9088
  264MOL0     H36418   6.561   5.723   5.230 -3.2456 -0.8050 -0.9526
  264MOL0     H36419   6.669   5.669   5.013 -1.3589  0.4185 -3.7241
  264MOL0     H36420   6.727   5.861   4.614  1.5150 -1.3903  2.0685
  264MOL0     H36421   6.601   5.967   4.682 -1.4397 -1.6848  0.7413
  264MOL0     H36422   6.867   6.012   4.807 -0.2306 -0.0185 -0.4074
  264MOL0     H36423   6.750   6.120   4.717 -0.8171 -0.0965 -1.5758
  264MOL0     H36424   6.825   6.036   4.513 -1.1838  3.3168  1.3666
  264MOL0     H36425   6.938   6.147   4.580 -1.1504  0.5404  1.1236
  264MOL0     H36426   7.067   5.957   4.484  1.5225 -0.3632  0.8771
  264MOL0     H36427   6.990   5.847   4.598 -2.2648  0.5622  0.0483
  264MOL0     H36428   7.319   6.076   4.770  0.5015 -2.7424 -0.0871
  264MOL0     H36429   6.604   6.086   4.890  2.4131  2.3351  1.9434
  264MOL0     H36430   6.467   6.230   5.027 -0.6786  1.1136 -0.2746
  264MOL0     H36431   6.399   6.176   5.176  0.2137 -1.5069  0.3133
  264MOL0     H36432   6.576   6.231   5.162 -0.4707  1.2445  0.7663
  265MOL0     O36433   2.599   4.714   9.825  0.6823 -0.4176 -0.2856
  265MOL0     C36434   2.723   4.720   9.836  0.6733  0.6128  0.9724
  265MOL0     O36435   2.805   4.825   9.888  0.2198 -0.1000  0.3656
  265MOL0     C36436   2.743   4.931   9.951  0.4222 -0.6789  0.6857
  265MOL0     C36437   2.642   5.007   9.881 -0.7206 -0.8340 -0.8716
  265MOL0     C36438   2.570   5.106   9.950  0.3255 -0.0288 -0.2201
  265MOL0     C36439   2.607   5.151  10.075  0.6483  0.0296 -0.0514
  265MOL0     O36440   2.553   5.265  10.130 -0.0508  0.3375 -0.1708
  265MOL0     C36441   2.465   5.356  10.062  0.0803 -0.3504  0.6323
  265MOL0     C36442   2.454   5.485  10.140 -0.5599  0.3298  0.0155
  265MOL0     C36443   2.361   5.573  10.061 -0.3797 -0.2156  0.5188
  265MOL0     C36444   2.388   5.716  10.107  0.6707 -0.0001 -0.9458
  265MOL0     C36445   2.262   5.812  10.101  0.0104 -0.6412 -1.4404
  265MOL0     C36446   2.290   5.966  10.088  0.0111  0.5327 -0.9564
  265MOL0     C36447   2.321   6.047  10.224 -0.0948  0.3934 -0.7800
  265MOL0     C36448   2.370   6.190  10.206  0.4722 -0.1965  0.5036
  265MOL0     N36449   2.500   6.186  10.144 -0.4140  0.0878  0.0143
  265MOL0     C36450   2.615   6.159  10.207  0.1566  0.0970  0.2693
  265MOL0     C36451   2.706   6.178  10.111 -0.3989 -0.2725 -0.0356
  265MOL0     C36452   2.858   6.169  10.145  0.3396  0.4348  0.1648
  265MOL0     C36453   2.921   6.286  10.192  0.1805  0.4179  0.4285
  265MOL0     C36454   3.056   6.257  10.263 -0.0944  0.0563  0.3699
  265MOL0     C36455   3.161   6.166  10.193  0.0271 -0.2901 -0.8399
  265MOL0     O36456   3.180   6.217  10.061  0.1038  0.2773  0.2282
  265MOL0     C36457   3.227   6.343  10.053 -0.8526  0.0420  0.2007
  265MOL0     C36458   3.309   6.412  10.140  0.6466 -0.5315 -0.0997
  265MOL0     C36459   3.358   6.540  10.103 -0.4014  0.5963 -0.6860
  265MOL0     C36460   3.457   6.595  10.206 -0.7678 -0.3630 -0.2449
  265MOL0     C36461   3.327   6.601   9.985 -0.0648 -0.0275  0.5960
  265MOL0     C36462   3.382   6.731   9.937 -0.1960 -0.2283 -0.1362
  265MOL0     O36463   3.308   6.795   9.843  0.3799 -0.3220 -0.2771
  265MOL0     C36464   3.350   6.904   9.776 -0.4764  0.3733 -0.2642
  265MOL0     C36465   3.436   6.999   9.827  0.4848 -0.4522 -0.2083
  265MOL0     C36466   3.484   7.098   9.750 -0.0226 -0.7785 -0.9040
  265MOL0     C36467   3.442   7.119   9.619  0.3519  0.6076  0.0073
  265MOL0     O36468   3.483   7.229   9.544  0.0871 -0.3006  0.2969
  265MOL0     C36469   3.462   7.366   9.591  0.6694 -0.1005 -0.1931
  265MOL0     C36470   3.474   7.471   9.485  0.6240  1.0743 -0.3219
  265MOL0     C36471   3.485   7.614   9.541 -0.5350 -0.1400 -0.6563
  265MOL0     C36472   3.537   7.723   9.442  1.0966  0.4779  0.4870
  265MOL0     C36473   3.602   7.844   9.506  0.2027 -0.1942  0.6413
  265MOL0     C36474   3.506   7.918   9.612  0.1029 -0.4130  0.1101
  265MOL0     C36475   3.584   8.038   9.667 -0.7724 -0.5746  0.3510
  265MOL0     C36476   3.526   8.088   9.789  0.7686 -0.0024  0.6159
  265MOL0    Cl36477   3.345   8.112   9.770  0.5293 -0.0714  0.1137
  265MOL0     C36478   3.365   7.017   9.564  0.3120  0.7851 -0.6639
  265MOL0     C36479   3.315   6.915   9.639 -0.1148  0.2012 -0.3119
  265MOL0     O36480   3.500   6.760   9.970  0.0844  0.1048  0.3827
  265MOL0     C36481   3.237   6.532   9.904 -0.9847  0.1182 -0.3364
  265MOL0     C36482   3.182   6.411   9.941  0.0082  0.0442  0.6444
  265MOL0     N36483   2.653   6.202   9.985  0.7724 -0.1746  1.1012
  265MOL0     N36484   2.525   6.219  10.008  0.0931 -0.0559 -0.0929
  265MOL0     C36485   2.711   5.081  10.140 -0.2383 -0.0785 -0.1728
  265MOL0     C36486   2.782   4.973  10.076 -0.3868 -0.3167  0.3285
  265MOL0     C36487   2.796   4.599   9.802  0.2810 -0.4067  0.1553
  265MOL0     C36488   2.731   4.471   9.809 -0.1153 -0.1679 -1.0912
  265MOL0     C36489   2.804   4.355   9.779  0.8578  0.3120 -0.7788
  265MOL0     C36490   2.934   4.357   9.751 -0.0025  0.1580 -0.0063
  265MOL0     O36491   2.995   4.236   9.722  0.0616 -0.2291 -0.1961
  265MOL0     C36492   3.085   4.239   9.612  0.1063  0.0280 -0.0862
  265MOL0     C36493   3.112   4.098   9.559 -0.4030 -0.2134 -0.5927
  265MOL0     C36494   2.984   4.042   9.500  0.0323  0.8320  0.4710
  265MOL0     C36495   3.017   3.902   9.438 -0.0092 -0.7675  0.3116
  265MOL0     C36496   2.894   3.837   9.378 -0.0374  0.1855  0.4468
  265MOL0     C36497   2.799   3.777   9.327 -0.2375  0.3257  0.3500
  265MOL0     C36498   3.001   4.484   9.738 -0.0260 -0.5493 -0.2133
  265MOL0     C36499   2.932   4.603   9.766  0.3168 -1.2415 -0.2570
  265MOL0     C36500   2.995   4.726   9.719  0.2939 -1.0228 -0.3157
  265MOL0     H36501   2.622   4.999   9.775  0.4034 -2.7434 -0.9881
  265MOL0     H36502   2.491   5.163   9.902 -2.0812 -1.4339  1.8614
  265MOL0     H36503   2.367   5.307  10.065 -0.6522  1.0160 -0.3331
  265MOL0     H36504   2.501   5.377   9.961  1.0553  1.6664  1.3392
  265MOL0     H36505   2.408   5.475  10.238 -0.2285 -0.7757  0.0740
  265MOL0     H36506   2.557   5.520  10.152 -0.7473 -0.0008  3.6111
  265MOL0     H36507   2.392   5.570   9.956 -1.5944  0.1147  0.1251
  265MOL0     H36508   2.257   5.539  10.059 -1.4837  2.8473  0.7037
  265MOL0     H36509   2.421   5.718  10.211  0.5121 -0.4979 -0.8838
  265MOL0     H36510   2.473   5.755  10.051  0.7335 -0.8665 -1.4619
  265MOL0     H36511   2.196   5.790  10.186  0.9499  0.7158 -0.2970
  265MOL0     H36512   2.209   5.780  10.012  0.6750 -0.9366 -1.7424
  265MOL0     H36513   2.374   5.975  10.019  3.9762  0.5226  3.3461
  265MOL0     H36514   2.193   5.997  10.047 -0.9655  0.7378  1.3044
  265MOL0     H36515   2.394   5.992  10.284 -1.8165  0.8010  1.9117
  265MOL0     H36516   2.234   6.052  10.290  0.4526  0.8316 -0.0725
  265MOL0     H36517   2.304   6.256  10.149 -0.3821 -0.6135  0.9856
  265MOL0     H36518   2.367   6.234  10.307 -0.2971 -0.5090  0.6243
  265MOL0     H36519   2.611   6.149  10.315 -0.8070  3.7724  0.7403
  265MOL0     H36520   2.904   6.130  10.054 -0.2611  3.4323 -1.5350
  265MOL0     H36521   2.859   6.094  10.225 -1.3075 -2.6520 -2.4868
  265MOL0     H36522   2.935   6.355  10.108  0.7901  0.7477  0.7951
  265MOL0     H36523   2.863   6.340  10.267  3.2168 -0.8915  4.0030
  265MOL0     H36524   3.104   6.351  10.291 -1.1150  0.3090  1.3308
  265MOL0     H36525   3.020   6.195  10.346  0.7315 -1.5477 -0.4177
  265MOL0     H36526   3.256   6.156  10.246 -0.1158  1.5824 -0.1579
  265MOL0     H36527   3.118   6.067  10.176  1.9317 -1.3378  0.2294
  265MOL0     H36528   3.342   6.365  10.232 -0.7874  0.8792  1.2006
  265MOL0     H36529   3.423   6.556  10.302  2.7805 -0.6130  1.0632
  265MOL0     H36530   3.447   6.702  10.224 -1.4261 -0.4898  0.1600
  265MOL0     H36531   3.558   6.560  10.182 -1.0382 -0.2990 -1.5743
  265MOL0     H36532   3.473   6.994   9.929  1.0014  0.7862 -0.3100
  265MOL0     H36533   3.562   7.160   9.794 -0.4787 -0.9061  0.1288
  265MOL0     H36534   3.361   7.377   9.634  0.2542  0.7488 -1.3540
  265MOL0     H36535   3.533   7.379   9.674 -0.4586 -0.3808  0.8569
  265MOL0     H36536   3.559   7.445   9.422 -0.0235  0.6620 -1.0489
  265MOL0     H36537   3.382   7.463   9.425  0.3229 -2.6654  0.3810
  265MOL0     H36538   3.555   7.614   9.626  0.8395  0.4285 -1.7481
  265MOL0     H36539   3.385   7.641   9.575 -0.1483  0.0537  0.3885
  265MOL0     H36540   3.455   7.759   9.379  0.4058 -1.2136  0.3660
  265MOL0     H36541   3.600   7.675   9.368  1.8542 -0.0018  1.4229
  265MOL0     H36542   3.690   7.813   9.563  1.3495  2.7759  0.7037
  265MOL0     H36543   3.624   7.921   9.431 -2.7533  1.4292  1.2825
  265MOL0     H36544   3.478   7.862   9.702  1.6095  1.4563  1.8494
  265MOL0     H36545   3.417   7.949   9.558  0.7178  0.1334 -0.6158
  265MOL0     H36546   3.576   8.119   9.593 -0.6201  1.0665  2.0640
  265MOL0     H36547   3.686   8.009   9.693 -1.4497 -1.6482  1.9940
  265MOL0     H36548   3.582   8.182   9.802 -1.7428  1.3258  2.5387
  265MOL0     H36549   3.550   8.029   9.878  4.2521  0.2575  0.0008
  265MOL0     H36550   3.346   7.014   9.457 -4.6314  0.2086 -0.0034
  265MOL0     H36551   3.252   6.840   9.592  1.3127  0.4518 -2.7747
  265MOL0     H36552   3.219   6.584   9.810  0.9026  2.3219  0.4226
  265MOL0     H36553   3.109   6.363   9.877  0.4809 -1.3872  1.1307
  265MOL0     H36554   2.753   5.124  10.231 -0.2779  1.5967 -0.9099
  265MOL0     H36555   2.842   4.913  10.144 -2.1330 -2.4191  0.1217
  265MOL0     H36556   2.624   4.469   9.828 -0.0407 -0.7877 -0.7151
  265MOL0     H36557   2.755   4.259   9.788  2.2936 -0.3472  0.3790
  265MOL0     H36558   3.058   4.307   9.530  0.7259  2.7351  1.7945
  265MOL0     H36559   3.179   4.287   9.642  0.4401  0.5678 -1.8828
  265MOL0     H36560   3.169   4.042   9.633 -0.0296 -2.2578 -2.3095
  265MOL0     H36561   3.191   4.109   9.484  2.8525 -0.3338  2.5848
  265MOL0     H36562   2.911   4.018   9.577 -0.3440  0.5426  0.0270
  265MOL0     H36563   2.930   4.108   9.431 -0.2396  1.1530  0.9925
  265MOL0     H36564   3.071   3.835   9.505  1.4810  1.6215  1.6244
  265MOL0     H36565   3.081   3.930   9.354  1.9228  0.2856  2.0646
  265MOL0     H36566   2.715   3.720   9.292  0.6587 -1.0684  0.4036
  265MOL0     H36567   3.101   4.499   9.698 -0.9690  2.4562 -1.8155
  265MOL0     H36568   3.045   4.775   9.803  0.0370 -1.9438  0.3893
  265MOL0     H36569   3.063   4.688   9.642 -1.4017  0.1042 -2.5133
  265MOL0     H36570   2.929   4.801   9.674  1.9797  1.1999  0.7235
  266MOL0     O36571   1.125   5.930   6.443  0.0827 -0.2253  0.6623
  266MOL0     C36572   1.112   5.810   6.468 -0.0221  0.3834  0.9589
  266MOL0     O36573   1.197   5.731   6.538  0.2681 -0.2221  1.0481
  266MOL0     C36574   1.324   5.781   6.538  0.2590  0.0669 -0.2117
  266MOL0     C36575   1.408   5.770   6.429 -0.0642  0.2510  0.4542
  266MOL0     C36576   1.542   5.801   6.443  0.0398 -0.6521  0.8313
  266MOL0     C36577   1.587   5.865   6.557  0.0519 -0.6341 -0.6664
  266MOL0     O36578   1.712   5.903   6.559 -0.5801 -0.2990 -0.1165
  266MOL0     C36579   1.772   5.949   6.681  0.7431  0.1379  0.1559
  266MOL0     C36580   1.923   5.924   6.650 -0.4579 -0.8266  0.3149
  266MOL0     C36581   2.013   5.994   6.755  0.5338  0.4738  0.0108
  266MOL0     C36582   2.149   5.953   6.711  0.4442  0.1041 -0.1882
  266MOL0     C36583   2.253   5.994   6.813 -1.0638 -0.7434 -0.0141
  266MOL0     C36584   2.380   5.912   6.785 -0.2513  0.0274 -1.0047
  266MOL0     C36585   2.491   5.940   6.885 -0.1634 -0.2102  0.5366
  266MOL0     C36586   2.608   5.836   6.882  0.0804 -0.4570 -0.0896
  266MOL0     N36587   2.732   5.872   6.963  0.4273 -0.2351  0.5692
  266MOL0     C36588   2.741   5.972   7.052 -0.6188  1.0956 -0.3558
  266MOL0     C36589   2.873   5.981   7.088  1.0462  0.1370 -0.1175
  266MOL0     C36590   2.951   6.066   7.185  0.2717  0.2532 -0.2533
  266MOL0     C36591   2.867   6.097   7.307 -0.8683 -0.5190  0.8806
  266MOL0     C36592   2.943   6.095   7.451 -0.0543  0.0290 -0.4944
  266MOL0     C36593   3.075   6.172   7.457 -0.7858 -0.4793 -0.3054
  266MOL0     O36594   3.117   6.157   7.600 -0.0273  0.5165  0.3579
  266MOL0     C36595   3.248   6.196   7.617  1.0140 -0.8256  0.7309
  266MOL0     C36596   3.284   6.208   7.749  0.2766 -0.1814 -0.2851
  266MOL0     C36597   3.410   6.248   7.801  0.0331  0.0139 -0.1355
  266MOL0     C36598   3.423   6.250   7.953 -0.0108  0.0058 -0.1383
  266MOL0     C36599   3.508   6.281   7.703  0.2200  0.3056 -0.7787
  266MOL0     C36600   3.646   6.332   7.737  0.6055 -1.2159  1.1480
  266MOL0     O36601   3.693   6.329   7.861 -0.8346  0.1439  0.2068
  266MOL0     C36602   3.817   6.382   7.895 -0.0432  0.0570  0.2733
  266MOL0     C36603   3.825   6.464   8.003  0.1086  1.0860  0.5756
  266MOL0     C36604   3.953   6.489   8.056 -0.1211 -0.0416 -0.5890
  266MOL0     C36605   4.073   6.450   7.992 -0.4570  0.0133  0.2104
  266MOL0     O36606   4.188   6.491   8.054 -0.1469  0.4720 -0.0909
  266MOL0     C36607   4.311   6.482   7.970  0.3214  0.6648  1.0803
  266MOL0     C36608   4.409   6.571   8.037 -0.3481  0.3698  0.5956
  266MOL0     C36609   4.459   6.524   8.179 -0.0871 -0.3399 -0.3552
  266MOL0     C36610   4.503   6.642   8.260  0.4928 -0.1808 -1.0407
  266MOL0     C36611   4.541   6.595   8.406  0.0149 -1.3230  0.2366
  266MOL0     C36612   4.654   6.495   8.404 -0.9044 -0.9806  0.4184
  266MOL0     C36613   4.780   6.564   8.355  0.2759  0.1450  0.5134
  266MOL0     C36614   4.908   6.477   8.380  0.2342 -0.9158  0.5921
  266MOL0    Cl36615   4.899   6.322   8.279 -0.0927 -0.3083  0.0222
  266MOL0     C36616   4.062   6.368   7.885 -1.1607  0.1398  0.1458
  266MOL0     C36617   3.941   6.330   7.845  0.5307  0.2175 -1.3439
  266MOL0     O36618   3.702   6.386   7.641  0.1325  0.2784 -0.4533
  266MOL0     C36619   3.464   6.269   7.562 -0.3356  0.4420  0.5617
  266MOL0     C36620   3.341   6.223   7.519 -0.5366 -0.0333  0.3787
  266MOL0     N36621   2.936   5.884   7.009  0.1539 -0.5610  0.8057
  266MOL0     N36622   2.849   5.819   6.931 -0.6517 -0.0411 -0.2288
  266MOL0     C36623   1.496   5.889   6.666 -0.5416 -0.5280 -1.2946
  266MOL0     C36624   1.371   5.839   6.659  0.4159  0.0145  0.0205
  266MOL0     C36625   0.980   5.752   6.447 -0.1727  0.2620 -0.3973
  266MOL0     C36626   0.907   5.709   6.562 -0.6537 -0.5410  0.6488
  266MOL0     C36627   0.780   5.654   6.549 -0.5230 -0.5340  0.1779
  266MOL0     C36628   0.724   5.636   6.423  0.0135  0.8611  0.0070
  266MOL0     O36629   0.591   5.589   6.405 -0.4495  0.2536  0.7567
  266MOL0     C36630   0.492   5.642   6.498 -0.7783 -0.7713  0.3407
  266MOL0     C36631   0.415   5.747   6.404  0.0116 -0.2566 -0.4707
  266MOL0     C36632   0.291   5.815   6.467  0.7542  0.8909  0.1383
  266MOL0     C36633   0.333   5.927   6.551 -0.6695 -0.8335  0.0138
  266MOL0     C36634   0.221   6.018   6.594 -0.0156  0.0370 -1.2053
  266MOL0     C36635   0.144   6.105   6.619 -0.6748  0.2234 -0.0724
  266MOL0     C36636   0.803   5.675   6.318  0.3491  0.7484 -0.2579
  266MOL0     C36637   0.931   5.733   6.321  0.1887 -0.9074 -0.8261
  266MOL0     C36638   1.003   5.786   6.192  0.2887 -0.5318 -0.6332
  266MOL0     H36639   1.368   5.729   6.337 -1.1634 -1.1207  1.5034
  266MOL0     H36640   1.612   5.772   6.366 -1.9557 -2.0388 -0.5700
  266MOL0     H36641   1.745   5.874   6.755 -3.1734 -0.7675 -1.9254
  266MOL0     H36642   1.744   6.053   6.701  0.0891  0.1631 -0.8018
  266MOL0     H36643   1.940   5.816   6.644 -0.8727 -0.9806  1.5341
  266MOL0     H36644   1.942   5.974   6.555  0.1570 -0.2275  0.7444
  266MOL0     H36645   1.989   6.101   6.752 -2.1056 -0.0269 -2.9467
  266MOL0     H36646   1.981   5.953   6.851 -1.3190 -2.8995 -1.8361
  266MOL0     H36647   2.141   5.844   6.709 -2.1303  0.2200 -0.0204
  266MOL0     H36648   2.177   5.995   6.614 -0.3589 -1.5411 -1.1655
  266MOL0     H36649   2.222   5.999   6.917 -0.8189  0.3970  0.0223
  266MOL0     H36650   2.276   6.100   6.798 -2.0025 -0.3260  1.3412
  266MOL0     H36651   2.357   5.807   6.808  4.8723 -1.3241 -0.7283
  266MOL0     H36652   2.400   5.909   6.678  2.5042 -3.3907 -0.5626
  266MOL0     H36653   2.448   5.949   6.985  0.1363 -0.1714  0.6634
  266MOL0     H36654   2.541   6.033   6.854 -1.7235  0.8723  1.1938
  266MOL0     H36655   2.576   5.741   6.925  0.4674  0.0266  1.3524
  266MOL0     H36656   2.632   5.823   6.776 -2.8045 -1.5740 -0.6826
  266MOL0     H36657   2.658   6.033   7.086 -2.2540 -0.1952 -1.8856
  266MOL0     H36658   2.987   6.157   7.137  3.0087 -1.5153 -1.8185
  266MOL0     H36659   3.026   5.992   7.216 -1.8835 -1.3460  1.5345
  266MOL0     H36660   2.820   6.195   7.300  0.2543  0.2095  2.7788
  266MOL0     H36661   2.792   6.017   7.315 -0.3292 -0.9813  1.4503
  266MOL0     H36662   2.885   6.140   7.533  0.8620  0.4836 -0.0826
  266MOL0     H36663   2.956   5.993   7.487 -0.3320 -0.4559 -1.7191
  266MOL0     H36664   3.149   6.133   7.387 -0.9102 -4.6090  1.5664
  266MOL0     H36665   3.065   6.278   7.432  1.2103 -0.0210  0.5963
  266MOL0     H36666   3.205   6.182   7.818 -0.0744  1.4785 -0.0220
  266MOL0     H36667   3.339   6.201   8.004 -2.2768  0.9193 -2.7619
  266MOL0     H36668   3.420   6.351   7.995 -0.2168  0.4741 -1.2377
  266MOL0     H36669   3.509   6.192   7.990 -0.1698  0.6205  1.2639
  266MOL0     H36670   3.736   6.498   8.053  1.2647  1.9459  2.1338
  266MOL0     H36671   3.959   6.549   8.146 -2.2365 -0.6406 -0.0054
  266MOL0     H36672   4.358   6.383   7.972 -1.8975 -0.5070 -0.6231
  266MOL0     H36673   4.296   6.516   7.867  2.8806 -0.7559  0.1270
  266MOL0     H36674   4.502   6.591   7.983 -0.4255  1.7554  0.9219
  266MOL0     H36675   4.360   6.666   8.060  0.1746  0.0947  3.1671
  266MOL0     H36676   4.537   6.448   8.167  0.5850  0.4709 -1.3375
  266MOL0     H36677   4.385   6.465   8.235 -0.5854  0.7193  0.1254
  266MOL0     H36678   4.420   6.713   8.266  0.1409 -0.6628  0.2071
  266MOL0     H36679   4.587   6.693   8.211  0.5735 -0.4218 -1.1583
  266MOL0     H36680   4.571   6.684   8.462 -2.1411 -0.1203 -0.4099
  266MOL0     H36681   4.452   6.555   8.455 -0.1468  0.0246  1.0818
  266MOL0     H36682   4.620   6.411   8.342 -0.9382 -0.2764 -0.5337
  266MOL0     H36683   4.678   6.451   8.501 -2.4873 -0.1405  1.2350
  266MOL0     H36684   4.794   6.667   8.390 -1.9562  2.5302 -4.5676
  266MOL0     H36685   4.770   6.579   8.247 -1.1170 -1.4541  0.3787
  266MOL0     H36686   4.914   6.454   8.487  4.6669  2.0076  1.2469
  266MOL0     H36687   5.000   6.530   8.351 -0.2430 -0.8432 -0.8624
  266MOL0     H36688   4.147   6.336   7.825 -0.2603  5.0363 -1.6869
  266MOL0     H36689   3.927   6.272   7.754  1.0447 -0.2716 -1.1161
  266MOL0     H36690   3.542   6.304   7.495  2.9271 -0.3474  3.6658
  266MOL0     H36691   3.319   6.228   7.413 -0.6939 -2.1679  0.2739
  266MOL0     H36692   1.529   5.946   6.752  0.8013  0.1412 -2.2117
  266MOL0     H36693   1.296   5.828   6.737  0.8931 -1.9057  0.2731
  266MOL0     H36694   0.936   5.748   6.659  0.2534 -0.5390  0.3869
  266MOL0     H36695   0.717   5.636   6.635 -2.0621  1.2932 -0.5011
  266MOL0     H36696   0.419   5.569   6.534 -0.5975 -2.4683 -2.3953
  266MOL0     H36697   0.533   5.693   6.586 -1.5439  1.3804 -0.5079
  266MOL0     H36698   0.382   5.689   6.317 -2.0815  1.4453 -0.9276
  266MOL0     H36699   0.474   5.828   6.360 -2.1217  0.0513 -3.0833
  266MOL0     H36700   0.228   5.854   6.387  2.0134  2.2725 -0.2297
  266MOL0     H36701   0.232   5.741   6.523 -0.3047  1.1832 -0.5669
  266MOL0     H36702   0.405   5.981   6.489 -0.4338 -2.2435 -0.9870
  266MOL0     H36703   0.385   5.881   6.635  1.2222  1.2422  0.0503
  266MOL0     H36704   0.078   6.174   6.666  1.2467  1.8907  0.2906
  266MOL0     H36705   0.757   5.650   6.223 -2.7408  2.9298  0.5028
  266MOL0     H36706   0.931   5.855   6.146  2.5650  2.0298 -0.6160
  266MOL0     H36707   1.081   5.859   6.215 -0.9484  0.7635 -0.3864
  266MOL0     H36708   1.038   5.710   6.121  0.1890  0.3341 -1.6362
  267MOL0     O36709   9.369   8.756   9.696  0.3114 -0.0761 -0.0070
  267MOL0     C36710   9.293   8.762   9.797  0.2703 -0.7072  0.7372
  267MOL0     O36711   9.249   8.656   9.867 -0.3157  0.0965  0.3625
  267MOL0     C36712   9.294   8.526   9.842  0.2796 -0.0929  0.4575
  267MOL0     C36713   9.199   8.434   9.793 -0.0556 -0.8506  0.1787
  267MOL0     C36714   9.229   8.304   9.750  0.1851  0.4164  1.1628
  267MOL0     C36715   9.356   8.259   9.775 -1.5302  0.7863 -0.1613
  267MOL0     O36716   9.385   8.117   9.750 -0.4198  0.0248  1.1187
  267MOL0     C36717   9.513   8.064   9.784 -0.2230  0.2125 -0.0456
  267MOL0     C36718   9.526   7.935   9.706  0.2598  0.0234  0.4379
  267MOL0     C36719   9.655   7.860   9.746  0.1788  0.0232 -0.2951
  267MOL0     C36720   9.674   7.730   9.664  0.0907  0.2208 -1.1542
  267MOL0     C36721   9.813   7.671   9.684 -0.2480  0.0296  0.1805
  267MOL0     C36722   9.830   7.611   9.818  0.6686 -0.2634 -0.5947
  267MOL0     C36723   9.967   7.547   9.846  0.2458  0.8096 -0.6564
  267MOL0     C36724   9.959   7.460   9.976  0.3009 -0.1242  0.5922
  267MOL0     N36725  10.073   7.377   9.989 -0.7822 -0.3980  0.4847
  267MOL0     C36726  10.140   7.348  10.104  0.5854 -0.2697  0.7753
  267MOL0     C36727  10.240   7.272  10.071  0.0013 -0.7714  0.2316
  267MOL0     C36728  10.327   7.185  10.173  0.0895 -1.2836 -0.3436
  267MOL0     C36729  10.428   7.259  10.255 -0.0945  0.1532  0.4481
  267MOL0     C36730  10.473   7.164  10.373 -0.1029 -0.6477  0.1720
  267MOL0     C36731  10.557   7.237  10.472 -0.1263 -0.0800 -0.3954
  267MOL0     O36732  10.680   7.282  10.412 -0.2492 -0.2833 -0.1076
  267MOL0     C36733  10.788   7.303  10.501  1.0980  0.2232  0.2157
  267MOL0     C36734  10.781   7.319  10.639  0.6717 -0.7390 -0.2387
  267MOL0     C36735  10.890   7.342  10.722 -0.1561  0.2215  0.4662
  267MOL0     C36736  10.862   7.345  10.875  0.0572 -0.8012  0.1709
  267MOL0     C36737  11.017   7.338  10.667  0.6161  0.2731 -0.1449
  267MOL0     C36738  11.139   7.360  10.744 -0.6376  0.3452 -0.1524
  267MOL0     O36739  11.177   7.487  10.774 -0.4743  0.4998 -0.4011
  267MOL0     C36740  11.297   7.498  10.834  0.2385 -0.3660 -0.0396
  267MOL0     C36741  11.420   7.529  10.770 -0.0055 -0.5514 -0.5416
  267MOL0     C36742  11.544   7.545  10.843  0.3691 -0.1191 -1.0775
  267MOL0     C36743  11.544   7.520  10.981 -0.1990 -0.1496  0.0080
  267MOL0     O36744  11.655   7.521  11.062 -0.2677  0.4511  0.1331
  267MOL0     C36745  11.772   7.460  11.008 -0.3950 -0.7607 -0.2433
  267MOL0     C36746  11.892   7.472  11.105  0.0271 -0.1777 -1.2801
  267MOL0     C36747  11.987   7.360  11.064  0.2110  0.2246  0.4631
  267MOL0     C36748  12.107   7.375  11.148  1.4275 -0.1580 -0.0625
  267MOL0     C36749  12.216   7.431  11.070 -0.6421 -0.7044  0.3003
  267MOL0     C36750  12.342   7.411  11.153 -0.7298 -0.1080  0.3200
  267MOL0     C36751  12.455   7.470  11.075 -1.3141 -0.2978  0.6286
  267MOL0     C36752  12.575   7.490  11.161 -0.0750  0.3937  0.0535
  267MOL0    Cl36753  12.701   7.590  11.089 -0.0302 -0.1647  0.2547
  267MOL0     C36754  11.419   7.500  11.046 -0.0708 -0.4152 -0.8525
  267MOL0     C36755  11.302   7.493  10.979  0.2607 -0.0348 -0.3276
  267MOL0     O36756  11.208   7.260  10.756  0.0455  0.2654 -0.0084
  267MOL0     C36757  11.029   7.308  10.534  0.3725  1.7825 -0.4023
  267MOL0     C36758  10.916   7.290  10.449 -0.6714 -0.6395 -0.6664
  267MOL0     N36759  10.244   7.253   9.932  0.2929  0.2909 -0.2562
  267MOL0     N36760  10.149   7.320   9.889  0.1757 -0.3233 -0.4599
  267MOL0     C36761   9.454   8.353   9.831  1.2163  0.6722 -0.6479
  267MOL0     C36762   9.426   8.490   9.865 -0.0362  0.8222 -0.4372
  267MOL0     C36763   9.226   8.892   9.839 -0.7056 -0.4160  0.7450
  267MOL0     C36764   9.102   8.885   9.895 -0.3000  0.7159  0.0811
  267MOL0     C36765   9.045   8.994   9.952 -0.0780 -0.7273  0.2380
  267MOL0     C36766   9.102   9.120   9.942 -0.4384 -0.6668  0.5671
  267MOL0     O36767   9.030   9.233   9.984 -0.0778 -0.9633  0.1499
  267MOL0     C36768   9.082   9.375   9.959  0.3986 -0.3948  0.1084
  267MOL0     C36769   9.004   9.484  10.042 -0.5667  0.3329  1.0000
  267MOL0     C36770   9.049   9.630   9.998  0.6207 -0.1976 -0.0478
  267MOL0     C36771   9.204   9.654   9.980  0.0114  0.5552  0.5906
  267MOL0     C36772   9.238   9.630   9.836 -0.0223 -0.3897  0.0534
  267MOL0     C36773   9.272   9.599   9.722 -0.2722  0.1439  0.2800
  267MOL0     C36774   9.228   9.129   9.881  0.3717  0.3080  0.6146
  267MOL0     C36775   9.293   9.014   9.834 -0.3008 -0.0432  0.0819
  267MOL0     C36776   9.428   9.032   9.775 -0.1655 -0.0980 -0.2491
  267MOL0     H36777   9.096   8.466   9.782  0.5269  0.8531 -0.5883
  267MOL0     H36778   9.146   8.242   9.719 -1.2706  0.4981  4.4487
  267MOL0     H36779   9.532   8.044   9.890  0.5107 -0.1870 -0.2412
  267MOL0     H36780   9.599   8.120   9.747 -0.0378  0.3780  0.6284
  267MOL0     H36781   9.443   7.866   9.721  0.8268 -0.4413  1.5059
  267MOL0     H36782   9.537   7.963   9.600 -0.0148 -1.9178 -0.1350
  267MOL0     H36783   9.738   7.931   9.732  0.7568 -0.6010 -0.0709
  267MOL0     H36784   9.657   7.827   9.850  0.1570 -1.3958 -0.7286
  267MOL0     H36785   9.602   7.653   9.693 -0.7566  1.2277 -0.5450
  267MOL0     H36786   9.662   7.750   9.557 -1.3948 -2.0744 -1.4946
  267MOL0     H36787   9.877   7.758   9.668  0.3581 -0.4479 -0.0677
  267MOL0     H36788   9.814   7.600   9.601 -0.2942  2.2056 -1.7988
  267MOL0     H36789   9.814   7.680   9.901  1.0274  0.2632 -0.9542
  267MOL0     H36790   9.753   7.535   9.835  0.6999  0.1868  1.9044
  267MOL0     H36791  10.043   7.624   9.857  2.2616 -1.0596 -0.6953
  267MOL0     H36792   9.995   7.479   9.764  1.0589  1.1570 -0.6746
  267MOL0     H36793   9.964   7.521  10.067 -0.7617  3.0229 -1.3295
  267MOL0     H36794   9.868   7.400   9.964  1.7749 -2.1947 -0.9976
  267MOL0     H36795  10.099   7.362  10.203  1.0911  0.9930  0.8350
  267MOL0     H36796  10.380   7.107  10.117  1.2078 -0.6616 -0.1769
  267MOL0     H36797  10.255   7.143  10.243 -2.7476  3.0448 -0.2869
  267MOL0     H36798  10.509   7.291  10.189 -2.1065  0.9410 -1.7912
  267MOL0     H36799  10.373   7.341  10.302 -2.5998 -1.7215  1.0064
  267MOL0     H36800  10.389   7.124  10.429  1.2139  0.4505  3.1370
  267MOL0     H36801  10.528   7.082  10.326 -0.2389  0.1714 -1.5276
  267MOL0     H36802  10.496   7.309  10.528 -0.9750  1.0458 -2.6293
  267MOL0     H36803  10.577   7.156  10.542 -1.3673 -0.3081 -0.2779
  267MOL0     H36804  10.679   7.320  10.678  0.0866  0.7488 -1.6922
  267MOL0     H36805  10.870   7.245  10.919 -3.9136 -1.8585 -1.0755
  267MOL0     H36806  10.774   7.400  10.911  0.4951 -1.6888  2.8152
  267MOL0     H36807  10.937   7.417  10.909 -0.1175  0.0679 -1.2098
  267MOL0     H36808  11.435   7.550  10.665 -1.4235  1.8336 -0.3360
  267MOL0     H36809  11.635   7.569  10.789 -0.3911  0.3200 -2.1804
  267MOL0     H36810  11.755   7.355  10.980  2.6568 -2.3581  2.9928
  267MOL0     H36811  11.804   7.519  10.922 -0.9609  0.0901  0.1134
  267MOL0     H36812  11.921   7.576  11.090 -0.4889  0.3288  0.8845
  267MOL0     H36813  11.854   7.460  11.207 -5.4129  0.2966 -2.9147
  267MOL0     H36814  12.005   7.362  10.956 -0.3273  0.2168  0.3726
  267MOL0     H36815  11.935   7.267  11.087  0.9716 -0.5266 -0.7360
  267MOL0     H36816  12.129   7.276  11.191 -1.6140 -1.1795 -0.5767
  267MOL0     H36817  12.088   7.445  11.230 -1.9615 -0.1239 -0.7075
  267MOL0     H36818  12.232   7.365  10.984 -0.8840 -0.2758 -0.0713
  267MOL0     H36819  12.194   7.533  11.037 -1.9159 -0.9479  0.3381
  267MOL0     H36820  12.361   7.304  11.153 -1.6343 -0.2795  0.6516
  267MOL0     H36821  12.335   7.452  11.254  3.8096 -1.5414  1.4236
  267MOL0     H36822  12.428   7.564  11.025 -1.5378  0.0171  1.3353
  267MOL0     H36823  12.493   7.407  10.993  1.9588  0.5834  1.3094
  267MOL0     H36824  12.621   7.396  11.192  0.4211  0.6208  0.0109
  267MOL0     H36825  12.546   7.534  11.257  0.5378 -1.2035  1.0119
  267MOL0     H36826  11.424   7.474  11.151  3.4171 -2.1018 -1.2936
  267MOL0     H36827  11.212   7.462  11.030 -2.7990  4.0504 -2.5642
  267MOL0     H36828  11.127   7.310  10.488 -0.6454  1.8532 -2.6838
  267MOL0     H36829  10.939   7.275  10.344 -2.2866 -0.3502 -1.0874
  267MOL0     H36830   9.552   8.312   9.853  0.5535 -0.4997  0.2293
  267MOL0     H36831   9.499   8.563   9.900  0.9734  0.3395 -1.4733
  267MOL0     H36832   9.051   8.790   9.908 -2.6918  1.9446  0.1611
  267MOL0     H36833   8.955   8.995  10.014 -0.8543  0.7518 -0.8585
  267MOL0     H36834   9.188   9.377   9.986  0.6690 -0.7055 -0.8687
  267MOL0     H36835   9.076   9.397   9.852 -0.0031 -0.6171  0.0855
  267MOL0     H36836   9.021   9.464  10.148 -0.3254 -2.9361  0.4476
  267MOL0     H36837   8.899   9.459  10.025 -0.5433  0.6016  0.3960
  267MOL0     H36838   9.004   9.662   9.904  4.4229  0.9728 -1.6109
  267MOL0     H36839   9.020   9.706  10.072  0.2717 -1.2368  0.9148
  267MOL0     H36840   9.264   9.589  10.045  0.1904  0.6182  0.4896
  267MOL0     H36841   9.245   9.753  10.005  2.0944 -0.2100  0.4215
  267MOL0     H36842   9.303   9.560   9.627  1.0356  0.7705  0.4181
  267MOL0     H36843   9.282   9.223   9.885  0.4612  0.3167 -0.6220
  267MOL0     H36844   9.426   9.063   9.670 -1.6390  1.2559  0.1376
  267MOL0     H36845   9.482   9.115   9.822  0.8170  1.6184 -4.0311
  267MOL0     H36846   9.493   8.946   9.791  0.7167  0.4230 -0.9130
  268MOL0     O36847   6.687   7.324   1.067  0.1407  0.4481 -0.6011
  268MOL0     C36848   6.624   7.385   1.153  1.1928 -0.0366  0.5772
  268MOL0     O36849   6.506   7.346   1.209 -1.0083  0.5438  0.2199
  268MOL0     C36850   6.459   7.218   1.194 -0.5134 -0.5090  0.7348
  268MOL0     C36851   6.324   7.210   1.173  0.8417  0.6299  0.3988
  268MOL0     C36852   6.260   7.087   1.176 -0.0636  0.0832 -0.6209
  268MOL0     C36853   6.333   6.966   1.193  0.5543 -0.2608 -0.2586
  268MOL0     O36854   6.274   6.839   1.203 -0.6372  0.0906 -0.2659
  268MOL0     C36855   6.132   6.820   1.196  0.5487  0.0260  0.4215
  268MOL0     C36856   6.076   6.775   1.328  0.1431 -0.2257  0.5353
  268MOL0     C36857   6.123   6.642   1.376  0.0010  0.0128 -0.4070
  268MOL0     C36858   6.068   6.527   1.301  0.5367  0.1689  0.9146
  268MOL0     C36859   6.071   6.407   1.387 -0.2676 -0.4503  0.3517
  268MOL0     C36860   6.056   6.276   1.314  0.3764  0.5032 -0.6869
  268MOL0     C36861   5.910   6.244   1.269 -0.0638 -0.8792 -0.4145
  268MOL0     C36862   5.902   6.120   1.178 -0.3428 -0.1418  0.4324
  268MOL0     N36863   5.768   6.101   1.131  0.5432 -0.2770 -0.4978
  268MOL0     C36864   5.709   6.167   1.025  0.8570  0.0408 -0.4699
  268MOL0     C36865   5.584   6.119   1.030 -0.4443 -0.2959  0.4820
  268MOL0     C36866   5.487   6.172   0.921  0.1676 -0.6172 -0.5550
  268MOL0     C36867   5.370   6.249   0.989  0.5709  0.4506  0.7208
  268MOL0     C36868   5.277   6.299   0.888 -0.0114 -0.3782  0.0824
  268MOL0     C36869   5.216   6.214   0.776 -0.5764  0.0037 -0.3744
  268MOL0     O36870   5.315   6.172   0.684  0.1242 -0.5300  0.8301
  268MOL0     C36871   5.350   6.269   0.592 -0.2207 -0.2317 -0.4369
  268MOL0     C36872   5.284   6.382   0.548  0.9755 -0.7852 -0.6274
  268MOL0     C36873   5.333   6.466   0.449 -0.3293  0.6760 -0.2984
  268MOL0     C36874   5.237   6.574   0.406  1.4022 -0.0890 -0.1867
  268MOL0     C36875   5.452   6.438   0.380 -0.1263 -0.1567  0.6132
  268MOL0     C36876   5.501   6.525   0.265  0.0814  0.5739  0.8555
  268MOL0     O36877   5.603   6.479   0.199  0.3759 -0.0314 -0.4981
  268MOL0     C36878   5.676   6.562   0.119  0.9103  0.5132  0.8637
  268MOL0     C36879   5.660   6.547  -0.016  0.0393  0.7315 -0.4475
  268MOL0     C36880   5.742   6.613  -0.103 -0.7573 -0.7649  0.2766
  268MOL0     C36881   5.843   6.696  -0.053  0.6610  0.1475 -0.3782
  268MOL0     O36882   5.930   6.764  -0.127 -0.0207  0.7564  0.1761
  268MOL0     C36883   5.989   6.703  -0.246 -0.2590  0.0717 -0.5019
  268MOL0     C36884   6.115   6.790  -0.270  0.1038 -0.1702  0.2996
  268MOL0     C36885   6.217   6.714  -0.360  0.2939  0.1314  0.0409
  268MOL0     C36886   6.171   6.649  -0.497  0.7320 -0.9987  0.1173
  268MOL0     C36887   6.090   6.739  -0.586  0.5185  0.2416 -0.7036
  268MOL0     C36888   6.050   6.660  -0.702 -0.0258 -0.4314  0.8657
  268MOL0     C36889   6.154   6.674  -0.815 -0.6383 -0.4107  0.3674
  268MOL0     C36890   6.173   6.554  -0.915 -0.2077 -1.1617 -0.2113
  268MOL0    Cl36891   6.284   6.593  -1.045 -0.0662 -0.1243 -0.4995
  268MOL0     C36892   5.842   6.725   0.085 -0.4378 -1.2686 -0.4781
  268MOL0     C36893   5.766   6.656   0.169  0.3613  0.4912  0.5525
  268MOL0     O36894   5.437   6.624   0.237  0.4774  0.3262  0.7600
  268MOL0     C36895   5.510   6.318   0.413 -0.4651  0.2200  0.2268
  268MOL0     C36896   5.463   6.237   0.510 -0.4651 -0.0565 -1.5968
  268MOL0     N36897   5.561   6.015   1.122  0.3228  0.6870 -0.1292
  268MOL0     N36898   5.672   6.019   1.188  0.1109  0.6813  0.5885
  268MOL0     C36899   6.471   6.979   1.220 -0.5610  0.3537 -0.8809
  268MOL0     C36900   6.533   7.111   1.212  0.2827  0.2465  0.6232
  268MOL0     C36901   6.677   7.511   1.224  0.9801 -0.5156  0.3812
  268MOL0     C36902   6.605   7.577   1.329 -0.0956 -0.0670 -0.2445
  268MOL0     C36903   6.660   7.673   1.411 -0.2890 -0.1358  0.0751
  268MOL0     C36904   6.786   7.714   1.384 -0.1920  0.1316 -0.2943
  268MOL0     O36905   6.845   7.820   1.459  0.1901  0.6886 -0.1890
  268MOL0     C36906   6.993   7.824   1.478  0.3131  0.4828  0.1913
  268MOL0     C36907   7.064   7.903   1.362 -0.4128  0.2027 -0.2714
  268MOL0     C36908   7.202   7.862   1.322  0.1511  0.4120 -0.5968
  268MOL0     C36909   7.299   7.900   1.434  0.2827 -0.3676 -0.0525
  268MOL0     C36910   7.430   7.888   1.362 -0.6580  1.1149  0.8600
  268MOL0     C36911   7.538   7.849   1.316 -0.1739 -1.6316  0.0372
  268MOL0     C36912   6.853   7.657   1.274 -0.2302 -0.4541 -0.2520
  268MOL0     C36913   6.798   7.565   1.191 -0.4326  0.5469  0.6655
  268MOL0     C36914   6.878   7.545   1.066 -0.0470  0.0573  0.5911
  268MOL0     H36915   6.262   7.295   1.145  0.6621  0.3551 -0.0337
  268MOL0     H36916   6.155   7.081   1.147 -1.1273 -1.6204  3.0127
  268MOL0     H36917   6.108   6.737   1.129  3.2246 -1.0291  0.6526
  268MOL0     H36918   6.074   6.910   1.173  2.6390  1.4027  0.2425
  268MOL0     H36919   6.108   6.850   1.401 -0.7986  1.9524 -1.1541
  268MOL0     H36920   5.966   6.774   1.325  0.0383  1.5453  2.0374
  268MOL0     H36921   6.231   6.633   1.392 -0.2589 -0.7336  1.0677
  268MOL0     H36922   6.079   6.639   1.475 -1.6771  0.7588 -1.0939
  268MOL0     H36923   5.964   6.544   1.273  0.1760 -1.1010  1.4227
  268MOL0     H36924   6.125   6.510   1.209  0.9663  2.6551  0.6343
  268MOL0     H36925   5.983   6.413   1.452 -2.4664 -1.4402 -2.3051
  268MOL0     H36926   6.164   6.398   1.444 -0.3902  2.1177  1.0806
  268MOL0     H36927   6.123   6.271   1.228  1.4682  1.2676  0.0980
  268MOL0     H36928   6.083   6.191   1.378  0.2326  1.0418  0.0940
  268MOL0     H36929   5.866   6.330   1.217  1.5105  1.7404  2.3050
  268MOL0     H36930   5.861   6.227   1.366 -1.2176 -0.8929 -0.9779
  268MOL0     H36931   5.964   6.137   1.090 -0.7006 -0.6312  0.0813
  268MOL0     H36932   5.932   6.026   1.224  2.8066  1.0037  0.9476
  268MOL0     H36933   5.741   6.249   0.963 -0.7460 -0.6992 -2.3738
  268MOL0     H36934   5.442   6.092   0.861 -0.8505 -0.9555  0.6121
  268MOL0     H36935   5.541   6.243   0.858 -2.2457  0.2269 -1.7888
  268MOL0     H36936   5.311   6.191   1.060  3.3390  0.2566  3.0597
  268MOL0     H36937   5.413   6.340   1.031  2.5391  0.6923 -1.5878
  268MOL0     H36938   5.184   6.329   0.938 -1.4896 -0.8816 -2.2052
  268MOL0     H36939   5.322   6.393   0.855 -2.0045  0.5796 -0.0490
  268MOL0     H36940   5.176   6.118   0.810  1.9916 -1.7026 -1.8456
  268MOL0     H36941   5.140   6.275   0.726  0.0707  1.0190 -0.1631
  268MOL0     H36942   5.186   6.402   0.589  0.4320  0.2391 -2.3466
  268MOL0     H36943   5.142   6.568   0.460  0.9105 -1.1491 -1.1352
  268MOL0     H36944   5.213   6.558   0.301 -2.2205 -1.5435  0.7109
  268MOL0     H36945   5.285   6.668   0.434 -1.3497  1.5463 -0.6116
  268MOL0     H36946   5.594   6.466  -0.047 -3.4425  2.5477  1.5619
  268MOL0     H36947   5.742   6.581  -0.207  2.2751 -0.9769  0.2567
  268MOL0     H36948   6.020   6.598  -0.235  0.4733  0.2265 -0.9605
  268MOL0     H36949   5.926   6.716  -0.334 -0.1735  3.6865 -0.1796
  268MOL0     H36950   6.083   6.885  -0.315 -2.1530  1.1239  4.1902
  268MOL0     H36951   6.156   6.819  -0.173 -1.7899  0.5079  0.9347
  268MOL0     H36952   6.242   6.620  -0.308 -1.4854 -0.9654 -0.9685
  268MOL0     H36953   6.313   6.765  -0.367  1.3670 -1.9550 -1.4986
  268MOL0     H36954   6.110   6.562  -0.475 -0.1758 -0.3917  0.0718
  268MOL0     H36955   6.265   6.625  -0.548  2.0542  0.5407  1.6817
  268MOL0     H36956   6.004   6.769  -0.525 -0.0818 -1.4357 -0.6670
  268MOL0     H36957   6.152   6.824  -0.614  0.7947  0.0970 -0.5411
  268MOL0     H36958   5.957   6.702  -0.740  1.1891  0.3763 -1.4010
  268MOL0     H36959   6.035   6.554  -0.679  0.3108 -1.1333 -1.8671
  268MOL0     H36960   6.250   6.692  -0.765 -2.6360  1.4924  3.9182
  268MOL0     H36961   6.128   6.768  -0.864 -4.0614  0.0940  2.8087
  268MOL0     H36962   6.081   6.536  -0.971 -0.6729  1.9051 -0.6453
  268MOL0     H36963   6.211   6.464  -0.866 -1.1082 -0.7713  1.2582
  268MOL0     H36964   5.923   6.792   0.115 -0.0884 -1.5945 -0.6777
  268MOL0     H36965   5.778   6.675   0.275 -1.8579 -1.8551  1.3288
  268MOL0     H36966   5.601   6.293   0.359 -0.6459 -0.2044  0.1139
  268MOL0     H36967   5.511   6.140   0.521 -3.1007 -1.2081  0.8797
  268MOL0     H36968   6.531   6.894   1.251 -1.8761 -0.2928  0.0016
  268MOL0     H36969   6.637   7.120   1.239  0.5765 -0.8668 -0.0866
  268MOL0     H36970   6.501   7.548   1.343 -0.4195  0.6104 -1.0895
  268MOL0     H36971   6.603   7.724   1.488 -1.1497 -0.8361 -0.0749
  268MOL0     H36972   7.014   7.872   1.574  1.1951 -0.7808  0.6607
  268MOL0     H36973   7.035   7.723   1.484 -0.7976  0.0124  6.1092
  268MOL0     H36974   7.061   8.011   1.382 -2.1705  0.4969 -1.7885
  268MOL0     H36975   7.005   7.885   1.272 -0.7276 -3.8720  0.5529
  268MOL0     H36976   7.207   7.754   1.304  2.7576 -0.0710  2.1214
  268MOL0     H36977   7.225   7.915   1.229  0.2128  1.1640 -0.1634
  268MOL0     H36978   7.299   7.833   1.520  0.4930 -1.1267 -0.6386
  268MOL0     H36979   7.281   8.002   1.470 -0.0959 -0.1677 -0.7860
  268MOL0     H36980   7.634   7.813   1.285 -1.2170 -1.1979 -4.2631
  268MOL0     H36981   6.959   7.675   1.261  0.2694 -1.1040  2.3988
  268MOL0     H36982   6.928   7.448   1.063  0.4635  0.3239 -2.2382
  268MOL0     H36983   6.810   7.554   0.981 -0.2042  2.0569  0.8762
  268MOL0     H36984   6.960   7.617   1.053 -0.0960 -0.2454 -1.9868
  269MOL0     O36985   1.563   8.242   3.604 -0.5471  0.3121  0.1684
  269MOL0     C36986   1.657   8.270   3.534  1.0956  0.9438 -1.1522
  269MOL0     O36987   1.784   8.280   3.578 -0.1084  0.5719  0.2963
  269MOL0     C36988   1.824   8.285   3.714  0.3272  0.2213 -0.4245
  269MOL0     C36989   1.738   8.297   3.827 -0.1498  0.2802 -0.3778
  269MOL0     C36990   1.787   8.303   3.956  0.3847 -0.1598 -0.8000
  269MOL0     C36991   1.922   8.296   3.979 -0.4103 -0.4161 -0.0032
  269MOL0     O36992   1.981   8.295   4.100 -0.6904 -0.1505 -0.2710
  269MOL0     C36993   1.908   8.339   4.220 -0.3002 -0.6012 -0.3693
  269MOL0     C36994   1.849   8.217   4.280 -1.1046  0.3597  0.3135
  269MOL0     C36995   1.954   8.144   4.373 -0.1327 -0.3969  0.1843
  269MOL0     C36996   1.894   8.039   4.473  0.4242  0.5493  0.1761
  269MOL0     C36997   1.819   7.928   4.399  0.1422  0.5246 -0.4236
  269MOL0     C36998   1.906   7.840   4.300  0.0591 -0.4288  0.3751
  269MOL0     C36999   2.025   7.773   4.352 -0.6652 -0.2610  0.0650
  269MOL0     C37000   1.984   7.656   4.441 -0.2929  0.5521  0.0389
  269MOL0     N37001   2.107   7.592   4.492  0.6963  0.5449  0.1561
  269MOL0     C37002   2.221   7.558   4.430 -0.3309 -0.0547  0.1578
  269MOL0     C37003   2.315   7.510   4.520 -0.0839 -0.0632 -0.3402
  269MOL0     C37004   2.461   7.471   4.490  0.6846 -0.3774 -0.1730
  269MOL0     C37005   2.488   7.322   4.470  0.2719  0.3759  0.4544
  269MOL0     C37006   2.460   7.247   4.598 -0.1353 -0.1688 -0.0694
  269MOL0     C37007   2.508   7.099   4.586  0.4528  0.0666  0.4949
  269MOL0     O37008   2.651   7.107   4.595 -0.2062  0.2985 -0.0854
  269MOL0     C37009   2.731   7.007   4.537  0.4045 -0.0861  0.2936
  269MOL0     C37010   2.687   6.887   4.487 -0.5243 -0.1994  0.2836
  269MOL0     C37011   2.766   6.783   4.446 -0.1018 -1.5558  0.0475
  269MOL0     C37012   2.705   6.658   4.397  0.1151 -0.7250  0.3868
  269MOL0     C37013   2.908   6.804   4.453  0.0378 -0.2240 -0.2864
  269MOL0     C37014   3.016   6.695   4.444  0.1978 -1.2260  1.4416
  269MOL0     O37015   2.975   6.565   4.475  0.1080 -0.8382 -0.2554
  269MOL0     C37016   3.075   6.477   4.490 -0.1336 -0.8017  0.9258
  269MOL0     C37017   3.150   6.484   4.608 -0.0941  0.8395 -0.0976
  269MOL0     C37018   3.238   6.377   4.635 -1.0346 -0.9296 -0.1357
  269MOL0     C37019   3.251   6.268   4.541 -0.3531 -0.3398  0.0910
  269MOL0     O37020   3.330   6.160   4.560 -0.2528 -0.3409  0.8665
  269MOL0     C37021   3.458   6.181   4.625 -0.0187 -0.5150  0.2512
  269MOL0     C37022   3.557   6.250   4.536 -0.4289  0.0268  0.0478
  269MOL0     C37023   3.648   6.157   4.449  0.3535  0.9027 -0.1103
  269MOL0     C37024   3.651   6.198   4.305 -0.8909 -0.4709 -0.6892
  269MOL0     C37025   3.525   6.149   4.231 -0.3421 -0.0960  0.6459
  269MOL0     C37026   3.517   6.206   4.088  0.5161 -0.8792  0.8136
  269MOL0     C37027   3.396   6.184   4.007  0.4347  0.3482  0.1586
  269MOL0     C37028   3.394   6.251   3.868 -0.5573 -0.4441 -0.0679
  269MOL0    Cl37029   3.507   6.180   3.761 -1.0820  0.0735 -0.4371
  269MOL0     C37030   3.178   6.272   4.418 -1.0045  0.2988 -0.2147
  269MOL0     C37031   3.088   6.381   4.399  0.4393  0.0529 -0.6546
  269MOL0     O37032   3.124   6.733   4.405 -0.4761 -0.0447  0.6061
  269MOL0     C37033   2.956   6.921   4.507  0.8102 -0.0181  0.4572
  269MOL0     C37034   2.862   7.029   4.540  0.2112  0.0400 -0.0853
  269MOL0     N37035   2.248   7.511   4.642 -0.5906 -0.0331  0.0849
  269MOL0     N37036   2.131   7.563   4.625 -0.0485  0.4435  0.3277
  269MOL0     C37037   2.010   8.293   3.873 -0.9618  0.3733  0.3663
  269MOL0     C37038   1.966   8.295   3.738  0.3089  0.4235 -0.7040
  269MOL0     C37039   1.632   8.279   3.393 -0.7798 -0.0668  1.3325
  269MOL0     C37040   1.728   8.220   3.308 -0.6581 -0.1266  0.7464
  269MOL0     C37041   1.711   8.212   3.169  0.5352 -0.6829  0.1296
  269MOL0     C37042   1.590   8.264   3.113  0.3949 -0.9731  0.9153
  269MOL0     O37043   1.579   8.239   2.978  0.0259 -0.5315 -0.1686
  269MOL0     C37044   1.478   8.309   2.904 -0.1217 -0.5676 -0.3965
  269MOL0     C37045   1.480   8.234   2.771 -0.6493 -0.6540 -0.1425
  269MOL0     C37046   1.378   8.286   2.673 -0.8050 -0.0294  0.0422
  269MOL0     C37047   1.420   8.239   2.529  0.3847  0.0292 -0.6109
  269MOL0     C37048   1.409   8.089   2.534  0.9463 -0.0713 -0.1064
  269MOL0     C37049   1.413   7.979   2.554  0.3440  1.1414 -1.0072
  269MOL0     C37050   1.497   8.328   3.192 -0.4363 -0.6542  0.3970
  269MOL0     C37051   1.527   8.349   3.328  0.1818  0.2402 -0.0750
  269MOL0     C37052   1.439   8.438   3.400 -0.3960 -0.1628 -0.1699
  269MOL0     H37053   1.632   8.318   3.812 -0.0498  0.4636 -0.8412
  269MOL0     H37054   1.710   8.318   4.031 -0.0518 -6.0694  0.4048
  269MOL0     H37055   1.840   8.424   4.207 -1.3858 -1.1054  1.5687
  269MOL0     H37056   1.988   8.384   4.279 -2.1439  0.4232  1.5116
  269MOL0     H37057   1.760   8.236   4.340 -2.5718 -1.1594 -1.2640
  269MOL0     H37058   1.828   8.147   4.199 -0.5991 -1.1091  1.4097
  269MOL0     H37059   2.031   8.092   4.314 -1.7774 -0.3120 -2.2162
  269MOL0     H37060   2.003   8.223   4.429 -1.7221  1.6612 -1.1544
  269MOL0     H37061   1.971   7.999   4.538 -0.6858 -2.4665 -0.1765
  269MOL0     H37062   1.829   8.090   4.545 -1.6533 -0.9769 -0.4914
  269MOL0     H37063   1.730   7.966   4.347 -0.1736 -1.6332 -1.5611
  269MOL0     H37064   1.779   7.856   4.471 -0.2837 -1.1564 -2.2667
  269MOL0     H37065   1.839   7.775   4.243  0.7451  0.1314 -1.1405
  269MOL0     H37066   1.943   7.907   4.222 -0.5904 -1.0139 -0.4466
  269MOL0     H37067   2.078   7.852   4.406  1.2202 -0.6762 -1.0834
  269MOL0     H37068   2.087   7.731   4.273  0.9633 -0.4406  1.3837
  269MOL0     H37069   1.925   7.694   4.524  0.2786  1.3750  0.0733
  269MOL0     H37070   1.932   7.577   4.384  2.3080 -1.6073  0.4704
  269MOL0     H37071   2.234   7.566   4.323  1.5655 -2.0147  0.1659
  269MOL0     H37072   2.519   7.498   4.579  0.7677  0.5532 -0.4934
  269MOL0     H37073   2.500   7.531   4.407 -1.0704  0.8794 -0.1381
  269MOL0     H37074   2.438   7.271   4.387  1.9387 -1.4958  0.5284
  269MOL0     H37075   2.596   7.311   4.455  0.2490 -1.5094  1.4163
  269MOL0     H37076   2.507   7.294   4.685 -2.7484  3.4157 -0.3439
  269MOL0     H37077   2.354   7.248   4.625  0.0172  2.3590  0.7246
  269MOL0     H37078   2.467   7.037   4.666 -2.0639  0.3695 -0.4673
  269MOL0     H37079   2.464   7.064   4.492  0.1682  0.3871  0.5054
  269MOL0     H37080   2.581   6.867   4.500 -0.4747  0.8730  2.7480
  269MOL0     H37081   2.601   6.681   4.374  0.3432 -0.5711 -0.5376
  269MOL0     H37082   2.697   6.576   4.469 -1.2145  0.0543  1.1533
  269MOL0     H37083   2.749   6.626   4.302 -2.9988 -2.6401 -0.5690
  269MOL0     H37084   3.142   6.574   4.667 -0.0295  1.1014 -0.4856
  269MOL0     H37085   3.306   6.382   4.719 -0.4925 -2.8807 -0.3872
  269MOL0     H37086   3.454   6.240   4.717 -0.7720 -2.9045  1.8402
  269MOL0     H37087   3.503   6.085   4.654  0.6112 -0.4109 -0.3460
  269MOL0     H37088   3.503   6.324   4.477 -1.7506 -0.4906  0.5669
  269MOL0     H37089   3.618   6.316   4.598 -2.2165 -0.5352  2.5306
  269MOL0     H37090   3.604   6.057   4.456  0.7502  0.8055  1.5765
  269MOL0     H37091   3.749   6.142   4.489  0.0860 -1.5042 -0.2093
  269MOL0     H37092   3.734   6.142   4.259 -0.4410  1.9932 -3.1556
  269MOL0     H37093   3.662   6.306   4.294  0.4437 -0.5931 -0.8445
  269MOL0     H37094   3.523   6.040   4.228  0.9823 -0.1720  1.7006
  269MOL0     H37095   3.436   6.188   4.282 -1.3201  0.9643 -1.7055
  269MOL0     H37096   3.599   6.159   4.034 -0.6727 -0.8199 -1.1456
  269MOL0     H37097   3.534   6.314   4.090 -3.2823 -0.0448 -1.2430
  269MOL0     H37098   3.314   6.227   4.064  0.6015  1.9912 -0.7767
  269MOL0     H37099   3.378   6.078   3.984  0.1296  0.6190 -0.9193
  269MOL0     H37100   3.418   6.357   3.876  2.3285 -0.9845 -0.6556
  269MOL0     H37101   3.292   6.240   3.830 -1.6059  0.5305  2.2749
  269MOL0     H37102   3.196   6.191   4.348  0.6365  0.4001  0.0637
  269MOL0     H37103   3.029   6.387   4.308  0.2031  0.8269 -0.4597
  269MOL0     H37104   3.060   6.953   4.516  0.8762 -0.2374  0.4845
  269MOL0     H37105   2.893   7.128   4.574  2.3829 -0.0193 -1.6941
  269MOL0     H37106   2.114   8.275   3.899 -1.2639  0.6845  1.8912
  269MOL0     H37107   2.042   8.288   3.661  1.0206  0.4243 -0.0041
  269MOL0     H37108   1.813   8.176   3.359 -0.6802 -1.6673 -0.4522
  269MOL0     H37109   1.778   8.153   3.107 -1.3401 -1.5056 -1.2148
  269MOL0     H37110   1.383   8.301   2.959  0.5009 -0.5062  0.7095
  269MOL0     H37111   1.498   8.415   2.887  3.4275 -1.3909 -2.5228
  269MOL0     H37112   1.467   8.127   2.787  3.4705 -1.0688  1.5215
  269MOL0     H37113   1.580   8.257   2.734 -0.4274 -0.3930  0.6071
  269MOL0     H37114   1.273   8.259   2.687 -1.0535 -0.3096 -2.0903
  269MOL0     H37115   1.383   8.396   2.677  3.6802 -0.0460 -0.0264
  269MOL0     H37116   1.523   8.275   2.515  0.4671  0.2279  0.4288
  269MOL0     H37117   1.343   8.280   2.463  0.8908  0.6623 -0.8135
  269MOL0     H37118   1.421   7.874   2.576 -3.5156  0.9658  0.3327
  269MOL0     H37119   1.401   8.367   3.157  1.1217  1.3587 -1.9547
  269MOL0     H37120   1.347   8.389   3.434 -1.1182  0.9866 -0.4018
  269MOL0     H37121   1.477   8.477   3.495 -1.0736 -1.8269  0.8274
  269MOL0     H37122   1.410   8.525   3.341 -2.3362 -0.4526  0.2857
  270MOL0     O37123   2.860  10.060   4.327  0.1358  0.0696  0.5549
  270MOL0     C37124   2.804  10.117   4.417 -0.0147 -0.1460 -0.6799
  270MOL0     O37125   2.864  10.206   4.499 -0.4006 -0.0583 -0.0574
  270MOL0     C37126   2.992  10.249   4.479 -0.3610 -0.5683  0.0799
  270MOL0     C37127   3.048  10.280   4.597  0.0746 -0.9838 -0.0301
  270MOL0     C37128   3.183  10.332   4.596  0.2784 -0.0192  0.4534
  270MOL0     C37129   3.258  10.352   4.475  0.1021 -0.3167 -0.6095
  270MOL0     O37130   3.389  10.399   4.467  0.1432  0.4131  0.3355
  270MOL0     C37131   3.474  10.320   4.540 -0.9404 -0.8498  0.3016
  270MOL0     C37132   3.619  10.357   4.505  0.1685  0.1368 -0.5155
  270MOL0     C37133   3.723  10.291   4.601  0.6143 -0.4547  0.1459
  270MOL0     C37134   3.865  10.328   4.567  0.0402  0.0029 -0.2950
  270MOL0     C37135   3.943  10.349   4.699  0.4444  0.4538  0.6749
  270MOL0     C37136   4.079  10.401   4.672 -0.5639  0.2817 -0.3098
  270MOL0     C37137   4.178  10.413   4.790  0.0369  0.1591 -0.2751
  270MOL0     C37138   4.322  10.471   4.771  0.5836  0.0942  0.0716
  270MOL0     N37139   4.372  10.522   4.892  0.6225 -0.7695 -0.0365
  270MOL0     C37140   4.363  10.655   4.922 -0.1613 -0.5733  0.6479
  270MOL0     C37141   4.438  10.677   5.028  0.5434 -0.0239 -0.1716
  270MOL0     C37142   4.430  10.801   5.109  0.1263 -0.3806  0.3769
  270MOL0     C37143   4.537  10.911   5.072 -0.3294 -0.9062 -0.5105
  270MOL0     C37144   4.658  10.901   5.160 -0.4906 -0.0797  0.3376
  270MOL0     C37145   4.760  11.018   5.136  0.1798  0.4707 -0.1754
  270MOL0     O37146   4.814  11.011   5.007  0.7840 -0.1313 -0.1839
  270MOL0     C37147   4.908  11.095   4.976 -0.5453 -0.6732 -0.6493
  270MOL0     C37148   4.977  11.066   4.854 -0.5455  0.7019  0.1572
  270MOL0     C37149   5.090  11.138   4.814 -0.1110 -0.0741 -0.2240
  270MOL0     C37150   5.156  11.102   4.681  0.6336  0.0701  0.0791
  270MOL0     C37151   5.128  11.252   4.891 -0.1268 -0.6584 -0.7589
  270MOL0     C37152   5.244  11.343   4.860 -0.3150  0.2555  0.8396
  270MOL0     O37153   5.318  11.331   4.743  0.1140 -0.5668 -0.1581
  270MOL0     C37154   5.441  11.394   4.737 -0.2721 -0.1294  0.1145
  270MOL0     C37155   5.472  11.527   4.751 -0.3979  0.3628  1.0818
  270MOL0     C37156   5.606  11.574   4.729 -0.2722  0.6007 -0.6718
  270MOL0     C37157   5.719  11.479   4.699  0.2527 -0.6563  0.5486
  270MOL0     O37158   5.853  11.510   4.695  0.6124  0.6967  0.6270
  270MOL0     C37159   5.894  11.623   4.622  0.4516 -0.2562 -0.7010
  270MOL0     C37160   5.917  11.590   4.480  0.3224  0.6676  0.4261
  270MOL0     C37161   5.918  11.706   4.383 -0.5713 -0.2455  0.0540
  270MOL0     C37162   5.920  11.661   4.238  0.1769  0.7539  0.5743
  270MOL0     C37163   5.852  11.768   4.156  0.7090 -0.4816  0.2784
  270MOL0     C37164   5.920  11.902   4.138 -0.6908 -0.6372 -0.1242
  270MOL0     C37165   5.837  11.987   4.038 -0.0460 -0.0464  0.4671
  270MOL0     C37166   5.912  12.115   4.015 -0.3696  0.0215 -0.1736
  270MOL0    Cl37167   5.876  12.222   4.145 -0.0568  0.1548  0.0564
  270MOL0     C37168   5.679  11.348   4.681 -0.9301  1.4674 -1.4893
  270MOL0     C37169   5.545  11.301   4.704  0.5838 -0.4578  0.1561
  270MOL0     O37170   5.280  11.410   4.955  0.0712  0.0570 -0.7648
  270MOL0     C37171   5.049  11.285   5.008 -0.6282 -0.4454  0.4053
  270MOL0     C37172   4.950  11.206   5.060  0.1871  0.3324  0.6376
  270MOL0     N37173   4.492  10.556   5.067  0.5252  1.0031  0.5002
  270MOL0     N37174   4.457  10.460   4.982 -0.1601  0.2603 -1.0168
  270MOL0     C37175   3.203  10.314   4.363  0.1950  0.7153  0.1420
  270MOL0     C37176   3.072  10.263   4.356 -0.0003  0.2147 -0.1052
  270MOL0     C37177   2.657  10.081   4.435 -0.0985 -0.9539 -0.6877
  270MOL0     C37178   2.603  10.081   4.567  0.3234  0.7200 -0.4364
  270MOL0     C37179   2.476  10.049   4.594  0.1867 -0.0772  1.1347
  270MOL0     C37180   2.389  10.003   4.496  0.2011 -0.7105 -0.0865
  270MOL0     O37181   2.264   9.950   4.517 -0.2931  0.7411  0.2554
  270MOL0     C37182   2.234   9.919   4.653 -0.0152 -0.7673 -0.2636
  270MOL0     C37183   2.108   9.819   4.654  0.2136 -0.3495 -0.1630
  270MOL0     C37184   2.136   9.675   4.594 -0.6730 -0.2929  0.2246
  270MOL0     C37185   2.257   9.615   4.668  0.9121 -0.6093 -0.0567
  270MOL0     C37186   2.258   9.466   4.625  0.3139 -0.3882  1.1121
  270MOL0     C37187   2.239   9.351   4.591 -0.0220 -0.1133 -0.0713
  270MOL0     C37188   2.435  10.017   4.368  0.0548 -0.1791 -0.4364
  270MOL0     C37189   2.565  10.050   4.330 -0.8796 -0.7807  0.1351
  270MOL0     C37190   2.587  10.066   4.177  0.2436 -0.5599  0.1788
  270MOL0     H37191   2.992  10.278   4.690 -0.9126  0.4298 -0.5520
  270MOL0     H37192   3.230  10.359   4.690 -2.5879  0.5414  1.8357
  270MOL0     H37193   3.456  10.213   4.522 -2.0253 -0.3954 -1.6028
  270MOL0     H37194   3.462  10.351   4.644  1.7168  1.1150  0.0942
  270MOL0     H37195   3.634  10.314   4.406 -0.1075  0.3237 -0.6414
  270MOL0     H37196   3.638  10.465   4.498  3.7362 -0.0009  3.4738
  270MOL0     H37197   3.705  10.339   4.697  0.4835  4.1366 -1.8901
  270MOL0     H37198   3.711  10.182   4.596 -1.2773 -0.4220  2.3041
  270MOL0     H37199   3.904  10.248   4.503  1.6574 -0.0859  0.7588
  270MOL0     H37200   3.858  10.420   4.508 -0.9026 -0.2980 -0.6787
  270MOL0     H37201   3.955  10.251   4.746  0.7572 -1.1837 -2.5344
  270MOL0     H37202   3.884  10.419   4.759 -0.8209  1.0059 -1.1430
  270MOL0     H37203   4.124  10.349   4.586 -3.7238 -0.4323 -1.6841
  270MOL0     H37204   4.080  10.505   4.639  0.4280  0.7144  1.0029
  270MOL0     H37205   4.186  10.313   4.835 -0.8332  0.4791  0.6183
  270MOL0     H37206   4.146  10.481   4.869  0.1667 -0.2255  0.1104
  270MOL0     H37207   4.381  10.383   4.745 -1.2788 -1.1624 -0.0368
  270MOL0     H37208   4.319  10.546   4.691 -1.6799  1.6355  1.4890
  270MOL0     H37209   4.293  10.728   4.882 -0.1866 -1.2138 -0.4994
  270MOL0     H37210   4.431  10.765   5.212  2.0086 -2.2623 -0.2285
  270MOL0     H37211   4.340  10.858   5.082  1.2066  1.0024 -0.4383
  270MOL0     H37212   4.559  10.903   4.965 -3.8505  2.2279 -1.6937
  270MOL0     H37213   4.494  11.011   5.078 -1.7451 -1.5571  3.3472
  270MOL0     H37214   4.635  10.894   5.267  3.1854  0.2181  1.2984
  270MOL0     H37215   4.711  10.809   5.134  0.3737  1.4153 -3.8386
  270MOL0     H37216   4.712  11.112   5.163 -2.7546 -0.8979 -0.1811
  270MOL0     H37217   4.838  11.000   5.210 -0.1899 -0.2953  0.0327
  270MOL0     H37218   4.951  10.987   4.785  2.8659  1.0814 -1.7998
  270MOL0     H37219   5.097  11.028   4.628 -1.4952  1.8177 -0.1457
  270MOL0     H37220   5.262  11.076   4.691  0.6422 -0.0007 -0.1958
  270MOL0     H37221   5.147  11.188   4.614 -2.3831 -0.3702 -0.1993
  270MOL0     H37222   5.394  11.600   4.772 -2.2566 -1.4789  0.9414
  270MOL0     H37223   5.639  11.673   4.758 -1.0887  0.4127  1.0421
  270MOL0     H37224   5.816  11.699   4.633 -2.7268 -2.7903 -3.5425
  270MOL0     H37225   5.986  11.649   4.675 -1.1272  1.4823  1.3182
  270MOL0     H37226   6.014  11.540   4.479  1.2613  2.4230  0.1866
  270MOL0     H37227   5.839  11.517   4.451 -1.9793  2.3140  2.1202
  270MOL0     H37228   6.007  11.764   4.410 -0.4129 -0.0389 -0.8692
  270MOL0     H37229   5.831  11.770   4.403  1.1065  2.0381  0.3734
  270MOL0     H37230   5.875  11.563   4.227  1.8455 -0.2683  2.2367
  270MOL0     H37231   6.023  11.657   4.202  0.6170  0.3777  1.8239
  270MOL0     H37232   5.836  11.721   4.058 -0.5992  0.1331  0.1677
  270MOL0     H37233   5.752  11.795   4.191 -0.0687  1.5884 -3.1467
  270MOL0     H37234   6.019  11.871   4.103 -0.6657  0.2853 -0.8943
  270MOL0     H37235   5.939  11.948   4.235  0.7678 -1.3586 -0.0309
  270MOL0     H37236   5.741  12.003   4.090 -0.0224  0.3700  0.3813
  270MOL0     H37237   5.821  11.932   3.945  2.1474 -2.1752  1.2661
  270MOL0     H37238   5.879  12.163   3.922 -0.5581 -2.1294 -1.2807
  270MOL0     H37239   6.018  12.088   4.013 -0.9349 -3.1203  2.7175
  270MOL0     H37240   5.756  11.273   4.670 -1.7588  0.2880  0.1362
  270MOL0     H37241   5.524  11.195   4.695 -0.9585 -0.4240  2.4844
  270MOL0     H37242   5.085  11.358   5.080 -2.0497  1.0955 -0.3885
  270MOL0     H37243   4.906  11.239   5.153  0.6129 -3.6346  2.4801
  270MOL0     H37244   3.248  10.334   4.266 -0.4360  0.5282 -0.2005
  270MOL0     H37245   3.027  10.229   4.264 -0.0667  1.0377 -0.3843
  270MOL0     H37246   2.676  10.107   4.642 -1.0266  0.2055  1.1034
  270MOL0     H37247   2.436  10.046   4.695 -2.1402 -1.6302  0.2475
  270MOL0     H37248   2.318   9.864   4.697  0.7717 -2.4231 -3.5580
  270MOL0     H37249   2.213  10.013   4.706  0.5843  1.0858 -3.1361
  270MOL0     H37250   2.015   9.845   4.604 -1.5794 -5.5326 -0.1622
  270MOL0     H37251   2.079   9.811   4.759  3.0160  0.1039  0.7446
  270MOL0     H37252   2.049   9.612   4.609 -1.4486  0.0483 -2.3827
  270MOL0     H37253   2.158   9.681   4.487 -1.0618 -3.0504 -0.0809
  270MOL0     H37254   2.242   9.639   4.774 -2.6569  2.6978 -1.0987
  270MOL0     H37255   2.346   9.664   4.628  0.4679 -1.5254 -2.3176
  270MOL0     H37256   2.218   9.251   4.558 -0.5014 -0.1980  0.4808
  270MOL0     H37257   2.352  10.002   4.299  0.4780  1.0281 -1.2399
  270MOL0     H37258   2.639   9.984   4.126  1.2643  0.1646  0.0300
  270MOL0     H37259   2.489  10.071   4.130  0.5931 -0.4543 -0.5495
  270MOL0     H37260   2.631  10.164   4.159  1.5247 -0.9794  0.8453
  271MOL0     O37261   2.448   5.194  11.065  0.5304  0.4806 -0.0238
  271MOL0     C37262   2.504   5.172  11.169  0.1194  0.6401 -0.1547
  271MOL0     O37263   2.470   5.069  11.254 -0.6921  0.7674 -0.1737
  271MOL0     C37264   2.351   5.002  11.267  1.2309 -1.0842 -0.7140
  271MOL0     C37265   2.221   5.046  11.212  0.1409  0.8168 -0.4515
  271MOL0     C37266   2.110   4.969  11.222  0.3174 -0.4895  0.0481
  271MOL0     C37267   2.113   4.855  11.297  0.0217  0.6064 -1.2795
  271MOL0     O37268   2.003   4.774  11.310  0.2544 -0.1101  0.6625
  271MOL0     C37269   2.007   4.632  11.347  0.1441 -0.3227  0.2615
  271MOL0     C37270   1.863   4.583  11.378 -0.6111 -0.0940  0.5329
  271MOL0     C37271   1.864   4.443  11.416  0.3556 -1.3836  0.4763
  271MOL0     C37272   1.914   4.413  11.561  0.0511  0.2996 -0.0814
  271MOL0     C37273   1.865   4.276  11.605  0.9653  0.5307 -0.9353
  271MOL0     C37274   1.910   4.230  11.745  0.1639  0.2256  0.2116
  271MOL0     C37275   1.847   4.089  11.770 -0.1100 -0.6046  0.3395
  271MOL0     C37276   1.875   4.030  11.902  0.4189 -0.2687  0.0101
  271MOL0     N37277   2.015   4.005  11.924 -0.8788 -0.1364 -0.2601
  271MOL0     C37278   2.062   3.933  12.032  0.4460 -0.3430  0.3229
  271MOL0     C37279   2.191   3.902  12.005 -0.5327 -0.3088  0.9559
  271MOL0     C37280   2.282   3.801  12.080  0.0522 -0.3443 -0.0714
  271MOL0     C37281   2.201   3.676  12.124  0.8157  0.1054  0.3006
  271MOL0     C37282   2.283   3.559  12.157 -0.7738 -0.1637  0.4795
  271MOL0     C37283   2.366   3.582  12.286 -0.1693  1.0818 -0.1599
  271MOL0     O37284   2.458   3.690  12.277  0.2088 -0.6131  0.0927
  271MOL0     C37285   2.580   3.688  12.215 -0.1100 -1.3191 -0.0741
  271MOL0     C37286   2.645   3.578  12.162  1.0997  0.1612 -0.2788
  271MOL0     C37287   2.776   3.585  12.117 -0.6916 -0.1921  0.3282
  271MOL0     C37288   2.843   3.464  12.053 -0.4486 -0.6843 -0.0220
  271MOL0     C37289   2.841   3.713  12.117  0.4814  0.6774  0.3756
  271MOL0     C37290   2.974   3.736  12.059  0.8544 -0.5073  0.0619
  271MOL0     O37291   3.061   3.816  12.133 -0.5977  0.2823 -0.2931
  271MOL0     C37292   3.194   3.830  12.099  0.3680  0.6486  0.0034
  271MOL0     C37293   3.277   3.727  12.053 -0.4585  0.4952 -0.1418
  271MOL0     C37294   3.404   3.753  12.010 -0.0028 -0.1502  0.3225
  271MOL0     C37295   3.465   3.882  12.018 -0.1128 -0.2304  0.3822
  271MOL0     O37296   3.595   3.909  11.991  0.3733 -0.2021  0.1651
  271MOL0     C37297   3.666   3.824  11.900 -0.5180  0.2258 -0.5856
  271MOL0     C37298   3.764   3.906  11.830 -0.4669 -0.2029 -0.2479
  271MOL0     C37299   3.869   3.971  11.913  0.3947 -0.2412 -0.6862
  271MOL0     C37300   3.970   3.875  11.982  0.5675 -0.0705  0.5379
  271MOL0     C37301   4.078   3.948  12.062 -1.5413 -0.2520 -0.7400
  271MOL0     C37302   4.032   4.036  12.188  0.4789  1.4875  0.1511
  271MOL0     C37303   4.148   4.124  12.207 -0.4454  1.1791 -0.5730
  271MOL0     C37304   4.115   4.216  12.322  0.5494 -0.4838  0.5215
  271MOL0    Cl37305   4.016   4.342  12.256 -0.0382  0.4160 -0.1925
  271MOL0     C37306   3.388   3.978  12.086 -0.4930 -0.1792  0.4233
  271MOL0     C37307   3.246   3.956  12.116  0.7419 -0.4534 -0.0842
  271MOL0     O37308   2.994   3.693  11.948 -0.6903  0.0885 -0.8440
  271MOL0     C37309   2.777   3.820  12.184 -0.3970 -0.0732  0.1929
  271MOL0     C37310   2.642   3.803  12.223 -0.5038 -0.9203  0.5871
  271MOL0     N37311   2.221   3.957  11.883 -0.4253  0.5854  0.2151
  271MOL0     N37312   2.119   4.016  11.829  0.2445 -0.2369 -0.0347
  271MOL0     C37313   2.236   4.812  11.361 -0.0886  0.1577  0.7174
  271MOL0     C37314   2.356   4.886  11.346 -0.8992 -0.1197  0.0612
  271MOL0     C37315   2.637   5.247  11.176 -0.1492 -0.1005 -0.2488
  271MOL0     C37316   2.656   5.369  11.103 -0.4560  0.8748  0.1446
  271MOL0     C37317   2.778   5.448  11.113  0.7021  0.0488 -0.6459
  271MOL0     C37318   2.879   5.405  11.202 -0.1453 -0.1037  0.4444
  271MOL0     O37319   2.995   5.470  11.223  0.0030  0.8325 -0.0410
  271MOL0     C37320   3.088   5.456  11.113 -0.4354  0.4875  0.7568
  271MOL0     C37321   3.241   5.479  11.153 -0.1128  0.2548 -0.5157
  271MOL0     C37322   3.322   5.495  11.030  0.1953 -0.9380 -0.2442
  271MOL0     C37323   3.346   5.373  10.940  0.5621 -0.3406 -0.9802
  271MOL0     C37324   3.456   5.287  10.994  0.7263  0.9979 -0.1826
  271MOL0     C37325   3.549   5.219  11.028  0.0720 -0.0846 -0.7798
  271MOL0     C37326   2.867   5.285  11.272 -0.5036  1.2485 -0.2222
  271MOL0     C37327   2.746   5.207  11.259  0.5415 -0.2358  1.4183
  271MOL0     C37328   2.745   5.082  11.336  0.2225  0.5006 -0.3367
  271MOL0     H37329   2.218   5.140  11.157  1.4641  2.0683  1.4837
  271MOL0     H37330   2.026   5.010  11.165  0.8248  0.8684  0.2277
  271MOL0     H37331   2.072   4.628  11.435  4.0270  3.6205 -2.0769
  271MOL0     H37332   2.054   4.579  11.264  0.9475  0.9589 -0.1237
  271MOL0     H37333   1.806   4.641  11.451  0.7794 -0.7816  2.2235
  271MOL0     H37334   1.805   4.579  11.285 -1.5280 -0.6410  1.1069
  271MOL0     H37335   1.759   4.411  11.419  0.7533 -3.3465 -2.3038
  271MOL0     H37336   1.912   4.379  11.341  0.8319 -0.3655 -0.1144
  271MOL0     H37337   2.023   4.419  11.568  0.0163  0.3826  0.4758
  271MOL0     H37338   1.885   4.489  11.634  0.3847  0.4699 -0.1245
  271MOL0     H37339   1.902   4.203  11.532 -0.1429 -0.5272 -0.4572
  271MOL0     H37340   1.756   4.275  11.599  1.0095  1.5552 -2.7108
  271MOL0     H37341   2.019   4.233  11.750  0.2527 -1.5990 -0.0709
  271MOL0     H37342   1.882   4.303  11.821 -1.3632  0.1550 -0.2413
  271MOL0     H37343   1.869   4.016  11.692  1.6259 -0.9406  1.0994
  271MOL0     H37344   1.738   4.102  11.768 -0.2068 -1.1931  1.2414
  271MOL0     H37345   1.838   4.084  11.989 -0.3610 -1.1891  0.2725
  271MOL0     H37346   1.817   3.937  11.903  0.5621 -0.3588 -0.0431
  271MOL0     H37347   2.004   3.895  12.115 -0.8643 -0.9343 -0.8219
  271MOL0     H37348   2.340   3.840  12.165 -0.6557 -0.8112  0.6328
  271MOL0     H37349   2.355   3.767  12.005  2.0773  1.1984  1.1023
  271MOL0     H37350   2.136   3.699  12.209  1.8521 -1.5100  1.6022
  271MOL0     H37351   2.143   3.642  12.038  0.3882  2.5146 -0.4505
  271MOL0     H37352   2.216   3.477  12.182 -1.3005 -1.3026 -3.8818
  271MOL0     H37353   2.351   3.521  12.080  1.3133 -1.0876  2.6565
  271MOL0     H37354   2.301   3.595  12.373 -2.8668 -1.8575 -1.5107
  271MOL0     H37355   2.428   3.493  12.301  0.1618  1.3799  0.2618
  271MOL0     H37356   2.604   3.478  12.165  3.5018 -0.8751  1.0477
  271MOL0     H37357   2.826   3.472  11.946 -0.4077  2.2232  0.1058
  271MOL0     H37358   2.819   3.368  12.099 -1.7221 -0.4662 -0.1965
  271MOL0     H37359   2.951   3.473  12.069 -0.4853 -0.2237 -0.0262
  271MOL0     H37360   3.245   3.625  12.034  1.3542  0.2953 -2.4862
  271MOL0     H37361   3.453   3.670  11.960  0.2984 -0.3881  1.0110
  271MOL0     H37362   3.717   3.735  11.938  0.8810 -0.4588 -3.7933
  271MOL0     H37363   3.599   3.780  11.826  0.5151 -0.1708 -1.3004
  271MOL0     H37364   3.829   3.848  11.763  2.4185  2.3061  0.1411
  271MOL0     H37365   3.711   3.983  11.774 -2.4200 -0.1438  1.5677
  271MOL0     H37366   3.822   4.032  11.990  0.6498  0.2872 -0.9423
  271MOL0     H37367   3.928   4.035  11.846  0.3211 -1.4500 -1.9517
  271MOL0     H37368   4.021   3.809  11.911  0.2659  0.4735 -0.2000
  271MOL0     H37369   3.905   3.815  12.047  0.4168 -0.8681 -0.3251
  271MOL0     H37370   4.155   3.873  12.086  0.8267  1.6500 -1.9403
  271MOL0     H37371   4.128   4.021  11.998 -0.6832  1.5871  1.8559
  271MOL0     H37372   4.013   3.972  12.274 -0.8967  1.4095 -0.1761
  271MOL0     H37373   3.941   4.093  12.168  0.3304  0.9790 -0.7021
  271MOL0     H37374   4.166   4.187  12.119 -0.2444  0.8060 -0.7984
  271MOL0     H37375   4.238   4.068  12.231 -0.8840  0.3521 -0.8013
  271MOL0     H37376   4.207   4.254  12.369 -0.0447 -1.0496  2.1746
  271MOL0     H37377   4.074   4.168  12.411  0.2340 -0.5195  0.3562
  271MOL0     H37378   3.423   4.077  12.110  1.1753  0.0417 -2.5078
  271MOL0     H37379   3.189   4.044  12.143  0.0289 -0.8624 -0.2265
  271MOL0     H37380   2.828   3.916  12.190 -1.1347  0.4634 -1.4336
  271MOL0     H37381   2.592   3.866  12.295 -1.1571 -2.0066  1.1192
  271MOL0     H37382   2.253   4.728  11.427  1.5491  1.7510  2.4765
  271MOL0     H37383   2.445   4.854  11.399  1.2303 -1.1364 -3.8089
  271MOL0     H37384   2.577   5.403  11.037 -0.2473 -0.9995 -1.1245
  271MOL0     H37385   2.790   5.547  11.070 -1.7348  1.2578  1.1763
  271MOL0     H37386   3.090   5.359  11.062  1.5905  0.9774 -0.1943
  271MOL0     H37387   3.061   5.516  11.025  2.0317 -3.0261 -2.7225
  271MOL0     H37388   3.282   5.394  11.209  2.0944 -0.5658 -3.1603
  271MOL0     H37389   3.270   5.569  11.208  1.7148 -1.5867  1.6950
  271MOL0     H37390   3.275   5.568  10.963  1.1117  0.6411  0.7623
  271MOL0     H37391   3.418   5.525  11.071 -0.6018 -0.2283  1.1975
  271MOL0     H37392   3.373   5.395  10.836 -1.1740  0.7310 -1.2438
  271MOL0     H37393   3.250   5.320  10.938 -0.2655  1.0809 -0.4367
  271MOL0     H37394   3.630   5.152  11.044 -0.1244  0.2289  1.9815
  271MOL0     H37395   2.950   5.263  11.338  0.1894  2.9959 -0.4645
  271MOL0     H37396   2.741   4.992  11.273  0.6665  2.0597 -2.7460
  271MOL0     H37397   2.838   5.067  11.391 -1.7461  0.1669  3.2097
  271MOL0     H37398   2.667   5.069  11.411 -0.5292 -1.7096 -1.3903
  272MOL0     O37399   2.640   2.566  10.496  0.4682  0.3541 -0.8088
  272MOL0     C37400   2.682   2.590  10.610 -0.6581 -0.7079  0.0856
  272MOL0     O37401   2.614   2.661  10.704  0.3391  0.1464  0.2475
  272MOL0     C37402   2.507   2.731  10.666  0.7074 -0.1256  0.1719
  272MOL0     C37403   2.382   2.671  10.669 -0.1811  0.3857  0.1690
  272MOL0     C37404   2.264   2.737  10.628 -0.4244 -0.6055  0.7551
  272MOL0     C37405   2.275   2.870  10.579  0.1991  1.3138  0.0064
  272MOL0     O37406   2.162   2.917  10.520 -0.5194  0.0590  0.3848
  272MOL0     C37407   2.159   3.055  10.482 -0.0010  0.3687 -0.4361
  272MOL0     C37408   2.030   3.109  10.417 -0.5233 -0.1755  0.0658
  272MOL0     C37409   1.974   3.010  10.313  0.0623 -0.1000 -1.2561
  272MOL0     C37410   2.055   2.979  10.193  1.1246  0.0223  0.3290
  272MOL0     C37411   1.959   2.900  10.101  1.0446  0.0156  0.7946
  272MOL0     C37412   2.039   2.834   9.994 -0.9496  0.2541  0.3865
  272MOL0     C37413   1.952   2.757   9.890 -0.6491  0.1905  0.4998
  272MOL0     C37414   2.046   2.668   9.805  0.0725  0.2354  0.2285
  272MOL0     N37415   1.990   2.571   9.710  0.0042 -0.0711 -0.4556
  272MOL0     C37416   1.899   2.467   9.733 -0.3995  0.1234  0.6821
  272MOL0     C37417   1.873   2.411   9.613 -0.4989  1.5034 -0.2080
  272MOL0     C37418   1.795   2.284   9.583 -0.6149  0.4145 -0.2128
  272MOL0     C37419   1.682   2.243   9.674  0.4025 -1.4328 -0.3808
  272MOL0     C37420   1.579   2.135   9.626  0.3981  0.3692 -0.0364
  272MOL0     C37421   1.474   2.108   9.725  0.1483  0.2872 -0.4901
  272MOL0     O37422   1.381   2.019   9.676  0.0840 -0.0992 -0.1156
  272MOL0     C37423   1.274   1.985   9.756  0.1682 -0.0229  0.6043
  272MOL0     C37424   1.239   2.062   9.867  0.4156  1.3172  0.0680
  272MOL0     C37425   1.117   2.030   9.928  0.4951 -0.6465  0.2311
  272MOL0     C37426   1.057   2.120  10.032 -0.1451  0.3331 -1.0850
  272MOL0     C37427   1.031   1.926   9.880  0.8168 -0.1863  0.7923
  272MOL0     C37428   0.893   1.891   9.931  0.6833  0.3622 -0.5307
  272MOL0     O37429   0.800   1.858   9.841  0.6729  0.2028 -0.7497
  272MOL0     C37430   0.689   1.775   9.851 -0.4932  0.7209 -0.0297
  272MOL0     C37431   0.626   1.759   9.727 -0.3620 -0.5245  1.0471
  272MOL0     C37432   0.513   1.682   9.724  0.7932  0.8365  1.3937
  272MOL0     C37433   0.463   1.611   9.838 -0.1800 -1.0955 -0.2108
  272MOL0     O37434   0.361   1.525   9.832  0.4947  0.0681 -0.2584
  272MOL0     C37435   0.394   1.386   9.803 -0.4272 -1.0267  0.1491
  272MOL0     C37436   0.268   1.308   9.768  0.3129  0.2906  0.7913
  272MOL0     C37437   0.187   1.276   9.889 -0.3702  0.3000 -0.1539
  272MOL0     C37438   0.063   1.191   9.865 -0.6179 -0.0614 -0.2721
  272MOL0     C37439  -0.044   1.216   9.972 -0.3571 -0.7349 -0.1895
  272MOL0     C37440  -0.154   1.122   9.962 -0.1189  0.6718 -0.9896
  272MOL0     C37441  -0.278   1.163  10.034 -0.1180 -0.2229 -0.0029
  272MOL0     C37442  -0.259   1.210  10.180 -0.9261  0.5098 -0.1804
  272MOL0    Cl37443  -0.397   1.276  10.268 -0.1053 -0.0833  0.5479
  272MOL0     C37444   0.518   1.646   9.962  0.0034 -0.6353 -0.0651
  272MOL0     C37445   0.630   1.718   9.963  0.4027  0.5393 -0.1254
  272MOL0     O37446   0.876   1.880  10.053  0.6353 -0.0293  0.2846
  272MOL0     C37447   1.080   1.845   9.775  0.1039  0.5326 -0.4788
  272MOL0     C37448   1.198   1.877   9.710  0.4329 -0.0230 -0.8302
  272MOL0     N37449   1.955   2.481   9.519 -0.1703  0.0678 -0.4032
  272MOL0     N37450   2.012   2.585   9.577  0.4538  0.3426  0.4428
  272MOL0     C37451   2.401   2.930  10.591  0.1417 -0.6887 -0.7773
  272MOL0     C37452   2.511   2.866  10.638  0.1718 -0.6937 -0.5184
  272MOL0     C37453   2.810   2.525  10.645 -0.4964  0.4966  0.2696
  272MOL0     C37454   2.840   2.501  10.782  0.2221  0.3757  0.9004
  272MOL0     C37455   2.965   2.444  10.812 -0.5597  0.6848 -0.4070
  272MOL0     C37456   3.060   2.406  10.720  0.3362  0.2227 -0.6689
  272MOL0     O37457   3.174   2.345  10.769  0.0926 -0.0096 -0.2796
  272MOL0     C37458   3.236   2.237  10.700  0.0266 -0.7702 -0.4964
  272MOL0     C37459   3.260   2.125  10.792  0.5743  0.2282 -0.3371
  272MOL0     C37460   3.398   2.129  10.845  0.2910  0.3721 -0.0674
  272MOL0     C37461   3.422   2.103  10.998  0.4793  0.0313 -0.0636
  272MOL0     C37462   3.547   2.031  11.022 -0.2833  0.0833 -0.3039
  272MOL0     C37463   3.638   1.953  11.068  0.0466  0.5869  0.3176
  272MOL0     C37464   3.028   2.422  10.585 -0.4059  0.6513  0.4640
  272MOL0     C37465   2.901   2.480  10.545  0.1329 -0.1417 -0.0595
  272MOL0     C37466   2.891   2.499  10.394 -0.1094  0.0336 -0.8585
  272MOL0     H37467   2.369   2.564  10.682 -0.9198 -0.0852 -3.4334
  272MOL0     H37468   2.174   2.676  10.624 -1.4941  0.9734 -0.3377
  272MOL0     H37469   2.238   3.070  10.408  0.4451  0.0015 -0.0314
  272MOL0     H37470   2.179   3.120  10.568 -3.1086  0.3457  0.4369
  272MOL0     H37471   1.951   3.132  10.489 -1.4169  0.3595 -1.0428
  272MOL0     H37472   2.050   3.205  10.368 -2.4544  0.0308 -0.3957
  272MOL0     H37473   1.943   2.917  10.361  4.5220 -0.1741  2.0433
  272MOL0     H37474   1.881   3.058  10.281 -1.5965 -1.9249  0.5204
  272MOL0     H37475   2.103   3.063  10.140  2.0076 -2.1431 -2.5504
  272MOL0     H37476   2.134   2.908  10.218  0.8124 -1.3483 -2.2291
  272MOL0     H37477   1.884   2.962  10.051 -0.0009 -2.7514 -1.3881
  272MOL0     H37478   1.906   2.819  10.152  1.0395 -1.7092 -1.7466
  272MOL0     H37479   2.105   2.902   9.940 -1.4717 -1.0624 -2.0875
  272MOL0     H37480   2.103   2.765  10.049 -0.5753 -0.3990 -0.8350
  272MOL0     H37481   1.901   2.826   9.822  0.2549  1.0975  0.7157
  272MOL0     H37482   1.876   2.698   9.943  0.2670 -0.5142  1.0690
  272MOL0     H37483   2.125   2.722   9.751  0.0222 -0.6067 -0.7130
  272MOL0     H37484   2.108   2.605   9.870 -1.2055  0.1155  1.3738
  272MOL0     H37485   1.858   2.433   9.828 -0.9855 -1.7398 -0.1901
  272MOL0     H37486   1.872   2.207   9.592  1.7922  2.8555  2.0047
  272MOL0     H37487   1.762   2.285   9.479 -0.9524  1.2146 -0.1100
  272MOL0     H37488   1.716   2.207   9.772  1.2169 -0.0779 -0.1253
  272MOL0     H37489   1.634   2.341   9.683  2.8696 -0.2136  0.5732
  272MOL0     H37490   1.527   2.180   9.541  1.6175  0.5604 -0.7197
  272MOL0     H37491   1.627   2.042   9.591 -0.2014 -0.0944  0.3580
  272MOL0     H37492   1.516   2.068   9.818 -3.1949 -2.9611 -0.1799
  272MOL0     H37493   1.436   2.205   9.758 -0.0125  0.4039 -1.0096
  272MOL0     H37494   1.294   2.153   9.887 -2.7872  3.3195  0.6010
  272MOL0     H37495   0.953   2.147  10.012 -0.1413 -0.7504 -2.6937
  272MOL0     H37496   1.114   2.212  10.050 -1.3077  0.9323 -0.3284
  272MOL0     H37497   1.048   2.067  10.127 -1.2826 -0.6975 -1.7472
  272MOL0     H37498   0.656   1.818   9.641 -0.9957 -0.7883  0.6381
  272MOL0     H37499   0.467   1.672   9.627  2.7833  0.0682  0.4597
  272MOL0     H37500   0.472   1.389   9.726  0.9600 -1.1273  1.5126
  272MOL0     H37501   0.437   1.334   9.889  0.8932 -0.6364 -0.2511
  272MOL0     H37502   0.216   1.363   9.688  0.9005  1.6549  1.3092
  272MOL0     H37503   0.302   1.214   9.724 -1.8449  0.3903 -1.3020
  272MOL0     H37504   0.164   1.373   9.933  5.0697  1.1914  1.3588
  272MOL0     H37505   0.255   1.232   9.962  1.4015  0.5599 -1.5825
  272MOL0     H37506   0.096   1.087   9.850 -2.0694 -0.6127  0.1614
  272MOL0     H37507   0.027   1.217   9.765  3.0175 -0.3469 -1.8367
  272MOL0     H37508   0.003   1.201  10.070 -2.5978  1.2828  1.3115
  272MOL0     H37509  -0.080   1.317   9.951 -0.2432 -1.0667 -2.1006
  272MOL0     H37510  -0.113   1.022   9.980  0.5045  0.4130 -3.4539
  272MOL0     H37511  -0.181   1.122   9.856 -0.8015 -1.2971 -0.8587
  272MOL0     H37512  -0.354   1.085  10.030 -2.2785  1.8047 -1.1557
  272MOL0     H37513  -0.313   1.244   9.970 -0.4200 -0.1757  0.2213
  272MOL0     H37514  -0.172   1.275  10.190  0.1279 -0.8968 -0.0644
  272MOL0     H37515  -0.223   1.121  10.231  2.1212  0.8225 -1.5844
  272MOL0     H37516   0.489   1.599  10.055  2.6621 -0.1663  1.0771
  272MOL0     H37517   0.687   1.738  10.053  1.5198  0.0128 -0.7084
  272MOL0     H37518   1.023   1.763   9.734  0.7898  1.2873 -3.1298
  272MOL0     H37519   1.241   1.825   9.625 -0.5085 -0.8557 -0.8111
  272MOL0     H37520   2.409   3.033  10.558 -1.9248  0.0350  0.7313
  272MOL0     H37521   2.606   2.913  10.662  0.6977 -2.1216  0.3448
  272MOL0     H37522   2.760   2.531  10.849 -1.0643 -0.9335  0.0022
  272MOL0     H37523   2.992   2.424  10.915  0.8651 -1.5998 -1.1391
  272MOL0     H37524   3.177   2.213  10.611  0.0972 -0.2975 -0.6721
  272MOL0     H37525   3.333   2.274  10.664  1.0901 -3.0432 -0.1506
  272MOL0     H37526   3.237   2.034  10.735 -0.6741 -0.1125  0.6611
  272MOL0     H37527   3.186   2.126  10.873 -1.4819 -0.8431 -2.0944
  272MOL0     H37528   3.461   2.066  10.781  1.0954  0.9247  0.1655
  272MOL0     H37529   3.440   2.229  10.827 -0.0868  0.0497 -3.2241
  272MOL0     H37530   3.345   2.033  11.032 -0.2133  2.0019  2.7703
  272MOL0     H37531   3.403   2.196  11.053 -2.2129  0.9459 -2.2667
  272MOL0     H37532   3.715   1.887  11.102  0.6409 -0.3154 -2.4936
  272MOL0     H37533   3.107   2.398  10.515 -0.2424 -3.0158  1.7339
  272MOL0     H37534   2.864   2.404  10.349  0.6750 -0.9169  0.5918
  272MOL0     H37535   2.817   2.575  10.366  0.3938  1.5761  1.6230
  272MOL0     H37536   2.976   2.547  10.344 -1.8397  3.5387 -0.7856
  273MOL0     O37537   2.049   6.629   8.730 -0.3785 -0.3821 -0.3815
  273MOL0     C37538   1.941   6.607   8.678 -0.4786  0.3339  0.1482
  273MOL0     O37539   1.852   6.517   8.732 -0.9017 -0.8490  0.0363
  273MOL0     C37540   1.895   6.437   8.832 -0.1695  0.9970  0.6044
  273MOL0     C37541   1.872   6.490   8.961  0.2859 -0.2236  0.5780
  273MOL0     C37542   1.922   6.419   9.076  0.9920 -0.3021 -0.3555
  273MOL0     C37543   2.002   6.310   9.060  0.6922 -0.8797 -0.1600
  273MOL0     O37544   2.058   6.271   9.176 -0.3504 -0.3292 -0.2690
  273MOL0     C37545   2.134   6.144   9.187 -0.0962 -0.1183 -0.8384
  273MOL0     C37546   2.192   6.145   9.326  0.0667 -0.8432  0.2549
  273MOL0     C37547   2.300   6.255   9.338  0.9070  0.1727 -0.0367
  273MOL0     C37548   2.384   6.251   9.460  0.1550 -0.0174 -1.0488
  273MOL0     C37549   2.428   6.394   9.492  0.4546  0.0296  0.5300
  273MOL0     C37550   2.541   6.389   9.584 -0.1520 -0.2732 -0.2974
  273MOL0     C37551   2.671   6.353   9.507 -0.0995 -0.8429 -0.3239
  273MOL0     C37552   2.777   6.328   9.618 -0.5336 -0.3957  0.0766
  273MOL0     N37553   2.844   6.447   9.660 -0.5256 -0.4989  0.0527
  273MOL0     C37554   2.831   6.509   9.783  1.1275 -0.0459  0.0146
  273MOL0     C37555   2.904   6.623   9.784  0.3348  0.6395 -0.5554
  273MOL0     C37556   2.925   6.717   9.902  0.3385 -0.1442 -0.0138
  273MOL0     C37557   2.959   6.857   9.860 -0.1509 -0.0521 -0.7002
  273MOL0     C37558   2.835   6.930   9.827 -0.3605  0.7736  0.4877
  273MOL0     C37559   2.734   6.955   9.940 -0.0570 -0.7587 -1.4873
  273MOL0     O37560   2.803   7.070  10.011  0.0733 -0.8462  0.3669
  273MOL0     C37561   2.750   7.130  10.119  0.6661 -0.5365 -0.9699
  273MOL0     C37562   2.804   7.254  10.160 -0.0365  0.0481 -0.6910
  273MOL0     C37563   2.746   7.328  10.263 -0.2209  0.6782 -0.0141
  273MOL0     C37564   2.787   7.466  10.280 -1.3578 -0.2258  0.2134
  273MOL0     C37565   2.638   7.273  10.331  0.3643  0.0909  0.8363
  273MOL0     C37566   2.569   7.338  10.447  0.3274  0.0036 -0.9990
  273MOL0     O37567   2.460   7.271  10.499  0.0202 -0.1008  1.0079
  273MOL0     C37568   2.421   7.307  10.629 -0.5021  0.0294  0.8070
  273MOL0     C37569   2.447   7.223  10.745  0.0315 -0.3937  0.1777
  273MOL0     C37570   2.404   7.257  10.873  0.0218 -0.2725  0.8781
  273MOL0     C37571   2.331   7.374  10.892 -0.1689  0.2862  0.6214
  273MOL0     O37572   2.290   7.384  11.023  0.0596  0.4929 -0.1699
  273MOL0     C37573   2.249   7.514  11.061 -0.3623  0.5154  0.5506
  273MOL0     C37574   2.186   7.522  11.200  0.0064 -0.7719 -0.0311
  273MOL0     C37575   2.140   7.665  11.223 -0.5415  0.6006  0.0429
  273MOL0     C37576   2.080   7.688  11.359 -0.4332 -0.7277 -0.0008
  273MOL0     C37577   2.039   7.832  11.408 -0.7424 -1.4736 -1.2701
  273MOL0     C37578   1.937   7.904  11.319  0.0342  0.4459 -0.1095
  273MOL0     C37579   1.799   7.834  11.331  0.1824  0.1230 -0.0826
  273MOL0     C37580   1.692   7.933  11.268 -0.4766 -0.4152  0.4941
  273MOL0    Cl37581   1.542   7.850  11.242 -0.2529  0.1885  0.2852
  273MOL0     C37582   2.313   7.463  10.785  0.3352 -0.4428 -0.5257
  273MOL0     C37583   2.342   7.422  10.653  0.3009 -0.7837  0.1982
  273MOL0     O37584   2.603   7.453  10.492 -0.1507  0.5659  0.0111
  273MOL0     C37585   2.577   7.150  10.285  0.4439 -0.1107  0.8039
  273MOL0     C37586   2.625   7.088  10.174 -1.1042 -0.0716 -0.4162
  273MOL0     N37587   2.966   6.622   9.665  0.2780 -0.1425  0.6046
  273MOL0     N37588   2.928   6.518   9.581  0.3724  0.3075 -0.2737
  273MOL0     C37589   2.019   6.258   8.929 -0.4357  1.3651 -0.4355
  273MOL0     C37590   1.962   6.312   8.817  0.4860 -0.2198 -0.2393
  273MOL0     C37591   1.917   6.665   8.551 -0.9170  0.0164  0.1919
  273MOL0     C37592   1.952   6.793   8.540  0.0874 -1.0780 -0.7714
  273MOL0     C37593   1.930   6.863   8.420  0.4103  0.0943 -0.5460
  273MOL0     C37594   1.859   6.808   8.320  0.2608  0.5821  0.5277
  273MOL0     O37595   1.839   6.876   8.205 -0.6357  0.1127 -0.0912
  273MOL0     C37596   1.958   6.906   8.128 -0.5002  0.0274  0.6522
  273MOL0     C37597   1.923   6.994   8.009  0.2270  0.2620  0.3870
  273MOL0     C37598   1.875   7.143   8.030  0.7417  1.2805 -0.8742
  273MOL0     C37599   1.736   7.162   8.092 -0.1205  0.3063  0.4994
  273MOL0     C37600   1.634   7.124   7.990 -0.2143 -0.0081 -0.1157
  273MOL0     C37601   1.560   7.092   7.898 -0.1816 -0.3251  0.6654
  273MOL0     C37602   1.818   6.678   8.336  0.7415 -0.2524  0.2601
  273MOL0     C37603   1.837   6.605   8.446  0.3252  0.7190 -0.1693
  273MOL0     C37604   1.783   6.462   8.458  0.0065 -0.3213 -0.5606
  273MOL0     H37605   1.801   6.573   8.962 -0.2891 -0.5907 -1.8817
  273MOL0     H37606   1.889   6.452   9.174  0.7189  0.8115 -0.8121
  273MOL0     H37607   2.215   6.151   9.115 -1.1502  5.9329 -2.0183
  273MOL0     H37608   2.065   6.059   9.180 -1.8491  1.2600 -1.0266
  273MOL0     H37609   2.122   6.165   9.408 -0.8059  0.7112 -0.8192
  273MOL0     H37610   2.229   6.043   9.342 -1.8316 -1.6822 -0.3203
  273MOL0     H37611   2.367   6.263   9.252  2.2830 -2.0965  0.7271
  273MOL0     H37612   2.239   6.345   9.340 -1.7463 -1.4413 -1.7198
  273MOL0     H37613   2.327   6.203   9.541  2.4765 -2.4478 -0.7148
  273MOL0     H37614   2.469   6.191   9.426 -1.2764 -0.9069 -3.2829
  273MOL0     H37615   2.342   6.445   9.537 -0.1834 -1.5292  1.1428
  273MOL0     H37616   2.454   6.433   9.393 -0.1847 -1.8334 -0.4197
  273MOL0     H37617   2.548   6.486   9.633  0.8569 -1.5814  2.2993
  273MOL0     H37618   2.523   6.309   9.657 -0.1758 -0.5406 -0.5916
  273MOL0     H37619   2.699   6.427   9.431 -0.3786  1.9970  2.1410
  273MOL0     H37620   2.672   6.255   9.459  1.7786 -0.9659 -0.1079
  273MOL0     H37621   2.726   6.280   9.702 -0.2503 -0.3073  0.2988
  273MOL0     H37622   2.856   6.267   9.573  0.8021  1.5578 -0.3669
  273MOL0     H37623   2.769   6.471   9.863 -2.1009  2.8398 -0.8347
  273MOL0     H37624   3.016   6.674   9.943 -0.0711 -1.2608 -0.2586
  273MOL0     H37625   2.837   6.708   9.966 -0.9236  0.8265 -1.5154
  273MOL0     H37626   3.013   6.908   9.941 -1.3544 -1.3903  1.0152
  273MOL0     H37627   3.025   6.872   9.773  0.0562  0.5980 -0.4390
  273MOL0     H37628   2.870   7.025   9.786  1.3682 -0.2858 -0.6159
  273MOL0     H37629   2.782   6.880   9.745 -0.6970  0.6206  0.7907
  273MOL0     H37630   2.638   6.986   9.897  0.2732  0.8013 -1.1874
  273MOL0     H37631   2.713   6.869  10.004  1.0612 -0.9770 -1.3849
  273MOL0     H37632   2.892   7.288  10.106 -0.8505  2.1720 -0.8082
  273MOL0     H37633   2.812   7.487  10.385  2.1842 -1.5139 -0.2357
  273MOL0     H37634   2.704   7.526  10.242 -0.9705  0.4298  0.3766
  273MOL0     H37635   2.877   7.497  10.227 -1.0479  0.7500  1.2492
  273MOL0     H37636   2.498   7.128  10.733 -2.1590 -2.0877  2.9678
  273MOL0     H37637   2.415   7.186  10.954  2.6985  1.3405  2.1026
  273MOL0     H37638   2.335   7.582  11.061 -0.5048  0.8553  3.9820
  273MOL0     H37639   2.165   7.545  10.999 -1.9972 -2.6447  0.9728
  273MOL0     H37640   2.094   7.463  11.193 -0.6817  0.4075 -1.5571
  273MOL0     H37641   2.238   7.479  11.286 -0.6716 -1.6070 -0.0264
  273MOL0     H37642   2.083   7.688  11.133  1.2151  0.2364 -1.2231
  273MOL0     H37643   2.225   7.734  11.217 -0.2782  0.6659  3.1692
  273MOL0     H37644   2.145   7.639  11.433 -0.2777 -4.0395 -2.1213
  273MOL0     H37645   1.983   7.642  11.374 -1.0216 -0.3234 -2.2718
  273MOL0     H37646   1.993   7.810  11.505 -1.6018 -0.8477 -1.5212
  273MOL0     H37647   2.124   7.900  11.415 -3.1985  1.7137  0.5915
  273MOL0     H37648   1.985   7.905  11.221  1.8164 -2.2052  0.6316
  273MOL0     H37649   1.924   8.006  11.356 -1.7819  0.2591 -0.1334
  273MOL0     H37650   1.768   7.813  11.433  0.3764 -1.2054 -0.2844
  273MOL0     H37651   1.806   7.745  11.268  2.7599  0.1199  0.1161
  273MOL0     H37652   1.736   7.952  11.169  4.2014  1.9665  2.6590
  273MOL0     H37653   1.689   8.028  11.322  1.4784 -0.5848  0.9857
  273MOL0     H37654   2.266   7.560  10.796  0.8242 -0.1702 -0.8107
  273MOL0     H37655   2.331   7.481  10.562  2.5290 -0.7877 -0.1231
  273MOL0     H37656   2.480   7.116  10.320 -0.0805  0.3976 -0.1089
  273MOL0     H37657   2.570   7.001  10.140 -0.0983 -1.1159  0.5519
  273MOL0     H37658   2.076   6.166   8.929  0.0418  1.5938 -2.9429
  273MOL0     H37659   1.979   6.271   8.718  1.2491  3.9327 -2.0119
  273MOL0     H37660   2.000   6.850   8.620 -2.0895  1.6770 -1.2636
  273MOL0     H37661   1.964   6.965   8.407  1.7092 -0.5243 -2.3688
  273MOL0     H37662   2.026   6.961   8.195  1.2591 -1.1320 -0.1163
  273MOL0     H37663   2.009   6.817   8.091 -0.9028  0.3473 -0.7314
  273MOL0     H37664   1.843   6.946   7.952  0.4384 -0.7270  0.9091
  273MOL0     H37665   2.012   6.996   7.946 -0.3440  4.9207 -0.6065
  273MOL0     H37666   1.943   7.191   8.100 -1.6529  1.9706  1.0948
  273MOL0     H37667   1.891   7.191   7.933  2.7243 -2.5455 -2.6795
  273MOL0     H37668   1.718   7.268   8.114  1.2329  0.7533 -0.4312
  273MOL0     H37669   1.728   7.111   8.189 -0.5060  1.1305  0.9189
  273MOL0     H37670   1.495   7.066   7.817  0.4506  1.0047 -0.2812
  273MOL0     H37671   1.769   6.627   8.254 -1.1130 -1.3573  1.9304
  273MOL0     H37672   1.724   6.447   8.548  2.1617 -1.1818  0.7972
  273MOL0     H37673   1.723   6.430   8.372 -1.0589 -0.0342  0.0631
  273MOL0     H37674   1.870   6.395   8.457  0.7699  0.6431 -0.1316
  274MOL0     O37675   9.236   3.357   3.303  0.5919  0.4187 -0.1197
  274MOL0     C37676   9.160   3.348   3.207 -0.2980  0.4690 -0.3829
  274MOL0     O37677   9.026   3.346   3.216 -0.1551  0.7439 -0.4420
  274MOL0     C37678   8.966   3.366   3.335 -0.5193  0.5972 -1.4561
  274MOL0     C37679   8.893   3.270   3.406 -1.0456  0.2200 -0.9194
  274MOL0     C37680   8.837   3.306   3.528  0.2932 -0.2555  1.0445
  274MOL0     C37681   8.860   3.439   3.583  0.6659  0.8816  0.1664
  274MOL0     O37682   8.809   3.489   3.706  0.5751 -0.1459  0.8520
  274MOL0     C37683   8.711   3.414   3.772 -0.2763 -0.3685 -0.6473
  274MOL0     C37684   8.657   3.504   3.883 -0.0099 -0.1547  0.5215
  274MOL0     C37685   8.698   3.446   4.019 -0.4598  0.2080 -1.0606
  274MOL0     C37686   8.619   3.321   4.068  0.2882  0.0748 -0.1017
  274MOL0     C37687   8.626   3.301   4.221  0.3276 -0.0002  0.1399
  274MOL0     C37688   8.765   3.258   4.258 -1.0429 -0.6326  0.0468
  274MOL0     C37689   8.791   3.224   4.413  0.6163 -0.0353  1.2412
  274MOL0     C37690   8.743   3.338   4.511  0.5454 -0.0071 -0.3688
  274MOL0     N37691   8.807   3.464   4.468  0.6253  0.3936 -0.0937
  274MOL0     C37692   8.932   3.497   4.428  1.5195 -0.2764  0.3336
  274MOL0     C37693   8.923   3.634   4.419 -0.2223  0.2820 -1.3616
  274MOL0     C37694   9.023   3.738   4.388 -0.3059 -0.0581  0.3494
  274MOL0     C37695   9.081   3.807   4.508  0.2978  0.0392  0.7134
  274MOL0     C37696   9.001   3.799   4.642  0.3362  0.5052 -0.2060
  274MOL0     C37697   9.081   3.865   4.765 -1.1360  0.4312 -0.1364
  274MOL0     O37698   9.116   3.996   4.727  0.4669 -0.5454 -0.3691
  274MOL0     C37699   9.238   4.031   4.751 -0.0448  0.7267 -0.1052
  274MOL0     C37700   9.254   4.141   4.834 -0.5369 -0.2408 -0.1676
  274MOL0     C37701   9.371   4.191   4.879 -0.7757 -0.1554  0.0685
  274MOL0     C37702   9.364   4.317   4.965 -0.1208 -0.3313 -0.4090
  274MOL0     C37703   9.488   4.122   4.837  0.5290 -0.6891 -0.0311
  274MOL0     C37704   9.620   4.151   4.888 -0.1125  0.3441  0.2982
  274MOL0     O37705   9.728   4.152   4.799 -0.3397  0.0102 -0.6553
  274MOL0     C37706   9.855   4.177   4.850  0.3240 -0.9672 -0.3329
  274MOL0     C37707   9.888   4.303   4.911 -0.9206  2.0509  0.1776
  274MOL0     C37708  10.022   4.326   4.957  0.1477  0.1429 -0.0209
  274MOL0     C37709  10.125   4.238   4.936 -0.3985 -0.0129  1.0744
  274MOL0     O37710  10.254   4.264   4.978  0.0094 -0.2974 -0.4080
  274MOL0     C37711  10.310   4.184   5.087 -0.3892 -0.2696 -0.1093
  274MOL0     C37712  10.466   4.186   5.080 -0.6996 -1.7604  1.2962
  274MOL0     C37713  10.521   4.107   5.189 -0.4884  0.5373 -0.0886
  274MOL0     C37714  10.664   4.060   5.160  0.6015  0.6131  0.1697
  274MOL0     C37715  10.737   3.987   5.274 -0.2829  0.2698 -0.1389
  274MOL0     C37716  10.702   3.841   5.267  0.8249 -0.6224  0.1109
  274MOL0     C37717  10.760   3.766   5.395  0.6502  0.0767  0.4798
  274MOL0     C37718  10.755   3.617   5.376  0.9382  1.4079 -1.0213
  274MOL0    Cl37719  10.585   3.578   5.407  0.2412 -0.3310  0.2892
  274MOL0     C37720  10.091   4.120   4.855  0.3665 -1.1347 -0.4592
  274MOL0     C37721   9.962   4.081   4.828  0.0488 -0.0861 -0.0302
  274MOL0     O37722   9.628   4.171   5.005  1.0663 -0.7484  0.3591
  274MOL0     C37723   9.475   4.006   4.748 -0.9085  0.3493 -0.7153
  274MOL0     C37724   9.353   3.958   4.709 -0.2320 -0.1151 -0.3978
  274MOL0     N37725   8.797   3.677   4.446  0.0264 -0.5573 -0.8786
  274MOL0     N37726   8.729   3.573   4.466 -0.2143 -0.3509  0.2897
  274MOL0     C37727   8.924   3.530   3.506 -0.2773 -0.5815 -0.5131
  274MOL0     C37728   8.976   3.496   3.384  0.1315 -0.1161 -0.2057
  274MOL0     C37729   9.215   3.360   3.074 -0.2835 -0.2540  0.0551
  274MOL0     C37730   9.137   3.424   2.971 -0.5571 -0.1948 -0.6442
  274MOL0     C37731   9.180   3.448   2.845 -0.5867  0.3822 -0.4751
  274MOL0     C37732   9.302   3.392   2.810 -1.0455 -0.5864 -0.2830
  274MOL0     O37733   9.352   3.405   2.675  1.4205 -0.2381 -0.6819
  274MOL0     C37734   9.272   3.427   2.561 -0.4276  1.6427 -0.3099
  274MOL0     C37735   9.247   3.297   2.480  0.0922 -0.2290 -0.2972
  274MOL0     C37736   9.365   3.199   2.496  0.3578 -0.4410 -0.2351
  274MOL0     C37737   9.357   3.091   2.386  0.3112  0.8054  0.4162
  274MOL0     C37738   9.442   2.974   2.414  0.4382  0.2871 -1.3097
  274MOL0     C37739   9.526   2.892   2.434 -0.1026 -0.9495  0.4234
  274MOL0     C37740   9.376   3.322   2.897  0.8682 -0.1378  0.0273
  274MOL0     C37741   9.340   3.307   3.033 -0.6786  0.3965  0.3703
  274MOL0     C37742   9.433   3.227   3.129 -0.4106  1.4011  0.4960
  274MOL0     H37743   8.879   3.167   3.375 -1.9900 -0.0516  0.3151
  274MOL0     H37744   8.780   3.228   3.578 -1.4535  0.6168  0.4812
  274MOL0     H37745   8.754   3.320   3.808 -0.6553 -0.1225  0.4898
  274MOL0     H37746   8.627   3.405   3.704  0.9763  1.8902 -2.6480
  274MOL0     H37747   8.712   3.598   3.869  2.7616 -1.8284 -0.6001
  274MOL0     H37748   8.548   3.515   3.878  0.1983  1.8670 -1.0290
  274MOL0     H37749   8.802   3.412   4.006  0.1324  1.2190  0.7527
  274MOL0     H37750   8.691   3.519   4.099  0.7760 -2.3801  1.5887
  274MOL0     H37751   8.516   3.331   4.035  0.7304  1.1046 -1.2878
  274MOL0     H37752   8.664   3.235   4.018 -1.2839  0.8420 -3.0782
  274MOL0     H37753   8.559   3.221   4.253  2.1482 -1.6740 -0.0669
  274MOL0     H37754   8.584   3.387   4.275  0.3496  2.1412 -3.0038
  274MOL0     H37755   8.798   3.173   4.198 -0.2998  0.5450 -1.2749
  274MOL0     H37756   8.836   3.338   4.232 -1.0564 -1.4827 -2.9437
  274MOL0     H37757   8.891   3.194   4.445  0.6771 -1.5865 -0.2584
  274MOL0     H37758   8.733   3.135   4.439  0.5841 -0.1286  0.8577
  274MOL0     H37759   8.633   3.334   4.518  0.4833 -4.1956 -0.9837
  274MOL0     H37760   8.777   3.320   4.613 -0.2249  0.3977 -0.0328
  274MOL0     H37761   9.025   3.441   4.420  2.9732  2.1641 -1.2746
  274MOL0     H37762   8.966   3.810   4.329 -0.3163  2.4369  3.1975
  274MOL0     H37763   9.110   3.711   4.327  0.0876  2.2107 -0.1825
  274MOL0     H37764   9.169   3.748   4.536 -1.1155 -1.7104  1.7053
  274MOL0     H37765   9.111   3.909   4.479  0.5361 -0.3636 -0.5251
  274MOL0     H37766   8.906   3.850   4.626 -1.1502 -1.8789  0.5415
  274MOL0     H37767   8.975   3.698   4.675 -1.1234  0.5352 -1.1573
  274MOL0     H37768   9.022   3.856   4.857  1.6785 -5.4622  1.5600
  274MOL0     H37769   9.168   3.809   4.800 -1.2043  0.4875  0.1291
  274MOL0     H37770   9.161   4.195   4.845 -1.0891 -0.9960 -0.9677
  274MOL0     H37771   9.336   4.295   5.068  1.6609 -0.3090  0.1244
  274MOL0     H37772   9.302   4.386   4.907 -0.4232 -0.9605 -0.8490
  274MOL0     H37773   9.465   4.359   4.971  0.8375 -2.5543  0.1657
  274MOL0     H37774   9.806   4.370   4.932  0.6192  3.4326  2.1994
  274MOL0     H37775  10.041   4.420   5.008 -1.4256 -0.3847  1.6442
  274MOL0     H37776  10.262   4.229   5.174 -1.0396  3.1796 -2.0559
  274MOL0     H37777  10.279   4.080   5.076 -1.3725  0.0603 -0.6254
  274MOL0     H37778  10.497   4.153   4.980  2.9249  3.6628  0.1348
  274MOL0     H37779  10.505   4.288   5.075  1.2429 -2.5000 -0.0833
  274MOL0     H37780  10.456   4.022   5.209 -0.6185 -0.0953 -2.8068
  274MOL0     H37781  10.524   4.171   5.278  1.6569  0.2472  0.1120
  274MOL0     H37782  10.733   4.142   5.134 -1.0593  1.9757 -0.1601
  274MOL0     H37783  10.649   3.998   5.072 -1.8771 -1.0819  1.6911
  274MOL0     H37784  10.846   3.998   5.273  0.0358 -2.0828  0.6632
  274MOL0     H37785  10.703   4.026   5.370  0.1817  1.1791 -0.3349
  274MOL0     H37786  10.749   3.806   5.174  1.6657  2.0623 -0.5848
  274MOL0     H37787  10.596   3.820   5.251  0.3849  1.3977  0.0927
  274MOL0     H37788  10.713   3.787   5.491 -1.4067 -0.4630 -0.3650
  274MOL0     H37789  10.869   3.781   5.399  0.9072 -1.5309  0.4008
  274MOL0     H37790  10.806   3.566   5.459  2.4822 -0.5225 -3.0371
  274MOL0     H37791  10.789   3.581   5.279 -0.8656  1.8782 -1.8778
  274MOL0     H37792  10.180   4.066   4.823  0.8000 -0.5564 -0.2544
  274MOL0     H37793   9.949   3.988   4.773  2.3982 -0.5580  0.1183
  274MOL0     H37794   9.559   3.952   4.705 -1.0033 -0.1593 -0.2721
  274MOL0     H37795   9.364   3.866   4.653 -0.3448 -0.4412  0.1162
  274MOL0     H37796   8.928   3.632   3.541  0.3603 -0.4078 -1.0593
  274MOL0     H37797   9.023   3.568   3.318 -1.1553  1.0528  0.0980
  274MOL0     H37798   9.040   3.463   3.002 -0.0657  0.0406  0.6573
  274MOL0     H37799   9.130   3.524   2.786 -3.9168 -2.6322 -1.9059
  274MOL0     H37800   9.169   3.460   2.574 -0.8513  1.9180 -3.4647
  274MOL0     H37801   9.313   3.494   2.485  0.9163 -0.0252 -1.1252
  274MOL0     H37802   9.244   3.318   2.373 -0.1683 -2.3674 -0.7698
  274MOL0     H37803   9.157   3.239   2.506 -0.3735  0.0104 -1.3049
  274MOL0     H37804   9.454   3.262   2.486  0.8766 -0.8783  1.2931
  274MOL0     H37805   9.371   3.136   2.585  1.7305 -1.9116 -1.3275
  274MOL0     H37806   9.397   3.135   2.294 -0.2993 -1.8674 -1.2424
  274MOL0     H37807   9.251   3.061   2.381  0.0075  1.4016  2.4221
  274MOL0     H37808   9.603   2.818   2.437 -1.3180 -2.2851  0.0156
  274MOL0     H37809   9.473   3.282   2.867 -0.9334 -3.0026 -2.5473
  274MOL0     H37810   9.383   3.152   3.191  0.2362  0.7062  0.1894
  274MOL0     H37811   9.516   3.182   3.074 -1.8068  0.6902 -1.1264
  274MOL0     H37812   9.474   3.301   3.199  1.3569  2.1669 -1.2403
  275MOL0     O37813   3.242   7.061   2.712  0.2396  0.6673 -1.0246
  275MOL0     C37814   3.178   6.969   2.769  0.1377 -0.9352 -1.1773
  275MOL0     O37815   3.219   6.885   2.861 -0.1336  1.1315  0.5068
  275MOL0     C37816   3.346   6.889   2.918  0.1264  0.7796 -0.2456
  275MOL0     C37817   3.371   6.810   3.039 -0.9107 -0.3621 -0.7023
  275MOL0     C37818   3.497   6.808   3.100  0.7691 -0.5551  0.4059
  275MOL0     C37819   3.597   6.880   3.041  0.7599  0.1798 -0.1602
  275MOL0     O37820   3.713   6.892   3.108 -1.1607 -0.1904 -0.0039
  275MOL0     C37821   3.774   6.770   3.156 -0.7336  0.1221  0.0617
  275MOL0     C37822   3.816   6.783   3.305 -0.3418 -0.5973 -0.9294
  275MOL0     C37823   3.887   6.664   3.374 -0.2195  0.5939  0.4438
  275MOL0     C37824   3.952   6.711   3.500  0.0382  0.0565  0.6169
  275MOL0     C37825   3.959   6.610   3.611 -0.6241 -0.0829  0.2730
  275MOL0     C37826   4.020   6.682   3.738 -0.0665  0.3476  0.5555
  275MOL0     C37827   4.173   6.693   3.729  0.2231 -0.1531 -0.1742
  275MOL0     C37828   4.255   6.559   3.693  0.2148 -0.0725  0.1731
  275MOL0     N37829   4.398   6.596   3.688 -0.1592  0.5491  0.5686
  275MOL0     C37830   4.482   6.591   3.793 -0.8958 -0.4944  0.1941
  275MOL0     C37831   4.585   6.679   3.768  0.1336  0.2092 -0.6196
  275MOL0     C37832   4.697   6.703   3.866  0.1958  0.6821  0.8007
  275MOL0     C37833   4.786   6.583   3.900 -1.0994 -0.3612 -0.0124
  275MOL0     C37834   4.855   6.515   3.784  0.2019  0.2276  0.0271
  275MOL0     C37835   4.926   6.599   3.679  0.2041 -0.4547 -0.5823
  275MOL0     O37836   4.953   6.502   3.576 -0.0865  0.1017  0.0554
  275MOL0     C37837   4.933   6.542   3.447 -0.2711  0.2347 -0.3817
  275MOL0     C37838   4.806   6.573   3.395 -0.1897 -0.3765 -0.2391
  275MOL0     C37839   4.787   6.640   3.276 -0.5477 -0.8226  0.0105
  275MOL0     C37840   4.649   6.688   3.245  0.4538  0.3733 -0.6757
  275MOL0     C37841   4.892   6.657   3.188 -0.3724 -0.3405 -0.4378
  275MOL0     C37842   4.889   6.733   3.062 -0.4390  0.1038  0.1508
  275MOL0     O37843   4.997   6.733   2.982  1.2182 -0.3754  0.0372
  275MOL0     C37844   4.997   6.804   2.863  0.9448  0.8494 -0.1638
  275MOL0     C37845   4.971   6.938   2.850 -0.0621  0.2480  0.5923
  275MOL0     C37846   4.976   7.000   2.721  0.4908  0.5441 -0.0456
  275MOL0     C37847   5.027   6.916   2.608  0.4990  0.6070 -0.2357
  275MOL0     O37848   5.039   6.965   2.478  0.4110  0.0471  0.0582
  275MOL0     C37849   5.120   7.088   2.479  0.0983  1.1337 -0.2108
  275MOL0     C37850   5.189   7.113   2.351  0.0062 -0.6131  0.2867
  275MOL0     C37851   5.279   6.997   2.300 -0.4738  1.1288  0.1661
  275MOL0     C37852   5.366   6.909   2.403  0.0691  0.6289 -0.5063
  275MOL0     C37853   5.465   7.007   2.467  0.9890 -0.3938 -0.3248
  275MOL0     C37854   5.512   6.970   2.609 -0.7649 -0.2150  0.1151
  275MOL0     C37855   5.619   6.852   2.594  0.6251  0.0347  0.1050
  275MOL0     C37856   5.711   6.825   2.712 -0.2184 -0.0990  0.2305
  275MOL0    Cl37857   5.816   6.979   2.736 -0.0362  0.5378  0.1050
  275MOL0     C37858   5.052   6.779   2.631 -0.6956 -0.1032 -0.0472
  275MOL0     C37859   5.046   6.724   2.757  1.1391 -0.8586 -0.8153
  275MOL0     O37860   4.784   6.792   3.025  0.0737  0.1128 -0.7060
  275MOL0     C37861   5.017   6.602   3.224  0.0646  0.0209 -0.3518
  275MOL0     C37862   5.035   6.546   3.354 -0.4178 -0.7621 -0.3763
  275MOL0     N37863   4.575   6.718   3.636 -0.6892 -0.6197  0.2158
  275MOL0     N37864   4.462   6.664   3.588 -0.5512  0.4095 -0.5953
  275MOL0     C37865   3.578   6.967   2.938 -0.1004 -0.8295  0.3020
  275MOL0     C37866   3.453   6.965   2.871 -0.3981 -0.6159  0.4356
  275MOL0     C37867   3.054   6.924   2.695  0.5805  0.8078 -1.1521
  275MOL0     C37868   2.991   6.802   2.724 -0.7470 -0.3895 -0.1320
  275MOL0     C37869   2.879   6.747   2.656 -0.6041 -0.2157 -0.5605
  275MOL0     C37870   2.816   6.822   2.555  0.3787 -0.4977 -0.6575
  275MOL0     O37871   2.690   6.802   2.499 -0.5251 -0.1180 -0.4335
  275MOL0     C37872   2.625   6.686   2.544 -0.0339 -0.3779 -0.6099
  275MOL0     C37873   2.500   6.638   2.473  0.6243  0.8018  0.3814
  275MOL0     C37874   2.388   6.743   2.486 -0.1609  0.1349 -0.2313
  275MOL0     C37875   2.252   6.690   2.438 -0.6713 -0.2367  0.8529
  275MOL0     C37876   2.152   6.791   2.429  0.2181 -0.5649  0.2239
  275MOL0     C37877   2.077   6.883   2.418  1.1619 -0.2363  1.0153
  275MOL0     C37878   2.876   6.941   2.517 -0.7302  1.1303 -0.2211
  275MOL0     C37879   2.989   6.993   2.587 -0.2467 -0.3718  0.6129
  275MOL0     C37880   3.024   7.131   2.532  0.1411  0.1760  1.3520
  275MOL0     H37881   3.287   6.753   3.076 -2.2707  1.9740 -0.0114
  275MOL0     H37882   3.510   6.749   3.190  1.9974 -0.9295 -0.0006
  275MOL0     H37883   3.870   6.751   3.106 -0.8918 -1.7402  0.3687
  275MOL0     H37884   3.714   6.680   3.140  0.4714 -0.3957 -1.9620
  275MOL0     H37885   3.877   6.873   3.314  0.0870 -1.0336  0.9562
  275MOL0     H37886   3.728   6.804   3.365 -0.6630  1.5175 -2.0597
  275MOL0     H37887   3.814   6.582   3.381 -1.5275  1.0686 -4.2215
  275MOL0     H37888   3.971   6.632   3.312 -0.2982  0.4514  0.4109
  275MOL0     H37889   4.060   6.730   3.494 -0.2723  2.1090  0.7348
  275MOL0     H37890   3.901   6.796   3.546 -1.7611 -1.7143  2.0964
  275MOL0     H37891   4.020   6.524   3.585  1.3861  1.3476  0.0438
  275MOL0     H37892   3.862   6.576   3.648 -0.5539 -0.1635  0.3852
  275MOL0     H37893   3.975   6.779   3.761 -1.1115 -0.1838  0.8260
  275MOL0     H37894   4.004   6.617   3.824 -0.5843 -3.0055 -1.8872
  275MOL0     H37895   4.212   6.727   3.825 -0.9334  1.1885 -0.1521
  275MOL0     H37896   4.192   6.760   3.644 -1.0227  0.6205  0.1371
  275MOL0     H37897   4.236   6.479   3.764 -0.0779  0.9472  1.2889
  275MOL0     H37898   4.225   6.519   3.596  1.3954  0.0286 -0.2453
  275MOL0     H37899   4.472   6.539   3.888 -3.8991 -2.9804 -1.2787
  275MOL0     H37900   4.664   6.745   3.961  2.3767  3.1860  0.5556
  275MOL0     H37901   4.756   6.785   3.825 -1.0816  2.8936  3.1513
  275MOL0     H37902   4.864   6.615   3.969 -0.6439  0.5056 -0.9108
  275MOL0     H37903   4.731   6.510   3.960 -1.6854  0.4517  0.4650
  275MOL0     H37904   4.923   6.443   3.831 -1.5091 -2.0066 -0.7451
  275MOL0     H37905   4.781   6.454   3.731  0.3087 -0.2836  0.4471
  275MOL0     H37906   4.851   6.675   3.654  0.8677  0.6063  0.5312
  275MOL0     H37907   5.018   6.653   3.705  1.3634 -0.1768 -4.5500
  275MOL0     H37908   4.716   6.557   3.454 -1.5732 -0.6021 -2.3014
  275MOL0     H37909   4.617   6.650   3.148  1.7658  1.4722 -1.5885
  275MOL0     H37910   4.656   6.796   3.231 -1.3528  0.5341 -0.5242
  275MOL0     H37911   4.572   6.676   3.322 -1.0227  1.4397 -1.9267
  275MOL0     H37912   4.949   7.001   2.936 -1.5963  1.4086 -0.6128
  275MOL0     H37913   4.961   7.107   2.712 -2.0032  0.1317 -2.2693
  275MOL0     H37914   5.053   7.171   2.505 -1.1718 -0.2376  1.0051
  275MOL0     H37915   5.194   7.083   2.559 -0.0909 -2.2059 -0.1031
  275MOL0     H37916   5.111   7.141   2.280  1.1293 -4.6619 -2.9128
  275MOL0     H37917   5.249   7.203   2.363 -0.8395  0.0212 -0.1055
  275MOL0     H37918   5.355   7.041   2.235  0.8175 -1.3861 -0.1762
  275MOL0     H37919   5.221   6.930   2.237  2.2417 -0.7383 -0.5563
  275MOL0     H37920   5.435   6.831   2.369  0.0623 -0.1035  1.0675
  275MOL0     H37921   5.302   6.860   2.477  0.0844  2.9180  1.1279
  275MOL0     H37922   5.545   7.030   2.397 -1.5162  2.9713 -2.4231
  275MOL0     H37923   5.425   7.108   2.481  3.0402  0.3964  0.1443
  275MOL0     H37924   5.430   6.940   2.676 -0.6679 -1.9721 -0.5087
  275MOL0     H37925   5.562   7.054   2.657  1.0021 -1.5342  0.6655
  275MOL0     H37926   5.683   6.866   2.506  2.9889  0.6495  1.8210
  275MOL0     H37927   5.571   6.754   2.584  0.7184 -0.0336  0.3246
  275MOL0     H37928   5.768   6.734   2.691 -2.9773 -1.9427  0.0953
  275MOL0     H37929   5.648   6.801   2.799 -0.3775  1.6081  0.6216
  275MOL0     H37930   5.070   6.725   2.538 -0.1046  0.9254 -0.5575
  275MOL0     H37931   5.065   6.622   2.789 -0.7511  0.1167  4.5317
  275MOL0     H37932   5.102   6.616   3.157 -2.6861  0.3853 -4.0866
  275MOL0     H37933   5.133   6.516   3.389  0.5245  2.5191  0.1302
  275MOL0     H37934   3.662   7.034   2.920 -0.5688 -0.4703 -0.6372
  275MOL0     H37935   3.449   7.026   2.782  3.7254 -0.3458  0.2386
  275MOL0     H37936   3.034   6.731   2.793  0.9767 -0.8356 -1.5809
  275MOL0     H37937   2.842   6.652   2.694 -3.5340  0.7177 -0.8090
  275MOL0     H37938   2.700   6.607   2.549  0.4911  0.1947  2.0667
  275MOL0     H37939   2.600   6.695   2.650 -0.2493  4.2921 -0.8353
  275MOL0     H37940   2.470   6.546   2.525 -0.5130 -0.1551 -1.8240
  275MOL0     H37941   2.516   6.606   2.370  3.7382 -0.2178  1.0774
  275MOL0     H37942   2.376   6.762   2.593  1.3342 -2.5884  0.5269
  275MOL0     H37943   2.412   6.841   2.443 -4.0699  2.1281  1.5899
  275MOL0     H37944   2.231   6.608   2.507 -2.0989 -1.6599 -1.1362
  275MOL0     H37945   2.270   6.643   2.340  0.0755  1.0569  0.3402
  275MOL0     H37946   2.009   6.963   2.399 -1.6653 -2.6409  0.3969
  275MOL0     H37947   2.831   7.001   2.439 -0.6680  0.9633 -0.3875
  275MOL0     H37948   3.116   7.138   2.474  0.2432  0.4471  1.5455
  275MOL0     H37949   2.943   7.175   2.473  1.5775  2.9903  1.3359
  275MOL0     H37950   3.031   7.206   2.611 -0.0176  0.8738  0.7213
  276MOL0     O37951   8.549   4.444   8.827  0.5626 -0.4391 -0.5353
  276MOL0     C37952   8.633   4.440   8.918  1.1352 -0.6583 -0.4866
  276MOL0     O37953   8.755   4.488   8.910 -0.2454 -0.0525 -0.1972
  276MOL0     C37954   8.781   4.569   8.798  0.9764  0.3865  0.3365
  276MOL0     C37955   8.819   4.511   8.675  0.7924  0.0823  0.3492
  276MOL0     C37956   8.829   4.589   8.557 -0.1472  0.2556  0.1505
  276MOL0     C37957   8.832   4.731   8.571  0.4551  0.0232 -0.2577
  276MOL0     O37958   8.849   4.807   8.464 -0.1503 -0.0137  0.2462
  276MOL0     C37959   8.965   4.792   8.381  1.0619  0.0399 -0.1808
  276MOL0     C37960   9.026   4.924   8.342 -0.0262  0.2559 -0.3376
  276MOL0     C37961   9.121   4.901   8.220 -0.1528 -0.5563 -0.4173
  276MOL0     C37962   9.206   5.030   8.184  0.0278  0.4303  0.1321
  276MOL0     C37963   9.336   4.990   8.124  0.5539 -0.0606  0.7871
  276MOL0     C37964   9.430   5.106   8.094  0.0602  0.1645  0.2517
  276MOL0     C37965   9.569   5.052   8.052  0.9278  0.2153 -0.7085
  276MOL0     C37966   9.659   5.175   8.022 -0.0221  0.3346  0.4187
  276MOL0     N37967   9.787   5.129   7.974 -0.2023 -0.0222  0.2010
  276MOL0     C37968   9.904   5.176   8.027  0.2224 -0.2133 -0.0915
  276MOL0     C37969   9.992   5.149   7.927  0.2518  0.5858 -0.5151
  276MOL0     C37970  10.135   5.179   7.944  0.8106  1.0123  0.0911
  276MOL0     C37971  10.225   5.074   7.881  1.3665  0.5868  0.0797
  276MOL0     C37972  10.364   5.065   7.932 -0.8176 -0.4590  0.1079
  276MOL0     C37973  10.450   4.961   7.866  0.0192  1.3986 -0.0915
  276MOL0     O37974  10.455   4.992   7.721 -0.1058  0.1023 -0.1649
  276MOL0     C37975  10.577   5.020   7.667 -0.4943 -0.1352  0.5704
  276MOL0     C37976  10.595   4.969   7.537  0.1578 -1.2703 -0.3307
  276MOL0     C37977  10.719   4.991   7.473 -0.7418 -0.0182  0.2818
  276MOL0     C37978  10.726   4.941   7.330 -0.2561 -0.0971  0.6090
  276MOL0     C37979  10.819   5.067   7.536 -0.2926  0.3022  0.7522
  276MOL0     C37980  10.951   5.100   7.472  0.3521  0.5637 -0.2449
  276MOL0     O37981  11.001   5.231   7.467 -0.2689 -0.1873  0.0589
  276MOL0     C37982  11.141   5.243   7.462  0.0250  0.0519 -0.7574
  276MOL0     C37983  11.206   5.293   7.350  0.0209 -1.4750  0.7950
  276MOL0     C37984  11.341   5.314   7.354 -0.6106 -1.0095 -0.4495
  276MOL0     C37985  11.417   5.268   7.454  0.5852 -0.8091  0.3245
  276MOL0     O37986  11.557   5.268   7.458 -0.3401  0.0160 -0.5318
  276MOL0     C37987  11.622   5.307   7.335 -0.4326  0.1233  0.0360
  276MOL0     C37988  11.631   5.193   7.226  0.1109 -0.0695 -0.0643
  276MOL0     C37989  11.655   5.256   7.088  0.5754 -0.0400 -0.7652
  276MOL0     C37990  11.666   5.161   6.969 -0.2306 -0.7266 -0.1881
  276MOL0     C37991  11.806   5.103   6.965 -0.2309  0.4103  0.6129
  276MOL0     C37992  11.820   4.962   6.899 -0.2401  0.0834 -0.7291
  276MOL0     C37993  11.967   4.904   6.902  0.2696  0.6096  0.0226
  276MOL0     C37994  11.966   4.759   6.847 -0.0156  1.2058 -0.7661
  276MOL0    Cl37995  11.942   4.771   6.670 -0.2145 -0.5455  0.3693
  276MOL0     C37996  11.362   5.218   7.569 -0.3277 -0.4024 -0.5130
  276MOL0     C37997  11.221   5.204   7.574 -0.5998  0.1577  0.3762
  276MOL0     O37998  11.012   4.998   7.431 -0.0406  0.0004 -0.2227
  276MOL0     C37999  10.799   5.128   7.653 -0.1122 -0.2597  0.0358
  276MOL0     C38000  10.677   5.105   7.721 -0.1846  0.3302  0.5534
  276MOL0     N38001   9.926   5.110   7.812  0.4669  0.3349  0.7935
  276MOL0     N38002   9.801   5.102   7.846  0.2623  0.4849  0.8072
  276MOL0     C38003   8.797   4.792   8.699 -0.0459 -0.1770 -1.0400
  276MOL0     C38004   8.769   4.708   8.810  0.5290  0.1126 -0.2690
  276MOL0     C38005   8.619   4.340   9.030  0.0972 -0.0311 -0.2900
  276MOL0     C38006   8.737   4.295   9.097 -0.5228  0.3418  0.3619
  276MOL0     C38007   8.720   4.212   9.212  0.1329 -1.0191 -0.6806
  276MOL0     C38008   8.595   4.163   9.245 -0.0971  0.8979 -0.7348
  276MOL0     O38009   8.603   4.088   9.359 -0.7583 -0.1232  0.4675
  276MOL0     C38010   8.484   4.032   9.414 -0.5559 -0.2106 -0.7705
  276MOL0     C38011   8.518   3.961   9.546 -1.0580  0.3904  0.5395
  276MOL0     C38012   8.403   3.972   9.653  0.0051 -0.3053 -0.1798
  276MOL0     C38013   8.285   3.877   9.620  0.2014  0.0470 -0.8699
  276MOL0     C38014   8.165   3.885   9.701 -0.1167 -0.8122 -1.3805
  276MOL0     C38015   8.073   3.868   9.785 -0.0723 -0.3346 -0.2808
  276MOL0     C38016   8.483   4.206   9.179  0.6422  1.1575  0.1633
  276MOL0     C38017   8.492   4.301   9.080  0.6439 -0.0661  1.3722
  276MOL0     C38018   8.369   4.378   9.045  0.5987  0.2605 -0.5221
  276MOL0     H38019   8.810   4.402   8.676 -2.0461  0.2170  2.0293
  276MOL0     H38020   8.836   4.532   8.465 -1.6978 -0.6906  0.5879
  276MOL0     H38021   8.933   4.741   8.289 -0.6844 -1.2959  1.0955
  276MOL0     H38022   9.042   4.735   8.433  0.6182  1.5971  2.3426
  276MOL0     H38023   8.950   4.989   8.297  3.0916  1.4478 -4.5963
  276MOL0     H38024   9.087   4.962   8.425  1.0039  2.9244 -2.1486
  276MOL0     H38025   9.186   4.820   8.254 -1.1101  0.3780  4.3625
  276MOL0     H38026   9.072   4.890   8.122 -0.6051  1.0047 -0.3800
  276MOL0     H38027   9.155   5.091   8.109 -0.6861 -0.1636  0.1199
  276MOL0     H38028   9.231   5.092   8.271  3.2089  2.5020 -2.0502
  276MOL0     H38029   9.329   4.936   8.029  5.2722  1.0686 -0.4710
  276MOL0     H38030   9.392   4.922   8.189  1.2987  0.2529  0.4814
  276MOL0     H38031   9.390   5.167   8.012  0.6206 -0.7166 -0.6918
  276MOL0     H38032   9.450   5.166   8.184  1.1211  2.6026 -1.4841
  276MOL0     H38033   9.561   4.999   7.956  0.0092  2.4877 -1.9707
  276MOL0     H38034   9.618   4.990   8.128  1.4566  1.7512  0.2395
  276MOL0     H38035   9.612   5.243   7.951  0.2367  0.5912  0.4936
  276MOL0     H38036   9.677   5.234   8.112  1.2940  0.1348  0.3131
  276MOL0     H38037   9.914   5.217   8.126 -1.4316 -1.7153  0.7567
  276MOL0     H38038  10.169   5.182   8.048 -0.2242  0.7446  0.4396
  276MOL0     H38039  10.153   5.280   7.905  0.5115  1.1902  0.4057
  276MOL0     H38040  10.179   4.980   7.912  1.3830  0.8814  1.0412
  276MOL0     H38041  10.226   5.076   7.772 -0.3349 -1.2932 -0.0254
  276MOL0     H38042  10.407   5.165   7.935 -1.1703 -0.2924 -0.1872
  276MOL0     H38043  10.362   5.030   8.035 -0.0643 -2.3706 -0.4882
  276MOL0     H38044  10.555   4.961   7.897  1.2696  1.4807 -3.8534
  276MOL0     H38045  10.404   4.861   7.869  2.1547  0.3583 -0.1188
  276MOL0     H38046  10.520   4.906   7.490  0.2431 -0.7499 -1.1825
  276MOL0     H38047  10.805   4.866   7.327 -0.4174 -0.2930  1.2455
  276MOL0     H38048  10.742   5.024   7.260  0.2855  0.0826  0.9402
  276MOL0     H38049  10.636   4.885   7.302 -0.0642 -0.2674  0.3201
  276MOL0     H38050  11.150   5.325   7.262 -0.4892  1.1143  1.9799
  276MOL0     H38051  11.382   5.366   7.268 -0.4063 -1.1000 -0.4073
  276MOL0     H38052  11.579   5.396   7.289 -1.5340 -0.4732 -0.1214
  276MOL0     H38053  11.725   5.328   7.365 -0.4805  2.4528 -1.2158
  276MOL0     H38054  11.712   5.122   7.247  1.1867  1.2247  0.2719
  276MOL0     H38055  11.539   5.135   7.226  0.1026 -0.0728 -0.9881
  276MOL0     H38056  11.743   5.320   7.096  0.7609 -0.2932 -0.7639
  276MOL0     H38057  11.577   5.329   7.064 -0.3250 -0.2642  1.3121
  276MOL0     H38058  11.648   5.208   6.871  0.0063  1.4424  0.7400
  276MOL0     H38059  11.586   5.088   6.985 -3.0736  2.1393 -0.2121
  276MOL0     H38060  11.883   5.161   6.914  1.1335 -2.1191 -0.3957
  276MOL0     H38061  11.839   5.096   7.069  0.3507 -1.9248  0.3264
  276MOL0     H38062  11.787   4.969   6.795 -1.3313 -1.3892 -0.5067
  276MOL0     H38063  11.760   4.896   6.962 -0.5705  0.3119 -0.8031
  276MOL0     H38064  12.013   4.912   7.002 -0.6248  0.6147  0.4414
  276MOL0     H38065  12.040   4.958   6.840  1.5149  0.5636  1.3625
  276MOL0     H38066  11.897   4.693   6.901  0.7566  2.9441  2.6255
  276MOL0     H38067  12.061   4.709   6.866 -2.1490 -1.8812  3.3745
  276MOL0     H38068  11.430   5.190   7.648 -1.4328  1.4608  1.2142
  276MOL0     H38069  11.174   5.166   7.665  1.9556 -3.2828  0.4681
  276MOL0     H38070  10.885   5.179   7.695  1.3273 -0.0660 -2.9079
  276MOL0     H38071  10.671   5.150   7.820  1.3866 -1.7333  1.6549
  276MOL0     H38072   8.802   4.900   8.709  2.0882 -0.2119 -1.2437
  276MOL0     H38073   8.732   4.763   8.896  3.1920 -0.4498  1.3690
  276MOL0     H38074   8.839   4.314   9.068 -0.2523 -0.4944  0.7172
  276MOL0     H38075   8.820   4.192   9.249  0.5048 -0.0890 -1.1490
  276MOL0     H38076   8.419   4.119   9.431  1.1692  0.8605  0.6051
  276MOL0     H38077   8.428   3.971   9.342  0.4816 -0.0573 -1.7269
  276MOL0     H38078   8.610   3.996   9.592 -2.0830  1.3321  1.9893
  276MOL0     H38079   8.546   3.857   9.527 -0.8538  0.7469 -1.2855
  276MOL0     H38080   8.447   3.944   9.749 -2.3548 -2.6977  0.3336
  276MOL0     H38081   8.365   4.075   9.655  0.5653 -0.1098  0.9821
  276MOL0     H38082   8.327   3.776   9.618  1.4789  0.5399 -0.1424
  276MOL0     H38083   8.241   3.894   9.522 -1.6144 -2.7240 -0.6558
  276MOL0     H38084   7.999   3.842   9.858  0.3855 -0.3997  0.1661
  276MOL0     H38085   8.389   4.167   9.217 -0.5766  0.3235 -3.2737
  276MOL0     H38086   8.388   4.486   9.049  0.5982  0.2407  0.2020
  276MOL0     H38087   8.340   4.353   8.943 -0.0654 -0.5492 -0.1477
  276MOL0     H38088   8.288   4.346   9.112  0.6643 -3.0136 -1.8521
  277MOL0     O38089   2.815   0.666  10.795  0.2353 -0.5869  0.0019
  277MOL0     C38090   2.878   0.746  10.726 -0.1047  0.3960  0.8837
  277MOL0     O38091   2.816   0.812  10.621  0.2581  0.1265 -0.3665
  277MOL0     C38092   2.684   0.806  10.618  0.2574  0.3346  0.4682
  277MOL0     C38093   2.611   0.914  10.669  0.4618  0.8683 -0.1926
  277MOL0     C38094   2.474   0.915  10.671 -0.2415 -0.3616  0.4267
  277MOL0     C38095   2.399   0.812  10.603  0.1787  1.0153  0.0503
  277MOL0     O38096   2.261   0.799  10.622  0.0186 -0.3171 -0.2190
  277MOL0     C38097   2.223   0.805  10.763  0.1130 -0.4157  0.0383
  277MOL0     C38098   2.096   0.727  10.789 -0.4710 -0.1333 -0.3621
  277MOL0     C38099   2.124   0.582  10.739  1.0385 -1.2033 -0.0447
  277MOL0     C38100   2.022   0.491  10.800  0.4507 -0.8447 -0.3746
  277MOL0     C38101   2.021   0.350  10.732  0.1843 -0.3170  0.1880
  277MOL0     C38102   1.880   0.280  10.758 -0.5763  0.7060 -0.2268
  277MOL0     C38103   1.865   0.159  10.673 -0.6252 -0.4380  0.4991
  277MOL0     C38104   1.729   0.096  10.684 -0.4769 -0.0882  0.5454
  277MOL0     N38105   1.619   0.171  10.631  0.6276  0.4382  0.0047
  277MOL0     C38106   1.627   0.245  10.523 -0.6047 -0.9532  0.7620
  277MOL0     C38107   1.508   0.306  10.501 -0.9522 -0.3134 -0.0193
  277MOL0     C38108   1.471   0.381  10.377 -0.0228 -0.4497 -0.0380
  277MOL0     C38109   1.508   0.527  10.370  0.4855 -0.0739  1.1101
  277MOL0     C38110   1.663   0.554  10.371 -0.9444 -0.5668 -0.2627
  277MOL0     C38111   1.706   0.696  10.433 -0.1397 -0.8608  0.1761
  277MOL0     O38112   1.684   0.807  10.344  0.4309  0.7369 -0.4754
  277MOL0     C38113   1.705   0.940  10.380  0.9995  0.1452 -0.3456
  277MOL0     C38114   1.735   0.986  10.509 -0.4724 -0.3823  0.1132
  277MOL0     C38115   1.753   1.128  10.527 -0.4330 -0.6188 -0.1628
  277MOL0     C38116   1.798   1.165  10.672  0.0449  0.2059  0.2341
  277MOL0     C38117   1.727   1.220  10.423 -0.3849  0.9076 -0.3437
  277MOL0     C38118   1.724   1.364  10.442  0.8070 -0.8870 -0.4270
  277MOL0     O38119   1.689   1.418  10.560  0.5724  0.2266 -0.0491
  277MOL0     C38120   1.697   1.551  10.584  0.5111  0.2342  0.4509
  277MOL0     C38121   1.596   1.607  10.668  0.5917 -0.1184 -0.3295
  277MOL0     C38122   1.598   1.740  10.702 -0.0056  1.3447 -0.0525
  277MOL0     C38123   1.699   1.820  10.653  0.6519  0.1754  0.1028
  277MOL0     O38124   1.712   1.951  10.681  0.7210  0.0628  0.2010
  277MOL0     C38125   1.606   2.010  10.752  0.3045  0.0810  0.5827
  277MOL0     C38126   1.628   2.162  10.772  0.2670 -0.1347  0.2163
  277MOL0     C38127   1.508   2.229  10.829 -0.2341  0.2226  0.4451
  277MOL0     C38128   1.521   2.383  10.801  0.1547 -0.5246 -0.1335
  277MOL0     C38129   1.401   2.459  10.863  0.5288  0.1861 -0.9847
  277MOL0     C38130   1.433   2.597  10.903 -0.0159  0.3374  0.3127
  277MOL0     C38131   1.304   2.684  10.920 -0.0242  0.0524 -0.1571
  277MOL0     C38132   1.312   2.803  11.027  0.4452 -0.5818  1.0082
  277MOL0    Cl38133   1.353   2.949  10.933  0.2579 -0.4322 -0.1762
  277MOL0     C38134   1.797   1.768  10.575 -1.0986  0.0084  1.1958
  277MOL0     C38135   1.798   1.632  10.544 -0.0583  0.3256 -0.2324
  277MOL0     O38136   1.763   1.429  10.348 -0.5345  1.0365 -0.0579
  277MOL0     C38137   1.710   1.168  10.297  0.4796 -1.1696 -0.9075
  277MOL0     C38138   1.698   1.031  10.274 -0.0930  0.2096  0.8148
  277MOL0     N38139   1.444   0.296  10.622  0.2169  0.9130  0.5614
  277MOL0     N38140   1.518   0.227  10.705 -0.1844 -0.3581  0.2871
  277MOL0     C38141   2.468   0.705  10.544  0.6379 -0.0680 -0.0999
  277MOL0     C38142   2.611   0.710  10.547  0.1654 -0.5003  0.0663
  277MOL0     C38143   3.018   0.757  10.738  0.2801 -0.2745  0.0659
  277MOL0     C38144   3.087   0.770  10.618  0.1374 -0.2509 -0.1297
  277MOL0     C38145   3.225   0.772  10.619 -0.2575 -0.1566 -0.1223
  277MOL0     C38146   3.292   0.763  10.741 -0.1176 -0.0644  0.2119
  277MOL0     O38147   3.427   0.749  10.765 -0.2254  0.3534 -0.1574
  277MOL0     C38148   3.515   0.759  10.656  0.5036  0.2619 -0.2578
  277MOL0     C38149   3.656   0.718  10.679 -0.1408 -0.2533  0.0183
  277MOL0     C38150   3.689   0.777  10.816 -0.6424  0.7308  0.3942
  277MOL0     C38151   3.842   0.756  10.831 -0.3678 -0.6601  0.5446
  277MOL0     C38152   3.888   0.820  10.962  0.5109 -0.2423  0.0325
  277MOL0     C38153   3.926   0.854  11.069 -0.1938 -0.0552 -0.7651
  277MOL0     C38154   3.220   0.754  10.853  0.5021  0.8458 -0.3563
  277MOL0     C38155   3.082   0.741  10.859 -0.2084  0.3578  0.7600
  277MOL0     C38156   3.018   0.718  10.997 -0.9765 -0.3092 -0.2627
  277MOL0     H38157   2.671   0.993  10.713  2.5277  0.3479 -1.8825
  277MOL0     H38158   2.415   0.991  10.722  0.4670 -0.4795  1.4521
  277MOL0     H38159   2.213   0.911  10.786  1.7426 -0.4177  0.8826
  277MOL0     H38160   2.298   0.754  10.824 -2.0153 -1.6512  1.7840
  277MOL0     H38161   2.077   0.715  10.896  1.5993  1.0951  0.2089
  277MOL0     H38162   2.013   0.778  10.740 -0.3598  0.9201  0.5055
  277MOL0     H38163   2.120   0.580  10.629  0.5808  0.3707 -0.0851
  277MOL0     H38164   2.221   0.553  10.779  0.0711 -1.5347  2.1800
  277MOL0     H38165   2.038   0.485  10.908 -1.2537  2.0646  0.1479
  277MOL0     H38166   1.923   0.537  10.794  0.6474  0.3380  3.0128
  277MOL0     H38167   2.098   0.285  10.774  0.5065 -1.0517 -1.4629
  277MOL0     H38168   2.037   0.359  10.624  4.7201  1.7242  0.7991
  277MOL0     H38169   1.885   0.265  10.866  0.4387  1.0476 -0.2145
  277MOL0     H38170   1.801   0.351  10.732  1.5843  2.2864 -3.0767
  277MOL0     H38171   1.947   0.099  10.714 -0.2481  0.1363  0.5924
  277MOL0     H38172   1.900   0.179  10.572  0.8817 -0.0321  1.0732
  277MOL0     H38173   1.738   0.003  10.626  2.8865  0.6510 -0.3760
  277MOL0     H38174   1.716   0.074  10.790  1.7574  1.8719  1.3219
  277MOL0     H38175   1.703   0.248  10.446 -2.3090 -2.2464 -1.0648
  277MOL0     H38176   1.362   0.382  10.373  0.0229  0.6013 -1.6260
  277MOL0     H38177   1.502   0.326  10.288 -3.2345 -0.1757 -1.4399
  277MOL0     H38178   1.468   0.571  10.278  2.5769  0.0269  0.2073
  277MOL0     H38179   1.462   0.576  10.456  1.3889  1.7514  0.6132
  277MOL0     H38180   1.705   0.477  10.437  1.7715 -0.1470 -1.3840
  277MOL0     H38181   1.713   0.540  10.275 -2.3750  1.4374 -1.3597
  277MOL0     H38182   1.647   0.709  10.524 -0.2214  3.8724 -0.2696
  277MOL0     H38183   1.807   0.710  10.472 -1.6374  3.4238  3.2516
  277MOL0     H38184   1.761   0.920  10.591  0.3216 -0.2117  0.0112
  277MOL0     H38185   1.818   1.079  10.736 -1.4529 -0.7930 -0.5814
  277MOL0     H38186   1.709   1.219  10.706 -2.2481 -1.5324 -2.6042
  277MOL0     H38187   1.888   1.226  10.686 -0.3774  1.0311 -0.5355
  277MOL0     H38188   1.516   1.540  10.698 -0.6274  1.2770 -0.3488
  277MOL0     H38189   1.520   1.779  10.767  0.0879  0.6298  0.4983
  277MOL0     H38190   1.513   1.998  10.696  0.9069  0.1753 -0.4654
  277MOL0     H38191   1.587   1.978  10.854 -5.1283  1.0711  0.1543
  277MOL0     H38192   1.709   2.175  10.845  0.3819  1.3594 -0.1478
  277MOL0     H38193   1.663   2.211  10.681  0.4205  0.6801  0.6943
  277MOL0     H38194   1.506   2.211  10.937 -0.5031 -2.9403  0.0143
  277MOL0     H38195   1.421   2.188  10.776  0.5508 -0.5983 -0.2349
  277MOL0     H38196   1.537   2.411  10.697  0.2058 -0.3845 -0.0875
  277MOL0     H38197   1.613   2.417  10.848 -0.3926 -3.1458  3.1898
  277MOL0     H38198   1.317   2.458  10.793  0.7029 -0.3495 -1.1903
  277MOL0     H38199   1.366   2.406  10.952 -0.1870  5.2550  2.1667
  277MOL0     H38200   1.495   2.648  10.828 -0.0972 -0.5357 -0.3756
  277MOL0     H38201   1.493   2.593  10.994  0.2237  0.1451  0.1515
  277MOL0     H38202   1.233   2.613  10.962  1.8351 -2.1898 -0.6224
  277MOL0     H38203   1.257   2.720  10.828 -0.8197  1.3348  0.7054
  277MOL0     H38204   1.388   2.780  11.103  2.6659 -2.4694 -1.5990
  277MOL0     H38205   1.213   2.823  11.069  1.0182  0.1848  2.0392
  277MOL0     H38206   1.888   1.822  10.548  0.5053 -2.6534  0.8413
  277MOL0     H38207   1.879   1.596  10.481 -2.2362 -1.6672 -2.0466
  277MOL0     H38208   1.708   1.239  10.215  1.7269 -1.3535 -1.1157
  277MOL0     H38209   1.675   0.992  10.175  1.2999 -0.8390  0.8681
  277MOL0     H38210   2.408   0.638  10.484 -0.6653  1.7502 -0.9400
  277MOL0     H38211   2.658   0.638  10.480  0.0493 -0.1138 -0.4445
  277MOL0     H38212   3.035   0.785  10.524  2.5988  1.6687 -1.2844
  277MOL0     H38213   3.268   0.782  10.520 -0.4434  3.9853  0.0300
  277MOL0     H38214   3.466   0.710  10.572  0.0525  1.2566 -0.5997
  277MOL0     H38215   3.522   0.866  10.633  0.2862  0.9878  2.6443
  277MOL0     H38216   3.715   0.768  10.600  0.0915  1.0120  0.9577
  277MOL0     H38217   3.654   0.609  10.688 -0.5111 -0.2704 -0.2413
  277MOL0     H38218   3.657   0.881  10.819  1.4670  1.4560 -0.6803
  277MOL0     H38219   3.635   0.726  10.897 -1.6837  1.5099  0.2022
  277MOL0     H38220   3.887   0.800  10.742 -2.5023  3.4779  1.2777
  277MOL0     H38221   3.857   0.648  10.838 -1.6738 -0.7914  1.6238
  277MOL0     H38222   3.977   0.874  11.161  0.9606 -0.3609 -1.3136
  277MOL0     H38223   3.268   0.763  10.950 -0.0461 -0.0883  0.0182
  277MOL0     H38224   3.051   0.797  11.065 -3.3996  0.1061  0.5376
  277MOL0     H38225   2.908   0.721  10.994 -1.1079  1.9024  2.6113
  277MOL0     H38226   3.057   0.626  11.041  0.9859  0.2923 -0.6514
  278MOL0     O38227   3.557   9.662  10.164 -0.4350  0.5876 -0.0800
  278MOL0     C38228   3.646   9.588  10.131 -0.2844 -0.0290 -0.3033
  278MOL0     O38229   3.650   9.457  10.156 -0.5550 -0.1596 -1.1529
  278MOL0     C38230   3.529   9.398  10.182 -0.1598 -0.8605 -0.6541
  278MOL0     C38231   3.467   9.414  10.315 -0.2758 -0.3002 -1.3608
  278MOL0     C38232   3.340   9.360  10.335 -0.2850  0.5638  0.5533
  278MOL0     C38233   3.272   9.289  10.230 -0.2980  0.1136 -0.0549
  278MOL0     O38234   3.143   9.259  10.258  0.6765  0.1521  0.9993
  278MOL0     C38235   3.065   9.209  10.144  0.0023 -0.1961 -0.6583
  278MOL0     C38236   2.915   9.183  10.169 -0.1366  0.2984  1.3412
  278MOL0     C38237   2.882   9.071  10.270 -0.0957 -0.3875 -0.5071
  278MOL0     C38238   2.751   8.989  10.243  0.1916 -0.0092 -0.3150
  278MOL0     C38239   2.746   8.889  10.130  0.3216  0.8193 -0.4277
  278MOL0     C38240   2.853   8.783  10.153 -0.7720 -0.3060  0.0378
  278MOL0     C38241   2.853   8.678  10.036 -0.5762 -0.1247 -0.2905
  278MOL0     C38242   2.876   8.734   9.892 -0.3309 -0.1831 -0.6066
  278MOL0     N38243   3.001   8.801   9.883 -0.0012  0.1301 -0.1838
  278MOL0     C38244   3.124   8.746   9.924  0.0401 -0.0569  0.2337
  278MOL0     C38245   3.209   8.855   9.934  0.2724  0.3484 -0.4952
  278MOL0     C38246   3.348   8.857   9.979 -0.2179  0.3007 -0.6348
  278MOL0     C38247   3.364   8.906  10.124  0.6495  0.4160 -0.4764
  278MOL0     C38248   3.508   8.936  10.159 -0.8716  0.7023 -0.7124
  278MOL0     C38249   3.518   9.011  10.293  0.8587  0.0189  0.0171
  278MOL0     O38250   3.473   8.925  10.394  0.4494 -0.3771  0.3976
  278MOL0     C38251   3.405   8.996  10.496  0.6825  0.6454  0.3079
  278MOL0     C38252   3.439   9.119  10.552 -0.2044 -0.0659  0.1631
  278MOL0     C38253   3.369   9.177  10.652 -0.5318  0.8062 -0.4407
  278MOL0     C38254   3.412   9.317  10.685  0.3247  0.5040  0.3372
  278MOL0     C38255   3.251   9.116  10.700  0.7348  0.2029 -0.3096
  278MOL0     C38256   3.179   9.151  10.819 -0.7650  0.1326 -0.0108
  278MOL0     O38257   3.048   9.101  10.828 -0.2493 -0.4849 -0.0776
  278MOL0     C38258   2.974   9.112  10.941  0.4772  0.0240  0.2423
  278MOL0     C38259   2.834   9.103  10.905 -1.9883  0.3079 -0.0845
  278MOL0     C38260   2.741   9.126  10.999  0.5467 -0.3469 -0.1597
  278MOL0     C38261   2.781   9.118  11.130  0.3882  0.4991  0.0917
  278MOL0     O38262   2.677   9.129  11.211 -0.3692 -0.5199 -0.6075
  278MOL0     C38263   2.660   9.021  11.298  0.2036  0.4214  0.4057
  278MOL0     C38264   2.520   9.002  11.364  0.3024 -0.0743  0.6436
  278MOL0     C38265   2.523   8.874  11.451 -0.2258 -0.1515  0.9267
  278MOL0     C38266   2.427   8.874  11.573 -0.1006 -1.0608  0.9840
  278MOL0     C38267   2.428   8.731  11.629 -0.5889 -0.2920  0.5304
  278MOL0     C38268   2.367   8.704  11.763 -0.6870  0.3690 -0.7253
  278MOL0     C38269   2.226   8.746  11.754  1.2945 -0.8063  0.0753
  278MOL0     C38270   2.159   8.716  11.886  0.5485  0.2917  0.4655
  278MOL0    Cl38271   2.164   8.553  11.932 -0.1150 -0.0732 -0.2368
  278MOL0     C38272   2.914   9.095  11.171 -0.1713 -1.2006  0.1180
  278MOL0     C38273   3.019   9.092  11.073 -0.3636 -0.4706 -0.3402
  278MOL0     O38274   3.240   9.209  10.905 -0.0523  0.1160 -0.6538
  278MOL0     C38275   3.209   9.000  10.636 -0.3687 -0.2476 -0.6099
  278MOL0     C38276   3.289   8.937  10.544  0.3083  0.6593 -0.1610
  278MOL0     N38277   3.145   8.969   9.907  0.5571 -0.5080  0.2348
  278MOL0     N38278   3.022   8.935   9.870  0.0056  1.2316 -0.2243
  278MOL0     C38279   3.331   9.278  10.105  0.1773 -0.6357  0.3645
  278MOL0     C38280   3.456   9.330  10.082  0.1277 -1.3224 -0.7028
  278MOL0     C38281   3.767   9.647  10.067  1.0624 -0.0166 -0.7744
  278MOL0     C38282   3.777   9.787  10.059  0.0619 -0.0912 -0.7225
  278MOL0     C38283   3.889   9.855  10.003 -0.0729  0.2890  0.2577
  278MOL0     C38284   3.991   9.778   9.945  0.1298 -0.1590 -0.4450
  278MOL0     O38285   4.096   9.841   9.887  0.4965  0.4633 -1.1026
  278MOL0     C38286   4.135   9.800   9.754 -0.1124 -0.6685  0.1309
  278MOL0     C38287   4.012   9.797   9.652 -0.9436  0.1726  0.0147
  278MOL0     C38288   3.938   9.930   9.641  0.1683 -0.0933 -0.2128
  278MOL0     C38289   3.983  10.027   9.533  0.2816 -0.0221  0.1145
  278MOL0     C38290   4.116  10.067   9.514 -0.3703 -0.2601 -0.6229
  278MOL0     C38291   4.224  10.127   9.520 -0.1502 -0.0053  0.4809
  278MOL0     C38292   3.978   9.636   9.950 -0.5161 -1.1178 -0.0457
  278MOL0     C38293   3.870   9.567  10.003 -0.0761 -0.1110  0.0893
  278MOL0     C38294   3.882   9.419   9.988 -0.1329 -0.1046 -0.4867
  278MOL0     H38295   3.521   9.478  10.384 -1.0963  1.9361 -2.6861
  278MOL0     H38296   3.284   9.372  10.427 -1.6803  0.0325 -0.1808
  278MOL0     H38297   3.116   9.119  10.108  0.8471  0.0234 -0.0247
  278MOL0     H38298   3.070   9.283  10.063  3.2853 -0.0660 -0.4552
  278MOL0     H38299   2.870   9.281  10.189 -2.0068  0.3791 -2.5204
  278MOL0     H38300   2.868   9.156  10.075 -1.1320 -1.6483  2.3407
  278MOL0     H38301   2.967   9.003  10.268 -0.0318 -0.2999 -0.8351
  278MOL0     H38302   2.873   9.115  10.370 -2.4689  0.8728 -1.1918
  278MOL0     H38303   2.732   8.937  10.337 -1.7355 -0.9135 -1.1477
  278MOL0     H38304   2.660   9.050  10.239 -0.5868 -0.3874  4.8447
  278MOL0     H38305   2.754   8.934  10.031 -4.0911  0.5502 -1.1108
  278MOL0     H38306   2.655   8.829  10.139  1.6377 -1.0432  1.8603
  278MOL0     H38307   2.955   8.822  10.153 -0.7142  0.3689  5.7851
  278MOL0     H38308   2.836   8.724  10.243 -0.3030 -0.4946  0.0025
  278MOL0     H38309   2.754   8.633  10.027 -0.5362  0.1723 -3.3150
  278MOL0     H38310   2.932   8.605  10.058  2.1282  2.6553 -0.0102
  278MOL0     H38311   2.859   8.656   9.818  0.8424  0.7432 -1.9131
  278MOL0     H38312   2.807   8.815   9.871  0.4984  0.7988  0.3055
  278MOL0     H38313   3.147   8.648   9.963 -2.1411 -0.5820  0.2722
  278MOL0     H38314   3.398   8.930   9.915 -3.9878  1.2198 -2.9040
  278MOL0     H38315   3.383   8.755   9.961  2.2990  0.6849  1.6134
  278MOL0     H38316   3.295   8.987  10.147  1.3587  1.2785 -1.3417
  278MOL0     H38317   3.327   8.826  10.189 -0.7203  3.3038  2.5951
  278MOL0     H38318   3.560   8.840  10.166 -0.7427  0.8798  3.5182
  278MOL0     H38319   3.546   9.002  10.080 -2.4224  0.5000 -1.6663
  278MOL0     H38320   3.620   9.040  10.319  0.6172  0.2868  0.6792
  278MOL0     H38321   3.459   9.103  10.288  1.4833  0.5628  1.9346
  278MOL0     H38322   3.530   9.166  10.516  0.6302 -1.1775  0.7445
  278MOL0     H38323   3.490   9.359  10.620  0.9099  0.0624  0.7508
  278MOL0     H38324   3.460   9.323  10.783 -0.5695 -3.0125  1.1168
  278MOL0     H38325   3.320   9.376  10.681 -1.4962 -2.2721 -1.3596
  278MOL0     H38326   2.813   9.090  10.800  0.7001  2.2979 -0.9651
  278MOL0     H38327   2.634   9.126  10.979  0.7916 -2.9262 -1.9745
  278MOL0     H38328   2.688   8.931  11.243  1.6087 -0.2308  2.1115
  278MOL0     H38329   2.729   9.031  11.382 -0.5249  1.3913  0.9124
  278MOL0     H38330   2.517   9.093  11.425  0.2645 -0.0213  0.5617
  278MOL0     H38331   2.427   9.001  11.306  0.9011  1.9874 -0.4621
  278MOL0     H38332   2.624   8.857  11.490 -0.2521 -1.3351  0.5260
  278MOL0     H38333   2.503   8.788  11.385 -0.5829  0.2378  0.5253
  278MOL0     H38334   2.327   8.910  11.548 -1.0211 -4.0763 -0.2471
  278MOL0     H38335   2.479   8.944  11.639 -2.2025  0.7862  0.7754
  278MOL0     H38336   2.373   8.665  11.560 -1.8745 -1.2627  2.4021
  278MOL0     H38337   2.535   8.712  11.639  0.3511  2.7912 -2.0629
  278MOL0     H38338   2.429   8.748  11.842  0.0034 -3.1397  0.8519
  278MOL0     H38339   2.358   8.596  11.775  0.8913  0.4951  2.5705
  278MOL0     H38340   2.187   8.687  11.670  0.7812  0.3915 -0.5565
  278MOL0     H38341   2.220   8.855  11.742 -0.0929 -0.8958 -0.1628
  278MOL0     H38342   2.053   8.743  11.878 -0.0877 -1.6934  1.4814
  278MOL0     H38343   2.195   8.779  11.967 -1.6577  0.0922  1.6809
  278MOL0     H38344   2.948   9.080  11.273  0.7459 -2.0672 -0.3018
  278MOL0     H38345   3.124   9.094  11.099 -1.4293 -0.0577  5.2153
  278MOL0     H38346   3.135   8.939  10.687 -0.0633 -0.1442 -0.0364
  278MOL0     H38347   3.264   8.842  10.500 -2.7297  1.4634 -0.3492
  278MOL0     H38348   3.275   9.233  10.024 -1.3709  1.5003  0.1422
  278MOL0     H38349   3.496   9.315   9.983  1.3157 -2.2914 -0.0948
  278MOL0     H38350   3.696   9.849  10.097  0.8397  0.3210  0.3216
  278MOL0     H38351   3.898   9.963   9.998  2.8782  0.0703 -1.5933
  278MOL0     H38352   4.212   9.862   9.707 -1.0748 -1.4857 -2.7404
  278MOL0     H38353   4.190   9.706   9.761  3.1380  0.9230 -1.6709
  278MOL0     H38354   3.946   9.722   9.698  1.8437 -3.5372 -1.4728
  278MOL0     H38355   4.044   9.757   9.555  1.6471  0.7492  0.5383
  278MOL0     H38356   3.835   9.907   9.612  0.8668 -1.1844 -2.0286
  278MOL0     H38357   3.941   9.984   9.736  3.9539  0.5119 -0.5308
  278MOL0     H38358   3.929  10.122   9.533  0.3402  0.0138  0.4157
  278MOL0     H38359   3.951   9.987   9.437  0.1218  0.6850 -0.1346
  278MOL0     H38360   4.324  10.164   9.515  0.1432 -0.9256 -1.4752
  278MOL0     H38361   4.060   9.585   9.901 -1.6685 -0.6128 -2.6708
  278MOL0     H38362   3.833   9.354  10.062  1.5519  0.1628  0.9141
  278MOL0     H38363   3.838   9.393   9.891 -2.8949 -1.6352  1.0474
  278MOL0     H38364   3.988   9.395   9.999  0.0651  1.0245  0.2640
  279MOL0     O38365   5.368   0.403   3.369  1.1034  0.1831  0.3000
  279MOL0     C38366   5.307   0.296   3.393 -0.1664 -0.1324 -0.5846
  279MOL0     O38367   5.361   0.169   3.402 -0.0170  0.0824  0.4269
  279MOL0     C38368   5.491   0.149   3.376  0.7311  0.5594 -0.0732
  279MOL0     C38369   5.564   0.070   3.475  0.3988 -0.9470 -0.1042
  279MOL0     C38370   5.694   0.051   3.453  0.3635 -1.2474  0.6682
  279MOL0     C38371   5.770   0.110   3.342 -0.0271  0.7836  0.1036
  279MOL0     O38372   5.910   0.080   3.349 -0.1686  0.0575 -0.1783
  279MOL0     C38373   5.989   0.141   3.250  0.4834  0.1870 -0.3522
  279MOL0     C38374   6.134   0.099   3.270 -0.6539  0.4285 -0.4105
  279MOL0     C38375   6.175  -0.046   3.243  0.8600 -0.0545  0.5622
  279MOL0     C38376   6.322  -0.060   3.283 -0.1018 -0.4912 -0.4920
  279MOL0     C38377   6.380  -0.197   3.280  0.3966  0.9429  0.4656
  279MOL0     C38378   6.518  -0.204   3.342  0.8117 -0.1818 -0.1372
  279MOL0     C38379   6.571  -0.347   3.365  0.0022 -0.5601  0.5794
  279MOL0     C38380   6.705  -0.372   3.432  0.5307  0.2322 -0.1800
  279MOL0     N38381   6.820  -0.304   3.369 -0.4529  0.5151  0.8234
  279MOL0     C38382   6.845  -0.173   3.368  0.1430  0.0889  1.3585
  279MOL0     C38383   6.963  -0.161   3.298 -0.1923 -0.0810  0.9063
  279MOL0     C38384   7.020  -0.032   3.244  0.6964 -0.2170  0.2512
  279MOL0     C38385   6.979  -0.001   3.098 -0.2307  1.0597 -0.1988
  279MOL0     C38386   7.004   0.142   3.056  0.0038 -0.2874  0.4678
  279MOL0     C38387   7.146   0.183   3.084 -0.8578  0.0426 -0.2838
  279MOL0     O38388   7.168   0.301   3.016  0.2651  0.2486 -0.5580
  279MOL0     C38389   7.302   0.337   2.988  0.7149 -0.1714  0.5567
  279MOL0     C38390   7.404   0.317   3.077  0.4418  0.0918  0.9703
  279MOL0     C38391   7.539   0.350   3.045  0.1993 -0.3395  0.1468
  279MOL0     C38392   7.655   0.315   3.137  0.0468 -0.2453 -0.2077
  279MOL0     C38393   7.558   0.410   2.921  0.4258 -0.4045 -0.1219
  279MOL0     C38394   7.695   0.444   2.892  0.2534 -0.3343  0.7829
  279MOL0     O38395   7.777   0.350   2.826 -0.3308 -0.8698 -0.0041
  279MOL0     C38396   7.902   0.401   2.784  0.4646 -0.2070  0.1577
  279MOL0     C38397   7.916   0.413   2.644 -0.1430  0.0486 -0.5270
  279MOL0     C38398   8.038   0.458   2.596 -0.6770  0.6600  1.3367
  279MOL0     C38399   8.155   0.451   2.670 -1.0488 -0.0094  0.2496
  279MOL0     O38400   8.276   0.463   2.600  0.4261  0.3889  0.1487
  279MOL0     C38401   8.394   0.445   2.672  0.6267 -0.8066  0.3488
  279MOL0     C38402   8.503   0.509   2.576 -0.1593 -0.5470  0.1385
  279MOL0     C38403   8.642   0.481   2.640  0.4023  0.3672 -0.0663
  279MOL0     C38404   8.754   0.566   2.577 -0.3436  0.1024 -0.3813
  279MOL0     C38405   8.903   0.550   2.630  1.1014  0.2539 -0.3361
  279MOL0     C38406   8.937   0.404   2.673 -0.6361  0.4064 -0.3509
  279MOL0     C38407   9.089   0.392   2.712  0.7876  0.8621 -0.3125
  279MOL0     C38408   9.119   0.285   2.815  0.4844  0.0350 -0.3824
  279MOL0    Cl38409   9.033   0.313   2.967 -0.4771  0.3656  0.4595
  279MOL0     C38410   8.138   0.435   2.809  0.6580  0.7824 -0.5540
  279MOL0     C38411   8.007   0.423   2.869 -0.6353  0.3266  0.3343
  279MOL0     O38412   7.727   0.561   2.909 -0.6531 -0.1757 -0.3034
  279MOL0     C38413   7.451   0.431   2.824  0.1928  0.0571  0.5280
  279MOL0     C38414   7.323   0.397   2.861 -0.0661  0.1602 -0.1194
  279MOL0     N38415   7.010  -0.283   3.262  0.5630 -0.2631 -0.1706
  279MOL0     N38416   6.921  -0.370   3.313 -0.0602  1.2078 -0.4178
  279MOL0     C38417   5.700   0.188   3.249 -0.0763  0.4970  0.3241
  279MOL0     C38418   5.561   0.208   3.267  1.1491  0.1748  0.4197
  279MOL0     C38419   5.157   0.321   3.435 -0.4022 -0.2088  0.6775
  279MOL0     C38420   5.111   0.445   3.480 -0.8015  0.3563  0.3281
  279MOL0     C38421   4.979   0.459   3.518  0.3983 -0.3690  0.1584
  279MOL0     C38422   4.895   0.349   3.518 -0.9017 -0.2646  0.3708
  279MOL0     O38423   4.759   0.362   3.538 -0.2327 -0.3230 -0.0506
  279MOL0     C38424   4.692   0.487   3.561 -0.2798  0.9940  0.7578
  279MOL0     C38425   4.531   0.464   3.575  0.0042  0.8621  0.3830
  279MOL0     C38426   4.480   0.389   3.446  0.0540 -1.0311  0.6359
  279MOL0     C38427   4.509   0.240   3.440  0.9965  0.6158 -0.1275
  279MOL0     C38428   4.380   0.176   3.408  0.0956  0.4368 -0.0766
  279MOL0     C38429   4.260   0.138   3.381  0.1215 -0.0968  0.3042
  279MOL0     C38430   4.942   0.223   3.490 -0.9151 -0.3286 -0.5636
  279MOL0     C38431   5.073   0.210   3.450 -0.5181  0.5148  0.5546
  279MOL0     C38432   5.107   0.062   3.442  0.8488  0.5772 -0.8700
  279MOL0     H38433   5.509   0.028   3.558 -0.8246 -0.7579 -0.7857
  279MOL0     H38434   5.757  -0.001   3.524 -0.5098 -1.0572  1.6062
  279MOL0     H38435   5.981   0.250   3.252  1.8193  0.2977  0.5414
  279MOL0     H38436   5.954   0.098   3.156  0.9612  0.3748 -0.6188
  279MOL0     H38437   6.200   0.165   3.212  3.1896 -0.9927  1.9461
  279MOL0     H38438   6.161   0.123   3.373  2.1467  0.6868 -1.1124
  279MOL0     H38439   6.125  -0.114   3.313 -0.8609  0.2844 -0.2829
  279MOL0     H38440   6.156  -0.080   3.141  0.3883  1.5920  0.0856
  279MOL0     H38441   6.385  -0.016   3.206 -1.1055 -0.3132 -1.2407
  279MOL0     H38442   6.335  -0.016   3.382 -0.5711  1.5146 -1.2655
  279MOL0     H38443   6.390  -0.231   3.177 -0.3969  0.6636  0.4723
  279MOL0     H38444   6.305  -0.256   3.333  0.1571  2.1107  1.4654
  279MOL0     H38445   6.590  -0.155   3.276  4.2228 -0.7678  2.8553
  279MOL0     H38446   6.510  -0.145   3.434 -0.5902  1.4449 -1.2333
  279MOL0     H38447   6.579  -0.389   3.264 -0.4723 -0.9480  0.6980
  279MOL0     H38448   6.500  -0.401   3.428 -0.2339  3.6017  4.3615
  279MOL0     H38449   6.699  -0.346   3.538 -0.4388  1.0278 -0.4172
  279MOL0     H38450   6.716  -0.481   3.441  1.0605  0.1745 -1.2768
  279MOL0     H38451   6.785  -0.090   3.404  1.8736  2.2372 -0.3688
  279MOL0     H38452   7.128  -0.042   3.263  0.6771 -3.7220 -0.8064
  279MOL0     H38453   6.987   0.046   3.313 -0.4204  0.7174 -1.2751
  279MOL0     H38454   7.029  -0.064   3.024  0.3251 -0.8547  1.7191
  279MOL0     H38455   6.876  -0.036   3.087 -0.7131  1.8788  1.4524
  279MOL0     H38456   6.974   0.162   2.953  3.1001 -2.8398 -1.0915
  279MOL0     H38457   6.947   0.210   3.120 -0.1630  0.4352 -0.4229
  279MOL0     H38458   7.161   0.195   3.191 -3.4756  1.8113 -0.0183
  279MOL0     H38459   7.217   0.106   3.050 -0.2890  0.4055  0.0701
  279MOL0     H38460   7.379   0.278   3.175 -0.2258 -1.1956  0.3116
  279MOL0     H38461   7.739   0.273   3.081  0.0957 -2.3567  1.3270
  279MOL0     H38462   7.621   0.240   3.209 -0.7021  2.0078  1.9343
  279MOL0     H38463   7.681   0.404   3.194 -2.3830 -0.7952  1.9939
  279MOL0     H38464   7.835   0.394   2.574 -0.4134 -0.1790 -0.1533
  279MOL0     H38465   8.055   0.480   2.491  0.6544 -0.8317  1.2043
  279MOL0     H38466   8.389   0.502   2.765 -2.2775  1.4491 -1.0200
  279MOL0     H38467   8.415   0.340   2.694  0.9898 -0.4576  1.7653
  279MOL0     H38468   8.485   0.469   2.476  1.1428 -2.6978  0.7064
  279MOL0     H38469   8.486   0.617   2.572  0.6392 -0.3230  1.8388
  279MOL0     H38470   8.667   0.381   2.605  1.4390  0.5166  0.2182
  279MOL0     H38471   8.641   0.498   2.748  2.0196 -1.0710  0.2103
  279MOL0     H38472   8.727   0.672   2.571 -1.5067  0.2784  4.1570
  279MOL0     H38473   8.754   0.520   2.477 -0.8945 -0.9099  0.0682
  279MOL0     H38474   8.981   0.577   2.558  0.7341  3.7292  0.3989
  279MOL0     H38475   8.915   0.614   2.718  2.0571 -1.1017  0.5732
  279MOL0     H38476   8.926   0.333   2.591  2.1235  0.1057 -0.5294
  279MOL0     H38477   8.879   0.382   2.764  1.8680  0.6534  1.3984
  279MOL0     H38478   9.122   0.484   2.761 -1.0096  2.0156 -1.1852
  279MOL0     H38479   9.143   0.378   2.618  1.3926  1.7893 -0.1140
  279MOL0     H38480   9.227   0.276   2.827  0.1620 -2.0703  1.7322
  279MOL0     H38481   9.101   0.184   2.776 -0.6262  1.1930 -3.1771
  279MOL0     H38482   8.224   0.419   2.873 -0.8508 -3.5082  0.7338
  279MOL0     H38483   7.995   0.406   2.976  3.0602  1.0980  1.0078
  279MOL0     H38484   7.466   0.475   2.726  0.6711  0.8408  0.9431
  279MOL0     H38485   7.248   0.398   2.783 -0.6158 -0.2851  0.4027
  279MOL0     H38486   5.751   0.236   3.167 -1.1922  0.0341 -0.6726
  279MOL0     H38487   5.514   0.267   3.189  2.9090  1.0280 -0.0456
  279MOL0     H38488   5.170   0.536   3.475  0.5760 -0.5521 -0.6200
  279MOL0     H38489   4.937   0.555   3.546  2.1079  0.8506 -1.2413
  279MOL0     H38490   4.734   0.541   3.646  0.5196  1.0549  0.3331
  279MOL0     H38491   4.703   0.549   3.471 -0.8099 -2.2884 -1.7560
  279MOL0     H38492   4.482   0.560   3.592 -0.1697  0.3897  2.8747
  279MOL0     H38493   4.510   0.393   3.656 -0.3476 -2.0123 -2.0676
  279MOL0     H38494   4.374   0.411   3.431  0.6552  2.2510  0.3901
  279MOL0     H38495   4.527   0.436   3.359 -0.9251 -0.0424  0.6295
  279MOL0     H38496   4.538   0.196   3.536  3.8787 -0.2380 -1.2701
  279MOL0     H38497   4.585   0.227   3.362 -0.3241 -3.2532 -1.0166
  279MOL0     H38498   4.159   0.105   3.365  0.7922 -2.3312  0.3211
  279MOL0     H38499   4.864   0.148   3.496  0.7063 -2.0718  5.9997
  279MOL0     H38500   5.018  -0.000   3.458 -0.1974  2.4028  0.8060
  279MOL0     H38501   5.125   0.028   3.339  0.1512 -0.7695 -0.5657
  279MOL0     H38502   5.190   0.025   3.502  0.2771  0.9462  0.1659
  280MOL0     O38503   0.312   5.421  11.444 -0.8856  0.6427  0.4288
  280MOL0     C38504   0.329   5.372  11.550 -0.1513  0.3937 -0.6027
  280MOL0     O38505   0.249   5.392  11.651  0.4467  0.1898  0.6108
  280MOL0     C38506   0.120   5.419  11.629 -0.5580  0.1436  1.1655
  280MOL0     C38507   0.039   5.338  11.554  0.3412  0.7847 -0.3060
  280MOL0     C38508  -0.105   5.360  11.554 -0.0212 -0.4521 -0.3712
  280MOL0     C38509  -0.153   5.468  11.627  0.0013 -0.7473 -0.4868
  280MOL0     O38510  -0.283   5.492  11.623 -0.0422  0.2120 -0.0057
  280MOL0     C38511  -0.326   5.634  11.606  0.8102 -0.1479 -0.9148
  280MOL0     C38512  -0.479   5.623  11.593 -0.0895  0.9486  0.8513
  280MOL0     C38513  -0.548   5.588  11.728 -0.7664 -0.9538 -0.5612
  280MOL0     C38514  -0.697   5.583  11.712  0.5163  0.6436 -0.4324
  280MOL0     C38515  -0.754   5.500  11.832 -0.0159 -0.4649 -0.6798
  280MOL0     C38516  -0.899   5.466  11.811  0.0699  0.2554 -0.6838
  280MOL0     C38517  -0.952   5.324  11.867 -0.1762 -0.2767 -0.3201
  280MOL0     C38518  -0.930   5.214  11.772 -0.3320 -1.0398  0.6761
  280MOL0     N38519  -0.964   5.085  11.839 -0.0929  0.4012  0.6161
  280MOL0     C38520  -0.878   4.973  11.847 -0.5964 -0.7198 -0.8565
  280MOL0     C38521  -0.923   4.893  11.950  0.7447 -0.0828 -0.8433
  280MOL0     C38522  -0.851   4.777  11.999  0.3021  0.1905 -0.4418
  280MOL0     C38523  -0.912   4.709  12.122  0.0805  0.4805  0.5887
  280MOL0     C38524  -0.852   4.573  12.148 -0.2337 -0.1070 -0.1814
  280MOL0     C38525  -0.922   4.517  12.274 -0.1105 -0.2111 -0.0172
  280MOL0     O38526  -0.872   4.386  12.322  0.3687 -0.4136  0.0813
  280MOL0     C38527  -0.737   4.376  12.350 -0.2718 -0.5029  0.5697
  280MOL0     C38528  -0.688   4.243  12.358  0.5977  0.7917  0.4036
  280MOL0     C38529  -0.550   4.215  12.382 -0.6426 -0.2782 -0.2057
  280MOL0     C38530  -0.519   4.069  12.400 -0.1182 -0.6460 -0.1849
  280MOL0     C38531  -0.466   4.321  12.407  0.3266 -0.2245  0.1385
  280MOL0     C38532  -0.319   4.310  12.423 -0.9729  0.6228 -0.2029
  280MOL0     O38533  -0.259   4.395  12.511  0.4074  0.1728  0.3673
  280MOL0     C38534  -0.125   4.368  12.555  0.8578 -0.3508 -0.0905
  280MOL0     C38535  -0.078   4.247  12.604 -0.0488 -0.0740  0.4552
  280MOL0     C38536   0.048   4.246  12.675  0.3385  0.0916 -0.2657
  280MOL0     C38537   0.130   4.357  12.674 -0.0528 -0.6023 -0.1234
  280MOL0     O38538   0.262   4.345  12.721  0.7292 -0.3804 -0.4231
  280MOL0     C38539   0.284   4.364  12.861 -1.1673  0.5134  0.5459
  280MOL0     C38540   0.438   4.354  12.886  0.2342 -0.6782  0.4745
  280MOL0     C38541   0.465   4.423  13.023 -0.0048 -0.0357  0.2422
  280MOL0     C38542   0.592   4.511  13.027 -0.4838  0.1389 -0.2435
  280MOL0     C38543   0.625   4.569  13.165  0.8139 -0.0836 -0.3566
  280MOL0     C38544   0.663   4.456  13.263 -0.0736 -0.0593 -0.1939
  280MOL0     C38545   0.734   4.506  13.391  0.0656  0.0068 -0.2304
  280MOL0     C38546   0.864   4.575  13.367 -0.1259 -0.7433  0.0880
  280MOL0    Cl38547   1.010   4.467  13.409 -0.4171 -0.0696  0.3528
  280MOL0     C38548   0.082   4.477  12.620 -0.5910 -0.4702  0.1111
  280MOL0     C38549  -0.057   4.486  12.575 -0.4008 -0.3393  0.7898
  280MOL0     O38550  -0.258   4.217  12.365  0.0326 -0.0924 -0.0963
  280MOL0     C38551  -0.517   4.457  12.404 -0.3248  0.0157  0.2463
  280MOL0     C38552  -0.648   4.478  12.368 -0.1692 -0.2042 -1.4616
  280MOL0     N38553  -1.038   4.951  12.000  0.7097  0.0129  0.5131
  280MOL0     N38554  -1.064   5.062  11.930 -0.9140 -0.2426  0.5666
  280MOL0     C38555  -0.067   5.553  11.703  0.3143  1.0113  0.4115
  280MOL0     C38556   0.067   5.527  11.703  0.6868 -0.3804  0.3246
  280MOL0     C38557   0.445   5.286  11.563  0.8776 -0.2407 -0.5759
  280MOL0     C38558   0.425   5.160  11.628  0.0104  0.2680  0.4113
  280MOL0     C38559   0.522   5.065  11.625  0.5718 -0.6453  0.1115
  280MOL0     C38560   0.653   5.083  11.570  0.2370  0.6774 -0.3526
  280MOL0     O38561   0.744   4.982  11.575  0.5269  0.5688  0.0285
  280MOL0     C38562   0.874   5.032  11.570 -0.3294 -1.2758  0.4385
  280MOL0     C38563   0.967   4.916  11.603  0.8667  0.1841  0.6048
  280MOL0     C38564   0.952   4.792  11.510  0.7309 -0.6500 -0.4071
  280MOL0     C38565   0.965   4.653  11.573 -0.3416 -0.4772  0.7503
  280MOL0     C38566   1.087   4.648  11.653 -0.9256 -0.1961  0.4079
  280MOL0     C38567   1.191   4.647  11.709  0.4834 -0.1084  0.2397
  280MOL0     C38568   0.676   5.213  11.508  0.2425  0.7326  0.1616
  280MOL0     C38569   0.574   5.310  11.514 -0.4730  0.6558 -0.1918
  280MOL0     C38570   0.613   5.445  11.455 -0.3959 -0.7118  0.4366
  280MOL0     H38571   0.076   5.248  11.506 -0.4952  0.5512 -0.5445
  280MOL0     H38572  -0.173   5.300  11.493 -0.3529  0.3938 -0.8459
  280MOL0     H38573  -0.270   5.676  11.522  2.2161 -1.3065 -0.6170
  280MOL0     H38574  -0.306   5.695  11.695 -0.2181  0.0913 -0.8400
  280MOL0     H38575  -0.521   5.717  11.557 -4.6939 -0.9795  0.4571
  280MOL0     H38576  -0.516   5.554  11.516  0.4105 -0.6277  1.9697
  280MOL0     H38577  -0.504   5.497  11.770  0.9353  0.5384  1.0294
  280MOL0     H38578  -0.531   5.675  11.792 -0.4290 -1.3554 -0.1014
  280MOL0     H38579  -0.745   5.681  11.704 -0.5041  0.2613  0.7142
  280MOL0     H38580  -0.724   5.529  11.620  1.9102 -0.1380 -0.4160
  280MOL0     H38581  -0.753   5.564  11.920 -1.4596  3.5995 -3.3685
  280MOL0     H38582  -0.703   5.405  11.854 -1.5026 -1.2821 -0.5937
  280MOL0     H38583  -0.955   5.538  11.872  0.7546 -1.0618  1.6517
  280MOL0     H38584  -0.928   5.469  11.706  1.5463 -0.1443 -1.1224
  280MOL0     H38585  -1.056   5.322  11.903 -0.1919  0.0564 -0.3431
  280MOL0     H38586  -0.899   5.305  11.961 -0.6143  0.8461  0.1793
  280MOL0     H38587  -0.987   5.223  11.679  2.0389 -2.5746 -1.0394
  280MOL0     H38588  -0.827   5.199  11.737 -0.4959 -0.6981  0.0423
  280MOL0     H38589  -0.780   4.964  11.802 -0.4216  0.1548 -0.6645
  280MOL0     H38590  -0.750   4.806  12.028  1.7502  2.7025 -6.4813
  280MOL0     H38591  -0.850   4.709  11.914 -4.4055  0.2973 -0.8822
  280MOL0     H38592  -0.901   4.776  12.208  0.1005 -0.2617  1.1723
  280MOL0     H38593  -1.017   4.693  12.095  0.5311 -0.4396 -0.7516
  280MOL0     H38594  -0.873   4.500  12.069  0.9696 -2.9459  1.9393
  280MOL0     H38595  -0.743   4.578  12.152 -0.2127 -0.6884  0.0481
  280MOL0     H38596  -0.923   4.584  12.360 -2.0857 -2.0160  1.4811
  280MOL0     H38597  -1.028   4.507  12.250 -0.2202  1.3723 -0.3019
  280MOL0     H38598  -0.763   4.165  12.349  1.6851 -0.1961 -0.4342
  280MOL0     H38599  -0.613   4.014  12.399 -2.0302  2.4222 -0.8746
  280MOL0     H38600  -0.471   4.053  12.497 -0.0476  0.0576 -0.0936
  280MOL0     H38601  -0.463   4.034  12.313 -0.5699  2.4346 -1.8817
  280MOL0     H38602  -0.138   4.158  12.617 -0.4950  0.3187  1.1353
  280MOL0     H38603   0.071   4.158  12.735  1.7722 -1.2174 -2.6005
  280MOL0     H38604   0.241   4.458  12.897 -0.6638  1.3605 -0.9843
  280MOL0     H38605   0.238   4.286  12.923  0.2397 -0.8310 -0.0367
  280MOL0     H38606   0.468   4.250  12.906 -0.7925 -0.3618  4.3848
  280MOL0     H38607   0.493   4.400  12.803 -1.0904 -1.2151 -0.7413
  280MOL0     H38608   0.471   4.342  13.096  1.7959 -0.4886 -0.3518
  280MOL0     H38609   0.379   4.484  13.053 -0.7456 -0.2935 -1.2023
  280MOL0     H38610   0.566   4.590  12.955 -3.5095  0.7460  1.3108
  280MOL0     H38611   0.676   4.447  13.001  1.7645  3.0405 -0.6735
  280MOL0     H38612   0.702   4.645  13.151 -1.2359  2.1453 -0.1118
  280MOL0     H38613   0.549   4.628  13.216  0.8930  0.6433 -1.0655
  280MOL0     H38614   0.743   4.398  13.217 -0.3368 -0.0566 -0.6711
  280MOL0     H38615   0.579   4.391  13.290  1.1896 -1.9005 -0.5457
  280MOL0     H38616   0.749   4.423  13.461  2.0201  0.1760 -0.4073
  280MOL0     H38617   0.667   4.573  13.447 -0.2506  0.6075 -1.3171
  280MOL0     H38618   0.862   4.645  13.451  1.0073 -2.2712  1.4512
  280MOL0     H38619   0.883   4.621  13.270  1.6567 -1.2965  0.1335
  280MOL0     H38620   0.154   4.558  12.635  0.0932 -1.1676  0.6964
  280MOL0     H38621  -0.091   4.583  12.542 -1.8949 -1.3586 -0.8172
  280MOL0     H38622  -0.450   4.539  12.428 -1.1085 -0.2251  3.7821
  280MOL0     H38623  -0.682   4.581  12.371 -2.1912 -0.8599  0.6911
  280MOL0     H38624  -0.096   5.633  11.770  0.1790  2.6309 -1.5088
  280MOL0     H38625   0.127   5.586  11.772 -0.3268  0.7548  0.2729
  280MOL0     H38626   0.327   5.141  11.671 -0.7718 -2.0397 -2.1017
  280MOL0     H38627   0.499   4.972  11.676  1.6762 -0.4406  1.0370
  280MOL0     H38628   0.904   5.066  11.471  0.9141  0.3526  1.3308
  280MOL0     H38629   0.905   5.112  11.638  2.4639 -3.6290  2.1467
  280MOL0     H38630   0.936   4.886  11.703 -1.3962  1.9854  0.5383
  280MOL0     H38631   1.071   4.942  11.622  0.9963 -1.6289  2.8101
  280MOL0     H38632   0.850   4.798  11.472  0.7126  1.0047 -0.1496
  280MOL0     H38633   1.028   4.791  11.431  2.5716 -3.7299  1.2025
  280MOL0     H38634   0.972   4.575  11.498  2.0546  0.4154 -0.0388
  280MOL0     H38635   0.875   4.650  11.637 -0.6482  0.5897  0.4043
  280MOL0     H38636   1.277   4.637  11.772  1.1749  1.3109 -0.4275
  280MOL0     H38637   0.770   5.230  11.457  0.4977  0.3439  0.4931
  280MOL0     H38638   0.721   5.456  11.466 -0.4873  1.9537 -0.6726
  280MOL0     H38639   0.583   5.445  11.350 -0.0368  1.8477  0.2905
  280MOL0     H38640   0.575   5.532  11.509  2.1147 -1.8995  4.6133
  281MOL0     O38641   5.930  11.153   6.861  0.0724 -0.3909 -0.9284
  281MOL0     C38642   5.894  11.183   6.976  0.6857 -0.7532  0.4849
  281MOL0     O38643   5.974  11.190   7.086  0.1684  0.0818 -0.5383
  281MOL0     C38644   6.108  11.168   7.067  0.2611 -0.3395 -0.3358
  281MOL0     C38645   6.184  11.274   7.104  0.6837  0.1482 -0.5887
  281MOL0     C38646   6.321  11.255   7.097 -0.7526 -0.0939 -0.2762
  281MOL0     C38647   6.383  11.142   7.062  0.2093  0.4843  0.0345
  281MOL0     O38648   6.518  11.120   7.065  0.6169  0.3835 -0.0536
  281MOL0     C38649   6.608  11.200   7.132 -0.3925  0.1674  0.0517
  281MOL0     C38650   6.669  11.305   7.030  0.5103 -0.4576 -0.5755
  281MOL0     C38651   6.741  11.232   6.913  0.5276 -0.3851  0.1307
  281MOL0     C38652   6.791  11.338   6.812  0.1804  0.6657 -0.1417
  281MOL0     C38653   6.856  11.248   6.708 -0.4480  0.1525  0.8368
  281MOL0     C38654   6.897  11.332   6.585 -0.9668 -0.0949 -0.6250
  281MOL0     C38655   6.941  11.250   6.465 -0.3922  0.4850 -0.0061
  281MOL0     C38656   7.041  11.329   6.379 -0.0445 -0.2201  0.2424
  281MOL0     N38657   7.175  11.340   6.447 -0.1037 -0.3970  0.0613
  281MOL0     C38658   7.260  11.239   6.486  0.2197 -0.5733 -0.0403
  281MOL0     C38659   7.340  11.303   6.574 -0.1518 -0.9101 -0.1825
  281MOL0     C38660   7.424  11.222   6.651  0.1961  0.4429 -0.1343
  281MOL0     C38661   7.555  11.179   6.578  0.1329  0.6547  0.5658
  281MOL0     C38662   7.613  11.051   6.643 -0.2176 -0.2198 -0.4247
  281MOL0     C38663   7.714  10.983   6.559  0.5220  0.6254 -0.4218
  281MOL0     O38664   7.665  10.963   6.422 -0.1761 -0.5158  0.7383
  281MOL0     C38665   7.706  10.848   6.353  0.2189 -1.1192 -0.3850
  281MOL0     C38666   7.824  10.775   6.372 -0.0144 -1.0006 -1.1132
  281MOL0     C38667   7.850  10.663   6.293  0.1680 -0.0320  0.1970
  281MOL0     C38668   7.972  10.577   6.325 -0.7699 -0.8111  0.3684
  281MOL0     C38669   7.770  10.639   6.180  0.5797 -0.1549 -0.0576
  281MOL0     C38670   7.789  10.528   6.098 -0.1203  0.9320  1.0360
  281MOL0     O38671   7.677  10.461   6.063  0.0965 -0.2683 -0.4312
  281MOL0     C38672   7.670  10.389   5.949 -0.7871 -0.1272  0.4453
  281MOL0     C38673   7.548  10.408   5.879 -0.0132 -0.5336 -0.5540
  281MOL0     C38674   7.526  10.332   5.760  0.7346 -0.3889 -1.0369
  281MOL0     C38675   7.619  10.256   5.696 -0.3488  0.0041  0.0070
  281MOL0     O38676   7.584  10.172   5.582  0.5034  0.1330 -0.4688
  281MOL0     C38677   7.614  10.035   5.606 -0.1737  0.3659  0.1945
  281MOL0     C38678   7.527   9.964   5.500  0.5478 -0.2170  0.3671
  281MOL0     C38679   7.528   9.814   5.514  0.1372 -0.0150 -1.0251
  281MOL0     C38680   7.662   9.751   5.503  0.4964 -0.0443  0.1228
  281MOL0     C38681   7.653   9.603   5.467  0.3985  0.4035 -0.4528
  281MOL0     C38682   7.791   9.544   5.438  0.1140  0.5406  0.5915
  281MOL0     C38683   7.792   9.396   5.393 -1.3279 -0.4753 -0.5054
  281MOL0     C38684   7.925   9.331   5.348  0.7085 -0.3005  0.3418
  281MOL0    Cl38685   8.033   9.295   5.486 -0.0894  0.0919  0.2401
  281MOL0     C38686   7.739  10.233   5.769  1.1687 -0.1820 -0.1226
  281MOL0     C38687   7.767  10.299   5.888 -0.0672  0.3993 -1.0620
  281MOL0     O38688   7.905  10.505   6.060  0.3923  0.3302 -0.2808
  281MOL0     C38689   7.655  10.711   6.163  0.6148 -0.1789  0.2883
  281MOL0     C38690   7.619  10.817   6.254 -0.3639 -0.1638  0.3746
  281MOL0     N38691   7.318  11.441   6.580  0.6543  0.4037  0.8300
  281MOL0     N38692   7.218  11.461   6.499  0.3811  0.4891 -0.2798
  281MOL0     C38693   6.298  11.035   7.027 -1.0282  0.5725 -0.5080
  281MOL0     C38694   6.160  11.054   7.023  0.6039 -0.3199  0.0088
  281MOL0     C38695   5.755  11.204   6.984  0.3989 -0.1235  0.6578
  281MOL0     C38696   5.679  11.146   6.882  0.1877 -0.8096  0.5052
  281MOL0     C38697   5.534  11.148   6.881 -1.0972 -0.1235 -0.2469
  281MOL0     C38698   5.464  11.190   6.994 -0.0727  0.4627  0.0233
  281MOL0     O38699   5.328  11.168   6.981 -0.2513 -0.1781  0.2283
  281MOL0     C38700   5.242  11.195   7.093  0.0495 -0.3805  0.7021
  281MOL0     C38701   5.119  11.272   7.053  0.9767 -1.0426  0.6879
  281MOL0     C38702   5.138  11.412   6.988 -1.1024 -0.6624  0.0583
  281MOL0     C38703   5.009  11.473   6.936  0.9438 -0.6349 -0.4309
  281MOL0     C38704   4.923  11.517   7.045 -0.3088  0.9335  0.6839
  281MOL0     C38705   4.844  11.552   7.132  0.1651  1.1935  0.1569
  281MOL0     C38706   5.540  11.252   7.091  0.1471 -0.4579  0.7075
  281MOL0     C38707   5.681  11.255   7.088  0.3294 -0.5074  0.2628
  281MOL0     C38708   5.740  11.311   7.211  0.2704 -0.5293  0.4570
  281MOL0     H38709   6.133  11.355   7.155 -0.0585 -0.8184  0.2432
  281MOL0     H38710   6.382  11.339   7.130  0.4512 -0.6379 -1.0266
  281MOL0     H38711   6.691  11.145   7.177  1.2297  2.0046 -0.5522
  281MOL0     H38712   6.552  11.240   7.217 -0.2932  0.0628  0.1661
  281MOL0     H38713   6.595  11.382   7.008 -0.5159 -0.8509  1.2833
  281MOL0     H38714   6.739  11.365   7.087 -0.3496  1.8762 -1.8157
  281MOL0     H38715   6.819  11.166   6.953  0.5125 -0.3609  0.2005
  281MOL0     H38716   6.667  11.170   6.862  0.6242  0.1499 -0.6721
  281MOL0     H38717   6.713  11.393   6.758 -0.0667 -0.2720 -0.7606
  281MOL0     H38718   6.856  11.414   6.857 -3.1120  3.3361  0.5913
  281MOL0     H38719   6.779  11.178   6.677  0.8585 -1.0126  0.1290
  281MOL0     H38720   6.944  11.194   6.746 -0.0749 -0.0781 -0.3200
  281MOL0     H38721   6.820  11.400   6.548 -1.3099  0.1444  0.4924
  281MOL0     H38722   6.983  11.387   6.625  1.0194 -2.2278 -1.7010
  281MOL0     H38723   6.855  11.197   6.422  0.1166 -1.7307  1.5042
  281MOL0     H38724   6.998  11.161   6.491 -1.0655 -0.3155 -1.1771
  281MOL0     H38725   7.060  11.286   6.280  1.7434 -0.2351  0.5580
  281MOL0     H38726   7.007  11.432   6.369  2.8116  0.8297  0.4890
  281MOL0     H38727   7.235  11.136   6.459 -1.0716 -0.9943  2.4446
  281MOL0     H38728   7.363  11.136   6.682  1.4615 -0.1612  0.7938
  281MOL0     H38729   7.457  11.265   6.746  0.2103 -0.3275  0.2207
  281MOL0     H38730   7.551  11.166   6.469  0.9739 -6.8799  0.9117
  281MOL0     H38731   7.630  11.258   6.590 -0.8670  1.7825 -0.3645
  281MOL0     H38732   7.651  11.087   6.740 -2.9039 -1.5950  1.2697
  281MOL0     H38733   7.531  10.983   6.668 -2.8015  1.7792 -2.9012
  281MOL0     H38734   7.808  11.039   6.571  1.4714 -1.5092  4.7641
  281MOL0     H38735   7.738  10.887   6.605 -0.6972 -0.0248 -1.0971
  281MOL0     H38736   7.896  10.819   6.441  2.4082 -3.9035 -1.5741
  281MOL0     H38737   8.054  10.601   6.257 -0.9527 -1.8042 -0.2219
  281MOL0     H38738   7.942  10.473   6.306  1.0044 -1.2282 -0.4082
  281MOL0     H38739   8.004  10.598   6.428 -0.1501  1.7645 -0.2794
  281MOL0     H38740   7.469  10.474   5.914  1.7691  0.6524  1.4646
  281MOL0     H38741   7.432  10.336   5.706 -0.0504  0.9416  0.3188
  281MOL0     H38742   7.720  10.016   5.588  0.1898  1.8230  0.6906
  281MOL0     H38743   7.586   9.992   5.703  0.4846 -0.9889 -0.1933
  281MOL0     H38744   7.421   9.982   5.523  0.3720 -1.1048  0.2898
  281MOL0     H38745   7.553  10.003   5.401 -0.1536 -2.0949 -0.5986
  281MOL0     H38746   7.461   9.771   5.440 -2.6649  1.0341  0.7565
  281MOL0     H38747   7.494   9.794   5.616  2.2740  1.7627  0.1366
  281MOL0     H38748   7.713   9.773   5.597  1.3027  0.0947 -0.3397
  281MOL0     H38749   7.727   9.787   5.423  0.2774 -0.2228 -0.1386
  281MOL0     H38750   7.602   9.548   5.547  2.0547  0.9403  1.0383
  281MOL0     H38751   7.599   9.583   5.374 -1.0423 -2.6353  0.9127
  281MOL0     H38752   7.849   9.545   5.531 -1.0715 -1.6946  1.4267
  281MOL0     H38753   7.841   9.603   5.361  2.2261 -0.4323  1.1648
  281MOL0     H38754   7.726   9.391   5.306  0.2558 -1.5831 -1.7125
  281MOL0     H38755   7.756   9.345   5.483 -0.5057  2.0383  1.3746
  281MOL0     H38756   7.983   9.400   5.286  0.5671 -0.2085  0.3116
  281MOL0     H38757   7.897   9.240   5.295 -1.8051  1.6559 -1.9166
  281MOL0     H38758   7.818  10.168   5.733  0.6841 -1.8535  1.6463
  281MOL0     H38759   7.856  10.270   5.943 -0.2881 -1.8798 -1.7950
  281MOL0     H38760   7.590  10.685   6.080 -4.1106  0.5965  3.3825
  281MOL0     H38761   7.526  10.871   6.241 -2.0848 -2.1209  3.3327
  281MOL0     H38762   6.345  10.939   7.009  1.7228  0.9040  3.5417
  281MOL0     H38763   6.103  10.968   6.990  0.8210 -0.7283  0.6873
  281MOL0     H38764   5.718  11.114   6.786 -3.8586 -0.3374 -1.4975
  281MOL0     H38765   5.471  11.110   6.801 -1.3032 -1.1573  0.3796
  281MOL0     H38766   5.197  11.106   7.137 -1.4695 -0.2576 -0.5204
  281MOL0     H38767   5.291  11.256   7.170 -1.1620  1.4923  0.0482
  281MOL0     H38768   5.053  11.283   7.140 -0.2683 -1.1580 -0.2083
  281MOL0     H38769   5.061  11.218   6.977  0.3557  0.8212 -0.2268
  281MOL0     H38770   5.181  11.474   7.067 -1.2253 -2.2899  1.4516
  281MOL0     H38771   5.220  11.418   6.916 -0.9855 -0.5880  0.1969
  281MOL0     H38772   4.953  11.400   6.878 -0.7937  3.0241 -3.8700
  281MOL0     H38773   5.040  11.549   6.864  2.3846  1.6324  2.3834
  281MOL0     H38774   4.780  11.602   7.202  0.6654  2.4945 -0.2783
  281MOL0     H38775   5.484  11.310   7.164 -0.0076 -0.4571  0.5894
  281MOL0     H38776   5.769  11.231   7.280 -0.1146 -1.3498 -0.3083
  281MOL0     H38777   5.833  11.362   7.184 -0.9762  0.5088 -2.2698
  281MOL0     H38778   5.675  11.384   7.260 -0.2634 -1.7984  1.7033
  282MOL0     O38779  11.025   1.222  11.349  0.4729  0.4846 -0.4490
  282MOL0     C38780  10.960   1.323  11.367 -0.7615  0.1227 -0.2037
  282MOL0     O38781  10.989   1.410  11.465 -0.1769 -0.5016 -0.3106
  282MOL0     C38782  11.101   1.417  11.530  1.1973  0.5777  0.7765
  282MOL0     C38783  11.092   1.453  11.657  0.2080 -0.7790  0.1912
  282MOL0     C38784  11.208   1.461  11.738 -0.2896  0.4884  0.2235
  282MOL0     C38785  11.343   1.435  11.694 -0.0695 -0.8512  0.0013
  282MOL0     O38786  11.460   1.418  11.770 -0.4702  0.0219 -0.6369
  282MOL0     C38787  11.443   1.471  11.907 -1.4223  0.4092 -0.0834
  282MOL0     C38788  11.573   1.466  11.991 -0.1280 -0.0024  0.7572
  282MOL0     C38789  11.656   1.332  11.994 -0.8387 -0.1742 -0.2684
  282MOL0     C38790  11.585   1.212  12.038 -0.6410 -0.5916  0.0373
  282MOL0     C38791  11.523   1.132  11.928 -0.5532  0.0987 -0.2905
  282MOL0     C38792  11.520   0.989  11.988 -0.5851  0.4455  0.1025
  282MOL0     C38793  11.400   0.968  12.084 -0.7037  1.4658  0.2237
  282MOL0     C38794  11.343   0.821  12.082 -0.1945  0.3370 -0.4485
  282MOL0     N38795  11.454   0.737  12.121 -0.2373 -0.1908  0.6990
  282MOL0     C38796  11.554   0.754  12.216 -0.4428  0.5033 -0.7408
  282MOL0     C38797  11.642   0.663  12.182 -0.0640  0.0563  1.1220
  282MOL0     C38798  11.773   0.639  12.238 -0.4656 -0.5112 -0.7399
  282MOL0     C38799  11.890   0.687  12.157 -0.6521 -0.0094 -0.4701
  282MOL0     C38800  11.893   0.844  12.149  0.0400  0.7327 -0.7270
  282MOL0     C38801  12.014   0.876  12.060  0.8693  0.2748  0.3004
  282MOL0     O38802  12.127   0.882  12.142 -0.1625 -0.0472 -0.3193
  282MOL0     C38803  12.242   0.920  12.077 -0.4870 -0.1522  0.7058
  282MOL0     C38804  12.258   0.939  11.936 -0.5550 -1.0219 -0.6214
  282MOL0     C38805  12.383   0.953  11.878  0.1755  0.0154 -0.7141
  282MOL0     C38806  12.377   0.952  11.727  0.2104  0.4032 -0.2631
  282MOL0     C38807  12.504   0.960  11.960 -0.6826  0.7031 -0.1001
  282MOL0     C38808  12.649   0.977  11.909 -0.9547 -0.1927 -0.3966
  282MOL0     O38809  12.750   1.004  12.003 -0.4135  0.4217 -0.0224
  282MOL0     C38810  12.869   0.961  11.971 -0.5125  0.0480  0.1791
  282MOL0     C38811  12.965   1.055  11.939  0.1229  1.1345  0.8168
  282MOL0     C38812  13.100   1.014  11.907 -0.5006 -0.4292 -0.3723
  282MOL0     C38813  13.134   0.882  11.898 -0.0085  0.2573 -0.1408
  282MOL0     O38814  13.257   0.845  11.856  0.1277  0.3906  1.1508
  282MOL0     C38815  13.333   0.741  11.914  0.0590  0.3724 -0.0921
  282MOL0     C38816  13.482   0.764  11.927 -0.2546 -0.4463  0.6192
  282MOL0     C38817  13.522   0.890  12.014  0.6045  1.6222 -0.0976
  282MOL0     C38818  13.661   0.953  11.973  0.9472  0.2682 -0.6956
  282MOL0     C38819  13.716   1.034  12.081 -0.6863 -0.3965 -0.0367
  282MOL0     C38820  13.667   1.184  12.090 -0.8491 -0.2297  0.5052
  282MOL0     C38821  13.701   1.269  12.209 -0.4594 -0.3224 -0.7382
  282MOL0     C38822  13.841   1.229  12.258 -0.3170  0.5576  0.6461
  282MOL0    Cl38823  13.881   1.337  12.399 -0.2436  0.0296  0.0323
  282MOL0     C38824  13.034   0.783  11.923 -0.2817 -0.0526  0.0451
  282MOL0     C38825  12.906   0.828  11.966  0.7797  0.5191 -0.1994
  282MOL0     O38826  12.663   0.970  11.791 -0.0989 -0.3146  0.1518
  282MOL0     C38827  12.487   0.936  12.101  0.6827 -0.6287 -0.1505
  282MOL0     C38828  12.356   0.933  12.157 -1.2471  0.8661  0.2381
  282MOL0     N38829  11.607   0.606  12.060 -0.4459  0.0891  0.8467
  282MOL0     N38830  11.494   0.646  12.023  0.3868 -0.1569  0.0217
  282MOL0     C38831  11.347   1.424  11.553  0.3000 -0.1162  0.1676
  282MOL0     C38832  11.231   1.414  11.467 -0.2602  0.8061  0.0931
  282MOL0     C38833  10.848   1.351  11.280 -0.2343  0.1943 -0.3313
  282MOL0     C38834  10.855   1.303  11.146  0.1703 -0.6128  0.1544
  282MOL0     C38835  10.746   1.322  11.063 -0.1196 -0.6404  0.5310
  282MOL0     C38836  10.631   1.393  11.094 -0.4493  0.3202 -1.0350
  282MOL0     O38837  10.514   1.389  11.025 -0.4598 -0.2141 -0.2891
  282MOL0     C38838  10.466   1.256  11.001 -0.4399  0.0390  0.2673
  282MOL0     C38839  10.374   1.282  10.878  0.2133  0.0463 -0.0506
  282MOL0     C38840  10.256   1.371  10.915  0.8417 -0.6585  0.9623
  282MOL0     C38841  10.137   1.329  10.835 -0.2466  1.3422  0.0316
  282MOL0     C38842  10.032   1.424  10.851  0.1554  0.0367 -0.9856
  282MOL0     C38843   9.950   1.508  10.860  0.7719 -0.5307 -0.9623
  282MOL0     C38844  10.634   1.446  11.221 -1.1484  0.5797 -1.0956
  282MOL0     C38845  10.739   1.426  11.317  0.3877 -0.1041  1.3452
  282MOL0     C38846  10.727   1.512  11.444 -0.3455 -0.3648 -0.4753
  282MOL0     H38847  11.001   1.464  11.715 -0.7939 -1.1636 -1.2611
  282MOL0     H38848  11.203   1.477  11.845 -1.2167 -1.1706  0.4631
  282MOL0     H38849  11.364   1.432  11.972 -0.7336 -2.2626 -0.7386
  282MOL0     H38850  11.432   1.577  11.881  0.8501  1.0628  1.3501
  282MOL0     H38851  11.637   1.544  11.947  0.1139 -1.7367 -2.3049
  282MOL0     H38852  11.550   1.501  12.092 -0.0584 -1.7309  1.3958
  282MOL0     H38853  11.710   1.322  11.899 -0.0478 -1.0316  0.2525
  282MOL0     H38854  11.730   1.350  12.073 -3.2870  2.0526  1.7222
  282MOL0     H38855  11.666   1.159  12.089 -0.3276  3.1548  4.0682
  282MOL0     H38856  11.505   1.246  12.105 -1.1705 -1.1898 -0.2812
  282MOL0     H38857  11.580   1.147  11.835  1.9764  2.2341  1.4624
  282MOL0     H38858  11.422   1.174  11.914 -0.6151 -0.5778 -2.1285
  282MOL0     H38859  11.505   0.917  11.907  4.0032 -1.8749  0.9533
  282MOL0     H38860  11.618   0.951  12.017 -0.0382  0.4021 -1.6920
  282MOL0     H38861  11.315   1.032  12.057 -0.7912  0.2290 -2.8829
  282MOL0     H38862  11.438   0.985  12.185  0.4695 -0.5107  0.1709
  282MOL0     H38863  11.252   0.812  12.141 -0.7499 -2.1481 -1.5471
  282MOL0     H38864  11.315   0.797  11.979 -4.8726  3.4062 -0.1674
  282MOL0     H38865  11.556   0.820  12.302 -1.0877 -0.7612  0.2795
  282MOL0     H38866  11.780   0.530  12.249 -1.7207 -0.9144 -3.3098
  282MOL0     H38867  11.782   0.696  12.332  1.7366  0.3036 -1.3773
  282MOL0     H38868  11.982   0.655  12.206 -0.0942  3.9022  1.4321
  282MOL0     H38869  11.881   0.636  12.061  0.8972  0.1267 -0.7179
  282MOL0     H38870  11.800   0.886  12.111 -2.1349 -0.9115  2.3627
  282MOL0     H38871  11.899   0.890  12.248 -0.0262 -0.7551 -0.0039
  282MOL0     H38872  12.016   0.800  11.981 -2.6021 -1.8086  2.0188
  282MOL0     H38873  11.981   0.969  12.012  0.4520  0.0211  0.0852
  282MOL0     H38874  12.171   0.934  11.871  0.1923 -2.8281 -1.5569
  282MOL0     H38875  12.419   1.045  11.686 -0.6698  1.2133  0.6273
  282MOL0     H38876  12.280   0.937  11.679  0.0242  3.0016 -0.8779
  282MOL0     H38877  12.440   0.873  11.687 -2.1428 -0.5712 -2.2068
  282MOL0     H38878  12.947   1.162  11.938  2.4815  1.6172 -2.2054
  282MOL0     H38879  13.176   1.087  11.881 -0.4851 -0.9491 -1.8253
  282MOL0     H38880  13.296   0.708  12.011  0.7716 -1.0881 -0.2990
  282MOL0     H38881  13.324   0.650  11.854 -4.3136  0.0365  0.7075
  282MOL0     H38882  13.519   0.670  11.969 -3.7278 -3.0117 -1.4870
  282MOL0     H38883  13.527   0.774  11.827 -0.5895 -2.4837  0.2123
  282MOL0     H38884  13.533   0.860  12.118 -0.3618  0.4520 -0.3142
  282MOL0     H38885  13.443   0.965  12.009 -2.5265 -1.3763  0.7119
  282MOL0     H38886  13.632   1.011  11.885  0.5045 -1.3525 -1.6607
  282MOL0     H38887  13.725   0.871  11.937  0.4231 -0.1155 -0.7561
  282MOL0     H38888  13.687   0.995  12.179 -3.0563  2.1135  0.3950
  282MOL0     H38889  13.825   1.040  12.073 -0.6415  1.5081  1.2586
  282MOL0     H38890  13.558   1.187  12.075 -0.4432 -0.2359 -3.8491
  282MOL0     H38891  13.694   1.236  11.998  0.0071  1.0681  1.4627
  282MOL0     H38892  13.631   1.242  12.288  4.2838 -2.4326  3.2513
  282MOL0     H38893  13.696   1.374  12.179 -0.8837 -0.0552  0.2362
  282MOL0     H38894  13.911   1.238  12.174 -0.7664 -2.6565 -0.2297
  282MOL0     H38895  13.846   1.127  12.299 -1.3410  0.3634  0.3078
  282MOL0     H38896  13.047   0.676  11.907 -1.3729 -0.0045 -1.3339
  282MOL0     H38897  12.831   0.751  11.984  0.3612  0.3007 -2.5274
  282MOL0     H38898  12.567   0.916  12.171  0.5938 -2.1177 -0.4477
  282MOL0     H38899  12.350   0.913  12.263  0.6725 -0.9861  0.0625
  282MOL0     H38900  11.442   1.427  11.501 -0.0660 -2.9863 -0.8487
  282MOL0     H38901  11.263   1.408  11.364  5.1238 -1.4736  1.5407
  282MOL0     H38902  10.941   1.250  11.105  0.9312 -0.7676  1.8280
  282MOL0     H38903  10.736   1.278  10.964 -1.6080  2.4880 -0.8562
  282MOL0     H38904  10.546   1.182  10.990  0.7684  0.8863  2.5653
  282MOL0     H38905  10.402   1.226  11.084 -1.8440 -1.0262 -1.1427
  282MOL0     H38906  10.334   1.193  10.829 -0.7585  1.3981 -1.8352
  282MOL0     H38907  10.442   1.330  10.807 -2.0357  2.6043 -0.6071
  282MOL0     H38908  10.234   1.371  11.023  0.2824 -1.6263  0.8694
  282MOL0     H38909  10.283   1.473  10.890  0.1400  0.0887  3.0375
  282MOL0     H38910  10.110   1.224  10.849 -0.0821  0.6829 -3.5067
  282MOL0     H38911  10.172   1.327  10.731 -0.7890 -0.0472 -0.1562
  282MOL0     H38912   9.886   1.594  10.868 -0.4402 -1.4605 -0.1967
  282MOL0     H38913  10.549   1.507  11.249  0.4377  2.2027  0.4245
  282MOL0     H38914  10.803   1.590  11.454 -0.7707  0.2218 -1.6491
  282MOL0     H38915  10.634   1.570  11.447  0.6890  1.3493 -0.5113
  282MOL0     H38916  10.732   1.446  11.530 -4.7362 -0.1341  0.1830
  283MOL0     O38917   1.654   7.011   3.160  0.0541 -0.0419  0.4812
  283MOL0     C38918   1.747   7.028   3.081 -0.6422  0.4396 -0.3050
  283MOL0     O38919   1.875   6.969   3.099  0.7705 -0.2650  0.5614
  283MOL0     C38920   1.906   6.954   3.237  0.4247  0.1768 -0.1138
  283MOL0     C38921   1.887   7.059   3.330  0.3436 -0.1657 -0.2799
  283MOL0     C38922   1.925   7.050   3.464 -0.2357 -0.6411  1.0811
  283MOL0     C38923   2.006   6.946   3.501 -0.2199 -0.5898  0.2152
  283MOL0     O38924   2.047   6.947   3.629  0.1424  0.0272 -0.9073
  283MOL0     C38925   2.182   6.909   3.666  0.1018 -0.0847  0.5061
  283MOL0     C38926   2.281   7.026   3.699  0.8180 -0.5892  0.0844
  283MOL0     C38927   2.212   7.132   3.778 -0.1885 -0.2304  0.4028
  283MOL0     C38928   2.306   7.246   3.798 -0.5077  0.0781 -0.9082
  283MOL0     C38929   2.441   7.211   3.856 -0.9417 -0.7459 -0.5625
  283MOL0     C38930   2.523   7.337   3.889 -0.9855  0.1741  0.2624
  283MOL0     C38931   2.662   7.309   3.942  0.0999  0.2294  0.3333
  283MOL0     C38932   2.638   7.281   4.090  0.2958 -0.1727 -0.5064
  283MOL0     N38933   2.767   7.246   4.159  0.3426  1.0877  0.3713
  283MOL0     C38934   2.853   7.139   4.127 -0.3315 -0.2826 -0.1776
  283MOL0     C38935   2.963   7.163   4.210 -0.2929  0.2453 -0.6102
  283MOL0     C38936   3.080   7.065   4.197 -0.5399  0.3993  0.3845
  283MOL0     C38937   3.199   7.124   4.115  0.7651 -0.4199 -0.2990
  283MOL0     C38938   3.305   7.016   4.126 -0.3386 -0.4675 -0.7221
  283MOL0     C38939   3.436   7.056   4.060 -0.5283 -0.3848 -0.2333
  283MOL0     O38940   3.499   7.182   4.089  1.2194  0.3153  0.5769
  283MOL0     C38941   3.595   7.186   4.188  0.1610  0.2198  0.3798
  283MOL0     C38942   3.692   7.284   4.179 -0.1283  0.0038  0.8661
  283MOL0     C38943   3.795   7.298   4.278  0.3272  0.2993 -0.6980
  283MOL0     C38944   3.883   7.421   4.275 -1.0524 -0.4531 -0.5242
  283MOL0     C38945   3.793   7.203   4.383 -0.2383 -0.5339  0.0873
  283MOL0     C38946   3.901   7.185   4.480 -0.3716  0.8014 -0.6617
  283MOL0     O38947   3.895   7.065   4.557  0.4706  0.0542 -0.0063
  283MOL0     C38948   3.974   7.037   4.663  1.2899  0.5175 -0.0089
  283MOL0     C38949   3.933   6.938   4.748  0.2696 -0.3535  0.9860
  283MOL0     C38950   4.003   6.911   4.862  0.7352  0.9119 -0.5034
  283MOL0     C38951   4.120   6.984   4.896  0.4778 -0.2586  0.5558
  283MOL0     O38952   4.194   6.970   5.012  0.8575 -0.0505 -0.1702
  283MOL0     C38953   4.229   6.837   5.053 -1.1347  0.2116  0.6415
  283MOL0     C38954   4.340   6.851   5.155 -0.2133 -0.6300 -0.9360
  283MOL0     C38955   4.300   6.929   5.280  0.1712  0.7692  0.4542
  283MOL0     C38956   4.398   6.919   5.391 -0.1674 -0.2560 -0.3058
  283MOL0     C38957   4.334   6.991   5.509  0.6935  0.9678 -0.6792
  283MOL0     C38958   4.431   7.011   5.631  0.7235  0.2198 -0.5434
  283MOL0     C38959   4.366   7.079   5.746  0.0507 -0.6303  0.0642
  283MOL0     C38960   4.311   7.219   5.723 -0.5594  0.3596  0.2216
  283MOL0    Cl38961   4.450   7.335   5.729  0.1901  0.5005  0.0272
  283MOL0     C38962   4.175   7.068   4.796  0.1591  0.2302 -0.5529
  283MOL0     C38963   4.099   7.099   4.683 -0.8051  0.6465 -0.2720
  283MOL0     O38964   3.974   7.278   4.497 -0.9050  0.1415 -0.4751
  283MOL0     C38965   3.696   7.102   4.384 -0.0476  0.7061  0.1449
  283MOL0     C38966   3.606   7.091   4.289 -0.8040 -0.6928 -0.3974
  283MOL0     N38967   2.943   7.274   4.290 -0.2933  0.5853 -0.3027
  283MOL0     N38968   2.827   7.330   4.250  0.3763  0.2178  0.5461
  283MOL0     C38969   2.033   6.834   3.414 -0.1963 -0.3573 -0.2897
  283MOL0     C38970   1.977   6.838   3.283  0.3961 -0.3848  0.7372
  283MOL0     C38971   1.728   7.087   2.950  0.6354 -0.7393 -0.6235
  283MOL0     C38972   1.813   7.047   2.844 -0.0390  0.3142  0.0190
  283MOL0     C38973   1.821   7.102   2.718  0.5333 -0.5574  0.9760
  283MOL0     C38974   1.745   7.215   2.692  0.5861  0.0503  0.1133
  283MOL0     O38975   1.729   7.272   2.565 -0.1808  0.4090  0.1056
  283MOL0     C38976   1.843   7.291   2.479 -0.0199  0.8333 -0.3983
  283MOL0     C38977   1.817   7.397   2.379  1.4369 -0.6716 -0.0090
  283MOL0     C38978   1.796   7.529   2.459 -0.3373  1.2714 -0.1705
  283MOL0     C38979   1.760   7.643   2.369 -0.8066 -0.3284 -0.0497
  283MOL0     C38980   1.766   7.771   2.445 -0.5923  0.5898  0.3667
  283MOL0     C38981   1.769   7.865   2.510 -0.3863 -0.3996  0.9043
  283MOL0     C38982   1.664   7.262   2.790  0.4449  0.7539 -0.2218
  283MOL0     C38983   1.643   7.193   2.916 -0.2563 -1.3902  0.6746
  283MOL0     C38984   1.553   7.258   3.017 -0.6031 -0.7441 -0.7530
  283MOL0     H38985   1.835   7.153   3.311  1.2817  0.4421  0.1246
  283MOL0     H38986   1.921   7.138   3.527 -0.5688  0.3131 -0.2139
  283MOL0     H38987   2.238   6.856   3.589  1.5261  2.1263 -0.0613
  283MOL0     H38988   2.183   6.846   3.756  1.3178 -1.0367 -0.1453
  283MOL0     H38989   2.370   7.002   3.758  0.5509  0.0762  0.7773
  283MOL0     H38990   2.308   7.081   3.608 -0.1128  2.6379  1.6364
  283MOL0     H38991   2.140   7.176   3.709  1.0420  3.7959  1.4269
  283MOL0     H38992   2.161   7.098   3.868 -3.7607  1.8844 -0.6158
  283MOL0     H38993   2.322   7.314   3.714  2.5275  2.5551  1.4267
  283MOL0     H38994   2.260   7.302   3.881  1.7738  1.1087 -0.2566
  283MOL0     H38995   2.506   7.160   3.785  0.2921 -0.4225  0.3118
  283MOL0     H38996   2.439   7.153   3.948  0.8940  0.7761  0.4920
  283MOL0     H38997   2.528   7.409   3.807 -1.2487  0.4024  0.4419
  283MOL0     H38998   2.482   7.403   3.966  1.3501  1.2868  0.6214
  283MOL0     H38999   2.733   7.392   3.934 -0.4721  0.8043  1.0897
  283MOL0     H39000   2.708   7.223   3.892  0.2645 -0.1767  1.1783
  283MOL0     H39001   2.605   7.372   4.139 -2.5301 -0.8600 -0.9631
  283MOL0     H39002   2.570   7.196   4.102  0.5950 -0.8045 -2.7093
  283MOL0     H39003   2.844   7.056   4.058  0.3284  0.2832 -0.9729
  283MOL0     H39004   3.043   6.969   4.158  2.0642 -1.1306  1.3967
  283MOL0     H39005   3.116   7.053   4.299  1.1867 -1.8515 -0.4086
  283MOL0     H39006   3.174   7.145   4.011  1.3872  1.4784 -0.1045
  283MOL0     H39007   3.229   7.220   4.158 -2.3310  0.6108 -0.2076
  283MOL0     H39008   3.320   6.994   4.232  0.2159  2.0952 -0.1859
  283MOL0     H39009   3.273   6.923   4.077  0.8894 -0.5117 -1.4908
  283MOL0     H39010   3.510   6.978   4.080  2.7918  3.0159  2.1681
  283MOL0     H39011   3.410   7.050   3.954 -1.6539 -3.5852  0.1399
  283MOL0     H39012   3.681   7.361   4.103 -3.2163  1.4651  2.6272
  283MOL0     H39013   3.891   7.470   4.372  1.7521  1.1692 -1.4679
  283MOL0     H39014   3.861   7.488   4.192 -2.7748  1.0705  1.0964
  283MOL0     H39015   3.982   7.376   4.257 -0.9265 -1.2608  1.8642
  283MOL0     H39016   3.838   6.890   4.728  1.5486 -2.6477  0.0307
  283MOL0     H39017   3.978   6.836   4.936  0.1927 -1.0144 -2.5344
  283MOL0     H39018   4.143   6.785   5.097 -1.5760 -1.4528 -1.9928
  283MOL0     H39019   4.270   6.770   4.978 -1.4751  1.1891 -0.4434
  283MOL0     H39020   4.365   6.747   5.178 -1.1980 -0.2141  2.6323
  283MOL0     H39021   4.435   6.896   5.123  0.6210 -1.2969  0.5309
  283MOL0     H39022   4.200   6.894   5.310  1.2282 -2.7134  0.3412
  283MOL0     H39023   4.289   7.033   5.250  1.1145  0.5730 -0.6282
  283MOL0     H39024   4.486   6.976   5.362 -1.1402  0.9426 -0.9948
  283MOL0     H39025   4.417   6.813   5.412  4.5651  0.4757  0.2890
  283MOL0     H39026   4.286   7.085   5.480  0.2895  1.9690  2.7748
  283MOL0     H39027   4.250   6.927   5.538  1.4208 -0.0328 -0.7298
  283MOL0     H39028   4.516   7.072   5.599  0.4531 -0.0601 -1.8481
  283MOL0     H39029   4.465   6.919   5.681 -0.9247 -0.9127 -1.4269
  283MOL0     H39030   4.437   7.087   5.828  0.2308 -0.2289 -0.1306
  283MOL0     H39031   4.284   7.026   5.796 -0.4391  1.9675  2.2120
  283MOL0     H39032   4.244   7.253   5.802 -2.2314  2.6310 -2.0045
  283MOL0     H39033   4.256   7.228   5.629  0.8314  0.1096 -0.6606
  283MOL0     H39034   4.259   7.133   4.818 -0.8380  2.7163 -3.3847
  283MOL0     H39035   4.144   7.171   4.615  1.4689 -1.0351 -0.6654
  283MOL0     H39036   3.688   7.028   4.462  0.7689  2.3461  1.8901
  283MOL0     H39037   3.538   7.007   4.298  0.8803 -1.9116  1.9925
  283MOL0     H39038   2.075   6.741   3.452  1.1724 -0.2183 -1.4155
  283MOL0     H39039   1.971   6.760   3.208  1.3277  2.2777 -2.3443
  283MOL0     H39040   1.883   6.964   2.850  1.2109  0.9682 -3.3525
  283MOL0     H39041   1.894   7.069   2.644  0.5987 -1.0978  1.2814
  283MOL0     H39042   1.933   7.314   2.537 -0.2963 -1.2867  1.0227
  283MOL0     H39043   1.866   7.198   2.426  1.6914  1.4093 -0.7162
  283MOL0     H39044   1.724   7.375   2.326 -0.0561  2.9731  0.8460
  283MOL0     H39045   1.898   7.393   2.306  1.0930 -0.0368 -0.4314
  283MOL0     H39046   1.727   7.531   2.543  1.2851 -0.4575  1.2901
  283MOL0     H39047   1.896   7.548   2.499  0.3692 -0.1409 -1.1760
  283MOL0     H39048   1.657   7.633   2.331 -0.9266 -1.4214  0.5083
  283MOL0     H39049   1.829   7.653   2.284 -0.7225 -1.9083 -0.1973
  283MOL0     H39050   1.792   7.951   2.569  0.2673  0.6511 -0.7992
  283MOL0     H39051   1.610   7.354   2.770 -2.0254 -0.6154 -0.1766
  283MOL0     H39052   1.476   7.319   2.970 -0.8014 -0.7288 -0.4079
  283MOL0     H39053   1.509   7.176   3.074 -3.2222  1.1306  0.0845
  283MOL0     H39054   1.612   7.318   3.086  1.4794 -1.6878 -1.6071
  284MOL0     O39055   8.357   8.605   2.770  0.1191 -0.0199 -0.3655
  284MOL0     C39056   8.233   8.622   2.772 -0.2703  0.1366  0.1013
  284MOL0     O39057   8.163   8.678   2.665 -0.1036 -0.2878 -0.7347
  284MOL0     C39058   8.234   8.734   2.561 -0.8457  0.4568  0.0606
  284MOL0     C39059   8.317   8.847   2.589  0.1173  0.3310  0.1706
  284MOL0     C39060   8.405   8.896   2.493 -0.1264 -0.3379 -0.1294
  284MOL0     C39061   8.417   8.827   2.368 -0.4751  0.2682 -0.3522
  284MOL0     O39062   8.505   8.890   2.287 -0.3007  0.4093  0.4135
  284MOL0     C39063   8.553   8.819   2.170 -0.2536 -0.3018  1.3880
  284MOL0     C39064   8.634   8.911   2.076  0.3672 -0.5930 -0.7959
  284MOL0     C39065   8.776   8.946   2.125  1.1272  0.4895 -0.1251
  284MOL0     C39066   8.862   8.824   2.095 -0.6655 -0.8900  0.0507
  284MOL0     C39067   9.003   8.871   2.054  0.6647 -1.6945 -0.8284
  284MOL0     C39068   9.086   8.748   2.012 -0.7104 -0.1545  0.5410
  284MOL0     C39069   9.244   8.775   2.016 -0.1074 -0.0816  0.7049
  284MOL0     C39070   9.306   8.821   1.875  0.4274  1.2633  0.0530
  284MOL0     N39071   9.450   8.817   1.863 -0.0188 -0.5208  0.1981
  284MOL0     C39072   9.533   8.896   1.786  0.2337  0.5206 -0.3466
  284MOL0     C39073   9.655   8.837   1.787 -0.5773 -0.4869  0.8574
  284MOL0     C39074   9.765   8.873   1.689 -0.4675  0.3947  0.0095
  284MOL0     C39075   9.840   8.994   1.734  0.2314  0.1575  0.9952
  284MOL0     C39076   9.912   9.063   1.620  0.0268  0.2972  0.0621
  284MOL0     C39077   9.996   8.972   1.524  0.2222  0.7026 -0.7596
  284MOL0     O39078  10.107   8.918   1.600 -0.4646 -0.2737  0.2477
  284MOL0     C39079  10.212   9.001   1.630  0.0220  0.5766  0.0891
  284MOL0     C39080  10.285   8.953   1.742 -0.9238 -0.7089 -0.5349
  284MOL0     C39081  10.407   9.023   1.781 -0.7002 -0.8866 -1.1246
  284MOL0     C39082  10.475   8.992   1.906  0.6045 -0.4286 -0.3919
  284MOL0     C39083  10.464   9.128   1.703 -0.6140 -0.4858 -0.5103
  284MOL0     C39084  10.597   9.196   1.705  0.6335  0.2765  0.4217
  284MOL0     O39085  10.595   9.324   1.660  0.4030  0.1710  1.0821
  284MOL0     C39086  10.717   9.385   1.648  0.7182  0.3520 -0.0567
  284MOL0     C39087  10.741   9.494   1.732  0.2493 -0.3209 -0.2653
  284MOL0     C39088  10.867   9.546   1.733  0.4199 -0.1675 -0.2496
  284MOL0     C39089  10.968   9.517   1.645  0.1095  0.2993  0.6433
  284MOL0     O39090  11.093   9.576   1.655 -0.1204  0.2703  0.0455
  284MOL0     C39091  11.153   9.596   1.785  0.3857  0.0003  0.2628
  284MOL0     C39092  11.301   9.582   1.757  0.5241 -0.1076 -0.6374
  284MOL0     C39093  11.382   9.623   1.883 -1.1547  0.7117  0.3434
  284MOL0     C39094  11.336   9.556   2.008  0.6148  0.5047 -0.4284
  284MOL0     C39095  11.418   9.628   2.115  0.8090  0.3341  0.0666
  284MOL0     C39096  11.424   9.549   2.237 -0.3260  0.1049 -0.6784
  284MOL0     C39097  11.501   9.611   2.358 -0.6204 -0.0603  0.0655
  284MOL0     C39098  11.570   9.500   2.442 -0.1846  0.8135 -0.8576
  284MOL0    Cl39099  11.717   9.452   2.353  0.5475 -0.0773  0.1721
  284MOL0     C39100  10.934   9.411   1.550  0.4372 -0.0192 -0.0491
  284MOL0     C39101  10.810   9.344   1.548 -0.2493  1.1740  0.1422
  284MOL0     O39102  10.692   9.137   1.752  0.6056 -1.1245 -0.4156
  284MOL0     C39103  10.387   9.174   1.590  0.5070 -0.9508 -0.6188
  284MOL0     C39104  10.267   9.107   1.555  0.3644 -0.5057 -0.4745
  284MOL0     N39105   9.646   8.727   1.863  0.0114  0.2715 -0.4144
  284MOL0     N39106   9.527   8.708   1.901 -0.0611 -0.0712 -0.8786
  284MOL0     C39107   8.326   8.729   2.332 -0.1748 -0.8298 -0.6293
  284MOL0     C39108   8.233   8.680   2.430 -0.0107  0.0708  0.4974
  284MOL0     C39109   8.170   8.589   2.898  0.9859 -0.5484 -0.0414
  284MOL0     C39110   8.035   8.572   2.887 -0.3913 -1.0328 -0.0472
  284MOL0     C39111   7.952   8.550   2.989  0.9167  1.1547  0.1955
  284MOL0     C39112   8.003   8.544   3.114  0.9443 -0.3795  0.2841
  284MOL0     O39113   7.897   8.524   3.197  0.3984  0.2759 -0.6279
  284MOL0     C39114   7.925   8.472   3.325 -0.5240 -0.3040 -0.7443
  284MOL0     C39115   7.809   8.432   3.412  0.2109  0.8990  0.2404
  284MOL0     C39116   7.861   8.381   3.546  0.9284 -0.1264 -0.3792
  284MOL0     C39117   7.765   8.418   3.657 -0.7325 -0.3056 -0.8745
  284MOL0     C39118   7.663   8.309   3.664  0.1389 -0.7233  0.9415
  284MOL0     C39119   7.584   8.218   3.686  0.0325 -0.2205  0.3243
  284MOL0     C39120   8.135   8.572   3.136 -0.8919  0.2668  0.7975
  284MOL0     C39121   8.224   8.585   3.025 -0.2953  0.2906  0.5177
  284MOL0     C39122   8.375   8.609   3.048  0.5423 -0.0563  0.0735
  284MOL0     H39123   8.321   8.882   2.692  0.7378  1.7589 -0.3101
  284MOL0     H39124   8.469   8.982   2.511  2.4457 -2.1867 -0.0069
  284MOL0     H39125   8.473   8.777   2.109  0.9467 -0.5813 -0.0397
  284MOL0     H39126   8.617   8.733   2.193  0.0867 -1.2431 -2.4646
  284MOL0     H39127   8.642   8.864   1.978 -0.4573 -1.0223 -0.6638
  284MOL0     H39128   8.579   9.006   2.076  0.5947 -0.4589 -1.2035
  284MOL0     H39129   8.803   9.034   2.067  1.2459  0.8361  0.4547
  284MOL0     H39130   8.777   8.965   2.233  0.5492  1.4760 -0.2842
  284MOL0     H39131   8.869   8.773   2.191 -0.3317 -2.0475 -0.5623
  284MOL0     H39132   8.817   8.764   2.015 -2.8785  0.0597  0.4954
  284MOL0     H39133   9.050   8.912   2.143 -0.4565 -0.9837 -0.5437
  284MOL0     H39134   8.985   8.945   1.976 -3.2418 -3.6175 -2.0606
  284MOL0     H39135   9.066   8.668   2.083 -1.2641 -0.7759 -0.2990
  284MOL0     H39136   9.060   8.724   1.909  0.8686 -0.7916  0.2491
  284MOL0     H39137   9.290   8.676   2.020  0.8298  0.3404  0.6528
  284MOL0     H39138   9.278   8.838   2.100  0.7245 -0.2151  0.4781
  284MOL0     H39139   9.270   8.761   1.791 -0.2716 -0.1081  1.2973
  284MOL0     H39140   9.280   8.926   1.858 -1.5918  0.6546 -0.8802
  284MOL0     H39141   9.492   8.972   1.721  0.1195  1.4635  0.7973
  284MOL0     H39142   9.719   8.889   1.591  0.0729 -2.7191 -0.8598
  284MOL0     H39143   9.826   8.783   1.678  1.4994  1.5922  0.6600
  284MOL0     H39144   9.773   9.065   1.785  1.1579  0.3941  1.9101
  284MOL0     H39145   9.913   8.972   1.813  3.8298  1.3321 -1.7529
  284MOL0     H39146   9.831   9.111   1.564 -1.4889  0.6942  2.4650
  284MOL0     H39147   9.976   9.138   1.666 -1.4147 -1.4710  5.7534
  284MOL0     H39148   9.931   8.890   1.491 -0.7493  0.2025  2.0527
  284MOL0     H39149  10.020   9.026   1.432  0.8106  1.0554 -0.4044
  284MOL0     H39150  10.236   8.876   1.801 -0.3253  0.1670  1.1915
  284MOL0     H39151  10.516   9.078   1.961 -2.4618  0.5255  0.6686
  284MOL0     H39152  10.555   8.922   1.883 -1.4492 -2.8904 -0.5069
  284MOL0     H39153  10.400   8.960   1.980 -0.2055  0.5211 -0.7633
  284MOL0     H39154  10.659   9.518   1.798 -1.5487 -0.3631 -2.3484
  284MOL0     H39155  10.897   9.623   1.804  0.0524 -1.2588  1.1255
  284MOL0     H39156  11.124   9.694   1.824  0.5011  1.3333 -2.7037
  284MOL0     H39157  11.110   9.514   1.843 -1.7708 -0.5483 -1.9618
  284MOL0     H39158  11.316   9.475   1.739 -2.1111 -0.8921  1.2361
  284MOL0     H39159  11.335   9.649   1.677  0.6393  0.0046 -0.4940
  284MOL0     H39160  11.383   9.732   1.888 -0.0178  0.7309  0.0215
  284MOL0     H39161  11.485   9.588   1.868 -2.0726 -0.9742 -2.9214
  284MOL0     H39162  11.357   9.448   2.002  0.9701  0.6543 -2.4645
  284MOL0     H39163  11.228   9.565   2.023  0.8793  0.2636  2.0782
  284MOL0     H39164  11.521   9.646   2.083 -0.0782  3.5279 -1.3934
  284MOL0     H39165  11.370   9.725   2.127 -0.1866 -0.2223  0.7141
  284MOL0     H39166  11.456   9.446   2.217 -1.7988 -1.0367  2.1264
  284MOL0     H39167  11.323   9.531   2.277  0.3225 -1.2538  0.4475
  284MOL0     H39168  11.440   9.673   2.425 -0.6585 -0.0828  0.0519
  284MOL0     H39169  11.580   9.676   2.321 -2.1838  0.2470 -3.1111
  284MOL0     H39170  11.496   9.419   2.444 -0.1260  0.5956 -3.4718
  284MOL0     H39171  11.599   9.531   2.543 -1.1532 -0.0059 -0.3150
  284MOL0     H39172  11.008   9.375   1.479  1.9868 -0.3778  1.6711
  284MOL0     H39173  10.798   9.248   1.499  3.7197  1.4045 -1.6224
  284MOL0     H39174  10.429   9.243   1.517 -1.4237  2.3953  1.1803
  284MOL0     H39175  10.208   9.134   1.468 -1.8250 -1.1750  0.7285
  284MOL0     H39176   8.336   8.686   2.233  2.8710 -1.7703 -0.0210
  284MOL0     H39177   8.152   8.608   2.420  1.2465 -1.7741  2.5544
  284MOL0     H39178   7.993   8.570   2.787  4.1690  1.2950 -2.3735
  284MOL0     H39179   7.847   8.526   2.975  1.5095 -1.4327 -0.3573
  284MOL0     H39180   7.968   8.374   3.302 -2.5348 -1.0461 -1.5613
  284MOL0     H39181   7.993   8.536   3.382 -0.0824 -0.1721 -1.4147
  284MOL0     H39182   7.751   8.350   3.370  1.4482 -1.1095  2.1735
  284MOL0     H39183   7.750   8.524   3.417 -0.7273  0.5064 -2.5163
  284MOL0     H39184   7.877   8.273   3.546 -0.8345 -0.4202 -0.4696
  284MOL0     H39185   7.960   8.422   3.567  1.6489 -1.5240 -0.9943
  284MOL0     H39186   7.716   8.516   3.648  0.4288  0.2029 -1.9108
  284MOL0     H39187   7.806   8.431   3.757  1.0737  0.3462 -1.6652
  284MOL0     H39188   7.530   8.125   3.686  0.0568 -0.2788 -1.9917
  284MOL0     H39189   8.170   8.563   3.238  2.8901  1.4197 -0.2263
  284MOL0     H39190   8.420   8.522   3.001 -0.1800  0.1145 -0.9646
  284MOL0     H39191   8.407   8.700   2.996  1.8701 -1.9975 -2.7066
  284MOL0     H39192   8.392   8.606   3.156 -1.3082 -0.1573  0.3895
  285MOL0     O39193   8.160   2.597   5.585  0.3323 -0.7854  0.1223
  285MOL0     C39194   8.205   2.589   5.694  0.3595 -0.5586  0.0347
  285MOL0     O39195   8.146   2.540   5.803 -0.2510  0.0490 -0.3688
  285MOL0     C39196   8.012   2.531   5.806 -0.4169 -0.7996 -0.0260
  285MOL0     C39197   7.938   2.625   5.881  0.0536 -0.1313 -0.4596
  285MOL0     C39198   7.805   2.619   5.897 -0.0821  1.2285  0.2927
  285MOL0     C39199   7.733   2.520   5.822 -0.3636 -0.8237 -1.1407
  285MOL0     O39200   7.594   2.525   5.819 -0.2933 -0.2172  0.3862
  285MOL0     C39201   7.536   2.655   5.845  0.0594 -0.3910 -0.3777
  285MOL0     C39202   7.400   2.667   5.783  0.6075  0.0214 -0.0235
  285MOL0     C39203   7.407   2.647   5.629  0.6795  0.1209 -0.3763
  285MOL0     C39204   7.266   2.671   5.569 -0.0705 -0.2050 -0.1449
  285MOL0     C39205   7.260   2.620   5.428 -0.7742 -0.2206  0.0015
  285MOL0     C39206   7.148   2.669   5.342 -0.3246  0.8235 -0.0463
  285MOL0     C39207   7.011   2.648   5.414 -0.0708 -0.6576  0.3534
  285MOL0     C39208   6.958   2.497   5.424  0.2567 -0.7774 -0.1153
  285MOL0     N39209   6.961   2.421   5.300 -0.3876  0.2631 -0.0290
  285MOL0     C39210   7.071   2.362   5.242 -0.2606 -0.2933 -0.1782
  285MOL0     C39211   7.024   2.297   5.138  0.1951  0.7508  0.2779
  285MOL0     C39212   7.110   2.227   5.032 -0.2535  0.3754 -0.8291
  285MOL0     C39213   7.183   2.111   5.097 -0.5721  0.1216 -0.0755
  285MOL0     C39214   7.086   1.989   5.118  0.4329 -0.0876 -0.7297
  285MOL0     C39215   7.133   1.885   5.229  0.4930  0.1154 -0.1265
  285MOL0     O39216   7.118   1.936   5.366 -0.9663  0.4190 -0.4146
  285MOL0     C39217   6.997   1.923   5.422  0.1377  0.0136 -0.0172
  285MOL0     C39218   6.919   2.028   5.426 -0.1127  0.2123 -0.3969
  285MOL0     C39219   6.791   2.026   5.471 -1.0758  0.0837 -0.4510
  285MOL0     C39220   6.714   2.151   5.447  0.1392 -1.1189  0.7416
  285MOL0     C39221   6.734   1.903   5.524  0.0671 -0.2480  0.5061
  285MOL0     C39222   6.600   1.893   5.575 -1.1408  0.9819 -0.6348
  285MOL0     O39223   6.564   1.762   5.615 -0.3706  0.6548 -0.5771
  285MOL0     C39224   6.453   1.739   5.681  0.1921  0.8969  1.2188
  285MOL0     C39225   6.329   1.759   5.622 -0.6358  0.1223 -0.2877
  285MOL0     C39226   6.219   1.758   5.707  0.1435  0.7667  0.1283
  285MOL0     C39227   6.219   1.737   5.848  0.3590 -1.5004  1.1388
  285MOL0     O39228   6.101   1.730   5.928 -0.7063 -0.0378 -0.1108
  285MOL0     C39229   5.993   1.820   5.891 -0.4339 -0.3171 -0.4533
  285MOL0     C39230   5.869   1.814   5.993 -0.2683  0.4531  0.0439
  285MOL0     C39231   5.919   1.854   6.127 -0.2447 -1.1718  0.0869
  285MOL0     C39232   5.898   2.003   6.163 -0.0788 -0.4945  0.0036
  285MOL0     C39233   5.972   2.041   6.282  0.1412 -0.5170  0.0434
  285MOL0     C39234   5.923   1.968   6.403 -1.3181 -0.4116  0.5544
  285MOL0     C39235   5.769   1.959   6.423  0.8719  0.2568 -0.3655
  285MOL0     C39236   5.729   1.914   6.560  0.3229 -0.1387  0.1812
  285MOL0    Cl39237   5.559   1.832   6.559  0.5295  0.1652  0.4019
  285MOL0     C39238   6.353   1.731   5.904  0.5114 -0.2333 -0.4050
  285MOL0     C39239   6.467   1.740   5.823  0.1593  0.4847 -0.0712
  285MOL0     O39240   6.530   1.988   5.591  0.3200  0.3659 -0.0159
  285MOL0     C39241   6.826   1.793   5.530  0.3210  0.8372  0.4402
  285MOL0     C39242   6.953   1.799   5.474 -0.3587 -0.0814 -0.2268
  285MOL0     N39243   6.890   2.333   5.117 -0.8798 -0.1386  0.6558
  285MOL0     N39244   6.854   2.410   5.220  0.6031  1.1713 -0.6480
  285MOL0     C39245   7.807   2.425   5.749 -0.5119 -0.8557  1.1395
  285MOL0     C39246   7.947   2.427   5.739  0.1391 -0.4222 -0.1707
  285MOL0     C39247   8.345   2.624   5.716 -0.3661  0.6990  0.2327
  285MOL0     C39248   8.383   2.627   5.852  0.0186  0.0885 -0.7034
  285MOL0     C39249   8.514   2.666   5.883  1.2128  1.4913 -0.0888
  285MOL0     C39250   8.610   2.691   5.791 -0.7784 -0.6002 -0.0232
  285MOL0     O39251   8.736   2.724   5.822  0.0346  0.3400 -0.4403
  285MOL0     C39252   8.761   2.859   5.780 -0.2809  0.0239  0.8640
  285MOL0     C39253   8.880   2.907   5.860  0.5203 -0.2411 -0.0200
  285MOL0     C39254   8.953   3.023   5.784  0.5994 -0.1906  0.6003
  285MOL0     C39255   9.056   3.079   5.873  0.1512  0.6649 -0.1244
  285MOL0     C39256   9.162   2.982   5.906 -0.6656 -0.1951 -0.9512
  285MOL0     C39257   9.241   2.892   5.943  0.6130 -0.2099 -0.5778
  285MOL0     C39258   8.572   2.683   5.654  0.1700  0.0088 -0.2238
  285MOL0     C39259   8.440   2.655   5.614 -0.0999 -0.5129 -0.0078
  285MOL0     C39260   8.412   2.644   5.464  0.6063  0.0319 -0.2867
  285MOL0     H39261   7.976   2.707   5.943  2.0882 -1.1815 -0.2147
  285MOL0     H39262   7.753   2.690   5.961 -3.3460  0.3921 -1.2282
  285MOL0     H39263   7.605   2.716   5.785  0.6566 -0.2962  0.3808
  285MOL0     H39264   7.534   2.684   5.950 -1.0544  0.2420 -0.5562
  285MOL0     H39265   7.338   2.597   5.839 -0.8833  1.2579 -0.0494
  285MOL0     H39266   7.363   2.769   5.801  0.3091 -0.1454  0.3351
  285MOL0     H39267   7.470   2.721   5.578 -0.2510  2.5540  1.7718
  285MOL0     H39268   7.437   2.547   5.595 -4.3804 -2.6690  2.1451
  285MOL0     H39269   7.181   2.629   5.624 -0.0363 -2.0784 -1.4111
  285MOL0     H39270   7.252   2.779   5.564  0.5522 -0.1262 -0.2373
  285MOL0     H39271   7.247   2.512   5.429  2.2298 -0.6582  0.4425
  285MOL0     H39272   7.352   2.648   5.375 -0.6630  1.4171  0.9920
  285MOL0     H39273   7.171   2.774   5.322  5.0496 -0.5033 -2.6965
  285MOL0     H39274   7.150   2.620   5.245 -3.3860 -0.0851  0.2459
  285MOL0     H39275   6.951   2.710   5.346  3.4766  1.6512 -0.9810
  285MOL0     H39276   7.002   2.704   5.507  2.8382  0.5933 -0.0225
  285MOL0     H39277   7.023   2.447   5.496  1.0946 -1.0395 -1.0328
  285MOL0     H39278   6.855   2.487   5.459 -0.5556  1.0713 -1.7905
  285MOL0     H39279   7.170   2.370   5.284 -0.4709 -1.5219  0.5968
  285MOL0     H39280   7.189   2.299   5.006  1.5128 -0.8570  0.8246
  285MOL0     H39281   7.054   2.195   4.943  0.0040  1.5680 -1.4499
  285MOL0     H39282   7.268   2.070   5.042 -0.1052 -2.0234  2.0545
  285MOL0     H39283   7.227   2.140   5.193  1.4480 -2.7921  0.0150
  285MOL0     H39284   6.982   2.018   5.134  0.6331  0.9415 -1.1855
  285MOL0     H39285   7.078   1.927   5.028  0.2100 -2.4610  0.8474
  285MOL0     H39286   7.062   1.802   5.217  1.4412 -0.7642  0.2110
  285MOL0     H39287   7.233   1.853   5.199  0.3604 -3.0950  2.2954
  285MOL0     H39288   6.956   2.113   5.370  1.8823 -0.7054 -0.5485
  285MOL0     H39289   6.617   2.117   5.411 -0.6975  2.7736 -1.2802
  285MOL0     H39290   6.754   2.212   5.365 -0.4948 -1.3213  0.2730
  285MOL0     H39291   6.683   2.217   5.529 -0.8188  1.0590 -1.2489
  285MOL0     H39292   6.313   1.789   5.519  1.8830  1.8892 -0.2565
  285MOL0     H39293   6.127   1.796   5.665  1.5265  2.0258 -1.9904
  285MOL0     H39294   6.035   1.920   5.884 -2.8055  0.8882  0.9479
  285MOL0     H39295   5.941   1.793   5.799  0.3891 -0.4434 -0.8850
  285MOL0     H39296   5.805   1.884   5.938  1.6837  1.5668 -0.9208
  285MOL0     H39297   5.819   1.717   5.993 -0.0198  0.1540  4.2413
  285MOL0     H39298   6.027   1.837   6.131 -0.1971 -1.2757 -1.1593
  285MOL0     H39299   5.867   1.787   6.195 -1.4320  1.0207  1.4574
  285MOL0     H39300   5.793   2.031   6.173 -0.7951 -2.2393 -1.9461
  285MOL0     H39301   5.919   2.062   6.073 -1.5118 -2.4869 -1.7271
  285MOL0     H39302   6.077   2.013   6.269  0.2126 -0.2702  0.0999
  285MOL0     H39303   5.957   2.147   6.302 -2.2709 -0.6526 -0.6611
  285MOL0     H39304   5.961   2.023   6.489 -3.2025  1.3202  0.3608
  285MOL0     H39305   5.972   1.870   6.405  1.9640  0.9174 -2.7515
  285MOL0     H39306   5.728   1.884   6.354 -0.2045  0.6936 -0.2213
  285MOL0     H39307   5.719   2.050   6.389 -2.1595 -1.0021  0.4142
  285MOL0     H39308   5.742   1.986   6.642 -0.6416 -0.8517  0.9777
  285MOL0     H39309   5.808   1.845   6.591  0.1898 -0.9833 -1.3046
  285MOL0     H39310   6.351   1.722   6.012 -2.5204  1.8119 -0.1720
  285MOL0     H39311   6.563   1.734   5.874 -0.8782 -4.2181  1.8401
  285MOL0     H39312   6.799   1.692   5.560  1.9366 -0.1088 -1.0662
  285MOL0     H39313   7.014   1.710   5.471  2.1486  1.4713  1.4995
  285MOL0     H39314   7.752   2.339   5.710 -1.1562  0.1502 -0.2894
  285MOL0     H39315   7.997   2.354   5.675 -0.6726 -3.0359  1.9900
  285MOL0     H39316   8.315   2.625   5.936  0.6251  0.7597 -0.1896
  285MOL0     H39317   8.550   2.660   5.985 -0.1631 -2.1207  0.3485
  285MOL0     H39318   8.787   2.860   5.673  1.1453 -2.3661  1.1052
  285MOL0     H39319   8.671   2.918   5.796  0.3876  0.8103  1.8445
  285MOL0     H39320   8.947   2.820   5.871  1.0492  0.2964  1.2889
  285MOL0     H39321   8.843   2.951   5.953  0.0533  0.7557 -0.6742
  285MOL0     H39322   9.001   2.993   5.691 -1.5963  1.1079 -1.0746
  285MOL0     H39323   8.881   3.103   5.761 -1.5523 -1.4603  2.4319
  285MOL0     H39324   9.017   3.120   5.966 -0.2603  0.8315 -0.3654
  285MOL0     H39325   9.102   3.166   5.824  3.1341  0.7956  2.5474
  285MOL0     H39326   9.321   2.835   5.986  0.7155  0.2322 -0.1741
  285MOL0     H39327   8.650   2.706   5.581  0.9857  0.1672  0.6722
  285MOL0     H39328   8.402   2.536   5.453  1.1428 -0.3720  2.4410
  285MOL0     H39329   8.325   2.697   5.424  1.2477 -0.4508 -2.4666
  285MOL0     H39330   8.497   2.677   5.404 -0.5999  0.5255 -1.8018
  286MOL0     O39331   0.004   4.089   0.388  0.7399  0.1808  0.2529
  286MOL0     C39332  -0.080   4.107   0.477 -0.4691  0.4120  0.1519
  286MOL0     O39333  -0.057   4.152   0.607  0.0992  0.0638 -0.1341
  286MOL0     C39334   0.067   4.190   0.653 -0.4817  1.2884  0.1376
  286MOL0     C39335   0.176   4.238   0.569  0.0001  0.8863  0.1713
  286MOL0     C39336   0.295   4.297   0.626 -0.4417  0.4406 -0.5655
  286MOL0     C39337   0.306   4.306   0.772  0.4352  0.1235 -0.1058
  286MOL0     O39338   0.421   4.362   0.825  0.2532  0.4267  0.0514
  286MOL0     C39339   0.418   4.388   0.968  0.0414  0.2818  1.1530
  286MOL0     C39340   0.539   4.473   1.018  0.9719  0.3329 -0.1559
  286MOL0     C39341   0.663   4.394   1.067 -0.1253 -1.0004  0.9045
  286MOL0     C39342   0.747   4.330   0.959  0.0393  0.4733  0.0669
  286MOL0     C39343   0.789   4.187   0.984  0.3686 -0.6568  0.0041
  286MOL0     C39344   0.898   4.152   0.874  0.3045  0.9494 -0.0075
  286MOL0     C39345   0.931   4.001   0.889  0.3118 -0.7270  0.5449
  286MOL0     C39346   0.964   3.959   1.031 -0.4227 -0.0878  0.1648
  286MOL0     N39347   1.058   3.840   1.038  0.1777  0.1456 -0.1600
  286MOL0     C39348   1.033   3.722   0.965 -0.7183 -0.7015  0.2330
  286MOL0     C39349   1.147   3.659   0.981 -0.2105 -0.3460 -0.1513
  286MOL0     C39350   1.186   3.544   0.896 -0.3629 -0.9038 -0.1461
  286MOL0     C39351   1.115   3.417   0.938  0.0300  0.8168  0.0680
  286MOL0     C39352   1.143   3.378   1.087 -0.3297 -0.0254 -0.2902
  286MOL0     C39353   1.280   3.313   1.100 -0.0875  0.8329 -0.5176
  286MOL0     O39354   1.380   3.407   1.111  0.3570  0.0744 -0.8628
  286MOL0     C39355   1.505   3.390   1.071 -0.2147  0.7967 -0.3371
  286MOL0     C39356   1.562   3.291   0.989 -0.1226  0.3901 -0.1964
  286MOL0     C39357   1.706   3.293   0.968  0.1592  0.4993  0.1389
  286MOL0     C39358   1.762   3.179   0.880 -0.3338 -0.4738  0.6430
  286MOL0     C39359   1.782   3.393   1.026  0.4538 -0.3185 -0.7310
  286MOL0     C39360   1.924   3.415   0.994 -0.3054 -0.1017  0.5946
  286MOL0     O39361   1.994   3.431   1.108  0.4561 -0.1693 -0.7654
  286MOL0     C39362   2.131   3.396   1.108 -0.6216 -0.4346  0.0557
  286MOL0     C39363   2.174   3.268   1.056 -0.1661  0.7295 -0.6872
  286MOL0     C39364   2.307   3.246   1.052 -0.1860  1.1776  0.5711
  286MOL0     C39365   2.397   3.333   1.094 -0.1797  0.5957  0.2400
  286MOL0     O39366   2.532   3.302   1.109  0.3719 -0.5115 -0.2662
  286MOL0     C39367   2.603   3.225   1.014 -0.8966 -0.3281 -0.4665
  286MOL0     C39368   2.746   3.277   0.968  0.9259 -0.2051 -0.6491
  286MOL0     C39369   2.807   3.185   0.873 -0.3802  0.4848 -0.2341
  286MOL0     C39370   2.957   3.197   0.876 -0.1654 -0.5352  0.5880
  286MOL0     C39371   3.041   3.089   0.795  0.4069 -0.5801 -0.1084
  286MOL0     C39372   3.007   3.085   0.647 -0.7530  0.7716  0.1260
  286MOL0     C39373   3.128   3.065   0.561 -0.5464  0.4177 -0.2942
  286MOL0     C39374   3.101   3.076   0.415  0.7731  0.2381 -0.3638
  286MOL0    Cl39375   3.001   2.945   0.353 -0.3408  0.1008  0.0039
  286MOL0     C39376   2.365   3.452   1.151  1.0467  0.8280  0.3968
  286MOL0     C39377   2.228   3.488   1.152  0.1963  0.4996 -0.4388
  286MOL0     O39378   1.966   3.407   0.877 -0.2355 -0.0823  0.3509
  286MOL0     C39379   1.722   3.481   1.113 -0.1663 -0.0739  0.5353
  286MOL0     C39380   1.584   3.481   1.138  0.9030 -0.4329  0.1317
  286MOL0     N39381   1.239   3.741   1.061  0.7512  0.0221 -0.4536
  286MOL0     N39382   1.182   3.849   1.093  0.0660  0.2984 -0.1733
  286MOL0     C39383   0.201   4.255   0.849  0.0917 -0.3352  0.0976
  286MOL0     C39384   0.087   4.191   0.789 -0.1238 -0.4341 -0.0103
  286MOL0     C39385  -0.221   4.083   0.448  0.4188  0.0474 -0.6696
  286MOL0     C39386  -0.325   4.123   0.547 -0.4367  0.2303  0.1568
  286MOL0     C39387  -0.463   4.100   0.521 -0.4542 -0.0112  0.6041
  286MOL0     C39388  -0.505   4.040   0.400 -0.0235 -0.9659 -0.4939
  286MOL0     O39389  -0.639   4.041   0.373 -0.0892 -0.0689  0.3006
  286MOL0     C39390  -0.696   3.912   0.388  0.1038  0.6843  0.4067
  286MOL0     C39391  -0.850   3.914   0.393 -0.0842 -0.4694  1.5181
  286MOL0     C39392  -0.922   3.938   0.256 -0.2171  0.8748 -0.0540
  286MOL0     C39393  -1.076   3.951   0.273 -1.1549 -1.1749 -0.1408
  286MOL0     C39394  -1.129   4.076   0.336 -0.2017  1.7983  1.1893
  286MOL0     C39395  -1.164   4.181   0.397  0.2812  0.2869  1.0622
  286MOL0     C39396  -0.413   4.004   0.304  0.5207 -0.8273 -1.6114
  286MOL0     C39397  -0.278   4.018   0.327 -0.4718 -0.6063  0.4178
  286MOL0     C39398  -0.187   3.976   0.213 -0.4474  0.2932 -0.0105
  286MOL0     H39399   0.169   4.243   0.461  0.9064  0.9331  0.1091
  286MOL0     H39400   0.375   4.344   0.570  2.1978  1.1761  3.3849
  286MOL0     H39401   0.423   4.293   1.022  1.0996  0.6480  1.7267
  286MOL0     H39402   0.329   4.442   1.000  0.6196  0.9752  1.6300
  286MOL0     H39403   0.569   4.545   0.942  1.6537  0.2597  0.0283
  286MOL0     H39404   0.495   4.527   1.103 -1.7684 -1.7201 -0.1571
  286MOL0     H39405   0.732   4.453   1.127  0.7586 -1.4869  0.3935
  286MOL0     H39406   0.631   4.316   1.137  0.8568 -0.9166  1.4500
  286MOL0     H39407   0.706   4.341   0.858  0.5341 -2.5619 -0.5534
  286MOL0     H39408   0.844   4.380   0.951  0.0219  0.6857  1.0097
  286MOL0     H39409   0.713   4.108   0.981  0.0485 -0.3816  0.7772
  286MOL0     H39410   0.831   4.184   1.085  4.7904  0.3243 -1.5849
  286MOL0     H39411   0.876   4.172   0.768  2.7901 -0.8801 -0.9824
  286MOL0     H39412   0.984   4.217   0.894 -0.1257  1.5464 -0.0907
  286MOL0     H39413   1.022   3.978   0.833 -1.1023 -3.0671 -1.0118
  286MOL0     H39414   0.843   3.948   0.851 -0.0960  0.5404 -0.3560
  286MOL0     H39415   1.010   4.043   1.084  0.2544 -0.7136  0.5840
  286MOL0     H39416   0.876   3.929   1.087  0.2723 -1.3432  0.6156
  286MOL0     H39417   0.955   3.701   0.893 -2.9675 -0.2685  2.4186
  286MOL0     H39418   1.295   3.543   0.894 -0.3421  0.7362 -2.0763
  286MOL0     H39419   1.163   3.571   0.793  1.4701 -0.0512 -0.3623
  286MOL0     H39420   1.008   3.433   0.923  0.0680  1.9661  0.8940
  286MOL0     H39421   1.143   3.334   0.872 -0.5196 -0.1914  1.0809
  286MOL0     H39422   1.137   3.460   1.158  1.2208 -0.6859  0.6494
  286MOL0     H39423   1.085   3.291   1.120 -1.3279  0.2606 -1.2365
  286MOL0     H39424   1.278   3.253   1.192 -2.3805  0.4644 -0.7479
  286MOL0     H39425   1.309   3.239   1.025 -2.5145  0.2981 -1.0093
  286MOL0     H39426   1.509   3.206   0.948 -1.2332 -0.9001  3.5285
  286MOL0     H39427   1.730   3.090   0.936 -2.0244 -1.1389 -1.2257
  286MOL0     H39428   1.871   3.174   0.879 -0.3622 -1.3846 -0.6212
  286MOL0     H39429   1.722   3.176   0.778 -0.4240 -1.2235  0.6924
  286MOL0     H39430   2.097   3.194   1.038 -0.3711  0.0677  2.4422
  286MOL0     H39431   2.341   3.151   1.011  0.4948  1.4427  0.5206
  286MOL0     H39432   2.627   3.128   1.058 -0.0036 -1.0651 -2.4896
  286MOL0     H39433   2.547   3.207   0.922 -2.6038 -0.1197  0.4942
  286MOL0     H39434   2.736   3.375   0.920 -0.2588 -0.3423 -0.7162
  286MOL0     H39435   2.808   3.299   1.055  1.1832 -2.8621 -0.0781
  286MOL0     H39436   2.760   3.210   0.777 -4.3887  0.9262  1.6540
  286MOL0     H39437   2.782   3.080   0.894 -0.5097  0.4822 -0.3952
  286MOL0     H39438   2.993   3.195   0.979  2.2455  1.7647 -0.1126
  286MOL0     H39439   2.992   3.296   0.848  0.7744 -0.0974  3.0850
  286MOL0     H39440   3.142   3.131   0.802  0.5904 -1.1247  0.6459
  286MOL0     H39441   3.028   2.985   0.826 -2.0587 -1.2992 -3.0456
  286MOL0     H39442   2.968   3.184   0.621 -0.8263  0.8347  0.4796
  286MOL0     H39443   2.931   3.009   0.625 -1.8016  0.0156  5.2457
  286MOL0     H39444   3.172   2.968   0.586  0.5425  0.8571 -0.4728
  286MOL0     H39445   3.206   3.137   0.587  0.4176 -0.6936 -0.0505
  286MOL0     H39446   3.193   3.086   0.357  0.6521  0.1337 -0.5740
  286MOL0     H39447   3.047   3.171   0.415 -0.2473 -0.3305 -0.5753
  286MOL0     H39448   2.448   3.516   1.177  1.4151  1.4390 -2.0749
  286MOL0     H39449   2.188   3.585   1.178 -0.4572  0.2668 -0.5785
  286MOL0     H39450   1.782   3.559   1.158  1.3217 -2.1826  2.4549
  286MOL0     H39451   1.548   3.565   1.198  4.5887  0.9723  0.6276
  286MOL0     H39452   0.215   4.243   0.956 -0.4795  1.6957  0.4360
  286MOL0     H39453   0.008   4.155   0.854 -0.2156  4.0117  2.8199
  286MOL0     H39454  -0.302   4.178   0.638 -0.2698  0.7854 -0.2135
  286MOL0     H39455  -0.541   4.134   0.589 -0.1930 -0.6860  1.2516
  286MOL0     H39456  -0.660   3.840   0.313  2.6210 -0.2945  2.4279
  286MOL0     H39457  -0.665   3.866   0.481  2.3395  0.3984 -0.4273
  286MOL0     H39458  -0.882   3.984   0.471 -0.6416  3.9826 -2.3096
  286MOL0     H39459  -0.879   3.810   0.410  0.5835 -1.0589 -0.6147
  286MOL0     H39460  -0.887   4.021   0.193 -0.5246  1.3617  0.4074
  286MOL0     H39461  -0.901   3.851   0.193 -0.7364 -0.5181  1.6305
  286MOL0     H39462  -1.106   3.872   0.342 -1.9533  1.5321  2.8523
  286MOL0     H39463  -1.118   3.944   0.172 -0.9553 -2.8885 -0.1283
  286MOL0     H39464  -1.182   4.271   0.452 -1.3748  0.2880  0.5709
  286MOL0     H39465  -0.442   3.954   0.212 -0.2935  0.0633 -1.8553
  286MOL0     H39466  -0.230   3.906   0.141 -0.1821 -2.2212  2.1133
  286MOL0     H39467  -0.137   4.057   0.161  2.0153 -2.1190 -1.6870
  286MOL0     H39468  -0.109   3.917   0.262  1.0514  2.5095  0.3923
  287MOL0     O39469   0.763   7.935   3.462 -0.8345 -0.0048  0.1202
  287MOL0     C39470   0.841   7.885   3.543  0.1729  0.6534  0.1393
  287MOL0     O39471   0.953   7.948   3.601 -0.4944  0.0234  0.3968
  287MOL0     C39472   0.973   8.073   3.554  0.0231 -0.5312  0.4065
  287MOL0     C39473   0.896   8.178   3.607 -0.9216 -0.4636 -0.3959
  287MOL0     C39474   0.909   8.308   3.556  0.4753 -0.4504 -1.6471
  287MOL0     C39475   0.990   8.338   3.445  0.0156  0.0361  0.0462
  287MOL0     O39476   1.006   8.458   3.379 -0.0420  0.5103  0.3103
  287MOL0     C39477   0.889   8.534   3.346  0.1533  0.0948  1.4199
  287MOL0     C39478   0.860   8.523   3.193 -0.4568 -0.7567  0.5912
  287MOL0     C39479   0.820   8.379   3.154  0.2822  0.2181  0.5733
  287MOL0     C39480   0.933   8.300   3.085 -0.8645  0.7370  1.0746
  287MOL0     C39481   0.876   8.182   3.002 -0.0589 -0.7337 -0.1678
  287MOL0     C39482   0.805   8.087   3.090 -0.0258  0.0698 -0.1293
  287MOL0     C39483   0.764   7.954   3.015 -0.0080  0.0165 -0.1956
  287MOL0     C39484   0.706   7.861   3.127  1.2237 -0.5996  0.7657
  287MOL0     N39485   0.566   7.904   3.166  0.8893  0.1652 -0.4422
  287MOL0     C39486   0.534   7.990   3.270 -0.4303  0.1067  0.3103
  287MOL0     C39487   0.394   7.983   3.273 -0.0518  0.6988  0.1499
  287MOL0     C39488   0.301   8.068   3.358  0.6768  0.5087 -0.6620
  287MOL0     C39489   0.238   7.979   3.459 -0.4678 -0.2501 -1.2463
  287MOL0     C39490   0.209   8.047   3.597 -0.4046 -0.1603  0.0761
  287MOL0     C39491   0.330   8.048   3.687 -0.4382  0.0315 -0.4106
  287MOL0     O39492   0.343   7.922   3.764 -0.8465  0.0196 -0.0923
  287MOL0     C39493   0.457   7.907   3.833  0.2022 -0.1447 -0.2872
  287MOL0     C39494   0.553   8.004   3.859  0.4318  0.3572  0.6151
  287MOL0     C39495   0.651   7.978   3.961 -0.2203 -0.2732  1.3553
  287MOL0     C39496   0.741   8.103   3.993 -0.2145 -0.1782  0.0777
  287MOL0     C39497   0.652   7.853   4.032 -0.2116 -0.5045  0.6737
  287MOL0     C39498   0.744   7.825   4.145  0.2485  0.4893 -0.3709
  287MOL0     O39499   0.769   7.687   4.165  0.9820 -0.2526  0.1957
  287MOL0     C39500   0.837   7.636   4.273  0.5446 -0.2302 -0.3841
  287MOL0     C39501   0.940   7.699   4.338  0.3453 -0.2329 -0.1879
  287MOL0     C39502   1.013   7.640   4.442 -0.1031 -0.0597 -0.2550
  287MOL0     C39503   0.984   7.510   4.485  0.7073 -0.0895  0.0848
  287MOL0     O39504   1.050   7.435   4.575 -0.9127 -0.2907  0.3131
  287MOL0     C39505   1.173   7.487   4.627 -0.2546  0.3796  1.5951
  287MOL0     C39506   1.240   7.375   4.689 -0.3627  0.1067 -0.2529
  287MOL0     C39507   1.284   7.264   4.596 -0.5953 -0.0818 -0.4491
  287MOL0     C39508   1.371   7.150   4.661  0.3302  0.2354  0.4465
  287MOL0     C39509   1.397   7.043   4.549 -0.1010 -0.9543  0.5081
  287MOL0     C39510   1.450   6.915   4.618  0.0290  0.5932 -0.0057
  287MOL0     C39511   1.599   6.912   4.599 -0.4420  0.3376  0.1907
  287MOL0     C39512   1.677   6.778   4.639  0.4385  0.0448  0.8376
  287MOL0    Cl39513   1.578   6.644   4.569 -0.5522  0.0191  0.1725
  287MOL0     C39514   0.886   7.444   4.415  0.1716 -1.1870  0.9423
  287MOL0     C39515   0.807   7.501   4.316  0.0213 -0.2470 -0.7017
  287MOL0     O39516   0.777   7.916   4.222 -0.6563  0.3437 -0.4521
  287MOL0     C39517   0.553   7.755   4.000  0.5679  0.4242 -0.3491
  287MOL0     C39518   0.457   7.781   3.897  0.3165 -0.2391  0.3644
  287MOL0     N39519   0.356   7.919   3.163 -0.5187  0.0828 -0.1262
  287MOL0     N39520   0.457   7.865   3.101 -0.2368  0.0200  0.1940
  287MOL0     C39521   1.079   8.231   3.403  0.1549 -0.6279 -0.1014
  287MOL0     C39522   1.061   8.104   3.456 -0.4140  0.1813 -0.5253
  287MOL0     C39523   0.812   7.763   3.617  0.0296  0.7788  0.3391
  287MOL0     C39524   0.903   7.722   3.714  0.1707  0.2031  0.0355
  287MOL0     C39525   0.871   7.614   3.795 -0.5105 -0.5786  0.4156
  287MOL0     C39526   0.747   7.544   3.791 -0.0207  1.3529  0.6565
  287MOL0     O39527   0.712   7.454   3.884 -0.1577  0.3677  0.4317
  287MOL0     C39528   0.577   7.404   3.886  0.1052  0.8864  0.1186
  287MOL0     C39529   0.552   7.309   3.999 -0.7613 -0.2813 -0.1654
  287MOL0     C39530   0.399   7.289   4.023 -0.6174  0.5427  0.6750
  287MOL0     C39531   0.324   7.404   4.096 -0.4988  0.7105  0.5126
  287MOL0     C39532   0.389   7.446   4.219 -0.4201 -0.2904  0.2415
  287MOL0     C39533   0.433   7.494   4.314 -0.2560 -0.2794  0.1911
  287MOL0     C39534   0.664   7.581   3.687  0.3518 -0.0898 -0.0607
  287MOL0     C39535   0.687   7.696   3.609  0.0922  0.6196 -1.1010
  287MOL0     C39536   0.585   7.728   3.510  0.7119  0.5303 -0.5028
  287MOL0     H39537   0.835   8.149   3.692  1.0148 -0.7547  0.9743
  287MOL0     H39538   0.844   8.388   3.591  1.6216 -0.4129  0.5965
  287MOL0     H39539   0.903   8.638   3.377  1.6367  0.7437 -1.1244
  287MOL0     H39540   0.797   8.501   3.395 -3.1180  2.7190 -2.3616
  287MOL0     H39541   0.786   8.601   3.168 -1.2748 -0.7318  2.8405
  287MOL0     H39542   0.938   8.564   3.129  0.2309  2.3910  3.1749
  287MOL0     H39543   0.781   8.323   3.240 -1.7860 -1.2397 -1.2288
  287MOL0     H39544   0.730   8.391   3.093  1.1042  3.1216 -0.2586
  287MOL0     H39545   0.988   8.367   3.018  0.7189 -2.6146 -1.2743
  287MOL0     H39546   1.017   8.264   3.146  1.2249  1.6089 -1.1183
  287MOL0     H39547   0.955   8.127   2.951 -2.3708 -1.4638 -3.2118
  287MOL0     H39548   0.812   8.227   2.925  1.0098  0.9518 -0.1267
  287MOL0     H39549   0.869   8.054   3.171  0.8965  2.6974  0.2950
  287MOL0     H39550   0.714   8.137   3.126  0.3455  0.2707  0.5298
  287MOL0     H39551   0.859   7.910   2.984 -0.4444  0.9715 -3.2774
  287MOL0     H39552   0.699   7.976   2.930  2.2243  1.3244 -1.6758
  287MOL0     H39553   0.703   7.756   3.095  2.5332 -0.4694  0.1127
  287MOL0     H39554   0.771   7.868   3.215 -0.1196  0.9362  1.6835
  287MOL0     H39555   0.610   8.036   3.333 -1.3501 -0.8727  2.2385
  287MOL0     H39556   0.217   8.107   3.299 -0.1434  2.1800  1.4769
  287MOL0     H39557   0.348   8.154   3.406  1.2713  1.6887 -3.2105
  287MOL0     H39558   0.147   7.931   3.422  1.3950 -3.2887 -2.2849
  287MOL0     H39559   0.311   7.903   3.491  0.4803  1.4169  0.7807
  287MOL0     H39560   0.171   8.144   3.562 -0.8221 -1.1989 -2.6306
  287MOL0     H39561   0.123   8.003   3.647 -1.9118  0.9887 -1.3946
  287MOL0     H39562   0.420   8.081   3.634 -0.7811  3.2846  0.8057
  287MOL0     H39563   0.313   8.123   3.765  0.2979 -0.3095  0.0834
  287MOL0     H39564   0.542   8.104   3.818 -0.5415 -0.2830 -0.7597
  287MOL0     H39565   0.830   8.098   3.930  0.8487  0.5932  1.4572
  287MOL0     H39566   0.777   8.116   4.095  1.7437  0.5289 -0.6732
  287MOL0     H39567   0.689   8.199   3.982  0.4537  0.2665  0.7550
  287MOL0     H39568   0.964   7.795   4.294  2.0950 -0.6069 -0.1424
  287MOL0     H39569   1.097   7.694   4.485 -1.2775  0.5851  1.3645
  287MOL0     H39570   1.238   7.533   4.551  1.5561 -0.5657  2.5148
  287MOL0     H39571   1.158   7.570   4.696 -0.8768  0.7739  1.0070
  287MOL0     H39572   1.331   7.414   4.736 -0.4443  3.0639 -2.2841
  287MOL0     H39573   1.175   7.334   4.766  0.6248 -2.3388 -0.6069
  287MOL0     H39574   1.351   7.313   4.525 -0.3756 -0.5146 -0.5403
  287MOL0     H39575   1.196   7.218   4.552 -0.2101 -0.2698 -1.0319
  287MOL0     H39576   1.308   7.100   4.736 -1.3474 -0.0165 -1.0640
  287MOL0     H39577   1.463   7.181   4.711 -0.3964 -0.2640  2.1953
  287MOL0     H39578   1.302   7.024   4.498 -1.7745  2.1995  2.1083
  287MOL0     H39579   1.450   7.081   4.462 -2.5344 -0.2557 -0.7798
  287MOL0     H39580   1.402   6.827   4.575  0.6351 -0.6460  1.7599
  287MOL0     H39581   1.437   6.912   4.727  2.8403 -0.1877  0.3862
  287MOL0     H39582   1.639   6.999   4.652  0.0220 -1.3082  2.7145
  287MOL0     H39583   1.605   6.912   4.490  0.1688  0.2913  0.2236
  287MOL0     H39584   1.693   6.773   4.747  1.3410  2.1346  0.8500
  287MOL0     H39585   1.773   6.785   4.588 -0.5078 -0.0395 -1.0360
  287MOL0     H39586   0.871   7.342   4.448 -2.1689 -0.7085  1.5501
  287MOL0     H39587   0.720   7.445   4.283 -0.4787  0.3878 -0.4858
  287MOL0     H39588   0.551   7.664   4.058 -1.2555 -0.4140 -1.6323
  287MOL0     H39589   0.376   7.709   3.888 -1.3015  1.3751  1.3999
  287MOL0     H39590   1.160   8.255   3.336  0.9414  1.0096  1.3595
  287MOL0     H39591   1.122   8.028   3.407 -0.5903  0.1126 -0.6405
  287MOL0     H39592   0.995   7.774   3.739  1.4392 -1.2636 -1.3989
  287MOL0     H39593   0.935   7.609   3.883 -4.3312  0.4535  3.5113
  287MOL0     H39594   0.505   7.486   3.899  0.3256  0.8887  1.4170
  287MOL0     H39595   0.558   7.341   3.799  4.2027 -0.8137  0.2409
  287MOL0     H39596   0.603   7.355   4.084  0.3323  0.5332 -1.2276
  287MOL0     H39597   0.586   7.206   3.984 -2.2675 -0.9580  0.7689
  287MOL0     H39598   0.351   7.256   3.931 -3.3486  1.2732  1.7316
  287MOL0     H39599   0.391   7.205   4.093  0.7276  0.3853  0.6673
  287MOL0     H39600   0.221   7.372   4.115 -0.9023  2.5970  1.7972
  287MOL0     H39601   0.309   7.483   4.021 -2.5218 -2.5937 -2.9664
  287MOL0     H39602   0.489   7.534   4.396  1.2777 -2.2108  0.1704
  287MOL0     H39603   0.567   7.536   3.668  0.7243 -1.9614  2.0064
  287MOL0     H39604   0.489   7.684   3.539  1.9523 -2.2195 -0.2794
  287MOL0     H39605   0.558   7.834   3.510 -1.8990 -0.0753 -0.3207
  287MOL0     H39606   0.622   7.706   3.409  1.9613  0.5311 -0.0569
  288MOL0     O39607   8.936   9.996  10.681  0.6046 -0.7358 -0.4571
  288MOL0     C39608   8.938  10.097  10.748  0.3158  0.2407  0.1386
  288MOL0     O39609   8.838  10.128  10.846 -0.0909 -0.6861 -0.3406
  288MOL0     C39610   8.728  10.031  10.837 -0.4802 -0.1311  0.9209
  288MOL0     C39611   8.721   9.933  10.938  0.2594 -0.9353  1.3983
  288MOL0     C39612   8.612   9.845  10.943 -0.3933 -0.1249 -0.4387
  288MOL0     C39613   8.509   9.859  10.846  0.4236  0.2550 -0.4935
  288MOL0     O39614   8.403   9.774  10.876  0.1279 -0.5363 -0.3392
  288MOL0     C39615   8.294   9.763  10.785  0.2392 -0.1034 -0.3446
  288MOL0     C39616   8.202   9.650  10.844 -0.3337 -0.5126  0.5228
  288MOL0     C39617   8.068   9.660  10.775 -0.6647 -0.5450 -0.9585
  288MOL0     C39618   7.985   9.531  10.811 -0.0775  0.3937 -0.0859
  288MOL0     C39619   7.901   9.545  10.942 -0.3257 -0.2535  0.3110
  288MOL0     C39620   7.787   9.455  10.933  0.0149 -0.2540  0.1946
  288MOL0     C39621   7.705   9.464  11.061  0.1251  0.5040  0.9955
  288MOL0     C39622   7.594   9.362  11.065 -0.6990 -1.0371  0.4525
  288MOL0     N39623   7.558   9.312  11.190 -0.2104  0.7965  0.3877
  288MOL0     C39624   7.484   9.384  11.272 -0.2543  0.0146  0.6867
  288MOL0     C39625   7.504   9.323  11.393 -0.8049 -0.5407 -0.0432
  288MOL0     C39626   7.444   9.361  11.519 -0.8473 -1.0738 -0.5954
  288MOL0     C39627   7.365   9.490  11.528  0.5425 -0.2605 -0.5371
  288MOL0     C39628   7.305   9.507  11.666  0.5804 -0.7260 -1.3997
  288MOL0     C39629   7.206   9.625  11.691 -0.4467 -0.0026 -0.2197
  288MOL0     O39630   7.094   9.573  11.628 -1.0733  1.0016 -0.1038
  288MOL0     C39631   6.989   9.662  11.609 -0.1405  0.8020 -0.4589
  288MOL0     C39632   6.902   9.633  11.501 -0.2590  0.5559  0.3304
  288MOL0     C39633   6.801   9.715  11.458  0.5608 -0.8028 -0.1571
  288MOL0     C39634   6.726   9.673  11.337 -0.6780  0.3928 -0.3023
  288MOL0     C39635   6.777   9.839  11.526  0.6903  0.7109 -0.2554
  288MOL0     C39636   6.670   9.939  11.498 -0.2733 -1.1193 -0.3926
  288MOL0     O39637   6.568   9.910  11.406  0.1342 -0.2995  0.2149
  288MOL0     C39638   6.451   9.990  11.386 -0.6164  0.7027  0.5323
  288MOL0     C39639   6.374   9.955  11.273 -0.3321  0.4548 -0.4751
  288MOL0     C39640   6.250  10.008  11.244 -0.8119  0.1156  0.1477
  288MOL0     C39641   6.194  10.092  11.340  0.2901 -0.8485  0.6390
  288MOL0     O39642   6.062  10.144  11.335  0.8360 -0.1270  0.0580
  288MOL0     C39643   6.010  10.169  11.200 -0.0938 -0.0543 -0.8514
  288MOL0     C39644   5.863  10.214  11.210 -0.2558 -0.1394  0.4188
  288MOL0     C39645   5.783  10.142  11.099 -0.9515  0.4989  0.4620
  288MOL0     C39646   5.641  10.189  11.097  0.9619 -0.9161 -0.4376
  288MOL0     C39647   5.567  10.155  10.963 -0.3052  0.4703 -0.8253
  288MOL0     C39648   5.429  10.222  10.982  0.8214  0.2109 -0.1557
  288MOL0     C39649   5.336  10.169  10.871 -0.3000  0.2673 -0.2239
  288MOL0     C39650   5.199  10.238  10.896 -0.2564  0.1930 -0.3116
  288MOL0    Cl39651   5.205  10.396  10.821  0.1939 -0.1161  0.2119
  288MOL0     C39652   6.259  10.122  11.458 -0.1966 -0.1835  0.1848
  288MOL0     C39653   6.392  10.073  11.486  0.7139  0.9581  0.4656
  288MOL0     O39654   6.681  10.046  11.557 -0.3359 -0.3548  0.1150
  288MOL0     C39655   6.856   9.867  11.643 -1.3259 -0.3814  0.3703
  288MOL0     C39656   6.961   9.787  11.678 -0.2322  0.0082 -0.4292
  288MOL0     N39657   7.594   9.207  11.379  0.9556 -0.2658 -0.2814
  288MOL0     N39658   7.614   9.207  11.258 -0.2679 -0.1626  0.3082
  288MOL0     C39659   8.518   9.961  10.751  0.3361 -0.6084 -0.6417
  288MOL0     C39660   8.630  10.047  10.739  0.2314  0.3447 -0.9504
  288MOL0     C39661   9.058  10.178  10.739 -0.2879  0.2059 -0.9105
  288MOL0     C39662   9.186  10.110  10.730  1.1376 -0.5419  0.4675
  288MOL0     C39663   9.300  10.186  10.713 -0.1450 -0.3791 -0.5446
  288MOL0     C39664   9.302  10.326  10.729 -0.4870  0.1225  0.7765
  288MOL0     O39665   9.409  10.404  10.700 -0.2324  0.4393  0.6650
  288MOL0     C39666   9.538  10.351  10.718 -0.4187 -0.8431  0.0978
  288MOL0     C39667   9.654  10.427  10.633  1.1724 -0.4070  0.2452
  288MOL0     C39668   9.706  10.567  10.682 -0.8774  0.2762  0.7003
  288MOL0     C39669   9.821  10.546  10.783 -0.2165 -0.3678  0.4409
  288MOL0     C39670   9.933  10.463  10.733  0.0250  0.2734  0.5939
  288MOL0     C39671  10.016  10.391  10.682 -0.0107  0.7696 -0.1877
  288MOL0     C39672   9.175  10.387  10.746 -0.5351 -0.2809 -0.3175
  288MOL0     C39673   9.063  10.313  10.757  0.1240 -0.5661  0.0677
  288MOL0     C39674   8.940  10.394  10.804 -0.7394  0.0378  1.0108
  288MOL0     H39675   8.798   9.921  11.015 -0.4986 -0.6208  2.2219
  288MOL0     H39676   8.593   9.770  11.019 -2.1327  0.6796 -0.0263
  288MOL0     H39677   8.332   9.739  10.685 -0.0122 -2.7128  0.1222
  288MOL0     H39678   8.238   9.858  10.783 -1.2066 -0.8689  1.2022
  288MOL0     H39679   8.243   9.551  10.821 -0.4284 -1.0318  2.4241
  288MOL0     H39680   8.205   9.660  10.953 -1.4100  0.2877  0.4995
  288MOL0     H39681   8.019   9.751  10.812 -0.8088 -1.4094  1.0921
  288MOL0     H39682   8.087   9.676  10.668 -3.2382  0.1807 -1.3895
  288MOL0     H39683   7.917   9.516  10.727  1.2115  4.7674 -2.1834
  288MOL0     H39684   8.050   9.443  10.819 -1.3937 -0.8728 -2.3774
  288MOL0     H39685   7.871   9.650  10.947 -3.6443 -1.0079 -1.0813
  288MOL0     H39686   7.967   9.526  11.027 -1.4431  2.4542  1.9172
  288MOL0     H39687   7.726   9.479  10.846 -1.5218 -3.5304  0.1982
  288MOL0     H39688   7.821   9.352  10.920  0.9940 -0.0016  0.6856
  288MOL0     H39689   7.658   9.563  11.067 -2.5687 -0.6283 -0.0898
  288MOL0     H39690   7.771   9.442  11.146  0.7105 -1.5064  0.0809
  288MOL0     H39691   7.506   9.414  11.024 -0.8037 -1.7327 -0.2244
  288MOL0     H39692   7.618   9.281  10.996  0.8202  0.8573 -1.3888
  288MOL0     H39693   7.419   9.467  11.249  0.3873 -0.0112 -1.4977
  288MOL0     H39694   7.518   9.367  11.600 -1.4423  0.4053 -0.1197
  288MOL0     H39695   7.364   9.291  11.545 -3.0584  1.5486  0.2695
  288MOL0     H39696   7.431   9.577  11.522  1.2079 -0.8173 -1.5234
  288MOL0     H39697   7.284   9.493  11.454 -1.5518 -0.2599  1.6271
  288MOL0     H39698   7.266   9.415  11.711  0.2280 -0.4763 -1.2004
  288MOL0     H39699   7.388   9.521  11.735  0.8485  0.8600 -2.0164
  288MOL0     H39700   7.181   9.644  11.796 -2.1752 -2.4204 -0.1229
  288MOL0     H39701   7.249   9.710  11.637 -0.5189 -1.0233 -1.9548
  288MOL0     H39702   6.924   9.533  11.465 -3.9623 -0.8005  1.4042
  288MOL0     H39703   6.753   9.737  11.253  0.9116  0.6114  0.3280
  288MOL0     H39704   6.620   9.679  11.365  0.0330  1.0803  2.6228
  288MOL0     H39705   6.752   9.574  11.298  0.5610  1.7817 -3.2426
  288MOL0     H39706   6.420   9.877  11.215 -1.7663 -1.0930  0.3672
  288MOL0     H39707   6.196   9.947  11.172 -0.1608 -0.4579  0.1362
  288MOL0     H39708   6.061  10.252  11.151 -0.1594  1.0304  0.8134
  288MOL0     H39709   6.020  10.076  11.143 -0.8219  0.0374 -1.1385
  288MOL0     H39710   5.817  10.186  11.305  0.9980 -0.6008  0.9094
  288MOL0     H39711   5.850  10.322  11.195 -0.0297 -0.1399  0.2008
  288MOL0     H39712   5.795  10.034  11.109  0.9015  0.8071  2.3995
  288MOL0     H39713   5.821  10.171  11.000 -1.3999  0.1784  0.1942
  288MOL0     H39714   5.638  10.297  11.113 -0.6684 -1.2600  2.0578
  288MOL0     H39715   5.588  10.134  11.175 -0.0909  0.2230 -0.3151
  288MOL0     H39716   5.626  10.191  10.878 -0.8120 -0.9765 -1.8192
  288MOL0     H39717   5.558  10.047  10.957  2.8834 -0.0640  1.0932
  288MOL0     H39718   5.443  10.331  10.982  1.4580  0.1329  0.2561
  288MOL0     H39719   5.391  10.191  11.079 -1.0490  2.7046  0.0015
  288MOL0     H39720   5.332  10.061  10.888  2.7233 -0.1334 -1.3990
  288MOL0     H39721   5.375  10.192  10.771  1.4120 -2.0147 -0.1491
  288MOL0     H39722   5.173  10.252  11.001 -1.2364 -1.0149 -0.3762
  288MOL0     H39723   5.116  10.180  10.854  0.8517 -0.4262 -1.7327
  288MOL0     H39724   6.215  10.185  11.535 -1.6611 -0.4118 -0.4525
  288MOL0     H39725   6.437  10.087  11.584 -1.0836  2.3299  1.1462
  288MOL0     H39726   6.832   9.962  11.691  2.1162  0.7198  0.2329
  288MOL0     H39727   7.032   9.817  11.754 -1.4032 -0.4759  0.8826
  288MOL0     H39728   8.432   9.966  10.685 -0.3086  2.2670  0.2589
  288MOL0     H39729   8.637  10.115  10.656 -2.0104 -0.1967 -1.6474
  288MOL0     H39730   9.193  10.002  10.718  1.2566 -0.2970 -2.3560
  288MOL0     H39731   9.391  10.135  10.683 -1.0253 -0.8600 -2.5677
  288MOL0     H39732   9.547  10.374  10.824 -2.2743  0.6315 -0.0154
  288MOL0     H39733   9.553  10.243  10.707  2.5239 -0.4679 -0.2962
  288MOL0     H39734   9.603  10.446  10.538 -0.8590 -0.4042  1.2679
  288MOL0     H39735   9.738  10.359  10.617  0.0623 -1.3777 -1.9924
  288MOL0     H39736   9.732  10.640  10.605 -0.0712  2.6370  3.0651
  288MOL0     H39737   9.623  10.620  10.730 -1.6711 -2.8701  3.1624
  288MOL0     H39738   9.783  10.499  10.874 -2.0744  1.7007  0.8214
  288MOL0     H39739   9.864  10.644  10.805  2.6069 -1.3957 -0.0085
  288MOL0     H39740  10.085  10.327  10.630 -0.6662 -0.3367  0.2669
  288MOL0     H39741   9.165  10.494  10.753 -0.6154 -0.1416 -2.1833
  288MOL0     H39742   8.853  10.359  10.746  0.3965 -0.7970 -0.2452
  288MOL0     H39743   8.923  10.378  10.911 -3.5064 -1.6642  0.4173
  288MOL0     H39744   8.954  10.500  10.781  0.0894 -0.1635  0.5768
  289MOL0     O39745   2.283   0.030   6.897 -0.5295  0.1462 -0.0163
  289MOL0     C39746   2.384   0.082   6.947 -0.5972  0.3622  0.0656
  289MOL0     O39747   2.462   0.170   6.882  0.1292 -0.4113 -0.6541
  289MOL0     C39748   2.428   0.203   6.757 -0.3874 -1.1450  1.2661
  289MOL0     C39749   2.503   0.140   6.652  0.0168  0.1909 -0.0813
  289MOL0     C39750   2.464   0.174   6.516 -0.2162 -0.0578  0.1855
  289MOL0     C39751   2.362   0.263   6.495  0.8149  0.1347  0.5775
  289MOL0     O39752   2.324   0.279   6.366 -0.0281  0.5527 -0.3337
  289MOL0     C39753   2.217   0.203   6.323  0.6189  0.3459  0.4163
  289MOL0     C39754   2.086   0.287   6.319  0.1917  1.2583  0.1486
  289MOL0     C39755   1.958   0.205   6.266  0.3655  0.4479 -0.0041
  289MOL0     C39756   1.832   0.290   6.282  0.7063 -1.0954  0.4658
  289MOL0     C39757   1.704   0.242   6.208 -1.6303  0.2343  0.0744
  289MOL0     C39758   1.665   0.104   6.254  0.2449 -0.3282 -0.3737
  289MOL0     C39759   1.556   0.058   6.167 -0.6760 -0.5604 -0.0979
  289MOL0     C39760   1.479  -0.055   6.226  0.4840 -1.1699  0.1935
  289MOL0     N39761   1.352  -0.081   6.159 -0.4546  0.1059 -0.6313
  289MOL0     C39762   1.259   0.019   6.133 -0.6092 -0.7250 -0.3552
  289MOL0     C39763   1.168  -0.030   6.045  0.2414  0.0745 -0.2221
  289MOL0     C39764   1.044   0.039   6.001 -0.5260  1.0298 -0.5210
  289MOL0     C39765   0.925   0.025   6.099 -0.3086  0.6259 -0.1151
  289MOL0     C39766   0.946   0.077   6.251 -0.1501  0.4961  0.1645
  289MOL0     C39767   0.811   0.089   6.328  0.5284 -0.3660 -0.1587
  289MOL0     O39768   0.855   0.084   6.461 -0.4912  1.2247 -0.2747
  289MOL0     C39769   0.752   0.092   6.554  0.2158 -0.6274 -0.2594
  289MOL0     C39770   0.618   0.066   6.530  0.5265  0.3715 -0.2008
  289MOL0     C39771   0.525   0.043   6.639  0.1743 -0.2199  0.9759
  289MOL0     C39772   0.380   0.017   6.605  0.8080  0.7247  0.6662
  289MOL0     C39773   0.569   0.049   6.768  0.3652 -0.3822 -0.3841
  289MOL0     C39774   0.481   0.020   6.891 -0.1307  0.4842  0.4585
  289MOL0     O39775   0.539   0.057   7.011 -0.0740 -0.7239  0.3204
  289MOL0     C39776   0.464   0.034   7.123 -0.3627  0.2680  0.4946
  289MOL0     C39777   0.384   0.136   7.180 -0.1518 -0.4031  0.5178
  289MOL0     C39778   0.322   0.117   7.311  0.3583 -0.6442  0.8584
  289MOL0     C39779   0.312  -0.009   7.375  1.3875 -1.1545 -0.1816
  289MOL0     O39780   0.219  -0.024   7.466 -0.3752  0.2094 -0.1201
  289MOL0     C39781   0.233  -0.123   7.573 -0.6445 -0.2374  0.5651
  289MOL0     C39782   0.168  -0.063   7.699 -1.2429  0.1550 -0.4729
  289MOL0     C39783   0.013  -0.034   7.676 -0.8272  0.5535 -0.3921
  289MOL0     C39784  -0.067  -0.162   7.698  0.0421  0.4375 -0.1093
  289MOL0     C39785  -0.215  -0.121   7.682 -0.0081 -0.1583  0.7170
  289MOL0     C39786  -0.258  -0.104   7.538 -0.1318 -0.8240 -0.1210
  289MOL0     C39787  -0.239  -0.233   7.449 -0.0281 -0.1535 -0.3540
  289MOL0     C39788  -0.373  -0.266   7.368 -0.8318 -0.1231  0.1274
  289MOL0    Cl39789  -0.420  -0.128   7.272  0.0050  0.5329  0.2808
  289MOL0     C39790   0.400  -0.106   7.320  0.4597 -1.0178  0.7114
  289MOL0     C39791   0.475  -0.088   7.196  0.2380  0.0854 -0.5630
  289MOL0     O39792   0.377  -0.048   6.880  0.1006  0.3012 -0.1313
  289MOL0     C39793   0.696   0.098   6.789  0.1905  0.4924 -0.0664
  289MOL0     C39794   0.781   0.116   6.683 -0.0455 -0.4780 -1.1996
  289MOL0     N39795   1.203  -0.163   6.031  0.2721 -0.1930 -0.8320
  289MOL0     N39796   1.316  -0.187   6.082 -0.8934  0.0669  0.6852
  289MOL0     C39797   2.301   0.326   6.605 -0.6439  0.5998 -0.1599
  289MOL0     C39798   2.330   0.308   6.737 -0.6055  0.2986 -0.7772
  289MOL0     C39799   2.442   0.034   7.080 -0.1127 -0.2202  0.2550
  289MOL0     C39800   2.567   0.092   7.113  0.1356  0.0541 -0.4079
  289MOL0     C39801   2.640   0.046   7.221 -0.0779  0.3879 -0.2993
  289MOL0     C39802   2.592  -0.052   7.305  0.5204  0.1678 -0.0615
  289MOL0     O39803   2.649  -0.107   7.417 -0.3017 -0.6846 -0.5560
  289MOL0     C39804   2.712  -0.025   7.522 -0.3561 -0.4035  0.4930
  289MOL0     C39805   2.615   0.073   7.590  0.0060 -0.3229 -0.4881
  289MOL0     C39806   2.469   0.033   7.627  0.5621  0.6510  0.4922
  289MOL0     C39807   2.461  -0.101   7.695 -0.4766  0.3403  0.4513
  289MOL0     C39808   2.315  -0.128   7.717  0.4435  0.3135  0.6792
  289MOL0     C39809   2.193  -0.143   7.733 -0.3497  0.9339 -0.7618
  289MOL0     C39810   2.467  -0.108   7.264 -0.1488  0.0758 -0.0869
  289MOL0     C39811   2.392  -0.061   7.160  0.1072 -0.4865 -0.3663
  289MOL0     C39812   2.255  -0.127   7.133  0.9562  0.4343 -0.3195
  289MOL0     H39813   2.587   0.079   6.683  1.0011  1.6965  0.3583
  289MOL0     H39814   2.514   0.126   6.432  0.5292 -2.4336  1.8622
  289MOL0     H39815   2.200   0.107   6.372 -2.4802  1.3956  1.6494
  289MOL0     H39816   2.233   0.189   6.216  2.1564  1.8295  0.4043
  289MOL0     H39817   2.060   0.321   6.420  0.6778  0.2599  0.6253
  289MOL0     H39818   2.102   0.385   6.273 -0.0517  2.2758  2.1005
  289MOL0     H39819   1.975   0.191   6.159 -0.0876  1.1015 -0.1683
  289MOL0     H39820   1.944   0.113   6.323 -0.5095  1.4562  1.4954
  289MOL0     H39821   1.805   0.311   6.386 -1.3390  2.5717 -0.6320
  289MOL0     H39822   1.847   0.394   6.253 -2.8238 -0.9891 -1.5257
  289MOL0     H39823   1.720   0.240   6.100 -0.2019  4.0566  0.0465
  289MOL0     H39824   1.622   0.315   6.218 -2.1679 -0.2256 -0.8697
  289MOL0     H39825   1.751   0.037   6.243  0.5121  0.1234 -1.1386
  289MOL0     H39826   1.622   0.098   6.354  0.1344 -5.2827 -0.4739
  289MOL0     H39827   1.593   0.021   6.071 -3.1964 -1.9046 -0.6428
  289MOL0     H39828   1.489   0.140   6.139 -1.2279 -1.6643 -2.2738
  289MOL0     H39829   1.536  -0.148   6.214 -1.9823 -2.7138 -0.4116
  289MOL0     H39830   1.455  -0.024   6.328  2.3835  0.0637  0.3006
  289MOL0     H39831   1.277   0.111   6.187  2.7214 -1.0355 -0.6935
  289MOL0     H39832   1.017   0.026   5.896 -0.4856  3.3193 -0.8774
  289MOL0     H39833   1.065   0.147   6.001 -1.6216  1.2653 -0.0309
  289MOL0     H39834   0.840   0.081   6.057  0.7911  0.7237 -2.3426
  289MOL0     H39835   0.880  -0.074   6.105 -3.1558  1.8774  2.7633
  289MOL0     H39836   1.005   0.007   6.311 -0.5299 -1.0697 -1.2176
  289MOL0     H39837   0.999   0.172   6.247  0.6363  0.0277 -1.0166
  289MOL0     H39838   0.753   0.181   6.314  0.7991 -0.3237 -1.0582
  289MOL0     H39839   0.742   0.010   6.297 -1.4057  1.1255  0.1923
  289MOL0     H39840   0.570   0.077   6.433  3.2808  0.1084 -1.6842
  289MOL0     H39841   0.352   0.019   6.499  2.3417 -1.5640  0.1417
  289MOL0     H39842   0.318   0.084   6.665  1.3858  0.0207  2.1026
  289MOL0     H39843   0.360  -0.085   6.640 -0.1075  0.7130  0.1442
  289MOL0     H39844   0.376   0.227   7.121 -0.3591 -1.7875 -1.7107
  289MOL0     H39845   0.258   0.192   7.355  0.1179 -0.6822  0.5797
  289MOL0     H39846   0.184  -0.216   7.541 -0.2321  0.2454 -1.6122
  289MOL0     H39847   0.336  -0.146   7.599 -1.0696 -0.4410  2.1905
  289MOL0     H39848   0.177  -0.139   7.776 -1.0307  3.2919  2.8694
  289MOL0     H39849   0.217   0.032   7.722 -3.0123  1.7477 -2.8395
  289MOL0     H39850   0.006   0.003   7.573 -5.0300 -4.6167 -2.4115
  289MOL0     H39851  -0.030   0.043   7.741 -0.9046  0.6091 -0.5097
  289MOL0     H39852  -0.057  -0.191   7.803  1.0161  1.8403  0.2100
  289MOL0     H39853  -0.047  -0.245   7.630 -1.0880 -0.6442  0.8263
  289MOL0     H39854  -0.279  -0.206   7.708  0.6548 -0.3850  1.6178
  289MOL0     H39855  -0.249  -0.032   7.736 -0.7124  0.2998 -0.4429
  289MOL0     H39856  -0.197  -0.026   7.490  3.3911 -0.0614  4.7764
  289MOL0     H39857  -0.365  -0.089   7.555  0.3393 -1.2826  4.4072
  289MOL0     H39858  -0.221  -0.317   7.518  1.2228  0.0635 -0.3935
  289MOL0     H39859  -0.151  -0.225   7.384 -0.5246 -1.0371 -1.1505
  289MOL0     H39860  -0.458  -0.305   7.423 -2.9089  0.9487 -2.1310
  289MOL0     H39861  -0.356  -0.341   7.291  2.0898 -0.8787  1.3451
  289MOL0     H39862   0.408  -0.206   7.361 -3.5510 -0.6477  2.8703
  289MOL0     H39863   0.539  -0.164   7.153  1.2856  1.0960 -0.8291
  289MOL0     H39864   0.741   0.108   6.887  4.9281  1.1462 -2.0403
  289MOL0     H39865   0.887   0.133   6.704  0.4819 -1.9227 -2.5527
  289MOL0     H39866   2.231   0.408   6.589 -0.2560  1.0722  0.5485
  289MOL0     H39867   2.293   0.346   6.831  0.1634 -0.8200  0.0080
  289MOL0     H39868   2.616   0.165   7.050 -1.3914  1.0007 -0.5585
  289MOL0     H39869   2.734   0.098   7.239  0.6948 -0.0421 -2.7619
  289MOL0     H39870   2.750  -0.090   7.601  3.9423  1.3831  0.1930
  289MOL0     H39871   2.805   0.007   7.475 -0.6807 -2.7455 -1.9571
  289MOL0     H39872   2.607   0.154   7.518 -0.2850 -1.4330 -1.7484
  289MOL0     H39873   2.654   0.111   7.685 -1.4459 -0.3925  0.1664
  289MOL0     H39874   2.438   0.107   7.701 -1.7331 -1.9502  2.3340
  289MOL0     H39875   2.414   0.047   7.534  1.3652  3.2640  0.3454
  289MOL0     H39876   2.519  -0.091   7.787  0.9416 -1.9628 -0.1328
  289MOL0     H39877   2.503  -0.185   7.639  0.4723 -0.4088  2.2122
  289MOL0     H39878   2.094  -0.162   7.769 -0.2702 -0.3321 -1.1488
  289MOL0     H39879   2.426  -0.184   7.329 -3.4547 -0.8939 -3.0037
  289MOL0     H39880   2.235  -0.157   7.030  1.7374  0.1780 -0.4027
  289MOL0     H39881   2.233  -0.216   7.194  2.1211 -0.3159 -0.9699
  289MOL0     H39882   2.177  -0.063   7.176  2.0144 -0.3107  3.0869
  290MOL0     O39883   9.317   4.196  10.718 -0.1607 -0.3066  0.0175
  290MOL0     C39884   9.304   4.285  10.803  0.2095 -0.6313 -0.1052
  290MOL0     O39885   9.187   4.331  10.853 -0.0222  0.2379 -0.1148
  290MOL0     C39886   9.089   4.238  10.854  0.7442 -0.4557  0.5125
  290MOL0     C39887   9.089   4.129  10.937 -0.0100  0.5959 -0.1373
  290MOL0     C39888   8.979   4.039  10.929  0.7756 -0.6557 -0.7058
  290MOL0     C39889   8.862   4.058  10.852 -0.1026 -0.5565 -0.0104
  290MOL0     O39890   8.754   3.973  10.872  0.4839  0.4400  0.1146
  290MOL0     C39891   8.630   3.985  10.794  0.5897  0.9341 -0.2069
  290MOL0     C39892   8.535   3.882  10.848  0.0372  0.5604  0.8520
  290MOL0     C39893   8.597   3.743  10.813  0.0960  0.3900  0.3493
  290MOL0     C39894   8.575   3.631  10.916 -0.2615 -0.2245  0.4775
  290MOL0     C39895   8.654   3.649  11.047  0.7821  0.1480 -0.0404
  290MOL0     C39896   8.803   3.640  11.020 -0.3988  0.6985  0.0088
  290MOL0     C39897   8.859   3.624  11.153 -0.9319 -0.4295 -0.0695
  290MOL0     C39898   9.004   3.603  11.170  1.1988 -0.1422 -0.1791
  290MOL0     N39899   9.062   3.483  11.107 -0.8427 -0.1957  1.0650
  290MOL0     C39900   9.113   3.481  10.981 -0.3633  0.3733  1.0011
  290MOL0     C39901   9.197   3.373  10.976  0.1236 -0.7865 -0.2249
  290MOL0     C39902   9.269   3.327  10.856  0.0546  0.5228 -0.2199
  290MOL0     C39903   9.417   3.385  10.848  0.2491  0.0157 -0.0077
  290MOL0     C39904   9.489   3.350  10.717  0.0169  0.7558  0.5810
  290MOL0     C39905   9.618   3.421  10.708 -0.3162  0.3256  0.8088
  290MOL0     O39906   9.676   3.378  10.587  0.0842 -0.0463  0.4028
  290MOL0     C39907   9.816   3.400  10.581  0.3585  0.7759  0.2300
  290MOL0     C39908   9.888   3.313  10.506  0.2348 -0.4241 -0.3048
  290MOL0     C39909  10.031   3.320  10.487 -0.4666  0.1394  0.0469
  290MOL0     C39910  10.101   3.212  10.412  0.0917  0.5881 -0.1786
  290MOL0     C39911  10.100   3.424  10.550  0.2719  0.6153 -0.0176
  290MOL0     C39912  10.239   3.450  10.554  0.0880  0.4728 -0.4317
  290MOL0     O39913  10.281   3.577  10.539  0.4404  0.0929  0.3818
  290MOL0     C39914  10.415   3.613  10.549  0.3830  0.6352 -0.3938
  290MOL0     C39915  10.464   3.701  10.456 -0.2911 -0.0919 -0.5958
  290MOL0     C39916  10.591   3.762  10.473 -0.4865 -0.0313  0.7633
  290MOL0     C39917  10.667   3.742  10.586  0.3662 -0.2005 -0.3350
  290MOL0     O39918  10.781   3.816  10.595 -0.4684 -0.0397  0.2501
  290MOL0     C39919  10.852   3.816  10.716 -0.8653 -0.5481 -0.8368
  290MOL0     C39920  10.920   3.953  10.736  0.1063  0.0930 -0.2534
  290MOL0     C39921  11.055   3.963  10.663 -0.8681 -0.3757  0.8487
  290MOL0     C39922  11.032   3.966  10.512 -0.2573 -0.5549 -0.3631
  290MOL0     C39923  11.138   4.054  10.439 -0.0846  0.2512  0.6144
  290MOL0     C39924  11.097   4.075  10.299  0.6247 -1.0860  0.2998
  290MOL0     C39925  11.183   4.163  10.215  0.1357 -0.5880 -0.4819
  290MOL0     C39926  11.090   4.223  10.102  0.1197 -0.2201  0.2500
  290MOL0    Cl39927  10.992   4.111  10.005 -0.1823  0.1889 -0.0496
  290MOL0     C39928  10.616   3.650  10.675  0.0479 -0.2832 -0.7946
  290MOL0     C39929  10.500   3.581  10.657 -0.1455 -0.4476 -1.1499
  290MOL0     O39930  10.317   3.352  10.573  0.0079  0.3797  0.1212
  290MOL0     C39931  10.032   3.516  10.631 -0.3619  0.0063  0.5414
  290MOL0     C39932   9.896   3.503  10.638 -0.4204 -0.0293 -1.1333
  290MOL0     N39933   9.201   3.317  11.102 -0.0920  0.0717 -0.2909
  290MOL0     N39934   9.112   3.375  11.177  0.9323 -0.1889  0.2767
  290MOL0     C39935   8.864   4.174  10.777 -0.6383 -0.9845 -0.6832
  290MOL0     C39936   8.973   4.261  10.775 -0.9966  0.2668 -1.1235
  290MOL0     C39937   9.422   4.380  10.814 -0.0606 -0.5273  0.1931
  290MOL0     C39938   9.545   4.345  10.744 -0.0996 -0.2804  0.3056
  290MOL0     C39939   9.645   4.442  10.715  0.3214 -0.3271  0.4623
  290MOL0     C39940   9.629   4.574  10.750  0.1276 -0.5090 -0.9700
  290MOL0     O39941   9.722   4.664  10.714  0.4935 -0.5375  0.8834
  290MOL0     C39942   9.830   4.680  10.810  0.0919 -0.0684 -0.1731
  290MOL0     C39943   9.965   4.726  10.745  0.0034  1.1516  0.1267
  290MOL0     C39944  10.016   4.623  10.650 -0.5902 -0.1609 -0.0917
  290MOL0     C39945  10.137   4.657  10.574  0.0384  0.4905  0.3149
  290MOL0     C39946  10.256   4.683  10.665 -0.0694 -0.6528  0.1448
  290MOL0     C39947  10.363   4.693  10.726 -0.4587  0.6581 -0.1704
  290MOL0     C39948   9.517   4.614  10.823  0.2998  0.8402  0.2429
  290MOL0     C39949   9.417   4.523  10.858 -0.2920  0.7800  0.5258
  290MOL0     C39950   9.294   4.583  10.918 -0.4128 -0.5734  0.2065
  290MOL0     H39951   9.178   4.112  10.996 -0.2331 -2.6277 -0.5266
  290MOL0     H39952   8.980   3.948  10.987  2.0401 -2.0026 -2.6992
  290MOL0     H39953   8.649   3.985  10.686  2.9088  0.7673  0.1416
  290MOL0     H39954   8.588   4.083  10.817  3.6276  1.5354  3.8825
  290MOL0     H39955   8.529   3.895  10.956  1.5313  1.5430  0.8467
  290MOL0     H39956   8.437   3.898  10.802  0.1607 -0.1541  0.3143
  290MOL0     H39957   8.554   3.722  10.715 -2.6765 -0.9831  1.7498
  290MOL0     H39958   8.705   3.744  10.794  0.0125 -2.5641 -0.6764
  290MOL0     H39959   8.474   3.609  10.953  0.6261 -1.8111  2.1187
  290MOL0     H39960   8.602   3.538  10.866 -1.6533  1.0688 -2.9544
  290MOL0     H39961   8.627   3.567  11.115  1.4450  1.3110  1.7028
  290MOL0     H39962   8.619   3.735  11.105 -0.3640  0.0884 -0.6223
  290MOL0     H39963   8.842   3.554  10.964  0.1391  1.3337 -0.6147
  290MOL0     H39964   8.838   3.727  10.964  0.3141 -0.2263 -1.0304
  290MOL0     H39965   8.819   3.532  11.198 -2.0946 -2.6638 -4.9578
  290MOL0     H39966   8.844   3.719  11.203 -0.2176 -0.3950  0.0846
  290MOL0     H39967   9.058   3.696  11.148 -1.6644  2.0162  1.2888
  290MOL0     H39968   9.015   3.593  11.279 -1.0280  0.3160  0.1227
  290MOL0     H39969   9.069   3.544  10.904 -0.9782  0.5840  1.5224
  290MOL0     H39970   9.218   3.362  10.765  2.2525 -0.6178 -2.0070
  290MOL0     H39971   9.273   3.218  10.852  0.4912  0.5249  0.1661
  290MOL0     H39972   9.403   3.491  10.871 -2.8740 -0.2766 -0.0623
  290MOL0     H39973   9.482   3.352  10.929  2.2951  1.2093 -1.0998
  290MOL0     H39974   9.501   3.242  10.723  1.7724  1.0349  3.9982
  290MOL0     H39975   9.436   3.382  10.627 -1.5412  3.3518  2.2823
  290MOL0     H39976   9.616   3.529  10.724 -1.6958  0.3565  0.5486
  290MOL0     H39977   9.674   3.392  10.797  0.3987  2.1584  0.9970
  290MOL0     H39978   9.819   3.241  10.464  0.6109 -1.0562  0.1444
  290MOL0     H39979  10.042   3.153  10.342 -0.8664 -0.6300  1.5728
  290MOL0     H39980  10.138   3.148  10.493 -0.8301  2.0142  1.4502
  290MOL0     H39981  10.184   3.248  10.351 -0.4277  0.1818 -1.1356
  290MOL0     H39982  10.406   3.712  10.365 -1.9918  0.1411  0.4828
  290MOL0     H39983  10.642   3.815  10.392 -0.8915 -0.2866  0.3377
  290MOL0     H39984  10.787   3.804  10.803 -1.5320  0.1686 -1.2181
  290MOL0     H39985  10.934   3.744  10.717 -0.0930  0.3011  0.4989
  290MOL0     H39986  10.860   4.035  10.696  0.1946  0.8914  1.1666
  290MOL0     H39987  10.932   3.974  10.843 -1.3133  0.1935 -0.0882
  290MOL0     H39988  11.121   3.881  10.697  0.8079  0.6285  0.1497
  290MOL0     H39989  11.112   4.052  10.691  0.6208 -0.8368 -0.5625
  290MOL0     H39990  10.936   4.012  10.488 -0.1512 -0.5083 -0.7027
  290MOL0     H39991  11.031   3.865  10.472  2.7593 -0.1414 -1.7981
  290MOL0     H39992  11.123   4.150  10.488 -0.1443  0.3099  0.4802
  290MOL0     H39993  11.245   4.030  10.442  0.1872 -0.0578 -4.0316
  290MOL0     H39994  10.992   4.106  10.294  1.2726  1.5754  1.7248
  290MOL0     H39995  11.102   3.978  10.247 -1.8156 -1.4143  0.5559
  290MOL0     H39996  11.268   4.107  10.174  0.4623  0.4874 -1.3015
  290MOL0     H39997  11.221   4.238  10.284 -0.6332 -0.7275  0.1089
  290MOL0     H39998  11.146   4.292  10.038 -2.0797  1.8437  0.4095
  290MOL0     H39999  11.022   4.289  10.157  1.6006  1.5431  0.0629
  290MOL0     H40000  10.661   3.623  10.770  1.1184  1.9048 -0.5943
  290MOL0     H40001  10.442   3.536  10.737 -0.2300 -1.0521 -1.5524
  290MOL0     H40002  10.086   3.593  10.685  1.1929 -0.8499  0.2476
  290MOL0     H40003   9.856   3.576  10.709  0.3251 -1.4732  0.8754
  290MOL0     H40004   8.775   4.210  10.726 -0.8250  0.9819  0.9142
  290MOL0     H40005   8.962   4.360  10.732 -3.5994 -0.9290 -3.5078
  290MOL0     H40006   9.563   4.243  10.712 -0.2388 -0.1833 -0.0862
  290MOL0     H40007   9.735   4.411  10.664  0.1805  1.8636 -1.2551
  290MOL0     H40008   9.796   4.753  10.884 -2.8037  0.3883 -1.8015
  290MOL0     H40009   9.852   4.587  10.863  0.3717 -1.0128 -1.8685
  290MOL0     H40010  10.038   4.744  10.825  2.4872  0.5981 -1.8930
  290MOL0     H40011   9.948   4.822  10.694  1.6148  1.2272 -0.3164
  290MOL0     H40012  10.048   4.535  10.706  0.2106 -0.3835 -0.8714
  290MOL0     H40013   9.932   4.609  10.581 -2.1095  1.4709  1.3464
  290MOL0     H40014  10.117   4.743  10.509 -2.6542 -1.7597 -2.0892
  290MOL0     H40015  10.162   4.576  10.504  2.2695  0.1250  1.4227
  290MOL0     H40016  10.446   4.704  10.793 -0.1049 -0.2585 -0.4420
  290MOL0     H40017   9.525   4.715  10.862  1.0018  0.2906  1.5849
  290MOL0     H40018   9.214   4.607  10.847 -1.8213  0.0904  1.9425
  290MOL0     H40019   9.260   4.521  11.001 -1.5276  0.3143  0.4497
  290MOL0     H40020   9.312   4.676  10.972 -1.4163  0.5744 -1.3236
  291MOL0     O40021   2.255   7.899   4.021 -0.1075  0.4811 -0.9126
  291MOL0     C40022   2.202   7.790   3.975 -0.3609  0.0183  0.3745
  291MOL0     O40023   2.274   7.689   3.911  0.0234  0.5019  0.4426
  291MOL0     C40024   2.406   7.693   3.927  0.5896  0.2969 -0.5656
  291MOL0     C40025   2.459   7.650   4.048 -0.0664 -0.1475 -0.1395
  291MOL0     C40026   2.598   7.645   4.071 -0.5941 -0.3969  0.0124
  291MOL0     C40027   2.685   7.710   3.976  0.3591 -0.0549  0.0152
  291MOL0     O40028   2.820   7.708   3.979 -0.1438  0.2732  0.0615
  291MOL0     C40029   2.881   7.657   4.097 -0.0510 -0.9764  0.7027
  291MOL0     C40030   3.027   7.687   4.082 -0.0995 -0.2678 -0.4498
  291MOL0     C40031   3.098   7.620   4.197  0.2863  0.7548  0.2555
  291MOL0     C40032   3.249   7.670   4.188 -0.9606 -0.1414 -0.3322
  291MOL0     C40033   3.340   7.564   4.264  0.3842  0.2600  0.7347
  291MOL0     C40034   3.360   7.583   4.421  0.5948  0.3909  0.3322
  291MOL0     C40035   3.393   7.448   4.492  1.0967 -1.1809 -0.1710
  291MOL0     C40036   3.252   7.383   4.520 -0.1760 -0.5809  0.0161
  291MOL0     N40037   3.279   7.250   4.591  0.1556 -0.0664  0.6583
  291MOL0     C40038   3.323   7.142   4.514 -0.2306 -1.0095 -0.2893
  291MOL0     C40039   3.300   7.038   4.602  0.1152  0.4416  0.0593
  291MOL0     C40040   3.327   6.896   4.570 -0.0198 -0.6222  0.1245
  291MOL0     C40041   3.452   6.846   4.642 -0.5578 -0.3837  0.0523
  291MOL0     C40042   3.437   6.694   4.651 -1.1651 -0.0717 -0.3006
  291MOL0     C40043   3.558   6.634   4.733 -0.1163 -0.8573 -0.1068
  291MOL0     O40044   3.610   6.700   4.842  0.4609  0.2184 -0.3023
  291MOL0     C40045   3.710   6.641   4.916  0.4507 -0.4306 -0.2459
  291MOL0     C40046   3.747   6.715   5.031 -0.3242  0.7750  0.9919
  291MOL0     C40047   3.853   6.676   5.114  0.0317 -0.1637 -0.1012
  291MOL0     C40048   3.891   6.749   5.247  1.3149  0.3141  0.2294
  291MOL0     C40049   3.928   6.558   5.068  0.0661 -0.3863  0.6621
  291MOL0     C40050   4.048   6.525   5.142  0.0734  0.6149  0.1067
  291MOL0     O40051   4.040   6.501   5.278  0.1984 -0.9084  0.5343
  291MOL0     C40052   4.151   6.440   5.330 -0.5367  0.2223  0.7001
  291MOL0     C40053   4.256   6.524   5.384  0.2433 -0.2340  0.5009
  291MOL0     C40054   4.369   6.460   5.435 -0.3287  0.9572  0.3922
  291MOL0     C40055   4.395   6.328   5.426  0.1760 -0.4220 -0.0812
  291MOL0     O40056   4.529   6.299   5.453 -0.3136 -0.1865 -0.1929
  291MOL0     C40057   4.536   6.170   5.525 -0.0501  0.3161  0.1242
  291MOL0     C40058   4.681   6.151   5.553 -0.0745  0.5521  0.3771
  291MOL0     C40059   4.724   6.023   5.606  0.2472 -0.0928  0.2697
  291MOL0     C40060   4.653   5.982   5.736  0.0846 -0.0181  0.2881
  291MOL0     C40061   4.730   5.864   5.791 -0.8482 -0.0398  0.4655
  291MOL0     C40062   4.706   5.730   5.713 -0.0633  0.3546  0.4105
  291MOL0     C40063   4.698   5.609   5.806  0.0770 -0.5983 -0.3391
  291MOL0     C40064   4.790   5.590   5.925  0.1835 -0.1135 -1.5833
  291MOL0    Cl40065   4.783   5.420   5.979  0.1611 -0.0342  0.1384
  291MOL0     C40066   4.285   6.252   5.383  0.7273  0.1409  0.0434
  291MOL0     C40067   4.170   6.298   5.334  0.9387 -0.5317  0.3645
  291MOL0     O40068   4.152   6.510   5.073 -0.2545  0.8276  0.2818
  291MOL0     C40069   3.888   6.485   4.955  0.9416 -1.1237  0.1850
  291MOL0     C40070   3.779   6.525   4.875 -0.0467 -0.3839 -0.1366
  291MOL0     N40071   3.260   7.093   4.725  0.4214  0.6232  0.9005
  291MOL0     N40072   3.239   7.210   4.712  0.2606 -0.3759 -0.2785
  291MOL0     C40073   2.627   7.756   3.860  0.4802 -0.4328 -0.0562
  291MOL0     C40074   2.489   7.750   3.832  0.7404 -0.1697  0.7444
  291MOL0     C40075   2.049   7.793   3.969  0.8930  0.0308 -0.5388
  291MOL0     C40076   1.983   7.900   3.911  0.1124  0.2537  0.1678
  291MOL0     C40077   1.843   7.897   3.885 -0.2701 -0.2410  0.9462
  291MOL0     C40078   1.770   7.786   3.929  0.5863 -0.7503  0.5362
  291MOL0     O40079   1.631   7.775   3.920  0.2921  0.9901  0.2954
  291MOL0     C40080   1.548   7.885   3.874  0.4462  0.0077 -0.4079
  291MOL0     C40081   1.405   7.851   3.908 -0.2274 -0.5947  0.6102
  291MOL0     C40082   1.374   7.854   4.058  0.2401  0.5072 -0.3735
  291MOL0     C40083   1.235   7.833   4.112 -0.6032  0.9134 -0.5716
  291MOL0     C40084   1.141   7.902   4.027 -0.6239 -0.3027 -1.1716
  291MOL0     C40085   1.072   7.948   3.936 -0.2527  0.9767  1.3842
  291MOL0     C40086   1.837   7.673   3.979 -0.8127  0.2323 -0.2452
  291MOL0     C40087   1.979   7.674   3.999  1.0749  0.8192  0.0233
  291MOL0     C40088   2.043   7.538   4.036  0.0458  0.4137  0.2263
  291MOL0     H40089   2.394   7.600   4.119  0.3316  1.8585  1.7416
  291MOL0     H40090   2.624   7.600   4.166 -1.3897 -0.3397  0.2665
  291MOL0     H40091   2.847   7.555   4.116 -1.1493 -0.9243 -0.7670
  291MOL0     H40092   2.840   7.716   4.180  0.3327  1.3351 -0.6515
  291MOL0     H40093   3.056   7.645   3.985  2.3237  1.0741 -0.3661
  291MOL0     H40094   3.039   7.795   4.084  1.5530 -0.4303  1.8744
  291MOL0     H40095   3.065   7.644   4.298 -1.6995 -3.5633  0.8279
  291MOL0     H40096   3.092   7.511   4.192 -0.2682  0.6547  2.3378
  291MOL0     H40097   3.271   7.685   4.082 -2.1690  0.7177 -0.4798
  291MOL0     H40098   3.254   7.760   4.250 -0.4165 -1.0312  0.9588
  291MOL0     H40099   3.439   7.575   4.217  1.2016  1.2081  2.5797
  291MOL0     H40100   3.298   7.466   4.238 -3.3785  1.4901  1.6339
  291MOL0     H40101   3.439   7.658   4.431  0.9722  0.2140 -1.1068
  291MOL0     H40102   3.266   7.624   4.460 -0.2268 -2.5238  1.6756
  291MOL0     H40103   3.442   7.483   4.583  0.5078 -0.4357 -0.1329
  291MOL0     H40104   3.454   7.392   4.421 -1.2984 -0.8935 -2.6514
  291MOL0     H40105   3.191   7.445   4.587  0.9394  0.1840  0.3508
  291MOL0     H40106   3.210   7.366   4.421  1.0277  0.6301 -0.7491
  291MOL0     H40107   3.341   7.148   4.407 -0.4171  2.6069 -0.2302
  291MOL0     H40108   3.351   6.886   4.464  0.5260 -0.1067  0.1942
  291MOL0     H40109   3.241   6.834   4.598  0.7179 -2.0910 -0.7306
  291MOL0     H40110   3.547   6.861   4.591  0.3117 -2.3800  0.9693
  291MOL0     H40111   3.463   6.899   4.737  1.6348 -0.8269  0.0892
  291MOL0     H40112   3.342   6.668   4.701 -0.9922  0.2916  0.2280
  291MOL0     H40113   3.432   6.652   4.550  2.3131  1.2098 -1.1455
  291MOL0     H40114   3.529   6.531   4.758 -1.2753 -0.0965  1.9448
  291MOL0     H40115   3.642   6.627   4.663 -0.1601 -2.0046 -0.0687
  291MOL0     H40116   3.693   6.804   5.064 -2.2768 -0.6170  1.7608
  291MOL0     H40117   3.999   6.751   5.264  2.3653 -2.3431 -4.3129
  291MOL0     H40118   3.847   6.698   5.333  2.3114  0.9559  1.1352
  291MOL0     H40119   3.849   6.850   5.245 -0.4963 -0.3946  0.4979
  291MOL0     H40120   4.250   6.632   5.396  0.8549 -0.1539  0.1221
  291MOL0     H40121   4.462   6.500   5.475  2.1035 -1.4069 -2.4142
  291MOL0     H40122   4.492   6.167   5.625 -0.0844 -1.0620  0.0941
  291MOL0     H40123   4.484   6.088   5.474 -0.3975  0.8938 -0.4742
  291MOL0     H40124   4.732   6.173   5.459  0.1476  1.5873  0.7266
  291MOL0     H40125   4.702   6.230   5.625 -1.0618  0.0297  1.2742
  291MOL0     H40126   4.831   6.032   5.625  0.1171  0.2430  0.8776
  291MOL0     H40127   4.712   5.944   5.531  1.4991 -0.9314  0.9234
  291MOL0     H40128   4.547   5.956   5.723  0.5481 -0.4759 -3.9570
  291MOL0     H40129   4.663   6.068   5.803 -0.6784  0.0781  0.2862
  291MOL0     H40130   4.838   5.880   5.789 -0.9088  0.8900  2.5019
  291MOL0     H40131   4.699   5.847   5.895 -0.2146  0.2295  0.7029
  291MOL0     H40132   4.786   5.705   5.643 -1.3363 -2.4459 -0.2120
  291MOL0     H40133   4.614   5.735   5.653 -0.0992  1.6578  0.5430
  291MOL0     H40134   4.717   5.517   5.748 -2.1586 -0.9181 -0.6334
  291MOL0     H40135   4.595   5.614   5.841  0.1252  3.0173 -0.4010
  291MOL0     H40136   4.758   5.665   5.998  0.5634  1.2479 -2.7797
  291MOL0     H40137   4.896   5.611   5.909  0.5862  0.3718  1.1464
  291MOL0     H40138   4.298   6.144   5.379  1.4798 -0.0666  4.1959
  291MOL0     H40139   4.086   6.235   5.308 -1.3718  1.1050  3.2779
  291MOL0     H40140   3.946   6.397   4.932 -0.7492 -2.1744 -0.2702
  291MOL0     H40141   3.745   6.468   4.790 -0.8985  1.3266 -0.9865
  291MOL0     H40142   2.694   7.796   3.784 -2.0642  0.5015 -1.9714
  291MOL0     H40143   2.450   7.791   3.739 -1.1334 -0.4303  1.3700
  291MOL0     H40144   2.048   7.983   3.883 -0.1707  0.4478  0.0768
  291MOL0     H40145   1.798   7.985   3.841 -1.1674  0.9805  4.0496
  291MOL0     H40146   1.575   7.979   3.924 -3.0015  2.3593 -2.5827
  291MOL0     H40147   1.564   7.895   3.767  1.7214 -0.3752 -0.2816
  291MOL0     H40148   1.372   7.759   3.860  1.8120  0.1733 -2.5275
  291MOL0     H40149   1.355   7.939   3.866 -0.5613 -1.2672 -0.4284
  291MOL0     H40150   1.447   7.785   4.102 -1.7984 -2.2891 -1.0907
  291MOL0     H40151   1.404   7.951   4.100  1.4048  1.7110 -3.6171
  291MOL0     H40152   1.240   7.870   4.214  1.4147 -0.7226 -0.0049
  291MOL0     H40153   1.208   7.727   4.107  0.3269  0.6117  0.4941
  291MOL0     H40154   1.009   7.993   3.862 -1.0625 -2.2179 -0.0169
  291MOL0     H40155   1.776   7.584   3.992 -0.3244 -0.1539 -0.5761
  291MOL0     H40156   2.131   7.550   4.100  1.2030 -2.9560 -0.5252
  291MOL0     H40157   1.975   7.466   4.082 -1.7955  1.3029 -0.9579
  291MOL0     H40158   2.084   7.490   3.946 -1.1607 -1.8752  0.8420
  292MOL0     O40159   5.590   8.573   0.396  0.2937 -0.9565 -0.8408
  292MOL0     C40160   5.543   8.465   0.419  0.0205 -0.5598  0.0185
  292MOL0     O40161   5.414   8.434   0.439  0.5781  0.0850  0.0217
  292MOL0     C40162   5.316   8.527   0.421 -0.0272  0.8424  0.9115
  292MOL0     C40163   5.315   8.608   0.302  0.1374  1.1405  0.6065
  292MOL0     C40164   5.211   8.698   0.292 -0.5205 -0.2079  0.1268
  292MOL0     C40165   5.142   8.745   0.402 -0.0241  0.4561  0.0482
  292MOL0     O40166   5.074   8.860   0.409 -0.3539  0.6987 -0.2201
  292MOL0     C40167   5.013   8.905   0.287 -0.1363  0.4799  0.5326
  292MOL0     C40168   4.913   9.021   0.325 -0.2038 -0.1861 -0.8051
  292MOL0     C40169   4.837   9.088   0.217 -0.6042  0.9723 -0.2601
  292MOL0     C40170   4.929   9.143   0.102 -0.2261 -0.4734 -0.4956
  292MOL0     C40171   4.856   9.244   0.007 -0.3243 -0.0899  0.6216
  292MOL0     C40172   4.860   9.395   0.039 -0.4280 -0.1419  0.4299
  292MOL0     C40173   4.734   9.472   0.074  0.3235  0.1663 -0.1185
  292MOL0     C40174   4.645   9.488  -0.049  0.3119  0.3130  0.3615
  292MOL0     N40175   4.671   9.612  -0.131  0.2384  0.6206  0.6197
  292MOL0     C40176   4.738   9.612  -0.251  0.5934  0.1273 -0.8468
  292MOL0     C40177   4.758   9.740  -0.280  0.3850 -0.1668  0.4860
  292MOL0     C40178   4.820   9.795  -0.411  0.9818  0.0518  0.6292
  292MOL0     C40179   4.965   9.780  -0.411  0.3700 -0.3890 -0.0332
  292MOL0     C40180   5.020   9.881  -0.306  0.1543  0.4969 -0.1040
  292MOL0     C40181   5.171   9.863  -0.286 -0.3049  0.3742 -0.4672
  292MOL0     O40182   5.248   9.884  -0.402 -0.2813 -1.2550 -0.1885
  292MOL0     C40183   5.379   9.843  -0.401  0.0864 -0.0681 -0.2424
  292MOL0     C40184   5.435   9.823  -0.528  0.0421 -0.7823 -0.0648
  292MOL0     C40185   5.565   9.775  -0.549  0.8318  0.2156  0.6325
  292MOL0     C40186   5.621   9.757  -0.687 -0.2962 -0.8179 -0.4128
  292MOL0     C40187   5.636   9.750  -0.429 -0.3785 -0.1906 -0.0746
  292MOL0     C40188   5.787   9.713  -0.428  0.5313 -0.7669 -0.5378
  292MOL0     O40189   5.852   9.712  -0.306  0.4968  0.1746 -0.2057
  292MOL0     C40190   5.972   9.658  -0.294 -0.6870  0.4583  0.0575
  292MOL0     C40191   5.994   9.536  -0.356  0.7723 -0.0352 -0.5903
  292MOL0     C40192   6.115   9.476  -0.345 -0.1829 -0.2106  0.9802
  292MOL0     C40193   6.218   9.539  -0.271 -0.0865 -0.0156 -0.0755
  292MOL0     O40194   6.335   9.472  -0.253  0.0839  0.6245  0.1170
  292MOL0     C40195   6.391   9.463  -0.123 -0.2453  0.5501  0.2375
  292MOL0     C40196   6.515   9.364  -0.122  0.5047 -0.3387 -0.3155
  292MOL0     C40197   6.576   9.377   0.017  0.1923  0.1183 -0.6783
  292MOL0     C40198   6.709   9.295   0.042  0.0289  0.0055  1.1921
  292MOL0     C40199   6.773   9.335   0.179  0.0566  0.3337  0.0851
  292MOL0     C40200   6.877   9.234   0.214 -0.5198 -0.2301  1.1253
  292MOL0     C40201   6.933   9.241   0.346 -0.3759 -0.7717  0.1325
  292MOL0     C40202   7.021   9.119   0.383  0.4674  0.4668 -0.0475
  292MOL0    Cl40203   7.171   9.119   0.284  0.0337 -0.0016  0.2065
  292MOL0     C40204   6.202   9.657  -0.212  0.8315 -0.8512 -0.8047
  292MOL0     C40205   6.073   9.718  -0.226 -0.8891 -0.0411 -0.4736
  292MOL0     O40206   5.837   9.682  -0.536  0.2350 -0.0704 -0.6051
  292MOL0     C40207   5.588   9.769  -0.301 -0.9683  0.2836  0.0882
  292MOL0     C40208   5.464   9.825  -0.293  0.5243 -0.4678  0.5447
  292MOL0     N40209   4.706   9.815  -0.178 -0.2842  0.0792 -0.1718
  292MOL0     N40210   4.654   9.741  -0.086  0.0391  1.2222  0.5467
  292MOL0     C40211   5.136   8.659   0.511  0.1377 -0.3138 -0.3197
  292MOL0     C40212   5.219   8.546   0.513 -0.7306 -0.5520  0.5377
  292MOL0     C40213   5.648   8.364   0.437  0.1839 -0.0456  0.8304
  292MOL0     C40214   5.597   8.227   0.452  0.1923 -0.2440  1.2589
  292MOL0     C40215   5.690   8.120   0.467  1.0547 -0.6549  0.0166
  292MOL0     C40216   5.824   8.144   0.472  0.5660  0.9375  0.0334
  292MOL0     O40217   5.901   8.033   0.488 -1.0261 -0.5026 -0.2609
  292MOL0     C40218   6.046   8.029   0.510  0.1617  0.1488  0.6740
  292MOL0     C40219   6.104   7.894   0.557 -0.6747 -0.0492 -0.1222
  292MOL0     C40220   6.255   7.875   0.531 -0.2226 -0.5836 -0.5468
  292MOL0     C40221   6.305   7.761   0.606  0.5217  0.8025  0.5431
  292MOL0     C40222   6.257   7.635   0.543 -0.8613 -0.2309 -0.4696
  292MOL0     C40223   6.230   7.528   0.494 -0.2308 -0.3397 -0.0001
  292MOL0     C40224   5.869   8.272   0.455  0.1338 -0.4061 -0.3868
  292MOL0     C40225   5.790   8.386   0.422  0.0354 -0.2965  0.0302
  292MOL0     C40226   5.861   8.520   0.418 -0.3094 -0.1823  0.2385
  292MOL0     H40227   5.382   8.588   0.219  2.7650 -1.8033  3.1649
  292MOL0     H40228   5.210   8.767   0.208  2.0767  1.0866  1.0638
  292MOL0     H40229   4.960   8.827   0.231  0.2051  1.3058 -0.9981
  292MOL0     H40230   5.085   8.928   0.209 -0.9373 -2.8664 -1.4186
  292MOL0     H40231   4.836   8.984   0.393 -1.4327 -0.5294 -2.3333
  292MOL0     H40232   4.976   9.099   0.369  1.1258 -1.3939 -0.5179
  292MOL0     H40233   4.769   9.017   0.169 -0.4607  0.3785  0.3885
  292MOL0     H40234   4.766   9.161   0.256 -2.6659 -0.0597 -1.8706
  292MOL0     H40235   5.024   9.177   0.144 -1.1241 -1.4774  2.6458
  292MOL0     H40236   4.954   9.055   0.042 -0.4493  0.3691 -1.8555
  292MOL0     H40237   4.752   9.212   0.003  0.3561 -2.3818 -1.8442
  292MOL0     H40238   4.894   9.236  -0.096  2.6098  1.6299  1.4409
  292MOL0     H40239   4.913   9.404   0.134  0.2121  3.8339 -0.1497
  292MOL0     H40240   4.923   9.451  -0.031 -0.2609  0.5047  1.0800
  292MOL0     H40241   4.768   9.569   0.111 -2.9704  1.6787 -0.6033
  292MOL0     H40242   4.690   9.411   0.153 -0.5861 -2.0486 -2.2226
  292MOL0     H40243   4.671   9.399  -0.107  2.3181  0.9019  0.2796
  292MOL0     H40244   4.541   9.487  -0.016 -0.0319  0.0583 -0.6812
  292MOL0     H40245   4.757   9.526  -0.316  1.7953 -0.0435 -0.2903
  292MOL0     H40246   4.791   9.898  -0.433  0.3544 -0.7500 -3.0401
  292MOL0     H40247   4.780   9.748  -0.501  0.5794 -1.6509  1.6551
  292MOL0     H40248   4.999   9.676  -0.406  1.5711 -0.0125  0.1115
  292MOL0     H40249   4.992   9.811  -0.512  1.0969  2.0057  0.8431
  292MOL0     H40250   4.995   9.984  -0.332 -2.0934  0.1087  0.3017
  292MOL0     H40251   4.986   9.846  -0.208  2.1073 -3.7074 -0.7236
  292MOL0     H40252   5.192   9.938  -0.209  1.9531  0.4840 -1.1235
  292MOL0     H40253   5.196   9.766  -0.243  3.2764  1.4859  0.2633
  292MOL0     H40254   5.374   9.850  -0.614  0.2117 -1.1041 -0.2858
  292MOL0     H40255   5.557   9.793  -0.768 -1.2302 -0.6546  0.3680
  292MOL0     H40256   5.642   9.651  -0.704 -1.4371 -1.3171  1.0008
  292MOL0     H40257   5.714   9.815  -0.691 -1.9743  2.1800  0.6076
  292MOL0     H40258   5.913   9.488  -0.411 -0.0820  1.0362 -0.3172
  292MOL0     H40259   6.128   9.379  -0.392  0.8760 -0.3052  1.4613
  292MOL0     H40260   6.421   9.560  -0.081  1.6867  0.3321 -0.5388
  292MOL0     H40261   6.323   9.412  -0.054 -1.4785  1.8771  0.0518
  292MOL0     H40262   6.499   9.259  -0.149  2.3466 -0.3014 -1.7168
  292MOL0     H40263   6.584   9.409  -0.193  1.2044  2.9714  2.1927
  292MOL0     H40264   6.509   9.340   0.095  1.2911  1.2353  0.8733
  292MOL0     H40265   6.596   9.483   0.039  2.9560 -0.7135  1.3457
  292MOL0     H40266   6.785   9.312  -0.035 -0.2304  0.8097  1.1085
  292MOL0     H40267   6.684   9.188   0.047  0.3832 -0.3914 -2.7742
  292MOL0     H40268   6.811   9.437   0.171 -0.3413  0.5932  1.2857
  292MOL0     H40269   6.698   9.321   0.258  0.6703 -0.3592  0.5623
  292MOL0     H40270   6.958   9.230   0.140  0.4550 -0.0934  2.1684
  292MOL0     H40271   6.830   9.136   0.205  0.8049 -0.7933  0.0054
  292MOL0     H40272   6.854   9.237   0.421 -1.5448 -3.2731 -1.1347
  292MOL0     H40273   6.979   9.339   0.363 -1.2050 -0.4119  0.3392
  292MOL0     H40274   6.973   9.025   0.354 -2.1686  1.2009  1.6108
  292MOL0     H40275   7.053   9.122   0.487  3.0093  2.0379 -0.7760
  292MOL0     H40276   6.280   9.714  -0.163 -1.9003  1.2442  1.4729
  292MOL0     H40277   6.073   9.814  -0.176  1.9717  0.8867 -1.9851
  292MOL0     H40278   5.648   9.747  -0.213  0.2335 -1.8754 -1.1878
  292MOL0     H40279   5.419   9.866  -0.203 -0.0215  2.0857 -0.7895
  292MOL0     H40280   5.067   8.670   0.594  2.4362 -1.0417  1.8169
  292MOL0     H40281   5.218   8.468   0.588  4.3615 -0.0497  1.5198
  292MOL0     H40282   5.493   8.203   0.432  0.3183  0.1647  0.0120
  292MOL0     H40283   5.657   8.018   0.479 -1.2464 -0.0168 -0.3136
  292MOL0     H40284   6.098   8.061   0.419 -1.2311  1.3614  0.2600
  292MOL0     H40285   6.062   8.102   0.590  1.9275 -0.1720  0.6553
  292MOL0     H40286   6.057   7.811   0.502  1.2231 -1.9551  0.9847
  292MOL0     H40287   6.071   7.884   0.661  0.7593  1.8337  0.5549
  292MOL0     H40288   6.269   7.852   0.425  2.0633 -0.3644 -0.3570
  292MOL0     H40289   6.311   7.965   0.561  0.5536 -1.9486  2.4244
  292MOL0     H40290   6.257   7.767   0.705 -0.5927 -1.0306  0.1465
  292MOL0     H40291   6.413   7.750   0.620  0.8639  3.7727  0.9465
  292MOL0     H40292   6.204   7.438   0.441  0.8293 -1.4587  1.3121
  292MOL0     H40293   5.975   8.287   0.440  0.6231 -2.1570  1.0044
  292MOL0     H40294   5.851   8.575   0.324  2.1678 -0.4317 -0.2408
  292MOL0     H40295   5.823   8.592   0.491  1.0787  3.8364 -2.6329
  292MOL0     H40296   5.968   8.500   0.429 -0.4622 -0.9179  0.4388
  293MOL0     O40297   2.477   0.808   2.457  0.1416  0.1832 -0.2356
  293MOL0     C40298   2.475   0.693   2.508  0.6677  0.5947  0.4099
  293MOL0     O40299   2.588   0.620   2.523  0.5346  0.2901 -0.4948
  293MOL0     C40300   2.703   0.671   2.466  0.6967  0.7213 -0.5974
  293MOL0     C40301   2.760   0.608   2.364  0.1004  0.0879  0.3091
  293MOL0     C40302   2.878   0.642   2.305 -0.2852 -0.8872 -0.6423
  293MOL0     C40303   2.944   0.765   2.347  0.4471 -0.2897  0.3164
  293MOL0     O40304   3.060   0.791   2.282 -0.0864  0.0627  0.2862
  293MOL0     C40305   3.118   0.919   2.274  0.2546  0.0095  0.3434
  293MOL0     C40306   3.245   0.899   2.187  0.5991 -0.4573 -0.2245
  293MOL0     C40307   3.307   1.035   2.175  0.1781 -0.2771 -0.1126
  293MOL0     C40308   3.429   1.017   2.089 -0.1103  0.0830 -0.2530
  293MOL0     C40309   3.492   1.153   2.058  0.5877 -0.2462 -0.3555
  293MOL0     C40310   3.622   1.130   1.977 -0.3165  0.0818  0.4540
  293MOL0     C40311   3.711   1.251   1.995  0.4846  0.2389 -0.0127
  293MOL0     C40312   3.829   1.241   1.902  1.2696  0.0296 -0.8545
  293MOL0     N40313   3.900   1.373   1.881  0.2463  0.2782 -0.0197
  293MOL0     C40314   3.972   1.408   1.767 -0.2591 -0.2735  0.0667
  293MOL0     C40315   4.019   1.534   1.790  1.2540  0.7634 -0.1663
  293MOL0     C40316   4.094   1.619   1.688  0.9093  0.1210  0.6375
  293MOL0     C40317   4.239   1.642   1.727 -0.1240  0.8344 -0.3241
  293MOL0     C40318   4.328   1.718   1.619  0.9178 -0.4838 -0.1931
  293MOL0     C40319   4.379   1.629   1.508 -0.4592  0.2997 -0.2819
  293MOL0     O40320   4.498   1.560   1.549  0.2036 -0.1279 -0.6955
  293MOL0     C40321   4.618   1.597   1.493 -0.3121 -0.0340 -1.2017
  293MOL0     C40322   4.724   1.504   1.498  0.0689  0.0387  0.2464
  293MOL0     C40323   4.852   1.529   1.451  0.0161 -0.2348 -0.0779
  293MOL0     C40324   4.955   1.417   1.461 -0.5999 -0.5151 -0.2698
  293MOL0     C40325   4.878   1.660   1.404 -0.7234  0.4943 -0.2445
  293MOL0     C40326   5.014   1.704   1.352 -0.1836  0.2650 -0.4851
  293MOL0     O40327   5.024   1.835   1.323  0.0549  0.1000  0.6604
  293MOL0     C40328   5.147   1.889   1.282  0.0189  0.0284 -0.1341
  293MOL0     C40329   5.185   1.876   1.149  0.2831 -0.0595 -0.5896
  293MOL0     C40330   5.293   1.949   1.108 -0.2060  0.6910  0.3487
  293MOL0     C40331   5.374   2.027   1.192  1.1349  0.3601 -0.9093
  293MOL0     O40332   5.468   2.101   1.127  0.2936 -0.0234 -0.2288
  293MOL0     C40333   5.560   2.161   1.208 -0.2075 -0.4736 -0.1235
  293MOL0     C40334   5.695   2.190   1.137  0.5589 -0.4351 -0.3223
  293MOL0     C40335   5.707   2.326   1.067 -0.2160 -0.0789  0.6452
  293MOL0     C40336   5.631   2.331   0.930 -0.2611 -0.3179 -0.4252
  293MOL0     C40337   5.661   2.465   0.852  0.8888 -0.5136  0.2810
  293MOL0     C40338   5.551   2.480   0.747  0.3672 -0.0176 -0.2938
  293MOL0     C40339   5.589   2.398   0.626  0.5306  0.0898 -0.4606
  293MOL0     C40340   5.481   2.415   0.512  0.4105 -0.6437 -0.9459
  293MOL0    Cl40341   5.371   2.268   0.524  0.1847 -0.4550  0.3478
  293MOL0     C40342   5.342   2.031   1.331 -0.1827 -0.1587 -0.2414
  293MOL0     C40343   5.223   1.965   1.369 -0.4549 -0.4471  0.5916
  293MOL0     O40344   5.101   1.625   1.328 -0.2468  0.3557  0.5440
  293MOL0     C40345   4.773   1.751   1.397 -0.0416  0.0769 -0.2717
  293MOL0     C40346   4.648   1.724   1.441 -0.1465  0.4353 -0.3607
  293MOL0     N40347   3.995   1.556   1.923 -0.1157 -0.2679  0.1258
  293MOL0     N40348   3.926   1.460   1.977 -0.5215  0.0873  0.3823
  293MOL0     C40349   2.890   0.829   2.464  0.1267 -0.3303  0.1077
  293MOL0     C40350   2.773   0.780   2.533  0.2816 -0.4969 -0.0723
  293MOL0     C40351   2.346   0.640   2.576  0.1629  0.1922  0.1870
  293MOL0     C40352   2.313   0.507   2.550 -0.1819  1.1323 -0.2319
  293MOL0     C40353   2.197   0.451   2.587  0.7419  0.1481  0.0180
  293MOL0     C40354   2.107   0.521   2.659  0.0790 -0.9170  0.2131
  293MOL0     O40355   1.983   0.462   2.685  0.0787 -0.0384 -0.2783
  293MOL0     C40356   1.893   0.538   2.758  0.8288  0.6357  0.2927
  293MOL0     C40357   1.785   0.441   2.811  0.1884 -0.0333  0.3533
  293MOL0     C40358   1.686   0.518   2.894  0.5578  0.0158  0.3803
  293MOL0     C40359   1.547   0.445   2.892  0.1003 -0.2962  0.8600
  293MOL0     C40360   1.446   0.530   2.957 -0.4780 -0.1211  0.3709
  293MOL0     C40361   1.375   0.603   3.018 -0.2741 -0.0811 -0.2828
  293MOL0     C40362   2.139   0.656   2.690  0.4758 -0.5794 -0.1832
  293MOL0     C40363   2.258   0.719   2.657 -0.4718 -0.0575  0.4664
  293MOL0     C40364   2.289   0.859   2.700 -0.3233  0.1667  1.0580
  293MOL0     H40365   2.708   0.519   2.327  2.7065 -0.9834 -1.0302
  293MOL0     H40366   2.914   0.575   2.228 -1.5749 -2.4054  0.0209
  293MOL0     H40367   3.142   0.947   2.377 -0.6963 -0.3090  0.6604
  293MOL0     H40368   3.053   0.997   2.234  0.1870  0.5594  1.4965
  293MOL0     H40369   3.310   0.823   2.231 -1.3585 -1.4768  1.0180
  293MOL0     H40370   3.219   0.861   2.088  1.4787  1.9390 -1.4490
  293MOL0     H40371   3.246   1.106   2.118 -0.0935 -0.8844 -0.5826
  293MOL0     H40372   3.342   1.070   2.273 -0.1455 -2.9364  1.0232
  293MOL0     H40373   3.504   0.950   2.133 -1.0047 -2.1339 -1.8596
  293MOL0     H40374   3.399   0.973   1.993 -0.6829 -0.7411  0.2915
  293MOL0     H40375   3.525   1.199   2.151  0.1276  3.6811 -1.9635
  293MOL0     H40376   3.421   1.217   2.005 -0.3724 -0.8526  0.1636
  293MOL0     H40377   3.683   1.049   2.018  3.1350  2.7431  1.0203
  293MOL0     H40378   3.595   1.109   1.873  0.6747  2.1559 -0.2828
  293MOL0     H40379   3.748   1.257   2.098 -0.0104  0.8420  0.1375
  293MOL0     H40380   3.657   1.342   1.968 -1.4771 -0.8977 -0.0707
  293MOL0     H40381   3.904   1.171   1.941  0.5374  0.1820  0.9181
  293MOL0     H40382   3.789   1.209   1.805  2.5202 -0.9106 -1.0810
  293MOL0     H40383   3.986   1.361   1.670  2.9494 -0.9299  0.7289
  293MOL0     H40384   4.041   1.708   1.651  0.2463 -0.4950  0.0847
  293MOL0     H40385   4.104   1.546   1.608 -1.1120  0.8234 -0.3300
  293MOL0     H40386   4.231   1.707   1.814 -1.3235 -0.4627  0.5713
  293MOL0     H40387   4.284   1.546   1.754  2.1188  2.2172  1.1126
  293MOL0     H40388   4.288   1.814   1.583 -0.4248 -0.8225  0.3476
  293MOL0     H40389   4.417   1.755   1.672  1.2096  1.2656 -1.7886
  293MOL0     H40390   4.299   1.556   1.490 -2.0843  1.5160  1.6638
  293MOL0     H40391   4.393   1.676   1.410  0.9658 -1.9183 -1.2310
  293MOL0     H40392   4.705   1.410   1.548 -1.8668 -0.8826 -2.0231
  293MOL0     H40393   5.034   1.453   1.529 -2.3955  1.0687  1.1075
  293MOL0     H40394   5.004   1.400   1.365  2.5468  2.5850  0.5590
  293MOL0     H40395   4.906   1.326   1.496  0.9320 -1.0706  0.5149
  293MOL0     H40396   5.116   1.833   1.077 -2.8399  3.2615  0.1116
  293MOL0     H40397   5.308   1.949   1.001 -3.4138  0.7791 -0.1937
  293MOL0     H40398   5.531   2.259   1.247  0.2231 -0.3773 -0.0390
  293MOL0     H40399   5.580   2.096   1.293 -0.7416  1.4616  1.5567
  293MOL0     H40400   5.774   2.188   1.213  0.6882 -0.8926 -0.4607
  293MOL0     H40401   5.714   2.121   1.053  1.4906 -1.2436  0.5304
  293MOL0     H40402   5.815   2.328   1.046  0.1382  1.5401  2.4076
  293MOL0     H40403   5.680   2.409   1.132 -2.2621  1.2215 -1.6993
  293MOL0     H40404   5.523   2.321   0.947 -0.6118 -0.0834 -2.3197
  293MOL0     H40405   5.658   2.241   0.876 -0.7552 -0.9821  0.3971
  293MOL0     H40406   5.659   2.556   0.912 -0.7704  1.1512 -2.1020
  293MOL0     H40407   5.760   2.452   0.806 -0.1900 -0.7646 -2.1364
  293MOL0     H40408   5.547   2.586   0.720 -1.1609 -0.6168 -2.7851
  293MOL0     H40409   5.455   2.449   0.790  1.6735 -0.4793  2.5038
  293MOL0     H40410   5.596   2.293   0.655 -0.4380  0.2296  0.3153
  293MOL0     H40411   5.680   2.442   0.585  0.2949 -0.5155 -1.7034
  293MOL0     H40412   5.522   2.416   0.410 -0.8776 -2.3934 -1.5255
  293MOL0     H40413   5.439   2.515   0.521  0.1244 -0.7543 -1.0335
  293MOL0     H40414   5.390   2.094   1.404 -1.2637 -1.1612  1.3905
  293MOL0     H40415   5.175   1.981   1.465  0.6820  2.7310  0.7586
  293MOL0     H40416   4.784   1.853   1.361 -2.2688 -0.1003 -1.6512
  293MOL0     H40417   4.576   1.806   1.439  0.7736  1.2527 -0.7788
  293MOL0     H40418   2.956   0.903   2.508  0.0329 -0.1715 -0.0191
  293MOL0     H40419   2.737   0.806   2.632  2.7522  1.1804  0.4832
  293MOL0     H40420   2.385   0.449   2.493 -0.5184  0.9741 -0.5004
  293MOL0     H40421   2.166   0.351   2.555 -1.1100 -0.4985  3.3355
  293MOL0     H40422   1.930   0.599   2.841  0.8925  1.5813 -0.4133
  293MOL0     H40423   1.853   0.616   2.692  0.6271  0.0127 -0.3264
  293MOL0     H40424   1.822   0.360   2.875 -2.6779 -0.2332  1.9601
  293MOL0     H40425   1.744   0.393   2.722 -1.3386 -0.5378  1.2873
  293MOL0     H40426   1.716   0.527   2.998 -1.3594  2.1121  0.8294
  293MOL0     H40427   1.674   0.620   2.855  1.3653  0.7949  2.0872
  293MOL0     H40428   1.551   0.353   2.949 -2.1696  0.9656  3.2684
  293MOL0     H40429   1.509   0.425   2.792  1.7395  1.8685 -0.3085
  293MOL0     H40430   1.302   0.664   3.067  0.9285  1.8550 -0.7994
  293MOL0     H40431   2.070   0.712   2.753  0.3014 -1.9548  0.8975
  293MOL0     H40432   2.396   0.870   2.721 -0.4896  1.5534  1.2904
  293MOL0     H40433   2.267   0.919   2.611  0.5060 -1.1233 -0.0560
  293MOL0     H40434   2.228   0.879   2.789 -1.1853  0.3831  0.4338
  294MOL0     O40435   9.076   4.213  11.442  0.2801 -0.1731 -0.6214
  294MOL0     C40436   9.121   4.142  11.355 -0.5098 -0.1846  0.5337
  294MOL0     O40437   9.055   4.029  11.312  0.0856  0.2022 -0.9022
  294MOL0     C40438   8.935   3.996  11.373  0.6908  0.0215  0.6071
  294MOL0     C40439   8.946   3.962  11.509 -0.1484 -0.3148 -1.0128
  294MOL0     C40440   8.828   3.924  11.576  0.9215  0.2013 -0.4097
  294MOL0     C40441   8.715   3.885  11.500 -0.8811 -0.1358 -0.0265
  294MOL0     O40442   8.607   3.831  11.563 -0.5743  0.7485  0.1894
  294MOL0     C40443   8.617   3.697  11.626 -1.2818 -0.0445 -0.7449
  294MOL0     C40444   8.611   3.579  11.525 -0.8927 -0.3822 -0.5542
  294MOL0     C40445   8.468   3.543  11.490 -0.4901  0.1644  0.0285
  294MOL0     C40446   8.460   3.442  11.373  0.0432  0.4373 -0.1381
  294MOL0     C40447   8.311   3.441  11.323 -0.5415 -1.0327  0.2302
  294MOL0     C40448   8.273   3.341  11.217 -0.5173  0.5950  0.2156
  294MOL0     C40449   8.123   3.321  11.196  0.3539  0.1715 -0.2846
  294MOL0     C40450   8.041   3.274  11.319 -0.1369 -0.2955  0.6423
  294MOL0     N40451   8.096   3.159  11.380 -0.4584 -0.7185 -0.5981
  294MOL0     C40452   8.085   3.042  11.314 -0.3252  0.0485 -0.0602
  294MOL0     C40453   8.161   2.958  11.374 -0.2806 -0.4302  0.6770
  294MOL0     C40454   8.205   2.820  11.340  0.0167 -0.0725 -0.3521
  294MOL0     C40455   8.369   2.800  11.349  0.7150 -0.4308 -0.2289
  294MOL0     C40456   8.399   2.651  11.336  0.2673 -0.0483 -0.1634
  294MOL0     C40457   8.395   2.595  11.190 -0.8425  0.3623  0.4667
  294MOL0     O40458   8.520   2.619  11.122 -0.4699 -1.0054 -0.1191
  294MOL0     C40459   8.616   2.527  11.107  0.2867  0.7617  0.3272
  294MOL0     C40460   8.603   2.388  11.110  0.3090 -0.4447  0.6056
  294MOL0     C40461   8.703   2.303  11.088 -0.5068  0.3158 -0.3361
  294MOL0     C40462   8.662   2.160  11.077 -0.1794 -0.4728 -0.2306
  294MOL0     C40463   8.833   2.361  11.063  0.0926 -0.0032  0.1370
  294MOL0     C40464   8.949   2.279  11.029 -0.5339 -0.7105  0.5430
  294MOL0     O40465   8.973   2.162  11.093  0.8079  0.3709  0.4468
  294MOL0     C40466   9.066   2.076  11.046  0.0486  0.0640  0.3574
  294MOL0     C40467   9.033   1.939  11.026  0.2411 -0.4818 -0.6867
  294MOL0     C40468   9.132   1.849  10.985  0.2474 -0.0714  0.8767
  294MOL0     C40469   9.261   1.892  10.945 -0.4299  0.7654 -0.9051
  294MOL0     O40470   9.361   1.805  10.902 -0.3386  0.5779  0.5171
  294MOL0     C40471   9.318   1.707  10.803  0.3196 -0.6029 -0.3034
  294MOL0     C40472   9.433   1.639  10.718 -0.0798 -0.1504 -0.4825
  294MOL0     C40473   9.529   1.735  10.655  0.4113  0.0121 -0.3215
  294MOL0     C40474   9.641   1.665  10.577  0.9925 -0.3463  0.2974
  294MOL0     C40475   9.708   1.767  10.483  0.9285 -0.7060  0.3977
  294MOL0     C40476   9.824   1.704  10.408 -0.8445  0.2981  0.6559
  294MOL0     C40477   9.953   1.689  10.491  0.0068  0.0014  0.3980
  294MOL0     C40478  10.018   1.555  10.472  0.1889  0.6099  0.0324
  294MOL0    Cl40479  10.130   1.550  10.335 -0.2047  0.7142  0.7416
  294MOL0     C40480   9.295   2.021  10.966  0.3161 -0.2859 -0.2401
  294MOL0     C40481   9.200   2.110  11.023  0.1389  0.5816  0.8046
  294MOL0     O40482   9.026   2.329  10.941  0.1030  0.0003 -0.2608
  294MOL0     C40483   8.850   2.499  11.058  0.2414  0.1288  0.1843
  294MOL0     C40484   8.746   2.579  11.070  0.0650 -0.3119  0.3006
  294MOL0     N40485   8.233   3.030  11.467 -0.9272  0.3136 -1.4180
  294MOL0     N40486   8.187   3.148  11.481  0.0200 -0.1923 -0.4004
  294MOL0     C40487   8.710   3.910  11.367  0.4903  0.3511 -0.3452
  294MOL0     C40488   8.815   3.970  11.302  0.8828  0.8507  0.0044
  294MOL0     C40489   9.256   4.179  11.319 -0.2947  0.0658  0.4493
  294MOL0     C40490   9.356   4.080  11.319  0.4121 -0.2649 -0.4309
  294MOL0     C40491   9.486   4.109  11.286 -1.2142  0.1407  0.1396
  294MOL0     C40492   9.525   4.239  11.270 -0.1925  0.3059 -0.5929
  294MOL0     O40493   9.656   4.273  11.238  0.0429 -0.9769  0.5513
  294MOL0     C40494   9.681   4.393  11.145 -0.5546  0.5476 -0.9693
  294MOL0     C40495   9.821   4.363  11.088 -0.3640  0.6073 -0.3328
  294MOL0     C40496   9.810   4.246  10.995  0.1268 -0.3644  1.0644
  294MOL0     C40497   9.903   4.257  10.871  0.0637 -0.3867  0.3867
  294MOL0     C40498  10.036   4.288  10.907 -0.2303 -0.0830  0.0533
  294MOL0     C40499  10.152   4.308  10.924 -1.1889  1.9119  0.0267
  294MOL0     C40500   9.429   4.342  11.292 -0.4502 -0.4394 -0.5877
  294MOL0     C40501   9.293   4.316  11.301  0.8349 -0.2478  0.5591
  294MOL0     C40502   9.185   4.432  11.286  0.8997  0.7554 -0.3036
  294MOL0     H40503   9.046   3.964  11.550 -1.0749  1.3795  1.4176
  294MOL0     H40504   8.839   3.919  11.684  1.0045  1.5855 -0.3387
  294MOL0     H40505   8.541   3.667  11.699  1.0840 -2.8165  0.7825
  294MOL0     H40506   8.717   3.690  11.669 -0.8175  4.9221 -0.3832
  294MOL0     H40507   8.664   3.611  11.435  0.5214  1.7917  0.9201
  294MOL0     H40508   8.660   3.490  11.565  1.0184  0.8310 -0.0106
  294MOL0     H40509   8.434   3.493  11.581  0.2808  0.7986  0.6801
  294MOL0     H40510   8.421   3.640  11.471 -1.6883 -0.2205  0.9531
  294MOL0     H40511   8.536   3.466  11.299  0.0186  0.7317 -0.0703
  294MOL0     H40512   8.479   3.344  11.419 -2.6411  0.4689  1.2937
  294MOL0     H40513   8.283   3.542  11.292 -0.4123 -1.2936 -0.7960
  294MOL0     H40514   8.246   3.421  11.408 -1.2000  1.8187  0.5086
  294MOL0     H40515   8.310   3.359  11.115 -1.6294 -5.1756 -1.6145
  294MOL0     H40516   8.323   3.249  11.249 -1.2680 -0.2352 -0.9084
  294MOL0     H40517   8.105   3.262  11.106 -0.4641  1.8366 -1.2765
  294MOL0     H40518   8.088   3.424  11.180  2.3427  1.0016  0.3829
  294MOL0     H40519   8.039   3.359  11.389  1.7034 -0.0408  0.4338
  294MOL0     H40520   7.939   3.250  11.288  1.0096 -1.5517 -2.4921
  294MOL0     H40521   8.025   3.016  11.228  1.2332 -0.9474 -0.8831
  294MOL0     H40522   8.174   2.793  11.238  1.8422 -0.6983 -0.7764
  294MOL0     H40523   8.168   2.741  11.407  1.3052 -1.1802 -0.8985
  294MOL0     H40524   8.420   2.862  11.274  0.9075 -0.0962  0.1739
  294MOL0     H40525   8.396   2.830  11.450  0.4517 -3.2234  0.7677
  294MOL0     H40526   8.500   2.632  11.374  0.2305  2.2225  1.2374
  294MOL0     H40527   8.330   2.597  11.401  0.6946 -1.0620 -0.5250
  294MOL0     H40528   8.387   2.487  11.201  1.0485  0.1053 -0.3551
  294MOL0     H40529   8.309   2.637  11.136 -0.6984 -2.6343 -2.4120
  294MOL0     H40530   8.512   2.339  11.144 -0.1357 -1.2535 -1.5492
  294MOL0     H40531   8.675   2.104  11.170 -2.0983 -0.5545  0.0297
  294MOL0     H40532   8.735   2.110  11.013  1.1740  1.3225 -0.1656
  294MOL0     H40533   8.553   2.151  11.064  0.0975 -3.6513 -1.1935
  294MOL0     H40534   8.932   1.907  11.050  0.9397 -2.1914  0.1376
  294MOL0     H40535   9.107   1.745  10.965  0.6061  0.6413 -5.1594
  294MOL0     H40536   9.283   1.621  10.861 -3.4590  0.8419 -0.1432
  294MOL0     H40537   9.241   1.750  10.738 -1.1437  1.4098  2.5657
  294MOL0     H40538   9.492   1.573  10.782 -0.4459 -0.2733 -0.2703
  294MOL0     H40539   9.384   1.584  10.637 -1.0544  3.2016 -2.3895
  294MOL0     H40540   9.563   1.806  10.731 -0.4999  0.3839 -0.2467
  294MOL0     H40541   9.466   1.788  10.583 -3.0565 -3.8542 -0.4669
  294MOL0     H40542   9.602   1.590  10.508 -2.1695  2.5426 -1.4063
  294MOL0     H40543   9.709   1.628  10.654  0.0885  0.5659  1.5842
  294MOL0     H40544   9.629   1.794  10.412  1.3356  0.0788  0.2250
  294MOL0     H40545   9.737   1.863  10.527  0.1364  1.4847 -3.4394
  294MOL0     H40546   9.846   1.773  10.326 -1.2791  2.3469  2.1950
  294MOL0     H40547   9.781   1.612  10.365 -3.3527  0.1934  3.0820
  294MOL0     H40548   9.928   1.716  10.594 -1.4606 -1.7894  0.5628
  294MOL0     H40549  10.026   1.762  10.455  1.6243 -2.0546 -0.6915
  294MOL0     H40550   9.947   1.472  10.469  0.7624  0.1194 -0.2320
  294MOL0     H40551  10.072   1.530  10.564 -1.0045  2.8620  1.4142
  294MOL0     H40552   9.392   2.065  10.943 -0.8465  2.0936 -0.8244
  294MOL0     H40553   9.246   2.208  11.030  2.9823 -0.5998  0.3748
  294MOL0     H40554   8.947   2.540  11.032  0.0594 -0.6869 -2.0215
  294MOL0     H40555   8.748   2.687  11.060 -0.7102 -0.4722 -2.7484
  294MOL0     H40556   8.614   3.887  11.322  0.6541  0.3896 -0.7231
  294MOL0     H40557   8.809   4.000  11.198  0.6480  2.2123  0.3776
  294MOL0     H40558   9.318   3.984  11.354  0.7076  0.7551  3.0910
  294MOL0     H40559   9.562   4.031  11.289  0.2332  1.4777 -0.3725
  294MOL0     H40560   9.602   4.403  11.070 -0.1303 -0.6128 -1.6032
  294MOL0     H40561   9.683   4.486  11.203  0.2261  0.5782 -1.0453
  294MOL0     H40562   9.885   4.343  11.174  3.4022  0.0104 -3.0189
  294MOL0     H40563   9.868   4.449  11.040  0.8917 -0.0426 -0.3091
  294MOL0     H40564   9.842   4.158  11.052 -1.7003 -1.5768  0.3336
  294MOL0     H40565   9.708   4.235  10.957  0.4914  0.9120 -0.3678
  294MOL0     H40566   9.868   4.343  10.813  2.0896 -0.8816 -1.7156
  294MOL0     H40567   9.902   4.176  10.798 -1.1762  2.3684 -2.9464
  294MOL0     H40568  10.256   4.312  10.948 -0.8277 -0.4775 -0.8819
  294MOL0     H40569   9.465   4.444  11.296 -3.1182  0.5662  0.0414
  294MOL0     H40570   9.102   4.415  11.217  0.7501 -0.1351  0.0808
  294MOL0     H40571   9.140   4.472  11.377  0.3599  2.1643 -1.1601
  294MOL0     H40572   9.241   4.513  11.239  0.3076 -0.4583 -3.3699
  295MOL0     O40573   3.179   6.262   1.176  0.1363  0.9435 -0.1694
  295MOL0     C40574   3.193   6.376   1.151 -0.0206  0.1941  0.5033
  295MOL0     O40575   3.257   6.416   1.037  0.9596 -0.5954 -0.1739
  295MOL0     C40576   3.277   6.315   0.949 -1.1743  0.4735  0.5497
  295MOL0     C40577   3.187   6.290   0.844 -0.2784  0.4101  0.6118
  295MOL0     C40578   3.218   6.218   0.730 -0.7402  0.5498  0.3083
  295MOL0     C40579   3.347   6.168   0.713  0.6217  0.1552  0.0252
  295MOL0     O40580   3.381   6.120   0.591 -0.0788 -0.3005  0.0462
  295MOL0     C40581   3.522   6.142   0.555  0.1449 -0.5759 -1.4375
  295MOL0     C40582   3.550   6.117   0.404 -1.1959 -0.2745  0.0121
  295MOL0     C40583   3.692   6.125   0.348  1.3171  0.2286  0.1867
  295MOL0     C40584   3.794   6.207   0.441  0.4177 -0.4350 -0.4974
  295MOL0     C40585   3.941   6.179   0.416 -1.5217 -0.8725  0.2950
  295MOL0     C40586   3.997   6.193   0.274 -0.5630 -0.1703 -0.1591
  295MOL0     C40587   4.147   6.160   0.269 -0.9585 -0.2527  0.6800
  295MOL0     C40588   4.222   6.197   0.138  0.1701 -0.3282  0.4204
  295MOL0     N40589   4.149   6.153   0.021 -0.5010 -0.0955 -0.1303
  295MOL0     C40590   4.131   6.021  -0.002  1.0751 -0.4042 -0.3154
  295MOL0     C40591   4.075   6.030  -0.125 -0.4273 -0.3549  0.2071
  295MOL0     C40592   4.034   5.909  -0.201 -1.3464  0.1392  0.3910
  295MOL0     C40593   3.878   5.902  -0.208 -1.1760  0.0545 -0.0691
  295MOL0     C40594   3.817   5.870  -0.068 -0.8574 -0.0961 -0.8622
  295MOL0     C40595   3.855   5.733  -0.012 -0.5326  0.1158  0.7304
  295MOL0     O40596   3.809   5.627  -0.099 -0.9488 -0.5389  0.0936
  295MOL0     C40597   3.689   5.560  -0.074  0.5109 -0.2801  0.4024
  295MOL0     C40598   3.587   5.603   0.004 -0.1280  0.8721 -0.3217
  295MOL0     C40599   3.471   5.529   0.032 -0.6338  0.9401  0.3107
  295MOL0     C40600   3.370   5.582   0.133 -0.0247 -0.4975 -0.2641
  295MOL0     C40601   3.457   5.402  -0.034 -0.5913  0.5963 -0.1195
  295MOL0     C40602   3.336   5.307  -0.010  0.1235  0.3984 -0.2000
  295MOL0     O40603   3.288   5.309   0.111  0.5189  0.6770 -0.3208
  295MOL0     C40604   3.156   5.340   0.131 -0.0032 -0.4979  0.7286
  295MOL0     C40605   3.082   5.418   0.039  0.7374 -0.0473  0.1243
  295MOL0     C40606   2.952   5.431   0.072  0.9380 -0.2055 -0.3365
  295MOL0     C40607   2.891   5.376   0.187  0.8776 -0.8535  0.5565
  295MOL0     O40608   2.758   5.360   0.216  0.1832  0.3440  0.1410
  295MOL0     C40609   2.670   5.337   0.101  0.6535  0.4362 -0.0943
  295MOL0     C40610   2.531   5.296   0.153  0.7204  0.9471  0.2001
  295MOL0     C40611   2.427   5.250   0.059 -0.4216  0.0487  0.4103
  295MOL0     C40612   2.287   5.239   0.123 -0.5559  0.2180 -0.0681
  295MOL0     C40613   2.191   5.156   0.033  0.0371 -0.4477  0.1232
  295MOL0     C40614   2.043   5.168   0.070 -0.4166  0.8201 -0.5628
  295MOL0     C40615   2.004   5.061   0.166 -0.4736  0.3561 -0.6086
  295MOL0     C40616   1.865   5.092   0.215  0.3759 -1.0545  0.0171
  295MOL0    Cl40617   1.816   4.979   0.343 -0.0502 -0.6767  0.2146
  295MOL0     C40618   2.973   5.313   0.278  0.6203  0.3327 -0.5116
  295MOL0     C40619   3.105   5.285   0.252 -0.1733 -0.5375  0.2997
  295MOL0     O40620   3.296   5.236  -0.104  0.0221 -0.1394  0.1328
  295MOL0     C40621   3.555   5.368  -0.127 -0.0076  0.6608 -0.0865
  295MOL0     C40622   3.669   5.440  -0.141 -0.1043  0.7121 -0.0176
  295MOL0     N40623   4.069   6.165  -0.169 -0.2638  0.4385 -0.7743
  295MOL0     N40624   4.103   6.237  -0.072  0.1883  0.3026  0.1249
  295MOL0     C40625   3.444   6.193   0.816  0.1564  0.3402  0.4434
  295MOL0     C40626   3.409   6.272   0.926  0.0749 -0.0054 -0.0522
  295MOL0     C40627   3.132   6.477   1.237  0.0790 -1.0457  0.2854
  295MOL0     C40628   3.119   6.614   1.197  0.1138  0.0324 -0.1886
  295MOL0     C40629   3.048   6.717   1.279 -0.1879  0.5422  0.0668
  295MOL0     C40630   2.986   6.683   1.398 -0.8353  0.2648  1.4457
  295MOL0     O40631   2.908   6.762   1.475  0.8973 -1.1766 -0.2530
  295MOL0     C40632   2.953   6.889   1.512  0.3141 -0.1811 -1.3349
  295MOL0     C40633   2.863   6.995   1.451 -0.1436  0.1083 -0.8629
  295MOL0     C40634   2.753   7.036   1.547 -0.4710  0.2753  0.5346
  295MOL0     C40635   2.655   7.140   1.489  0.1351  0.5558 -0.6053
  295MOL0     C40636   2.709   7.272   1.486  0.0605 -0.0843 -0.4119
  295MOL0     C40637   2.762   7.381   1.501 -0.3229 -0.4699 -0.6859
  295MOL0     C40638   2.985   6.548   1.431 -0.3950 -0.9488 -0.0507
  295MOL0     C40639   3.066   6.449   1.365  0.4769  0.0039  0.1554
  295MOL0     C40640   3.077   6.310   1.439 -0.6266  0.0313 -0.9944
  295MOL0     H40641   3.090   6.338   0.839 -0.2278  0.4684  0.2178
  295MOL0     H40642   3.140   6.209   0.655  0.9605 -1.8608 -1.3302
  295MOL0     H40643   3.584   6.074   0.613 -0.0220  1.2164  0.9843
  295MOL0     H40644   3.549   6.239   0.596  3.7383 -2.7388  1.9627
  295MOL0     H40645   3.508   6.019   0.376 -0.1920 -1.0161  1.0157
  295MOL0     H40646   3.495   6.195   0.350  0.0146  1.0124  0.5717
  295MOL0     H40647   3.735   6.026   0.333  0.2409 -0.5616  2.0437
  295MOL0     H40648   3.676   6.186   0.258 -1.7945  1.1882  1.2644
  295MOL0     H40649   3.768   6.312   0.424  0.9853 -0.3251 -0.7200
  295MOL0     H40650   3.779   6.175   0.545 -1.3887 -3.4942 -1.5730
  295MOL0     H40651   3.957   6.077   0.451 -6.2359 -1.3009  1.9823
  295MOL0     H40652   4.001   6.245   0.480  1.2987 -0.6974 -2.3136
  295MOL0     H40653   3.951   6.112   0.216  0.8293 -0.5905 -0.7235
  295MOL0     H40654   3.972   6.292   0.234 -2.2274 -1.3347 -2.2280
  295MOL0     H40655   4.148   6.050   0.273 -2.6260 -0.4374 -1.7807
  295MOL0     H40656   4.203   6.203   0.353 -1.1950  1.4241  0.0114
  295MOL0     H40657   4.236   6.305   0.126 -1.2854 -0.3225 -1.7586
  295MOL0     H40658   4.319   6.147   0.146  1.4813  2.1461  0.8060
  295MOL0     H40659   4.154   5.925   0.044 -0.3018 -0.9161 -0.6538
  295MOL0     H40660   4.067   5.819  -0.149 -0.0470  1.6486  2.3591
  295MOL0     H40661   4.077   5.921  -0.300  2.3301  1.3493  1.9640
  295MOL0     H40662   3.844   5.999  -0.246  0.1059 -0.3921 -2.5206
  295MOL0     H40663   3.843   5.827  -0.279  1.8753 -1.0044 -0.5861
  295MOL0     H40664   3.846   5.947   0.005 -1.1730  2.1358 -2.9476
  295MOL0     H40665   3.708   5.870  -0.079 -0.6901 -0.6826 -2.7922
  295MOL0     H40666   3.963   5.734   0.007  0.0871  4.3677 -1.5678
  295MOL0     H40667   3.817   5.703   0.086 -0.3260  0.2805  0.8629
  295MOL0     H40668   3.600   5.698   0.055 -1.3795  1.4561 -1.0391
  295MOL0     H40669   3.341   5.515   0.214  2.1030 -2.7548 -1.2648
  295MOL0     H40670   3.288   5.605   0.064 -0.1536 -1.0440 -0.2949
  295MOL0     H40671   3.402   5.680   0.170  0.0954 -0.2449 -1.0345
  295MOL0     H40672   3.107   5.458  -0.059  2.9447 -0.9781  0.2570
  295MOL0     H40673   2.880   5.487   0.012  1.2103  0.1171 -0.3634
  295MOL0     H40674   2.660   5.429   0.042  3.3184 -0.6575 -2.4649
  295MOL0     H40675   2.718   5.263   0.037  2.8871  0.6748  1.2116
  295MOL0     H40676   2.548   5.210   0.218 -0.9977  0.7418  0.4165
  295MOL0     H40677   2.486   5.380   0.208 -0.1759  0.8267 -0.3299
  295MOL0     H40678   2.467   5.158   0.017  2.8566  1.5792 -0.1014
  295MOL0     H40679   2.414   5.310  -0.032  1.8056 -3.3790 -2.4325
  295MOL0     H40680   2.249   5.339   0.146  0.6369  0.5221  0.6876
  295MOL0     H40681   2.277   5.191   0.222 -1.6942  2.2079  0.8433
  295MOL0     H40682   2.201   5.197  -0.068  1.0714  3.3152  1.5416
  295MOL0     H40683   2.203   5.048   0.031  0.4372 -0.4907 -4.3075
  295MOL0     H40684   1.985   5.171  -0.023  0.9712 -0.5521 -1.5106
  295MOL0     H40685   2.038   5.266   0.118 -1.4669 -0.1524  1.4497
  295MOL0     H40686   2.075   5.065   0.249 -1.8062  1.0446  0.5532
  295MOL0     H40687   2.000   4.964   0.116  0.2955  1.1645 -2.3166
  295MOL0     H40688   1.790   5.083   0.135  0.0428 -1.6651  0.3899
  295MOL0     H40689   1.855   5.192   0.258  1.1870 -0.7231 -0.5446
  295MOL0     H40690   2.943   5.262   0.368 -0.7260  0.9094 -0.6098
  295MOL0     H40691   3.168   5.223   0.315 -0.6125 -2.4737 -1.0857
  295MOL0     H40692   3.530   5.279  -0.184 -2.7261  0.8466  0.6640
  295MOL0     H40693   3.743   5.397  -0.209 -0.7820 -1.1353  0.3895
  295MOL0     H40694   3.547   6.160   0.817 -0.3406 -1.5756 -2.3005
  295MOL0     H40695   3.482   6.300   1.000 -0.9594  0.1161  0.9415
  295MOL0     H40696   3.148   6.637   1.095  0.5312 -1.2555 -0.3758
  295MOL0     H40697   3.037   6.819   1.243  1.6591  0.7080 -0.1186
  295MOL0     H40698   2.939   6.885   1.621  2.3933 -3.0343 -1.0716
  295MOL0     H40699   3.058   6.910   1.490  0.3471 -1.2518 -2.2555
  295MOL0     H40700   2.814   6.969   1.357 -2.6900 -0.2681  0.4546
  295MOL0     H40701   2.919   7.085   1.425 -0.8253  1.0386  0.7382
  295MOL0     H40702   2.700   6.946   1.579  1.8657 -2.4647 -2.4955
  295MOL0     H40703   2.797   7.095   1.627  0.4604  1.8228 -1.0391
  295MOL0     H40704   2.571   7.140   1.560  0.2136 -3.4399 -0.2282
  295MOL0     H40705   2.615   7.105   1.393 -0.8164  0.5874 -0.2353
  295MOL0     H40706   2.823   7.470   1.503 -1.1436  0.0847  1.1704
  295MOL0     H40707   2.929   6.514   1.518 -2.5337  1.7464 -0.2512
  295MOL0     H40708   3.054   6.214   1.392  2.9723 -1.6479  0.2532
  295MOL0     H40709   3.181   6.282   1.459 -1.2029 -1.0257  0.7469
  295MOL0     H40710   3.021   6.299   1.532  2.8534 -3.3819  1.0257
  296MOL0     O40711   2.245   3.929   6.172 -0.5488  0.1368 -0.2350
  296MOL0     C40712   2.221   3.964   6.289  0.5130 -0.3961  0.6221
  296MOL0     O40713   2.098   3.946   6.355  0.8907  0.3713  0.8257
  296MOL0     C40714   2.090   3.969   6.488 -0.6364  0.0906  0.2015
  296MOL0     C40715   2.042   4.083   6.540  1.3215  0.0973  0.3847
  296MOL0     C40716   2.019   4.103   6.679 -0.4987  0.2024  1.0204
  296MOL0     C40717   2.060   4.010   6.772 -0.6589 -1.4900 -0.1889
  296MOL0     O40718   2.048   4.022   6.906 -0.1737 -0.0590 -0.4332
  296MOL0     C40719   2.014   4.149   6.978  0.4141  0.6464  0.1230
  296MOL0     C40720   2.138   4.199   7.052 -0.8285 -0.2741  0.0261
  296MOL0     C40721   2.181   4.131   7.183 -0.8049  0.3501  0.0304
  296MOL0     C40722   2.232   3.987   7.171 -0.1578 -0.1482 -0.7706
  296MOL0     C40723   2.369   3.973   7.108 -0.1133 -0.1106  0.0989
  296MOL0     C40724   2.480   3.900   7.183  0.0947  0.2276 -0.5681
  296MOL0     C40725   2.515   3.969   7.318  0.5864  0.1024 -0.7310
  296MOL0     C40726   2.608   3.877   7.397 -0.4204 -0.7222 -0.3434
  296MOL0     N40727   2.652   3.940   7.524  0.1254 -0.1083  0.9522
  296MOL0     C40728   2.721   4.060   7.529  0.0697 -0.2164 -0.2908
  296MOL0     C40729   2.728   4.099   7.656 -0.1436  0.5206  0.6507
  296MOL0     C40730   2.779   4.232   7.699 -0.0755  0.3556 -0.5291
  296MOL0     C40731   2.831   4.230   7.844  0.8124 -0.9230 -0.1167
  296MOL0     C40732   2.906   4.104   7.870 -0.0910 -0.0406 -0.7197
  296MOL0     C40733   3.026   4.117   7.968  0.1191  0.6515 -1.0559
  296MOL0     O40734   2.992   4.209   8.069  0.1013  0.3623 -0.0338
  296MOL0     C40735   3.072   4.247   8.178  0.4534  0.1612 -0.0993
  296MOL0     C40736   3.035   4.365   8.240 -0.4746 -0.3833  0.6570
  296MOL0     C40737   3.110   4.414   8.342 -1.9556  0.2020  0.3570
  296MOL0     C40738   3.071   4.562   8.392  0.3507  0.5802 -0.3360
  296MOL0     C40739   3.223   4.344   8.401 -0.0837 -0.5543  0.3644
  296MOL0     C40740   3.296   4.384   8.523 -0.0268 -0.3139 -0.4792
  296MOL0     O40741   3.392   4.297   8.575 -0.2225  0.0566  0.1138
  296MOL0     C40742   3.459   4.305   8.694 -0.3956  0.9225 -0.5616
  296MOL0     C40743   3.559   4.208   8.713  0.0632  0.1340  0.1988
  296MOL0     C40744   3.633   4.207   8.837  0.0989 -0.5090  0.0620
  296MOL0     C40745   3.616   4.300   8.934  0.9047  0.4225 -0.5006
  296MOL0     O40746   3.678   4.318   9.052  0.1695 -0.5011  0.4596
  296MOL0     C40747   3.823   4.311   9.039 -0.2697  0.3657 -0.1457
  296MOL0     C40748   3.885   4.420   9.124 -0.1583  0.6234  0.0112
  296MOL0     C40749   3.861   4.392   9.272 -1.4657  0.4601  0.4499
  296MOL0     C40750   3.933   4.260   9.315 -0.2880  0.9038 -0.5349
  296MOL0     C40751   3.905   4.231   9.467  0.0610 -0.0626  0.4620
  296MOL0     C40752   3.949   4.096   9.510  0.0049  0.8903 -0.2895
  296MOL0     C40753   3.995   4.081   9.658  0.4877 -0.5789 -0.8019
  296MOL0     C40754   4.134   4.159   9.669 -0.5527 -0.0860  0.9253
  296MOL0    Cl40755   4.177   4.192   9.842 -0.0957  0.7079  0.0844
  296MOL0     C40756   3.509   4.387   8.912  0.2047 -0.2837 -0.7562
  296MOL0     C40757   3.441   4.397   8.796 -0.2660  0.2586  1.7630
  296MOL0     O40758   3.286   4.497   8.561  0.6102  0.4385 -0.2936
  296MOL0     C40759   3.254   4.219   8.338 -0.2266  0.5401  0.4888
  296MOL0     C40760   3.183   4.170   8.225 -0.0577 -0.7557 -0.4819
  296MOL0     N40761   2.658   4.000   7.731 -1.0505 -0.3691  0.2445
  296MOL0     N40762   2.614   3.911   7.648 -0.0631 -0.1555 -0.1216
  296MOL0     C40763   2.116   3.892   6.728 -0.9443  0.0712  0.3028
  296MOL0     C40764   2.126   3.868   6.584 -0.7183  0.8552  0.1274
  296MOL0     C40765   2.329   4.049   6.351  0.9933  0.2174 -0.3160
  296MOL0     C40766   2.319   4.189   6.344  0.0763 -0.2721  0.2319
  296MOL0     C40767   2.416   4.277   6.389 -0.1267  0.7321 -1.4819
  296MOL0     C40768   2.540   4.227   6.432  0.1355 -0.0942 -0.3058
  296MOL0     O40769   2.651   4.305   6.462 -0.8605 -0.1657  1.3706
  296MOL0     C40770   2.659   4.427   6.394 -0.5401 -0.3052  0.2193
  296MOL0     C40771   2.795   4.487   6.397 -0.0944 -0.2792  0.8661
  296MOL0     C40772   2.840   4.507   6.540  0.7373  0.5022  0.1954
  296MOL0     C40773   2.969   4.591   6.556  0.0508  0.5606  0.0267
  296MOL0     C40774   3.090   4.549   6.492 -0.7824  0.2817  0.6667
  296MOL0     C40775   3.205   4.532   6.460  0.7149  0.1351  0.0177
  296MOL0     C40776   2.543   4.084   6.453  0.4253 -0.4244 -0.0084
  296MOL0     C40777   2.444   3.989   6.405  0.3184 -0.4916  0.3669
  296MOL0     C40778   2.462   3.839   6.422 -0.3906 -0.8471  0.1514
  296MOL0     H40779   2.017   4.167   6.475 -1.3043  1.3475  2.7998
  296MOL0     H40780   1.976   4.196   6.713 -0.5448  0.8930 -0.8437
  296MOL0     H40781   1.939   4.119   7.052 -2.4812  1.3957 -2.2959
  296MOL0     H40782   1.985   4.228   6.908  2.0871  0.3001 -1.0358
  296MOL0     H40783   2.216   4.195   6.975 -0.6133  1.9132  0.0744
  296MOL0     H40784   2.126   4.304   7.079 -0.0123 -0.2279  0.2310
  296MOL0     H40785   2.264   4.183   7.230 -0.4677 -0.1218 -0.0332
  296MOL0     H40786   2.093   4.131   7.248  0.8763  1.4282  2.4273
  296MOL0     H40787   2.227   3.932   7.266 -0.7944 -0.4946 -0.9958
  296MOL0     H40788   2.171   3.931   7.100  2.2742 -1.0204 -2.2969
  296MOL0     H40789   2.404   4.075   7.087  0.8965 -0.7489 -1.5159
  296MOL0     H40790   2.360   3.931   7.008 -0.3608 -0.2738  0.1892
  296MOL0     H40791   2.452   3.795   7.184  1.0856 -0.0572 -1.3869
  296MOL0     H40792   2.569   3.905   7.120  0.2706 -1.0392 -0.4385
  296MOL0     H40793   2.425   3.964   7.379  1.2349 -2.7221  0.1420
  296MOL0     H40794   2.553   4.071   7.306 -1.8395  1.3547  1.2354
  296MOL0     H40795   2.560   3.782   7.422 -0.0381 -1.6240 -2.7901
  296MOL0     H40796   2.694   3.858   7.331  0.1598  0.1121  0.1559
  296MOL0     H40797   2.749   4.114   7.439  2.2519  0.7696  0.8976
  296MOL0     H40798   2.705   4.311   7.685  0.9432  1.1088 -2.0280
  296MOL0     H40799   2.865   4.251   7.633 -0.7701  0.3888 -1.4471
  296MOL0     H40800   2.909   4.306   7.841 -1.0017  1.0656  0.2295
  296MOL0     H40801   2.753   4.247   7.919 -1.2999  0.9886 -2.5382
  296MOL0     H40802   2.833   4.033   7.912  0.6072 -1.3830 -1.7044
  296MOL0     H40803   2.930   4.045   7.781  1.0415 -1.7598  0.6565
  296MOL0     H40804   3.049   4.021   8.014  0.2395  1.3188  0.3315
  296MOL0     H40805   3.116   4.151   7.915  0.6128 -2.0451 -2.0761
  296MOL0     H40806   2.950   4.415   8.195  1.6882  0.8937 -2.3225
  296MOL0     H40807   3.051   4.559   8.499 -0.4093 -0.9942 -0.4980
  296MOL0     H40808   2.981   4.593   8.339 -1.0311  1.0709  2.1661
  296MOL0     H40809   3.147   4.640   8.379 -0.8584  2.8304  4.2343
  296MOL0     H40810   3.579   4.125   8.645  0.6365  1.0454 -0.7720
  296MOL0     H40811   3.696   4.120   8.850 -3.0901 -3.2406 -1.3581
  296MOL0     H40812   3.848   4.207   9.059 -0.0855 -0.1926 -2.9002
  296MOL0     H40813   3.858   4.321   8.936 -0.3350 -3.8401 -0.7493
  296MOL0     H40814   3.991   4.430   9.099 -0.7609 -1.2011 -3.9787
  296MOL0     H40815   3.836   4.512   9.090  1.0051  0.3194 -2.7042
  296MOL0     H40816   3.756   4.371   9.293 -1.1284 -1.2750  0.5587
  296MOL0     H40817   3.885   4.480   9.331 -1.3324  0.8353 -0.1552
  296MOL0     H40818   4.039   4.285   9.304  0.0305  0.2561  0.8797
  296MOL0     H40819   3.904   4.173   9.257  5.1393 -1.7378  0.0914
  296MOL0     H40820   3.945   4.319   9.519 -2.4647  1.4518 -0.0304
  296MOL0     H40821   3.798   4.245   9.483 -0.0940  3.2910 -2.2841
  296MOL0     H40822   4.041   4.070   9.456 -1.0520 -0.9998 -1.2965
  296MOL0     H40823   3.871   4.024   9.485 -0.2878  0.5230  1.5608
  296MOL0     H40824   4.007   3.975   9.680 -1.7167 -0.3374  2.0464
  296MOL0     H40825   3.918   4.128   9.719  0.4518  0.2726 -1.4756
  296MOL0     H40826   4.119   4.256   9.622 -1.8822 -0.5263  0.3976
  296MOL0     H40827   4.218   4.101   9.627  0.8042 -1.0704  4.5869
  296MOL0     H40828   3.493   4.463   8.988  2.1722  0.7883 -1.3475
  296MOL0     H40829   3.361   4.468   8.783 -1.9724 -1.9221 -0.8120
  296MOL0     H40830   3.339   4.162   8.374  3.0292  4.7900  0.3687
  296MOL0     H40831   3.215   4.084   8.167  0.3973 -1.6275  1.0101
  296MOL0     H40832   2.132   3.808   6.795  0.3146 -0.7152 -0.9419
  296MOL0     H40833   2.174   3.776   6.551  0.6363  1.5344  0.1768
  296MOL0     H40834   2.235   4.226   6.288  1.1880  0.8587 -0.7563
  296MOL0     H40835   2.398   4.378   6.352 -0.7619  0.4807 -1.8881
  296MOL0     H40836   2.637   4.411   6.288  0.0949  1.8717 -0.2786
  296MOL0     H40837   2.597   4.507   6.435 -0.1760  1.3207 -2.2126
  296MOL0     H40838   2.773   4.581   6.346 -0.1486 -0.9886 -0.4862
  296MOL0     H40839   2.868   4.426   6.342 -1.4410 -1.6108  0.4920
  296MOL0     H40840   2.772   4.560   6.607  1.3099  0.9002  0.4721
  296MOL0     H40841   2.855   4.406   6.581 -2.1716 -0.7213 -1.4912
  296MOL0     H40842   2.979   4.590   6.665  2.4899  0.9965 -0.1412
  296MOL0     H40843   2.945   4.693   6.524 -0.0389 -0.1473 -2.3489
  296MOL0     H40844   3.305   4.516   6.425  2.0395  0.8756  3.0939
  296MOL0     H40845   2.633   4.045   6.500  0.4915 -0.8582 -0.4947
  296MOL0     H40846   2.527   3.808   6.340  1.0825 -2.8198  1.9760
  296MOL0     H40847   2.506   3.827   6.521 -1.0801 -4.1928  0.1494
  296MOL0     H40848   2.366   3.787   6.419 -0.3766 -1.0011  1.8651
  297MOL0     O40849   5.480   3.508   5.101  0.2923  0.3849  0.0281
  297MOL0     C40850   5.497   3.559   4.994 -0.6855 -0.4810  0.1562
  297MOL0     O40851   5.403   3.633   4.923  0.0019  0.5912 -0.0689
  297MOL0     C40852   5.273   3.636   4.962  0.0986  0.5022  0.2823
  297MOL0     C40853   5.232   3.721   5.070  0.2870 -0.0596  0.1350
  297MOL0     C40854   5.100   3.727   5.098  0.6441 -0.5092  0.2291
  297MOL0     C40855   5.001   3.655   5.028 -0.4004 -0.2855 -0.6955
  297MOL0     O40856   4.866   3.664   5.058  0.0090 -0.1050  0.3491
  297MOL0     C40857   4.805   3.550   5.117  0.4263  0.2912  0.4284
  297MOL0     C40858   4.706   3.492   5.012 -0.4809 -0.2014 -0.0901
  297MOL0     C40859   4.583   3.581   4.980  0.4503  0.3876 -0.0338
  297MOL0     C40860   4.493   3.635   5.097  0.4452  0.1654 -0.1696
  297MOL0     C40861   4.369   3.714   5.048  1.2612 -0.1956 -0.8628
  297MOL0     C40862   4.311   3.785   5.164  0.9469  0.5309 -0.2608
  297MOL0     C40863   4.274   3.708   5.290  1.0267  0.0288 -0.5495
  297MOL0     C40864   4.170   3.600   5.276 -0.7360 -0.3986  0.6094
  297MOL0     N40865   4.044   3.661   5.244  0.5135  0.0406  0.2858
  297MOL0     C40866   3.997   3.687   5.115  0.1253  0.5730  0.1361
  297MOL0     C40867   3.873   3.735   5.126  0.1275 -0.2240 -0.4658
  297MOL0     C40868   3.781   3.780   5.021 -0.5018 -1.0477 -0.3023
  297MOL0     C40869   3.803   3.930   5.007 -0.5642 -0.2218  0.3989
  297MOL0     C40870   3.799   4.015   5.135 -0.6569  0.0648  0.3596
  297MOL0     C40871   3.801   4.168   5.112 -1.3148  0.1276  0.0666
  297MOL0     O40872   3.928   4.219   5.062 -0.0870  0.5229  0.0132
  297MOL0     C40873   4.046   4.183   5.124  0.6807  0.4341  0.2514
  297MOL0     C40874   4.163   4.183   5.048  0.2575  0.1509  0.5055
  297MOL0     C40875   4.290   4.170   5.104  0.1988 -0.6275 -0.6039
  297MOL0     C40876   4.401   4.166   5.001  0.6070  0.2045 -0.0889
  297MOL0     C40877   4.299   4.128   5.236  0.7332 -0.2998  0.4980
  297MOL0     C40878   4.429   4.081   5.298  0.6126  0.1389 -0.3282
  297MOL0     O40879   4.534   4.122   5.240 -0.4394 -0.3551 -0.1808
  297MOL0     C40880   4.668   4.088   5.282  0.5020 -0.1976  0.0268
  297MOL0     C40881   4.720   3.968   5.330  0.5089  0.7003 -0.1421
  297MOL0     C40882   4.852   3.957   5.360 -0.9537  0.9891 -0.5732
  297MOL0     C40883   4.951   4.061   5.344 -0.0695  0.7822  0.2274
  297MOL0     O40884   5.081   4.048   5.387 -0.3734  0.4497 -0.0929
  297MOL0     C40885   5.172   4.130   5.318 -1.1471  1.5072  0.6084
  297MOL0     C40886   5.314   4.098   5.364  0.2035  0.2992 -0.7970
  297MOL0     C40887   5.421   4.191   5.287  0.6575  0.2920 -0.5046
  297MOL0     C40888   5.455   4.153   5.143  0.3706 -1.0728 -0.0665
  297MOL0     C40889   5.511   4.011   5.135 -0.1405  0.2262  0.6555
  297MOL0     C40890   5.539   3.961   4.993  0.3297 -0.2076 -0.1922
  297MOL0     C40891   5.651   4.042   4.933 -0.7122  0.7404  0.2070
  297MOL0     C40892   5.742   3.952   4.848 -0.5730  0.6430  0.9363
  297MOL0    Cl40893   5.867   4.059   4.770  0.1498  0.2864  0.3113
  297MOL0     C40894   4.895   4.181   5.290  0.1404  0.4385  0.3157
  297MOL0     C40895   4.760   4.191   5.264  0.0183 -0.2772  0.5290
  297MOL0     O40896   4.425   4.003   5.392  0.7447 -0.2607  0.6797
  297MOL0     C40897   4.181   4.133   5.315  0.7442 -0.2007  0.2816
  297MOL0     C40898   4.056   4.167   5.265 -0.3479 -0.4939 -0.4569
  297MOL0     N40899   3.850   3.740   5.270 -0.1278 -0.6569 -0.1996
  297MOL0     N40900   3.946   3.703   5.333 -0.2511  0.0745 -0.2327
  297MOL0     C40901   5.041   3.563   4.930  0.3410 -0.0517  0.0300
  297MOL0     C40902   5.174   3.564   4.888  0.4878  0.7477  0.3332
  297MOL0     C40903   5.638   3.563   4.939  0.4423 -0.4679  0.2410
  297MOL0     C40904   5.655   3.611   4.808 -0.8002 -0.0210  0.9262
  297MOL0     C40905   5.781   3.617   4.753 -0.0465 -0.1976 -0.3418
  297MOL0     C40906   5.907   3.600   4.822  0.6748 -0.0680  0.0754
  297MOL0     O40907   6.037   3.622   4.766  0.2385  0.2607  0.4941
  297MOL0     C40908   6.078   3.520   4.669  0.1807  0.1626 -0.1684
  297MOL0     C40909   6.152   3.403   4.738 -0.2598 -0.2324  0.1027
  297MOL0     C40910   6.265   3.452   4.834 -0.2212 -0.0357  1.3179
  297MOL0     C40911   6.291   3.350   4.947  0.0542 -0.1710  1.1777
  297MOL0     C40912   6.175   3.325   5.034 -0.2677 -1.3915  0.0919
  297MOL0     C40913   6.084   3.307   5.113  0.8287  0.0876 -0.0887
  297MOL0     C40914   5.882   3.567   4.957  0.1999 -0.1663  0.6199
  297MOL0     C40915   5.759   3.543   5.011  0.4273 -0.3282  0.0407
  297MOL0     C40916   5.762   3.521   5.156  0.2008  0.4403  0.2552
  297MOL0     H40917   5.314   3.772   5.120 -1.9086 -0.4075  4.6065
  297MOL0     H40918   5.074   3.790   5.183 -1.0380 -1.8406  0.7614
  297MOL0     H40919   4.758   3.577   5.211  2.1305  2.5708  0.7039
  297MOL0     H40920   4.868   3.461   5.126 -1.9339 -1.9058 -2.3805
  297MOL0     H40921   4.764   3.472   4.921  0.2779 -0.4334  0.4416
  297MOL0     H40922   4.666   3.400   5.055 -1.5922  0.5984  0.6400
  297MOL0     H40923   4.608   3.660   4.909  0.5120  0.6982  0.3312
  297MOL0     H40924   4.522   3.511   4.922  2.1477 -1.5115  0.3430
  297MOL0     H40925   4.455   3.549   5.152  1.1134  0.0887  0.1852
  297MOL0     H40926   4.558   3.690   5.166  0.8360 -0.2143 -0.2344
  297MOL0     H40927   4.295   3.656   4.992  1.6466 -0.3931 -1.1652
  297MOL0     H40928   4.409   3.791   4.982 -0.9130  1.1900 -0.6911
  297MOL0     H40929   4.395   3.852   5.183  2.4084 -1.0215 -0.9816
  297MOL0     H40930   4.215   3.831   5.139  0.2825 -0.2739  0.7230
  297MOL0     H40931   4.234   3.775   5.367  0.9210  0.2515 -0.7982
  297MOL0     H40932   4.366   3.665   5.333  0.6787 -0.7799 -0.5863
  297MOL0     H40933   4.196   3.522   5.204 -1.4529 -0.9607  0.9423
  297MOL0     H40934   4.160   3.549   5.373 -1.2383 -0.1503  0.6927
  297MOL0     H40935   4.038   3.674   5.015 -1.6485 -3.3117 -0.2428
  297MOL0     H40936   3.680   3.753   5.054 -0.3585 -0.9216  0.2487
  297MOL0     H40937   3.804   3.735   4.925  0.6990 -1.2631  0.0752
  297MOL0     H40938   3.894   3.957   4.952 -1.1248 -0.6333 -0.7730
  297MOL0     H40939   3.728   3.976   4.942  2.4843  5.1897  0.0944
  297MOL0     H40940   3.704   3.983   5.179 -1.0560 -1.2314 -1.3638
  297MOL0     H40941   3.873   3.978   5.207 -1.5727 -0.8687  0.8605
  297MOL0     H40942   3.716   4.190   5.046 -0.4888  0.7146 -0.8262
  297MOL0     H40943   3.768   4.215   5.205  2.0012  2.2952  0.3121
  297MOL0     H40944   4.150   4.215   4.945  0.9754 -1.8449 -0.2561
  297MOL0     H40945   4.370   4.195   4.901  1.4972  0.8217 -0.1965
  297MOL0     H40946   4.430   4.062   4.984  0.8361  0.1572  0.5492
  297MOL0     H40947   4.485   4.229   5.032  2.6475 -2.1779 -0.3953
  297MOL0     H40948   4.652   3.885   5.347  0.5973  0.5237 -0.6405
  297MOL0     H40949   4.898   3.869   5.404  3.1170  3.1605  0.0136
  297MOL0     H40950   5.163   4.108   5.212 -3.2658  1.6541  0.7306
  297MOL0     H40951   5.154   4.237   5.332  2.5976  2.3973 -0.2574
  297MOL0     H40952   5.317   4.130   5.468  0.1533 -1.8982 -0.0717
  297MOL0     H40953   5.339   3.991   5.365  3.0159  0.8561 -1.0428
  297MOL0     H40954   5.512   4.178   5.345 -0.0637 -3.5116  0.0152
  297MOL0     H40955   5.397   4.296   5.306  2.7666  0.7073  0.0661
  297MOL0     H40956   5.534   4.222   5.110  0.7181 -1.5390 -0.2203
  297MOL0     H40957   5.366   4.161   5.080  1.4152  1.0497 -1.4179
  297MOL0     H40958   5.600   4.008   5.200  2.1271 -1.9394 -2.2788
  297MOL0     H40959   5.434   3.945   5.177 -1.5347  1.2174 -0.2728
  297MOL0     H40960   5.439   3.959   4.948 -1.3425 -0.6738  3.2607
  297MOL0     H40961   5.579   3.859   4.999 -1.0625 -0.7082  1.1092
  297MOL0     H40962   5.714   4.102   4.999  3.2351 -1.1910 -1.5253
  297MOL0     H40963   5.613   4.127   4.874 -0.1688 -0.1783 -1.5307
  297MOL0     H40964   5.689   3.897   4.771  1.8771  1.9120 -1.8600
  297MOL0     H40965   5.797   3.875   4.903  0.3836 -0.2787 -1.2175
  297MOL0     H40966   4.943   4.277   5.276  2.2668 -0.9170 -2.8697
  297MOL0     H40967   4.724   4.289   5.235  2.2072  0.5825  0.5094
  297MOL0     H40968   4.185   4.101   5.419 -2.1037 -1.7814  0.0067
  297MOL0     H40969   3.977   4.181   5.338 -0.3922 -0.7914 -0.4433
  297MOL0     H40970   4.966   3.496   4.889  0.7183  0.2132 -1.1293
  297MOL0     H40971   5.196   3.494   4.808  1.7058  1.5539 -0.0629
  297MOL0     H40972   5.580   3.630   4.733 -0.5766 -1.8024  0.2066
  297MOL0     H40973   5.769   3.655   4.652 -2.5493  0.6685  0.2118
  297MOL0     H40974   5.991   3.480   4.617  0.9594 -2.8831  0.6596
  297MOL0     H40975   6.146   3.567   4.597 -0.3577  0.5458 -0.4383
  297MOL0     H40976   6.197   3.339   4.662  1.0361 -0.7185  1.2294
  297MOL0     H40977   6.080   3.346   4.797  1.6397 -1.1728  1.6174
  297MOL0     H40978   6.337   3.478   4.756 -1.2435  2.0256  1.0029
  297MOL0     H40979   6.247   3.550   4.878  1.9452  1.3488 -0.6493
  297MOL0     H40980   6.373   3.398   5.001  1.0665  1.5828 -1.7116
  297MOL0     H40981   6.339   3.260   4.906  2.7650  1.8813 -0.5187
  297MOL0     H40982   5.996   3.293   5.173  1.9854  0.8596  1.8923
  297MOL0     H40983   5.972   3.557   5.017  0.9237 -0.1980 -0.4549
  297MOL0     H40984   5.691   3.441   5.180 -0.1117 -0.2478 -2.6024
  297MOL0     H40985   5.855   3.483   5.198 -0.5467  0.7968  2.3734
  297MOL0     H40986   5.738   3.614   5.210 -0.6058 -0.5520  1.6633
  298MOL0     O40987   0.375  10.703   8.683  0.6029  0.6686  0.3030
  298MOL0     C40988   0.267  10.658   8.648  1.0467  0.6296  1.1516
  298MOL0     O40989   0.238  10.523   8.614 -0.0801 -0.0070  0.3377
  298MOL0     C40990   0.346  10.441   8.585  0.4343  0.3029 -0.4114
  298MOL0     C40991   0.338  10.365   8.469  0.5005  0.3204  0.8731
  298MOL0     C40992   0.437  10.271   8.444  0.4131  0.2231 -0.4250
  298MOL0     C40993   0.538  10.242   8.532  0.1770  1.2624 -0.5844
  298MOL0     O40994   0.625  10.141   8.500  0.2428 -0.1488  0.0932
  298MOL0     C40995   0.763  10.151   8.508 -0.3868 -0.2058 -0.0474
  298MOL0     C40996   0.816  10.037   8.421  0.6126 -0.6269  0.2555
  298MOL0     C40997   0.799   9.897   8.486 -0.6253  0.4969  0.0827
  298MOL0     C40998   0.902   9.861   8.598  0.6029 -0.1655  0.5228
  298MOL0     C40999   0.876   9.715   8.645  0.1055 -0.4826  0.1563
  298MOL0     C41000   0.976   9.689   8.746 -0.5986 -0.3339 -1.1412
  298MOL0     C41001   1.001   9.534   8.762  0.9906 -0.9584  0.3731
  298MOL0     C41002   1.083   9.509   8.890  0.4576 -0.8834 -0.0460
  298MOL0     N41003   1.204   9.582   8.899  0.1909  0.6053 -0.1635
  298MOL0     C41004   1.315   9.527   8.845 -0.3184  0.3231  0.1110
  298MOL0     C41005   1.421   9.582   8.896 -0.2594 -0.2257 -0.3903
  298MOL0     C41006   1.566   9.552   8.857  0.5044  1.4116  0.4365
  298MOL0     C41007   1.629   9.439   8.930 -1.1045 -0.0993  0.0923
  298MOL0     C41008   1.756   9.371   8.866 -0.1425 -0.6138 -0.4841
  298MOL0     C41009   1.877   9.453   8.900  0.0213 -0.1648  1.5972
  298MOL0     O41010   1.862   9.580   8.825 -0.1405  0.5933  0.2875
  298MOL0     C41011   1.943   9.684   8.856 -1.7041  0.4007  0.2442
  298MOL0     C41012   1.894   9.814   8.850 -0.8281 -0.3913  0.6502
  298MOL0     C41013   1.982   9.926   8.876  1.0386  0.4185 -0.6977
  298MOL0     C41014   1.911  10.058   8.860  0.2464 -0.5202 -0.1422
  298MOL0     C41015   2.109   9.904   8.922 -0.3719 -0.4708 -0.5294
  298MOL0     C41016   2.201  10.018   8.947  1.0254  0.9265 -0.5520
  298MOL0     O41017   2.159  10.154   8.942  1.0083  0.5003  0.8051
  298MOL0     C41018   2.248  10.253   8.965 -0.4498  0.1499  0.3788
  298MOL0     C41019   2.270  10.310   9.093 -0.0756 -0.8129 -0.3325
  298MOL0     C41020   2.351  10.422   9.108 -0.9516  0.5483 -0.7329
  298MOL0     C41021   2.421  10.475   8.997  0.2781 -0.7009 -0.0651
  298MOL0     O41022   2.509  10.577   9.009  0.5141 -0.2541  0.1735
  298MOL0     C41023   2.465  10.686   9.091 -0.1592  0.0259  0.1295
  298MOL0     C41024   2.538  10.691   9.220  0.2675 -0.5917  0.1785
  298MOL0     C41025   2.684  10.703   9.193 -1.1369  0.2334  0.8843
  298MOL0     C41026   2.766  10.663   9.313 -0.4920  0.4441  0.0823
  298MOL0     C41027   2.920  10.681   9.292  0.2260  0.8974 -0.3106
  298MOL0     C41028   2.989  10.603   9.180 -0.5066  0.4085  0.9555
  298MOL0     C41029   3.135  10.568   9.199 -0.0381 -0.1743  0.1861
  298MOL0     C41030   3.207  10.529   9.073  0.7021  0.1222 -0.9025
  298MOL0    Cl41031   3.230  10.654   8.945  0.4884  0.5291 -0.9432
  298MOL0     C41032   2.402  10.409   8.877 -1.1102 -0.4244  0.6722
  298MOL0     C41033   2.319  10.301   8.855  0.2491  0.4889  0.0890
  298MOL0     O41034   2.315   9.983   8.973 -0.4640  0.0818  0.4194
  298MOL0     C41035   2.161   9.774   8.927  0.6884 -0.9252 -0.0293
  298MOL0     C41036   2.074   9.664   8.908  0.0468  0.2261 -0.6129
  298MOL0     N41037   1.378   9.663   9.006  0.7455  0.6202 -0.0738
  298MOL0     N41038   1.243   9.651   9.008  0.6941  0.6364  0.0718
  298MOL0     C41039   0.544  10.311   8.651 -0.3253 -0.6275  0.2300
  298MOL0     C41040   0.446  10.415   8.675 -0.0517  0.8274  0.8535
  298MOL0     C41041   0.146  10.760   8.641  0.2031 -0.5420  0.3575
  298MOL0     C41042   0.125  10.844   8.743  0.0084  0.3528 -0.2402
  298MOL0     C41043   0.035  10.942   8.743  0.6738 -0.1115 -0.1527
  298MOL0     C41044  -0.037  10.975   8.629  0.1063 -0.6895 -0.2188
  298MOL0     O41045  -0.125  11.080   8.630  0.0623 -0.7861 -0.2025
  298MOL0     C41046  -0.224  11.090   8.527 -0.3586 -0.0236  0.2948
  298MOL0     C41047  -0.297  11.218   8.543 -0.0168 -0.2061 -0.1512
  298MOL0     C41048  -0.441  11.225   8.491  0.6505  0.9381  0.5940
  298MOL0     C41049  -0.448  11.243   8.340 -0.2980  0.1078 -0.0799
  298MOL0     C41050  -0.577  11.203   8.287  0.1893 -0.3275 -0.1941
  298MOL0     C41051  -0.684  11.168   8.251 -0.2263 -0.3413 -0.2971
  298MOL0     C41052  -0.014  10.895   8.520  0.4812 -0.2370 -0.0440
  298MOL0     C41053   0.076  10.791   8.524  0.3657  0.7002  0.1183
  298MOL0     C41054   0.087  10.714   8.393  0.0036 -0.2876  0.2673
  298MOL0     H41055   0.251  10.372   8.404  1.0826  0.1376  0.0455
  298MOL0     H41056   0.437  10.203   8.359 -0.6502 -1.6066  0.9535
  298MOL0     H41057   0.798  10.128   8.609  0.2476 -1.5869 -0.5561
  298MOL0     H41058   0.808  10.247   8.482 -1.6759  0.4528  0.0812
  298MOL0     H41059   0.756  10.044   8.329 -0.4034 -0.9295  0.8837
  298MOL0     H41060   0.919  10.050   8.389  0.2213  0.6036 -0.6175
  298MOL0     H41061   0.699   9.896   8.531 -1.3511 -4.2126 -1.1013
  298MOL0     H41062   0.808   9.823   8.405  0.9858  0.5789  0.1607
  298MOL0     H41063   1.004   9.874   8.562 -0.1243  0.7164 -1.4012
  298MOL0     H41064   0.891   9.931   8.681  1.9996  1.7424 -0.8066
  298MOL0     H41065   0.887   9.641   8.564  3.3456 -2.0839  1.8701
  298MOL0     H41066   0.776   9.709   8.689 -0.7754  3.2511 -1.0095
  298MOL0     H41067   1.075   9.721   8.714  0.0873 -2.0866 -0.8490
  298MOL0     H41068   0.962   9.749   8.836  3.6031  0.0971 -0.5817
  298MOL0     H41069   1.045   9.492   8.670 -2.4990  0.0187 -1.9060
  298MOL0     H41070   0.903   9.485   8.766  1.3916 -1.9239 -0.8540
  298MOL0     H41071   1.023   9.544   8.975  0.5381  0.0113 -0.3550
  298MOL0     H41072   1.105   9.402   8.899 -0.1464 -0.8677  2.2800
  298MOL0     H41073   1.321   9.439   8.781  1.5179  0.3513  0.1823
  298MOL0     H41074   1.622   9.643   8.878 -2.3666  3.5454 -0.5460
  298MOL0     H41075   1.568   9.535   8.748 -2.0817  0.0202  0.5104
  298MOL0     H41076   1.660   9.460   9.033 -1.7787 -0.2087  0.3261
  298MOL0     H41077   1.559   9.355   8.926 -0.6167 -0.7438  2.9666
  298MOL0     H41078   1.779   9.272   8.905  2.3356  0.2037  0.2678
  298MOL0     H41079   1.747   9.368   8.757  0.8386  0.0084 -0.5954
  298MOL0     H41080   1.888   9.467   9.008 -1.5376  0.6795  1.6731
  298MOL0     H41081   1.963   9.398   8.861 -1.9368 -2.0650 -0.2897
  298MOL0     H41082   1.799   9.834   8.800  0.9052  1.7304 -2.0832
  298MOL0     H41083   1.954  10.112   8.775  1.0519 -1.2898 -0.2285
  298MOL0     H41084   1.918  10.116   8.953  0.4872 -2.5140  1.1480
  298MOL0     H41085   1.805  10.042   8.839 -0.9315  2.0603  2.9610
  298MOL0     H41086   2.229  10.262   9.181  1.9033  0.7956  1.5963
  298MOL0     H41087   2.371  10.476   9.200  2.8439  3.8919 -3.1416
  298MOL0     H41088   2.498  10.777   9.039 -1.4105  0.7316  0.5216
  298MOL0     H41089   2.356  10.685   9.097 -0.1995  1.5204  0.1542
  298MOL0     H41090   2.507  10.779   9.278 -2.8068 -1.3395 -0.1132
  298MOL0     H41091   2.520  10.602   9.280  2.3794  0.2001  2.1016
  298MOL0     H41092   2.718  10.804   9.168 -0.0053 -0.3431 -0.0139
  298MOL0     H41093   2.713  10.633   9.114 -0.6239  1.9011 -0.4628
  298MOL0     H41094   2.741  10.557   9.321  3.0761 -0.4362  1.5708
  298MOL0     H41095   2.742  10.717   9.405 -0.2225  2.6248 -1.0600
  298MOL0     H41096   2.943  10.787   9.274 -0.3778  0.8392 -1.5012
  298MOL0     H41097   2.978  10.654   9.380  3.2166  0.9727 -2.1425
  298MOL0     H41098   2.985  10.669   9.092 -2.1241  0.8320  1.3141
  298MOL0     H41099   2.928  10.513   9.166 -0.9998  0.9422 -0.6356
  298MOL0     H41100   3.136  10.484   9.269  2.7795  0.4278  0.9761
  298MOL0     H41101   3.189  10.647   9.251  1.3417  0.6629 -2.3618
  298MOL0     H41102   3.158  10.442   9.028 -0.6360  0.4110 -0.0730
  298MOL0     H41103   3.307  10.506   9.111  1.1230  0.9935 -1.4570
  298MOL0     H41104   2.457  10.439   8.788 -0.8316 -4.4877 -0.7281
  298MOL0     H41105   2.305  10.264   8.754  0.9170  0.7356 -0.0993
  298MOL0     H41106   2.259   9.753   8.969  0.9176  0.0769 -0.0410
  298MOL0     H41107   2.109   9.563   8.931 -1.5833 -0.1816  0.2124
  298MOL0     H41108   0.618  10.295   8.729 -0.9146 -1.3366  0.6602
  298MOL0     H41109   0.441  10.464   8.772  0.4927  1.6341  0.4820
  298MOL0     H41110   0.185  10.826   8.832  1.5253 -0.4486 -1.3687
  298MOL0     H41111   0.017  10.998   8.834  2.3030  3.3118 -1.7362
  298MOL0     H41112  -0.195  11.080   8.422 -0.6421  0.2443  0.1884
  298MOL0     H41113  -0.296  11.009   8.545  0.0013 -0.2750  0.6044
  298MOL0     H41114  -0.243  11.308   8.514  1.4622 -0.3745  1.8707
  298MOL0     H41115  -0.310  11.225   8.651 -4.4792 -3.0814 -0.2131
  298MOL0     H41116  -0.485  11.125   8.503 -0.2601  1.1894 -0.4345
  298MOL0     H41117  -0.495  11.297   8.553  1.2887  1.2687  0.7668
  298MOL0     H41118  -0.366  11.196   8.284  0.1203 -0.1932  0.7708
  298MOL0     H41119  -0.422  11.346   8.314  2.1431  0.2782  2.5394
  298MOL0     H41120  -0.779  11.130   8.222 -1.1316  1.4738  0.1548
  298MOL0     H41121  -0.072  10.928   8.434 -0.8596  3.5602  2.0565
  298MOL0     H41122   0.178  10.739   8.338 -0.5766 -1.0850 -1.1030
  298MOL0     H41123   0.085  10.606   8.407  1.6003 -0.2499  0.9913
  298MOL0     H41124   0.007  10.735   8.321  0.3005 -2.8122 -0.8967
  299MOL0     O41125   9.423   2.726   4.294 -0.7500  0.3252 -0.2820
  299MOL0     C41126   9.317   2.701   4.352  0.2301  0.0455  1.4153
  299MOL0     O41127   9.251   2.584   4.345  0.2985 -0.8730 -0.2273
  299MOL0     C41128   9.305   2.482   4.272 -0.4538 -0.0758  0.1049
  299MOL0     C41129   9.415   2.409   4.333  0.3270  0.2711  0.6894
  299MOL0     C41130   9.482   2.296   4.272 -0.5617 -0.2354  0.2435
  299MOL0     C41131   9.443   2.269   4.141  0.2977  1.3644 -0.2467
  299MOL0     O41132   9.488   2.153   4.073  0.3910  0.5437  0.4897
  299MOL0     C41133   9.519   2.166   3.931  0.4355  0.0439  0.0286
  299MOL0     C41134   9.646   2.090   3.908 -0.0832  0.1050  0.1072
  299MOL0     C41135   9.689   2.068   3.761  0.6914 -0.7784 -0.3077
  299MOL0     C41136   9.798   2.172   3.728 -0.1313  0.4483 -0.8068
  299MOL0     C41137   9.844   2.167   3.578 -0.1695  0.0056  0.7197
  299MOL0     C41138   9.954   2.260   3.520  0.9177 -0.9527  0.6681
  299MOL0     C41139  10.095   2.226   3.575 -0.5002 -0.4782 -0.0989
  299MOL0     C41140  10.204   2.301   3.500  0.5787 -0.4697 -0.3799
  299MOL0     N41141  10.336   2.270   3.560 -0.1333  0.0108 -0.3441
  299MOL0     C41142  10.409   2.346   3.651  0.4268  0.6261  0.1558
  299MOL0     C41143  10.526   2.281   3.665 -0.7727  0.1409 -0.0908
  299MOL0     C41144  10.621   2.315   3.776 -0.6378  0.2118 -0.4839
  299MOL0     C41145  10.634   2.201   3.876  0.1766 -0.3855 -0.0529
  299MOL0     C41146  10.503   2.175   3.952  0.4789 -0.4019 -0.2411
  299MOL0     C41147  10.515   2.044   4.026 -0.0408 -0.4124 -0.5745
  299MOL0     O41148  10.405   2.018   4.112 -0.1925 -0.2060 -0.1975
  299MOL0     C41149  10.400   2.084   4.236  0.5301  0.2345 -0.1019
  299MOL0     C41150  10.288   2.045   4.308  0.6873 -0.3999 -0.1646
  299MOL0     C41151  10.261   2.087   4.440 -0.7914  0.8351  0.0685
  299MOL0     C41152  10.138   2.018   4.499  0.5119 -0.2389 -0.8171
  299MOL0     C41153  10.350   2.178   4.496 -0.3165 -0.2837 -0.4139
  299MOL0     C41154  10.325   2.253   4.627  0.7025 -0.0656 -0.5068
  299MOL0     O41155  10.210   2.222   4.698  0.1695 -0.6197  0.2783
  299MOL0     C41156  10.181   2.295   4.809  0.6247  1.0640 -0.1217
  299MOL0     C41157  10.077   2.382   4.827  0.6404  0.5205 -0.7294
  299MOL0     C41158  10.060   2.454   4.947 -0.5469  0.2318 -0.2584
  299MOL0     C41159  10.146   2.425   5.057 -0.0731 -0.4689 -0.4524
  299MOL0     O41160  10.137   2.477   5.183 -0.3159 -0.1645 -0.3435
  299MOL0     C41161  10.091   2.614   5.197 -0.5413  0.3014 -0.8578
  299MOL0     C41162  10.096   2.648   5.346  0.1066  0.0451  0.8445
  299MOL0     C41163  10.054   2.795   5.374 -0.3384 -0.1032  0.1802
  299MOL0     C41164  10.022   2.800   5.521 -0.5654 -0.1307 -0.0484
  299MOL0     C41165  10.038   2.949   5.568  0.0959  0.7264 -0.3221
  299MOL0     C41166   9.916   2.991   5.649  0.3315 -0.1028  0.7815
  299MOL0     C41167   9.780   2.984   5.570 -0.0541  0.6178  0.1690
  299MOL0     C41168   9.687   3.081   5.637  0.7022 -0.0481  0.1873
  299MOL0    Cl41169   9.592   2.989   5.758  0.2318  0.0274 -0.0083
  299MOL0     C41170  10.242   2.327   5.046 -0.3156 -0.5252  0.4902
  299MOL0     C41171  10.266   2.269   4.915 -0.9968 -0.7771 -0.2491
  299MOL0     O41172  10.407   2.335   4.658  0.2356 -0.2515  0.3435
  299MOL0     C41173  10.461   2.213   4.419 -0.7834 -0.9786 -0.1200
  299MOL0     C41174  10.487   2.170   4.293 -0.0665  0.2885 -0.0675
  299MOL0     N41175  10.524   2.161   3.598  0.7368 -0.1203  0.4077
  299MOL0     N41176  10.401   2.154   3.547 -0.6882  0.1501 -0.2261
  299MOL0     C41177   9.328   2.345   4.082  0.4820  0.5956 -0.2573
  299MOL0     C41178   9.272   2.456   4.142 -0.4708  0.0012  0.0340
  299MOL0     C41179   9.260   2.819   4.419 -0.2029 -0.5906  0.2767
  299MOL0     C41180   9.191   2.779   4.538  1.3263 -0.9202  0.3000
  299MOL0     C41181   9.126   2.879   4.614  0.0438  0.5725 -0.0663
  299MOL0     C41182   9.120   3.013   4.566  0.4116 -0.0850 -0.8913
  299MOL0     O41183   9.050   3.113   4.636 -0.5125 -0.3968  0.1157
  299MOL0     C41184   9.041   3.091   4.785  0.4715 -0.3523 -0.3950
  299MOL0     C41185   8.969   3.203   4.858  0.0613 -0.1438  0.0237
  299MOL0     C41186   9.061   3.335   4.865  0.2837  0.1805 -0.3400
  299MOL0     C41187   8.979   3.440   4.930 -0.1558 -0.5888 -0.4640
  299MOL0     C41188   8.871   3.490   4.851  0.0077 -0.2383 -0.0423
  299MOL0     C41189   8.774   3.544   4.801 -0.8441  0.2367 -0.5755
  299MOL0     C41190   9.186   3.044   4.450  0.0068 -0.4217  0.5802
  299MOL0     C41191   9.256   2.952   4.371  0.6103  0.5216 -0.0654
  299MOL0     C41192   9.340   2.995   4.250 -0.2342 -0.1168 -0.6689
  299MOL0     H41193   9.446   2.446   4.430 -1.0045 -2.4190  2.2381
  299MOL0     H41194   9.556   2.240   4.328 -0.0028 -2.5904 -2.6089
  299MOL0     H41195   9.527   2.268   3.894  2.2161 -0.5096 -1.2280
  299MOL0     H41196   9.441   2.123   3.868  1.0252  1.8218 -1.9978
  299MOL0     H41197   9.722   2.136   3.971 -1.8916  1.0075  1.7438
  299MOL0     H41198   9.639   1.990   3.949 -0.7111  0.0353 -0.1575
  299MOL0     H41199   9.730   1.967   3.752  3.0836  0.1895 -1.1621
  299MOL0     H41200   9.596   2.081   3.704 -0.1902 -1.1205  1.0031
  299MOL0     H41201   9.761   2.270   3.760 -1.6914 -0.5955  0.7569
  299MOL0     H41202   9.890   2.157   3.786  1.0804 -0.3724 -2.8487
  299MOL0     H41203   9.758   2.183   3.513  0.0791  1.7706  0.7801
  299MOL0     H41204   9.874   2.063   3.560  2.4042  0.8365 -0.2844
  299MOL0     H41205   9.957   2.251   3.411  2.1848 -0.3450  0.6372
  299MOL0     H41206   9.931   2.364   3.544  1.3410 -0.6886 -0.0571
  299MOL0     H41207  10.097   2.117   3.561  0.6303 -0.4402 -0.3245
  299MOL0     H41208  10.097   2.255   3.680 -2.9903 -1.5049  0.3119
  299MOL0     H41209  10.187   2.267   3.397  0.0632 -2.5673  0.3548
  299MOL0     H41210  10.191   2.410   3.502 -0.7393 -0.5546 -1.9450
  299MOL0     H41211  10.372   2.425   3.715 -0.1852  1.6152 -1.3831
  299MOL0     H41212  10.568   2.400   3.821 -0.8201 -0.0290 -0.2340
  299MOL0     H41213  10.713   2.355   3.734 -1.0756  0.9611 -0.7487
  299MOL0     H41214  10.657   2.111   3.819 -0.9310 -3.2324  3.5726
  299MOL0     H41215  10.701   2.234   3.956 -2.4625  2.7279  1.1023
  299MOL0     H41216  10.469   2.257   4.016 -4.8750 -2.3557 -0.0372
  299MOL0     H41217  10.419   2.164   3.882  0.4792  3.9451 -1.1830
  299MOL0     H41218  10.527   1.962   3.954 -2.0301 -0.5595 -0.7902
  299MOL0     H41219  10.609   2.056   4.080  2.0766  1.1704 -4.2459
  299MOL0     H41220  10.228   1.973   4.254  2.6075 -1.9196 -0.3944
  299MOL0     H41221  10.108   1.920   4.459 -0.0537 -0.4431  0.0603
  299MOL0     H41222  10.065   2.099   4.498 -1.9742 -2.1742  2.2764
  299MOL0     H41223  10.153   1.987   4.603 -0.7309 -1.5857 -1.0054
  299MOL0     H41224   9.988   2.394   4.765  0.4101  1.6645 -0.2150
  299MOL0     H41225   9.984   2.531   4.950  0.3695  1.2103 -1.1652
  299MOL0     H41226  10.158   2.685   5.147 -0.1993 -0.5352 -1.6126
  299MOL0     H41227   9.991   2.626   5.153 -0.1545  0.3516 -1.7453
  299MOL0     H41228  10.035   2.573   5.397 -3.0005  0.6628 -1.6665
  299MOL0     H41229  10.201   2.642   5.378 -0.3227  0.7682  2.5291
  299MOL0     H41230   9.962   2.816   5.320 -1.5130 -1.8386  1.4038
  299MOL0     H41231  10.140   2.858   5.349 -0.6934  1.8752  3.5115
  299MOL0     H41232  10.096   2.742   5.577 -1.5249 -0.1229  1.2657
  299MOL0     H41233   9.925   2.755   5.544 -1.1081  1.7665  1.7001
  299MOL0     H41234  10.130   2.956   5.626 -0.1316  0.0844  0.1294
  299MOL0     H41235  10.055   3.010   5.479 -0.2996  0.2050 -0.7647
  299MOL0     H41236   9.931   3.096   5.675 -0.6964  1.1575 -2.9665
  299MOL0     H41237   9.912   2.928   5.738  2.6367 -2.7152 -0.7870
  299MOL0     H41238   9.743   2.881   5.572 -0.6218  0.8242  0.4255
  299MOL0     H41239   9.801   3.012   5.466  2.3886 -1.7248 -0.0737
  299MOL0     H41240   9.616   3.125   5.566  0.6821  1.4809  1.1114
  299MOL0     H41241   9.738   3.171   5.673 -0.9126  1.7380 -1.7108
  299MOL0     H41242  10.314   2.304   5.124  0.2555 -1.4855 -0.3005
  299MOL0     H41243  10.351   2.208   4.887 -0.2106  0.7172 -1.2577
  299MOL0     H41244  10.530   2.292   4.446 -3.6816  2.0338 -0.7797
  299MOL0     H41245  10.584   2.185   4.246 -1.0623  1.5498 -1.8383
  299MOL0     H41246   9.293   2.328   3.980 -3.8115  2.8123  0.5816
  299MOL0     H41247   9.191   2.512   4.095 -2.5620 -0.6709  2.5926
  299MOL0     H41248   9.208   2.682   4.582 -1.6212 -1.7161 -0.0878
  299MOL0     H41249   9.082   2.841   4.706  1.9580 -0.8568  0.3116
  299MOL0     H41250   8.974   3.006   4.800  0.3908 -0.7184 -2.4812
  299MOL0     H41251   9.142   3.069   4.822  1.1653 -0.2511 -2.1104
  299MOL0     H41252   8.916   3.168   4.948 -1.4750  0.4283 -0.6293
  299MOL0     H41253   8.889   3.227   4.788 -0.8589 -1.8766  0.4115
  299MOL0     H41254   9.158   3.320   4.912 -0.0401  0.4794  0.4343
  299MOL0     H41255   9.088   3.364   4.763 -0.2976 -1.7200 -1.0816
  299MOL0     H41256   9.035   3.529   4.963 -0.8151  0.5491 -2.2635
  299MOL0     H41257   8.934   3.389   5.016  1.5705 -0.1966  0.7280
  299MOL0     H41258   8.690   3.574   4.742 -0.8590  0.3179 -0.5147
  299MOL0     H41259   9.174   3.144   4.411  2.6535 -1.1161 -2.4757
  299MOL0     H41260   9.336   3.104   4.248 -4.7437 -0.0343  0.7145
  299MOL0     H41261   9.442   2.961   4.268 -0.5869 -0.9579 -0.1804
  299MOL0     H41262   9.297   2.957   4.157 -0.9283 -0.7850 -0.0911
  300MOL0     O41263  11.158   0.141   1.688 -0.7217 -0.3953 -0.2474
  300MOL0     C41264  11.076   0.087   1.617  0.3694  0.1360 -0.2705
  300MOL0     O41265  11.106  -0.019   1.540  0.1431 -0.4520  0.2540
  300MOL0     C41266  11.221  -0.096   1.560 -0.9165  0.0881 -0.5704
  300MOL0     C41267  11.349  -0.031   1.557  0.2352 -0.5060 -0.4751
  300MOL0     C41268  11.460  -0.104   1.586 -0.8483 -0.7366  0.2109
  300MOL0     C41269  11.457  -0.237   1.618 -0.1068  0.1219 -0.4489
  300MOL0     O41270  11.568  -0.298   1.664 -0.7235 -0.2000 -0.9502
  300MOL0     C41271  11.578  -0.302   1.806  0.2218  0.3153 -0.1355
  300MOL0     C41272  11.715  -0.319   1.855 -0.3390  0.1397 -0.2196
  300MOL0     C41273  11.777  -0.445   1.796 -1.3462 -0.0628  0.1684
  300MOL0     C41274  11.705  -0.582   1.833  0.4609  0.7721  0.3020
  300MOL0     C41275  11.805  -0.710   1.819  0.1212 -0.0839  0.7379
  300MOL0     C41276  11.746  -0.844   1.874 -0.3355  0.0770 -0.3145
  300MOL0     C41277  11.617  -0.884   1.802  0.5656 -0.2306 -0.7070
  300MOL0     C41278  11.548  -1.012   1.855 -0.6075 -0.2229  0.3697
  300MOL0     N41279  11.513  -1.009   1.997  0.0814  0.4127  0.0664
  300MOL0     C41280  11.596  -1.032   2.105 -0.2373  0.3044  0.0500
  300MOL0     C41281  11.529  -0.995   2.222 -0.3575 -0.2339  0.2104
  300MOL0     C41282  11.586  -1.014   2.357  1.2686  0.0998  0.1415
  300MOL0     C41283  11.687  -0.899   2.390  0.2769  0.1298 -0.6066
  300MOL0     C41284  11.706  -0.878   2.536  0.1092 -0.1007 -0.3733
  300MOL0     C41285  11.764  -1.007   2.605 -0.8054 -0.3277 -0.2731
  300MOL0     O41286  11.867  -0.987   2.696  0.3276 -0.3431 -0.3301
  300MOL0     C41287  11.831  -0.901   2.797 -0.5685 -0.2200  0.3616
  300MOL0     C41288  11.719  -0.905   2.883  0.1569  0.0665  0.2124
  300MOL0     C41289  11.690  -0.802   2.975  0.1461  0.1909  0.3362
  300MOL0     C41290  11.568  -0.819   3.060  0.7056  0.2991 -0.0283
  300MOL0     C41291  11.778  -0.691   2.988 -0.5719  0.2583 -0.7368
  300MOL0     C41292  11.750  -0.580   3.078  0.1531 -0.2447 -0.1036
  300MOL0     O41293  11.817  -0.469   3.045 -0.0513 -0.2739 -0.6307
  300MOL0     C41294  11.791  -0.344   3.114 -0.2334 -0.0567  0.1772
  300MOL0     C41295  11.771  -0.325   3.248 -0.0330  0.2575  0.4229
  300MOL0     C41296  11.739  -0.204   3.307  1.2518  1.3180  1.0368
  300MOL0     C41297  11.737  -0.089   3.225 -0.1312  0.6805  0.7092
  300MOL0     O41298  11.728   0.029   3.291  0.1548 -0.2457  0.6157
  300MOL0     C41299  11.812   0.143   3.242 -0.2266  0.1586 -0.5447
  300MOL0     C41300  11.733   0.265   3.187  0.6633  0.4779 -0.1357
  300MOL0     C41301  11.805   0.387   3.131 -0.1363  0.6298 -1.1147
  300MOL0     C41302  11.828   0.380   2.986 -0.2053 -0.3064  0.5626
  300MOL0     C41303  11.916   0.497   2.937 -0.1643 -0.0868 -0.6471
  300MOL0     C41304  11.988   0.465   2.810  0.5190 -0.1704  0.3938
  300MOL0     C41305  11.892   0.503   2.690 -0.0002  0.0887 -0.3942
  300MOL0     C41306  11.966   0.575   2.574  0.5125  0.3954  0.5607
  300MOL0    Cl41307  12.105   0.485   2.501  0.1068  0.2519  0.1592
  300MOL0     C41308  11.746  -0.109   3.088 -0.1160 -0.3379  0.6639
  300MOL0     C41309  11.784  -0.236   3.033  0.6124  0.5014  0.1248
  300MOL0     O41310  11.681  -0.595   3.178  0.0461 -0.3826 -0.1444
  300MOL0     C41311  11.884  -0.679   2.900  0.1237  0.1953  0.2008
  300MOL0     C41312  11.909  -0.782   2.809 -1.1358  0.3502 -0.2412
  300MOL0     N41313  11.402  -0.958   2.179  0.0890  0.0617 -0.4636
  300MOL0     N41314  11.394  -0.975   2.052 -0.2784 -0.1240 -0.0808
  300MOL0     C41315  11.331  -0.302   1.631 -0.2674 -0.6093  0.2027
  300MOL0     C41316  11.212  -0.233   1.595  0.1752 -0.4066 -0.2791
  300MOL0     C41317  10.941   0.152   1.594  0.1250 -0.1694 -0.1343
  300MOL0     C41318  10.838   0.066   1.563 -0.4122 -0.2721 -0.7579
  300MOL0     C41319  10.709   0.112   1.557 -0.5106 -0.3633 -0.6653
  300MOL0     C41320  10.678   0.245   1.582  0.7638 -0.4535 -0.6995
  300MOL0     O41321  10.550   0.284   1.588 -0.9774  0.2042  0.1024
  300MOL0     C41322  10.502   0.374   1.690 -0.8892  0.7571  0.2342
  300MOL0     C41323  10.359   0.357   1.718 -0.2719  0.6085 -0.1663
  300MOL0     C41324  10.273   0.389   1.596  0.1669  0.3842  0.7872
  300MOL0     C41325  10.126   0.355   1.633  0.3396  0.0094 -0.7584
  300MOL0     C41326  10.036   0.435   1.558  0.4429  0.3820  0.5015
  300MOL0     C41327   9.963   0.508   1.492 -0.0980  0.3698  0.0799
  300MOL0     C41328  10.783   0.337   1.585  0.3518 -0.3073  1.0288
  300MOL0     C41329  10.919   0.290   1.593 -1.2315  0.3614 -0.4019
  300MOL0     C41330  11.024   0.393   1.616 -0.5419  0.3265  0.0784
  300MOL0     H41331  11.352   0.078   1.556  0.8446 -0.5192 -1.1959
  300MOL0     H41332  11.553  -0.052   1.565 -0.5031 -1.2511  0.4580
  300MOL0     H41333  11.525  -0.392   1.839 -1.2245  0.4497 -1.9365
  300MOL0     H41334  11.531  -0.217   1.856 -0.8766 -0.7423  0.7052
  300MOL0     H41335  11.767  -0.224   1.842 -3.1897  1.7621 -0.6496
  300MOL0     H41336  11.711  -0.317   1.964 -2.6657  1.8313 -0.2549
  300MOL0     H41337  11.778  -0.436   1.687  0.3885  1.4321  0.2531
  300MOL0     H41338  11.881  -0.456   1.830 -2.6070 -0.3743  4.5686
  300MOL0     H41339  11.663  -0.577   1.934 -1.7125 -3.6808 -0.1776
  300MOL0     H41340  11.611  -0.601   1.782 -0.5568  2.3093  1.5114
  300MOL0     H41341  11.901  -0.687   1.867 -1.0600  1.6552  2.3984
  300MOL0     H41342  11.825  -0.721   1.712  0.2424  0.3780  0.7095
  300MOL0     H41343  11.820  -0.924   1.866 -2.5505 -2.0133 -1.3466
  300MOL0     H41344  11.729  -0.841   1.982 -0.7422 -2.2832 -0.2608
  300MOL0     H41345  11.636  -0.888   1.695 -0.4332  0.6143 -0.9354
  300MOL0     H41346  11.552  -0.797   1.817  2.2428  0.5067  3.8491
  300MOL0     H41347  11.458  -1.029   1.794  0.4644 -2.0969 -0.8220
  300MOL0     H41348  11.624  -1.090   1.844  2.0234  2.3525 -1.3280
  300MOL0     H41349  11.698  -1.068   2.098 -1.3914 -3.2367 -1.3662
  300MOL0     H41350  11.632  -1.111   2.375  0.6766  0.0063  1.3094
  300MOL0     H41351  11.502  -1.004   2.427  1.3187 -0.0565  0.2237
  300MOL0     H41352  11.781  -0.929   2.342  0.6820 -1.3656  1.0240
  300MOL0     H41353  11.651  -0.805   2.347 -0.7354  0.2009  0.3694
  300MOL0     H41354  11.780  -0.800   2.556 -1.0877  0.6404  1.3716
  300MOL0     H41355  11.606  -0.857   2.574 -1.1750 -2.6754 -1.9757
  300MOL0     H41356  11.689  -1.054   2.669  1.4232  0.7931  3.5022
  300MOL0     H41357  11.802  -1.085   2.538 -0.9512 -1.4970  0.9616
  300MOL0     H41358  11.665  -0.998   2.895 -2.0076  1.5455  2.8419
  300MOL0     H41359  11.504  -0.899   3.020  0.1785  1.7108 -2.1733
  300MOL0     H41360  11.495  -0.738   3.057 -3.6391 -3.2127 -0.3123
  300MOL0     H41361  11.597  -0.827   3.165 -0.7344  4.4373  0.8749
  300MOL0     H41362  11.774  -0.406   3.320 -0.8179 -0.6120 -0.4979
  300MOL0     H41363  11.718  -0.189   3.412 -0.4102 -3.3262  1.5937
  300MOL0     H41364  11.879   0.167   3.325 -1.7358 -0.6266  1.0059
  300MOL0     H41365  11.858   0.100   3.153 -0.0161  2.2676 -1.4878
  300MOL0     H41366  11.667   0.220   3.113  2.9882 -2.8007 -0.4427
  300MOL0     H41367  11.676   0.297   3.275  1.9000  1.8846  0.2046
  300MOL0     H41368  11.894   0.407   3.190 -0.7669  0.5525 -0.1063
  300MOL0     H41369  11.736   0.470   3.149  2.0622  1.9360  2.3553
  300MOL0     H41370  11.738   0.383   2.925 -0.9375 -0.8739  1.5847
  300MOL0     H41371  11.869   0.283   2.958 -0.5892 -0.4469  0.4894
  300MOL0     H41372  11.860   0.590   2.926 -0.8916 -0.3469  0.6300
  300MOL0     H41373  11.999   0.518   3.004  1.3652 -1.5392 -2.0008
  300MOL0     H41374  12.024   0.362   2.811  1.3128  0.0753 -0.4214
  300MOL0     H41375  12.077   0.527   2.795  0.9990 -0.7106  0.9924
  300MOL0     H41376  11.801   0.557   2.719  0.8398  2.2483 -1.5392
  300MOL0     H41377  11.872   0.399   2.663 -1.1333  0.1964 -0.0220
  300MOL0     H41378  11.995   0.676   2.605 -0.6862  0.1148  2.7882
  300MOL0     H41379  11.896   0.596   2.493  1.3230 -0.2589 -0.3358
  300MOL0     H41380  11.741  -0.028   3.015  2.5922  0.5881  1.3767
  300MOL0     H41381  11.782  -0.261   2.927 -2.0922 -2.9554  0.8085
  300MOL0     H41382  11.955  -0.597   2.904 -0.4540  0.7105  3.6293
  300MOL0     H41383  11.999  -0.761   2.752 -1.8744  3.2844 -0.4574
  300MOL0     H41384  11.333  -0.409   1.651 -1.4548 -0.7096 -0.1091
  300MOL0     H41385  11.110  -0.272   1.597 -0.3061  0.7953  1.4849
  300MOL0     H41386  10.845  -0.041   1.544 -2.6934 -0.5241 -0.3551
  300MOL0     H41387  10.625   0.044   1.547 -0.7117 -0.2019 -0.0898
  300MOL0     H41388  10.564   0.371   1.780  2.1345 -0.4003 -1.7241
  300MOL0     H41389  10.512   0.479   1.660  1.8744  0.3020 -0.8153
  300MOL0     H41390  10.324   0.423   1.798 -1.9974  0.6330 -0.9077
  300MOL0     H41391  10.337   0.252   1.742  1.3914  0.3810  0.5757
  300MOL0     H41392  10.283   0.496   1.575  0.3755  0.3421  0.6768
  300MOL0     H41393  10.311   0.333   1.511  0.1221 -0.5598  1.3836
  300MOL0     H41394  10.101   0.375   1.738  0.8761 -0.7731 -0.4737
  300MOL0     H41395  10.087   0.256   1.607 -1.1968  0.1705  0.7074
  300MOL0     H41396   9.912   0.576   1.426 -0.8899 -0.6326 -0.3868
  300MOL0     H41397  10.767   0.444   1.578 -0.9085 -0.5363  0.0285
  300MOL0     H41398  10.995   0.484   1.563 -1.1622 -0.0909 -0.3139
  300MOL0     H41399  11.050   0.411   1.721  2.9338  0.4064 -0.6491
  300MOL0     H41400  11.116   0.361   1.564 -1.9153 -3.8681 -0.1705
  301MOL0     O41401   3.831   2.389   1.870  0.7237  0.1633 -0.2107
  301MOL0     C41402   3.753   2.464   1.802  0.4093  0.5769 -0.1603
  301MOL0     O41403   3.782   2.506   1.680 -0.5287  0.0243 -0.5454
  301MOL0     C41404   3.914   2.506   1.645 -0.3585  0.2344  0.0619
  301MOL0     C41405   4.000   2.601   1.688 -0.5664  0.0684  0.1356
  301MOL0     C41406   4.129   2.620   1.641  0.1607  0.5656 -1.1960
  301MOL0     C41407   4.183   2.524   1.553 -0.7127 -0.5125  0.4156
  301MOL0     O41408   4.306   2.530   1.498 -0.7383  0.5173  0.0885
  301MOL0     C41409   4.357   2.658   1.476 -0.4694  0.4140 -0.0755
  301MOL0     C41410   4.444   2.712   1.581 -0.2072 -0.3501 -1.1399
  301MOL0     C41411   4.454   2.866   1.565 -0.1318  0.3602 -0.3150
  301MOL0     C41412   4.526   2.922   1.690  0.4848 -0.2192 -0.4446
  301MOL0     C41413   4.582   3.065   1.666  0.1750 -0.1872  1.0896
  301MOL0     C41414   4.725   3.057   1.598  0.0650  0.0672 -0.0695
  301MOL0     C41415   4.768   3.199   1.546 -0.1019  0.0894  0.1964
  301MOL0     C41416   4.899   3.196   1.462  0.7405  0.1540 -0.4958
  301MOL0     N41417   5.015   3.127   1.536  0.2104 -0.6969 -0.1996
  301MOL0     C41418   5.104   3.200   1.613 -0.0698 -1.0577  0.4796
  301MOL0     C41419   5.195   3.114   1.652 -0.4198 -1.1724 -0.7374
  301MOL0     C41420   5.307   3.142   1.747  0.7576  0.9051  0.3892
  301MOL0     C41421   5.420   3.227   1.684  1.1826 -0.2739  0.3617
  301MOL0     C41422   5.520   3.145   1.609 -0.1464 -0.6791  0.0715
  301MOL0     C41423   5.606   3.236   1.521 -0.1272  0.9151  0.7183
  301MOL0     O41424   5.688   3.317   1.604  0.0194 -0.2329 -0.6802
  301MOL0     C41425   5.812   3.363   1.561 -0.0295 -0.4946 -0.9178
  301MOL0     C41426   5.904   3.413   1.650  1.2267  0.0336  0.1841
  301MOL0     C41427   6.035   3.463   1.613 -0.1091  1.0864  0.0644
  301MOL0     C41428   6.131   3.494   1.724  0.1254 -0.2329 -0.1486
  301MOL0     C41429   6.081   3.466   1.481  1.5766  0.4856  0.9366
  301MOL0     C41430   6.206   3.529   1.424 -0.0063  0.9072 -1.4129
  301MOL0     O41431   6.263   3.634   1.501  1.3140 -0.5203 -0.2112
  301MOL0     C41432   6.368   3.698   1.445  0.0958  0.4312  0.6628
  301MOL0     C41433   6.341   3.790   1.345  0.1080  0.0232 -0.4447
  301MOL0     C41434   6.451   3.852   1.276 -1.2769 -0.9363 -0.7293
  301MOL0     C41435   6.589   3.803   1.301  0.2243 -0.0545 -0.0330
  301MOL0     O41436   6.706   3.852   1.236  0.1262  0.4787  1.5041
  301MOL0     C41437   6.696   3.947   1.123 -0.8410  0.7785  0.6274
  301MOL0     C41438   6.839   3.987   1.070 -0.4658 -0.7344  0.1005
  301MOL0     C41439   6.918   4.058   1.180  0.5017  0.4826  0.1309
  301MOL0     C41440   7.011   4.153   1.117  0.7546  1.3170  0.7431
  301MOL0     C41441   7.122   4.195   1.210  0.3314 -0.3599 -0.7141
  301MOL0     C41442   7.206   4.315   1.159  0.8574 -0.2673 -0.4171
  301MOL0     C41443   7.298   4.374   1.279  1.1416 -0.1270  0.1658
  301MOL0     C41444   7.419   4.278   1.323  0.7864 -0.1912  0.1700
  301MOL0    Cl41445   7.503   4.355   1.456  0.0367 -0.3117 -0.6840
  301MOL0     C41446   6.601   3.724   1.417 -0.6288 -0.1869 -0.8660
  301MOL0     C41447   6.495   3.671   1.492  0.0720  0.0979 -0.5170
  301MOL0     O41448   6.249   3.478   1.322  0.0539  0.1618  0.5945
  301MOL0     C41449   5.981   3.406   1.392 -0.3406 -0.6028 -0.3224
  301MOL0     C41450   5.854   3.359   1.432 -0.3904 -0.3305  0.6025
  301MOL0     N41451   5.163   2.993   1.599 -1.4250  0.0574  0.1576
  301MOL0     N41452   5.062   3.005   1.526  0.4674  0.0328 -0.1175
  301MOL0     C41453   4.107   2.420   1.508  1.3973 -0.2237 -0.7196
  301MOL0     C41454   3.969   2.409   1.558 -0.5857  0.6357 -0.2898
  301MOL0     C41455   3.617   2.491   1.852 -0.2806  0.5940  0.0562
  301MOL0     C41456   3.555   2.610   1.809 -0.3282 -0.5098 -0.4876
  301MOL0     C41457   3.428   2.645   1.859 -0.3144  0.6172 -0.4599
  301MOL0     C41458   3.361   2.566   1.961 -0.0583  0.3299 -0.0361
  301MOL0     O41459   3.249   2.629   2.006 -0.6962  0.5778 -0.3311
  301MOL0     C41460   3.161   2.575   2.099  0.1510 -0.2288 -0.3840
  301MOL0     C41461   3.186   2.654   2.223  0.2301  1.1139  0.9693
  301MOL0     C41462   3.089   2.618   2.334  0.2869  0.4888 -1.1608
  301MOL0     C41463   2.968   2.705   2.310 -0.3931  0.1226  0.3860
  301MOL0     C41464   2.875   2.641   2.209 -0.4221 -0.3051 -0.0934
  301MOL0     C41465   2.800   2.602   2.128 -0.9761  0.4324  0.1182
  301MOL0     C41466   3.420   2.441   1.992  0.5495  0.6343  0.6038
  301MOL0     C41467   3.548   2.404   1.947 -0.1064 -0.0784  0.2812
  301MOL0     C41468   3.595   2.274   1.994 -0.1112 -0.1129  0.1931
  301MOL0     H41469   3.951   2.665   1.760 -2.8822 -0.8266 -0.5600
  301MOL0     H41470   4.175   2.707   1.687 -0.3642 -0.7811  2.1597
  301MOL0     H41471   4.273   2.724   1.453 -1.3099 -0.3072  0.7701
  301MOL0     H41472   4.419   2.653   1.387  0.7304  1.5319  0.6591
  301MOL0     H41473   4.394   2.696   1.677  1.3209  2.1376  0.1792
  301MOL0     H41474   4.538   2.657   1.593 -1.3057 -1.7602  2.1790
  301MOL0     H41475   4.515   2.892   1.478  1.5058 -0.0473  0.6613
  301MOL0     H41476   4.353   2.905   1.548  0.4811  2.2134  0.0809
  301MOL0     H41477   4.451   2.922   1.770  0.5503 -1.2505 -0.3766
  301MOL0     H41478   4.600   2.856   1.736 -0.2899  1.2848  3.3621
  301MOL0     H41479   4.588   3.120   1.760  1.1153 -1.3158  1.7223
  301MOL0     H41480   4.514   3.107   1.592  2.4138  0.8022 -0.5034
  301MOL0     H41481   4.787   3.006   1.673 -1.4903 -4.2139 -1.4321
  301MOL0     H41482   4.723   2.984   1.516  3.2701 -0.1136 -0.1365
  301MOL0     H41483   4.795   3.250   1.639 -1.5326 -0.8692  1.1705
  301MOL0     H41484   4.694   3.254   1.488  2.0711  5.0455  1.5807
  301MOL0     H41485   4.888   3.141   1.368  1.5953  0.2915 -0.6890
  301MOL0     H41486   4.929   3.300   1.443 -0.2022  0.9667  2.0298
  301MOL0     H41487   5.110   3.307   1.623  0.9220 -0.9747 -0.7289
  301MOL0     H41488   5.347   3.044   1.774 -2.7958 -0.8270 -0.0463
  301MOL0     H41489   5.264   3.185   1.838 -0.8902  3.5198 -1.4699
  301MOL0     H41490   5.369   3.304   1.625 -2.2092 -2.7895 -0.2390
  301MOL0     H41491   5.465   3.268   1.775  0.7589  1.2202 -0.0760
  301MOL0     H41492   5.581   3.096   1.686 -0.3471 -0.5090  0.3385
  301MOL0     H41493   5.472   3.075   1.540  0.6420  0.5917 -1.8706
  301MOL0     H41494   5.658   3.170   1.451 -1.8257 -0.6581  0.8832
  301MOL0     H41495   5.547   3.301   1.456  2.2308  0.2859 -2.2833
  301MOL0     H41496   5.870   3.409   1.753 -0.0831 -0.3999 -0.2499
  301MOL0     H41497   6.129   3.418   1.803  0.1681 -1.2664 -1.1158
  301MOL0     H41498   6.122   3.594   1.766 -0.0779  0.3549 -1.5353
  301MOL0     H41499   6.238   3.491   1.700  1.2173  1.7275  3.6995
  301MOL0     H41500   6.241   3.820   1.317  0.5167  0.5507 -1.3719
  301MOL0     H41501   6.434   3.925   1.198 -0.2712 -1.1984 -1.2118
  301MOL0     H41502   6.651   3.891   1.041  1.5892  0.3398 -0.4819
  301MOL0     H41503   6.636   4.031   1.160 -1.5311  0.0013  1.3468
  301MOL0     H41504   6.902   3.903   1.037  0.4416 -0.9283  2.1735
  301MOL0     H41505   6.833   4.060   0.988 -1.3024  1.2201  1.8275
  301MOL0     H41506   6.967   3.977   1.235  0.3941  0.9464  0.9295
  301MOL0     H41507   6.853   4.112   1.249 -1.2919  1.7274 -2.3583
  301MOL0     H41508   6.959   4.245   1.089 -1.7891 -0.9954 -2.9895
  301MOL0     H41509   7.054   4.111   1.026 -0.7058  0.3037  0.4769
  301MOL0     H41510   7.080   4.216   1.309  0.2528  0.9341 -1.0047
  301MOL0     H41511   7.186   4.108   1.229 -1.4468 -1.5054  0.3947
  301MOL0     H41512   7.139   4.392   1.119  1.0641 -0.5999 -1.4593
  301MOL0     H41513   7.269   4.283   1.075  0.7259 -1.8037  0.0245
  301MOL0     H41514   7.230   4.397   1.361 -1.0344  0.5365 -1.7447
  301MOL0     H41515   7.345   4.465   1.241  1.1771 -0.1610  0.1282
  301MOL0     H41516   7.480   4.248   1.237  0.3491 -1.2697  0.2226
  301MOL0     H41517   7.377   4.183   1.355  0.1039  0.3351  0.8742
  301MOL0     H41518   6.702   3.699   1.448  0.5590  3.2973 -1.4894
  301MOL0     H41519   6.511   3.610   1.580  2.9836  1.0734 -0.2474
  301MOL0     H41520   6.004   3.396   1.287 -2.1713  0.8347 -0.8994
  301MOL0     H41521   5.787   3.332   1.351 -0.5033 -0.5708  0.7758
  301MOL0     H41522   4.145   2.347   1.436  0.1246 -1.6315 -0.0291
  301MOL0     H41523   3.902   2.327   1.534 -0.0479  0.6914 -2.1123
  301MOL0     H41524   3.587   2.657   1.716 -0.8291  0.0894 -0.3612
  301MOL0     H41525   3.389   2.739   1.820 -0.5834  0.1783 -1.2764
  301MOL0     H41526   3.057   2.589   2.068 -0.2889  1.4091  1.6296
  301MOL0     H41527   3.173   2.468   2.115  1.0231  0.2455  2.8532
  301MOL0     H41528   3.189   2.761   2.199  2.1569  1.5299  2.7573
  301MOL0     H41529   3.284   2.623   2.259  0.0179 -0.7624  0.0218
  301MOL0     H41530   3.064   2.512   2.342 -0.8593  0.9185  3.2083
  301MOL0     H41531   3.135   2.637   2.431  4.2739  1.0479 -2.9879
  301MOL0     H41532   2.999   2.803   2.273 -0.0988  0.5251  1.6315
  301MOL0     H41533   2.904   2.728   2.396 -1.8924  3.2015 -1.4007
  301MOL0     H41534   2.742   2.552   2.053 -0.0221  3.2482 -2.7332
  301MOL0     H41535   3.362   2.372   2.054 -0.4834  0.7779 -0.1775
  301MOL0     H41536   3.611   2.198   1.917  1.1948  0.0298  0.2993
  301MOL0     H41537   3.690   2.294   2.045  0.0715 -0.1379 -0.1320
  301MOL0     H41538   3.516   2.234   2.058  0.3761 -1.6163 -0.0922
  302MOL0     O41539   9.129   5.424   7.155  0.5835 -0.2773  0.0468
  302MOL0     C41540   9.061   5.414   7.053 -0.3787  0.5550 -0.0107
  302MOL0     O41541   8.923   5.383   7.054  0.5489  0.2058  0.4203
  302MOL0     C41542   8.852   5.383   7.172  0.2163 -0.8492  0.8390
  302MOL0     C41543   8.899   5.324   7.294  1.4206  0.9688  0.2449
  302MOL0     C41544   8.812   5.319   7.405  0.7091 -0.4130  1.1401
  302MOL0     C41545   8.685   5.378   7.402 -0.8556  0.4257 -0.0502
  302MOL0     O41546   8.612   5.384   7.524  0.3250 -0.3246  0.5238
  302MOL0     C41547   8.507   5.289   7.511  0.4707 -0.1871  0.0354
  302MOL0     C41548   8.542   5.156   7.588  0.2352  0.0502 -0.2174
  302MOL0     C41549   8.428   5.059   7.582  1.4041 -0.6199 -0.5400
  302MOL0     C41550   8.420   4.988   7.441 -0.2268  0.0577 -0.2245
  302MOL0     C41551   8.325   4.864   7.446 -0.5874 -0.1923 -0.0296
  302MOL0     C41552   8.178   4.910   7.492 -0.6177 -0.6042  0.2634
  302MOL0     C41553   8.077   4.793   7.493  0.1342  0.3341 -0.7198
  302MOL0     C41554   7.930   4.842   7.519  0.9052 -0.4393  0.1930
  302MOL0     N41555   7.929   4.956   7.607  0.1573  0.1702 -1.0051
  302MOL0     C41556   7.914   5.088   7.571  0.1673 -0.6781  0.1434
  302MOL0     C41557   7.899   5.153   7.685 -0.0238 -0.3961  0.1148
  302MOL0     C41558   7.878   5.302   7.673  0.2587 -0.1213 -0.2567
  302MOL0     C41559   7.756   5.343   7.759 -0.2201 -0.2782 -0.2868
  302MOL0     C41560   7.716   5.490   7.723 -0.6431  0.3687 -0.0138
  302MOL0     C41561   7.822   5.587   7.768  0.4499 -0.2209 -0.8956
  302MOL0     O41562   7.801   5.720   7.722 -0.5152  0.6256 -0.4737
  302MOL0     C41563   7.909   5.814   7.715  1.2429 -0.1996 -0.0152
  302MOL0     C41564   8.032   5.807   7.783  0.4289 -1.0665  0.0151
  302MOL0     C41565   8.116   5.918   7.775 -0.1241  0.2937 -0.6062
  302MOL0     C41566   8.236   5.904   7.860  0.8150  0.2062  0.2599
  302MOL0     C41567   8.092   6.025   7.677  0.4052 -0.4590 -0.0892
  302MOL0     C41568   8.197   6.121   7.640  0.0398  1.9295 -0.1098
  302MOL0     O41569   8.149   6.225   7.564 -0.1600 -0.4432  0.5718
  302MOL0     C41570   8.225   6.332   7.538  0.1961  0.1673 -0.3840
  302MOL0     C41571   8.283   6.404   7.637  0.1677 -0.3813  0.0881
  302MOL0     C41572   8.346   6.522   7.609 -0.9970  0.6347 -0.3102
  302MOL0     C41573   8.342   6.576   7.483 -0.1684 -0.3556  0.5762
  302MOL0     O41574   8.404   6.698   7.461  0.2945  0.8118 -0.2240
  302MOL0     C41575   8.366   6.757   7.342 -0.2500 -0.5579 -0.0887
  302MOL0     C41576   8.429   6.901   7.331  0.6920  0.6292  0.2592
  302MOL0     C41577   8.355   7.006   7.409  0.5950  0.0376  0.3268
  302MOL0     C41578   8.210   7.036   7.361  0.2484 -0.0066 -0.4922
  302MOL0     C41579   8.141   7.144   7.448  0.5325 -0.0770 -0.5260
  302MOL0     C41580   8.197   7.282   7.457 -1.2173  0.6446 -0.1496
  302MOL0     C41581   8.202   7.352   7.323  0.0837  0.4979  0.8146
  302MOL0     C41582   8.066   7.396   7.263 -0.3840  0.9985  1.2952
  302MOL0    Cl41583   7.979   7.521   7.373  0.1764  0.0413  0.0341
  302MOL0     C41584   8.277   6.501   7.374 -0.6864 -0.0109  0.2207
  302MOL0     C41585   8.223   6.380   7.408 -0.2630 -0.3615 -0.3840
  302MOL0     O41586   8.315   6.109   7.683  0.2988 -0.6165  0.2720
  302MOL0     C41587   7.965   6.023   7.607  0.0129  0.8714  0.0924
  302MOL0     C41588   7.878   5.917   7.627 -0.2807 -0.6862 -0.5365
  302MOL0     N41589   7.914   5.070   7.796  0.5269 -0.0731  0.1929
  302MOL0     N41590   7.939   4.950   7.742 -1.0000 -0.2437 -0.3796
  302MOL0     C41591   8.646   5.437   7.283  0.5696  0.4944 -0.2267
  302MOL0     C41592   8.722   5.441   7.159  0.2138  0.0928  0.4541
  302MOL0     C41593   9.130   5.444   6.934  0.2748 -1.6334 -0.0969
  302MOL0     C41594   9.045   5.487   6.825  0.0631 -0.5752 -0.3163
  302MOL0     C41595   9.094   5.543   6.707 -1.3342  0.3165  0.6566
  302MOL0     C41596   9.239   5.549   6.691  0.7576 -0.0243  0.5551
  302MOL0     O41597   9.271   5.592   6.562  0.1563  0.3604  0.2568
  302MOL0     C41598   9.412   5.609   6.537  0.3014 -0.3863 -1.0460
  302MOL0     C41599   9.438   5.672   6.400  0.1108 -0.0698  0.7998
  302MOL0     C41600   9.370   5.808   6.383 -0.0646  0.0480 -0.5097
  302MOL0     C41601   9.413   5.915   6.473 -0.1137  0.3428 -0.5983
  302MOL0     C41602   9.373   6.051   6.426 -0.4788 -0.0957  0.1331
  302MOL0     C41603   9.325   6.145   6.370 -0.1347  0.2220  0.8064
  302MOL0     C41604   9.321   5.503   6.785 -0.3127  0.4172 -0.4937
  302MOL0     C41605   9.274   5.447   6.909 -0.4889 -0.0210 -0.5967
  302MOL0     C41606   9.366   5.379   7.001 -0.4311  0.4115  0.2778
  302MOL0     H41607   8.996   5.279   7.311 -0.1814 -2.7499  0.6500
  302MOL0     H41608   8.849   5.274   7.497 -2.0491 -1.0063  2.0418
  302MOL0     H41609   8.481   5.262   7.408 -0.2932 -4.2792  1.1212
  302MOL0     H41610   8.428   5.339   7.566 -0.5540  0.6316 -2.0668
  302MOL0     H41611   8.648   5.132   7.574  1.1388  3.5512 -0.4334
  302MOL0     H41612   8.540   5.188   7.693 -2.1421  2.5566 -0.9008
  302MOL0     H41613   8.426   4.993   7.670  1.4648 -0.1654 -0.1945
  302MOL0     H41614   8.334   5.113   7.597  0.8719 -1.3018 -1.3198
  302MOL0     H41615   8.393   5.057   7.361 -0.1233  1.2362  0.7331
  302MOL0     H41616   8.521   4.959   7.408  0.6238  0.4319  1.9111
  302MOL0     H41617   8.372   4.794   7.515  1.0897  1.8721  1.0330
  302MOL0     H41618   8.324   4.816   7.347 -0.7829 -0.5571  0.1489
  302MOL0     H41619   8.182   4.942   7.597 -1.6088 -0.3805  0.2420
  302MOL0     H41620   8.138   4.990   7.429 -1.6148 -1.6582 -0.4767
  302MOL0     H41621   8.124   4.736   7.574  0.7196  0.3508 -1.0371
  302MOL0     H41622   8.073   4.741   7.397 -2.8831  1.1178 -1.1107
  302MOL0     H41623   7.877   4.873   7.428  2.0726 -1.3281 -0.8214
  302MOL0     H41624   7.874   4.758   7.560  1.3019 -1.5231 -1.3878
  302MOL0     H41625   7.901   5.132   7.473  0.2316 -0.9743 -0.0010
  302MOL0     H41626   7.866   5.326   7.567 -1.4927 -0.4541 -0.1576
  302MOL0     H41627   7.973   5.345   7.707  0.3065 -2.0241  2.3016
  302MOL0     H41628   7.677   5.270   7.738 -0.4004 -0.3253  0.5038
  302MOL0     H41629   7.781   5.350   7.866  1.7916  3.6426 -0.8456
  302MOL0     H41630   7.703   5.501   7.615 -1.6375  0.9377  0.1574
  302MOL0     H41631   7.616   5.502   7.764 -0.8450 -1.3383  0.0882
  302MOL0     H41632   7.834   5.594   7.876  1.4468  1.4936 -1.0807
  302MOL0     H41633   7.915   5.558   7.720  0.9359 -1.7992  0.8939
  302MOL0     H41634   8.054   5.712   7.831 -1.6190 -3.9667 -4.1295
  302MOL0     H41635   8.224   5.830   7.940 -4.5035 -0.3831 -0.7063
  302MOL0     H41636   8.262   6.001   7.902 -1.0333  1.1660 -0.6842
  302MOL0     H41637   8.321   5.872   7.797 -1.0121 -0.9517 -1.7607
  302MOL0     H41638   8.305   6.357   7.732  3.1770 -1.2110 -0.8871
  302MOL0     H41639   8.390   6.565   7.698 -2.9263 -1.5623  1.8677
  302MOL0     H41640   8.400   6.696   7.257  0.3816 -1.8736  1.0631
  302MOL0     H41641   8.257   6.766   7.336 -0.2922  0.9663  1.8981
  302MOL0     H41642   8.537   6.907   7.348  1.1967 -0.0719 -2.2638
  302MOL0     H41643   8.412   6.917   7.224  1.8489  1.3422  0.1659
  302MOL0     H41644   8.420   7.093   7.398  1.0065 -0.4658 -1.4992
  302MOL0     H41645   8.349   6.970   7.513 -4.1636  0.4284  0.4118
  302MOL0     H41646   8.152   6.943   7.356  0.8329 -0.4121  0.1335
  302MOL0     H41647   8.207   7.075   7.259  2.7833  0.1811 -0.5406
  302MOL0     H41648   8.041   7.161   7.406  1.6079  2.6381 -2.2723
  302MOL0     H41649   8.138   7.106   7.550  2.3663  1.8133  0.3071
  302MOL0     H41650   8.300   7.274   7.493 -2.0278  1.0719  2.4663
  302MOL0     H41651   8.136   7.338   7.529 -1.1080 -2.2222  2.3506
  302MOL0     H41652   8.257   7.280   7.261  0.3463  1.3209  0.0757
  302MOL0     H41653   8.253   7.448   7.331 -1.8666  1.5374  1.4802
  302MOL0     H41654   8.002   7.309   7.244 -1.6487  2.6144 -3.2034
  302MOL0     H41655   8.081   7.434   7.162 -0.1029 -0.3921  0.8051
  302MOL0     H41656   8.263   6.548   7.277 -1.8408 -2.3621 -0.8292
  302MOL0     H41657   8.180   6.312   7.336 -1.3066 -1.3663  1.1258
  302MOL0     H41658   7.934   6.098   7.536 -0.8215 -1.2211 -1.9038
  302MOL0     H41659   7.789   5.924   7.567  0.9503  2.6428 -2.2494
  302MOL0     H41660   8.543   5.470   7.277 -0.0340 -0.4786  3.1540
  302MOL0     H41661   8.680   5.473   7.065 -1.7681 -0.2714  1.1650
  302MOL0     H41662   8.939   5.489   6.849  0.5037 -0.1793  1.7840
  302MOL0     H41663   9.027   5.591   6.636 -0.9521  0.1410  0.1793
  302MOL0     H41664   9.458   5.665   6.619  0.6385 -2.5512  0.3168
  302MOL0     H41665   9.470   5.517   6.547  0.0724 -0.3208  1.7965
  302MOL0     H41666   9.409   5.601   6.322  0.2339  1.9006 -1.1269
  302MOL0     H41667   9.545   5.689   6.385 -0.4109  1.2405 -2.1682
  302MOL0     H41668   9.384   5.835   6.278  0.5351  2.1495  0.0763
  302MOL0     H41669   9.262   5.795   6.395  0.0738 -0.8811 -0.1207
  302MOL0     H41670   9.522   5.915   6.479 -0.1927 -0.8692  2.3774
  302MOL0     H41671   9.369   5.884   6.568 -1.6422 -2.3924 -2.0947
  302MOL0     H41672   9.295   6.236   6.322  3.9947 -0.0630 -2.8895
  302MOL0     H41673   9.429   5.506   6.779 -0.2936  0.2587 -0.2688
  302MOL0     H41674   9.372   5.450   7.084 -4.4826  3.6253 -1.8284
  302MOL0     H41675   9.329   5.279   7.022  0.6384 -0.1565 -0.4241
  302MOL0     H41676   9.465   5.365   6.956 -1.7415  0.1648 -2.7930
  303MOL0     O41677  10.860   1.430   3.907  0.6225  0.1422 -0.8947
  303MOL0     C41678  10.890   1.431   4.029  0.0937 -0.6785 -0.0833
  303MOL0     O41679  10.802   1.459   4.128  0.5977  0.5191 -0.6936
  303MOL0     C41680  10.675   1.513   4.100  0.3519  1.2809 -0.0231
  303MOL0     C41681  10.560   1.463   4.177  0.2904 -0.8720  0.1234
  303MOL0     C41682  10.433   1.526   4.172 -0.1164 -0.0846  0.1907
  303MOL0     C41683  10.404   1.633   4.081 -0.4715  0.8184 -0.9157
  303MOL0     O41684  10.289   1.706   4.074  0.5083  0.2855 -0.2475
  303MOL0     C41685  10.180   1.679   4.171 -0.1057  0.6393  0.6336
  303MOL0     C41686  10.104   1.545   4.129  0.2477 -0.3351  0.0357
  303MOL0     C41687   9.995   1.495   4.224  0.0411  0.0840 -0.0474
  303MOL0     C41688  10.001   1.552   4.371 -1.6056  0.3194  1.0060
  303MOL0     C41689   9.867   1.559   4.448  0.1073 -0.1291  0.5569
  303MOL0     C41690   9.791   1.421   4.435 -0.4304  0.2094 -0.7720
  303MOL0     C41691   9.675   1.396   4.524  0.1719 -0.0542 -0.8517
  303MOL0     C41692   9.569   1.517   4.517  0.6180 -0.7978 -0.9432
  303MOL0     N41693   9.512   1.548   4.652  0.1100 -0.1553 -0.2198
  303MOL0     C41694   9.580   1.606   4.758 -0.3941 -0.1993  1.0174
  303MOL0     C41695   9.490   1.584   4.854 -0.3591 -0.4227  0.1977
  303MOL0     C41696   9.518   1.653   4.987  0.5601  0.6370 -0.7368
  303MOL0     C41697   9.532   1.808   4.993 -0.4795  0.5234  0.5388
  303MOL0     C41698   9.489   1.857   5.132 -0.2043 -0.4167 -0.9007
  303MOL0     C41699   9.511   2.007   5.147 -0.0331 -0.1719 -0.2877
  303MOL0     O41700   9.433   2.077   5.054  0.1851  0.1987  0.1925
  303MOL0     C41701   9.463   2.202   5.009  0.0733 -0.0678 -0.3326
  303MOL0     C41702   9.551   2.293   5.079 -0.8193 -0.2570  0.6073
  303MOL0     C41703   9.584   2.420   5.032 -0.0233 -0.5680 -0.4912
  303MOL0     C41704   9.675   2.510   5.126 -0.3855  0.7044 -0.4013
  303MOL0     C41705   9.549   2.462   4.896 -1.1357  0.6460  0.2811
  303MOL0     C41706   9.580   2.598   4.843 -0.8265 -0.7815 -0.8694
  303MOL0     O41707   9.525   2.622   4.714  0.1553  0.2545 -0.5352
  303MOL0     C41708   9.559   2.748   4.658  0.1977 -0.2148  0.1815
  303MOL0     C41709   9.617   2.747   4.534  0.3253  0.0420 -1.0989
  303MOL0     C41710   9.658   2.873   4.471 -1.1265  0.7206 -0.5587
  303MOL0     C41711   9.636   2.993   4.540 -0.1906 -0.4220 -0.0078
  303MOL0     O41712   9.706   3.099   4.490  0.4010  0.5051  0.3740
  303MOL0     C41713   9.632   3.222   4.476  0.6941  0.3366  0.2780
  303MOL0     C41714   9.666   3.303   4.351  0.5170  0.2924 -0.3190
  303MOL0     C41715   9.771   3.407   4.372 -0.8598  0.0458 -0.3484
  303MOL0     C41716   9.811   3.491   4.249 -0.1597 -0.4120 -0.4866
  303MOL0     C41717   9.938   3.568   4.274  0.3954  0.0109 -1.0164
  303MOL0     C41718   9.923   3.676   4.381  0.7445 -0.3268 -0.4504
  303MOL0     C41719  10.039   3.769   4.392  1.2870 -0.2077  0.3966
  303MOL0     C41720  10.033   3.847   4.525 -0.2742  1.0648  0.1076
  303MOL0    Cl41721   9.871   3.929   4.539  0.0192 -0.4160 -0.2697
  303MOL0     C41722   9.565   2.988   4.655 -0.5715 -0.6205  0.4123
  303MOL0     C41723   9.526   2.868   4.719  0.1312 -0.0645 -0.1858
  303MOL0     O41724   9.645   2.681   4.905 -0.0186 -0.5539 -0.7308
  303MOL0     C41725   9.468   2.366   4.823 -0.1349 -0.1115 -0.1442
  303MOL0     C41726   9.432   2.243   4.884  0.5288  0.0807  0.7680
  303MOL0     N41727   9.378   1.520   4.811 -0.1285 -0.7364  0.6475
  303MOL0     N41728   9.391   1.498   4.685  0.6471 -0.1544 -0.5123
  303MOL0     C41729  10.513   1.668   3.999 -0.7958  1.1951 -0.6594
  303MOL0     C41730  10.640   1.610   4.005  0.8659  1.1078 -0.1754
  303MOL0     C41731  11.035   1.404   4.067  1.5009 -0.3361 -0.4747
  303MOL0     C41732  11.102   1.313   3.977  0.6438 -0.1017 -0.8751
  303MOL0     C41733  11.231   1.270   4.006 -0.5619  0.6091  0.2488
  303MOL0     C41734  11.300   1.315   4.115 -1.2558 -0.5207 -0.2082
  303MOL0     O41735  11.429   1.279   4.151  0.2857  0.1384  1.2130
  303MOL0     C41736  11.430   1.136   4.178 -0.2554  0.4017  0.6076
  303MOL0     C41737  11.544   1.107   4.265 -0.6700  0.3881 -0.1944
  303MOL0     C41738  11.538   1.148   4.421  0.0448  0.7223 -0.7066
  303MOL0     C41739  11.545   1.302   4.440  0.8908  0.3473  0.3933
  303MOL0     C41740  11.550   1.341   4.582  0.7518  0.5254 -0.1053
  303MOL0     C41741  11.547   1.362   4.699 -0.0823 -0.1945  0.0527
  303MOL0     C41742  11.229   1.394   4.208  0.0612 -0.0340  0.3713
  303MOL0     C41743  11.100   1.437   4.188 -0.4259  0.0706 -0.1857
  303MOL0     C41744  11.041   1.510   4.311  0.2874  0.4597 -0.2933
  303MOL0     H41745  10.578   1.396   4.260 -0.1233  2.6068  3.3015
  303MOL0     H41746  10.350   1.497   4.236 -1.2655  2.3485 -0.0913
  303MOL0     H41747  10.104   1.757   4.156 -0.5576  0.2302  0.7425
  303MOL0     H41748  10.217   1.694   4.272 -2.7695  0.5991  1.7140
  303MOL0     H41749  10.072   1.562   4.026  1.3376  4.8894  0.2783
  303MOL0     H41750  10.179   1.465   4.121 -0.7581 -1.1478 -1.8453
  303MOL0     H41751   9.895   1.514   4.184 -0.4332  1.0466  1.5029
  303MOL0     H41752  10.009   1.387   4.229  1.6253  0.1604 -2.0748
  303MOL0     H41753  10.063   1.493   4.438  0.7461  2.9776  1.3644
  303MOL0     H41754  10.040   1.654   4.370  2.1620 -0.7760 -4.1629
  303MOL0     H41755   9.811   1.632   4.389  0.8234 -0.9388 -1.1802
  303MOL0     H41756   9.882   1.597   4.550 -0.4023  1.5669  0.0363
  303MOL0     H41757   9.765   1.406   4.330  0.2583  2.8502 -1.3955
  303MOL0     H41758   9.861   1.345   4.472 -1.7815 -0.1685  1.1287
  303MOL0     H41759   9.721   1.400   4.623  3.2105  1.3315 -2.1604
  303MOL0     H41760   9.626   1.299   4.530 -1.0760  0.6469  2.5619
  303MOL0     H41761   9.612   1.612   4.486  1.5071 -1.1319 -0.7705
  303MOL0     H41762   9.484   1.485   4.456 -0.1117 -0.5498 -0.0852
  303MOL0     H41763   9.680   1.646   4.776 -0.0136 -0.2337 -0.7823
  303MOL0     H41764   9.609   1.604   5.023  0.5691  0.5357 -0.8955
  303MOL0     H41765   9.443   1.613   5.055  0.1462  1.9404 -0.4157
  303MOL0     H41766   9.630   1.841   4.959 -1.0916  1.4910 -0.3221
  303MOL0     H41767   9.458   1.847   4.923  0.9621  0.0729 -1.3036
  303MOL0     H41768   9.386   1.826   5.156 -0.1761 -0.7852 -1.2431
  303MOL0     H41769   9.550   1.813   5.211 -0.0712  1.7376  0.2729
  303MOL0     H41770   9.489   2.020   5.254 -0.3535 -1.6614 -0.1442
  303MOL0     H41771   9.618   2.026   5.135 -0.1751  0.2480 -0.9208
  303MOL0     H41772   9.585   2.279   5.182 -3.7049 -0.2912  1.6687
  303MOL0     H41773   9.683   2.475   5.229 -0.3939  4.5412  1.0838
  303MOL0     H41774   9.638   2.612   5.139  0.7488  1.0442  0.3671
  303MOL0     H41775   9.776   2.519   5.086 -1.3736  0.3234 -3.1610
  303MOL0     H41776   9.637   2.648   4.495 -1.6529 -0.4942 -0.8567
  303MOL0     H41777   9.723   2.876   4.384  3.3394  2.7027  2.4646
  303MOL0     H41778   9.523   3.211   4.467  0.0004  2.7431  3.7604
  303MOL0     H41779   9.650   3.292   4.559 -0.2343 -1.0356  1.7053
  303MOL0     H41780   9.692   3.237   4.267  1.9868 -0.9248  1.0357
  303MOL0     H41781   9.576   3.361   4.325 -1.0075 -0.2218  3.2496
  303MOL0     H41782   9.858   3.352   4.407  0.8534  0.9397 -2.8541
  303MOL0     H41783   9.746   3.471   4.457  3.7856 -0.0984  1.4155
  303MOL0     H41784   9.730   3.556   4.214  1.0059  1.7787  0.6902
  303MOL0     H41785   9.831   3.424   4.165  0.4087 -0.3770 -0.3833
  303MOL0     H41786  10.016   3.495   4.299 -1.1477 -0.8861  1.5664
  303MOL0     H41787   9.968   3.614   4.180  3.1236 -2.1027 -1.3168
  303MOL0     H41788   9.904   3.638   4.481  0.2290  1.7983  0.3030
  303MOL0     H41789   9.837   3.737   4.353  3.1829  4.4430  1.2445
  303MOL0     H41790  10.040   3.836   4.306 -0.3705 -0.7289 -0.0556
  303MOL0     H41791  10.133   3.714   4.408  2.1935  1.6100  1.6294
  303MOL0     H41792  10.105   3.930   4.526 -0.0616  0.8786  0.7219
  303MOL0     H41793  10.055   3.778   4.607  0.6245 -0.6290 -1.4786
  303MOL0     H41794   9.542   3.083   4.702 -0.3155  0.8996 -2.2759
  303MOL0     H41795   9.470   2.875   4.812  2.2023 -2.1784  1.3296
  303MOL0     H41796   9.438   2.382   4.720  2.8880 -0.5092 -1.1816
  303MOL0     H41797   9.365   2.186   4.820  0.9982  0.1092  0.2496
  303MOL0     H41798  10.504   1.749   3.926  0.0345  0.2161 -1.8820
  303MOL0     H41799  10.722   1.658   3.952  1.2507 -0.2740 -0.8766
  303MOL0     H41800  11.052   1.256   3.899 -0.0614  0.5276 -0.8965
  303MOL0     H41801  11.271   1.193   3.941 -0.5684 -1.5961  2.6802
  303MOL0     H41802  11.344   1.105   4.238 -0.1949  1.4781  1.2776
  303MOL0     H41803  11.430   1.083   4.083  1.0626 -0.3988  1.0254
  303MOL0     H41804  11.629   1.148   4.208 -0.1675 -2.3796 -1.6371
  303MOL0     H41805  11.554   0.998   4.272  0.1618  0.5328  1.3446
  303MOL0     H41806  11.443   1.108   4.460  0.2237  0.9828  0.0052
  303MOL0     H41807  11.624   1.115   4.479 -0.2818  3.3433  1.4384
  303MOL0     H41808  11.450   1.334   4.397  2.5541  0.7278 -3.3580
  303MOL0     H41809  11.611   1.364   4.379 -2.6156  4.7547  0.5608
  303MOL0     H41810  11.537   1.374   4.805 -1.5719 -0.6813 -0.0071
  303MOL0     H41811  11.274   1.414   4.305  0.7087 -0.1616  0.1043
  303MOL0     H41812  10.965   1.443   4.352 -0.4144  0.0630 -2.1541
  303MOL0     H41813  11.104   1.530   4.398 -0.7938 -1.2124  0.9288
  303MOL0     H41814  11.006   1.610   4.282  0.0882  0.5381  0.2136
  304MOL0     O41815   6.194   6.188   0.951  0.2982  0.0990  0.9648
  304MOL0     C41816   6.177   6.154   0.832 -0.1419  0.8683  0.0102
  304MOL0     O41817   6.094   6.216   0.745 -0.2845 -0.1072 -0.0404
  304MOL0     C41818   6.073   6.350   0.765  0.4026 -0.1878 -0.5524
  304MOL0     C41819   5.938   6.395   0.745 -0.3903 -0.2346  0.8190
  304MOL0     C41820   5.903   6.527   0.768 -0.2493 -0.6900  0.3784
  304MOL0     C41821   6.000   6.616   0.804 -0.7784 -0.7681 -0.2323
  304MOL0     O41822   5.969   6.748   0.834 -0.1895 -0.1140  1.3782
  304MOL0     C41823   6.016   6.851   0.744  0.4329 -0.0056  0.1386
  304MOL0     C41824   5.959   6.986   0.784  0.8918 -0.4069 -0.7931
  304MOL0     C41825   6.053   7.097   0.745 -0.1154 -0.6067 -0.4551
  304MOL0     C41826   6.153   7.130   0.862 -0.5640 -0.0210 -0.5355
  304MOL0     C41827   6.271   7.195   0.810  0.4955 -0.2120  0.1106
  304MOL0     C41828   6.367   7.107   0.742 -0.2560  0.2190 -1.3769
  304MOL0     C41829   6.453   7.035   0.849  0.0033  0.3050 -0.0527
  304MOL0     C41830   6.504   6.892   0.808 -0.4175 -0.0528  0.3222
  304MOL0     N41831   6.578   6.894   0.684  0.0484 -0.0299 -0.2242
  304MOL0     C41832   6.715   6.924   0.671  0.4907 -0.1677 -0.1055
  304MOL0     C41833   6.741   6.922   0.544  0.3523 -0.0905  0.5580
  304MOL0     C41834   6.860   6.958   0.475  0.2820 -0.9883 -0.2498
  304MOL0     C41835   6.873   7.109   0.457 -0.4368 -0.0425 -0.2082
  304MOL0     C41836   6.969   7.127   0.335  0.3544 -0.0188  0.4903
  304MOL0     C41837   7.010   7.272   0.303 -0.9314 -0.2504 -0.0956
  304MOL0     O41838   6.880   7.342   0.282 -0.2484 -0.0863 -0.4528
  304MOL0     C41839   6.867   7.449   0.201  0.5075 -0.0318  0.7513
  304MOL0     C41840   6.737   7.485   0.186 -0.1888  0.5810 -1.0905
  304MOL0     C41841   6.708   7.598   0.110  0.1844  0.3930  0.6588
  304MOL0     C41842   6.558   7.620   0.067 -0.1913 -0.5310 -0.5270
  304MOL0     C41843   6.811   7.682   0.057  0.6672  0.1597  0.1636
  304MOL0     C41844   6.785   7.798  -0.036 -0.2622 -0.5395 -0.4035
  304MOL0     O41845   6.897   7.857  -0.092 -0.4799 -0.0501 -0.1412
  304MOL0     C41846   6.895   7.947  -0.199 -0.4371 -1.0564  0.0605
  304MOL0     C41847   7.012   8.017  -0.228  0.6651  0.2396  0.3425
  304MOL0     C41848   7.030   8.107  -0.337  0.5193  1.2294  0.0236
  304MOL0     C41849   6.932   8.104  -0.438  0.1940 -0.5525 -0.4851
  304MOL0     O41850   6.966   8.169  -0.551  0.3421 -0.2899 -0.5459
  304MOL0     C41851   7.057   8.106  -0.635 -0.7414 -0.3583  0.8802
  304MOL0     C41852   7.009   7.966  -0.689  0.7516  0.2662 -0.0992
  304MOL0     C41853   7.090   7.905  -0.812 -0.5377  0.3225 -0.2155
  304MOL0     C41854   7.235   7.942  -0.802  0.0560  0.3136 -0.4583
  304MOL0     C41855   7.326   7.875  -0.905  0.3638  0.9714 -0.0072
  304MOL0     C41856   7.333   7.721  -0.885 -0.4745 -0.0545 -0.0461
  304MOL0     C41857   7.451   7.666  -0.969 -0.1725  0.7640 -0.7891
  304MOL0     C41858   7.495   7.521  -0.933 -0.7043 -0.1322  0.1386
  304MOL0    Cl41859   7.580   7.507  -0.775  0.1971  0.3423  0.0535
  304MOL0     C41860   6.814   8.027  -0.416 -0.8901 -0.0394  0.3827
  304MOL0     C41861   6.793   7.955  -0.299 -0.3090  0.0972  0.1824
  304MOL0     O41862   6.669   7.828  -0.061 -0.3302 -0.1372  0.0278
  304MOL0     C41863   6.941   7.643   0.074 -1.2409  0.3070  1.4508
  304MOL0     C41864   6.978   7.523   0.143 -0.0142 -1.0554 -0.2429
  304MOL0     N41865   6.628   6.880   0.476 -0.2301 -1.0732  0.5078
  304MOL0     N41866   6.532   6.873   0.556 -0.6478  0.6773 -0.1677
  304MOL0     C41867   6.139   6.575   0.817  0.5825  0.0057  0.8139
  304MOL0     C41868   6.172   6.439   0.795 -0.9114 -0.2925 -0.5035
  304MOL0     C41869   6.244   6.022   0.790  0.4482 -0.8508 -0.0957
  304MOL0     C41870   6.317   6.021   0.660  0.1079 -0.0219 -0.3666
  304MOL0     C41871   6.388   5.906   0.623 -0.0723  0.2341 -0.4153
  304MOL0     C41872   6.398   5.798   0.717 -0.3525 -0.3044  0.4746
  304MOL0     O41873   6.469   5.684   0.681 -0.2184  0.0649 -0.8042
  304MOL0     C41874   6.607   5.696   0.718 -0.3345 -0.3630 -0.7980
  304MOL0     C41875   6.686   5.672   0.588  0.5315 -0.1255  0.7089
  304MOL0     C41876   6.699   5.526   0.558 -0.5021 -0.2931  0.5764
  304MOL0     C41877   6.767   5.518   0.417 -0.2269  0.0186  0.7052
  304MOL0     C41878   6.812   5.382   0.399 -0.4789 -0.2526 -0.0481
  304MOL0     C41879   6.839   5.267   0.379  0.2799 -0.0929  0.0872
  304MOL0     C41880   6.328   5.801   0.842 -0.9488 -0.5950 -0.2851
  304MOL0     C41881   6.256   5.921   0.885 -0.7677 -0.1668  0.1460
  304MOL0     C41882   6.174   5.913   1.010 -0.5506 -0.0667  0.3211
  304MOL0     H41883   5.857   6.326   0.725 -1.5152  1.7260 -2.0080
  304MOL0     H41884   5.802   6.562   0.750  0.1727 -0.3769 -1.7242
  304MOL0     H41885   5.997   6.832   0.638  0.3058 -1.5383  0.4137
  304MOL0     H41886   6.122   6.866   0.766  0.5625  0.5581 -0.8078
  304MOL0     H41887   5.867   6.996   0.725 -0.3377 -2.1221  0.6860
  304MOL0     H41888   5.941   6.997   0.891 -0.8366  2.5284 -1.2900
  304MOL0     H41889   6.099   7.064   0.651  1.2019 -1.6153  0.5079
  304MOL0     H41890   5.997   7.190   0.731 -1.2549 -1.3646 -1.1696
  304MOL0     H41891   6.097   7.199   0.925 -1.0886  1.7188 -2.7710
  304MOL0     H41892   6.175   7.034   0.910  1.6583 -0.4844 -2.2887
  304MOL0     H41893   6.325   7.236   0.896 -0.8602 -0.1944  0.9835
  304MOL0     H41894   6.241   7.264   0.730  0.1850 -0.6310 -0.1396
  304MOL0     H41895   6.325   7.024   0.686  1.2699 -1.3719 -0.2583
  304MOL0     H41896   6.437   7.157   0.676  3.4122  0.2906  2.1769
  304MOL0     H41897   6.390   7.013   0.936 -1.3887 -0.9334 -1.3119
  304MOL0     H41898   6.539   7.100   0.865  0.9543 -0.1299 -2.8234
  304MOL0     H41899   6.579   6.868   0.883  0.1164  0.0284 -0.1780
  304MOL0     H41900   6.422   6.820   0.804 -0.1906 -0.3816  1.3900
  304MOL0     H41901   6.785   6.955   0.748 -2.0245  0.3162  2.1295
  304MOL0     H41902   6.848   6.917   0.374  0.5089  1.6796 -1.4331
  304MOL0     H41903   6.950   6.916   0.522  1.7237  2.3507  0.2383
  304MOL0     H41904   6.776   7.142   0.417  0.2482  1.6689 -0.5427
  304MOL0     H41905   6.909   7.167   0.542  1.4892 -1.0783 -0.2582
  304MOL0     H41906   7.054   7.059   0.335 -1.5055 -2.4716  1.0853
  304MOL0     H41907   6.913   7.093   0.247  0.7126 -2.9253  1.2856
  304MOL0     H41908   7.071   7.308   0.386 -0.1496  0.5584 -1.0099
  304MOL0     H41909   7.076   7.287   0.217 -2.7499 -5.5157 -2.9039
  304MOL0     H41910   6.655   7.419   0.214 -0.2605  0.8978 -0.5500
  304MOL0     H41911   6.532   7.637  -0.038 -0.0041  0.3084 -0.4406
  304MOL0     H41912   6.514   7.707   0.116 -0.1794 -2.1381  2.5939
  304MOL0     H41913   6.505   7.530   0.101  1.5883 -1.1450  0.7972
  304MOL0     H41914   7.089   8.015  -0.152  0.3562 -0.3814  0.6554
  304MOL0     H41915   7.128   8.149  -0.359  1.3016 -0.7698 -0.5166
  304MOL0     H41916   7.073   8.170  -0.722  0.0657  0.7966  1.8518
  304MOL0     H41917   7.158   8.099  -0.594 -0.9012  0.7660  1.5047
  304MOL0     H41918   6.997   7.894  -0.607 -3.4270 -1.1054 -1.6455
  304MOL0     H41919   6.905   7.985  -0.716  1.1055  3.2443  0.3303
  304MOL0     H41920   7.043   7.936  -0.906 -0.3320 -0.8427 -0.7210
  304MOL0     H41921   7.076   7.796  -0.809  2.4993 -0.5387 -5.0025
  304MOL0     H41922   7.265   7.917  -0.700  2.8921  2.7492 -0.5572
  304MOL0     H41923   7.248   8.050  -0.804  0.4076  0.5724  4.1771
  304MOL0     H41924   7.287   7.902  -1.004  0.2318  3.4245  0.6445
  304MOL0     H41925   7.425   7.922  -0.893 -0.9525  3.7279  0.9330
  304MOL0     H41926   7.249   7.662  -0.923  2.2050 -3.1696 -1.7081
  304MOL0     H41927   7.355   7.706  -0.779  1.7400 -3.1627 -0.7858
  304MOL0     H41928   7.534   7.722  -0.923  0.5503 -1.0400  0.1980
  304MOL0     H41929   7.428   7.689  -1.073 -2.8255 -1.2088 -0.7290
  304MOL0     H41930   7.574   7.486  -0.999 -0.2587 -1.0923  1.1521
  304MOL0     H41931   7.423   7.438  -0.936 -0.9747  0.0346  1.2828
  304MOL0     H41932   6.745   8.011  -0.498 -0.8094  1.3389  0.0205
  304MOL0     H41933   6.712   7.883  -0.290  0.4281 -0.6268  1.3894
  304MOL0     H41934   7.019   7.697   0.022 -1.2748  0.4142  1.5105
  304MOL0     H41935   7.080   7.502   0.174 -0.0644 -0.5828  0.2548
  304MOL0     H41936   6.222   6.641   0.842  0.4084  1.1111 -1.3251
  304MOL0     H41937   6.277   6.411   0.792 -0.7354  0.0951  1.0221
  304MOL0     H41938   6.301   6.103   0.591  0.1852  2.0753  1.9546
  304MOL0     H41939   6.441   5.897   0.529 -1.1561  1.3647 -1.1678
  304MOL0     H41940   6.641   5.791   0.761  2.4776 -1.9909  0.8330
  304MOL0     H41941   6.630   5.621   0.794 -0.6390  1.2132  0.9404
  304MOL0     H41942   6.780   5.725   0.569  1.0572 -1.4591 -0.5866
  304MOL0     H41943   6.621   5.701   0.505 -1.2873 -3.8742  0.6346
  304MOL0     H41944   6.758   5.474   0.634 -1.7800 -1.6050  0.7042
  304MOL0     H41945   6.601   5.480   0.552 -0.3914 -0.5009  0.3613
  304MOL0     H41946   6.853   5.584   0.401 -0.6819  0.2373 -1.0032
  304MOL0     H41947   6.692   5.551   0.345  1.5074  3.4297  0.2796
  304MOL0     H41948   6.845   5.163   0.354 -0.8624 -0.0570 -0.3893
  304MOL0     H41949   6.335   5.710   0.901  0.3263  0.5111  1.3591
  304MOL0     H41950   6.176   5.809   1.045 -0.0555  0.5143  2.1582
  304MOL0     H41951   6.229   5.972   1.084  4.3111 -4.0904  0.5097
  304MOL0     H41952   6.074   5.948   0.985 -0.5183 -0.3958 -0.2824
  305MOL0     O41953   1.712  10.761   8.156  0.2023  0.1585 -0.0103
  305MOL0     C41954   1.624  10.760   8.071 -1.0826 -0.1048  0.5764
  305MOL0     O41955   1.640  10.717   7.942  0.2294 -0.8814  0.0984
  305MOL0     C41956   1.765  10.704   7.886 -0.2812  0.3798 -0.8089
  305MOL0     C41957   1.868  10.789   7.921  0.6368 -0.6832  0.2006
  305MOL0     C41958   1.990  10.771   7.867 -0.7236  0.0781  0.3799
  305MOL0     C41959   2.017  10.664   7.780 -0.3998 -0.8709 -0.0511
  305MOL0     O41960   2.136  10.669   7.711 -0.6959 -0.2265 -0.2451
  305MOL0     C41961   2.182  10.558   7.624  0.2078  0.3995  0.5837
  305MOL0     C41962   2.319  10.572   7.568 -0.4382 -0.3463  0.0295
  305MOL0     C41963   2.443  10.560   7.663  0.0348 -0.0997 -0.1707
  305MOL0     C41964   2.577  10.531   7.576  0.3051 -0.4294  0.3195
  305MOL0     C41965   2.698  10.507   7.663  1.2194  0.0447  0.0875
  305MOL0     C41966   2.822  10.462   7.606  0.1972  0.4624  0.1932
  305MOL0     C41967   2.878  10.539   7.486 -0.4972 -0.6379  0.1882
  305MOL0     C41968   3.018  10.498   7.433  0.3184  0.0233 -0.4984
  305MOL0     N41969   3.132  10.567   7.491 -0.6503 -0.2487  0.6909
  305MOL0     C41970   3.151  10.702   7.480 -0.0042 -0.0903  0.3777
  305MOL0     C41971   3.255  10.739   7.560 -0.6686  0.5310  0.9503
  305MOL0     C41972   3.296  10.879   7.590  0.0128  0.8106  0.1384
  305MOL0     C41973   3.399  10.939   7.481  0.1619 -0.1360 -0.0190
  305MOL0     C41974   3.461  11.071   7.540  0.0267 -0.8430  0.3900
  305MOL0     C41975   3.588  11.118   7.464 -0.2251 -0.0163  0.1235
  305MOL0     O41976   3.696  11.036   7.508  0.4843  0.2462  0.1488
  305MOL0     C41977   3.823  11.091   7.504 -0.1884  0.5237 -0.2621
  305MOL0     C41978   3.922  11.043   7.592  0.4584  0.1631  0.6222
  305MOL0     C41979   4.052  11.091   7.599  0.4986 -0.3571 -0.2753
  305MOL0     C41980   4.141  11.044   7.709  0.8049  0.4871 -0.2403
  305MOL0     C41981   4.106  11.174   7.504  0.3025 -1.0787  0.4923
  305MOL0     C41982   4.232  11.254   7.495 -0.0531 -0.3296  0.3475
  305MOL0     O41983   4.235  11.381   7.458  0.0996  0.1230  0.4138
  305MOL0     C41984   4.349  11.447   7.478  1.1096 -0.0137  0.5407
  305MOL0     C41985   4.345  11.562   7.557 -0.4128 -0.4974  1.3418
  305MOL0     C41986   4.455  11.635   7.586 -0.6175 -0.2128  0.1911
  305MOL0     C41987   4.582  11.597   7.534 -0.5817  1.1249  0.2254
  305MOL0     O41988   4.692  11.681   7.556  1.1935 -0.0247 -0.2002
  305MOL0     C41989   4.782  11.617   7.653 -1.2560 -0.4771 -0.4626
  305MOL0     C41990   4.911  11.705   7.664  0.0265  0.1702  0.4902
  305MOL0     C41991   4.902  11.829   7.751 -0.2868  0.7007  0.3950
  305MOL0     C41992   4.914  11.778   7.903 -0.2475  0.6485  0.8990
  305MOL0     C41993   4.907  11.895   8.001 -0.0531  0.9067  0.2129
  305MOL0     C41994   5.037  11.978   7.999 -0.6750 -0.1006 -0.6793
  305MOL0     C41995   5.041  12.088   8.108  0.3042  0.6760  0.5634
  305MOL0     C41996   4.922  12.187   8.105  0.3917 -0.0757 -0.4185
  305MOL0    Cl41997   4.937  12.307   8.237 -0.3016 -0.2152 -0.5076
  305MOL0     C41998   4.587  11.478   7.456  0.1106  0.0836 -0.2222
  305MOL0     C41999   4.473  11.405   7.414  0.0474  0.2923 -0.1250
  305MOL0     O42000   4.334  11.186   7.518  0.7012  0.0840  0.3784
  305MOL0     C42001   4.010  11.216   7.407 -0.4896 -0.1968  1.0701
  305MOL0     C42002   3.877  11.184   7.405  0.3823  0.3277  0.7075
  305MOL0     N42003   3.293  10.626   7.622  0.5443  0.3885  0.2046
  305MOL0     N42004   3.224  10.524   7.573 -0.6840  0.2703 -0.4365
  305MOL0     C42005   1.907  10.578   7.747 -0.1320 -0.3127 -0.3982
  305MOL0     C42006   1.786  10.597   7.803 -0.2276  0.0386 -0.3300
  305MOL0     C42007   1.478  10.772   8.122 -0.4979 -0.5552 -1.4854
  305MOL0     C42008   1.375  10.700   8.061  0.5657  0.0928 -0.5501
  305MOL0     C42009   1.242  10.704   8.097  0.1081 -0.3048 -0.0307
  305MOL0     C42010   1.200  10.786   8.199  0.5411 -1.2480 -0.8107
  305MOL0     O42011   1.066  10.802   8.230 -0.5791  0.3528 -0.2627
  305MOL0     C42012   0.992  10.915   8.282  0.2198  0.7833 -1.5224
  305MOL0     C42013   0.950  11.023   8.178 -0.1574 -0.0047 -0.9483
  305MOL0     C42014   0.887  11.137   8.255  1.4264 -0.0667 -0.6672
  305MOL0     C42015   0.917  11.277   8.190  0.3981 -0.1700 -0.3203
  305MOL0     C42016   1.060  11.305   8.170 -0.6499 -0.9076 -0.4568
  305MOL0     C42017   1.177  11.318   8.148  0.5116 -0.1816 -0.5041
  305MOL0     C42018   1.300  10.848   8.271  0.1561  0.3045  1.1294
  305MOL0     C42019   1.436  10.841   8.237 -0.5290  0.5652 -0.5246
  305MOL0     C42020   1.525  10.915   8.326 -0.0326  0.0692  0.2484
  305MOL0     H42021   1.852  10.875   7.985  1.1958 -0.7315  0.4131
  305MOL0     H42022   2.063  10.850   7.884 -0.4320 -0.5054  2.0547
  305MOL0     H42023   2.113  10.559   7.539 -2.2761 -3.3033  2.2945
  305MOL0     H42024   2.188  10.463   7.678  1.5128 -0.4512 -0.9724
  305MOL0     H42025   2.329  10.504   7.483 -1.8807  1.9240 -2.1092
  305MOL0     H42026   2.324  10.676   7.536 -0.3537  0.5485  2.6635
  305MOL0     H42027   2.452  10.644   7.733  0.0028  0.0112 -0.2996
  305MOL0     H42028   2.419  10.466   7.714  0.2213  0.4322  0.9297
  305MOL0     H42029   2.570  10.444   7.510  1.9704  0.7414 -1.5009
  305MOL0     H42030   2.609  10.622   7.525 -0.4227  0.5459  1.5460
  305MOL0     H42031   2.675  10.428   7.735  3.7486 -3.3840 -2.5178
  305MOL0     H42032   2.724  10.608   7.696 -3.2904  1.1159  1.0203
  305MOL0     H42033   2.888  10.466   7.693 -1.9868  2.5379  1.8751
  305MOL0     H42034   2.816  10.356   7.579  0.3401  0.2884  0.8392
  305MOL0     H42035   2.871  10.645   7.510 -0.3178  0.1107 -2.6771
  305MOL0     H42036   2.811  10.536   7.399  0.8019  1.1902 -0.9516
  305MOL0     H42037   3.026  10.392   7.457 -3.6847 -0.9078 -2.3499
  305MOL0     H42038   3.022  10.520   7.326  1.2141  1.5276 -0.1796
  305MOL0     H42039   3.092  10.770   7.420 -0.9931 -0.9544  0.3326
  305MOL0     H42040   3.347  10.862   7.685  0.5617 -3.8086 -0.7885
  305MOL0     H42041   3.205  10.939   7.601 -0.7989 -0.6750  2.0954
  305MOL0     H42042   3.482  10.869   7.462  0.3889 -0.0091  0.4862
  305MOL0     H42043   3.340  10.962   7.392 -0.6509  4.5063  1.4878
  305MOL0     H42044   3.381  11.146   7.542  0.6190 -0.1937  0.1950
  305MOL0     H42045   3.490  11.061   7.645 -1.6364 -0.0166  0.9615
  305MOL0     H42046   3.583  11.116   7.354 -0.2104  0.2578  0.1164
  305MOL0     H42047   3.599  11.225   7.484  2.6233  0.0723 -1.3787
  305MOL0     H42048   3.890  10.969   7.665 -0.4711 -1.8367 -1.6475
  305MOL0     H42049   4.086  10.994   7.789 -1.0418 -0.9012 -2.2755
  305MOL0     H42050   4.199  11.121   7.761 -2.1306  1.4265  1.8809
  305MOL0     H42051   4.208  10.968   7.667  1.4664  1.3938 -0.8594
  305MOL0     H42052   4.253  11.591   7.606 -0.0955 -2.2740  3.0924
  305MOL0     H42053   4.464  11.721   7.650  5.2809 -2.6953  3.5351
  305MOL0     H42054   4.731  11.600   7.748  0.4348 -0.6342  0.4524
  305MOL0     H42055   4.810  11.518   7.615 -0.4702 -0.0789 -0.9565
  305MOL0     H42056   4.991  11.637   7.694  0.1522  0.5026  0.9231
  305MOL0     H42057   4.933  11.741   7.563 -1.6992  0.3570  0.1501
  305MOL0     H42058   4.806  11.879   7.735 -3.0084 -4.1007 -0.1800
  305MOL0     H42059   4.994  11.886   7.738  0.4347 -0.5649 -0.1636
  305MOL0     H42060   5.005  11.716   7.908  0.0822  0.9996 -0.3531
  305MOL0     H42061   4.831  11.709   7.922 -1.1033  0.9830 -1.3725
  305MOL0     H42062   4.830  11.961   7.961 -0.7885 -0.4076 -0.5761
  305MOL0     H42063   4.889  11.859   8.102 -2.0231 -1.5193 -0.9159
  305MOL0     H42064   5.065  12.015   7.900  0.5384  1.5125  0.2098
  305MOL0     H42065   5.122  11.916   8.029  0.7541  2.2306  0.3791
  305MOL0     H42066   5.129  12.152   8.099 -0.4757  2.2455  2.9217
  305MOL0     H42067   5.038  12.038   8.206  1.4606 -1.4035 -0.4082
  305MOL0     H42068   4.829  12.133   8.121  0.8210 -1.8343 -3.2146
  305MOL0     H42069   4.912  12.239   8.009  0.5150  1.9358  0.5949
  305MOL0     H42070   4.686  11.441   7.429  1.3498  2.4568  0.7742
  305MOL0     H42071   4.470  11.323   7.343 -0.7480  0.1332  0.0809
  305MOL0     H42072   4.049  11.291   7.340  0.1623  1.5893  3.3274
  305MOL0     H42073   3.825  11.234   7.324  2.3146  0.7963 -0.2819
  305MOL0     H42074   1.933  10.486   7.696  0.5528  1.0905 -2.7168
  305MOL0     H42075   1.704  10.534   7.770 -1.7085  1.1932  1.0362
  305MOL0     H42076   1.398  10.628   7.984 -0.6472 -2.1607  1.0758
  305MOL0     H42077   1.161  10.661   8.040 -1.8393  3.6305 -0.5324
  305MOL0     H42078   0.908  10.869   8.336  0.9720  0.0609 -0.9355
  305MOL0     H42079   1.066  10.967   8.344  0.3473 -0.7889 -0.2925
  305MOL0     H42080   0.886  10.984   8.098  0.7045  1.5095 -2.4438
  305MOL0     H42081   1.049  11.050   8.140  1.3371 -0.7542  2.1735
  305MOL0     H42082   0.779  11.125   8.253  1.5486 -1.2356 -0.8253
  305MOL0     H42083   0.917  11.145   8.360  0.6125  3.6639 -0.5634
  305MOL0     H42084   0.884  11.360   8.253 -1.8144  0.3076 -1.9834
  305MOL0     H42085   0.872  11.279   8.091  2.0209 -1.4271 -1.1323
  305MOL0     H42086   1.284  11.323   8.146  0.5412 -0.7043 -0.2621
  305MOL0     H42087   1.270  10.906   8.358 -3.3540  0.4402  0.0009
  305MOL0     H42088   1.477  10.946   8.420 -2.9614 -0.7044 -0.8750
  305MOL0     H42089   1.603  10.852   8.368  0.4510 -0.0510 -0.8051
  305MOL0     H42090   1.565  10.995   8.263 -2.2613 -0.2273 -1.6805
  306MOL0     O42091   5.671   4.943   4.888 -0.3282 -0.1431 -0.3027
  306MOL0     C42092   5.556   4.950   4.857 -0.9739 -0.6564 -0.7654
  306MOL0     O42093   5.506   4.951   4.738  0.1292  0.1259 -0.2869
  306MOL0     C42094   5.581   4.937   4.614  0.2359  0.4677 -0.2567
  306MOL0     C42095   5.558   5.027   4.511 -0.6188 -0.5734 -1.4520
  306MOL0     C42096   5.618   5.010   4.391 -0.4932  0.2518  0.1757
  306MOL0     C42097   5.711   4.905   4.371 -0.2588  0.0024  0.0202
  306MOL0     O42098   5.773   4.890   4.256 -0.0208  0.1361  0.2508
  306MOL0     C42099   5.822   4.760   4.215  0.2435 -0.3484 -0.0972
  306MOL0     C42100   5.813   4.737   4.064  0.3061  0.3417  0.4559
  306MOL0     C42101   5.670   4.762   4.003 -0.2911 -0.8429 -0.0787
  306MOL0     C42102   5.650   4.691   3.876 -0.1730 -0.7119 -0.1177
  306MOL0     C42103   5.514   4.716   3.816  0.5965 -0.6849  0.5436
  306MOL0     C42104   5.483   4.628   3.686  0.2240  0.2495 -0.4322
  306MOL0     C42105   5.339   4.636   3.660  0.1018  0.7040  0.8894
  306MOL0     C42106   5.308   4.595   3.515  0.9951  0.4890 -0.6081
  306MOL0     N42107   5.333   4.452   3.484 -0.2964 -0.2723  0.3567
  306MOL0     C42108   5.351   4.349   3.574  0.9901 -0.2512 -0.1663
  306MOL0     C42109   5.397   4.240   3.500 -0.4525  0.5767 -0.7247
  306MOL0     C42110   5.429   4.100   3.543 -0.1516 -0.0271  0.0057
  306MOL0     C42111   5.577   4.079   3.529 -0.3160 -0.3991  0.4513
  306MOL0     C42112   5.668   4.167   3.625  0.1868  0.2967  0.4203
  306MOL0     C42113   5.818   4.163   3.590  1.2409 -0.0580 -0.0475
  306MOL0     O42114   5.852   4.197   3.455  0.1066  0.8130  0.3356
  306MOL0     C42115   5.984   4.172   3.411  0.4247  0.6449  0.1373
  306MOL0     C42116   6.086   4.110   3.486 -0.4137  0.8232  0.4449
  306MOL0     C42117   6.211   4.066   3.420  0.4496 -0.7468  1.1967
  306MOL0     C42118   6.304   3.974   3.497  0.0410 -0.2591 -0.0059
  306MOL0     C42119   6.239   4.115   3.285  0.1518  0.6389 -0.2850
  306MOL0     C42120   6.356   4.079   3.198 -0.0773 -0.2025  0.1449
  306MOL0     O42121   6.349   4.119   3.068  0.0469 -0.0352 -0.2415
  306MOL0     C42122   6.453   4.095   2.984  0.1167 -0.9078  0.1306
  306MOL0     C42123   6.435   4.168   2.867  0.6195 -0.3189  0.1254
  306MOL0     C42124   6.536   4.174   2.771 -0.1990  0.2559  0.3483
  306MOL0     C42125   6.656   4.092   2.783 -0.1628 -0.7004 -0.2722
  306MOL0     O42126   6.752   4.089   2.687  0.3062 -0.5403 -0.5583
  306MOL0     C42127   6.829   4.209   2.691 -1.0079 -0.1257 -0.4145
  306MOL0     C42128   6.966   4.200   2.622 -0.1310 -0.2670 -0.0463
  306MOL0     C42129   7.038   4.072   2.676 -0.0364 -0.3318  0.1006
  306MOL0     C42130   7.165   4.063   2.592  0.5146  0.5666 -0.1580
  306MOL0     C42131   7.239   3.930   2.616  1.0093  0.6675 -0.2691
  306MOL0     C42132   7.356   3.904   2.516 -0.1249 -0.7888 -0.4999
  306MOL0     C42133   7.486   3.985   2.521 -0.8433 -0.9611 -0.4016
  306MOL0     C42134   7.474   4.146   2.520 -0.6946 -0.3629  0.6268
  306MOL0    Cl42135   7.624   4.228   2.519 -0.0794  0.1788 -0.2637
  306MOL0     C42136   6.662   4.006   2.893 -0.3163 -0.8839 -0.3887
  306MOL0     C42137   6.563   4.008   2.994  0.3417  1.0792  0.4467
  306MOL0     O42138   6.451   4.026   3.252  0.0972  0.0916  0.2565
  306MOL0     C42139   6.142   4.190   3.218  0.2390  0.3973  0.4193
  306MOL0     C42140   6.020   4.215   3.286 -0.6641  0.0064  0.1505
  306MOL0     N42141   5.420   4.288   3.380 -0.5372  1.4045 -0.5272
  306MOL0     N42142   5.390   4.415   3.366 -0.1634  0.2254 -0.7617
  306MOL0     C42143   5.742   4.827   4.483  0.4313 -0.7638  0.2979
  306MOL0     C42144   5.691   4.850   4.610  0.6093  0.8684 -0.0688
  306MOL0     C42145   5.457   4.937   4.968  0.5217  0.2052  0.2565
  306MOL0     C42146   5.455   4.816   5.046 -0.0267 -0.6554 -0.0139
  306MOL0     C42147   5.355   4.791   5.137  0.2400 -0.3444 -0.0404
  306MOL0     C42148   5.243   4.878   5.143 -1.4789  0.4572  1.0553
  306MOL0     O42149   5.128   4.850   5.204  0.5753  0.0789 -0.2120
  306MOL0     C42150   5.149   4.800   5.337 -0.2669  0.7119 -1.1395
  306MOL0     C42151   5.056   4.868   5.434 -0.2546 -0.3815 -0.0185
  306MOL0     C42152   4.912   4.856   5.391 -0.8430 -0.7978 -0.5615
  306MOL0     C42153   4.810   4.903   5.503 -0.1448 -0.2035  0.6376
  306MOL0     C42154   4.801   4.813   5.620 -0.2450  0.7893  0.0826
  306MOL0     C42155   4.807   4.751   5.726 -1.5809  0.5835  0.6645
  306MOL0     C42156   5.227   4.986   5.057 -0.4525 -0.1573 -0.9459
  306MOL0     C42157   5.337   5.017   4.965  0.2860  0.5646  0.0899
  306MOL0     C42158   5.322   5.153   4.894 -0.0813  0.1343 -0.3271
  306MOL0     H42159   5.484   5.106   4.514  0.3935  0.5469 -3.6001
  306MOL0     H42160   5.601   5.081   4.312 -1.6841 -0.1854  0.0163
  306MOL0     H42161   5.771   4.679   4.266 -1.5641  0.0070 -1.2399
  306MOL0     H42162   5.929   4.756   4.236  1.0506 -2.1993 -3.8020
  306MOL0     H42163   5.897   4.790   4.017  1.1201  1.3075  2.8373
  306MOL0     H42164   5.838   4.630   4.060  2.8174  0.9008 -0.7270
  306MOL0     H42165   5.594   4.725   4.073  0.1429 -0.5043  0.5910
  306MOL0     H42166   5.651   4.867   3.980  0.0110 -1.0356 -1.2257
  306MOL0     H42167   5.708   4.729   3.791 -1.9653 -0.6281 -1.3768
  306MOL0     H42168   5.666   4.585   3.896  0.9703 -0.3811  0.8299
  306MOL0     H42169   5.504   4.819   3.782  0.4395 -0.9615 -0.2702
  306MOL0     H42170   5.443   4.693   3.895  2.5878  0.6011  2.8519
  306MOL0     H42171   5.532   4.663   3.595  0.4183 -0.0965 -0.4621
  306MOL0     H42172   5.508   4.525   3.713  1.0276 -0.3415 -3.1526
  306MOL0     H42173   5.318   4.743   3.669 -1.6735  0.6171 -1.5194
  306MOL0     H42174   5.277   4.569   3.720 -2.6591  1.3015 -1.1391
  306MOL0     H42175   5.202   4.615   3.497  0.7670 -2.0237 -2.6717
  306MOL0     H42176   5.351   4.669   3.446 -0.9016  1.7579 -0.4918
  306MOL0     H42177   5.312   4.343   3.675 -0.4977 -0.4867 -0.7354
  306MOL0     H42178   5.365   4.028   3.491 -0.1609 -0.7353  0.9659
  306MOL0     H42179   5.399   4.093   3.648 -0.4208 -1.9019 -0.1688
  306MOL0     H42180   5.600   3.974   3.549  2.9675  0.6193  2.9679
  306MOL0     H42181   5.603   4.098   3.424 -1.7105  0.2278  0.1907
  306MOL0     H42182   5.649   4.275   3.625  1.3385  0.5129 -0.1365
  306MOL0     H42183   5.652   4.130   3.727 -1.4156 -2.4112 -0.7248
  306MOL0     H42184   5.874   4.233   3.652 -0.6730  3.0274 -1.5435
  306MOL0     H42185   5.851   4.064   3.622 -1.6890 -0.6916  1.4033
  306MOL0     H42186   6.065   4.078   3.587  3.9631 -0.1461  1.2229
  306MOL0     H42187   6.327   3.888   3.433  0.0359 -0.1619 -0.1392
  306MOL0     H42188   6.269   3.943   3.596 -0.1485  0.6107  0.1989
  306MOL0     H42189   6.401   4.022   3.511  0.4272 -0.8326 -0.6510
  306MOL0     H42190   6.349   4.233   2.854  0.9882  0.0052 -0.7716
  306MOL0     H42191   6.520   4.222   2.675 -0.7855 -3.3355 -1.5248
  306MOL0     H42192   6.778   4.288   2.635 -0.0511  1.2307  0.5606
  306MOL0     H42193   6.853   4.249   2.790 -0.3073 -5.1070  1.7095
  306MOL0     H42194   6.955   4.201   2.513  4.4680  1.7499 -0.7420
  306MOL0     H42195   7.026   4.288   2.647 -0.0017  0.2783 -2.0882
  306MOL0     H42196   6.974   3.985   2.663 -1.1666  0.4224  0.5020
  306MOL0     H42197   7.061   4.082   2.782  0.8802  1.8131 -0.2279
  306MOL0     H42198   7.232   4.144   2.623  1.4476 -0.0431 -0.5451
  306MOL0     H42199   7.138   4.060   2.486  1.9629 -1.6879 -0.5395
  306MOL0     H42200   7.285   3.938   2.714  2.9201 -1.0486 -0.9437
  306MOL0     H42201   7.165   3.850   2.623  0.2260  1.3821 -0.2956
  306MOL0     H42202   7.315   3.907   2.415  1.0259 -0.8516 -0.9886
  306MOL0     H42203   7.381   3.801   2.541 -0.6846 -0.8960 -0.3726
  306MOL0     H42204   7.559   3.955   2.445  0.5909  2.9049 -0.7812
  306MOL0     H42205   7.542   3.970   2.614  1.8258  1.5844 -1.4472
  306MOL0     H42206   7.427   4.171   2.616  0.5351  1.3253  0.8246
  306MOL0     H42207   7.419   4.173   2.429  1.0517  0.8525 -0.1167
  306MOL0     H42208   6.748   3.940   2.885  0.4634  0.0705 -0.0644
  306MOL0     H42209   6.569   3.943   3.080  0.6013  2.5788  1.6097
  306MOL0     H42210   6.131   4.225   3.116  1.3771 -0.9546 -0.2153
  306MOL0     H42211   5.949   4.273   3.228 -1.4019  0.0273  1.0519
  306MOL0     H42212   5.823   4.755   4.474 -0.0777 -1.2733 -0.3547
  306MOL0     H42213   5.712   4.787   4.696 -1.6898  1.9692  1.4270
  306MOL0     H42214   5.551   4.764   5.047  1.0401  1.1263  2.3431
  306MOL0     H42215   5.342   4.712   5.211 -0.8060  1.7986  2.2070
  306MOL0     H42216   5.145   4.691   5.351  0.7730  0.9178  1.1164
  306MOL0     H42217   5.244   4.840   5.375  0.8162 -1.4915 -1.3762
  306MOL0     H42218   5.075   4.975   5.436 -0.5171 -0.3289 -0.2508
  306MOL0     H42219   5.061   4.819   5.532  0.1107 -4.1975 -1.7594
  306MOL0     H42220   4.903   4.923   5.305  0.2032  1.8075  1.2075
  306MOL0     H42221   4.894   4.750   5.375  1.1133 -1.6475  2.0250
  306MOL0     H42222   4.714   4.930   5.457 -0.0259  0.1691  0.6068
  306MOL0     H42223   4.856   4.994   5.542  1.7716 -1.3236  1.1118
  306MOL0     H42224   4.820   4.707   5.822 -2.1914 -1.3389 -0.0939
  306MOL0     H42225   5.135   5.042   5.068  0.2463  0.7265  0.9142
  306MOL0     H42226   5.298   5.226   4.971 -0.6749 -0.5010  0.0976
  306MOL0     H42227   5.411   5.189   4.841 -0.4090  0.0227 -0.9658
  306MOL0     H42228   5.247   5.155   4.815  0.9115  1.6678 -1.2984
  307MOL0     O42229  11.021   0.575   8.872 -0.4952  0.9279 -0.8825
  307MOL0     C42230  11.125   0.638   8.863  0.4232  0.0518 -0.4622
  307MOL0     O42231  11.137   0.772   8.828 -0.1841  0.0132 -0.3194
  307MOL0     C42232  11.019   0.843   8.801 -0.0863 -0.3262 -0.2111
  307MOL0     C42233  10.986   0.948   8.888 -0.7831  0.4034  0.0232
  307MOL0     C42234  10.881   1.040   8.849 -0.6043 -0.5721 -0.8623
  307MOL0     C42235  10.810   1.018   8.729 -0.3351 -0.2554 -0.1536
  307MOL0     O42236  10.706   1.093   8.686 -0.0889  0.1687 -0.1201
  307MOL0     C42237  10.727   1.226   8.633  0.9821  0.3943 -0.0379
  307MOL0     C42238  10.808   1.225   8.504  0.0646  0.4191  0.1941
  307MOL0     C42239  10.963   1.218   8.506  0.5098 -0.2863  0.8509
  307MOL0     C42240  11.047   1.327   8.579  0.1128  0.0376 -0.4149
  307MOL0     C42241  11.197   1.322   8.551 -1.1751  0.4510 -0.5539
  307MOL0     C42242  11.256   1.201   8.625  0.9250 -0.4137 -0.4713
  307MOL0     C42243  11.393   1.145   8.596  0.1389  0.7432 -0.3006
  307MOL0     C42244  11.416   1.021   8.674  0.6100  0.1304 -0.0685
  307MOL0     N42245  11.564   0.982   8.665  0.3813  1.3844  0.8292
  307MOL0     C42246  11.628   0.932   8.552 -0.3015 -0.4340  0.0776
  307MOL0     C42247  11.759   0.953   8.562  0.9566 -0.1068 -0.7805
  307MOL0     C42248  11.866   0.894   8.469 -0.4834 -0.5073 -0.7796
  307MOL0     C42249  11.968   0.819   8.553  0.1989  0.4076  0.0644
  307MOL0     C42250  12.045   0.739   8.455 -0.4618  0.3087  0.3361
  307MOL0     C42251  12.157   0.647   8.511  0.4077  0.7842 -0.2889
  307MOL0     O42252  12.251   0.701   8.603  0.2029 -0.2146 -0.3137
  307MOL0     C42253  12.337   0.606   8.659  0.5149 -0.1489 -0.2493
  307MOL0     C42254  12.385   0.657   8.784 -0.1740  0.7817  0.9944
  307MOL0     C42255  12.463   0.570   8.860  0.3326 -0.7200 -0.5348
  307MOL0     C42256  12.500   0.625   8.996 -1.1623 -0.4532 -0.4692
  307MOL0     C42257  12.499   0.439   8.807  0.1236 -0.2300 -1.2580
  307MOL0     C42258  12.576   0.338   8.891 -0.3400  0.0485 -0.6303
  307MOL0     O42259  12.658   0.253   8.822 -0.3363  0.4244  1.2858
  307MOL0     C42260  12.688   0.133   8.883  0.2109  0.4782 -0.9865
  307MOL0     C42261  12.595   0.026   8.896  0.1291 -0.1786  0.3792
  307MOL0     C42262  12.621  -0.085   8.971  1.0173  0.5884  0.9769
  307MOL0     C42263  12.748  -0.099   9.029  0.2505 -0.8509  0.2366
  307MOL0     O42264  12.772  -0.211   9.098 -0.0812  0.3627  0.0750
  307MOL0     C42265  12.890  -0.220   9.178 -0.3815  0.0183  1.3168
  307MOL0     C42266  12.864  -0.325   9.277 -0.5071  0.0575 -1.1225
  307MOL0     C42267  12.761  -0.303   9.394  0.1639 -0.2293  0.5124
  307MOL0     C42268  12.657  -0.418   9.373 -0.0170  0.0705 -0.3096
  307MOL0     C42269  12.527  -0.383   9.457  1.0181  0.9702  0.2891
  307MOL0     C42270  12.440  -0.500   9.485  1.0428 -0.6562  0.2023
  307MOL0     C42271  12.313  -0.449   9.558  0.7218  1.0099  0.1410
  307MOL0     C42272  12.189  -0.531   9.516  0.1403  0.1715  0.5527
  307MOL0    Cl42273  12.173  -0.699   9.578  0.3779 -0.3352 -0.1332
  307MOL0     C42274  12.845   0.003   9.012 -0.5266  0.4353 -0.1492
  307MOL0     C42275  12.813   0.121   8.947 -0.4143 -0.2657  0.1335
  307MOL0     O42276  12.547   0.324   9.007 -0.6809  0.3623  0.4099
  307MOL0     C42277  12.453   0.401   8.680  0.4318 -0.1402  0.1233
  307MOL0     C42278  12.369   0.485   8.608  0.4381  0.6071 -0.8400
  307MOL0     N42279  11.774   1.012   8.687  0.5757 -0.1262 -0.0970
  307MOL0     N42280  11.661   1.035   8.745  0.3072 -0.6856  0.3274
  307MOL0     C42281  10.853   0.910   8.646  0.4483 -0.9080  0.0384
  307MOL0     C42282  10.956   0.822   8.680 -1.0424 -0.7653  0.8931
  307MOL0     C42283  11.238   0.558   8.915 -1.0475 -0.3711 -1.0368
  307MOL0     C42284  11.372   0.606   8.879 -0.1900  0.2616 -0.4394
  307MOL0     C42285  11.486   0.546   8.938  0.0197  0.3078  0.7596
  307MOL0     C42286  11.471   0.419   9.001  0.3992 -0.5655  0.7715
  307MOL0     O42287  11.574   0.331   9.031 -0.5093  0.1814  0.1611
  307MOL0     C42288  11.711   0.369   9.003  0.1481  0.0211 -0.2808
  307MOL0     C42289  11.791   0.245   9.017 -0.1835 -0.0167  0.6990
  307MOL0     C42290  11.765   0.144   8.905 -0.5773  0.4723 -0.0002
  307MOL0     C42291  11.850   0.019   8.917  0.7848  0.1086 -0.5719
  307MOL0     C42292  11.792  -0.084   8.834  0.4979  0.2364 -0.5453
  307MOL0     C42293  11.714  -0.160   8.776 -0.6206  0.3010  0.7207
  307MOL0     C42294  11.344   0.375   9.032  0.4506 -0.8334  1.0252
  307MOL0     C42295  11.231   0.436   8.993 -0.1232 -0.3002  0.6960
  307MOL0     C42296  11.115   0.367   9.020 -0.2072  0.3760 -0.2749
  307MOL0     H42297  11.042   0.969   8.978 -2.1378  1.2145  0.7232
  307MOL0     H42298  10.850   1.123   8.911  2.0366 -0.8439  0.9758
  307MOL0     H42299  10.767   1.291   8.712 -0.9087  0.9367  0.5148
  307MOL0     H42300  10.629   1.268   8.609  0.5697  0.4684  1.6574
  307MOL0     H42301  10.773   1.139   8.446 -0.1971  0.6469  0.0078
  307MOL0     H42302  10.772   1.313   8.450  0.7847  0.3834 -0.3570
  307MOL0     H42303  10.987   1.120   8.548  1.0562  0.6253  2.7398
  307MOL0     H42304  10.996   1.220   8.401  2.6332  0.0297  1.4845
  307MOL0     H42305  11.016   1.429   8.554  2.5215  1.1395  0.7818
  307MOL0     H42306  11.038   1.312   8.687 -1.0928  1.3235 -0.3045
  307MOL0     H42307  11.248   1.414   8.578  2.2434 -0.7899 -2.1990
  307MOL0     H42308  11.209   1.302   8.444  0.2878  0.3791 -0.3849
  307MOL0     H42309  11.257   1.227   8.731  4.2623  0.3904 -0.5923
  307MOL0     H42310  11.180   1.126   8.603  0.9151 -0.1007 -1.5644
  307MOL0     H42311  11.469   1.220   8.615  1.7284 -0.9374  0.2176
  307MOL0     H42312  11.403   1.124   8.489  1.7352 -1.5781  0.2180
  307MOL0     H42313  11.388   1.054   8.775  0.2285 -0.7761  0.1385
  307MOL0     H42314  11.358   0.931   8.649  0.5002  0.4843 -1.1283
  307MOL0     H42315  11.572   0.878   8.477 -2.4452  3.5582 -1.5265
  307MOL0     H42316  11.916   0.968   8.405 -1.7820 -0.0343 -1.2776
  307MOL0     H42317  11.829   0.820   8.398  2.8821 -1.7970 -1.3563
  307MOL0     H42318  12.043   0.877   8.608  1.0048  1.4581 -2.0217
  307MOL0     H42319  11.921   0.746   8.619 -0.6589  1.3176  0.4869
  307MOL0     H42320  11.977   0.667   8.409 -0.4331 -1.7907  3.2755
  307MOL0     H42321  12.088   0.808   8.381  0.1318  2.3719  2.4883
  307MOL0     H42322  12.096   0.573   8.564  1.2609  0.0764 -0.2569
  307MOL0     H42323  12.200   0.600   8.422  0.6241  0.2202  0.1098
  307MOL0     H42324  12.351   0.753   8.821  0.1845  2.1559 -1.9577
  307MOL0     H42325  12.603   0.600   9.023 -1.4823 -0.7474  0.5105
  307MOL0     H42326  12.433   0.585   9.072  1.4577 -1.1660  1.6180
  307MOL0     H42327  12.494   0.734   8.996  1.7907 -0.2079  0.4970
  307MOL0     H42328  12.502   0.035   8.841  0.9832  0.3714 -1.0450
  307MOL0     H42329  12.551  -0.167   8.958 -0.4608  1.9675 -0.0074
  307MOL0     H42330  12.968  -0.230   9.102 -1.5339  0.2151  0.0869
  307MOL0     H42331  12.910  -0.127   9.233 -2.2651 -0.1595  2.4002
  307MOL0     H42332  12.841  -0.414   9.217 -1.6323 -0.8890  0.6094
  307MOL0     H42333  12.959  -0.352   9.326 -0.8695 -2.0871 -1.4837
  307MOL0     H42334  12.711  -0.206   9.382  0.6250 -0.1551 -1.0323
  307MOL0     H42335  12.812  -0.309   9.490  0.9642 -2.0533  0.0209
  307MOL0     H42336  12.697  -0.515   9.406  1.2524  1.2291  1.8017
  307MOL0     H42337  12.618  -0.433   9.272 -1.2255 -0.8279  0.2652
  307MOL0     H42338  12.557  -0.333   9.550  1.6925 -0.4674  0.8916
  307MOL0     H42339  12.466  -0.313   9.400 -3.8664 -1.8433  1.4039
  307MOL0     H42340  12.497  -0.568   9.548 -0.2900 -0.7950  1.2895
  307MOL0     H42341  12.420  -0.547   9.388 -2.4266  2.1102 -0.6434
  307MOL0     H42342  12.285  -0.345   9.538  0.7626  1.3487  1.7514
  307MOL0     H42343  12.322  -0.465   9.666 -1.2175 -4.0603 -0.1717
  307MOL0     H42344  12.194  -0.548   9.408  0.3586  0.6723  0.4819
  307MOL0     H42345  12.095  -0.476   9.533 -0.2336 -0.8444  1.8865
  307MOL0     H42346  12.948  -0.012   9.045 -0.6657 -2.8162 -0.8657
  307MOL0     H42347  12.881   0.205   8.955 -2.7349  1.5575  1.7941
  307MOL0     H42348  12.483   0.302   8.646  0.1814 -1.0484  2.3658
  307MOL0     H42349  12.320   0.441   8.521  0.1737  1.9627 -1.4150
  307MOL0     H42350  10.785   0.898   8.562  0.2722  0.8807 -0.1117
  307MOL0     H42351  11.004   0.749   8.616  2.5860 -0.1360  2.6508
  307MOL0     H42352  11.376   0.694   8.816 -0.1641  0.8126  0.3180
  307MOL0     H42353  11.581   0.585   8.903 -2.0419  3.7038 -1.7517
  307MOL0     H42354  11.716   0.402   8.899 -1.9124 -0.8508 -0.7135
  307MOL0     H42355  11.745   0.453   9.065  1.4794  0.7058 -1.8824
  307MOL0     H42356  11.767   0.199   9.114  1.6046 -1.0442  0.7001
  307MOL0     H42357  11.894   0.278   9.033  0.5819 -1.8060 -0.2697
  307MOL0     H42358  11.660   0.112   8.898 -0.4375  0.1497 -0.6061
  307MOL0     H42359  11.792   0.202   8.816  1.8308  2.2589  1.7530
  307MOL0     H42360  11.856  -0.025   9.017 -0.2210 -0.8227 -0.9049
  307MOL0     H42361  11.951   0.041   8.881  1.5179 -2.1579 -0.0669
  307MOL0     H42362  11.645  -0.221   8.722  0.7599  1.6278 -2.8687
  307MOL0     H42363  11.342   0.287   9.095 -0.5582 -1.6060 -0.0266
  307MOL0     H42364  11.052   0.435   9.078 -0.6588 -2.0123  2.2340
  307MOL0     H42365  11.069   0.336   8.925  0.8467 -0.0821 -0.6475
  307MOL0     H42366  11.137   0.290   9.094  2.3090 -0.4659 -1.7723
  308MOL0     O42367   3.024   1.034   3.266  0.6251  0.4476 -0.3150
  308MOL0     C42368   3.010   1.084   3.372  0.2512  0.1112  0.2094
  308MOL0     O42369   2.963   1.011   3.484 -0.0556  0.1173  0.6607
  308MOL0     C42370   2.890   0.896   3.473  1.0523 -0.5784 -0.6238
  308MOL0     C42371   2.900   0.808   3.569 -0.0620  0.8929  0.5817
  308MOL0     C42372   2.833   0.686   3.565 -0.5342  0.3911 -0.2116
  308MOL0     C42373   2.734   0.663   3.468 -0.5009  0.1570  0.3129
  308MOL0     O42374   2.666   0.548   3.478  0.6065 -0.1120  0.9216
  308MOL0     C42375   2.609   0.504   3.356 -0.6358  0.0257  0.2151
  308MOL0     C42376   2.553   0.365   3.369 -0.0993 -0.4173  0.9240
  308MOL0     C42377   2.654   0.256   3.327  0.1705 -0.5568  0.4362
  308MOL0     C42378   2.731   0.200   3.449 -0.0721 -0.8935  0.0471
  308MOL0     C42379   2.882   0.213   3.431 -0.6507  0.5985 -0.8110
  308MOL0     C42380   2.938   0.138   3.306 -0.7627 -0.5434  0.7137
  308MOL0     C42381   3.090   0.095   3.318 -0.0912 -0.6590  0.3132
  308MOL0     C42382   3.187   0.213   3.320 -0.1076 -0.1884  0.0402
  308MOL0     N42383   3.323   0.164   3.353  0.0763  0.5909 -0.3862
  308MOL0     C42384   3.407   0.195   3.458  0.0614 -0.1992 -1.0128
  308MOL0     C42385   3.518   0.126   3.431  0.1470  0.3521 -0.1415
  308MOL0     C42386   3.628   0.127   3.534 -0.6171 -0.3152 -0.1371
  308MOL0     C42387   3.733   0.237   3.509 -0.4262  0.2548  0.1276
  308MOL0     C42388   3.812   0.207   3.373  0.1936 -0.0461 -0.6857
  308MOL0     C42389   3.914   0.319   3.344 -0.0752  0.0979 -0.0105
  308MOL0     O42390   4.005   0.337   3.454  0.0454 -0.0112 -0.1351
  308MOL0     C42391   4.061   0.460   3.474  0.5881 -0.3007 -0.2354
  308MOL0     C42392   4.079   0.557   3.374  0.4010  0.3523 -0.5675
  308MOL0     C42393   4.145   0.682   3.404 -0.4189 -0.8798  0.0968
  308MOL0     C42394   4.161   0.785   3.298  0.5256 -0.1777 -0.3273
  308MOL0     C42395   4.197   0.702   3.534  0.9328  0.2079 -0.1189
  308MOL0     C42396   4.266   0.828   3.584  0.4725 -0.6749 -0.0869
  308MOL0     O42397   4.361   0.799   3.671 -1.3071  0.6651 -0.8345
  308MOL0     C42398   4.458   0.888   3.708  0.5340 -0.4281 -0.1680
  308MOL0     C42399   4.561   0.841   3.782 -0.7158  0.4122  0.7124
  308MOL0     C42400   4.662   0.924   3.821 -0.3025 -0.2608  0.5027
  308MOL0     C42401   4.669   1.060   3.781 -0.6040  0.5872  0.1608
  308MOL0     O42402   4.789   1.130   3.805 -0.0147 -0.4145 -0.0640
  308MOL0     C42403   4.812   1.265   3.749  0.5103 -0.1134 -0.1369
  308MOL0     C42404   4.959   1.293   3.749 -0.8665  0.3208 -0.2133
  308MOL0     C42405   5.017   1.281   3.893  0.3447 -0.1012  0.0990
  308MOL0     C42406   5.163   1.250   3.886  0.1487 -0.5401 -0.9715
  308MOL0     C42407   5.240   1.269   4.012  0.7114 -0.5567 -0.8185
  308MOL0     C42408   5.171   1.209   4.137  0.5394  0.0679  0.5598
  308MOL0     C42409   5.239   1.223   4.273  0.6644  0.0321  0.6032
  308MOL0     C42410   5.259   1.368   4.315  0.5647  0.2370 -0.9341
  308MOL0    Cl42411   5.110   1.457   4.321  0.2419  0.2015 -0.1307
  308MOL0     C42412   4.554   1.108   3.722  0.6601  0.3056 -0.3329
  308MOL0     C42413   4.446   1.017   3.690  0.4553 -0.4766 -0.2397
  308MOL0     O42414   4.238   0.938   3.530 -0.2215 -1.1000 -0.8744
  308MOL0     C42415   4.170   0.606   3.637 -0.2505 -0.9916  0.1184
  308MOL0     C42416   4.105   0.489   3.605 -0.0023  0.1286 -0.9244
  308MOL0     N42417   3.510   0.057   3.310  0.8119  0.0035 -0.5099
  308MOL0     N42418   3.388   0.086   3.257  0.8273 -0.1436 -0.6296
  308MOL0     C42419   2.714   0.759   3.375  0.0902  0.1841  1.1879
  308MOL0     C42420   2.791   0.877   3.377 -0.5365  0.6066 -0.0173
  308MOL0     C42421   3.097   1.205   3.385  0.1025  1.1366 -0.7278
  308MOL0     C42422   3.159   1.221   3.510 -0.1808  0.0938  0.8569
  308MOL0     C42423   3.258   1.316   3.523  0.5590 -0.3721 -0.1111
  308MOL0     C42424   3.291   1.403   3.423 -0.0389 -0.0053  0.6284
  308MOL0     O42425   3.388   1.491   3.454 -1.0348 -0.4307  0.9144
  308MOL0     C42426   3.471   1.550   3.343  0.3263  0.0170  0.9447
  308MOL0     C42427   3.591   1.606   3.403 -0.0598  0.0903 -0.4440
  308MOL0     C42428   3.690   1.502   3.462 -0.4149 -0.5066 -0.2963
  308MOL0     C42429   3.831   1.560   3.491  0.1641  1.1375 -0.4072
  308MOL0     C42430   3.914   1.589   3.375 -0.3622 -0.1040 -0.0719
  308MOL0     C42431   3.996   1.601   3.283  0.4442 -1.0831 -0.2553
  308MOL0     C42432   3.239   1.387   3.298  0.0738  0.1643 -0.0836
  308MOL0     C42433   3.137   1.289   3.277  0.4104  0.1243  0.1759
  308MOL0     C42434   3.070   1.297   3.144 -0.4947 -0.3919  0.7108
  308MOL0     H42435   2.965   0.817   3.655  2.2583 -2.5158 -0.6159
  308MOL0     H42436   2.833   0.607   3.639  0.4928  0.2296 -0.3585
  308MOL0     H42437   2.688   0.495   3.281  0.9055 -0.6318  1.8205
  308MOL0     H42438   2.538   0.577   3.316  0.6190  0.9741 -0.3495
  308MOL0     H42439   2.512   0.347   3.469 -3.2266 -3.1786 -0.6458
  308MOL0     H42440   2.471   0.358   3.297 -1.5212  0.2246  2.4001
  308MOL0     H42441   2.594   0.174   3.287 -0.3495 -2.0009  3.7947
  308MOL0     H42442   2.718   0.285   3.243 -0.2590  1.2796  0.7129
  308MOL0     H42443   2.702   0.237   3.548  0.2932  1.0338 -0.5320
  308MOL0     H42444   2.713   0.092   3.451 -1.4628 -0.6723 -0.0623
  308MOL0     H42445   2.923   0.167   3.522 -0.1200 -0.3670 -1.5221
  308MOL0     H42446   2.915   0.317   3.434 -1.4818  0.8809 -1.1107
  308MOL0     H42447   2.873   0.050   3.301 -0.0421 -1.1305  1.4966
  308MOL0     H42448   2.926   0.189   3.210  0.6976 -1.0084  0.2477
  308MOL0     H42449   3.115   0.020   3.242  1.9429 -1.5399  1.7438
  308MOL0     H42450   3.115   0.042   3.411  0.8001  0.2014  0.5801
  308MOL0     H42451   3.184   0.265   3.224  1.2931  0.2793  0.2250
  308MOL0     H42452   3.157   0.291   3.390 -4.9387 -2.5539  1.0405
  308MOL0     H42453   3.393   0.262   3.542 -2.9175 -0.2406 -1.3867
  308MOL0     H42454   3.672   0.028   3.516 -0.6233 -0.1675 -1.0176
  308MOL0     H42455   3.592   0.136   3.637  2.6488 -0.6583  1.1612
  308MOL0     H42456   3.677   0.330   3.495 -0.8260  0.0504  0.3384
  308MOL0     H42457   3.811   0.239   3.585  1.4654 -1.5740 -1.6405
  308MOL0     H42458   3.857   0.107   3.377  0.1060 -0.0602  3.3437
  308MOL0     H42459   3.744   0.204   3.288  0.0432 -1.0150 -0.5348
  308MOL0     H42460   3.970   0.295   3.253 -1.0421 -0.8243 -0.3834
  308MOL0     H42461   3.865   0.413   3.315  2.9617  2.3959  1.7902
  308MOL0     H42462   4.065   0.526   3.270  1.0171 -1.9456 -0.0224
  308MOL0     H42463   4.152   0.729   3.205 -2.0381  1.2817 -1.0482
  308MOL0     H42464   4.252   0.844   3.312 -0.4317  1.6129 -1.3388
  308MOL0     H42465   4.080   0.858   3.305  2.6221  2.4245 -1.2547
  308MOL0     H42466   4.580   0.736   3.801  2.9284  0.3799 -2.0975
  308MOL0     H42467   4.750   0.884   3.871  2.3638  1.6929 -2.2538
  308MOL0     H42468   4.766   1.280   3.651  2.1322 -0.3285 -0.9640
  308MOL0     H42469   4.761   1.333   3.818 -0.4648  1.4306 -2.2757
  308MOL0     H42470   5.012   1.221   3.686 -2.0677  0.6278 -1.6265
  308MOL0     H42471   4.975   1.396   3.715  0.5492 -0.0377 -0.7178
  308MOL0     H42472   4.983   1.190   3.944  4.0234 -0.9331  1.3886
  308MOL0     H42473   4.986   1.371   3.946 -1.0127 -0.6372  0.2549
  308MOL0     H42474   5.216   1.317   3.817  0.2339  2.0613  1.4167
  308MOL0     H42475   5.184   1.153   3.839  0.7965 -0.0295 -1.7696
  308MOL0     H42476   5.337   1.221   3.991  1.7530  1.5183 -0.9707
  308MOL0     H42477   5.258   1.376   4.023 -2.4439  0.2395 -2.2669
  308MOL0     H42478   5.170   1.100   4.126 -0.5393  0.0763  0.5174
  308MOL0     H42479   5.073   1.256   4.140  1.2257  1.9719 -2.2915
  308MOL0     H42480   5.339   1.182   4.251  0.3750  1.0282 -3.1611
  308MOL0     H42481   5.177   1.166   4.343 -0.4195  1.3631  0.7667
  308MOL0     H42482   5.330   1.422   4.250  0.8459  1.5231  0.3815
  308MOL0     H42483   5.304   1.360   4.415  0.1141 -0.9137 -0.8137
  308MOL0     H42484   4.534   1.214   3.711  0.4261  0.2051 -0.8903
  308MOL0     H42485   4.362   1.075   3.654 -1.7371 -2.0699  1.9456
  308MOL0     H42486   4.198   0.634   3.738 -0.7250  3.4951 -0.7962
  308MOL0     H42487   4.087   0.428   3.693  1.0089 -1.0377 -1.4926
  308MOL0     H42488   2.647   0.754   3.290  3.9070 -2.1916 -2.0262
  308MOL0     H42489   2.774   0.954   3.302 -3.2700 -1.4323 -1.6953
  308MOL0     H42490   3.148   1.144   3.586  0.9731 -0.5318  0.4165
  308MOL0     H42491   3.313   1.322   3.617  1.9503  2.5025 -0.9812
  308MOL0     H42492   3.499   1.471   3.273  0.4948 -0.2780  1.3383
  308MOL0     H42493   3.415   1.622   3.283 -0.0197 -1.2693 -0.3295
  308MOL0     H42494   3.561   1.669   3.488 -0.6878  2.9521 -2.6207
  308MOL0     H42495   3.644   1.661   3.326 -0.6359 -0.2208 -1.0722
  308MOL0     H42496   3.635   1.464   3.549 -2.8461 -1.1675 -1.9979
  308MOL0     H42497   3.705   1.414   3.399  0.1991  0.7624 -1.9919
  308MOL0     H42498   3.885   1.483   3.548 -0.6619  1.4395  0.8096
  308MOL0     H42499   3.817   1.646   3.556 -1.2484  1.1316 -0.6679
  308MOL0     H42500   4.075   1.621   3.213  0.8482 -1.0368  0.2023
  308MOL0     H42501   3.264   1.454   3.217  1.2598  0.0660  0.1833
  308MOL0     H42502   3.102   1.214   3.080  2.1107 -1.4448  3.1384
  308MOL0     H42503   2.961   1.302   3.153 -0.5027  0.3614  0.2564
  308MOL0     H42504   3.096   1.393   3.098 -0.7011 -0.2820  0.8232
  309MOL0     O42505   3.341   2.837   7.143 -0.7852 -0.5386  0.2132
  309MOL0     C42506   3.294   2.944   7.089  0.8004  0.5844  0.0688
  309MOL0     O42507   3.364   3.041   7.029  0.4520  0.5099 -0.4828
  309MOL0     C42508   3.499   3.020   7.009 -0.7232 -0.4884  0.2828
  309MOL0     C42509   3.601   3.093   7.074  0.0495  1.5086 -0.0255
  309MOL0     C42510   3.729   3.091   7.033 -0.5938  0.1956  0.1093
  309MOL0     C42511   3.773   3.006   6.934 -0.0148  0.2070 -0.4171
  309MOL0     O42512   3.901   3.019   6.882  0.4658  0.5994  0.2604
  309MOL0     C42513   3.955   2.942   6.779 -0.2494  0.4090 -0.0639
  309MOL0     C42514   4.097   2.984   6.740  0.0144  0.0303 -0.7278
  309MOL0     C42515   4.200   3.009   6.852  0.5117  0.4329 -0.5652
  309MOL0     C42516   4.330   3.046   6.794 -0.3467  0.8880  0.1232
  309MOL0     C42517   4.442   3.040   6.906  0.8235  0.5718 -0.4969
  309MOL0     C42518   4.422   3.153   7.017 -0.2464  0.2501  0.1633
  309MOL0     C42519   4.540   3.149   7.114  0.5215  0.8194  0.0138
  309MOL0     C42520   4.516   3.246   7.222  1.0558  0.3285 -0.7916
  309MOL0     N42521   4.613   3.245   7.330  0.5564  0.4114  0.6408
  309MOL0     C42522   4.613   3.146   7.419 -1.3959  0.1216  0.4179
  309MOL0     C42523   4.690   3.188   7.521 -0.0290  0.2364 -0.9458
  309MOL0     C42524   4.739   3.110   7.641 -0.4303 -0.0627 -0.2745
  309MOL0     C42525   4.869   3.016   7.600  0.5159  0.1538  0.2087
  309MOL0     C42526   4.893   2.910   7.701 -0.0643 -0.0584 -0.1339
  309MOL0     C42527   5.026   2.834   7.670 -1.0726  0.3317  0.2119
  309MOL0     O42528   5.054   2.824   7.530 -0.0300 -0.2165 -0.6499
  309MOL0     C42529   5.154   2.734   7.499 -0.5531  0.0441  1.0350
  309MOL0     C42530   5.128   2.612   7.448 -0.0144  0.5896  1.7992
  309MOL0     C42531   5.229   2.522   7.404 -0.8736 -0.1567 -0.6543
  309MOL0     C42532   5.182   2.385   7.362  0.0578  0.0354 -0.4315
  309MOL0     C42533   5.366   2.559   7.422  0.9765  0.7464 -0.3168
  309MOL0     C42534   5.477   2.480   7.381 -0.3162  0.5603  0.0734
  309MOL0     O42535   5.612   2.540   7.388 -0.3153  0.2399 -1.4272
  309MOL0     C42536   5.733   2.478   7.361  0.4372 -0.0404  0.9795
  309MOL0     C42537   5.765   2.343   7.381  0.2871 -0.3705 -0.0078
  309MOL0     C42538   5.885   2.288   7.345 -0.0774 -0.0594  0.0565
  309MOL0     C42539   5.988   2.370   7.298 -0.0929  0.4182 -0.8509
  309MOL0     O42540   6.118   2.314   7.279  0.6424 -0.6440 -0.5254
  309MOL0     C42541   6.227   2.403   7.325  0.0475 -0.5173 -0.0359
  309MOL0     C42542   6.273   2.489   7.214 -0.1319 -0.7034  0.0256
  309MOL0     C42543   6.342   2.407   7.110 -0.0819  0.5184 -1.0392
  309MOL0     C42544   6.453   2.483   7.034 -0.0975 -0.1546 -0.6581
  309MOL0     C42545   6.541   2.398   6.941  0.5386 -0.3470 -0.6758
  309MOL0     C42546   6.637   2.474   6.836  0.2980 -0.5135 -0.1074
  309MOL0     C42547   6.699   2.379   6.736 -0.4554 -0.1312 -0.8541
  309MOL0     C42548   6.766   2.454   6.630  0.5096 -0.3047  0.3858
  309MOL0    Cl42549   6.892   2.372   6.553  0.9435  0.4880  0.5251
  309MOL0     C42550   5.958   2.503   7.288  0.8763 -0.7252  0.3154
  309MOL0     C42551   5.837   2.564   7.315  0.5541 -0.2799 -0.1781
  309MOL0     O42552   5.456   2.370   7.336 -0.0274 -0.2734  0.5506
  309MOL0     C42553   5.388   2.686   7.487 -1.1530  0.6052 -0.8374
  309MOL0     C42554   5.287   2.770   7.522 -1.2405 -0.7812  0.4287
  309MOL0     N42555   4.717   3.325   7.498 -0.2147  0.1779 -0.1068
  309MOL0     N42556   4.675   3.359   7.379  0.2728  0.0947 -0.2222
  309MOL0     C42557   3.674   2.920   6.873  0.4374  0.3402  0.5451
  309MOL0     C42558   3.539   2.919   6.914  0.3541  0.0642 -1.3704
  309MOL0     C42559   3.143   2.952   7.085 -0.0072  0.3457 -0.8793
  309MOL0     C42560   3.071   2.837   7.138 -0.6302  0.3283  0.2174
  309MOL0     C42561   2.928   2.823   7.139  0.0653 -1.6249  0.4793
  309MOL0     C42562   2.854   2.927   7.086 -0.1830 -1.0049  0.6128
  309MOL0     O42563   2.717   2.929   7.089  0.6847 -0.2051  0.2352
  309MOL0     C42564   2.643   2.955   6.971  0.2999  0.0770  0.3180
  309MOL0     C42565   2.511   2.875   6.968 -0.3042  0.2502  0.3442
  309MOL0     C42566   2.536   2.718   6.974 -0.8978 -0.5603  0.1924
  309MOL0     C42567   2.409   2.636   6.931  0.4852 -0.2959 -0.2422
  309MOL0     C42568   2.304   2.653   7.035 -0.9797  0.1723  0.7381
  309MOL0     C42569   2.226   2.680   7.118 -0.1241  0.2052  0.0802
  309MOL0     C42570   2.915   3.045   7.051  0.5133 -1.0047 -0.2564
  309MOL0     C42571   3.058   3.056   7.040  0.2636  0.5066 -1.0178
  309MOL0     C42572   3.118   3.179   6.987  0.8912 -0.0320 -0.1320
  309MOL0     H42573   3.580   3.171   7.147  0.9351 -0.3747  2.4121
  309MOL0     H42574   3.803   3.158   7.076 -0.4807  0.9272 -1.1824
  309MOL0     H42575   3.887   2.937   6.693  0.3980 -1.6248 -0.4981
  309MOL0     H42576   3.973   2.841   6.816  0.6130  0.9379  1.0034
  309MOL0     H42577   4.136   2.912   6.667 -1.4260  0.7754 -2.3118
  309MOL0     H42578   4.089   3.074   6.679  1.9053  2.1535  1.9286
  309MOL0     H42579   4.167   3.091   6.917 -1.1833 -1.6210  1.3514
  309MOL0     H42580   4.196   2.920   6.917  0.2574  0.6857 -0.2280
  309MOL0     H42581   4.358   2.977   6.714  0.9260 -0.3949  1.5943
  309MOL0     H42582   4.322   3.153   6.768  2.7339  1.1849  0.0176
  309MOL0     H42583   4.541   3.057   6.861 -0.0105  2.8966 -1.6125
  309MOL0     H42584   4.440   2.943   6.956 -1.2130  1.0858  0.4876
  309MOL0     H42585   4.420   3.249   6.963 -2.6790 -0.6393 -1.4918
  309MOL0     H42586   4.321   3.136   7.055 -0.9064 -2.0197 -2.2634
  309MOL0     H42587   4.641   3.160   7.074  1.6854 -3.0810  1.4179
  309MOL0     H42588   4.539   3.049   7.160  1.5825  0.5818 -0.4513
  309MOL0     H42589   4.526   3.348   7.182  1.7505  2.6743  4.5604
  309MOL0     H42590   4.418   3.233   7.269  1.5640 -1.8975 -0.2550
  309MOL0     H42591   4.564   3.051   7.401 -0.0904 -0.8734  1.8725
  309MOL0     H42592   4.654   3.047   7.668 -0.5045  0.1591  0.0145
  309MOL0     H42593   4.774   3.181   7.716 -0.2255  1.6095 -1.8927
  309MOL0     H42594   4.855   2.970   7.502 -2.3159  0.4351  0.3979
  309MOL0     H42595   4.957   3.081   7.599  0.2106  0.5702 -0.2698
  309MOL0     H42596   4.908   2.958   7.798 -0.3626 -0.4348  0.1028
  309MOL0     H42597   4.808   2.843   7.719 -0.2816 -0.1091 -1.2580
  309MOL0     H42598   5.112   2.867   7.729 -1.2025 -0.5255  0.9140
  309MOL0     H42599   5.013   2.734   7.713  0.5503  0.7739  1.8699
  309MOL0     H42600   5.022   2.587   7.445  0.6543 -2.6912  0.3400
  309MOL0     H42601   5.227   2.368   7.264  3.4774  2.0730  0.6153
  309MOL0     H42602   5.074   2.376   7.381  0.7749 -1.9630  3.7469
  309MOL0     H42603   5.232   2.318   7.432  0.3615  0.4532 -0.2490
  309MOL0     H42604   5.690   2.283   7.432 -0.3817 -0.3473 -0.9368
  309MOL0     H42605   5.912   2.184   7.365  0.4357  0.5333  2.9131
  309MOL0     H42606   6.192   2.467   7.407  4.0037  1.7831  0.0892
  309MOL0     H42607   6.300   2.337   7.373  0.6153  0.1626  0.0433
  309MOL0     H42608   6.190   2.552   7.180 -1.7384 -1.3355  2.5202
  309MOL0     H42609   6.348   2.552   7.263 -2.6552  1.2767  1.6214
  309MOL0     H42610   6.265   2.378   7.038  1.7817 -0.1551 -2.8984
  309MOL0     H42611   6.386   2.312   7.143 -1.7902 -0.3920 -1.2817
  309MOL0     H42612   6.524   2.535   7.099  1.9944  1.0576 -3.6335
  309MOL0     H42613   6.412   2.567   6.977  0.2439 -1.0775 -2.3476
  309MOL0     H42614   6.606   2.326   6.993  0.0613 -0.5851 -0.3966
  309MOL0     H42615   6.464   2.344   6.885  0.8288  0.5440 -1.9569
  309MOL0     H42616   6.727   2.511   6.887 -0.0927  0.5978 -0.1797
  309MOL0     H42617   6.576   2.551   6.788 -1.6492 -1.1747  1.2033
  309MOL0     H42618   6.622   2.315   6.693  0.0156 -1.3161  0.0135
  309MOL0     H42619   6.771   2.319   6.792  0.1375  2.9362  2.0414
  309MOL0     H42620   6.798   2.553   6.665 -2.4089  1.6043 -1.8207
  309MOL0     H42621   6.692   2.471   6.552  1.2329  1.6221  0.0474
  309MOL0     H42622   6.021   2.583   7.250 -1.5698  0.6903 -1.1131
  309MOL0     H42623   5.825   2.671   7.310 -1.8401 -0.4330  0.6883
  309MOL0     H42624   5.486   2.717   7.523 -1.2165  0.6931 -0.7401
  309MOL0     H42625   5.304   2.857   7.585 -0.3125 -1.6166  1.3838
  309MOL0     H42626   3.714   2.860   6.793 -1.1295 -0.7854  0.5554
  309MOL0     H42627   3.468   2.846   6.876  2.0407 -1.2459 -2.0948
  309MOL0     H42628   3.112   2.742   7.172 -0.4906  0.0187 -0.7692
  309MOL0     H42629   2.877   2.730   7.164 -1.0127 -0.5244  2.6945
  309MOL0     H42630   2.623   3.062   6.957  1.3098 -0.0910 -3.6214
  309MOL0     H42631   2.704   2.926   6.885 -0.1891  0.2979 -0.1036
  309MOL0     H42632   2.441   2.898   6.887 -0.9319 -4.3629 -0.6667
  309MOL0     H42633   2.462   2.911   7.059  1.9022  0.8649  1.3640
  309MOL0     H42634   2.613   2.712   6.896 -0.6517  3.0456 -0.0398
  309MOL0     H42635   2.565   2.684   7.073  0.2870  1.1372  0.4719
  309MOL0     H42636   2.446   2.533   6.935  1.9980  0.2596  1.5598
  309MOL0     H42637   2.371   2.648   6.829  0.3036 -3.4507 -0.6551
  309MOL0     H42638   2.143   2.695   7.185 -0.1007 -1.8287  0.6671
  309MOL0     H42639   2.860   3.133   7.019  2.6959 -0.0581 -1.5768
  309MOL0     H42640   3.047   3.262   6.997  0.7397 -0.2786  0.8818
  309MOL0     H42641   3.194   3.224   7.051 -0.8683  2.7437  0.1839
  309MOL0     H42642   3.148   3.175   6.882  1.8892  2.1070  0.0142
  310MOL0     O42643   2.540  10.318   1.828  0.3265  0.1094 -0.2769
  310MOL0     C42644   2.512  10.208   1.880  0.0400 -0.1595 -0.3974
  310MOL0     O42645   2.571  10.139   1.985 -0.1497 -0.9555  0.3228
  310MOL0     C42646   2.678  10.193   2.051 -0.7106 -0.0880  0.4118
  310MOL0     C42647   2.782  10.104   2.094  0.4097  0.7223 -0.2497
  310MOL0     C42648   2.886  10.157   2.170  0.0161  0.3166  0.9763
  310MOL0     C42649   2.900  10.296   2.206  0.0010  1.3614 -0.4671
  310MOL0     O42650   2.981  10.346   2.301  0.5390 -0.1885  0.2688
  310MOL0     C42651   2.989  10.266   2.421  0.1855  0.0324 -0.6389
  310MOL0     C42652   2.993  10.354   2.541 -0.0149 -0.1099  0.1730
  310MOL0     C42653   3.073  10.308   2.664  0.4533  0.2276  0.7911
  310MOL0     C42654   3.211  10.233   2.638 -0.5535  0.7478  0.1998
  310MOL0     C42655   3.277  10.214   2.775  0.5248  0.3850  0.1683
  310MOL0     C42656   3.404  10.138   2.765 -0.1092 -0.8781 -0.4816
  310MOL0     C42657   3.450  10.086   2.899  0.8725  0.1113 -0.3708
  310MOL0     C42658   3.590  10.041   2.908 -0.3467 -1.0561 -0.1672
  310MOL0     N42659   3.680  10.154   2.912 -0.0798 -0.1557  0.8717
  310MOL0     C42660   3.817  10.142   2.917 -0.1996 -0.1172  0.0290
  310MOL0     C42661   3.867  10.271   2.928  0.5523  0.1460  0.3003
  310MOL0     C42662   4.002  10.323   2.969 -0.6965 -0.3265  1.1103
  310MOL0     C42663   3.993  10.411   3.092 -0.8012  0.2339 -0.1824
  310MOL0     C42664   4.133  10.439   3.134  0.0318 -0.5885  0.0153
  310MOL0     C42665   4.142  10.497   3.273  0.1312  0.2515  0.9418
  310MOL0     O42666   4.060  10.622   3.286  1.2603  0.6715  0.3158
  310MOL0     C42667   4.031  10.667   3.418 -0.0243 -0.2845  0.3066
  310MOL0     C42668   3.899  10.672   3.457 -0.2942 -0.1896  0.8135
  310MOL0     C42669   3.856  10.737   3.570 -1.3519 -0.1756 -0.2511
  310MOL0     C42670   3.711  10.756   3.597  0.5968  0.4142 -0.8823
  310MOL0     C42671   3.959  10.786   3.664  0.3990  0.2359  0.4497
  310MOL0     C42672   3.931  10.856   3.793  0.3079  0.2900  0.1676
  310MOL0     O42673   4.040  10.930   3.843 -0.2628 -0.3290 -0.2285
  310MOL0     C42674   4.006  11.005   3.944  0.0107  0.1545  0.0297
  310MOL0     C42675   3.929  11.124   3.931  0.6687 -0.1854 -0.1223
  310MOL0     C42676   3.904  11.209   4.043 -0.0379 -0.1723  1.2961
  310MOL0     C42677   3.944  11.172   4.168  0.3978  0.5238 -0.0691
  310MOL0     O42678   3.908  11.258   4.267  0.4019 -0.0110 -0.8495
  310MOL0     C42679   3.965  11.256   4.396 -0.4999  0.1082  0.3980
  310MOL0     C42680   3.951  11.384   4.474 -0.1048  0.4395 -0.6811
  310MOL0     C42681   3.808  11.406   4.511  0.2056  0.5194 -0.2747
  310MOL0     C42682   3.790  11.512   4.612  0.5521  0.2387 -0.2423
  310MOL0     C42683   3.643  11.561   4.625  0.0663 -0.6963 -0.4282
  310MOL0     C42684   3.534  11.458   4.611 -1.1619  0.0992  0.3559
  310MOL0     C42685   3.400  11.485   4.665  0.0356  0.1118  0.2437
  310MOL0     C42686   3.303  11.370   4.649  0.0250  0.0730 -1.1746
  310MOL0    Cl42687   3.135  11.429   4.676 -0.1013  0.0201 -0.0653
  310MOL0     C42688   4.007  11.049   4.189 -0.0451  0.1840  0.4861
  310MOL0     C42689   4.036  10.965   4.076 -0.4346  0.1719 -0.3837
  310MOL0     O42690   3.815  10.863   3.845 -0.7661  0.8868 -0.0401
  310MOL0     C42691   4.096  10.784   3.625  0.4014  0.3742  0.2345
  310MOL0     C42692   4.124  10.736   3.495  0.0065  1.1639 -0.9131
  310MOL0     N42693   3.759  10.354   2.889  0.3513 -1.2793  0.2105
  310MOL0     N42694   3.653  10.278   2.883 -1.0138 -0.9406 -0.6570
  310MOL0     C42695   2.798  10.384   2.158  0.3480  0.5383 -0.0374
  310MOL0     C42696   2.691  10.331   2.083  0.4101  0.0995  0.1503
  310MOL0     C42697   2.399  10.135   1.835  0.5085  0.0044  0.3133
  310MOL0     C42698   2.278  10.206   1.812 -0.6839 -0.0878 -0.6644
  310MOL0     C42699   2.171  10.137   1.754  0.0520 -0.0308 -1.2708
  310MOL0     C42700   2.173  10.005   1.715  0.2659 -0.5325  0.5906
  310MOL0     O42701   2.060   9.950   1.655 -0.5563 -0.5160 -0.5715
  310MOL0     C42702   2.029   9.815   1.645  0.3373  0.9681 -0.7537
  310MOL0     C42703   1.917   9.810   1.542  0.2811 -0.2337  0.3499
  310MOL0     C42704   1.823   9.691   1.546  0.0715  0.7316  0.3155
  310MOL0     C42705   1.909   9.565   1.508  0.1874  0.3011 -0.3131
  310MOL0     C42706   1.827   9.442   1.485  0.0031 -0.6350 -0.0332
  310MOL0     C42707   1.766   9.347   1.442  1.4673  0.2834  0.3291
  310MOL0     C42708   2.298   9.942   1.724  0.1991  0.1710 -0.0123
  310MOL0     C42709   2.406  10.000   1.794  0.1291 -0.8866  0.5075
  310MOL0     C42710   2.537   9.923   1.781  0.1764 -0.0437  0.2548
  310MOL0     H42711   2.774  10.000   2.063 -0.4379  0.9404 -0.8057
  310MOL0     H42712   2.967  10.088   2.193  0.6506  0.8562  0.4130
  310MOL0     H42713   3.080  10.206   2.427  0.6972  0.6372 -1.9904
  310MOL0     H42714   2.917  10.190   2.451  1.4502 -0.1118  2.4790
  310MOL0     H42715   3.042  10.443   2.503 -0.4112 -0.6597 -1.7522
  310MOL0     H42716   2.890  10.377   2.570  0.0173 -0.7307  0.8175
  310MOL0     H42717   3.092  10.390   2.734  1.0115  0.5283  0.2953
  310MOL0     H42718   3.016  10.232   2.718  0.0881  0.8057  1.2282
  310MOL0     H42719   3.208  10.137   2.586  2.0852 -0.5145  2.1244
  310MOL0     H42720   3.266  10.309   2.581 -1.1795  1.7752  0.9292
  310MOL0     H42721   3.216  10.158   2.846  2.6613  1.9444  3.4743
  310MOL0     H42722   3.284  10.307   2.832 -0.8678  0.3388  0.4505
  310MOL0     H42723   3.384  10.045   2.711 -0.2334 -1.3433  0.3441
  310MOL0     H42724   3.482  10.198   2.717 -0.4531 -0.7478 -0.8753
  310MOL0     H42725   3.393   9.996   2.921  4.4181 -1.6922  2.7100
  310MOL0     H42726   3.434  10.157   2.981 -0.1265  0.4730 -0.8683
  310MOL0     H42727   3.615   9.988   3.001  2.1953  2.4948  1.4087
  310MOL0     H42728   3.609   9.982   2.818  1.3152  0.2998 -0.7586
  310MOL0     H42729   3.870  10.048   2.910  1.1209  0.7543 -3.8065
  310MOL0     H42730   4.048  10.382   2.889 -1.7503  0.4920  1.0873
  310MOL0     H42731   4.067  10.236   2.985 -2.6208 -1.7705  1.4528
  310MOL0     H42732   3.954  10.511   3.070  2.0732  2.0545  2.2122
  310MOL0     H42733   3.940  10.351   3.166 -0.4790 -3.7667 -2.8678
  310MOL0     H42734   4.186  10.343   3.134 -2.0561 -1.8061  0.1188
  310MOL0     H42735   4.189  10.504   3.066 -0.0254 -1.5839 -1.0195
  310MOL0     H42736   4.102  10.429   3.349  0.1775 -1.0162 -0.1366
  310MOL0     H42737   4.241  10.537   3.297 -0.0727  2.9831 -2.0361
  310MOL0     H42738   3.824  10.644   3.384 -1.2829  1.6394  1.0622
  310MOL0     H42739   3.648  10.724   3.513  1.7291 -1.3361 -1.1120
  310MOL0     H42740   3.686  10.857   3.629  0.7112 -0.4845  2.4081
  310MOL0     H42741   3.694  10.688   3.681  2.7067 -0.5482 -1.1841
  310MOL0     H42742   3.895  11.152   3.832  0.5044  1.5976  0.4115
  310MOL0     H42743   3.861  11.307   4.022 -0.8157 -1.3765 -4.3237
  310MOL0     H42744   3.930  11.166   4.448 -0.7972 -1.5239 -2.4458
  310MOL0     H42745   4.073  11.238   4.385  0.1096  3.0369  0.7985
  310MOL0     H42746   4.018  11.384   4.560  2.4401  3.7271 -2.4325
  310MOL0     H42747   3.978  11.473   4.415 -0.9742  0.2904 -1.3326
  310MOL0     H42748   3.771  11.311   4.551  1.2577  0.2310  0.0525
  310MOL0     H42749   3.760  11.444   4.421 -0.7995 -0.0925 -0.0130
  310MOL0     H42750   3.865  11.587   4.587  3.2132 -2.3019 -0.3675
  310MOL0     H42751   3.820  11.464   4.705 -3.9130  2.1041  2.4794
  310MOL0     H42752   3.634  11.616   4.719 -0.5231  3.4184 -2.6517
  310MOL0     H42753   3.612  11.630   4.546 -0.4578  0.1346  0.4784
  310MOL0     H42754   3.577  11.368   4.656  2.1259  1.0172 -0.6869
  310MOL0     H42755   3.532  11.425   4.507  0.2854 -0.1047  0.3765
  310MOL0     H42756   3.362  11.573   4.612  1.2220  1.9558  2.2557
  310MOL0     H42757   3.398  11.523   4.767 -2.2109 -0.1525  0.3545
  310MOL0     H42758   3.329  11.300   4.728  2.1963  1.6943 -0.3281
  310MOL0     H42759   3.330  11.331   4.550  2.2547  1.1454 -1.0709
  310MOL0     H42760   4.041  11.023   4.289 -0.3520 -0.1893  0.4973
  310MOL0     H42761   4.093  10.873   4.075  1.2582  1.1452 -2.4560
  310MOL0     H42762   4.175  10.823   3.688 -0.8701  0.5674  1.7910
  310MOL0     H42763   4.221  10.746   3.449  1.7330  0.2838  2.2639
  310MOL0     H42764   2.806  10.489   2.183 -2.6425  0.5655  1.3275
  310MOL0     H42765   2.607  10.396   2.062  0.2257 -0.0004  0.5587
  310MOL0     H42766   2.255  10.305   1.851 -2.5040 -0.7507  0.0343
  310MOL0     H42767   2.078  10.181   1.721  0.9554  1.6141 -1.7204
  310MOL0     H42768   2.116   9.752   1.625  0.0476  0.0219  0.8255
  310MOL0     H42769   1.983   9.778   1.737 -0.0723  0.2288 -1.2483
  310MOL0     H42770   1.948   9.830   1.439 -0.5463  0.8704  0.3010
  310MOL0     H42771   1.849   9.892   1.566 -3.0067 -2.0768 -1.9155
  310MOL0     H42772   1.788   9.689   1.650 -1.8565  0.0004 -0.2988
  310MOL0     H42773   1.734   9.705   1.484 -0.7953  0.6960  1.5236
  310MOL0     H42774   1.988   9.539   1.579 -0.4338 -3.8918 -0.9144
  310MOL0     H42775   1.949   9.576   1.406  1.5174 -0.6328  0.0778
  310MOL0     H42776   1.710   9.264   1.403 -0.7972  0.7037  2.4193
  310MOL0     H42777   2.316   9.842   1.685  0.2737  0.4425 -0.6911
  310MOL0     H42778   2.526   9.817   1.757  0.2958  0.4564 -2.2579
  310MOL0     H42779   2.607   9.972   1.712  0.1888  0.5055  0.6453
  310MOL0     H42780   2.588   9.923   1.877  2.3879 -1.3974 -0.8379
  311MOL0     O42781   0.040   5.804   2.350  0.5254  0.1198 -0.5774
  311MOL0     C42782   0.123   5.711   2.342  0.1651 -0.1545  0.3830
  311MOL0     O42783   0.136   5.606   2.431  0.4775 -0.0607 -0.0255
  311MOL0     C42784   0.031   5.558   2.503  0.1803 -0.1055 -0.1673
  311MOL0     C42785   0.072   5.483   2.609 -0.9171  0.1439  0.2653
  311MOL0     C42786  -0.026   5.440   2.702 -0.0356  0.0356  0.3222
  311MOL0     C42787  -0.164   5.473   2.691 -0.3509 -0.3682 -0.1241
  311MOL0     O42788  -0.256   5.425   2.783 -0.0577  0.2423  0.1561
  311MOL0     C42789  -0.394   5.433   2.754 -0.1218 -0.6671 -0.4708
  311MOL0     C42790  -0.452   5.316   2.674 -1.0481 -0.7887 -0.2473
  311MOL0     C42791  -0.397   5.177   2.704  0.1965 -0.3531  0.3948
  311MOL0     C42792  -0.457   5.114   2.829  0.5630  0.8064  0.5792
  311MOL0     C42793  -0.365   5.006   2.894  0.2854  0.5741 -0.4935
  311MOL0     C42794  -0.409   4.957   3.030  0.0745 -0.0325 -0.1930
  311MOL0     C42795  -0.320   4.832   3.069  0.1367  0.7649  0.8910
  311MOL0     C42796  -0.355   4.779   3.210  0.0353  0.0115  0.7541
  311MOL0     N42797  -0.331   4.882   3.316 -1.0076  0.1263 -0.8864
  311MOL0     C42798  -0.209   4.923   3.360  0.8122 -0.1537  0.3955
  311MOL0     C42799  -0.238   5.029   3.443 -0.2598  0.4431  0.2091
  311MOL0     C42800  -0.132   5.117   3.499 -1.1032 -0.0658 -0.4059
  311MOL0     C42801  -0.007   5.057   3.579 -0.0770  0.5028 -0.6460
  311MOL0     C42802  -0.047   5.001   3.714  0.4676  1.1999 -0.5059
  311MOL0     C42803   0.055   4.969   3.819  0.3587  0.2799 -0.3035
  311MOL0     O42804   0.082   5.077   3.909  0.0676  0.6814  0.5146
  311MOL0     C42805   0.166   5.055   4.021 -0.3669  0.5336 -0.5796
  311MOL0     C42806   0.187   4.932   4.090 -0.2186  0.1995  0.0468
  311MOL0     C42807   0.277   4.921   4.194 -0.2273 -0.4060  0.7123
  311MOL0     C42808   0.268   4.792   4.276 -0.8094 -0.0204  0.4430
  311MOL0     C42809   0.354   5.035   4.231  0.5055  0.3132  0.1847
  311MOL0     C42810   0.453   5.032   4.337  0.4365 -0.1564  0.0981
  311MOL0     O42811   0.523   5.153   4.350 -0.3613 -0.1410  0.1363
  311MOL0     C42812   0.654   5.146   4.401 -1.4052  0.2852  0.2200
  311MOL0     C42813   0.744   5.040   4.389 -0.6056  0.7198  0.0904
  311MOL0     C42814   0.877   5.041   4.446 -0.7962 -0.1985 -0.3564
  311MOL0     C42815   0.916   5.164   4.511  0.3509  0.2313 -0.8776
  311MOL0     O42816   1.027   5.178   4.589  0.7409 -1.1285  0.2064
  311MOL0     C42817   1.083   5.059   4.634  0.0338  0.9040  0.4716
  311MOL0     C42818   1.185   4.988   4.535 -1.4294  0.2240  0.1580
  311MOL0     C42819   1.335   5.010   4.576  0.2460  0.2078  0.8692
  311MOL0     C42820   1.388   5.156   4.583  0.5591 -0.1437  0.0035
  311MOL0     C42821   1.514   5.167   4.662 -0.3054  0.0078 -0.8258
  311MOL0     C42822   1.499   5.283   4.766 -0.6432  0.8132 -0.0766
  311MOL0     C42823   1.622   5.313   4.854  0.2137  0.9301 -0.4147
  311MOL0     C42824   1.752   5.338   4.782  0.3735 -0.1861  0.0859
  311MOL0    Cl42825   1.826   5.192   4.713  0.0625  0.1164  0.7385
  311MOL0     C42826   0.832   5.277   4.512  1.1938 -0.3231  0.4297
  311MOL0     C42827   0.703   5.266   4.455 -0.0590 -0.5506 -0.0395
  311MOL0     O42828   0.472   4.929   4.401  0.2203 -0.2231  0.0495
  311MOL0     C42829   0.340   5.155   4.153  0.0304  0.6001  0.2407
  311MOL0     C42830   0.250   5.163   4.047 -0.0752 -1.0121 -0.4859
  311MOL0     N42831  -0.374   5.048   3.450 -0.1144  0.1366  0.8198
  311MOL0     N42832  -0.433   4.950   3.387 -0.6978  0.0135  0.2258
  311MOL0     C42833  -0.201   5.546   2.577 -0.0649 -0.1444  0.5050
  311MOL0     C42834  -0.111   5.589   2.486 -0.0631  0.4002 -0.1613
  311MOL0     C42835   0.209   5.718   2.229  0.2581 -0.1715 -0.2636
  311MOL0     C42836   0.150   5.751   2.107 -0.1407  0.0641  1.0060
  311MOL0     C42837   0.235   5.765   1.992  0.2167 -1.0128 -0.4690
  311MOL0     C42838   0.372   5.723   2.000  0.3759 -0.3399  0.5918
  311MOL0     O42839   0.460   5.715   1.891 -0.1052 -0.6738 -0.1658
  311MOL0     C42840   0.424   5.771   1.770  0.1260  0.5257 -0.2734
  311MOL0     C42841   0.550   5.783   1.677 -0.7635  0.2093 -0.3567
  311MOL0     C42842   0.657   5.864   1.745  1.4826 -1.4139 -0.3447
  311MOL0     C42843   0.765   5.910   1.650 -0.8569  0.7881 -0.9424
  311MOL0     C42844   0.875   5.981   1.710 -0.4556  0.2619 -0.0939
  311MOL0     C42845   0.972   6.040   1.755 -0.1065  0.5806  0.2430
  311MOL0     C42846   0.420   5.681   2.119 -1.1630  0.6239  0.6456
  311MOL0     C42847   0.341   5.682   2.232 -0.1031 -0.2332  0.3419
  311MOL0     C42848   0.417   5.647   2.359  0.1652  0.3657 -0.6740
  311MOL0     H42849   0.175   5.452   2.614 -1.2573 -1.9990 -3.2167
  311MOL0     H42850   0.019   5.375   2.776  1.5417  2.2969  1.4924
  311MOL0     H42851  -0.421   5.531   2.713  0.7148 -0.7000 -1.1358
  311MOL0     H42852  -0.447   5.424   2.849 -2.0199 -0.2118 -1.4535
  311MOL0     H42853  -0.559   5.302   2.692 -0.5554 -1.8281  2.1861
  311MOL0     H42854  -0.426   5.347   2.572  0.2583 -0.1464  0.2673
  311MOL0     H42855  -0.419   5.110   2.620  2.8918 -2.0120  0.8707
  311MOL0     H42856  -0.290   5.176   2.727  0.0057  1.3307  1.5687
  311MOL0     H42857  -0.465   5.200   2.896 -0.1640  1.5345 -0.4207
  311MOL0     H42858  -0.557   5.074   2.809  1.4580 -1.5203  0.4023
  311MOL0     H42859  -0.259   5.033   2.898  0.0752  1.4426  3.5027
  311MOL0     H42860  -0.364   4.920   2.828  3.2239 -2.1220  2.6507
  311MOL0     H42861  -0.395   5.035   3.105 -1.1004  0.6788 -0.6856
  311MOL0     H42862  -0.510   4.916   3.023  1.3379 -3.4886 -0.2070
  311MOL0     H42863  -0.213   4.854   3.071 -0.3386  3.3412  1.5659
  311MOL0     H42864  -0.344   4.758   2.993 -0.4920  0.5129  1.3228
  311MOL0     H42865  -0.460   4.752   3.221 -0.1071  0.2470  0.0242
  311MOL0     H42866  -0.292   4.690   3.224 -1.1125 -0.9918 -0.2159
  311MOL0     H42867  -0.120   4.879   3.316  0.2812  2.0400 -3.2626
  311MOL0     H42868  -0.181   5.187   3.567 -0.5605 -1.0364  1.0364
  311MOL0     H42869  -0.092   5.181   3.421 -3.1892  0.9323 -0.7149
  311MOL0     H42870   0.053   4.981   3.527  1.0883 -1.1120  2.7436
  311MOL0     H42871   0.059   5.143   3.591 -1.2097  1.9525 -3.7045
  311MOL0     H42872  -0.120   5.055   3.776 -0.4101 -1.4427  0.9192
  311MOL0     H42873  -0.096   4.906   3.688 -3.1087  1.7339  3.2548
  311MOL0     H42874   0.018   4.892   3.887 -1.6886  2.0316  0.6808
  311MOL0     H42875   0.148   4.938   3.772  0.9724  3.4808 -1.5052
  311MOL0     H42876   0.119   4.852   4.064 -0.6928  1.2545 -2.2764
  311MOL0     H42877   0.343   4.720   4.241 -0.1710  0.2860  1.1518
  311MOL0     H42878   0.168   4.748   4.266 -0.5477 -0.2938 -1.3679
  311MOL0     H42879   0.281   4.817   4.382 -1.9923  1.1608  0.3285
  311MOL0     H42880   0.714   4.952   4.334  2.8446 -0.3701 -0.2695
  311MOL0     H42881   0.941   4.953   4.442 -0.4289  0.0073  0.6487
  311MOL0     H42882   1.140   5.068   4.727 -0.3442 -4.4467  1.5679
  311MOL0     H42883   1.007   4.989   4.672  2.3772 -1.5349  0.9427
  311MOL0     H42884   1.166   4.881   4.534  0.8846 -0.2576 -1.5673
  311MOL0     H42885   1.170   5.020   4.431 -0.2640 -0.6212 -0.2925
  311MOL0     H42886   1.404   4.956   4.510 -1.9707 -0.4206 -1.0388
  311MOL0     H42887   1.347   4.960   4.672  0.4052  0.2192  0.8563
  311MOL0     H42888   1.311   5.206   4.643  2.6401 -1.4400  4.1977
  311MOL0     H42889   1.388   5.204   4.485 -1.8819  3.1899  1.4548
  311MOL0     H42890   1.541   5.079   4.720 -1.3041  0.7360  0.8292
  311MOL0     H42891   1.604   5.187   4.603  0.9427  0.2512  1.0988
  311MOL0     H42892   1.415   5.267   4.834  1.5938 -0.0243  2.6914
  311MOL0     H42893   1.473   5.377   4.717 -1.8832  1.5714  1.8849
  311MOL0     H42894   1.612   5.221   4.911 -4.9631  0.1909 -2.0189
  311MOL0     H42895   1.607   5.400   4.919 -0.9181  0.3924  0.0656
  311MOL0     H42896   1.823   5.397   4.841  0.2395  0.7544 -0.6740
  311MOL0     H42897   1.723   5.395   4.693 -1.3970 -0.8035  0.2202
  311MOL0     H42898   0.831   5.368   4.571 -2.8882  1.7948 -2.4285
  311MOL0     H42899   0.638   5.352   4.466 -1.7609 -1.9985  1.9993
  311MOL0     H42900   0.411   5.235   4.173  2.0943 -1.3507  1.1974
  311MOL0     H42901   0.234   5.258   3.997  1.2570 -1.0025 -0.9196
  311MOL0     H42902  -0.302   5.583   2.565 -0.0946 -0.6325 -0.9833
  311MOL0     H42903  -0.149   5.642   2.399  0.4658 -2.4307 -2.2562
  311MOL0     H42904   0.042   5.762   2.101 -0.1285 -0.3452 -0.3572
  311MOL0     H42905   0.197   5.798   1.895 -2.0224  3.6954  1.6845
  311MOL0     H42906   0.350   5.704   1.725  3.8429 -2.9276 -1.8635
  311MOL0     H42907   0.396   5.877   1.778  2.7714  1.3007 -0.3107
  311MOL0     H42908   0.523   5.834   1.584 -4.2793  2.2986  1.6195
  311MOL0     H42909   0.589   5.684   1.649  0.7901  0.8796 -0.6205
  311MOL0     H42910   0.625   5.953   1.801  0.5193 -1.0874 -1.3776
  311MOL0     H42911   0.706   5.798   1.817 -0.9971 -1.0440  1.8532
  311MOL0     H42912   0.720   5.986   1.586 -1.8843 -0.2774 -1.5285
  311MOL0     H42913   0.803   5.825   1.591 -1.9092 -0.2720 -0.1395
  311MOL0     H42914   1.056   6.082   1.806  1.1477 -0.7902 -0.6272
  311MOL0     H42915   0.520   5.642   2.135 -1.9319 -2.5567 -1.3396
  311MOL0     H42916   0.449   5.542   2.358  2.1325  0.8888 -2.8701
  311MOL0     H42917   0.512   5.702   2.363 -0.2870  1.3260 -2.1337
  311MOL0     H42918   0.368   5.670   2.454 -1.4800 -1.7242 -0.9626
  312MOL0     O42919  10.853   6.681   7.823  0.4066 -0.5464  0.1794
  312MOL0     C42920  10.955   6.614   7.817  0.2046 -0.2629 -0.4803
  312MOL0     O42921  10.982   6.508   7.904 -0.2121 -0.0500 -0.1698
  312MOL0     C42922  10.897   6.492   8.020 -0.3393 -0.2098  0.2950
  312MOL0     C42923  10.912   6.361   8.069 -0.5032  0.8619  0.2569
  312MOL0     C42924  10.847   6.324   8.193  0.2751 -0.1030  0.4639
  312MOL0     C42925  10.772   6.427   8.270  0.6389  0.4537 -0.2740
  312MOL0     O42926  10.712   6.409   8.395  0.4512 -0.3113 -0.5521
  312MOL0     C42927  10.673   6.275   8.441  0.9586 -0.7979  0.4053
  312MOL0     C42928  10.542   6.280   8.522 -0.4175 -0.4974  0.1508
  312MOL0     C42929  10.426   6.244   8.428  0.8202 -0.1552  0.5015
  312MOL0     C42930  10.307   6.209   8.528  0.4247 -0.1811  0.0414
  312MOL0     C42931  10.170   6.203   8.470  0.9974  0.0768  0.4313
  312MOL0     C42932  10.063   6.154   8.562  0.2810 -0.5350 -0.7426
  312MOL0     C42933  10.028   6.253   8.672  0.5106  0.2201 -0.0050
  312MOL0     C42934   9.926   6.208   8.772 -0.4258 -0.0312 -0.1275
  312MOL0     N42935   9.785   6.248   8.753 -1.0524  0.4366  0.5873
  312MOL0     C42936   9.748   6.374   8.745 -1.7671  0.3556 -0.4693
  312MOL0     C42937   9.607   6.373   8.730 -0.2315  0.2764 -0.6363
  312MOL0     C42938   9.517   6.494   8.718  0.6394  0.4799 -0.3046
  312MOL0     C42939   9.575   6.628   8.761  0.4470  0.9250  0.4350
  312MOL0     C42940   9.654   6.691   8.658  0.9750  1.2318 -0.0371
  312MOL0     C42941   9.740   6.788   8.729 -0.2381  0.4377 -0.5079
  312MOL0     O42942   9.801   6.752   8.847 -0.3886  0.1456 -0.5940
  312MOL0     C42943   9.930   6.703   8.855  0.1215  0.2051  0.0406
  312MOL0     C42944  10.016   6.680   8.750 -0.4006 -0.0821 -0.5121
  312MOL0     C42945  10.139   6.613   8.768  0.7962 -0.1120 -0.0711
  312MOL0     C42946  10.216   6.598   8.638  0.1330 -0.1502 -0.2976
  312MOL0     C42947  10.172   6.573   8.901 -0.7714 -0.1467  0.8657
  312MOL0     C42948  10.315   6.515   8.937  0.3838 -0.0703  0.4825
  312MOL0     O42949  10.395   6.488   8.827 -0.2281 -0.4019 -0.3786
  312MOL0     C42950  10.526   6.440   8.847  0.1563  0.2471  0.0797
  312MOL0     C42951  10.561   6.331   8.924 -0.1479 -0.3532 -0.9023
  312MOL0     C42952  10.692   6.272   8.918 -0.7290  0.4682 -0.1679
  312MOL0     C42953  10.796   6.330   8.840 -0.0492  1.2420 -0.1361
  312MOL0     O42954  10.927   6.276   8.828 -0.0146  0.3712 -0.5709
  312MOL0     C42955  10.958   6.155   8.898 -0.2494  0.0756  0.9891
  312MOL0     C42956  11.109   6.113   8.904 -0.7222  0.6414  0.0363
  312MOL0     C42957  11.191   6.215   8.987  0.7422 -0.1909  0.0479
  312MOL0     C42958  11.305   6.149   9.050 -0.6757  0.2638 -0.0393
  312MOL0     C42959  11.399   6.248   9.122 -0.1349 -0.0652  0.1501
  312MOL0     C42960  11.479   6.342   9.016  0.3544  0.4176 -0.3925
  312MOL0     C42961  11.545   6.467   9.077  0.0788  0.1319 -0.2822
  312MOL0     C42962  11.446   6.587   9.088 -0.2477  0.0237  0.8911
  312MOL0    Cl42963  11.457   6.688   9.231 -0.0068 -0.3165  0.2497
  312MOL0     C42964  10.759   6.437   8.759  0.5960 -0.5980 -0.2190
  312MOL0     C42965  10.626   6.484   8.763  0.1072 -0.2256  0.4876
  312MOL0     O42966  10.339   6.473   9.054 -0.5792 -0.1509  0.2102
  312MOL0     C42967  10.080   6.596   9.007 -0.0990 -0.4874 -0.0642
  312MOL0     C42968   9.954   6.653   8.986  0.5004 -0.0087  0.7413
  312MOL0     N42969   9.570   6.240   8.724  0.1069  0.4435 -0.3541
  312MOL0     N42970   9.673   6.169   8.741 -0.7442  0.0335  0.7018
  312MOL0     C42971  10.765   6.553   8.208 -0.3048  0.3250  0.5580
  312MOL0     C42972  10.825   6.584   8.089 -0.2658 -0.0693 -0.3800
  312MOL0     C42973  11.059   6.631   7.721 -0.2756 -1.5412  0.2302
  312MOL0     C42974  11.139   6.520   7.684  0.8477 -0.1621  0.1520
  312MOL0     C42975  11.233   6.525   7.584 -0.6231  0.0201 -0.4564
  312MOL0     C42976  11.278   6.649   7.538  1.1089 -0.1296 -0.3325
  312MOL0     O42977  11.384   6.673   7.454  0.0909  0.1140 -0.5297
  312MOL0     C42978  11.507   6.654   7.524  0.4273  0.1678 -0.5121
  312MOL0     C42979  11.576   6.521   7.492  0.0552  0.1560 -0.4596
  312MOL0     C42980  11.638   6.503   7.352  0.5010  0.1787 -0.7668
  312MOL0     C42981  11.693   6.367   7.322  0.6125  0.2584  0.1194
  312MOL0     C42982  11.809   6.353   7.403  0.2686  0.5517 -0.4526
  312MOL0     C42983  11.910   6.333   7.470 -0.1470  0.3823 -0.3522
  312MOL0     C42984  11.214   6.758   7.587  0.1873  0.3702  0.3573
  312MOL0     C42985  11.098   6.748   7.666 -0.0871 -0.1393 -0.0584
  312MOL0     C42986  11.029   6.883   7.702 -0.0142 -0.0012  0.4185
  312MOL0     H42987  10.968   6.283   8.019 -0.3915  0.1231  1.4747
  312MOL0     H42988  10.879   6.231   8.238  2.7204  1.6393  2.6582
  312MOL0     H42989  10.739   6.248   8.524 -0.5801  1.4342  2.5033
  312MOL0     H42990  10.666   6.190   8.373 -0.3178 -0.4359  0.0574
  312MOL0     H42991  10.540   6.217   8.612  0.5458 -0.6070  0.1067
  312MOL0     H42992  10.537   6.384   8.555 -2.9482 -0.4200 -0.3134
  312MOL0     H42993  10.419   6.327   8.357  3.1777  0.8175  1.2791
  312MOL0     H42994  10.433   6.150   8.372  1.0434 -0.3908  0.9224
  312MOL0     H42995  10.330   6.108   8.561  0.2575 -0.5237 -0.8640
  312MOL0     H42996  10.315   6.272   8.617  2.1536  0.8307 -0.7647
  312MOL0     H42997  10.180   6.134   8.386 -0.5706 -0.2230  0.4755
  312MOL0     H42998  10.136   6.300   8.434 -1.7093 -1.0223 -0.1949
  312MOL0     H42999   9.975   6.137   8.499  1.6375 -1.2381 -2.5557
  312MOL0     H43000  10.100   6.058   8.598  3.0552  0.9614  0.6615
  312MOL0     H43001   9.981   6.334   8.615  0.0008 -0.7377 -0.9936
  312MOL0     H43002  10.114   6.284   8.731 -1.0660  1.4567  1.7669
  312MOL0     H43003   9.931   6.100   8.786  2.0775 -0.3086 -2.3686
  312MOL0     H43004   9.958   6.261   8.863 -0.0364  0.9333 -0.8092
  312MOL0     H43005   9.821   6.455   8.743  0.6472 -1.5464  2.5105
  312MOL0     H43006   9.435   6.471   8.787  0.7999 -3.1646 -1.1470
  312MOL0     H43007   9.473   6.505   8.618 -2.6393  1.4221  1.0950
  312MOL0     H43008   9.501   6.701   8.794 -0.2504  0.8368 -0.8896
  312MOL0     H43009   9.626   6.603   8.855 -0.3619  2.8119  1.4284
  312MOL0     H43010   9.721   6.616   8.614  0.6623  1.2675 -0.5926
  312MOL0     H43011   9.593   6.739   8.581  0.1539  1.1320  0.5416
  312MOL0     H43012   9.817   6.810   8.655  2.1534 -1.1355  1.3579
  312MOL0     H43013   9.697   6.888   8.745 -0.4836  0.4394 -1.1711
  312MOL0     H43014   9.995   6.701   8.645  1.3379  1.7034 -0.5633
  312MOL0     H43015  10.314   6.646   8.639 -0.6665  1.5926 -0.6255
  312MOL0     H43016  10.176   6.644   8.547 -1.6482  2.7317  1.7707
  312MOL0     H43017  10.236   6.491   8.623 -1.2185 -0.4892  0.1727
  312MOL0     H43018  10.472   6.296   8.975 -0.2222  1.1408  0.0278
  312MOL0     H43019  10.719   6.179   8.966  0.6054  1.6278  1.4269
  312MOL0     H43020  10.946   6.183   9.003  3.0031 -3.3452  2.5240
  312MOL0     H43021  10.903   6.071   8.855  3.5744  0.0910 -5.1673
  312MOL0     H43022  11.106   6.010   8.940 -2.7888  1.0706  1.2939
  312MOL0     H43023  11.148   6.112   8.802  1.9715 -0.1917  1.0064
  312MOL0     H43024  11.138   6.248   9.076  1.9614  2.5492 -0.1208
  312MOL0     H43025  11.205   6.305   8.926  0.6035  0.0341  0.3514
  312MOL0     H43026  11.369   6.097   8.978  1.2784  0.4236  1.5044
  312MOL0     H43027  11.267   6.068   9.113 -1.7389 -1.6901 -2.9529
  312MOL0     H43028  11.348   6.306   9.199 -0.7504 -3.3188  2.4049
  312MOL0     H43029  11.477   6.190   9.171  0.7694  0.8176 -0.2269
  312MOL0     H43030  11.411   6.376   8.937 -0.6018 -2.0435 -0.7233
  312MOL0     H43031  11.561   6.284   8.973  0.7783  0.8855 -0.2234
  312MOL0     H43032  11.636   6.495   9.022 -1.4159  1.1612 -2.3807
  312MOL0     H43033  11.581   6.436   9.175 -0.9245  1.8158  0.6541
  312MOL0     H43034  11.341   6.562   9.072  0.0770 -2.5521  2.2079
  312MOL0     H43035  11.470   6.650   9.002 -0.5098  2.6320  2.6258
  312MOL0     H43036  10.826   6.475   8.682 -0.4176 -1.8395 -1.7446
  312MOL0     H43037  10.596   6.550   8.683  2.9094 -1.8033 -2.0737
  312MOL0     H43038  10.112   6.577   9.108  0.2676 -3.0858 -0.6118
  312MOL0     H43039   9.884   6.656   9.069  3.3424 -2.7596  3.5416
  312MOL0     H43040  10.708   6.629   8.260 -1.3910 -0.7708  1.0224
  312MOL0     H43041  10.826   6.684   8.047  0.1599  1.2176  2.4605
  312MOL0     H43042  11.106   6.421   7.713  0.4606 -1.1093 -3.0598
  312MOL0     H43043  11.277   6.430   7.558 -1.9429 -1.2005  1.5174
  312MOL0     H43044  11.586   6.724   7.495 -0.3837  2.6204  2.7536
  312MOL0     H43045  11.494   6.662   7.632 -0.2994  1.0385 -0.6532
  312MOL0     H43046  11.511   6.435   7.512  0.8549 -0.3244  0.1493
  312MOL0     H43047  11.651   6.509   7.570 -1.9010 -0.1343  1.4706
  312MOL0     H43048  11.571   6.517   7.267  0.6814 -0.1474 -0.9660
  312MOL0     H43049  11.714   6.581   7.350  0.4133  0.2559 -1.1218
  312MOL0     H43050  11.723   6.361   7.217  0.3772 -0.9439  0.1163
  312MOL0     H43051  11.621   6.286   7.334 -0.3749  1.0474 -0.3040
  312MOL0     H43052  11.993   6.311   7.535  0.1764 -2.5823 -1.5892
  312MOL0     H43053  11.254   6.853   7.553 -0.5570  0.3201 -0.6893
  312MOL0     H43054  11.097   6.969   7.694  2.6170 -2.0614 -1.0851
  312MOL0     H43055  10.942   6.897   7.636  2.2840  0.4225 -2.7744
  312MOL0     H43056  10.991   6.894   7.804  0.6254  2.7509  0.4468
  313MOL0     O43057   9.042   3.753   2.433 -0.0587  0.5595  0.4681
  313MOL0     C43058   8.945   3.774   2.366 -0.1415 -0.4254 -0.7269
  313MOL0     O43059   8.869   3.886   2.386 -0.0789 -0.3371 -0.3251
  313MOL0     C43060   8.923   3.994   2.459 -0.0494  0.4388 -0.0932
  313MOL0     C43061   9.054   4.037   2.453 -0.1068 -0.2954  0.2553
  313MOL0     C43062   9.108   4.142   2.532 -0.3035  0.0989 -0.5174
  313MOL0     C43063   9.022   4.200   2.621  0.4624 -0.2752 -0.1195
  313MOL0     O43064   9.075   4.282   2.720  0.8285  0.1431 -0.4086
  313MOL0     C43065   9.006   4.305   2.845  0.4366 -0.4782 -0.0647
  313MOL0     C43066   9.120   4.322   2.950  0.5096  0.0086  0.3911
  313MOL0     C43067   9.207   4.197   2.977 -0.0183 -0.1314 -0.5119
  313MOL0     C43068   9.354   4.234   2.983 -0.0704  0.6681 -1.0812
  313MOL0     C43069   9.437   4.120   3.029  0.7978  0.7758  0.7426
  313MOL0     C43070   9.588   4.156   3.054 -0.3498  0.1345 -0.2851
  313MOL0     C43071   9.665   4.217   2.934 -0.1871  0.8583 -0.3783
  313MOL0     C43072   9.810   4.249   2.979 -0.0474  0.6244 -0.6925
  313MOL0     N43073   9.895   4.295   2.872  0.0645 -0.1388  0.4957
  313MOL0     C43074  10.022   4.326   2.900  0.0853 -0.5650  0.3652
  313MOL0     C43075  10.092   4.296   2.784 -0.5692 -0.1014  0.2494
  313MOL0     C43076  10.238   4.282   2.765 -0.8705 -0.0846 -0.0654
  313MOL0     C43077  10.308   4.164   2.835  0.1907  0.9320  0.6505
  313MOL0     C43078  10.263   4.034   2.784 -0.1080 -0.2278  0.7467
  313MOL0     C43079  10.291   4.007   2.633 -0.3110 -0.9715  0.0179
  313MOL0     O43080  10.410   4.086   2.589  0.4296 -0.5181 -0.7067
  313MOL0     C43081  10.535   4.059   2.620  0.7309  0.2807 -0.5329
  313MOL0     C43082  10.636   4.144   2.572  0.5335  0.4098 -0.5617
  313MOL0     C43083  10.773   4.132   2.610 -0.1291  0.1128 -1.1075
  313MOL0     C43084  10.866   4.236   2.554  0.1873 -0.4854  0.6860
  313MOL0     C43085  10.806   4.047   2.713  0.1944  0.3563  0.1704
  313MOL0     C43086  10.937   4.037   2.781 -0.8796 -0.4868 -0.0510
  313MOL0     O43087  11.041   4.121   2.753  0.1026  0.2826 -0.0194
  313MOL0     C43088  11.163   4.108   2.809 -0.2360 -0.2860  0.6262
  313MOL0     C43089  11.260   4.053   2.727  0.5240 -0.5677  1.1899
  313MOL0     C43090  11.388   4.047   2.774  0.5518  0.5864  0.5227
  313MOL0     C43091  11.418   4.085   2.908 -0.1949 -0.1341  0.2314
  313MOL0     O43092  11.546   4.068   2.934 -0.4981 -0.1929 -0.9664
  313MOL0     C43093  11.587   4.054   3.077  0.3311 -0.9180 -0.7992
  313MOL0     C43094  11.726   4.115   3.082 -0.3517  1.0280 -0.5410
  313MOL0     C43095  11.755   4.141   3.235  0.1287  0.2060 -0.2374
  313MOL0     C43096  11.885   4.210   3.231  0.7502  0.2251 -0.1727
  313MOL0     C43097  11.948   4.206   3.371  0.1687 -0.6206 -0.2082
  313MOL0     C43098  12.037   4.320   3.389 -0.1193  0.1928 -0.2036
  313MOL0     C43099  12.139   4.288   3.501 -0.0741 -0.1955 -0.3111
  313MOL0     C43100  12.246   4.395   3.504  0.2653 -0.1076 -0.7293
  313MOL0    Cl43101  12.178   4.551   3.564  0.2543  0.3803 -0.1857
  313MOL0     C43102  11.314   4.115   2.991  0.4533 -0.3092 -0.1199
  313MOL0     C43103  11.186   4.135   2.944  0.0689  0.1420  0.7555
  313MOL0     O43104  10.933   3.956   2.876  0.6153 -0.5013  0.7715
  313MOL0     C43105  10.703   3.948   2.741  0.0761 -0.1773  0.5622
  313MOL0     C43106  10.575   3.964   2.707  0.9086  0.3739  1.3313
  313MOL0     N43107   9.999   4.254   2.683 -0.5834 -1.0421 -0.7531
  313MOL0     N43108   9.885   4.258   2.743  0.1861 -0.6250  0.2449
  313MOL0     C43109   8.880   4.165   2.628  1.1745  0.2243 -0.1624
  313MOL0     C43110   8.826   4.058   2.541 -0.0944  0.0585  1.0802
  313MOL0     C43111   8.915   3.677   2.262 -0.1715 -0.0736  0.3222
  313MOL0     C43112   8.785   3.668   2.227 -0.1119  0.7678  0.5690
  313MOL0     C43113   8.748   3.570   2.132 -0.7848 -0.7568 -1.1898
  313MOL0     C43114   8.843   3.486   2.072 -0.5218  0.2150 -0.0308
  313MOL0     O43115   8.788   3.383   1.996  0.6140  0.3635 -0.2091
  313MOL0     C43116   8.836   3.362   1.865 -0.4121  0.1555  0.7026
  313MOL0     C43117   8.762   3.248   1.793 -0.7213 -0.1495  0.0481
  313MOL0     C43118   8.608   3.272   1.808  0.0859 -0.4750 -0.0646
  313MOL0     C43119   8.565   3.393   1.717 -0.2993  0.4057 -0.6008
  313MOL0     C43120   8.421   3.401   1.731 -0.3196 -0.6018 -0.2243
  313MOL0     C43121   8.299   3.406   1.727 -0.0189  0.2937 -0.4397
  313MOL0     C43122   8.978   3.497   2.107  1.0740  0.6214 -0.1176
  313MOL0     C43123   9.014   3.597   2.199  0.0565 -0.5703 -0.1130
  313MOL0     C43124   9.161   3.618   2.219 -0.5261 -0.5746  0.4933
  313MOL0     H43125   9.119   3.993   2.378  0.2137 -0.8794  0.8717
  313MOL0     H43126   9.212   4.165   2.513 -0.1412 -1.4314 -1.8035
  313MOL0     H43127   8.943   4.219   2.867  0.1587 -0.5781 -1.1968
  313MOL0     H43128   8.929   4.383   2.851 -0.9017 -1.8531  1.7309
  313MOL0     H43129   9.177   4.411   2.922 -1.1488  2.5145  4.2600
  313MOL0     H43130   9.086   4.359   3.047  0.6991  0.5915  0.2407
  313MOL0     H43131   9.169   4.145   3.065  2.8244 -1.6792 -0.0553
  313MOL0     H43132   9.188   4.128   2.894 -2.3345  0.6796 -0.7232
  313MOL0     H43133   9.383   4.260   2.881  1.1160 -0.6431 -1.1105
  313MOL0     H43134   9.356   4.314   3.057  2.9423  0.4358 -0.8222
  313MOL0     H43135   9.432   4.044   2.950  1.8954  0.2576  1.1439
  313MOL0     H43136   9.391   4.072   3.115 -2.3693 -2.7289 -2.5345
  313MOL0     H43137   9.608   4.203   3.151  2.4030 -2.1852  0.4406
  313MOL0     H43138   9.629   4.060   3.086 -0.1764  0.8440  1.7564
  313MOL0     H43139   9.608   4.305   2.902  0.8392  1.6681 -0.0574
  313MOL0     H43140   9.669   4.142   2.854 -0.2041 -0.4926  0.8449
  313MOL0     H43141   9.809   4.322   3.061 -2.6385  1.9487 -1.7885
  313MOL0     H43142   9.853   4.152   3.005 -0.0031  0.8801  0.2324
  313MOL0     H43143  10.045   4.362   2.999 -0.1194  1.2045 -0.1929
  313MOL0     H43144  10.279   4.382   2.784 -2.7746  0.9171 -0.9354
  313MOL0     H43145  10.266   4.280   2.659 -2.0294  2.9306 -0.5504
  313MOL0     H43146  10.417   4.164   2.836  0.1995  0.6223  0.0836
  313MOL0     H43147  10.266   4.149   2.936 -1.7361 -1.3078 -0.3830
  313MOL0     H43148  10.301   3.960   2.855  1.3997  0.2133  0.4319
  313MOL0     H43149  10.155   4.018   2.799 -0.9063  0.3499 -3.1996
  313MOL0     H43150  10.309   3.901   2.612  2.2931 -1.2207  2.8254
  313MOL0     H43151  10.208   4.042   2.571  0.5273  0.5487 -0.2812
  313MOL0     H43152  10.597   4.231   2.522 -3.3960 -0.7592  0.1232
  313MOL0     H43153  10.936   4.190   2.482 -0.2741 -0.1253 -0.0034
  313MOL0     H43154  10.927   4.280   2.634 -1.7465 -0.1882  2.0464
  313MOL0     H43155  10.819   4.319   2.502 -0.1079 -0.4528  1.0072
  313MOL0     H43156  11.258   4.029   2.621 -1.9970 -0.8081  1.2463
  313MOL0     H43157  11.473   4.022   2.711  1.0046  0.5245  1.1531
  313MOL0     H43158  11.530   4.114   3.150  0.3644 -1.0420 -0.6708
  313MOL0     H43159  11.574   3.951   3.111  0.6458 -0.7516 -0.1630
  313MOL0     H43160  11.796   4.047   3.033 -2.0183  0.2496 -1.9155
  313MOL0     H43161  11.730   4.207   3.022  0.6237 -0.0859 -2.2466
  313MOL0     H43162  11.751   4.043   3.283 -0.7252  0.1368 -0.4235
  313MOL0     H43163  11.676   4.201   3.280 -1.5685 -1.9063 -0.2306
  313MOL0     H43164  11.856   4.313   3.209 -2.0509 -0.4520 -0.0226
  313MOL0     H43165  11.959   4.168   3.162  3.3385  0.0129  2.5318
  313MOL0     H43166  11.875   4.210   3.452  0.9118 -0.9392  0.4963
  313MOL0     H43167  12.006   4.113   3.375 -1.5402 -1.6657  1.7458
  313MOL0     H43168  11.984   4.414   3.411  1.3523  0.9073  0.3920
  313MOL0     H43169  12.087   4.337   3.294  2.2466 -2.7826  0.3956
  313MOL0     H43170  12.188   4.192   3.484  1.8970  0.5203  1.0364
  313MOL0     H43171  12.091   4.287   3.600 -0.9963 -0.5677 -0.7518
  313MOL0     H43172  12.298   4.408   3.409  1.5950  2.7817  0.2942
  313MOL0     H43173  12.323   4.357   3.572 -3.0508 -3.6629  1.4838
  313MOL0     H43174  11.322   4.138   3.097  1.2166  1.8663 -0.5992
  313MOL0     H43175  11.114   4.157   3.022  0.4131 -1.6218  1.6093
  313MOL0     H43176  10.715   3.863   2.806  1.1608 -0.9894 -0.6545
  313MOL0     H43177  10.502   3.902   2.758 -1.0095  0.9091 -0.5862
  313MOL0     H43178   8.817   4.209   2.704  2.2905  1.9487 -0.1852
  313MOL0     H43179   8.727   4.018   2.524  0.2023  0.0850 -0.8683
  313MOL0     H43180   8.705   3.722   2.277 -1.6375  0.1570 -1.1101
  313MOL0     H43181   8.646   3.564   2.095 -0.9163 -1.8487 -0.6988
  313MOL0     H43182   8.823   3.459   1.816 -0.3517  0.6930  1.7209
  313MOL0     H43183   8.944   3.348   1.878 -0.4562  0.2442  1.1947
  313MOL0     H43184   8.799   3.156   1.840 -0.0308 -1.0284 -2.0751
  313MOL0     H43185   8.805   3.236   1.693 -1.1768 -1.5880  0.0109
  313MOL0     H43186   8.563   3.178   1.773  2.2376 -2.6608  2.5977
  313MOL0     H43187   8.584   3.287   1.913  1.7495  0.5294  0.1956
  313MOL0     H43188   8.591   3.366   1.614 -1.2490  0.0128 -0.7519
  313MOL0     H43189   8.624   3.479   1.747 -0.6808  2.1504 -4.3065
  313MOL0     H43190   8.193   3.416   1.726  0.0778  1.5831 -1.7714
  313MOL0     H43191   9.043   3.421   2.066 -1.2682 -1.1821 -0.7189
  313MOL0     H43192   9.226   3.542   2.174  0.1133 -0.5156  1.2835
  313MOL0     H43193   9.191   3.717   2.184 -2.4645 -0.1412 -0.0529
  313MOL0     H43194   9.183   3.617   2.327  1.9548  1.3953  0.0995
  314MOL0     O43195   7.059  10.768   8.274  0.5695  0.6997  0.7939
  314MOL0     C43196   7.169  10.743   8.310  0.0875  0.7240  0.0082
  314MOL0     O43197   7.278  10.748   8.225 -0.0166 -0.6700 -0.9096
  314MOL0     C43198   7.278  10.792   8.094  0.2191  0.2948  0.6013
  314MOL0     C43199   7.396  10.788   8.019  0.1548  0.1648  0.8279
  314MOL0     C43200   7.395  10.820   7.880 -0.1757  0.6447 -0.1095
  314MOL0     C43201   7.276  10.856   7.815  0.7715  0.4101  0.3577
  314MOL0     O43202   7.284  10.891   7.683 -0.5156  0.3989 -0.0338
  314MOL0     C43203   7.158  10.898   7.607 -0.5424  0.3604 -0.2831
  314MOL0     C43204   7.070  10.768   7.593  0.9734  0.0020 -0.2146
  314MOL0     C43205   7.145  10.675   7.505  0.2285 -0.0089 -0.8826
  314MOL0     C43206   7.037  10.574   7.452  0.0725  0.5148 -0.1911
  314MOL0     C43207   7.083  10.553   7.301  0.4969  0.6797  0.0810
  314MOL0     C43208   6.974  10.474   7.221  0.1091  0.4748 -0.7659
  314MOL0     C43209   7.020  10.448   7.081  0.2610  0.4909  0.7125
  314MOL0     C43210   6.903  10.400   6.986 -0.2234 -1.0608  0.1897
  314MOL0     N43211   6.962  10.333   6.874  1.1316 -0.5414  0.5610
  314MOL0     C43212   7.026  10.212   6.883  0.2550 -0.1586  0.3862
  314MOL0     C43213   7.095  10.205   6.763 -0.2727 -0.2757  0.1336
  314MOL0     C43214   7.182  10.082   6.742  0.0172 -0.6874 -0.4675
  314MOL0     C43215   7.291  10.050   6.846  0.2297 -0.0409 -0.0242
  314MOL0     C43216   7.415  10.144   6.830  0.1940 -0.4987 -0.3649
  314MOL0     C43217   7.495  10.136   6.962  0.2822 -0.3950 -0.0855
  314MOL0     O43218   7.608  10.227   6.973 -0.1324  0.0654 -0.3381
  314MOL0     C43219   7.711  10.219   6.884  0.2710  0.6359 -0.0513
  314MOL0     C43220   7.789  10.333   6.857 -0.6167 -0.5462 -0.4127
  314MOL0     C43221   7.894  10.334   6.759  0.0184 -0.6886  0.4626
  314MOL0     C43222   7.992  10.454   6.766 -0.3482 -0.0359 -0.6650
  314MOL0     C43223   7.912  10.221   6.685  0.3098 -0.2548 -0.2897
  314MOL0     C43224   8.031  10.193   6.607 -0.5525 -0.4703 -0.5757
  314MOL0     O43225   8.032  10.172   6.470  0.0147 -0.1691 -0.0836
  314MOL0     C43226   7.934  10.122   6.390  0.5913  0.1949  0.1517
  314MOL0     C43227   7.830  10.202   6.338 -0.9894 -0.6789 -0.2411
  314MOL0     C43228   7.725  10.158   6.260 -1.1349  0.9270  0.1574
  314MOL0     C43229   7.719  10.018   6.229  0.1637  0.5505 -0.1308
  314MOL0     O43230   7.620   9.956   6.154 -0.6338  0.4934  0.2897
  314MOL0     C43231   7.519  10.033   6.088  0.3982 -0.4028  0.2376
  314MOL0     C43232   7.441   9.948   5.987 -0.3510  0.1602  0.9218
  314MOL0     C43233   7.325  10.036   5.942  0.5212 -0.7411  0.7409
  314MOL0     C43234   7.286   9.992   5.804 -0.2011  0.1067  0.1848
  314MOL0     C43235   7.225  10.099   5.719  0.7103 -0.8761  0.0811
  314MOL0     C43236   7.098  10.172   5.771  0.6039  0.0286 -1.0789
  314MOL0     C43237   6.978  10.079   5.835  0.3442 -1.3880  0.4912
  314MOL0     C43238   6.854  10.169   5.873 -0.5856 -1.1781  0.4807
  314MOL0    Cl43239   6.780  10.212   5.717 -0.0901  0.4337 -0.0960
  314MOL0     C43240   7.825   9.938   6.275 -0.9907  0.3515 -0.6992
  314MOL0     C43241   7.930   9.986   6.360  0.7137 -0.4196 -0.1633
  314MOL0     O43242   8.134  10.199   6.678 -1.0237 -0.3141 -0.0449
  314MOL0     C43243   7.821  10.116   6.701  0.5411 -0.0689  0.0555
  314MOL0     C43244   7.729  10.105   6.802  0.4917  0.1876  0.3618
  314MOL0     N43245   7.073  10.313   6.682  0.2779 -0.3599 -0.5514
  314MOL0     N43246   6.998  10.397   6.759  0.2620 -0.3063  0.1040
  314MOL0     C43247   7.163  10.868   7.893  0.0917 -0.3603  0.0663
  314MOL0     C43248   7.162  10.838   8.025 -0.1721 -0.4464  0.9664
  314MOL0     C43249   7.191  10.694   8.453 -0.0934  0.1247  0.6006
  314MOL0     C43250   7.326  10.673   8.476 -0.1193  1.2311 -0.3832
  314MOL0     C43251   7.361  10.640   8.608 -1.3771 -0.3815  1.3271
  314MOL0     C43252   7.273  10.626   8.714  0.4484  0.1462 -0.6883
  314MOL0     O43253   7.310  10.591   8.847  0.3251 -0.3463  0.0403
  314MOL0     C43254   7.206  10.530   8.927 -0.7112 -0.2507  0.2042
  314MOL0     C43255   7.263  10.485   9.057  1.1279  0.9289  0.4642
  314MOL0     C43256   7.325  10.605   9.121  0.3189  0.2671  0.7284
  314MOL0     C43257   7.368  10.580   9.266  0.7178  0.4764 -0.1301
  314MOL0     C43258   7.445  10.694   9.322  0.4373 -0.0547 -0.3258
  314MOL0     C43259   7.498  10.796   9.364 -0.4638  0.0598 -0.5942
  314MOL0     C43260   7.136  10.648   8.676 -0.0960 -0.0742 -0.3987
  314MOL0     C43261   7.090  10.693   8.554  0.4882  0.2664 -0.0505
  314MOL0     C43262   6.945  10.748   8.535  0.2513  1.4905  0.1179
  314MOL0     H43263   7.482  10.764   8.080 -1.9137 -2.9302  2.8692
  314MOL0     H43264   7.479  10.818   7.811 -0.6360 -1.4120 -0.6631
  314MOL0     H43265   7.184  10.923   7.504  1.2519 -2.6492 -0.6659
  314MOL0     H43266   7.093  10.980   7.640  0.5989  1.4359 -0.6381
  314MOL0     H43267   7.057  10.726   7.693 -1.7548  3.0453  0.9174
  314MOL0     H43268   6.971  10.799   7.558  0.6501  0.8531  1.3342
  314MOL0     H43269   7.204  10.721   7.425  0.7100  0.8404 -0.0652
  314MOL0     H43270   7.218  10.619   7.563 -0.1521 -1.1462 -1.4700
  314MOL0     H43271   7.024  10.486   7.515 -4.2149  0.7160 -0.5019
  314MOL0     H43272   6.935  10.614   7.445  0.6340  1.7189 -2.5768
  314MOL0     H43273   7.170  10.487   7.308  1.1011  0.8983 -3.7235
  314MOL0     H43274   7.110  10.644   7.246 -0.7576  0.8060 -0.3431
  314MOL0     H43275   6.962  10.374   7.265  1.8134  0.3386 -0.5489
  314MOL0     H43276   6.877  10.525   7.228 -0.1496 -0.1367  0.5660
  314MOL0     H43277   7.101  10.375   7.077 -0.6130 -0.4814 -0.0366
  314MOL0     H43278   7.073  10.536   7.044  2.6829 -0.7342  1.0470
  314MOL0     H43279   6.825  10.345   7.038 -1.5618  1.8157  1.3967
  314MOL0     H43280   6.853  10.484   6.938  2.0610 -0.0043 -0.4916
  314MOL0     H43281   7.033  10.136   6.961  0.4280  1.7044  2.2917
  314MOL0     H43282   7.234  10.079   6.646 -0.8443  0.3507 -0.9979
  314MOL0     H43283   7.112   9.998   6.732 -0.1057 -0.7856  1.0124
  314MOL0     H43284   7.266  10.056   6.952  2.1478 -3.0905  0.7324
  314MOL0     H43285   7.315   9.945   6.827 -0.0349 -0.1230  0.0862
  314MOL0     H43286   7.473  10.106   6.745  0.8597 -3.2528  1.2109
  314MOL0     H43287   7.396  10.249   6.806 -1.2876 -0.5588  0.4528
  314MOL0     H43288   7.424  10.154   7.042  0.4667 -0.2893  0.0555
  314MOL0     H43289   7.534  10.036   6.984  1.6886 -0.4611 -2.4209
  314MOL0     H43290   7.762  10.423   6.912  1.9048 -0.6860  1.2082
  314MOL0     H43291   7.987  10.504   6.863  0.8174  1.9392 -1.5593
  314MOL0     H43292   7.950  10.520   6.690 -4.6860 -1.2340  0.4005
  314MOL0     H43293   8.098  10.433   6.744 -0.0191  0.6145  0.2401
  314MOL0     H43294   7.831  10.306   6.369 -3.8094 -0.8465  0.7352
  314MOL0     H43295   7.652  10.234   6.235 -2.2077 -0.5276 -1.3511
  314MOL0     H43296   7.449  10.067   6.165 -0.2883  0.4421 -0.7376
  314MOL0     H43297   7.562  10.123   6.043 -1.9891  1.8085  2.0442
  314MOL0     H43298   7.497   9.901   5.906  0.2378  1.9508  0.2433
  314MOL0     H43299   7.398   9.865   6.046  2.6685 -0.3978  2.5395
  314MOL0     H43300   7.361  10.140   5.943 -1.7876  0.3301  5.8106
  314MOL0     H43301   7.238  10.019   6.006 -2.3248  1.7821 -2.1366
  314MOL0     H43302   7.218   9.906   5.812  0.5227 -0.9079 -3.2734
  314MOL0     H43303   7.373   9.949   5.755 -0.5284 -0.6571  0.2523
  314MOL0     H43304   7.304  10.170   5.693 -2.1337  3.0271  1.2695
  314MOL0     H43305   7.194  10.061   5.621  2.4822 -3.9390  0.5480
  314MOL0     H43306   7.061  10.242   5.695  1.7100  2.5745  0.5923
  314MOL0     H43307   7.122  10.247   5.847 -1.1292  0.4808 -0.9390
  314MOL0     H43308   7.011  10.049   5.935 -1.1024 -1.1486  1.0658
  314MOL0     H43309   6.949   9.992   5.774 -2.3409 -1.4197  1.6958
  314MOL0     H43310   6.885  10.265   5.915  0.6091 -0.5199 -1.7761
  314MOL0     H43311   6.795  10.112   5.946  0.7626 -3.7527 -0.3223
  314MOL0     H43312   7.823   9.832   6.253 -0.3879  0.6925 -2.5794
  314MOL0     H43313   7.993   9.907   6.400 -1.3633 -1.7725  0.5840
  314MOL0     H43314   7.845  10.023   6.651 -1.3562 -0.8054  0.4563
  314MOL0     H43315   7.669  10.015   6.814 -2.0055  1.6751 -0.4236
  314MOL0     H43316   7.073  10.902   7.841  1.8965  3.2250 -1.0240
  314MOL0     H43317   7.064  10.855   8.069 -0.6051 -1.0091  0.2377
  314MOL0     H43318   7.414  10.674   8.413  0.5298  2.1576  0.5077
  314MOL0     H43319   7.467  10.622   8.621 -1.3014 -1.8879 -0.8776
  314MOL0     H43320   7.129  10.606   8.943  1.7722  2.0084  2.3994
  314MOL0     H43321   7.168  10.442   8.875  1.1068 -2.4638  2.3594
  314MOL0     H43322   7.335  10.403   9.054  1.9195  1.4206  2.8705
  314MOL0     H43323   7.183  10.450   9.124  2.5026 -2.1882  0.6401
  314MOL0     H43324   7.407  10.619   9.050  0.1681 -5.2690 -1.0472
  314MOL0     H43325   7.259  10.692   9.116 -1.7846 -1.2869 -1.2168
  314MOL0     H43326   7.436  10.494   9.262 -0.8808 -0.8934  0.5411
  314MOL0     H43327   7.283  10.559   9.333 -0.4514  2.6495 -0.8318
  314MOL0     H43328   7.544  10.882   9.409 -2.7458  1.4217 -0.6943
  314MOL0     H43329   7.058  10.637   8.752  0.6978  0.9775  0.6156
  314MOL0     H43330   6.874  10.670   8.504  0.7125  1.8623 -2.0961
  314MOL0     H43331   6.916  10.786   8.633  0.3236  0.1534  0.6803
  314MOL0     H43332   6.939  10.829   8.461 -1.3093 -0.5750 -2.1830
  315MOL0     O43333   7.911   3.522   7.947 -0.4317 -0.9449 -0.8066
  315MOL0     C43334   7.820   3.519   8.025 -0.0410  1.2846  0.2719
  315MOL0     O43335   7.701   3.583   8.013  0.2027 -0.1329 -0.3205
  315MOL0     C43336   7.674   3.651   7.900  0.3108 -0.4109  0.1126
  315MOL0     C43337   7.737   3.768   7.867 -0.8710 -0.1105 -0.5845
  315MOL0     C43338   7.696   3.842   7.750 -1.1781  0.2015 -0.5536
  315MOL0     C43339   7.600   3.786   7.669  0.1404 -0.5604  0.2298
  315MOL0     O43340   7.562   3.862   7.558 -0.1359  0.6806 -0.4438
  315MOL0     C43341   7.440   3.838   7.484  0.6338 -0.6307  0.8023
  315MOL0     C43342   7.413   3.956   7.393 -0.5164 -0.1632 -0.2849
  315MOL0     C43343   7.303   3.920   7.293 -0.2019 -0.4088 -0.1431
  315MOL0     C43344   7.234   4.035   7.223 -0.6759 -0.7703 -0.3287
  315MOL0     C43345   7.120   3.981   7.139  0.0315  0.5673 -0.3400
  315MOL0     C43346   7.055   4.090   7.066  0.7400  0.5189 -0.8799
  315MOL0     C43347   6.902   4.071   7.063 -0.8362 -0.4057  0.7266
  315MOL0     C43348   6.867   3.950   6.970 -0.0034 -0.0277 -0.1539
  315MOL0     N43349   6.826   4.009   6.834 -0.5192  0.2116  0.6299
  315MOL0     C43350   6.917   4.064   6.739  0.2821 -0.8048 -0.0548
  315MOL0     C43351   6.848   4.079   6.623 -0.1107  0.4857  1.1490
  315MOL0     C43352   6.904   4.143   6.500 -0.7531  0.4672  0.1434
  315MOL0     C43353   7.004   4.044   6.427  0.5371  0.8288 -0.4739
  315MOL0     C43354   6.927   3.947   6.335  0.6169 -0.2473 -0.0594
  315MOL0     C43355   7.012   3.893   6.226 -0.1304 -0.5310  0.3793
  315MOL0     O43356   7.096   3.792   6.269 -0.1383  0.3799  0.4903
  315MOL0     C43357   7.071   3.662   6.215  0.7668  0.7741 -0.7308
  315MOL0     C43358   6.950   3.594   6.250  0.0347  0.5343 -0.1896
  315MOL0     C43359   6.914   3.460   6.210  0.6145 -0.3245 -0.2702
  315MOL0     C43360   6.774   3.415   6.266  0.3161  0.4325  0.2773
  315MOL0     C43361   7.020   3.391   6.138 -0.0368  1.0384 -0.2777
  315MOL0     C43362   7.006   3.245   6.108  0.3172 -0.3678  0.5326
  315MOL0     O43363   7.106   3.200   6.024 -0.5461  0.8966  0.1579
  315MOL0     C43364   7.084   3.073   5.980  0.3173 -0.2653 -0.5253
  315MOL0     C43365   6.989   3.031   5.883 -0.5341  0.4276 -0.4417
  315MOL0     C43366   6.979   2.897   5.842 -0.4522 -0.0992 -0.5797
  315MOL0     C43367   7.065   2.795   5.909  0.1429  0.0934 -0.2581
  315MOL0     O43368   7.050   2.661   5.890 -0.1266  0.4120 -0.0614
  315MOL0     C43369   6.925   2.609   5.855  1.4138 -0.6322 -0.1654
  315MOL0     C43370   6.942   2.467   5.890  0.2159  1.1817  0.1848
  315MOL0     C43371   6.832   2.380   5.807 -0.2335  0.1441  0.4163
  315MOL0     C43372   6.826   2.236   5.859 -0.0287  0.7597  0.8287
  315MOL0     C43373   6.964   2.169   5.823 -0.2636 -0.3433 -0.2511
  315MOL0     C43374   6.973   2.015   5.831  0.3967  0.1172 -0.5062
  315MOL0     C43375   7.110   1.974   5.788 -0.1510 -0.0690 -0.5966
  315MOL0     C43376   7.126   1.819   5.790 -0.0162 -0.1847  1.2326
  315MOL0    Cl43377   7.295   1.751   5.761 -0.1038 -0.6076  0.1263
  315MOL0     C43378   7.156   2.847   5.997 -0.5883 -0.2114 -0.5421
  315MOL0     C43379   7.164   2.979   6.035 -0.1926  0.7737  0.4006
  315MOL0     O43380   6.925   3.175   6.164 -0.0842  0.1979 -0.1334
  315MOL0     C43381   7.142   3.463   6.109 -0.0300  0.1320  0.4717
  315MOL0     C43382   7.169   3.589   6.157  0.0463 -0.2736 -0.1931
  315MOL0     N43383   6.720   4.034   6.647 -0.0746 -0.3110  0.2041
  315MOL0     N43384   6.710   3.981   6.768  0.4353 -1.3441  0.3586
  315MOL0     C43385   7.533   3.669   7.700 -0.1153  0.0865 -0.0148
  315MOL0     C43386   7.572   3.604   7.810 -0.1168  0.4453 -0.8478
  315MOL0     C43387   7.831   3.430   8.141 -0.4433 -0.3892  0.0113
  315MOL0     C43388   7.903   3.310   8.128 -0.6506  0.6871 -0.0695
  315MOL0     C43389   7.925   3.223   8.239  0.1476 -0.4658  0.5534
  315MOL0     C43390   7.857   3.243   8.357 -0.2263  0.3156  0.3609
  315MOL0     O43391   7.858   3.146   8.462 -0.5167  0.3283 -0.6030
  315MOL0     C43392   7.799   3.021   8.433  0.1489 -0.2030 -0.1735
  315MOL0     C43393   7.735   2.974   8.561  0.3242 -0.0689 -0.1655
  315MOL0     C43394   7.664   2.840   8.527 -1.2619 -0.0160 -0.2656
  315MOL0     C43395   7.633   2.763   8.647 -0.1384  0.3563 -0.5079
  315MOL0     C43396   7.765   2.707   8.694  0.2967  0.0332 -0.6579
  315MOL0     C43397   7.872   2.649   8.714  0.7378  0.0354  0.0677
  315MOL0     C43398   7.783   3.360   8.373 -0.7720 -0.0593 -0.0052
  315MOL0     C43399   7.769   3.449   8.272 -0.3139 -0.7020  0.2908
  315MOL0     C43400   7.708   3.585   8.312  0.3592  0.4587 -0.3756
  315MOL0     H43401   7.811   3.815   7.930 -1.3665  0.1456 -0.1867
  315MOL0     H43402   7.743   3.934   7.716  2.3167 -1.2987 -0.1749
  315MOL0     H43403   7.352   3.828   7.548 -2.5681  2.3187 -2.6720
  315MOL0     H43404   7.450   3.748   7.423  2.5484  0.6879 -1.0032
  315MOL0     H43405   7.375   4.038   7.454 -0.6854  1.4065 -2.3792
  315MOL0     H43406   7.497   3.986   7.330 -0.3190  3.2075  1.3745
  315MOL0     H43407   7.352   3.854   7.221  2.4546  0.5434  0.6989
  315MOL0     H43408   7.223   3.859   7.336 -3.3659  2.1069 -1.9687
  315MOL0     H43409   7.194   4.096   7.304  1.2205 -1.5085  1.2778
  315MOL0     H43410   7.303   4.093   7.161 -0.9496  1.9779  1.7420
  315MOL0     H43411   7.042   3.928   7.194 -2.8807  2.9155 -1.9260
  315MOL0     H43412   7.162   3.910   7.067 -2.4105 -1.1509 -0.1909
  315MOL0     H43413   7.072   4.185   7.117  1.0005 -1.4052  2.9952
  315MOL0     H43414   7.097   4.106   6.966  0.5311  1.0666 -0.8805
  315MOL0     H43415   6.850   4.161   7.026  2.9734  1.5041 -0.4423
  315MOL0     H43416   6.850   4.054   7.157 -2.5795 -1.5360 -0.3649
  315MOL0     H43417   6.948   3.880   6.950  0.0465  0.2868 -1.1184
  315MOL0     H43418   6.785   3.889   7.008 -0.7516  1.1832  0.2335
  315MOL0     H43419   7.022   4.086   6.754  0.0889  0.4665 -0.5080
  315MOL0     H43420   6.961   4.231   6.530 -0.2119  0.1604  0.0200
  315MOL0     H43421   6.822   4.174   6.434 -2.7845 -0.9557  1.8459
  315MOL0     H43422   7.057   4.106   6.354 -1.7956 -1.4902 -4.5229
  315MOL0     H43423   7.081   3.999   6.492 -0.2302 -0.2222 -0.2661
  315MOL0     H43424   6.883   3.866   6.394  0.2644  1.1114  1.6388
  315MOL0     H43425   6.852   4.011   6.287  1.9027  0.7291 -0.8470
  315MOL0     H43426   6.950   3.860   6.143  0.7907  0.1903 -0.6115
  315MOL0     H43427   7.076   3.972   6.185  2.1433 -3.3313 -1.8503
  315MOL0     H43428   6.876   3.653   6.304  0.8912  2.3874 -0.9974
  315MOL0     H43429   6.717   3.500   6.306  0.0428 -1.1696  3.6868
  315MOL0     H43430   6.786   3.343   6.347  0.3207 -0.4191 -0.4640
  315MOL0     H43431   6.714   3.367   6.188  3.1165 -1.1676 -1.0266
  315MOL0     H43432   6.939   3.118   5.841  0.4602  1.1590 -0.1590
  315MOL0     H43433   6.903   2.865   5.772 -2.5373  2.8379  0.1374
  315MOL0     H43434   6.843   2.661   5.907  1.3118 -0.0354 -0.9113
  315MOL0     H43435   6.915   2.621   5.747 -1.2767  0.7179  0.1322
  315MOL0     H43436   7.043   2.435   5.863  0.3453 -1.7953  3.5229
  315MOL0     H43437   6.938   2.442   5.996  3.1420 -2.4072 -0.3649
  315MOL0     H43438   6.853   2.401   5.702 -0.1512  3.1443  0.9394
  315MOL0     H43439   6.728   2.410   5.822 -0.0692  0.9489  0.0085
  315MOL0     H43440   6.748   2.176   5.812  1.9487 -1.1460 -0.2655
  315MOL0     H43441   6.807   2.227   5.966 -0.9148 -1.0500  0.5494
  315MOL0     H43442   6.987   2.202   5.721  0.0498 -0.3261 -0.1758
  315MOL0     H43443   7.047   2.198   5.888 -0.4337 -1.8049  0.6721
  315MOL0     H43444   6.897   1.975   5.764 -0.6320 -1.0224  1.2360
  315MOL0     H43445   6.952   1.977   5.932  0.7683  1.4980  0.1137
  315MOL0     H43446   7.182   2.026   5.852  3.6883 -3.0761 -2.0635
  315MOL0     H43447   7.133   2.012   5.688 -0.0135  2.1546  0.2377
  315MOL0     H43448   7.049   1.773   5.728 -0.6440 -0.1245  1.9660
  315MOL0     H43449   7.103   1.791   5.893  2.5509  0.9837  2.2209
  315MOL0     H43450   7.213   2.782   6.061 -2.0965 -0.0922  1.0079
  315MOL0     H43451   7.237   3.001   6.112  0.3156  1.2844 -0.2177
  315MOL0     H43452   7.219   3.407   6.056 -1.4378 -1.2798 -0.1633
  315MOL0     H43453   7.269   3.630   6.154  0.9167 -2.1599  1.0976
  315MOL0     H43454   7.448   3.628   7.646 -0.7052  2.0950 -0.7140
  315MOL0     H43455   7.527   3.507   7.829 -3.3327  2.3253  2.2249
  315MOL0     H43456   7.948   3.295   8.030 -0.8033 -1.5073  0.1466
  315MOL0     H43457   7.989   3.138   8.216 -1.0971 -0.8706 -1.6945
  315MOL0     H43458   7.735   3.032   8.345  1.1163 -0.2733 -0.9050
  315MOL0     H43459   7.878   2.951   8.404  1.0930 -0.3030  2.4157
  315MOL0     H43460   7.666   3.056   8.582  0.6216  0.4451 -1.1222
  315MOL0     H43461   7.799   2.970   8.650 -1.6425 -0.6728  1.2742
  315MOL0     H43462   7.566   2.854   8.481 -1.8568 -2.8127  0.0061
  315MOL0     H43463   7.722   2.770   8.466  0.0400  0.4088  0.4320
  315MOL0     H43464   7.570   2.678   8.619  2.5274 -0.8069 -3.4946
  315MOL0     H43465   7.581   2.819   8.726  0.2869 -0.2565  0.2264
  315MOL0     H43466   7.962   2.590   8.716  0.0994 -1.0010 -0.4100
  315MOL0     H43467   7.744   3.372   8.474  1.5419 -0.8595  1.0584
  315MOL0     H43468   7.688   3.575   8.419 -0.6528 -0.6268 -0.6445
  315MOL0     H43469   7.770   3.674   8.297  2.0250 -0.6621 -0.3904
  315MOL0     H43470   7.610   3.598   8.266 -1.2507 -0.3849  2.5289
  316MOL0     O43471  10.836   9.549   2.108 -0.4261 -0.0133  0.4765
  316MOL0     C43472  10.737   9.616   2.090  0.6087  0.1369 -0.2016
  316MOL0     O43473  10.742   9.748   2.076  0.8303 -0.2603 -0.6819
  316MOL0     C43474  10.852   9.822   2.105 -0.0011  0.6623  0.0013
  316MOL0     C43475  10.944   9.864   2.008  0.0193  1.3118  0.7142
  316MOL0     C43476  11.052   9.946   2.044 -0.2500 -0.1923  0.8935
  316MOL0     C43477  11.070   9.984   2.178 -0.6887  0.4302 -0.6782
  316MOL0     O43478  11.189  10.049   2.205 -0.3556  0.2482 -0.3251
  316MOL0     C43479  11.189  10.112   2.329 -0.1222 -0.9064 -0.6169
  316MOL0     C43480  11.326  10.157   2.375  0.3435 -0.7749  0.3376
  316MOL0     C43481  11.406  10.033   2.408  0.4733 -0.3847 -0.4928
  316MOL0     C43482  11.547  10.075   2.434 -0.2364  0.0876  0.0766
  316MOL0     C43483  11.635   9.953   2.428  0.4514  0.1485  0.4270
  316MOL0     C43484  11.778   9.989   2.476  0.1298 -0.9565  0.0463
  316MOL0     C43485  11.881   9.885   2.492 -0.0283 -0.1756 -0.3508
  316MOL0     C43486  11.851   9.783   2.604  0.3064 -0.8921 -0.7014
  316MOL0     N43487  11.980   9.722   2.653 -0.2720 -0.5914 -0.7795
  316MOL0     C43488  12.060   9.792   2.740 -0.3888 -1.0012  0.7328
  316MOL0     C43489  12.186   9.734   2.714  0.3401 -0.2436 -0.7092
  316MOL0     C43490  12.314   9.776   2.772  0.6821 -0.4668  0.0082
  316MOL0     C43491  12.335   9.742   2.921 -0.5026 -0.2482  0.0339
  316MOL0     C43492  12.446   9.830   2.986 -0.2081 -0.1616  0.5502
  316MOL0     C43493  12.580   9.758   2.974 -0.4081 -0.0968 -0.6605
  316MOL0     O43494  12.670   9.849   3.031  0.3996 -0.1094 -0.2897
  316MOL0     C43495  12.748   9.819   3.137  0.6746 -1.0778 -0.6366
  316MOL0     C43496  12.791   9.692   3.169  0.6204 -0.3716 -0.1374
  316MOL0     C43497  12.869   9.664   3.278  0.1675  0.4743  0.3258
  316MOL0     C43498  12.928   9.519   3.287  0.4586 -0.7509 -0.4967
  316MOL0     C43499  12.901   9.762   3.376  0.3137 -0.2845  0.2976
  316MOL0     C43500  12.985   9.749   3.498 -0.5830  0.1083  0.0342
  316MOL0     O43501  12.969   9.836   3.606  0.0069 -0.4902  0.0888
  316MOL0     C43502  13.072   9.818   3.699 -0.7789  0.4842  0.4716
  316MOL0     C43503  13.189   9.889   3.665 -0.1037  0.0339 -0.3178
  316MOL0     C43504  13.299   9.895   3.753 -1.1698  0.5074  0.2530
  316MOL0     C43505  13.290   9.833   3.875 -0.2080 -0.0271 -0.3457
  316MOL0     O43506  13.396   9.861   3.954  0.5724 -0.1917  0.3754
  316MOL0     C43507  13.387   9.849   4.099 -0.2262  0.0539 -0.3103
  316MOL0     C43508  13.514   9.844   4.177  0.3576 -0.7065 -0.5510
  316MOL0     C43509  13.619   9.740   4.130  0.3123 -0.5810 -0.0598
  316MOL0     C43510  13.765   9.755   4.176  0.2543  1.0045  0.3123
  316MOL0     C43511  13.847   9.623   4.151  0.1091 -0.1044 -0.6910
  316MOL0     C43512  13.992   9.616   4.184 -0.5024  0.0400 -0.0828
  316MOL0     C43513  14.021   9.598   4.329  1.0739 -0.6660  0.2289
  316MOL0     C43514  14.155   9.546   4.364 -0.1516  0.4116 -0.0924
  316MOL0    Cl43515  14.156   9.381   4.302  0.3586 -0.1755  0.2506
  316MOL0     C43516  13.173   9.765   3.920  0.0216  0.0740  0.4739
  316MOL0     C43517  13.065   9.757   3.830  0.5586  1.2766  0.7777
  316MOL0     O43518  13.072   9.658   3.495 -0.1206  0.0098  0.3431
  316MOL0     C43519  12.845   9.890   3.346  0.1827 -0.6535 -0.2363
  316MOL0     C43520  12.768   9.922   3.232 -0.8484 -0.0094 -0.0234
  316MOL0     N43521  12.179   9.639   2.620  0.1010  0.8297  0.2128
  316MOL0     N43522  12.050   9.628   2.581  0.3114  0.6905 -0.0785
  316MOL0     C43523  10.973   9.947   2.271 -0.2668 -0.5048  0.1576
  316MOL0     C43524  10.858   9.879   2.228  0.4710 -0.5589 -0.3305
  316MOL0     C43525  10.607   9.548   2.102  0.2343  0.3822  0.9538
  316MOL0     C43526  10.490   9.617   2.125  0.2477 -0.4355 -0.1353
  316MOL0     C43527  10.366   9.553   2.118  0.7512 -1.1680 -0.9577
  316MOL0     C43528  10.353   9.417   2.134 -0.6808  0.8752  0.7756
  316MOL0     O43529  10.236   9.356   2.166  0.1585 -0.0534 -0.2129
  316MOL0     C43530  10.192   9.244   2.088 -0.3920 -0.0653  0.4979
  316MOL0     C43531  10.170   9.291   1.943  0.8119 -0.2276  0.0323
  316MOL0     C43532  10.028   9.357   1.926  0.7533  0.5127  0.6295
  316MOL0     C43533  10.017   9.407   1.781 -1.0341 -0.9868 -0.0479
  316MOL0     C43534   9.882   9.388   1.721 -0.5013 -0.0950 -0.2537
  316MOL0     C43535   9.774   9.373   1.666  0.0656  0.6758  0.1426
  316MOL0     C43536  10.472   9.351   2.113  0.1695 -0.3436  0.7198
  316MOL0     C43537  10.600   9.406   2.090  0.2670 -0.3118 -0.2552
  316MOL0     C43538  10.720   9.305   2.069 -0.0838  0.1285 -0.2636
  316MOL0     H43539  10.951   9.820   1.909 -0.3566 -2.0534  2.0231
  316MOL0     H43540  11.126   9.968   1.968 -1.9575  1.7992 -0.3260
  316MOL0     H43541  11.153  10.039   2.403 -1.3454 -2.8219 -2.9497
  316MOL0     H43542  11.124  10.199   2.326 -0.3588 -1.0310  0.4947
  316MOL0     H43543  11.362  10.229   2.300 -0.6662  3.3282  3.4384
  316MOL0     H43544  11.333  10.214   2.468  1.6506 -0.4073  0.0382
  316MOL0     H43545  11.370   9.986   2.500  2.7678  0.7336  1.0661
  316MOL0     H43546  11.390   9.965   2.324 -0.5483  0.6696 -1.1916
  316MOL0     H43547  11.586  10.142   2.356  0.3847 -0.5860 -0.2017
  316MOL0     H43548  11.554  10.126   2.530  0.7383  1.0343 -0.4738
  316MOL0     H43549  11.637   9.924   2.322  2.8042  0.0941  0.4270
  316MOL0     H43550  11.591   9.875   2.490  1.9058  1.8257  3.8202
  316MOL0     H43551  11.826  10.066   2.416  0.1994 -1.9248 -1.1694
  316MOL0     H43552  11.772  10.029   2.578  2.2263  1.1673 -0.5807
  316MOL0     H43553  11.980   9.925   2.515 -0.0784  0.2889 -0.9204
  316MOL0     H43554  11.893   9.837   2.394  1.0047  0.5292 -0.5892
  316MOL0     H43555  11.796   9.825   2.688 -0.6374 -2.2167 -0.6320
  316MOL0     H43556  11.784   9.703   2.572  1.3762 -1.6137 -1.2002
  316MOL0     H43557  12.045   9.878   2.804  2.0561 -0.4030  0.6173
  316MOL0     H43558  12.317   9.885   2.760 -2.3562 -0.2996  0.1074
  316MOL0     H43559  12.395   9.729   2.716  0.5727 -0.0301 -0.5255
  316MOL0     H43560  12.241   9.765   2.972 -0.8892  0.7531 -1.0809
  316MOL0     H43561  12.367   9.639   2.940  1.9580  0.4255 -0.1776
  316MOL0     H43562  12.455   9.925   2.934 -1.3589 -0.0269  0.5771
  316MOL0     H43563  12.422   9.849   3.091  0.8498  4.6948  0.1160
  316MOL0     H43564  12.576   9.666   3.033 -2.7843 -0.3687 -1.1068
  316MOL0     H43565  12.598   9.728   2.870  0.1583  0.8801 -0.8531
  316MOL0     H43566  12.766   9.612   3.099 -0.5026  1.2014 -1.6152
  316MOL0     H43567  13.025   9.510   3.238  1.5880  2.2230  0.9394
  316MOL0     H43568  12.850   9.457   3.242  0.2821 -0.2791 -0.8476
  316MOL0     H43569  12.941   9.483   3.390 -1.0684 -1.7226 -0.6101
  316MOL0     H43570  13.185   9.947   3.574  0.1495 -1.1839 -1.1174
  316MOL0     H43571  13.381   9.960   3.724 -0.5387 -0.8137 -1.0668
  316MOL0     H43572  13.320   9.926   4.137  2.6478  0.0398  6.1131
  316MOL0     H43573  13.341   9.751   4.115 -0.2506  0.1794  0.4251
  316MOL0     H43574  13.556   9.944   4.191 -1.4693 -0.1540  1.5377
  316MOL0     H43575  13.483   9.816   4.278  0.7702  1.9985  0.4119
  316MOL0     H43576  13.622   9.738   4.021  0.6113  0.1375 -0.0653
  316MOL0     H43577  13.592   9.643   4.172  2.5178 -0.2220  2.4051
  316MOL0     H43578  13.758   9.785   4.281 -1.3435 -0.6667  0.7358
  316MOL0     H43579  13.806   9.839   4.119  1.0461  1.7287  1.8877
  316MOL0     H43580  13.792   9.547   4.207 -0.4680 -1.4946 -2.9667
  316MOL0     H43581  13.832   9.596   4.046 -1.5188  0.4993 -0.6331
  316MOL0     H43582  14.031   9.709   4.142  1.1627 -0.8695 -0.6638
  316MOL0     H43583  14.037   9.532   4.131  1.9344  0.6453  0.9057
  316MOL0     H43584  13.937   9.538   4.364 -0.0422  1.4433  1.4193
  316MOL0     H43585  14.011   9.700   4.367 -2.7435 -0.1342 -1.7422
  316MOL0     H43586  14.152   9.542   4.473  0.2018 -0.1447 -0.0954
  316MOL0     H43587  14.236   9.603   4.317  0.8920  2.1115  3.4396
  316MOL0     H43588  13.168   9.707   4.011  1.1370  0.3825  0.7494
  316MOL0     H43589  12.975   9.698   3.840  1.0433 -0.7237 -4.0119
  316MOL0     H43590  12.870   9.982   3.397  2.2028 -0.0031 -2.2403
  316MOL0     H43591  12.715  10.016   3.219  0.1593  0.4594 -0.9008
  316MOL0     H43592  10.982   9.972   2.376  1.7658  1.2098 -0.3620
  316MOL0     H43593  10.779   9.845   2.294  1.2990 -0.6090  0.6536
  316MOL0     H43594  10.489   9.725   2.124 -1.9156 -0.4020 -1.0739
  316MOL0     H43595  10.268   9.600   2.118  1.3727  0.6793  3.6507
  316MOL0     H43596  10.263   9.163   2.108 -1.5132 -1.1314  0.2842
  316MOL0     H43597  10.103   9.214   2.142 -1.0973  1.0086 -0.0233
  316MOL0     H43598  10.177   9.209   1.871 -0.2545  0.5860 -1.0443
  316MOL0     H43599  10.251   9.356   1.911 -0.6949  0.7753 -2.0474
  316MOL0     H43600   9.951   9.285   1.952  1.1522 -0.2971 -0.3622
  316MOL0     H43601  10.017   9.442   1.994  1.4402 -0.2503  1.7357
  316MOL0     H43602  10.086   9.357   1.713 -1.4314 -0.5022 -0.8316
  316MOL0     H43603  10.040   9.514   1.787 -2.3875 -0.6037 -1.1364
  316MOL0     H43604   9.679   9.359   1.618  0.6781  2.4298 -1.7692
  316MOL0     H43605  10.478   9.243   2.125 -0.4746 -0.3195  1.2864
  316MOL0     H43606  10.774   9.285   2.162 -0.6396 -2.4415 -0.4177
  316MOL0     H43607  10.682   9.210   2.030 -0.0800  0.4765 -1.1364
  316MOL0     H43608  10.797   9.337   1.998  1.5014 -1.8893  0.4505
  317MOL0     O43609   2.118   7.204   5.196  0.4240 -0.4770 -0.5988
  317MOL0     C43610   2.146   7.267   5.093 -0.6174 -0.1791  0.3884
  317MOL0     O43611   2.166   7.212   4.967 -0.2966 -0.0003 -0.3694
  317MOL0     C43612   2.144   7.077   4.963  0.4610 -0.3835  0.1369
  317MOL0     C43613   2.244   6.989   4.938 -0.1143 -0.1846  0.5597
  317MOL0     C43614   2.225   6.853   4.896  0.2451  1.1679 -0.6160
  317MOL0     C43615   2.101   6.809   4.888  0.4511  0.8397  0.0463
  317MOL0     O43616   2.086   6.673   4.856  0.2616  0.0914  0.1807
  317MOL0     C43617   1.965   6.606   4.909  0.2734 -0.2602  0.0291
  317MOL0     C43618   1.985   6.456   4.912  0.1192 -0.0433  0.2273
  317MOL0     C43619   2.034   6.384   4.783  0.0740  0.1648  0.4932
  317MOL0     C43620   2.042   6.236   4.795 -0.1084  0.7048  0.1745
  317MOL0     C43621   1.918   6.145   4.799 -0.9070 -1.0159 -0.1734
  317MOL0     C43622   1.960   5.998   4.798 -0.2338  0.8892 -0.2724
  317MOL0     C43623   1.850   5.910   4.830  0.6613  0.9021 -0.1628
  317MOL0     C43624   1.910   5.760   4.834 -0.0145 -0.4051  0.2812
  317MOL0     N43625   1.855   5.678   4.943 -0.4047 -0.3463 -0.1378
  317MOL0     C43626   1.724   5.686   4.987 -0.3268 -1.0735  0.2395
  317MOL0     C43627   1.713   5.598   5.092 -0.3121  0.6092  0.1865
  317MOL0     C43628   1.606   5.566   5.195  0.6795  0.3827  0.4218
  317MOL0     C43629   1.458   5.609   5.157  0.4235  0.4602 -0.2645
  317MOL0     C43630   1.355   5.540   5.239 -0.1811 -0.4232  0.3528
  317MOL0     C43631   1.328   5.387   5.193 -0.1351 -0.1230 -0.0097
  317MOL0     O43632   1.257   5.382   5.072 -0.0544  0.6416 -0.7079
  317MOL0     C43633   1.122   5.362   5.079 -0.2861 -0.1207  1.7411
  317MOL0     C43634   1.049   5.395   5.190  0.3516  0.7578  0.4828
  317MOL0     C43635   0.914   5.375   5.198  1.3558  0.0346 -0.1614
  317MOL0     C43636   0.854   5.387   5.333 -0.6294 -0.0064 -0.8187
  317MOL0     C43637   0.841   5.337   5.084 -1.0388  1.1146 -0.4605
  317MOL0     C43638   0.689   5.316   5.065  0.6420  0.2467 -0.7163
  317MOL0     O43639   0.652   5.258   4.941  0.0423  0.3999  0.3445
  317MOL0     C43640   0.525   5.227   4.889 -0.9943 -0.4002  0.2638
  317MOL0     C43641   0.514   5.156   4.772  0.2785 -0.3293  1.1173
  317MOL0     C43642   0.384   5.136   4.708 -0.4394 -0.0640 -1.3395
  317MOL0     C43643   0.269   5.192   4.769  0.5437 -0.0846  0.6604
  317MOL0     O43644   0.142   5.186   4.715  0.5686 -0.0487 -0.4671
  317MOL0     C43645   0.122   5.130   4.585 -0.7643  0.5773 -0.7335
  317MOL0     C43646  -0.027   5.139   4.550 -0.6766  0.7552 -1.1552
  317MOL0     C43647  -0.053   5.038   4.437  0.4335  0.9966  0.8633
  317MOL0     C43648  -0.203   5.019   4.404  0.9316 -0.3686 -0.8747
  317MOL0     C43649  -0.226   4.949   4.268  0.5952 -0.5604 -0.4871
  317MOL0     C43650  -0.226   4.796   4.279  0.2309  0.3363 -0.3145
  317MOL0     C43651  -0.256   4.746   4.138 -0.3191  0.5558  0.0518
  317MOL0     C43652  -0.227   4.596   4.103  0.3260 -0.5049 -0.0162
  317MOL0    Cl43653  -0.053   4.559   4.150 -0.0882 -0.6241  0.2746
  317MOL0     C43654   0.289   5.250   4.892  0.6324 -0.9856  0.0572
  317MOL0     C43655   0.413   5.269   4.947 -0.0246  0.5468 -0.1891
  317MOL0     O43656   0.609   5.359   5.157 -0.2364  0.6273  0.1198
  317MOL0     C43657   0.917   5.308   4.971 -0.0671 -0.5423  0.3682
  317MOL0     C43658   1.054   5.308   4.975  1.4300 -0.0765  0.2692
  317MOL0     N43659   1.844   5.543   5.103  0.3981 -0.6177 -0.6746
  317MOL0     N43660   1.924   5.590   5.018 -0.2396 -0.8384  0.7128
  317MOL0     C43661   1.993   6.897   4.927 -0.6163  0.7123 -0.2104
  317MOL0     C43662   2.014   7.024   4.970  0.6141 -0.2204 -0.8470
  317MOL0     C43663   2.175   7.418   5.091 -0.4890 -0.0053  0.3996
  317MOL0     C43664   2.201   7.485   4.969  0.2672  0.0431  0.5899
  317MOL0     C43665   2.218   7.620   4.954 -0.3030 -0.0135  0.8177
  317MOL0     C43666   2.208   7.706   5.064  0.4631  1.0166  0.1845
  317MOL0     O43667   2.214   7.840   5.063 -0.0014 -0.1955  0.3749
  317MOL0     C43668   2.226   7.907   4.933 -0.1075 -0.2754  0.1469
  317MOL0     C43669   2.082   7.925   4.892 -0.7651  0.4369 -0.0301
  317MOL0     C43670   1.999   8.021   4.987 -1.1652  0.5021  0.7683
  317MOL0     C43671   1.891   8.095   4.913  0.0187 -0.8068  0.0411
  317MOL0     C43672   1.791   8.016   4.850 -0.6512 -0.0593  0.4182
  317MOL0     C43673   1.708   7.973   4.782 -0.2046  0.2065  0.1240
  317MOL0     C43674   2.184   7.650   5.184 -0.3817  0.4180  0.9027
  317MOL0     C43675   2.169   7.509   5.202 -0.3026  0.5027 -0.5301
  317MOL0     C43676   2.144   7.461   5.346 -0.2541 -0.1496 -0.1192
  317MOL0     H43677   2.342   7.035   4.931 -0.4451  0.4558 -0.0215
  317MOL0     H43678   2.304   6.784   4.871  0.6048  1.4691 -0.3221
  317MOL0     H43679   1.878   6.625   4.845 -0.0212  1.5236  0.9044
  317MOL0     H43680   1.943   6.653   5.005  0.6556  2.9695 -1.3371
  317MOL0     H43681   2.050   6.417   4.991 -1.9375 -2.2194  0.9617
  317MOL0     H43682   1.883   6.427   4.938  0.0932  0.6829  0.9421
  317MOL0     H43683   1.959   6.409   4.707  1.1015 -3.4891 -2.0241
  317MOL0     H43684   2.132   6.422   4.754  0.0808  1.7593  2.4092
  317MOL0     H43685   2.091   6.197   4.706 -0.9564 -0.7032  0.2993
  317MOL0     H43686   2.114   6.225   4.877 -2.2938  0.0147  2.1360
  317MOL0     H43687   1.864   6.177   4.710  0.6123  0.2425 -0.7055
  317MOL0     H43688   1.857   6.163   4.888 -1.2508  0.9406 -0.7694
  317MOL0     H43689   1.990   5.975   4.695 -0.3726 -1.7762  0.2074
  317MOL0     H43690   2.047   5.985   4.863 -0.5547 -0.3311 -0.0716
  317MOL0     H43691   1.759   5.921   4.771  0.2244 -3.4377 -0.5862
  317MOL0     H43692   1.810   5.924   4.931 -1.3191 -0.3804 -0.7098
  317MOL0     H43693   1.892   5.707   4.740  1.2184 -0.8892  0.2962
  317MOL0     H43694   2.017   5.763   4.857 -0.1902 -0.9067  1.2263
  317MOL0     H43695   1.647   5.757   4.957  0.9615  0.3520  0.1950
  317MOL0     H43696   1.629   5.622   5.286  2.5907  2.0168 -0.9742
  317MOL0     H43697   1.604   5.458   5.212 -1.2040  0.6696  2.4068
  317MOL0     H43698   1.447   5.715   5.179 -2.1560 -0.3552  3.4827
  317MOL0     H43699   1.433   5.577   5.056 -0.4704 -0.0984  0.1181
  317MOL0     H43700   1.400   5.550   5.338  2.3916 -5.0933 -0.0706
  317MOL0     H43701   1.262   5.595   5.221  1.0614  1.7683  0.2392
  317MOL0     H43702   1.417   5.328   5.172 -3.4171 -4.7852 -2.5297
  317MOL0     H43703   1.275   5.332   5.272  0.1388  0.7750  0.8242
  317MOL0     H43704   1.098   5.442   5.275 -1.5493  1.9844  0.9552
  317MOL0     H43705   0.895   5.472   5.387  1.4570 -0.2790 -1.8513
  317MOL0     H43706   0.891   5.305   5.396 -1.0708  1.7854  1.9261
  317MOL0     H43707   0.745   5.393   5.345 -0.6869 -0.6955 -0.9557
  317MOL0     H43708   0.600   5.108   4.727 -1.1461 -1.8462 -0.0957
  317MOL0     H43709   0.375   5.081   4.615 -2.3854  0.8500 -1.7363
  317MOL0     H43710   0.183   5.188   4.514 -0.1815  3.4948  1.9305
  317MOL0     H43711   0.145   5.023   4.584  0.5245  0.8220 -0.4102
  317MOL0     H43712  -0.097   5.123   4.632 -2.4417 -1.2559 -2.9255
  317MOL0     H43713  -0.054   5.238   4.512  0.5298  1.2729 -0.7262
  317MOL0     H43714  -0.012   4.937   4.448  2.5724  1.5196 -1.3765
  317MOL0     H43715  -0.005   5.084   4.350 -0.6029  2.0029  0.8083
  317MOL0     H43716  -0.253   5.116   4.410  1.4824 -0.1278 -0.0469
  317MOL0     H43717  -0.255   4.967   4.485  0.6131 -2.7740 -2.5086
  317MOL0     H43718  -0.323   4.980   4.227  0.6901 -1.2573 -1.2746
  317MOL0     H43719  -0.147   4.986   4.202 -1.6244  0.6722 -2.6198
  317MOL0     H43720  -0.313   4.763   4.336 -0.9194  0.1122 -2.1171
  317MOL0     H43721  -0.127   4.767   4.316  0.2054  1.7164  0.8926
  317MOL0     H43722  -0.192   4.806   4.073 -1.0318  0.9940 -0.2559
  317MOL0     H43723  -0.359   4.766   4.109  0.0594 -0.3958 -2.1231
  317MOL0     H43724  -0.234   4.572   3.997  0.5810 -0.4897 -0.0356
  317MOL0     H43725  -0.288   4.527   4.163 -0.0320 -1.7105 -1.7090
  317MOL0     H43726   0.193   5.276   4.933 -1.5730 -1.6060 -4.1015
  317MOL0     H43727   0.409   5.316   5.045  1.8412  0.1474  0.1228
  317MOL0     H43728   0.875   5.268   4.879 -1.0914 -3.1327  1.8880
  317MOL0     H43729   1.109   5.273   4.888 -0.7182 -2.6755 -0.1622
  317MOL0     H43730   1.890   6.869   4.907 -0.2618  0.9097 -2.6856
  317MOL0     H43731   1.934   7.092   4.998  3.3058  3.2128 -0.7562
  317MOL0     H43732   2.212   7.437   4.872  2.2474  2.3637 -0.4514
  317MOL0     H43733   2.234   7.649   4.851  2.5682  0.3864  1.2819
  317MOL0     H43734   2.280   8.002   4.944 -3.2344  1.4440  2.1712
  317MOL0     H43735   2.286   7.848   4.863  1.8017  0.9724  0.6698
  317MOL0     H43736   2.030   7.829   4.885 -0.9081  0.6259 -2.6531
  317MOL0     H43737   2.084   7.962   4.789 -0.3855 -2.4564 -1.1757
  317MOL0     H43738   1.961   7.962   5.071 -1.9741  0.4922  0.3994
  317MOL0     H43739   2.072   8.088   5.032  2.5760 -1.9944 -1.0045
  317MOL0     H43740   1.931   8.163   4.838  3.0998  0.9381  2.9716
  317MOL0     H43741   1.847   8.163   4.987 -2.6602 -0.6484 -1.5690
  317MOL0     H43742   1.636   7.931   4.714 -0.7295  3.0349 -1.2214
  317MOL0     H43743   2.184   7.717   5.269  3.2555 -1.0334  2.2066
  317MOL0     H43744   2.181   7.358   5.354 -0.3959 -0.2481 -0.6402
  317MOL0     H43745   2.181   7.526   5.425 -0.0152  0.0023 -0.3527
  317MOL0     H43746   2.036   7.460   5.366 -0.4387 -0.2410 -1.0682
  318MOL0     O43747   6.509   4.516   5.199  0.2732 -0.2782  0.6544
  318MOL0     C43748   6.406   4.572   5.237  0.0179 -0.2466 -0.0955
  318MOL0     O43749   6.340   4.546   5.356 -0.1615 -0.6780 -0.9736
  318MOL0     C43750   6.361   4.430   5.421  0.2241  0.6677  0.7066
  318MOL0     C43751   6.334   4.419   5.554 -0.2702 -0.2839 -0.2700
  318MOL0     C43752   6.343   4.301   5.622 -0.3583  0.0459 -0.4319
  318MOL0     C43753   6.380   4.179   5.569 -1.3866 -0.8406 -0.3411
  318MOL0     O43754   6.387   4.078   5.655 -0.9304 -0.8012 -1.0263
  318MOL0     C43755   6.406   3.946   5.595  0.4111 -0.3685 -0.7920
  318MOL0     C43756   6.553   3.899   5.601 -0.4093 -0.4977  1.0387
  318MOL0     C43757   6.614   3.934   5.737  0.4797 -0.4950  0.3035
  318MOL0     C43758   6.754   3.867   5.760  0.3324  0.3396 -0.0539
  318MOL0     C43759   6.865   3.928   5.679 -0.2712  0.0489  1.0145
  318MOL0     C43760   6.922   4.060   5.746  1.0809  0.2348  0.2532
  318MOL0     C43761   7.032   4.131   5.671  0.3240 -0.2396 -1.2798
  318MOL0     C43762   7.089   4.252   5.753  1.4513 -0.4720  0.3095
  318MOL0     N43763   7.144   4.218   5.878  0.0769  0.0855 -0.0795
  318MOL0     C43764   7.254   4.137   5.886  0.0783  0.2108  0.2699
  318MOL0     C43765   7.267   4.128   6.025 -0.1522  0.3605 -0.2913
  318MOL0     C43766   7.382   4.070   6.094 -0.1926  0.3257 -0.7674
  318MOL0     C43767   7.408   3.934   6.045 -0.3966  0.5680 -0.5720
  318MOL0     C43768   7.539   3.880   6.106  0.5745  0.4795 -0.9014
  318MOL0     C43769   7.589   3.762   6.037 -0.2057  0.5758 -0.1165
  318MOL0     O43770   7.487   3.660   6.052  0.1849  0.3432  0.6290
  318MOL0     C43771   7.519   3.548   5.975  0.6267 -0.5411 -0.1386
  318MOL0     C43772   7.426   3.495   5.886  0.0408 -0.7038 -0.2528
  318MOL0     C43773   7.442   3.376   5.819  1.1425  0.0352 -0.0465
  318MOL0     C43774   7.336   3.322   5.726 -0.2065 -0.6660 -1.4063
  318MOL0     C43775   7.555   3.293   5.857  0.6816  0.0137 -0.2986
  318MOL0     C43776   7.584   3.151   5.814  0.3254 -0.1111 -0.4489
  318MOL0     O43777   7.712   3.107   5.810  0.6543  0.1005 -0.0567
  318MOL0     C43778   7.752   3.032   5.699  0.1043  0.5423  0.1194
  318MOL0     C43779   7.706   3.049   5.568 -0.7684  0.1024 -0.3708
  318MOL0     C43780   7.763   2.985   5.467 -0.4298  0.1598  0.0064
  318MOL0     C43781   7.867   2.889   5.487 -0.3898 -1.1334 -0.4180
  318MOL0     O43782   7.899   2.791   5.397 -0.0328  0.1733 -0.5564
  318MOL0     C43783   7.849   2.657   5.435 -0.1966 -0.3701 -0.1002
  318MOL0     C43784   7.916   2.553   5.347 -0.2743  0.3592 -0.4258
  318MOL0     C43785   7.915   2.580   5.198 -0.4279  1.2855  0.3262
  318MOL0     C43786   7.965   2.463   5.118 -0.8694  0.1843 -0.1939
  318MOL0     C43787   7.931   2.482   4.972  0.1976  0.1943 -0.0071
  318MOL0     C43788   7.991   2.388   4.876  0.1628  0.5453  1.1656
  318MOL0     C43789   7.920   2.390   4.733 -0.7666  0.1349 -1.3968
  318MOL0     C43790   8.022   2.361   4.634  0.0256 -0.4550  0.7963
  318MOL0    Cl43791   8.094   2.205   4.674 -0.1366 -0.1301  0.0397
  318MOL0     C43792   7.925   2.884   5.608 -0.1899 -0.1943 -0.7463
  318MOL0     C43793   7.862   2.950   5.712  0.0411  0.4440 -0.1515
  318MOL0     O43794   7.482   3.085   5.780 -0.1621 -0.0327  0.5573
  318MOL0     C43795   7.655   3.351   5.943  0.2284  0.0164 -0.2155
  318MOL0     C43796   7.636   3.479   5.998  0.3796 -0.2753 -0.3910
  318MOL0     N43797   7.164   4.193   6.083 -0.0440  0.3544 -1.1356
  318MOL0     N43798   7.086   4.241   5.997  0.6774  0.3501  0.1658
  318MOL0     C43799   6.388   4.187   5.426  0.0855  1.1489 -0.0073
  318MOL0     C43800   6.385   4.304   5.351  0.6450  0.3066 -0.3178
  318MOL0     C43801   6.355   4.690   5.159 -0.4853 -0.3246  0.6544
  318MOL0     C43802   6.228   4.741   5.201  0.2838 -0.4579 -0.0844
  318MOL0     C43803   6.178   4.854   5.138 -0.3330  0.6045 -0.1850
  318MOL0     C43804   6.237   4.921   5.032 -1.0261  0.3647  0.2274
  318MOL0     O43805   6.160   5.013   4.955 -0.7391 -0.5121  0.1685
  318MOL0     C43806   6.237   5.113   4.885 -0.1062  0.5321 -0.3851
  318MOL0     C43807   6.146   5.234   4.869 -0.7232  1.0037 -0.2510
  318MOL0     C43808   6.009   5.198   4.809 -0.5834  0.2921 -0.6463
  318MOL0     C43809   6.001   5.138   4.666  0.7780  0.4855  0.3960
  318MOL0     C43810   6.053   5.246   4.581  0.2123 -0.3198  0.0946
  318MOL0     C43811   6.109   5.316   4.500  0.4221  0.0510  0.1924
  318MOL0     C43812   6.367   4.872   4.996  1.0695 -0.4484 -0.1760
  318MOL0     C43813   6.429   4.770   5.066  0.4221  0.1276 -1.0129
  318MOL0     C43814   6.578   4.744   5.028 -0.8116  0.2521 -0.2459
  318MOL0     H43815   6.304   4.509   5.606 -1.7612 -2.4991  3.0798
  318MOL0     H43816   6.334   4.309   5.730 -0.0777 -1.4590 -0.2797
  318MOL0     H43817   6.358   3.941   5.497 -1.3564  4.1277 -0.4146
  318MOL0     H43818   6.350   3.875   5.656  1.3365  0.2380  0.8207
  318MOL0     H43819   6.562   3.795   5.567  3.4289 -0.2318  0.8461
  318MOL0     H43820   6.618   3.957   5.535  1.9032 -2.5000  1.3782
  318MOL0     H43821   6.615   4.044   5.743 -0.0095 -0.5133  0.7220
  318MOL0     H43822   6.551   3.898   5.818  0.3764  0.2473  0.5595
  318MOL0     H43823   6.784   3.859   5.865  0.3098 -1.3151 -0.1414
  318MOL0     H43824   6.749   3.763   5.724  0.0938  0.6829 -1.0484
  318MOL0     H43825   6.844   3.950   5.574  1.5171 -0.6609  0.4749
  318MOL0     H43826   6.960   3.875   5.682  1.4223  2.8460  0.0825
  318MOL0     H43827   6.835   4.127   5.744  1.4366  0.6847 -0.3101
  318MOL0     H43828   6.954   4.037   5.848  1.7364 -0.8901 -0.1825
  318MOL0     H43829   6.990   4.159   5.574  1.7717 -1.5320 -2.3200
  318MOL0     H43830   7.107   4.055   5.650 -0.1977 -1.0317 -0.3613
  318MOL0     H43831   7.156   4.318   5.697  0.9973  0.1790  0.5234
  318MOL0     H43832   7.006   4.320   5.776  1.3282 -0.4532 -0.1951
  318MOL0     H43833   7.319   4.093   5.811 -2.5372 -2.4782 -0.6684
  318MOL0     H43834   7.363   4.073   6.202 -1.6448 -0.3825 -0.9812
  318MOL0     H43835   7.467   4.136   6.075  0.1996 -0.9495 -4.0407
  318MOL0     H43836   7.340   3.858   6.083  2.3612 -2.1820 -0.6974
  318MOL0     H43837   7.411   3.928   5.935 -2.5247  0.6319 -0.6625
  318MOL0     H43838   7.605   3.968   6.114 -0.1681  0.8760  1.5301
  318MOL0     H43839   7.531   3.842   6.208  4.9748  0.3892 -0.4042
  318MOL0     H43840   7.623   3.791   5.937  0.9213  3.1958  0.9183
  318MOL0     H43841   7.688   3.731   6.071  0.5719  0.3917 -2.3869
  318MOL0     H43842   7.342   3.554   5.851 -0.1707 -0.6178  0.3859
  318MOL0     H43843   7.265   3.258   5.778  1.7916 -2.0324 -0.1977
  318MOL0     H43844   7.372   3.263   5.640 -0.4038 -0.2111 -1.8065
  318MOL0     H43845   7.289   3.411   5.684 -0.4250  0.3655  0.9232
  318MOL0     H43846   7.627   3.119   5.543  0.3631  2.3525  1.9191
  318MOL0     H43847   7.724   2.984   5.366 -1.9038 -1.3063  0.5416
  318MOL0     H43848   7.861   2.635   5.541 -1.6848  1.3653  0.4856
  318MOL0     H43849   7.741   2.660   5.418  0.0870 -0.9971 -2.2879
  318MOL0     H43850   8.019   2.545   5.384 -0.5447  1.1999  0.5264
  318MOL0     H43851   7.880   2.450   5.358  1.0431 -0.2231 -1.2165
  318MOL0     H43852   7.979   2.666   5.174  1.0620  0.4040  1.0227
  318MOL0     H43853   7.816   2.604   5.159 -0.5749 -1.9735 -1.6352
  318MOL0     H43854   7.922   2.370   5.156  1.9844 -2.2661 -2.4785
  318MOL0     H43855   8.074   2.456   5.127 -1.0339 -2.2365  0.5881
  318MOL0     H43856   7.822   2.478   4.978  0.2690  0.1747  3.0263
  318MOL0     H43857   7.957   2.588   4.963 -1.1671  0.8870  2.8703
  318MOL0     H43858   7.973   2.288   4.916  1.0057  0.4759  1.3840
  318MOL0     H43859   8.097   2.413   4.862  0.1343  0.3130  0.4702
  318MOL0     H43860   7.883   2.486   4.698 -1.0205  0.7684  0.4867
  318MOL0     H43861   7.837   2.318   4.729 -4.4644  3.7540  1.0492
  318MOL0     H43862   8.101   2.436   4.641  1.4895 -1.8902  0.4167
  318MOL0     H43863   7.989   2.359   4.529  0.3183 -0.1696  0.6971
  318MOL0     H43864   8.000   2.810   5.631 -0.2408 -1.1642 -3.3820
  318MOL0     H43865   7.902   2.928   5.811  1.3171 -1.7883 -1.0950
  318MOL0     H43866   7.736   3.281   5.959 -3.1253 -4.3251 -0.3457
  318MOL0     H43867   7.711   3.506   6.072 -0.3138 -0.2173  0.3047
  318MOL0     H43868   6.408   4.086   5.392  2.3090  0.3395  3.2035
  318MOL0     H43869   6.390   4.275   5.247 -2.3557 -0.4984 -0.3422
  318MOL0     H43870   6.161   4.688   5.268 -1.0040  0.6827 -0.4293
  318MOL0     H43871   6.076   4.877   5.169 -0.4101  0.6687 -0.4858
  318MOL0     H43872   6.323   5.139   4.947  1.2030 -0.5216 -1.6949
  318MOL0     H43873   6.282   5.074   4.793  1.5830  2.5883 -0.4855
  318MOL0     H43874   6.185   5.316   4.809 -0.0164  2.0540  1.5682
  318MOL0     H43875   6.129   5.281   4.966 -2.1875  0.4745 -0.2202
  318MOL0     H43876   5.946   5.136   4.873 -1.0682  0.5102 -0.9056
  318MOL0     H43877   5.951   5.291   4.810 -2.1895 -0.6388 -1.7006
  318MOL0     H43878   5.899   5.113   4.638  0.6638  0.6646  0.6528
  318MOL0     H43879   6.066   5.049   4.666  1.0847  0.7000 -0.2822
  318MOL0     H43880   6.172   5.377   4.439  0.7184 -0.5279 -0.0873
  318MOL0     H43881   6.426   4.930   4.925  0.5618  2.7248  1.8062
  318MOL0     H43882   6.626   4.812   4.956 -0.4648 -1.2033 -1.4473
  318MOL0     H43883   6.640   4.757   5.117 -0.7256  0.1722 -0.2938
  318MOL0     H43884   6.597   4.643   4.992 -0.9323  0.1914 -0.1411
  319MOL0     O43885   1.073  11.360  11.425  0.2125 -0.0609 -0.1258
  319MOL0     C43886   1.175  11.414  11.454  0.3803 -0.6115  0.3942
  319MOL0     O43887   1.305  11.356  11.458  0.2855  0.0767  0.2047
  319MOL0     C43888   1.301  11.240  11.395 -0.0957 -1.0849  0.3573
  319MOL0     C43889   1.332  11.114  11.457 -0.7392 -0.1975  0.5193
  319MOL0     C43890   1.341  10.994  11.393  0.1694 -0.0786  0.1958
  319MOL0     C43891   1.321  10.987  11.254 -0.2054  1.0599 -0.5006
  319MOL0     O43892   1.346  10.865  11.197  0.4358 -0.8818 -0.5176
  319MOL0     C43893   1.367  10.847  11.053 -1.2226 -0.1260  0.0993
  319MOL0     C43894   1.500  10.908  11.002  0.3081  0.6520 -1.2954
  319MOL0     C43895   1.622  10.837  11.060 -0.1022 -0.4399  0.2272
  319MOL0     C43896   1.753  10.901  10.995  0.6688 -0.0137 -0.5205
  319MOL0     C43897   1.887  10.839  11.040  0.0817  0.2095 -0.1994
  319MOL0     C43898   1.915  10.865  11.196 -0.0046  0.6669 -0.4869
  319MOL0     C43899   2.062  10.815  11.233  0.6321  0.3017  0.2941
  319MOL0     C43900   2.076  10.663  11.211 -0.6340  0.5933 -0.3761
  319MOL0     N43901   1.983  10.584  11.293 -0.1487  0.4083  0.2217
  319MOL0     C43902   1.998  10.563  11.429 -0.3968  0.3990 -0.3051
  319MOL0     C43903   1.917  10.459  11.459 -0.1366  0.0800  0.1115
  319MOL0     C43904   1.902  10.392  11.588 -0.6707  0.0131  0.4743
  319MOL0     C43905   1.968  10.263  11.587  0.7262 -0.4238 -0.0970
  319MOL0     C43906   1.974  10.190  11.726 -0.2690 -0.8541  0.0427
  319MOL0     C43907   1.992  10.040  11.717  0.5671 -1.0147  0.1114
  319MOL0     O43908   1.878   9.976  11.654 -0.4640  0.3889  0.0859
  319MOL0     C43909   1.902   9.848  11.619  0.0372  0.4730  1.6356
  319MOL0     C43910   1.811   9.785  11.521 -0.2527 -0.6156  0.3249
  319MOL0     C43911   1.803   9.651  11.485  0.6633  0.5185 -0.0045
  319MOL0     C43912   1.720   9.620  11.365 -0.4932  0.6704  0.3241
  319MOL0     C43913   1.855   9.563  11.579 -0.7366 -0.4543 -0.0248
  319MOL0     C43914   1.847   9.419  11.580  0.5723  0.6540 -0.2497
  319MOL0     O43915   1.906   9.347  11.678 -0.4205  0.3287  0.0052
  319MOL0     C43916   1.908   9.209  11.678  0.2604  1.6254  0.4388
  319MOL0     C43917   1.795   9.136  11.731  0.0645 -0.2950 -0.0380
  319MOL0     C43918   1.793   8.993  11.725  0.0415 -0.0172 -1.0401
  319MOL0     C43919   1.896   8.919  11.665 -0.1710  0.0961  0.2427
  319MOL0     O43920   1.900   8.783  11.657  0.4591  0.0360 -0.0571
  319MOL0     C43921   1.778   8.702  11.657 -0.1558 -1.4283 -0.9626
  319MOL0     C43922   1.790   8.590  11.555  0.4805  0.2082  0.0997
  319MOL0     C43923   1.915   8.509  11.565  0.0256  0.1041 -0.1961
  319MOL0     C43924   1.920   8.394  11.460 -0.3450 -0.1042  0.2307
  319MOL0     C43925   2.052   8.318  11.459  0.8286 -0.1429 -0.7467
  319MOL0     C43926   2.168   8.390  11.401  0.1124 -0.5424  0.2289
  319MOL0     C43927   2.298   8.312  11.410  0.3098 -0.3744  0.7658
  319MOL0     C43928   2.329   8.278  11.550 -0.0772 -0.5574 -0.0773
  319MOL0    Cl43929   2.496   8.230  11.578 -0.2070 -0.3333 -0.2202
  319MOL0     C43930   1.998   8.992  11.615 -0.1447 -0.4291 -0.8943
  319MOL0     C43931   2.011   9.129  11.627 -0.1049 -0.4149  0.5869
  319MOL0     O43932   1.770   9.370  11.499 -0.4978  0.3211 -0.5819
  319MOL0     C43933   1.932   9.621  11.693 -0.5688  0.0719  0.1314
  319MOL0     C43934   1.958   9.759  11.699  0.3840 -0.0651 -0.5227
  319MOL0     N43935   1.851  10.425  11.336 -0.0576 -0.0541  0.6524
  319MOL0     N43936   1.893  10.493  11.240 -0.0593  0.3822  0.6548
  319MOL0     C43937   1.278  11.107  11.187 -0.2548 -0.1183  1.2976
  319MOL0     C43938   1.274  11.230  11.260 -0.2822 -0.5276  0.6835
  319MOL0     C43939   1.163  11.557  11.497 -0.0616 -0.8264 -0.0648
  319MOL0     C43940   1.043  11.629  11.466  0.8583  0.5365  0.4132
  319MOL0     C43941   1.033  11.762  11.476 -1.2586  0.3540  0.6691
  319MOL0     C43942   1.128  11.840  11.547  0.5203  0.0925  1.0250
  319MOL0     O43943   1.095  11.972  11.566  0.5845 -0.1588  0.4164
  319MOL0     C43944   1.172  12.066  11.633 -0.3016 -0.0532 -1.2648
  319MOL0     C43945   1.158  12.058  11.786  0.0786  0.6951  0.2748
  319MOL0     C43946   1.018  12.074  11.843 -0.8197 -0.0014  0.0337
  319MOL0     C43947   1.024  12.066  11.995 -0.8989  0.3373 -0.3966
  319MOL0     C43948   0.895  12.069  12.062 -0.0852 -1.2131 -0.2567
  319MOL0     C43949   0.787  12.078  12.124 -0.5231 -0.2161 -0.3608
  319MOL0     C43950   1.244  11.769  11.589  0.1595 -0.2168 -0.5344
  319MOL0     C43951   1.271  11.636  11.562 -0.3159  0.1277 -0.1547
  319MOL0     C43952   1.410  11.589  11.599  0.2247  0.9064  0.0091
  319MOL0     H43953   1.356  11.121  11.562  1.8067 -0.5012  0.0220
  319MOL0     H43954   1.360  10.902  11.448 -1.1663 -1.0257 -0.8574
  319MOL0     H43955   1.280  10.883  10.996 -1.8390 -3.6054 -1.4308
  319MOL0     H43956   1.376  10.739  11.035 -0.3984 -0.7810  3.7352
  319MOL0     H43957   1.505  10.896  10.894  2.5632 -0.9163 -1.0860
  319MOL0     H43958   1.499  11.015  11.024 -4.7788  0.2044  2.7940
  319MOL0     H43959   1.622  10.834  11.170 -2.0170 -2.3289  0.2385
  319MOL0     H43960   1.625  10.736  11.020  1.5837 -0.1491 -0.4487
  319MOL0     H43961   1.748  10.890  10.887  1.4416 -0.8213 -0.4888
  319MOL0     H43962   1.748  11.009  11.015  2.9033 -0.0207  0.4065
  319MOL0     H43963   1.969  10.883  10.982  1.4658 -0.0150  1.5057
  319MOL0     H43964   1.889  10.732  11.021 -3.0316 -0.1679  1.1223
  319MOL0     H43965   1.893  10.969  11.223 -0.6044  1.3153 -3.2333
  319MOL0     H43966   1.842  10.814  11.260 -0.2251  0.1613 -1.1317
  319MOL0     H43967   2.088  10.850  11.333 -1.6771  3.5603 -0.0667
  319MOL0     H43968   2.121  10.865  11.155 -0.2735  2.2667  0.7990
  319MOL0     H43969   2.062  10.639  11.105 -2.0051  1.6644 -0.4725
  319MOL0     H43970   2.176  10.632  11.241 -0.6889 -1.4863 -2.0880
  319MOL0     H43971   2.067  10.608  11.501 -0.0581  0.4652 -0.6691
  319MOL0     H43972   1.797  10.366  11.604  0.2835 -2.2064  4.4103
  319MOL0     H43973   1.946  10.443  11.674  0.8290  0.6628 -0.6442
  319MOL0     H43974   1.901  10.202  11.526 -0.8858 -0.0100  1.1910
  319MOL0     H43975   2.066  10.269  11.540  1.9301  1.3834  2.4099
  319MOL0     H43976   2.057  10.230  11.785  0.0380 -2.8225  1.0324
  319MOL0     H43977   1.879  10.206  11.778 -0.1856  3.0076 -0.7103
  319MOL0     H43978   2.083  10.027  11.657  0.6891 -0.1299  0.0975
  319MOL0     H43979   2.011   9.995  11.815  0.2339  0.1159  0.7141
  319MOL0     H43980   1.757   9.857  11.459 -0.9538 -1.2928  0.1314
  319MOL0     H43981   1.699   9.711  11.308 -1.3423  0.8444  0.9020
  319MOL0     H43982   1.623   9.575  11.386  0.2884 -2.4813 -2.0063
  319MOL0     H43983   1.774   9.554  11.296 -0.0423  1.7785 -0.4239
  319MOL0     H43984   1.713   9.191  11.776 -1.1440 -1.5256 -0.6550
  319MOL0     H43985   1.703   8.942  11.756 -0.5620  1.9920  0.6874
  319MOL0     H43986   1.785   8.674  11.763  0.4414  1.1958 -0.2267
  319MOL0     H43987   1.682   8.751  11.641 -0.3188 -1.8509 -1.2843
  319MOL0     H43988   1.708   8.520  11.570 -0.1233  0.6879 -0.8863
  319MOL0     H43989   1.785   8.630  11.454 -1.3234 -0.8788 -0.2854
  319MOL0     H43990   1.909   8.455  11.659  4.4598 -0.3433  0.0334
  319MOL0     H43991   2.004   8.572  11.573 -0.0107  0.6048 -2.7584
  319MOL0     H43992   1.915   8.442  11.362 -0.5942 -2.5429 -1.0069
  319MOL0     H43993   1.830   8.336  11.478 -0.5229  1.0607  3.8907
  319MOL0     H43994   2.077   8.295  11.564  3.5252  0.6260 -1.1310
  319MOL0     H43995   2.038   8.225  11.404 -2.5850 -1.7167  2.3270
  319MOL0     H43996   2.183   8.480  11.461 -1.9748  0.0073 -0.0021
  319MOL0     H43997   2.145   8.424  11.300  2.5668 -0.8612 -0.5243
  319MOL0     H43998   2.373   8.387  11.385  3.6244 -4.4715 -3.5288
  319MOL0     H43999   2.298   8.219  11.352 -1.6022  0.8783 -1.4152
  319MOL0     H44000   2.263   8.193  11.572  1.2773 -1.0085  2.7049
  319MOL0     H44001   2.300   8.365  11.609 -1.4152 -1.1690  0.2166
  319MOL0     H44002   2.081   8.930  11.582  1.0681 -0.4167  1.8821
  319MOL0     H44003   2.100   9.186  11.600 -2.7859  1.8838 -5.1939
  319MOL0     H44004   1.975   9.562  11.774  0.3091 -1.3618 -1.3337
  319MOL0     H44005   2.020   9.791  11.782 -0.0365 -0.6893  0.0407
  319MOL0     H44006   1.244  11.100  11.085 -1.7440 -0.0459  1.7670
  319MOL0     H44007   1.244  11.311  11.194 -0.5583 -0.0757  1.3634
  319MOL0     H44008   0.966  11.585  11.403  0.6299  0.1979  0.9241
  319MOL0     H44009   0.945  11.810  11.435  0.3106 -0.0056 -3.6029
  319MOL0     H44010   1.277  12.064  11.603 -0.3270  2.1897 -1.7263
  319MOL0     H44011   1.136  12.161  11.592 -1.4791 -0.2806 -0.7978
  319MOL0     H44012   1.234  12.127  11.823  2.4276 -0.2789 -2.3279
  319MOL0     H44013   1.196  11.962  11.824 -1.1448  0.2397  0.3765
  319MOL0     H44014   0.972  12.168  11.809  0.4278  0.1282 -1.3927
  319MOL0     H44015   0.958  11.991  11.803  1.7240 -1.8142 -0.2256
  319MOL0     H44016   1.088  12.146  12.033 -1.9284  0.6920  0.6724
  319MOL0     H44017   1.079  11.974  12.012 -0.0855  0.6484 -1.2604
  319MOL0     H44018   0.701  12.080  12.188 -0.2799 -0.6985 -0.0239
  319MOL0     H44019   1.320  11.832  11.634  0.7182  0.7629 -2.7347
  319MOL0     H44020   1.398  11.490  11.643 -1.0231  1.1004  0.1414
  319MOL0     H44021   1.475  11.595  11.512 -1.0410 -1.1423 -1.1381
  319MOL0     H44022   1.456  11.654  11.674 -3.4893  3.9391  0.0069
  320MOL0     O44023  10.327   1.383   3.422 -1.0482  0.0960 -0.2968
  320MOL0     C44024  10.342   1.425   3.309  0.1379  0.1141 -1.0317
  320MOL0     O44025  10.431   1.524   3.271  0.1422 -0.2385 -0.7184
  320MOL0     C44026  10.499   1.582   3.375  0.9626 -0.1011 -0.5765
  320MOL0     C44027  10.607   1.520   3.446  0.0571 -0.4117 -0.2381
  320MOL0     C44028  10.667   1.587   3.553 -0.3023  0.4463  0.2271
  320MOL0     C44029  10.628   1.712   3.592  0.7881  0.2346  0.5225
  320MOL0     O44030  10.675   1.779   3.698 -0.1714  0.0787  0.1421
  320MOL0     C44031  10.806   1.816   3.697  0.0830  0.6571 -0.4328
  320MOL0     C44032  10.836   1.944   3.625  0.4484  0.5100  0.7068
  320MOL0     C44033  10.961   1.928   3.536  0.7052 -0.2498  0.1103
  320MOL0     C44034  10.970   2.067   3.466 -0.0197  0.0281  0.1758
  320MOL0     C44035  11.115   2.092   3.458 -0.9538 -0.2035  0.1543
  320MOL0     C44036  11.161   2.152   3.592 -0.1907 -0.2699  0.4367
  320MOL0     C44037  11.318   2.201   3.586 -0.4959 -0.2080 -0.2288
  320MOL0     C44038  11.353   2.276   3.722 -0.0529 -0.0184 -0.3097
  320MOL0     N44039  11.489   2.335   3.720  0.5865 -0.8773  0.2195
  320MOL0     C44040  11.592   2.273   3.658 -0.3659  0.5434 -0.7164
  320MOL0     C44041  11.703   2.327   3.706 -0.6661 -0.1210  0.5406
  320MOL0     C44042  11.844   2.281   3.672 -0.3258 -0.6797 -0.6013
  320MOL0     C44043  11.896   2.170   3.763 -0.7712  0.7348  0.5619
  320MOL0     C44044  12.044   2.154   3.729  0.2405  0.5832 -0.7804
  320MOL0     C44045  12.114   2.048   3.805  0.5068  0.0807 -0.5581
  320MOL0     O44046  12.066   1.917   3.760  0.2558 -0.3676 -0.5545
  320MOL0     C44047  12.126   1.863   3.654  0.2535 -0.8985 -0.5203
  320MOL0     C44048  12.087   1.723   3.633 -0.3372 -0.0901  0.5193
  320MOL0     C44049  12.145   1.645   3.527  0.7393  0.0684  0.2611
  320MOL0     C44050  12.108   1.497   3.518 -0.1889 -0.5397 -0.3129
  320MOL0     C44051  12.229   1.710   3.437 -0.0664  0.4750 -0.6176
  320MOL0     C44052  12.303   1.634   3.322  0.7291 -0.3304 -0.6543
  320MOL0     O44053  12.389   1.709   3.250 -0.0687 -0.0692  0.2797
  320MOL0     C44054  12.473   1.642   3.172  0.4498 -0.4434 -0.0368
  320MOL0     C44055  12.474   1.655   3.027 -0.5670 -0.5424 -0.3700
  320MOL0     C44056  12.579   1.587   2.960 -0.3246 -0.0365 -0.7601
  320MOL0     C44057  12.686   1.519   3.014 -0.6407 -0.5635  0.2159
  320MOL0     O44058  12.790   1.472   2.934  0.4118  0.8027  0.1226
  320MOL0     C44059  12.875   1.385   3.007  1.0078  0.0237  0.3104
  320MOL0     C44060  12.972   1.316   2.920  0.9635 -0.2009  0.5329
  320MOL0     C44061  13.010   1.370   2.782 -0.5344 -0.5061 -0.4210
  320MOL0     C44062  13.058   1.507   2.769  0.1957 -0.4217  0.0732
  320MOL0     C44063  13.150   1.539   2.650  0.5671 -0.4420  0.2774
  320MOL0     C44064  13.060   1.557   2.528  0.0154  0.3348 -0.6883
  320MOL0     C44065  13.049   1.434   2.438 -0.5337  0.7509 -0.2656
  320MOL0     C44066  13.187   1.409   2.378 -0.2248 -0.1349  0.0957
  320MOL0    Cl44067  13.183   1.254   2.284 -0.0714 -0.3550 -0.0183
  320MOL0     C44068  12.680   1.514   3.155  0.6716 -1.1448  0.2195
  320MOL0     C44069  12.571   1.571   3.228 -0.7689 -0.7905 -0.5577
  320MOL0     O44070  12.286   1.513   3.310  0.3437  0.4138  0.6649
  320MOL0     C44071  12.264   1.849   3.456  1.1219  0.4382 -0.4927
  320MOL0     C44072  12.211   1.922   3.561  0.3644 -0.8963 -0.1764
  320MOL0     N44073  11.671   2.408   3.804 -0.4221 -0.2057  0.2474
  320MOL0     N44074  11.539   2.413   3.812 -0.1176 -0.9824 -0.1915
  320MOL0     C44075  10.521   1.777   3.523  0.6239 -0.1410 -0.9384
  320MOL0     C44076  10.463   1.712   3.412 -0.2571 -0.7103  0.1558
  320MOL0     C44077  10.282   1.345   3.191  0.4217  0.6263  1.7012
  320MOL0     C44078  10.277   1.401   3.060  0.1222  0.7758 -0.2077
  320MOL0     C44079  10.224   1.343   2.947  0.4295  0.6504 -0.7367
  320MOL0     C44080  10.165   1.219   2.963  0.7394 -0.9686 -0.8180
  320MOL0     O44081  10.108   1.151   2.858 -0.7114 -1.3704 -1.0046
  320MOL0     C44082  10.176   1.034   2.819  0.7217  0.1363  0.4941
  320MOL0     C44083  10.303   1.066   2.741  0.0730  0.1646  0.0423
  320MOL0     C44084  10.276   1.178   2.634  0.2447  0.4407  0.1370
  320MOL0     C44085  10.347   1.168   2.496  0.2124  0.1254  0.3406
  320MOL0     C44086  10.487   1.129   2.523  0.7756 -0.5610  0.3108
  320MOL0     C44087  10.601   1.105   2.560 -0.3667  0.6548 -0.0801
  320MOL0     C44088  10.156   1.158   3.092 -0.6278  0.9150 -0.2682
  320MOL0     C44089  10.223   1.217   3.205  0.3898  1.5048  0.7565
  320MOL0     C44090  10.230   1.121   3.325 -0.2924 -0.6254 -0.5577
  320MOL0     H44091  10.637   1.423   3.408  1.7132  0.2649 -0.7483
  320MOL0     H44092  10.747   1.542   3.611  0.0675  0.4735 -0.2564
  320MOL0     H44093  10.874   1.743   3.651 -0.9625 -0.7112  0.1285
  320MOL0     H44094  10.834   1.818   3.803  0.4763 -0.2953 -0.5043
  320MOL0     H44095  10.754   1.980   3.563 -0.6764  0.0222  1.8757
  320MOL0     H44096  10.863   2.019   3.699  1.1540 -1.2036  2.2775
  320MOL0     H44097  11.051   1.880   3.575 -0.4883 -0.2021  3.1755
  320MOL0     H44098  10.934   1.857   3.457  3.7058  0.3066 -1.5808
  320MOL0     H44099  10.920   2.053   3.369 -2.0744  0.4023  1.1432
  320MOL0     H44100  10.931   2.153   3.520  2.0840  0.3429  1.3066
  320MOL0     H44101  11.121   2.161   3.373 -0.4655 -1.1756 -0.6100
  320MOL0     H44102  11.186   2.017   3.423 -2.1248  0.3167 -3.7853
  320MOL0     H44103  11.097   2.236   3.621 -4.5724 -3.2793  0.4056
  320MOL0     H44104  11.147   2.069   3.662 -0.6151 -2.4051 -2.0299
  320MOL0     H44105  11.329   2.275   3.506 -0.3191  1.4899  1.2879
  320MOL0     H44106  11.386   2.117   3.571 -0.9503 -0.5771 -0.2309
  320MOL0     H44107  11.288   2.362   3.737 -0.8955 -0.7223  0.1747
  320MOL0     H44108  11.343   2.201   3.802  1.2196 -0.6047 -0.6616
  320MOL0     H44109  11.593   2.202   3.575  0.7465 -1.5219  0.9853
  320MOL0     H44110  11.911   2.367   3.678 -2.6510  1.8216 -5.1315
  320MOL0     H44111  11.839   2.236   3.573  0.9266  1.5737 -1.7753
  320MOL0     H44112  11.876   2.200   3.866 -2.7914  3.1506 -0.4260
  320MOL0     H44113  11.830   2.084   3.750 -0.4977  0.4131  1.2440
  320MOL0     H44114  12.044   2.109   3.630  1.7323 -0.1778 -0.4590
  320MOL0     H44115  12.098   2.250   3.728  1.0836  0.1514 -3.4835
  320MOL0     H44116  12.222   2.060   3.794  0.3611  1.0923 -0.9957
  320MOL0     H44117  12.101   2.048   3.914  2.0687 -0.0254 -0.3495
  320MOL0     H44118  12.016   1.683   3.704  0.4569 -1.9097  0.3448
  320MOL0     H44119  12.202   1.443   3.537  1.8159  2.9227  0.5634
  320MOL0     H44120  12.088   1.479   3.412  1.5467  1.8854 -1.1493
  320MOL0     H44121  12.032   1.463   3.589  0.7438 -0.7312  0.6145
  320MOL0     H44122  12.395   1.707   2.975 -0.8369  1.0913  1.5449
  320MOL0     H44123  12.568   1.596   2.853 -1.7198  4.0283 -0.4365
  320MOL0     H44124  12.931   1.448   3.076 -0.1033 -0.0020  1.2626
  320MOL0     H44125  12.813   1.311   3.058  1.7900  0.3420  1.7741
  320MOL0     H44126  13.057   1.306   2.988 -0.9030 -2.6978  2.6511
  320MOL0     H44127  12.939   1.212   2.912 -0.9255  0.3482  0.7254
  320MOL0     H44128  12.916   1.358   2.729 -0.7804  0.1673 -0.1389
  320MOL0     H44129  13.088   1.301   2.748  2.1812  1.5103  1.2243
  320MOL0     H44130  13.111   1.518   2.865 -1.0068 -1.9884  0.9574
  320MOL0     H44131  12.979   1.582   2.771 -0.8082 -1.4116  2.9566
  320MOL0     H44132  13.190   1.638   2.671 -0.3599  0.2402 -1.0446
  320MOL0     H44133  13.238   1.474   2.641  2.2485  1.8999 -1.4935
  320MOL0     H44134  13.117   1.637   2.480  1.4556  0.0414  0.4652
  320MOL0     H44135  12.956   1.589   2.545 -0.1108 -0.7455  0.7747
  320MOL0     H44136  12.978   1.441   2.355 -0.8442 -1.9583 -0.3248
  320MOL0     H44137  13.016   1.349   2.497  0.6483  0.6113  0.2081
  320MOL0     H44138  13.266   1.398   2.454  0.3444  0.1110 -0.4525
  320MOL0     H44139  13.222   1.492   2.316  1.2672  1.6061  3.0110
  320MOL0     H44140  12.750   1.463   3.220  1.7175  3.3202  3.0427
  320MOL0     H44141  12.580   1.555   3.336 -0.3789 -1.2734 -0.6558
  320MOL0     H44142  12.332   1.903   3.391 -0.0193  0.0561 -2.0909
  320MOL0     H44143  12.249   2.024   3.564  0.6799 -1.0449  1.8580
  320MOL0     H44144  10.477   1.869   3.559 -0.5647 -0.6575 -1.0145
  320MOL0     H44145  10.371   1.749   3.368 -0.7697 -0.5875  1.2827
  320MOL0     H44146  10.326   1.496   3.043 -0.0081  1.0488  0.8580
  320MOL0     H44147  10.222   1.393   2.851 -0.5498  0.5595 -0.7761
  320MOL0     H44148  10.204   0.961   2.895 -1.9222  0.2861  1.7351
  320MOL0     H44149  10.117   0.981   2.743  0.5262  0.7392  0.2161
  320MOL0     H44150  10.334   0.974   2.691 -0.8770 -0.7903  1.1362
  320MOL0     H44151  10.386   1.103   2.802  1.5890 -0.7587 -1.3865
  320MOL0     H44152  10.172   1.186   2.602  0.5319  3.0608 -0.3492
  320MOL0     H44153  10.295   1.279   2.671  0.4059  1.4553 -2.4657
  320MOL0     H44154  10.347   1.260   2.438  0.3567  0.2299  0.5031
  320MOL0     H44155  10.316   1.082   2.436  3.3405 -0.0378 -1.2213
  320MOL0     H44156  10.704   1.105   2.590 -0.0260  4.5889 -0.7592
  320MOL0     H44157  10.108   1.060   3.096 -0.7256  0.7143 -3.6385
  320MOL0     H44158  10.167   1.032   3.314 -2.6434  0.8102  0.5963
  320MOL0     H44159  10.332   1.082   3.338  1.1299  0.4288 -5.9963
  320MOL0     H44160  10.208   1.172   3.419 -2.0733  1.3587 -1.9638
  321MOL0     O44161   9.776  11.004   9.590  0.2708 -0.4799  0.0158
  321MOL0     C44162   9.699  10.908   9.603 -0.0594 -0.5077  0.3744
  321MOL0     O44163   9.561  10.919   9.621  0.0207 -0.7625 -0.2316
  321MOL0     C44164   9.502  11.039   9.596  0.4293 -0.6126  0.1545
  321MOL0     C44165   9.398  11.066   9.694  0.8259  0.5210 -0.2528
  321MOL0     C44166   9.329  11.190   9.691  0.5284  0.2722  0.4098
  321MOL0     C44167   9.370  11.289   9.593  0.3632  0.6672  0.4872
  321MOL0     O44168   9.308  11.406   9.589 -0.3169 -0.1713  0.6860
  321MOL0     C44169   9.327  11.483   9.706 -0.1728  0.1209 -0.7695
  321MOL0     C44170   9.286  11.625   9.674  0.2728  1.0395  0.1689
  321MOL0     C44171   9.149  11.642   9.594  0.4569  0.0526 -0.2328
  321MOL0     C44172   9.044  11.718   9.675  0.7293 -0.0796 -0.7808
  321MOL0     C44173   8.898  11.714   9.616 -0.3686 -0.2264 -0.1058
  321MOL0     C44174   8.796  11.802   9.681  0.2554  0.4431  0.9006
  321MOL0     C44175   8.666  11.797   9.602  0.4446 -0.4298 -0.1322
  321MOL0     C44176   8.558  11.833   9.702 -0.1014 -0.3273  0.0435
  321MOL0     N44177   8.430  11.829   9.633 -0.4299  1.0245 -1.1130
  321MOL0     C44178   8.345  11.722   9.623 -0.4043  0.3431  0.2219
  321MOL0     C44179   8.244  11.770   9.543 -0.5106 -0.5823  0.5455
  321MOL0     C44180   8.133  11.687   9.491 -0.1326 -0.1358 -0.3255
  321MOL0     C44181   8.043  11.768   9.399  0.0697  0.0378 -0.0703
  321MOL0     C44182   8.103  11.782   9.253  0.6496  0.0992  0.0774
  321MOL0     C44183   7.996  11.823   9.149 -0.0236 -0.4770  0.4295
  321MOL0     O44184   7.898  11.717   9.143  0.0161  0.9804  0.4351
  321MOL0     C44185   7.897  11.650   9.024 -0.1398 -0.2821  0.1301
  321MOL0     C44186   8.012  11.612   8.944 -0.2234 -0.2328  0.3024
  321MOL0     C44187   8.006  11.568   8.815 -0.1810  0.5594 -0.7010
  321MOL0     C44188   8.139  11.540   8.752  0.1452  0.3268  0.7811
  321MOL0     C44189   7.879  11.528   8.770 -0.4857  0.5772 -0.1159
  321MOL0     C44190   7.861  11.457   8.644 -0.5642  0.9053  0.1433
  321MOL0     O44191   7.736  11.412   8.615  0.0562  0.5810 -0.2663
  321MOL0     C44192   7.710  11.360   8.491  0.1065 -0.4061  0.0632
  321MOL0     C44193   7.712  11.215   8.475  0.0035 -0.2506  0.0558
  321MOL0     C44194   7.668  11.174   8.357  0.2954  0.2346  1.2606
  321MOL0     C44195   7.625  11.263   8.251  0.0086 -0.5258 -0.0275
  321MOL0     O44196   7.569  11.212   8.131  0.0422  0.9863 -0.7713
  321MOL0     C44197   7.441  11.263   8.082  0.3686  0.1685 -0.5149
  321MOL0     C44198   7.455  11.328   7.950  0.3694  0.8148 -0.3391
  321MOL0     C44199   7.479  11.233   7.840  0.7881 -0.4595 -0.6910
  321MOL0     C44200   7.456  11.302   7.703 -0.6757  0.0051 -0.4241
  321MOL0     C44201   7.462  11.199   7.591 -0.5107 -0.1720  0.8817
  321MOL0     C44202   7.490  11.237   7.447 -0.8163  0.4379  0.6902
  321MOL0     C44203   7.418  11.363   7.386 -0.3389  0.6019 -0.2374
  321MOL0     C44204   7.474  11.391   7.246 -0.0729 -0.6138 -1.1429
  321MOL0    Cl44205   7.463  11.558   7.210 -0.1939 -0.1102  0.3859
  321MOL0     C44206   7.634  11.392   8.267 -0.3396  0.7087  0.7203
  321MOL0     C44207   7.684  11.445   8.382 -0.7575  0.5386  0.9167
  321MOL0     O44208   7.958  11.436   8.564  0.1358  0.1561 -1.1006
  321MOL0     C44209   7.762  11.543   8.843  0.3364  0.8035 -0.4732
  321MOL0     C44210   7.777  11.600   8.968  0.1012  0.0077  0.3086
  321MOL0     N44211   8.272  11.906   9.512  0.6447 -0.0865 -1.0108
  321MOL0     N44212   8.387  11.932   9.559 -0.6119  0.4988 -0.2076
  321MOL0     C44213   9.473  11.262   9.508  0.0981 -0.5972  1.2523
  321MOL0     C44214   9.539  11.140   9.508  0.3997  0.0174  0.1049
  321MOL0     C44215   9.768  10.770   9.598 -0.5012  0.2966  0.7684
  321MOL0     C44216   9.911  10.768   9.638 -0.9479  0.4487  0.3283
  321MOL0     C44217   9.986  10.655   9.608 -0.7326 -0.0410 -0.3096
  321MOL0     C44218   9.924  10.543   9.564 -0.3736 -0.2173 -1.0588
  321MOL0     O44219   9.989  10.430   9.518  0.0281 -0.3517  0.9267
  321MOL0     C44220  10.113  10.458   9.458 -0.6306  0.2671 -0.0289
  321MOL0     C44221  10.145  10.356   9.345 -0.6089  0.4877  0.1920
  321MOL0     C44222  10.067  10.375   9.217  0.9338  0.2500 -0.4782
  321MOL0     C44223  10.083  10.493   9.131 -0.3688 -0.0893  0.6781
  321MOL0     C44224  10.214  10.482   9.059  0.0460  0.0255 -0.3641
  321MOL0     C44225  10.319  10.450   9.001  0.6902 -0.9935 -0.6443
  321MOL0     C44226   9.788  10.534   9.544 -0.5063  0.3401 -0.1150
  321MOL0     C44227   9.703  10.645   9.550 -0.7089 -0.8875 -0.4469
  321MOL0     C44228   9.556  10.629   9.499 -0.0692 -0.3851  0.5304
  321MOL0     H44229   9.344  10.999   9.760  0.5389  0.6873 -0.3209
  321MOL0     H44230   9.252  11.212   9.764  2.0124  1.9734  1.5512
  321MOL0     H44231   9.424  11.480   9.758 -0.1822  0.7203 -0.7099
  321MOL0     H44232   9.251  11.454   9.779 -0.5802  1.9263 -0.4095
  321MOL0     H44233   9.286  11.675   9.771  0.8740  2.6983 -0.6480
  321MOL0     H44234   9.366  11.668   9.613  0.6082 -1.8627 -1.6432
  321MOL0     H44235   9.168  11.701   9.503 -1.0825 -0.4680 -0.9291
  321MOL0     H44236   9.108  11.547   9.560 -1.9073  0.5064  1.1480
  321MOL0     H44237   9.038  11.676   9.776 -0.3979 -1.6415 -1.4494
  321MOL0     H44238   9.064  11.824   9.694 -1.7060  0.5253 -1.2052
  321MOL0     H44239   8.863  11.611   9.626 -2.1790  0.3763  0.2251
  321MOL0     H44240   8.900  11.742   9.510 -1.2767 -1.1066 -0.3774
  321MOL0     H44241   8.786  11.752   9.778  1.2572  1.6544  1.6627
  321MOL0     H44242   8.814  11.907   9.708 -1.3187  0.1048  3.7276
  321MOL0     H44243   8.651  11.693   9.571  2.6854 -2.1212  3.6421
  321MOL0     H44244   8.666  11.875   9.526 -1.1014  0.5833  0.8310
  321MOL0     H44245   8.551  11.759   9.783  0.5862 -0.6760 -0.2049
  321MOL0     H44246   8.561  11.932   9.748 -1.1632 -0.1011 -0.3370
  321MOL0     H44247   8.359  11.621   9.662  0.7353  0.1002 -0.7490
  321MOL0     H44248   8.070  11.644   9.570  0.2847 -0.2280 -0.0421
  321MOL0     H44249   8.178  11.601   9.440 -1.5613 -1.0080 -0.1660
  321MOL0     H44250   7.946  11.718   9.398  0.2277 -0.3569 -2.3754
  321MOL0     H44251   8.040  11.866   9.448  2.4244  0.2255 -0.1846
  321MOL0     H44252   8.182  11.857   9.258  0.8571 -0.1007 -0.2151
  321MOL0     H44253   8.154  11.690   9.224  1.6825  0.6854  0.0166
  321MOL0     H44254   7.945  11.916   9.178 -3.1783 -1.4220 -1.5468
  321MOL0     H44255   8.052  11.834   9.056  1.2360 -0.2366  1.1896
  321MOL0     H44256   8.103  11.625   9.001 -0.6794  0.6883  0.8508
  321MOL0     H44257   8.216  11.578   8.820  0.3932  1.9005 -0.3380
  321MOL0     H44258   8.141  11.589   8.654 -0.2904 -1.3080 -0.0859
  321MOL0     H44259   8.147  11.432   8.737 -0.3780  0.2007  1.3519
  321MOL0     H44260   7.723  11.147   8.559 -1.4272 -1.2993 -0.5502
  321MOL0     H44261   7.649  11.070   8.331 -1.0583  1.2306 -2.3536
  321MOL0     H44262   7.367  11.183   8.069 -0.0797  0.3343  0.7902
  321MOL0     H44263   7.401  11.328   8.160  1.3755  0.0792  0.0957
  321MOL0     H44264   7.367  11.390   7.931  0.2885 -0.3159 -4.4476
  321MOL0     H44265   7.536  11.402   7.952  1.2525 -0.0745 -1.4784
  321MOL0     H44266   7.411  11.147   7.843 -1.0466  0.9187 -0.8546
  321MOL0     H44267   7.581  11.197   7.855  0.9244  0.8818  2.4314
  321MOL0     H44268   7.541  11.367   7.681 -1.1628  0.4364 -1.0518
  321MOL0     H44269   7.359  11.353   7.698 -1.2430 -1.1468 -2.1474
  321MOL0     H44270   7.540  11.127   7.617  1.5504  1.8668  0.6425
  321MOL0     H44271   7.363  11.152   7.594  0.5257 -2.7731 -1.0212
  321MOL0     H44272   7.468  11.154   7.379  0.9097  0.6198 -0.1338
  321MOL0     H44273   7.597  11.257   7.438 -1.1955  1.4222 -3.6766
  321MOL0     H44274   7.432  11.441   7.461 -0.9926  1.2108 -0.7281
  321MOL0     H44275   7.311  11.339   7.387 -0.1563 -0.2452 -0.2096
  321MOL0     H44276   7.429  11.338   7.161 -0.7698  0.6261 -1.5577
  321MOL0     H44277   7.577  11.356   7.233  0.6528  0.7582  0.5877
  321MOL0     H44278   7.607  11.454   8.181  1.0046  3.3715  2.0890
  321MOL0     H44279   7.680  11.553   8.392  1.6054  0.8926 -1.1058
  321MOL0     H44280   7.665  11.528   8.797  0.7312  1.8861 -1.7255
  321MOL0     H44281   7.681  11.607   9.018 -0.1975 -1.0729 -0.0853
  321MOL0     H44282   9.502  11.341   9.440 -1.0579 -1.5289 -0.3976
  321MOL0     H44283   9.623  11.129   9.440 -1.0986  1.1778 -2.0860
  321MOL0     H44284   9.962  10.855   9.676  0.7795 -1.7314  3.5225
  321MOL0     H44285  10.093  10.675   9.613 -0.7090  0.4258 -2.0186
  321MOL0     H44286  10.122  10.556   9.409  0.2712  0.8204  1.1753
  321MOL0     H44287  10.189  10.445   9.535 -0.2016 -1.9410 -0.7555
  321MOL0     H44288  10.118  10.254   9.372 -0.6206 -0.1991 -2.1391
  321MOL0     H44289  10.250  10.360   9.314 -1.1375 -2.6467 -2.6802
  321MOL0     H44290  10.081  10.287   9.153  5.1370 -0.1403  0.6977
  321MOL0     H44291   9.962  10.353   9.240  1.5606 -1.4224  1.1149
  321MOL0     H44292  10.088  10.586   9.190  1.2544  0.3721 -0.1229
  321MOL0     H44293  10.001  10.498   9.059 -1.5213 -0.1360  1.9356
  321MOL0     H44294  10.406  10.433   8.941  1.2531  1.4067 -0.6139
  321MOL0     H44295   9.742  10.442   9.508  1.8969 -0.7898 -0.4992
  321MOL0     H44296   9.526  10.528   9.469 -3.0103  0.7532 -0.6624
  321MOL0     H44297   9.498  10.644   9.590 -2.4465 -3.4320 -0.3187
  321MOL0     H44298   9.523  10.701   9.423  2.4135  0.5704  0.2478
  322MOL0     O44299   4.786   4.947   0.744  0.1113  0.3682 -0.2888
  322MOL0     C44300   4.851   4.851   0.793  0.1291  0.0944  0.4467
  322MOL0     O44301   4.953   4.780   0.734  0.3040  0.1467  0.0812
  322MOL0     C44302   4.974   4.815   0.601  0.6172 -0.1155  0.1767
  322MOL0     C44303   4.965   4.716   0.504 -0.8351 -0.7685 -0.6215
  322MOL0     C44304   5.016   4.747   0.375  0.6172 -0.6917 -1.1952
  322MOL0     C44305   5.061   4.877   0.340  0.1188  0.1167  0.2832
  322MOL0     O44306   5.106   4.904   0.219  0.2232  0.2747 -0.5322
  322MOL0     C44307   5.126   4.811   0.115 -0.7185  0.6475 -0.0819
  322MOL0     C44308   5.187   4.877  -0.003  0.0383  0.5011 -0.4747
  322MOL0     C44309   5.097   4.973  -0.083 -0.3734 -0.1609  0.1526
  322MOL0     C44310   5.195   5.045  -0.170 -0.3772  0.4459  0.2597
  322MOL0     C44311   5.121   5.148  -0.258 -0.1595  0.6179  0.5816
  322MOL0     C44312   5.058   5.272  -0.180 -0.8259  0.4995  0.2518
  322MOL0     C44313   5.008   5.368  -0.291 -0.4802  0.1887 -0.1760
  322MOL0     C44314   4.925   5.479  -0.225  0.7517 -0.5470  0.2422
  322MOL0     N44315   4.880   5.584  -0.327  0.2567  0.4700 -0.3506
  322MOL0     C44316   4.961   5.644  -0.417 -0.1158 -0.7564  0.0033
  322MOL0     C44317   4.885   5.742  -0.479 -0.7275 -0.0156 -0.6315
  322MOL0     C44318   4.946   5.849  -0.569 -0.2261  0.7145 -0.2182
  322MOL0     C44319   5.051   5.929  -0.493  0.6764  0.1236  0.1157
  322MOL0     C44320   5.000   5.997  -0.373 -0.2745 -0.7144 -0.1682
  322MOL0     C44321   5.106   5.998  -0.259 -0.1473  0.2835  0.6457
  322MOL0     O44322   5.063   6.056  -0.144  0.5074 -0.9751 -0.4356
  322MOL0     C44323   4.948   6.010  -0.088 -0.0569 -0.1907  0.2551
  322MOL0     C44324   4.900   5.878  -0.079 -0.2528 -0.4337 -0.0581
  322MOL0     C44325   4.794   5.841   0.003  0.3702 -0.5701 -0.0298
  322MOL0     C44326   4.750   5.701   0.009 -0.5259 -0.3800 -0.4871
  322MOL0     C44327   4.728   5.936   0.079  0.0021 -0.1127 -0.0715
  322MOL0     C44328   4.615   5.910   0.175  0.4503  0.4974 -0.4560
  322MOL0     O44329   4.625   5.790   0.249 -0.0823 -0.6820 -0.1091
  322MOL0     C44330   4.526   5.728   0.317  0.3384  0.0726  0.0629
  322MOL0     C44331   4.567   5.603   0.366  0.0973  1.0485  0.4691
  322MOL0     C44332   4.483   5.509   0.445 -0.1824  0.2429  0.9166
  322MOL0     C44333   4.354   5.554   0.471 -0.1460  0.6500  0.0177
  322MOL0     O44334   4.270   5.470   0.544  0.4973 -0.3953  0.2225
  322MOL0     C44335   4.289   5.334   0.555  0.9971  1.0429  0.6137
  322MOL0     C44336   4.161   5.264   0.581 -0.5037 -0.3895 -0.3101
  322MOL0     C44337   4.138   5.245   0.730  0.1652  0.2591  0.3177
  322MOL0     C44338   3.998   5.199   0.751 -0.0347  0.1714 -0.3659
  322MOL0     C44339   3.976   5.175   0.902 -0.3807  0.0521 -0.0567
  322MOL0     C44340   3.828   5.142   0.923  0.8803 -0.7038  0.9528
  322MOL0     C44341   3.798   5.088   1.063  0.0725  0.1626 -0.9719
  322MOL0     C44342   3.687   4.983   1.062 -0.3882 -0.4269  0.4042
  322MOL0    Cl44343   3.754   4.834   0.995  0.4275  0.1734 -0.4590
  322MOL0     C44344   4.309   5.682   0.415 -0.1633 -0.2354  0.2375
  322MOL0     C44345   4.389   5.770   0.347 -0.2031  1.6100 -0.0921
  322MOL0     O44346   4.538   5.996   0.209 -0.3969  1.0248  0.5715
  322MOL0     C44347   4.766   6.070   0.056  0.1200 -0.9545  1.3792
  322MOL0     C44348   4.873   6.105  -0.024  0.9152  0.4702  0.8708
  322MOL0     N44349   4.756   5.732  -0.435 -0.3815 -0.0029 -0.1419
  322MOL0     N44350   4.757   5.632  -0.342  0.5147  0.2125  0.8995
  322MOL0     C44351   5.050   4.978   0.435  0.3001  0.2683 -0.7701
  322MOL0     C44352   5.015   4.946   0.568  0.2418  0.2329 -0.6629
  322MOL0     C44353   4.814   4.806   0.934 -0.2313 -0.5973 -0.0722
  322MOL0     C44354   4.860   4.672   0.968 -0.8071 -0.9087  0.0096
  322MOL0     C44355   4.821   4.623   1.086  0.2784 -0.6647 -1.0191
  322MOL0     C44356   4.723   4.690   1.163 -0.1646  0.1329 -1.0156
  322MOL0     O44357   4.702   4.624   1.288 -0.2915 -0.2358  0.0692
  322MOL0     C44358   4.583   4.661   1.357 -1.1220 -0.7646 -0.7877
  322MOL0     C44359   4.516   4.536   1.407 -0.4027  0.1550 -0.5504
  322MOL0     C44360   4.612   4.445   1.494  0.5302 -0.5345 -0.0493
  322MOL0     C44361   4.528   4.365   1.596 -0.4269 -0.0737 -0.2411
  322MOL0     C44362   4.446   4.263   1.536  0.3630  0.2162 -0.1325
  322MOL0     C44363   4.366   4.197   1.484 -0.0409  0.4419 -0.0398
  322MOL0     C44364   4.673   4.810   1.127  0.6913 -1.1168  0.5587
  322MOL0     C44365   4.731   4.880   1.018 -0.7610  0.0419 -0.1011
  322MOL0     C44366   4.678   5.014   0.986  0.1924 -0.5364 -0.3063
  322MOL0     H44367   4.927   4.617   0.527 -2.5617 -0.7893 -3.1743
  322MOL0     H44368   5.023   4.672   0.297  2.9220 -1.1295 -0.6323
  322MOL0     H44369   5.037   4.759   0.079 -1.0080  1.1983 -0.1782
  322MOL0     H44370   5.204   4.738   0.136  1.8203  2.3224 -2.7943
  322MOL0     H44371   5.280   4.923   0.031 -0.8179  2.9133 -1.1444
  322MOL0     H44372   5.198   4.794  -0.073  0.5790  0.9927 -0.9842
  322MOL0     H44373   5.017   4.924  -0.140 -1.8905  1.4531  0.8108
  322MOL0     H44374   5.060   5.047  -0.012 -0.4238 -0.7610  0.7490
  322MOL0     H44375   5.264   5.103  -0.108  0.8453  2.2897 -2.5880
  322MOL0     H44376   5.257   4.979  -0.232  2.6568  3.0581  0.2178
  322MOL0     H44377   5.045   5.098  -0.320  1.0603  2.5075 -2.6834
  322MOL0     H44378   5.197   5.192  -0.324 -1.0392 -0.4872 -1.2677
  322MOL0     H44379   4.977   5.230  -0.119  0.2553 -2.6942 -0.3147
  322MOL0     H44380   5.127   5.321  -0.111 -1.3465 -0.2905  1.3655
  322MOL0     H44381   4.939   5.309  -0.352  0.1423 -0.3218 -0.3862
  322MOL0     H44382   5.088   5.408  -0.353  0.8532 -2.4105 -0.2356
  322MOL0     H44383   4.832   5.438  -0.185  1.0913  0.8306  2.7108
  322MOL0     H44384   4.980   5.522  -0.141  0.1756  1.5028 -0.3673
  322MOL0     H44385   5.068   5.625  -0.417  0.0060 -0.1440 -1.3174
  322MOL0     H44386   4.868   5.915  -0.607 -0.7105  1.9034  2.5837
  322MOL0     H44387   4.992   5.800  -0.655 -2.1780  0.1356 -0.9816
  322MOL0     H44388   5.126   5.854  -0.465 -0.9314 -1.1227  1.3599
  322MOL0     H44389   5.092   6.000  -0.564 -0.8325  0.4200 -0.5035
  322MOL0     H44390   4.975   6.097  -0.409 -0.3739 -0.8643 -0.5188
  322MOL0     H44391   4.905   5.965  -0.329  0.8512 -0.6031  2.5786
  322MOL0     H44392   5.134   5.895  -0.235 -1.5873 -0.3016 -0.0468
  322MOL0     H44393   5.184   6.062  -0.300 -1.1919  1.0715 -0.1766
  322MOL0     H44394   4.965   5.809  -0.132  1.0544  2.6197 -2.7408
  322MOL0     H44395   4.795   5.668   0.102  1.1754  1.4862 -0.5849
  322MOL0     H44396   4.783   5.638  -0.075  0.2382  0.3871 -0.7719
  322MOL0     H44397   4.641   5.689   0.015 -0.4743 -0.1001  3.0173
  322MOL0     H44398   4.668   5.573   0.338 -0.5037  0.4771 -1.2016
  322MOL0     H44399   4.523   5.411   0.465  1.1111  0.2693 -1.1722
  322MOL0     H44400   4.334   5.286   0.467  0.4780  1.4086  0.1463
  322MOL0     H44401   4.359   5.309   0.636 -0.2358 -1.0359  1.1129
  322MOL0     H44402   4.077   5.330   0.559 -0.9077 -0.0746  1.8933
  322MOL0     H44403   4.148   5.163   0.541  0.9350 -1.6841  2.1789
  322MOL0     H44404   4.155   5.337   0.786  1.9194  0.7791 -0.9749
  322MOL0     H44405   4.206   5.170   0.772 -0.1772  0.3295  1.0131
  322MOL0     H44406   3.968   5.111   0.693 -1.1116  0.1620  0.1590
  322MOL0     H44407   3.934   5.278   0.712  2.1556  1.5338 -1.3512
  322MOL0     H44408   4.052   5.105   0.937  1.7355  0.3744 -3.5146
  322MOL0     H44409   3.993   5.260   0.969 -1.2062  0.6506 -0.5903
  322MOL0     H44410   3.799   5.082   0.836  0.5643  0.3276  0.3268
  322MOL0     H44411   3.768   5.233   0.913  1.5307 -0.0094  2.9630
  322MOL0     H44412   3.780   5.174   1.129 -0.5418 -2.0297  1.9265
  322MOL0     H44413   3.882   5.038   1.112 -2.7700 -4.0864  0.0675
  322MOL0     H44414   3.606   5.026   1.003 -0.0311 -0.6097 -0.2334
  322MOL0     H44415   3.644   4.986   1.162  0.5026 -3.4363  0.9968
  322MOL0     H44416   4.207   5.720   0.419  0.1601  1.1231 -2.3200
  322MOL0     H44417   4.352   5.870   0.324  0.4085  1.9444  0.3494
  322MOL0     H44418   4.719   6.150   0.113  1.0789  1.2245 -0.6918
  322MOL0     H44419   4.907   6.206  -0.045 -0.1013  0.5490 -0.5292
  322MOL0     H44420   5.066   5.081   0.405  2.2120  0.3643  0.4219
  322MOL0     H44421   5.011   5.024   0.644 -3.4624 -0.5021  0.0674
  322MOL0     H44422   4.923   4.611   0.904 -0.8478  0.4936 -1.4216
  322MOL0     H44423   4.877   4.541   1.130  3.8214  1.8298 -0.4424
  322MOL0     H44424   4.605   4.729   1.440 -3.2556 -1.0141  0.0430
  322MOL0     H44425   4.509   4.704   1.290  0.5909 -0.0115 -2.2856
  322MOL0     H44426   4.502   4.478   1.315 -0.5449 -1.4230  0.4375
  322MOL0     H44427   4.418   4.566   1.445 -0.4132  1.7843 -1.7435
  322MOL0     H44428   4.667   4.377   1.429  1.4650 -0.6149  0.8118
  322MOL0     H44429   4.687   4.509   1.540 -0.9677 -0.1813  2.0653
  322MOL0     H44430   4.470   4.440   1.650 -0.5049  0.7599 -1.4447
  322MOL0     H44431   4.598   4.315   1.664  0.1424 -0.2574 -0.9487
  322MOL0     H44432   4.310   4.134   1.419 -1.0600  1.5651 -0.2845
  322MOL0     H44433   4.615   4.867   1.199  0.8705  1.6982 -1.3527
  322MOL0     H44434   4.588   5.006   0.925  1.3089 -2.8910 -1.8344
  322MOL0     H44435   4.659   5.063   1.082  0.7254  0.0760 -0.5008
  322MOL0     H44436   4.747   5.083   0.936  0.9209  0.3878  1.8269
  323MOL0     O44437   8.874   1.860   6.823 -0.1875 -0.4864 -0.4707
  323MOL0     C44438   8.826   1.803   6.722  0.4860 -0.3843 -0.8136
  323MOL0     O44439   8.879   1.689   6.661  0.1220 -0.0108 -0.6512
  323MOL0     C44440   9.000   1.644   6.709 -0.3707  0.1327 -0.0681
  323MOL0     C44441   9.116   1.727   6.674 -0.1111 -0.6072  0.1492
  323MOL0     C44442   9.242   1.706   6.712 -0.8201  0.7021  0.1101
  323MOL0     C44443   9.268   1.587   6.788  0.0754  0.0606 -0.3973
  323MOL0     O44444   9.385   1.554   6.837  0.3970  0.5806 -0.1562
  323MOL0     C44445   9.498   1.542   6.752  0.7319  0.6740  0.5760
  323MOL0     C44446   9.613   1.492   6.826 -0.4441 -0.3589 -1.2051
  323MOL0     C44447   9.576   1.378   6.923 -0.7111 -0.3285 -0.1347
  323MOL0     C44448   9.696   1.280   6.937 -0.5217 -0.6673  0.0521
  323MOL0     C44449   9.670   1.159   7.030 -0.2254  0.5999 -1.0015
  323MOL0     C44450   9.784   1.056   7.041  0.2711 -0.5812 -0.1817
  323MOL0     C44451   9.816   0.956   6.930  0.5976 -0.5195  0.3975
  323MOL0     C44452   9.721   0.841   6.901  0.1631 -0.1148  0.1210
  323MOL0     N44453   9.790   0.718   6.886  0.1104  0.1452 -0.2767
  323MOL0     C44454   9.806   0.628   6.979  0.3528  0.0305  0.2908
  323MOL0     C44455   9.842   0.512   6.910  0.0489 -0.3034 -0.4858
  323MOL0     C44456   9.819   0.390   6.996 -0.8649 -1.0822  0.0667
  323MOL0     C44457   9.876   0.258   6.946 -0.1969  0.1243  0.0500
  323MOL0     C44458   9.773   0.181   6.863 -0.1597  0.1252 -0.5090
  323MOL0     C44459   9.660   0.088   6.942  1.3251 -0.6136 -0.5088
  323MOL0     O44460   9.575   0.173   7.037 -0.2200  0.6403  0.1134
  323MOL0     C44461   9.451   0.203   6.984  0.0530 -0.2851 -0.3263
  323MOL0     C44462   9.428   0.309   6.899 -0.1562 -0.8218  0.1328
  323MOL0     C44463   9.305   0.330   6.836  0.6306 -0.8953 -1.2127
  323MOL0     C44464   9.293   0.405   6.713  0.2594 -0.5652  0.1592
  323MOL0     C44465   9.187   0.257   6.891 -0.0296  0.1268 -0.4391
  323MOL0     C44466   9.047   0.276   6.843 -0.0440  0.0878  0.3035
  323MOL0     O44467   8.950   0.194   6.899  0.5042 -0.7621 -0.2113
  323MOL0     C44468   8.809   0.215   6.891 -0.4464 -1.1839 -0.5523
  323MOL0     C44469   8.739   0.318   6.830  0.7489  0.1764  0.5925
  323MOL0     C44470   8.596   0.304   6.827  0.1156  0.2677  0.4617
  323MOL0     C44471   8.526   0.199   6.900  0.4703  0.7011  0.0704
  323MOL0     O44472   8.390   0.175   6.902  0.2955 -0.0922 -0.4241
  323MOL0     C44473   8.339   0.083   6.806  0.6125 -0.3500 -0.5296
  323MOL0     C44474   8.187   0.079   6.809 -0.2027 -1.1092 -0.1484
  323MOL0     C44475   8.125   0.037   6.941  0.3573 -0.0584 -0.1626
  323MOL0     C44476   8.159  -0.111   6.982 -0.0580 -0.0937 -0.4432
  323MOL0     C44477   8.127  -0.143   7.137 -0.5155  0.3693  0.2746
  323MOL0     C44478   7.977  -0.180   7.161  0.9007  0.2608 -0.2121
  323MOL0     C44479   7.961  -0.228   7.304 -0.1451  0.1785  0.6507
  323MOL0     C44480   7.963  -0.116   7.405  0.0760  0.0159 -0.4382
  323MOL0    Cl44481   7.832   0.001   7.362  0.2425  0.5557  0.2618
  323MOL0     C44482   8.602   0.110   6.965 -0.2072 -0.4345 -0.7480
  323MOL0     C44483   8.742   0.112   6.956  0.1333  0.3399 -0.5321
  323MOL0     O44484   9.022   0.360   6.763  0.5729  0.3867  0.1692
  323MOL0     C44485   9.210   0.171   7.003 -0.3076  0.3673  0.4416
  323MOL0     C44486   9.341   0.144   7.041 -0.1387  0.0959  0.1228
  323MOL0     N44487   9.836   0.539   6.772  0.0348  0.5789 -0.7205
  323MOL0     N44488   9.810   0.661   6.758 -0.4149  0.1910 -0.4486
  323MOL0     C44489   9.155   1.502   6.838  0.7802  0.1075  1.8013
  323MOL0     C44490   9.022   1.531   6.782 -0.7424 -0.6634 -0.4406
  323MOL0     C44491   8.710   1.856   6.661  0.6504 -0.4771 -0.3212
  323MOL0     C44492   8.624   1.755   6.606 -0.1233 -0.2561  0.1014
  323MOL0     C44493   8.505   1.803   6.549  0.3937  0.1913  0.8212
  323MOL0     C44494   8.471   1.938   6.542 -0.8379  0.2087  0.4200
  323MOL0     O44495   8.363   1.991   6.478  0.0426  0.2871 -0.5067
  323MOL0     C44496   8.263   1.914   6.407  0.1078 -0.4323  0.2389
  323MOL0     C44497   8.146   1.867   6.488  0.1160  0.4585  0.4149
  323MOL0     C44498   8.018   1.823   6.406 -0.3320 -0.3738 -0.0979
  323MOL0     C44499   8.051   1.696   6.314 -0.3767 -0.5809  0.2208
  323MOL0     C44500   7.925   1.651   6.234 -0.4497  0.1230  0.0500
  323MOL0     C44501   7.843   1.598   6.163 -0.2908 -0.2968 -0.5956
  323MOL0     C44502   8.562   2.027   6.589  0.1680  0.7727  0.1196
  323MOL0     C44503   8.682   1.998   6.650  0.3789  0.0488  0.9176
  323MOL0     C44504   8.763   2.109   6.698  0.1013  0.1762 -0.0897
  323MOL0     H44505   9.093   1.823   6.629  0.2023 -0.3663  0.4932
  323MOL0     H44506   9.320   1.780   6.698  0.1302 -0.4318 -0.9260
  323MOL0     H44507   9.516   1.643   6.713 -0.1759  0.3293 -0.8062
  323MOL0     H44508   9.494   1.467   6.673  0.1987 -3.2266  4.0109
  323MOL0     H44509   9.691   1.462   6.755  0.6232 -0.4487 -0.0291
  323MOL0     H44510   9.652   1.572   6.889  1.1974 -1.2654 -1.0153
  323MOL0     H44511   9.554   1.420   7.022  2.3052  2.1065 -0.3463
  323MOL0     H44512   9.491   1.319   6.886 -1.1091 -0.2368  0.6096
  323MOL0     H44513   9.723   1.227   6.846  0.6451  0.7075 -0.4434
  323MOL0     H44514   9.775   1.344   6.978 -1.6403  0.2574  0.8800
  323MOL0     H44515   9.573   1.117   7.001 -0.5975  1.3894 -0.9479
  323MOL0     H44516   9.665   1.189   7.135  0.1737  0.8544 -1.0533
  323MOL0     H44517   9.871   1.114   7.071 -0.9532  0.7629  0.8980
  323MOL0     H44518   9.763   0.999   7.132 -4.9156  2.4816  0.9243
  323MOL0     H44519   9.901   0.910   6.981 -0.3458  0.3097  2.8999
  323MOL0     H44520   9.846   1.008   6.839 -1.6972  0.4876  0.1372
  323MOL0     H44521   9.632   0.830   6.964 -0.0172 -1.8905 -0.3656
  323MOL0     H44522   9.682   0.865   6.802  0.5783  2.5533  0.5372
  323MOL0     H44523   9.774   0.636   7.082  0.9650 -0.9156  0.5740
  323MOL0     H44524   9.710   0.382   6.994 -1.1345  1.7992 -0.2371
  323MOL0     H44525   9.858   0.408   7.097  2.6051 -0.5493 -1.2242
  323MOL0     H44526   9.968   0.275   6.888  1.4042  1.8458  2.9085
  323MOL0     H44527   9.899   0.199   7.035 -2.1207  0.7383  0.9969
  323MOL0     H44528   9.717   0.256   6.806 -3.3712  2.8373  5.2966
  323MOL0     H44529   9.828   0.107   6.805 -0.8053  0.2681 -1.3280
  323MOL0     H44530   9.598   0.036   6.868  0.1815 -1.2556  0.8580
  323MOL0     H44531   9.718   0.010   6.992  2.8348  0.2338 -0.8785
  323MOL0     H44532   9.510   0.372   6.865 -0.2508 -1.3319 -1.0617
  323MOL0     H44533   9.233   0.495   6.727  2.6618  0.8965  1.8786
  323MOL0     H44534   9.248   0.340   6.637  0.9804 -0.6783 -0.1759
  323MOL0     H44535   9.387   0.431   6.664  0.3397 -0.0909  0.5538
  323MOL0     H44536   8.780   0.411   6.792  1.7500 -0.3141  0.4456
  323MOL0     H44537   8.532   0.375   6.775 -4.0129 -1.5620  2.6177
  323MOL0     H44538   8.355   0.125   6.707 -4.9598  1.1866 -1.0936
  323MOL0     H44539   8.382  -0.016   6.826 -1.3896 -1.3016 -0.7377
  323MOL0     H44540   8.153   0.182   6.798  0.3234 -0.8573  0.5364
  323MOL0     H44541   8.142   0.021   6.728 -3.4899 -1.5098  1.7463
  323MOL0     H44542   8.016   0.042   6.937  0.2969  1.2864  1.8425
  323MOL0     H44543   8.161   0.115   7.008  0.7735  1.6779 -2.2909
  323MOL0     H44544   8.265  -0.133   6.967  0.2885  1.1197  0.0940
  323MOL0     H44545   8.101  -0.177   6.917  1.0269 -2.5225  0.9075
  323MOL0     H44546   8.179  -0.239   7.148 -1.1348 -0.0157 -0.0531
  323MOL0     H44547   8.160  -0.065   7.206  0.4395  1.9472 -1.8269
  323MOL0     H44548   7.950  -0.255   7.086 -1.2141  2.2835 -1.6564
  323MOL0     H44549   7.924  -0.086   7.140  1.4753  0.4699 -0.7632
  323MOL0     H44550   8.036  -0.303   7.334  1.1482  0.9501 -0.5261
  323MOL0     H44551   7.863  -0.276   7.304  1.1960 -2.9070 -1.0095
  323MOL0     H44552   8.055  -0.057   7.403 -0.5259  0.9746 -0.2970
  323MOL0     H44553   7.952  -0.156   7.506 -0.5985 -0.3046 -0.6351
  323MOL0     H44554   8.558   0.022   7.011 -0.2407 -0.9086 -1.6693
  323MOL0     H44555   8.813   0.045   7.002  2.5706  2.1041 -1.5248
  323MOL0     H44556   9.130   0.116   7.050 -0.5128  2.3742  2.6374
  323MOL0     H44557   9.351   0.075   7.124 -0.0792 -0.7205 -0.5539
  323MOL0     H44558   9.153   1.419   6.907  1.3039 -2.1125 -0.6815
  323MOL0     H44559   8.946   1.463   6.817 -0.1530 -1.1315 -0.0486
  323MOL0     H44560   8.639   1.648   6.612  0.2536 -0.2475 -0.5752
  323MOL0     H44561   8.438   1.732   6.502  1.3810 -0.2410  0.0269
  323MOL0     H44562   8.210   1.989   6.347 -0.0143 -0.0602  0.8015
  323MOL0     H44563   8.297   1.831   6.344  0.5652  1.7512 -2.5796
  323MOL0     H44564   8.120   1.949   6.556 -0.8414 -0.7530  1.5640
  323MOL0     H44565   8.175   1.774   6.538 -0.2050 -0.4442 -1.0107
  323MOL0     H44566   7.935   1.802   6.473 -2.1497 -0.3925 -2.2539
  323MOL0     H44567   7.990   1.909   6.344  1.9977 -0.7556 -1.8401
  323MOL0     H44568   8.091   1.617   6.378  1.8071  0.9880  0.9448
  323MOL0     H44569   8.123   1.720   6.235  0.9498 -2.1870  0.8842
  323MOL0     H44570   7.763   1.542   6.118 -0.5848 -0.6360  0.3270
  323MOL0     H44571   8.536   2.130   6.568 -0.4498  0.1461 -2.5415
  323MOL0     H44572   8.733   2.209   6.667 -0.5140 -0.0953 -0.4032
  323MOL0     H44573   8.760   2.106   6.807  1.2834  0.2971 -0.0514
  323MOL0     H44574   8.867   2.100   6.665 -0.2844 -0.7847 -1.1216
  324MOL0     O44575   0.805   4.102   4.323  0.3299 -0.0947  0.2786
  324MOL0     C44576   0.825   3.996   4.375 -1.0432  1.0761 -0.0271
  324MOL0     O44577   0.727   3.897   4.386  0.2619 -0.2627 -0.0604
  324MOL0     C44578   0.604   3.942   4.341  0.0385  0.8338  0.1759
  324MOL0     C44579   0.557   3.925   4.210  0.5313 -0.4548  0.8205
  324MOL0     C44580   0.427   3.952   4.162 -0.3331  0.0297  0.7733
  324MOL0     C44581   0.335   4.008   4.246 -0.0831  0.1002  0.2415
  324MOL0     O44582   0.208   4.034   4.219 -0.3371 -0.4780 -0.1951
  324MOL0     C44583   0.146   3.934   4.137 -0.1304 -0.1023 -0.7671
  324MOL0     C44584   0.002   3.973   4.141  0.7599 -0.7774  0.3244
  324MOL0     C44585  -0.050   3.955   4.280 -0.2740 -0.2541 -0.1644
  324MOL0     C44586  -0.073   3.802   4.305  0.0672 -0.4835  0.4575
  324MOL0     C44587  -0.053   3.776   4.452 -0.2196 -0.4192 -0.3907
  324MOL0     C44588   0.093   3.780   4.508  0.3663  0.5362  0.4425
  324MOL0     C44589   0.098   3.739   4.658  0.5078 -0.3240 -0.3354
  324MOL0     C44590   0.240   3.730   4.716  0.5020  0.3355  0.3736
  324MOL0     N44591   0.254   3.638   4.835  0.5806 -0.1398 -0.1909
  324MOL0     C44592   0.348   3.651   4.932 -0.9384 -0.3886 -0.8670
  324MOL0     C44593   0.322   3.550   5.022 -0.0228  0.5066  0.3113
  324MOL0     C44594   0.414   3.520   5.132 -0.1660 -0.1733  1.0554
  324MOL0     C44595   0.453   3.369   5.144 -0.1545  0.1903 -0.5863
  324MOL0     C44596   0.522   3.320   5.017  0.1394 -0.1989  0.1471
  324MOL0     C44597   0.525   3.167   5.008 -0.1054 -0.1312 -0.6448
  324MOL0     O44598   0.544   3.128   4.874  0.0753  0.2714  0.2351
  324MOL0     C44599   0.543   2.993   4.844  0.7740  0.0796  0.1443
  324MOL0     C44600   0.558   2.959   4.709 -0.5428  0.0816 -0.3272
  324MOL0     C44601   0.576   2.827   4.659  0.1453 -0.6178  0.6356
  324MOL0     C44602   0.605   2.815   4.509 -0.3986 -0.1479 -0.2976
  324MOL0     C44603   0.573   2.724   4.750 -0.0695 -0.6500 -0.6340
  324MOL0     C44604   0.578   2.570   4.715 -0.5096 -0.3909 -0.1734
  324MOL0     O44605   0.514   2.491   4.811 -0.5690 -0.3249  0.5798
  324MOL0     C44606   0.469   2.369   4.766 -0.4158 -0.4677 -0.1302
  324MOL0     C44607   0.340   2.358   4.737 -0.1680 -0.6563  0.6137
  324MOL0     C44608   0.288   2.238   4.698 -0.3278  0.7542  0.0389
  324MOL0     C44609   0.370   2.121   4.693  0.6253  0.5816  0.2961
  324MOL0     O44610   0.339   1.999   4.634 -0.1837  0.1413 -0.7006
  324MOL0     C44611   0.224   1.984   4.553 -0.3658 -0.3768  0.8826
  324MOL0     C44612   0.225   1.835   4.506  0.1086 -0.2534 -0.4214
  324MOL0     C44613   0.342   1.813   4.409 -0.5337  0.6454 -0.1219
  324MOL0     C44614   0.359   1.660   4.373  0.5102 -0.5278 -0.1327
  324MOL0     C44615   0.403   1.649   4.223  0.3864  0.4721 -0.1493
  324MOL0     C44616   0.542   1.705   4.197 -0.0052  0.8126  0.2841
  324MOL0     C44617   0.578   1.648   4.052 -0.1929 -0.2818  1.1155
  324MOL0     C44618   0.687   1.715   3.971 -1.4667  0.0292  0.2421
  324MOL0    Cl44619   0.851   1.671   4.043  0.1336  0.0032 -0.8353
  324MOL0     C44620   0.509   2.138   4.728  0.6929 -0.7499  0.4876
  324MOL0     C44621   0.561   2.263   4.766 -0.2493  0.4881  0.8918
  324MOL0     O44622   0.624   2.535   4.608  0.3428 -0.4670 -0.2876
  324MOL0     C44623   0.543   2.755   4.890 -0.0551  0.8856  0.0325
  324MOL0     C44624   0.527   2.889   4.934 -0.3639  0.3564  0.4901
  324MOL0     N44625   0.219   3.475   4.968 -0.1098  0.4608 -0.3427
  324MOL0     N44626   0.176   3.530   4.861  0.0829  0.5819 -0.8032
  324MOL0     C44627   0.372   4.032   4.379 -1.3107  0.0534 -0.0992
  324MOL0     C44628   0.503   3.998   4.428 -0.8946  0.5823  0.3721
  324MOL0     C44629   0.961   3.965   4.414  0.3756 -0.3676  0.1422
  324MOL0     C44630   0.965   3.871   4.517 -0.1310 -0.1631 -0.3325
  324MOL0     C44631   1.089   3.825   4.555 -0.2295 -0.7777  0.3656
  324MOL0     C44632   1.210   3.865   4.504  0.4514 -0.6918  0.1293
  324MOL0     O44633   1.337   3.814   4.523 -0.3454 -0.6252  0.2874
  324MOL0     C44634   1.359   3.699   4.611  0.0228 -1.3367  0.8044
  324MOL0     C44635   1.379   3.753   4.758 -0.4245  0.1200  0.2207
  324MOL0     C44636   1.478   3.863   4.778 -0.0955 -0.3652 -0.0917
  324MOL0     C44637   1.488   3.908   4.922 -0.0705  0.2001 -0.3365
  324MOL0     C44638   1.587   4.017   4.934  0.6852 -0.5539 -0.2539
  324MOL0     C44639   1.652   4.113   4.914 -0.3720  0.1398 -0.3237
  324MOL0     C44640   1.203   3.972   4.410 -0.0771  0.1533  0.2985
  324MOL0     C44641   1.080   4.024   4.370  0.4233 -0.2286 -0.3115
  324MOL0     C44642   1.097   4.128   4.263  0.4908  0.2308  0.4338
  324MOL0     H44643   0.616   3.862   4.143  2.6524  0.0134  2.1377
  324MOL0     H44644   0.403   3.913   4.063 -1.0985  1.3325  0.4242
  324MOL0     H44645   0.169   3.831   4.166  2.4316 -0.0481 -2.3077
  324MOL0     H44646   0.181   3.925   4.033  1.8975 -4.9219  0.0715
  324MOL0     H44647  -0.006   4.078   4.111  1.6807 -0.8787 -0.3031
  324MOL0     H44648  -0.056   3.915   4.069  1.5118 -1.5361  0.3199
  324MOL0     H44649   0.006   4.007   4.358  2.0540  0.0667 -1.9237
  324MOL0     H44650  -0.152   3.994   4.287 -0.5617 -0.2467 -3.1878
  324MOL0     H44651  -0.167   3.767   4.262 -0.8520 -0.5053  2.3957
  324MOL0     H44652   0.008   3.743   4.259 -1.2165 -1.9949  0.0676
  324MOL0     H44653  -0.091   3.675   4.470  0.7190 -0.7043  0.0425
  324MOL0     H44654  -0.123   3.835   4.512 -0.0041 -1.1590  0.6152
  324MOL0     H44655   0.169   3.729   4.448  0.9184  0.5289  1.1178
  324MOL0     H44656   0.127   3.884   4.508 -1.6816  1.2547 -0.4309
  324MOL0     H44657   0.041   3.646   4.656  1.2161 -0.7855  0.6367
  324MOL0     H44658   0.047   3.815   4.718 -0.9273 -0.2020 -1.6369
  324MOL0     H44659   0.314   3.692   4.646 -0.0653  0.8672 -0.5421
  324MOL0     H44660   0.279   3.826   4.752  1.8473 -0.2604  0.5597
  324MOL0     H44661   0.432   3.719   4.943 -1.2284 -0.2344  0.5336
  324MOL0     H44662   0.364   3.552   5.224  1.6352  0.0164  2.0087
  324MOL0     H44663   0.507   3.579   5.132 -0.4819  0.3493  1.6284
  324MOL0     H44664   0.519   3.354   5.230  0.1177 -5.0453 -1.3796
  324MOL0     H44665   0.368   3.307   5.176  0.3058  0.3081  0.9495
  324MOL0     H44666   0.466   3.353   4.928  0.6705  0.4462  0.0387
  324MOL0     H44667   0.618   3.373   5.022  0.4149 -0.7942  1.8038
  324MOL0     H44668   0.603   3.125   5.072 -0.6010 -1.4700 -0.8912
  324MOL0     H44669   0.430   3.121   5.037  0.1636 -1.3539 -1.6214
  324MOL0     H44670   0.577   3.041   4.640 -0.4145 -0.2563 -0.6965
  324MOL0     H44671   0.585   2.714   4.470  0.4674  0.4527 -2.4301
  324MOL0     H44672   0.699   2.844   4.463  0.5136 -3.4285 -0.7399
  324MOL0     H44673   0.523   2.873   4.465 -0.5788  1.1043  1.5710
  324MOL0     H44674   0.282   2.449   4.744 -0.6425 -0.9235  0.1966
  324MOL0     H44675   0.185   2.219   4.671 -0.8528 -0.7244  2.7182
  324MOL0     H44676   0.127   2.005   4.598 -1.3601 -4.2913  0.9563
  324MOL0     H44677   0.236   2.034   4.456  0.2713 -2.4461 -0.1742
  324MOL0     H44678   0.236   1.772   4.595  2.5891 -0.2703 -0.6747
  324MOL0     H44679   0.133   1.814   4.451  0.7009  5.8411 -4.6834
  324MOL0     H44680   0.432   1.858   4.451 -0.3491  0.1072  0.0652
  324MOL0     H44681   0.316   1.863   4.315  1.6415  0.1740 -1.0433
  324MOL0     H44682   0.269   1.603   4.399 -1.4427 -0.2700 -5.1947
  324MOL0     H44683   0.431   1.608   4.437 -0.7132 -1.0627  0.8590
  324MOL0     H44684   0.421   1.543   4.204  1.6339  0.8233 -1.0796
  324MOL0     H44685   0.323   1.684   4.158 -0.8279 -0.7456  0.6353
  324MOL0     H44686   0.613   1.676   4.275  0.2776 -0.2232 -0.3366
  324MOL0     H44687   0.545   1.814   4.195  0.8720  0.7894  0.1379
  324MOL0     H44688   0.502   1.668   3.977  0.0072  2.1118  1.4824
  324MOL0     H44689   0.607   1.543   4.062  0.0065 -0.2688  0.6823
  324MOL0     H44690   0.672   1.823   3.973  0.0376  0.2622  0.9204
  324MOL0     H44691   0.681   1.672   3.871 -0.6272 -1.2950  0.7172
  324MOL0     H44692   0.575   2.054   4.708  0.6581 -0.4549 -0.9846
  324MOL0     H44693   0.665   2.275   4.794  0.1646 -0.5125 -0.1025
  324MOL0     H44694   0.534   2.683   4.971  2.1200  1.0259  0.4611
  324MOL0     H44695   0.525   2.917   5.038 -1.3048  0.7825  0.3722
  324MOL0     H44696   0.297   4.073   4.445  0.9104  1.5388  1.6826
  324MOL0     H44697   0.534   4.020   4.530 -0.4761  1.0593  0.1467
  324MOL0     H44698   0.879   3.818   4.555 -0.7872 -2.0680 -3.9502
  324MOL0     H44699   1.087   3.743   4.626  0.1565 -0.1572  1.1111
  324MOL0     H44700   1.285   3.618   4.608 -1.2580 -0.1928 -1.0864
  324MOL0     H44701   1.460   3.665   4.587  0.8588  1.7513 -0.5110
  324MOL0     H44702   1.418   3.666   4.811  0.3102  1.0535  1.2361
  324MOL0     H44703   1.275   3.771   4.789 -0.8383 -0.8182 -0.5719
  324MOL0     H44704   1.578   3.827   4.752 -0.3914 -1.0002 -0.3743
  324MOL0     H44705   1.458   3.953   4.720  2.0544 -1.2130 -2.3375
  324MOL0     H44706   1.535   3.826   4.978 -1.0811  0.2472  0.6205
  324MOL0     H44707   1.395   3.933   4.974  0.7373  0.6336  0.9460
  324MOL0     H44708   1.719   4.186   4.873 -1.5644 -0.2213 -3.0818
  324MOL0     H44709   1.298   4.007   4.373  0.8391  0.5244  2.7910
  324MOL0     H44710   1.092   4.085   4.163  2.1616 -2.6379  1.4658
  324MOL0     H44711   1.020   4.204   4.282  0.6304  0.5991 -0.4044
  324MOL0     H44712   1.198   4.170   4.263 -0.1126  1.7562  0.9998
  325MOL0     O44713  10.315   9.023   0.386  0.6148 -0.6891  0.3649
  325MOL0     C44714  10.302   8.925   0.450  0.3083 -0.3900  0.3703
  325MOL0     O44715  10.214   8.895   0.544  0.6403 -0.5549 -0.0620
  325MOL0     C44716  10.082   8.944   0.554 -0.4713 -0.9535 -0.3912
  325MOL0     C44717  10.005   8.909   0.662  1.3053  0.8288 -0.2094
  325MOL0     C44718   9.869   8.939   0.676  0.2657  0.8603  0.2682
  325MOL0     C44719   9.803   9.023   0.580 -0.3224 -0.0554  0.1991
  325MOL0     O44720   9.686   9.070   0.621  0.1299 -0.0061 -0.2158
  325MOL0     C44721   9.620   9.186   0.560  1.0344  0.4832 -0.6738
  325MOL0     C44722   9.708   9.314   0.544  0.7423  0.6388 -0.1933
  325MOL0     C44723   9.760   9.364   0.681 -0.5281 -0.0343 -1.1552
  325MOL0     C44724   9.863   9.276   0.757  0.2466 -0.1510 -0.1158
  325MOL0     C44725   9.930   9.358   0.861 -0.4298 -0.7494  0.1499
  325MOL0     C44726  10.059   9.299   0.915 -0.4860  0.1685  0.1238
  325MOL0     C44727  10.168   9.290   0.804 -0.0996 -1.3391 -0.2370
  325MOL0     C44728  10.200   9.428   0.744  1.0278  0.7060  0.0149
  325MOL0     N44729  10.314   9.408   0.655 -0.9631 -0.1615  0.4360
  325MOL0     C44730  10.338   9.307   0.569 -0.5483 -0.5634 -0.2511
  325MOL0     C44731  10.454   9.353   0.511 -0.0281 -0.8935  0.1049
  325MOL0     C44732  10.534   9.281   0.408  0.1697 -0.4290  0.0436
  325MOL0     C44733  10.471   9.305   0.269 -0.2221  0.1505 -0.4329
  325MOL0     C44734  10.510   9.439   0.203  0.2933  0.0551  0.1602
  325MOL0     C44735  10.654   9.442   0.149  0.0178  0.6120  0.0140
  325MOL0     O44736  10.679   9.348   0.040  0.9397 -0.6202  0.2113
  325MOL0     C44737  10.808   9.353  -0.003  0.0262 -0.3038 -0.1211
  325MOL0     C44738  10.840   9.354  -0.137  0.2238 -0.1218  0.1824
  325MOL0     C44739  10.975   9.342  -0.188  0.0094  1.1203  0.2014
  325MOL0     C44740  10.998   9.356  -0.341  0.1951 -0.1159  0.3259
  325MOL0     C44741  11.081   9.336  -0.094  0.2242 -0.7104  0.3729
  325MOL0     C44742  11.222   9.355  -0.132 -0.4099  0.0048  1.1997
  325MOL0     O44743  11.304   9.421  -0.042  0.0094  0.7196  1.1517
  325MOL0     C44744  11.440   9.396  -0.057 -1.3089 -0.0964  0.2687
  325MOL0     C44745  11.524   9.369   0.054 -0.9440 -1.1726  0.0205
  325MOL0     C44746  11.668   9.369   0.040 -0.3377  0.0855 -0.3263
  325MOL0     C44747  11.724   9.396  -0.084  0.0865 -0.1554 -0.1891
  325MOL0     O44748  11.854   9.379  -0.120  0.0797 -0.1826  0.0153
  325MOL0     C44749  11.957   9.352  -0.025 -0.7186 -0.6667  0.7287
  325MOL0     C44750  12.091   9.365  -0.109 -0.2375  0.4777 -0.3541
  325MOL0     C44751  12.122   9.512  -0.106  0.1467 -0.3485  0.5486
  325MOL0     C44752  12.239   9.540  -0.199  0.3432  1.1425 -0.1381
  325MOL0     C44753  12.340   9.641  -0.148  0.5377 -0.7138  0.2368
  325MOL0     C44754  12.474   9.663  -0.227 -0.2569  0.3692 -0.1292
  325MOL0     C44755  12.557   9.539  -0.221 -0.9437  0.4789  0.2155
  325MOL0     C44756  12.694   9.584  -0.269 -0.2264  0.4758  0.5892
  325MOL0    Cl44757  12.814   9.451  -0.301  0.1416 -0.0151 -0.3269
  325MOL0     C44758  11.640   9.444  -0.188  0.2041  0.8734  0.6346
  325MOL0     C44759  11.500   9.450  -0.174  0.1528 -0.0917 -0.9190
  325MOL0     O44760  11.268   9.293  -0.238  0.0819  0.7686 -0.2861
  325MOL0     C44761  11.048   9.349   0.041 -0.6752  0.1815 -0.6329
  325MOL0     C44762  10.919   9.352   0.083  0.5997 -1.3607  0.8590
  325MOL0     N44763  10.490   9.483   0.547 -0.1139 -0.2283  0.4859
  325MOL0     N44764  10.393   9.514   0.635 -0.0217 -0.5791  0.1442
  325MOL0     C44765   9.876   9.050   0.467  0.2034  0.5034 -1.0753
  325MOL0     C44766  10.009   8.997   0.453 -1.1097 -0.6605  0.1516
  325MOL0     C44767  10.396   8.810   0.417  0.0557  0.1320 -1.0889
  325MOL0     C44768  10.426   8.725   0.515  0.6110  0.7443 -0.3051
  325MOL0     C44769  10.505   8.613   0.505 -1.1503 -0.2713  0.0567
  325MOL0     C44770  10.575   8.596   0.380 -0.3346 -0.1001 -0.4133
  325MOL0     O44771  10.662   8.493   0.380  0.4056 -0.1051 -0.1654
  325MOL0     C44772  10.795   8.511   0.422 -0.4422 -0.6546 -0.3695
  325MOL0     C44773  10.886   8.420   0.351  0.0683 -0.7612  0.7419
  325MOL0     C44774  11.025   8.425   0.412 -0.1382 -0.5977 -0.4976
  325MOL0     C44775  11.082   8.287   0.438  0.3538  0.6940  0.3250
  325MOL0     C44776  11.227   8.297   0.473  0.6915  0.6696 -0.0310
  325MOL0     C44777  11.342   8.304   0.484 -0.0105 -0.4519  0.3831
  325MOL0     C44778  10.553   8.681   0.271  0.4609  0.0757 -1.0181
  325MOL0     C44779  10.467   8.794   0.292 -0.3585 -0.3979 -1.3631
  325MOL0     C44780  10.453   8.890   0.183  0.4108 -0.2679  0.7937
  325MOL0     H44781  10.047   8.857   0.748 -3.0974 -2.9794  0.0193
  325MOL0     H44782   9.825   8.927   0.774 -0.3914 -0.6799 -0.1870
  325MOL0     H44783   9.544   9.203   0.637  1.1612  0.4309 -0.5381
  325MOL0     H44784   9.568   9.156   0.469  1.0532 -0.2114 -0.4645
  325MOL0     H44785   9.779   9.308   0.461 -0.4529  2.9291 -1.4659
  325MOL0     H44786   9.641   9.395   0.513  0.5009  1.0303  1.2868
  325MOL0     H44787   9.806   9.462   0.661 -0.9358  0.3835 -0.1084
  325MOL0     H44788   9.679   9.385   0.752 -1.2150 -1.0072 -1.6394
  325MOL0     H44789   9.816   9.189   0.803 -1.7035 -0.2091 -2.0842
  325MOL0     H44790   9.932   9.230   0.685  0.1388 -0.1190 -0.2413
  325MOL0     H44791   9.861   9.373   0.945 -1.1346 -0.2236 -0.5147
  325MOL0     H44792   9.951   9.460   0.828  2.7824 -0.7305  1.8371
  325MOL0     H44793  10.084   9.354   1.006 -2.1187 -0.4116  0.9695
  325MOL0     H44794  10.044   9.193   0.937  1.6705 -0.6826 -2.1074
  325MOL0     H44795  10.140   9.219   0.726 -1.1677 -0.8900 -0.2793
  325MOL0     H44796  10.262   9.266   0.855  0.5756 -3.2870 -2.2655
  325MOL0     H44797  10.122   9.464   0.676  1.6397  1.3074 -0.3758
  325MOL0     H44798  10.210   9.508   0.818 -4.1523  0.8674  0.9636
  325MOL0     H44799  10.297   9.207   0.561 -1.0759 -0.2973 -1.0416
  325MOL0     H44800  10.538   9.177   0.441  4.5205 -0.4648 -0.0874
  325MOL0     H44801  10.640   9.308   0.415  0.2901 -1.2720  1.7437
  325MOL0     H44802  10.492   9.225   0.197 -1.5492 -1.3185  0.7136
  325MOL0     H44803  10.362   9.305   0.279 -0.2261  3.0036  0.3755
  325MOL0     H44804  10.452   9.460   0.112 -0.0003 -0.5206  0.2082
  325MOL0     H44805  10.485   9.517   0.275  0.2180 -1.9089  2.3613
  325MOL0     H44806  10.684   9.545   0.128  0.9429  0.6464  1.3476
  325MOL0     H44807  10.710   9.406   0.236 -1.7504  0.9558  1.3420
  325MOL0     H44808  10.761   9.354  -0.211  0.1265 -2.6620  0.2060
  325MOL0     H44809  11.008   9.256  -0.385 -0.3948  0.1179 -0.3589
  325MOL0     H44810  11.093   9.405  -0.363  0.6359 -1.9335 -2.3125
  325MOL0     H44811  10.912   9.406  -0.388 -0.6715 -2.3628 -0.6273
  325MOL0     H44812  11.481   9.352   0.152 -1.8648 -3.5392 -0.7137
  325MOL0     H44813  11.737   9.323   0.110 -0.5036  0.0566 -0.1809
  325MOL0     H44814  11.946   9.420   0.060 -0.3587 -0.4471  0.6051
  325MOL0     H44815  11.937   9.251   0.012 -0.7908 -1.2250 -0.7567
  325MOL0     H44816  12.180   9.314  -0.071 -1.6397 -2.1247 -0.3591
  325MOL0     H44817  12.078   9.325  -0.210 -0.6713  4.9923 -2.3310
  325MOL0     H44818  12.139   9.539  -0.002 -4.5596  2.2227  0.9402
  325MOL0     H44819  12.030   9.562  -0.139 -0.1045 -0.4060  1.1449
  325MOL0     H44820  12.202   9.578  -0.295  1.8478  4.3151  0.3930
  325MOL0     H44821  12.296   9.448  -0.206 -1.6257 -0.1045 -0.6396
  325MOL0     H44822  12.294   9.740  -0.139  0.5067 -0.8039  1.1421
  325MOL0     H44823  12.369   9.605  -0.049  0.7032 -1.4519 -0.0746
  325MOL0     H44824  12.529   9.744  -0.178  0.1586  0.1491 -0.2232
  325MOL0     H44825  12.447   9.692  -0.329  1.0216  2.3556  0.0326
  325MOL0     H44826  12.510   9.459  -0.279 -0.9047 -1.0283  2.1602
  325MOL0     H44827  12.578   9.509  -0.117  0.9745  0.0204 -0.2671
  325MOL0     H44828  12.741   9.656  -0.201 -1.4138  1.5754  0.2857
  325MOL0     H44829  12.684   9.628  -0.369 -0.4785 -1.7252 -0.4246
  325MOL0     H44830  11.687   9.487  -0.277  3.9438  2.2854  3.0619
  325MOL0     H44831  11.444   9.485  -0.259  0.4068 -2.7073 -2.2680
  325MOL0     H44832  11.125   9.364   0.116 -0.3256  0.9818 -1.1364
  325MOL0     H44833  10.911   9.369   0.190  1.7522 -1.3501  0.9631
  325MOL0     H44834   9.818   9.089   0.385 -0.0134 -1.9147 -2.1581
  325MOL0     H44835  10.061   9.000   0.358  0.1252 -0.9149  0.7953
  325MOL0     H44836  10.380   8.740   0.613 -2.7823 -1.6983 -1.3093
  325MOL0     H44837  10.514   8.536   0.581  1.9273 -1.2239 -1.1182
  325MOL0     H44838  10.836   8.612   0.414  0.2641 -0.6851  2.1538
  325MOL0     H44839  10.807   8.488   0.528  0.7136 -0.8808 -0.5338
  325MOL0     H44840  10.895   8.454   0.247 -0.0425 -2.7225  0.0447
  325MOL0     H44841  10.847   8.318   0.352  1.7579 -1.5499 -2.0551
  325MOL0     H44842  11.087   8.476   0.337  3.8044 -1.5056  1.8942
  325MOL0     H44843  11.030   8.469   0.512  4.1568 -0.9348 -0.4028
  325MOL0     H44844  11.064   8.235   0.344 -3.6538 -0.3363  1.4523
  325MOL0     H44845  11.023   8.239   0.517 -0.7165 -0.1018 -0.9298
  325MOL0     H44846  11.444   8.300   0.517  0.4190  1.1379 -0.6169
  325MOL0     H44847  10.602   8.671   0.174 -1.2132  3.1884 -2.3234
  325MOL0     H44848  10.348   8.914   0.166  0.4574 -1.2404 -1.1975
  325MOL0     H44849  10.514   8.979   0.198 -1.5567  1.5205 -1.0748
  325MOL0     H44850  10.474   8.843   0.087 -0.2369  1.2077 -0.0983
  326MOL0     O44851   2.151   7.431   7.448  0.2544  0.3305 -0.1676
  326MOL0     C44852   2.153   7.472   7.333 -0.2840  0.2250  0.8858
  326MOL0     O44853   2.207   7.598   7.303  0.3096 -0.2708 -0.1791
  326MOL0     C44854   2.233   7.677   7.410 -0.3342 -0.1710  0.3685
  326MOL0     C44855   2.347   7.653   7.487 -1.0230 -0.2697  0.1325
  326MOL0     C44856   2.383   7.729   7.599 -0.0402  0.2503 -0.5747
  326MOL0     C44857   2.322   7.851   7.622 -0.4328  1.5969  0.2966
  326MOL0     O44858   2.366   7.942   7.710  0.4251 -0.2830 -0.5459
  326MOL0     C44859   2.367   7.895   7.847  0.3169 -0.4154 -0.5441
  326MOL0     C44860   2.504   7.944   7.910  0.2102 -0.3145 -0.7537
  326MOL0     C44861   2.618   7.874   7.830 -0.3153 -0.6959  0.4139
  326MOL0     C44862   2.761   7.897   7.890  0.3809 -0.1789 -0.8495
  326MOL0     C44863   2.844   7.769   7.882 -0.7816 -0.2211  0.4249
  326MOL0     C44864   2.984   7.799   7.930 -0.9473  0.5004 -0.0309
  326MOL0     C44865   3.070   7.674   7.905 -1.0299 -0.1059  0.4154
  326MOL0     C44866   3.216   7.718   7.955  0.6721  0.2155 -0.5036
  326MOL0     N44867   3.296   7.601   7.988  0.1476  0.2054  0.2013
  326MOL0     C44868   3.369   7.533   7.892  0.1208 -0.7415  0.5218
  326MOL0     C44869   3.425   7.428   7.959  0.6616  0.2389 -0.0884
  326MOL0     C44870   3.517   7.311   7.928  0.7466  0.0897  0.6614
  326MOL0     C44871   3.423   7.207   7.865  0.2463 -0.4387  0.9399
  326MOL0     C44872   3.487   7.110   7.768  0.1565 -0.1528  0.7085
  326MOL0     C44873   3.387   7.011   7.711  0.8661 -0.8034 -0.0227
  326MOL0     O44874   3.426   6.962   7.584  0.2560  0.1773 -0.4957
  326MOL0     C44875   3.326   6.953   7.490 -0.6836  0.0265 -0.0956
  326MOL0     C44876   3.192   6.912   7.514 -0.0728  0.5018 -0.0174
  326MOL0     C44877   3.094   6.890   7.421 -0.0599  0.0321 -0.1069
  326MOL0     C44878   2.962   6.858   7.473  0.2623 -0.2331  0.6648
  326MOL0     C44879   3.127   6.930   7.286  0.0396  0.0994  0.1408
  326MOL0     C44880   3.030   6.940   7.179 -0.8536 -0.4670  0.2210
  326MOL0     O44881   3.071   6.907   7.048  0.1446  0.0336  0.5839
  326MOL0     C44882   2.973   6.863   6.963  0.0211 -0.3928  1.3041
  326MOL0     C44883   2.860   6.778   7.006 -0.9797 -0.9473 -0.7218
  326MOL0     C44884   2.768   6.726   6.910  0.4296 -0.4103 -0.9488
  326MOL0     C44885   2.795   6.741   6.771  0.0475  0.1515  0.1554
  326MOL0     O44886   2.706   6.699   6.668 -0.8990  0.2111 -0.8451
  326MOL0     C44887   2.608   6.600   6.697 -1.5133 -0.4653 -0.1401
  326MOL0     C44888   2.546   6.571   6.566  0.4557  0.4805 -0.3626
  326MOL0     C44889   2.451   6.450   6.570  0.6395 -0.3386 -0.6727
  326MOL0     C44890   2.328   6.484   6.652  0.4898 -0.9454 -0.1232
  326MOL0     C44891   2.223   6.378   6.648 -0.8328  0.7730 -0.3919
  326MOL0     C44892   2.114   6.392   6.751  0.4193  0.7736 -0.1412
  326MOL0     C44893   2.024   6.504   6.715 -0.1705 -0.8365 -0.2775
  326MOL0     C44894   1.897   6.499   6.794 -0.2722  0.1506 -0.3101
  326MOL0    Cl44895   1.776   6.629   6.746 -0.5210  0.2358 -0.5821
  326MOL0     C44896   2.906   6.806   6.729  0.3843  0.0850  0.0106
  326MOL0     C44897   2.994   6.865   6.817  0.1434  1.0232 -0.4868
  326MOL0     O44898   2.915   6.978   7.212 -0.0768  0.2284 -0.2498
  326MOL0     C44899   3.265   6.961   7.258  0.2520 -0.5366  0.3435
  326MOL0     C44900   3.362   6.971   7.360  0.3801  0.3614  0.6464
  326MOL0     N44901   3.362   7.425   8.086  0.9574  1.1486  0.5421
  326MOL0     N44902   3.301   7.534   8.105  0.0822  0.7556 -0.9207
  326MOL0     C44903   2.210   7.882   7.542  0.0503  0.5097  0.2738
  326MOL0     C44904   2.163   7.797   7.441 -0.3270  0.0416  0.6669
  326MOL0     C44905   2.131   7.385   7.221 -0.2916 -0.7684 -0.2647
  326MOL0     C44906   2.190   7.256   7.207  1.0341 -0.4622 -0.4275
  326MOL0     C44907   2.168   7.175   7.096  0.9592 -0.6821  0.4211
  326MOL0     C44908   2.095   7.218   6.987  0.3055 -0.1940  0.0815
  326MOL0     O44909   2.089   7.130   6.876 -0.3391 -0.3120 -0.3118
  326MOL0     C44910   2.034   7.173   6.749  0.8446  0.7841 -1.0536
  326MOL0     C44911   2.053   7.067   6.649 -0.4306 -0.3764  0.4727
  326MOL0     C44912   1.945   6.962   6.646 -0.4776 -0.5781 -0.3929
  326MOL0     C44913   1.974   6.871   6.517  1.1644  0.5105  0.6271
  326MOL0     C44914   1.875   6.776   6.464  0.1449  0.0892  0.0866
  326MOL0     C44915   1.790   6.711   6.402  0.2961  0.2851 -0.6041
  326MOL0     C44916   2.032   7.337   7.001 -0.2553 -0.6702 -0.3569
  326MOL0     C44917   2.057   7.430   7.106  0.9597  0.1029 -0.0395
  326MOL0     C44918   1.975   7.566   7.093 -0.0149  0.5557  0.3080
  326MOL0     H44919   2.408   7.567   7.460 -1.9245 -0.2500 -2.1895
  326MOL0     H44920   2.462   7.682   7.657 -0.7076 -0.7678 -0.4567
  326MOL0     H44921   2.355   7.788   7.865 -1.5618  0.0347  1.1161
  326MOL0     H44922   2.282   7.942   7.896  2.2612  1.5639  1.1567
  326MOL0     H44923   2.516   8.053   7.900 -0.3657 -0.0707  0.8660
  326MOL0     H44924   2.518   7.915   8.015  0.8368 -3.3312 -1.5913
  326MOL0     H44925   2.605   7.766   7.841  0.9400 -0.7022  2.2588
  326MOL0     H44926   2.622   7.910   7.726 -0.2306 -0.4494  0.5005
  326MOL0     H44927   2.815   7.982   7.848 -0.0688  0.4624 -0.1570
  326MOL0     H44928   2.749   7.919   7.997  2.1697  0.9104 -0.8388
  326MOL0     H44929   2.841   7.742   7.776  1.8298 -0.4535  0.3535
  326MOL0     H44930   2.798   7.688   7.939  1.8969 -1.2661  1.2467
  326MOL0     H44931   3.029   7.882   7.875 -2.5705  1.8287  0.5399
  326MOL0     H44932   2.976   7.820   8.038 -0.3908 -3.0560  0.8152
  326MOL0     H44933   3.087   7.647   7.800  1.4356 -0.7988  0.9036
  326MOL0     H44934   3.032   7.581   7.950  0.8113 -0.7101  0.8468
  326MOL0     H44935   3.267   7.775   7.877 -0.3657  1.8518 -0.0321
  326MOL0     H44936   3.188   7.777   8.043  3.0417 -0.0590  0.5123
  326MOL0     H44937   3.374   7.572   7.790 -0.3585  0.3937  0.9143
  326MOL0     H44938   3.569   7.273   8.017  1.7225 -0.0352  0.0613
  326MOL0     H44939   3.592   7.355   7.860  0.3629  1.7953  1.2789
  326MOL0     H44940   3.388   7.146   7.949 -2.1222  1.8068  1.7292
  326MOL0     H44941   3.325   7.243   7.832  0.4083 -0.7549  0.0787
  326MOL0     H44942   3.526   7.164   7.681 -1.7772 -0.5717 -0.4683
  326MOL0     H44943   3.572   7.067   7.823  1.2574  2.6073  1.3272
  326MOL0     H44944   3.379   6.927   7.780 -0.9487 -1.7031 -1.2469
  326MOL0     H44945   3.292   7.064   7.697  1.5778  0.1378 -1.4526
  326MOL0     H44946   3.162   6.898   7.617  0.2292  1.1925  0.1703
  326MOL0     H44947   2.976   6.817   7.574  0.7639 -0.5166  0.4864
  326MOL0     H44948   2.912   6.783   7.411  0.5721  0.9601 -1.0961
  326MOL0     H44949   2.906   6.951   7.475 -1.8568 -1.4448  0.6079
  326MOL0     H44950   2.834   6.767   7.110 -1.1189  1.4931 -0.4335
  326MOL0     H44951   2.683   6.675   6.953  0.9131  0.2999  0.9583
  326MOL0     H44952   2.658   6.510   6.735 -0.9121 -0.0391  0.0976
  326MOL0     H44953   2.539   6.643   6.771  2.2238  1.5867  2.5135
  326MOL0     H44954   2.504   6.658   6.516 -2.3182 -0.4886  0.1035
  326MOL0     H44955   2.628   6.545   6.499  0.4463 -1.8603  0.4089
  326MOL0     H44956   2.510   6.368   6.614  1.1012  1.0521  1.4722
  326MOL0     H44957   2.419   6.429   6.468 -4.3241  0.9349  0.3601
  326MOL0     H44958   2.280   6.576   6.617 -1.2125 -1.5456  0.5263
  326MOL0     H44959   2.354   6.496   6.758  2.1441  0.0955 -0.6158
  326MOL0     H44960   2.189   6.367   6.544 -0.6846 -0.8691 -0.2893
  326MOL0     H44961   2.279   6.286   6.670 -0.1795  1.1783 -0.3090
  326MOL0     H44962   2.155   6.434   6.843 -1.0943  0.7081  0.6079
  326MOL0     H44963   2.059   6.299   6.775  1.2825  0.2667 -0.0962
  326MOL0     H44964   2.001   6.491   6.609 -0.6629  1.6867 -0.5379
  326MOL0     H44965   2.078   6.597   6.736  2.4899 -1.3941 -3.8107
  326MOL0     H44966   1.930   6.515   6.897  1.6020 -0.7719 -0.7273
  326MOL0     H44967   1.854   6.399   6.783 -0.3117  0.2864 -1.5393
  326MOL0     H44968   2.923   6.818   6.622 -1.1285  1.5739 -0.0976
  326MOL0     H44969   3.087   6.897   6.772  0.4833  2.2154  0.9926
  326MOL0     H44970   3.305   6.993   7.162  0.8020 -2.3185 -0.0561
  326MOL0     H44971   3.470   6.980   7.346  0.3711 -1.7107 -1.4922
  326MOL0     H44972   2.158   7.977   7.550 -0.5802  0.2465 -0.5707
  326MOL0     H44973   2.075   7.816   7.380 -0.7800 -0.0167  1.2991
  326MOL0     H44974   2.252   7.207   7.282  2.0042 -4.4620 -3.4634
  326MOL0     H44975   2.212   7.077   7.084  3.7182  0.6695 -1.9295
  326MOL0     H44976   1.929   7.198   6.768  1.0247  0.8359 -0.0869
  326MOL0     H44977   2.091   7.262   6.722  1.7655  0.8404  0.9169
  326MOL0     H44978   2.146   7.012   6.667 -1.2808 -1.8818  0.3559
  326MOL0     H44979   2.047   7.112   6.549 -1.0480 -1.7160 -0.1208
  326MOL0     H44980   1.964   6.899   6.733 -1.8293 -1.2397 -0.5529
  326MOL0     H44981   1.843   7.000   6.648  0.3716  1.8974  0.2414
  326MOL0     H44982   2.068   6.816   6.526  1.8546  1.4383 -0.6325
  326MOL0     H44983   1.996   6.938   6.433  1.7581  2.8995  2.5625
  326MOL0     H44984   1.722   6.653   6.344  2.0581 -1.5309 -0.9780
  326MOL0     H44985   1.956   7.373   6.933  0.2777  0.3568 -0.4261
  326MOL0     H44986   2.011   7.629   7.012 -0.3858  0.5492  0.1367
  326MOL0     H44987   1.869   7.546   7.075  0.2745  0.2838 -1.2365
  326MOL0     H44988   1.987   7.628   7.183  2.7184 -0.5961  0.8339
  327MOL0     O44989   2.237   1.577   6.461 -0.3201 -0.4577 -0.1737
  327MOL0     C44990   2.296   1.474   6.486 -0.0040 -0.0926 -0.0317
  327MOL0     O44991   2.429   1.469   6.529  0.1525  0.0684  0.3998
  327MOL0     C44992   2.501   1.582   6.537  0.0453  0.1523 -0.5505
  327MOL0     C44993   2.540   1.638   6.665  0.7029 -0.2810  0.0999
  327MOL0     C44994   2.644   1.735   6.679  0.0744 -0.3293  0.2806
  327MOL0     C44995   2.697   1.775   6.563 -0.2421 -0.1463 -0.2293
  327MOL0     O44996   2.806   1.861   6.572  0.0465 -0.4661 -0.1608
  327MOL0     C44997   2.804   1.963   6.473 -0.5860 -0.4362 -1.3207
  327MOL0     C44998   2.909   2.078   6.523  0.4074  0.5540  0.5411
  327MOL0     C44999   3.053   2.031   6.559 -0.1780 -0.1372  0.0990
  327MOL0     C45000   3.144   2.086   6.452 -0.5340 -0.1175 -0.0863
  327MOL0     C45001   3.281   2.017   6.448 -0.2938  0.3834 -0.2692
  327MOL0     C45002   3.353   2.023   6.582 -0.9706 -0.5160  1.0161
  327MOL0     C45003   3.466   1.914   6.590 -0.0169 -0.1163  1.0091
  327MOL0     C45004   3.566   1.914   6.467  0.5993 -0.2339 -1.1405
  327MOL0     N45005   3.686   1.998   6.481 -0.1826  0.1505 -0.6765
  327MOL0     C45006   3.785   1.992   6.381  0.3822  0.5492 -0.2581
  327MOL0     C45007   3.859   2.106   6.413 -0.1235 -0.0481 -1.1109
  327MOL0     C45008   3.987   2.146   6.345 -0.2196  0.0507  0.5200
  327MOL0     C45009   4.087   2.032   6.364 -0.4688  0.5449  0.1283
  327MOL0     C45010   4.227   2.056   6.303  0.2416  0.5036 -0.4079
  327MOL0     C45011   4.319   1.951   6.336 -0.6475  0.6339  0.4405
  327MOL0     O45012   4.443   1.965   6.274 -0.5579  0.5353  0.2896
  327MOL0     C45013   4.547   1.875   6.290  0.2313 -0.1080  0.1085
  327MOL0     C45014   4.660   1.873   6.209  0.5440  0.3996 -0.9285
  327MOL0     C45015   4.771   1.792   6.236 -0.1729 -0.6731 -1.0381
  327MOL0     C45016   4.898   1.843   6.157  0.2893  0.0259 -0.5414
  327MOL0     C45017   4.767   1.702   6.342 -0.4728  0.0255  0.2553
  327MOL0     C45018   4.888   1.615   6.373  0.5251 -0.1635  0.4304
  327MOL0     O45019   4.921   1.616   6.505  0.6310  0.4524 -0.0039
  327MOL0     C45020   5.030   1.554   6.562  0.5724 -0.5197  0.9632
  327MOL0     C45021   5.008   1.463   6.667  1.0831 -0.4244  0.0640
  327MOL0     C45022   5.117   1.415   6.739 -0.1730 -0.2421 -0.9290
  327MOL0     C45023   5.250   1.436   6.695  0.7483  0.1558 -0.1536
  327MOL0     O45024   5.344   1.353   6.740 -0.1822  0.2858 -0.4311
  327MOL0     C45025   5.414   1.392   6.865 -0.0000 -0.2678  0.0991
  327MOL0     C45026   5.537   1.313   6.882 -0.7541 -0.3507 -0.7776
  327MOL0     C45027   5.610   1.352   7.012 -0.4334 -0.7386 -0.7658
  327MOL0     C45028   5.751   1.287   7.036  1.0140 -0.4887  0.3258
  327MOL0     C45029   5.823   1.354   7.151  0.0336  1.0448  0.7570
  327MOL0     C45030   5.965   1.309   7.157 -0.1166 -0.3911  0.1737
  327MOL0     C45031   6.031   1.355   7.290  0.1350 -0.2377 -0.3003
  327MOL0     C45032   6.172   1.321   7.302  0.1092  0.5011  0.3202
  327MOL0    Cl45033   6.232   1.390   7.449  0.0736 -0.3964 -0.0140
  327MOL0     C45034   5.272   1.524   6.594  0.9403  0.1261  0.1810
  327MOL0     C45035   5.164   1.594   6.535 -1.0115  0.4341 -0.4190
  327MOL0     O45036   4.950   1.568   6.281  0.1972  0.2019  0.2410
  327MOL0     C45037   4.659   1.705   6.430 -0.2486  0.0278 -0.3140
  327MOL0     C45038   4.557   1.794   6.412  0.9689 -0.5415 -0.2857
  327MOL0     N45039   3.803   2.172   6.519 -0.8573  1.1052 -0.5876
  327MOL0     N45040   3.691   2.117   6.552 -0.4160 -0.1248  0.2816
  327MOL0     C45041   2.660   1.724   6.441  1.3120 -0.2690  1.1447
  327MOL0     C45042   2.555   1.632   6.421 -0.7096  0.7877  0.3633
  327MOL0     C45043   2.232   1.343   6.477 -0.5023 -0.8176  0.7333
  327MOL0     C45044   2.310   1.224   6.491 -0.5677 -0.9131 -0.2789
  327MOL0     C45045   2.244   1.097   6.494 -0.1073 -0.6482 -1.0700
  327MOL0     C45046   2.104   1.079   6.487  0.0767 -1.1533 -1.5282
  327MOL0     O45047   2.045   0.964   6.482 -0.3068  0.7159  0.6192
  327MOL0     C45048   2.098   0.864   6.567  0.2394 -0.3774 -0.3106
  327MOL0     C45049   2.116   0.742   6.468  0.2606 -0.6190 -0.6202
  327MOL0     C45050   1.991   0.704   6.382 -0.1511 -1.0572  0.5207
  327MOL0     C45051   1.866   0.654   6.453 -0.0766 -0.2643 -0.4350
  327MOL0     C45052   1.896   0.565   6.564  0.0738 -0.5508 -0.0263
  327MOL0     C45053   1.932   0.499   6.656 -0.6305  0.3461  0.1499
  327MOL0     C45054   2.034   1.190   6.459 -0.1185 -0.9414 -0.0517
  327MOL0     C45055   2.094   1.321   6.461 -0.2620 -0.5306 -0.0155
  327MOL0     C45056   2.000   1.434   6.424 -0.2257  0.1360  0.7374
  327MOL0     H45057   2.495   1.599   6.756  1.0535 -0.3548  0.2395
  327MOL0     H45058   2.676   1.773   6.775  0.6845  2.8822 -1.0748
  327MOL0     H45059   2.713   2.021   6.456 -0.5525 -0.1390 -0.5398
  327MOL0     H45060   2.839   1.933   6.374  1.9104 -2.3256  0.0047
  327MOL0     H45061   2.911   2.147   6.438 -0.4317 -1.0989 -0.8759
  327MOL0     H45062   2.869   2.141   6.604 -0.8927  0.8525 -0.2955
  327MOL0     H45063   3.082   2.062   6.659 -0.7739 -0.4884  0.3871
  327MOL0     H45064   3.047   1.922   6.561 -1.7915 -0.0892 -0.2198
  327MOL0     H45065   3.101   2.072   6.352  2.0470 -0.6795 -1.2118
  327MOL0     H45066   3.158   2.193   6.464 -0.5589 -0.1654  0.3761
  327MOL0     H45067   3.335   2.061   6.364  0.2084  0.5953  0.1592
  327MOL0     H45068   3.274   1.908   6.436  1.3159  0.3515 -1.2423
  327MOL0     H45069   3.386   2.127   6.598 -1.1134 -0.0497 -1.4494
  327MOL0     H45070   3.285   2.013   6.668 -0.6233 -0.6098  1.2820
  327MOL0     H45071   3.418   1.818   6.611 -0.3208 -0.3055 -0.4660
  327MOL0     H45072   3.537   1.950   6.665  1.1416  0.9961 -0.5694
  327MOL0     H45073   3.605   1.812   6.470 -1.0314 -0.8676  0.1795
  327MOL0     H45074   3.508   1.930   6.376 -1.7164  0.9277  0.4238
  327MOL0     H45075   3.808   1.926   6.298  1.6931  4.5079 -3.3395
  327MOL0     H45076   4.019   2.239   6.392 -1.4279  0.6581  0.1664
  327MOL0     H45077   3.977   2.170   6.239 -1.2566 -0.7812  0.4037
  327MOL0     H45078   4.100   2.019   6.472 -2.0342  2.5558  0.6380
  327MOL0     H45079   4.056   1.937   6.320  2.3654 -0.7563  0.6828
  327MOL0     H45080   4.206   2.064   6.196 -3.1784  0.8387  0.1562
  327MOL0     H45081   4.256   2.149   6.352  0.7015  1.8550 -3.0763
  327MOL0     H45082   4.335   1.975   6.441 -4.0356  0.0734  1.1846
  327MOL0     H45083   4.276   1.851   6.324 -2.1912  0.9369  2.8500
  327MOL0     H45084   4.658   1.946   6.128 -1.0840  2.3087  0.6927
  327MOL0     H45085   4.879   1.917   6.078  1.2723  0.5235 -0.3336
  327MOL0     H45086   4.947   1.757   6.109  2.1792  1.3659 -1.1557
  327MOL0     H45087   4.971   1.882   6.228  0.5672 -0.9777 -0.2624
  327MOL0     H45088   4.906   1.448   6.698  0.9339 -2.6690 -1.2893
  327MOL0     H45089   5.107   1.353   6.827  0.1881 -0.1969 -0.8533
  327MOL0     H45090   5.445   1.496   6.867  3.3093 -1.1358 -0.6275
  327MOL0     H45091   5.347   1.363   6.947  0.0142 -0.6046 -0.0074
  327MOL0     H45092   5.517   1.206   6.887 -1.8027 -0.1020  2.2225
  327MOL0     H45093   5.609   1.322   6.800  3.7550 -1.0409  2.7283
  327MOL0     H45094   5.542   1.327   7.094 -0.9034 -2.8064 -1.7429
  327MOL0     H45095   5.626   1.461   7.018  1.5865 -1.0599  2.4354
  327MOL0     H45096   5.808   1.283   6.942  0.6655 -1.6196  0.1526
  327MOL0     H45097   5.736   1.182   7.064  1.0874 -0.6119 -0.0860
  327MOL0     H45098   5.818   1.461   7.129  1.1220  1.0611  0.5438
  327MOL0     H45099   5.775   1.337   7.248  1.3133  0.9794  1.3993
  327MOL0     H45100   6.022   1.352   7.074  0.8527  0.1340  1.0891
  327MOL0     H45101   5.960   1.201   7.144 -1.5586 -0.1868 -1.3889
  327MOL0     H45102   5.972   1.299   7.363 -2.4239  1.8526 -0.5848
  327MOL0     H45103   5.997   1.457   7.311 -3.5972 -0.7883 -2.5805
  327MOL0     H45104   6.228   1.368   7.220  0.2679 -0.1018  0.0781
  327MOL0     H45105   6.195   1.214   7.306 -1.4204  0.1663  0.8094
  327MOL0     H45106   5.372   1.559   6.569  0.2096 -0.7042 -5.0063
  327MOL0     H45107   5.191   1.680   6.476 -1.6847  0.3286 -0.8983
  327MOL0     H45108   4.666   1.642   6.518  2.8609 -1.1317 -1.2555
  327MOL0     H45109   4.471   1.796   6.478  2.0977 -0.9139  1.2602
  327MOL0     H45110   2.705   1.759   6.348  2.1586  1.0767  2.0112
  327MOL0     H45111   2.518   1.588   6.329 -0.3528  0.0930  0.5479
  327MOL0     H45112   2.418   1.223   6.498 -0.5267 -0.8479 -0.8614
  327MOL0     H45113   2.306   1.008   6.497  0.5295 -0.2682  3.1206
  327MOL0     H45114   2.191   0.889   6.619  0.7116  1.6330 -1.9821
  327MOL0     H45115   2.030   0.842   6.650 -2.0051  1.0886 -1.6682
  327MOL0     H45116   2.156   0.655   6.521  0.5062  0.2174  0.6105
  327MOL0     H45117   2.191   0.764   6.391  0.5391  1.4760  0.1911
  327MOL0     H45118   1.965   0.783   6.310  2.0835 -1.2180 -0.5589
  327MOL0     H45119   2.024   0.632   6.306 -0.6771  1.5288 -2.3914
  327MOL0     H45120   1.812   0.592   6.380  0.3220 -0.7230 -0.3516
  327MOL0     H45121   1.810   0.741   6.486 -1.1668 -0.4591 -1.7044
  327MOL0     H45122   1.979   0.423   6.716 -1.9719 -0.6715 -0.0387
  327MOL0     H45123   1.926   1.187   6.450 -0.0401 -1.5647 -0.8098
  327MOL0     H45124   1.904   1.405   6.381  0.3137 -2.1993  0.9631
  327MOL0     H45125   1.973   1.499   6.507  2.5615  2.6556 -0.1239
  327MOL0     H45126   2.042   1.491   6.340  1.6371 -1.5117  0.4635
  328MOL0     O45127   7.988   1.104   7.083  0.4482 -0.3382 -0.2380
  328MOL0     C45128   7.970   1.009   7.160  0.1162  0.0351 -0.2971
  328MOL0     O45129   8.075   0.937   7.208  0.0973  0.4663  1.3615
  328MOL0     C45130   8.203   0.976   7.172 -0.6243  0.2311 -1.3080
  328MOL0     C45131   8.264   1.092   7.213  0.2649 -0.4989  0.3010
  328MOL0     C45132   8.385   1.133   7.176  0.8318 -0.2466 -0.1040
  328MOL0     C45133   8.462   1.057   7.093 -0.5790  0.7140  0.8472
  328MOL0     O45134   8.583   1.114   7.054 -0.4838  0.0902 -0.2406
  328MOL0     C45135   8.682   1.038   6.980 -0.1274  0.2704  0.8452
  328MOL0     C45136   8.787   1.131   6.926  0.3162  0.0610  0.6699
  328MOL0     C45137   8.870   1.053   6.824 -0.3103 -0.1069 -0.8149
  328MOL0     C45138   8.874   1.109   6.684  0.0381  0.3981 -0.6842
  328MOL0     C45139   8.973   1.036   6.586 -0.8611  0.6307  0.6118
  328MOL0     C45140   8.991   1.124   6.458 -1.2643 -0.7931 -0.1500
  328MOL0     C45141   9.073   1.054   6.351  0.1869 -1.0738 -0.7212
  328MOL0     C45142   8.999   0.939   6.276 -0.2703  0.0501 -0.4186
  328MOL0     N45143   8.890   0.968   6.181 -0.1027  0.2908  0.2584
  328MOL0     C45144   8.906   0.995   6.047  0.2450  0.2567  0.7936
  328MOL0     C45145   8.787   1.047   6.007  0.4208  0.6773  0.0010
  328MOL0     C45146   8.738   1.113   5.877  0.3826  0.1261  0.1554
  328MOL0     C45147   8.837   1.228   5.848 -0.2031  1.1062  0.7412
  328MOL0     C45148   8.798   1.304   5.719  0.7064 -0.1470 -0.7621
  328MOL0     C45149   8.725   1.424   5.749 -0.2826  0.1592 -1.0784
  328MOL0     O45150   8.717   1.512   5.640 -0.4212  0.0734 -0.1474
  328MOL0     C45151   8.821   1.592   5.618  0.3268  0.2979  0.9516
  328MOL0     C45152   8.871   1.695   5.699  0.5180  0.3634  0.1096
  328MOL0     C45153   8.966   1.788   5.651  0.6290  0.2198  0.3645
  328MOL0     C45154   8.999   1.905   5.740 -0.1616  0.2485  0.5008
  328MOL0     C45155   9.015   1.773   5.516  0.6671 -0.7795 -0.8211
  328MOL0     C45156   9.080   1.885   5.447 -0.1937  1.4967  0.0962
  328MOL0     O45157   9.047   2.014   5.491 -0.4521  0.4951 -0.1197
  328MOL0     C45158   9.085   2.126   5.429 -0.1451 -1.3017 -0.5611
  328MOL0     C45159   9.145   2.143   5.307 -0.3519 -1.2463 -0.4493
  328MOL0     C45160   9.182   2.267   5.262 -0.0991  0.3605  0.2984
  328MOL0     C45161   9.174   2.381   5.344 -0.3875  0.2712 -0.0943
  328MOL0     O45162   9.219   2.508   5.313  0.3386  0.0507 -0.5182
  328MOL0     C45163   9.246   2.539   5.175  0.1874  0.4134  0.1905
  328MOL0     C45164   9.130   2.582   5.088  1.0305 -0.6433 -0.5397
  328MOL0     C45165   9.022   2.472   5.052 -0.2150 -0.0796 -0.4834
  328MOL0     C45166   8.902   2.524   4.973 -0.1247  0.2618  0.5585
  328MOL0     C45167   8.825   2.406   4.902 -0.5854 -0.1837  0.4857
  328MOL0     C45168   8.909   2.357   4.780  0.0649 -0.9239 -0.2586
  328MOL0     C45169   9.001   2.461   4.708  0.4316  0.2650 -0.1430
  328MOL0     C45170   9.077   2.393   4.598  0.3065 -0.7999  0.4679
  328MOL0    Cl45171   9.164   2.252   4.636 -0.3971  0.0425 -0.6551
  328MOL0     C45172   9.098   2.370   5.455  0.3225  0.1546  0.4413
  328MOL0     C45173   9.052   2.244   5.500 -0.2230 -0.1563  0.3188
  328MOL0     O45174   9.170   1.855   5.367 -1.0946  0.0724 -0.1209
  328MOL0     C45175   8.982   1.654   5.442  0.7606 -0.3127 -0.3155
  328MOL0     C45176   8.878   1.566   5.489  0.3260  0.0274  0.3132
  328MOL0     N45177   8.711   1.069   6.119 -0.1627 -0.9262 -0.3633
  328MOL0     N45178   8.775   1.019   6.219 -0.1417 -0.4695 -0.1399
  328MOL0     C45179   8.407   0.929   7.040  0.3614  0.1327 -0.0286
  328MOL0     C45180   8.278   0.895   7.082 -0.3234  0.3179 -0.0089
  328MOL0     C45181   7.826   0.978   7.211 -0.2592 -0.0879 -0.1352
  328MOL0     C45182   7.807   0.867   7.307 -1.2611  0.2244  0.1487
  328MOL0     C45183   7.689   0.811   7.338  0.2126  0.8013 -1.2383
  328MOL0     C45184   7.573   0.864   7.277  1.0009  1.3091  1.1484
  328MOL0     O45185   7.445   0.811   7.286 -1.1909 -0.3668 -0.3681
  328MOL0     C45186   7.418   0.711   7.389  0.2940 -0.0183  0.0489
  328MOL0     C45187   7.271   0.730   7.424  0.1375 -0.2319 -0.2319
  328MOL0     C45188   7.243   0.873   7.468 -0.1264  0.2066  0.0417
  328MOL0     C45189   7.101   0.900   7.521  0.6702 -0.1964  0.2560
  328MOL0     C45190   7.083   0.825   7.649 -0.2287 -0.4736  0.0056
  328MOL0     C45191   7.064   0.749   7.738 -0.1718  0.4197  0.0590
  328MOL0     C45192   7.583   0.981   7.189  0.9952 -0.6156 -0.5103
  328MOL0     C45193   7.710   1.034   7.155  0.3351  0.0726 -0.4700
  328MOL0     C45194   7.710   1.132   7.040  0.1919  0.2150 -0.6997
  328MOL0     H45195   8.198   1.157   7.270 -0.3580 -0.7664 -0.0910
  328MOL0     H45196   8.427   1.228   7.208 -2.1565  1.4212 -0.7797
  328MOL0     H45197   8.633   0.971   6.909 -1.0343 -0.4014  2.0875
  328MOL0     H45198   8.729   0.970   7.052  0.1852  1.3564  1.6886
  328MOL0     H45199   8.741   1.216   6.875  0.0234  0.4961  1.6402
  328MOL0     H45200   8.863   1.163   6.997  0.3396  1.0398  0.2209
  328MOL0     H45201   8.976   1.060   6.853 -0.5976 -2.1747  0.9761
  328MOL0     H45202   8.845   0.947   6.830  0.8969 -0.3587  0.6111
  328MOL0     H45203   8.774   1.119   6.641 -0.1056  2.8723  0.0772
  328MOL0     H45204   8.914   1.210   6.699 -0.1543  0.2023  1.4684
  328MOL0     H45205   8.931   0.939   6.559  0.2879  0.4553 -0.6030
  328MOL0     H45206   9.073   1.008   6.619 -0.5100 -3.0496 -2.8784
  328MOL0     H45207   8.894   1.146   6.414 -1.2638 -1.6970 -0.6169
  328MOL0     H45208   9.044   1.215   6.489  2.1941 -2.8759  0.6115
  328MOL0     H45209   9.171   1.017   6.384  1.0673 -0.3317 -2.3798
  328MOL0     H45210   9.102   1.122   6.271  4.8333 -2.8446 -0.9038
  328MOL0     H45211   9.080   0.881   6.228 -1.7853 -0.3513 -2.6406
  328MOL0     H45212   8.944   0.878   6.348  1.6441  0.0677  1.1731
  328MOL0     H45213   8.997   0.993   5.989 -0.3210  0.0641 -0.1069
  328MOL0     H45214   8.636   1.149   5.888 -0.2251 -2.2975  4.9052
  328MOL0     H45215   8.740   1.036   5.799  0.4752  0.0029  0.2764
  328MOL0     H45216   8.871   1.294   5.928 -0.4920  0.8409  1.0909
  328MOL0     H45217   8.929   1.183   5.809  0.2695  1.6493  1.2116
  328MOL0     H45218   8.896   1.333   5.679 -0.1447 -1.0229 -3.7304
  328MOL0     H45219   8.742   1.242   5.649 -0.7243  1.9288 -1.5341
  328MOL0     H45220   8.629   1.395   5.793  1.3952 -3.4651  0.5983
  328MOL0     H45221   8.780   1.476   5.829  0.2571 -1.9606  0.0037
  328MOL0     H45222   8.830   1.712   5.799  1.4742  1.4018  0.3464
  328MOL0     H45223   9.000   1.882   5.847  1.8635 -0.9147  0.2640
  328MOL0     H45224   8.929   1.989   5.727 -0.8300 -0.2432  0.8955
  328MOL0     H45225   9.097   1.946   5.713  0.1591 -2.3524 -2.9846
  328MOL0     H45226   9.177   2.057   5.249 -2.1376 -1.2740 -1.4862
  328MOL0     H45227   9.238   2.262   5.169  0.8346 -0.7116  0.8868
  328MOL0     H45228   9.312   2.627   5.177 -0.7714  1.1436  0.9677
  328MOL0     H45229   9.303   2.457   5.131 -2.1499 -1.8196  1.0932
  328MOL0     H45230   9.089   2.671   5.137  1.7532 -0.9471  0.6393
  328MOL0     H45231   9.177   2.625   4.999  0.8090  0.5544 -0.0961
  328MOL0     H45232   8.974   2.430   5.141 -4.2597 -0.6944 -2.7466
  328MOL0     H45233   9.075   2.399   4.991  1.9529  0.3037  0.8053
  328MOL0     H45234   8.911   2.607   4.903  0.6523 -0.2733  0.0144
  328MOL0     H45235   8.831   2.570   5.043 -1.0958 -0.9597  0.4226
  328MOL0     H45236   8.795   2.324   4.968  0.0724 -0.1625  0.8202
  328MOL0     H45237   8.736   2.450   4.857 -1.3835 -3.1602 -1.0705
  328MOL0     H45238   8.836   2.317   4.709  0.1821 -1.1865 -0.2322
  328MOL0     H45239   8.966   2.274   4.822  2.1022  0.4625 -0.0993
  328MOL0     H45240   9.075   2.498   4.780 -0.4184  1.4060  0.1831
  328MOL0     H45241   8.948   2.544   4.661  0.6661 -0.2399 -1.3384
  328MOL0     H45242   9.149   2.469   4.568  0.8641  0.5544  4.5665
  328MOL0     H45243   9.016   2.371   4.510  2.3068 -0.0607 -1.1611
  328MOL0     H45244   9.080   2.454   5.521 -2.5711 -0.3374  0.3890
  328MOL0     H45245   9.002   2.232   5.596  0.8200  2.1092  1.2119
  328MOL0     H45246   9.027   1.625   5.348 -1.0878 -1.9532 -0.7566
  328MOL0     H45247   8.850   1.480   5.429 -0.7594 -0.3391  1.3061
  328MOL0     H45248   8.453   0.855   6.975 -0.2159  1.1567 -1.6468
  328MOL0     H45249   8.245   0.796   7.050  0.7647  0.2801 -1.0977
  328MOL0     H45250   7.888   0.820   7.362 -1.1628  1.1693  0.8271
  328MOL0     H45251   7.678   0.725   7.403  2.1895  1.0749 -0.4808
  328MOL0     H45252   7.430   0.608   7.356  0.4761 -0.7346  2.1978
  328MOL0     H45253   7.485   0.732   7.473 -0.3095  2.3909  0.0067
  328MOL0     H45254   7.254   0.661   7.506  0.4969 -2.8489 -2.2266
  328MOL0     H45255   7.207   0.714   7.337  1.0565 -0.0538 -0.9626
  328MOL0     H45256   7.320   0.914   7.534  2.3495 -2.6535 -0.8658
  328MOL0     H45257   7.235   0.928   7.375 -0.8093  0.4836  0.2545
  328MOL0     H45258   7.027   0.886   7.441 -1.5268  3.4313  1.3936
  328MOL0     H45259   7.106   1.005   7.553 -0.5807 -0.0996  0.1974
  328MOL0     H45260   7.046   0.683   7.820  1.2915  0.6900  0.6301
  328MOL0     H45261   7.504   1.004   7.118  1.0005 -0.7781 -0.5706
  328MOL0     H45262   7.763   1.219   7.079 -1.0977  0.1924  1.2618
  328MOL0     H45263   7.758   1.092   6.950  1.5923  1.3309 -0.4800
  328MOL0     H45264   7.605   1.156   7.020  0.6038  1.5208 -1.3898
  329MOL0     O45265   9.106   5.268   4.661  0.3824 -0.2472  0.0923
  329MOL0     C45266   9.137   5.179   4.590 -0.3293  0.6892  0.5975
  329MOL0     O45267   9.198   5.067   4.623 -0.1835  0.5181  0.0951
  329MOL0     C45268   9.223   5.048   4.758  0.4881 -0.6339  0.3481
  329MOL0     C45269   9.351   4.996   4.792 -0.7995 -0.6110 -0.0858
  329MOL0     C45270   9.392   4.985   4.925  0.0595 -0.3540 -0.3877
  329MOL0     C45271   9.300   5.006   5.034  0.2422 -0.5180  0.6352
  329MOL0     O45272   9.331   4.997   5.172 -0.0695 -0.4156  0.5240
  329MOL0     C45273   9.421   4.897   5.206 -0.6962  0.9537 -0.2768
  329MOL0     C45274   9.443   4.883   5.355  0.0535  0.0163  0.5278
  329MOL0     C45275   9.306   4.905   5.435 -0.5696 -0.2600  0.1828
  329MOL0     C45276   9.317   4.859   5.583  0.2776 -0.2916  0.5900
  329MOL0     C45277   9.185   4.856   5.654 -0.0448  0.2659 -0.2315
  329MOL0     C45278   9.141   4.996   5.708 -0.4736 -0.5959  0.3631
  329MOL0     C45279   9.000   4.986   5.769 -0.2775  0.4513  0.2723
  329MOL0     C45280   8.946   5.114   5.810  0.3775  0.3486 -0.1560
  329MOL0     N45281   8.805   5.091   5.856  0.0707  0.4031 -0.2872
  329MOL0     C45282   8.693   5.071   5.776 -0.8070 -0.2103 -1.1299
  329MOL0     C45283   8.591   5.112   5.854 -0.8660 -0.7364 -0.4335
  329MOL0     C45284   8.454   5.117   5.794 -0.0834 -0.7670 -0.0518
  329MOL0     C45285   8.359   5.024   5.869  0.8702  0.2431 -0.7549
  329MOL0     C45286   8.218   5.062   5.817 -0.2017 -0.7641 -0.4241
  329MOL0     C45287   8.179   5.011   5.676  0.2715 -0.4712 -0.0890
  329MOL0     O45288   8.213   4.870   5.655  0.9568  0.0887 -0.1641
  329MOL0     C45289   8.171   4.761   5.722  0.4337 -0.3409  0.3204
  329MOL0     C45290   8.255   4.645   5.715  0.1223 -0.4979  0.5828
  329MOL0     C45291   8.210   4.525   5.765 -0.4111 -0.2470  0.8072
  329MOL0     C45292   8.299   4.405   5.747 -0.3375 -0.3532  0.8339
  329MOL0     C45293   8.084   4.530   5.844 -0.1459 -0.3441  0.7933
  329MOL0     C45294   8.028   4.396   5.902 -0.6053 -0.2947  0.5421
  329MOL0     O45295   8.085   4.278   5.879 -0.4173  0.1676 -0.3529
  329MOL0     C45296   8.044   4.174   5.962 -0.6063  0.0801 -0.8374
  329MOL0     C45297   8.096   4.147   6.094  0.0144 -1.3218 -0.0404
  329MOL0     C45298   8.059   4.032   6.157  0.4319 -0.1796 -1.1465
  329MOL0     C45299   7.963   3.951   6.094 -0.7710  0.9377  0.0803
  329MOL0     O45300   7.913   3.831   6.150  0.5153 -0.6419  0.3745
  329MOL0     C45301   7.984   3.784   6.268 -0.2164  0.8362  0.4387
  329MOL0     C45302   7.932   3.645   6.304  0.6726  0.3169 -0.3601
  329MOL0     C45303   7.783   3.631   6.349 -0.1568  0.5452 -0.2220
  329MOL0     C45304   7.735   3.489   6.369  0.2933 -0.0858 -0.1885
  329MOL0     C45305   7.579   3.492   6.403 -0.0504 -0.2974 -0.0988
  329MOL0     C45306   7.512   3.355   6.389  0.0629 -0.2177 -0.0157
  329MOL0     C45307   7.365   3.381   6.415 -0.0320  0.0281  0.4781
  329MOL0     C45308   7.276   3.260   6.388 -1.0935  0.4868 -0.4534
  329MOL0    Cl45309   7.322   3.108   6.478 -0.3984  0.0046 -0.1212
  329MOL0     C45310   7.909   3.982   5.977 -0.1654  0.8420 -0.2275
  329MOL0     C45311   7.948   4.096   5.911 -1.1613  0.2764 -0.6105
  329MOL0     O45312   7.932   4.407   5.971  0.2165  0.0750  0.0111
  329MOL0     C45313   8.012   4.652   5.855  0.1743  0.6341  0.4640
  329MOL0     C45314   8.052   4.765   5.791  0.8071  0.6043 -0.1983
  329MOL0     N45315   8.629   5.145   5.979  0.0152  0.0426 -0.3647
  329MOL0     N45316   8.759   5.136   5.972 -0.1690 -0.0210 -0.0690
  329MOL0     C45317   9.169   5.023   4.998  0.0022 -0.2572  0.3174
  329MOL0     C45318   9.125   5.047   4.863 -0.9436 -0.3041 -0.3318
  329MOL0     C45319   9.103   5.211   4.446  0.2767 -0.9299 -0.9140
  329MOL0     C45320   9.208   5.175   4.365 -0.2192  0.6994  0.0178
  329MOL0     C45321   9.213   5.205   4.231  1.0626 -0.1603 -0.4588
  329MOL0     C45322   9.104   5.264   4.170 -0.0896  0.7553  0.4228
  329MOL0     O45323   9.109   5.303   4.041  0.2142  0.5257  0.3525
  329MOL0     C45324   8.992   5.271   3.955  0.8128 -0.2932  0.2194
  329MOL0     C45325   9.034   5.246   3.813  0.1414 -0.1651 -0.7292
  329MOL0     C45326   9.141   5.352   3.760  0.6177 -0.3705  0.4187
  329MOL0     C45327   9.168   5.346   3.610  0.2087 -0.4256 -0.1429
  329MOL0     C45328   9.236   5.230   3.557  0.0540  0.1383 -0.3531
  329MOL0     C45329   9.296   5.133   3.507  0.8137 -0.6644 -0.2617
  329MOL0     C45330   8.992   5.303   4.252  0.3304  1.3734  1.2598
  329MOL0     C45331   8.994   5.282   4.387  0.8704  0.3194 -1.0582
  329MOL0     C45332   8.867   5.313   4.463  0.2895  0.7358 -0.1131
  329MOL0     H45333   9.429   4.983   4.718 -0.4141 -0.4358  0.2819
  329MOL0     H45334   9.489   4.948   4.955  0.2856 -0.1672 -0.8856
  329MOL0     H45335   9.521   4.915   5.166  1.6002 -4.0248  2.3161
  329MOL0     H45336   9.378   4.800   5.181 -1.8363  1.0200  1.2543
  329MOL0     H45337   9.485   4.784   5.373  0.6958  0.3065  0.6507
  329MOL0     H45338   9.515   4.961   5.380  0.8174 -0.3662 -0.4673
  329MOL0     H45339   9.288   5.013   5.440 -1.5287 -0.4460  1.4797
  329MOL0     H45340   9.223   4.858   5.382  0.1396 -0.5960 -0.6385
  329MOL0     H45341   9.368   4.763   5.595  0.1210 -0.2696  1.4723
  329MOL0     H45342   9.379   4.930   5.639  0.8563  1.1878 -1.7778
  329MOL0     H45343   9.185   4.801   5.748 -0.2520  2.2986  1.0373
  329MOL0     H45344   9.116   4.818   5.577  0.9431  0.9459 -1.5002
  329MOL0     H45345   9.210   5.027   5.787  0.4403 -2.4180  0.3369
  329MOL0     H45346   9.142   5.071   5.628  0.2248 -1.1223 -0.1371
  329MOL0     H45347   9.015   4.938   5.866  1.5275  1.6117  0.6153
  329MOL0     H45348   8.925   4.927   5.716 -1.2033 -0.8612  2.8854
  329MOL0     H45349   9.000   5.166   5.891  1.2817 -1.3985  0.4272
  329MOL0     H45350   8.941   5.183   5.726 -2.8540  1.9580  1.1924
  329MOL0     H45351   8.680   5.030   5.677 -1.0591  1.9419 -2.0552
  329MOL0     H45352   8.460   5.086   5.689  0.4122 -1.9696  0.3220
  329MOL0     H45353   8.426   5.223   5.790  2.0164 -0.1628 -0.3584
  329MOL0     H45354   8.382   4.918   5.852  0.8972  0.5871 -3.3559
  329MOL0     H45355   8.351   5.044   5.976 -2.3398 -3.2221 -0.1258
  329MOL0     H45356   8.142   5.022   5.885 -1.9553  1.2886 -1.0841
  329MOL0     H45357   8.203   5.169   5.829 -0.1257 -0.9561  1.6542
  329MOL0     H45358   8.074   5.031   5.650 -0.2396 -1.6648  0.9934
  329MOL0     H45359   8.241   5.057   5.598  2.1041 -3.1947 -0.3493
  329MOL0     H45360   8.349   4.645   5.661 -0.9203 -3.1241 -1.4336
  329MOL0     H45361   8.253   4.340   5.672  1.2939 -1.8969  1.0815
  329MOL0     H45362   8.313   4.349   5.840  1.9809 -0.9427  0.2045
  329MOL0     H45363   8.401   4.426   5.714 -1.7167  0.2922 -3.7035
  329MOL0     H45364   8.170   4.216   6.134 -0.1693 -1.7923  1.1514
  329MOL0     H45365   8.108   4.013   6.252  0.1740  3.6334 -0.0874
  329MOL0     H45366   8.087   3.770   6.235  0.1144  0.2059  1.6936
  329MOL0     H45367   7.980   3.856   6.350  1.7332  0.9057  0.5204
  329MOL0     H45368   7.945   3.584   6.214  0.6414 -2.4699  1.4223
  329MOL0     H45369   7.994   3.600   6.382  0.0033  1.6537  1.0055
  329MOL0     H45370   7.721   3.679   6.273  1.1528  1.6392 -0.6395
  329MOL0     H45371   7.766   3.678   6.446 -0.0916 -3.2637  1.8127
  329MOL0     H45372   7.784   3.435   6.450 -0.8325 -2.6497 -1.1328
  329MOL0     H45373   7.762   3.421   6.288 -1.3204  1.0245 -1.7433
  329MOL0     H45374   7.566   3.536   6.503  0.1276 -3.4584  1.4363
  329MOL0     H45375   7.542   3.560   6.326  1.7591  1.8274  0.7832
  329MOL0     H45376   7.554   3.280   6.456  0.1376 -1.2616 -1.1987
  329MOL0     H45377   7.524   3.311   6.290  0.6014 -2.4592  0.9747
  329MOL0     H45378   7.325   3.468   6.360 -1.3536  0.0642  1.4514
  329MOL0     H45379   7.367   3.402   6.522 -1.2099 -1.3208  0.7871
  329MOL0     H45380   7.279   3.246   6.280  2.8077  1.4061 -0.6085
  329MOL0     H45381   7.173   3.277   6.421 -2.4259 -2.8951 -2.4251
  329MOL0     H45382   7.838   3.913   5.933 -0.6354 -0.3041  2.1596
  329MOL0     H45383   7.899   4.125   5.818  1.4920  1.2763 -1.7936
  329MOL0     H45384   7.911   4.660   5.894 -0.9195  0.5418 -2.1462
  329MOL0     H45385   7.980   4.843   5.769  0.5841  0.3520 -0.3638
  329MOL0     H45386   9.101   5.041   5.080 -2.6329  1.7076 -2.0762
  329MOL0     H45387   9.023   5.084   4.857 -2.0754 -2.2506  3.5436
  329MOL0     H45388   9.300   5.126   4.395 -1.1317 -1.6966 -0.8008
  329MOL0     H45389   9.295   5.171   4.168  1.4035 -2.4313  1.1085
  329MOL0     H45390   8.952   5.187   4.014 -1.6187  1.3495  1.0875
  329MOL0     H45391   8.920   5.353   3.961  1.3438  0.3600 -1.6714
  329MOL0     H45392   8.950   5.245   3.742  0.0189 -0.9155 -0.5887
  329MOL0     H45393   9.089   5.152   3.811  1.6033  0.6227  0.4867
  329MOL0     H45394   9.103   5.452   3.784  1.6102  0.0740  0.1803
  329MOL0     H45395   9.233   5.339   3.817 -0.1952 -2.5028  1.3902
  329MOL0     H45396   9.223   5.431   3.569  5.0088 -1.9788  2.3244
  329MOL0     H45397   9.068   5.347   3.565 -1.0064  1.8155  2.3436
  329MOL0     H45398   9.347   5.055   3.453  0.3840 -1.3719  0.3213
  329MOL0     H45399   8.907   5.351   4.206 -1.8888 -2.6885  0.6346
  329MOL0     H45400   8.848   5.420   4.470 -0.2340  0.6181  0.3759
  329MOL0     H45401   8.783   5.267   4.410  1.5042 -0.3211 -1.1749
  329MOL0     H45402   8.864   5.271   4.564 -0.8730 -1.4501 -0.9799
  330MOL0     O45403   6.798   5.616   3.727  0.2571 -0.3026  0.1360
  330MOL0     C45404   6.839   5.604   3.844 -0.1195  0.7318 -0.2948
  330MOL0     O45405   6.761   5.584   3.947  0.2350  0.3562  0.0899
  330MOL0     C45406   6.628   5.570   3.912 -0.1720  0.1425  0.6973
  330MOL0     C45407   6.571   5.440   3.895  0.5157  0.3454  0.1985
  330MOL0     C45408   6.429   5.421   3.862 -0.3334 -0.1220 -0.8241
  330MOL0     C45409   6.354   5.541   3.840  0.3293  1.2067  0.0146
  330MOL0     O45410   6.220   5.521   3.801  0.1201 -0.5591 -0.2509
  330MOL0     C45411   6.113   5.613   3.844  0.1455 -0.7343  0.0454
  330MOL0     C45412   6.037   5.684   3.727  0.1839 -0.5168  0.2278
  330MOL0     C45413   6.124   5.780   3.639  0.4841  1.1856 -0.3030
  330MOL0     C45414   6.040   5.880   3.564 -0.4074 -0.7697  1.0363
  330MOL0     C45415   6.128   5.980   3.485 -0.2672  0.7839  1.0113
  330MOL0     C45416   6.046   6.065   3.392 -0.9311 -0.6795 -0.1218
  330MOL0     C45417   6.127   6.191   3.366  0.3697 -0.5633  0.6026
  330MOL0     C45418   6.045   6.284   3.267 -0.6961  0.2179  0.6677
  330MOL0     N45419   6.100   6.410   3.252  0.4602 -0.2800  0.0277
  330MOL0     C45420   6.129   6.500   3.354  0.7759 -0.9609 -0.6204
  330MOL0     C45421   6.152   6.618   3.294 -0.0250  0.0268  0.4289
  330MOL0     C45422   6.175   6.753   3.364  0.3739  0.0613  0.3089
  330MOL0     C45423   6.322   6.786   3.380 -0.9507 -0.4514 -0.5073
  330MOL0     C45424   6.383   6.868   3.270  0.2140 -0.2722  0.2225
  330MOL0     C45425   6.532   6.856   3.261 -0.1201  0.1645  0.0723
  330MOL0     O45426   6.596   6.928   3.365  0.5569  0.4031 -0.7880
  330MOL0     C45427   6.725   6.945   3.322 -0.8873 -0.1109  0.1522
  330MOL0     C45428   6.819   6.847   3.344  0.3191  0.6991 -0.1890
  330MOL0     C45429   6.953   6.865   3.300  0.2870  0.8262 -0.4288
  330MOL0     C45430   7.070   6.776   3.342  0.9404  0.4549 -0.6183
  330MOL0     C45431   6.984   6.988   3.232 -0.4980  0.5064 -0.9586
  330MOL0     C45432   7.120   7.024   3.184 -0.4009  0.3190 -0.2732
  330MOL0     O45433   7.152   7.150   3.193  0.2595 -0.3166  1.1362
  330MOL0     C45434   7.269   7.207   3.149  0.2018 -0.4508  0.5465
  330MOL0     C45435   7.395   7.150   3.109 -0.4234 -0.0278  0.3827
  330MOL0     C45436   7.501   7.228   3.076 -0.1332  0.2416  0.6554
  330MOL0     C45437   7.490   7.372   3.079  0.3110 -0.0754  0.0770
  330MOL0     O45438   7.595   7.456   3.049 -0.1914 -0.3675  0.5594
  330MOL0     C45439   7.709   7.398   2.991  0.0513  0.2035  0.3415
  330MOL0     C45440   7.808   7.507   2.937  0.5806 -0.0435 -0.3299
  330MOL0     C45441   7.948   7.445   2.895 -0.1324 -0.2240 -0.3415
  330MOL0     C45442   8.067   7.545   2.894  0.3823 -0.5871 -0.2142
  330MOL0     C45443   8.199   7.483   2.931  0.6704  0.4881 -0.5632
  330MOL0     C45444   8.305   7.594   2.939  0.1368  0.8750 -0.6573
  330MOL0     C45445   8.446   7.533   2.952  0.3146 -0.0452  0.3590
  330MOL0     C45446   8.561   7.623   2.980 -0.0910  0.9158  0.2134
  330MOL0    Cl45447   8.712   7.543   2.984 -0.1042  0.2009 -0.2620
  330MOL0     C45448   7.370   7.429   3.129 -0.4776  0.3977  0.9390
  330MOL0     C45449   7.262   7.351   3.155  1.1833  0.4880  0.1398
  330MOL0     O45450   7.194   6.937   3.143  0.3064  0.2020  0.2854
  330MOL0     C45451   6.886   7.082   3.201 -0.3116 -0.6409 -0.7913
  330MOL0     C45452   6.759   7.060   3.253  0.7771 -0.8848 -0.3749
  330MOL0     N45453   6.146   6.596   3.159 -0.0889 -0.4863  0.1007
  330MOL0     N45454   6.116   6.471   3.131  0.1047 -0.9407  0.0612
  330MOL0     C45455   6.418   5.661   3.850 -0.5467 -0.1249  0.4718
  330MOL0     C45456   6.550   5.678   3.892 -0.1739 -0.1855 -0.1654
  330MOL0     C45457   6.987   5.604   3.849  0.8777 -0.3104 -0.0500
  330MOL0     C45458   7.056   5.549   3.741  0.7068 -0.5190  0.4118
  330MOL0     C45459   7.188   5.530   3.742 -0.0752 -0.0930  0.4113
  330MOL0     C45460   7.260   5.576   3.854 -0.0777  1.3604  0.1093
  330MOL0     O45461   7.395   5.558   3.852  0.5907 -1.1501  0.1424
  330MOL0     C45462   7.455   5.675   3.800  0.2252  0.3245 -0.8917
  330MOL0     C45463   7.510   5.655   3.658 -0.6795 -0.2434  0.6196
  330MOL0     C45464   7.580   5.783   3.607 -0.1928  1.2444  0.5841
  330MOL0     C45465   7.647   5.774   3.466  0.1829  0.6331 -0.7138
  330MOL0     C45466   7.778   5.707   3.462 -0.3016 -0.3881  0.1205
  330MOL0     C45467   7.873   5.624   3.474 -0.3590 -0.1201 -0.1688
  330MOL0     C45468   7.195   5.629   3.961 -0.3829  0.2050  0.0695
  330MOL0     C45469   7.060   5.651   3.960  0.4101  0.8243  0.4120
  330MOL0     C45470   6.995   5.716   4.082  0.0411 -0.6297 -0.7054
  330MOL0     H45471   6.630   5.353   3.921  0.6491 -0.0024 -1.2124
  330MOL0     H45472   6.383   5.326   3.839 -2.7032  0.9063 -0.5707
  330MOL0     H45473   6.154   5.692   3.908 -0.5635  0.1147 -0.5361
  330MOL0     H45474   6.033   5.566   3.903 -2.5313  0.8636 -2.0650
  330MOL0     H45475   5.984   5.606   3.672  2.5504 -1.6073 -0.6366
  330MOL0     H45476   5.958   5.744   3.774 -0.8040  0.0195 -1.9795
  330MOL0     H45477   6.198   5.836   3.697  0.7198 -1.4322  2.0769
  330MOL0     H45478   6.175   5.714   3.568 -3.4942 -2.5958 -0.0438
  330MOL0     H45479   5.962   5.832   3.504  0.2047 -0.6186  0.1000
  330MOL0     H45480   5.980   5.943   3.630  1.9788  0.4872  2.1631
  330MOL0     H45481   6.203   5.931   3.422 -1.3629  0.1979  0.1461
  330MOL0     H45482   6.184   6.038   3.559  2.7329 -2.1862  1.3195
  330MOL0     H45483   6.037   6.006   3.300 -2.5295 -0.2784 -0.2548
  330MOL0     H45484   5.949   6.091   3.437 -0.6634 -1.7792  1.1432
  330MOL0     H45485   6.230   6.182   3.331 -0.2784  0.1509 -1.6652
  330MOL0     H45486   6.138   6.252   3.456  4.0802 -0.9593  0.5589
  330MOL0     H45487   6.043   6.235   3.169  2.1186  0.7795  0.2280
  330MOL0     H45488   5.943   6.288   3.305 -0.5441  1.4392  0.9698
  330MOL0     H45489   6.123   6.479   3.461 -0.4409 -1.7120 -0.8215
  330MOL0     H45490   6.126   6.745   3.461  0.5485  4.3258  0.9671
  330MOL0     H45491   6.140   6.836   3.301  3.7398  0.5975 -1.0838
  330MOL0     H45492   6.323   6.850   3.469 -0.1958 -1.6114  0.3566
  330MOL0     H45493   6.389   6.701   3.397  0.3559  0.5699 -0.3836
  330MOL0     H45494   6.337   6.831   3.178 -2.4753  0.1627  1.3199
  330MOL0     H45495   6.358   6.974   3.280 -0.4598 -0.5702  2.1585
  330MOL0     H45496   6.558   6.749   3.258  0.2311  0.2273  0.6881
  330MOL0     H45497   6.558   6.899   3.164  3.0266 -1.1921  0.1778
  330MOL0     H45498   6.793   6.766   3.412  1.9701  0.7222  0.5079
  330MOL0     H45499   7.021   6.709   3.414 -0.4420 -0.1097 -2.0251
  330MOL0     H45500   7.140   6.830   3.407 -0.1411 -0.5999  1.5618
  330MOL0     H45501   7.126   6.723   3.264  0.7952 -0.9642  0.1955
  330MOL0     H45502   7.408   7.042   3.111  1.6182  0.1446  3.7233
  330MOL0     H45503   7.589   7.172   3.045  0.3748  1.4889 -0.2405
  330MOL0     H45504   7.755   7.335   3.068 -1.3915 -0.6259  0.5565
  330MOL0     H45505   7.671   7.338   2.909  0.2001  1.2340 -0.5016
  330MOL0     H45506   7.747   7.549   2.857 -1.6143 -2.3870  0.0048
  330MOL0     H45507   7.828   7.580   3.016  1.0287  0.3290 -0.7768
  330MOL0     H45508   7.946   7.392   2.799 -2.4382 -1.7254  0.4264
  330MOL0     H45509   7.966   7.374   2.977 -1.5761 -0.0513  0.1550
  330MOL0     H45510   8.047   7.621   2.971 -1.1574 -2.5792  1.4729
  330MOL0     H45511   8.061   7.595   2.797  0.9496 -0.5558 -0.2368
  330MOL0     H45512   8.180   7.435   3.027 -0.7613  2.1223  0.0282
  330MOL0     H45513   8.219   7.406   2.856  0.9585 -0.7058  0.6922
  330MOL0     H45514   8.282   7.654   3.027  1.8702 -1.1010  1.2526
  330MOL0     H45515   8.296   7.648   2.844  1.9454 -0.1023 -1.4454
  330MOL0     H45516   8.457   7.487   2.853 -2.1559 -0.1963  0.0872
  330MOL0     H45517   8.435   7.455   3.029  1.6884 -0.2605  0.3673
  330MOL0     H45518   8.536   7.673   3.074 -2.6986 -1.5680  1.0061
  330MOL0     H45519   8.580   7.700   2.906 -0.9463  1.0173  0.0801
  330MOL0     H45520   7.363   7.537   3.141  0.6648  0.5665  0.2167
  330MOL0     H45521   7.170   7.395   3.192  0.6785 -2.0205  2.1541
  330MOL0     H45522   6.903   7.176   3.151 -1.8376  1.6615  2.6535
  330MOL0     H45523   6.678   7.125   3.222  0.5372 -0.7676  0.4613
  330MOL0     H45524   6.368   5.756   3.838 -3.5547 -1.7887 -1.6814
  330MOL0     H45525   6.590   5.775   3.918 -1.2739  0.7142 -1.6795
  330MOL0     H45526   6.999   5.537   3.649  0.9083  0.3265  0.1679
  330MOL0     H45527   7.231   5.489   3.651 -0.7721  1.6474 -0.7536
  330MOL0     H45528   7.383   5.758   3.795  0.8044  0.8544 -0.5582
  330MOL0     H45529   7.541   5.694   3.864  1.0734 -2.0762 -1.2286
  330MOL0     H45530   7.427   5.635   3.588  0.4261 -0.7219 -0.5961
  330MOL0     H45531   7.587   5.577   3.656  1.6996  1.9155  2.5700
  330MOL0     H45532   7.508   5.865   3.611  0.3382  1.6901  1.3607
  330MOL0     H45533   7.664   5.808   3.672  1.6170  3.0176 -2.2496
  330MOL0     H45534   7.673   5.874   3.431  2.4634 -0.7508 -3.3640
  330MOL0     H45535   7.576   5.728   3.397 -1.9751  0.8478  1.2262
  330MOL0     H45536   7.961   5.564   3.465  0.6098  1.3815 -1.2731
  330MOL0     H45537   7.259   5.656   4.045 -0.7747 -2.8840  1.4898
  330MOL0     H45538   6.932   5.642   4.133 -0.7793 -0.4717 -1.4533
  330MOL0     H45539   7.068   5.757   4.152  2.7641 -2.5172 -2.2505
  330MOL0     H45540   6.934   5.801   4.052  0.1514 -0.1916  0.2741
  331MOL0     O45541   9.335   3.648   4.833  0.4810 -0.4042 -0.5668
  331MOL0     C45542   9.352   3.526   4.841 -0.5351  0.5382 -0.4695
  331MOL0     O45543   9.354   3.438   4.736  0.3180  0.3321  0.3392
  331MOL0     C45544   9.357   3.483   4.607 -0.2958 -0.4055 -0.5728
  331MOL0     C45545   9.432   3.595   4.565 -0.5563  0.4210 -0.3595
  331MOL0     C45546   9.437   3.633   4.428  0.2844 -0.2774  0.7226
  331MOL0     C45547   9.371   3.560   4.331  0.2144 -0.8402 -0.8125
  331MOL0     O45548   9.387   3.583   4.193 -0.1018 -0.1580  0.8555
  331MOL0     C45549   9.392   3.717   4.147 -0.2834 -0.7313 -0.2488
  331MOL0     C45550   9.521   3.739   4.087  0.1660  0.2149 -0.1765
  331MOL0     C45551   9.546   3.660   3.957  0.6828 -0.4731 -0.0556
  331MOL0     C45552   9.663   3.716   3.877 -0.0134 -0.2894  0.2756
  331MOL0     C45553   9.791   3.650   3.919 -0.3204 -0.8481  0.0225
  331MOL0     C45554   9.892   3.650   3.799 -0.0055 -0.6325  0.1104
  331MOL0     C45555  10.027   3.611   3.855  0.3072 -0.2646 -0.1592
  331MOL0     C45556  10.148   3.642   3.765  0.6029  0.2314 -0.4880
  331MOL0     N45557  10.276   3.676   3.836  0.2326  1.5042  0.0776
  331MOL0     C45558  10.395   3.699   3.770 -0.5493 -0.1472  0.5590
  331MOL0     C45559  10.496   3.692   3.860  0.3576 -0.2071 -0.5611
  331MOL0     C45560  10.642   3.696   3.829 -0.0920 -0.4787 -0.3527
  331MOL0     C45561  10.676   3.782   3.704 -0.1612  0.5059 -0.8289
  331MOL0     C45562  10.655   3.934   3.730 -0.1950  0.4027 -0.0261
  331MOL0     C45563  10.702   4.014   3.603 -0.2641 -0.0155 -0.4213
  331MOL0     O45564  10.830   3.978   3.547  0.5391  0.1667  0.0957
  331MOL0     C45565  10.909   4.069   3.474  1.0275 -0.0727  0.6169
  331MOL0     C45566  11.044   4.051   3.468 -0.0200 -0.0596 -0.0871
  331MOL0     C45567  11.129   4.142   3.404 -0.1383  0.0293  0.3028
  331MOL0     C45568  11.268   4.116   3.453 -0.3433 -0.1267 -0.4529
  331MOL0     C45569  11.075   4.258   3.350  0.6799  0.1196 -1.1422
  331MOL0     C45570  11.168   4.355   3.288 -0.6941  0.0594 -0.4550
  331MOL0     O45571  11.306   4.349   3.292 -0.2319  1.2568 -0.0820
  331MOL0     C45572  11.383   4.451   3.242  0.2719 -0.8509 -0.0846
  331MOL0     C45573  11.375   4.490   3.109 -0.2871  0.4615 -0.4986
  331MOL0     C45574  11.451   4.600   3.058  0.4816 -0.3027 -0.5202
  331MOL0     C45575  11.511   4.687   3.155 -0.3699  0.6173 -0.8838
  331MOL0     O45576  11.580   4.801   3.125 -0.5314  0.0545 -0.0711
  331MOL0     C45577  11.626   4.823   2.991 -0.0903  0.1064  0.4559
  331MOL0     C45578  11.540   4.928   2.922 -0.2974 -0.0488 -0.1477
  331MOL0     C45579  11.579   4.943   2.775 -0.5243  0.2985  0.7180
  331MOL0     C45580  11.507   5.068   2.725 -0.3161 -0.1659  0.2599
  331MOL0     C45581  11.536   5.124   2.587 -0.1161 -0.9076 -0.5571
  331MOL0     C45582  11.418   5.153   2.499  0.5405 -0.0862  0.6449
  331MOL0     C45583  11.464   5.222   2.368  0.3850  0.4549  0.3069
  331MOL0     C45584  11.353   5.301   2.298  0.1080  0.8917  1.3313
  331MOL0    Cl45585  11.407   5.370   2.140  0.0698  0.0165  0.1967
  331MOL0     C45586  11.514   4.640   3.287  0.1648 -0.3319  0.4130
  331MOL0     C45587  11.453   4.524   3.330 -0.6821 -0.9788  0.2816
  331MOL0     O45588  11.111   4.434   3.220 -0.4428 -0.1571  0.1443
  331MOL0     C45589  10.935   4.263   3.336 -0.2087  0.4826 -0.0979
  331MOL0     C45590  10.851   4.179   3.401  1.0272 -0.4134  0.9630
  331MOL0     N45591  10.436   3.672   3.985 -0.3264  0.9960 -0.2230
  331MOL0     N45592  10.301   3.665   3.971 -0.3238  0.1681  0.1312
  331MOL0     C45593   9.287   3.457   4.378 -0.2632  0.1890  0.2543
  331MOL0     C45594   9.276   3.417   4.510 -0.7473  0.3039  0.1285
  331MOL0     C45595   9.367   3.466   4.977 -0.1819 -0.0653  0.1006
  331MOL0     C45596   9.354   3.550   5.100  0.0606  0.2209  1.2401
  331MOL0     C45597   9.352   3.488   5.229  0.4666 -0.3156 -0.2323
  331MOL0     C45598   9.389   3.353   5.247  0.5115 -0.2206  0.3718
  331MOL0     O45599   9.380   3.284   5.360  0.5294  0.1111 -0.2714
  331MOL0     C45600   9.330   3.341   5.488  0.5047  0.3230  0.3482
  331MOL0     C45601   9.187   3.370   5.466 -0.3035 -0.2623  0.2179
  331MOL0     C45602   9.101   3.356   5.587 -0.8547  0.4397  0.0506
  331MOL0     C45603   9.151   3.426   5.720  0.8790 -0.1553 -0.3429
  331MOL0     C45604   9.058   3.422   5.828  0.7545  0.0319  0.1894
  331MOL0     C45605   8.986   3.424   5.926 -0.4694 -0.5579  0.6385
  331MOL0     C45606   9.413   3.285   5.136 -0.1169  0.8555 -0.4511
  331MOL0     C45607   9.406   3.337   5.004 -0.3410  0.3260 -0.2789
  331MOL0     C45608   9.426   3.221   4.906 -0.1993  0.0310  0.8738
  331MOL0     H45609   9.484   3.643   4.647  1.7687  0.5959 -1.8620
  331MOL0     H45610   9.505   3.713   4.399 -0.9229  0.7986  0.7735
  331MOL0     H45611   9.380   3.796   4.222  1.5750  2.3659 -2.9799
  331MOL0     H45612   9.310   3.729   4.075  1.0985  0.7089 -1.6541
  331MOL0     H45613   9.534   3.843   4.056 -2.8209  0.7784  0.1422
  331MOL0     H45614   9.596   3.731   4.166  0.2177  2.5259  0.0819
  331MOL0     H45615   9.552   3.554   3.983 -1.0825 -0.7623 -0.7010
  331MOL0     H45616   9.457   3.657   3.895  0.5425 -0.6938  0.1531
  331MOL0     H45617   9.658   3.690   3.771  0.2040 -3.9316  1.0217
  331MOL0     H45618   9.667   3.825   3.886 -2.6021 -0.1085 -0.0273
  331MOL0     H45619   9.783   3.542   3.937  4.5678 -1.5187 -0.3128
  331MOL0     H45620   9.811   3.716   4.004 -5.9710  3.3400 -1.2944
  331MOL0     H45621   9.870   3.586   3.713 -0.6421  2.0997 -1.9279
  331MOL0     H45622   9.904   3.750   3.754 -1.5058 -0.2141  0.5946
  331MOL0     H45623  10.031   3.503   3.873  0.5651 -0.0409  1.2902
  331MOL0     H45624  10.036   3.666   3.950 -2.2354  1.8906 -1.0497
  331MOL0     H45625  10.164   3.554   3.702  2.3896 -0.1373  0.3952
  331MOL0     H45626  10.135   3.728   3.700  1.0839  0.9085  0.2940
  331MOL0     H45627  10.408   3.712   3.663  1.0079  1.5340  0.9193
  331MOL0     H45628  10.688   3.598   3.812 -0.5099 -0.4440 -1.8936
  331MOL0     H45629  10.692   3.737   3.917  0.9649 -2.4186  0.0235
  331MOL0     H45630  10.778   3.761   3.672  1.5211  4.2433  1.2909
  331MOL0     H45631  10.609   3.747   3.625  0.2246 -1.3409 -0.3834
  331MOL0     H45632  10.549   3.959   3.739 -0.6131 -1.6704  1.4545
  331MOL0     H45633  10.721   3.958   3.813  1.8097 -2.7547 -0.5433
  331MOL0     H45634  10.628   4.004   3.523 -0.0251 -0.9082 -0.5392
  331MOL0     H45635  10.692   4.116   3.641 -2.3388 -0.6832  1.0147
  331MOL0     H45636  11.081   3.975   3.536 -2.2450 -1.7146 -0.6074
  331MOL0     H45637  11.301   4.212   3.494 -3.5969  0.8801  0.1548
  331MOL0     H45638  11.317   4.087   3.359  3.2749  2.1818  0.5179
  331MOL0     H45639  11.282   4.045   3.534  1.0767 -2.7652 -2.8378
  331MOL0     H45640  11.324   4.420   3.043 -0.4552  0.9936 -0.9427
  331MOL0     H45641  11.454   4.632   2.954 -0.2258  3.3187  0.4468
  331MOL0     H45642  11.725   4.869   2.994 -0.6996  1.4779  0.1995
  331MOL0     H45643  11.627   4.734   2.927 -1.7699 -2.0496  3.1941
  331MOL0     H45644  11.434   4.904   2.929 -0.2948 -0.4139 -1.1728
  331MOL0     H45645  11.552   5.020   2.980 -2.9313 -0.1134  0.6098
  331MOL0     H45646  11.546   4.857   2.717  2.7726 -0.1237 -0.7892
  331MOL0     H45647  11.688   4.939   2.764 -0.8215 -1.8337 -3.7364
  331MOL0     H45648  11.526   5.148   2.797  0.8950  0.3678 -0.6142
  331MOL0     H45649  11.401   5.039   2.723 -0.1990 -0.6559  0.7383
  331MOL0     H45650  11.609   5.204   2.601 -1.2107 -0.0911  0.6793
  331MOL0     H45651  11.595   5.044   2.539  0.5926 -1.2080  0.7618
  331MOL0     H45652  11.356   5.230   2.546  0.3486  0.0045  0.2559
  331MOL0     H45653  11.341   5.077   2.486 -0.9614  1.2681  1.1731
  331MOL0     H45654  11.520   5.150   2.308  0.8531 -1.6154  3.0075
  331MOL0     H45655  11.540   5.294   2.400  0.5291 -0.7935  3.0935
  331MOL0     H45656  11.324   5.386   2.361  2.3506  2.8406 -0.1228
  331MOL0     H45657  11.266   5.235   2.286  1.3433 -0.7507  1.0874
  331MOL0     H45658  11.552   4.705   3.366  0.8631 -1.3288  0.9176
  331MOL0     H45659  11.462   4.504   3.436  1.3428  0.7816  0.5130
  331MOL0     H45660  10.889   4.350   3.289 -1.1891  0.3554  0.6063
  331MOL0     H45661  10.743   4.178   3.389  0.8690 -4.3981  1.4720
  331MOL0     H45662   9.235   3.410   4.295  0.8941 -1.6992  0.5449
  331MOL0     H45663   9.215   3.333   4.538 -2.3593  0.4602 -2.5398
  331MOL0     H45664   9.335   3.656   5.087 -0.3464 -0.1312 -1.9554
  331MOL0     H45665   9.335   3.559   5.308  4.1874  0.0054  0.4792
  331MOL0     H45666   9.346   3.277   5.575 -1.2225 -1.7744 -0.7525
  331MOL0     H45667   9.381   3.437   5.499  0.9547  0.2849 -1.1656
  331MOL0     H45668   9.145   3.306   5.387  1.6425 -2.0699  0.5702
  331MOL0     H45669   9.179   3.475   5.437 -0.7705 -0.2902  0.2314
  331MOL0     H45670   8.999   3.392   5.571 -0.6449  1.3730  0.7295
  331MOL0     H45671   9.096   3.250   5.613 -0.8547 -0.3044 -2.7090
  331MOL0     H45672   9.164   3.534   5.705  0.1900 -0.1464 -0.9047
  331MOL0     H45673   9.247   3.381   5.748  1.0462 -0.9380 -2.0402
  331MOL0     H45674   8.909   3.422   6.000 -2.9921  1.8963 -1.6522
  331MOL0     H45675   9.445   3.182   5.155 -0.7114  1.0147  1.6631
  331MOL0     H45676   9.339   3.220   4.841 -0.2025 -0.7130  0.8798
  331MOL0     H45677   9.516   3.242   4.847 -1.8546  2.0792 -1.0515
  331MOL0     H45678   9.437   3.119   4.945  3.3363  0.1205  0.4529
  332MOL0     O45679  10.082   7.695   5.761  0.6460 -0.5766  0.2864
  332MOL0     C45680  10.026   7.582   5.783  0.9213 -0.2253  0.0341
  332MOL0     O45681  10.066   7.494   5.885 -0.1109  0.0750  0.4265
  332MOL0     C45682  10.181   7.531   5.947  0.2650  0.5509 -0.1681
  332MOL0     C45683  10.173   7.611   6.062  0.3562  0.1118  0.3814
  332MOL0     C45684  10.284   7.625   6.142  0.0380 -0.9089  0.5013
  332MOL0     C45685  10.408   7.568   6.106 -0.3863  0.3831 -0.4039
  332MOL0     O45686  10.522   7.587   6.185 -0.4025  0.8930 -0.2558
  332MOL0     C45687  10.641   7.550   6.135  0.6134 -0.1994 -0.3148
  332MOL0     C45688  10.749   7.560   6.230  0.3744  0.0597  0.2433
  332MOL0     C45689  10.891   7.543   6.154 -0.5434  0.3673  0.0082
  332MOL0     C45690  11.007   7.573   6.244  0.4988 -0.1686 -0.4915
  332MOL0     C45691  11.130   7.506   6.197  0.1093 -0.3364  0.5490
  332MOL0     C45692  11.246   7.555   6.291  0.0934 -0.0300 -0.0361
  332MOL0     C45693  11.365   7.459   6.293 -0.3301 -0.2494  0.8541
  332MOL0     C45694  11.401   7.413   6.429 -0.1869  1.3591 -0.7242
  332MOL0     N45695  11.540   7.346   6.431  0.7688 -0.4523  0.1383
  332MOL0     C45696  11.581   7.233   6.350 -0.7741  0.8138 -0.5365
  332MOL0     C45697  11.710   7.225   6.382  0.0639 -0.4262 -0.8122
  332MOL0     C45698  11.820   7.127   6.334  0.6231 -0.2527 -0.5658
  332MOL0     C45699  11.897   7.181   6.218  0.2828  0.2114 -0.2617
  332MOL0     C45700  12.013   7.097   6.171  0.8187 -0.3047  0.0889
  332MOL0     C45701  12.146   7.132   6.248  0.5084 -0.5128  0.0344
  332MOL0     O45702  12.167   7.264   6.297 -0.3664 -0.0776  0.4869
  332MOL0     C45703  12.287   7.274   6.370 -0.1575 -0.5427  1.2295
  332MOL0     C45704  12.328   7.402   6.399 -0.6305 -0.8917  0.5209
  332MOL0     C45705  12.452   7.424   6.464 -0.6997  0.0958  0.2507
  332MOL0     C45706  12.494   7.570   6.483  0.4384  0.4663 -0.5143
  332MOL0     C45707  12.524   7.308   6.504 -0.3121 -0.2019  0.2981
  332MOL0     C45708  12.648   7.310   6.569  0.1843  0.0077  0.1379
  332MOL0     O45709  12.634   7.361   6.692 -0.0777 -0.1094 -0.7892
  332MOL0     C45710  12.737   7.359   6.787  0.3428  0.1262 -0.1251
  332MOL0     C45711  12.724   7.276   6.901 -0.8569 -0.0341  0.7666
  332MOL0     C45712  12.820   7.263   6.999  0.0087 -0.6849  0.7158
  332MOL0     C45713  12.940   7.327   6.977  0.0138  0.0752 -0.9699
  332MOL0     O45714  13.042   7.311   7.068  0.7616 -0.5169 -0.4209
  332MOL0     C45715  13.027   7.252   7.192  0.3131 -0.5247 -0.1079
  332MOL0     C45716  13.154   7.290   7.267  0.4879 -0.7442  1.3356
  332MOL0     C45717  13.174   7.220   7.394  0.4969  0.0090  0.0214
  332MOL0     C45718  13.292   7.292   7.451 -0.1434 -1.0906 -0.3067
  332MOL0     C45719  13.322   7.247   7.596  0.1521  0.1235 -0.2230
  332MOL0     C45720  13.350   7.103   7.634  0.1545  0.0359 -0.4128
  332MOL0     C45721  13.464   7.032   7.550  0.5883 -0.2581 -0.3722
  332MOL0     C45722  13.592   7.107   7.573 -1.1162  0.0379  0.3360
  332MOL0    Cl45723  13.624   7.137   7.755 -0.1091 -0.1622  0.2041
  332MOL0     C45724  12.960   7.407   6.868  0.9535  0.3223  0.4659
  332MOL0     C45725  12.857   7.423   6.769 -0.0952  0.5815  0.6826
  332MOL0     O45726  12.752   7.255   6.526  0.6276 -0.6916  0.2139
  332MOL0     C45727  12.480   7.182   6.481  0.4605 -0.3821  0.0833
  332MOL0     C45728  12.364   7.158   6.408 -0.1408  0.9010  0.7593
  332MOL0     N45729  11.745   7.325   6.469 -0.0085  0.3374 -0.7466
  332MOL0     N45730  11.650   7.399   6.492  0.0553  0.3231 -0.4198
  332MOL0     C45731  10.407   7.481   5.995 -0.7079  0.4034  0.2413
  332MOL0     C45732  10.303   7.470   5.916  0.3965 -0.1699  0.0699
  332MOL0     C45733   9.902   7.548   5.716  0.8035  0.2773  0.3703
  332MOL0     C45734   9.808   7.455   5.777 -0.3127  0.3399  0.1156
  332MOL0     C45735   9.688   7.424   5.724  0.0679  0.6737  0.0545
  332MOL0     C45736   9.647   7.471   5.605  0.1175  0.1160 -0.2371
  332MOL0     O45737   9.523   7.419   5.573  0.7038 -0.0032  0.5814
  332MOL0     C45738   9.451   7.464   5.452  0.1496 -0.3040 -0.4970
  332MOL0     C45739   9.392   7.604   5.467 -0.2695 -0.4175 -0.3614
  332MOL0     C45740   9.369   7.674   5.335  0.4127  0.2750  0.4254
  332MOL0     C45741   9.253   7.648   5.239 -0.7281  0.3727  0.0600
  332MOL0     C45742   9.249   7.516   5.179 -0.6170 -0.0364  0.3898
  332MOL0     C45743   9.240   7.403   5.133 -0.4253  0.4055 -0.9568
  332MOL0     C45744   9.730   7.561   5.541 -0.5522  0.0749 -1.0199
  332MOL0     C45745   9.862   7.592   5.588  0.2667 -0.5200  0.2379
  332MOL0     C45746   9.941   7.688   5.501  0.9716 -0.5178 -0.5091
  332MOL0     H45747  10.073   7.648   6.078  0.0745  0.2087 -1.3928
  332MOL0     H45748  10.285   7.688   6.230 -0.7484  0.4875 -0.4446
  332MOL0     H45749  10.669   7.606   6.045 -0.5624 -2.1594 -1.9893
  332MOL0     H45750  10.632   7.443   6.116  2.9949 -0.7973  1.4146
  332MOL0     H45751  10.737   7.657   6.279  0.7446  0.4272 -0.3852
  332MOL0     H45752  10.741   7.473   6.297  3.3986 -0.4254  0.1120
  332MOL0     H45753  10.914   7.445   6.112  0.7125  0.9664 -0.7609
  332MOL0     H45754  10.901   7.606   6.065 -0.7416  0.2388 -0.1044
  332MOL0     H45755  11.025   7.681   6.245  1.4817 -0.3244  0.5797
  332MOL0     H45756  10.995   7.544   6.349  0.5140  1.2966 -0.0625
  332MOL0     H45757  11.154   7.535   6.094 -0.3453 -0.3811  0.4256
  332MOL0     H45758  11.124   7.397   6.200  2.0654 -0.4623  1.1719
  332MOL0     H45759  11.276   7.652   6.252 -1.0653 -0.1626 -1.3543
  332MOL0     H45760  11.203   7.569   6.391 -2.2121 -3.3818 -0.3823
  332MOL0     H45761  11.456   7.502   6.252  1.4845 -0.0904  4.6496
  332MOL0     H45762  11.331   7.369   6.241 -1.4645 -0.2639  1.5891
  332MOL0     H45763  11.397   7.503   6.491 -1.4499  0.4324  0.6364
  332MOL0     H45764  11.324   7.346   6.470 -2.6318  4.2865 -0.2011
  332MOL0     H45765  11.529   7.176   6.274  1.2272  1.4987 -2.5069
  332MOL0     H45766  11.758   7.040   6.309 -3.3768  1.6757  1.7717
  332MOL0     H45767  11.883   7.107   6.421 -0.2824 -0.1399  0.1266
  332MOL0     H45768  11.823   7.191   6.138  1.3438  0.8817 -1.1777
  332MOL0     H45769  11.927   7.284   6.239 -1.9966  1.1935 -1.4537
  332MOL0     H45770  11.988   6.991   6.165  0.3748 -0.3841  2.3004
  332MOL0     H45771  12.028   7.128   6.068 -0.7560  1.1937  0.2497
  332MOL0     H45772  12.150   7.053   6.323  1.1835 -0.6265 -0.1231
  332MOL0     H45773  12.224   7.111   6.175  2.9182 -1.6037  2.7327
  332MOL0     H45774  12.265   7.482   6.362 -1.8670 -2.8206 -1.7914
  332MOL0     H45775  12.571   7.586   6.408 -0.4529  1.8035 -1.1865
  332MOL0     H45776  12.529   7.565   6.587 -0.8242 -0.1838 -0.0836
  332MOL0     H45777  12.421   7.651   6.475  0.2499  0.2160 -1.4747
  332MOL0     H45778  12.623   7.236   6.898 -0.3364 -1.3973 -1.4541
  332MOL0     H45779  12.807   7.201   7.087  2.7516  1.0039  2.4751
  332MOL0     H45780  12.933   7.281   7.241  0.5482  1.5472 -0.7566
  332MOL0     H45781  13.040   7.144   7.179 -0.2433 -0.4127 -2.0558
  332MOL0     H45782  13.228   7.269   7.190 -1.5816 -1.8783 -0.4519
  332MOL0     H45783  13.146   7.397   7.290 -0.0247 -0.7833  1.3475
  332MOL0     H45784  13.190   7.113   7.383 -0.1298  0.0127 -1.1849
  332MOL0     H45785  13.090   7.236   7.462  1.1172 -0.9796  1.0356
  332MOL0     H45786  13.270   7.395   7.480 -0.0940 -1.7829  2.4442
  332MOL0     H45787  13.382   7.284   7.390  0.3809 -4.2656  0.6992
  332MOL0     H45788  13.413   7.305   7.615 -0.4051  0.5455  1.2635
  332MOL0     H45789  13.245   7.280   7.666 -0.6712 -1.9948 -0.0483
  332MOL0     H45790  13.262   7.038   7.621  1.5972 -2.9353  2.9155
  332MOL0     H45791  13.369   7.108   7.741 -2.4159  3.6176  0.0577
  332MOL0     H45792  13.451   7.041   7.441  0.8222 -2.8383 -0.6863
  332MOL0     H45793  13.468   6.926   7.576  2.0013 -0.0402  0.4055
  332MOL0     H45794  13.590   7.198   7.514 -3.3696 -0.9569 -1.2489
  332MOL0     H45795  13.671   7.042   7.535 -1.4678  0.0507 -0.4356
  332MOL0     H45796  13.053   7.464   6.860  0.3771  1.4777  1.6263
  332MOL0     H45797  12.865   7.496   6.689  0.3932  1.1481  1.2318
  332MOL0     H45798  12.526   7.089   6.512 -4.0463 -3.5666 -1.6150
  332MOL0     H45799  12.333   7.058   6.382 -0.7591  1.4674 -0.7954
  332MOL0     H45800  10.496   7.425   5.968  0.3401 -1.5172  6.0438
  332MOL0     H45801  10.305   7.402   5.831 -0.9399 -1.3940  0.9591
  332MOL0     H45802   9.827   7.400   5.869 -0.5043  1.7564  1.0358
  332MOL0     H45803   9.634   7.347   5.777  1.4191  0.5329  1.2883
  332MOL0     H45804   9.517   7.473   5.365  1.2863  1.2156  0.4794
  332MOL0     H45805   9.374   7.387   5.439  0.3684 -1.1171  2.4135
  332MOL0     H45806   9.465   7.660   5.525 -0.7967 -0.5202  0.4206
  332MOL0     H45807   9.299   7.601   5.525  0.6874  0.7968  1.2933
  332MOL0     H45808   9.364   7.779   5.364  2.3754  0.4775  0.2265
  332MOL0     H45809   9.467   7.669   5.286  0.9915  1.0504  1.4678
  332MOL0     H45810   9.249   7.718   5.156 -1.3067  0.1384 -0.1148
  332MOL0     H45811   9.162   7.662   5.298 -0.8172  1.3994 -0.3033
  332MOL0     H45812   9.247   7.299   5.109 -0.1563 -0.6185  2.9493
  332MOL0     H45813   9.707   7.608   5.446 -1.4807  2.1981  0.1879
  332MOL0     H45814   9.953   7.782   5.555  1.1996 -0.7346 -0.1782
  332MOL0     H45815  10.047   7.658   5.501  1.6818  1.7689  0.6019
  332MOL0     H45816   9.889   7.720   5.411 -1.7509  0.9899  1.4696
  333MOL0     O45817   4.967   9.541  10.619 -0.0216  0.4974 -0.3769
  333MOL0     C45818   4.969   9.597  10.518  0.4312 -1.2307 -0.0947
  333MOL0     O45819   5.034   9.551  10.410  0.1428  0.4108  1.1510
  333MOL0     C45820   5.089   9.424  10.392  0.2273 -0.8506  0.0638
  333MOL0     C45821   5.188   9.422  10.294  0.2244 -0.2353 -0.8603
  333MOL0     C45822   5.255   9.305  10.257 -0.5194 -0.3752  0.5489
  333MOL0     C45823   5.199   9.192  10.306 -0.2227  0.1430 -0.4782
  333MOL0     O45824   5.235   9.071  10.250 -0.1804 -0.4308 -0.1898
  333MOL0     C45825   5.368   9.028  10.275 -0.9003  0.1475 -0.8000
  333MOL0     C45826   5.411   8.930  10.163 -0.0446 -0.5820  0.2811
  333MOL0     C45827   5.430   9.025  10.045 -0.0163  0.1478 -0.1684
  333MOL0     C45828   5.543   8.980   9.949  0.6057 -0.3545  0.5191
  333MOL0     C45829   5.539   9.057   9.809  0.6985  0.0706  0.3190
  333MOL0     C45830   5.663   9.028   9.733  0.4554  0.0939  0.6408
  333MOL0     C45831   5.789   9.097   9.784  0.3223 -0.4165  0.0888
  333MOL0     C45832   5.913   9.055   9.702 -0.6123  0.7098  0.0391
  333MOL0     N45833   5.917   9.095   9.559 -0.1061  0.5748 -0.6207
  333MOL0     C45834   5.924   9.226   9.515 -0.0098  0.2409  0.1639
  333MOL0     C45835   5.938   9.219   9.377  0.7821  0.3334  0.0049
  333MOL0     C45836   5.942   9.319   9.276  0.6029 -0.3826  0.9302
  333MOL0     C45837   6.078   9.391   9.268 -0.2322  0.5769  0.7395
  333MOL0     C45838   6.105   9.483   9.390  0.0593  0.7377 -0.5858
  333MOL0     C45839   6.184   9.612   9.375  0.4196  0.2878  0.7780
  333MOL0     O45840   6.292   9.593   9.284 -0.5837 -0.2075 -0.2598
  333MOL0     C45841   6.385   9.690   9.270 -0.2987 -0.8751  0.2743
  333MOL0     C45842   6.475   9.663   9.171 -2.3306 -0.1562  0.3929
  333MOL0     C45843   6.572   9.754   9.132 -0.6452  0.2258  0.3837
  333MOL0     C45844   6.660   9.725   9.019 -0.2389 -0.4912  0.8462
  333MOL0     C45845   6.574   9.882   9.197  0.7589  0.2467 -0.2149
  333MOL0     C45846   6.657   9.997   9.168 -0.1415  0.7724 -0.7098
  333MOL0     O45847   6.633  10.113   9.230  0.3342  0.0540  0.4825
  333MOL0     C45848   6.706  10.225   9.195  0.3189  0.4978  0.1893
  333MOL0     C45849   6.825  10.262   9.261  0.4468 -0.9503 -0.0550
  333MOL0     C45850   6.889  10.379   9.210  0.1772 -1.0112 -0.4962
  333MOL0     C45851   6.838  10.454   9.101 -0.3317  0.0100 -0.3292
  333MOL0     O45852   6.902  10.571   9.068  0.0725 -0.5378  0.1562
  333MOL0     C45853   6.881  10.674   9.167  1.1805  0.5695 -1.0933
  333MOL0     C45854   6.993  10.784   9.180 -0.5317  0.2932 -0.0259
  333MOL0     C45855   6.940  10.901   9.268  0.1390  0.4511  0.0149
  333MOL0     C45856   7.050  10.990   9.316  0.0906  0.3736  0.4140
  333MOL0     C45857   7.122  11.069   9.197 -0.5146 -0.8639 -0.0776
  333MOL0     C45858   7.213  11.182   9.248  0.1448  0.0710 -0.7418
  333MOL0     C45859   7.273  11.241   9.124  0.6629 -0.0491 -0.6624
  333MOL0     C45860   7.397  11.328   9.152  0.0125  0.1616  0.9191
  333MOL0    Cl45861   7.481  11.355   9.002  0.2013 -0.4168 -0.6316
  333MOL0     C45862   6.737  10.406   9.030 -0.0225  0.3110  0.5139
  333MOL0     C45863   6.660  10.298   9.082 -0.8417 -0.2757  0.5319
  333MOL0     O45864   6.761   9.973   9.109  1.0748  0.0235 -0.4533
  333MOL0     C45865   6.485   9.903   9.303  1.3100 -0.9354  0.2556
  333MOL0     C45866   6.389   9.807   9.337 -0.5642 -0.9301  0.6406
  333MOL0     N45867   5.943   9.080   9.345  0.2745  0.9423 -0.1373
  333MOL0     N45868   5.936   9.011   9.453  0.5831  0.0243  0.4849
  333MOL0     C45869   5.115   9.192  10.418 -0.5108 -0.2836 -0.0666
  333MOL0     C45870   5.060   9.312  10.470 -0.5952  0.5728  0.0096
  333MOL0     C45871   4.892   9.726  10.514  0.4299  0.4959  0.3072
  333MOL0     C45872   4.829   9.783  10.628 -0.1261  0.3347 -0.2345
  333MOL0     C45873   4.791   9.910  10.623  0.1297  0.1101 -0.6881
  333MOL0     C45874   4.792   9.986  10.512 -0.2665  0.4541 -0.1648
  333MOL0     O45875   4.749  10.116  10.506  0.0243 -0.0431 -0.3522
  333MOL0     C45876   4.760  10.192  10.627  0.7795 -0.4219 -0.7867
  333MOL0     C45877   4.782  10.344  10.595  0.4057  0.6174 -0.2566
  333MOL0     C45878   4.932  10.387  10.576  0.0620  0.0307  0.0281
  333MOL0     C45879   4.954  10.535  10.564 -0.3164  0.0865 -0.0706
  333MOL0     C45880   4.902  10.581  10.435  0.1224 -0.1160 -0.1472
  333MOL0     C45881   4.824  10.616  10.343  0.9828 -0.3263 -0.1550
  333MOL0     C45882   4.839   9.933  10.398  0.2654  0.1091 -0.5356
  333MOL0     C45883   4.889   9.802  10.392  0.4103 -0.1320 -0.6020
  333MOL0     C45884   4.931   9.754  10.255  0.2780 -1.1831 -0.8893
  333MOL0     H45885   5.226   9.512  10.247 -2.5057  1.5457  0.1291
  333MOL0     H45886   5.335   9.299  10.184  0.4032  0.7585  1.4336
  333MOL0     H45887   5.360   8.974  10.369  1.0463  0.7600 -0.2429
  333MOL0     H45888   5.446   9.104  10.285  1.2758 -1.9221 -0.8636
  333MOL0     H45889   5.494   8.863  10.185 -0.3098 -0.6288  1.1861
  333MOL0     H45890   5.324   8.865  10.148 -1.1064  0.0881  2.8912
  333MOL0     H45891   5.339   9.023   9.983 -0.5390 -2.6739  0.5260
  333MOL0     H45892   5.455   9.127  10.076  1.9755  0.0316 -1.2357
  333MOL0     H45893   5.637   8.985  10.005 -0.8962  0.0235  3.1562
  333MOL0     H45894   5.530   8.877   9.914 -3.4001  1.0010 -2.8154
  333MOL0     H45895   5.522   9.164   9.824  0.8515 -0.1919  2.6957
  333MOL0     H45896   5.455   9.013   9.754 -1.4715  1.5610  2.2871
  333MOL0     H45897   5.676   8.920   9.728  0.3344  0.0207  1.8295
  333MOL0     H45898   5.660   9.062   9.629  0.7899 -0.6966  0.3668
  333MOL0     H45899   5.810   9.081   9.890  3.2287 -2.7493 -0.7083
  333MOL0     H45900   5.773   9.205   9.769 -1.2854 -0.0020  3.7037
  333MOL0     H45901   5.996   9.107   9.751 -0.8874  0.3550  0.8885
  333MOL0     H45902   5.927   8.946   9.699 -2.0772  0.5056  0.2156
  333MOL0     H45903   5.926   9.324   9.562  0.0412  0.9980 -1.3461
  333MOL0     H45904   5.867   9.394   9.302  1.0422  0.0240  1.0394
  333MOL0     H45905   5.920   9.265   9.183  0.2249  0.6117  0.4148
  333MOL0     H45906   6.157   9.319   9.247 -1.9080 -1.7786  2.0248
  333MOL0     H45907   6.063   9.465   9.189 -0.2351  2.4766  2.4350
  333MOL0     H45908   6.010   9.508   9.438  0.6179 -1.3402  1.8461
  333MOL0     H45909   6.156   9.424   9.467 -1.0275  1.4197  0.7206
  333MOL0     H45910   6.125   9.698   9.341  0.6259  0.3685  0.6245
  333MOL0     H45911   6.224   9.636   9.473  2.1434 -3.7298  1.2330
  333MOL0     H45912   6.464   9.566   9.123  1.4658 -0.0244 -1.0311
  333MOL0     H45913   6.646   9.624   8.979 -0.2584 -0.3207  0.4235
  333MOL0     H45914   6.765   9.725   9.049 -0.1980 -2.7081  0.8490
  333MOL0     H45915   6.632   9.789   8.935 -0.7431 -1.5779  0.1625
  333MOL0     H45916   6.869  10.215   9.347  1.1958  0.4389  0.3520
  333MOL0     H45917   6.974  10.411   9.268 -1.4506  1.3916  0.7384
  333MOL0     H45918   6.786  10.721   9.139  0.3641 -0.5800 -0.3720
  333MOL0     H45919   6.877  10.635   9.269  0.3248 -2.3018 -2.1230
  333MOL0     H45920   7.076  10.742   9.238 -0.5046 -0.8560 -0.8614
  333MOL0     H45921   7.039  10.813   9.086  1.4161 -1.5570  0.2678
  333MOL0     H45922   6.888  10.861   9.356 -1.1649 -0.1006 -0.9820
  333MOL0     H45923   6.867  10.957   9.210 -0.5216  0.8132  1.1564
  333MOL0     H45924   7.127  10.929   9.365  1.4689  1.3174 -0.5133
  333MOL0     H45925   7.015  11.063   9.389  3.2288  2.6001 -0.1220
  333MOL0     H45926   7.190  11.001   9.145  1.1937  1.7593 -1.5024
  333MOL0     H45927   7.042  11.113   9.136 -1.3880  0.5512  1.9477
  333MOL0     H45928   7.294  11.128   9.297 -2.1720 -1.5123  1.6350
  333MOL0     H45929   7.156  11.256   9.305  0.7793  0.4568 -0.5950
  333MOL0     H45930   7.188  11.298   9.083 -2.2412 -0.2983  4.2113
  333MOL0     H45931   7.303  11.152   9.068 -0.0201 -1.7124  1.5053
  333MOL0     H45932   7.457  11.262   9.216  1.3253 -2.6456 -2.8796
  333MOL0     H45933   7.371  11.420   9.206 -1.0468  0.3652  0.0787
  333MOL0     H45934   6.696  10.471   8.954  0.8246  1.3378  0.9013
  333MOL0     H45935   6.573  10.280   9.019 -2.4601  4.0908  1.1591
  333MOL0     H45936   6.474   9.994   9.361  0.2080 -1.5331  1.0213
  333MOL0     H45937   6.321   9.823   9.420 -1.8768 -1.8340 -0.2371
  333MOL0     H45938   5.096   9.090  10.450  3.7199 -2.7025 -3.9019
  333MOL0     H45939   4.987   9.315  10.550  0.5174 -0.5170  1.1055
  333MOL0     H45940   4.819   9.735  10.725 -0.2073 -1.2153 -0.9790
  333MOL0     H45941   4.755   9.942  10.720  0.2845 -2.5158  0.3264
  333MOL0     H45942   4.681  10.186  10.702  0.7309  0.3159 -0.7726
  333MOL0     H45943   4.844  10.151  10.684 -0.1563 -1.5251 -0.1673
  333MOL0     H45944   4.738  10.401  10.677  1.8877 -2.2365  2.7430
  333MOL0     H45945   4.711  10.375  10.518  1.3202  2.0201 -0.5944
  333MOL0     H45946   4.984  10.341  10.660 -0.4652 -0.4907  0.0804
  333MOL0     H45947   4.975  10.344  10.485  0.9341  2.7026 -0.9282
  333MOL0     H45948   5.061  10.557  10.560 -0.1682 -0.6645 -0.5691
  333MOL0     H45949   4.904  10.594  10.641 -3.3126  0.0074 -1.7927
  333MOL0     H45950   4.770  10.659  10.261  0.7497  2.7663  1.5077
  333MOL0     H45951   4.808   9.986  10.309  0.5847  1.1831 -0.0126
  333MOL0     H45952   4.912   9.836  10.185  2.4881  1.0489  0.9413
  333MOL0     H45953   5.035   9.722  10.245 -0.8297 -5.0364 -1.6809
  333MOL0     H45954   4.882   9.660  10.227  1.4194 -2.6105  1.5320
  334MOL0     O45955   0.181  11.210  10.223 -0.0693  0.5439 -0.0039
  334MOL0     C45956   0.077  11.256  10.272 -0.2949 -0.6083  0.5824
  334MOL0     O45957  -0.046  11.191  10.261  0.7037 -0.2252  0.2352
  334MOL0     C45958  -0.053  11.064  10.205 -0.0013 -0.0845  0.5178
  334MOL0     C45959  -0.130  10.963  10.259 -0.2455  0.5492 -0.7654
  334MOL0     C45960  -0.142  10.841  10.192 -1.0113  0.4865  1.2910
  334MOL0     C45961  -0.066  10.822  10.072  0.1618 -0.7777 -0.6549
  334MOL0     O45962  -0.062  10.704  10.008  0.6348 -0.4150 -0.0205
  334MOL0     C45963  -0.110  10.584  10.079 -0.2602  0.1093  0.1813
  334MOL0     C45964  -0.078  10.470   9.982  0.2723 -0.2587  1.0893
  334MOL0     C45965  -0.094  10.332  10.041 -0.0540  0.4893 -0.1379
  334MOL0     C45966  -0.045  10.217   9.953  0.2366  0.4544  0.0123
  334MOL0     C45967  -0.119  10.215   9.820  0.6215  0.4348 -0.6479
  334MOL0     C45968  -0.097  10.085   9.743 -0.2661  0.3002 -0.5132
  334MOL0     C45969  -0.186  10.056   9.616 -0.0053 -0.0811 -0.7655
  334MOL0     C45970  -0.339  10.042   9.650 -0.4553  0.0023  0.6329
  334MOL0     N45971  -0.358   9.928   9.743 -0.6207  0.1202  0.4403
  334MOL0     C45972  -0.332   9.796   9.693  0.2493 -0.5763 -0.2851
  334MOL0     C45973  -0.332   9.729   9.805 -0.0735 -0.1436 -0.2699
  334MOL0     C45974  -0.288   9.586   9.812  1.0330 -0.2092  0.5348
  334MOL0     C45975  -0.232   9.553   9.945 -0.4695  1.0326 -1.7710
  334MOL0     C45976  -0.220   9.403   9.967  0.5269 -0.6668 -0.1083
  334MOL0     C45977  -0.170   9.366  10.113  0.6578  0.2445  0.6338
  334MOL0     O45978  -0.135   9.228  10.129 -0.5545  0.0785 -0.2289
  334MOL0     C45979  -0.004   9.199  10.078 -0.3317  0.1989 -1.1566
  334MOL0     C45980   0.006   9.088   9.999  0.1783 -0.2441  0.7157
  334MOL0     C45981   0.131   9.038   9.963  0.4643  0.3469 -0.1367
  334MOL0     C45982   0.114   8.911   9.881  1.0800 -0.2167 -0.5113
  334MOL0     C45983   0.248   9.098  10.017 -0.4325  0.2729 -0.2795
  334MOL0     C45984   0.380   9.049   9.984 -0.1690 -0.3054  0.0321
  334MOL0     O45985   0.386   8.915   9.953  0.6279 -0.3026 -0.1340
  334MOL0     C45986   0.513   8.860   9.966 -0.7055  0.7610 -0.2398
  334MOL0     C45987   0.533   8.751  10.051 -0.8950  0.0762 -0.5363
  334MOL0     C45988   0.655   8.684  10.054  0.3149 -0.3855 -1.6395
  334MOL0     C45989   0.760   8.713   9.962  0.3916  0.6212 -0.1479
  334MOL0     O45990   0.875   8.631   9.967  0.4115 -0.5138 -1.0051
  334MOL0     C45991   0.970   8.643   9.862 -0.6404  0.2627 -0.2613
  334MOL0     C45992   1.095   8.583   9.905 -1.3297  0.1857 -1.1679
  334MOL0     C45993   1.214   8.586   9.814 -0.3841 -0.4355 -0.4310
  334MOL0     C45994   1.280   8.730   9.803  0.9445 -0.7843  0.9332
  334MOL0     C45995   1.423   8.720   9.733 -0.1529  0.2912 -1.0464
  334MOL0     C45996   1.532   8.657   9.817 -0.4946  0.4361 -0.6505
  334MOL0     C45997   1.674   8.667   9.764 -0.6805 -0.4491 -0.6871
  334MOL0     C45998   1.782   8.600   9.854 -0.1791  0.6968  0.3136
  334MOL0    Cl45999   1.947   8.643   9.805 -0.0088  0.3492  0.3487
  334MOL0     C46000   0.747   8.824   9.877  0.0070 -0.1810 -0.2359
  334MOL0     C46001   0.623   8.901   9.884  0.0793  0.1295  0.1676
  334MOL0     O46002   0.481   9.127   9.995  0.1190 -0.2611  1.2548
  334MOL0     C46003   0.232   9.215  10.095  0.8430 -0.3662  1.0476
  334MOL0     C46004   0.110   9.270  10.117 -0.4630 -0.6399 -0.1946
  334MOL0     N46005  -0.328   9.815   9.913 -0.3428 -0.0275 -0.6406
  334MOL0     N46006  -0.350   9.937   9.878  0.2970  0.4869  0.6590
  334MOL0     C46007   0.000  10.931  10.011 -0.0075  0.8984  0.2025
  334MOL0     C46008   0.003  11.055  10.081  0.5573 -0.1931  1.0411
  334MOL0     C46009   0.076  11.392  10.321 -0.6745 -0.4260  0.0104
  334MOL0     C46010   0.207  11.457  10.337  0.2412  0.0012 -0.4452
  334MOL0     C46011   0.223  11.593  10.376  0.4107 -0.3658  0.2564
  334MOL0     C46012   0.104  11.661  10.406  0.4632  0.1641 -1.0272
  334MOL0     O46013   0.096  11.794  10.436 -0.2901 -0.0743 -0.9985
  334MOL0     C46014   0.208  11.860  10.502 -1.0723 -0.1056 -0.2783
  334MOL0     C46015   0.295  11.954  10.416 -0.2603 -0.0676 -0.1869
  334MOL0     C46016   0.393  12.038  10.495 -0.4054  0.0726 -0.6061
  334MOL0     C46017   0.433  12.151  10.407 -0.3298  0.2536 -0.8919
  334MOL0     C46018   0.523  12.247  10.471 -0.3032  0.5699 -0.6713
  334MOL0     C46019   0.603  12.323  10.518 -0.0533  0.5126 -0.4827
  334MOL0     C46020  -0.020  11.598  10.402 -0.0441  0.0486  0.1627
  334MOL0     C46021  -0.038  11.468  10.355  0.6775  0.0273 -0.3131
  334MOL0     C46022  -0.180  11.407  10.343  0.1612 -0.2827 -0.2967
  334MOL0     H46023  -0.183  10.983  10.351 -0.4973  2.4830 -1.2902
  334MOL0     H46024  -0.217  10.777  10.237 -0.7261  0.5404  1.8486
  334MOL0     H46025  -0.218  10.585  10.097 -0.2838  1.0851  0.0685
  334MOL0     H46026  -0.044  10.569  10.165  1.0851  0.6569 -0.7292
  334MOL0     H46027  -0.137  10.478   9.890 -1.0393 -2.4186  1.6493
  334MOL0     H46028   0.027  10.484   9.956  0.0241 -0.2372  0.0569
  334MOL0     H46029  -0.022  10.330  10.124 -1.6234 -0.7215  1.2499
  334MOL0     H46030  -0.194  10.323  10.083  0.5249  3.1595  2.0775
  334MOL0     H46031   0.061  10.219   9.927  0.0107  1.5322 -0.8906
  334MOL0     H46032  -0.060  10.125  10.010  2.7605  0.8509  1.4736
  334MOL0     H46033  -0.090  10.304   9.764 -1.5047  2.8765  1.8275
  334MOL0     H46034  -0.226  10.225   9.841  0.5719  2.9085 -1.8123
  334MOL0     H46035   0.006  10.098   9.710  0.6568  0.2384  2.1062
  334MOL0     H46036  -0.096   9.992   9.799 -0.6852 -0.4170 -1.6633
  334MOL0     H46037  -0.140   9.968   9.570  5.2562  2.3172 -0.8449
  334MOL0     H46038  -0.167  10.138   9.546  0.3639 -0.5481 -1.2179
  334MOL0     H46039  -0.385  10.132   9.692  0.6828  0.9190 -0.0285
  334MOL0     H46040  -0.401  10.031   9.561  1.6226 -0.8668 -0.7994
  334MOL0     H46041  -0.326   9.777   9.586  1.1123 -1.2624 -0.1249
  334MOL0     H46042  -0.212   9.563   9.737 -0.0500 -3.5488  0.2680
  334MOL0     H46043  -0.373   9.520   9.793  0.2963  1.0216 -0.6032
  334MOL0     H46044  -0.139   9.610   9.952 -0.0532  0.3413 -1.5734
  334MOL0     H46045  -0.301   9.587  10.023 -0.5155 -3.8497  0.7390
  334MOL0     H46046  -0.319   9.359   9.955  0.4203 -0.4269 -0.1063
  334MOL0     H46047  -0.151   9.363   9.892 -0.9047  1.1305 -2.4840
  334MOL0     H46048  -0.090   9.427  10.156  3.1016 -2.9500  1.0008
  334MOL0     H46049  -0.254   9.389  10.180  0.1451 -0.5945  0.2968
  334MOL0     H46050  -0.083   9.030   9.976 -0.3989  0.6605  0.6354
  334MOL0     H46051   0.125   8.932   9.775  0.8850 -1.3682 -0.7771
  334MOL0     H46052   0.013   8.868   9.891  1.2206 -0.3169  0.6002
  334MOL0     H46053   0.177   8.830   9.919 -0.6308 -0.4402  2.1612
  334MOL0     H46054   0.452   8.724  10.117 -0.7588 -0.2030 -0.4854
  334MOL0     H46055   0.677   8.607  10.127  1.0386  3.3529  2.5794
  334MOL0     H46056   0.937   8.594   9.770 -0.5713 -1.0860  0.4102
  334MOL0     H46057   0.992   8.748   9.842 -0.4514  0.0791 -1.0268
  334MOL0     H46058   1.130   8.621  10.002 -2.5277 -4.6912  1.5443
  334MOL0     H46059   1.079   8.478   9.930  1.4369 -0.0496 -0.0482
  334MOL0     H46060   1.187   8.553   9.713 -1.1911  1.0151 -0.7049
  334MOL0     H46061   1.286   8.513   9.853 -1.2616 -0.3321  1.4942
  334MOL0     H46062   1.292   8.768   9.905  1.8079  3.3929 -0.5223
  334MOL0     H46063   1.216   8.798   9.746  4.0614  3.9183  2.5034
  334MOL0     H46064   1.422   8.672   9.635 -0.5577 -1.4821 -0.2109
  334MOL0     H46065   1.448   8.823   9.706  0.7191  0.0442 -1.2074
  334MOL0     H46066   1.507   8.551   9.829  1.2433  0.2093  1.6346
  334MOL0     H46067   1.532   8.712   9.911 -0.5487  0.6408 -0.7704
  334MOL0     H46068   1.694   8.771   9.739 -1.4311 -0.1015  0.1007
  334MOL0     H46069   1.683   8.616   9.667 -0.2276 -0.1364 -0.8111
  334MOL0     H46070   1.769   8.492   9.849 -0.2886  0.6416  1.4537
  334MOL0     H46071   1.768   8.625   9.960  1.9071 -0.2876  0.8761
  334MOL0     H46072   0.816   8.868   9.806 -1.1596  3.5577  0.7549
  334MOL0     H46073   0.619   8.982   9.812  0.9883  0.6470  0.6768
  334MOL0     H46074   0.327   9.261  10.120  1.2560 -1.9587  2.6097
  334MOL0     H46075   0.112   9.363  10.173 -2.0283  0.1287 -1.3262
  334MOL0     H46076   0.058  10.928   9.919  0.2995  2.8423  0.2958
  334MOL0     H46077   0.061  11.134  10.035 -0.2116  0.8485  1.8312
  334MOL0     H46078   0.301  11.404  10.325 -0.6172 -1.2216 -2.3397
  334MOL0     H46079   0.315  11.648  10.386 -0.8356  1.8904  0.0034
  334MOL0     H46080   0.169  11.910  10.591  0.2029 -2.2598  1.6240
  334MOL0     H46081   0.273  11.789  10.554 -2.3978 -1.7509 -0.7743
  334MOL0     H46082   0.232  12.016  10.351 -1.0782 -1.3148 -0.6227
  334MOL0     H46083   0.347  11.897  10.339 -1.3214  1.3692 -2.0572
  334MOL0     H46084   0.356  12.074  10.591  2.8545  0.5150  0.6104
  334MOL0     H46085   0.479  11.975  10.518 -1.1979 -2.0033 -2.8884
  334MOL0     H46086   0.339  12.197  10.377 -0.7960 -0.8438 -1.1258
  334MOL0     H46087   0.493  12.105  10.328  2.8077 -1.5627  2.2358
  334MOL0     H46088   0.658  12.399  10.570 -1.2308  0.6071  0.6808
  334MOL0     H46089  -0.098  11.657  10.447  1.2124  0.5834  1.7418
  334MOL0     H46090  -0.210  11.383  10.240 -3.8620  1.6921  0.1921
  334MOL0     H46091  -0.179  11.317  10.405  0.7466  0.7551  1.2746
  334MOL0     H46092  -0.246  11.484  10.386  1.2974 -0.0411  1.0723
  335MOL0     O46093   9.781   3.804  10.773 -0.1952  0.6212  0.1528
  335MOL0     C46094   9.805   3.862  10.879  0.1360 -0.0075 -0.1246
  335MOL0     O46095   9.709   3.892  10.980 -0.1832 -0.9199  0.0165
  335MOL0     C46096   9.575   3.882  10.947 -0.2994 -0.0923 -0.0625
  335MOL0     C46097   9.515   3.934  10.832  0.7970 -0.1379  0.1461
  335MOL0     C46098   9.376   3.903  10.802 -0.6479 -1.2246  0.3631
  335MOL0     C46099   9.301   3.824  10.884 -0.1444 -0.1711 -0.1241
  335MOL0     O46100   9.167   3.801  10.850  0.0212  0.2315  0.2060
  335MOL0     C46101   9.109   3.838  10.719  0.0923  0.1309  0.0984
  335MOL0     C46102   9.173   3.770  10.598 -0.0334 -0.7155  0.2249
  335MOL0     C46103   9.114   3.633  10.564  0.8127 -1.1578 -0.7126
  335MOL0     C46104   9.213   3.563  10.465 -0.8446  0.4146 -0.6079
  335MOL0     C46105   9.202   3.638  10.329  0.4665 -0.1365  0.2709
  335MOL0     C46106   9.277   3.562  10.203  0.7040  1.2251 -0.9606
  335MOL0     C46107   9.232   3.413  10.198 -0.7865 -1.1076 -1.1076
  335MOL0     C46108   9.268   3.349  10.064  0.1881 -0.5990 -1.2468
  335MOL0     N46109   9.247   3.202  10.044 -0.5905 -0.0085  0.3453
  335MOL0     C46110   9.130   3.134  10.071  0.4269  1.0485 -0.0486
  335MOL0     C46111   9.153   2.996  10.061 -0.4917 -0.1957 -0.2364
  335MOL0     C46112   9.067   2.877  10.078 -0.1795 -0.2685 -0.3492
  335MOL0     C46113   9.046   2.844  10.225 -0.0283 -0.8572  0.4440
  335MOL0     C46114   8.924   2.755  10.250 -0.8078  0.8920  0.5952
  335MOL0     C46115   8.954   2.610  10.215  0.1952  1.4237 -0.7200
  335MOL0     O46116   8.954   2.573  10.069 -0.4616 -0.3928  0.3041
  335MOL0     C46117   8.991   2.443  10.033 -0.2450 -0.3138 -0.0642
  335MOL0     C46118   9.008   2.433   9.898  0.0439 -0.1285 -0.2530
  335MOL0     C46119   9.037   2.312   9.837 -0.5471  0.0866 -0.3394
  335MOL0     C46120   9.033   2.320   9.684 -0.5203 -0.6552 -0.3532
  335MOL0     C46121   9.072   2.202   9.912 -0.7079 -0.1347 -0.5210
  335MOL0     C46122   9.118   2.068   9.858 -0.6426  0.2502  0.8689
  335MOL0     O46123   9.111   2.045   9.730 -0.1415 -0.1131 -0.3318
  335MOL0     C46124   9.129   1.919   9.678 -0.3007 -0.7039  0.2607
  335MOL0     C46125   9.004   1.856   9.676 -0.4335  0.5875  0.2673
  335MOL0     C46126   8.997   1.719   9.627 -0.3473 -0.4317  0.5485
  335MOL0     C46127   9.111   1.652   9.574 -0.0611  0.1921  0.6928
  335MOL0     O46128   9.105   1.529   9.508  0.3278 -0.5380  0.1856
  335MOL0     C46129   9.207   1.436   9.519 -0.5634  0.2398 -0.2147
  335MOL0     C46130   9.252   1.417   9.665 -0.1939  0.4146  0.3534
  335MOL0     C46131   9.330   1.288   9.688 -0.0970 -0.2434  0.1684
  335MOL0     C46132   9.480   1.295   9.644  0.6090 -0.2802  0.4047
  335MOL0     C46133   9.546   1.158   9.657 -0.1407 -0.9461  0.3673
  335MOL0     C46134   9.567   1.113   9.808 -0.6077  0.1213  0.4892
  335MOL0     C46135   9.673   1.000   9.796  0.9535 -0.0297  0.2293
  335MOL0     C46136   9.615   0.861   9.759 -0.0061 -0.5343 -0.1513
  335MOL0    Cl46137   9.748   0.731   9.761 -0.0852 -0.1223 -0.2434
  335MOL0     C46138   9.235   1.720   9.586  1.0220  0.9640 -0.2657
  335MOL0     C46139   9.243   1.849   9.638  0.2059  0.6846 -0.7252
  335MOL0     O46140   9.163   1.989   9.942 -0.3656 -0.1435 -0.1791
  335MOL0     C46141   9.055   2.216  10.052 -0.7946  0.7392  0.2820
  335MOL0     C46142   9.025   2.340  10.114  0.0518  0.5667  0.2388
  335MOL0     N46143   9.286   2.984  10.049 -0.1974 -0.4775 -0.1056
  335MOL0     N46144   9.344   3.100  10.031 -0.3594 -0.6864 -0.0111
  335MOL0     C46145   9.359   3.775  11.002 -0.6392  0.5669  0.3411
  335MOL0     C46146   9.498   3.811  11.034 -0.3303  0.2094 -0.4310
  335MOL0     C46147   9.946   3.905  10.914 -0.3963 -0.0794  0.6706
  335MOL0     C46148   9.967   3.933  11.049  0.6050  0.5621 -0.6912
  335MOL0     C46149  10.096   3.955  11.089 -0.6836 -0.7682 -0.8004
  335MOL0     C46150  10.207   3.960  11.002 -0.5437  0.6939  0.1719
  335MOL0     O46151  10.329   3.971  11.057  0.2861 -0.2775 -1.3026
  335MOL0     C46152  10.447   3.973  10.985 -0.1917 -0.2427  0.4194
  335MOL0     C46153  10.493   4.117  10.968 -0.3416  0.2065  0.8415
  335MOL0     C46154  10.623   4.116  10.889 -0.1879 -0.3055  0.4669
  335MOL0     C46155  10.692   4.258  10.900  0.1150 -0.2213  0.1435
  335MOL0     C46156  10.635   4.346  10.801 -0.0523  0.2150  0.3183
  335MOL0     C46157  10.584   4.428  10.727  0.8780 -0.4185 -0.1859
  335MOL0     C46158  10.184   3.947  10.866 -0.4816 -0.9049 -0.6376
  335MOL0     C46159  10.051   3.920  10.814  0.7067  0.0651 -0.5635
  335MOL0     C46160  10.026   3.926  10.666 -0.4781 -0.5273 -0.2638
  335MOL0     H46161   9.585   3.997  10.778  2.3524 -2.0466 -0.1447
  335MOL0     H46162   9.343   3.957  10.715 -0.3594 -1.3349  0.1854
  335MOL0     H46163   9.122   3.945  10.703  1.3672 -0.3288 -2.6789
  335MOL0     H46164   9.003   3.814  10.724 -0.0421  0.1223 -1.8429
  335MOL0     H46165   9.152   3.836  10.513  2.6694  1.3586  1.0006
  335MOL0     H46166   9.282   3.768  10.600 -0.0342 -0.4552  1.0470
  335MOL0     H46167   9.109   3.582  10.661 -0.2138  4.6533  2.7864
  335MOL0     H46168   9.014   3.656  10.525  0.0607  0.4578  1.9046
  335MOL0     H46169   9.318   3.566  10.498 -1.2121 -0.3887  0.7271
  335MOL0     H46170   9.181   3.459  10.467  1.7322 -0.4480  1.0828
  335MOL0     H46171   9.251   3.735  10.344 -1.2974  0.7957  0.1917
  335MOL0     H46172   9.096   3.663  10.318  1.0168  2.3579  0.1539
  335MOL0     H46173   9.240   3.606  10.110  3.1320  1.3135 -1.9582
  335MOL0     H46174   9.385   3.573  10.209  0.7998  0.0687 -0.4257
  335MOL0     H46175   9.133   3.403  10.243  0.1648 -0.3595  1.3135
  335MOL0     H46176   9.295   3.351  10.262  0.4312  0.2315 -0.9518
  335MOL0     H46177   9.189   3.395  10.004  1.2440  5.2449  1.1916
  335MOL0     H46178   9.367   3.391  10.045 -0.6864  4.5387  3.3779
  335MOL0     H46179   9.029   3.174  10.083 -0.2575  0.4958 -3.1186
  335MOL0     H46180   9.122   2.793  10.033  0.9841 -0.2933  1.0548
  335MOL0     H46181   8.974   2.883  10.020 -1.0196 -1.7519  0.7759
  335MOL0     H46182   9.138   2.803  10.268  0.3297 -2.9051 -2.0354
  335MOL0     H46183   9.013   2.933  10.279 -1.5153 -2.2306  1.9331
  335MOL0     H46184   8.888   2.773  10.351  2.6213  3.6498  1.5444
  335MOL0     H46185   8.840   2.783  10.186  0.4163 -1.8371 -2.4868
  335MOL0     H46186   9.044   2.571  10.265 -1.5266  0.4100  1.7402
  335MOL0     H46187   8.873   2.553  10.262  0.6319  0.8957 -0.5912
  335MOL0     H46188   8.992   2.508   9.821 -1.6488 -1.5514 -1.3766
  335MOL0     H46189   9.001   2.415   9.639  3.0425  1.3988  1.1010
  335MOL0     H46190   8.963   2.241   9.655 -2.1999 -0.4806  2.7991
  335MOL0     H46191   9.130   2.283   9.651  0.1236 -1.5672  2.3647
  335MOL0     H46192   8.905   1.892   9.702 -0.4782  0.4319  0.3202
  335MOL0     H46193   8.899   1.671   9.631 -1.3452  1.3613 -0.8218
  335MOL0     H46194   9.175   1.336   9.486 -2.4898  0.3079  1.2309
  335MOL0     H46195   9.299   1.454   9.464  0.3073  1.0679  1.4265
  335MOL0     H46196   9.309   1.501   9.707 -1.2660  1.8491 -0.9290
  335MOL0     H46197   9.163   1.414   9.728  2.3528 -2.2956  4.2318
  335MOL0     H46198   9.278   1.213   9.629 -1.5007  0.3069  0.6642
  335MOL0     H46199   9.321   1.269   9.796 -1.2974  2.5003  0.6513
  335MOL0     H46200   9.534   1.369   9.703  0.7392 -0.4906  0.5517
  335MOL0     H46201   9.480   1.319   9.537  2.5289  3.0463  1.0198
  335MOL0     H46202   9.486   1.082   9.606  1.6992 -1.6723 -0.8056
  335MOL0     H46203   9.642   1.161   9.605 -0.7295 -2.9262 -0.9623
  335MOL0     H46204   9.481   1.058   9.848 -0.5780 -2.1314 -2.2214
  335MOL0     H46205   9.603   1.194   9.873 -1.0077  0.8210 -0.1384
  335MOL0     H46206   9.716   0.980   9.895  0.0406 -1.1052  0.4383
  335MOL0     H46207   9.754   1.032   9.730 -0.2971 -0.2023 -1.4495
  335MOL0     H46208   9.584   0.869   9.655  1.1660  2.7838 -0.3608
  335MOL0     H46209   9.528   0.835   9.820 -1.3320 -0.3218 -1.8711
  335MOL0     H46210   9.328   1.676   9.552  1.5402  0.6628  1.4103
  335MOL0     H46211   9.343   1.891   9.649  0.3139  0.6437 -1.4884
  335MOL0     H46212   9.092   2.134  10.113  0.5851 -0.8260 -2.4572
  335MOL0     H46213   9.024   2.350  10.222  2.1096  2.0352  0.1783
  335MOL0     H46214   9.296   3.717  11.068 -0.7092 -1.3115 -1.2718
  335MOL0     H46215   9.542   3.785  11.130 -0.3741 -1.6271 -0.8819
  335MOL0     H46216   9.884   3.930  11.119 -1.1026 -0.9128 -2.6287
  335MOL0     H46217  10.113   3.950  11.196 -0.7113 -2.1104 -0.8360
  335MOL0     H46218  10.523   3.917  11.040 -1.0608 -2.8460 -0.8579
  335MOL0     H46219  10.430   3.932  10.885 -1.1426  3.7425 -1.2340
  335MOL0     H46220  10.521   4.165  11.063  3.4665 -3.4281  1.8593
  335MOL0     H46221  10.419   4.174  10.912  0.7256  2.1008  1.2905
  335MOL0     H46222  10.680   4.044  10.948 -0.4972  1.3274  2.9121
  335MOL0     H46223  10.613   4.094  10.782 -1.5155  2.3272 -0.0413
  335MOL0     H46224  10.799   4.249  10.878  0.1707  0.2242  0.2224
  335MOL0     H46225  10.675   4.303  10.998  1.5551 -0.9083  0.7473
  335MOL0     H46226  10.507   4.489  10.684  0.5229 -0.1200  0.8321
  335MOL0     H46227  10.251   3.964  10.783 -1.2491 -0.1584 -1.1227
  335MOL0     H46228   9.928   3.962  10.632  0.3203  0.9094 -1.1576
  335MOL0     H46229  10.101   4.000  10.636 -0.7934 -0.6471 -1.3825
  335MOL0     H46230  10.051   3.837  10.608  2.4254  1.1808 -1.8943
  336MOL0     O46231  10.062   1.430   5.107  0.0041 -0.1879  0.1635
  336MOL0     C46232  10.094   1.340   5.190  0.3898  0.2046  0.4678
  336MOL0     O46233  10.191   1.251   5.170  0.3152 -0.1960  0.5358
  336MOL0     C46234  10.263   1.257   5.054  0.1865 -0.7321  0.2065
  336MOL0     C46235  10.236   1.189   4.935 -0.2973 -0.0097 -0.0623
  336MOL0     C46236  10.325   1.192   4.828 -0.3006 -0.5776 -0.3317
  336MOL0     C46237  10.439   1.279   4.837 -0.3497  0.5530 -0.4910
  336MOL0     O46238  10.525   1.287   4.737 -0.2240 -0.5682  0.2240
  336MOL0     C46239  10.479   1.398   4.652 -0.1924 -1.0205  0.1155
  336MOL0     C46240  10.599   1.462   4.559  0.3091 -0.4130 -0.0393
  336MOL0     C46241  10.721   1.512   4.650  0.5578  0.7809  0.5012
  336MOL0     C46242  10.828   1.405   4.658  0.3871  0.7079 -0.6325
  336MOL0     C46243  10.954   1.454   4.727  0.5294  0.6736 -0.3477
  336MOL0     C46244  11.033   1.337   4.790 -0.4512  0.3224 -0.5889
  336MOL0     C46245  11.173   1.394   4.840 -0.1699 -0.5700  0.2564
  336MOL0     C46246  11.155   1.464   4.977  0.1779 -0.0080 -0.7821
  336MOL0     N46247  11.275   1.500   5.064 -0.4405 -0.2557  0.9374
  336MOL0     C46248  11.350   1.611   5.050  0.4026 -0.4734  0.2204
  336MOL0     C46249  11.452   1.598   5.135  0.6718  1.6384 -0.2433
  336MOL0     C46250  11.561   1.701   5.149 -0.3393 -0.5888 -0.1106
  336MOL0     C46251  11.706   1.649   5.096  0.5723  0.4864  0.3019
  336MOL0     C46252  11.703   1.662   4.941  0.3795  0.2539  0.0189
  336MOL0     C46253  11.837   1.672   4.878 -0.5620  0.1271  0.2522
  336MOL0     O46254  11.922   1.579   4.934  0.2259 -0.2630 -0.0030
  336MOL0     C46255  11.913   1.445   4.911  0.6098 -0.4221  0.1468
  336MOL0     C46256  11.949   1.370   5.014  0.4276  0.4110  0.2412
  336MOL0     C46257  11.946   1.231   5.008 -0.1057 -0.1221 -0.7566
  336MOL0     C46258  11.988   1.154   5.137 -0.3569 -0.6950 -0.5673
  336MOL0     C46259  11.910   1.169   4.884  0.8963  0.1780 -0.9769
  336MOL0     C46260  11.897   1.026   4.870 -0.2771  0.0192 -0.0583
  336MOL0     O46261  11.916   0.972   4.743  0.6131  0.9360 -0.2995
  336MOL0     C46262  11.904   0.842   4.741 -0.3267  1.1498  0.7076
  336MOL0     C46263  12.020   0.766   4.752  0.2865 -1.3924 -0.3863
  336MOL0     C46264  12.016   0.626   4.731 -0.0921  0.1317  0.3294
  336MOL0     C46265  11.904   0.561   4.692 -0.2665  0.0958  0.7470
  336MOL0     O46266  11.908   0.427   4.668 -0.5589  0.0424 -0.0569
  336MOL0     C46267  11.796   0.365   4.609 -0.3683  0.3070  0.3080
  336MOL0     C46268  11.829   0.214   4.577  0.3018 -0.3798  0.1110
  336MOL0     C46269  11.892   0.136   4.700  0.4215 -0.3261 -0.0079
  336MOL0     C46270  11.895  -0.012   4.686  1.0609 -1.0229  0.1904
  336MOL0     C46271  11.949  -0.064   4.807  0.5642 -0.7129 -1.5911
  336MOL0     C46272  11.984  -0.215   4.792  0.1057 -0.4472 -0.4699
  336MOL0     C46273  12.085  -0.259   4.897 -0.6633 -0.0220  0.4967
  336MOL0     C46274  12.125  -0.404   4.880  0.0887 -0.5030  0.8960
  336MOL0    Cl46275  12.234  -0.413   4.729 -0.2625  0.2371  0.3171
  336MOL0     C46276  11.791   0.635   4.669  0.1640  0.6485  0.0530
  336MOL0     C46277  11.791   0.780   4.679  0.2081  0.0517  0.6201
  336MOL0     O46278  11.869   0.961   4.969 -0.4641 -0.3279 -0.3275
  336MOL0     C46279  11.858   1.248   4.773  0.2766  0.5304 -0.3291
  336MOL0     C46280  11.870   1.388   4.793 -0.0088 -0.8106 -0.2236
  336MOL0     N46281  11.434   1.482   5.204 -0.8218  0.3303  0.3465
  336MOL0     N46282  11.337   1.417   5.153 -0.4295 -0.0911 -0.9374
  336MOL0     C46283  10.467   1.341   4.954  0.8373 -0.3736 -0.6649
  336MOL0     C46284  10.382   1.332   5.061 -0.3246 -0.8137  0.5501
  336MOL0     C46285  10.010   1.326   5.316 -0.9842 -0.1173  0.3534
  336MOL0     C46286   9.950   1.439   5.373  0.7550  0.1143 -0.4486
  336MOL0     C46287   9.876   1.438   5.488  0.2091  0.5432 -0.5534
  336MOL0     C46288   9.865   1.314   5.558 -0.2999 -0.9484  0.0389
  336MOL0     O46289   9.785   1.295   5.662 -0.2018 -0.3602 -0.7505
  336MOL0     C46290   9.758   1.408   5.746 -0.4257  0.1914  0.1685
  336MOL0     C46291   9.717   1.354   5.888 -0.6716  0.9124 -0.0041
  336MOL0     C46292   9.573   1.292   5.865 -0.7929  0.0806  0.7477
  336MOL0     C46293   9.463   1.390   5.833  0.0403 -0.4583 -0.2625
  336MOL0     C46294   9.339   1.310   5.814 -0.5932 -0.1862 -0.1100
  336MOL0     C46295   9.243   1.245   5.804 -0.0867  1.0372 -0.4807
  336MOL0     C46296   9.923   1.199   5.508  0.7433 -0.3312  0.1520
  336MOL0     C46297   9.988   1.199   5.378  0.1655 -0.1569  0.3454
  336MOL0     C46298  10.025   1.072   5.312  0.3272 -0.1606 -0.2875
  336MOL0     H46299  10.148   1.128   4.920 -0.2547  0.4187 -2.3049
  336MOL0     H46300  10.308   1.147   4.731  2.7873  0.1990 -1.3277
  336MOL0     H46301  10.442   1.482   4.712  0.7513 -2.2799  2.6306
  336MOL0     H46302  10.396   1.367   4.589 -1.0660  1.9482 -0.3549
  336MOL0     H46303  10.635   1.396   4.479  3.0605  0.3836  0.4310
  336MOL0     H46304  10.564   1.554   4.511 -2.0930 -1.2813 -0.1248
  336MOL0     H46305  10.768   1.602   4.609  0.7650  0.7542  0.6776
  336MOL0     H46306  10.689   1.534   4.752 -1.4330 -1.3259  0.4083
  336MOL0     H46307  10.781   1.328   4.719  1.6924 -0.1102 -0.6232
  336MOL0     H46308  10.853   1.366   4.560 -0.4703 -1.1139 -0.1624
  336MOL0     H46309  10.946   1.538   4.797  2.6013  2.4050 -2.0361
  336MOL0     H46310  11.015   1.511   4.656  1.5150 -1.7969 -1.6005
  336MOL0     H46311  10.978   1.295   4.875  2.2675  0.7543  1.5137
  336MOL0     H46312  11.051   1.261   4.713  0.2139  0.8785 -0.9904
  336MOL0     H46313  11.217   1.465   4.769  1.4502 -1.9571 -0.1886
  336MOL0     H46314  11.252   1.321   4.855  1.7010  1.5392  1.1918
  336MOL0     H46315  11.108   1.560   4.956  2.8596  2.2211  2.2795
  336MOL0     H46316  11.095   1.399   5.041  1.9132 -1.0461 -0.1365
  336MOL0     H46317  11.341   1.702   4.991  0.3577 -1.5987 -1.5936
  336MOL0     H46318  11.579   1.716   5.256  1.7817  1.5552 -0.7063
  336MOL0     H46319  11.538   1.797   5.103 -2.4997 -1.4644 -0.9839
  336MOL0     H46320  11.776   1.720   5.139  0.1552  0.4223  1.1056
  336MOL0     H46321  11.728   1.543   5.112  1.1017  0.1160 -2.3384
  336MOL0     H46322  11.638   1.580   4.908 -0.3790  1.1433 -0.7745
  336MOL0     H46323  11.649   1.754   4.918  0.7889  1.9050  4.5556
  336MOL0     H46324  11.829   1.665   4.769  0.7077 -1.0898  0.2041
  336MOL0     H46325  11.880   1.769   4.903  0.2098  0.7984 -3.1531
  336MOL0     H46326  11.996   1.411   5.103  2.2959 -5.5916  2.5239
  336MOL0     H46327  11.924   1.075   5.178 -0.8821  0.8012  1.6944
  336MOL0     H46328  11.998   1.225   5.220 -1.8444 -0.7641 -0.2898
  336MOL0     H46329  12.085   1.107   5.119  0.3276  0.4302  0.0614
  336MOL0     H46330  12.106   0.830   4.767 -1.0069  0.6982 -1.4967
  336MOL0     H46331  12.113   0.577   4.737 -0.1667 -0.1020 -0.3053
  336MOL0     H46332  11.711   0.372   4.677 -0.1465 -0.0622  0.6254
  336MOL0     H46333  11.761   0.415   4.518 -1.6631  1.7223  1.5267
  336MOL0     H46334  11.733   0.167   4.554 -0.0141  0.5801 -0.5705
  336MOL0     H46335  11.900   0.203   4.495  1.1150  1.0522  0.5875
  336MOL0     H46336  11.836   0.162   4.791 -1.1948 -0.7028 -0.8481
  336MOL0     H46337  11.992   0.176   4.719 -0.3009  1.2502  0.7157
  336MOL0     H46338  11.966  -0.031   4.604  0.5641  0.1276 -0.5380
  336MOL0     H46339  11.797  -0.052   4.658  0.3576  0.7767 -0.0290
  336MOL0     H46340  12.044  -0.014   4.830  1.9348 -3.1655 -1.5713
  336MOL0     H46341  11.889  -0.048   4.897  1.1033 -0.1005 -1.3311
  336MOL0     H46342  12.021  -0.230   4.690 -0.4883 -0.5566 -0.6750
  336MOL0     H46343  11.899  -0.284   4.797  1.3918 -2.2790 -2.3340
  336MOL0     H46344  12.032  -0.238   4.990  0.4645  0.6130  1.0085
  336MOL0     H46345  12.168  -0.189   4.903  0.5897 -1.2665 -1.1626
  336MOL0     H46346  12.043  -0.476   4.876  1.7998 -2.4969 -0.4011
  336MOL0     H46347  12.188  -0.430   4.965 -0.6545 -1.4315  1.1804
  336MOL0     H46348  11.695   0.603   4.631  0.5398  0.2837 -0.6112
  336MOL0     H46349  11.703   0.840   4.657 -0.2312 -0.5599  0.6810
  336MOL0     H46350  11.818   1.208   4.681 -1.4547  0.9955  0.1958
  336MOL0     H46351  11.835   1.461   4.721 -0.8880  0.4777  1.4495
  336MOL0     H46352  10.550   1.408   4.976 -0.0540  0.2598  0.9053
  336MOL0     H46353  10.415   1.373   5.156 -0.5822 -3.4331  1.8556
  336MOL0     H46354   9.951   1.534   5.320 -0.3645 -0.7579 -2.1079
  336MOL0     H46355   9.841   1.534   5.524 -0.7422 -0.0733  0.2214
  336MOL0     H46356   9.840   1.481   5.751 -2.5550  2.9788 -2.2562
  336MOL0     H46357   9.679   1.466   5.699 -0.1002 -1.5083 -2.6753
  336MOL0     H46358   9.718   1.440   5.957 -0.0423  1.1803 -0.3413
  336MOL0     H46359   9.785   1.287   5.942 -2.5550  1.0417  2.7207
  336MOL0     H46360   9.580   1.218   5.784  1.4563  1.6320 -0.6070
  336MOL0     H46361   9.546   1.237   5.955 -1.3253 -1.6018 -0.3786
  336MOL0     H46362   9.487   1.444   5.741 -2.3432 -2.4967 -2.2405
  336MOL0     H46363   9.470   1.459   5.918  1.9763 -0.0680 -0.6809
  336MOL0     H46364   9.163   1.179   5.779  0.9063 -0.9069  1.2455
  336MOL0     H46365   9.913   1.101   5.552 -0.7850  0.3266  1.3499
  336MOL0     H46366  10.134   1.060   5.305  0.3643  0.7607 -1.6720
  336MOL0     H46367  10.000   0.980   5.366  1.3697 -0.5796 -0.4711
  336MOL0     H46368   9.980   1.064   5.213  2.7633  3.2426 -1.8588
  337MOL0     O46369   0.277   6.997   2.179 -0.4652  0.2721  0.5141
  337MOL0     C46370   0.176   7.057   2.211  0.9349  0.5601 -0.8597
  337MOL0     O46371   0.164   7.187   2.229 -0.1637  0.1131  0.7565
  337MOL0     C46372   0.275   7.269   2.220 -0.2387 -0.1564 -0.3275
  337MOL0     C46373   0.402   7.241   2.272 -0.0300 -0.7173 -0.5513
  337MOL0     C46374   0.514   7.333   2.270  0.5515 -0.2490 -0.6866
  337MOL0     C46375   0.501   7.446   2.185  0.0920 -0.9334 -0.5978
  337MOL0     O46376   0.614   7.531   2.170  0.7939  0.6528  0.4183
  337MOL0     C46377   0.591   7.661   2.101  0.0476  0.4952 -1.3868
  337MOL0     C46378   0.527   7.764   2.193  0.3985  0.2596  0.0539
  337MOL0     C46379   0.599   7.775   2.323 -0.1662  0.0756 -0.5745
  337MOL0     C46380   0.638   7.917   2.352  0.4414 -0.6537 -0.0754
  337MOL0     C46381   0.694   7.942   2.494 -1.6647  0.2566  1.1177
  337MOL0     C46382   0.744   8.087   2.513  0.3479  0.3003  0.7519
  337MOL0     C46383   0.824   8.110   2.649  0.6529 -0.6658  0.0251
  337MOL0     C46384   0.960   8.157   2.634  0.8944 -0.0847 -0.3005
  337MOL0     N46385   0.972   8.279   2.554 -0.2009 -0.9178 -0.0169
  337MOL0     C46386   0.876   8.372   2.532  0.6158 -0.4602  0.6743
  337MOL0     C46387   0.923   8.445   2.430 -0.0793 -0.7176 -0.0199
  337MOL0     C46388   0.861   8.578   2.392 -0.5676 -0.6845  0.3738
  337MOL0     C46389   0.897   8.699   2.480  0.8676  0.4533  0.0470
  337MOL0     C46390   0.843   8.688   2.628  0.3202 -0.2339 -1.1047
  337MOL0     C46391   0.876   8.819   2.707 -0.5972 -0.3064  0.7879
  337MOL0     O46392   0.835   8.815   2.840  0.2886  0.1768 -0.8878
  337MOL0     C46393   0.898   8.888   2.937  0.1390 -0.5395 -0.0839
  337MOL0     C46394   0.852   8.872   3.070 -0.8488 -0.7651 -0.3119
  337MOL0     C46395   0.892   8.948   3.174 -0.4567  0.3243 -0.3354
  337MOL0     C46396   0.832   8.924   3.310 -0.9751  0.1704 -0.0115
  337MOL0     C46397   1.000   9.040   3.148  0.7629 -0.0498  0.5268
  337MOL0     C46398   1.059   9.128   3.251  1.0048 -0.5162 -0.8314
  337MOL0     O46399   1.189   9.159   3.239 -0.4727  0.2075  0.0929
  337MOL0     C46400   1.249   9.198   3.361  0.1954 -0.2945  1.0455
  337MOL0     C46401   1.207   9.320   3.425 -0.5693 -0.8380 -0.2754
  337MOL0     C46402   1.275   9.360   3.549 -0.4457 -0.7172  0.2767
  337MOL0     C46403   1.376   9.284   3.609 -0.8845 -0.1062 -0.9672
  337MOL0     O46404   1.437   9.328   3.729  0.7933 -0.7670  0.2237
  337MOL0     C46405   1.573   9.292   3.757  0.0850  0.5641  0.4086
  337MOL0     C46406   1.621   9.372   3.882 -0.1449 -0.2996 -0.0800
  337MOL0     C46407   1.769   9.349   3.912 -0.5813  0.5610  0.0367
  337MOL0     C46408   1.790   9.212   3.980 -0.2265 -0.3669 -0.9542
  337MOL0     C46409   1.932   9.188   4.038 -0.1382  1.1508 -0.1397
  337MOL0     C46410   1.935   9.053   4.099 -0.5535 -0.0685  0.2930
  337MOL0     C46411   2.077   8.996   4.131  0.4739  0.0644 -0.2361
  337MOL0     C46412   2.140   9.053   4.263  0.2000  0.4717 -0.2506
  337MOL0    Cl46413   2.163   9.239   4.246 -0.0570 -0.2974  0.0903
  337MOL0     C46414   1.406   9.167   3.538  0.4532 -0.4845 -0.0608
  337MOL0     C46415   1.352   9.124   3.418 -0.8330  0.3366 -0.1230
  337MOL0     O46416   0.982   9.157   3.348 -0.4709 -0.5528 -0.1626
  337MOL0     C46417   1.056   9.051   3.018 -0.6501  0.5502  0.2003
  337MOL0     C46418   0.997   8.981   2.910 -0.5287  0.3754  0.7234
  337MOL0     N46419   1.044   8.394   2.383 -0.2299  0.0811  0.2831
  337MOL0     N46420   1.065   8.281   2.452  0.7192 -0.3923  0.0193
  337MOL0     C46421   0.371   7.472   2.137 -0.3609  0.3067 -0.4405
  337MOL0     C46422   0.264   7.395   2.167 -0.4756  0.1055 -0.0658
  337MOL0     C46423   0.050   6.966   2.243  0.3710 -0.7869  0.1062
  337MOL0     C46424   0.071   6.840   2.288  0.0831 -0.1468 -0.5497
  337MOL0     C46425  -0.040   6.760   2.317 -0.0064 -0.4616 -0.0242
  337MOL0     C46426  -0.172   6.806   2.291 -0.0488 -0.3497  0.2493
  337MOL0     O46427  -0.291   6.737   2.309 -0.4729  0.0819 -0.3993
  337MOL0     C46428  -0.281   6.599   2.355 -0.6204 -0.3065 -0.3697
  337MOL0     C46429  -0.250   6.502   2.237  0.6030  0.8018  0.4009
  337MOL0     C46430  -0.321   6.514   2.109  1.1861  0.2780  0.1224
  337MOL0     C46431  -0.472   6.523   2.128 -0.8455 -0.7203  0.6424
  337MOL0     C46432  -0.539   6.513   1.995 -1.1733 -0.0767  0.2656
  337MOL0     C46433  -0.577   6.518   1.882  0.7636 -0.6727  0.1332
  337MOL0     C46434  -0.182   6.934   2.222 -0.0661  0.4366  0.3853
  337MOL0     C46435  -0.076   7.010   2.201  0.1679  0.4152 -0.1915
  337MOL0     C46436  -0.102   7.136   2.118  0.2989  0.0904 -0.9035
  337MOL0     H46437   0.410   7.148   2.327 -0.9013 -1.5780 -1.8340
  337MOL0     H46438   0.610   7.301   2.309 -0.4008 -2.5235 -0.0498
  337MOL0     H46439   0.535   7.662   2.007 -1.9396  2.9208 -0.2900
  337MOL0     H46440   0.687   7.699   2.065  0.6243 -1.1135 -1.6549
  337MOL0     H46441   0.521   7.866   2.155 -0.6984  0.9318  1.9151
  337MOL0     H46442   0.421   7.745   2.214  0.5645 -3.0124 -1.3500
  337MOL0     H46443   0.533   7.743   2.404 -2.8252  3.3698 -1.2035
  337MOL0     H46444   0.695   7.723   2.316 -0.2395  0.1077 -2.0360
  337MOL0     H46445   0.728   7.938   2.293  0.7397  0.7898  0.8606
  337MOL0     H46446   0.559   7.993   2.344  1.6982  0.6357 -0.6366
  337MOL0     H46447   0.774   7.869   2.504 -3.1724 -1.3253  2.2587
  337MOL0     H46448   0.619   7.916   2.569 -6.0239  1.7721 -2.2981
  337MOL0     H46449   0.811   8.113   2.430  0.0898 -0.7467  0.1938
  337MOL0     H46450   0.651   8.145   2.513 -0.6229 -1.1969  1.2518
  337MOL0     H46451   0.828   8.022   2.715  2.1705  0.4471  1.4959
  337MOL0     H46452   0.775   8.193   2.700  3.3412  1.2919 -0.3712
  337MOL0     H46453   1.002   8.168   2.734 -0.7338 -1.9895  0.6591
  337MOL0     H46454   1.010   8.076   2.582  5.3835  2.2864 -0.1481
  337MOL0     H46455   0.787   8.399   2.587 -0.0628  0.2906 -0.7448
  337MOL0     H46456   0.752   8.573   2.399 -0.4219 -3.1666  2.4840
  337MOL0     H46457   0.889   8.602   2.289 -0.7573  2.2573  0.9079
  337MOL0     H46458   1.003   8.723   2.486  0.5486  1.6165  2.6064
  337MOL0     H46459   0.837   8.780   2.438 -0.2844 -0.1489  0.4619
  337MOL0     H46460   0.735   8.673   2.634  0.0835  1.7849  1.5766
  337MOL0     H46461   0.889   8.602   2.678 -0.7865 -0.9221 -1.2447
  337MOL0     H46462   0.984   8.825   2.688 -0.4367 -3.0530  0.4701
  337MOL0     H46463   0.822   8.906   2.667  0.3019  0.5663  1.4280
  337MOL0     H46464   0.785   8.790   3.091 -0.7104 -0.7476  0.2179
  337MOL0     H46465   0.914   8.927   3.383 -1.0576  2.5120  0.0499
  337MOL0     H46466   0.781   8.827   3.315  0.6612 -0.7087  0.5961
  337MOL0     H46467   0.764   9.006   3.335  1.4405  1.8016  1.7913
  337MOL0     H46468   1.125   9.379   3.386  1.9622  2.8725 -0.4618
  337MOL0     H46469   1.238   9.450   3.597  3.7789  1.9801 -0.9293
  337MOL0     H46470   1.574   9.186   3.780 -1.3977  1.0516  3.1441
  337MOL0     H46471   1.640   9.312   3.673 -0.3831  0.7552  0.0731
  337MOL0     H46472   1.603   9.475   3.853 -0.2254 -0.6890 -1.4928
  337MOL0     H46473   1.570   9.338   3.972  2.5343  0.9282  2.0348
  337MOL0     H46474   1.814   9.421   3.980  1.1297 -1.6279  1.3707
  337MOL0     H46475   1.825   9.364   3.819 -0.2705 -0.7931 -0.0282
  337MOL0     H46476   1.771   9.141   3.899  1.5139 -3.3892  1.1278
  337MOL0     H46477   1.722   9.212   4.065 -0.5562 -2.6663 -1.1649
  337MOL0     H46478   2.016   9.204   3.970  0.2127  1.2899  0.3121
  337MOL0     H46479   1.954   9.262   4.116  2.6947 -2.7327  3.2099
  337MOL0     H46480   1.890   8.991   4.021 -1.9563  0.0657  0.9706
  337MOL0     H46481   1.864   9.041   4.181 -1.0965 -0.3281 -0.2056
  337MOL0     H46482   2.147   9.020   4.050  0.8977  0.2292  0.1675
  337MOL0     H46483   2.069   8.889   4.151 -1.7485 -0.3970 -3.0350
  337MOL0     H46484   2.231   8.997   4.286  1.2656  2.1868 -0.1596
  337MOL0     H46485   2.064   9.050   4.342 -1.8529  2.3818 -2.0197
  337MOL0     H46486   1.487   9.120   3.593  0.1501  0.2492  1.0331
  337MOL0     H46487   1.408   9.038   3.381 -0.1706  1.3332 -1.5391
  337MOL0     H46488   1.142   9.110   2.988  3.4767 -3.9986  1.7147
  337MOL0     H46489   1.035   9.001   2.810  0.4556  0.5352  1.1140
  337MOL0     H46490   0.358   7.560   2.074  0.5193  2.5347  2.2531
  337MOL0     H46491   0.163   7.419   2.136 -1.4724 -1.0258  2.1027
  337MOL0     H46492   0.168   6.800   2.316  0.1341  1.7345  2.2750
  337MOL0     H46493  -0.022   6.658   2.349  0.3408 -1.8374 -3.9708
  337MOL0     H46494  -0.205   6.593   2.434 -0.3922  0.4042 -0.5295
  337MOL0     H46495  -0.372   6.574   2.410  0.9814  1.3476  3.3745
  337MOL0     H46496  -0.262   6.400   2.274 -2.4826  0.6017 -0.9223
  337MOL0     H46497  -0.149   6.522   2.200 -0.0113  1.8242 -0.7859
  337MOL0     H46498  -0.279   6.596   2.051  0.2417  0.3999 -0.4141
  337MOL0     H46499  -0.303   6.418   2.060 -1.8343 -1.0831  1.3890
  337MOL0     H46500  -0.491   6.626   2.161 -1.0296 -1.0766  1.6980
  337MOL0     H46501  -0.497   6.451   2.206  0.5746 -1.4109  0.4902
  337MOL0     H46502  -0.631   6.519   1.790  0.8963 -1.9954  0.0182
  337MOL0     H46503  -0.277   6.961   2.177 -0.3374 -0.1506  0.5934
  337MOL0     H46504  -0.085   7.225   2.179 -3.0928  1.3049 -1.5246
  337MOL0     H46505  -0.055   7.133   2.019  2.1235  0.8051 -0.1171
  337MOL0     H46506  -0.208   7.141   2.093 -0.1437 -0.8873  0.6327
  338MOL0     O46507   9.002   8.855   2.955  0.3779 -0.0262  0.4572
  338MOL0     C46508   9.071   8.831   3.049 -0.5067 -0.6522 -0.9965
  338MOL0     O46509   9.039   8.839   3.188  0.8118  0.4679  0.5223
  338MOL0     C46510   8.907   8.869   3.201  0.5386 -0.1733 -0.3357
  338MOL0     C46511   8.805   8.770   3.202  0.1194 -0.8000  0.9928
  338MOL0     C46512   8.674   8.797   3.205  0.6710 -0.7321  0.8958
  338MOL0     C46513   8.635   8.929   3.195 -0.0764 -0.1667 -0.5834
  338MOL0     O46514   8.502   8.969   3.177 -0.5913  0.1030 -0.6523
  338MOL0     C46515   8.471   9.085   3.107 -0.0694  0.2548 -0.3872
  338MOL0     C46516   8.331   9.050   3.039 -0.9565  0.5420 -0.6832
  338MOL0     C46517   8.235   9.011   3.151  0.8065  1.1480  1.2386
  338MOL0     C46518   8.091   9.016   3.099  0.5472 -0.2335 -1.5386
  338MOL0     C46519   7.994   8.969   3.207  0.5202  0.2709  0.6450
  338MOL0     C46520   7.862   8.911   3.152 -2.0036  0.7584  0.8126
  338MOL0     C46521   7.739   8.908   3.240 -0.0537 -0.5493  0.1654
  338MOL0     C46522   7.769   8.856   3.381  0.4564 -0.1449 -0.1794
  338MOL0     N46523   7.655   8.846   3.465  0.4609  0.5897  0.2186
  338MOL0     C46524   7.591   8.951   3.511 -0.4880 -0.4603  0.0751
  338MOL0     C46525   7.514   8.902   3.610 -0.1808  0.2451 -0.0443
  338MOL0     C46526   7.443   8.979   3.711 -0.3133  0.5069 -0.1027
  338MOL0     C46527   7.544   9.017   3.821 -0.5468  0.2454 -0.5736
  338MOL0     C46528   7.463   9.087   3.932  0.3189 -0.5720 -0.3368
  338MOL0     C46529   7.381   9.211   3.893 -0.4529  0.5037  0.0986
  338MOL0     O46530   7.476   9.306   3.841  0.7917 -0.5592  0.1677
  338MOL0     C46531   7.545   9.392   3.921 -0.4588  0.3011 -0.2525
  338MOL0     C46532   7.639   9.461   3.858 -0.7416 -0.1343 -0.0763
  338MOL0     C46533   7.703   9.569   3.920 -0.3024 -0.3343  0.2743
  338MOL0     C46534   7.780   9.662   3.821  0.1287  0.4697 -0.3903
  338MOL0     C46535   7.685   9.595   4.056 -0.9817 -0.8168  0.2183
  338MOL0     C46536   7.731   9.711   4.132  0.6635 -0.9114  0.2391
  338MOL0     O46537   7.707   9.711   4.264 -0.0765  0.5295  0.3864
  338MOL0     C46538   7.795   9.756   4.361 -0.0827 -1.1906 -0.7048
  338MOL0     C46539   7.925   9.806   4.351  0.1369  0.2265  0.3997
  338MOL0     C46540   7.998   9.831   4.471 -0.0145 -0.5060  0.0926
  338MOL0     C46541   7.946   9.799   4.598  0.1368 -0.1321  0.7296
  338MOL0     O46542   8.027   9.820   4.703  0.0141 -1.1968  0.0412
  338MOL0     C46543   7.954   9.898   4.807  0.0081  0.6970  0.5828
  338MOL0     C46544   7.939  10.041   4.776 -0.4403 -0.9762  0.6192
  338MOL0     C46545   8.074  10.110   4.781 -0.2678  0.0064 -0.2286
  338MOL0     C46546   8.069  10.258   4.731 -0.5462 -0.3976 -0.0252
  338MOL0     C46547   8.181  10.350   4.775  0.0267 -0.8563 -0.5827
  338MOL0     C46548   8.173  10.388   4.925  0.3640 -0.9204 -0.2654
  338MOL0     C46549   8.286  10.473   4.967  0.1167  0.2104  0.4398
  338MOL0     C46550   8.285  10.513   5.105  0.1540  0.4801 -0.4109
  338MOL0    Cl46551   8.148  10.618   5.150  0.4089 -0.0255  0.6106
  338MOL0     C46552   7.822   9.734   4.613  0.6288  1.5644 -0.3802
  338MOL0     C46553   7.746   9.716   4.492  0.0034  0.0182  0.3315
  338MOL0     O46554   7.806   9.788   4.078 -0.0084  0.2249 -0.4245
  338MOL0     C46555   7.609   9.502   4.128  0.0876 -0.8785  0.2263
  338MOL0     C46556   7.537   9.404   4.058 -0.0504 -0.3169  0.0573
  338MOL0     N46557   7.529   8.761   3.610  0.5232  0.1573  0.0247
  338MOL0     N46558   7.624   8.737   3.525  0.7402 -0.0607 -0.3646
  338MOL0     C46559   8.734   9.030   3.209  0.4256  0.6033  0.7235
  338MOL0     C46560   8.874   9.003   3.213  0.1489  0.6182 -0.7579
  338MOL0     C46561   9.211   8.805   3.012 -0.8385  0.4417 -0.0697
  338MOL0     C46562   9.236   8.737   2.892 -0.7533 -0.6237  0.6100
  338MOL0     C46563   9.372   8.704   2.851  0.2424  0.2476  0.4107
  338MOL0     C46564   9.478   8.737   2.931 -0.3944  0.3851  0.4145
  338MOL0     O46565   9.608   8.724   2.885 -0.3122 -0.5347 -0.0921
  338MOL0     C46566   9.694   8.625   2.939  0.8015 -0.4324 -0.0766
  338MOL0     C46567   9.840   8.654   2.908  0.5904 -0.4734  0.3693
  338MOL0     C46568   9.902   8.619   3.049 -0.7278  0.9447 -0.3840
  338MOL0     C46569  10.049   8.647   3.046  0.0573 -0.3379  0.5630
  338MOL0     C46570  10.120   8.566   2.944  0.0114  0.5135 -0.4241
  338MOL0     C46571  10.169   8.496   2.854  0.2533  0.8312 -0.5294
  338MOL0     C46572   9.456   8.794   3.053 -0.3231  0.0493  0.4883
  338MOL0     C46573   9.324   8.827   3.096  0.0621 -1.5492  0.2200
  338MOL0     C46574   9.324   8.893   3.235  0.0675  0.1720  1.1796
  338MOL0     H46575   8.829   8.666   3.183  1.0505 -0.0769 -2.4197
  338MOL0     H46576   8.592   8.726   3.200  0.9527 -0.9758 -1.7864
  338MOL0     H46577   8.540   9.095   3.023  1.5873  0.7145  0.9741
  338MOL0     H46578   8.468   9.175   3.169 -2.0905 -0.0039 -0.0458
  338MOL0     H46579   8.292   9.133   2.980 -2.2661 -0.2948 -1.0271
  338MOL0     H46580   8.339   8.964   2.971 -3.3808  0.9673 -1.5881
  338MOL0     H46581   8.253   8.910   3.190 -4.0365  0.9030  3.5013
  338MOL0     H46582   8.260   9.078   3.233  2.3747  2.1872 -0.0165
  338MOL0     H46583   8.070   9.121   3.077 -1.0256 -0.4902 -1.3961
  338MOL0     H46584   8.070   8.952   3.013 -1.2563 -3.2086  0.8876
  338MOL0     H46585   7.963   9.046   3.278 -1.3951  0.5942 -0.4597
  338MOL0     H46586   8.039   8.899   3.278 -1.3494 -3.6679 -1.6497
  338MOL0     H46587   7.831   8.969   3.065 -2.1966 -1.6803 -0.8319
  338MOL0     H46588   7.880   8.814   3.106 -0.3184  0.2001  2.5485
  338MOL0     H46589   7.669   8.836   3.197  0.9753 -1.2213 -0.4307
  338MOL0     H46590   7.694   9.008   3.248  1.4844  0.1084  1.1489
  338MOL0     H46591   7.796   8.750   3.372 -0.1666 -0.3099 -0.1324
  338MOL0     H46592   7.856   8.894   3.436 -1.0089  0.5928  1.7400
  338MOL0     H46593   7.601   9.056   3.485  1.3746 -0.3626  1.0254
  338MOL0     H46594   7.369   8.913   3.759 -0.0231  1.4352  1.7257
  338MOL0     H46595   7.386   9.063   3.668 -1.6203 -0.2001  0.1808
  338MOL0     H46596   7.602   8.927   3.847  2.0579  0.5336 -4.4550
  338MOL0     H46597   7.607   9.091   3.770 -0.6307  0.6868 -0.0405
  338MOL0     H46598   7.384   9.019   3.964 -1.1942  0.5264 -1.5607
  338MOL0     H46599   7.527   9.112   4.017 -1.6676  0.3688  0.9788
  338MOL0     H46600   7.304   9.186   3.820  0.6397  0.3904 -1.0567
  338MOL0     H46601   7.326   9.258   3.975  1.5179  1.2276  1.0761
  338MOL0     H46602   7.635   9.458   3.749  0.5978 -1.1739 -0.1361
  338MOL0     H46603   7.808   9.603   3.733 -1.3121 -1.2294  0.2439
  338MOL0     H46604   7.872   9.712   3.852  1.5223 -1.2160 -1.6118
  338MOL0     H46605   7.709   9.737   3.785 -2.0975 -1.8982 -1.2253
  338MOL0     H46606   7.971   9.839   4.259  2.3339  1.2261  1.7590
  338MOL0     H46607   8.102   9.861   4.472  0.4642 -1.8723  3.0534
  338MOL0     H46608   7.859   9.847   4.826  0.0236  1.1157  1.8715
  338MOL0     H46609   8.008   9.893   4.902 -1.1179  2.0806  1.3408
  338MOL0     H46610   7.897  10.060   4.677  3.9841 -0.1496 -1.3436
  338MOL0     H46611   7.876  10.087   4.852  0.8446  1.1684  0.4665
  338MOL0     H46612   8.147  10.050   4.725  1.7356  3.1951 -1.2850
  338MOL0     H46613   8.099  10.114   4.887 -1.9333  1.8109  0.1381
  338MOL0     H46614   7.981  10.308   4.773  1.3336  3.4626 -0.2232
  338MOL0     H46615   8.068  10.252   4.622 -0.9039 -2.3159  0.0583
  338MOL0     H46616   8.276  10.310   4.739  0.8106  0.5102 -0.1164
  338MOL0     H46617   8.175  10.439   4.711 -1.0107  1.1733  2.1264
  338MOL0     H46618   8.160  10.304   4.994 -2.2521 -1.1312 -0.9085
  338MOL0     H46619   8.083  10.451   4.926  0.9859 -0.0091 -0.0927
  338MOL0     H46620   8.275  10.570   4.917  1.2387  1.7555  2.9861
  338MOL0     H46621   8.385  10.431   4.948  0.1927 -0.0243  1.2760
  338MOL0     H46622   8.381  10.560   5.127 -0.0799  2.8451 -3.6281
  338MOL0     H46623   8.269  10.424   5.167 -1.4538  2.3051  1.9858
  338MOL0     H46624   7.786   9.693   4.707 -0.4142 -1.4497 -1.9679
  338MOL0     H46625   7.644   9.677   4.496 -0.2193  0.6661  1.3475
  338MOL0     H46626   7.595   9.498   4.235  0.1147 -0.5660  0.2451
  338MOL0     H46627   7.482   9.329   4.113  0.5581 -2.2506 -1.8286
  338MOL0     H46628   8.720   9.137   3.194  0.7892  0.9300  2.4225
  338MOL0     H46629   8.948   9.083   3.210 -0.7533  1.5338  0.4154
  338MOL0     H46630   9.155   8.707   2.827 -0.3184 -0.7741  0.1311
  338MOL0     H46631   9.398   8.631   2.775 -3.1349 -3.2190  2.2303
  338MOL0     H46632   9.681   8.639   3.047  0.9764  0.2076 -0.1334
  338MOL0     H46633   9.664   8.522   2.918  0.1988 -0.2417 -0.1837
  338MOL0     H46634   9.860   8.758   2.883  1.9188 -1.0239 -0.9891
  338MOL0     H46635   9.873   8.589   2.826 -1.6368  2.7067 -3.3863
  338MOL0     H46636   9.863   8.682   3.130 -0.8425 -1.8511  1.9017
  338MOL0     H46637   9.890   8.513   3.076 -0.1128  1.3348  1.5975
  338MOL0     H46638  10.101   8.621   3.139  0.9958  0.4632  0.2745
  338MOL0     H46639  10.065   8.752   3.019 -1.3482 -0.8354 -2.6412
  338MOL0     H46640  10.211   8.426   2.784 -0.2362  0.3554 -0.3504
  338MOL0     H46641   9.541   8.807   3.120  1.5380  1.3202 -1.9456
  338MOL0     H46642   9.283   8.992   3.212  0.5473 -0.7280 -5.1747
  338MOL0     H46643   9.265   8.830   3.302 -0.2735 -1.2612 -0.3936
  338MOL0     H46644   9.420   8.915   3.283  0.9689  0.7306 -0.7877
  339MOL0     O46645  11.457   0.724   9.756  0.2563 -0.1869 -0.1070
  339MOL0     C46646  11.385   0.758   9.856 -0.3752  0.5272  0.1880
  339MOL0     O46647  11.424   0.739   9.980  0.2850 -0.0136 -0.6836
  339MOL0     C46648  11.555   0.689  10.004  0.5553  1.0065 -0.5228
  339MOL0     C46649  11.576   0.553   9.998  0.1383  0.4440 -0.0665
  339MOL0     C46650  11.698   0.499  10.032 -0.3827  0.0689 -0.6850
  339MOL0     C46651  11.810   0.586  10.054 -0.7980 -0.0320 -0.0245
  339MOL0     O46652  11.923   0.516  10.100  0.2175  0.2057  0.0668
  339MOL0     C46653  12.056   0.593  10.073  0.2020 -0.4660 -0.0194
  339MOL0     C46654  12.176   0.502  10.095  0.5544  0.4204 -0.4303
  339MOL0     C46655  12.311   0.566  10.060  0.1797  0.4333  0.2124
  339MOL0     C46656  12.354   0.682  10.150  0.0141 -0.1380  0.2463
  339MOL0     C46657  12.459   0.761  10.076 -0.1509 -0.1464  0.3418
  339MOL0     C46658  12.547   0.857  10.159 -0.0024 -0.4139  0.3681
  339MOL0     C46659  12.691   0.852  10.098 -0.2690 -1.2674 -0.5037
  339MOL0     C46660  12.780   0.749  10.166 -0.8895 -0.0226  0.5894
  339MOL0     N46661  12.789   0.769  10.309  0.1948 -0.5828  0.1283
  339MOL0     C46662  12.856   0.865  10.369  0.7712 -0.1706 -0.0692
  339MOL0     C46663  12.815   0.860  10.498  0.5262  0.6990 -0.6666
  339MOL0     C46664  12.857   0.949  10.612 -0.1413  0.1716  0.3286
  339MOL0     C46665  12.742   1.038  10.627  0.0215 -0.3395 -0.8015
  339MOL0     C46666  12.752   1.148  10.734  0.2810 -0.0435 -0.1558
  339MOL0     C46667  12.845   1.277  10.699  0.1959  0.3027 -0.6806
  339MOL0     O46668  12.888   1.358  10.805  0.1317 -0.2284  0.3334
  339MOL0     C46669  12.790   1.423  10.878 -0.2601  0.0392  1.0271
  339MOL0     C46670  12.700   1.517  10.815 -0.0273  0.3048 -0.4336
  339MOL0     C46671  12.595   1.571  10.893  0.6498  0.2933  0.0744
  339MOL0     C46672  12.501   1.657  10.819  0.0012 -0.4747  0.4100
  339MOL0     C46673  12.590   1.542  11.034  0.7236  0.5946  0.1556
  339MOL0     C46674  12.489   1.589  11.128  1.1243 -0.2766  0.6332
  339MOL0     O46675  12.514   1.575  11.259 -0.1147  0.8802  0.0839
  339MOL0     C46676  12.447   1.645  11.354 -0.8897  1.0160  0.2186
  339MOL0     C46677  12.310   1.623  11.388  0.1709  0.4902  0.4163
  339MOL0     C46678  12.243   1.695  11.487 -0.0129  0.4777 -1.4628
  339MOL0     C46679  12.312   1.788  11.568 -0.1051 -0.8617  0.4215
  339MOL0     O46680  12.235   1.867  11.655  0.0589  0.5908  0.3046
  339MOL0     C46681  12.268   2.002  11.675  0.7920 -0.3408 -0.6959
  339MOL0     C46682  12.165   2.053  11.786 -0.7415  0.3218 -0.4644
  339MOL0     C46683  12.155   2.202  11.803  0.4172 -0.1627 -0.2058
  339MOL0     C46684  12.081   2.269  11.680  0.2435 -1.0317  1.0511
  339MOL0     C46685  12.081   2.428  11.702  0.5800 -0.3251  0.1449
  339MOL0     C46686  12.012   2.492  11.583  0.8532  0.3052 -0.4325
  339MOL0     C46687  11.937   2.623  11.611  0.5139 -0.5872  0.0954
  339MOL0     C46688  11.826   2.649  11.505 -0.3779  0.1308  1.0303
  339MOL0    Cl46689  11.711   2.770  11.570  0.3001 -0.2167 -0.3556
  339MOL0     C46690  12.451   1.806  11.540  0.1819  0.4266  0.0823
  339MOL0     C46691  12.519   1.733  11.444 -0.0413  0.1047  0.1107
  339MOL0     O46692  12.384   1.632  11.091  0.5204  0.5478  0.0890
  339MOL0     C46693  12.681   1.450  11.088 -1.1545 -0.0110 -0.3267
  339MOL0     C46694  12.784   1.400  11.012 -0.1175 -0.3756  0.2727
  339MOL0     N46695  12.735   0.745  10.516 -0.1633 -0.1936 -1.8066
  339MOL0     N46696  12.715   0.693  10.405  0.2058 -0.4599  0.4503
  339MOL0     C46697  11.796   0.724  10.033  0.2885  0.4167 -0.7447
  339MOL0     C46698  11.667   0.776  10.021 -0.1772 -0.1885  0.2567
  339MOL0     C46699  11.247   0.806   9.824  0.6537 -0.4141  0.1889
  339MOL0     C46700  11.211   0.858   9.692  0.0626  0.4923 -0.3248
  339MOL0     C46701  11.082   0.894   9.668 -0.3738 -0.2525 -0.4882
  339MOL0     C46702  10.980   0.892   9.762 -0.2076 -0.7043 -0.0972
  339MOL0     O46703  10.859   0.936   9.735 -0.3630 -1.0085  0.3379
  339MOL0     C46704  10.800   0.933   9.611  0.0100 -0.0955 -1.0847
  339MOL0     C46705  10.770   0.790   9.566 -0.3029 -0.9432  0.1672
  339MOL0     C46706  10.644   0.725   9.625 -0.6043  0.3852  0.2126
  339MOL0     C46707  10.517   0.770   9.561  0.4405  0.6829 -0.2375
  339MOL0     C46708  10.410   0.677   9.591  0.7769 -0.4077 -0.4994
  339MOL0     C46709  10.310   0.604   9.608 -0.3109  0.4880  0.4703
  339MOL0     C46710  11.013   0.841   9.887 -0.1418 -0.0538  0.6565
  339MOL0     C46711  11.137   0.788   9.913 -0.7547 -0.0508 -1.1961
  339MOL0     C46712  11.143   0.717  10.050 -0.4299  0.3273 -0.3815
  339MOL0     H46713  11.491   0.490   9.976  0.5282 -1.0769  2.3604
  339MOL0     H46714  11.715   0.393  10.050  2.4222  0.4353 -0.7468
  339MOL0     H46715  12.051   0.679  10.141 -3.0903 -0.6188  0.0915
  339MOL0     H46716  12.066   0.619   9.967  0.5707 -0.6388 -0.0281
  339MOL0     H46717  12.174   0.471  10.199 -0.1374  2.4474  0.2217
  339MOL0     H46718  12.148   0.417  10.032  2.5532 -0.0180 -0.7925
  339MOL0     H46719  12.395   0.497  10.065  1.2308  1.7252  1.2324
  339MOL0     H46720  12.315   0.604   9.958  0.7057  4.2506  1.4928
  339MOL0     H46721  12.266   0.743  10.171 -0.8416  0.3319 -3.9445
  339MOL0     H46722  12.385   0.635  10.244 -1.7152 -1.1302  0.3675
  339MOL0     H46723  12.422   0.816   9.988 -0.1169  1.3518  1.2298
  339MOL0     H46724  12.523   0.681  10.037 -0.8392 -0.7997  0.5311
  339MOL0     H46725  12.516   0.960  10.140 -0.9377 -0.7506 -0.0336
  339MOL0     H46726  12.552   0.840  10.267  1.3112 -0.2465  0.3480
  339MOL0     H46727  12.731   0.951  10.123 -3.7879 -0.0238  0.9053
  339MOL0     H46728  12.689   0.848   9.988  1.1307  0.4086 -0.6390
  339MOL0     H46729  12.744   0.648  10.142 -1.9924  0.7553 -1.2119
  339MOL0     H46730  12.878   0.759  10.118 -0.7135 -0.8116  0.7645
  339MOL0     H46731  12.916   0.943  10.325 -0.4973  0.1306 -1.3293
  339MOL0     H46732  12.956   0.993  10.596  1.0713 -2.5322 -0.1034
  339MOL0     H46733  12.875   0.887  10.700 -0.3395  1.2938  1.1915
  339MOL0     H46734  12.713   1.094  10.538 -1.8599  0.3697  0.2002
  339MOL0     H46735  12.656   0.980  10.662 -0.0214  0.5828  0.7111
  339MOL0     H46736  12.657   1.182  10.777 -0.4336 -0.4151 -1.3861
  339MOL0     H46737  12.794   1.098  10.822 -0.1519 -0.1846 -0.0282
  339MOL0     H46738  12.932   1.246  10.640 -0.1694 -0.9790 -0.5609
  339MOL0     H46739  12.788   1.334  10.624 -0.2098 -1.4676 -1.7721
  339MOL0     H46740  12.706   1.550  10.712 -1.0087  1.1220 -0.2566
  339MOL0     H46741  12.513   1.661  10.711  0.2302  0.2973  0.4657
  339MOL0     H46742  12.493   1.759  10.857 -0.0699 -0.1378 -0.4847
  339MOL0     H46743  12.398   1.620  10.828 -0.6048  1.0413 -0.0631
  339MOL0     H46744  12.257   1.548  11.329  1.4128 -0.3468  0.3279
  339MOL0     H46745  12.136   1.686  11.502 -0.2217  0.4686 -2.8216
  339MOL0     H46746  12.365   2.007  11.725 -0.5448  0.1369  2.0388
  339MOL0     H46747  12.252   2.066  11.588  0.9227  1.5806  0.6266
  339MOL0     H46748  12.069   2.009  11.757 -0.8199  1.9214 -2.9496
  339MOL0     H46749  12.196   1.995  11.873 -4.1791 -0.0936  0.6669
  339MOL0     H46750  12.257   2.241  11.814  0.6745 -0.6049 -0.8829
  339MOL0     H46751  12.104   2.225  11.897  2.6953 -1.5235  1.4731
  339MOL0     H46752  11.975   2.243  11.670  0.0706  0.4934 -2.2724
  339MOL0     H46753  12.129   2.251  11.583 -1.0906 -0.0872  0.1803
  339MOL0     H46754  12.031   2.464  11.792  1.3642 -0.7690  0.7722
  339MOL0     H46755  12.184   2.463  11.708  1.5537 -2.9693  0.2770
  339MOL0     H46756  11.951   2.423  11.524 -0.0463  1.0570 -0.4044
  339MOL0     H46757  12.090   2.533  11.518  3.1862  1.5484  2.8691
  339MOL0     H46758  12.000   2.712  11.617  0.3818 -0.1733 -2.9241
  339MOL0     H46759  11.879   2.625  11.703 -0.9452  1.6767 -0.7985
  339MOL0     H46760  11.771   2.555  11.502  1.0938 -0.7473 -0.7278
  339MOL0     H46761  11.876   2.674  11.411  2.1562 -0.0885  2.2135
  339MOL0     H46762  12.514   1.868  11.603  2.0649  0.7830 -2.0378
  339MOL0     H46763  12.626   1.747  11.430  0.1834 -0.4055  1.1720
  339MOL0     H46764  12.677   1.437  11.196 -1.2079  1.6380 -0.1154
  339MOL0     H46765  12.863   1.340  11.058  0.6605  1.5747  1.6212
  339MOL0     H46766  11.880   0.793  10.035 -2.8335  4.6292 -0.7155
  339MOL0     H46767  11.659   0.884  10.008 -0.6898 -0.4049 -1.5375
  339MOL0     H46768  11.282   0.881   9.614 -1.3644  1.7995 -1.3149
  339MOL0     H46769  11.069   0.932   9.568  1.7495  2.2095  0.0575
  339MOL0     H46770  10.704   0.979   9.637 -0.3681 -1.0825 -0.7001
  339MOL0     H46771  10.861   0.991   9.541  1.5037 -1.6026 -1.0827
  339MOL0     H46772  10.851   0.726   9.601 -0.0784  0.1846  1.7954
  339MOL0     H46773  10.766   0.785   9.457 -1.5140 -0.4435  0.1717
  339MOL0     H46774  10.662   0.618   9.613 -0.1161  0.6620 -2.1822
  339MOL0     H46775  10.637   0.747   9.732  3.4883  0.5230  0.5900
  339MOL0     H46776  10.521   0.774   9.452 -2.3896  2.7547 -0.3879
  339MOL0     H46777  10.482   0.870   9.592 -1.6942 -0.7691  2.5384
  339MOL0     H46778  10.214   0.558   9.619 -0.9393  1.4892 -0.6579
  339MOL0     H46779  10.935   0.831   9.962 -1.6119  2.6522 -0.3864
  339MOL0     H46780  11.044   0.677  10.073 -0.6321 -1.0082 -3.1524
  339MOL0     H46781  11.209   0.631  10.035 -0.6075  0.0922  0.1872
  339MOL0     H46782  11.169   0.787  10.130 -1.6984 -0.1214  0.4415
  340MOL0     O46783   8.500   4.982   8.507  1.0112 -0.8235  0.6762
  340MOL0     C46784   8.382   5.009   8.531  0.2896  0.3068 -0.1913
  340MOL0     O46785   8.303   5.103   8.467 -0.5231 -0.4137  0.6320
  340MOL0     C46786   8.382   5.187   8.392 -0.3245 -0.8215 -0.0933
  340MOL0     C46787   8.479   5.151   8.288 -0.2113 -1.3687 -0.6053
  340MOL0     C46788   8.554   5.251   8.225  0.3855  0.2712 -0.5818
  340MOL0     C46789   8.535   5.388   8.252  0.2267  0.1766 -0.1538
  340MOL0     O46790   8.597   5.494   8.195 -0.1023 -0.4862 -0.0390
  340MOL0     C46791   8.703   5.471   8.096  0.0028  0.4032 -0.2089
  340MOL0     C46792   8.834   5.398   8.150  1.5486 -0.1068  0.0574
  340MOL0     C46793   8.866   5.420   8.299  0.0557 -0.7633 -0.2750
  340MOL0     C46794   8.981   5.335   8.345  0.2232 -0.1660  0.0040
  340MOL0     C46795   8.986   5.326   8.499 -0.2041  0.1578 -0.1486
  340MOL0     C46796   9.117   5.280   8.558  0.5930  0.4035 -0.3001
  340MOL0     C46797   9.113   5.218   8.707  0.5872 -0.0307  0.7967
  340MOL0     C46798   9.035   5.085   8.717  0.7203 -0.3960  0.1850
  340MOL0     N46799   9.047   5.032   8.850  0.0565 -0.0939  0.7591
  340MOL0     C46800   8.980   5.085   8.956 -0.7177 -0.6596  0.1340
  340MOL0     C46801   9.015   5.001   9.061 -0.1431 -0.1327 -1.3640
  340MOL0     C46802   8.987   5.020   9.209 -0.2599  1.6257  0.3920
  340MOL0     C46803   9.044   5.152   9.260 -0.0843 -0.1984 -0.1149
  340MOL0     C46804   9.036   5.163   9.404  0.0521  0.1589 -0.1695
  340MOL0     C46805   8.888   5.159   9.462  1.0829  0.1121  0.0236
  340MOL0     O46806   8.873   5.217   9.598 -0.4747  0.5032  0.0872
  340MOL0     C46807   8.740   5.246   9.640  0.9101  0.2674 -0.4586
  340MOL0     C46808   8.732   5.320   9.758 -0.7821 -0.1463  0.9029
  340MOL0     C46809   8.606   5.372   9.790 -0.7253 -0.4871 -0.1266
  340MOL0     C46810   8.605   5.449   9.929 -0.4488 -1.1109 -0.1523
  340MOL0     C46811   8.493   5.355   9.707  0.1368  0.0029  0.8513
  340MOL0     C46812   8.359   5.409   9.733  0.0376  0.8186  0.6589
  340MOL0     O46813   8.267   5.398   9.637 -0.0692  0.5718  1.1647
  340MOL0     C46814   8.126   5.432   9.649 -0.9646 -0.0083  0.3568
  340MOL0     C46815   8.029   5.333   9.626 -0.4675 -0.4796 -0.2045
  340MOL0     C46816   7.900   5.370   9.598  0.4216 -0.1610 -0.0400
  340MOL0     C46817   7.859   5.506   9.597  0.4342  0.3874  0.6205
  340MOL0     O46818   7.734   5.560   9.570  0.5582  0.2419 -0.4623
  340MOL0     C46819   7.626   5.470   9.545 -0.6500  0.1135  0.4324
  340MOL0     C46820   7.614   5.444   9.389  0.3158 -0.9657 -0.0107
  340MOL0     C46821   7.481   5.383   9.363  0.3875  0.0318 -0.5271
  340MOL0     C46822   7.476   5.339   9.213 -0.6962 -0.0668  0.0218
  340MOL0     C46823   7.347   5.260   9.182  0.9879  0.3282  0.4958
  340MOL0     C46824   7.336   5.264   9.030 -0.2947  0.2392  0.3471
  340MOL0     C46825   7.209   5.182   8.986 -0.7984 -0.4781  0.2591
  340MOL0     C46826   7.223   5.137   8.837 -0.1161 -0.5139 -0.0938
  340MOL0    Cl46827   7.067   5.071   8.776 -0.1136  0.2803 -0.0429
  340MOL0     C46828   7.949   5.590   9.650 -0.1028 -0.3164 -0.3008
  340MOL0     C46829   8.088   5.565   9.671  0.1543  0.5844  0.4353
  340MOL0     O46830   8.335   5.454   9.844 -0.7030 -0.1457  0.4765
  340MOL0     C46831   8.505   5.274   9.587 -0.0540  0.0616  1.1891
  340MOL0     C46832   8.628   5.230   9.551  1.4028 -0.4175  0.4372
  340MOL0     N46833   9.098   4.904   9.016 -0.4333  0.2596 -0.8160
  340MOL0     N46834   9.111   4.914   8.887 -0.5619  0.4273  0.3508
  340MOL0     C46835   8.439   5.419   8.350 -0.0259  0.4245 -0.0187
  340MOL0     C46836   8.367   5.324   8.418  1.1163  0.9272  1.1108
  340MOL0     C46837   8.317   4.926   8.637  0.4952  0.1308 -0.6188
  340MOL0     C46838   8.395   4.820   8.678 -0.6301 -0.3696  0.5043
  340MOL0     C46839   8.357   4.739   8.784  0.6081  0.5281 -0.4531
  340MOL0     C46840   8.240   4.771   8.859 -0.1294 -0.1392  1.0148
  340MOL0     O46841   8.200   4.677   8.950  0.4332  0.4167 -0.3798
  340MOL0     C46842   8.218   4.717   9.089 -0.1640 -0.0404  0.5262
  340MOL0     C46843   8.152   4.605   9.173  0.1588 -0.5552  0.2259
  340MOL0     C46844   8.132   4.654   9.315 -0.1125  0.4360 -0.3968
  340MOL0     C46845   8.120   4.531   9.420  0.2090  0.3921  0.6576
  340MOL0     C46846   8.251   4.474   9.415 -0.7787  0.9940 -0.1808
  340MOL0     C46847   8.360   4.419   9.403 -0.2684  0.4831 -0.8777
  340MOL0     C46848   8.152   4.875   8.812 -0.2269  0.3765  0.0886
  340MOL0     C46849   8.189   4.951   8.698 -0.4722 -0.4285  0.8638
  340MOL0     C46850   8.091   5.051   8.649 -0.4232 -0.2585 -0.2798
  340MOL0     H46851   8.502   5.046   8.276  1.6425 -1.2108  0.9405
  340MOL0     H46852   8.627   5.212   8.155  1.3235  0.7687  0.0913
  340MOL0     H46853   8.730   5.569   8.054 -2.0670  1.8961  1.7277
  340MOL0     H46854   8.670   5.399   8.020  0.0046 -0.9626  1.0342
  340MOL0     H46855   8.831   5.295   8.114  0.6852  0.7343 -2.5229
  340MOL0     H46856   8.917   5.441   8.094  1.5364 -0.8795 -0.5844
  340MOL0     H46857   8.886   5.525   8.322 -1.6318 -0.4706  0.0111
  340MOL0     H46858   8.783   5.393   8.366  0.9253 -2.5703  0.1312
  340MOL0     H46859   8.965   5.236   8.301  2.3943  0.6537 -2.9233
  340MOL0     H46860   9.076   5.367   8.301 -0.0403  0.7666  0.0953
  340MOL0     H46861   8.905   5.256   8.520 -1.3119  1.4862  0.1317
  340MOL0     H46862   8.966   5.424   8.543 -4.7393  1.0095 -3.4257
  340MOL0     H46863   9.164   5.206   8.492 -1.6132 -0.6881 -0.7550
  340MOL0     H46864   9.184   5.366   8.551 -1.5017  2.0407 -1.0096
  340MOL0     H46865   9.056   5.286   8.771 -1.5777 -1.0115  0.0026
  340MOL0     H46866   9.211   5.206   8.754  0.5331 -0.2042  0.8626
  340MOL0     H46867   8.929   5.093   8.692  0.8563 -1.5043 -0.8491
  340MOL0     H46868   9.071   5.006   8.650 -0.8252 -1.4783  0.5888
  340MOL0     H46869   8.914   5.168   8.973 -2.4385 -2.2943  2.0043
  340MOL0     H46870   9.027   4.940   9.272  0.4032  0.3725 -1.5305
  340MOL0     H46871   8.882   5.018   9.238 -0.6554 -0.5805 -0.9892
  340MOL0     H46872   9.149   5.159   9.229 -0.0425  2.5461  0.3362
  340MOL0     H46873   8.998   5.236   9.207  1.6360 -0.2738 -1.8185
  340MOL0     H46874   9.102   5.092   9.455  1.8166  1.7640 -0.1043
  340MOL0     H46875   9.082   5.258   9.430  1.0047 -0.1258 -0.7591
  340MOL0     H46876   8.825   5.210   9.388 -1.4751  3.2123  3.8961
  340MOL0     H46877   8.854   5.055   9.460 -2.2724  1.0815 -0.4747
  340MOL0     H46878   8.825   5.341   9.811  0.3238 -1.1884 -0.5410
  340MOL0     H46879   8.579   5.554   9.913 -0.2233 -0.4515  3.1647
  340MOL0     H46880   8.704   5.459   9.975 -0.8920 -0.1796  0.6191
  340MOL0     H46881   8.539   5.407  10.006 -0.1138  0.2074  0.8899
  340MOL0     H46882   8.076   5.236   9.612  0.7110  0.1439 -0.7963
  340MOL0     H46883   7.825   5.293   9.586 -0.3457  0.1418  2.3089
  340MOL0     H46884   7.641   5.382   9.608  0.7763  0.0962  0.1039
  340MOL0     H46885   7.532   5.512   9.581 -1.0622 -0.0265 -0.4311
  340MOL0     H46886   7.610   5.532   9.326 -0.7422  1.3903  3.0657
  340MOL0     H46887   7.699   5.382   9.358  2.1921  0.4195  2.0005
  340MOL0     H46888   7.398   5.450   9.386  0.4914 -0.6861  2.2621
  340MOL0     H46889   7.475   5.301   9.435 -1.1812  4.0519  4.4742
  340MOL0     H46890   7.562   5.279   9.181 -0.5742  0.8233 -1.4266
  340MOL0     H46891   7.474   5.427   9.148  0.6599 -0.2672 -0.3174
  340MOL0     H46892   7.366   5.157   9.214  2.6737  0.1751 -0.8626
  340MOL0     H46893   7.263   5.309   9.233  0.0393 -1.6093  0.9075
  340MOL0     H46894   7.420   5.211   8.984 -2.1515 -1.6917 -1.0100
  340MOL0     H46895   7.339   5.368   8.996  1.6145  0.1520  0.1015
  340MOL0     H46896   7.126   5.253   8.992 -0.7208 -0.2131 -1.2976
  340MOL0     H46897   7.196   5.095   9.052 -0.2912 -3.0323 -2.7511
  340MOL0     H46898   7.297   5.057   8.830  0.4906  0.0070  0.3322
  340MOL0     H46899   7.260   5.217   8.773 -0.5189 -0.5873 -0.4268
  340MOL0     H46900   7.899   5.686   9.661 -0.7602 -0.5645 -1.0452
  340MOL0     H46901   8.161   5.643   9.689  0.6564  0.0643  0.7123
  340MOL0     H46902   8.422   5.262   9.518  1.4195  0.8439 -0.7920
  340MOL0     H46903   8.636   5.169   9.461  1.7698 -2.2099  1.6414
  340MOL0     H46904   8.431   5.522   8.385 -0.6641  0.5198 -0.4283
  340MOL0     H46905   8.293   5.347   8.494 -0.2088 -1.6847  0.7257
  340MOL0     H46906   8.491   4.792   8.636  1.4967 -2.9565  6.1099
  340MOL0     H46907   8.425   4.661   8.820 -0.2926  0.3256  0.9056
  340MOL0     H46908   8.327   4.720   9.102  0.2242  0.5220 -2.2435
  340MOL0     H46909   8.175   4.816   9.104  0.8446  0.3170  1.1362
  340MOL0     H46910   8.208   4.512   9.164 -2.3896 -2.0414 -1.4537
  340MOL0     H46911   8.060   4.578   9.120  1.3426  0.5176 -2.6061
  340MOL0     H46912   8.218   4.714   9.348  2.3690 -3.8625  1.8773
  340MOL0     H46913   8.045   4.721   9.315  0.1005  0.7184 -0.6019
  340MOL0     H46914   8.041   4.457   9.403  0.9069 -0.3994  0.7876
  340MOL0     H46915   8.105   4.580   9.516  1.6344  2.2995 -0.0330
  340MOL0     H46916   8.459   4.381   9.394 -0.0420 -0.0836  2.6177
  340MOL0     H46917   8.057   4.894   8.862  1.8804  2.7298  3.7028
  340MOL0     H46918   7.994   5.033   8.695 -0.5511 -0.3669 -0.5938
  340MOL0     H46919   8.120   5.156   8.658 -2.8181  0.4371  0.0323
  340MOL0     H46920   8.077   5.031   8.542  2.4214  2.7185 -1.4003
  341MOL0     O46921   4.485   3.088   0.229 -0.6393  0.6368  0.5615
  341MOL0     C46922   4.394   3.042   0.161  0.0053  0.5872 -1.2479
  341MOL0     O46923   4.410   2.938   0.074  0.1011  0.7803 -0.1952
  341MOL0     C46924   4.523   2.882   0.060 -0.2910  0.4728  0.2938
  341MOL0     C46925   4.541   2.752   0.106  0.2745  0.2996  0.5316
  341MOL0     C46926   4.653   2.676   0.070  0.7098 -0.0736 -0.8974
  341MOL0     C46927   4.755   2.739   0.001  0.3189  0.3231  0.3860
  341MOL0     O46928   4.876   2.672  -0.027 -0.2350  0.4209 -0.2537
  341MOL0     C46929   4.980   2.701   0.069 -0.0339  0.1961 -0.5612
  341MOL0     C46930   5.010   2.843   0.115 -0.7611 -0.5451 -0.2166
  341MOL0     C46931   5.094   2.926   0.008 -0.8185  1.2223  0.7728
  341MOL0     C46932   5.097   3.069   0.055  1.2535  0.0147 -0.9082
  341MOL0     C46933   5.143   3.173  -0.046  0.5963 -0.0029  0.7660
  341MOL0     C46934   5.142   3.314   0.017  0.6698  0.9530 -0.2347
  341MOL0     C46935   5.043   3.347   0.121  0.7381  0.3487  0.1228
  341MOL0     C46936   4.897   3.357   0.062 -0.4054  0.2391  0.1554
  341MOL0     N46937   4.824   3.370   0.182 -0.0658  0.0962 -0.4601
  341MOL0     C46938   4.804   3.276   0.279 -0.2208 -0.0285 -0.4176
  341MOL0     C46939   4.728   3.341   0.375  0.8870 -0.3292 -0.7191
  341MOL0     C46940   4.680   3.282   0.497  0.5590 -1.0964 -0.1000
  341MOL0     C46941   4.776   3.315   0.622 -0.5013 -0.0302  0.4045
  341MOL0     C46942   4.785   3.457   0.675 -0.4157  0.0510 -0.2149
  341MOL0     C46943   4.906   3.470   0.763  0.4212 -0.0362 -0.6114
  341MOL0     O46944   4.909   3.603   0.822 -0.3199  0.2530  0.8092
  341MOL0     C46945   4.976   3.639   0.940 -0.0242 -0.6240  0.3902
  341MOL0     C46946   5.045   3.547   1.019  0.0137  0.4228  0.2903
  341MOL0     C46947   5.124   3.581   1.128 -0.4955  0.0529  0.1232
  341MOL0     C46948   5.184   3.484   1.228  0.3357  0.0145 -0.0008
  341MOL0     C46949   5.150   3.722   1.148 -0.2923  0.4370 -0.1848
  341MOL0     C46950   5.251   3.778   1.246  1.3891 -0.3624  0.6681
  341MOL0     O46951   5.356   3.703   1.270  0.7111 -0.0836  0.0342
  341MOL0     C46952   5.455   3.749   1.348 -0.2988  0.0489 -0.1889
  341MOL0     C46953   5.499   3.883   1.354  0.5252  0.5159 -0.9585
  341MOL0     C46954   5.606   3.920   1.436 -0.0184  0.7777  0.2610
  341MOL0     C46955   5.681   3.828   1.506 -0.1970  0.7969 -0.0574
  341MOL0     O46956   5.779   3.869   1.585 -0.9061  0.4514  0.8153
  341MOL0     C46957   5.905   3.808   1.572  0.2852  0.0885 -0.1895
  341MOL0     C46958   6.020   3.907   1.630  0.3912 -0.0051 -0.1772
  341MOL0     C46959   5.986   3.967   1.768  0.2368  0.0848  0.2974
  341MOL0     C46960   6.061   4.089   1.818  0.0903 -0.4590 -0.0359
  341MOL0     C46961   6.055   4.104   1.968 -0.2935 -0.4139  0.4623
  341MOL0     C46962   5.914   4.137   2.028 -0.7263  0.4686  0.6568
  341MOL0     C46963   5.927   4.110   2.176  0.3057 -0.0020  0.4945
  341MOL0     C46964   6.018   4.218   2.242  0.4171  0.6659 -0.4589
  341MOL0    Cl46965   6.000   4.215   2.416 -0.2721 -0.0169 -0.1814
  341MOL0     C46966   5.650   3.693   1.500 -0.4340  0.2592 -0.1148
  341MOL0     C46967   5.535   3.655   1.429 -0.1740 -0.2741  0.3419
  341MOL0     O46968   5.229   3.892   1.304  0.2355  1.1605 -0.1420
  341MOL0     C46969   5.075   3.815   1.072 -0.8614  0.2656 -0.1721
  341MOL0     C46970   4.991   3.772   0.964 -0.1633 -0.6973  0.3968
  341MOL0     N46971   4.689   3.458   0.318  0.4830 -0.4542 -0.1562
  341MOL0     N46972   4.739   3.471   0.200 -0.1678  0.1486  0.1479
  341MOL0     C46973   4.741   2.873  -0.038 -0.1846  0.2826  0.1840
  341MOL0     C46974   4.620   2.941  -0.011  0.2929 -1.0285  0.7756
  341MOL0     C46975   4.265   3.090   0.198 -0.3714  0.4842 -0.3178
  341MOL0     C46976   4.156   3.021   0.144  0.7822  0.1880  0.0868
  341MOL0     C46977   4.017   3.058   0.171 -0.5539  0.7269  0.1568
  341MOL0     C46978   3.993   3.168   0.260  0.5049 -0.5969  0.5158
  341MOL0     O46979   3.859   3.200   0.281  0.2340 -0.2393 -0.3210
  341MOL0     C46980   3.790   3.116   0.378  0.6419 -0.4202 -1.6376
  341MOL0     C46981   3.641   3.129   0.345 -0.6180 -0.2362 -0.2825
  341MOL0     C46982   3.604   3.077   0.204 -0.6984  0.1498 -0.2710
  341MOL0     C46983   3.454   3.037   0.204  0.0769 -0.3337 -0.3602
  341MOL0     C46984   3.426   2.925   0.298  0.0461  0.6269 -0.2350
  341MOL0     C46985   3.412   2.847   0.391  0.6635 -0.4088 -0.3174
  341MOL0     C46986   4.098   3.241   0.312  1.4124 -0.4369  0.0626
  341MOL0     C46987   4.236   3.211   0.265  0.1035 -0.7864 -0.6239
  341MOL0     C46988   4.333   3.312   0.311  0.0842 -0.5535 -0.5091
  341MOL0     H46989   4.455   2.718   0.162  2.2853 -1.8847  2.5700
  341MOL0     H46990   4.657   2.572   0.104  0.4211  0.1026 -0.3008
  341MOL0     H46991   5.073   2.654   0.037 -0.7219 -2.5454  1.1854
  341MOL0     H46992   4.966   2.647   0.163  6.0628 -0.8866  0.1534
  341MOL0     H46993   4.924   2.903   0.146  1.1380  0.2129  4.5462
  341MOL0     H46994   5.070   2.833   0.207  3.1131  0.0453 -2.4437
  341MOL0     H46995   5.197   2.890   0.002 -1.4752 -0.6606 -0.3162
  341MOL0     H46996   5.052   2.921  -0.093 -1.5263 -0.4989  1.1058
  341MOL0     H46997   4.997   3.098   0.089  1.3951 -0.0096 -0.4752
  341MOL0     H46998   5.166   3.075   0.139  1.0616  0.3972 -0.7726
  341MOL0     H46999   5.070   3.176  -0.128  2.8832 -0.3520 -1.4131
  341MOL0     H47000   5.243   3.151  -0.087  0.2881  2.5850 -1.7880
  341MOL0     H47001   5.235   3.329   0.073 -0.4177  2.1057  1.3602
  341MOL0     H47002   5.131   3.381  -0.069 -0.9262 -1.0391 -1.6689
  341MOL0     H47003   5.071   3.443   0.165  0.5193  0.0611  0.9133
  341MOL0     H47004   5.049   3.276   0.204 -0.9970  0.0843  0.0746
  341MOL0     H47005   4.882   3.453   0.010  0.0672 -1.7813 -4.1888
  341MOL0     H47006   4.865   3.274  -0.002 -2.2219  0.1187  1.1581
  341MOL0     H47007   4.840   3.174   0.290 -2.0367 -0.5689  0.9575
  341MOL0     H47008   4.664   3.175   0.481 -2.9971 -0.4499 -1.8229
  341MOL0     H47009   4.582   3.329   0.508  0.4658 -0.1917 -3.7261
  341MOL0     H47010   4.735   3.255   0.704 -2.5090  0.5359 -0.1152
  341MOL0     H47011   4.876   3.276   0.603 -0.4644  0.0758  0.3796
  341MOL0     H47012   4.800   3.533   0.598 -0.1963  1.4167  1.1097
  341MOL0     H47013   4.692   3.478   0.728 -2.2450  1.8367 -3.7917
  341MOL0     H47014   4.910   3.394   0.841  1.9237 -1.3711 -1.8998
  341MOL0     H47015   5.000   3.452   0.709  0.1459 -0.9015 -0.8210
  341MOL0     H47016   5.032   3.441   1.001  1.2943  0.1307  0.9737
  341MOL0     H47017   5.281   3.439   1.204  0.4948 -2.6119  4.5629
  341MOL0     H47018   5.120   3.395   1.224 -1.8355  1.5290 -0.5280
  341MOL0     H47019   5.179   3.537   1.323  3.4082 -0.4073  0.5039
  341MOL0     H47020   5.452   3.963   1.298  1.4634  0.6536 -1.5689
  341MOL0     H47021   5.642   4.022   1.445  0.9869  0.5478 -0.8701
  341MOL0     H47022   5.915   3.717   1.631 -2.0084 -0.3346 -0.3704
  341MOL0     H47023   5.938   3.779   1.471  1.4756  1.9585 -0.3837
  341MOL0     H47024   6.117   3.856   1.628 -0.0442 -0.8641 -0.1218
  341MOL0     H47025   6.042   3.987   1.559  0.0433 -1.6423 -2.2548
  341MOL0     H47026   5.996   3.883   1.837 -0.3201 -0.5205 -0.3337
  341MOL0     H47027   5.879   3.990   1.779 -0.1954 -1.1932 -0.8591
  341MOL0     H47028   6.015   4.172   1.765  0.1283  1.2717  2.4802
  341MOL0     H47029   6.163   4.072   1.782  0.5288 -0.8131  1.3190
  341MOL0     H47030   6.079   4.014   2.024  0.3123  0.0521  0.9818
  341MOL0     H47031   6.125   4.186   1.990  0.2427 -1.2338  1.9880
  341MOL0     H47032   5.835   4.067   1.998 -0.0324 -0.7192  1.5056
  341MOL0     H47033   5.886   4.239   1.999  0.4669  0.1825 -1.7849
  341MOL0     H47034   5.948   4.005   2.199 -2.0318 -0.2830  1.6926
  341MOL0     H47035   5.825   4.127   2.213 -0.6851  1.7878 -2.6618
  341MOL0     H47036   5.995   4.320   2.210  3.3545  2.0937  1.5023
  341MOL0     H47037   6.123   4.201   2.214  0.5248  0.1140  0.2391
  341MOL0     H47038   5.704   3.622   1.562 -0.9362  0.6309  0.7706
  341MOL0     H47039   5.505   3.550   1.435 -3.2334  0.5691  2.0826
  341MOL0     H47040   5.065   3.922   1.086 -0.8734  0.2754 -0.2555
  341MOL0     H47041   4.947   3.847   0.899  0.9211  0.7919  1.3004
  341MOL0     H47042   4.812   2.913  -0.109 -2.6092  2.0636 -1.3571
  341MOL0     H47043   4.599   3.043  -0.040  2.0254 -0.3241  1.8556
  341MOL0     H47044   4.170   2.936   0.079  2.3037 -0.0546  0.6705
  341MOL0     H47045   3.942   2.991   0.131 -1.3673  2.3478 -1.1625
  341MOL0     H47046   3.821   3.012   0.395 -1.3052 -0.6234  1.7688
  341MOL0     H47047   3.809   3.167   0.473  1.6592 -2.7327 -0.5101
  341MOL0     H47048   3.636   3.238   0.343  2.6307  0.0436  0.3823
  341MOL0     H47049   3.584   3.086   0.428  1.3578 -2.9044 -0.1669
  341MOL0     H47050   3.628   3.155   0.132  1.1315 -1.9077 -2.0328
  341MOL0     H47051   3.664   2.992   0.168 -2.5575 -0.4981 -2.0166
  341MOL0     H47052   3.429   2.991   0.109 -0.5227 -1.0674  0.1431
  341MOL0     H47053   3.386   3.121   0.221  1.7739  0.9946  0.3205
  341MOL0     H47054   3.402   2.784   0.477  0.0088 -0.5521 -0.4979
  341MOL0     H47055   4.077   3.335   0.361 -0.0462  0.8178 -2.7253
  341MOL0     H47056   4.371   3.280   0.409  0.6954 -2.3253 -1.2808
  341MOL0     H47057   4.410   3.323   0.233  0.2143  1.4928 -0.1475
  341MOL0     H47058   4.292   3.413   0.319 -2.8681 -1.7255  0.1582
  342MOL0     O47059   1.204  10.012   0.121 -0.2068  0.4120 -0.0772
  342MOL0     C47060   1.194  10.009  -0.003 -0.0312  0.2589 -0.8504
  342MOL0     O47061   1.070  10.015  -0.066 -0.1988  0.3726  0.5124
  342MOL0     C47062   0.962  10.076  -0.000  0.0822 -0.4532  0.1218
  342MOL0     C47063   0.972  10.182   0.093  0.0116  0.5788 -0.3058
  342MOL0     C47064   0.867  10.254   0.146 -0.6472  0.4297 -0.2228
  342MOL0     C47065   0.735  10.223   0.107 -0.3763 -0.0093  0.8392
  342MOL0     O47066   0.633  10.291   0.170  0.4404  0.0972  0.3382
  342MOL0     C47067   0.502  10.285   0.116 -1.0935 -0.1440 -0.0940
  342MOL0     C47068   0.391  10.335   0.225 -0.8566  0.1310 -0.4097
  342MOL0     C47069   0.254  10.290   0.203  0.2676 -0.3590  0.2538
  342MOL0     C47070   0.210  10.297   0.054  0.0379 -0.5590 -0.0744
  342MOL0     C47071   0.053  10.275   0.037 -0.7075 -0.0487 -0.4568
  342MOL0     C47072   0.009  10.284  -0.113 -0.2883  0.2245  0.5082
  342MOL0     C47073  -0.131  10.244  -0.134  0.7175 -0.0699 -1.1579
  342MOL0     C47074  -0.174  10.256  -0.281  0.7324  0.2259  0.0030
  342MOL0     N47075  -0.313  10.212  -0.299 -0.0808 -0.7929  0.2607
  342MOL0     C47076  -0.362  10.113  -0.383  0.4536 -0.3887 -0.0474
  342MOL0     C47077  -0.496  10.106  -0.360 -0.5411 -0.3894 -0.1297
  342MOL0     C47078  -0.602  10.017  -0.427  0.8459 -0.1524 -0.0970
  342MOL0     C47079  -0.661  10.079  -0.552 -0.4492  1.0058  0.5497
  342MOL0     C47080  -0.772   9.975  -0.580  0.0914 -0.0405 -0.4774
  342MOL0     C47081  -0.898  10.038  -0.518 -0.3765 -0.6298  0.1475
  342MOL0     O47082  -1.019   9.981  -0.576 -0.2148  0.8679  0.0764
  342MOL0     C47083  -1.125   9.985  -0.496  0.1701  0.6896 -0.2093
  342MOL0     C47084  -1.216   9.886  -0.528 -1.0904  0.1912 -0.5621
  342MOL0     C47085  -1.339   9.879  -0.464 -0.1563 -0.8826  0.1516
  342MOL0     C47086  -1.431   9.753  -0.491 -0.9414  0.5133 -0.3568
  342MOL0     C47087  -1.378   9.982  -0.375  0.2974  0.1481 -0.3750
  342MOL0     C47088  -1.508   9.983  -0.301 -0.9074  0.5103 -0.6051
  342MOL0     O47089  -1.569  10.107  -0.295  0.1334  0.3110 -0.2376
  342MOL0     C47090  -1.645  10.140  -0.187 -0.6912 -0.1893 -0.3234
  342MOL0     C47091  -1.698  10.265  -0.196 -0.0218 -0.3761 -0.2234
  342MOL0     C47092  -1.773  10.315  -0.091  0.0727  0.5689 -0.8304
  342MOL0     C47093  -1.792  10.247   0.031 -0.5374 -0.1974  0.4618
  342MOL0     O47094  -1.891  10.296   0.120 -0.8859  0.1019  0.3527
  342MOL0     C47095  -1.886  10.430   0.152 -0.0423 -0.0181  0.5478
  342MOL0     C47096  -1.963  10.448   0.289 -0.3274  0.3215  0.0554
  342MOL0     C47097  -1.909  10.355   0.393 -0.1582  0.9963  0.0317
  342MOL0     C47098  -1.982  10.357   0.518  1.1862  0.4631 -0.9532
  342MOL0     C47099  -1.915  10.256   0.620  0.2742  1.3429 -0.4808
  342MOL0     C47100  -1.942  10.269   0.761 -0.0253  0.3827 -0.2550
  342MOL0     C47101  -1.841  10.190   0.851  0.0530 -0.5923 -0.7834
  342MOL0     C47102  -1.860  10.225   1.005  0.2086 -0.4049 -0.0808
  342MOL0    Cl47103  -2.021  10.184   1.066 -0.0583  0.5549 -0.3763
  342MOL0     C47104  -1.719  10.130   0.052  0.2136  0.3529  0.2662
  342MOL0     C47105  -1.648  10.077  -0.061 -0.5932 -0.1466 -0.6139
  342MOL0     O47106  -1.559   9.880  -0.254 -0.3263  0.0500  0.4195
  342MOL0     C47107  -1.284  10.081  -0.335  0.5515 -1.0123  0.5150
  342MOL0     C47108  -1.155  10.083  -0.398  0.2234  0.1121  1.0086
  342MOL0     N47109  -0.529  10.204  -0.274 -0.2883 -0.9281 -0.2777
  342MOL0     N47110  -0.420  10.260  -0.229 -0.2538  0.1572  0.6064
  342MOL0     C47111   0.716  10.114   0.011 -0.2591  0.1815  0.1992
  342MOL0     C47112   0.824  10.035  -0.037 -0.3647 -0.2814 -0.6732
  342MOL0     C47113   1.315  10.007  -0.090  0.8909  0.0077 -0.3673
  342MOL0     C47114   1.293   9.949  -0.216  0.3569 -0.8926  0.4013
  342MOL0     C47115   1.398   9.941  -0.308 -0.0034  0.3629 -0.2981
  342MOL0     C47116   1.522   9.979  -0.273 -0.4546 -0.7003  0.6428
  342MOL0     O47117   1.615   9.964  -0.369 -0.2018  0.0266 -0.0375
  342MOL0     C47118   1.751   9.999  -0.328  0.1087  0.0085 -0.4430
  342MOL0     C47119   1.847   9.969  -0.447 -0.4705 -1.3079 -0.5875
  342MOL0     C47120   1.846   9.821  -0.490 -0.3702 -0.0145 -0.9981
  342MOL0     C47121   1.991   9.761  -0.508 -0.2220 -0.6825  0.3853
  342MOL0     C47122   2.074   9.766  -0.385  0.7169 -0.0282 -0.3942
  342MOL0     C47123   2.120   9.767  -0.274 -0.6108  1.3014 -1.3097
  342MOL0     C47124   1.551  10.044  -0.149 -0.1468 -0.2018 -0.7667
  342MOL0     C47125   1.446  10.058  -0.050  1.0121  0.1794  0.1249
  342MOL0     C47126   1.482  10.111   0.082  0.4071 -0.8703 -0.3782
  342MOL0     H47127   1.068  10.225   0.122 -1.4194  3.1668  0.8710
  342MOL0     H47128   0.877  10.337   0.215  3.4418 -0.9363  1.1229
  342MOL0     H47129   0.466  10.184   0.094 -1.0191 -0.0459 -0.6811
  342MOL0     H47130   0.490  10.345   0.025  0.3634 -0.1097 -0.2789
  342MOL0     H47131   0.427  10.293   0.319 -0.7172 -0.4933 -0.7332
  342MOL0     H47132   0.377  10.443   0.230 -1.6213  0.0162  0.1421
  342MOL0     H47133   0.239  10.186   0.235 -1.6429  0.0793  0.9150
  342MOL0     H47134   0.178  10.345   0.258 -0.0980 -0.0392 -0.5610
  342MOL0     H47135   0.247  10.392   0.012 -1.1045 -0.8544 -1.8540
  342MOL0     H47136   0.263  10.212   0.010 -0.9991 -1.6321  0.6979
  342MOL0     H47137   0.009  10.359   0.092  1.3941  0.9904 -0.2803
  342MOL0     H47138   0.028  10.176   0.077  0.0332 -0.8674 -1.9581
  342MOL0     H47139   0.019  10.386  -0.151 -1.3435 -0.0645 -0.6357
  342MOL0     H47140   0.064  10.202  -0.160 -0.9792 -0.8186  1.4670
  342MOL0     H47141  -0.191  10.320  -0.083  0.7756  2.4277 -4.4399
  342MOL0     H47142  -0.146  10.145  -0.092 -0.3355  1.0230  1.2061
  342MOL0     H47143  -0.167  10.356  -0.325 -3.5212  0.1001 -1.3953
  342MOL0     H47144  -0.111  10.185  -0.337  0.7438 -0.6853  1.1250
  342MOL0     H47145  -0.302  10.049  -0.447 -0.4904 -4.5442  2.8191
  342MOL0     H47146  -0.685  10.001  -0.357 -1.9522  2.2461 -2.5514
  342MOL0     H47147  -0.572   9.914  -0.446  3.9051  0.0602  2.6868
  342MOL0     H47148  -0.697  10.182  -0.543  1.1808  1.7564 -0.9742
  342MOL0     H47149  -0.590  10.092  -0.634 -1.8448  0.0541 -0.8725
  342MOL0     H47150  -0.782   9.948  -0.685 -1.3784  0.1076 -0.3907
  342MOL0     H47151  -0.765   9.882  -0.523  1.0222 -0.4569 -1.2545
  342MOL0     H47152  -0.895  10.026  -0.409  0.3504  1.1496  0.3655
  342MOL0     H47153  -0.901  10.145  -0.541  0.9919 -0.5760  0.1309
  342MOL0     H47154  -1.180   9.819  -0.606 -0.0775  2.2273 -1.9310
  342MOL0     H47155  -1.405   9.677  -0.417  1.0337  2.1523  0.7126
  342MOL0     H47156  -1.404   9.710  -0.588  1.7610  1.8772 -0.3058
  342MOL0     H47157  -1.537   9.779  -0.493 -1.1776 -0.1632  1.7089
  342MOL0     H47158  -1.705  10.329  -0.284 -2.0700 -1.8453 -1.2181
  342MOL0     H47159  -1.832  10.406  -0.100  0.5263  1.0326  0.6276
  342MOL0     H47160  -1.781  10.460   0.160 -0.5378  2.1576 -0.2644
  342MOL0     H47161  -1.946  10.488   0.082 -0.9875 -0.3767  1.0496
  342MOL0     H47162  -1.946  10.553   0.316  4.3720  0.4666 -2.3567
  342MOL0     H47163  -2.071  10.440   0.277 -0.3266 -0.6404  0.6548
  342MOL0     H47164  -1.804  10.370   0.420  0.2609 -2.5807  0.8710
  342MOL0     H47165  -1.923  10.255   0.351 -3.4787  0.2584  2.5026
  342MOL0     H47166  -2.089  10.337   0.517  1.1664  0.3222  0.9873
  342MOL0     H47167  -1.974  10.457   0.561 -1.0722  1.1167 -1.9016
  342MOL0     H47168  -1.944  10.154   0.593 -3.1800  0.8514  3.9981
  342MOL0     H47169  -1.807  10.253   0.600  0.2239  0.7292 -0.6824
  342MOL0     H47170  -2.042  10.234   0.789  0.5841 -1.9641 -0.7823
  342MOL0     H47171  -1.938  10.375   0.787  1.5578  0.5619 -1.1220
  342MOL0     H47172  -1.745  10.226   0.814 -0.5834  0.1127 -1.8035
  342MOL0     H47173  -1.836  10.082   0.834  1.5666 -0.4400 -1.4057
  342MOL0     H47174  -1.851  10.333   1.019  0.2026 -0.3917 -0.1766
  342MOL0     H47175  -1.787  10.175   1.070  0.2069  1.7469  1.6864
  342MOL0     H47176  -1.722  10.079   0.148  0.4507  1.3892  0.8432
  342MOL0     H47177  -1.579   9.996  -0.041  0.2363 -0.3323 -3.7602
  342MOL0     H47178  -1.326  10.164  -0.278 -0.2827  0.0541 -1.5355
  342MOL0     H47179  -1.089  10.162  -0.364 -2.1229  2.0651  1.2638
  342MOL0     H47180   0.617  10.087  -0.026 -0.8374  1.6487  0.5869
  342MOL0     H47181   0.814   9.949  -0.102 -0.0264 -2.2909  1.7850
  342MOL0     H47182   1.199   9.914  -0.256  1.3848 -0.8146 -2.3183
  342MOL0     H47183   1.382   9.890  -0.402  3.0718 -0.4531 -0.4851
  342MOL0     H47184   1.764  10.108  -0.324 -0.8614  0.4144 -4.4116
  342MOL0     H47185   1.782   9.957  -0.232 -0.4851  3.3540  1.3630
  342MOL0     H47186   1.952   9.987  -0.421 -0.4211  0.1476 -1.7043
  342MOL0     H47187   1.832  10.031  -0.536  2.9484 -0.1912 -0.5261
  342MOL0     H47188   1.790   9.756  -0.423  1.0346  1.0044  1.2545
  342MOL0     H47189   1.786   9.817  -0.582  1.2378  0.6940 -2.1377
  342MOL0     H47190   2.051   9.801  -0.590  0.6963  2.6721  2.5222
  342MOL0     H47191   1.975   9.657  -0.538  0.6482 -0.7917  0.2755
  342MOL0     H47192   2.171   9.766  -0.179  1.6669  0.9375 -2.4691
  342MOL0     H47193   1.649  10.078  -0.117  0.2118 -3.5933  2.4064
  342MOL0     H47194   1.467  10.035   0.158  0.9630 -0.3327  0.2903
  342MOL0     H47195   1.590  10.127   0.094  0.5531 -0.2965 -2.1895
  342MOL0     H47196   1.431  10.202   0.115  2.6556  0.9194 -1.5181
  343MOL0     O47197   7.333   4.160   3.734 -0.2079  0.0877 -0.2747
  343MOL0     C47198   7.261   4.225   3.812  0.4499 -0.6611 -0.2495
  343MOL0     O47199   7.280   4.353   3.843  0.2807 -0.9376 -0.1131
  343MOL0     C47200   7.320   4.438   3.744 -1.2104 -0.3957  0.2861
  343MOL0     C47201   7.400   4.549   3.794  0.3285  0.6942 -0.0196
  343MOL0     C47202   7.439   4.647   3.713 -0.3443 -0.4500 -0.1048
  343MOL0     C47203   7.425   4.636   3.570  0.4614 -0.0635  0.9308
  343MOL0     O47204   7.497   4.721   3.488 -0.9919 -0.0643 -0.4990
  343MOL0     C47205   7.506   4.691   3.345 -0.2316  0.4249  0.5548
  343MOL0     C47206   7.582   4.803   3.265  0.3276 -0.0664 -0.7610
  343MOL0     C47207   7.568   4.779   3.113  0.2231 -0.6835  0.5553
  343MOL0     C47208   7.640   4.895   3.033 -0.0721 -0.8685 -0.0660
  343MOL0     C47209   7.618   4.863   2.878 -0.0397  0.1076  0.3770
  343MOL0     C47210   7.673   4.967   2.788 -1.0915  0.7016 -0.1683
  343MOL0     C47211   7.830   4.960   2.808 -0.3652 -0.1318 -0.1737
  343MOL0     C47212   7.918   5.036   2.702 -0.4847  0.0710  0.2052
  343MOL0     N47213   7.906   5.185   2.701  0.2907 -0.5292  0.6439
  343MOL0     C47214   7.809   5.253   2.768 -0.0184 -0.5286 -0.6046
  343MOL0     C47215   7.810   5.375   2.709  0.1509  0.2088  0.0999
  343MOL0     C47216   7.727   5.495   2.753  0.4202  0.6502 -0.3709
  343MOL0     C47217   7.574   5.462   2.750  0.4830  0.2786 -0.6952
  343MOL0     C47218   7.507   5.441   2.609  1.3269 -0.5902 -0.4005
  343MOL0     C47219   7.364   5.396   2.625  0.3089  0.1067  0.2185
  343MOL0     O47220   7.367   5.255   2.666  0.1132 -0.0177  0.7800
  343MOL0     C47221   7.265   5.190   2.726  0.2371 -0.1851  0.1958
  343MOL0     C47222   7.281   5.056   2.750 -0.0502  0.1387  0.3208
  343MOL0     C47223   7.189   4.976   2.825  0.4153  0.3773 -0.5359
  343MOL0     C47224   7.234   4.831   2.850 -0.5415  0.2701 -0.5202
  343MOL0     C47225   7.077   5.034   2.879 -0.0578 -0.4333  0.6509
  343MOL0     C47226   6.972   4.961   2.952 -0.1717 -0.6150  0.2825
  343MOL0     O47227   6.914   5.032   3.061 -0.2743 -0.1930 -0.2017
  343MOL0     C47228   6.800   4.986   3.104 -0.5571 -0.6545 -0.0857
  343MOL0     C47229   6.779   4.936   3.235 -0.8067 -0.1290  0.2638
  343MOL0     C47230   6.661   4.889   3.285 -0.2395 -0.0182 -0.4415
  343MOL0     C47231   6.553   4.901   3.198 -0.6587 -0.4061 -0.9021
  343MOL0     O47232   6.428   4.864   3.229  1.0193 -0.4565  0.7905
  343MOL0     C47233   6.410   4.789   3.354 -0.2507 -0.5379  0.1181
  343MOL0     C47234   6.259   4.761   3.372  0.6054 -0.6404 -0.5615
  343MOL0     C47235   6.241   4.654   3.486  0.1049  0.0691  0.3764
  343MOL0     C47236   6.098   4.644   3.529 -0.4186  0.3567 -0.2102
  343MOL0     C47237   6.004   4.586   3.413 -0.4951 -0.1152 -0.4210
  343MOL0     C47238   5.866   4.555   3.473  0.5915  0.5356 -0.9209
  343MOL0     C47239   5.761   4.510   3.369  0.3390  0.4204  0.3803
  343MOL0     C47240   5.732   4.608   3.250 -0.0945  0.6004 -0.1664
  343MOL0    Cl47241   5.694   4.776   3.300  0.1656 -0.0814  0.1389
  343MOL0     C47242   6.565   4.958   3.064 -0.6709 -0.2411  0.0948
  343MOL0     C47243   6.693   4.999   3.010 -1.1745  0.8385  0.5497
  343MOL0     O47244   6.947   4.846   2.921 -0.0667 -0.5890 -0.2495
  343MOL0     C47245   7.060   5.171   2.861 -0.2130  0.1113 -0.3375
  343MOL0     C47246   7.154   5.251   2.793  0.0315 -0.4413 -0.2529
  343MOL0     N47247   7.899   5.368   2.596  0.3987 -0.3766 -0.2064
  343MOL0     N47248   7.961   5.259   2.600  0.0999 -0.0388 -0.1597
  343MOL0     C47249   7.360   4.524   3.517  0.4573  0.6924 -0.6303
  343MOL0     C47250   7.290   4.435   3.609 -0.5502 -0.2386  0.2771
  343MOL0     C47251   7.154   4.149   3.887  0.6467 -0.1502 -0.5673
  343MOL0     C47252   7.095   4.036   3.828  0.0343  0.2774 -0.3031
  343MOL0     C47253   6.984   3.978   3.885 -0.3006 -0.2502  0.3812
  343MOL0     C47254   6.922   4.015   4.005  0.1481  0.1727 -0.1620
  343MOL0     O47255   6.809   3.944   4.045 -0.1537 -0.3722 -0.0884
  343MOL0     C47256   6.727   4.003   4.144 -0.4956 -0.4603  0.5311
  343MOL0     C47257   6.777   3.980   4.287  0.4592 -0.2841 -1.0096
  343MOL0     C47258   6.691   4.068   4.383  0.7370 -0.6705 -0.3067
  343MOL0     C47259   6.746   4.058   4.527  0.1234  0.5152 -0.1635
  343MOL0     C47260   6.876   4.129   4.526 -0.3936 -0.2078 -0.3540
  343MOL0     C47261   6.970   4.209   4.532  0.1010  0.2074 -0.8969
  343MOL0     C47262   6.984   4.123   4.065 -0.9771  0.1577 -0.1554
  343MOL0     C47263   7.093   4.197   4.009 -0.5810 -0.3501 -0.1146
  343MOL0     C47264   7.139   4.314   4.087  0.0880 -0.2697 -0.3963
  343MOL0     H47265   7.431   4.541   3.897  0.2857  2.4066  0.1410
  343MOL0     H47266   7.512   4.720   3.748  1.4732 -1.6799 -1.1147
  343MOL0     H47267   7.407   4.693   3.297 -1.9228 -0.5930  3.7434
  343MOL0     H47268   7.555   4.594   3.329 -0.4840  0.5122 -0.8752
  343MOL0     H47269   7.536   4.899   3.289  2.8359  1.0454 -0.0411
  343MOL0     H47270   7.688   4.814   3.291  1.0062 -1.1526 -2.8105
  343MOL0     H47271   7.609   4.682   3.087 -0.0164 -0.0978 -2.4383
  343MOL0     H47272   7.461   4.774   3.091 -0.3692 -0.2985  3.0215
  343MOL0     H47273   7.599   4.994   3.059  3.4550  0.6544  0.2359
  343MOL0     H47274   7.745   4.895   3.061  0.8603  0.6576 -3.0898
  343MOL0     H47275   7.515   4.850   2.843  0.5645 -2.2175 -0.7878
  343MOL0     H47276   7.677   4.774   2.853 -0.1003  0.3287 -0.6089
  343MOL0     H47277   7.667   4.937   2.682  2.2858  0.5563 -0.4254
  343MOL0     H47278   7.620   5.061   2.797 -0.7349  0.7836  1.3139
  343MOL0     H47279   7.875   4.862   2.794  2.3654  0.8206  1.1975
  343MOL0     H47280   7.860   4.989   2.910  0.7057 -2.3564  0.2024
  343MOL0     H47281   8.020   4.998   2.709 -0.9516 -1.7396 -1.8878
  343MOL0     H47282   7.872   4.988   2.615  1.2822  1.3193 -1.4968
  343MOL0     H47283   7.754   5.219   2.855 -0.7715  2.6759  0.2752
  343MOL0     H47284   7.751   5.576   2.683  3.2897 -0.2000 -0.5233
  343MOL0     H47285   7.751   5.526   2.855 -1.9975 -1.6419  1.0403
  343MOL0     H47286   7.558   5.384   2.825  1.2937 -0.9958 -1.7970
  343MOL0     H47287   7.539   5.558   2.790  1.9765  1.0154 -1.0956
  343MOL0     H47288   7.495   5.539   2.562  1.4738 -0.2582  0.2380
  343MOL0     H47289   7.572   5.381   2.545  2.1068  1.6378 -1.8160
  343MOL0     H47290   7.313   5.459   2.699  1.2522  1.7774 -0.4910
  343MOL0     H47291   7.309   5.410   2.532  0.5326  0.9323  0.1984
  343MOL0     H47292   7.365   5.004   2.705 -0.3283 -1.0097  1.0681
  343MOL0     H47293   7.241   4.814   2.958 -1.1881 -1.3037 -0.7119
  343MOL0     H47294   7.331   4.804   2.807 -0.4923  1.0344 -0.9080
  343MOL0     H47295   7.160   4.760   2.813 -0.5826  0.7989 -1.4758
  343MOL0     H47296   6.851   4.947   3.316 -0.3047 -0.9407 -0.0572
  343MOL0     H47297   6.659   4.842   3.383 -1.8299 -0.4026 -0.6281
  343MOL0     H47298   6.462   4.694   3.344  0.7302  0.1228 -1.4962
  343MOL0     H47299   6.447   4.857   3.431 -0.8570  2.0722 -1.7468
  343MOL0     H47300   6.200   4.853   3.372 -0.4323 -1.2831 -1.3393
  343MOL0     H47301   6.231   4.706   3.281  0.7199  0.4430 -1.2699
  343MOL0     H47302   6.302   4.679   3.574 -0.0456  1.1522  0.1915
  343MOL0     H47303   6.274   4.563   3.436 -1.6242  0.6207 -1.9123
  343MOL0     H47304   6.056   4.743   3.552 -0.5540 -0.0049  1.1439
  343MOL0     H47305   6.098   4.578   3.616  1.0423  0.5968 -0.0028
  343MOL0     H47306   5.999   4.653   3.327 -2.4014 -1.1309 -1.1581
  343MOL0     H47307   6.050   4.492   3.380 -0.2521 -0.4233  0.7461
  343MOL0     H47308   5.836   4.646   3.525  0.8792  0.0450  0.1298
  343MOL0     H47309   5.883   4.472   3.542 -0.4218  0.1314 -1.1281
  343MOL0     H47310   5.671   4.473   3.418 -1.5489 -1.4300 -3.9321
  343MOL0     H47311   5.804   4.418   3.328  3.3527 -0.1010  4.1645
  343MOL0     H47312   5.670   4.568   3.169 -0.4535  2.5454 -0.9162
  343MOL0     H47313   5.832   4.626   3.208  0.6436  0.3995  1.4244
  343MOL0     H47314   6.483   4.963   2.994 -1.7489  1.3312  1.4012
  343MOL0     H47315   6.705   5.033   2.907 -0.4187 -5.9773 -2.1677
  343MOL0     H47316   6.970   5.222   2.896  0.3773  0.5081  0.6382
  343MOL0     H47317   7.129   5.356   2.786 -0.4588 -0.5045  0.4977
  343MOL0     H47318   7.353   4.497   3.413 -0.6331 -1.6182 -0.0250
  343MOL0     H47319   7.241   4.348   3.568 -0.2447 -0.4047  0.2628
  343MOL0     H47320   7.136   3.985   3.742 -4.7678  0.6770 -3.2384
  343MOL0     H47321   6.945   3.893   3.830  1.6908  0.4315 -2.3528
  343MOL0     H47322   6.704   4.106   4.113 -2.4801 -0.1574  2.7530
  343MOL0     H47323   6.624   3.967   4.140 -0.2148 -1.2339 -3.1823
  343MOL0     H47324   6.882   4.007   4.300 -0.5338  2.5082  3.1624
  343MOL0     H47325   6.753   3.876   4.307 -1.0883 -0.2740 -2.6417
  343MOL0     H47326   6.689   4.170   4.343 -1.1639 -0.7196 -0.4258
  343MOL0     H47327   6.584   4.051   4.370 -0.1907  4.1487 -0.9825
  343MOL0     H47328   6.759   3.958   4.568 -3.1592  0.1555  0.3019
  343MOL0     H47329   6.689   4.112   4.604 -1.2890  1.1221 -1.5805
  343MOL0     H47330   7.055   4.273   4.546 -0.0438  0.2998 -0.4170
  343MOL0     H47331   6.943   4.164   4.156 -2.3956  1.6982 -1.4447
  343MOL0     H47332   7.102   4.409   4.047  0.0432  0.2405  0.7868
  343MOL0     H47333   7.112   4.308   4.193 -1.2406 -6.6527 -0.6795
  343MOL0     H47334   7.246   4.300   4.106  0.0573 -0.0546 -0.0378
  344MOL0     O47335   3.632   1.456   7.402 -0.5474 -0.1935 -0.1975
  344MOL0     C47336   3.731   1.479   7.468 -0.8563 -0.7092  0.2435
  344MOL0     O47337   3.737   1.462   7.600  0.1142  0.3615 -0.3949
  344MOL0     C47338   3.631   1.478   7.686 -0.1034  0.1665  0.3540
  344MOL0     C47339   3.611   1.584   7.771  0.2257 -0.4063  0.7181
  344MOL0     C47340   3.510   1.587   7.859  0.8134 -0.1543 -0.5200
  344MOL0     C47341   3.428   1.471   7.874  0.1503  0.0452 -1.6710
  344MOL0     O47342   3.342   1.472   7.985  0.5514  0.1256  0.1083
  344MOL0     C47343   3.206   1.416   7.968  1.6122  0.7449 -0.2428
  344MOL0     C47344   3.129   1.433   8.106  0.6381  0.0688  0.0293
  344MOL0     C47345   2.998   1.359   8.105 -0.0693 -0.9263  0.2877
  344MOL0     C47346   2.894   1.420   8.016  0.0144 -0.3065  0.1974
  344MOL0     C47347   2.753   1.371   8.059 -0.0260  0.2708 -0.6603
  344MOL0     C47348   2.648   1.354   7.947 -0.8186  0.9355 -0.8312
  344MOL0     C47349   2.691   1.229   7.867 -0.0230 -0.1431 -0.0278
  344MOL0     C47350   2.594   1.188   7.761 -0.7743  0.3483 -0.2121
  344MOL0     N47351   2.588   1.301   7.669 -0.1646 -0.2973 -1.1680
  344MOL0     C47352   2.472   1.365   7.637 -0.3846  0.5428 -0.3901
  344MOL0     C47353   2.512   1.460   7.556  0.7123 -0.5716 -0.6939
  344MOL0     C47354   2.410   1.549   7.492  0.2932  0.0229 -0.0359
  344MOL0     C47355   2.271   1.488   7.474 -0.3092 -1.0228 -0.3846
  344MOL0     C47356   2.190   1.576   7.370  0.0253 -0.3787 -0.9603
  344MOL0     C47357   2.046   1.551   7.390 -0.0314  0.2233  0.8870
  344MOL0     O47358   1.973   1.628   7.292  0.1647  0.3793  0.2588
  344MOL0     C47359   1.835   1.632   7.276 -0.1492  0.5152  0.4392
  344MOL0     C47360   1.782   1.732   7.190 -0.1057  0.0280  0.8729
  344MOL0     C47361   1.652   1.731   7.148  0.5047  0.2408 -0.2339
  344MOL0     C47362   1.600   1.835   7.052  0.1443  0.1038  0.3256
  344MOL0     C47363   1.565   1.633   7.199  0.1256  0.3379 -0.0551
  344MOL0     C47364   1.427   1.607   7.155  1.3648  0.4474  1.0636
  344MOL0     O47365   1.329   1.630   7.254  0.3944 -0.1730 -0.1858
  344MOL0     C47366   1.200   1.595   7.213 -0.2367 -0.1501 -0.5405
  344MOL0     C47367   1.123   1.698   7.163 -0.2385  0.3843  0.1637
  344MOL0     C47368   0.993   1.683   7.122  0.6943 -0.3391  0.1233
  344MOL0     C47369   0.940   1.555   7.134  1.4819 -0.5134 -0.0339
  344MOL0     O47370   0.818   1.517   7.078  0.4351  0.3788  0.0251
  344MOL0     C47371   0.734   1.615   7.009 -0.7561  0.0724  0.7250
  344MOL0     C47372   0.616   1.537   6.952  0.3721  0.6667 -0.5323
  344MOL0     C47373   0.500   1.544   7.062 -0.9571 -0.5589 -0.2905
  344MOL0     C47374   0.379   1.463   7.018 -0.2681 -1.0486  0.3819
  344MOL0     C47375   0.280   1.440   7.127 -0.2728  0.3294 -0.4030
  344MOL0     C47376   0.215   1.561   7.219  0.2492  0.2366 -0.2442
  344MOL0     C47377   0.317   1.606   7.323 -0.6216 -0.2295 -0.8966
  344MOL0     C47378   0.271   1.704   7.429 -0.0313 -0.0493 -0.1071
  344MOL0    Cl47379   0.115   1.790   7.404  0.2335  0.3586  0.3086
  344MOL0     C47380   1.003   1.461   7.200 -0.8845  0.4372 -0.1003
  344MOL0     C47381   1.139   1.473   7.246  1.4364  0.1528  0.2259
  344MOL0     O47382   1.406   1.556   7.043  0.2241 -0.2445 -0.3659
  344MOL0     C47383   1.619   1.541   7.283 -0.3261  0.5219  0.7179
  344MOL0     C47384   1.750   1.530   7.319 -0.3230 -0.0798  0.2200
  344MOL0     N47385   2.644   1.451   7.541 -0.3869 -0.6460  0.3152
  344MOL0     N47386   2.695   1.355   7.609 -0.4138  0.4907  0.3206
  344MOL0     C47387   3.436   1.368   7.784  0.0644 -0.3954  0.0063
  344MOL0     C47388   3.536   1.374   7.689  0.0326 -0.3216  0.0071
  344MOL0     C47389   3.862   1.530   7.402 -0.3793  0.5879 -0.7765
  344MOL0     C47390   3.970   1.547   7.499  0.0153 -0.1731  0.1404
  344MOL0     C47391   4.095   1.578   7.446  0.5139  0.0964 -0.4579
  344MOL0     C47392   4.115   1.614   7.315  0.0390 -0.7379  0.7785
  344MOL0     O47393   4.235   1.671   7.276  0.7157  0.4824  0.2443
  344MOL0     C47394   4.296   1.636   7.150 -0.0135 -0.7540  0.1614
  344MOL0     C47395   4.439   1.693   7.127  0.1839  0.5364  0.0653
  344MOL0     C47396   4.539   1.625   7.212 -0.3036 -0.1500  0.3921
  344MOL0     C47397   4.524   1.669   7.356 -0.1794  0.3254 -0.0370
  344MOL0     C47398   4.643   1.633   7.436  0.0157 -0.5353  0.9100
  344MOL0     C47399   4.753   1.608   7.481 -0.2309 -0.4931 -0.3938
  344MOL0     C47400   4.013   1.591   7.230  0.0184  0.9533  0.2030
  344MOL0     C47401   3.883   1.541   7.265 -0.2734  0.3196  0.8098
  344MOL0     C47402   3.783   1.526   7.157  0.3687  0.3057 -0.6000
  344MOL0     H47403   3.671   1.673   7.756 -3.6822  2.8229  2.4198
  344MOL0     H47404   3.493   1.676   7.918  1.2840  0.0284 -0.6547
  344MOL0     H47405   3.210   1.310   7.941 -1.4789  0.7471 -1.0773
  344MOL0     H47406   3.153   1.472   7.890  0.6492  1.2107  0.7163
  344MOL0     H47407   3.195   1.400   8.186  0.6282 -2.2216 -0.8550
  344MOL0     H47408   3.109   1.541   8.113  1.2540  0.1314  0.9138
  344MOL0     H47409   3.009   1.258   8.065 -1.2913 -0.1648 -2.1858
  344MOL0     H47410   2.971   1.347   8.210 -0.1077 -3.4671  0.0590
  344MOL0     H47411   2.905   1.529   8.006 -2.0174  0.0424  1.0476
  344MOL0     H47412   2.913   1.378   7.918 -1.7051 -0.2561 -0.1916
  344MOL0     H47413   2.713   1.447   8.127  0.3961  0.5785 -0.7488
  344MOL0     H47414   2.755   1.276   8.112 -1.3935 -1.0286 -2.8035
  344MOL0     H47415   2.549   1.345   7.993 -0.1476 -0.4789  0.4423
  344MOL0     H47416   2.639   1.436   7.876 -4.1536  0.0092 -1.6755
  344MOL0     H47417   2.705   1.146   7.937  0.9294  0.0210 -0.0185
  344MOL0     H47418   2.785   1.227   7.812 -0.4662 -0.7920 -0.7746
  344MOL0     H47419   2.632   1.096   7.715 -2.6748 -1.7573  2.1460
  344MOL0     H47420   2.499   1.172   7.812 -1.1634  1.9849 -0.3533
  344MOL0     H47421   2.369   1.346   7.665 -0.6195 -1.2681 -2.2427
  344MOL0     H47422   2.460   1.566   7.396  3.9728 -0.1893  1.6556
  344MOL0     H47423   2.407   1.639   7.554 -4.2612  1.2901 -1.6991
  344MOL0     H47424   2.271   1.381   7.450 -2.3084 -1.8013  2.4916
  344MOL0     H47425   2.223   1.488   7.572  0.7449 -1.4798  0.1577
  344MOL0     H47426   2.208   1.683   7.387  1.5269 -0.7491 -0.0373
  344MOL0     H47427   2.233   1.551   7.273  3.2394 -0.7995  0.4686
  344MOL0     H47428   2.032   1.443   7.384  0.6850  0.1125  1.0851
  344MOL0     H47429   2.015   1.583   7.491  0.1186 -1.1670  1.3979
  344MOL0     H47430   1.856   1.795   7.140 -3.2984  0.8183 -3.4124
  344MOL0     H47431   1.690   1.874   7.004  0.5298 -0.2724  0.7280
  344MOL0     H47432   1.541   1.909   7.107  3.2079  3.1428 -0.1850
  344MOL0     H47433   1.538   1.801   6.968  0.5013  2.2917 -0.8894
  344MOL0     H47434   1.174   1.792   7.144 -3.7749  2.0074 -2.4788
  344MOL0     H47435   0.939   1.764   7.074  2.1382  1.2226  1.0109
  344MOL0     H47436   0.699   1.687   7.084 -2.0611 -0.4637  0.6488
  344MOL0     H47437   0.797   1.656   6.929 -1.1794 -2.7663 -1.1833
  344MOL0     H47438   0.574   1.573   6.857 -1.2037  0.8401  0.2025
  344MOL0     H47439   0.639   1.431   6.941 -3.2914 -0.1801 -1.6698
  344MOL0     H47440   0.468   1.644   7.092 -3.3430 -0.9960 -1.1986
  344MOL0     H47441   0.545   1.512   7.156  0.1694  0.1304 -0.5748
  344MOL0     H47442   0.393   1.362   6.977  1.1477 -1.9714  2.9601
  344MOL0     H47443   0.324   1.525   6.946 -3.0756 -0.2265  3.0428
  344MOL0     H47444   0.194   1.386   7.086  1.6366 -2.1820 -1.4213
  344MOL0     H47445   0.332   1.373   7.196  1.7131 -0.8157 -2.8273
  344MOL0     H47446   0.124   1.521   7.264 -0.6727  3.7886  1.4043
  344MOL0     H47447   0.176   1.630   7.144  0.9727  0.5406 -0.3510
  344MOL0     H47448   0.404   1.657   7.281 -0.1166 -0.2295  0.1279
  344MOL0     H47449   0.366   1.526   7.380  0.2078  0.0173 -1.2561
  344MOL0     H47450   0.361   1.763   7.448  1.2591 -2.5665  2.5275
  344MOL0     H47451   0.256   1.651   7.524 -0.7564 -1.4096 -0.9563
  344MOL0     H47452   0.959   1.363   7.216  0.8065 -0.5083 -1.0458
  344MOL0     H47453   1.176   1.394   7.311  0.7135  1.3819  2.2169
  344MOL0     H47454   1.564   1.451   7.305  1.1290 -0.1374  1.8105
  344MOL0     H47455   1.775   1.444   7.381  1.1268  0.5472  0.5521
  344MOL0     H47456   3.365   1.287   7.800  0.6666 -0.9128  0.1339
  344MOL0     H47457   3.551   1.293   7.619 -2.0142 -1.0805  0.3872
  344MOL0     H47458   3.960   1.522   7.604  1.9436 -2.6019 -0.1493
  344MOL0     H47459   4.178   1.585   7.516 -0.7824 -0.4877  1.1824
  344MOL0     H47460   4.302   1.527   7.139  0.2033 -0.8860  1.3949
  344MOL0     H47461   4.231   1.673   7.071 -0.6620 -2.5677 -0.2000
  344MOL0     H47462   4.438   1.800   7.147  0.6754  0.1435  2.3979
  344MOL0     H47463   4.461   1.682   7.020 -1.8726  0.3045 -0.3702
  344MOL0     H47464   4.532   1.516   7.202 -0.7179 -0.0719 -0.2082
  344MOL0     H47465   4.636   1.653   7.169 -0.4393 -1.2229 -0.6689
  344MOL0     H47466   4.440   1.629   7.412  1.5147  1.2303  3.4165
  344MOL0     H47467   4.505   1.777   7.366  1.4360  0.5058  1.5538
  344MOL0     H47468   4.849   1.570   7.510  0.6352  0.6597 -1.5951
  344MOL0     H47469   4.019   1.633   7.130  0.5141  0.6785  0.1145
  344MOL0     H47470   3.811   1.562   7.058  0.7306  0.1839 -0.5415
  344MOL0     H47471   3.755   1.420   7.150  0.7920  0.2938 -2.8050
  344MOL0     H47472   3.689   1.574   7.185  0.4737  0.1502  0.0582
  345MOL0     O47473   8.054   7.328   4.629 -0.4867  0.4323  0.5601
  345MOL0     C47474   7.997   7.377   4.722 -0.2653 -0.6826 -0.4791
  345MOL0     O47475   7.931   7.309   4.824  0.5345 -0.3343 -0.8214
  345MOL0     C47476   7.896   7.175   4.812  0.4165 -0.1873 -0.6383
  345MOL0     C47477   7.867   7.103   4.700 -0.0172  0.0375  0.3329
  345MOL0     C47478   7.845   6.970   4.708  0.1485  0.8953 -0.3258
  345MOL0     C47479   7.832   6.909   4.831 -0.3241  1.2904 -0.7630
  345MOL0     O47480   7.798   6.776   4.830 -0.7636  0.4310 -0.1812
  345MOL0     C47481   7.785   6.710   4.957  0.0168 -0.2030 -0.5683
  345MOL0     C47482   7.740   6.567   4.955 -0.4790  0.5188 -0.6379
  345MOL0     C47483   7.854   6.475   4.907  0.2577 -0.5696  0.1326
  345MOL0     C47484   7.798   6.332   4.924 -0.2069 -1.0376 -0.2122
  345MOL0     C47485   7.849   6.240   4.808 -0.0449  0.1074  0.5061
  345MOL0     C47486   7.995   6.192   4.811 -0.1981  0.2760  0.5719
  345MOL0     C47487   8.037   6.131   4.678  0.1937 -0.8906  0.7391
  345MOL0     C47488   8.185   6.084   4.685  0.3375 -0.6402 -0.8610
  345MOL0     N47489   8.221   6.046   4.554 -0.8046  0.6682  0.4029
  345MOL0     C47490   8.166   5.926   4.497  0.1549 -0.7490 -0.3238
  345MOL0     C47491   8.241   5.916   4.384  0.5157  0.0516  0.4377
  345MOL0     C47492   8.240   5.802   4.285 -0.4667  0.5931  0.2395
  345MOL0     C47493   8.115   5.795   4.196  0.5992 -0.2712 -0.6878
  345MOL0     C47494   8.109   5.677   4.104  0.0400  0.5302  0.2520
  345MOL0     C47495   8.231   5.659   4.014 -0.5255 -0.3705  0.6312
  345MOL0     O47496   8.178   5.582   3.904  0.0603 -0.4158 -0.6728
  345MOL0     C47497   8.192   5.626   3.773  0.5808 -0.3536 -1.1214
  345MOL0     C47498   8.219   5.533   3.679 -0.4029  0.7064 -0.1444
  345MOL0     C47499   8.227   5.559   3.544  0.2841 -0.6956 -0.3793
  345MOL0     C47500   8.249   5.449   3.452  0.8989  0.6229 -0.3571
  345MOL0     C47501   8.195   5.695   3.509 -0.2446 -0.4772 -0.4458
  345MOL0     C47502   8.192   5.747   3.369  0.0257 -0.0293 -0.8375
  345MOL0     O47503   8.109   5.682   3.290  0.3735 -0.9698 -0.2385
  345MOL0     C47504   8.105   5.733   3.159  0.5944 -0.3513  0.2686
  345MOL0     C47505   7.987   5.786   3.097  0.2013  0.4276 -0.4910
  345MOL0     C47506   7.977   5.815   2.958  1.4449 -0.3627  0.0138
  345MOL0     C47507   8.096   5.800   2.880 -0.0414  0.2688  0.4272
  345MOL0     O47508   8.078   5.841   2.751  0.4116  0.7116 -0.2065
  345MOL0     C47509   8.175   5.798   2.651  0.8911 -0.1001  0.3604
  345MOL0     C47510   8.106   5.794   2.510  1.0438  0.9639 -1.1431
  345MOL0     C47511   7.988   5.698   2.492 -0.1983 -0.3779  0.5696
  345MOL0     C47512   7.926   5.694   2.354 -0.4903  0.0040  0.3549
  345MOL0     C47513   7.811   5.601   2.345  0.2225 -0.1990 -0.7671
  345MOL0     C47514   7.739   5.600   2.211  0.2301 -0.5286  0.2298
  345MOL0     C47515   7.610   5.511   2.229  1.1064 -0.2036  0.5087
  345MOL0     C47516   7.528   5.498   2.097 -0.0909 -1.0137 -0.7008
  345MOL0    Cl47517   7.461   5.661   2.043  0.5437  0.0264  0.2252
  345MOL0     C47518   8.208   5.743   2.933 -0.6062  0.9046 -0.0869
  345MOL0     C47519   8.216   5.710   3.071  0.4894 -0.1505 -0.6124
  345MOL0     O47520   8.267   5.840   3.335 -0.7019 -0.6878  0.5339
  345MOL0     C47521   8.184   5.798   3.604  0.6665 -0.3626  0.2285
  345MOL0     C47522   8.169   5.763   3.741 -0.9195  0.3234  0.2966
  345MOL0     N47523   8.336   6.019   4.372 -0.1381  0.1720 -0.2984
  345MOL0     N47524   8.318   6.094   4.468 -0.0063  0.3249 -0.2478
  345MOL0     C47525   7.865   6.986   4.949 -0.7752 -0.3079 -0.1520
  345MOL0     C47526   7.888   7.122   4.940 -0.1464 -0.2729 -0.3294
  345MOL0     C47527   8.039   7.514   4.754  0.9125  0.6411 -0.3821
  345MOL0     C47528   8.083   7.546   4.884  0.1732  0.7814  0.6446
  345MOL0     C47529   8.124   7.676   4.918 -0.0067 -0.6681  0.3709
  345MOL0     C47530   8.136   7.780   4.828 -0.0969  0.2830  0.9050
  345MOL0     O47531   8.166   7.904   4.862 -0.2159 -0.0315 -0.0796
  345MOL0     C47532   8.050   7.991   4.863  0.8561  0.1428 -0.6621
  345MOL0     C47533   8.068   8.103   4.965  0.1192  0.1972 -0.7911
  345MOL0     C47534   7.952   8.201   4.944  0.8247  0.0304 -0.1513
  345MOL0     C47535   7.966   8.324   5.029  0.0599 -0.7629  0.5677
  345MOL0     C47536   8.054   8.428   4.967  0.6788 -0.0390  0.4976
  345MOL0     C47537   8.119   8.509   4.894  0.0697  0.1942  0.3103
  345MOL0     C47538   8.086   7.753   4.694  0.7958  0.4157 -0.2545
  345MOL0     C47539   8.047   7.620   4.662  0.4615 -0.4435  0.8012
  345MOL0     C47540   8.018   7.605   4.523  0.1264  0.4699  0.8947
  345MOL0     H47541   7.873   7.162   4.609  1.6893 -2.9932 -1.6869
  345MOL0     H47542   7.807   6.906   4.628 -1.3980 -1.3996  2.0922
  345MOL0     H47543   7.714   6.768   5.017 -0.0300 -1.5472  0.7363
  345MOL0     H47544   7.888   6.710   4.994  1.2885 -0.7330 -3.7978
  345MOL0     H47545   7.720   6.527   5.055  0.2365 -0.3690 -0.8465
  345MOL0     H47546   7.654   6.555   4.889  0.2070 -1.9829 -1.1811
  345MOL0     H47547   7.879   6.505   4.805 -0.5962  0.6407  0.2488
  345MOL0     H47548   7.942   6.488   4.970 -1.7628  4.0705  2.5868
  345MOL0     H47549   7.815   6.285   5.020 -0.2336 -1.7475 -0.5509
  345MOL0     H47550   7.690   6.342   4.910 -0.9824 -2.2067  3.7294
  345MOL0     H47551   7.846   6.285   4.708  0.3042 -0.1192  0.3896
  345MOL0     H47552   7.796   6.145   4.825  1.5050 -1.1713 -1.3261
  345MOL0     H47553   8.062   6.270   4.848  0.9531 -1.1028  1.4787
  345MOL0     H47554   8.002   6.114   4.887 -1.4253 -1.3837 -0.9426
  345MOL0     H47555   8.023   6.206   4.600 -1.3886 -1.9982 -0.1055
  345MOL0     H47556   7.970   6.050   4.647  1.9351 -2.0407 -0.2170
  345MOL0     H47557   8.253   6.166   4.710 -1.5848 -0.0409  3.2406
  345MOL0     H47558   8.213   6.004   4.754  0.7047  0.3039  0.1105
  345MOL0     H47559   8.088   5.862   4.535  1.0917 -0.6285  1.9388
  345MOL0     H47560   8.239   5.716   4.353 -0.7883  1.8075  1.8456
  345MOL0     H47561   8.333   5.806   4.228 -0.7823  1.6073 -0.2314
  345MOL0     H47562   8.026   5.810   4.258 -0.3911 -0.6232 -1.9751
  345MOL0     H47563   8.119   5.886   4.135 -2.1340  0.6847  0.3769
  345MOL0     H47564   8.077   5.585   4.153 -3.0240  0.9929 -0.6432
  345MOL0     H47565   8.021   5.693   4.040  0.0898 -0.6232 -0.1238
  345MOL0     H47566   8.286   5.748   3.980  1.1803 -2.3060 -2.0360
  345MOL0     H47567   8.309   5.601   4.063 -0.5434  1.0784  2.4798
  345MOL0     H47568   8.239   5.430   3.707  0.6374  1.4530  2.1047
  345MOL0     H47569   8.221   5.354   3.498 -0.3771  1.5957  0.9747
  345MOL0     H47570   8.355   5.453   3.426  1.4362  0.0490  1.5525
  345MOL0     H47571   8.182   5.461   3.366 -0.7990  0.2051  0.8551
  345MOL0     H47572   7.893   5.782   3.151  1.0261 -0.7933  0.9363
  345MOL0     H47573   7.885   5.847   2.912  0.9885  0.8647  1.6613
  345MOL0     H47574   8.258   5.870   2.647  0.2406  0.6475  0.1551
  345MOL0     H47575   8.221   5.705   2.685  5.1527  1.6343 -0.0487
  345MOL0     H47576   8.080   5.896   2.480 -1.6314  0.5355 -0.5879
  345MOL0     H47577   8.183   5.760   2.440  0.1353 -3.4728 -0.3295
  345MOL0     H47578   7.907   5.721   2.562  0.7995 -0.9049  1.9415
  345MOL0     H47579   8.023   5.597   2.515  0.6346 -0.5014 -1.0869
  345MOL0     H47580   8.000   5.670   2.277 -1.7474  2.9217 -1.9573
  345MOL0     H47581   7.892   5.796   2.337 -0.8003 -0.1598 -0.0212
  345MOL0     H47582   7.846   5.500   2.370 -0.4940 -0.3092 -0.1445
  345MOL0     H47583   7.748   5.634   2.428 -2.0390 -3.8457 -0.8144
  345MOL0     H47584   7.803   5.553   2.135 -0.5754  1.3637 -1.7203
  345MOL0     H47585   7.719   5.703   2.179  1.2260 -0.1717  0.7174
  345MOL0     H47586   7.531   5.540   2.298 -0.4621 -2.0671 -0.4262
  345MOL0     H47587   7.651   5.416   2.263  0.5827 -0.8295 -0.5668
  345MOL0     H47588   7.444   5.431   2.117  0.3981 -1.0031  1.7579
  345MOL0     H47589   7.583   5.451   2.016 -0.1170 -1.2715 -0.5704
  345MOL0     H47590   8.294   5.714   2.874  0.9596  1.8061  1.6179
  345MOL0     H47591   8.299   5.660   3.119 -0.1473  2.6742  3.9728
  345MOL0     H47592   8.182   5.898   3.562  0.4956 -0.8106 -0.8883
  345MOL0     H47593   8.149   5.837   3.818  0.4260  1.3298 -0.2800
  345MOL0     H47594   7.863   6.934   5.044 -0.9522 -0.0628 -0.0202
  345MOL0     H47595   7.900   7.190   5.023 -1.7073  2.3983 -2.1413
  345MOL0     H47596   8.110   7.469   4.957  1.5798  0.4450 -0.1895
  345MOL0     H47597   8.155   7.699   5.019  0.8729  0.3426 -0.1087
  345MOL0     H47598   8.050   8.035   4.762  1.5563 -3.0700 -2.2091
  345MOL0     H47599   7.967   7.924   4.881  0.9814  0.0397 -0.4719
  345MOL0     H47600   8.164   8.155   4.954  1.1322 -0.7069  2.5853
  345MOL0     H47601   8.073   8.073   5.070 -1.1236  1.2716 -0.3997
  345MOL0     H47602   7.937   8.230   4.839 -1.0174  1.7923  0.5294
  345MOL0     H47603   7.867   8.141   4.978  0.1624 -0.2491 -2.1397
  345MOL0     H47604   7.994   8.309   5.133  2.4850  3.0753  0.6782
  345MOL0     H47605   7.865   8.365   5.033  1.3578  2.9502 -0.4055
  345MOL0     H47606   8.172   8.584   4.838 -0.5935 -0.2431 -0.9338
  345MOL0     H47607   8.086   7.836   4.625 -0.1643 -1.3968 -2.5715
  345MOL0     H47608   7.936   7.533   4.519  1.3343 -0.8918 -0.5637
  345MOL0     H47609   7.997   7.695   4.464  0.6055 -1.2536 -2.0975
  345MOL0     H47610   8.106   7.558   4.480 -0.2058  0.6656 -0.0157
  346MOL0     O47611   2.549   5.788  11.449 -0.3189  0.0967  0.6664
  346MOL0     C47612   2.635   5.765  11.366 -0.5427  0.1063  0.1190
  346MOL0     O47613   2.610   5.739  11.234  0.5876  0.1922 -0.0208
  346MOL0     C47614   2.484   5.738  11.189 -0.1195  0.0209  0.4485
  346MOL0     C47615   2.449   5.834  11.097  1.2361 -0.2712  0.5418
  346MOL0     C47616   2.324   5.833  11.035 -0.2277  0.7449  0.0734
  346MOL0     C47617   2.225   5.732  11.057  0.4494  0.5152  0.1901
  346MOL0     O47618   2.109   5.735  10.977  0.9210  0.5507 -0.3725
  346MOL0     C47619   2.011   5.615  10.992 -0.8441 -1.6441  0.2010
  346MOL0     C47620   2.066   5.495  10.904 -0.1768  0.0305  0.2268
  346MOL0     C47621   1.994   5.365  10.937 -0.1429  0.3432  0.5021
  346MOL0     C47622   1.850   5.370  10.895 -0.3635  0.7052  0.3351
  346MOL0     C47623   1.786   5.236  10.916  0.1993  1.2472  0.0675
  346MOL0     C47624   1.753   5.189  11.063 -0.2115 -0.2917  0.1227
  346MOL0     C47625   1.682   5.053  11.057  0.6525 -0.5700 -0.6389
  346MOL0     C47626   1.772   4.936  11.021  0.1381 -0.3102  0.4428
  346MOL0     N47627   1.800   4.923  10.873 -1.0751  0.0805 -0.5953
  346MOL0     C47628   1.710   4.896  10.774  0.3001 -0.9171  0.1791
  346MOL0     C47629   1.788   4.868  10.672  1.1440 -0.1806  0.3637
  346MOL0     C47630   1.745   4.836  10.526 -0.4869  0.5481  0.0232
  346MOL0     C47631   1.856   4.765  10.451 -0.1077 -0.1160  0.6604
  346MOL0     C47632   1.876   4.624  10.502  0.5697 -0.1088  0.2784
  346MOL0     C47633   2.015   4.598  10.534 -0.0768  0.3667  0.2439
  346MOL0     O47634   2.099   4.614  10.425 -0.0165 -0.2397  0.2013
  346MOL0     C47635   2.237   4.583  10.447  0.5370 -0.8982 -0.2426
  346MOL0     C47636   2.316   4.590  10.339  0.5009 -0.7399 -0.8002
  346MOL0     C47637   2.456   4.584  10.355  0.7954 -0.8607  0.1495
  346MOL0     C47638   2.538   4.626  10.236  0.9037  0.0462  0.4147
  346MOL0     C47639   2.516   4.536  10.479  0.0650  0.1710  0.9443
  346MOL0     C47640   2.666   4.505  10.504 -0.4953 -0.2652 -0.0957
  346MOL0     O47641   2.709   4.486  10.632  0.5631 -0.1315  0.1084
  346MOL0     C47642   2.847   4.470  10.665 -0.3465 -0.4351  0.3825
  346MOL0     C47643   2.948   4.408  10.600 -0.6444  0.5850  0.4980
  346MOL0     C47644   3.081   4.418  10.653 -0.1715  0.7454  0.7291
  346MOL0     C47645   3.117   4.483  10.772 -0.0065 -0.4793 -0.6148
  346MOL0     O47646   3.245   4.464  10.823  0.6562  0.6301  0.0572
  346MOL0     C47647   3.319   4.576  10.878  0.7185  0.2076 -0.1358
  346MOL0     C47648   3.463   4.565  10.829  0.3981 -0.7137 -0.6021
  346MOL0     C47649   3.542   4.699  10.834  0.4710  0.0055 -0.9191
  346MOL0     C47650   3.614   4.703  10.972  0.5810 -0.0806 -0.1657
  346MOL0     C47651   3.761   4.679  10.965 -0.0827  0.4117 -0.2429
  346MOL0     C47652   3.838   4.770  10.866  1.1120 -0.3658 -0.1104
  346MOL0     C47653   3.989   4.772  10.885  0.3423  0.1853 -0.3246
  346MOL0     C47654   4.068   4.824  10.773  0.2226  0.8395 -0.2968
  346MOL0    Cl47655   4.244   4.812  10.775 -0.0411 -0.0367  0.0101
  346MOL0     C47656   3.007   4.543  10.839  0.6461 -1.1743 -0.2506
  346MOL0     C47657   2.880   4.529  10.792  0.4156 -0.7954  0.2582
  346MOL0     O47658   2.734   4.491  10.407 -0.9541  0.3206 -0.2568
  346MOL0     C47659   2.424   4.516  10.576 -0.2528  0.0618  0.2917
  346MOL0     C47660   2.287   4.549  10.571 -0.3756  0.5684 -0.1459
  346MOL0     N47661   1.925   4.877  10.713  1.3139  0.0281  0.0292
  346MOL0     N47662   1.930   4.910  10.834 -0.1799  0.1462 -0.2695
  346MOL0     C47663   2.260   5.632  11.153 -0.2183 -0.7176  0.0898
  346MOL0     C47664   2.391   5.636  11.215  0.0582  0.1098 -0.1787
  346MOL0     C47665   2.778   5.768  11.406  0.0574  0.7960 -0.8310
  346MOL0     C47666   2.876   5.767  11.304 -0.2708  0.1007 -0.0962
  346MOL0     C47667   3.010   5.791  11.327  0.0901 -0.2861 -0.1964
  346MOL0     C47668   3.057   5.810  11.454 -1.0056 -0.0522 -0.6430
  346MOL0     O47669   3.188   5.830  11.497 -0.9428  0.2639  0.0450
  346MOL0     C47670   3.280   5.867  11.388 -0.6722  0.1034 -0.3902
  346MOL0     C47671   3.413   5.926  11.432  0.2100 -0.1946 -0.4290
  346MOL0     C47672   3.392   6.057  11.518  0.9158  0.0741 -0.2601
  346MOL0     C47673   3.449   6.189  11.475 -0.1856 -0.5355  0.3815
  346MOL0     C47674   3.591   6.188  11.468  0.1185  0.3852  0.9366
  346MOL0     C47675   3.706   6.200  11.455 -1.1355  0.0379  0.7037
  346MOL0     C47676   2.951   5.803  11.555 -0.4287 -0.3826 -0.2671
  346MOL0     C47677   2.817   5.783  11.536 -0.6694 -0.0750  0.3682
  346MOL0     C47678   2.730   5.784  11.662  0.1079 -0.2648 -0.1885
  346MOL0     H47679   2.511   5.921  11.081 -0.1502  0.4149 -1.3508
  346MOL0     H47680   2.292   5.903  10.958 -0.5712 -0.3669 -0.8258
  346MOL0     H47681   1.917   5.636  10.940 -1.6360 -3.5956  0.7772
  346MOL0     H47682   1.982   5.592  11.094 -0.4309  0.8156  0.9363
  346MOL0     H47683   2.061   5.519  10.797  1.3817  1.9592  0.5473
  346MOL0     H47684   2.173   5.494  10.926 -0.1854 -1.1423  0.3052
  346MOL0     H47685   2.037   5.280  10.883  1.4589  1.7797 -0.5803
  346MOL0     H47686   1.998   5.336  11.043 -1.1851 -4.1076 -0.4480
  346MOL0     H47687   1.800   5.447  10.955  1.2763  0.9330  1.4497
  346MOL0     H47688   1.848   5.396  10.788 -2.2125  0.7849  0.3578
  346MOL0     H47689   1.852   5.160  10.873  1.9964  2.6973  0.1683
  346MOL0     H47690   1.695   5.241  10.856  1.9155  4.9871 -2.5895
  346MOL0     H47691   1.838   5.194  11.132 -1.6714  0.8616  1.9240
  346MOL0     H47692   1.684   5.264  11.103  0.4110  0.3768 -0.0410
  346MOL0     H47693   1.598   5.065  10.989  2.8247  4.6455 -2.9587
  346MOL0     H47694   1.639   5.035  11.156 -2.1571 -0.0447 -1.6602
  346MOL0     H47695   1.873   4.951  11.061 -0.1730  0.9807  0.7714
  346MOL0     H47696   1.737   4.838  11.056  2.6104 -0.6214  2.3027
  346MOL0     H47697   1.602   4.892  10.786  0.4244 -1.7813  1.0917
  346MOL0     H47698   1.710   4.923  10.471  0.1212 -1.2056 -3.4404
  346MOL0     H47699   1.660   4.767  10.533 -0.9535  1.3139  2.7440
  346MOL0     H47700   1.842   4.758  10.342  0.5484 -1.6000  0.6521
  346MOL0     H47701   1.948   4.822  10.465 -0.2345  0.5458 -0.9203
  346MOL0     H47702   1.824   4.610  10.597  2.1636  4.3411  2.0765
  346MOL0     H47703   1.834   4.559  10.425 -3.5531  3.3001 -0.7661
  346MOL0     H47704   2.042   4.660  10.620 -0.8047  1.8777 -0.5810
  346MOL0     H47705   2.019   4.492  10.558 -0.0240 -0.9394 -4.5777
  346MOL0     H47706   2.268   4.619  10.246  1.4679  1.9135 -0.5396
  346MOL0     H47707   2.474   4.686  10.171  1.7599 -0.2079 -0.6864
  346MOL0     H47708   2.558   4.535  10.179 -1.1559 -0.5048  0.4730
  346MOL0     H47709   2.623   4.684  10.271 -0.2373  0.6413  2.3814
  346MOL0     H47710   2.918   4.341  10.520 -1.3095  0.3553  0.9381
  346MOL0     H47711   3.160   4.367  10.599 -1.0249  1.2483 -1.0519
  346MOL0     H47712   3.283   4.669  10.832  2.8744  1.8852  1.3741
  346MOL0     H47713   3.301   4.591  10.985  0.0265  3.6146 -0.6221
  346MOL0     H47714   3.515   4.496  10.895 -2.3069 -1.1366  1.2165
  346MOL0     H47715   3.468   4.529  10.726 -3.1023  1.3105 -1.6397
  346MOL0     H47716   3.478   4.787  10.821  2.9698  2.0381 -0.1718
  346MOL0     H47717   3.616   4.703  10.754  1.2048 -2.0540 -0.3912
  346MOL0     H47718   3.564   4.630  11.036 -2.7546  0.0493 -2.4032
  346MOL0     H47719   3.592   4.804  11.007  1.3336  1.3504 -3.4255
  346MOL0     H47720   3.810   4.687  11.063  0.5616 -1.6759 -0.3569
  346MOL0     H47721   3.778   4.577  10.932  0.2735  0.7337 -1.0807
  346MOL0     H47722   3.800   4.872  10.882  0.7856 -0.5775  0.4999
  346MOL0     H47723   3.814   4.740  10.764  1.6354 -1.2636  0.0292
  346MOL0     H47724   4.035   4.675  10.908  1.5109  1.2325  2.1572
  346MOL0     H47725   4.009   4.833  10.974  0.7585  0.8638 -0.8771
  346MOL0     H47726   4.041   4.930  10.765  1.0657  0.9904 -1.3765
  346MOL0     H47727   4.027   4.779  10.682  0.5342  2.4609 -1.2754
  346MOL0     H47728   3.021   4.605  10.927  0.1915 -0.6639 -0.5359
  346MOL0     H47729   2.812   4.592  10.848 -1.0981 -3.9966  2.2902
  346MOL0     H47730   2.444   4.480  10.676  1.0312 -2.3943 -0.7560
  346MOL0     H47731   2.230   4.555  10.663  1.1990 -1.6742  1.0896
  346MOL0     H47732   2.185   5.558  11.176 -1.2745  0.4586  0.5720
  346MOL0     H47733   2.422   5.563  11.289  0.6765 -0.4428 -0.9718
  346MOL0     H47734   2.838   5.767  11.202  0.9240  4.2246 -0.7028
  346MOL0     H47735   3.076   5.791  11.241 -0.4567  2.8624 -0.7439
  346MOL0     H47736   3.308   5.777  11.332  1.9668 -0.6712  1.9688
  346MOL0     H47737   3.244   5.943  11.318  0.6081  2.7616  1.6730
  346MOL0     H47738   3.466   5.953  11.340 -0.9428  0.7966 -0.8325
  346MOL0     H47739   3.468   5.852  11.490  3.2244  1.2077 -1.3167
  346MOL0     H47740   3.284   6.072  11.526  0.7675 -0.3328 -1.2872
  346MOL0     H47741   3.432   6.039  11.618 -3.2430  2.1366  2.0875
  346MOL0     H47742   3.417   6.267  11.545 -0.7699 -1.4827  1.1962
  346MOL0     H47743   3.410   6.220  11.377 -1.0990 -1.0855  0.5594
  346MOL0     H47744   3.806   6.219  11.421 -1.5578 -0.8505 -1.2084
  346MOL0     H47745   2.984   5.802  11.658 -0.0827 -0.0019 -0.3703
  346MOL0     H47746   2.672   5.692  11.673 -1.0088  0.5723  1.3651
  346MOL0     H47747   2.794   5.791  11.751  1.1409  0.5919 -0.9674
  346MOL0     H47748   2.657   5.866  11.663  0.0949 -0.2671 -0.9325
  347MOL0     O47749   9.421   1.268  10.122  0.9060 -0.2752  0.2123
  347MOL0     C47750   9.411   1.370  10.048 -0.0716  0.1085  0.3651
  347MOL0     O47751   9.518   1.433   9.996 -0.0818 -0.4925  0.8919
  347MOL0     C47752   9.647   1.402  10.038  0.5463  0.1056 -0.1766
  347MOL0     C47753   9.681   1.369  10.170 -0.4641  0.0264  0.3573
  347MOL0     C47754   9.819   1.342  10.201 -0.3839 -0.5393  0.2063
  347MOL0     C47755   9.923   1.346  10.109  0.8483  0.2904 -0.8683
  347MOL0     O47756  10.036   1.298  10.155  0.6665  0.3018 -0.4928
  347MOL0     C47757  10.097   1.186  10.091 -0.4359 -0.0212  0.2319
  347MOL0     C47758  10.242   1.194  10.131  0.0352  1.0687  1.0091
  347MOL0     C47759  10.322   1.308  10.060  0.5635  0.0541  0.0475
  347MOL0     C47760  10.472   1.305  10.077 -0.1688  0.0410 -0.8438
  347MOL0     C47761  10.548   1.398   9.977  0.2922  0.7476  1.0586
  347MOL0     C47762  10.684   1.442  10.025  0.1304  0.2196 -0.1789
  347MOL0     C47763  10.774   1.315  10.013  0.1356 -0.4107 -0.9176
  347MOL0     C47764  10.777   1.231   9.886 -0.1861  0.4655 -0.9473
  347MOL0     N47765  10.829   1.300   9.772 -0.0361  0.4263 -0.1425
  347MOL0     C47766  10.943   1.372   9.775 -1.0614  0.0826 -0.0406
  347MOL0     C47767  10.969   1.393   9.646 -0.2053  0.3669  0.7269
  347MOL0     C47768  11.091   1.454   9.596 -0.1477  0.5331 -0.8354
  347MOL0     C47769  11.180   1.349   9.530 -0.1908  0.5491 -1.0367
  347MOL0     C47770  11.318   1.408   9.484  0.4978  0.2630 -0.0381
  347MOL0     C47771  11.395   1.313   9.391  1.0190  0.3497  0.8399
  347MOL0     O47772  11.444   1.201   9.466 -0.5162 -0.4589  0.0783
  347MOL0     C47773  11.566   1.157   9.445  0.2663 -0.2800 -0.0738
  347MOL0     C47774  11.596   1.058   9.533 -0.1219  0.2574  0.2357
  347MOL0     C47775  11.729   1.004   9.547 -0.6678  0.0097  0.6645
  347MOL0     C47776  11.756   0.888   9.639  0.0291  0.2668 -1.1369
  347MOL0     C47777  11.837   1.058   9.464 -0.1290 -0.1618 -0.6004
  347MOL0     C47778  11.984   1.020   9.472 -1.0661 -0.1744  0.4949
  347MOL0     O47779  12.069   1.094   9.391 -0.2069 -0.2789  0.0109
  347MOL0     C47780  12.195   1.057   9.355  0.2544  0.3303 -0.4860
  347MOL0     C47781  12.283   1.157   9.343  0.4508 -0.6717 -0.7556
  347MOL0     C47782  12.404   1.136   9.283  0.6743  0.3066  1.0322
  347MOL0     C47783  12.453   1.011   9.241 -0.7764 -0.1701  0.0721
  347MOL0     O47784  12.570   0.993   9.182 -0.3500  0.1702 -0.4605
  347MOL0     C47785  12.692   1.063   9.215 -0.2754 -0.5643 -0.4287
  347MOL0     C47786  12.802   0.991   9.136  0.0306  0.3638 -1.2201
  347MOL0     C47787  12.930   1.068   9.145  0.4607  0.2121 -0.6511
  347MOL0     C47788  13.005   1.063   9.282  0.2819 -0.0571 -0.2825
  347MOL0     C47789  13.115   1.169   9.289 -0.3637 -0.4454  0.7193
  347MOL0     C47790  13.207   1.161   9.412  0.1463  0.0840  0.0790
  347MOL0     C47791  13.282   1.029   9.419 -1.3114 -0.0911  0.4078
  347MOL0     C47792  13.402   1.048   9.510  0.2675  0.0822 -0.1145
  347MOL0    Cl47793  13.482   0.893   9.557 -0.0683 -0.0129 -0.2561
  347MOL0     C47794  12.359   0.906   9.256 -0.1997  0.7657  0.3767
  347MOL0     C47795  12.241   0.923   9.322 -0.1465  0.1141  0.1328
  347MOL0     O47796  12.016   0.921   9.541 -0.7055  0.5642  0.4443
  347MOL0     C47797  11.793   1.156   9.373 -0.0119 -0.1763  0.1643
  347MOL0     C47798  11.662   1.195   9.353 -0.0797 -0.5443 -0.7588
  347MOL0     N47799  10.861   1.352   9.570  0.3261 -0.6430  1.1628
  347MOL0     N47800  10.775   1.294   9.641  0.2054 -0.0117 -0.4060
  347MOL0     C47801   9.883   1.386   9.984 -0.3930  0.6457  0.4282
  347MOL0     C47802   9.751   1.409   9.944  0.4421  0.0972  0.0821
  347MOL0     C47803   9.268   1.412  10.025 -0.1058  0.0849 -0.2657
  347MOL0     C47804   9.162   1.335  10.062 -0.0191  0.4152 -0.1716
  347MOL0     C47805   9.024   1.377  10.050  0.2796  0.8055  0.7642
  347MOL0     C47806   8.995   1.498  10.010  1.0123 -0.3549  0.5688
  347MOL0     O47807   8.861   1.525  10.004 -0.2937 -0.2546  0.3312
  347MOL0     C47808   8.817   1.651   9.960  0.5829  0.7164  0.0061
  347MOL0     C47809   8.786   1.769  10.067 -0.1770  0.8402  0.1272
  347MOL0     C47810   8.773   1.896   9.992 -0.3299 -0.7029  0.6166
  347MOL0     C47811   8.680   2.000  10.063 -0.1432 -0.6669  0.3292
  347MOL0     C47812   8.677   2.133   9.998 -0.1652 -0.4591  0.7000
  347MOL0     C47813   8.684   2.244   9.942  0.2860 -0.8490 -0.3265
  347MOL0     C47814   9.102   1.588   9.986  0.0635 -0.1385 -0.4549
  347MOL0     C47815   9.236   1.545   9.991  0.4928  0.3008  0.4167
  347MOL0     C47816   9.336   1.650   9.948 -0.2370  0.0126 -0.6977
  347MOL0     H47817   9.611   1.372  10.253  0.0550  0.7981  0.7711
  347MOL0     H47818   9.848   1.311  10.301 -0.5349  2.2903  1.2100
  347MOL0     H47819  10.089   1.202   9.983 -0.8389 -0.3224  0.2139
  347MOL0     H47820  10.052   1.092  10.122  1.2408 -1.1706 -0.6683
  347MOL0     H47821  10.232   1.207  10.239 -4.0272  0.8675  0.7919
  347MOL0     H47822  10.284   1.101  10.092 -1.3918  0.7612  0.1653
  347MOL0     H47823  10.290   1.305   9.956 -0.4662  1.2091  0.3012
  347MOL0     H47824  10.291   1.404  10.105 -3.4153 -1.3074  0.6329
  347MOL0     H47825  10.486   1.339  10.180 -0.6976  0.8051 -1.0161
  347MOL0     H47826  10.500   1.200  10.069 -1.7012 -0.3707 -1.0467
  347MOL0     H47827  10.489   1.491   9.979  1.7034  1.6823  2.8097
  347MOL0     H47828  10.548   1.353   9.877 -1.1254  1.5028  0.6956
  347MOL0     H47829  10.728   1.517   9.959  1.2546 -1.1353 -1.0330
  347MOL0     H47830  10.677   1.474  10.129  0.5860  0.0670 -0.0981
  347MOL0     H47831  10.741   1.242  10.088  0.1583 -1.2349 -1.6959
  347MOL0     H47832  10.872   1.347  10.050 -0.4583 -1.1714  1.5134
  347MOL0     H47833  10.841   1.143   9.901 -0.5388  0.5588  1.4989
  347MOL0     H47834  10.674   1.197   9.869 -0.8436  1.2984  1.1062
  347MOL0     H47835  11.010   1.399   9.857  3.0876 -0.7128 -2.8568
  347MOL0     H47836  11.134   1.519   9.672 -2.5451 -1.5865  2.6183
  347MOL0     H47837  11.062   1.527   9.520  1.0140  2.1545  0.2173
  347MOL0     H47838  11.205   1.276   9.607  0.7698 -1.4656 -3.1430
  347MOL0     H47839  11.125   1.288   9.458 -0.2280 -0.5956 -0.0668
  347MOL0     H47840  11.292   1.499   9.428  0.9350  1.0115  0.9524
  347MOL0     H47841  11.375   1.445   9.570 -0.5061 -0.1765  0.8391
  347MOL0     H47842  11.328   1.280   9.312 -1.4587  1.5158  2.3229
  347MOL0     H47843  11.474   1.377   9.351  1.8457 -1.2128 -0.1176
  347MOL0     H47844  11.533   1.020   9.613  0.1592 -0.4449  0.1344
  347MOL0     H47845  11.784   0.800   9.580  0.3410  1.1937 -2.4070
  347MOL0     H47846  11.665   0.848   9.684 -0.8541  0.6721 -2.4992
  347MOL0     H47847  11.833   0.911   9.713  2.6791  1.2865 -4.0008
  347MOL0     H47848  12.259   1.259   9.370 -4.0026 -1.3049 -1.5481
  347MOL0     H47849  12.467   1.222   9.267  3.9666 -2.3191 -1.7703
  347MOL0     H47850  12.687   1.172   9.207  0.1886 -0.4461  0.7294
  347MOL0     H47851  12.725   1.039   9.317 -0.4793 -2.3014 -0.7375
  347MOL0     H47852  12.823   0.889   9.172 -2.0630  0.4458  0.4274
  347MOL0     H47853  12.780   0.987   9.029  1.1873  4.5612 -1.7623
  347MOL0     H47854  12.890   1.167   9.120  0.4901 -0.3526 -3.1816
  347MOL0     H47855  12.995   1.024   9.069  1.6678 -0.0099  0.4623
  347MOL0     H47856  13.044   0.961   9.285  0.7021  0.0107 -1.9830
  347MOL0     H47857  12.937   1.083   9.365  1.7986 -3.2169  1.8766
  347MOL0     H47858  13.180   1.155   9.202  1.1919 -0.8736  1.8980
  347MOL0     H47859  13.071   1.269   9.289 -0.5137 -0.5111  0.8338
  347MOL0     H47860  13.150   1.177   9.504 -0.5361  1.4760 -0.5570
  347MOL0     H47861  13.281   1.242   9.413 -1.4360  1.5709  0.3662
  347MOL0     H47862  13.311   0.990   9.321  1.3570  1.9003  0.2785
  347MOL0     H47863  13.225   0.958   9.479 -1.5324 -0.6025 -0.3893
  347MOL0     H47864  13.358   1.089   9.601 -0.3929 -0.0736 -0.3580
  347MOL0     H47865  13.476   1.120   9.472 -0.2843 -0.0345 -1.4795
  347MOL0     H47866  12.395   0.809   9.224 -2.0976  1.1809 -3.5667
  347MOL0     H47867  12.182   0.838   9.357 -0.9146  0.2478 -0.7798
  347MOL0     H47868  11.855   1.202   9.297 -1.6852  2.4035  0.2151
  347MOL0     H47869  11.636   1.277   9.286 -0.1853  0.3675  0.3591
  347MOL0     H47870   9.966   1.390   9.915 -0.4200  2.2197  0.4520
  347MOL0     H47871   9.741   1.455   9.846 -1.2341  1.0408  0.6526
  347MOL0     H47872   9.179   1.230  10.084  1.1241 -0.1649 -3.3316
  347MOL0     H47873   8.945   1.304  10.067  0.5801 -1.1611 -4.4178
  347MOL0     H47874   8.893   1.702   9.900 -0.2941  2.1917  0.0817
  347MOL0     H47875   8.729   1.638   9.896  1.5429 -0.5453 -1.1090
  347MOL0     H47876   8.867   1.795  10.136 -0.8296  1.7405  0.5691
  347MOL0     H47877   8.693   1.745  10.120 -2.2227  3.5223 -1.9816
  347MOL0     H47878   8.872   1.941   9.977 -1.5872  1.9099 -0.3553
  347MOL0     H47879   8.729   1.877   9.893  1.0572 -0.6858 -0.0319
  347MOL0     H47880   8.716   2.033  10.162  0.7555  4.0260 -1.3097
  347MOL0     H47881   8.577   1.965  10.068 -0.4545 -0.0499 -1.3108
  347MOL0     H47882   8.699   2.342   9.902  1.4950  0.3373  2.7404
  347MOL0     H47883   9.081   1.691   9.962  0.6270  0.0186 -0.2885
  347MOL0     H47884   9.398   1.609   9.868 -0.5243 -1.2966 -0.2772
  347MOL0     H47885   9.299   1.748   9.916  0.0582  0.3400 -0.0503
  347MOL0     H47886   9.406   1.670  10.029  0.3837  0.8296 -1.4124
  348MOL0     O47887   4.210   3.745  10.467  0.3318 -0.4102 -0.7938
  348MOL0     C47888   4.260   3.635  10.492  0.1136  0.4362 -0.3216
  348MOL0     O47889   4.370   3.599  10.435 -0.8180  0.2484 -0.7081
  348MOL0     C47890   4.475   3.694  10.406 -0.0651 -0.0226  0.0316
  348MOL0     C47891   4.536   3.692  10.278 -0.9205  0.5413 -1.3711
  348MOL0     C47892   4.647   3.771  10.240 -0.3487  1.0075  0.2044
  348MOL0     C47893   4.694   3.860  10.333 -1.3130  0.3398  0.6158
  348MOL0     O47894   4.798   3.946  10.294  0.6863 -0.0001 -0.1778
  348MOL0     C47895   4.915   3.933  10.375 -0.3003 -0.3253  0.4447
  348MOL0     C47896   5.016   4.013  10.311  0.2009  0.3552 -0.2798
  348MOL0     C47897   5.142   4.013  10.395 -0.5042 -0.1136 -0.3477
  348MOL0     C47898   5.252   4.094  10.320 -0.6710 -0.1132  0.0982
  348MOL0     C47899   5.338   4.005  10.227  0.0235 -0.8028 -0.9132
  348MOL0     C47900   5.465   4.074  10.172  0.4188  0.0863 -0.8431
  348MOL0     C47901   5.532   3.979  10.077  0.5005  0.8105  0.0685
  348MOL0     C47902   5.657   4.045  10.007 -0.0371 -0.7393 -0.4641
  348MOL0     N47903   5.723   3.947   9.921  0.4765  0.8935 -0.2536
  348MOL0     C47904   5.840   3.879   9.944  0.1328  1.3553  0.2679
  348MOL0     C47905   5.862   3.797   9.844  0.0575 -0.5288  0.6822
  348MOL0     C47906   5.986   3.713   9.827 -0.2788 -0.1316 -0.6637
  348MOL0     C47907   5.996   3.675   9.683  0.2288 -0.2067  0.2370
  348MOL0     C47908   6.122   3.590   9.652  0.3471 -0.3489 -0.3570
  348MOL0     C47909   6.118   3.560   9.501  0.1549  0.3518 -0.0979
  348MOL0     O47910   5.994   3.491   9.462  0.4256 -0.6362 -0.5286
  348MOL0     C47911   5.983   3.359   9.493  0.3982 -0.4070  0.3535
  348MOL0     C47912   5.859   3.306   9.528 -0.1483 -0.1162  0.3087
  348MOL0     C47913   5.829   3.181   9.568 -0.2303 -0.5772  0.4072
  348MOL0     C47914   5.682   3.152   9.617 -0.9507 -0.3325 -0.3640
  348MOL0     C47915   5.938   3.088   9.563  0.5759 -0.9963 -0.5285
  348MOL0     C47916   5.926   2.950   9.606 -0.1445  0.5461 -0.4597
  348MOL0     O47917   6.014   2.866   9.549 -0.8677 -0.1153 -0.6649
  348MOL0     C47918   5.996   2.725   9.553 -0.9763 -0.2325 -0.0404
  348MOL0     C47919   5.869   2.662   9.560  0.3682  1.0304 -0.2078
  348MOL0     C47920   5.862   2.531   9.606 -0.4552  0.1500 -0.2163
  348MOL0     C47921   5.975   2.464   9.633 -0.3141  0.5400  0.0342
  348MOL0     O47922   5.981   2.334   9.670  1.2373 -0.8235 -0.1250
  348MOL0     C47923   5.904   2.248   9.584 -0.9021  0.7887 -0.2258
  348MOL0     C47924   5.957   2.104   9.607 -0.6642  0.3053 -0.5833
  348MOL0     C47925   5.932   2.073   9.756 -0.4818 -0.2077  0.1163
  348MOL0     C47926   5.919   1.918   9.790  0.5367 -0.4025  0.4880
  348MOL0     C47927   5.933   1.870   9.933  0.2207 -0.3401  0.2126
  348MOL0     C47928   6.073   1.890   9.981 -0.9319 -0.3004 -0.6130
  348MOL0     C47929   6.095   1.829  10.125  0.1720  0.2733  0.6509
  348MOL0     C47930   6.233   1.864  10.182  0.1489  1.0403 -0.4248
  348MOL0    Cl47931   6.253   2.041  10.203 -0.1635  0.1003 -0.2929
  348MOL0     C47932   6.106   2.524   9.620  0.4038 -0.1544 -0.1639
  348MOL0     C47933   6.116   2.646   9.563 -0.2148 -0.7063  0.2492
  348MOL0     O47934   5.841   2.913   9.689  0.1447  0.5574  0.1100
  348MOL0     C47935   6.055   3.139   9.505 -0.2307  0.3250 -0.7904
  348MOL0     C47936   6.080   3.267   9.468  0.0107  0.1847  0.4395
  348MOL0     N47937   5.761   3.814   9.747  0.0957 -0.4555  0.2228
  348MOL0     N47938   5.682   3.898   9.808 -0.1239 -0.8848 -0.1576
  348MOL0     C47939   4.640   3.876  10.457  0.4397  0.3051  0.2918
  348MOL0     C47940   4.537   3.789  10.497  0.4833 -0.4829 -0.0385
  348MOL0     C47941   4.165   3.534  10.529 -0.7091  0.1165 -0.8979
  348MOL0     C47942   4.150   3.417  10.452  0.4272  0.3315  0.0440
  348MOL0     C47943   4.037   3.331  10.471 -0.7996  0.2226  0.4388
  348MOL0     C47944   3.951   3.362  10.576  0.4188 -0.6281  0.3137
  348MOL0     O47945   3.843   3.288  10.620  0.0783  0.8093  0.4024
  348MOL0     C47946   3.812   3.180  10.526  0.2779 -0.1892 -0.1640
  348MOL0     C47947   3.701   3.086  10.581  0.0925  0.0715  0.5704
  348MOL0     C47948   3.567   3.154  10.591  0.3781  0.0523 -0.5186
  348MOL0     C47949   3.462   3.059  10.654 -0.1762  0.1067  0.6952
  348MOL0     C47950   3.501   3.001  10.782 -0.3862 -0.0537  0.5822
  348MOL0     C47951   3.535   2.936  10.886 -0.3830  0.4818  0.8226
  348MOL0     C47952   3.980   3.473  10.654  0.1835 -0.0068 -0.4170
  348MOL0     C47953   4.086   3.558  10.638  0.9334 -0.5435 -0.0439
  348MOL0     C47954   4.092   3.680  10.735  0.0404  0.1370  0.6232
  348MOL0     H47955   4.490   3.623  10.208  1.6313 -0.5324 -2.0860
  348MOL0     H47956   4.685   3.747  10.142 -0.5478  0.6043  0.2219
  348MOL0     H47957   4.931   3.825  10.369 -0.3874 -0.3019 -0.4326
  348MOL0     H47958   4.896   3.965  10.477 -2.3897  2.0289 -0.5811
  348MOL0     H47959   5.038   3.971  10.213  1.2242  0.5661 -0.1492
  348MOL0     H47960   4.973   4.113  10.297 -0.4156 -0.2214 -3.1391
  348MOL0     H47961   5.120   4.061  10.491 -0.1179 -1.1511  0.2764
  348MOL0     H47962   5.175   3.913  10.424 -3.4016 -0.2539  3.1972
  348MOL0     H47963   5.214   4.179  10.262  2.6457  0.0832 -2.0507
  348MOL0     H47964   5.316   4.140  10.396 -1.3946  0.5197  0.3423
  348MOL0     H47965   5.273   3.967  10.147 -0.2689 -3.7263  0.5839
  348MOL0     H47966   5.359   3.917  10.288  1.2838  0.1136  0.0140
  348MOL0     H47967   5.450   4.169  10.121  2.9658  1.4560  0.7355
  348MOL0     H47968   5.525   4.094  10.262 -2.1259 -1.4055  1.3376
  348MOL0     H47969   5.462   3.956   9.996  1.4299 -1.5815 -0.1433
  348MOL0     H47970   5.578   3.891  10.122  1.6345  0.2762 -1.9828
  348MOL0     H47971   5.633   4.141   9.963  0.7335 -0.5675 -0.5294
  348MOL0     H47972   5.726   4.066  10.089 -1.3175  1.0674  0.1988
  348MOL0     H47973   5.910   3.900  10.024  2.4022  1.0020 -1.5184
  348MOL0     H47974   5.985   3.624   9.891  1.0940 -1.5327 -2.5035
  348MOL0     H47975   6.077   3.764   9.860 -1.5881  0.7980  1.7938
  348MOL0     H47976   5.904   3.624   9.652  1.7127 -1.0032 -3.3988
  348MOL0     H47977   5.984   3.755   9.609  1.5034  1.2418  1.5250
  348MOL0     H47978   6.212   3.640   9.690 -0.9619  0.9638  1.1783
  348MOL0     H47979   6.112   3.499   9.711 -0.8187  0.7136  1.1601
  348MOL0     H47980   6.127   3.647   9.435  3.9312  2.1613  2.4631
  348MOL0     H47981   6.208   3.507   9.467 -0.0645 -0.5415  0.6589
  348MOL0     H47982   5.777   3.377   9.520  1.3166  1.5465 -0.7346
  348MOL0     H47983   5.641   3.065   9.563 -0.7684 -2.0855  2.1351
  348MOL0     H47984   5.620   3.242   9.616 -0.2666  0.1432 -0.6213
  348MOL0     H47985   5.685   3.127   9.724  1.4806  2.3439  0.2854
  348MOL0     H47986   5.783   2.727   9.547 -0.6734  0.3198  2.4477
  348MOL0     H47987   5.764   2.485   9.616 -0.2027 -0.2245  0.6667
  348MOL0     H47988   5.796   2.256   9.576 -0.9407 -0.8448 -1.9240
  348MOL0     H47989   5.942   2.273   9.485  2.3906 -2.9552 -0.2191
  348MOL0     H47990   5.904   2.038   9.538 -3.1884  1.0335  0.5648
  348MOL0     H47991   6.064   2.105   9.585 -0.1268  2.4700  1.6397
  348MOL0     H47992   5.844   2.132   9.784  0.2233  1.2251 -0.5415
  348MOL0     H47993   6.013   2.112   9.819  0.3517  0.1196 -1.1228
  348MOL0     H47994   5.983   1.855   9.726  1.2754 -0.1094  0.9207
  348MOL0     H47995   5.818   1.889   9.760  0.5644  1.0634 -1.1753
  348MOL0     H47996   5.862   1.923   9.998  1.1363  1.9682 -0.5397
  348MOL0     H47997   5.906   1.765   9.930 -2.4270  0.2849 -2.6294
  348MOL0     H47998   6.091   1.997   9.988 -0.1621 -0.4499 -0.2515
  348MOL0     H47999   6.149   1.848   9.915 -0.5865 -2.3880  1.0031
  348MOL0     H48000   6.078   1.721  10.123 -0.3677  0.3344 -1.6819
  348MOL0     H48001   6.025   1.872  10.196  1.8628  1.2786  1.7890
  348MOL0     H48002   6.308   1.826  10.113 -0.5997 -1.7390  0.1547
  348MOL0     H48003   6.241   1.804  10.273 -1.0984  0.2033 -0.8356
  348MOL0     H48004   6.192   2.461   9.641  0.7677 -0.5917 -2.6060
  348MOL0     H48005   6.210   2.698   9.547  0.6633 -2.7687 -2.0519
  348MOL0     H48006   6.144   3.078   9.498  2.4664  3.5165  2.2967
  348MOL0     H48007   6.172   3.297   9.418 -1.1769  0.7534 -1.5077
  348MOL0     H48008   4.683   3.950  10.524 -1.4732  1.6262  0.1647
  348MOL0     H48009   4.494   3.791  10.596 -3.8810 -3.0831 -1.6041
  348MOL0     H48010   4.225   3.398  10.376 -0.1215  0.9226 -0.6587
  348MOL0     H48011   4.027   3.239  10.413  1.5286 -2.1510  3.4466
  348MOL0     H48012   3.777   3.211  10.427 -0.5221 -0.5038  0.0137
  348MOL0     H48013   3.897   3.111  10.517 -1.1283 -2.1599  1.0211
  348MOL0     H48014   3.728   3.049  10.680  2.2897 -2.0528 -0.7100
  348MOL0     H48015   3.690   2.995  10.521 -2.7270  0.6304  0.0991
  348MOL0     H48016   3.571   3.239  10.659 -0.4193  0.1193 -0.5456
  348MOL0     H48017   3.530   3.185  10.493 -1.3135 -1.1152 -0.2800
  348MOL0     H48018   3.457   2.974  10.585 -2.0071 -1.2838  2.4460
  348MOL0     H48019   3.362   3.103  10.657 -0.7199 -1.0368  0.0358
  348MOL0     H48020   3.560   2.870  10.968 -1.7755 -1.8477 -0.5302
  348MOL0     H48021   3.920   3.491  10.743  2.5800  0.8829  1.1187
  348MOL0     H48022   4.180   3.744  10.720  0.5994 -0.4908  1.1630
  348MOL0     H48023   3.999   3.738  10.731 -1.7304 -2.4962  1.2216
  348MOL0     H48024   4.085   3.646  10.838 -1.1231 -0.9962  0.1977
  349MOL0     O48025   1.325   1.172   8.829 -0.2109  0.0165 -0.0949
  349MOL0     C48026   1.279   1.288   8.854 -0.0168  0.9311 -0.2877
  349MOL0     O48027   1.353   1.405   8.858  0.9329  0.8770 -0.2523
  349MOL0     C48028   1.475   1.393   8.806  0.1467 -0.3792  0.5945
  349MOL0     C48029   1.581   1.368   8.884  0.9988 -0.7350  0.5177
  349MOL0     C48030   1.710   1.352   8.823  0.7959 -0.6188 -0.3537
  349MOL0     C48031   1.721   1.351   8.675  0.4740  0.2864 -0.3821
  349MOL0     O48032   1.830   1.320   8.601 -0.8505  0.1525 -0.5653
  349MOL0     C48033   1.924   1.242   8.663 -0.6224 -0.5362 -0.1956
  349MOL0     C48034   2.016   1.195   8.550  0.1030  0.0560  0.1285
  349MOL0     C48035   2.125   1.093   8.587  0.5755  0.2820  0.9869
  349MOL0     C48036   2.239   1.156   8.672 -0.6316  0.4738  0.0286
  349MOL0     C48037   2.339   1.053   8.714  0.5865  0.4133  0.3413
  349MOL0     C48038   2.405   1.106   8.841  0.5873 -0.2855 -0.0488
  349MOL0     C48039   2.529   1.032   8.873 -0.7195  0.0710 -0.6400
  349MOL0     C48040   2.560   1.043   9.023 -0.7147 -0.6285 -0.5406
  349MOL0     N48041   2.685   0.975   9.072  0.0539 -0.3009  0.7122
  349MOL0     C48042   2.762   1.004   9.182 -0.1458  0.9279 -0.2963
  349MOL0     C48043   2.853   0.901   9.178 -0.5647 -0.1328 -0.2513
  349MOL0     C48044   2.970   0.901   9.272 -0.2541 -0.0512  0.0258
  349MOL0     C48045   3.098   0.968   9.207  0.8145 -0.2196 -0.0455
  349MOL0     C48046   3.216   0.985   9.304 -0.6441  0.1819 -0.5115
  349MOL0     C48047   3.339   1.028   9.230  0.7243  0.5711 -0.0537
  349MOL0     O48048   3.422   1.067   9.341  0.3716 -0.0671 -0.6124
  349MOL0     C48049   3.561   1.049   9.328 -0.5239  0.1018  1.0210
  349MOL0     C48050   3.637   1.044   9.209 -0.2285  0.2842 -0.5263
  349MOL0     C48051   3.782   1.033   9.214 -0.4694  0.2086  0.9349
  349MOL0     C48052   3.856   1.019   9.074 -0.2968  0.6731  0.5383
  349MOL0     C48053   3.849   1.029   9.339  0.2783 -0.0075  0.6805
  349MOL0     C48054   3.996   1.002   9.355 -0.2439 -1.3591  1.6939
  349MOL0     O48055   4.040   0.951   9.476 -0.0305  0.2432  0.1829
  349MOL0     C48056   4.172   0.932   9.505  0.0777 -0.3784 -1.5295
  349MOL0     C48057   4.256   1.027   9.561  0.5035  0.3293  0.0889
  349MOL0     C48058   4.386   0.993   9.594 -0.0092  0.1948 -0.1530
  349MOL0     C48059   4.431   0.860   9.594 -1.1224  0.3875 -0.6711
  349MOL0     O48060   4.566   0.834   9.629 -0.1965 -0.0208 -0.3412
  349MOL0     C48061   4.595   0.700   9.666 -0.5059  0.7587  0.3977
  349MOL0     C48062   4.661   0.615   9.553  0.2649 -0.2603 -0.0886
  349MOL0     C48063   4.732   0.493   9.614  1.5920  0.2751  0.6719
  349MOL0     C48064   4.774   0.393   9.500  0.8121  0.2780  0.1393
  349MOL0     C48065   4.650   0.310   9.459 -0.0130  0.1810  0.5377
  349MOL0     C48066   4.687   0.196   9.359  0.4925  0.2671  0.1093
  349MOL0     C48067   4.568   0.139   9.289 -0.3718 -0.1331  0.9944
  349MOL0     C48068   4.597   0.054   9.161  0.4455 -0.2512  0.1914
  349MOL0    Cl48069   4.488  -0.091   9.168  0.0143 -0.5755 -0.1642
  349MOL0     C48070   4.343   0.763   9.541 -0.2133 -0.5912 -0.6062
  349MOL0     C48071   4.221   0.803   9.494  0.5198 -0.1863  1.1619
  349MOL0     O48072   4.069   1.014   9.259  0.2403 -0.4228 -0.1116
  349MOL0     C48073   3.771   1.025   9.450 -0.5321 -0.7447  0.5103
  349MOL0     C48074   3.636   1.037   9.451 -0.3517 -0.8691 -0.2800
  349MOL0     N48075   2.832   0.828   9.063  0.5082  0.4535  1.0161
  349MOL0     N48076   2.737   0.873   8.995 -0.2763  0.5390 -1.0061
  349MOL0     C48077   1.606   1.383   8.601 -0.3999  0.2312 -0.0212
  349MOL0     C48078   1.484   1.403   8.666 -0.6585 -0.7374 -0.0915
  349MOL0     C48079   1.136   1.299   8.888  0.0317  0.2319 -0.1688
  349MOL0     C48080   1.085   1.421   8.942  0.3416  0.2092 -0.4816
  349MOL0     C48081   0.957   1.440   8.983  0.4501  0.4537  0.3308
  349MOL0     C48082   0.864   1.335   8.974 -0.2790  0.9358 -0.5270
  349MOL0     O48083   0.739   1.352   9.028  0.2325  0.3498  0.7920
  349MOL0     C48084   0.626   1.262   9.001  0.2385  0.3149  0.1923
  349MOL0     C48085   0.502   1.346   9.029  0.0758 -0.3472 -0.0718
  349MOL0     C48086   0.371   1.289   8.988 -0.0098  0.2964 -0.4644
  349MOL0     C48087   0.255   1.377   9.040  0.1041 -1.2404 -0.3565
  349MOL0     C48088   0.119   1.325   9.005 -0.0068 -0.8943 -0.1238
  349MOL0     C48089   0.018   1.270   8.994 -0.0832 -0.1465  0.2356
  349MOL0     C48090   0.909   1.209   8.919  0.2828 -0.8181 -0.0017
  349MOL0     C48091   1.039   1.195   8.874  0.0138  0.7241  0.3905
  349MOL0     C48092   1.060   1.078   8.784  0.4040  1.2163 -0.2071
  349MOL0     H48093   1.554   1.363   8.989 -1.2169  3.9206  0.4006
  349MOL0     H48094   1.799   1.353   8.886  1.8752  1.4667 -1.7928
  349MOL0     H48095   1.872   1.159   8.712 -1.1602 -1.7800 -2.7134
  349MOL0     H48096   1.985   1.309   8.725  0.0496 -2.4009  1.2616
  349MOL0     H48097   1.950   1.148   8.476 -0.9441  0.6249  0.6923
  349MOL0     H48098   2.071   1.275   8.500  0.1598 -0.2025 -0.2327
  349MOL0     H48099   2.083   1.010   8.645 -2.3633  0.1957 -1.0709
  349MOL0     H48100   2.172   1.052   8.498 -1.6404 -0.3120  0.0278
  349MOL0     H48101   2.296   1.223   8.607  3.2174 -0.0505  2.5737
  349MOL0     H48102   2.184   1.211   8.749  0.6957 -1.0690  2.1851
  349MOL0     H48103   2.404   1.010   8.637  0.8217 -0.8230  1.1974
  349MOL0     H48104   2.294   0.956   8.739  4.1359 -1.9890 -1.7478
  349MOL0     H48105   2.441   1.209   8.833 -1.0709  0.2629 -0.8642
  349MOL0     H48106   2.324   1.106   8.914 -0.6998  0.5875 -1.4346
  349MOL0     H48107   2.610   1.076   8.814 -0.1028 -0.6934 -0.3781
  349MOL0     H48108   2.520   0.928   8.837  0.1283 -0.2313 -0.0053
  349MOL0     H48109   2.571   1.151   9.040  0.1728 -0.5442 -1.5232
  349MOL0     H48110   2.477   1.013   9.088 -0.2567  0.8500  0.7955
  349MOL0     H48111   2.756   1.080   9.259  3.9282  1.4860 -0.3384
  349MOL0     H48112   2.983   0.795   9.293 -1.5846 -0.3964 -0.7432
  349MOL0     H48113   2.943   0.955   9.364 -1.6243 -1.4750  0.5102
  349MOL0     H48114   3.134   0.912   9.120  2.9176  2.7690 -1.2241
  349MOL0     H48115   3.068   1.068   9.175  0.2063 -0.2988  0.2592
  349MOL0     H48116   3.189   1.054   9.384 -1.0200 -2.3651  1.6956
  349MOL0     H48117   3.240   0.895   9.360 -1.8247 -0.2645 -0.6929
  349MOL0     H48118   3.388   0.945   9.178  0.1481 -1.8569  2.9746
  349MOL0     H48119   3.325   1.116   9.168 -1.0853 -0.0991 -0.6667
  349MOL0     H48120   3.575   1.057   9.121 -1.9519  2.2566  0.8694
  349MOL0     H48121   3.774   0.987   9.009  0.9391 -0.9487 -0.2859
  349MOL0     H48122   3.934   0.943   9.073 -1.3303 -0.4538 -1.8092
  349MOL0     H48123   3.890   1.118   9.040  0.9218  0.4642  1.1126
  349MOL0     H48124   4.222   1.130   9.570  0.5366  0.6103 -2.4120
  349MOL0     H48125   4.450   1.076   9.620  0.3813 -0.4129  0.8907
  349MOL0     H48126   4.667   0.709   9.747  0.9162  0.3186 -0.7639
  349MOL0     H48127   4.507   0.655   9.714  0.5112 -0.9003  0.7704
  349MOL0     H48128   4.577   0.584   9.491 -2.2607  1.6691  2.1325
  349MOL0     H48129   4.731   0.671   9.490 -0.2639  1.9982  1.2157
  349MOL0     H48130   4.673   0.449   9.695  0.2344 -0.4954 -0.6958
  349MOL0     H48131   4.816   0.534   9.672  0.8708  0.8538  1.3213
  349MOL0     H48132   4.850   0.323   9.538 -0.5565 -1.3272  0.0131
  349MOL0     H48133   4.804   0.442   9.407 -0.9578 -2.1167 -1.8259
  349MOL0     H48134   4.602   0.263   9.545 -0.2950  0.3617  0.4821
  349MOL0     H48135   4.581   0.381   9.412  0.4499  0.8578  0.8692
  349MOL0     H48136   4.742   0.120   9.415 -0.9127 -0.4941  0.5169
  349MOL0     H48137   4.750   0.247   9.285  2.6960 -0.9214  1.0722
  349MOL0     H48138   4.504   0.221   9.256  1.4533  1.8914  2.1948
  349MOL0     H48139   4.511   0.077   9.359 -1.1351 -0.5872 -0.0149
  349MOL0     H48140   4.703   0.031   9.148  0.3418 -1.2622  0.9188
  349MOL0     H48141   4.552   0.111   9.080  2.5509  4.0635  1.7309
  349MOL0     H48142   4.382   0.662   9.539  1.4292 -0.1938  2.8409
  349MOL0     H48143   4.154   0.729   9.453 -0.3440  1.3499 -0.3328
  349MOL0     H48144   3.816   1.008   9.548  0.3971 -3.4412 -0.2971
  349MOL0     H48145   3.585   1.040   9.547 -0.2657 -0.7715 -0.2368
  349MOL0     H48146   1.616   1.404   8.495  2.9167  0.3184  0.2132
  349MOL0     H48147   1.400   1.434   8.605  0.4870  0.7711 -1.0113
  349MOL0     H48148   1.150   1.507   8.953 -0.2332  0.5779  0.1199
  349MOL0     H48149   0.917   1.533   9.022  0.2007  0.0794  0.9943
  349MOL0     H48150   0.630   1.231   8.896  1.3522  0.1192  0.2797
  349MOL0     H48151   0.638   1.172   9.061 -2.6276 -0.2192  0.0837
  349MOL0     H48152   0.499   1.428   8.956 -0.8266 -1.4047 -1.2526
  349MOL0     H48153   0.511   1.378   9.133  0.5661  0.8025 -0.4524
  349MOL0     H48154   0.362   1.296   8.879 -0.3726  3.8814 -0.3423
  349MOL0     H48155   0.356   1.185   9.015  0.5139  0.6876  1.4760
  349MOL0     H48156   0.269   1.480   9.007  0.2715 -0.9499  0.5821
  349MOL0     H48157   0.266   1.396   9.147  0.7845 -1.3867 -0.3966
  349MOL0     H48158  -0.075   1.218   9.003 -0.3337  0.4841  1.5175
  349MOL0     H48159   0.836   1.129   8.919 -1.9527  1.1232  0.4425
  349MOL0     H48160   0.978   1.028   8.731  0.8001  1.5780 -1.1849
  349MOL0     H48161   1.132   1.104   8.706  0.2620  1.6931 -0.1779
  349MOL0     H48162   1.105   1.004   8.852 -0.5591 -0.8569 -1.7037
  350MOL0     O48163   0.078  10.575   9.045 -0.0874 -0.5274  0.4829
  350MOL0     C48164   0.187  10.568   9.091 -0.1918  0.3595 -0.6364
  350MOL0     O48165   0.272  10.462   9.088  0.0472 -0.4839  0.3156
  350MOL0     C48166   0.268  10.352   9.008  0.5359  0.3607  0.2526
  350MOL0     C48167   0.382  10.272   9.024  0.1316 -0.0764  0.8121
  350MOL0     C48168   0.399  10.164   8.928 -0.3750  0.2735  1.1007
  350MOL0     C48169   0.292  10.123   8.847 -0.6429 -1.2337 -0.0632
  350MOL0     O48170   0.292  10.010   8.767  0.4514  0.1349  0.2284
  350MOL0     C48171   0.403   9.973   8.697  0.0886 -0.4608  0.5910
  350MOL0     C48172   0.399   9.825   8.677 -0.0731 -0.1934 -0.0712
  350MOL0     C48173   0.397   9.739   8.816  0.0971 -0.2223  0.3225
  350MOL0     C48174   0.523   9.760   8.902  0.1609  1.1932 -1.3334
  350MOL0     C48175   0.555   9.638   9.000  0.0067 -0.1252  0.1483
  350MOL0     C48176   0.633   9.672   9.132 -0.3055 -0.6976  0.6123
  350MOL0     C48177   0.582   9.577   9.248  1.2049  0.6957  0.7598
  350MOL0     C48178   0.597   9.423   9.215 -0.1830 -0.3562 -0.2654
  350MOL0     N48179   0.739   9.391   9.197  0.6490 -0.4054  0.4845
  350MOL0     C48180   0.838   9.404   9.292 -0.2322 -0.2258 -0.4989
  350MOL0     C48181   0.936   9.335   9.240  0.9126  0.3659 -0.1942
  350MOL0     C48182   1.047   9.277   9.322 -0.5262 -0.1435  0.0395
  350MOL0     C48183   1.170   9.346   9.268 -0.6568  0.3733  0.3998
  350MOL0     C48184   1.203   9.481   9.336  0.6217 -0.6990  0.4397
  350MOL0     C48185   1.341   9.528   9.288  0.5749  0.5667  0.0580
  350MOL0     O48186   1.440   9.479   9.386 -0.5443 -0.4384  0.1108
  350MOL0     C48187   1.565   9.528   9.380 -1.3062 -0.2293  0.1918
  350MOL0     C48188   1.642   9.517   9.492 -0.7327 -0.2152 -0.4757
  350MOL0     C48189   1.771   9.575   9.508  0.0385 -0.1367 -0.1938
  350MOL0     C48190   1.862   9.515   9.610  0.0768 -0.0977 -0.0599
  350MOL0     C48191   1.821   9.647   9.397  0.1059 -0.3280  0.0509
  350MOL0     C48192   1.963   9.691   9.385  0.5759  0.0363  0.1944
  350MOL0     O48193   2.058   9.623   9.445 -0.3159  0.0823 -0.2755
  350MOL0     C48194   2.190   9.666   9.452 -0.5974  0.3531 -0.2772
  350MOL0     C48195   2.256   9.741   9.358  0.6183  0.5457  0.5314
  350MOL0     C48196   2.383   9.792   9.378 -0.0730 -0.5357  0.4415
  350MOL0     C48197   2.461   9.741   9.489  0.2760  0.3147  0.7323
  350MOL0     O48198   2.588   9.785   9.522 -0.0133  0.2355 -0.3819
  350MOL0     C48199   2.679   9.690   9.574 -0.2748 -0.7136  0.0406
  350MOL0     C48200   2.822   9.716   9.549 -0.4144  0.0543 -0.0369
  350MOL0     C48201   2.877   9.848   9.605 -0.5698 -0.1588  1.0117
  350MOL0     C48202   3.027   9.851   9.572 -0.6159  0.7664  0.1949
  350MOL0     C48203   3.113   9.794   9.683 -0.0862  0.1030 -0.5781
  350MOL0     C48204   3.264   9.793   9.658 -0.6191  0.3972  0.1024
  350MOL0     C48205   3.319   9.936   9.644  0.2595 -0.6093 -0.4024
  350MOL0     C48206   3.474   9.943   9.667 -0.4520  0.8163 -0.0706
  350MOL0    Cl48207   3.555  10.092   9.598 -0.1222  0.6519 -0.0204
  350MOL0     C48208   2.392   9.675   9.589 -0.3811  0.0108 -0.0496
  350MOL0     C48209   2.259   9.642   9.578 -0.2826 -0.9849 -0.2903
  350MOL0     O48210   1.979   9.804   9.335  0.0040  0.0549 -0.0580
  350MOL0     C48211   1.741   9.665   9.283  0.6998 -1.6952 -0.1008
  350MOL0     C48212   1.611   9.615   9.274  0.5342 -0.5183  0.3165
  350MOL0     N48213   0.898   9.288   9.119 -0.2323  0.3353 -0.3465
  350MOL0     N48214   0.783   9.324   9.088 -0.5354  0.6402 -0.3909
  350MOL0     C48215   0.186  10.214   8.825  0.1292  0.4015  0.1531
  350MOL0     C48216   0.177  10.334   8.901 -1.1453 -0.7664 -0.0985
  350MOL0     C48217   0.226  10.679   9.176  0.5585  0.6004 -0.3327
  350MOL0     C48218   0.148  10.789   9.171  0.2744  0.9192  0.4928
  350MOL0     C48219   0.180  10.901   9.249  0.8236 -0.5473  0.2890
  350MOL0     C48220   0.287  10.913   9.331 -0.1756 -0.5742  0.5790
  350MOL0     O48221   0.325  11.024   9.405 -0.1357 -0.5125 -0.1162
  350MOL0     C48222   0.248  11.152   9.403  0.1602  0.0390 -0.5693
  350MOL0     C48223   0.328  11.261   9.474  0.5031 -0.2898 -1.0380
  350MOL0     C48224   0.260  11.399   9.469  0.4099  0.2051  0.2536
  350MOL0     C48225   0.301  11.485   9.344  0.6798  0.4204  0.5979
  350MOL0     C48226   0.430  11.553   9.361  0.4312 -0.3015  0.1242
  350MOL0     C48227   0.526  11.632   9.370  0.1383 -0.2052 -0.3813
  350MOL0     C48228   0.366  10.803   9.337 -0.1045  0.2269  1.8199
  350MOL0     C48229   0.345  10.684   9.258  0.1353 -0.1974  0.0557
  350MOL0     C48230   0.451  10.585   9.279 -0.7658  0.0314  0.2886
  350MOL0     H48231   0.453  10.295   9.103  0.8944  1.9667 -0.3762
  350MOL0     H48232   0.480  10.095   8.948 -1.7226 -2.6047 -2.3272
  350MOL0     H48233   0.497  10.011   8.737  0.9830 -0.2630 -1.5405
  350MOL0     H48234   0.402  10.013   8.595  0.1268 -0.8763  0.4249
  350MOL0     H48235   0.315   9.799   8.612 -0.4289  0.4502  0.1281
  350MOL0     H48236   0.478   9.797   8.606 -1.5827  1.9965 -2.8531
  350MOL0     H48237   0.305   9.758   8.871 -0.9875 -0.3964 -1.3693
  350MOL0     H48238   0.389   9.633   8.790 -2.4365  0.2218 -0.9416
  350MOL0     H48239   0.607   9.777   8.834 -1.0652  0.2571 -3.1696
  350MOL0     H48240   0.511   9.848   8.965  3.1116  1.8265 -1.4806
  350MOL0     H48241   0.615   9.564   8.947 -0.2879 -2.1737  2.5018
  350MOL0     H48242   0.456   9.604   9.031  0.9318 -2.1590  1.0174
  350MOL0     H48243   0.739   9.647   9.119 -0.8561 -2.0905 -1.7980
  350MOL0     H48244   0.614   9.774   9.166 -4.2328 -2.1386  3.4694
  350MOL0     H48245   0.478   9.604   9.271  1.0966  0.6321  0.3545
  350MOL0     H48246   0.647   9.593   9.334 -1.4324  0.2912  2.9577
  350MOL0     H48247   0.549   9.365   9.294 -0.6937  0.6629  0.1947
  350MOL0     H48248   0.542   9.403   9.122  0.1870 -0.4842 -0.4558
  350MOL0     H48249   0.831   9.430   9.397  1.8737 -2.0763  0.1773
  350MOL0     H48250   1.061   9.169   9.317  0.8438 -0.1865  2.8391
  350MOL0     H48251   1.027   9.304   9.426  1.4160  3.3026 -0.3446
  350MOL0     H48252   1.265   9.294   9.285  0.1766  0.9567 -2.0228
  350MOL0     H48253   1.169   9.350   9.159 -3.1167 -3.0354  0.1479
  350MOL0     H48254   1.125   9.553   9.309  0.5044 -0.9313  0.1516
  350MOL0     H48255   1.208   9.465   9.444  0.2405 -0.6790  0.4634
  350MOL0     H48256   1.354   9.483   9.189 -0.4831 -0.5367  0.4009
  350MOL0     H48257   1.336   9.637   9.283  1.3440  0.5575 -3.3178
  350MOL0     H48258   1.609   9.460   9.578  0.3342 -0.5431 -0.2637
  350MOL0     H48259   1.921   9.436   9.563 -0.7941 -1.0804  0.4487
  350MOL0     H48260   1.803   9.473   9.692  1.4589 -1.1659  0.4376
  350MOL0     H48261   1.928   9.595   9.645  0.1525  0.5019 -1.4895
  350MOL0     H48262   2.199   9.785   9.277  1.3153 -3.4610 -2.4482
  350MOL0     H48263   2.428   9.856   9.302  0.4360  1.0234  1.9898
  350MOL0     H48264   2.668   9.698   9.683  0.3492 -0.1837  0.0699
  350MOL0     H48265   2.656   9.590   9.537  0.4181 -1.3247  1.2075
  350MOL0     H48266   2.892   9.641   9.588 -0.7562  0.1246  0.7310
  350MOL0     H48267   2.846   9.717   9.442  0.5478  0.4612  0.1651
  350MOL0     H48268   2.857   9.861   9.712 -1.9652 -0.3261  0.7952
  350MOL0     H48269   2.823   9.917   9.539  2.1441 -1.1722 -2.5557
  350MOL0     H48270   3.060   9.953   9.552  0.7741  0.0008 -1.6795
  350MOL0     H48271   3.051   9.804   9.476  2.6115  2.4858  0.0249
  350MOL0     H48272   3.099   9.850   9.775 -0.8501  1.1702 -1.3234
  350MOL0     H48273   3.086   9.692   9.711  3.4690 -0.2703  2.2900
  350MOL0     H48274   3.290   9.731   9.571 -0.5875 -0.0759  0.4482
  350MOL0     H48275   3.319   9.745   9.739  0.4263 -0.6437 -1.1817
  350MOL0     H48276   3.271  10.009   9.711  0.5521  2.2308 -3.0711
  350MOL0     H48277   3.297   9.975   9.544  2.8298  1.2981 -0.3473
  350MOL0     H48278   3.524   9.854   9.628  2.4132  1.6983  1.2661
  350MOL0     H48279   3.487   9.944   9.776 -3.4317 -1.7445  0.4354
  350MOL0     H48280   2.439   9.667   9.686  1.2652 -0.8200 -0.8662
  350MOL0     H48281   2.202   9.597   9.659 -0.9518  0.4549  0.0652
  350MOL0     H48282   1.789   9.713   9.199 -3.0963 -1.8535 -2.6053
  350MOL0     H48283   1.555   9.626   9.182  0.9802 -2.3033 -0.2013
  350MOL0     H48284   0.115  10.186   8.748  2.0041 -0.6672 -1.2587
  350MOL0     H48285   0.104  10.407   8.868  0.2652 -0.0385 -1.7832
  350MOL0     H48286   0.060  10.792   9.107 -0.3693 -3.8107  0.7794
  350MOL0     H48287   0.108  10.983   9.247  0.9087 -0.4128 -3.2157
  350MOL0     H48288   0.221  11.172   9.299  0.6488 -2.8577 -1.3442
  350MOL0     H48289   0.153  11.136   9.455  1.0500 -3.1646  0.3091
  350MOL0     H48290   0.423  11.265   9.419  0.5761 -0.7217 -0.9484
  350MOL0     H48291   0.349  11.240   9.580 -1.9207  1.3221 -0.1520
  350MOL0     H48292   0.152  11.390   9.456  0.6718  0.4165 -2.9797
  350MOL0     H48293   0.303  11.446   9.558  0.4091 -1.6458  1.2770
  350MOL0     H48294   0.219  11.555   9.322  0.2425 -0.5255 -0.9940
  350MOL0     H48295   0.309  11.428   9.251  2.0241  0.7418  0.5048
  350MOL0     H48296   0.605  11.703   9.383 -0.8785  1.4332 -2.4540
  350MOL0     H48297   0.462  10.811   9.387  0.4684 -0.3137  0.8344
  350MOL0     H48298   0.505  10.615   9.369 -1.0797  0.3457  0.3718
  350MOL0     H48299   0.414  10.484   9.302  1.4084 -0.6107  1.2698
  350MOL0     H48300   0.526  10.578   9.199 -0.1341  0.2843  0.8442
  351MOL0     O48301   9.652   1.494   2.781  0.7236  0.7656  0.1577
  351MOL0     C48302   9.756   1.464   2.829 -0.7984 -0.4786 -0.3900
  351MOL0     O48303   9.867   1.414   2.763  0.6140 -0.4507  0.2053
  351MOL0     C48304   9.855   1.372   2.633 -0.0153  0.2397  0.1786
  351MOL0     C48305   9.805   1.458   2.532 -0.2535  0.9296 -0.3887
  351MOL0     C48306   9.819   1.426   2.401  0.2573  0.7910 -0.4836
  351MOL0     C48307   9.888   1.308   2.367 -0.5753 -0.5860  0.0441
  351MOL0     O48308   9.921   1.276   2.237 -0.0584 -0.0475 -0.1501
  351MOL0     C48309   9.823   1.214   2.156  0.3102 -0.3909 -0.3001
  351MOL0     C48310   9.878   1.093   2.081  0.5551  0.4876  0.0525
  351MOL0     C48311  10.017   1.126   2.016  0.2195  0.8292 -1.2431
  351MOL0     C48312   9.994   1.248   1.927  0.2801  0.8328 -0.3763
  351MOL0     C48313  10.118   1.273   1.838 -0.1121  0.4074  0.6529
  351MOL0     C48314  10.127   1.414   1.780  0.2781  1.1570 -0.6586
  351MOL0     C48315  10.241   1.419   1.682  0.0137  0.2649 -1.2057
  351MOL0     C48316  10.236   1.555   1.609 -0.8309 -0.5301 -0.0560
  351MOL0     N48317  10.355   1.567   1.523 -0.1578 -0.2994 -0.2072
  351MOL0     C48318  10.486   1.514   1.536  0.0758 -0.9796 -0.5903
  351MOL0     C48319  10.561   1.565   1.443 -0.5069  0.8726  0.8236
  351MOL0     C48320  10.702   1.530   1.403 -1.1523  0.2444 -0.3268
  351MOL0     C48321  10.779   1.422   1.485  0.0988  0.3286  1.0854
  351MOL0     C48322  10.823   1.470   1.628  0.5537  1.2516 -0.2284
  351MOL0     C48323  10.905   1.359   1.701  0.1015  0.2921 -0.5857
  351MOL0     O48324  10.950   1.412   1.828 -0.0845  0.4982  0.1066
  351MOL0     C48325  11.009   1.338   1.923  0.2866  0.9919  0.2121
  351MOL0     C48326  10.972   1.362   2.054 -0.5005  0.1760  0.8091
  351MOL0     C48327  11.021   1.282   2.155 -0.4349  0.0350  0.0967
  351MOL0     C48328  10.967   1.316   2.287 -0.6529 -0.1990  0.2397
  351MOL0     C48329  11.107   1.175   2.133  0.4546  1.4020  0.0973
  351MOL0     C48330  11.167   1.084   2.244  0.0962 -0.4808 -0.2958
  351MOL0     O48331  11.198   0.960   2.207  0.9909 -0.7253  0.2053
  351MOL0     C48332  11.232   0.863   2.307 -0.4835  0.4293  0.9706
  351MOL0     C48333  11.289   0.749   2.242  0.0566 -0.6166  0.8081
  351MOL0     C48334  11.349   0.643   2.328 -0.3069 -0.2757  0.0186
  351MOL0     C48335  11.351   0.654   2.473  0.1337 -0.0367  0.2187
  351MOL0     O48336  11.425   0.571   2.554  0.0149 -0.2940  0.2088
  351MOL0     C48337  11.495   0.446   2.521  0.7759 -0.6176 -0.5099
  351MOL0     C48338  11.476   0.359   2.650  0.6527  0.4025  0.1934
  351MOL0     C48339  11.593   0.269   2.668  0.1817  0.8251  0.4012
  351MOL0     C48340  11.562   0.118   2.711 -0.4349 -0.0458  1.2685
  351MOL0     C48341  11.679   0.035   2.771 -0.0746  0.0584 -0.4854
  351MOL0     C48342  11.814   0.017   2.702 -0.6215 -0.9163  0.4876
  351MOL0     C48343  11.935  -0.005   2.800 -0.2411 -0.6542  0.4353
  351MOL0     C48344  12.067  -0.007   2.706 -0.1929 -0.4338 -0.3237
  351MOL0    Cl48345  12.101   0.147   2.620  0.5997 -0.6516  0.5969
  351MOL0     C48346  11.275   0.764   2.526 -0.1493 -0.4173  0.3377
  351MOL0     C48347  11.223   0.873   2.442  1.0136  0.9016 -0.9250
  351MOL0     O48348  11.169   1.132   2.356  0.5382  0.3749  0.9288
  351MOL0     C48349  11.140   1.152   1.998 -0.6464 -0.3023  0.3997
  351MOL0     C48350  11.095   1.240   1.896  0.3746 -0.1517  0.4135
  351MOL0     N48351  10.479   1.640   1.356 -0.3925  0.0268  0.1991
  351MOL0     N48352  10.357   1.639   1.405 -0.0750 -0.0940  0.0140
  351MOL0     C48353   9.944   1.231   2.464 -0.2097  0.3585  1.1817
  351MOL0     C48354   9.922   1.257   2.598 -0.4430 -0.5553 -0.6622
  351MOL0     C48355   9.772   1.466   2.980 -1.0338 -0.4580 -0.1519
  351MOL0     C48356   9.903   1.477   3.030 -1.1589 -0.0557 -0.1830
  351MOL0     C48357   9.933   1.471   3.166  0.1072  0.2436 -0.5169
  351MOL0     C48358   9.830   1.443   3.256  0.1712 -0.6359  0.2750
  351MOL0     O48359   9.839   1.436   3.394  0.0545 -0.2491 -0.0678
  351MOL0     C48360   9.955   1.482   3.462  0.0648 -0.8733 -0.0137
  351MOL0     C48361   9.955   1.635   3.495 -0.0913  0.2013 -0.0995
  351MOL0     C48362  10.078   1.663   3.584 -0.4706  0.3679  0.3089
  351MOL0     C48363  10.123   1.812   3.554  0.0203  0.2455  0.0134
  351MOL0     C48364  10.215   1.871   3.651 -0.0421  0.4691 -0.3258
  351MOL0     C48365  10.304   1.906   3.723  0.2581 -0.8018 -0.4375
  351MOL0     C48366   9.694   1.427   3.212  0.1622  0.0860  0.0493
  351MOL0     C48367   9.668   1.437   3.072  0.5305 -0.5647 -0.3288
  351MOL0     C48368   9.523   1.418   3.029 -1.0805  0.3181 -0.5297
  351MOL0     H48369   9.752   1.552   2.549 -0.8491  0.4687  0.3707
  351MOL0     H48370   9.778   1.489   2.322 -0.5463 -1.8922 -2.3449
  351MOL0     H48371   9.774   1.289   2.094 -1.8673 -0.7778  0.8586
  351MOL0     H48372   9.746   1.174   2.223  0.1936  0.3058 -0.0105
  351MOL0     H48373   9.875   1.019   2.161 -2.5167  1.9763  1.5254
  351MOL0     H48374   9.803   1.071   2.004  0.0635  2.4394 -0.0921
  351MOL0     H48375  10.084   1.146   2.100 -2.3446  3.8321  0.2866
  351MOL0     H48376  10.066   1.046   1.958  2.1690 -0.7553  2.2653
  351MOL0     H48377   9.906   1.230   1.864  0.1295 -0.9778  0.3012
  351MOL0     H48378   9.987   1.337   1.991  7.4948  0.8565  1.2171
  351MOL0     H48379  10.114   1.200   1.757 -4.2428  1.3312 -0.1984
  351MOL0     H48380  10.210   1.254   1.894  0.5441 -1.5295 -0.9489
  351MOL0     H48381  10.038   1.415   1.717  1.3433 -2.4619 -2.5054
  351MOL0     H48382  10.139   1.492   1.856  1.1002  0.5349 -0.1349
  351MOL0     H48383  10.227   1.334   1.614 -0.8585 -0.0153 -0.6919
  351MOL0     H48384  10.339   1.420   1.729  0.3053 -0.0285 -1.7922
  351MOL0     H48385  10.148   1.556   1.545 -0.5161 -0.9568 -0.4978
  351MOL0     H48386  10.236   1.638   1.680  0.6229 -0.0610 -0.5640
  351MOL0     H48387  10.524   1.446   1.612 -2.3495 -0.6807  0.9910
  351MOL0     H48388  10.757   1.624   1.401 -0.3795 -0.1785  0.3444
  351MOL0     H48389  10.694   1.501   1.297 -3.0088 -3.2297  0.6093
  351MOL0     H48390  10.707   1.339   1.485 -1.6715  1.7846 -0.4051
  351MOL0     H48391  10.867   1.397   1.426  0.7143  2.1473  1.1797
  351MOL0     H48392  10.887   1.557   1.616  1.7093  0.2022 -1.9510
  351MOL0     H48393  10.737   1.492   1.692  1.7191  0.6253  1.6377
  351MOL0     H48394  10.840   1.273   1.724 -1.6588  1.8478  0.5879
  351MOL0     H48395  10.983   1.325   1.632 -0.2800  0.3874 -1.0751
  351MOL0     H48396  10.898   1.441   2.060 -1.2025 -0.3959 -0.1121
  351MOL0     H48397  10.938   1.228   2.345  0.3216  0.0770  1.1744
  351MOL0     H48398  10.879   1.382   2.291  0.4540  1.3563 -0.2129
  351MOL0     H48399  11.048   1.369   2.337 -0.7916 -1.1781  1.5485
  351MOL0     H48400  11.293   0.746   2.134  1.3181  0.1606  0.8097
  351MOL0     H48401  11.376   0.551   2.277 -2.1723 -0.3933 -0.8224
  351MOL0     H48402  11.465   0.382   2.438 -0.4283 -2.8513  1.5061
  351MOL0     H48403  11.601   0.469   2.509  1.0774 -1.3008  0.6844
  351MOL0     H48404  11.463   0.415   2.743 -3.5517 -1.7649  1.1601
  351MOL0     H48405  11.381   0.307   2.632  1.2181  0.1625 -2.5521
  351MOL0     H48406  11.652   0.306   2.752  1.6567 -0.7784  0.1407
  351MOL0     H48407  11.666   0.265   2.586 -1.7886 -1.3291 -1.3980
  351MOL0     H48408  11.542   0.055   2.624 -1.4601  2.1687 -0.1755
  351MOL0     H48409  11.473   0.106   2.774 -0.4003 -0.1337  1.3016
  351MOL0     H48410  11.707   0.100   2.855  0.2416  2.9646 -2.7035
  351MOL0     H48411  11.653  -0.058   2.823 -0.8060  1.6865  2.3009
  351MOL0     H48412  11.834   0.108   2.645  0.6847 -1.9579 -0.8041
  351MOL0     H48413  11.809  -0.065   2.630  3.1656 -2.4059  1.6448
  351MOL0     H48414  11.924  -0.105   2.844 -2.6525 -1.0337 -0.8778
  351MOL0     H48415  11.946   0.068   2.881  1.3986 -0.2761 -0.0827
  351MOL0     H48416  12.045  -0.098   2.649  0.0983 -0.6359 -0.1160
  351MOL0     H48417  12.155  -0.035   2.764 -1.0455 -0.3019  1.0863
  351MOL0     H48418  11.271   0.784   2.632 -0.4192 -1.5064  0.5361
  351MOL0     H48419  11.186   0.957   2.500 -1.1167 -1.1950  1.0233
  351MOL0     H48420  11.200   1.067   1.968 -2.6905 -1.7790  0.2554
  351MOL0     H48421  11.131   1.221   1.796  2.5098  1.7504  0.7450
  351MOL0     H48422   9.980   1.133   2.436 -2.5322 -1.7909  4.8438
  351MOL0     H48423   9.968   1.187   2.667  1.9390  0.5081 -1.0437
  351MOL0     H48424   9.981   1.510   2.961 -1.7407 -1.5478 -1.6105
  351MOL0     H48425  10.036   1.479   3.200  0.4829 -4.5759  0.1526
  351MOL0     H48426   9.959   1.422   3.554 -1.5266 -2.8035 -1.1173
  351MOL0     H48427  10.046   1.450   3.411 -0.0323 -0.9378 -0.1485
  351MOL0     H48428   9.859   1.664   3.538  0.5758 -1.1492  2.5261
  351MOL0     H48429   9.968   1.697   3.406 -1.1022  0.4595 -0.0792
  351MOL0     H48430  10.046   1.646   3.687 -0.7229  0.0312  0.1770
  351MOL0     H48431  10.161   1.595   3.568  0.1705  1.7701 -3.5932
  351MOL0     H48432  10.037   1.879   3.562 -0.9167 -0.3968 -3.2849
  351MOL0     H48433  10.170   1.821   3.455  0.3285  1.4382  0.2554
  351MOL0     H48434  10.382   1.959   3.774  0.7015 -0.0886 -1.8132
  351MOL0     H48435   9.624   1.386   3.284  1.8560 -2.7819  0.2512
  351MOL0     H48436   9.487   1.512   2.985 -3.7858  0.6400  2.0586
  351MOL0     H48437   9.519   1.344   2.949  0.3597 -1.9256  1.3405
  351MOL0     H48438   9.453   1.397   3.110 -1.6949  0.2231 -1.0769
  352MOL0     O48439  10.639   3.419   3.414  0.5912 -0.7011 -0.1996
  352MOL0     C48440  10.702   3.438   3.523  0.1957  0.5687 -0.6185
  352MOL0     O48441  10.673   3.381   3.646 -0.2331  0.2059  0.2760
  352MOL0     C48442  10.545   3.354   3.686 -0.8099  0.4224  0.6493
  352MOL0     C48443  10.545   3.303   3.814  0.1361  0.7507 -0.6470
  352MOL0     C48444  10.425   3.274   3.872 -0.2083  0.3563 -0.0908
  352MOL0     C48445  10.303   3.276   3.799 -0.1592 -1.1198 -1.0128
  352MOL0     O48446  10.178   3.231   3.848  0.2250  0.1474  0.0304
  352MOL0     C48447  10.154   3.240   3.994  0.5188 -0.6172  0.7080
  352MOL0     C48448  10.020   3.180   4.037  0.8674  0.4744 -1.3362
  352MOL0     C48449  10.034   3.028   4.049  0.3507 -0.3868  0.4370
  352MOL0     C48450   9.895   2.967   4.094  0.0232 -0.1751 -0.7804
  352MOL0     C48451   9.922   2.820   4.141 -0.4190 -0.4908  0.1290
  352MOL0     C48452   9.792   2.737   4.124 -0.5105  0.0170  0.9682
  352MOL0     C48453   9.813   2.575   4.122 -0.9453 -0.0481 -1.1203
  352MOL0     C48454   9.670   2.506   4.114  0.6951 -0.6946 -0.6388
  352MOL0     N48455   9.595   2.546   3.996  0.0291  0.0872  0.2860
  352MOL0     C48456   9.510   2.653   3.985  0.6805 -0.2646  0.6517
  352MOL0     C48457   9.492   2.674   3.849  0.8655 -0.7281  0.8452
  352MOL0     C48458   9.420   2.791   3.782 -0.4885  0.1562  0.3337
  352MOL0     C48459   9.468   2.930   3.807 -0.1765  0.1615 -0.2287
  352MOL0     C48460   9.621   2.955   3.779  0.8891 -0.2662  0.1231
  352MOL0     C48461   9.637   2.958   3.627  0.1465  0.0957  0.0790
  352MOL0     O48462   9.769   2.991   3.584 -0.9020  0.7918 -0.1231
  352MOL0     C48463   9.885   2.932   3.624 -0.0169  0.7497 -0.5035
  352MOL0     C48464   9.884   2.808   3.696  0.0357 -0.1285 -0.6813
  352MOL0     C48465  10.003   2.748   3.725 -0.7008  0.0211 -0.3434
  352MOL0     C48466  10.007   2.610   3.798  0.8542 -0.1979 -0.4444
  352MOL0     C48467  10.129   2.815   3.705 -0.5036 -0.4016  0.6006
  352MOL0     C48468  10.257   2.776   3.768 -0.9865  0.5275 -0.2606
  352MOL0     O48469  10.305   2.848   3.872 -0.1895  0.8020 -0.0891
  352MOL0     C48470  10.395   2.796   3.967 -0.6241  0.5316  0.4117
  352MOL0     C48471  10.507   2.884   4.003  0.1054 -0.6647  1.1715
  352MOL0     C48472  10.605   2.839   4.082 -0.0961 -0.6161  0.6444
  352MOL0     C48473  10.605   2.706   4.133  0.1520 -0.1979 -0.4687
  352MOL0     O48474  10.707   2.659   4.199  0.8090 -0.5608 -0.7203
  352MOL0     C48475  10.744   2.744   4.313 -0.0891  0.3709  0.8651
  352MOL0     C48476  10.758   2.660   4.438 -0.2506  0.8017 -0.1097
  352MOL0     C48477  10.847   2.545   4.416  0.4249  0.7564  0.1220
  352MOL0     C48478  10.859   2.482   4.548 -0.0791  0.6753 -0.7516
  352MOL0     C48479  10.906   2.335   4.546  0.3305 -0.4567  0.1083
  352MOL0     C48480  11.062   2.327   4.525 -0.0238 -0.2146 -0.2504
  352MOL0     C48481  11.129   2.191   4.540  1.1545  0.0502  0.3458
  352MOL0     C48482  11.284   2.189   4.532 -0.8623 -1.1133 -0.8318
  352MOL0    Cl48483  11.365   2.268   4.689 -0.4021 -0.3210 -0.1019
  352MOL0     C48484  10.490   2.624   4.100 -0.0852  0.1635  0.1153
  352MOL0     C48485  10.388   2.667   4.021 -0.5919 -0.4133 -0.0311
  352MOL0     O48486  10.323   2.682   3.723  0.2595  0.5509  0.7648
  352MOL0     C48487  10.119   2.948   3.642 -0.4038 -0.0932  0.0805
  352MOL0     C48488  10.002   2.992   3.588  0.0863 -0.6925 -0.4333
  352MOL0     N48489   9.564   2.580   3.780  0.1991 -0.3228  0.4928
  352MOL0     N48490   9.611   2.495   3.873 -0.2695  0.8058  1.6530
  352MOL0     C48491  10.310   3.331   3.676  0.2999 -0.1979  0.8986
  352MOL0     C48492  10.421   3.376   3.614  0.7946  0.4169 -0.5431
  352MOL0     C48493  10.838   3.508   3.517  0.2201 -0.4118 -1.4905
  352MOL0     C48494  10.953   3.475   3.586 -0.0246 -0.6756  0.3513
  352MOL0     C48495  11.078   3.551   3.564 -0.1992 -0.4243  0.0751
  352MOL0     C48496  11.081   3.664   3.488  0.9462  0.3563 -0.2993
  352MOL0     O48497  11.196   3.740   3.463  0.3874  0.6815  0.0326
  352MOL0     C48498  11.328   3.706   3.492  0.2126  0.3235 -0.9636
  352MOL0     C48499  11.364   3.740   3.642 -0.4913 -0.1902  0.3009
  352MOL0     C48500  11.523   3.713   3.672 -0.1216 -0.5727  0.1375
  352MOL0     C48501  11.633   3.763   3.570 -0.7039 -0.0354 -0.2684
  352MOL0     C48502  11.611   3.909   3.543 -0.6130  0.1467  0.7766
  352MOL0     C48503  11.588   4.031   3.538  0.3428  0.7202  0.7368
  352MOL0     C48504  10.963   3.702   3.433 -0.0940 -0.0979  0.3469
  352MOL0     C48505  10.847   3.630   3.446 -0.1199 -0.0411  0.7405
  352MOL0     C48506  10.739   3.679   3.347 -0.4968  0.0074 -0.4987
  352MOL0     H48507  10.627   3.304   3.885 -0.4172  0.1114  0.0095
  352MOL0     H48508  10.419   3.241   3.975  0.4340  0.8851  0.1252
  352MOL0     H48509  10.153   3.345   4.024  1.0594 -0.0960 -0.9814
  352MOL0     H48510  10.229   3.187   4.053 -0.0344 -0.0631  1.9513
  352MOL0     H48511   9.973   3.216   4.129 -0.7345 -1.3573 -1.3770
  352MOL0     H48512   9.945   3.200   3.960  0.4663  1.0210 -0.8134
  352MOL0     H48513  10.071   2.986   3.955 -1.3028 -0.8423 -0.0428
  352MOL0     H48514  10.110   3.003   4.124  1.9743 -4.1193 -2.1419
  352MOL0     H48515   9.855   3.017   4.183 -3.6610 -0.5277 -2.0895
  352MOL0     H48516   9.828   2.978   4.009 -0.2330 -2.2100 -0.8865
  352MOL0     H48517   9.949   2.814   4.247 -1.8200  1.3837  0.6472
  352MOL0     H48518   9.995   2.774   4.073 -1.9474  0.1629 -2.0749
  352MOL0     H48519   9.718   2.765   4.199 -0.9009 -1.7639  1.2936
  352MOL0     H48520   9.749   2.767   4.028 -0.1082  0.1000  0.8098
  352MOL0     H48521   9.860   2.546   4.216 -1.9824  1.8656  0.0703
  352MOL0     H48522   9.876   2.555   4.036  0.3245 -1.2470  0.0349
  352MOL0     H48523   9.692   2.399   4.121 -0.4425 -0.9579 -0.7668
  352MOL0     H48524   9.616   2.538   4.203 -0.2319 -0.4475 -1.2677
  352MOL0     H48525   9.480   2.719   4.065  1.9946  1.0568  0.1011
  352MOL0     H48526   9.312   2.792   3.800 -0.3494  2.7987  1.4573
  352MOL0     H48527   9.422   2.779   3.673 -0.8130 -0.6277  0.4054
  352MOL0     H48528   9.417   3.006   3.747  2.6160  1.3809 -1.2157
  352MOL0     H48529   9.461   2.935   3.916 -1.4296  0.0195 -0.2827
  352MOL0     H48530   9.633   3.055   3.820  0.1762  0.7077 -1.9304
  352MOL0     H48531   9.679   2.877   3.830  1.1866 -0.6396 -0.7642
  352MOL0     H48532   9.596   2.864   3.588  1.8695 -0.0259 -1.5300
  352MOL0     H48533   9.589   3.051   3.595  3.7052  1.4878 -1.7533
  352MOL0     H48534   9.794   2.748   3.707  1.6346 -2.1579  2.8386
  352MOL0     H48535  10.070   2.537   3.746 -1.5426 -1.6671 -1.4908
  352MOL0     H48536   9.910   2.558   3.799  1.6918 -1.9747  3.3037
  352MOL0     H48537  10.039   2.627   3.901  0.4780  1.7995 -0.6125
  352MOL0     H48538  10.514   2.980   3.952  1.8213 -1.3182  0.0836
  352MOL0     H48539  10.673   2.919   4.110 -1.2635  1.5140 -2.1382
  352MOL0     H48540  10.835   2.801   4.291  0.2376 -0.6196 -0.5455
  352MOL0     H48541  10.663   2.814   4.334 -1.6992 -0.9193 -0.6975
  352MOL0     H48542  10.798   2.716   4.523  1.1517 -1.7715  1.0373
  352MOL0     H48543  10.659   2.621   4.464  0.4830 -0.5517  0.8108
  352MOL0     H48544  10.946   2.561   4.373  0.0064  1.4253 -0.6111
  352MOL0     H48545  10.795   2.478   4.348 -0.7544  0.9440  0.8061
  352MOL0     H48546  10.763   2.478   4.599  1.6387 -0.6848  2.6613
  352MOL0     H48547  10.928   2.535   4.614  0.9406 -1.9015  0.3682
  352MOL0     H48548  10.878   2.292   4.643 -0.1981  1.7874  0.9952
  352MOL0     H48549  10.853   2.270   4.475  0.3567 -0.1239 -0.2178
  352MOL0     H48550  11.103   2.401   4.595  0.4265 -0.9131  0.2388
  352MOL0     H48551  11.095   2.371   4.431  3.8655  3.9197  2.5685
  352MOL0     H48552  11.093   2.144   4.448  1.3870 -0.5411  0.5518
  352MOL0     H48553  11.085   2.141   4.627 -2.4841  0.8860 -0.8528
  352MOL0     H48554  11.325   2.250   4.451 -0.1753  0.2909  0.5282
  352MOL0     H48555  11.325   2.087   4.528  0.5077 -0.6420  0.4718
  352MOL0     H48556  10.492   2.525   4.145 -4.3066 -0.1310  0.0884
  352MOL0     H48557  10.312   2.592   3.999 -3.3775  1.3173  2.8370
  352MOL0     H48558  10.207   3.012   3.633 -0.7073  0.0267 -2.9744
  352MOL0     H48559   9.994   3.082   3.527  0.7267 -1.7871 -2.1983
  352MOL0     H48560  10.217   3.362   3.629  0.1464  0.0949  1.3824
  352MOL0     H48561  10.411   3.421   3.516 -2.0156 -2.0244 -1.5377
  352MOL0     H48562  10.961   3.391   3.654  1.6441  1.2277  2.6734
  352MOL0     H48563  11.168   3.512   3.609 -1.1886 -0.3630  2.2123
  352MOL0     H48564  11.335   3.598   3.476 -1.5592  0.5831 -4.2559
  352MOL0     H48565  11.393   3.756   3.420  0.5845 -0.4585 -1.1769
  352MOL0     H48566  11.313   3.671   3.710 -2.2574  1.6787  0.9730
  352MOL0     H48567  11.338   3.842   3.671 -1.4423 -0.3676  0.0974
  352MOL0     H48568  11.547   3.766   3.764  0.9345  1.7279 -1.3430
  352MOL0     H48569  11.559   3.610   3.684  2.3519  0.2586  0.5379
  352MOL0     H48570  11.642   3.702   3.480 -0.8511 -1.5099  0.6865
  352MOL0     H48571  11.737   3.748   3.601  0.3734 -0.0043 -3.4097
  352MOL0     H48572  11.561   4.134   3.538 -0.5242  0.5255 -0.6807
  352MOL0     H48573  10.964   3.776   3.354 -0.3607 -1.0120 -0.5315
  352MOL0     H48574  10.725   3.598   3.275 -0.1500 -1.5326  1.0807
  352MOL0     H48575  10.642   3.701   3.393  0.9623  1.1810  2.2557
  352MOL0     H48576  10.768   3.768   3.290  0.6585 -1.2833 -2.0214
  353MOL0     O48577   3.376   0.571   3.742  0.2180  0.7043  0.3650
  353MOL0     C48578   3.401   0.458   3.772 -1.2754  1.1312  0.0450
  353MOL0     O48579   3.528   0.397   3.786 -0.0107 -0.5840 -0.8454
  353MOL0     C48580   3.642   0.477   3.799  0.1663 -0.5138  1.0921
  353MOL0     C48581   3.676   0.556   3.694  0.5919 -0.1459  0.2949
  353MOL0     C48582   3.793   0.636   3.704 -0.7796  0.0300 -0.5608
  353MOL0     C48583   3.869   0.638   3.820 -0.3108  0.2322  0.3154
  353MOL0     O48584   3.974   0.726   3.830 -0.2367  0.4732 -0.1712
  353MOL0     C48585   3.985   0.800   3.947 -0.1736 -0.1041 -0.9376
  353MOL0     C48586   4.114   0.889   3.927 -0.0671 -0.7178 -0.5958
  353MOL0     C48587   4.110   1.010   4.028  1.1470  0.3966 -0.6122
  353MOL0     C48588   4.216   1.111   3.976  0.5359 -0.4424  0.1636
  353MOL0     C48589   4.275   1.182   4.100  0.2631  0.3549  0.4221
  353MOL0     C48590   4.368   1.298   4.059 -0.2167 -0.9875 -0.2598
  353MOL0     C48591   4.426   1.374   4.168 -0.7202 -0.5575 -0.4968
  353MOL0     C48592   4.556   1.454   4.126 -0.4598  0.6602 -1.3015
  353MOL0     N48593   4.592   1.533   4.243 -0.3856  0.4251  0.1599
  353MOL0     C48594   4.514   1.628   4.298  0.3343  0.3686 -0.3681
  353MOL0     C48595   4.602   1.682   4.390 -0.2541 -0.4121  0.4875
  353MOL0     C48596   4.568   1.785   4.491  0.9849  0.0723  0.2348
  353MOL0     C48597   4.481   1.729   4.605 -0.4472 -0.4370  0.4610
  353MOL0     C48598   4.473   1.826   4.723  0.8612  0.5638  0.4226
  353MOL0     C48599   4.396   1.947   4.683 -1.6967  0.2520 -0.1629
  353MOL0     O48600   4.408   2.045   4.794  0.4397 -0.0761 -0.1795
  353MOL0     C48601   4.513   2.132   4.806 -0.2835  0.0331  0.2312
  353MOL0     C48602   4.629   2.128   4.726 -0.8784  0.1966  0.6898
  353MOL0     C48603   4.738   2.228   4.752  1.3078  1.3036 -0.7402
  353MOL0     C48604   4.857   2.223   4.667  0.8341 -0.4528 -0.6789
  353MOL0     C48605   4.720   2.315   4.865 -0.1854 -0.2908  0.6104
  353MOL0     C48606   4.822   2.404   4.915  0.4642 -0.3389 -0.7254
  353MOL0     O48607   4.764   2.528   4.948  0.1971 -0.0194 -0.3011
  353MOL0     C48608   4.856   2.625   4.977  0.7945  0.4806 -0.0693
  353MOL0     C48609   4.865   2.655   5.113  0.2939 -0.1661  0.3565
  353MOL0     C48610   4.971   2.743   5.157 -0.0039  0.4182 -0.2449
  353MOL0     C48611   5.036   2.816   5.049 -1.0302 -0.0680 -0.2493
  353MOL0     O48612   5.126   2.917   5.072 -0.2515 -1.1413 -0.1635
  353MOL0     C48613   5.197   2.925   5.197 -0.0249 -0.8972  0.4003
  353MOL0     C48614   5.269   3.061   5.190  0.5630 -0.0036  0.2213
  353MOL0     C48615   5.399   3.046   5.115 -0.1577 -0.0639 -0.3412
  353MOL0     C48616   5.485   3.160   5.149 -0.7920 -0.0534 -0.5783
  353MOL0     C48617   5.612   3.173   5.060 -0.2501  0.1285 -0.3909
  353MOL0     C48618   5.584   3.162   4.915  0.0313  0.1057  0.2117
  353MOL0     C48619   5.708   3.205   4.838 -0.1852  1.0423 -0.0269
  353MOL0     C48620   5.697   3.199   4.684  0.0481  0.6896  0.3228
  353MOL0    Cl48621   5.835   3.291   4.620  0.1393  0.5537  0.0289
  353MOL0     C48622   5.029   2.785   4.909 -0.3204  0.4263  0.1380
  353MOL0     C48623   4.935   2.684   4.875 -0.0576 -0.1276  0.8084
  353MOL0     O48624   4.937   2.377   4.930 -0.7675  0.0209 -0.6458
  353MOL0     C48625   4.600   2.305   4.944  0.0559  0.4355 -0.7233
  353MOL0     C48626   4.500   2.216   4.912 -0.8934  0.9410 -1.0492
  353MOL0     N48627   4.728   1.621   4.376 -0.5211  0.4798  0.4090
  353MOL0     N48628   4.714   1.525   4.299  0.1614  0.7131  0.6438
  353MOL0     C48629   3.837   0.551   3.927 -0.1318 -1.0783 -0.0464
  353MOL0     C48630   3.718   0.473   3.911  0.4892 -0.9846 -0.9796
  353MOL0     C48631   3.286   0.366   3.785  0.1809  0.2662  0.6462
  353MOL0     C48632   3.312   0.252   3.866  0.1383  0.2618 -0.4523
  353MOL0     C48633   3.227   0.140   3.870 -0.6875 -1.6688  0.1416
  353MOL0     C48634   3.103   0.153   3.816 -0.0655 -0.6230 -0.3482
  353MOL0     O48635   3.008   0.061   3.845 -0.6849 -0.8309 -0.4885
  353MOL0     C48636   2.881   0.111   3.894 -0.0574  0.0306 -0.6802
  353MOL0     C48637   2.831   0.038   4.027  0.5231  0.0378  1.5612
  353MOL0     C48638   2.945   0.041   4.134 -0.2525  0.3768 -0.0236
  353MOL0     C48639   2.992   0.181   4.188  0.0809 -0.4466  0.0092
  353MOL0     C48640   3.113   0.169   4.275 -0.2412 -0.4372  0.2576
  353MOL0     C48641   3.212   0.181   4.345  0.9453 -0.0621  0.2996
  353MOL0     C48642   3.064   0.273   3.753  0.0798 -0.1292  0.6550
  353MOL0     C48643   3.148   0.378   3.735  0.3257 -0.5482 -0.3627
  353MOL0     C48644   3.099   0.500   3.667 -0.1195 -0.5796 -0.0334
  353MOL0     H48645   3.608   0.559   3.609  2.0992  0.0819 -0.9507
  353MOL0     H48646   3.808   0.703   3.620  0.8203  1.0985  0.5218
  353MOL0     H48647   4.001   0.742   4.038  1.5497 -1.3084 -1.9493
  353MOL0     H48648   3.893   0.860   3.947 -1.4338 -1.9508  0.0050
  353MOL0     H48649   4.208   0.837   3.947 -0.5452 -0.2005  4.2647
  353MOL0     H48650   4.112   0.927   3.824 -2.3398  1.2121  0.0586
  353MOL0     H48651   4.010   1.049   4.043  1.0916  0.0811 -0.1332
  353MOL0     H48652   4.147   0.976   4.126  1.0034  1.1293 -0.2956
  353MOL0     H48653   4.298   1.056   3.928  1.0935  0.7708 -0.3086
  353MOL0     H48654   4.177   1.182   3.904  0.8750 -0.4227 -0.0055
  353MOL0     H48655   4.338   1.117   4.160 -1.5309 -0.2480  1.7522
  353MOL0     H48656   4.196   1.222   4.164  0.3200  1.0851  0.0488
  353MOL0     H48657   4.444   1.248   3.998 -1.0423 -3.7708  0.8368
  353MOL0     H48658   4.317   1.376   4.001  1.3980  0.0805 -0.3228
  353MOL0     H48659   4.456   1.293   4.236  1.9937  0.0904 -0.8342
  353MOL0     H48660   4.352   1.431   4.224  0.9568 -1.1263  2.5143
  353MOL0     H48661   4.635   1.389   4.087 -1.2883  0.9897 -3.7367
  353MOL0     H48662   4.521   1.529   4.054 -0.0619  2.2525  0.1086
  353MOL0     H48663   4.414   1.668   4.279  1.4259  3.7229  0.2395
  353MOL0     H48664   4.528   1.869   4.433  2.8141  0.3701 -0.6949
  353MOL0     H48665   4.656   1.839   4.525 -1.5198  5.1921 -0.4145
  353MOL0     H48666   4.383   1.709   4.560 -1.5594 -0.1050  2.6335
  353MOL0     H48667   4.531   1.635   4.628  2.6016  0.7663 -0.7364
  353MOL0     H48668   4.426   1.783   4.812  0.3089  1.2604  0.4753
  353MOL0     H48669   4.576   1.852   4.750  1.5747  1.4736 -2.7358
  353MOL0     H48670   4.438   2.003   4.598  0.7856  3.1010  2.6640
  353MOL0     H48671   4.288   1.932   4.670 -1.2979 -1.8174 -1.5529
  353MOL0     H48672   4.638   2.057   4.645  1.3383  0.1695  0.8908
  353MOL0     H48673   4.895   2.324   4.646  0.0696 -0.1426 -0.6114
  353MOL0     H48674   4.844   2.166   4.575  0.2384 -2.1085  0.3830
  353MOL0     H48675   4.934   2.174   4.728 -0.7370  0.7164  2.4738
  353MOL0     H48676   4.791   2.623   5.185  0.1011 -0.2432  0.1257
  353MOL0     H48677   4.990   2.762   5.262  0.9074  0.2105 -0.3654
  353MOL0     H48678   5.125   2.922   5.279 -2.8339  3.1916 -1.5763
  353MOL0     H48679   5.270   2.843   5.204  1.8075  0.4071 -1.8700
  353MOL0     H48680   5.188   3.120   5.146 -1.7839 -0.4819  3.4903
  353MOL0     H48681   5.290   3.108   5.287 -0.1319 -0.2671  0.5061
  353MOL0     H48682   5.372   3.037   5.009 -2.1992 -0.2126  0.1629
  353MOL0     H48683   5.450   2.953   5.143  0.6029  0.5211  0.2477
  353MOL0     H48684   5.520   3.167   5.252 -0.4742  3.8111 -0.7823
  353MOL0     H48685   5.424   3.251   5.154  2.0503  1.9546  0.1896
  353MOL0     H48686   5.650   3.275   5.071  1.5487 -0.4702 -0.7583
  353MOL0     H48687   5.684   3.096   5.090 -0.1426  0.1831 -0.5057
  353MOL0     H48688   5.498   3.226   4.893  0.1437 -0.3745 -1.7987
  353MOL0     H48689   5.564   3.060   4.884 -3.4756  0.6908  0.1438
  353MOL0     H48690   5.786   3.134   4.866 -1.0126  0.8238  1.9016
  353MOL0     H48691   5.736   3.306   4.870  2.9071  1.2613 -2.8564
  353MOL0     H48692   5.607   3.261   4.671 -0.1073  0.3179 -0.4334
  353MOL0     H48693   5.680   3.101   4.640  1.3401  1.0521 -1.0668
  353MOL0     H48694   5.085   2.837   4.831 -1.7255 -0.3218 -1.4219
  353MOL0     H48695   4.924   2.651   4.773  1.0991 -0.6454  0.8268
  353MOL0     H48696   4.594   2.367   5.033 -0.2937  1.0565 -1.1747
  353MOL0     H48697   4.415   2.220   4.979  0.0809  0.2605  0.2741
  353MOL0     H48698   3.889   0.544   4.022  1.8640 -0.7611 -1.0512
  353MOL0     H48699   3.681   0.402   3.984 -1.3235  0.4116 -0.4595
  353MOL0     H48700   3.409   0.230   3.908 -0.5813 -2.0812  0.0812
  353MOL0     H48701   3.252   0.047   3.920  5.0852 -0.5104  0.1902
  353MOL0     H48702   2.886   0.215   3.926 -2.3551 -0.4279  1.4581
  353MOL0     H48703   2.805   0.100   3.817  2.7402 -3.9429 -3.2817
  353MOL0     H48704   2.799  -0.063   4.000  2.8961 -0.1582 -1.0202
  353MOL0     H48705   2.745   0.094   4.063  0.7665  1.8620 -0.4543
  353MOL0     H48706   2.895  -0.001   4.222  0.7060  2.2285  1.4753
  353MOL0     H48707   3.013  -0.035   4.096 -2.0628 -0.4746 -1.7755
  353MOL0     H48708   2.920   0.225   4.257 -1.7302  1.0353 -2.6530
  353MOL0     H48709   2.992   0.248   4.101 -1.3674 -1.2924 -0.6615
  353MOL0     H48710   3.298   0.181   4.408 -0.3676 -3.6360  2.3876
  353MOL0     H48711   2.968   0.274   3.701  0.2793  2.2806  0.2418
  353MOL0     H48712   3.017   0.483   3.596  1.3125 -2.8084 -1.2760
  353MOL0     H48713   3.080   0.590   3.726 -0.5628  0.7630 -2.1239
  353MOL0     H48714   3.183   0.517   3.599  1.0370 -4.2022  0.2431
  354MOL0     O48715   9.576   3.505   1.881  0.1397 -0.2325 -0.1254
  354MOL0     C48716   9.512   3.499   1.985 -0.3207 -0.3939 -0.4123
  354MOL0     O48717   9.386   3.456   2.000  0.0985  0.5367 -0.1424
  354MOL0     C48718   9.331   3.411   1.883  0.8455 -0.4107 -0.0038
  354MOL0     C48719   9.218   3.476   1.835 -0.4453 -0.3268 -0.8493
  354MOL0     C48720   9.149   3.420   1.722 -0.8453 -0.6230 -0.0607
  354MOL0     C48721   9.184   3.297   1.664  0.8954 -0.7982  0.8539
  354MOL0     O48722   9.096   3.255   1.564  0.6152  0.0906  0.2274
  354MOL0     C48723   9.152   3.181   1.454  0.2549 -0.8135  0.5206
  354MOL0     C48724   9.050   3.150   1.351 -0.1821  0.8622  0.8307
  354MOL0     C48725   8.912   3.124   1.422  0.3837 -0.1340 -0.4736
  354MOL0     C48726   8.827   3.030   1.347  0.5719 -0.0264  0.5308
  354MOL0     C48727   8.680   3.032   1.401 -0.1981 -0.3168  0.1060
  354MOL0     C48728   8.604   3.164   1.362 -0.8650 -1.0248  0.1387
  354MOL0     C48729   8.503   3.143   1.248 -0.2236  0.7200 -0.2354
  354MOL0     C48730   8.571   3.140   1.103 -0.1351 -0.4476 -0.3040
  354MOL0     N48731   8.471   3.155   1.002 -0.1714 -1.2998 -0.1676
  354MOL0     C48732   8.391   3.057   0.949  0.2342 -0.0893  0.1213
  354MOL0     C48733   8.296   3.137   0.878 -0.3538 -0.1981 -0.6673
  354MOL0     C48734   8.173   3.071   0.813 -0.5603 -0.0186  0.2199
  354MOL0     C48735   8.055   3.053   0.904 -0.6131  0.0813  0.5081
  354MOL0     C48736   7.939   2.965   0.849  0.0620  0.8016 -0.3142
  354MOL0     C48737   7.976   2.818   0.835  0.9874  0.6062 -0.1626
  354MOL0     O48738   7.989   2.780   0.978 -1.0707  0.3561  0.0499
  354MOL0     C48739   8.094   2.691   1.001 -0.6713  0.2587  0.8860
  354MOL0     C48740   8.181   2.726   1.102 -0.0880  0.5272  0.5761
  354MOL0     C48741   8.305   2.661   1.122  0.5215  0.2427 -0.5150
  354MOL0     C48742   8.395   2.722   1.235 -0.9972  0.5832  0.8594
  354MOL0     C48743   8.329   2.538   1.055 -0.3404 -0.1582  0.3405
  354MOL0     C48744   8.449   2.454   1.077 -0.2340  0.0009 -0.8551
  354MOL0     O48745   8.451   2.319   1.038  0.2966  0.2780  0.5262
  354MOL0     C48746   8.488   2.231   1.134  1.0908 -1.1109  0.5653
  354MOL0     C48747   8.608   2.246   1.201 -1.0458 -0.3193  0.4934
  354MOL0     C48748   8.638   2.151   1.304  0.3285 -1.0518 -0.1280
  354MOL0     C48749   8.542   2.058   1.328 -0.4139 -0.7214 -0.3044
  354MOL0     O48750   8.551   1.976   1.433  0.2234 -0.4740 -0.5783
  354MOL0     C48751   8.536   2.041   1.563 -0.5628 -0.5276 -1.3433
  354MOL0     C48752   8.681   2.086   1.608 -0.1923 -1.2288 -0.6626
  354MOL0     C48753   8.684   2.093   1.769  0.3250 -0.4755  0.8442
  354MOL0     C48754   8.821   2.107   1.838  0.1380 -0.7154 -0.5152
  354MOL0     C48755   8.905   2.234   1.798  0.7132 -0.0133 -0.0372
  354MOL0     C48756   9.032   2.260   1.880  0.5005  0.7507 -0.2711
  354MOL0     C48757   9.134   2.333   1.800 -0.1355  0.2422  0.3499
  354MOL0     C48758   9.267   2.338   1.865  0.1635  0.1233 -1.0202
  354MOL0    Cl48759   9.397   2.403   1.749 -0.3107  0.0689 -0.2031
  354MOL0     C48760   8.414   2.046   1.265 -0.0536  0.9184  0.1053
  354MOL0     C48761   8.392   2.133   1.163  0.1433  0.2375 -0.0684
  354MOL0     O48762   8.553   2.518   1.088 -0.2435 -0.7433  0.0383
  354MOL0     C48763   8.229   2.496   0.956 -0.1313  0.5868  0.2200
  354MOL0     C48764   8.117   2.569   0.933  0.3725 -0.9288  0.2174
  354MOL0     N48765   8.334   3.269   0.876  0.5237 -0.2827  0.0626
  354MOL0     N48766   8.439   3.277   0.951  0.6620 -0.2196 -0.5347
  354MOL0     C48767   9.300   3.238   1.712 -0.5854 -1.2170  0.2073
  354MOL0     C48768   9.376   3.293   1.817  0.2539 -0.2930  0.7195
  354MOL0     C48769   9.586   3.528   2.110 -0.1519 -0.6793 -0.1776
  354MOL0     C48770   9.576   3.432   2.215 -0.1592 -0.0094  0.5799
  354MOL0     C48771   9.638   3.456   2.342 -0.7982 -0.4262 -0.7545
  354MOL0     C48772   9.709   3.576   2.371 -0.6003 -0.0610 -0.3614
  354MOL0     O48773   9.743   3.596   2.505  0.0104 -0.2933  0.0037
  354MOL0     C48774   9.882   3.638   2.523 -0.1592 -0.1654 -0.1827
  354MOL0     C48775   9.901   3.785   2.580 -0.7408 -0.1397  0.1998
  354MOL0     C48776   9.884   3.774   2.734 -1.1681 -0.4837  0.0842
  354MOL0     C48777   9.868   3.914   2.795 -0.2542  0.4287 -0.4240
  354MOL0     C48778   9.910   3.905   2.938  0.9493  0.5994 -0.1825
  354MOL0     C48779   9.946   3.912   3.048 -0.3730 -1.0549 -0.0837
  354MOL0     C48780   9.714   3.664   2.269 -0.3030  0.4084 -0.6013
  354MOL0     C48781   9.658   3.650   2.141  0.7198  1.1070 -0.9825
  354MOL0     C48782   9.673   3.766   2.042  0.3363 -1.1466 -0.7172
  354MOL0     H48783   9.172   3.559   1.887  0.5477 -0.6787  0.6328
  354MOL0     H48784   9.061   3.478   1.694 -0.7061 -0.9913 -1.3214
  354MOL0     H48785   9.176   3.085   1.500 -3.3173 -2.2227 -0.2227
  354MOL0     H48786   9.240   3.219   1.401 -1.1261 -0.1895 -1.4381
  354MOL0     H48787   9.046   3.238   1.284  3.3906 -0.5550 -1.5565
  354MOL0     H48788   9.069   3.058   1.296 -1.1112  0.7671  0.6520
  354MOL0     H48789   8.925   3.091   1.525 -3.2325  2.4606  1.0265
  354MOL0     H48790   8.867   3.222   1.437  0.7938 -0.3520  2.8255
  354MOL0     H48791   8.831   3.058   1.241  3.1834  1.6427  0.9735
  354MOL0     H48792   8.863   2.928   1.366 -2.1149 -0.9014  1.3458
  354MOL0     H48793   8.699   3.023   1.508  1.3381  3.0871  0.2284
  354MOL0     H48794   8.636   2.938   1.366 -0.2509 -0.9990  1.9017
  354MOL0     H48795   8.548   3.200   1.448 -0.3773  2.2974 -0.7877
  354MOL0     H48796   8.668   3.250   1.336  1.5808 -2.6622  0.3996
  354MOL0     H48797   8.430   3.225   1.253  1.7588  2.7076 -2.0449
  354MOL0     H48798   8.442   3.056   1.276 -2.8808  2.5566  0.1234
  354MOL0     H48799   8.632   3.230   1.118 -1.1589  0.6059 -2.0418
  354MOL0     H48800   8.632   3.052   1.080 -1.5736 -1.5043 -0.1683
  354MOL0     H48801   8.393   2.953   0.982 -2.3789  0.1355  1.2455
  354MOL0     H48802   8.212   2.983   0.760 -2.8295 -0.6508 -0.5051
  354MOL0     H48803   8.135   3.143   0.740  3.6682  0.2680 -2.0238
  354MOL0     H48804   8.099   3.012   0.995 -1.0240 -1.1966  0.1590
  354MOL0     H48805   8.011   3.148   0.936 -0.2088 -0.1942  1.9434
  354MOL0     H48806   7.853   2.964   0.917 -0.1616  0.4624 -0.5949
  354MOL0     H48807   7.907   3.008   0.753 -0.4590 -0.6577 -0.8288
  354MOL0     H48808   7.892   2.754   0.805  2.1472 -2.2320  2.1766
  354MOL0     H48809   8.065   2.815   0.773 -0.7309 -1.1945 -2.7308
  354MOL0     H48810   8.160   2.820   1.152 -1.1126 -0.6703  2.5271
  354MOL0     H48811   8.444   2.641   1.289  2.3300  1.9927  0.1997
  354MOL0     H48812   8.339   2.787   1.302 -0.4450  2.2879 -0.2698
  354MOL0     H48813   8.475   2.778   1.186 -1.0552  0.4096  0.5586
  354MOL0     H48814   8.677   2.320   1.164 -2.0719 -0.5140 -1.9773
  354MOL0     H48815   8.727   2.171   1.363 -0.6433  1.1441  0.7228
  354MOL0     H48816   8.461   2.120   1.571  1.8726  1.8205  0.3134
  354MOL0     H48817   8.505   1.967   1.637  0.5101  3.1994  3.3194
  354MOL0     H48818   8.756   2.009   1.589 -0.5859 -1.3459 -1.8235
  354MOL0     H48819   8.710   2.181   1.562 -0.3097 -0.1408  1.4018
  354MOL0     H48820   8.637   2.008   1.821 -1.8203  0.5815  0.7601
  354MOL0     H48821   8.627   2.181   1.799  0.4258  0.7294 -2.1792
  354MOL0     H48822   8.869   2.009   1.832  1.7352  0.0079 -0.1259
  354MOL0     H48823   8.800   2.125   1.944  0.3496 -0.4598 -0.5175
  354MOL0     H48824   8.932   2.219   1.693 -1.2366 -0.2743 -0.5532
  354MOL0     H48825   8.836   2.319   1.803 -0.5492 -0.5930 -3.9629
  354MOL0     H48826   9.069   2.166   1.924  1.8310  2.3380  2.2207
  354MOL0     H48827   9.011   2.332   1.960  4.9938  2.8353 -0.7025
  354MOL0     H48828   9.093   2.430   1.768 -1.3987 -0.3635  0.0663
  354MOL0     H48829   9.148   2.272   1.710 -1.8688 -1.4008  1.1156
  354MOL0     H48830   9.293   2.237   1.896 -0.6405 -0.6229 -2.6889
  354MOL0     H48831   9.261   2.406   1.950  3.7234 -0.1154 -0.4185
  354MOL0     H48832   8.343   1.978   1.310 -2.1551  0.6170 -3.2844
  354MOL0     H48833   8.295   2.125   1.116  0.1513 -0.4992  0.0301
  354MOL0     H48834   8.236   2.404   0.899 -2.7656  1.5218 -1.8013
  354MOL0     H48835   8.058   2.548   0.844  2.0386 -1.0118 -0.9252
  354MOL0     H48836   9.328   3.156   1.647  0.4505 -2.2232  1.8287
  354MOL0     H48837   9.466   3.237   1.842  1.2685  1.3881  0.9961
  354MOL0     H48838   9.519   3.341   2.199  0.7103 -0.3409 -0.8056
  354MOL0     H48839   9.639   3.396   2.432  2.9910 -1.8486 -1.5904
  354MOL0     H48840   9.947   3.568   2.575  1.0307  0.3142 -0.9983
  354MOL0     H48841   9.928   3.643   2.424  0.9228 -2.4222  0.1511
  354MOL0     H48842   9.836   3.853   2.524 -0.0299 -1.3121 -2.1682
  354MOL0     H48843  10.002   3.819   2.557  0.0272 -2.2350  0.2625
  354MOL0     H48844   9.802   3.709   2.764 -0.5485 -1.0083  0.6734
  354MOL0     H48845   9.974   3.723   2.772 -0.8548 -2.6165 -3.0965
  354MOL0     H48846   9.762   3.943   2.787 -0.7897 -1.6245 -1.4318
  354MOL0     H48847   9.938   3.981   2.746  1.0379  2.5494  3.7670
  354MOL0     H48848   9.962   3.940   3.151  0.4693 -2.4272  0.1915
  354MOL0     H48849   9.750   3.763   2.295 -1.0286  0.5440 -0.1088
  354MOL0     H48850   9.760   3.749   1.978  4.0640  3.9824  2.2589
  354MOL0     H48851   9.592   3.784   1.971  1.6619  3.6591 -1.3730
  354MOL0     H48852   9.684   3.855   2.103 -3.3904 -0.9782 -0.0787
  355MOL0     O48853   0.147  10.285  10.388 -0.3525 -0.2715 -0.6724
  355MOL0     C48854   0.168  10.367  10.474 -1.1012  0.8092  0.1103
  355MOL0     O48855   0.281  10.360  10.553 -0.2058  0.2067  0.1707
  355MOL0     C48856   0.366  10.247  10.535  0.2048 -0.3121 -0.8356
  355MOL0     C48857   0.477  10.262  10.445 -0.1416 -0.5349  0.0049
  355MOL0     C48858   0.562  10.158  10.430  0.2751 -0.4116 -0.2642
  355MOL0     C48859   0.540  10.041  10.504 -0.6657  0.4287  0.5682
  355MOL0     O48860   0.627   9.934  10.492  0.2105 -0.4091  0.6362
  355MOL0     C48861   0.765   9.963  10.493 -0.6514  0.1037  0.3440
  355MOL0     C48862   0.823   9.905  10.365 -0.3858  0.0760 -0.4382
  355MOL0     C48863   0.818   9.751  10.370 -0.6712 -0.2895  0.4904
  355MOL0     C48864   0.915   9.679  10.277  0.5904  0.3905  0.6482
  355MOL0     C48865   0.899   9.523  10.299 -0.2023 -0.3120  0.1992
  355MOL0     C48866   0.974   9.438  10.190  0.3523  0.8538 -0.4157
  355MOL0     C48867   0.885   9.439  10.069 -0.5272  0.7779 -0.2951
  355MOL0     C48868   0.960   9.409   9.939  0.2003  0.1525 -0.0947
  355MOL0     N48869   0.856   9.412   9.840  0.2885 -0.0912 -0.2288
  355MOL0     C48870   0.769   9.312   9.812  0.3610  0.0897 -0.6577
  355MOL0     C48871   0.698   9.355   9.708 -0.1484  0.1630  0.1348
  355MOL0     C48872   0.590   9.285   9.636 -0.4489 -0.0815 -0.3307
  355MOL0     C48873   0.453   9.341   9.666  0.5784  0.3723 -0.0721
  355MOL0     C48874   0.348   9.230   9.631 -0.3416  0.3580  0.0103
  355MOL0     C48875   0.202   9.281   9.632  0.4838 -0.3174 -1.0515
  355MOL0     O48876   0.106   9.172   9.639  0.0435  0.9751  0.1537
  355MOL0     C48877  -0.019   9.211   9.640  0.1020  0.0657  0.0006
  355MOL0     C48878  -0.066   9.321   9.565 -0.4427  0.2579 -0.4337
  355MOL0     C48879  -0.210   9.336   9.547 -0.2208 -0.7333 -0.3464
  355MOL0     C48880  -0.254   9.444   9.446  0.5356 -0.1956 -0.4282
  355MOL0     C48881  -0.303   9.260   9.621  0.2503  0.4475  0.0078
  355MOL0     C48882  -0.456   9.277   9.622 -0.1159  0.1532 -0.2891
  355MOL0     O48883  -0.526   9.197   9.701 -0.0847  0.1654  0.7377
  355MOL0     C48884  -0.654   9.223   9.738 -0.3523 -0.1315 -0.8013
  355MOL0     C48885  -0.728   9.343   9.729 -0.9757 -0.4003 -0.3088
  355MOL0     C48886  -0.861   9.347   9.780 -0.9159 -0.7289 -0.2532
  355MOL0     C48887  -0.912   9.240   9.865  0.0892 -1.3669  0.4045
  355MOL0     O48888  -1.037   9.231   9.925 -0.2086  0.2592 -0.6757
  355MOL0     C48889  -1.135   9.310   9.869 -0.3485  0.8578  0.2047
  355MOL0     C48890  -1.272   9.263   9.937 -0.4431 -0.8369 -0.4583
  355MOL0     C48891  -1.283   9.108   9.916 -0.0456 -1.3247 -0.0788
  355MOL0     C48892  -1.379   9.046  10.022 -0.2112  0.2655  0.3722
  355MOL0     C48893  -1.401   8.893  10.000  0.2062  0.3933 -0.9944
  355MOL0     C48894  -1.510   8.867   9.891  0.4843  0.8886  0.3571
  355MOL0     C48895  -1.526   8.716   9.887  0.7565 -0.3412 -0.5318
  355MOL0     C48896  -1.628   8.680   9.787  0.2659  0.0341 -0.5354
  355MOL0    Cl48897  -1.634   8.499   9.777  0.0503 -0.5012 -0.0966
  355MOL0     C48898  -0.831   9.129   9.869 -0.1108 -0.4402  0.9640
  355MOL0     C48899  -0.709   9.112   9.805 -0.0604 -0.2350 -0.0697
  355MOL0     O48900  -0.499   9.362   9.547 -0.2063  0.3030 -0.2383
  355MOL0     C48901  -0.247   9.158   9.707 -0.6912  0.3314 -0.1206
  355MOL0     C48902  -0.116   9.129   9.699 -0.4011 -1.0442  0.2522
  355MOL0     N48903   0.745   9.481   9.667  1.1825 -1.2897 -0.2605
  355MOL0     N48904   0.844   9.510   9.747  0.4187 -0.7710 -0.1538
  355MOL0     C48905   0.431  10.031  10.592  0.2020  0.4002 -0.1885
  355MOL0     C48906   0.341  10.128  10.606 -0.1250  0.8788  0.2909
  355MOL0     C48907   0.067  10.471  10.475  0.5724 -0.1110 -0.0664
  355MOL0     C48908   0.115  10.595  10.516 -0.0494  0.6095 -0.3231
  355MOL0     C48909   0.032  10.709  10.522  0.4084  0.4260 -0.0435
  355MOL0     C48910  -0.101  10.689  10.502  0.9645  0.0128  0.3979
  355MOL0     O48911  -0.205  10.771  10.519  1.1022 -0.6935  0.0747
  355MOL0     C48912  -0.185  10.884  10.613 -0.3981  0.4752 -0.8119
  355MOL0     C48913  -0.312  10.966  10.630  0.1589 -0.2827 -0.1455
  355MOL0     C48914  -0.384  10.942  10.763 -0.3316  0.2692 -0.1810
  355MOL0     C48915  -0.501  10.852  10.744  0.7291  0.9087  0.2348
  355MOL0     C48916  -0.580  10.856  10.872  0.6618 -0.0275  0.2521
  355MOL0     C48917  -0.650  10.855  10.975 -0.1242  0.7642  0.2003
  355MOL0     C48918  -0.152  10.561  10.477 -0.2691 -0.1459  0.7723
  355MOL0     C48919  -0.069  10.450  10.466  0.6087  0.1390  0.1043
  355MOL0     C48920  -0.127  10.312  10.449 -0.6420  0.7170 -0.5851
  355MOL0     H48921   0.497  10.354  10.390  1.1876 -0.1115  1.1377
  355MOL0     H48922   0.643  10.166  10.358  0.9132 -1.3494  0.3164
  355MOL0     H48923   0.804   9.914  10.583 -0.6024 -1.0457 -0.2893
  355MOL0     H48924   0.786  10.070  10.491 -2.4111  0.4647 -2.0340
  355MOL0     H48925   0.763   9.942  10.281  1.1225  2.2645 -0.6548
  355MOL0     H48926   0.922   9.951  10.371 -0.2042 -0.0369 -2.2057
  355MOL0     H48927   0.829   9.718  10.474 -0.2869 -0.4622  0.3967
  355MOL0     H48928   0.720   9.721  10.334  0.3804 -0.1202 -2.7846
  355MOL0     H48929   0.886   9.700  10.174  6.0500 -3.1815 -2.1242
  355MOL0     H48930   1.022   9.697  10.287  0.4206  2.2210 -0.5014
  355MOL0     H48931   0.796   9.487  10.313 -0.0345 -0.1617  2.0876
  355MOL0     H48932   0.944   9.510  10.398  0.2852 -3.8954 -0.3746
  355MOL0     H48933   1.074   9.471  10.161  0.4699  0.0279 -0.9778
  355MOL0     H48934   0.987   9.339  10.234  0.6308  0.9412 -0.2963
  355MOL0     H48935   0.844   9.541  10.063 -0.8123  0.8018  1.4499
  355MOL0     H48936   0.800   9.373  10.087 -0.0889  0.0648 -0.7820
  355MOL0     H48937   1.036   9.487   9.925  0.9962 -0.4551  0.7553
  355MOL0     H48938   1.001   9.308   9.940 -1.8264 -0.7212  0.1412
  355MOL0     H48939   0.745   9.225   9.873  0.4110 -0.1565 -0.9910
  355MOL0     H48940   0.599   9.183   9.673 -1.5756  1.3975  4.8062
  355MOL0     H48941   0.618   9.288   9.530 -1.0078 -0.9456 -0.5132
  355MOL0     H48942   0.452   9.381   9.768 -0.1399  0.0575  0.0536
  355MOL0     H48943   0.432   9.425   9.600 -2.1924  1.0371  1.4705
  355MOL0     H48944   0.359   9.198   9.527  0.3369  1.4831 -0.2813
  355MOL0     H48945   0.369   9.148   9.700 -0.5863 -0.8425 -1.3118
  355MOL0     H48946   0.189   9.358   9.708  2.0837 -0.3454 -0.7156
  355MOL0     H48947   0.188   9.333   9.536  1.8111 -2.5070 -2.5217
  355MOL0     H48948   0.001   9.389   9.512  0.1444  0.6243  0.7575
  355MOL0     H48949  -0.303   9.526   9.499 -2.2540  0.0501 -3.1367
  355MOL0     H48950  -0.333   9.411   9.378 -1.0304 -0.3577  1.3788
  355MOL0     H48951  -0.157   9.474   9.404 -0.3736  0.9175 -1.8268
  355MOL0     H48952  -0.696   9.438   9.688 -1.8608 -0.4973 -1.2677
  355MOL0     H48953  -0.913   9.442   9.773 -0.9350 -0.2671  3.7832
  355MOL0     H48954  -1.114   9.415   9.891  0.7147  0.6564  0.1770
  355MOL0     H48955  -1.138   9.292   9.761 -0.1455  1.1764  0.1464
  355MOL0     H48956  -1.286   9.293  10.041 -3.1453  1.1802 -1.2899
  355MOL0     H48957  -1.351   9.311   9.878 -1.3288  0.3531  1.6116
  355MOL0     H48958  -1.192   9.048   9.912 -0.0369 -1.2846 -0.6136
  355MOL0     H48959  -1.330   9.101   9.817  1.0219  0.5378 -0.7740
  355MOL0     H48960  -1.467   9.105  10.050 -2.4604 -3.5709  2.2393
  355MOL0     H48961  -1.329   9.057  10.118 -1.3234  1.3096  0.8608
  355MOL0     H48962  -1.311   8.833   9.982 -0.2590 -1.3382  1.8811
  355MOL0     H48963  -1.439   8.845  10.090  1.4168  2.3012  0.5985
  355MOL0     H48964  -1.468   8.901   9.796  4.6538 -1.3176  1.1758
  355MOL0     H48965  -1.606   8.917   9.909 -0.1603 -0.4258  0.6950
  355MOL0     H48966  -1.546   8.677   9.987  0.9065  0.6449 -0.0988
  355MOL0     H48967  -1.434   8.665   9.858  2.1033  1.5136  0.2348
  355MOL0     H48968  -1.599   8.714   9.687 -3.9832  2.5354 -1.1739
  355MOL0     H48969  -1.725   8.725   9.813  0.1057 -0.5650 -0.0656
  355MOL0     H48970  -0.867   9.036   9.912  1.3797 -3.1172 -2.9262
  355MOL0     H48971  -0.653   9.019   9.797  1.8979  0.8760  0.1934
  355MOL0     H48972  -0.302   9.095   9.777  2.8940 -2.7283  0.2842
  355MOL0     H48973  -0.085   9.031   9.734 -2.8338 -2.1226 -0.3940
  355MOL0     H48974   0.419   9.941  10.651 -0.0635  0.0076 -0.8198
  355MOL0     H48975   0.245  10.114  10.653  0.2617  1.5464  1.3257
  355MOL0     H48976   0.216  10.617  10.547  0.4701 -1.9085 -0.0091
  355MOL0     H48977   0.067  10.803  10.561  0.8943 -0.2548  1.2269
  355MOL0     H48978  -0.138  10.855  10.708  0.9963 -2.3932 -2.2403
  355MOL0     H48979  -0.120  10.958  10.566  0.0716 -0.0337 -0.9810
  355MOL0     H48980  -0.373  10.953  10.539 -0.7941 -2.0721  0.7095
  355MOL0     H48981  -0.279  11.070  10.622 -0.1001 -0.2755 -1.4141
  355MOL0     H48982  -0.311  10.917  10.839  0.4122 -3.2680 -1.8473
  355MOL0     H48983  -0.432  11.039  10.778 -0.0571  0.2707  0.7288
  355MOL0     H48984  -0.468  10.748  10.741 -3.4066 -0.6412  1.6576
  355MOL0     H48985  -0.554  10.875  10.650  0.3256  0.5023  0.3608
  355MOL0     H48986  -0.714  10.853  11.061 -0.8027  2.7787 -0.2034
  355MOL0     H48987  -0.259  10.555  10.461 -0.0832 -1.0519 -0.2655
  355MOL0     H48988  -0.108  10.283  10.345 -1.6292 -1.2439 -0.2525
  355MOL0     H48989  -0.076  10.241  10.515 -2.2716 -0.0050 -0.0646
  355MOL0     H48990  -0.232  10.299  10.474 -0.1720 -0.4315  0.9362
  356MOL0     O48991   0.377   8.232   5.355 -0.0863  0.1355  0.5214
  356MOL0     C48992   0.455   8.250   5.264 -0.9544 -0.0220 -0.3307
  356MOL0     O48993   0.423   8.294   5.143 -0.6303 -0.0710  0.1500
  356MOL0     C48994   0.297   8.337   5.124 -0.4474 -0.7004  0.5791
  356MOL0     C48995   0.224   8.292   5.014  0.1822 -0.0636 -0.3836
  356MOL0     C48996   0.091   8.311   5.005  0.1528  0.7287 -0.1825
  356MOL0     C48997   0.021   8.389   5.097 -0.0152 -1.1632 -0.3343
  356MOL0     O48998  -0.113   8.404   5.076  0.5336 -0.1818  0.0096
  356MOL0     C48999  -0.198   8.453   5.178  0.3624 -0.3467 -0.7362
  356MOL0     C49000  -0.338   8.405   5.123 -0.8554  0.4236  0.1018
  356MOL0     C49001  -0.391   8.485   5.001 -0.5717  0.0094  0.1246
  356MOL0     C49002  -0.540   8.449   4.955  0.4029 -0.4274 -1.4067
  356MOL0     C49003  -0.577   8.524   4.823 -0.2090  0.3919  0.2802
  356MOL0     C49004  -0.724   8.552   4.802  0.0018 -0.6144 -0.5517
  356MOL0     C49005  -0.759   8.582   4.658  1.1362 -0.2527  0.7332
  356MOL0     C49006  -0.678   8.694   4.588 -0.1970  0.4254  0.1335
  356MOL0     N49007  -0.752   8.755   4.476 -0.8765  0.2492 -0.7413
  356MOL0     C49008  -0.851   8.836   4.514 -1.3379 -0.6666  1.1161
  356MOL0     C49009  -0.901   8.874   4.388 -0.4445  0.1146 -0.6481
  356MOL0     C49010  -1.024   8.956   4.376  0.2447  0.2771  0.0761
  356MOL0     C49011  -1.116   8.915   4.258  1.5628  0.7560 -0.5977
  356MOL0     C49012  -1.230   9.011   4.231 -0.0306 -0.5939  0.2126
  356MOL0     C49013  -1.293   8.997   4.094 -0.0589 -0.0336  0.4556
  356MOL0     O49014  -1.355   8.864   4.090 -0.1250  0.7488  0.1560
  356MOL0     C49015  -1.418   8.840   3.973 -0.4077 -0.0275  0.3099
  356MOL0     C49016  -1.530   8.907   3.930  0.9253 -0.0927 -0.1752
  356MOL0     C49017  -1.604   8.870   3.815  0.6497  0.6484  0.2603
  356MOL0     C49018  -1.710   8.976   3.771  0.6064 -0.3130 -0.7481
  356MOL0     C49019  -1.565   8.760   3.738 -0.3917  0.6455  0.4851
  356MOL0     C49020  -1.631   8.714   3.617  0.2045 -0.4895  0.9303
  356MOL0     O49021  -1.770   8.699   3.610  0.0686  0.3029 -0.0019
  356MOL0     C49022  -1.815   8.632   3.502  0.1375  1.3901  0.8223
  356MOL0     C49023  -1.954   8.642   3.463  0.0502 -0.5924  0.2015
  356MOL0     C49024  -2.017   8.572   3.359 -0.2598 -0.0740  0.1841
  356MOL0     C49025  -1.937   8.489   3.282  0.2288  0.1806  0.6411
  356MOL0     O49026  -1.980   8.397   3.190  0.5521  0.4210 -0.0594
  356MOL0     C49027  -2.024   8.278   3.252  0.0224  0.2851  0.5350
  356MOL0     C49028  -2.103   8.193   3.153  1.1844 -0.2206 -0.2511
  356MOL0     C49029  -2.258   8.207   3.164 -0.7056 -0.5162 -0.7664
  356MOL0     C49030  -2.310   8.327   3.088  0.2859  0.7634 -0.5021
  356MOL0     C49031  -2.456   8.358   3.145 -0.2496  0.2460  0.3388
  356MOL0     C49032  -2.525   8.467   3.061  0.8407 -0.2321 -0.3339
  356MOL0     C49033  -2.531   8.439   2.908  0.9253 -0.7564  0.2576
  356MOL0     C49034  -2.622   8.546   2.850  0.1372  0.5088 -0.2936
  356MOL0    Cl49035  -2.791   8.544   2.901 -0.3787 -0.2586 -0.5720
  356MOL0     C49036  -1.802   8.472   3.309  0.0256  0.4034  0.7747
  356MOL0     C49037  -1.741   8.542   3.414  1.1361 -0.9442  0.8612
  356MOL0     O49038  -1.549   8.719   3.525 -0.5356  0.0365 -0.3155
  356MOL0     C49039  -1.441   8.692   3.776 -0.9297 -0.2941 -0.1558
  356MOL0     C49040  -1.381   8.728   3.895 -0.2773  0.6024 -0.6353
  356MOL0     N49041  -0.830   8.816   4.286 -0.1001 -0.4075  0.2075
  356MOL0     N49042  -0.742   8.741   4.345 -0.3958  0.3174 -0.6867
  356MOL0     C49043   0.091   8.446   5.201 -0.4197  0.5801  0.5558
  356MOL0     C49044   0.232   8.418   5.211 -0.2064 -0.2962  0.9286
  356MOL0     C49045   0.601   8.220   5.284 -0.3417 -0.3258 -0.7029
  356MOL0     C49046   0.647   8.157   5.397  0.3507  0.5114 -1.2611
  356MOL0     C49047   0.780   8.147   5.432  0.4766 -0.0792  0.4375
  356MOL0     C49048   0.878   8.206   5.357 -0.0516  0.3247 -1.3899
  356MOL0     O49049   1.011   8.189   5.387 -0.0103 -0.1223  0.0049
  356MOL0     C49050   1.044   8.116   5.506  0.2932 -0.6909 -0.9007
  356MOL0     C49051   1.195   8.105   5.532  0.7291 -0.0571  0.4047
  356MOL0     C49052   1.266   8.243   5.542 -0.1719 -0.0544 -0.5239
  356MOL0     C49053   1.422   8.228   5.543 -0.3193 -0.4247 -0.1275
  356MOL0     C49054   1.472   8.173   5.666  0.1749 -0.6280  0.2151
  356MOL0     C49055   1.499   8.123   5.775 -0.0333 -0.0926  0.2672
  356MOL0     C49056   0.838   8.260   5.238 -0.3223  0.0208  0.1876
  356MOL0     C49057   0.706   8.267   5.199  0.0644 -0.5547 -0.5246
  356MOL0     C49058   0.689   8.345   5.070  0.0096 -0.3337 -0.8019
  356MOL0     H49059   0.265   8.223   4.940  1.1743  0.7496 -0.6159
  356MOL0     H49060   0.027   8.270   4.928  0.7778  1.1835 -0.9584
  356MOL0     H49061  -0.192   8.559   5.205 -2.4667  0.3058 -2.2227
  356MOL0     H49062  -0.187   8.392   5.268 -1.4163 -0.3893 -0.4996
  356MOL0     H49063  -0.335   8.299   5.096  2.1594 -0.1534  2.2344
  356MOL0     H49064  -0.424   8.419   5.189 -1.5179  2.6878 -1.1430
  356MOL0     H49065  -0.387   8.592   5.025 -1.0125  0.2546 -0.8714
  356MOL0     H49066  -0.324   8.461   4.918  2.3214 -0.5334  2.4342
  356MOL0     H49067  -0.563   8.342   4.953  0.2552 -0.6695  3.3004
  356MOL0     H49068  -0.614   8.475   5.032 -2.1159 -3.9874 -2.3896
  356MOL0     H49069  -0.554   8.446   4.750  0.4240 -0.7914  1.6904
  356MOL0     H49070  -0.519   8.615   4.801 -2.3812  1.1329 -3.1323
  356MOL0     H49071  -0.780   8.459   4.818  1.1193 -1.4691 -1.4625
  356MOL0     H49072  -0.748   8.633   4.872 -0.4328 -0.7572 -0.5285
  356MOL0     H49073  -0.866   8.602   4.647  1.2538  3.2423  3.9382
  356MOL0     H49074  -0.741   8.485   4.613 -0.6678 -0.2276 -0.1200
  356MOL0     H49075  -0.664   8.767   4.668  1.8983 -0.9191  1.0974
  356MOL0     H49076  -0.585   8.652   4.548 -0.7839 -1.4357  0.6368
  356MOL0     H49077  -0.883   8.863   4.614 -1.3746 -0.7560  1.1284
  356MOL0     H49078  -0.994   9.059   4.355 -1.0116  0.7947  0.6504
  356MOL0     H49079  -1.083   8.945   4.468 -1.2006  0.5742 -0.7763
  356MOL0     H49080  -1.057   8.907   4.166 -0.4434  1.0159 -1.9681
  356MOL0     H49081  -1.158   8.818   4.286  2.7139  0.3389 -0.2426
  356MOL0     H49082  -1.312   9.001   4.301  0.3625 -2.8225  0.4169
  356MOL0     H49083  -1.185   9.111   4.233 -0.8448 -0.1764 -0.9110
  356MOL0     H49084  -1.366   9.076   4.074 -1.2605 -1.0022  0.8659
  356MOL0     H49085  -1.215   9.003   4.018  0.2655  1.3315  0.8731
  356MOL0     H49086  -1.558   8.997   3.983  0.4587 -2.1908  3.5165
  356MOL0     H49087  -1.786   8.919   3.718 -0.0056 -1.2124  1.0307
  356MOL0     H49088  -1.678   9.051   3.697 -1.0954 -0.5280 -1.7585
  356MOL0     H49089  -1.761   9.029   3.852  1.2253 -1.5327  0.4668
  356MOL0     H49090  -2.013   8.705   3.529 -1.2036 -0.4323 -1.0347
  356MOL0     H49091  -2.125   8.566   3.357 -0.2061 -4.5758 -1.6385
  356MOL0     H49092  -1.940   8.221   3.290 -2.1295 -2.5438  1.3467
  356MOL0     H49093  -2.097   8.299   3.331 -0.7416  1.9372 -0.5512
  356MOL0     H49094  -2.067   8.208   3.051  0.3709 -0.7220 -0.6279
  356MOL0     H49095  -2.084   8.086   3.166 -0.8258 -0.5727  0.0456
  356MOL0     H49096  -2.289   8.208   3.269  3.0818 -1.9804  0.5324
  356MOL0     H49097  -2.302   8.116   3.123 -1.5253 -1.0138  1.1118
  356MOL0     H49098  -2.317   8.308   2.981  2.6169  1.8139 -0.8888
  356MOL0     H49099  -2.253   8.419   3.101 -0.6810  1.3878 -0.6344
  356MOL0     H49100  -2.522   8.270   3.145  1.1976 -0.8820  0.7716
  356MOL0     H49101  -2.438   8.391   3.248 -1.4200  0.7582  0.3993
  356MOL0     H49102  -2.476   8.561   3.086  0.8864 -1.2349  4.0583
  356MOL0     H49103  -2.629   8.460   3.094  1.2181  0.2352  0.9951
  356MOL0     H49104  -2.569   8.342   2.874 -0.6237 -0.1659  0.2625
  356MOL0     H49105  -2.433   8.462   2.865  0.9986 -1.2985  0.1265
  356MOL0     H49106  -2.614   8.550   2.741 -1.4104  0.2784 -0.4416
  356MOL0     H49107  -2.585   8.641   2.890 -2.1225  1.1442  0.4484
  356MOL0     H49108  -1.741   8.412   3.242  0.9467 -1.2691  2.9940
  356MOL0     H49109  -1.635   8.523   3.426  1.8077  1.1518 -1.0636
  356MOL0     H49110  -1.403   8.617   3.708  1.8510  1.0700 -0.2435
  356MOL0     H49111  -1.295   8.671   3.929  0.0714  0.6837 -1.3672
  356MOL0     H49112   0.045   8.499   5.284  0.2064  0.6151  0.8904
  356MOL0     H49113   0.283   8.462   5.296 -2.0816  1.6824  1.1114
  356MOL0     H49114   0.577   8.117   5.470  1.1957  1.1311 -0.0770
  356MOL0     H49115   0.785   8.102   5.531  0.6450  0.2266  0.5686
  356MOL0     H49116   1.001   8.159   5.596 -1.2754 -0.5079 -1.7077
  356MOL0     H49117   1.004   8.014   5.497 -2.2406  0.3917 -3.3871
  356MOL0     H49118   1.225   8.049   5.443 -3.1893  0.3782 -1.3738
  356MOL0     H49119   1.202   8.049   5.626 -2.9609  3.4836  3.0815
  356MOL0     H49120   1.249   8.320   5.466 -1.3352  1.4456  1.1557
  356MOL0     H49121   1.222   8.282   5.634  0.0324  3.4900 -1.7624
  356MOL0     H49122   1.462   8.329   5.533 -0.8740 -0.1235  0.5850
  356MOL0     H49123   1.453   8.187   5.447  1.4323 -1.6108  0.8723
  356MOL0     H49124   1.524   8.093   5.875  2.2549  1.8337  0.3766
  356MOL0     H49125   0.914   8.299   5.171  1.0904  2.8359  3.1424
  356MOL0     H49126   0.658   8.269   4.999  2.8652 -1.1905 -1.2794
  356MOL0     H49127   0.620   8.426   5.092  1.1820 -0.1263  2.9203
  356MOL0     H49128   0.776   8.401   5.035  0.3479 -0.4676 -0.2028
  357MOL0     O49129   6.855   4.651   3.537 -0.5017 -0.1857 -0.1771
  357MOL0     C49130   6.965   4.703   3.576  0.7481 -0.5686 -0.5946
  357MOL0     O49131   7.020   4.689   3.718 -0.7286 -0.0849 -0.5407
  357MOL0     C49132   6.930   4.638   3.805  0.3025  0.7495 -0.7678
  357MOL0     C49133   6.940   4.512   3.857 -1.0620 -0.5789  0.3798
  357MOL0     C49134   6.846   4.457   3.946  0.1513 -0.0232  0.2949
  357MOL0     C49135   6.738   4.538   3.985 -0.0417  0.1730 -0.5347
  357MOL0     O49136   6.651   4.490   4.077 -0.4330  0.4831 -0.4388
  357MOL0     C49137   6.706   4.446   4.200 -0.8198  0.3176 -0.0876
  357MOL0     C49138   6.592   4.439   4.317 -0.2430 -0.1994  0.9581
  357MOL0     C49139   6.474   4.343   4.287 -0.5992 -0.1327  0.4056
  357MOL0     C49140   6.384   4.339   4.413 -0.0465 -0.2281 -0.6129
  357MOL0     C49141   6.293   4.219   4.392  0.8552  0.4595  0.4108
  357MOL0     C49142   6.237   4.151   4.519 -0.0994 -0.3490  0.7092
  357MOL0     C49143   6.123   4.048   4.487 -1.2023 -0.1306 -0.6465
  357MOL0     C49144   6.180   3.918   4.429 -0.3766 -0.0603  1.0675
  357MOL0     N49145   6.289   3.867   4.508  0.5316  0.7234  0.4150
  357MOL0     C49146   6.287   3.802   4.628  0.3695 -0.3071 -0.1568
  357MOL0     C49147   6.417   3.798   4.668 -0.4520 -0.3601  0.0031
  357MOL0     C49148   6.471   3.751   4.805 -0.0236 -0.1246 -0.7567
  357MOL0     C49149   6.602   3.671   4.791 -0.1836 -0.3716 -0.2725
  357MOL0     C49150   6.689   3.689   4.907  0.1420  0.1248 -0.2385
  357MOL0     C49151   6.779   3.814   4.898 -1.0446  0.2677  0.4719
  357MOL0     O49152   6.892   3.810   4.815  1.0636  0.4824  0.2744
  357MOL0     C49153   6.982   3.902   4.833 -0.0051 -0.7614 -0.0559
  357MOL0     C49154   7.019   3.960   4.958 -0.7376  1.1566 -0.4036
  357MOL0     C49155   7.138   4.032   4.973  0.7232  0.1181  0.8582
  357MOL0     C49156   7.181   4.043   5.111 -0.4813  0.5139 -0.0308
  357MOL0     C49157   7.219   4.061   4.859  1.0145 -0.4766  0.1699
  357MOL0     C49158   7.339   4.150   4.859 -0.3962  0.5296 -0.5921
  357MOL0     O49159   7.372   4.213   4.980  0.3606 -0.4937  0.0316
  357MOL0     C49160   7.471   4.307   4.988  0.5340 -1.1985  0.7168
  357MOL0     C49161   7.594   4.300   4.916  0.0389  0.7460 -0.4273
  357MOL0     C49162   7.696   4.396   4.938  0.5743  0.1666 -0.6493
  357MOL0     C49163   7.668   4.509   5.016  1.0377  0.1416 -0.0028
  357MOL0     O49164   7.770   4.598   5.032  0.0661 -0.2076  0.4377
  357MOL0     C49165   7.743   4.727   5.084 -0.1374 -1.1011  1.3625
  357MOL0     C49166   7.849   4.837   5.053 -0.0345  0.2211 -0.7362
  357MOL0     C49167   7.867   4.848   4.905 -0.0409 -0.3369 -0.8652
  357MOL0     C49168   7.958   4.960   4.871  0.1257  0.9276 -0.5394
  357MOL0     C49169   7.911   5.096   4.915 -0.2264 -0.3606  0.1911
  357MOL0     C49170   7.780   5.142   4.850  0.0655 -0.0862 -0.6554
  357MOL0     C49171   7.781   5.172   4.705  0.0241  0.2794  0.9826
  357MOL0     C49172   7.692   5.297   4.670 -0.0917  0.3547  0.0125
  357MOL0    Cl49173   7.764   5.445   4.747  0.0810  0.5348  0.4274
  357MOL0     C49174   7.540   4.527   5.079  0.2888 -0.0110  0.1470
  357MOL0     C49175   7.449   4.423   5.061  0.2409 -0.4611 -0.3886
  357MOL0     O49176   7.401   4.151   4.760 -0.5331 -0.0569  0.1429
  357MOL0     C49177   7.176   4.008   4.741  0.4944  0.9774 -0.5262
  357MOL0     C49178   7.068   3.920   4.729  0.3594  0.6120 -0.3880
  357MOL0     N49179   6.494   3.844   4.561  0.3362  0.4762  0.6269
  357MOL0     N49180   6.416   3.883   4.465  0.2308 -1.1566  0.5374
  357MOL0     C49181   6.728   4.663   3.933  0.1041 -0.2435  0.4674
  357MOL0     C49182   6.819   4.715   3.848 -0.2553 -0.1057  0.6058
  357MOL0     C49183   7.043   4.777   3.484 -0.2105 -0.4404 -0.4592
  357MOL0     C49184   7.098   4.899   3.524 -0.1970  0.0780  0.7748
  357MOL0     C49185   7.188   4.964   3.436  1.1148  0.3579 -0.7910
  357MOL0     C49186   7.202   4.920   3.305  0.1783  0.5081  0.1446
  357MOL0     O49187   7.278   4.987   3.208  1.1963  0.0829 -0.6678
  357MOL0     C49188   7.327   5.121   3.230 -0.2634 -0.5886  0.3564
  357MOL0     C49189   7.326   5.191   3.096 -0.3165  0.5862  0.2970
  357MOL0     C49190   7.432   5.297   3.071 -0.3808 -0.2002 -0.2010
  357MOL0     C49191   7.421   5.405   3.175  0.6647  0.6987  0.0245
  357MOL0     C49192   7.532   5.501   3.146 -1.1740  0.0550 -0.2703
  357MOL0     C49193   7.616   5.584   3.122  1.0766  0.6244  0.0250
  357MOL0     C49194   7.142   4.795   3.265  0.9498  0.0006  0.0313
  357MOL0     C49195   7.060   4.730   3.353  0.0552  0.7754  0.3394
  357MOL0     C49196   7.004   4.599   3.293 -0.3829 -0.7451 -0.3155
  357MOL0     H49197   7.021   4.452   3.816  0.7639  1.3032  1.0356
  357MOL0     H49198   6.861   4.357   3.986 -0.4715  0.1914  1.1083
  357MOL0     H49199   6.790   4.512   4.222 -0.1122 -0.1146 -1.3354
  357MOL0     H49200   6.744   4.344   4.185 -0.2341  0.2691  1.5551
  357MOL0     H49201   6.643   4.405   4.407 -0.4759  3.1800  2.5321
  357MOL0     H49202   6.568   4.545   4.333  1.1699  0.0544  1.5635
  357MOL0     H49203   6.420   4.384   4.201 -1.2631  0.2225  0.9753
  357MOL0     H49204   6.515   4.243   4.274 -2.4819 -1.3265  2.7367
  357MOL0     H49205   6.446   4.329   4.503 -0.1883 -1.2104 -0.6124
  357MOL0     H49206   6.320   4.425   4.431  1.6633  0.8318  0.8288
  357MOL0     H49207   6.339   4.137   4.336 -1.7599  0.2542 -1.6494
  357MOL0     H49208   6.209   4.250   4.330  0.8095  0.6325  0.5588
  357MOL0     H49209   6.321   4.101   4.570 -0.3082  1.2341  2.7210
  357MOL0     H49210   6.211   4.237   4.580  1.2602  0.9430 -0.4486
  357MOL0     H49211   6.040   4.088   4.429 -1.1651  1.4286  0.3057
  357MOL0     H49212   6.089   4.028   4.589 -0.3192 -1.2369 -0.5542
  357MOL0     H49213   6.107   3.840   4.406 -1.2559  0.7258  1.1342
  357MOL0     H49214   6.214   3.965   4.336  0.3512  1.0582  1.8758
  357MOL0     H49215   6.212   3.768   4.699  0.4525  0.8557  0.5137
  357MOL0     H49216   6.398   3.693   4.862  1.2721 -0.9308  0.1251
  357MOL0     H49217   6.494   3.841   4.862  3.6158 -1.6142  0.4253
  357MOL0     H49218   6.569   3.569   4.770 -3.1262  0.7138 -1.4132
  357MOL0     H49219   6.664   3.705   4.708  4.7961 -1.9946  2.3447
  357MOL0     H49220   6.634   3.686   5.002 -1.9738 -0.3572 -1.4104
  357MOL0     H49221   6.747   3.597   4.910 -1.7797 -1.1368  1.9193
  357MOL0     H49222   6.721   3.901   4.868  1.3830  2.4933  1.8704
  357MOL0     H49223   6.804   3.836   5.002  1.4464 -4.1237  1.0631
  357MOL0     H49224   6.963   3.936   5.047 -0.9579  1.3422 -0.4924
  357MOL0     H49225   7.100   4.016   5.179 -0.1980 -0.5077 -0.0734
  357MOL0     H49226   7.198   4.149   5.129 -1.2620  0.5979  0.2164
  357MOL0     H49227   7.271   3.985   5.132  0.7350  3.0445  2.3497
  357MOL0     H49228   7.616   4.206   4.865  1.7221  0.2534  1.0993
  357MOL0     H49229   7.796   4.374   4.902  1.1953  0.8751  0.6084
  357MOL0     H49230   7.649   4.760   5.040 -0.5109 -0.3895  2.6214
  357MOL0     H49231   7.743   4.726   5.194  2.7455  2.0932  1.5999
  357MOL0     H49232   7.795   4.922   5.096 -0.6859 -0.2371 -0.6331
  357MOL0     H49233   7.948   4.816   5.093 -0.0165 -0.2592 -1.0281
  357MOL0     H49234   7.773   4.861   4.851  0.1379 -1.8596 -1.6133
  357MOL0     H49235   7.913   4.762   4.855  1.6610  0.4415 -0.7012
  357MOL0     H49236   7.955   4.967   4.762 -1.3096  0.5418 -0.5432
  357MOL0     H49237   8.063   4.938   4.893 -0.2083 -0.5650 -0.3393
  357MOL0     H49238   7.912   5.110   5.023 -1.2021 -0.6563  0.2444
  357MOL0     H49239   7.987   5.168   4.881 -0.3116 -1.6146 -2.9947
  357MOL0     H49240   7.749   5.232   4.904  0.4015 -2.2408  3.6429
  357MOL0     H49241   7.699   5.072   4.874 -2.7534  2.6468 -1.6405
  357MOL0     H49242   7.736   5.087   4.652  0.6837  0.2277  0.4954
  357MOL0     H49243   7.879   5.198   4.665 -1.8003  1.3204 -3.4980
  357MOL0     H49244   7.586   5.278   4.688  0.0107 -4.2552 -2.6504
  357MOL0     H49245   7.699   5.321   4.563 -2.4477 -1.0643 -0.5389
  357MOL0     H49246   7.513   4.611   5.141  0.5458  0.8114 -0.8379
  357MOL0     H49247   7.356   4.426   5.117  0.1949 -0.6852 -0.4515
  357MOL0     H49248   7.234   4.008   4.649 -1.6653  1.1275 -1.9757
  357MOL0     H49249   7.043   3.870   4.636 -0.6737 -0.3243  0.3738
  357MOL0     H49250   6.642   4.720   3.969 -0.8707 -0.5831 -1.2289
  357MOL0     H49251   6.811   4.817   3.811  0.4607  0.7533  2.6595
  357MOL0     H49252   7.099   4.930   3.628 -2.2341  4.7298 -0.3378
  357MOL0     H49253   7.237   5.055   3.468 -1.5630  2.4895 -2.2916
  357MOL0     H49254   7.270   5.177   3.304  1.3594  1.8628 -0.1496
  357MOL0     H49255   7.429   5.107   3.265 -0.3411 -1.9360  0.1074
  357MOL0     H49256   7.227   5.240   3.097 -0.7484 -0.2307 -1.0222
  357MOL0     H49257   7.335   5.128   3.008  1.3261  2.6305 -1.1000
  357MOL0     H49258   7.533   5.255   3.060  0.0495  0.9369 -0.7025
  357MOL0     H49259   7.403   5.341   2.976  0.8128 -3.5711 -2.3055
  357MOL0     H49260   7.432   5.356   3.272  0.0879  0.1029 -0.2006
  357MOL0     H49261   7.328   5.462   3.174 -0.3436 -0.8489  0.7754
  357MOL0     H49262   7.694   5.657   3.127  3.2543 -1.6639  3.4886
  357MOL0     H49263   7.168   4.768   3.163 -0.7120  0.6945 -0.6193
  357MOL0     H49264   6.903   4.624   3.258 -0.5655 -2.1256 -0.8307
  357MOL0     H49265   7.073   4.562   3.216  1.0381 -1.4394  1.2359
  357MOL0     H49266   6.991   4.522   3.369  0.4246  0.0844  0.6988
  358MOL0     O49267   8.092   1.988   9.190  0.1080 -0.1857  1.0192
  358MOL0     C49268   8.015   2.007   9.281  0.3054 -0.1845 -0.5968
  358MOL0     O49269   7.945   1.912   9.359 -0.0512  0.2798 -0.4140
  358MOL0     C49270   7.987   1.777   9.372  0.6024  0.6779 -0.5619
  358MOL0     C49271   8.106   1.726   9.432 -0.2378  0.2527  0.5667
  358MOL0     C49272   8.129   1.594   9.433  0.3383  0.8520  0.3399
  358MOL0     C49273   8.032   1.507   9.389  0.7124 -0.1581  0.0316
  358MOL0     O49274   8.074   1.381   9.413 -0.5347 -0.2093  0.0058
  358MOL0     C49275   8.001   1.271   9.361  0.5379  1.0909 -0.5688
  358MOL0     C49276   7.888   1.241   9.461 -0.2372 -0.6611  0.6254
  358MOL0     C49277   7.957   1.220   9.603  0.6091  0.5170 -0.5851
  358MOL0     C49278   7.873   1.125   9.692 -0.5165  0.0293 -0.9780
  358MOL0     C49279   7.756   1.210   9.754 -0.3150 -0.2858  0.0093
  358MOL0     C49280   7.643   1.140   9.823 -0.7408 -0.3830 -0.3573
  358MOL0     C49281   7.531   1.236   9.870  0.8668 -0.2146  0.0247
  358MOL0     C49282   7.559   1.340   9.980 -0.2130  0.2942  0.1883
  358MOL0     N49283   7.446   1.432   9.997  0.1706  0.6264  0.6455
  358MOL0     C49284   7.347   1.426  10.085 -0.3539  1.2541  0.4148
  358MOL0     C49285   7.267   1.536  10.077  0.2607 -0.8427 -0.1014
  358MOL0     C49286   7.142   1.584  10.152 -0.0934  0.8369  0.4486
  358MOL0     C49287   7.122   1.507  10.283 -0.2282 -0.3149 -0.1197
  358MOL0     C49288   7.236   1.518  10.390  0.7280 -0.8324  0.4393
  358MOL0     C49289   7.192   1.451  10.524  0.6540  0.7740 -0.8626
  358MOL0     O49290   7.070   1.503  10.574  0.4326 -0.1937 -0.2883
  358MOL0     C49291   6.982   1.405  10.627  0.7447 -0.5446 -0.4896
  358MOL0     C49292   7.010   1.280  10.680  0.1458  0.5888  0.0704
  358MOL0     C49293   6.919   1.195  10.728  0.1393 -0.4441 -0.7223
  358MOL0     C49294   6.976   1.059  10.768  0.5593  0.5095  0.2706
  358MOL0     C49295   6.784   1.222  10.721  0.0248 -1.0720 -0.1812
  358MOL0     C49296   6.677   1.127  10.753  0.3458 -0.4156  0.1093
  358MOL0     O49297   6.571   1.174  10.834  0.1343  0.0988  0.1610
  358MOL0     C49298   6.447   1.134  10.811 -0.0010 -0.4042  0.0793
  358MOL0     C49299   6.397   1.081  10.685  0.2479 -0.3959  0.4684
  358MOL0     C49300   6.258   1.062  10.668 -0.8812  0.3846  0.0744
  358MOL0     C49301   6.177   1.068  10.779 -1.2672 -0.6518  0.5957
  358MOL0     O49302   6.044   1.061  10.761 -0.0848  0.3906  0.2536
  358MOL0     C49303   5.969   1.177  10.787 -0.0373  0.5067 -0.0057
  358MOL0     C49304   5.833   1.130  10.742  0.3635  0.5320 -0.6078
  358MOL0     C49305   5.821   1.118  10.582  1.0460 -0.3562 -0.2796
  358MOL0     C49306   5.671   1.076  10.552  0.5253 -0.0655  0.3155
  358MOL0     C49307   5.659   1.038  10.405 -0.0050 -0.2607  0.1147
  358MOL0     C49308   5.508   1.042  10.370  0.0276  0.5514 -0.8240
  358MOL0     C49309   5.425   0.947  10.459  0.9191 -0.4232  0.4531
  358MOL0     C49310   5.468   0.799  10.452  0.6158 -0.0257  0.1435
  358MOL0    Cl49311   5.346   0.717  10.554 -0.3102 -0.2632  0.0382
  358MOL0     C49312   6.230   1.103  10.904  0.5460  0.5909  0.6433
  358MOL0     C49313   6.362   1.137  10.921 -0.4268  0.0659  1.2727
  358MOL0     O49314   6.681   1.019  10.707  0.4947  0.7114  0.5151
  358MOL0     C49315   6.743   1.354  10.691 -0.0532 -0.5191 -0.2955
  358MOL0     C49316   6.843   1.440  10.638 -1.0665  0.3862 -0.9068
  358MOL0     N49317   7.330   1.611   9.977 -0.1546 -0.5845  0.1920
  358MOL0     N49318   7.427   1.542   9.927  0.1017 -0.5241  0.6488
  358MOL0     C49319   7.900   1.548   9.354 -1.1162  0.5498  0.3212
  358MOL0     C49320   7.880   1.687   9.351 -0.9159  0.4267  0.1654
  358MOL0     C49321   7.984   2.147   9.332  0.4241  0.3274 -0.0402
  358MOL0     C49322   7.950   2.159   9.468 -0.0112  0.4807 -0.0025
  358MOL0     C49323   7.926   2.289   9.526 -0.2306  0.0109  0.0850
  358MOL0     C49324   7.940   2.405   9.442 -0.6219 -0.4311  0.3924
  358MOL0     O49325   7.908   2.530   9.473 -0.2798 -0.5825  0.0424
  358MOL0     C49326   7.806   2.553   9.567  0.2790 -0.4951  0.1835
  358MOL0     C49327   7.867   2.602   9.706  1.1374  1.4767 -0.5518
  358MOL0     C49328   7.983   2.695   9.696  0.1393  0.6109  0.4867
  358MOL0     C49329   8.006   2.761   9.835  0.0688  0.6962  0.0213
  358MOL0     C49330   8.145   2.792   9.870  0.2840  0.9601  0.3918
  358MOL0     C49331   8.260   2.807   9.892  0.6531  0.3640 -0.3714
  358MOL0     C49332   7.985   2.385   9.311  0.4015 -0.1180 -0.2144
  358MOL0     C49333   8.006   2.261   9.251 -0.4898  0.4684 -0.7304
  358MOL0     C49334   8.044   2.255   9.107 -0.7094  0.6364  1.3166
  358MOL0     H49335   8.171   1.798   9.481 -2.3389  2.5270  0.1731
  358MOL0     H49336   8.212   1.551   9.489  0.6558 -0.3421 -0.9635
  358MOL0     H49337   8.056   1.177   9.351 -0.4270  0.3673  0.6736
  358MOL0     H49338   7.976   1.301   9.258  4.2530  2.6939 -1.1497
  358MOL0     H49339   7.810   1.317   9.463  0.5093  0.2127 -1.1120
  358MOL0     H49340   7.838   1.152   9.421  2.3385 -1.1107 -1.9881
  358MOL0     H49341   8.061   1.187   9.590  1.4536  2.2093  1.2444
  358MOL0     H49342   7.965   1.312   9.662  1.7534 -0.9517  1.7007
  358MOL0     H49343   7.842   1.032   9.643  1.2044 -1.0496 -0.1124
  358MOL0     H49344   7.941   1.093   9.771  0.1136  0.3043 -1.3985
  358MOL0     H49345   7.719   1.285   9.683  1.5878  0.8128  0.1337
  358MOL0     H49346   7.805   1.272   9.829 -1.3804  1.0086 -0.3152
  358MOL0     H49347   7.605   1.063   9.755  1.3450 -2.5292  0.7540
  358MOL0     H49348   7.687   1.091   9.910 -1.6289  2.2528  1.6808
  358MOL0     H49349   7.450   1.172   9.908 -0.7627  0.2860 -2.3654
  358MOL0     H49350   7.487   1.286   9.783 -3.4334 -1.5400  1.1997
  358MOL0     H49351   7.589   1.302  10.079 -0.0723 -0.5446 -0.1674
  358MOL0     H49352   7.643   1.400   9.947  0.7018 -0.8015  0.4695
  358MOL0     H49353   7.344   1.342  10.154  1.0576 -0.1733 -1.1625
  358MOL0     H49354   7.060   1.562  10.083  2.4330 -2.0755 -1.9208
  358MOL0     H49355   7.162   1.689  10.174  2.0581  0.8136 -1.0514
  358MOL0     H49356   7.037   1.565  10.323 -0.9118 -0.2690 -1.5655
  358MOL0     H49357   7.096   1.401  10.274  1.7684 -0.8776  0.3529
  358MOL0     H49358   7.329   1.464  10.370  1.7230  0.2364  1.9468
  358MOL0     H49359   7.267   1.620  10.414  1.0159 -1.3531  2.5571
  358MOL0     H49360   7.189   1.346  10.495 -2.9599 -0.0555  1.7804
  358MOL0     H49361   7.277   1.468  10.591  1.1394  0.8483 -1.4900
  358MOL0     H49362   7.114   1.249  10.686 -0.7398 -2.5166  1.7735
  358MOL0     H49363   6.965   0.992  10.683 -5.6109  2.8927 -1.3408
  358MOL0     H49364   6.923   1.020  10.856 -0.2902 -1.9584 -1.2304
  358MOL0     H49365   7.081   1.070  10.797  0.1437 -0.0418  2.1296
  358MOL0     H49366   6.456   1.066  10.596 -1.1128  1.4467 -0.8418
  358MOL0     H49367   6.234   1.044  10.564 -0.6608 -1.1519  0.2656
  358MOL0     H49368   5.969   1.199  10.894 -0.4959  1.4728 -0.1973
  358MOL0     H49369   6.000   1.269  10.736 -1.5917  0.3011 -1.4285
  358MOL0     H49370   5.796   1.038  10.787  0.0617 -0.1079 -2.0910
  358MOL0     H49371   5.766   1.210  10.776  2.3787  1.2494  1.9490
  358MOL0     H49372   5.890   1.041  10.548  4.3970  1.9669  0.7731
  358MOL0     H49373   5.833   1.216  10.534 -1.3920  0.3665  0.4340
  358MOL0     H49374   5.619   1.168  10.578  3.9155  2.7879 -1.9453
  358MOL0     H49375   5.639   0.988  10.609 -1.4080 -0.2034 -0.8972
  358MOL0     H49376   5.712   1.108  10.339 -2.8643  3.7013  1.6106
  358MOL0     H49377   5.699   0.938  10.387  0.1450  0.1587 -2.1959
  358MOL0     H49378   5.485   0.997  10.273  0.2000 -0.6567 -0.3178
  358MOL0     H49379   5.465   1.142  10.382 -0.6758  0.1935 -0.3049
  358MOL0     H49380   5.325   0.963  10.418  2.2906 -0.4961 -3.2544
  358MOL0     H49381   5.425   0.975  10.565  0.9847 -0.5028  0.4744
  358MOL0     H49382   5.566   0.780  10.498  0.0255  1.5543  2.2050
  358MOL0     H49383   5.471   0.760  10.350 -0.2390  0.7356 -0.1817
  358MOL0     H49384   6.153   1.123  10.978 -0.8539 -0.7831 -0.3639
  358MOL0     H49385   6.396   1.181  11.014 -2.4811 -2.6702  3.4797
  358MOL0     H49386   6.644   1.396  10.709  0.5017 -0.3262  2.9066
  358MOL0     H49387   6.823   1.546  10.630  2.5989  1.3475  0.4414
  358MOL0     H49388   7.820   1.477   9.335 -2.4362  1.1274  3.2685
  358MOL0     H49389   7.785   1.725   9.314 -0.0218  0.1691 -2.5896
  358MOL0     H49390   7.947   2.067   9.526  1.3170 -1.2521 -2.4961
  358MOL0     H49391   7.902   2.299   9.632  0.6987 -0.3520  0.3368
  358MOL0     H49392   7.742   2.633   9.530 -1.4308 -3.5852 -4.3661
  358MOL0     H49393   7.748   2.462   9.582 -0.1752 -0.4745 -1.3072
  358MOL0     H49394   7.895   2.510   9.759  1.0946  1.3032 -0.8230
  358MOL0     H49395   7.790   2.651   9.765 -2.7605 -1.2397 -2.9102
  358MOL0     H49396   8.062   2.623   9.678 -0.1429 -0.0161  1.6620
  358MOL0     H49397   7.978   2.762   9.610  0.8571 -0.6883 -0.6110
  358MOL0     H49398   7.958   2.697   9.910 -2.2007  2.4086  0.1261
  358MOL0     H49399   7.951   2.855   9.831 -0.6250  0.3045  0.2104
  358MOL0     H49400   8.363   2.836   9.897  0.4015  1.9367 -2.6112
  358MOL0     H49401   7.994   2.482   9.263 -1.7587 -0.2973 -1.0607
  358MOL0     H49402   7.975   2.192   9.050  0.9225  0.8336 -1.0324
  358MOL0     H49403   8.029   2.348   9.051 -2.7233 -0.1181  0.5146
  358MOL0     H49404   8.147   2.217   9.103 -1.3831 -1.5274 -4.1770
  359MOL0     O49405   0.655   2.747  10.173 -0.7218 -0.6608  0.1970
  359MOL0     C49406   0.722   2.650  10.132 -0.5267  0.0680 -0.6177
  359MOL0     O49407   0.822   2.651  10.055  0.5008 -0.5724  0.8561
  359MOL0     C49408   0.875   2.775  10.028  0.7672  1.3417 -0.1975
  359MOL0     C49409   0.824   2.849   9.927 -0.3312  0.0488  0.3745
  359MOL0     C49410   0.856   2.982   9.902 -0.3729 -0.1235  0.7966
  359MOL0     C49411   0.948   3.039   9.991  0.3131 -0.2400 -0.0165
  359MOL0     O49412   0.974   3.170  10.009 -0.1144  0.1576 -0.2911
  359MOL0     C49413   0.895   3.272   9.946 -0.3983  0.2824  0.4471
  359MOL0     C49414   0.939   3.412   9.988  0.6474 -0.3725  0.4646
  359MOL0     C49415   1.086   3.441   9.949  0.6730  0.1885  0.2367
  359MOL0     C49416   1.126   3.584   9.991 -1.1889 -0.0544 -0.2143
  359MOL0     C49417   1.284   3.611   9.970  0.3752 -0.0384 -0.8471
  359MOL0     C49418   1.323   3.749  10.026  0.9397 -0.3785 -0.6423
  359MOL0     C49419   1.470   3.770  10.018 -0.7177  0.6857 -0.2064
  359MOL0     C49420   1.498   3.920  10.071  0.9542 -0.5527 -0.3708
  359MOL0     N49421   1.644   3.934  10.083  0.4826 -0.1437 -0.1646
  359MOL0     C49422   1.728   3.915  10.188 -0.1657 -0.5062  0.0278
  359MOL0     C49423   1.848   3.963  10.142 -0.6083  0.4401 -0.0140
  359MOL0     C49424   1.969   3.987  10.229  0.3630  0.4800  0.9438
  359MOL0     C49425   2.069   3.868  10.229 -0.8762 -0.2459 -0.1749
  359MOL0     C49426   2.013   3.741  10.292 -0.9351 -0.2397  0.1805
  359MOL0     C49427   2.127   3.635  10.279  0.5861  0.4011 -0.5709
  359MOL0     O49428   2.198   3.614  10.399  0.0536 -0.4118 -0.9988
  359MOL0     C49429   2.342   3.596  10.386 -0.0229  0.4509  0.9769
  359MOL0     C49430   2.393   3.483  10.443 -1.1312 -0.1576 -0.5621
  359MOL0     C49431   2.528   3.455  10.464  0.6225  0.3892  0.1918
  359MOL0     C49432   2.556   3.320  10.527  0.8518  0.0675 -0.6055
  359MOL0     C49433   2.627   3.547  10.412  0.7258 -1.3204 -0.4021
  359MOL0     C49434   2.771   3.527  10.417 -0.3886  0.0608 -0.0693
  359MOL0     O49435   2.816   3.454  10.529  0.9197 -0.5474  0.0228
  359MOL0     C49436   2.947   3.473  10.572  0.1624  0.4532 -0.2711
  359MOL0     C49437   2.991   3.597  10.609 -0.4465  0.1748 -0.1232
  359MOL0     C49438   3.132   3.615  10.619  0.2966 -0.6176 -0.4690
  359MOL0     C49439   3.220   3.508  10.599  0.3967  0.5885  0.3434
  359MOL0     O49440   3.354   3.537  10.587 -0.2607 -0.8184  0.7611
  359MOL0     C49441   3.409   3.538  10.454 -0.1193 -0.3000 -0.1162
  359MOL0     C49442   3.564   3.539  10.469  0.3665  0.4095 -0.9844
  359MOL0     C49443   3.616   3.671  10.513  0.6374 -0.4579  0.9502
  359MOL0     C49444   3.610   3.790  10.413 -0.4746 -0.1298 -1.1770
  359MOL0     C49445   3.708   3.898  10.440  0.2536  0.0935  0.3121
  359MOL0     C49446   3.700   4.019  10.336 -0.1914  0.6563 -0.5973
  359MOL0     C49447   3.785   4.141  10.360  0.4683  0.3046 -0.4695
  359MOL0     C49448   3.793   4.246  10.247  0.2759 -1.0519 -0.3485
  359MOL0    Cl49449   3.874   4.164  10.109  0.3973 -0.5193 -0.3396
  359MOL0     C49450   3.174   3.375  10.580 -0.2297  0.6892 -0.4448
  359MOL0     C49451   3.034   3.362  10.561 -0.8257 -0.4393 -0.3676
  359MOL0     O49452   2.839   3.590  10.345 -0.1442 -0.5625 -0.0201
  359MOL0     C49453   2.577   3.656  10.346 -0.1820  0.1602  0.1957
  359MOL0     C49454   2.441   3.684  10.333 -0.5251 -0.5359  0.9625
  359MOL0     N49455   1.846   3.993  10.003  0.5221 -0.4154  0.1564
  359MOL0     N49456   1.720   3.974   9.973 -0.7019  0.3088  0.3292
  359MOL0     C49457   1.016   2.958  10.090  0.3449 -0.9427 -0.1358
  359MOL0     C49458   0.973   2.823  10.111 -0.4938  0.1165  0.2199
  359MOL0     C49459   0.676   2.513  10.157  0.0186 -0.3539 -0.0493
  359MOL0     C49460   0.539   2.491  10.169  0.3806 -0.2540  0.3814
  359MOL0     C49461   0.489   2.358  10.191 -0.5791 -0.5523  0.2400
  359MOL0     C49462   0.577   2.252  10.212  0.4303 -0.7077 -0.5536
  359MOL0     O49463   0.514   2.137  10.235 -0.2828 -0.6298 -0.6361
  359MOL0     C49464   0.592   2.020  10.262 -0.4843  0.2258  0.0306
  359MOL0     C49465   0.495   1.923  10.312  0.7747 -0.3485 -0.6791
  359MOL0     C49466   0.399   1.888  10.196 -0.3526 -0.2188  0.2878
  359MOL0     C49467   0.294   1.777  10.241  0.0143  0.0704 -1.1611
  359MOL0     C49468   0.181   1.836  10.309  0.0661 -0.0082  0.0945
  359MOL0     C49469   0.075   1.874  10.352 -0.2376  0.2822 -0.3172
  359MOL0     C49470   0.712   2.277  10.221 -0.9069 -0.8329 -0.1568
  359MOL0     C49471   0.767   2.404  10.182  0.3071 -0.1700  0.4289
  359MOL0     C49472   0.914   2.424  10.166 -0.2843 -0.8175 -0.6584
  359MOL0     H49473   0.761   2.789   9.861  1.5397 -0.0317 -1.4507
  359MOL0     H49474   0.808   3.032   9.818  1.6732 -2.2919 -1.8872
  359MOL0     H49475   0.787   3.260   9.962 -0.5375  3.1291  2.4637
  359MOL0     H49476   0.909   3.259   9.839 -1.2944 -1.6590  0.5209
  359MOL0     H49477   0.875   3.488   9.942  1.8868  1.8840  2.3057
  359MOL0     H49478   0.928   3.420  10.096 -1.1337  0.0245  0.2903
  359MOL0     H49479   1.153   3.373  10.001  2.0891  1.7287  0.4932
  359MOL0     H49480   1.109   3.434   9.842  0.3176 -2.1833  0.2670
  359MOL0     H49481   1.065   3.657   9.937 -2.2112 -1.0611 -0.4590
  359MOL0     H49482   1.109   3.594  10.098  2.2670 -1.8962  0.6607
  359MOL0     H49483   1.300   3.596   9.863 -2.4686  1.1221 -1.5424
  359MOL0     H49484   1.340   3.537  10.027  1.6787 -0.5333 -2.7024
  359MOL0     H49485   1.262   3.830   9.986  0.4306 -0.9523 -1.0345
  359MOL0     H49486   1.298   3.752  10.133 -0.3666  1.2863 -0.9499
  359MOL0     H49487   1.507   3.749   9.917  2.5179 -1.4304  1.2522
  359MOL0     H49488   1.517   3.695  10.083 -3.7629  0.3780  1.8492
  359MOL0     H49489   1.462   3.990   9.996  2.3643  0.1470 -0.4389
  359MOL0     H49490   1.449   3.968  10.156  2.1310  0.0895 -0.0248
  359MOL0     H49491   1.692   3.882  10.285  2.2790 -1.4687  0.6977
  359MOL0     H49492   1.938   4.025  10.326  1.9008  0.3470  1.5287
  359MOL0     H49493   2.023   4.074  10.189  2.5884  0.5935  3.8505
  359MOL0     H49494   2.107   3.863  10.126  1.7416  2.0142  0.5327
  359MOL0     H49495   2.154   3.899  10.290 -0.2970 -1.1057 -0.5232
  359MOL0     H49496   1.978   3.761  10.394  0.2936  1.6653  0.2930
  359MOL0     H49497   1.923   3.711  10.238  0.2030  1.4196 -2.8700
  359MOL0     H49498   2.064   3.547  10.259 -3.1749  2.8083 -0.2083
  359MOL0     H49499   2.183   3.651  10.186 -0.4302  0.5913 -1.1667
  359MOL0     H49500   2.334   3.396  10.473  3.8809 -3.3357  1.3160
  359MOL0     H49501   2.586   3.325  10.632 -1.1517 -0.9601  0.0505
  359MOL0     H49502   2.644   3.274  10.481  1.9479  0.3333  1.1074
  359MOL0     H49503   2.476   3.246  10.529 -2.0353  2.7911 -3.5941
  359MOL0     H49504   2.915   3.673  10.599 -1.6537 -1.2236 -2.5201
  359MOL0     H49505   3.175   3.714  10.612  1.2994 -1.1024 -1.5000
  359MOL0     H49506   3.377   3.444  10.406 -0.0499  0.0379 -0.8374
  359MOL0     H49507   3.376   3.626  10.398  1.6181 -0.4424 -1.4329
  359MOL0     H49508   3.588   3.456  10.536 -2.3026 -0.3577 -0.8696
  359MOL0     H49509   3.620   3.519  10.377  2.3672 -1.7808  0.5769
  359MOL0     H49510   3.720   3.643  10.535  1.0182  0.4872  0.4274
  359MOL0     H49511   3.566   3.713  10.601  2.0053  2.1312  0.6169
  359MOL0     H49512   3.513   3.841  10.416 -1.3629 -1.6852 -2.1558
  359MOL0     H49513   3.630   3.766  10.308 -2.3188  0.8576 -1.8112
  359MOL0     H49514   3.688   3.933  10.541  0.1681 -0.8610  0.6387
  359MOL0     H49515   3.808   3.855  10.451 -0.0454 -0.2398  1.9096
  359MOL0     H49516   3.594   4.049  10.333 -0.3749  0.0060 -0.6899
  359MOL0     H49517   3.740   3.975  10.244  0.7452  0.9389 -0.3292
  359MOL0     H49518   3.888   4.112  10.381  0.6961  1.8807  0.7687
  359MOL0     H49519   3.763   4.182  10.459  3.0106 -0.6066  0.5603
  359MOL0     H49520   3.843   4.338  10.280  1.6009 -1.8641 -0.0216
  359MOL0     H49521   3.690   4.272  10.222  0.9899  1.5407 -0.9355
  359MOL0     H49522   3.240   3.289  10.569  0.3765  0.9981  0.5747
  359MOL0     H49523   2.997   3.266  10.528  1.1289 -1.7252  0.9762
  359MOL0     H49524   2.642   3.741  10.325 -0.9101  1.3768  2.4562
  359MOL0     H49525   2.402   3.777  10.292 -2.8366 -0.8674  2.2468
  359MOL0     H49526   1.093   3.000  10.154 -2.8338  3.5335  1.2221
  359MOL0     H49527   1.007   2.766  10.197 -1.2408 -1.7213 -0.6400
  359MOL0     H49528   0.459   2.563  10.151 -1.3759 -1.8604  1.3458
  359MOL0     H49529   0.381   2.348  10.197 -0.9708  2.5567  0.1426
  359MOL0     H49530   0.641   1.985  10.170  2.9877  0.6438  1.5446
  359MOL0     H49531   0.672   2.047  10.331 -1.4551  0.7999  0.9570
  359MOL0     H49532   0.443   1.969  10.397  1.1780 -2.6556  0.9133
  359MOL0     H49533   0.543   1.829  10.343 -3.8619 -3.3662 -1.6240
  359MOL0     H49534   0.350   1.975  10.152  1.0490  0.7679  0.6164
  359MOL0     H49535   0.466   1.851  10.118 -0.3554 -0.3372  0.3411
  359MOL0     H49536   0.351   1.714  10.309  1.2932  0.6260 -1.6815
  359MOL0     H49537   0.248   1.710  10.167 -1.6918  2.2229 -2.2012
  359MOL0     H49538  -0.017   1.895  10.403  0.1546 -1.9176  1.4485
  359MOL0     H49539   0.791   2.205  10.239  2.0419  1.2625 -3.3469
  359MOL0     H49540   0.961   2.510  10.214  0.0444 -0.7569 -1.0837
  359MOL0     H49541   0.961   2.342  10.222 -0.4743  1.5396  3.3170
  359MOL0     H49542   0.952   2.416  10.064  0.3788 -0.9133 -0.4147
  360MOL0     O49543   1.822  10.591   9.070  0.5175 -0.1849  0.1627
  360MOL0     C49544   1.922  10.556   9.137 -0.5547  1.2832 -0.2425
  360MOL0     O49545   1.944  10.433   9.198  0.9628 -0.2775  0.7320
  360MOL0     C49546   1.845  10.336   9.204  0.3770  0.9772 -0.1433
  360MOL0     C49547   1.709  10.353   9.191 -0.7235  0.2942  1.1456
  360MOL0     C49548   1.628  10.240   9.186 -0.4381 -0.2066 -0.5725
  360MOL0     C49549   1.681  10.107   9.211  0.1247  0.1964 -1.0218
  360MOL0     O49550   1.611   9.989   9.225 -0.3702  0.0405 -0.1265
  360MOL0     C49551   1.468   9.994   9.240  0.1387 -0.7519 -0.0185
  360MOL0     C49552   1.431  10.009   9.395 -0.4439  0.2451  0.6043
  360MOL0     C49553   1.494   9.899   9.480  0.4261  0.5258 -1.4186
  360MOL0     C49554   1.401   9.877   9.614 -0.2751 -0.2585 -0.4498
  360MOL0     C49555   1.468   9.761   9.692 -0.1027 -0.6010 -0.1125
  360MOL0     C49556   1.457   9.782   9.841  0.9525  0.6990 -0.0137
  360MOL0     C49557   1.308   9.765   9.884  0.2630  1.1122  0.3430
  360MOL0     C49558   1.273   9.802  10.026 -0.0336 -0.0289 -0.2010
  360MOL0     N49559   1.336   9.714  10.125 -0.4032  0.6525 -0.5193
  360MOL0     C49560   1.321   9.586  10.128 -0.3871  0.0936 -0.3706
  360MOL0     C49561   1.395   9.542  10.233 -0.5421  0.2161 -0.3672
  360MOL0     C49562   1.413   9.396  10.264  0.2038  0.2266 -0.1016
  360MOL0     C49563   1.306   9.361  10.373  0.0568 -0.2649  0.8031
  360MOL0     C49564   1.282   9.211  10.379 -0.3818  0.4263 -0.8377
  360MOL0     C49565   1.160   9.177  10.472  0.1893 -0.5160  0.5475
  360MOL0     O49566   1.200   9.187  10.607  0.2862 -0.0649  1.0074
  360MOL0     C49567   1.106   9.185  10.713  0.3818  0.7147 -0.4488
  360MOL0     C49568   0.963   9.174  10.693 -0.8781 -1.2709 -0.7287
  360MOL0     C49569   0.866   9.179  10.803  0.0039  0.4536 -0.0199
  360MOL0     C49570   0.725   9.186  10.760 -0.3489  1.2116 -0.2506
  360MOL0     C49571   0.918   9.202  10.926 -0.0821 -0.0955 -0.2549
  360MOL0     C49572   0.831   9.189  11.042  0.0959  0.0895  1.0090
  360MOL0     O49573   0.723   9.110  11.031 -0.0029 -0.6006  0.0334
  360MOL0     C49574   0.623   9.111  11.118  0.2105  0.8798  0.4488
  360MOL0     C49575   0.499   9.152  11.072  0.0980 -0.0844  0.0493
  360MOL0     C49576   0.392   9.132  11.153  0.7982 -0.3646  0.0946
  360MOL0     C49577   0.400   9.068  11.275 -0.2880  0.5297  0.4079
  360MOL0     O49578   0.292   9.038  11.356 -0.9639 -0.2610 -0.1705
  360MOL0     C49579   0.161   9.061  11.298  0.4144 -0.1676 -0.3743
  360MOL0     C49580   0.058   8.987  11.380  0.7501 -0.7766  0.0514
  360MOL0     C49581  -0.071   8.980  11.306  0.2033 -0.5383  0.7938
  360MOL0     C49582  -0.180   8.931  11.394  1.3327 -0.2068  0.6863
  360MOL0     C49583  -0.318   8.943  11.319 -1.1465  0.1377 -0.0630
  360MOL0     C49584  -0.432   8.933  11.417 -0.1139  0.1583  0.7524
  360MOL0     C49585  -0.566   8.987  11.359  0.2087  0.5781 -0.2867
  360MOL0     C49586  -0.663   9.019  11.483 -0.8497 -0.2325 -0.2758
  360MOL0    Cl49587  -0.708   8.862  11.559  0.2954  0.1050  0.1993
  360MOL0     C49588   0.527   9.041  11.330 -0.1708 -0.8113 -0.6857
  360MOL0     C49589   0.639   9.044  11.241 -0.1177 -0.0730 -0.1927
  360MOL0     O49590   0.859   9.263  11.137 -0.5951  0.2233 -0.4197
  360MOL0     C49591   1.055   9.222  10.946 -0.5148  0.0147 -0.6751
  360MOL0     C49592   1.147   9.204  10.842 -0.2556  0.4456 -0.5929
  360MOL0     N49593   1.459   9.647  10.291 -0.6832  0.0018 -0.2294
  360MOL0     N49594   1.430   9.751  10.221  1.3142  0.3794 -0.5158
  360MOL0     C49595   1.809  10.101   9.250 -0.4198  0.6082  0.3421
  360MOL0     C49596   1.896  10.211   9.233  0.1488 -0.4531 -0.2708
  360MOL0     C49597   2.029  10.660   9.156 -0.1413  0.2617  0.4079
  360MOL0     C49598   2.052  10.761   9.066  0.2424 -0.3115 -0.2319
  360MOL0     C49599   2.141  10.872   9.080  0.2518  0.2339  0.4718
  360MOL0     C49600   2.204  10.885   9.202 -1.1503 -0.3039 -0.4477
  360MOL0     O49601   2.291  10.987   9.240  0.0827  0.7611 -0.4115
  360MOL0     C49602   2.344  11.076   9.140 -0.1952  0.4555 -0.4704
  360MOL0     C49603   2.450  11.173   9.189  0.6802 -0.1361 -0.4403
  360MOL0     C49604   2.582  11.109   9.191 -0.8517 -0.2749  0.4487
  360MOL0     C49605   2.696  11.199   9.252 -0.3588  0.1543  0.6973
  360MOL0     C49606   2.831  11.134   9.231  0.0770 -1.1839  0.4883
  360MOL0     C49607   2.936  11.087   9.234 -0.2265  0.4813  0.5116
  360MOL0     C49608   2.189  10.781   9.296 -0.0167 -1.5512 -0.1956
  360MOL0     C49609   2.093  10.676   9.277 -0.6769  0.5838 -0.6222
  360MOL0     C49610   2.059  10.598   9.401 -0.0937  0.6768  0.1447
  360MOL0     H49611   1.660  10.448   9.172 -0.8415 -0.0625 -0.5191
  360MOL0     H49612   1.520  10.241   9.169 -1.1523 -2.3906  2.7150
  360MOL0     H49613   1.439   9.898   9.198  0.5704 -0.5151 -0.8799
  360MOL0     H49614   1.432  10.078   9.179 -1.6448 -1.8136 -0.5129
  360MOL0     H49615   1.463  10.107   9.432 -1.6919  1.1579 -0.5903
  360MOL0     H49616   1.322  10.001   9.385 -0.3002 -1.6918  0.2858
  360MOL0     H49617   1.500   9.804   9.427 -1.1926 -1.6657  1.9872
  360MOL0     H49618   1.598   9.921   9.505 -0.0362 -0.6824  2.0489
  360MOL0     H49619   1.406   9.966   9.678 -2.5489  0.2892 -0.9691
  360MOL0     H49620   1.296   9.850   9.601 -0.3591  0.2142 -0.7523
  360MOL0     H49621   1.577   9.762   9.680  0.2462  0.5736  2.5926
  360MOL0     H49622   1.425   9.668   9.654  0.4413 -0.1178 -2.0491
  360MOL0     H49623   1.522   9.703   9.880  0.9303 -0.4554 -2.1520
  360MOL0     H49624   1.482   9.879   9.885 -0.9055  1.3236 -0.2630
  360MOL0     H49625   1.278   9.661   9.872  0.6631  1.0560 -0.1974
  360MOL0     H49626   1.240   9.819   9.818 -1.6464 -1.0340  0.4334
  360MOL0     H49627   1.306   9.905  10.045  0.3589 -0.0564 -0.6905
  360MOL0     H49628   1.164   9.799  10.030 -0.1973  2.7833 -0.7956
  360MOL0     H49629   1.260   9.538  10.052 -2.7638  4.3941 -1.5037
  360MOL0     H49630   1.512   9.387  10.310  0.1461 -1.9806 -0.3078
  360MOL0     H49631   1.404   9.332  10.176  2.8553  1.9813 -1.8099
  360MOL0     H49632   1.336   9.392  10.473 -0.6839  2.0113  0.3699
  360MOL0     H49633   1.216   9.416  10.344  1.5135  0.6400 -2.4476
  360MOL0     H49634   1.269   9.170  10.278 -0.3836 -2.4514  0.2494
  360MOL0     H49635   1.372   9.157  10.410 -2.2658 -0.6108  3.5054
  360MOL0     H49636   1.071   9.237  10.454 -0.9062 -2.4996 -0.9860
  360MOL0     H49637   1.120   9.076  10.469 -0.6154 -0.2023  0.6141
  360MOL0     H49638   0.931   9.176  10.590  2.2266  3.8457 -1.9272
  360MOL0     H49639   0.675   9.097  10.799 -1.0453  1.2661 -1.0053
  360MOL0     H49640   0.710   9.194  10.652 -1.1000  1.1328 -0.1554
  360MOL0     H49641   0.674   9.270  10.809 -2.3336 -1.0590  1.8713
  360MOL0     H49642   0.489   9.198  10.974 -1.7375  1.4440  0.8825
  360MOL0     H49643   0.294   9.160  11.113  1.1026 -1.1821 -1.2797
  360MOL0     H49644   0.137   9.167  11.296  1.2393  0.0232 -0.6346
  360MOL0     H49645   0.143   9.022  11.198 -1.2659  1.6734 -0.8390
  360MOL0     H49646   0.088   8.883  11.395  1.1910 -0.5494  0.8060
  360MOL0     H49647   0.057   9.029  11.481  2.0297 -1.2737  0.2929
  360MOL0     H49648  -0.052   8.915  11.220 -0.9447 -1.4356  1.1896
  360MOL0     H49649  -0.098   9.077  11.263 -0.2156  0.1696  2.5791
  360MOL0     H49650  -0.183   9.005  11.475 -1.2757  0.8214 -0.2387
  360MOL0     H49651  -0.146   8.833  11.430  0.1211 -1.1593 -0.6440
  360MOL0     H49652  -0.320   9.034  11.259 -3.5448  0.4818  0.4659
  360MOL0     H49653  -0.329   8.862  11.246  1.6452  1.1520 -1.7888
  360MOL0     H49654  -0.414   8.997  11.503 -0.1556  0.3384  0.6270
  360MOL0     H49655  -0.435   8.828  11.450 -1.0797 -0.0506  0.0633
  360MOL0     H49656  -0.618   8.900  11.316 -0.6449  0.1879  1.4578
  360MOL0     H49657  -0.549   9.062  11.282  3.2296  1.1488  0.8268
  360MOL0     H49658  -0.760   9.062  11.453 -0.5307  1.9737  1.5616
  360MOL0     H49659  -0.613   9.084  11.555 -1.3183  0.4509 -0.5455
  360MOL0     H49660   0.540   8.999  11.429 -0.0756 -2.3245 -1.3084
  360MOL0     H49661   0.742   9.017  11.260  0.0984  1.5661  1.1595
  360MOL0     H49662   1.093   9.237  11.047 -1.4683 -2.4587  0.1266
  360MOL0     H49663   1.252   9.200  10.865 -0.7154 -0.0870  1.6755
  360MOL0     H49664   1.841   9.999   9.270 -2.9817 -0.0030  1.7235
  360MOL0     H49665   2.002  10.192   9.247 -0.5637 -2.3602  4.6954
  360MOL0     H49666   2.005  10.771   8.968  1.2280  2.0647 -0.5110
  360MOL0     H49667   2.160  10.957   9.016 -1.2578  2.3925  2.7080
  360MOL0     H49668   2.385  11.014   9.059  1.7516 -1.4544  1.8100
  360MOL0     H49669   2.259  11.133   9.102 -0.8898 -2.0030 -2.9837
  360MOL0     H49670   2.423  11.211   9.287  1.2271 -1.2584  0.1609
  360MOL0     H49671   2.462  11.258   9.121  1.5936 -0.2886 -0.4835
  360MOL0     H49672   2.572  11.020   9.254  0.5186  0.2160  1.4116
  360MOL0     H49673   2.602  11.084   9.087 -3.5229 -1.2578  0.1012
  360MOL0     H49674   2.689  11.209   9.360 -0.4051  2.5934  0.5378
  360MOL0     H49675   2.705  11.305   9.224  1.6402 -0.1517  0.0125
  360MOL0     H49676   3.016  11.015   9.236 -0.3072  0.3470 -0.6022
  360MOL0     H49677   2.244  10.801   9.388  1.6035  2.5214 -1.8016
  360MOL0     H49678   1.949  10.597   9.402 -0.2092 -2.4631 -1.6912
  360MOL0     H49679   2.100  10.497   9.397 -1.5246 -0.0356  1.7897
  360MOL0     H49680   2.098  10.643   9.493  0.7559  2.9442 -1.2382
  361MOL0     O49681   5.528   0.546   9.963  0.2002 -0.3891  0.0254
  361MOL0     C49682   5.454   0.470  10.025 -1.0075  0.4743 -0.8548
  361MOL0     O49683   5.337   0.418   9.979  0.0545 -0.2079  0.7105
  361MOL0     C49684   5.270   0.492   9.885  0.6901  1.0116  0.7014
  361MOL0     C49685   5.193   0.423   9.790 -0.2611 -0.0966 -1.0399
  361MOL0     C49686   5.124   0.501   9.693 -0.5783 -0.2730 -0.0468
  361MOL0     C49687   5.120   0.641   9.695 -0.1096 -0.0566 -0.4335
  361MOL0     O49688   5.038   0.709   9.605  0.4206 -0.4252 -0.1323
  361MOL0     C49689   5.076   0.844   9.572  0.5169  0.4163 -0.2229
  361MOL0     C49690   4.957   0.896   9.499  0.8522  0.1847 -0.1887
  361MOL0     C49691   4.984   1.032   9.437 -0.0639  0.4174  0.0131
  361MOL0     C49692   4.856   1.088   9.375  0.1040 -0.0120 -0.2146
  361MOL0     C49693   4.779   1.186   9.454  0.4866 -0.9246 -0.4619
  361MOL0     C49694   4.647   1.240   9.391  0.4290  0.2174  0.5632
  361MOL0     C49695   4.631   1.392   9.364  0.2140 -0.3240  0.0953
  361MOL0     C49696   4.511   1.429   9.275 -0.0443  0.4372 -0.1184
  361MOL0     N49697   4.377   1.401   9.335 -0.4303  0.0149  0.4360
  361MOL0     C49698   4.263   1.405   9.260 -0.0232  0.6565  0.5013
  361MOL0     C49699   4.155   1.366   9.337 -0.1542  0.1923 -0.6992
  361MOL0     C49700   4.006   1.366   9.304  0.4876  0.2210  0.5063
  361MOL0     C49701   3.967   1.447   9.182 -0.2563  0.2294 -1.4245
  361MOL0     C49702   3.819   1.422   9.157 -0.4467 -0.2380  0.1293
  361MOL0     C49703   3.767   1.507   9.046  0.0310  0.1123 -0.0046
  361MOL0     O49704   3.634   1.462   9.012 -0.5434 -0.0962  0.1340
  361MOL0     C49705   3.529   1.523   9.061 -0.0582 -0.7627 -0.4780
  361MOL0     C49706   3.445   1.456   9.150  0.6266 -0.2557 -0.6641
  361MOL0     C49707   3.334   1.514   9.202  1.4368 -0.9665  0.9540
  361MOL0     C49708   3.241   1.441   9.285 -0.5375  0.3644  0.4505
  361MOL0     C49709   3.303   1.650   9.162 -0.5713  0.7415  0.1206
  361MOL0     C49710   3.180   1.722   9.201  0.8346 -0.3351  0.1388
  361MOL0     O49711   3.162   1.773   9.329 -0.0135  0.6884  0.3776
  361MOL0     C49712   3.029   1.794   9.362 -0.9753  0.8538 -0.0279
  361MOL0     C49713   2.970   1.901   9.294 -0.9691  0.0282  0.1215
  361MOL0     C49714   2.838   1.932   9.333  0.8708 -0.5387 -0.2890
  361MOL0     C49715   2.774   1.851   9.425 -0.1646 -0.8099  0.8717
  361MOL0     O49716   2.640   1.868   9.455  0.1835 -0.0321 -0.5258
  361MOL0     C49717   2.551   1.928   9.363  0.9494  0.0759 -0.3204
  361MOL0     C49718   2.536   1.838   9.237 -0.1712 -0.7423  0.4576
  361MOL0     C49719   2.413   1.872   9.145 -0.2610 -0.2646  0.1137
  361MOL0     C49720   2.407   2.019   9.100 -0.2562  0.8374  0.7887
  361MOL0     C49721   2.280   2.043   9.015 -0.7078  0.0919  0.0547
  361MOL0     C49722   2.321   2.004   8.874  0.0579  0.3012 -0.6270
  361MOL0     C49723   2.196   2.006   8.789 -0.1775 -1.1373  0.7011
  361MOL0     C49724   2.211   1.936   8.656  0.9109  0.6849  0.1207
  361MOL0    Cl49725   2.355   1.975   8.553 -0.4004  0.3578  0.3674
  361MOL0     C49726   2.828   1.731   9.478 -0.3068  0.6810  0.0734
  361MOL0     C49727   2.964   1.699   9.440 -0.0506  0.3012 -0.6920
  361MOL0     O49728   3.104   1.730   9.103  0.2206  0.9147  0.3150
  361MOL0     C49729   3.394   1.711   9.080 -0.2000 -0.5236  0.6375
  361MOL0     C49730   3.501   1.654   9.027  0.1370 -0.9711  0.0209
  361MOL0     N49731   4.205   1.349   9.459 -0.1432  0.3548 -0.7789
  361MOL0     N49732   4.335   1.362   9.457 -0.3640  0.7233  0.8909
  361MOL0     C49733   5.194   0.702   9.791 -0.0811 -0.4299  0.2965
  361MOL0     C49734   5.264   0.627   9.884 -0.6787 -0.2409 -0.3545
  361MOL0     C49735   5.496   0.434  10.169  1.4624  0.0952 -1.6455
  361MOL0     C49736   5.624   0.402  10.196 -0.6614  0.4759  0.2226
  361MOL0     C49737   5.665   0.364  10.320  0.1624  0.4476  0.5995
  361MOL0     C49738   5.579   0.371  10.432  0.0240  0.0870  0.0994
  361MOL0     O49739   5.623   0.336  10.562 -0.4877  0.3945  0.1551
  361MOL0     C49740   5.580   0.415  10.671 -0.2573  0.0646  0.0895
  361MOL0     C49741   5.679   0.399  10.776  0.9136 -0.1641 -0.4464
  361MOL0     C49742   5.689   0.262  10.834 -0.2145 -0.1834 -0.6946
  361MOL0     C49743   5.737   0.255  10.977  0.9757 -0.5632  0.1142
  361MOL0     C49744   5.864   0.326  11.004 -0.3355  0.4376  0.6887
  361MOL0     C49745   5.967   0.376  11.042  0.9094  0.2115  0.4700
  361MOL0     C49746   5.450   0.411  10.412 -0.0593  0.4603 -0.4219
  361MOL0     C49747   5.408   0.448  10.286  0.0609  0.2259 -0.0286
  361MOL0     C49748   5.271   0.502  10.280  0.5388 -0.5003 -0.2286
  361MOL0     H49749   5.192   0.314   9.798 -0.4656  0.0346  3.5108
  361MOL0     H49750   5.057   0.450   9.624 -0.3933  1.3480 -1.5059
  361MOL0     H49751   5.161   0.841   9.503  1.1602 -2.2713  0.5628
  361MOL0     H49752   5.098   0.911   9.656  1.9513 -1.2235  0.7632
  361MOL0     H49753   4.948   0.824   9.417 -3.5513  0.4828 -0.2433
  361MOL0     H49754   4.860   0.894   9.551  0.5816 -0.4204 -0.6919
  361MOL0     H49755   5.027   1.098   9.512  0.4642 -1.0612  1.0504
  361MOL0     H49756   5.067   1.019   9.366 -0.8420  3.6760 -1.6808
  361MOL0     H49757   4.894   1.127   9.280  1.4080 -0.7260 -0.0163
  361MOL0     H49758   4.792   1.002   9.354  3.5429 -2.8547  0.0110
  361MOL0     H49759   4.849   1.267   9.476 -1.2556 -0.0758  2.6717
  361MOL0     H49760   4.763   1.144   9.554  0.6699  0.1499  0.0357
  361MOL0     H49761   4.629   1.188   9.296  2.6203  0.2543  0.0755
  361MOL0     H49762   4.561   1.212   9.452  1.4393  0.9787  2.4041
  361MOL0     H49763   4.722   1.417   9.308  0.1012 -3.1381 -1.5261
  361MOL0     H49764   4.627   1.447   9.459 -2.8902 -0.2645  0.0146
  361MOL0     H49765   4.517   1.535   9.249  0.9991  0.3514 -0.2333
  361MOL0     H49766   4.527   1.371   9.184  0.5686 -0.5137  0.5864
  361MOL0     H49767   4.253   1.424   9.153  0.4208  0.9348  0.5081
  361MOL0     H49768   3.942   1.387   9.390  1.5699 -1.7566  1.8764
  361MOL0     H49769   3.969   1.266   9.283 -3.1354  1.1176  1.9265
  361MOL0     H49770   3.985   1.553   9.203  2.2592 -0.6091  1.0954
  361MOL0     H49771   4.031   1.413   9.100  1.4524 -0.9770  0.3361
  361MOL0     H49772   3.795   1.318   9.133  1.6338 -0.6548 -0.3322
  361MOL0     H49773   3.767   1.449   9.249 -1.6755  1.4502 -1.0159
  361MOL0     H49774   3.778   1.615   9.059  2.7597  0.3868 -3.2398
  361MOL0     H49775   3.836   1.497   8.961 -1.7095 -1.0381 -1.3511
  361MOL0     H49776   3.471   1.359   9.191  0.3129  0.5695  1.6140
  361MOL0     H49777   3.234   1.338   9.248  0.0912  0.0860  1.0694
  361MOL0     H49778   3.139   1.479   9.288 -1.0412 -0.8007 -0.7404
  361MOL0     H49779   3.277   1.446   9.388 -0.5715  1.1735  0.4292
  361MOL0     H49780   3.030   1.974   9.241 -1.2766  1.1948  1.3384
  361MOL0     H49781   2.787   2.019   9.294 -0.2317 -1.7369 -1.6682
  361MOL0     H49782   2.459   1.931   9.422  1.6742  1.5378  0.7918
  361MOL0     H49783   2.578   2.033   9.348  2.8657 -0.3095  0.1709
  361MOL0     H49784   2.626   1.854   9.177 -0.1392 -1.4246  0.3160
  361MOL0     H49785   2.536   1.733   9.266 -0.9489 -0.6452  0.8257
  361MOL0     H49786   2.326   1.866   9.211  1.9615  0.3268  3.3475
  361MOL0     H49787   2.408   1.801   9.062  1.1476 -3.1900  2.3021
  361MOL0     H49788   2.501   2.060   9.063 -0.1067 -0.2481 -0.0828
  361MOL0     H49789   2.393   2.073   9.194  1.0500  1.4786  0.6316
  361MOL0     H49790   2.202   1.972   9.042  1.0281 -1.6411  0.8043
  361MOL0     H49791   2.243   2.145   9.023  0.3036  0.5048 -0.3309
  361MOL0     H49792   2.363   1.903   8.867  1.8220  0.7658  1.7356
  361MOL0     H49793   2.395   2.081   8.848 -2.4450  2.9262 -0.4156
  361MOL0     H49794   2.168   2.112   8.776  1.7017 -0.4430  1.9480
  361MOL0     H49795   2.105   1.962   8.830 -2.5949  1.1609 -1.7684
  361MOL0     H49796   2.118   1.938   8.599  0.5328 -0.4230  0.6557
  361MOL0     H49797   2.223   1.831   8.686  0.9412  0.9747  1.1606
  361MOL0     H49798   2.779   1.655   9.538  2.6677 -1.8482 -0.4188
  361MOL0     H49799   2.996   1.602   9.477 -1.2125 -0.5857 -1.9104
  361MOL0     H49800   3.388   1.820   9.082 -1.6631 -0.5738  0.1999
  361MOL0     H49801   3.571   1.709   8.966 -0.7895  0.6521  0.3595
  361MOL0     H49802   5.190   0.809   9.812 -0.7469  0.0475 -1.9211
  361MOL0     H49803   5.290   0.689   9.970 -1.9754  2.8703 -2.0366
  361MOL0     H49804   5.694   0.390  10.114 -2.8781  0.6075 -1.7867
  361MOL0     H49805   5.768   0.329  10.329  0.7987  1.2548 -2.4565
  361MOL0     H49806   5.573   0.520  10.641  1.7054  0.7791  1.8912
  361MOL0     H49807   5.484   0.384  10.715 -0.7151 -0.6335 -1.3355
  361MOL0     H49808   5.684   0.481  10.848  3.2216 -0.1891 -0.4995
  361MOL0     H49809   5.780   0.412  10.734  1.7655 -3.2041  0.3826
  361MOL0     H49810   5.592   0.211  10.833 -1.6260  2.3095 -1.3698
  361MOL0     H49811   5.755   0.199  10.774  2.6655  2.5740 -0.7035
  361MOL0     H49812   5.758   0.148  10.986 -0.1538 -0.7664  0.6436
  361MOL0     H49813   5.649   0.290  11.033  1.2028 -1.4398  1.0624
  361MOL0     H49814   6.061   0.416  11.072  1.0713 -0.1987  0.5241
  361MOL0     H49815   5.373   0.419  10.488 -5.8292 -3.7771 -4.8684
  361MOL0     H49816   5.201   0.420  10.260 -1.8832  0.3539  3.5221
  361MOL0     H49817   5.247   0.555  10.374  0.9434 -1.1863  0.2706
  361MOL0     H49818   5.270   0.576  10.199  2.0504  0.5933  0.6858
  362MOL0     O49819   4.366   4.132   1.012 -0.4063  0.5408  0.9618
  362MOL0     C49820   4.415   4.020   0.985  0.4068 -0.4055 -0.1129
  362MOL0     O49821   4.372   3.909   1.035  0.4882  0.4756 -0.3420
  362MOL0     C49822   4.244   3.902   1.089  0.2248 -0.3706  0.2056
  362MOL0     C49823   4.153   3.812   1.028  0.1722  0.2372 -0.0437
  362MOL0     C49824   4.014   3.810   1.063  0.2578 -0.4961  0.6092
  362MOL0     C49825   3.977   3.899   1.166 -0.0265  0.1169 -0.6125
  362MOL0     O49826   3.846   3.916   1.216 -0.1355  0.0803  0.0972
  362MOL0     C49827   3.740   3.873   1.129 -0.3158  0.7333 -0.6151
  362MOL0     C49828   3.634   3.791   1.206  0.7448  0.2616  0.1017
  362MOL0     C49829   3.579   3.856   1.334  1.0005 -0.2866  0.3041
  362MOL0     C49830   3.448   3.799   1.380 -0.6871  0.7111  0.5980
  362MOL0     C49831   3.422   3.863   1.519  0.2066  0.9569  0.3965
  362MOL0     C49832   3.300   3.795   1.574  0.3253 -0.1274  0.3420
  362MOL0     C49833   3.173   3.815   1.506  0.5581  0.7696  1.1095
  362MOL0     C49834   3.065   3.758   1.578  0.4490 -0.8797  0.0421
  362MOL0     N49835   3.016   3.841   1.690  0.5565 -1.5208  0.0258
  362MOL0     C49836   2.952   3.779   1.797  0.5792  0.6821  0.0560
  362MOL0     C49837   2.892   3.879   1.864 -0.2598  0.5504 -1.4689
  362MOL0     C49838   2.797   3.878   1.982 -0.2366  0.2292  0.4777
  362MOL0     C49839   2.863   3.805   2.108 -0.7722 -0.5874 -1.2171
  362MOL0     C49840   2.757   3.793   2.219 -0.4883  0.7811 -0.2327
  362MOL0     C49841   2.813   3.793   2.362 -0.0418  0.3049 -0.1497
  362MOL0     O49842   2.700   3.800   2.453 -0.6116  0.6464  0.7244
  362MOL0     C49843   2.727   3.816   2.586 -1.2306 -0.7214 -0.2653
  362MOL0     C49844   2.645   3.759   2.675  0.6912 -0.0950  0.7023
  362MOL0     C49845   2.652   3.767   2.812 -0.3745  0.7952  1.4460
  362MOL0     C49846   2.543   3.710   2.889 -0.1998 -0.7838  0.6851
  362MOL0     C49847   2.766   3.833   2.869 -0.8257  0.1033  0.9076
  362MOL0     C49848   2.804   3.857   3.008  0.4627  0.2454  0.1002
  362MOL0     O49849   2.699   3.884   3.088 -0.1391 -0.6511 -0.1813
  362MOL0     C49850   2.717   3.881   3.225 -0.5380 -0.1962 -1.1944
  362MOL0     C49851   2.670   3.985   3.303 -0.3074 -0.0575 -0.5893
  362MOL0     C49852   2.690   3.993   3.445  0.4788  0.5626  0.4591
  362MOL0     C49853   2.765   3.890   3.506  0.1982 -0.9423  0.7039
  362MOL0     O49854   2.802   3.905   3.640 -0.6673 -0.0421  0.6937
  362MOL0     C49855   2.745   4.014   3.711  0.5038 -0.1974  0.2512
  362MOL0     C49856   2.815   4.015   3.851  1.6363  0.6556 -0.2471
  362MOL0     C49857   2.791   4.152   3.917  0.0905  0.8962  0.0644
  362MOL0     C49858   2.853   4.129   4.057 -0.1058 -0.3132 -0.5585
  362MOL0     C49859   2.814   4.231   4.170 -0.3960  0.4884 -1.0826
  362MOL0     C49860   2.849   4.194   4.315  0.8935 -0.0852 -0.7615
  362MOL0     C49861   2.997   4.194   4.338 -0.7098 -0.0027  0.3910
  362MOL0     C49862   3.037   4.114   4.465 -0.4197 -0.9416  0.0448
  362MOL0    Cl49863   2.987   4.195   4.619 -0.1055  0.2341 -0.5110
  362MOL0     C49864   2.810   3.785   3.422 -0.7501  0.4504 -0.5467
  362MOL0     C49865   2.790   3.779   3.288  0.0651  0.2171  0.0679
  362MOL0     O49866   2.924   3.832   3.048 -0.6476 -0.0952  0.0626
  362MOL0     C49867   2.868   3.881   2.777 -0.0670  0.0981 -0.4240
  362MOL0     C49868   2.839   3.879   2.639  0.7724  0.2886  0.2777
  362MOL0     N49869   2.923   4.000   1.805 -0.3281 -0.2147 -0.5875
  362MOL0     N49870   2.997   3.978   1.699  0.7101 -0.2477  0.4266
  362MOL0     C49871   4.072   3.984   1.228 -0.3435 -0.5176  0.1442
  362MOL0     C49872   4.199   3.993   1.186 -0.8624  0.4169 -0.4910
  362MOL0     C49873   4.499   4.016   0.868 -0.6126 -0.3217  1.0483
  362MOL0     C49874   4.495   4.123   0.772  0.1579 -0.4101  0.1633
  362MOL0     C49875   4.581   4.129   0.656  0.1550  0.5947  0.0057
  362MOL0     C49876   4.670   4.022   0.632 -0.5957  0.7540  0.8581
  362MOL0     O49877   4.755   4.004   0.519  0.3035  0.2509 -0.0667
  362MOL0     C49878   4.779   4.117   0.438  0.3258 -0.4800  0.0298
  362MOL0     C49879   4.863   4.051   0.326 -0.8690  1.0869 -0.2234
  362MOL0     C49880   4.904   4.148   0.215 -1.3023  0.3000 -0.0634
  362MOL0     C49881   5.016   4.245   0.246 -0.0180 -0.5769 -0.1271
  362MOL0     C49882   5.028   4.350   0.142  0.1398 -0.1974  0.0901
  362MOL0     C49883   5.042   4.415   0.045  0.9703 -0.7275  0.0314
  362MOL0     C49884   4.684   3.917   0.726  0.4362 -0.1188  0.6388
  362MOL0     C49885   4.597   3.917   0.839  0.0859  0.2931 -0.2995
  362MOL0     C49886   4.629   3.809   0.934 -0.0216  0.0624 -0.3095
  362MOL0     H49887   4.173   3.744   0.947 -1.8270 -0.5893  0.1083
  362MOL0     H49888   3.940   3.756   1.004 -1.7129  2.5403  0.0615
  362MOL0     H49889   3.768   3.824   1.035  3.7474 -1.0281  1.2846
  362MOL0     H49890   3.678   3.956   1.094 -1.0192  0.6664  0.4169
  362MOL0     H49891   3.553   3.790   1.132  0.9054  5.4795 -0.5286
  362MOL0     H49892   3.665   3.689   1.227 -1.0876 -0.3253  0.1248
  362MOL0     H49893   3.650   3.839   1.415  0.4415 -2.1509  0.4467
  362MOL0     H49894   3.572   3.965   1.322  2.0340 -0.1123  1.1328
  362MOL0     H49895   3.369   3.814   1.306  0.2590 -2.4727 -1.2310
  362MOL0     H49896   3.456   3.690   1.380  0.1396  0.7325  2.0155
  362MOL0     H49897   3.435   3.972   1.518 -0.0953  1.0146 -2.0045
  362MOL0     H49898   3.503   3.832   1.586 -1.9116 -0.7871  2.3132
  362MOL0     H49899   3.323   3.688   1.586  0.2761 -0.0885  0.7994
  362MOL0     H49900   3.287   3.840   1.673 -0.6879 -1.6179  0.9283
  362MOL0     H49901   3.175   3.762   1.410 -2.1226 -1.6743  2.2628
  362MOL0     H49902   3.153   3.921   1.488 -1.0072  0.4252  0.6662
  362MOL0     H49903   2.983   3.749   1.506  0.7351 -0.8937 -0.2883
  362MOL0     H49904   3.089   3.657   1.613 -2.3745 -0.2472  4.4785
  362MOL0     H49905   2.945   3.674   1.822 -0.4847  0.1518 -2.1466
  362MOL0     H49906   2.700   3.830   1.963 -0.0119  0.0425 -0.2033
  362MOL0     H49907   2.782   3.980   2.018  0.4206  1.7498 -3.2195
  362MOL0     H49908   2.877   3.704   2.068 -1.4730 -1.5761  0.9076
  362MOL0     H49909   2.946   3.863   2.147 -1.1569 -1.7143  1.4733
  362MOL0     H49910   2.688   3.878   2.210 -0.3327  0.8818 -0.5017
  362MOL0     H49911   2.696   3.703   2.205 -0.7919  1.1733 -1.5688
  362MOL0     H49912   2.883   3.712   2.382  1.3630  1.7033  0.8115
  362MOL0     H49913   2.885   3.875   2.358 -0.3072  0.5159 -0.8859
  362MOL0     H49914   2.567   3.705   2.622  1.6331 -2.6127  1.7077
  362MOL0     H49915   2.445   3.701   2.840  0.3877  0.7480 -0.8577
  362MOL0     H49916   2.520   3.768   2.979  4.1148 -1.2015  2.2917
  362MOL0     H49917   2.576   3.613   2.928  2.3342  0.2726  1.3398
  362MOL0     H49918   2.622   4.065   3.249 -1.1717  2.4132  3.4584
  362MOL0     H49919   2.633   4.068   3.499 -2.0453 -2.6696  2.6324
  362MOL0     H49920   2.766   4.099   3.645 -1.1350 -0.8536 -1.1846
  362MOL0     H49921   2.639   3.992   3.729  0.5439 -3.8809 -2.7413
  362MOL0     H49922   2.774   3.933   3.911  0.8022  1.5388  0.4241
  362MOL0     H49923   2.922   4.005   3.834  1.8259  0.2871  1.0593
  362MOL0     H49924   2.687   4.185   3.908  0.5775  2.7582  0.8779
  362MOL0     H49925   2.847   4.231   3.868 -0.1201  0.9080 -0.1613
  362MOL0     H49926   2.961   4.133   4.040  0.0625 -1.2736  0.2110
  362MOL0     H49927   2.840   4.031   4.104  1.5339  0.1050  0.8722
  362MOL0     H49928   2.849   4.329   4.135 -0.7959  0.2638 -2.1503
  362MOL0     H49929   2.705   4.238   4.165 -0.4468 -0.5117 -1.8156
  362MOL0     H49930   2.805   4.096   4.338  0.8445  0.0856 -0.1117
  362MOL0     H49931   2.810   4.270   4.383 -1.7178 -1.6845 -0.3017
  362MOL0     H49932   3.024   4.299   4.341 -1.0307  0.0598  1.4502
  362MOL0     H49933   3.052   4.141   4.259 -0.9212 -1.1032  0.9540
  362MOL0     H49934   3.144   4.102   4.478 -0.7217 -0.3893  5.0015
  362MOL0     H49935   2.997   4.012   4.467 -1.1748 -0.7068 -1.6229
  362MOL0     H49936   2.867   3.707   3.471 -0.7864  1.1873  0.7036
  362MOL0     H49937   2.826   3.701   3.222 -0.7240  2.7293 -3.6618
  362MOL0     H49938   2.960   3.924   2.814 -0.6872  0.3320  0.9181
  362MOL0     H49939   2.893   3.944   2.571 -2.1077 -0.6125 -3.1826
  362MOL0     H49940   4.042   4.061   1.298 -0.4621 -0.5980  0.1838
  362MOL0     H49941   4.274   4.059   1.229 -1.7940 -0.2788  2.3982
  362MOL0     H49942   4.422   4.202   0.788  0.3092 -0.4436  1.0532
  362MOL0     H49943   4.557   4.220   0.602 -3.0643  1.2429  2.2200
  362MOL0     H49944   4.691   4.163   0.390 -1.4422 -2.3979  1.2587
  362MOL0     H49945   4.835   4.188   0.500  0.0347  0.0098 -0.2621
  362MOL0     H49946   4.818   3.965   0.277  2.5672  0.6871 -3.1342
  362MOL0     H49947   4.948   3.996   0.367 -1.4390  0.1966 -0.2131
  362MOL0     H49948   4.925   4.092   0.123 -0.7191 -1.8775  1.3033
  362MOL0     H49949   4.808   4.197   0.198 -2.8210 -2.2246  0.7171
  362MOL0     H49950   5.113   4.194   0.248  0.7719  0.7101 -2.3109
  362MOL0     H49951   4.989   4.307   0.333  4.4643  0.3250  0.9036
  362MOL0     H49952   5.063   4.490  -0.028 -0.9223  0.4281  0.6007
  362MOL0     H49953   4.747   3.829   0.718 -1.5352 -1.4239 -2.1231
  362MOL0     H49954   4.738   3.795   0.935  0.1376  0.7207 -2.4335
  362MOL0     H49955   4.596   3.826   1.037 -0.7908 -3.2337  0.1196
  362MOL0     H49956   4.585   3.713   0.905  0.2063 -0.2787  0.4457
  363MOL0     O49957   8.568   3.263   2.704  0.0404  0.4602 -0.3780
  363MOL0     C49958   8.661   3.179   2.718  0.2507 -0.3052 -0.3150
  363MOL0     O49959   8.709   3.139   2.838 -0.2989  0.2608 -0.5603
  363MOL0     C49960   8.634   3.174   2.952 -0.1688 -0.5484 -0.3132
  363MOL0     C49961   8.510   3.124   2.994  0.2223 -0.4480 -0.6902
  363MOL0     C49962   8.440   3.162   3.108  0.2097 -0.6627  0.4669
  363MOL0     C49963   8.505   3.257   3.194  0.1268  0.4430 -0.2587
  363MOL0     O49964   8.451   3.299   3.312 -0.5109 -0.6710 -0.8337
  363MOL0     C49965   8.384   3.208   3.403  0.6674 -0.6268 -0.4469
  363MOL0     C49966   8.368   3.268   3.550  0.1525  0.4884  0.0108
  363MOL0     C49967   8.371   3.156   3.654 -0.0000  0.2735 -0.4159
  363MOL0     C49968   8.283   3.038   3.620 -0.4116  0.2313 -0.4838
  363MOL0     C49969   8.277   2.947   3.746 -0.7631  0.6402  0.2206
  363MOL0     C49970   8.192   2.822   3.722 -0.4754  0.1755  0.3779
  363MOL0     C49971   8.215   2.732   3.837  0.8890  0.1337  0.0360
  363MOL0     C49972   8.127   2.612   3.850 -0.3850  0.8052 -0.2951
  363MOL0     N49973   8.136   2.534   3.980  0.4854  0.8553 -0.0796
  363MOL0     C49974   8.258   2.507   4.042 -0.0183  0.1359  0.1575
  363MOL0     C49975   8.210   2.474   4.169  0.4856 -0.1499  0.3618
  363MOL0     C49976   8.298   2.453   4.291 -0.0768 -0.1838  0.2402
  363MOL0     C49977   8.354   2.314   4.276 -0.5923  0.0479 -0.2861
  363MOL0     C49978   8.266   2.211   4.351 -0.2005  0.1017  0.5423
  363MOL0     C49979   8.303   2.057   4.362  0.3844 -0.3808 -0.0868
  363MOL0     O49980   8.402   2.013   4.260  0.5561 -0.1762  0.7871
  363MOL0     C49981   8.457   1.887   4.282 -0.1450 -0.4769  0.5161
  363MOL0     C49982   8.558   1.831   4.201  0.4606 -0.3996  0.3001
  363MOL0     C49983   8.641   1.726   4.245  0.0575 -0.2338  0.0501
  363MOL0     C49984   8.757   1.700   4.151  0.4848  0.0163  0.8730
  363MOL0     C49985   8.615   1.658   4.372  0.2151  0.2602  0.1864
  363MOL0     C49986   8.707   1.556   4.437  0.3834  1.3648  0.4181
  363MOL0     O49987   8.663   1.502   4.553 -0.7784 -0.7841 -0.2548
  363MOL0     C49988   8.742   1.413   4.610 -0.1689 -0.0405  0.4753
  363MOL0     C49989   8.713   1.274   4.613 -0.0878 -0.5684 -0.0669
  363MOL0     C49990   8.799   1.190   4.686  0.9356 -0.0478 -0.3062
  363MOL0     C49991   8.918   1.228   4.743 -1.3052 -0.0565  0.0378
  363MOL0     O49992   8.985   1.134   4.820 -0.8043  0.1490  0.2602
  363MOL0     C49993   9.095   1.176   4.909 -0.3538  0.0456 -0.2966
  363MOL0     C49994   9.033   1.181   5.047 -0.5929 -0.9608 -1.2098
  363MOL0     C49995   9.147   1.234   5.145 -0.0550 -0.3074 -1.3619
  363MOL0     C49996   9.099   1.235   5.293  0.3063 -0.8624  0.1566
  363MOL0     C49997   9.122   1.359   5.370 -0.3057 -0.4176 -0.1819
  363MOL0     C49998   9.273   1.380   5.390 -0.4516  0.2682  0.1913
  363MOL0     C49999   9.308   1.512   5.449  0.2826  0.1745  0.0156
  363MOL0     C50000   9.402   1.598   5.365  0.8451 -0.7294 -0.4947
  363MOL0    Cl50001   9.542   1.489   5.330 -0.3243 -0.0692  0.0743
  363MOL0     C50002   8.949   1.368   4.742 -0.5122 -0.5722  0.3229
  363MOL0     C50003   8.861   1.455   4.679  0.5876 -1.0143  0.8031
  363MOL0     O50004   8.817   1.530   4.386  0.5722 -0.5300  0.1830
  363MOL0     C50005   8.495   1.694   4.436  0.4577  1.0635  0.0251
  363MOL0     C50006   8.414   1.802   4.392  0.0417 -0.1510 -0.0027
  363MOL0     N50007   8.069   2.494   4.175 -0.2941 -0.5328  0.3039
  363MOL0     N50008   8.031   2.522   4.061  0.4509 -1.3923  0.2990
  363MOL0     C50009   8.622   3.320   3.155 -0.4306  0.0159  0.2791
  363MOL0     C50010   8.685   3.278   3.035 -0.1130 -0.5635 -0.3623
  363MOL0     C50011   8.720   3.125   2.587 -0.4323 -1.0236 -0.3723
  363MOL0     C50012   8.662   3.157   2.467  0.6601  0.5103  0.0729
  363MOL0     C50013   8.721   3.120   2.343  1.2141 -1.0569  1.0291
  363MOL0     C50014   8.842   3.054   2.341 -0.6568 -0.5538 -0.3209
  363MOL0     O50015   8.917   3.012   2.233  0.0444 -0.4469 -0.1101
  363MOL0     C50016   8.900   3.070   2.103 -0.5072 -0.4009 -0.4810
  363MOL0     C50017   9.038   3.082   2.040  0.0054 -0.7994 -0.0174
  363MOL0     C50018   9.115   2.950   2.024 -0.5820  0.3134 -1.2815
  363MOL0     C50019   9.038   2.850   1.934 -0.0095 -0.0305 -0.4233
  363MOL0     C50020   9.131   2.768   1.866 -0.0828  0.4508 -0.4324
  363MOL0     C50021   9.215   2.708   1.804 -0.4223 -0.2208  0.3156
  363MOL0     C50022   8.898   3.013   2.464 -0.2124 -0.3193  0.8660
  363MOL0     C50023   8.843   3.053   2.591  0.2822  0.5340  0.4421
  363MOL0     C50024   8.923   3.019   2.721 -0.0786  0.3462 -0.5435
  363MOL0     H50025   8.453   3.068   2.921  0.6700 -0.4118 -1.0708
  363MOL0     H50026   8.344   3.122   3.137 -0.5830 -1.0846 -2.4429
  363MOL0     H50027   8.436   3.111   3.401 -0.7849 -1.6398  2.9789
  363MOL0     H50028   8.285   3.198   3.359  1.4879 -0.0708 -2.5287
  363MOL0     H50029   8.455   3.331   3.568  1.7147 -1.4779 -0.2412
  363MOL0     H50030   8.282   3.332   3.567 -1.4032 -1.1827 -1.1071
  363MOL0     H50031   8.474   3.119   3.645  0.0890  0.5701 -0.6569
  363MOL0     H50032   8.362   3.197   3.755 -0.5372  3.5976 -1.6792
  363MOL0     H50033   8.186   3.081   3.596  0.5780  2.3680 -0.8571
  363MOL0     H50034   8.319   2.987   3.530  0.5633 -1.9203  1.0248
  363MOL0     H50035   8.244   3.002   3.834  1.2237  0.8362  0.9021
  363MOL0     H50036   8.382   2.922   3.766 -0.4101  1.1506 -0.8807
  363MOL0     H50037   8.089   2.856   3.708 -0.2806  0.0410 -1.6209
  363MOL0     H50038   8.227   2.767   3.635 -0.9087  1.2334 -0.4932
  363MOL0     H50039   8.209   2.791   3.929  0.8381 -2.3405  1.7236
  363MOL0     H50040   8.317   2.692   3.843  0.1912 -1.5524  2.1582
  363MOL0     H50041   8.025   2.650   3.840 -1.8211 -1.1625  4.1988
  363MOL0     H50042   8.135   2.541   3.767 -0.9291  0.6400 -0.2089
  363MOL0     H50043   8.362   2.497   4.012  1.0826  3.2208  2.4462
  363MOL0     H50044   8.231   2.459   4.378 -0.6189 -1.0563 -0.0990
  363MOL0     H50045   8.375   2.531   4.300 -0.7754  0.2926  3.1916
  363MOL0     H50046   8.366   2.275   4.174  2.0270 -1.9799  0.6893
  363MOL0     H50047   8.456   2.319   4.314 -0.5904  1.7526 -0.4451
  363MOL0     H50048   8.244   2.231   4.457 -1.0109  1.0082  0.2125
  363MOL0     H50049   8.170   2.221   4.300  0.6093  2.3660 -0.6463
  363MOL0     H50050   8.352   2.047   4.459 -2.1120  0.6327  1.3670
  363MOL0     H50051   8.204   2.011   4.354 -0.5902  1.3315  1.2540
  363MOL0     H50052   8.597   1.898   4.124 -0.4606  2.7768  2.3950
  363MOL0     H50053   8.856   1.705   4.197 -0.3364 -1.8412  3.0817
  363MOL0     H50054   8.763   1.766   4.064  0.5771  2.0268  2.3356
  363MOL0     H50055   8.743   1.596   4.119  0.8195 -0.0994  1.1023
  363MOL0     H50056   8.619   1.234   4.577  0.8386 -1.6580 -1.3588
  363MOL0     H50057   8.778   1.085   4.701  1.0174  0.0379  0.4671
  363MOL0     H50058   9.177   1.104   4.919 -2.2581 -1.9687  2.1768
  363MOL0     H50059   9.145   1.268   4.880 -1.2105  1.0372  1.2550
  363MOL0     H50060   8.951   1.253   5.041  2.0114  2.1092 -2.9070
  363MOL0     H50061   9.007   1.081   5.083  1.6752 -1.0440  0.5001
  363MOL0     H50062   9.179   1.335   5.119 -2.7250  0.9940  0.0144
  363MOL0     H50063   9.236   1.172   5.130 -1.6340 -2.5701 -2.0169
  363MOL0     H50064   9.142   1.150   5.346  0.1041  0.4392  2.5670
  363MOL0     H50065   8.990   1.227   5.298  0.0191  1.9291  0.2183
  363MOL0     H50066   9.094   1.442   5.304 -2.3530 -1.9014 -1.2960
  363MOL0     H50067   9.066   1.351   5.464  0.2788 -0.4204  0.1677
  363MOL0     H50068   9.325   1.357   5.296  0.8017 -0.7323  1.0968
  363MOL0     H50069   9.311   1.301   5.456 -2.1289  1.3084  2.5395
  363MOL0     H50070   9.358   1.487   5.542 -1.9135 -1.0663  0.9372
  363MOL0     H50071   9.217   1.562   5.485  0.4857  2.8687 -2.8208
  363MOL0     H50072   9.448   1.679   5.422  0.2666 -1.2391  0.7403
  363MOL0     H50073   9.343   1.641   5.284 -2.0360 -1.4607  1.0861
  363MOL0     H50074   9.038   1.403   4.794  1.8625 -3.2295 -1.6804
  363MOL0     H50075   8.880   1.561   4.664 -3.6565 -0.4489 -2.5305
  363MOL0     H50076   8.459   1.645   4.526 -1.0531  1.4625 -0.3441
  363MOL0     H50077   8.320   1.814   4.445  0.2984 -0.8447  0.6229
  363MOL0     H50078   8.656   3.390   3.231 -0.0828 -2.0177  2.0939
  363MOL0     H50079   8.781   3.321   3.009 -1.2353  2.7522  0.5747
  363MOL0     H50080   8.561   3.194   2.466 -1.4619 -4.0629 -5.2107
  363MOL0     H50081   8.680   3.159   2.251  1.1630  0.0881  1.5199
  363MOL0     H50082   8.826   3.013   2.046  1.3132 -1.2205 -2.1605
  363MOL0     H50083   8.852   3.167   2.119  0.1204 -0.3561  1.3722
  363MOL0     H50084   9.098   3.141   2.111  0.9014  0.2548 -1.5970
  363MOL0     H50085   9.033   3.136   1.945 -0.1446 -1.2101 -0.2438
  363MOL0     H50086   9.216   2.966   1.984  0.2312  1.0455  0.9180
  363MOL0     H50087   9.139   2.913   2.124 -0.1648  2.7516 -0.4226
  363MOL0     H50088   8.975   2.903   1.862 -0.6702 -3.2261 -2.3887
  363MOL0     H50089   8.967   2.794   1.995  0.5513 -1.2963 -0.9034
  363MOL0     H50090   9.292   2.658   1.749 -0.7128 -0.9975  0.6050
  363MOL0     H50091   8.995   2.965   2.456 -0.3470 -0.5331  0.4844
  363MOL0     H50092   9.014   2.960   2.703  1.0476  1.6394  0.6458
  363MOL0     H50093   8.945   3.111   2.776 -1.0934  1.6440 -2.2276
  363MOL0     H50094   8.862   2.956   2.787 -0.2571  1.1486  0.0673
  364MOL0     O50095   7.039   5.746   7.518 -0.1746 -0.5071  1.3246
  364MOL0     C50096   6.994   5.672   7.434  0.0265  0.2162  0.1565
  364MOL0     O50097   7.064   5.570   7.368 -0.8566  0.5264  0.9882
  364MOL0     C50098   7.200   5.583   7.373  0.0593  0.4131 -0.7889
  364MOL0     C50099   7.271   5.523   7.486  0.2318 -1.0246  0.1110
  364MOL0     C50100   7.412   5.537   7.494  0.0542 -0.6361 -0.5672
  364MOL0     C50101   7.489   5.613   7.401  0.1727 -0.3102 -0.0782
  364MOL0     O50102   7.622   5.624   7.426  0.0676 -0.2651 -0.4310
  364MOL0     C50103   7.708   5.651   7.314  0.0512 -0.3697 -0.2763
  364MOL0     C50104   7.836   5.564   7.337  0.4730 -0.4114 -0.2040
  364MOL0     C50105   7.952   5.660   7.385  0.6344  0.4464  0.8615
  364MOL0     C50106   8.019   5.723   7.260  0.6330  0.4061  0.1670
  364MOL0     C50107   8.100   5.843   7.295 -0.5035  0.0723  0.9724
  364MOL0     C50108   8.154   5.903   7.168 -0.3650  0.0365 -1.1532
  364MOL0     C50109   8.254   6.022   7.191  0.3208 -0.2651  0.0020
  364MOL0     C50110   8.353   6.010   7.302 -1.0938 -0.8550  0.1420
  364MOL0     N50111   8.469   5.916   7.266 -0.0194 -0.3692  0.7453
  364MOL0     C50112   8.593   5.933   7.320 -0.3111  0.4765  0.1117
  364MOL0     C50113   8.666   5.846   7.259  0.0897 -1.4006  0.3712
  364MOL0     C50114   8.817   5.840   7.267 -0.6035 -0.1852  0.4375
  364MOL0     C50115   8.867   5.737   7.367  0.3931 -0.7821  0.3865
  364MOL0     C50116   9.018   5.741   7.391 -0.1371  0.6861  0.1735
  364MOL0     C50117   9.065   5.631   7.486 -1.0954  0.9196 -0.3446
  364MOL0     O50118   8.972   5.619   7.599  0.3553  0.4018 -0.1985
  364MOL0     C50119   8.966   5.503   7.679 -0.5812  0.9023  0.4344
  364MOL0     C50120   9.075   5.412   7.688  0.3320  0.0836 -0.4409
  364MOL0     C50121   9.056   5.286   7.759  0.1195 -0.6770  0.3546
  364MOL0     C50122   9.177   5.198   7.766  0.0829  0.0910  0.4876
  364MOL0     C50123   8.926   5.251   7.814 -0.6205 -0.8429  0.1875
  364MOL0     C50124   8.887   5.125   7.888 -0.0067  0.5123 -0.6798
  364MOL0     O50125   8.760   5.081   7.870 -0.8240 -0.2944 -0.3882
  364MOL0     C50126   8.718   4.965   7.936 -0.8931 -0.0496  1.0402
  364MOL0     C50127   8.659   4.855   7.873  0.5652  1.0247  0.0129
  364MOL0     C50128   8.596   4.747   7.951 -0.1147  0.3822  0.3683
  364MOL0     C50129   8.600   4.747   8.085  0.5952  0.8704 -0.2397
  364MOL0     O50130   8.547   4.635   8.155 -0.2620  0.4499  0.4156
  364MOL0     C50131   8.543   4.638   8.296 -0.2809 -0.7415  0.5035
  364MOL0     C50132   8.465   4.519   8.333  0.2071 -0.3108  1.2277
  364MOL0     C50133   8.408   4.521   8.468  0.2313 -0.8528  0.4212
  364MOL0     C50134   8.366   4.379   8.507  0.0798 -0.7648  0.1460
  364MOL0     C50135   8.274   4.386   8.632 -0.1541 -0.2100 -0.9008
  364MOL0     C50136   8.118   4.383   8.604 -0.4746  0.2494 -0.1397
  364MOL0     C50137   8.056   4.393   8.746 -0.5542 -0.1980  0.3936
  364MOL0     C50138   7.910   4.349   8.740 -0.7303 -0.0587  0.4011
  364MOL0    Cl50139   7.885   4.180   8.675 -0.2910 -0.1381 -0.1347
  364MOL0     C50140   8.657   4.865   8.148  0.8791  0.2211 -0.1817
  364MOL0     C50141   8.717   4.972   8.075  0.5166 -0.2997 -0.3287
  364MOL0     O50142   8.964   5.069   7.967 -0.5349  0.0895  0.9299
  364MOL0     C50143   8.824   5.342   7.786 -0.0054 -0.6278 -0.3642
  364MOL0     C50144   8.841   5.472   7.734 -0.1224  0.9864 -0.6244
  364MOL0     N50145   8.600   5.769   7.166  0.0902 -0.5256 -0.1881
  364MOL0     N50146   8.471   5.819   7.170 -0.4217 -0.8364 -0.1020
  364MOL0     C50147   7.418   5.690   7.315 -0.2575 -0.4081  0.8468
  364MOL0     C50148   7.278   5.667   7.286 -0.2499  0.2234  0.0224
  364MOL0     C50149   6.847   5.699   7.404  0.4997 -0.0758  0.4650
  364MOL0     C50150   6.815   5.706   7.271 -0.8331 -0.5921  0.8619
  364MOL0     C50151   6.684   5.732   7.228  0.9089 -1.0098 -0.1833
  364MOL0     C50152   6.579   5.767   7.317 -0.6525 -0.0769  0.3100
  364MOL0     O50153   6.446   5.778   7.274  0.4733 -0.0403  0.6291
  364MOL0     C50154   6.335   5.765   7.361 -0.2054 -0.6667  1.2549
  364MOL0     C50155   6.221   5.865   7.315 -0.1779  0.8287 -0.4298
  364MOL0     C50156   6.284   6.009   7.315 -1.6178  0.3288  0.3043
  364MOL0     C50157   6.219   6.089   7.215  0.4864 -0.0161 -0.2413
  364MOL0     C50158   6.074   6.103   7.229 -0.6787 -0.6355  0.0697
  364MOL0     C50159   5.958   6.127   7.235  0.3096  0.2852  0.1347
  364MOL0     C50160   6.614   5.759   7.456 -0.2179  0.2975  0.4814
  364MOL0     C50161   6.746   5.731   7.501  0.2808 -0.0509 -0.2994
  364MOL0     C50162   6.776   5.745   7.650  0.2943 -0.0739  0.0881
  364MOL0     H50163   7.216   5.469   7.562 -1.2877  0.1454 -0.1297
  364MOL0     H50164   7.464   5.507   7.584 -0.4741 -0.5273 -0.2212
  364MOL0     H50165   7.728   5.758   7.302  2.7859 -0.8977 -1.0206
  364MOL0     H50166   7.653   5.604   7.232  0.0030 -2.4104  0.8472
  364MOL0     H50167   7.824   5.489   7.415 -0.6980  3.4193  3.6623
  364MOL0     H50168   7.859   5.520   7.239  2.8706  1.7940 -0.7483
  364MOL0     H50169   7.905   5.736   7.449 -0.1764 -1.1745  2.2842
  364MOL0     H50170   8.023   5.612   7.453  0.2723  0.1691  1.0449
  364MOL0     H50171   8.087   5.654   7.210 -2.2892 -2.1964 -0.4933
  364MOL0     H50172   7.936   5.750   7.194 -1.9408 -0.9402  2.6722
  364MOL0     H50173   8.179   5.810   7.364  2.0094  1.0348 -1.2697
  364MOL0     H50174   8.043   5.917   7.352  0.9505  0.2925  2.2281
  364MOL0     H50175   8.196   5.823   7.106 -0.9675 -2.9438  1.9905
  364MOL0     H50176   8.064   5.934   7.113 -0.5336  0.4560 -0.6400
  364MOL0     H50177   8.195   6.111   7.215 -0.4337 -0.9303  0.6636
  364MOL0     H50178   8.293   6.040   7.090 -1.3660 -0.0638 -0.6449
  364MOL0     H50179   8.393   6.108   7.327  1.6431 -1.6048 -0.8729
  364MOL0     H50180   8.297   5.983   7.392 -1.5443  2.3385  0.9367
  364MOL0     H50181   8.629   6.012   7.385 -2.1766  0.6079  1.0656
  364MOL0     H50182   8.846   5.940   7.300 -0.1499 -0.2975  0.3817
  364MOL0     H50183   8.852   5.817   7.166  1.5580 -1.1168  1.3422
  364MOL0     H50184   8.817   5.768   7.460 -0.7138 -0.1413 -0.4001
  364MOL0     H50185   8.850   5.634   7.334 -0.0219 -1.0917  1.4821
  364MOL0     H50186   9.054   5.739   7.288 -0.2420  0.9334  0.1306
  364MOL0     H50187   9.057   5.836   7.431 -1.5960  2.4529 -2.3309
  364MOL0     H50188   9.071   5.540   7.425  1.2791  0.2126  0.8087
  364MOL0     H50189   9.168   5.654   7.516  0.2675  0.3016 -4.0373
  364MOL0     H50190   9.167   5.421   7.631 -0.0345  0.4998 -0.9802
  364MOL0     H50191   9.263   5.261   7.794  1.1116 -0.5424 -1.1008
  364MOL0     H50192   9.210   5.151   7.673 -0.3204  1.0447 -0.1561
  364MOL0     H50193   9.169   5.123   7.845 -0.4769  0.9518  1.2777
  364MOL0     H50194   8.659   4.825   7.769 -1.9318  0.3667  0.1224
  364MOL0     H50195   8.555   4.655   7.910 -1.1377 -0.7397  3.6363
  364MOL0     H50196   8.644   4.625   8.334 -0.1352  3.9626  2.3742
  364MOL0     H50197   8.480   4.721   8.329  0.0055 -0.2993 -0.0460
  364MOL0     H50198   8.382   4.528   8.262  0.5948  2.8578  1.0082
  364MOL0     H50199   8.527   4.431   8.317 -0.5026 -0.5756 -0.1685
  364MOL0     H50200   8.313   4.576   8.469  0.7228  0.0393 -0.2047
  364MOL0     H50201   8.483   4.564   8.535  0.6399  0.6192 -0.8962
  364MOL0     H50202   8.453   4.313   8.509 -0.1413 -1.1155 -1.0837
  364MOL0     H50203   8.301   4.336   8.430  0.3259 -3.7462  1.4534
  364MOL0     H50204   8.317   4.307   8.695 -1.4716  0.3644  0.8077
  364MOL0     H50205   8.290   4.476   8.693  1.9248 -2.6935  2.6113
  364MOL0     H50206   8.107   4.286   8.554  1.1709 -0.7264  1.2520
  364MOL0     H50207   8.085   4.468   8.543 -1.3011  0.4856  0.6321
  364MOL0     H50208   8.074   4.483   8.806  1.6816 -0.9280  0.8822
  364MOL0     H50209   8.095   4.320   8.818  0.1604  1.6314  1.9583
  364MOL0     H50210   7.862   4.425   8.677  4.9084  1.7907 -2.3682
  364MOL0     H50211   7.868   4.359   8.841 -0.3647 -1.9078  0.7602
  364MOL0     H50212   8.666   4.856   8.256 -1.9521  1.6943  0.2580
  364MOL0     H50213   8.763   5.049   8.137  0.5294  1.0242 -1.9048
  364MOL0     H50214   8.725   5.327   7.828  0.0465  1.2580  0.5290
  364MOL0     H50215   8.759   5.541   7.718 -0.9801 -0.2850 -1.9774
  364MOL0     H50216   7.477   5.767   7.265  1.4672 -0.5031  2.6149
  364MOL0     H50217   7.214   5.715   7.214 -0.8319  0.7887  0.8943
  364MOL0     H50218   6.885   5.716   7.189 -1.4664  0.6050  0.4636
  364MOL0     H50219   6.645   5.724   7.127 -1.7351  0.1915  0.6421
  364MOL0     H50220   6.309   5.660   7.347 -1.1841 -0.3790  0.8054
  364MOL0     H50221   6.355   5.785   7.467  0.5536 -0.6230  1.1058
  364MOL0     H50222   6.143   5.858   7.391  1.6102  1.3707  1.5505
  364MOL0     H50223   6.182   5.831   7.218 -0.5430  1.7177 -0.6036
  364MOL0     H50224   6.267   6.049   7.416 -0.4136  2.1772 -0.1611
  364MOL0     H50225   6.391   6.009   7.292 -1.6504 -0.9268  0.0886
  364MOL0     H50226   6.251   6.051   7.117  0.5384  0.2446 -0.3268
  364MOL0     H50227   6.272   6.185   7.210  0.4122  0.2391  2.5216
  364MOL0     H50228   5.851   6.134   7.231  0.1378 -0.9237  1.7985
  364MOL0     H50229   6.539   5.772   7.533 -0.5698  2.3384 -0.1439
  364MOL0     H50230   6.854   5.674   7.680 -0.9241 -1.2069  0.6522
  364MOL0     H50231   6.818   5.845   7.667  0.6295 -0.0164 -0.9888
  364MOL0     H50232   6.686   5.735   7.711 -0.6039 -0.3603 -1.2301
  365MOL0     O50233  10.817   9.058   8.312 -0.3387 -0.0127 -0.4719
  365MOL0     C50234  10.849   9.032   8.196 -0.6079 -0.1905 -0.8782
  365MOL0     O50235  10.767   9.019   8.096  0.4425  0.4321  0.2675
  365MOL0     C50236  10.631   9.015   8.130 -1.0277 -0.4987  0.6569
  365MOL0     C50237  10.568   8.935   8.239  0.1128 -0.1815  0.0694
  365MOL0     C50238  10.431   8.922   8.246 -0.8980  0.1671 -1.0035
  365MOL0     C50239  10.345   8.988   8.157  0.1544 -0.9059  1.3434
  365MOL0     O50240  10.211   8.989   8.174  0.1083  0.2350 -0.2009
  365MOL0     C50241  10.150   8.856   8.181 -1.0729  0.4614  0.1208
  365MOL0     C50242  10.005   8.868   8.146 -1.2663  0.3228 -0.7773
  365MOL0     C50243   9.939   8.729   8.117 -0.3846  0.1154  0.7502
  365MOL0     C50244   9.820   8.759   8.026  0.1329 -0.2092  0.5191
  365MOL0     C50245   9.735   8.626   7.989 -1.6292 -0.0377  0.0430
  365MOL0     C50246   9.611   8.664   7.913  0.3585  0.2369  0.3291
  365MOL0     C50247   9.516   8.545   7.915  0.3787 -0.5999 -0.3665
  365MOL0     C50248   9.573   8.420   7.846 -0.5606  1.1875 -0.2513
  365MOL0     N50249   9.468   8.317   7.811 -0.2409  0.2539  0.8229
  365MOL0     C50250   9.378   8.259   7.895  0.2546  0.6969 -0.0896
  365MOL0     C50251   9.287   8.207   7.811 -0.6722 -0.6287 -0.0778
  365MOL0     C50252   9.142   8.164   7.848 -0.1313 -0.1334 -0.2253
  365MOL0     C50253   9.071   8.062   7.762  0.7495 -0.1244  0.6858
  365MOL0     C50254   9.152   7.934   7.748 -0.0656 -0.2577 -0.5709
  365MOL0     C50255   9.098   7.850   7.635 -0.4693 -0.5252 -0.1344
  365MOL0     O50256   8.964   7.805   7.672 -0.2874  0.6323  0.2863
  365MOL0     C50257   8.944   7.705   7.764  0.2874 -0.6324  0.2865
  365MOL0     C50258   9.031   7.599   7.787 -0.0526 -0.6682  0.4562
  365MOL0     C50259   8.989   7.489   7.864 -0.0114 -0.3406  0.1569
  365MOL0     C50260   9.088   7.373   7.880  0.1921  0.6387 -0.3875
  365MOL0     C50261   8.853   7.493   7.916 -0.3668  0.9576 -0.2730
  365MOL0     C50262   8.795   7.394   8.010  0.5701 -0.1308  0.4989
  365MOL0     O50263   8.677   7.433   8.073 -0.6190  0.4361 -0.1555
  365MOL0     C50264   8.654   7.369   8.193  0.7692  0.6678 -0.1986
  365MOL0     C50265   8.518   7.334   8.226  0.5217 -0.1049 -0.2370
  365MOL0     C50266   8.488   7.269   8.349  0.1893 -0.2507  1.0260
  365MOL0     C50267   8.590   7.224   8.441 -0.3627  0.5598 -0.6967
  365MOL0     O50268   8.563   7.185   8.572  0.2350  0.8201  0.1835
  365MOL0     C50269   8.426   7.195   8.625  0.0557  0.0392  0.7355
  365MOL0     C50270   8.431   7.136   8.767  0.5923 -0.3819 -0.8998
  365MOL0     C50271   8.290   7.131   8.832  0.1903  0.0634 -0.1516
  365MOL0     C50272   8.278   7.111   8.994 -0.7243 -0.3362  0.4475
  365MOL0     C50273   8.137   7.079   9.046 -0.1509 -0.4214  0.1803
  365MOL0     C50274   8.050   7.204   9.047 -0.1382  0.8738  0.4693
  365MOL0     C50275   7.930   7.186   9.143  0.2599  0.6538 -0.4409
  365MOL0     C50276   7.839   7.312   9.148 -0.0065 -0.6613  0.5176
  365MOL0    Cl50277   7.687   7.279   9.242  0.3949  0.2300 -0.7576
  365MOL0     C50278   8.717   7.247   8.406 -0.5889  0.4579  0.1962
  365MOL0     C50279   8.753   7.326   8.290 -0.3187 -0.6599  0.0232
  365MOL0     O50280   8.851   7.283   8.022  0.1237  0.7399  0.1909
  365MOL0     C50281   8.770   7.600   7.888 -0.0974 -0.5320 -0.1968
  365MOL0     C50282   8.814   7.704   7.807 -0.8465  0.5800  0.2225
  365MOL0     N50283   9.325   8.229   7.681 -0.2242 -0.4963 -0.1751
  365MOL0     N50284   9.436   8.287   7.683  0.2713  0.4960 -0.2679
  365MOL0     C50285  10.399   9.060   8.051  0.5929 -0.5462 -0.3145
  365MOL0     C50286  10.537   9.075   8.042 -0.3184 -1.0178 -0.3856
  365MOL0     C50287  10.992   9.028   8.158  0.2069 -0.1577 -0.5451
  365MOL0     C50288  11.021   9.003   8.021 -1.0777 -0.4842  0.2282
  365MOL0     C50289  11.155   9.007   7.976  0.3094 -0.2137  0.0142
  365MOL0     C50290  11.261   9.030   8.061 -0.7106 -0.1508  0.1062
  365MOL0     O50291  11.381   9.019   7.998 -0.5668 -0.1177 -0.6329
  365MOL0     C50292  11.501   8.953   8.057  0.0842 -0.8697  0.5121
  365MOL0     C50293  11.581   8.879   7.947 -0.7476 -0.1934  0.4454
  365MOL0     C50294  11.500   8.783   7.861 -0.0045  0.2000 -0.0633
  365MOL0     C50295  11.445   8.667   7.935 -0.0895  0.4383  0.3397
  365MOL0     C50296  11.399   8.570   7.837 -0.7220 -0.2197  0.0952
  365MOL0     C50297  11.364   8.480   7.769 -0.9224  0.0356  0.1978
  365MOL0     C50298  11.237   9.066   8.194 -0.4579 -0.4201  0.0373
  365MOL0     C50299  11.104   9.060   8.242 -0.0803  0.9459 -0.4904
  365MOL0     C50300  11.097   9.096   8.388 -0.1267 -0.3783  0.7175
  365MOL0     H50301  10.634   8.891   8.314  0.6206  2.6286  1.4200
  365MOL0     H50302  10.391   8.852   8.320 -0.0524  0.8535  0.1458
  365MOL0     H50303  10.166   8.817   8.282  0.7506 -1.6301 -0.8797
  365MOL0     H50304  10.216   8.801   8.113  0.3708  4.6839 -2.2512
  365MOL0     H50305   9.956   8.918   8.231  2.4110 -2.3134  3.3229
  365MOL0     H50306  10.006   8.924   8.052  0.8714  1.9936  0.1586
  365MOL0     H50307  10.020   8.677   8.066  1.1570  2.7215  0.3588
  365MOL0     H50308   9.919   8.676   8.210  0.3415 -1.6322 -0.0492
  365MOL0     H50309   9.764   8.843   8.068 -1.3463 -0.3597 -1.0248
  365MOL0     H50310   9.842   8.801   7.927 -2.8908 -3.1928 -1.6918
  365MOL0     H50311   9.700   8.572   8.077 -2.1163 -0.9080 -0.6643
  365MOL0     H50312   9.800   8.564   7.926 -0.9667  1.6315 -0.9779
  365MOL0     H50313   9.556   8.742   7.967 -3.2555 -1.0450 -1.1471
  365MOL0     H50314   9.646   8.695   7.814 -0.4648  0.4108  0.0823
  365MOL0     H50315   9.429   8.564   7.852  0.3595 -2.0627 -0.8276
  365MOL0     H50316   9.479   8.519   8.014 -1.7081  3.4893  0.1564
  365MOL0     H50317   9.636   8.445   7.760 -0.1472 -0.0295 -0.3316
  365MOL0     H50318   9.645   8.376   7.916 -2.1047 -0.5342  0.3541
  365MOL0     H50319   9.370   8.271   8.003  0.4980 -0.0152  0.0158
  365MOL0     H50320   9.076   8.250   7.861  0.7814  0.8009 -1.4951
  365MOL0     H50321   9.145   8.125   7.951 -1.9092  2.3269  0.8491
  365MOL0     H50322   8.972   8.039   7.800  0.2847  0.4219 -0.1633
  365MOL0     H50323   9.051   8.094   7.659  0.8580 -2.0508  0.0122
  365MOL0     H50324   9.260   7.946   7.736 -0.3092  1.8687 -1.1066
  365MOL0     H50325   9.141   7.872   7.837  1.3261 -0.1331 -0.2936
  365MOL0     H50326   9.100   7.904   7.540  0.0949  1.3997  0.9290
  365MOL0     H50327   9.172   7.771   7.616  0.3327  0.0320  0.5995
  365MOL0     H50328   9.136   7.595   7.763 -0.2217 -0.5344 -0.3357
  365MOL0     H50329   9.073   7.326   7.977  0.7075 -0.0046 -0.6195
  365MOL0     H50330   9.195   7.393   7.869  0.5737 -1.0525  0.0668
  365MOL0     H50331   9.068   7.303   7.799  0.5501  1.1766 -0.9545
  365MOL0     H50332   8.445   7.362   8.150  0.9110  0.5321 -0.3855
  365MOL0     H50333   8.387   7.234   8.372 -0.9003  1.0249 -1.4064
  365MOL0     H50334   8.399   7.301   8.620  2.0873  0.5394 -0.7030
  365MOL0     H50335   8.351   7.132   8.577 -0.5360  1.0460  0.3164
  365MOL0     H50336   8.472   7.034   8.762  0.5054 -0.6779  2.4357
  365MOL0     H50337   8.494   7.199   8.831  0.8027 -1.4509 -0.0174
  365MOL0     H50338   8.223   7.068   8.773 -0.1475  1.9363 -1.9042
  365MOL0     H50339   8.238   7.224   8.807 -0.5079 -1.1329 -3.6150
  365MOL0     H50340   8.316   7.203   9.040 -2.6938  1.4016 -1.1794
  365MOL0     H50341   8.335   7.021   9.019 -1.6249 -1.0994 -0.1668
  365MOL0     H50342   8.082   7.004   8.987 -1.5280 -0.5347  1.5247
  365MOL0     H50343   8.142   7.043   9.150  2.2665 -0.2989  0.1577
  365MOL0     H50344   8.014   7.238   8.949  1.0823 -0.4163 -0.4723
  365MOL0     H50345   8.102   7.287   9.095  1.7207 -0.2416  0.4682
  365MOL0     H50346   7.961   7.174   9.247 -0.9228  3.4804  0.3196
  365MOL0     H50347   7.872   7.102   9.103  0.3662  1.4008 -2.2727
  365MOL0     H50348   7.813   7.346   9.047 -2.1245  0.8229  1.4814
  365MOL0     H50349   7.892   7.391   9.203  0.3654 -0.1044 -0.6077
  365MOL0     H50350   8.795   7.221   8.477 -2.0484 -2.1675  0.9732
  365MOL0     H50351   8.857   7.351   8.275 -0.0099 -0.8806  1.6488
  365MOL0     H50352   8.666   7.590   7.919  0.1502 -0.4560  0.6772
  365MOL0     H50353   8.761   7.794   7.777  1.9792  1.7409 -1.7379
  365MOL0     H50354  10.329   9.104   7.980  0.4716 -0.7409 -0.3159
  365MOL0     H50355  10.573   9.127   7.953  0.2491 -0.9111 -0.0982
  365MOL0     H50356  10.942   8.981   7.950 -1.0223 -0.3893  0.1356
  365MOL0     H50357  11.182   8.996   7.871  1.0933  3.9032 -0.3887
  365MOL0     H50358  11.564   9.037   8.087 -1.5626  1.5144 -2.1915
  365MOL0     H50359  11.482   8.880   8.136  0.5823 -1.6400 -0.0535
  365MOL0     H50360  11.666   8.839   8.004 -0.0192  1.1208  0.3408
  365MOL0     H50361  11.609   8.947   7.866 -1.2191 -3.0463 -2.2975
  365MOL0     H50362  11.421   8.837   7.809  2.4125  3.4455 -0.6763
  365MOL0     H50363  11.572   8.750   7.784  1.8319  2.3239  0.6397
  365MOL0     H50364  11.370   8.683   8.014  2.2170 -0.9549  3.0178
  365MOL0     H50365  11.535   8.626   7.982  0.4056 -0.9365 -1.7041
  365MOL0     H50366  11.325   8.406   7.702 -4.8016  3.4388 -1.8030
  365MOL0     H50367  11.323   9.100   8.251 -0.4228 -2.1194  1.0724
  365MOL0     H50368  11.020   9.173   8.383  0.1090 -0.0693  1.7080
  365MOL0     H50369  11.063   9.013   8.452 -0.8648  1.4607  2.8398
  365MOL0     H50370  11.193   9.131   8.427  0.9718 -0.2088 -1.9323
  366MOL0     O50371   2.755   8.343   9.989  0.5800 -0.1411  0.1369
  366MOL0     C50372   2.822   8.277  10.062 -0.3933  0.5584 -0.1505
  366MOL0     O50373   2.959   8.266  10.048  0.1103 -0.4273  0.7223
  366MOL0     C50374   3.032   8.316   9.943  0.8656  0.0583 -0.2534
  366MOL0     C50375   2.985   8.317   9.808  0.4656 -0.3828 -0.0766
  366MOL0     C50376   3.065   8.368   9.711 -0.1689  0.2339 -0.0759
  366MOL0     C50377   3.198   8.413   9.736  0.2614  0.0772  0.4881
  366MOL0     O50378   3.272   8.462   9.623 -0.8440 -0.0061 -0.5383
  366MOL0     C50379   3.410   8.504   9.648  0.1599 -0.5100 -0.6085
  366MOL0     C50380   3.468   8.554   9.505 -0.5433  1.1859  0.0085
  366MOL0     C50381   3.398   8.673   9.439  0.0538  0.0503  0.2318
  366MOL0     C50382   3.441   8.811   9.500 -0.2607  0.2496 -0.4113
  366MOL0     C50383   3.361   8.922   9.422  0.0960  0.0517 -0.8068
  366MOL0     C50384   3.403   8.930   9.273  0.1570  0.5753  0.1310
  366MOL0     C50385   3.339   9.056   9.215  0.0044  0.2568  0.0892
  366MOL0     C50386   3.382   9.057   9.072 -0.7549  0.1263  0.3177
  366MOL0     N50387   3.520   9.117   9.050  0.5156  0.0005  0.4737
  366MOL0     C50388   3.545   9.251   9.040  0.2977  1.1696  0.9005
  366MOL0     C50389   3.679   9.263   9.034 -0.0168  0.4074 -0.4074
  366MOL0     C50390   3.767   9.371   8.977  0.1361 -0.4088  0.3116
  366MOL0     C50391   3.736   9.384   8.820 -1.5361  0.4836  0.5443
  366MOL0     C50392   3.838   9.471   8.743  0.6070  0.7256 -0.4260
  366MOL0     C50393   3.835   9.615   8.785  0.3854 -0.0262 -0.3598
  366MOL0     O50394   3.918   9.640   8.896 -0.4635 -1.3396  0.6141
  366MOL0     C50395   4.047   9.615   8.869 -0.0774 -1.0650 -0.3860
  366MOL0     C50396   4.117   9.675   8.770  0.2822 -0.1088 -0.4293
  366MOL0     C50397   4.254   9.672   8.759  0.0733 -0.3431 -0.4145
  366MOL0     C50398   4.316   9.767   8.656 -0.3813 -0.0738 -0.4205
  366MOL0     C50399   4.327   9.590   8.843  0.4113 -0.5297 -0.2482
  366MOL0     C50400   4.472   9.579   8.839 -1.3821  0.3207  0.3162
  366MOL0     O50401   4.533   9.487   8.923  0.2725 -0.3947  0.5776
  366MOL0     C50402   4.670   9.466   8.921 -0.6319 -1.2495  0.1996
  366MOL0     C50403   4.734   9.359   8.866 -0.6583 -0.0441  0.4082
  366MOL0     C50404   4.878   9.352   8.867  0.3364  0.1290 -0.2976
  366MOL0     C50405   4.954   9.454   8.925  1.1209 -1.1635 -0.0634
  366MOL0     O50406   5.090   9.465   8.906 -0.2751  1.1070  0.3067
  366MOL0     C50407   5.151   9.360   8.822 -0.2394  0.0289  0.4062
  366MOL0     C50408   5.300   9.377   8.823 -0.2794  0.1090 -0.9638
  366MOL0     C50409   5.356   9.381   8.968  0.1375  0.4090 -0.0189
  366MOL0     C50410   5.496   9.332   8.975 -0.5059  0.0174 -0.0215
  366MOL0     C50411   5.498   9.180   8.967 -0.8962 -0.0882  0.5724
  366MOL0     C50412   5.624   9.118   9.023 -0.1877  0.4049 -0.4383
  366MOL0     C50413   5.611   8.959   9.035 -0.1444  0.8217  0.3599
  366MOL0     C50414   5.752   8.890   9.050 -0.7632 -0.6361 -0.2825
  366MOL0    Cl50415   5.752   8.712   9.035 -0.1822  0.4971 -0.0122
  366MOL0     C50416   4.886   9.561   8.987 -0.2061  0.0059  0.1876
  366MOL0     C50417   4.748   9.565   8.979  0.1870 -0.4311 -0.1696
  366MOL0     O50418   4.535   9.647   8.760 -0.1629 -0.4391 -0.3970
  366MOL0     C50419   4.256   9.514   8.942 -0.1342 -0.6404  0.2819
  366MOL0     C50420   4.122   9.526   8.958  0.8572 -0.1439 -0.3634
  366MOL0     N50421   3.733   9.131   9.032  0.4828  0.0069  0.2753
  366MOL0     N50422   3.639   9.043   9.058  0.7438 -0.2411  0.2384
  366MOL0     C50423   3.255   8.398   9.864  0.5963 -0.1813 -0.5480
  366MOL0     C50424   3.167   8.362   9.967  0.4955 -0.6787  0.4212
  366MOL0     C50425   2.768   8.211  10.188  0.5221  0.5153 -0.0561
  366MOL0     C50426   2.863   8.176  10.293  0.0364 -0.3398  0.1773
  366MOL0     C50427   2.828   8.107  10.404  0.5459 -0.4356 -0.6016
  366MOL0     C50428   2.700   8.050  10.417 -0.3794  0.7025 -0.0655
  366MOL0     O50429   2.659   7.991  10.531  0.0606  0.2092  0.2687
  366MOL0     C50430   2.608   7.859  10.504 -0.2102  0.2892 -0.2731
  366MOL0     C50431   2.623   7.781  10.639  0.9628  0.3759  0.1173
  366MOL0     C50432   2.767   7.738  10.665  0.1031  0.1436  0.4107
  366MOL0     C50433   2.800   7.646  10.786  0.6951  0.4158 -0.4340
  366MOL0     C50434   2.766   7.707  10.916  0.4573  0.5507 -0.3532
  366MOL0     C50435   2.732   7.774  11.013  1.2446  0.2164  0.5085
  366MOL0     C50436   2.601   8.091  10.329  0.3150 -0.7158  0.3564
  366MOL0     C50437   2.632   8.176  10.215  1.0558  0.3612 -0.2678
  366MOL0     C50438   2.515   8.221  10.126  0.6652 -0.3442 -0.1300
  366MOL0     H50439   2.882   8.283   9.796 -0.7187  2.4651  0.9195
  366MOL0     H50440   3.026   8.379   9.610 -2.7480  1.1816  0.9458
  366MOL0     H50441   3.473   8.420   9.680  2.3464  1.7495  1.4618
  366MOL0     H50442   3.425   8.583   9.722 -0.9075  1.2302 -2.1933
  366MOL0     H50443   3.576   8.565   9.518 -0.6866  0.5038  2.2205
  366MOL0     H50444   3.469   8.470   9.434  2.2079  0.7797  0.4011
  366MOL0     H50445   3.436   8.678   9.337  1.6181 -1.4373  0.6889
  366MOL0     H50446   3.289   8.668   9.451 -0.0760  1.7875 -0.0520
  366MOL0     H50447   3.418   8.814   9.607 -2.4972  3.6374 -0.8475
  366MOL0     H50448   3.549   8.829   9.494 -0.0406  0.3668  2.5347
  366MOL0     H50449   3.380   9.023   9.458 -0.2049 -0.2700  0.2781
  366MOL0     H50450   3.256   8.895   9.433  0.3104 -1.4586 -2.0121
  366MOL0     H50451   3.512   8.935   9.272  0.1149  1.8477 -0.0636
  366MOL0     H50452   3.380   8.836   9.224  0.5550  0.0795  0.8658
  366MOL0     H50453   3.369   9.150   9.264 -1.5112  2.6504 -3.2315
  366MOL0     H50454   3.233   9.035   9.229 -0.1467  0.0364 -1.2712
  366MOL0     H50455   3.380   8.955   9.033  2.1246 -0.2462  0.9191
  366MOL0     H50456   3.305   9.125   9.035 -0.4855  0.5767  0.5731
  366MOL0     H50457   3.470   9.327   9.021  0.2219  0.7408 -0.6425
  366MOL0     H50458   3.872   9.366   9.006 -0.3486  0.2041  2.3062
  366MOL0     H50459   3.732   9.464   9.022  0.5519  0.5108 -1.2058
  366MOL0     H50460   3.753   9.288   8.770  1.0633  0.3581  1.5109
  366MOL0     H50461   3.636   9.424   8.803 -1.2056  2.2360  2.3207
  366MOL0     H50462   3.931   9.421   8.715 -0.5349 -1.5895 -0.3699
  366MOL0     H50463   3.792   9.486   8.645 -2.4684  3.5162  1.2368
  366MOL0     H50464   3.860   9.680   8.700  2.5364  1.2600  1.1462
  366MOL0     H50465   3.732   9.638   8.813  0.9811  0.9650  1.1841
  366MOL0     H50466   4.059   9.742   8.707  0.4605  2.0831  1.6207
  366MOL0     H50467   4.349   9.707   8.570  2.9859  0.7684  0.1260
  366MOL0     H50468   4.395   9.833   8.692 -2.0854  1.9116 -0.1519
  366MOL0     H50469   4.238   9.836   8.624  0.9734  2.9267  2.2005
  366MOL0     H50470   4.680   9.273   8.828  1.0179 -0.4033 -1.3080
  366MOL0     H50471   4.925   9.263   8.825  3.2242  2.5456 -2.5934
  366MOL0     H50472   5.134   9.259   8.862 -0.4857  1.0450  3.0104
  366MOL0     H50473   5.115   9.368   8.719  0.9663 -1.5010 -0.1732
  366MOL0     H50474   5.344   9.292   8.771 -1.7344 -1.8166  0.7964
  366MOL0     H50475   5.321   9.478   8.786  0.2701  0.0325 -0.8749
  366MOL0     H50476   5.290   9.325   9.034 -0.7542 -1.6589 -2.5075
  366MOL0     H50477   5.358   9.487   8.995 -0.8587  0.8702 -1.6227
  366MOL0     H50478   5.527   9.352   9.078  0.1972 -3.1484  0.4983
  366MOL0     H50479   5.566   9.385   8.909 -2.6106  2.7419 -0.2536
  366MOL0     H50480   5.408   9.143   9.016 -0.6492 -1.0686  0.2999
  366MOL0     H50481   5.501   9.151   8.862 -1.0183  0.3178  0.4532
  366MOL0     H50482   5.645   9.167   9.118 -0.5771 -2.2663  1.1487
  366MOL0     H50483   5.704   9.149   8.956  1.4077  0.3442  1.3612
  366MOL0     H50484   5.568   8.908   8.948 -3.4516  2.3714  0.9181
  366MOL0     H50485   5.543   8.937   9.118 -0.2289  0.8056  0.2877
  366MOL0     H50486   5.782   8.916   9.152 -2.3626 -0.5112  0.1776
  366MOL0     H50487   5.824   8.930   8.977  0.3379 -2.9728 -0.5658
  366MOL0     H50488   4.938   9.639   9.042 -0.6853 -0.9084  2.0304
  366MOL0     H50489   4.706   9.653   9.027  0.9703  0.0886 -0.4213
  366MOL0     H50490   4.309   9.443   9.005 -0.8377  1.1221  3.0470
  366MOL0     H50491   4.059   9.461   9.018  0.5844  1.2202  0.8530
  366MOL0     H50492   3.358   8.409   9.896  0.7913  0.8353 -1.4479
  366MOL0     H50493   3.206   8.355  10.068  0.7470 -0.6031  0.3293
  366MOL0     H50494   2.968   8.195  10.277 -0.0576 -0.1055 -0.1659
  366MOL0     H50495   2.912   8.078  10.466 -2.2333 -2.2332  2.6766
  366MOL0     H50496   2.503   7.879  10.482 -0.7422  0.1149  1.8495
  366MOL0     H50497   2.651   7.804  10.420  0.6728  1.3653 -0.5330
  366MOL0     H50498   2.568   7.687  10.627  0.8194  0.1082  2.4207
  366MOL0     H50499   2.576   7.839  10.719  0.1833  0.8084 -0.6444
  366MOL0     H50500   2.802   7.690  10.573  0.8689  2.1167 -0.3803
  366MOL0     H50501   2.822   7.832  10.667  0.2646  0.0331  1.6155
  366MOL0     H50502   2.909   7.634  10.784  0.9569  2.3261 -3.2339
  366MOL0     H50503   2.750   7.550  10.770  1.4449 -0.4454  1.9362
  366MOL0     H50504   2.690   7.847  11.079  2.8460 -0.0362  1.8755
  366MOL0     H50505   2.500   8.062  10.355  0.3614 -0.2258  1.1163
  366MOL0     H50506   2.515   8.327  10.098 -1.1834  0.7929  3.4991
  366MOL0     H50507   2.527   8.160  10.036  1.1115  1.2483 -1.1928
  366MOL0     H50508   2.422   8.195  10.177  1.4129 -0.7385  1.0799
  367MOL0     O50509   5.735   5.278  10.029 -0.2952 -0.5377  0.7424
  367MOL0     C50510   5.688   5.371   9.961  0.1909 -0.4967  0.7892
  367MOL0     O50511   5.558   5.376   9.923 -0.4445 -0.3175 -0.1400
  367MOL0     C50512   5.464   5.289   9.974  0.1345 -1.0547  0.5987
  367MOL0     C50513   5.470   5.152   9.974 -0.0468 -1.2765 -0.3828
  367MOL0     C50514   5.367   5.076  10.026  0.1626  0.3564  0.7142
  367MOL0     C50515   5.253   5.135  10.082 -0.1365  0.1775 -1.2625
  367MOL0     O50516   5.165   5.038  10.134 -0.9565  0.6081 -0.8454
  367MOL0     C50517   5.065   5.090  10.223 -0.4732  0.6764  0.2400
  367MOL0     C50518   5.003   4.963  10.306 -0.1926  0.4533  0.9097
  367MOL0     C50519   5.114   4.881  10.374 -0.0913 -0.8807  0.8547
  367MOL0     C50520   5.061   4.787  10.476 -0.9680  0.1591 -0.0618
  367MOL0     C50521   5.165   4.694  10.533  0.2213  0.0696  0.2524
  367MOL0     C50522   5.112   4.580  10.615  0.5626 -0.0533 -0.0810
  367MOL0     C50523   5.217   4.491  10.675 -0.0226 -0.8407 -0.0199
  367MOL0     C50524   5.285   4.410  10.565  0.5012  0.1546 -0.2459
  367MOL0     N50525   5.387   4.338  10.631  0.3473  0.0114  0.1109
  367MOL0     C50526   5.388   4.205  10.648 -1.3033  0.0151 -0.4161
  367MOL0     C50527   5.499   4.182  10.720 -0.4774  0.4331 -0.4812
  367MOL0     C50528   5.527   4.035  10.749  0.0526  0.7700  0.1821
  367MOL0     C50529   5.661   3.995  10.680 -0.0345 -0.6126  1.1333
  367MOL0     C50530   5.656   4.014  10.522  0.3443 -0.7909  0.4010
  367MOL0     C50531   5.807   4.008  10.488 -0.3620 -0.1061  0.0811
  367MOL0     O50532   5.821   4.064  10.358  0.2798  0.1438 -0.1120
  367MOL0     C50533   5.857   4.196  10.342  0.4969 -0.3120  0.1480
  367MOL0     C50534   5.834   4.294  10.440 -0.3907  0.3232  0.6927
  367MOL0     C50535   5.884   4.422  10.418  0.4758 -0.3610 -0.1588
  367MOL0     C50536   5.876   4.521  10.529 -0.0279 -0.0751  0.0527
  367MOL0     C50537   5.935   4.453  10.295 -0.1105  0.9663  0.7956
  367MOL0     C50538   5.985   4.587  10.246 -0.1348  0.2865 -0.4079
  367MOL0     O50539   5.924   4.710  10.286 -0.1411  0.1619  1.0107
  367MOL0     C50540   5.976   4.831  10.242  0.5374 -1.1022  0.9892
  367MOL0     C50541   5.914   4.912  10.157  0.4161  0.3791  0.9731
  367MOL0     C50542   5.973   5.035  10.118  0.4504 -1.0599  0.7131
  367MOL0     C50543   6.100   5.076  10.156 -0.2296  0.7788  0.0352
  367MOL0     O50544   6.142   5.197  10.115  0.4218 -0.4710  1.1771
  367MOL0     C50545   6.237   5.262  10.198  0.0424 -0.3539 -0.3362
  367MOL0     C50546   6.261   5.411  10.157 -0.1311 -0.7162  0.8805
  367MOL0     C50547   6.369   5.429  10.043 -0.0397  0.0093 -0.1820
  367MOL0     C50548   6.509   5.435  10.106 -0.5139  1.0703  0.4001
  367MOL0     C50549   6.622   5.421   9.999 -0.6081  0.0792  0.0390
  367MOL0     C50550   6.750   5.427  10.078 -0.0734  0.4115  0.1670
  367MOL0     C50551   6.881   5.412   9.995  0.2857 -1.1276 -0.3583
  367MOL0     C50552   6.891   5.285   9.914 -0.2177 -0.3479  0.5853
  367MOL0    Cl50553   7.050   5.284   9.827  0.0664 -0.0666  0.2447
  367MOL0     C50554   6.162   4.983  10.243 -0.0292 -0.4710  0.6761
  367MOL0     C50555   6.106   4.861  10.274  0.0660  0.8105  0.6722
  367MOL0     O50556   6.079   4.579  10.163  0.0614 -0.0716 -0.5279
  367MOL0     C50557   5.953   4.350  10.205  0.5745 -0.2633  1.3654
  367MOL0     C50558   5.915   4.219  10.224  0.4886 -1.7411 -0.5255
  367MOL0     N50559   5.583   4.294  10.731  0.5409  0.6647  0.7530
  367MOL0     N50560   5.508   4.387  10.676 -0.0179  0.0542  1.0207
  367MOL0     C50561   5.250   5.274  10.083  0.3498 -0.2807  0.5837
  367MOL0     C50562   5.358   5.355  10.023  0.6130 -0.5867  0.1191
  367MOL0     C50563   5.783   5.481   9.922  0.0618  0.6051  0.3969
  367MOL0     C50564   5.898   5.507   9.997 -0.5569  0.0766  0.4102
  367MOL0     C50565   5.977   5.617   9.970  0.2904  0.5881  0.5167
  367MOL0     C50566   5.945   5.708   9.868  0.0305 -0.1952  0.2827
  367MOL0     O50567   6.016   5.823   9.867 -0.1817  0.0236  0.2474
  367MOL0     C50568   5.971   5.937   9.793  0.7217  0.1443  0.3610
  367MOL0     C50569   5.841   6.006   9.842 -0.1557  0.0078 -0.4108
  367MOL0     C50570   5.810   5.991   9.993  0.2565 -0.1238 -0.0415
  367MOL0     C50571   5.919   6.039  10.080 -0.4856 -0.9027 -0.6940
  367MOL0     C50572   5.955   6.187  10.053  0.0410  0.6329  0.3983
  367MOL0     C50573   6.000   6.298  10.048  0.4772  0.3315  1.1107
  367MOL0     C50574   5.845   5.671   9.777 -0.9938 -0.8779  0.2516
  367MOL0     C50575   5.763   5.566   9.806  0.1642  0.8534  0.3711
  367MOL0     C50576   5.633   5.554   9.713 -0.5069  0.4638 -0.1010
  367MOL0     H50577   5.555   5.091   9.944 -0.5964 -2.8848  1.1880
  367MOL0     H50578   5.380   4.969  10.038  1.6942  0.1842 -1.6989
  367MOL0     H50579   4.991   5.150  10.169 -1.4524 -0.1373  0.6280
  367MOL0     H50580   5.105   5.151  10.303 -1.3865  1.2153  0.3024
  367MOL0     H50581   4.934   5.000  10.382 -1.3024  2.2740 -0.8957
  367MOL0     H50582   4.958   4.894  10.234  1.3213  0.8950 -0.5235
  367MOL0     H50583   5.172   4.838  10.292 -0.5683  1.8642 -1.0634
  367MOL0     H50584   5.162   4.963  10.429 -0.1530 -0.3778  0.1798
  367MOL0     H50585   5.002   4.842  10.550 -2.2107 -0.0266 -0.8848
  367MOL0     H50586   4.990   4.719  10.430  0.5488  0.8630 -3.8421
  367MOL0     H50587   5.235   4.756  10.590 -2.4780  0.2956  3.6635
  367MOL0     H50588   5.217   4.652  10.446  1.1222 -0.2385  0.9298
  367MOL0     H50589   5.060   4.614  10.705 -1.1041 -1.9933 -0.2220
  367MOL0     H50590   5.030   4.525  10.568 -3.0004  3.9646  0.7598
  367MOL0     H50591   5.177   4.423  10.750  2.8775 -3.1080 -0.3419
  367MOL0     H50592   5.291   4.552  10.728  1.0573 -1.1427 -1.1281
  367MOL0     H50593   5.212   4.344  10.518  0.7775  0.3884 -1.0349
  367MOL0     H50594   5.320   4.481  10.489 -1.2099  0.7501 -0.5206
  367MOL0     H50595   5.307   4.140  10.617 -0.8401 -1.5859  1.4978
  367MOL0     H50596   5.445   3.966  10.725  0.1422  0.7269 -0.0020
  367MOL0     H50597   5.540   4.032  10.858 -0.7976  1.0741  0.2939
  367MOL0     H50598   5.733   4.061  10.730  0.5923  0.9905 -1.6876
  367MOL0     H50599   5.680   3.892  10.711 -1.2197 -0.5940  1.9864
  367MOL0     H50600   5.597   3.944  10.462  0.3378  0.3645 -0.9887
  367MOL0     H50601   5.628   4.117  10.500  2.1032  0.8650  4.7019
  367MOL0     H50602   5.862   4.071  10.559 -1.2381  1.0875 -0.2692
  367MOL0     H50603   5.845   3.907  10.507 -1.4893 -0.4544  0.5503
  367MOL0     H50604   5.795   4.272  10.539 -0.9303 -0.5048  0.3063
  367MOL0     H50605   5.966   4.515  10.592 -0.1911  0.5471  0.3513
  367MOL0     H50606   5.785   4.496  10.584 -0.7633  1.0871 -0.5861
  367MOL0     H50607   5.862   4.622  10.488 -3.3393 -0.1555  0.7476
  367MOL0     H50608   5.821   4.878  10.114  1.8518 -1.5569 -0.8538
  367MOL0     H50609   5.914   5.092  10.046  1.4107 -0.3562  0.4546
  367MOL0     H50610   6.201   5.268  10.301 -0.4532  0.0654 -0.5317
  367MOL0     H50611   6.331   5.206  10.191  1.0691  1.2760 -0.3391
  367MOL0     H50612   6.170   5.455  10.117  0.2661  0.1817  0.9559
  367MOL0     H50613   6.287   5.463  10.250 -1.1456 -3.3154  2.7569
  367MOL0     H50614   6.349   5.520   9.986 -0.3168  0.2724  0.3266
  367MOL0     H50615   6.368   5.348   9.970  1.5725  0.4302 -0.7122
  367MOL0     H50616   6.521   5.353  10.178 -0.0526 -0.3274 -1.2191
  367MOL0     H50617   6.524   5.531  10.157  5.2878  1.6553 -1.6243
  367MOL0     H50618   6.604   5.327   9.946 -0.6852  1.6727 -2.9521
  367MOL0     H50619   6.619   5.507   9.932 -0.9631 -0.9829 -1.3424
  367MOL0     H50620   6.746   5.352  10.157 -0.0785  0.7218  0.4666
  367MOL0     H50621   6.751   5.518  10.139 -0.5589  2.6542 -2.8883
  367MOL0     H50622   6.960   5.421  10.070  0.1578 -0.2836 -0.3077
  367MOL0     H50623   6.891   5.487   9.915  0.6335 -1.9099 -1.0587
  367MOL0     H50624   6.811   5.276   9.840  2.4214 -1.7551 -2.3203
  367MOL0     H50625   6.887   5.202   9.984 -0.6594  0.5789  1.6849
  367MOL0     H50626   6.264   5.000  10.275  1.2126 -1.6620 -2.3820
  367MOL0     H50627   6.178   4.797  10.324  0.2770  0.0280 -0.5755
  367MOL0     H50628   5.980   4.376  10.103  1.6816 -2.1215  1.1410
  367MOL0     H50629   5.914   4.142  10.148  0.9133 -2.7660  0.4856
  367MOL0     H50630   5.169   5.321  10.139  2.8874 -0.6062  5.0380
  367MOL0     H50631   5.357   5.463  10.029  0.7719 -0.5878  0.1750
  367MOL0     H50632   5.919   5.450  10.087 -2.7921 -2.6796 -0.6638
  367MOL0     H50633   6.056   5.641  10.040 -0.0028 -0.2711  1.1650
  367MOL0     H50634   6.049   6.014   9.803  2.3178 -1.4119  0.5487
  367MOL0     H50635   5.963   5.908   9.688  0.7556  0.1952  0.3435
  367MOL0     H50636   5.754   5.963   9.792 -0.2414  0.0349 -0.2851
  367MOL0     H50637   5.837   6.106   9.798  3.4172 -0.8473 -3.1403
  367MOL0     H50638   5.724   6.051  10.024 -2.0876 -2.8353 -0.8592
  367MOL0     H50639   5.793   5.884  10.011 -2.1848  0.2336  0.1402
  367MOL0     H50640   6.008   5.977  10.069  0.1761 -0.4637  1.7872
  367MOL0     H50641   5.890   6.028  10.185 -0.1761 -2.9415 -0.7816
  367MOL0     H50642   6.033   6.400  10.039 -0.7108  0.6978  0.7617
  367MOL0     H50643   5.822   5.741   9.698  3.5964 -1.2929 -1.7230
  367MOL0     H50644   5.536   5.560   9.763 -1.7087 -2.7546 -1.7764
  367MOL0     H50645   5.636   5.632   9.637  1.6692  1.6458  1.1084
  367MOL0     H50646   5.638   5.454   9.670  1.1812 -0.0103  1.0696
  368MOL0     O50647   2.616   2.570   9.629 -0.2506 -0.3331  0.0481
  368MOL0     C50648   2.660   2.583   9.512 -0.3137 -1.1913  0.5666
  368MOL0     O50649   2.755   2.504   9.464  0.5698  0.3462 -0.5478
  368MOL0     C50650   2.808   2.407   9.546 -0.8870  0.2202 -0.1877
  368MOL0     C50651   2.757   2.279   9.571  0.1238 -0.1497  0.0141
  368MOL0     C50652   2.833   2.178   9.634  0.1142  1.1389  0.7039
  368MOL0     C50653   2.964   2.204   9.689  0.6978 -0.5346  0.0842
  368MOL0     O50654   3.039   2.107   9.744  0.1697  0.6103 -0.6831
  368MOL0     C50655   3.143   2.052   9.656  0.6202  0.4287  0.0704
  368MOL0     C50656   3.194   1.926   9.729  0.0049  0.6487  0.0206
  368MOL0     C50657   3.324   1.861   9.669  0.3607  0.1217 -0.0477
  368MOL0     C50658   3.347   1.740   9.754 -1.0337  0.7666 -0.1680
  368MOL0     C50659   3.273   1.615   9.701 -0.4114 -0.4034 -0.7712
  368MOL0     C50660   3.327   1.490   9.769  0.3317 -0.3202  0.6488
  368MOL0     C50661   3.475   1.463   9.721  0.5749 -0.5439 -0.5197
  368MOL0     C50662   3.512   1.328   9.747 -1.3793 -1.0737  0.7188
  368MOL0     N50663   3.652   1.316   9.720 -0.4896  0.5832  0.0332
  368MOL0     C50664   3.747   1.314   9.818  0.1136 -0.2787  0.2478
  368MOL0     C50665   3.856   1.278   9.757  1.8622  0.5160 -0.3119
  368MOL0     C50666   3.994   1.276   9.821  0.1417  0.2453  0.0243
  368MOL0     C50667   4.053   1.152   9.880 -0.7915 -0.1453 -0.3724
  368MOL0     C50668   3.978   1.106  10.006 -0.4379 -1.2350  0.0494
  368MOL0     C50669   3.845   1.035   9.983  0.9070  0.4924 -1.1155
  368MOL0     O50670   3.778   1.041  10.114 -0.1401  0.2373  0.3331
  368MOL0     C50671   3.687   0.939  10.134  0.4513  0.7761  0.3879
  368MOL0     C50672   3.615   0.871  10.036 -0.6806 -0.2904 -0.3134
  368MOL0     C50673   3.522   0.767  10.064  0.3719 -0.8735  0.1749
  368MOL0     C50674   3.450   0.699   9.956 -0.8133  0.4966 -0.1366
  368MOL0     C50675   3.493   0.731  10.198  0.2716 -1.2480  0.1400
  368MOL0     C50676   3.384   0.639  10.244 -0.3101 -0.7201 -0.9305
  368MOL0     O50677   3.277   0.611  10.168 -0.2533 -0.0222  0.7264
  368MOL0     C50678   3.169   0.553  10.223 -0.1288 -0.2970  0.0872
  368MOL0     C50679   3.078   0.636  10.278  0.3149 -0.0877 -0.1870
  368MOL0     C50680   2.953   0.586  10.331  0.0572 -0.1417  0.3006
  368MOL0     C50681   2.927   0.448  10.336 -1.5615  0.7321 -0.4457
  368MOL0     O50682   2.811   0.399  10.388 -0.2600  0.8426  0.2356
  368MOL0     C50683   2.747   0.289  10.322 -0.5250  0.2456  0.4281
  368MOL0     C50684   2.706   0.331  10.169  0.5086  0.3987  1.2858
  368MOL0     C50685   2.589   0.423  10.169  0.3634 -0.5067  0.7884
  368MOL0     C50686   2.577   0.490  10.034 -0.1424 -0.8747 -0.0887
  368MOL0     C50687   2.667   0.613  10.020 -0.3011 -0.0234 -0.2560
  368MOL0     C50688   2.704   0.628   9.868  1.1637  0.1905 -0.2983
  368MOL0     C50689   2.800   0.743   9.836  0.5695 -0.1909  0.3103
  368MOL0     C50690   2.811   0.769   9.688 -0.4297 -0.4766 -0.4897
  368MOL0    Cl50691   2.656   0.825   9.610 -0.0989  0.6404  0.0050
  368MOL0     C50692   3.022   0.364  10.262 -0.1152 -0.6007 -0.0911
  368MOL0     C50693   3.132   0.415  10.203 -0.1953 -0.1344 -0.0775
  368MOL0     O50694   3.385   0.602  10.364 -0.5588  0.1368  0.2561
  368MOL0     C50695   3.565   0.800  10.296  0.6427  0.8910  1.1013
  368MOL0     C50696   3.657   0.900  10.264  0.5573  0.0961  0.4761
  368MOL0     N50697   3.842   1.288   9.620  0.3508  0.2559  0.1374
  368MOL0     N50698   3.713   1.303   9.600  0.0419  0.2720 -0.8922
  368MOL0     C50699   3.011   2.336   9.684  0.2234 -0.8763  0.0997
  368MOL0     C50700   2.934   2.436   9.612  0.4769  0.3776 -0.6543
  368MOL0     C50701   2.610   2.683   9.418  0.2864 -0.0139  0.7756
  368MOL0     C50702   2.712   2.764   9.351  0.6976  0.7772 -0.2812
  368MOL0     C50703   2.671   2.859   9.253 -0.5224  0.8980 -0.5422
  368MOL0     C50704   2.534   2.881   9.226 -0.6010  1.0237  0.5489
  368MOL0     O50705   2.499   2.982   9.143 -0.3229  0.1865 -0.0233
  368MOL0     C50706   2.397   3.062   9.185  0.9051  0.5433 -0.1368
  368MOL0     C50707   2.264   3.059   9.106  0.3392 -1.0225 -0.2769
  368MOL0     C50708   2.161   3.170   9.148 -0.3368 -0.1585 -0.3327
  368MOL0     C50709   2.203   3.311   9.108  0.2969  0.2027 -0.0040
  368MOL0     C50710   2.120   3.419   9.154 -0.9135 -0.1752  0.6151
  368MOL0     C50711   2.040   3.499   9.189  0.2015 -0.0225  0.0749
  368MOL0     C50712   2.440   2.806   9.291 -0.3524  0.1802  0.3459
  368MOL0     C50713   2.472   2.713   9.388 -1.2957 -0.2775  0.3140
  368MOL0     C50714   2.354   2.638   9.439 -0.3264 -0.7469 -0.0661
  368MOL0     H50715   2.666   2.239   9.527  0.5445  1.3066 -2.3217
  368MOL0     H50716   2.778   2.085   9.624 -0.3077  1.6178 -2.5478
  368MOL0     H50717   3.226   2.120   9.636 -0.0233  1.0096 -0.6965
  368MOL0     H50718   3.100   2.021   9.560  5.1024 -2.0718 -1.4433
  368MOL0     H50719   3.211   1.936   9.836  0.4279 -2.4468  0.3352
  368MOL0     H50720   3.108   1.859   9.730 -1.1833  2.0839  2.8297
  368MOL0     H50721   3.304   1.825   9.568  0.1906  1.8419 -0.6618
  368MOL0     H50722   3.402   1.937   9.660 -0.2832  0.9958  1.4474
  368MOL0     H50723   3.454   1.719   9.749 -0.7934  1.5147  1.2708
  368MOL0     H50724   3.321   1.759   9.859  0.6325  1.0163  0.2292
  368MOL0     H50725   3.287   1.598   9.594  2.1989 -0.7295 -0.4433
  368MOL0     H50726   3.167   1.621   9.729  0.1317  0.1722  1.2879
  368MOL0     H50727   3.325   1.510   9.877  2.1355  0.0875  0.6382
  368MOL0     H50728   3.260   1.406   9.745 -0.5162  0.1011  1.4383
  368MOL0     H50729   3.532   1.541   9.773 -0.2785  0.7623 -1.4877
  368MOL0     H50730   3.482   1.479   9.613 -0.5021  1.2516 -0.3654
  368MOL0     H50731   3.505   1.300   9.853  0.8676  1.7344  1.7617
  368MOL0     H50732   3.455   1.266   9.678 -0.1317 -1.1360 -0.2907
  368MOL0     H50733   3.728   1.339   9.922 -3.1724  0.8446 -0.4926
  368MOL0     H50734   3.981   1.340   9.909  0.7019  0.4380 -0.0277
  368MOL0     H50735   4.067   1.330   9.759 -1.2365  1.5574 -0.5129
  368MOL0     H50736   4.064   1.065   9.815 -0.9577 -0.8171  0.4892
  368MOL0     H50737   4.147   1.193   9.918 -1.6679  2.7701 -1.0441
  368MOL0     H50738   4.044   1.043  10.067 -2.4624 -1.6451  1.9644
  368MOL0     H50739   3.953   1.188  10.074  2.1551 -1.7383  1.7662
  368MOL0     H50740   3.790   1.089   9.905 -3.0749  2.8883  2.8134
  368MOL0     H50741   3.854   0.936   9.939 -0.1434  0.2246 -0.7510
  368MOL0     H50742   3.625   0.914   9.937  0.0923  1.1991  0.3789
  368MOL0     H50743   3.341   0.704   9.965 -0.9046  1.4341 -1.5306
  368MOL0     H50744   3.485   0.595   9.963 -0.1013  0.7882  0.9813
  368MOL0     H50745   3.472   0.727   9.853 -0.1988  1.5975  0.2708
  368MOL0     H50746   3.100   0.741  10.266 -2.5672  1.1866  3.7132
  368MOL0     H50747   2.878   0.654  10.371  1.3778  1.7700 -0.3488
  368MOL0     H50748   2.822   0.209  10.323 -0.1886  0.3777 -2.6649
  368MOL0     H50749   2.657   0.253  10.372 -2.2180  3.0248 -0.4347
  368MOL0     H50750   2.788   0.382  10.118 -0.4143 -0.2013 -0.9375
  368MOL0     H50751   2.686   0.238  10.114 -0.8248  2.2786 -1.6677
  368MOL0     H50752   2.601   0.507  10.239 -1.9787  1.9060 -1.4683
  368MOL0     H50753   2.499   0.365  10.189  1.4737 -1.7423  2.4498
  368MOL0     H50754   2.473   0.524  10.028  0.4585  0.8009 -2.5156
  368MOL0     H50755   2.584   0.412   9.957 -1.2352 -0.3537 -0.7494
  368MOL0     H50756   2.611   0.699  10.056 -0.3871  0.4350 -1.4454
  368MOL0     H50757   2.754   0.603  10.085 -1.2913  1.6689  1.4218
  368MOL0     H50758   2.609   0.638   9.815  0.3018  1.7776  1.4475
  368MOL0     H50759   2.743   0.529   9.845 -2.7078 -1.7896  0.8809
  368MOL0     H50760   2.902   0.732   9.873  0.1134  0.9379  2.0159
  368MOL0     H50761   2.757   0.834   9.878 -1.3917 -1.2425  0.7093
  368MOL0     H50762   2.854   0.681   9.640  0.7123 -0.8615  1.1582
  368MOL0     H50763   2.884   0.850   9.680 -0.1425  0.0072  4.1608
  368MOL0     H50764   3.011   0.256  10.269  4.0414 -1.2094  0.0961
  368MOL0     H50765   3.197   0.338  10.161 -0.6761 -1.8712  2.1981
  368MOL0     H50766   3.542   0.774  10.399  0.1183 -1.1093  0.5205
  368MOL0     H50767   3.705   0.950  10.348 -2.1952  1.2313  1.5034
  368MOL0     H50768   3.109   2.360   9.724  0.6216  0.7726 -1.7314
  368MOL0     H50769   2.989   2.529   9.601  3.0337 -0.5915  2.6196
  368MOL0     H50770   2.818   2.754   9.373  0.5511  2.6045  1.5599
  368MOL0     H50771   2.732   2.932   9.200 -1.1486  0.7383 -1.5066
  368MOL0     H50772   2.374   3.046   9.291  1.0768  2.3134  0.1912
  368MOL0     H50773   2.442   3.162   9.179 -0.6819  1.1884 -1.9059
  368MOL0     H50774   2.219   2.963   9.130 -0.0918 -0.5054  1.0928
  368MOL0     H50775   2.275   3.065   8.997  2.3169 -1.4230 -0.1331
  368MOL0     H50776   2.058   3.157   9.114  0.0419 -0.7657 -1.2714
  368MOL0     H50777   2.156   3.165   9.258  2.0197  0.8140 -0.1203
  368MOL0     H50778   2.218   3.310   9.000 -1.4626 -0.7978 -0.2730
  368MOL0     H50779   2.296   3.343   9.156  1.5781 -0.7368 -1.7559
  368MOL0     H50780   1.978   3.578   9.227  0.5443  1.3122 -1.9438
  368MOL0     H50781   2.335   2.821   9.269  0.1923  0.9602 -2.0312
  368MOL0     H50782   2.273   2.710   9.425  1.0133  0.8069 -0.0566
  368MOL0     H50783   2.326   2.545   9.387  0.8747 -1.6470  0.8322
  368MOL0     H50784   2.362   2.616   9.546 -2.2557 -6.5211 -0.7157
  369MOL0     O50785   8.182   6.694   5.843 -1.1824 -0.0012 -0.3524
  369MOL0     C50786   8.174   6.663   5.726  0.2932  0.1733 -0.1618
  369MOL0     O50787   8.250   6.569   5.668 -0.1858 -0.0943 -0.7347
  369MOL0     C50788   8.325   6.488   5.760 -0.5637  0.6870  0.0706
  369MOL0     C50789   8.255   6.385   5.817 -0.4672  0.2795  0.1073
  369MOL0     C50790   8.318   6.296   5.911  0.2553 -0.4478  0.8035
  369MOL0     C50791   8.456   6.314   5.933 -0.0078  0.0544  0.6709
  369MOL0     O50792   8.502   6.218   6.020 -0.8563  0.0388  0.5222
  369MOL0     C50793   8.616   6.261   6.087  0.4527  0.1747 -0.5525
  369MOL0     C50794   8.638   6.191   6.217  1.4585 -0.1212 -0.8024
  369MOL0     C50795   8.769   6.242   6.272 -0.7851  0.1074 -0.0083
  369MOL0     C50796   8.780   6.260   6.436  0.2777 -0.4787 -0.6551
  369MOL0     C50797   8.927   6.292   6.484 -0.6399 -0.5332 -0.3521
  369MOL0     C50798   8.991   6.425   6.445 -0.2040  0.4397  0.0847
  369MOL0     C50799   9.131   6.426   6.514  0.2165 -0.1752 -0.1732
  369MOL0     C50800   9.200   6.551   6.459  0.0300  0.1017 -0.7209
  369MOL0     N50801   9.339   6.559   6.509 -0.0278 -0.0300  0.5602
  369MOL0     C50802   9.449   6.525   6.423 -0.0332  0.2089 -0.7775
  369MOL0     C50803   9.557   6.591   6.477  0.5910 -0.0016  1.5386
  369MOL0     C50804   9.704   6.600   6.427 -0.4562 -0.1222 -0.1938
  369MOL0     C50805   9.799   6.641   6.541 -0.8454 -0.8130 -0.5116
  369MOL0     C50806   9.940   6.647   6.470 -0.5459  0.8490 -0.2797
  369MOL0     C50807  10.055   6.666   6.561 -0.5892 -0.0284 -1.3193
  369MOL0     O50808  10.058   6.574   6.672  0.1029 -0.0713 -0.4450
  369MOL0     C50809  10.093   6.445   6.640  0.4288 -0.0124  0.6414
  369MOL0     C50810  10.136   6.394   6.517 -0.0238  0.3657 -1.2319
  369MOL0     C50811  10.188   6.265   6.499  0.7840  0.4521 -0.8588
  369MOL0     C50812  10.235   6.223   6.356  1.4194  0.0977 -1.1690
  369MOL0     C50813  10.199   6.180   6.611 -0.1936  0.4041  0.4489
  369MOL0     C50814  10.257   6.041   6.598 -0.2936 -0.6252  0.2917
  369MOL0     O50815  10.327   6.004   6.495 -0.2925  0.0042  0.1824
  369MOL0     C50816  10.395   5.890   6.503 -0.5677 -0.5750 -0.3372
  369MOL0     C50817  10.523   5.925   6.546 -0.2164  0.8868  0.1703
  369MOL0     C50818  10.619   5.822   6.538 -0.1322  0.5770 -0.5513
  369MOL0     C50819  10.586   5.696   6.490  0.1423 -0.0513  0.4742
  369MOL0     O50820  10.692   5.614   6.481  0.1820 -0.8593  1.1216
  369MOL0     C50821  10.684   5.507   6.376  0.7127 -0.1349 -0.0254
  369MOL0     C50822  10.830   5.466   6.332 -0.0749 -0.1398  0.4570
  369MOL0     C50823  10.915   5.425   6.455  0.0372  0.2077  0.3714
  369MOL0     C50824  11.059   5.424   6.413 -0.3184  0.8876 -0.4054
  369MOL0     C50825  11.099   5.292   6.330  0.9388 -0.0661 -0.2442
  369MOL0     C50826  11.234   5.238   6.364  0.8683 -0.6161  0.0002
  369MOL0     C50827  11.237   5.158   6.495  0.1584 -0.6032  1.0949
  369MOL0     C50828  11.371   5.140   6.557 -0.3790 -0.4333 -0.6145
  369MOL0    Cl50829  11.455   5.295   6.594  0.1310 -0.5249  0.0890
  369MOL0     C50830  10.455   5.666   6.462  0.8437  0.7058 -0.2420
  369MOL0     C50831  10.352   5.761   6.465  0.3643  0.1273 -1.0523
  369MOL0     O50832  10.231   5.974   6.694  0.9182 -0.3441  0.1783
  369MOL0     C50833  10.135   6.212   6.736 -0.1395 -0.5282  0.0176
  369MOL0     C50834  10.094   6.346   6.738  0.5156  0.4533 -0.5816
  369MOL0     N50835   9.512   6.654   6.589 -1.0824 -1.2826  0.5758
  369MOL0     N50836   9.392   6.631   6.613 -0.7198  0.4992 -0.4245
  369MOL0     C50837   8.527   6.419   5.874 -0.5342 -0.3223 -0.1530
  369MOL0     C50838   8.462   6.509   5.790 -0.5848  0.0613  0.6453
  369MOL0     C50839   8.068   6.733   5.646 -1.2128 -0.2548  0.1705
  369MOL0     C50840   8.103   6.785   5.521 -0.2735  0.0436  0.2089
  369MOL0     C50841   8.012   6.856   5.443 -0.7997 -0.0621  0.2035
  369MOL0     C50842   7.891   6.907   5.502  0.2642  0.2799 -0.6850
  369MOL0     O50843   7.813   6.987   5.430 -0.3510 -0.0707  0.0638
  369MOL0     C50844   7.725   7.076   5.497 -0.3703 -0.2504 -0.4334
  369MOL0     C50845   7.728   7.212   5.423 -0.4582 -1.4283  0.7637
  369MOL0     C50846   7.867   7.279   5.429  0.4608 -0.2457 -0.0725
  369MOL0     C50847   7.920   7.326   5.560  0.6572 -0.5549  0.0610
  369MOL0     C50848   7.955   7.212   5.643 -0.9007 -0.4730 -0.1203
  369MOL0     C50849   8.001   7.133   5.719  0.0341 -0.0625  0.1790
  369MOL0     C50850   7.849   6.843   5.625  0.3269 -0.0687  0.2389
  369MOL0     C50851   7.933   6.747   5.692  0.5219  0.2471  0.7172
  369MOL0     C50852   7.874   6.691   5.819  0.0161  0.1335  0.2942
  369MOL0     H50853   8.152   6.359   5.796  0.0642 -1.2822 -0.7231
  369MOL0     H50854   8.261   6.225   5.970 -0.6565 -2.6463 -2.3921
  369MOL0     H50855   8.604   6.364   6.123 -0.0907 -0.1704  0.3110
  369MOL0     H50856   8.705   6.240   6.027  0.9629  1.0753 -0.1368
  369MOL0     H50857   8.555   6.215   6.283  0.4041 -0.8626 -1.8261
  369MOL0     H50858   8.635   6.084   6.195 -1.7923  0.0909 -1.9135
  369MOL0     H50859   8.852   6.177   6.242  0.9820  1.3083  2.0082
  369MOL0     H50860   8.794   6.344   6.243  1.3493 -0.1046  0.8988
  369MOL0     H50861   8.705   6.333   6.466 -0.1607  0.0569 -2.8412
  369MOL0     H50862   8.739   6.168   6.478  3.2462 -0.8372  1.8744
  369MOL0     H50863   8.998   6.215   6.452  0.4797  0.9222 -1.5604
  369MOL0     H50864   8.936   6.291   6.593 -0.7101 -1.4089 -0.3503
  369MOL0     H50865   9.003   6.423   6.336 -0.3468  1.1856  0.0490
  369MOL0     H50866   8.922   6.502   6.480 -1.2249 -0.6552  0.5187
  369MOL0     H50867   9.186   6.334   6.492  0.6822  0.1080 -0.2087
  369MOL0     H50868   9.125   6.446   6.622  0.9804  1.6539 -0.4268
  369MOL0     H50869   9.192   6.540   6.351 -1.8209  0.2510 -0.6331
  369MOL0     H50870   9.144   6.633   6.505  0.2926  0.1482 -0.4870
  369MOL0     H50871   9.447   6.462   6.335  1.1153 -2.4441  0.9885
  369MOL0     H50872   9.704   6.669   6.342  1.2958 -1.8779 -1.6911
  369MOL0     H50873   9.717   6.497   6.393  4.0507 -0.5110  2.0557
  369MOL0     H50874   9.768   6.731   6.595 -2.5601 -1.5178 -0.2688
  369MOL0     H50875   9.796   6.562   6.616  4.5405 -0.0544  0.9041
  369MOL0     H50876   9.961   6.569   6.396 -0.4358  2.1233 -1.6342
  369MOL0     H50877   9.931   6.741   6.415 -1.8109  0.8551 -0.0913
  369MOL0     H50878  10.142   6.651   6.497 -0.6167 -2.0608 -0.9549
  369MOL0     H50879  10.043   6.766   6.605  0.5311 -0.9508  1.3235
  369MOL0     H50880  10.129   6.451   6.425 -0.5436  2.1895 -0.1067
  369MOL0     H50881  10.176   6.286   6.288  0.3677  1.1167  0.5978
  369MOL0     H50882  10.202   6.120   6.344  0.9826  0.1119 -0.2031
  369MOL0     H50883  10.342   6.234   6.341  1.6632  0.4622  0.6224
  369MOL0     H50884  10.544   6.023   6.588 -2.0311  0.8838  1.1617
  369MOL0     H50885  10.719   5.853   6.564  0.1444 -1.2633  0.7176
  369MOL0     H50886  10.634   5.419   6.418  0.5986  0.4643  1.1126
  369MOL0     H50887  10.634   5.542   6.286  1.7144  1.0052 -0.1728
  369MOL0     H50888  10.820   5.392   6.253  0.0565  0.6326 -0.3019
  369MOL0     H50889  10.874   5.549   6.276  1.3700 -0.6842  0.7339
  369MOL0     H50890  10.882   5.330   6.499 -0.2041  0.9307  1.8420
  369MOL0     H50891  10.900   5.511   6.522 -1.5628 -0.2825  0.7084
  369MOL0     H50892  11.112   5.421   6.509 -2.7803  0.5836  1.0493
  369MOL0     H50893  11.065   5.518   6.359 -0.1685 -0.8420 -3.6185
  369MOL0     H50894  11.026   5.216   6.361  2.0373  0.2280  3.5768
  369MOL0     H50895  11.093   5.314   6.223  4.1894 -3.3364 -1.3095
  369MOL0     H50896  11.299   5.325   6.374  1.1219 -0.8179  0.1086
  369MOL0     H50897  11.262   5.173   6.280 -1.5873 -2.1399  0.2319
  369MOL0     H50898  11.199   5.057   6.474  2.4732 -1.2962 -0.0261
  369MOL0     H50899  11.179   5.200   6.577  1.4355 -0.0966  1.7575
  369MOL0     H50900  11.428   5.085   6.481 -1.1068 -4.4661  1.4944
  369MOL0     H50901  11.362   5.074   6.644 -0.3430  0.6900  0.2573
  369MOL0     H50902  10.426   5.568   6.424  0.4713  0.1580  1.3729
  369MOL0     H50903  10.251   5.748   6.428 -0.7495  1.8489  1.1926
  369MOL0     H50904  10.129   6.141   6.818  2.4362 -1.1885 -0.2578
  369MOL0     H50905  10.055   6.387   6.830  2.2861  2.1230 -0.5125
  369MOL0     H50906   8.634   6.431   5.891 -0.6252  2.9891 -1.0697
  369MOL0     H50907   8.514   6.591   5.740 -1.0330 -0.2573 -0.3660
  369MOL0     H50908   8.206   6.766   5.492  1.2659  1.6799  3.9598
  369MOL0     H50909   8.031   6.882   5.339 -1.6919  1.3736  0.3579
  369MOL0     H50910   7.624   7.034   5.502  0.2839 -1.6554  2.0200
  369MOL0     H50911   7.743   7.092   5.603 -1.7807 -3.9594  0.5208
  369MOL0     H50912   7.654   7.280   5.466 -2.1281 -0.1527 -3.5597
  369MOL0     H50913   7.699   7.206   5.318 -0.4399  0.8017  0.5731
  369MOL0     H50914   7.946   7.224   5.378  1.4439  2.1105 -1.2443
  369MOL0     H50915   7.854   7.369   5.368  0.7607 -0.5385 -0.5752
  369MOL0     H50916   7.847   7.392   5.609 -0.3989 -0.8660 -1.0316
  369MOL0     H50917   8.009   7.387   5.545  0.0191  0.1676 -0.9468
  369MOL0     H50918   8.035   7.063   5.793  1.1542  0.3187  0.0559
  369MOL0     H50919   7.757   6.881   5.668 -1.2300 -1.4839 -1.6223
  369MOL0     H50920   7.783   6.633   5.800  0.8985 -1.1291 -0.1505
  369MOL0     H50921   7.938   6.636   5.889 -0.7095 -1.9229 -0.5821
  369MOL0     H50922   7.837   6.779   5.873 -0.2419 -0.7586  1.6278
  370MOL0     O50923   6.359   6.706   7.187 -0.3249 -0.2562  0.4917
  370MOL0     C50924   6.286   6.725   7.089 -0.7650 -0.3497 -0.2088
  370MOL0     O50925   6.301   6.831   7.003  0.3674 -0.8843 -0.1175
  370MOL0     C50926   6.402   6.924   7.020 -0.0753 -1.0098  0.5249
  370MOL0     C50927   6.390   7.012   7.129 -0.1435  0.2239  1.0902
  370MOL0     C50928   6.500   7.093   7.167 -0.7288 -0.3623  0.2149
  370MOL0     C50929   6.622   7.089   7.097  0.4766 -0.0984  0.3560
  370MOL0     O50930   6.724   7.169   7.137 -0.3016 -0.3082  0.0149
  370MOL0     C50931   6.842   7.084   7.170 -0.6012 -0.6190 -0.8164
  370MOL0     C50932   6.932   7.171   7.255 -0.1107  0.5297 -0.4019
  370MOL0     C50933   6.979   7.296   7.181  0.7884  1.2241  0.5233
  370MOL0     C50934   7.033   7.399   7.284  0.8817 -0.3429 -0.6754
  370MOL0     C50935   7.143   7.484   7.227 -1.3109  0.0420 -0.2314
  370MOL0     C50936   7.282   7.406   7.241 -0.5731  0.5307  0.2950
  370MOL0     C50937   7.406   7.505   7.208  0.6489  0.4218  0.8515
  370MOL0     C50938   7.533   7.460   7.275 -0.2414 -0.7955  0.4929
  370MOL0     N50939   7.606   7.362   7.202  0.0178  0.5446 -0.4093
  370MOL0     C50940   7.593   7.217   7.201  0.0102 -0.4047 -0.1091
  370MOL0     C50941   7.680   7.173   7.109  0.1829  0.3264 -0.1604
  370MOL0     C50942   7.696   7.033   7.051  0.3615 -0.0153  0.0067
  370MOL0     C50943   7.555   6.986   7.002 -0.4093  0.2909  1.6718
  370MOL0     C50944   7.556   6.866   6.904  0.5492 -1.0388  0.1535
  370MOL0     C50945   7.425   6.853   6.834  0.0134 -0.5271 -0.2480
  370MOL0     O50946   7.314   6.850   6.918  0.4369  0.6042 -0.3265
  370MOL0     C50947   7.190   6.816   6.881  0.1409  0.0393 -0.7922
  370MOL0     C50948   7.160   6.788   6.745  0.3168  0.2796 -0.6215
  370MOL0     C50949   7.030   6.741   6.719 -0.2773 -0.5696  1.1646
  370MOL0     C50950   6.989   6.741   6.571 -1.3812  0.0544 -0.1668
  370MOL0     C50951   6.930   6.721   6.820  0.1291  0.3565 -0.0328
  370MOL0     C50952   6.788   6.684   6.790 -0.8170  0.6956 -0.4117
  370MOL0     O50953   6.737   6.589   6.873  0.3651  0.0479  0.7414
  370MOL0     C50954   6.618   6.527   6.853 -0.5274  0.0655  0.2389
  370MOL0     C50955   6.532   6.490   6.966 -0.6075  0.5252 -0.5660
  370MOL0     C50956   6.406   6.440   6.949 -0.1368  0.0072  0.4359
  370MOL0     C50957   6.360   6.424   6.816  0.1141  0.4798 -0.1322
  370MOL0     O50958   6.231   6.384   6.784 -0.3556  0.1349 -0.5340
  370MOL0     C50959   6.192   6.245   6.812 -0.0042 -0.4281  0.7285
  370MOL0     C50960   6.043   6.216   6.797  0.6725  0.3299 -0.9637
  370MOL0     C50961   6.009   6.070   6.845 -0.1231 -0.3690  0.6233
  370MOL0     C50962   5.869   6.063   6.902 -0.5900 -0.1467  0.2442
  370MOL0     C50963   5.847   5.924   6.948 -0.0162  1.3450  0.4938
  370MOL0     C50964   5.705   5.927   7.005 -0.4647 -0.0987  0.8759
  370MOL0     C50965   5.675   5.813   7.105  0.1415  0.6205  0.6768
  370MOL0     C50966   5.749   5.820   7.246  0.0993  0.1995 -0.1343
  370MOL0    Cl50967   5.678   5.722   7.373  0.0327 -0.1834 -0.5442
  370MOL0     C50968   6.440   6.457   6.705 -1.0043  0.5475  0.2474
  370MOL0     C50969   6.568   6.508   6.727  0.5133  0.3006  0.4929
  370MOL0     O50970   6.729   6.741   6.700 -0.8971 -0.2238 -1.0886
  370MOL0     C50971   6.967   6.762   6.949  0.1972 -0.1734  0.2814
  370MOL0     C50972   7.094   6.805   6.983 -0.0417 -0.1003  0.3421
  370MOL0     N50973   7.754   7.283   7.065  0.4797 -0.1319  0.8366
  370MOL0     N50974   7.703   7.395   7.115 -0.4862  0.3969  0.4237
  370MOL0     C50975   6.632   7.000   6.987  0.3659  0.2938  0.2996
  370MOL0     C50976   6.523   6.920   6.951 -0.6277 -0.5557 -0.5345
  370MOL0     C50977   6.171   6.633   7.064  0.0696 -0.8646  0.5417
  370MOL0     C50978   6.088   6.659   6.948  0.1146 -0.0003 -0.2585
  370MOL0     C50979   5.969   6.589   6.941  0.5985  0.5831  0.2937
  370MOL0     C50980   5.931   6.483   7.022  0.2337  0.4159  0.3691
  370MOL0     O50981   5.806   6.413   7.009 -0.4352  0.1989 -0.5020
  370MOL0     C50982   5.738   6.427   6.880 -0.0272  0.7991  0.6196
  370MOL0     C50983   5.604   6.336   6.874 -0.1741 -0.3772 -0.3245
  370MOL0     C50984   5.578   6.271   6.732 -0.0507  0.2703 -0.9502
  370MOL0     C50985   5.439   6.203   6.712  0.4948  0.2637  0.6301
  370MOL0     C50986   5.418   6.160   6.579 -0.2361  0.3073 -0.3421
  370MOL0     C50987   5.418   6.114   6.472  0.0214 -0.3489  0.2444
  370MOL0     C50988   6.014   6.459   7.132  0.3474 -0.4509  0.6169
  370MOL0     C50989   6.132   6.535   7.157  0.9012  0.1629  0.1713
  370MOL0     C50990   6.207   6.506   7.284  0.3417  0.6269  1.1610
  370MOL0     H50991   6.295   7.017   7.181 -0.3656 -0.7479  0.8016
  370MOL0     H50992   6.490   7.162   7.250  0.6495  1.3754 -0.9885
  370MOL0     H50993   6.894   7.069   7.075  0.3872  2.1093 -0.8066
  370MOL0     H50994   6.833   6.988   7.222  1.4287 -2.2160 -3.1803
  370MOL0     H50995   6.875   7.196   7.344 -0.3156 -0.4111 -0.2606
  370MOL0     H50996   7.023   7.125   7.296  0.2159 -0.9116 -2.5350
  370MOL0     H50997   7.059   7.254   7.120  1.5535 -0.8427  2.7916
  370MOL0     H50998   6.893   7.337   7.128  0.5547 -2.5099 -2.4655
  370MOL0     H50999   6.953   7.466   7.319  0.4341 -1.3365  0.2838
  370MOL0     H51000   7.068   7.352   7.377 -2.3402 -0.6084  0.5186
  370MOL0     H51001   7.153   7.568   7.296 -0.0094 -0.9406  0.8355
  370MOL0     H51002   7.127   7.522   7.126  1.8410  0.5157 -0.6321
  370MOL0     H51003   7.283   7.373   7.346  1.7178  0.1488  0.2032
  370MOL0     H51004   7.288   7.325   7.168  1.2492 -0.7277  1.7269
  370MOL0     H51005   7.373   7.606   7.232  0.8279  0.6950 -0.0150
  370MOL0     H51006   7.417   7.502   7.099 -0.6690  1.9635  0.6489
  370MOL0     H51007   7.591   7.552   7.286 -1.1926  0.2408 -2.3278
  370MOL0     H51008   7.509   7.411   7.370 -2.2910 -2.8161 -0.9394
  370MOL0     H51009   7.525   7.160   7.263 -2.5110  3.3603  0.9202
  370MOL0     H51010   7.722   6.974   7.140  0.6675  1.5946  1.0211
  370MOL0     H51011   7.784   7.033   6.986  2.0865 -0.0477  2.2177
  370MOL0     H51012   7.485   6.962   7.084 -0.0890  0.1821  1.9171
  370MOL0     H51013   7.514   7.073   6.951 -1.1786 -0.0966  1.6012
  370MOL0     H51014   7.627   6.873   6.821 -0.2707 -2.5794 -0.7256
  370MOL0     H51015   7.579   6.781   6.968 -0.0973 -0.7933  0.7348
  370MOL0     H51016   7.418   6.937   6.765  1.6106 -1.2941 -1.4082
  370MOL0     H51017   7.431   6.760   6.777 -0.1408 -1.6197  1.4478
  370MOL0     H51018   7.237   6.798   6.669  2.0952  0.7773  1.1695
  370MOL0     H51019   7.076   6.748   6.505 -0.2418  0.2660  1.3022
  370MOL0     H51020   6.930   6.831   6.548  2.6515  2.8811 -0.6062
  370MOL0     H51021   6.945   6.645   6.546 -0.1716 -0.6380  0.2856
  370MOL0     H51022   6.576   6.505   7.065 -0.6336 -0.9804 -0.2947
  370MOL0     H51023   6.342   6.419   7.035  1.2425 -0.2468  1.4356
  370MOL0     H51024   6.253   6.184   6.745 -0.0257  0.7857 -0.4473
  370MOL0     H51025   6.223   6.217   6.913 -0.0252 -1.0342  0.5672
  370MOL0     H51026   5.992   6.288   6.862 -0.6367  0.6197 -2.2702
  370MOL0     H51027   6.010   6.236   6.695  0.5423 -0.9775 -1.1957
  370MOL0     H51028   6.083   6.032   6.916  0.7382 -0.3940 -0.2701
  370MOL0     H51029   6.018   6.002   6.760  1.3464  2.1948 -1.4208
  370MOL0     H51030   5.787   6.097   6.838 -1.3145  1.2637  1.8438
  370MOL0     H51031   5.862   6.131   6.988  0.5993 -3.6181  3.3341
  370MOL0     H51032   5.861   5.858   6.862  3.2948  0.7141  1.3587
  370MOL0     H51033   5.919   5.885   7.021 -0.7839  1.3011  1.2560
  370MOL0     H51034   5.634   5.921   6.922  1.2398  2.0384 -0.8484
  370MOL0     H51035   5.687   6.014   7.069 -0.1349  0.7839 -0.1965
  370MOL0     H51036   5.711   5.722   7.057  1.7687  0.2288  2.5137
  370MOL0     H51037   5.568   5.800   7.123 -0.0375  2.1247  0.8250
  370MOL0     H51038   5.746   5.924   7.278 -0.1454 -0.3815  1.9401
  370MOL0     H51039   5.853   5.787   7.242 -0.1978 -0.9761  0.9501
  370MOL0     H51040   6.400   6.460   6.605  0.1867  1.3305 -0.2267
  370MOL0     H51041   6.624   6.536   6.638 -0.4375  0.0325 -0.2027
  370MOL0     H51042   6.899   6.741   7.031 -3.2387  0.1610 -2.2613
  370MOL0     H51043   7.122   6.807   7.088 -0.6296 -2.4758  0.6063
  370MOL0     H51044   6.711   6.989   6.914 -1.9400  0.0950 -2.3526
  370MOL0     H51045   6.522   6.846   6.872 -3.3945 -0.4270 -0.6985
  370MOL0     H51046   6.100   6.738   6.875 -2.6087  1.7399  1.0027
  370MOL0     H51047   5.902   6.616   6.861 -1.6914  2.1634  2.6039
  370MOL0     H51048   5.708   6.530   6.856 -2.3668 -0.3880 -2.2460
  370MOL0     H51049   5.800   6.386   6.800 -1.8764 -1.6439  0.3225
  370MOL0     H51050   5.523   6.400   6.912  1.4800  0.4944  1.9941
  370MOL0     H51051   5.615   6.252   6.944 -2.0917 -0.6906 -0.3585
  370MOL0     H51052   5.580   6.350   6.657  0.7074  2.5820  1.3299
  370MOL0     H51053   5.659   6.199   6.718 -1.0498 -1.4984  1.6018
  370MOL0     H51054   5.353   6.265   6.742 -0.7719  0.0073 -2.1361
  370MOL0     H51055   5.429   6.110   6.768 -3.7961 -1.8300 -3.0011
  370MOL0     H51056   5.398   6.079   6.372  1.6801 -0.0457 -0.2223
  370MOL0     H51057   5.983   6.378   7.198 -0.2330 -0.7711 -0.0435
  370MOL0     H51058   6.150   6.437   7.347  2.1404 -2.0894  0.0502
  370MOL0     H51059   6.302   6.457   7.260 -0.4499  0.1449 -1.2223
  370MOL0     H51060   6.222   6.592   7.349 -1.7105  2.5233 -0.7254
  371MOL0     O51061   7.618   3.594   1.785  0.4932 -0.2247 -0.4256
  371MOL0     C51062   7.649   3.529   1.687  0.1141 -0.5042  0.1111
  371MOL0     O51063   7.776   3.492   1.662 -0.1847 -0.3635 -0.0180
  371MOL0     C51064   7.863   3.483   1.775  0.4256  0.2854  0.8470
  371MOL0     C51065   7.899   3.380   1.857 -0.4753 -0.0332  0.4522
  371MOL0     C51066   8.000   3.402   1.954  1.0833 -0.6416  1.4563
  371MOL0     C51067   8.062   3.525   1.975  0.3711  0.3720 -1.0330
  371MOL0     O51068   8.165   3.528   2.071 -0.9748  0.4686 -0.0761
  371MOL0     C51069   8.212   3.656   2.107  0.4742 -0.4903  0.2510
  371MOL0     C51070   8.330   3.635   2.206 -0.6152  0.5352  0.1252
  371MOL0     C51071   8.416   3.754   2.228  0.7706  0.0776  0.3368
  371MOL0     C51072   8.356   3.873   2.300 -0.7270  0.4164  0.3005
  371MOL0     C51073   8.452   3.967   2.371 -0.8460  1.1811 -0.0197
  371MOL0     C51074   8.387   4.072   2.459 -0.5954  0.6787 -0.0945
  371MOL0     C51075   8.481   4.162   2.537  0.0411 -0.4056 -0.0460
  371MOL0     C51076   8.405   4.252   2.631  0.2435 -0.6672 -0.0564
  371MOL0     N51077   8.493   4.318   2.723 -0.4979 -0.5805 -0.0986
  371MOL0     C51078   8.539   4.455   2.729  0.6691  0.3493  1.0304
  371MOL0     C51079   8.619   4.452   2.843 -0.1937 -0.7218  0.3464
  371MOL0     C51080   8.700   4.568   2.895  0.2075  0.4411  0.0910
  371MOL0     C51081   8.770   4.646   2.785  0.4509  0.5248 -0.5580
  371MOL0     C51082   8.724   4.794   2.775 -0.9989  0.3671 -0.1853
  371MOL0     C51083   8.729   4.860   2.915  0.1037 -0.2215  0.7264
  371MOL0     O51084   8.754   4.997   2.891  0.1116 -0.4688 -0.3032
  371MOL0     C51085   8.771   5.062   3.012  1.0889 -0.3342 -0.0798
  371MOL0     C51086   8.896   5.102   3.069 -0.0492 -0.0351  0.8177
  371MOL0     C51087   8.908   5.153   3.201 -0.6059  0.8377  0.2300
  371MOL0     C51088   9.045   5.159   3.256 -0.0516  0.2106 -0.1684
  371MOL0     C51089   8.787   5.171   3.274  0.1226 -0.8590 -0.0306
  371MOL0     C51090   8.778   5.205   3.420  0.6156  0.2844 -0.7625
  371MOL0     O51091   8.665   5.247   3.471 -0.4528  0.0117  0.5855
  371MOL0     C51092   8.644   5.266   3.608 -0.8862  0.1737  0.7839
  371MOL0     C51093   8.675   5.165   3.695 -0.6014 -0.1748 -0.9782
  371MOL0     C51094   8.675   5.179   3.839 -0.7775 -0.3065 -1.0021
  371MOL0     C51095   8.633   5.309   3.882 -0.0990  0.2336 -0.0712
  371MOL0     O51096   8.602   5.336   4.013  0.2720  0.0243  0.1277
  371MOL0     C51097   8.464   5.287   4.046  0.1154 -0.5760 -1.2203
  371MOL0     C51098   8.439   5.332   4.190  0.4803 -0.0866 -0.0342
  371MOL0     C51099   8.297   5.307   4.225 -0.1794 -0.9054 -0.7863
  371MOL0     C51100   8.271   5.321   4.377  0.5008  0.2350  0.0345
  371MOL0     C51101   8.137   5.276   4.419 -0.2648  0.1441 -0.5198
  371MOL0     C51102   8.018   5.367   4.384 -0.3421  0.7682 -0.4394
  371MOL0     C51103   8.005   5.489   4.482 -0.5381  0.1692 -0.0799
  371MOL0     C51104   7.884   5.563   4.427 -0.4542 -1.0968 -0.4957
  371MOL0    Cl51105   7.870   5.702   4.532 -0.0913  0.2133 -0.2201
  371MOL0     C51106   8.586   5.408   3.798 -1.3785  0.9884  0.3696
  371MOL0     C51107   8.592   5.386   3.659  0.3463 -0.1489 -0.2248
  371MOL0     O51108   8.876   5.173   3.489  0.2283 -0.3196 -0.4031
  371MOL0     C51109   8.662   5.161   3.207 -0.3607  0.4422 -0.4250
  371MOL0     C51110   8.654   5.102   3.082  0.0797  0.1497 -0.4341
  371MOL0     N51111   8.627   4.328   2.901 -0.2661 -0.1004 -0.0853
  371MOL0     N51112   8.564   4.254   2.821  0.1680  0.2011  0.5916
  371MOL0     C51113   8.022   3.634   1.900 -0.0522  0.0145  0.2172
  371MOL0     C51114   7.928   3.606   1.794  0.0158 -0.0620 -0.1919
  371MOL0     C51115   7.544   3.478   1.599 -0.1372  0.5569 -0.0089
  371MOL0     C51116   7.577   3.360   1.520  0.0300  0.1034 -0.0967
  371MOL0     C51117   7.479   3.296   1.450  1.0001  0.7430 -0.9168
  371MOL0     C51118   7.343   3.333   1.466  0.0251 -0.2011 -0.6054
  371MOL0     O51119   7.252   3.247   1.396 -0.5398 -0.6167  0.2617
  371MOL0     C51120   7.108   3.280   1.407 -0.4349  0.2994 -0.4872
  371MOL0     C51121   7.018   3.163   1.361  0.7801 -0.3352 -0.2265
  371MOL0     C51122   7.033   3.149   1.209  0.3564 -0.8606  0.6399
  371MOL0     C51123   6.914   3.067   1.152  0.1735  0.1537 -0.1404
  371MOL0     C51124   6.924   3.093   1.006 -0.0462  0.0840  0.4453
  371MOL0     C51125   6.933   3.120   0.884  0.4094 -0.2632 -0.1518
  371MOL0     C51126   7.306   3.451   1.538  1.1242 -0.1087  0.0618
  371MOL0     C51127   7.408   3.526   1.601 -0.7981  0.5971  0.3566
  371MOL0     C51128   7.369   3.658   1.668 -0.6506 -0.0605  0.1984
  371MOL0     H51129   7.846   3.286   1.867  0.1218 -0.1804  2.7277
  371MOL0     H51130   8.027   3.319   2.019  2.6274 -1.1567  0.2021
  371MOL0     H51131   8.129   3.709   2.156 -1.2871 -3.2836  0.5661
  371MOL0     H51132   8.250   3.714   2.024  1.1203  0.2300  1.0320
  371MOL0     H51133   8.284   3.589   2.295 -3.0968 -1.2365 -1.9010
  371MOL0     H51134   8.393   3.549   2.183 -0.4288  0.3798  1.1547
  371MOL0     H51135   8.501   3.722   2.289 -0.0932 -0.7028  1.1740
  371MOL0     H51136   8.465   3.784   2.135 -1.2633  1.0078 -0.5079
  371MOL0     H51137   8.296   3.923   2.223 -1.6993  3.1758  2.6765
  371MOL0     H51138   8.279   3.845   2.372 -0.3984  0.1625  0.5558
  371MOL0     H51139   8.507   4.020   2.293 -1.8837 -1.1065 -2.4894
  371MOL0     H51140   8.521   3.904   2.428  1.8496  0.9511 -3.2144
  371MOL0     H51141   8.326   4.137   2.396 -0.9181 -0.4493 -0.9615
  371MOL0     H51142   8.332   4.017   2.536  2.0909 -0.8034  0.9340
  371MOL0     H51143   8.551   4.220   2.477  0.8409  2.1142  3.0110
  371MOL0     H51144   8.542   4.093   2.596 -1.0281 -1.4481 -0.1312
  371MOL0     H51145   8.350   4.323   2.569  0.6200 -1.7131 -1.6626
  371MOL0     H51146   8.338   4.195   2.697  1.1387  0.9745  2.3967
  371MOL0     H51147   8.513   4.528   2.654 -0.3469 -0.4664  0.5628
  371MOL0     H51148   8.777   4.531   2.963  0.3316  1.2216  0.3849
  371MOL0     H51149   8.628   4.633   2.946  1.1360  0.9112  0.8524
  371MOL0     H51150   8.877   4.635   2.804  0.0537 -1.2497  0.9223
  371MOL0     H51151   8.755   4.607   2.684  0.9551  0.6614 -0.6884
  371MOL0     H51152   8.777   4.852   2.699  0.0945  1.0669  1.0798
  371MOL0     H51153   8.617   4.789   2.754 -1.0994 -1.4841  0.6087
  371MOL0     H51154   8.634   4.854   2.969  0.8570 -2.0293  1.9416
  371MOL0     H51155   8.801   4.819   2.986 -0.0707  0.7266  1.4753
  371MOL0     H51156   8.989   5.085   3.014 -1.0342 -2.1769 -0.3001
  371MOL0     H51157   9.049   5.248   3.320 -1.3842 -1.2978  2.1514
  371MOL0     H51158   9.121   5.152   3.178  0.8772 -2.7936  0.8571
  371MOL0     H51159   9.058   5.076   3.326  1.2719  0.1150 -0.4987
  371MOL0     H51160   8.718   5.076   3.652  1.1235  0.4140 -0.5483
  371MOL0     H51161   8.717   5.109   3.910  0.2255 -0.5130 -1.7730
  371MOL0     H51162   8.392   5.317   3.970 -0.6123  2.0584  0.4055
  371MOL0     H51163   8.461   5.177   4.051 -2.8335 -0.5537 -1.0316
  371MOL0     H51164   8.504   5.287   4.266 -0.6341  1.1058  1.7238
  371MOL0     H51165   8.465   5.438   4.192  1.7883 -0.3144 -2.3782
  371MOL0     H51166   8.262   5.215   4.179  0.6250 -0.0215 -3.3801
  371MOL0     H51167   8.233   5.382   4.176  1.0246 -0.9544 -2.5375
  371MOL0     H51168   8.276   5.428   4.399 -5.3518  0.5875  1.2141
  371MOL0     H51169   8.339   5.261   4.438 -0.5162  0.3135  1.2726
  371MOL0     H51170   8.104   5.175   4.392  0.1947  0.0981 -0.9253
  371MOL0     H51171   8.148   5.268   4.527  2.3019  0.9561 -0.6563
  371MOL0     H51172   7.921   5.317   4.389  0.6792 -1.2309  1.8632
  371MOL0     H51173   8.040   5.402   4.283 -1.9438  0.8037 -0.8018
  371MOL0     H51174   8.094   5.553   4.474 -0.2162 -0.4289 -1.5832
  371MOL0     H51175   7.976   5.464   4.584 -2.9473 -0.8636 -0.9439
  371MOL0     H51176   7.797   5.496   4.428  1.4463 -3.6834 -0.8437
  371MOL0     H51177   7.897   5.597   4.324  2.9785  1.3257  0.5573
  371MOL0     H51178   8.553   5.503   3.839  1.3996  2.6544 -0.9225
  371MOL0     H51179   8.564   5.465   3.591 -0.3510  0.2653  0.5197
  371MOL0     H51180   8.570   5.182   3.259  1.1072  1.0516  2.1290
  371MOL0     H51181   8.558   5.088   3.032  1.5494  1.8428 -4.0445
  371MOL0     H51182   8.072   3.729   1.914 -0.5394 -0.0364  2.6967
  371MOL0     H51183   7.913   3.689   1.725  3.7614  0.2629 -0.8195
  371MOL0     H51184   7.680   3.327   1.526 -0.2806 -1.4772 -2.0042
  371MOL0     H51185   7.498   3.213   1.383  0.1734  0.0615 -0.3309
  371MOL0     H51186   7.073   3.299   1.509 -2.7152 -0.6351 -1.0258
  371MOL0     H51187   7.080   3.374   1.360 -3.5277 -0.3678 -0.2088
  371MOL0     H51188   6.914   3.181   1.390  0.3089 -0.7111 -1.5858
  371MOL0     H51189   7.054   3.068   1.403  1.5315  0.4642  0.9713
  371MOL0     H51190   7.046   3.248   1.166 -0.3965 -1.1439 -0.2820
  371MOL0     H51191   7.123   3.095   1.175  0.1166 -1.2116  0.5561
  371MOL0     H51192   6.816   3.103   1.183  0.1553 -0.1893  0.2014
  371MOL0     H51193   6.926   2.961   1.177 -1.8739 -0.3722 -1.2096
  371MOL0     H51194   6.950   3.127   0.779 -0.7557  0.1588 -0.3322
  371MOL0     H51195   7.203   3.484   1.534  1.0559 -0.1439  1.2327
  371MOL0     H51196   7.265   3.689   1.650 -1.0146 -0.7907  0.9370
  371MOL0     H51197   7.381   3.659   1.777  0.5553 -1.0203  0.0906
  371MOL0     H51198   7.436   3.738   1.634  0.7416  0.0587  2.9246
  372MOL0     O51199   5.776   1.130   2.780  0.4408  0.0083 -1.3403
  372MOL0     C51200   5.778   1.197   2.891  1.0571  0.2868 -0.0870
  372MOL0     O51201   5.887   1.201   2.965 -0.1350 -0.7923  0.4277
  372MOL0     C51202   5.989   1.122   2.940  0.4323 -0.2229  0.5745
  372MOL0     C51203   6.038   1.049   3.045 -0.7111 -0.7006  0.4354
  372MOL0     C51204   6.146   0.955   3.024 -0.3335 -0.6937  0.0901
  372MOL0     C51205   6.209   0.955   2.902  0.5060  0.2498  0.2244
  372MOL0     O51206   6.316   0.875   2.886  0.2487 -0.5489 -0.7537
  372MOL0     C51207   6.298   0.769   2.786  0.0743 -0.2218 -0.0087
  372MOL0     C51208   6.377   0.790   2.661 -0.0616  0.7034 -0.5337
  372MOL0     C51209   6.537   0.816   2.708 -0.1506  0.6097  0.4307
  372MOL0     C51210   6.631   0.811   2.588  0.2548 -0.4173 -0.7933
  372MOL0     C51211   6.781   0.826   2.626 -0.5093  0.3064  0.2849
  372MOL0     C51212   6.872   0.863   2.504 -0.6877 -0.0202 -0.0269
  372MOL0     C51213   6.861   0.773   2.376  0.4766  0.5607 -0.1099
  372MOL0     C51214   6.860   0.619   2.385 -0.2357  0.0690 -0.2934
  372MOL0     N51215   6.987   0.576   2.420  0.0680 -0.1348 -0.0851
  372MOL0     C51216   7.079   0.536   2.320  0.1112 -0.3135 -0.1470
  372MOL0     C51217   7.184   0.488   2.377  0.0868  1.2768  0.3338
  372MOL0     C51218   7.318   0.438   2.313 -0.1429  0.0122 -0.4516
  372MOL0     C51219   7.441   0.459   2.411  0.2757  0.3366  0.4199
  372MOL0     C51220   7.454   0.613   2.432  0.6698 -0.0748 -0.0575
  372MOL0     C51221   7.548   0.666   2.326 -0.3674 -0.6893 -0.5190
  372MOL0     O51222   7.670   0.590   2.330  0.5417  0.0558  0.2894
  372MOL0     C51223   7.784   0.622   2.261 -1.3573  0.2489 -0.7944
  372MOL0     C51224   7.889   0.526   2.271  0.5916 -0.2940 -0.2495
  372MOL0     C51225   8.013   0.553   2.214 -0.5570 -0.8614  0.6457
  372MOL0     C51226   8.100   0.433   2.194  0.0367  0.6973 -0.5401
  372MOL0     C51227   8.041   0.680   2.144  0.1303  0.2234  0.5293
  372MOL0     C51228   8.160   0.696   2.055  1.5078  0.2137 -0.0073
  372MOL0     O51229   8.253   0.596   2.044 -0.5760  0.2126  0.4130
  372MOL0     C51230   8.378   0.645   1.999 -1.0358  0.3833  0.1505
  372MOL0     C51231   8.422   0.618   1.874  1.0693 -0.0208  0.7506
  372MOL0     C51232   8.554   0.652   1.838  0.8608 -0.7305 -0.5139
  372MOL0     C51233   8.640   0.729   1.927 -0.0187  0.8470 -0.1828
  372MOL0     O51234   8.761   0.783   1.878  0.9528 -0.1919  0.1314
  372MOL0     C51235   8.827   0.728   1.768  0.7992 -0.0220 -0.1494
  372MOL0     C51236   8.970   0.770   1.772  0.3294  0.7423 -0.5459
  372MOL0     C51237   9.049   0.710   1.890 -0.6820  0.8424  0.5245
  372MOL0     C51238   9.083   0.559   1.890  1.0418  0.8514  0.3643
  372MOL0     C51239   9.056   0.480   2.021 -0.1072  0.5233  0.4230
  372MOL0     C51240   8.907   0.481   2.058  0.2753 -0.1589 -0.6903
  372MOL0     C51241   8.881   0.402   2.180  0.2040 -0.2580  0.7136
  372MOL0     C51242   8.727   0.418   2.208 -0.1696  0.4643  1.5386
  372MOL0    Cl51243   8.673   0.288   2.319  0.0261  0.5667 -0.3390
  372MOL0     C51244   8.596   0.757   2.055  0.0626  0.2758  0.6505
  372MOL0     C51245   8.466   0.713   2.088  1.0487  0.4507 -0.3759
  372MOL0     O51246   8.160   0.796   1.978  0.0879  0.7109  0.2960
  372MOL0     C51247   7.939   0.781   2.151 -0.0260 -1.1553 -0.0885
  372MOL0     C51248   7.814   0.750   2.208  0.9852 -0.6618  0.1645
  372MOL0     N51249   7.162   0.502   2.514  0.5461 -0.0716  0.0952
  372MOL0     N51250   7.046   0.538   2.540  0.2441 -1.2772 -0.3230
  372MOL0     C51251   6.172   1.043   2.802  0.5289 -0.2459 -0.6895
  372MOL0     C51252   6.061   1.127   2.819 -0.7240  0.1484  0.1082
  372MOL0     C51253   5.655   1.276   2.919  0.7897 -0.0360 -0.2763
  372MOL0     C51254   5.564   1.286   2.816  0.0860  0.1825  0.0224
  372MOL0     C51255   5.446   1.365   2.821 -0.3501  0.4433  0.4551
  372MOL0     C51256   5.409   1.435   2.935 -1.0434  0.2214  0.5676
  372MOL0     O51257   5.311   1.535   2.932 -0.8911  0.4565 -0.9926
  372MOL0     C51258   5.203   1.530   2.834 -0.6291  1.1965  0.6010
  372MOL0     C51259   5.075   1.597   2.858 -0.2906 -0.3709 -0.7184
  372MOL0     C51260   4.987   1.584   2.738  0.1682 -0.2384 -0.1570
  372MOL0     C51261   4.860   1.674   2.758  0.4215  0.1786 -0.2022
  372MOL0     C51262   4.778   1.612   2.869 -0.3736  0.1891  0.7488
  372MOL0     C51263   4.705   1.539   2.941  0.5354 -0.1578  0.1099
  372MOL0     C51264   5.501   1.417   3.041  0.4543 -1.3582 -0.8256
  372MOL0     C51265   5.618   1.343   3.039 -0.3889 -0.5356  0.4764
  372MOL0     C51266   5.713   1.344   3.160 -0.0813 -0.2717 -1.1241
  372MOL0     H51267   5.986   1.070   3.138 -1.8681  1.5002 -0.6249
  372MOL0     H51268   6.179   0.883   3.099 -0.4720  0.2358  1.0651
  372MOL0     H51269   6.189   0.765   2.775 -0.1739  1.8694  1.2324
  372MOL0     H51270   6.336   0.678   2.834  1.4779  0.7562  0.7679
  372MOL0     H51271   6.373   0.707   2.591  2.3415  1.7444 -2.0274
  372MOL0     H51272   6.342   0.878   2.606  0.6624  2.8914  2.2952
  372MOL0     H51273   6.542   0.918   2.748  0.4958  1.9322 -2.7110
  372MOL0     H51274   6.571   0.739   2.778  0.7029  0.1285 -0.4857
  372MOL0     H51275   6.604   0.716   2.542  1.3185 -1.5998  0.9115
  372MOL0     H51276   6.589   0.895   2.531 -2.5852  0.6323  2.4601
  372MOL0     H51277   6.812   0.729   2.666 -0.9147  0.2103  0.3734
  372MOL0     H51278   6.792   0.901   2.705 -1.8745 -0.6479  1.4475
  372MOL0     H51279   6.844   0.964   2.472 -0.5420 -0.3640 -1.3085
  372MOL0     H51280   6.973   0.875   2.544 -1.4173  0.6739  1.6947
  372MOL0     H51281   6.940   0.799   2.305  0.2025  2.3832  0.1962
  372MOL0     H51282   6.766   0.795   2.325  0.6768  0.3098 -0.5941
  372MOL0     H51283   6.787   0.593   2.463 -0.4894  4.3916  1.2036
  372MOL0     H51284   6.842   0.570   2.290  1.8870 -2.5663  0.5462
  372MOL0     H51285   7.064   0.535   2.212  1.5720 -0.5347 -0.3595
  372MOL0     H51286   7.329   0.499   2.223 -5.6206  3.4418  0.7137
  372MOL0     H51287   7.298   0.331   2.300 -1.1928 -0.3339  2.9717
  372MOL0     H51288   7.415   0.419   2.510  0.4165 -0.4551  0.1446
  372MOL0     H51289   7.523   0.401   2.367 -1.4397 -2.7508  0.9499
  372MOL0     H51290   7.357   0.662   2.445  0.8886  0.0159  1.3490
  372MOL0     H51291   7.509   0.630   2.525  1.7760  0.8406 -0.8480
  372MOL0     H51292   7.509   0.659   2.224 -0.9428 -2.8860 -0.2005
  372MOL0     H51293   7.571   0.771   2.345  1.8089 -1.4952  1.9465
  372MOL0     H51294   7.861   0.429   2.312 -1.5802  0.3445 -0.0896
  372MOL0     H51295   8.199   0.443   2.240 -0.2682  0.8037  0.0992
  372MOL0     H51296   8.116   0.417   2.087  0.4768  0.2646 -0.4178
  372MOL0     H51297   8.048   0.350   2.243 -1.9644  0.4792 -2.8548
  372MOL0     H51298   8.361   0.548   1.817 -0.9180  0.3273  2.3277
  372MOL0     H51299   8.579   0.621   1.737 -0.5560 -0.3898 -0.9935
  372MOL0     H51300   8.818   0.619   1.765 -2.6209  0.0467  2.0120
  372MOL0     H51301   8.773   0.755   1.677  2.0874 -0.1303 -0.9698
  372MOL0     H51302   9.024   0.735   1.683  0.6630 -3.3709  1.0376
  372MOL0     H51303   8.971   0.879   1.773  0.6095  0.7468 -0.9175
  372MOL0     H51304   8.988   0.733   1.977 -0.8518  1.7183  0.1843
  372MOL0     H51305   9.149   0.752   1.901 -0.1566 -1.0310  4.3385
  372MOL0     H51306   9.185   0.548   1.852  1.0732 -1.5707  1.0098
  372MOL0     H51307   9.023   0.497   1.824  2.7169  0.0884 -0.4830
  372MOL0     H51308   9.097   0.380   2.006  2.4829  1.1845  2.3888
  372MOL0     H51309   9.114   0.518   2.106  0.6948  2.3435 -0.8908
  372MOL0     H51310   8.847   0.454   1.970  1.5090 -1.1720 -1.2505
  372MOL0     H51311   8.881   0.585   2.081 -2.9644  0.1094 -4.3853
  372MOL0     H51312   8.939   0.447   2.262 -0.9956  1.5271  0.6543
  372MOL0     H51313   8.913   0.298   2.170  5.1441  0.8622  1.9456
  372MOL0     H51314   8.667   0.409   2.117 -1.3081 -0.2200  2.3377
  372MOL0     H51315   8.701   0.517   2.247 -0.9776  1.3305 -1.0001
  372MOL0     H51316   8.659   0.803   2.130 -0.7068  2.4057  0.0565
  372MOL0     H51317   8.439   0.725   2.192  2.0927  0.7978 -0.1235
  372MOL0     H51318   7.968   0.871   2.097  0.7630 -0.6684  1.0997
  372MOL0     H51319   7.737   0.827   2.201  0.2645 -1.4698 -1.2325
  372MOL0     H51320   6.231   1.046   2.711 -1.4304  0.6838 -2.0051
  372MOL0     H51321   6.041   1.194   2.736  1.4701  1.3726  0.5003
  372MOL0     H51322   5.593   1.245   2.720  2.8271 -3.1368  2.0366
  372MOL0     H51323   5.416   1.381   2.718  1.9782 -1.0988 -0.5595
  372MOL0     H51324   5.246   1.561   2.738  0.4676 -0.0457  0.6639
  372MOL0     H51325   5.175   1.426   2.813 -0.6555  1.5524 -1.3004
  372MOL0     H51326   5.094   1.699   2.892  1.7397 -0.3352 -1.7807
  372MOL0     H51327   5.038   1.551   2.950  2.3191  2.1268  1.7919
  372MOL0     H51328   5.054   1.595   2.653  0.5929 -2.7943 -0.2253
  372MOL0     H51329   4.956   1.481   2.718  1.4027 -0.8046  0.6856
  372MOL0     H51330   4.796   1.691   2.671  1.3099  2.0014 -0.5372
  372MOL0     H51331   4.885   1.777   2.784 -1.0771  1.1056 -2.1837
  372MOL0     H51332   4.645   1.480   3.007 -0.1346 -0.1646 -0.4950
  372MOL0     H51333   5.477   1.473   3.131  2.4571  0.4814 -1.3413
  372MOL0     H51334   5.776   1.255   3.174  1.8895  1.0147 -1.3897
  372MOL0     H51335   5.785   1.426   3.150 -1.4669  1.2658  0.7904
  372MOL0     H51336   5.669   1.362   3.258  2.2287  0.5320 -0.1551
  373MOL0     O51337   2.625   2.815   1.917  0.3163 -0.7859  0.3792
  373MOL0     C51338   2.582   2.798   1.802 -0.7867  0.7342  0.6000
  373MOL0     O51339   2.663   2.800   1.688  0.4490 -0.2296  0.2607
  373MOL0     C51340   2.795   2.837   1.680  0.1253  0.1119  1.1393
  373MOL0     C51341   2.858   2.920   1.778  0.1152 -0.1710 -0.1788
  373MOL0     C51342   2.991   2.948   1.779 -0.0768 -0.1079 -0.2815
  373MOL0     C51343   3.072   2.894   1.687 -0.1350 -0.2838  0.3463
  373MOL0     O51344   3.205   2.913   1.690 -0.1278 -0.1712 -0.2022
  373MOL0     C51345   3.261   2.981   1.576  0.6120  0.0385 -0.2414
  373MOL0     C51346   3.386   3.049   1.615  0.4904  0.4231 -0.3366
  373MOL0     C51347   3.512   2.972   1.582  0.0184 -0.1137  1.0783
  373MOL0     C51348   3.643   3.047   1.627 -0.3401  0.1118  0.2895
  373MOL0     C51349   3.765   2.961   1.627  0.6953 -0.2575 -0.5374
  373MOL0     C51350   3.887   3.055   1.653 -1.0887 -0.4478  0.1725
  373MOL0     C51351   4.022   2.981   1.663 -0.3636  0.0385  0.5943
  373MOL0     C51352   4.129   3.073   1.717  0.3257 -0.8649 -0.1436
  373MOL0     N51353   4.176   3.179   1.620  0.1849  0.7233  0.1367
  373MOL0     C51354   4.218   3.307   1.666  0.5574  0.4882  0.6413
  373MOL0     C51355   4.295   3.355   1.575 -0.1931 -0.3861 -0.0281
  373MOL0     C51356   4.338   3.499   1.573  0.5958  0.0939  0.2653
  373MOL0     C51357   4.481   3.523   1.546 -0.2148  0.6063  0.3083
  373MOL0     C51358   4.554   3.484   1.676 -0.7119  0.4007 -0.2340
  373MOL0     C51359   4.704   3.522   1.671  0.1672 -0.0508  1.0815
  373MOL0     O51360   4.778   3.464   1.776 -0.2056  0.1900  0.9421
  373MOL0     C51361   4.913   3.492   1.783  0.6723  0.0757 -0.7566
  373MOL0     C51362   4.986   3.583   1.703 -0.1362  0.7789  0.2462
  373MOL0     C51363   5.120   3.608   1.736  0.6781  1.1194 -0.7045
  373MOL0     C51364   5.200   3.703   1.654  0.0675  0.0532  0.0442
  373MOL0     C51365   5.183   3.538   1.841  0.0206 -0.8763  0.2918
  373MOL0     C51366   5.320   3.561   1.898  0.0722  0.3690  0.5273
  373MOL0     O51367   5.372   3.697   1.916  0.8877  0.2170 -0.5160
  373MOL0     C51368   5.503   3.700   1.963 -1.0310 -0.0219  0.0495
  373MOL0     C51369   5.540   3.660   2.092 -0.3662 -0.2208  0.2478
  373MOL0     C51370   5.673   3.663   2.136 -0.6190  0.3387 -0.7188
  373MOL0     C51371   5.771   3.718   2.046  0.3775  0.2222 -0.2944
  373MOL0     O51372   5.906   3.748   2.076 -0.3310  0.7179  0.6322
  373MOL0     C51373   5.971   3.678   2.187  0.0615 -0.3045 -0.5050
  373MOL0     C51374   6.117   3.716   2.203  0.3269  0.0250 -0.7076
  373MOL0     C51375   6.209   3.658   2.092 -0.4447  0.7405  0.1970
  373MOL0     C51376   6.306   3.769   2.040  0.5646 -0.7255 -0.2509
  373MOL0     C51377   6.423   3.723   1.960  0.8581 -0.3246 -0.7930
  373MOL0     C51378   6.515   3.842   1.925  0.3410  0.4215  1.1372
  373MOL0     C51379   6.600   3.813   1.794 -0.3296 -0.6721  0.4520
  373MOL0     C51380   6.694   3.921   1.734  0.4056  0.0698 -1.7054
  373MOL0    Cl51381   6.603   4.051   1.630  0.4356 -0.1256  0.0433
  373MOL0     C51382   5.734   3.750   1.916  0.2009 -0.1236  0.3431
  373MOL0     C51383   5.603   3.741   1.874  0.0370 -0.9517  0.4424
  373MOL0     O51384   5.391   3.454   1.905  0.4675  0.0929  0.2231
  373MOL0     C51385   5.111   3.447   1.909 -0.1645  1.4452  0.1488
  373MOL0     C51386   4.979   3.426   1.886  0.1349  0.9081  0.1049
  373MOL0     N51387   4.316   3.254   1.479  0.6012  0.4036 -0.6354
  373MOL0     N51388   4.246   3.150   1.506  0.3433  0.3394 -0.9508
  373MOL0     C51389   3.017   2.796   1.600 -0.4326 -0.0623  0.0711
  373MOL0     C51390   2.880   2.766   1.594 -0.0994 -0.6644 -0.5761
  373MOL0     C51391   2.441   2.745   1.769  0.1131  0.3207 -0.5811
  373MOL0     C51392   2.431   2.646   1.670  0.2353 -0.6273  0.5478
  373MOL0     C51393   2.310   2.586   1.646 -0.7689  0.2009  0.0687
  373MOL0     C51394   2.192   2.615   1.716  0.6755  1.0136  1.3323
  373MOL0     O51395   2.073   2.568   1.659 -0.0631 -0.8419  0.4882
  373MOL0     C51396   1.942   2.593   1.711 -0.1821  0.5092  0.1806
  373MOL0     C51397   1.854   2.481   1.667 -0.4640  0.0328 -0.3602
  373MOL0     C51398   1.828   2.495   1.517 -0.9368 -0.6799  0.3225
  373MOL0     C51399   1.695   2.428   1.480  0.2964 -0.6173 -0.6564
  373MOL0     C51400   1.675   2.402   1.336 -0.6738 -0.5260  0.0306
  373MOL0     C51401   1.657   2.386   1.219 -0.7578  0.5517 -0.2087
  373MOL0     C51402   2.203   2.704   1.822  1.0874  0.3657 -0.0745
  373MOL0     C51403   2.325   2.769   1.853 -0.9831  0.2424  0.1923
  373MOL0     C51404   2.325   2.849   1.983  0.1438  0.0055 -0.0073
  373MOL0     H51405   2.792   2.969   1.849 -1.0831  1.6052 -2.3840
  373MOL0     H51406   3.025   3.011   1.861 -1.1556  0.5605 -0.3311
  373MOL0     H51407   3.183   3.046   1.535 -1.3240 -1.2981  1.1684
  373MOL0     H51408   3.277   2.910   1.494 -2.2980  2.2126 -2.9580
  373MOL0     H51409   3.390   3.143   1.559  0.4234  0.2599 -0.6181
  373MOL0     H51410   3.379   3.075   1.721 -3.5735  0.0033 -0.3692
  373MOL0     H51411   3.504   2.870   1.620  2.1807 -0.0057  1.9919
  373MOL0     H51412   3.514   2.964   1.473  0.6600  0.6991  1.0161
  373MOL0     H51413   3.669   3.121   1.550 -1.9912  0.3183 -0.1014
  373MOL0     H51414   3.619   3.090   1.724  0.1401 -1.0373  0.9283
  373MOL0     H51415   3.759   2.899   1.537  0.1272 -1.1981  0.1270
  373MOL0     H51416   3.764   2.894   1.714  3.1054  0.1922 -0.0988
  373MOL0     H51417   3.902   3.123   1.568 -2.2020  0.6562  0.8209
  373MOL0     H51418   3.860   3.117   1.739 -1.5571 -2.6884  1.7319
  373MOL0     H51419   4.049   2.919   1.577  0.9253  0.1082  0.9423
  373MOL0     H51420   4.015   2.911   1.746  0.2013 -1.3899 -0.5323
  373MOL0     H51421   4.091   3.123   1.806  0.0728 -0.7497 -0.3129
  373MOL0     H51422   4.215   3.011   1.743  1.3061  0.0345 -1.1304
  373MOL0     H51423   4.181   3.360   1.753  1.2668 -1.7798  2.4443
  373MOL0     H51424   4.309   3.555   1.662  1.1056  2.1214 -0.7603
  373MOL0     H51425   4.284   3.560   1.499  0.5335  1.3221  1.2949
  373MOL0     H51426   4.506   3.458   1.462 -2.2018  1.3452 -0.9251
  373MOL0     H51427   4.498   3.628   1.524  2.5403  0.8301  2.8916
  373MOL0     H51428   4.510   3.528   1.766  1.9124 -1.7311  2.2466
  373MOL0     H51429   4.540   3.376   1.686  0.7714  0.1310 -0.7795
  373MOL0     H51430   4.756   3.490   1.580  1.0371  1.9704  0.8179
  373MOL0     H51431   4.714   3.630   1.682 -0.1378  0.0759  0.1578
  373MOL0     H51432   4.936   3.622   1.614 -1.7742 -2.4890 -0.4401
  373MOL0     H51433   5.275   3.637   1.608 -1.9066 -0.7688 -2.2413
  373MOL0     H51434   5.251   3.780   1.712 -0.4994 -1.7087  3.1309
  373MOL0     H51435   5.140   3.743   1.571  1.2546 -0.8183 -1.2835
  373MOL0     H51436   5.461   3.624   2.156 -1.8283  0.7593 -0.9389
  373MOL0     H51437   5.705   3.631   2.235  0.1657  0.6835 -0.8485
  373MOL0     H51438   5.924   3.705   2.282  3.4494  2.1245  0.6746
  373MOL0     H51439   5.954   3.571   2.174 -1.3611 -0.0774 -0.7923
  373MOL0     H51440   6.129   3.824   2.198  1.2224 -0.0171  0.1829
  373MOL0     H51441   6.154   3.686   2.301  3.4991 -1.2718 -2.1570
  373MOL0     H51442   6.148   3.628   2.007 -3.3905  0.8358  2.1509
  373MOL0     H51443   6.276   3.584   2.138 -0.8646  1.1244  1.4854
  373MOL0     H51444   6.342   3.832   2.122 -0.6449  0.7956 -0.8285
  373MOL0     H51445   6.238   3.840   1.991 -2.9112 -0.0572  4.7995
  373MOL0     H51446   6.492   3.663   2.020  0.3140 -0.1235  0.0511
  373MOL0     H51447   6.395   3.667   1.871 -2.2789 -3.3345  1.8404
  373MOL0     H51448   6.572   3.884   2.009  0.8305  1.4161  0.3373
  373MOL0     H51449   6.447   3.925   1.901  1.5736  0.5983 -2.1815
  373MOL0     H51450   6.525   3.793   1.717 -0.1114 -0.0534  0.0714
  373MOL0     H51451   6.665   3.727   1.812  0.5015  0.3319  2.6353
  373MOL0     H51452   6.775   3.880   1.674  1.3006  0.6914 -0.9759
  373MOL0     H51453   6.737   3.975   1.820 -0.7588 -0.9539 -0.4257
  373MOL0     H51454   5.802   3.786   1.839 -0.7791  1.7014  0.2725
  373MOL0     H51455   5.567   3.775   1.777  1.8890 -1.3964 -0.4655
  373MOL0     H51456   5.162   3.398   1.992  1.2792  0.9978 -0.9538
  373MOL0     H51457   4.927   3.362   1.957  2.6273  0.4365  1.6349
  373MOL0     H51458   3.072   2.739   1.525 -0.5019 -0.0033 -0.0254
  373MOL0     H51459   2.831   2.691   1.533 -0.5309 -1.6896  0.9576
  373MOL0     H51460   2.517   2.634   1.605  1.8265 -1.2399  2.6675
  373MOL0     H51461   2.292   2.526   1.558  0.9248  0.6010 -0.5950
  373MOL0     H51462   1.944   2.599   1.820 -0.4117 -2.0459  0.3730
  373MOL0     H51463   1.902   2.690   1.680 -1.8954  0.5202  2.2197
  373MOL0     H51464   1.754   2.489   1.712 -0.8249 -1.9467 -0.7385
  373MOL0     H51465   1.901   2.386   1.693  1.7927  0.7089 -1.6886
  373MOL0     H51466   1.811   2.599   1.487 -1.6404 -0.7632  0.4103
  373MOL0     H51467   1.913   2.456   1.460 -0.6173 -2.4897  1.9362
  373MOL0     H51468   1.609   2.480   1.524 -0.4359 -1.5926 -0.8805
  373MOL0     H51469   1.686   2.331   1.530 -1.8472  0.4750  1.2470
  373MOL0     H51470   1.649   2.354   1.117  2.6480 -1.1909 -0.0829
  373MOL0     H51471   2.112   2.718   1.881  0.6974 -3.5617  0.5377
  373MOL0     H51472   2.351   2.953   1.963 -0.9294  0.6678  1.7551
  373MOL0     H51473   2.220   2.839   2.011 -0.2556 -2.1633 -1.9750
  373MOL0     H51474   2.382   2.803   2.064 -0.0923  1.9435  1.3372
  374MOL0     O51475   9.058   2.869   3.819  0.0808 -1.3351  0.7243
  374MOL0     C51476   8.965   2.949   3.792 -0.9953  0.0006 -1.4773
  374MOL0     O51477   8.947   2.999   3.675  0.2263  0.0753 -0.8930
  374MOL0     C51478   9.035   2.974   3.580  0.1585 -0.9773  0.1211
  374MOL0     C51479   9.111   3.078   3.529 -0.1814 -0.7462  0.2590
  374MOL0     C51480   9.200   3.055   3.425  0.9501 -0.8637 -0.3982
  374MOL0     C51481   9.239   2.925   3.386 -0.2097 -0.2706  0.3047
  374MOL0     O51482   9.350   2.924   3.311 -0.1446 -0.5314  0.0159
  374MOL0     C51483   9.410   2.791   3.293 -0.4502 -0.1246  0.2280
  374MOL0     C51484   9.541   2.798   3.217  0.3703  0.0372 -0.0961
  374MOL0     C51485   9.647   2.904   3.276 -0.1474 -0.1604  0.2897
  374MOL0     C51486   9.731   2.951   3.160  0.8974  0.7349  0.5584
  374MOL0     C51487   9.851   3.039   3.191  0.3281 -0.2479 -0.4161
  374MOL0     C51488   9.807   3.174   3.269  0.0616  0.5752  0.6640
  374MOL0     C51489   9.905   3.282   3.257  0.7184 -0.7665 -0.1568
  374MOL0     C51490  10.007   3.292   3.372 -0.6788 -1.1446 -0.3773
  374MOL0     N51491  10.083   3.414   3.365 -0.5428 -0.2748  0.2074
  374MOL0     C51492  10.174   3.435   3.269 -0.3947  0.2773  0.1235
  374MOL0     C51493  10.232   3.554   3.289  0.8413  0.1726  0.4471
  374MOL0     C51494  10.352   3.614   3.222 -0.1371  0.7077  0.1164
  374MOL0     C51495  10.314   3.728   3.125  0.3073 -0.1851 -0.3339
  374MOL0     C51496  10.241   3.848   3.191 -0.3457 -0.4371 -0.5519
  374MOL0     C51497  10.308   3.903   3.316 -0.1785 -0.0437 -0.2940
  374MOL0     O51498  10.444   3.936   3.278  0.4349  0.7826 -0.3099
  374MOL0     C51499  10.483   4.053   3.224 -0.0139  1.0881  0.5876
  374MOL0     C51500  10.414   4.165   3.195  0.3436 -0.4133 -0.8499
  374MOL0     C51501  10.478   4.274   3.123  0.2803  0.9254  0.1990
  374MOL0     C51502  10.391   4.386   3.090 -0.1737 -0.4982  0.9507
  374MOL0     C51503  10.608   4.259   3.069 -0.1378  0.0089  0.3906
  374MOL0     C51504  10.677   4.377   2.995 -0.4066  0.5316 -0.3627
  374MOL0     O51505  10.785   4.335   2.924 -0.1091 -0.5466 -0.0973
  374MOL0     C51506  10.865   4.423   2.854 -0.9895 -0.2073  0.4948
  374MOL0     C51507  11.005   4.456   2.892  0.6963  0.1077  0.1712
  374MOL0     C51508  11.081   4.544   2.812 -0.2147  0.2174  0.3051
  374MOL0     C51509  11.025   4.615   2.707 -0.1817  0.3659  0.6908
  374MOL0     O51510  11.088   4.701   2.624  0.2979  0.1381  0.9724
  374MOL0     C51511  11.221   4.725   2.638 -0.7908  0.0861  0.0035
  374MOL0     C51512  11.302   4.612   2.560  0.0417 -0.2964 -1.1512
  374MOL0     C51513  11.293   4.610   2.406  0.3061  0.4205  0.3385
  374MOL0     C51514  11.165   4.530   2.360 -0.1188 -0.4395 -0.1986
  374MOL0     C51515  11.208   4.425   2.255 -1.6248 -0.0523 -0.2259
  374MOL0     C51516  11.242   4.493   2.121 -0.5995  0.1245 -1.7326
  374MOL0     C51517  11.235   4.406   1.997  0.2255  0.4247  0.0393
  374MOL0     C51518  11.290   4.469   1.872  0.2461  0.5807 -0.4683
  374MOL0    Cl51519  11.175   4.574   1.788 -0.4056  0.1964  0.0312
  374MOL0     C51520  10.889   4.594   2.680 -0.1255  0.4532 -0.5961
  374MOL0     C51521  10.812   4.500   2.747  0.4204  0.5219  1.2429
  374MOL0     O51522  10.650   4.496   3.011 -0.0673  0.4220  0.0433
  374MOL0     C51523  10.671   4.130   3.093  0.0727 -0.1678  0.2871
  374MOL0     C51524  10.616   4.037   3.182 -0.0144 -0.0833  0.7230
  374MOL0     N51525  10.172   3.601   3.405  0.6777 -0.1102  0.5457
  374MOL0     N51526  10.084   3.523   3.451  0.4647 -0.4390 -0.2465
  374MOL0     C51527   9.158   2.825   3.437 -0.6285  0.1573  0.4299
  374MOL0     C51528   9.057   2.851   3.524  0.0700 -0.4531 -0.2036
  374MOL0     C51529   8.853   2.957   3.893  0.1411  0.3041 -0.5256
  374MOL0     C51530   8.729   3.008   3.847 -0.1431 -0.5209 -0.4646
  374MOL0     C51531   8.615   3.012   3.936  0.9824  0.4073  1.2129
  374MOL0     C51532   8.620   2.970   4.069  0.2348  0.4358  1.0891
  374MOL0     O51533   8.503   2.976   4.139 -0.1192  0.0833  0.3029
  374MOL0     C51534   8.509   2.925   4.273 -0.5198  0.7114 -0.4260
  374MOL0     C51535   8.368   2.930   4.334  0.1429  0.9237 -0.1973
  374MOL0     C51536   8.265   2.827   4.285  0.0592 -0.0392 -0.1321
  374MOL0     C51537   8.133   2.811   4.355 -0.5238  1.0442 -0.3723
  374MOL0     C51538   8.139   2.747   4.485  0.4313 -0.2858  0.4047
  374MOL0     C51539   8.147   2.696   4.597  0.1820  0.6179 -0.1148
  374MOL0     C51540   8.746   2.924   4.118  0.8724  0.5350 -0.1882
  374MOL0     C51541   8.860   2.915   4.030 -0.4914 -0.4383  0.6504
  374MOL0     C51542   8.980   2.848   4.090 -0.4861  0.4851 -0.2290
  374MOL0     H51543   9.110   3.180   3.565 -1.2427 -0.1398 -1.3520
  374MOL0     H51544   9.258   3.135   3.381  0.3437 -0.5845 -0.6998
  374MOL0     H51545   9.341   2.728   3.236 -4.8712  2.7961  1.8541
  374MOL0     H51546   9.431   2.753   3.393 -0.4785 -1.1179 -0.1295
  374MOL0     H51547   9.582   2.697   3.223 -0.7045 -0.4331 -0.5381
  374MOL0     H51548   9.525   2.830   3.114  0.4934 -1.1444 -0.4881
  374MOL0     H51549   9.601   2.989   3.327  0.6588  0.2564  0.3262
  374MOL0     H51550   9.719   2.860   3.345  0.6271  0.3921 -0.1538
  374MOL0     H51551   9.775   2.863   3.114 -0.0693  0.8806 -0.7122
  374MOL0     H51552   9.684   2.990   3.069  4.4063  1.4267 -1.1069
  374MOL0     H51553   9.902   3.068   3.099 -1.4003  1.0942 -1.0181
  374MOL0     H51554   9.930   2.992   3.250 -1.2755  0.1561  2.2633
  374MOL0     H51555   9.709   3.199   3.227 -0.8402 -1.9221  1.1056
  374MOL0     H51556   9.783   3.157   3.375 -0.1326 -0.4727  0.4682
  374MOL0     H51557   9.840   3.369   3.255 -0.1046 -1.3568  0.2040
  374MOL0     H51558   9.953   3.276   3.159  1.6134  1.0875  0.1411
  374MOL0     H51559   9.974   3.288   3.476  1.4474 -3.2380  0.3257
  374MOL0     H51560  10.065   3.199   3.363 -2.8042 -2.6044  0.0718
  374MOL0     H51561  10.199   3.356   3.199 -1.2427 -3.0063  3.1950
  374MOL0     H51562  10.395   3.534   3.162 -2.6202  0.6308 -1.7123
  374MOL0     H51563  10.435   3.636   3.290 -0.7023 -2.0622  1.8522
  374MOL0     H51564  10.407   3.755   3.073 -0.0572 -0.9613 -1.4254
  374MOL0     H51565  10.244   3.686   3.053  2.1341 -0.0315 -2.2854
  374MOL0     H51566  10.217   3.931   3.124  0.0912 -0.3553 -0.6088
  374MOL0     H51567  10.143   3.810   3.221 -0.1880 -1.0155 -0.7730
  374MOL0     H51568  10.261   3.997   3.347  1.2020 -0.7850  5.2225
  374MOL0     H51569  10.305   3.831   3.398  1.2472 -1.9506 -1.8293
  374MOL0     H51570  10.315   4.175   3.237  0.2462 -1.3692 -0.8333
  374MOL0     H51571  10.442   4.468   3.141  0.3504 -0.5772  0.5634
  374MOL0     H51572  10.285   4.365   3.104  0.3326 -3.4733  0.9415
  374MOL0     H51573  10.403   4.409   2.983 -3.2146 -1.9943  0.1724
  374MOL0     H51574  11.042   4.395   2.974 -1.0159 -3.0166 -1.2046
  374MOL0     H51575  11.181   4.564   2.850  0.4068  0.7530 -1.5438
  374MOL0     H51576  11.237   4.827   2.601  1.3455 -0.6797 -1.4158
  374MOL0     H51577  11.253   4.727   2.742  1.4575 -3.2257 -0.4800
  374MOL0     H51578  11.408   4.632   2.577  0.0935 -0.0403 -1.7873
  374MOL0     H51579  11.272   4.520   2.611 -0.7500  1.2518  1.4214
  374MOL0     H51580  11.381   4.562   2.363 -1.1118 -0.6666 -1.4909
  374MOL0     H51581  11.279   4.713   2.372 -2.2038 -0.8329 -2.9412
  374MOL0     H51582  11.090   4.599   2.320  0.7729 -0.1818 -1.5056
  374MOL0     H51583  11.114   4.473   2.438 -0.8814 -0.6731 -0.8518
  374MOL0     H51584  11.287   4.362   2.297  0.1611  2.7317  0.9040
  374MOL0     H51585  11.137   4.345   2.233  0.7476 -2.9622  1.9339
  374MOL0     H51586  11.339   4.543   2.131 -1.6507  1.7669  1.9132
  374MOL0     H51587  11.169   4.571   2.101  0.6389  2.8957  2.9475
  374MOL0     H51588  11.134   4.364   1.992 -0.1105  1.2917 -1.1832
  374MOL0     H51589  11.306   4.328   2.026  1.3881  1.2834 -0.4267
  374MOL0     H51590  11.313   4.398   1.793  1.5165 -1.2205  1.4052
  374MOL0     H51591  11.380   4.524   1.903 -0.1156  1.3077 -0.6707
  374MOL0     H51592  10.838   4.657   2.609  1.5353  4.3731  1.3697
  374MOL0     H51593  10.717   4.461   2.712  2.0379 -0.0364 -3.1268
  374MOL0     H51594  10.769   4.113   3.050  0.4033 -0.7331  1.2248
  374MOL0     H51595  10.662   3.946   3.220 -0.7605 -0.4906  0.6736
  374MOL0     H51596   9.171   2.724   3.399  2.3747  0.3710  0.6114
  374MOL0     H51597   8.985   2.777   3.559  0.9615 -0.0997  2.6850
  374MOL0     H51598   8.710   3.045   3.746  1.4302  0.1481 -0.5406
  374MOL0     H51599   8.520   3.032   3.887  2.0312  1.6216 -0.4414
  374MOL0     H51600   8.553   2.825   4.270  2.1987  1.7079  1.7871
  374MOL0     H51601   8.583   2.986   4.326  0.1794  0.2158 -0.8170
  374MOL0     H51602   8.321   3.025   4.306 -0.2696  1.0822  0.9806
  374MOL0     H51603   8.381   2.930   4.443 -1.7007 -3.5394  0.2334
  374MOL0     H51604   8.239   2.870   4.188  2.2593 -0.4665 -0.9624
  374MOL0     H51605   8.308   2.728   4.269  0.2703  0.1249 -0.6052
  374MOL0     H51606   8.063   2.753   4.295 -2.0451  0.3138  1.9649
  374MOL0     H51607   8.086   2.908   4.369  0.7945  1.8933 -1.5152
  374MOL0     H51608   8.152   2.655   4.696  1.2379  0.0881 -0.3765
  374MOL0     H51609   8.756   2.877   4.215  3.1794 -0.4586 -0.8432
  374MOL0     H51610   8.969   2.739   4.087  2.7256 -0.1157  2.8417
  374MOL0     H51611   9.073   2.884   4.044 -0.0303 -0.0233  0.2754
  374MOL0     H51612   8.985   2.876   4.196  1.1551 -0.8199  0.0796
  375MOL0     O51613   8.933   7.041   0.382 -0.5387  0.0579 -0.1998
  375MOL0     C51614   8.854   7.013   0.291  0.3440 -0.4622  0.5306
  375MOL0     O51615   8.746   6.928   0.291 -0.5978 -1.0855 -0.3278
  375MOL0     C51616   8.675   6.892   0.400  0.0630  0.2064 -0.7848
  375MOL0     C51617   8.679   6.955   0.529 -0.1947  0.3542  0.9042
  375MOL0     C51618   8.575   6.930   0.619  0.2813  0.2845  0.1357
  375MOL0     C51619   8.472   6.836   0.594 -0.1430 -0.9278  0.5223
  375MOL0     O51620   8.385   6.826   0.694  0.5498 -0.2008 -0.1759
  375MOL0     C51621   8.266   6.743   0.688  0.2761 -0.2300  1.0336
  375MOL0     C51622   8.190   6.754   0.816  0.6535 -0.3413 -0.5906
  375MOL0     C51623   8.044   6.696   0.795  0.3465 -0.0012  0.3465
  375MOL0     C51624   8.047   6.548   0.778 -1.4160  0.5020 -0.3978
  375MOL0     C51625   7.905   6.487   0.749 -0.2418 -0.4444  0.5164
  375MOL0     C51626   7.801   6.491   0.856 -0.6304  0.3938 -0.3855
  375MOL0     C51627   7.856   6.434   0.988  0.0287  0.3697 -1.5957
  375MOL0     C51628   7.744   6.407   1.094  0.5159  0.1702 -0.2136
  375MOL0     N51629   7.653   6.314   1.038 -0.3375  0.6897 -0.2303
  375MOL0     C51630   7.665   6.176   1.041  0.2017 -0.1762  0.3603
  375MOL0     C51631   7.583   6.129   0.955  1.0622 -0.0763  0.7544
  375MOL0     C51632   7.561   5.982   0.928  0.9731  0.2603  0.7178
  375MOL0     C51633   7.584   5.948   0.776  0.4810 -0.8999  0.1583
  375MOL0     C51634   7.585   5.798   0.740  0.1202 -0.3199  0.2099
  375MOL0     C51635   7.588   5.786   0.582 -0.5761 -0.2281 -0.8553
  375MOL0     O51636   7.592   5.645   0.549  0.6285 -0.0631 -0.0380
  375MOL0     C51637   7.713   5.581   0.551 -0.2582 -0.6732 -0.4294
  375MOL0     C51638   7.835   5.625   0.603  0.8550  0.8955 -0.0449
  375MOL0     C51639   7.953   5.548   0.607 -0.5316 -0.3311  0.3785
  375MOL0     C51640   8.081   5.602   0.664 -0.3621 -0.2073 -0.0513
  375MOL0     C51641   7.950   5.409   0.562  0.1493 -0.5244 -0.6190
  375MOL0     C51642   8.072   5.324   0.552 -1.1281 -0.1436 -0.2248
  375MOL0     O51643   8.129   5.262   0.661 -0.3892 -0.0060  0.0768
  375MOL0     C51644   8.061   5.261   0.783 -0.3679  0.1020  0.0819
  375MOL0     C51645   8.096   5.329   0.899  0.2762 -0.5722  0.3491
  375MOL0     C51646   8.028   5.314   1.018  0.1050 -0.2433  0.3960
  375MOL0     C51647   7.920   5.227   1.023  0.2211 -0.8079  0.4354
  375MOL0     O51648   7.864   5.231   1.153 -0.2630  0.0697  0.3468
  375MOL0     C51649   7.751   5.156   1.165  0.5489 -0.6191 -0.8640
  375MOL0     C51650   7.704   5.162   1.305 -0.6345  0.1286  0.0383
  375MOL0     C51651   7.789   5.094   1.407 -0.7216 -0.4378 -0.6046
  375MOL0     C51652   7.880   5.186   1.484 -0.5242  0.8501  0.3883
  375MOL0     C51653   7.964   5.112   1.594  0.7973 -0.6060  0.1545
  375MOL0     C51654   8.065   5.214   1.665 -0.5772 -0.0176 -1.4354
  375MOL0     C51655   8.166   5.149   1.758 -0.8314 -0.5208 -1.2699
  375MOL0     C51656   8.262   5.256   1.825 -1.3060 -0.2599  0.1181
  375MOL0    Cl51657   8.362   5.186   1.957 -0.1705 -0.4425 -0.7038
  375MOL0     C51658   7.889   5.154   0.907  0.2552 -0.1215 -0.4520
  375MOL0     C51659   7.959   5.160   0.792 -0.5622 -0.2720  0.5858
  375MOL0     O51660   8.128   5.335   0.446 -0.1201  0.0831  0.0769
  375MOL0     C51661   7.821   5.357   0.521 -0.3970  0.1444 -0.6791
  375MOL0     C51662   7.707   5.438   0.521  0.8419  0.3878  0.0982
  375MOL0     N51663   7.503   6.232   0.920  1.1341  0.1154 -0.7553
  375MOL0     N51664   7.537   6.338   0.969 -0.8737  0.0058  0.1153
  375MOL0     C51665   8.480   6.762   0.481  0.0938  0.0435  0.3315
  375MOL0     C51666   8.586   6.789   0.382 -0.1573  0.0990  0.3084
  375MOL0     C51667   8.891   7.075   0.153 -0.1527 -0.1820 -0.2429
  375MOL0     C51668   8.979   7.183   0.154  0.0049 -0.1981 -0.2096
  375MOL0     C51669   9.016   7.242   0.033  0.7911  0.2377  0.3993
  375MOL0     C51670   8.968   7.195  -0.095 -0.6615  0.6228  0.4779
  375MOL0     O51671   9.010   7.257  -0.208  0.2591  0.2858  0.0571
  375MOL0     C51672   8.952   7.218  -0.337 -0.5365  0.3588 -0.5319
  375MOL0     C51673   9.004   7.312  -0.443 -0.7975  0.0418 -0.3568
  375MOL0     C51674   8.980   7.461  -0.408  0.0967  0.6036 -0.2109
  375MOL0     C51675   8.981   7.555  -0.531 -0.8839 -1.0916  0.1503
  375MOL0     C51676   9.107   7.547  -0.608  0.6322 -0.7262  0.3297
  375MOL0     C51677   9.208   7.531  -0.675  0.0626 -0.2328 -0.2040
  375MOL0     C51678   8.900   7.072  -0.088 -0.9584  0.0331 -0.0140
  375MOL0     C51679   8.863   7.012   0.031 -0.0191 -1.0520 -0.3754
  375MOL0     C51680   8.801   6.869   0.028  0.0096  0.2854  0.8270
  375MOL0     H51681   8.746   7.036   0.556 -0.4019  0.7925  0.1050
  375MOL0     H51682   8.562   6.987   0.711  2.2128  3.6109 -1.4842
  375MOL0     H51683   8.288   6.636   0.675  0.5465 -0.3234  2.1314
  375MOL0     H51684   8.203   6.785   0.609 -0.3179 -0.6526  1.2744
  375MOL0     H51685   8.236   6.690   0.892 -2.6739 -3.6669 -1.0551
  375MOL0     H51686   8.189   6.859   0.848 -3.3034 -0.6221  0.8213
  375MOL0     H51687   7.983   6.724   0.881 -2.6775 -0.6323 -1.4609
  375MOL0     H51688   8.005   6.736   0.701  1.0380 -0.0688  0.0228
  375MOL0     H51689   8.114   6.524   0.696 -3.3922 -5.5289 -0.7663
  375MOL0     H51690   8.099   6.513   0.867  2.5062 -2.1748 -3.4184
  375MOL0     H51691   7.919   6.382   0.725  2.2270 -0.1280  0.3508
  375MOL0     H51692   7.865   6.538   0.660 -0.1929 -0.3748  0.5344
  375MOL0     H51693   7.771   6.595   0.867  2.3553  1.6884 -2.9817
  375MOL0     H51694   7.715   6.433   0.821  1.6525 -3.6748  0.1069
  375MOL0     H51695   7.936   6.499   1.025 -1.2616  1.9063 -1.3675
  375MOL0     H51696   7.886   6.333   0.961 -3.3554 -0.9703 -0.8334
  375MOL0     H51697   7.775   6.379   1.195 -2.3740  4.9483  2.4041
  375MOL0     H51698   7.689   6.499   1.117 -1.0531 -0.9711  0.8453
  375MOL0     H51699   7.737   6.117   1.096  1.0816 -0.3715 -0.9611
  375MOL0     H51700   7.460   5.968   0.967  0.2881  1.9555 -0.3489
  375MOL0     H51701   7.632   5.929   0.992 -2.6520 -0.7503  4.3731
  375MOL0     H51702   7.513   6.007   0.717 -0.1380 -0.7132  1.0671
  375MOL0     H51703   7.684   5.985   0.751  0.6317 -0.0228  1.9395
  375MOL0     H51704   7.676   5.751   0.778  0.5696  1.3530  1.3234
  375MOL0     H51705   7.505   5.743   0.790  1.5396 -1.0003  1.8131
  375MOL0     H51706   7.503   5.841   0.541  0.5897  2.3697  0.0012
  375MOL0     H51707   7.675   5.843   0.549 -0.4611  0.1951  0.1325
  375MOL0     H51708   7.841   5.727   0.640 -0.9569  2.7123 -4.0941
  375MOL0     H51709   8.069   5.698   0.715  0.8286  0.2850 -0.6561
  375MOL0     H51710   8.161   5.613   0.590 -0.1386  1.2981  0.3676
  375MOL0     H51711   8.125   5.529   0.731 -2.6376  0.0997  1.9020
  375MOL0     H51712   8.173   5.406   0.901 -0.6452  0.3700  0.1569
  375MOL0     H51713   8.053   5.371   1.107  0.0016 -0.0952  0.3292
  375MOL0     H51714   7.671   5.184   1.097 -1.2935  3.2257  2.4749
  375MOL0     H51715   7.778   5.051   1.151 -3.1800 -1.8591  0.0886
  375MOL0     H51716   7.678   5.264   1.335 -1.8344  0.5212 -2.1755
  375MOL0     H51717   7.607   5.112   1.314 -1.0182  0.3818 -2.2768
  375MOL0     H51718   7.864   5.026   1.363  3.0840  2.7222  0.3818
  375MOL0     H51719   7.718   5.036   1.465 -2.4876  0.3975 -1.8339
  375MOL0     H51720   7.828   5.258   1.548  0.2780  0.1060  1.9424
  375MOL0     H51721   7.951   5.234   1.417  1.4084 -1.4229  0.6653
  375MOL0     H51722   7.905   5.069   1.675  1.9091 -0.1320  1.2597
  375MOL0     H51723   8.019   5.033   1.543 -0.5453 -1.1907 -0.4284
  375MOL0     H51724   8.013   5.285   1.730  2.1542  1.5647 -0.7658
  375MOL0     H51725   8.128   5.272   1.597  0.4718  0.6797  0.0764
  375MOL0     H51726   8.229   5.079   1.702 -0.2057 -0.7686 -0.2763
  375MOL0     H51727   8.106   5.095   1.832 -2.2038 -0.5641 -2.3689
  375MOL0     H51728   8.204   5.341   1.862 -0.7124  0.7552 -1.1933
  375MOL0     H51729   8.325   5.301   1.748 -0.0737 -1.0666  0.6203
  375MOL0     H51730   7.810   5.081   0.922 -0.3815  0.8958  1.4025
  375MOL0     H51731   7.936   5.091   0.711  1.1487  0.9066 -0.9867
  375MOL0     H51732   7.814   5.258   0.477  0.5653  0.9024 -2.6184
  375MOL0     H51733   7.613   5.400   0.485  1.9521 -1.7720 -0.6964
  375MOL0     H51734   8.398   6.693   0.465 -1.2698  1.6694 -0.0386
  375MOL0     H51735   8.591   6.727   0.293 -1.0692  2.3158 -1.3747
  375MOL0     H51736   9.018   7.232   0.243 -2.9609  1.6694  0.1659
  375MOL0     H51737   9.075   7.333   0.041  1.3158  0.1099 -1.5652
  375MOL0     H51738   8.979   7.113  -0.353  0.2127  0.3196  0.8571
  375MOL0     H51739   8.844   7.227  -0.343 -0.7796 -1.8111 -0.2106
  375MOL0     H51740   8.968   7.284  -0.543  0.2448  1.3316 -1.1212
  375MOL0     H51741   9.113   7.303  -0.448 -0.5681  1.2371  1.4672
  375MOL0     H51742   8.888   7.467  -0.349 -0.3175  1.5356 -0.9284
  375MOL0     H51743   9.069   7.491  -0.351  0.5279  2.6283 -1.8225
  375MOL0     H51744   8.969   7.652  -0.481  0.6617 -1.2277  0.8365
  375MOL0     H51745   8.892   7.535  -0.591 -0.3796 -1.6066 -0.4381
  375MOL0     H51746   9.288   7.517  -0.744  0.3317  1.7700 -0.3633
  375MOL0     H51747   8.860   7.027  -0.179  0.5786  1.0935 -1.2518
  375MOL0     H51748   8.842   6.806   0.108  2.8382  2.4513  1.2585
  375MOL0     H51749   8.693   6.884   0.043  0.0875 -0.1394  1.9230
  375MOL0     H51750   8.821   6.817  -0.066  0.8306  1.3208  0.4071
  376MOL0     O51751   9.961   9.822  10.692  0.2635 -0.0933  0.1834
  376MOL0     C51752   9.918   9.933  10.722  0.2941  0.0099 -0.1355
  376MOL0     O51753   9.982  10.052  10.685 -0.9139  0.2413  0.5155
  376MOL0     C51754  10.113  10.043  10.629  0.4143  0.2291 -0.4147
  376MOL0     C51755  10.234  10.066  10.690  0.2838 -0.3501 -0.7539
  376MOL0     C51756  10.356  10.055  10.630  0.7394 -0.2372 -0.4089
  376MOL0     C51757  10.369  10.018  10.498 -0.5812  0.1012 -0.5895
  376MOL0     O51758  10.504  10.012  10.457  0.3110 -0.2957  0.8014
  376MOL0     C51759  10.538   9.894  10.386  0.5123  0.6269  0.9437
  376MOL0     C51760  10.689   9.912  10.351  0.7016 -0.3356 -0.4031
  376MOL0     C51761  10.782   9.908  10.471 -0.1416 -0.1416  0.3593
  376MOL0     C51762  10.919   9.873  10.424  0.4583  0.5649  0.1354
  376MOL0     C51763  11.015   9.865  10.537 -0.2559 -1.0055  0.9313
  376MOL0     C51764  11.112   9.980  10.564  0.6985  0.5850 -0.1475
  376MOL0     C51765  11.209   9.929  10.673 -0.5708 -0.5787  0.0848
  376MOL0     C51766  11.349   9.997  10.691  0.3117  0.2293 -0.8901
  376MOL0     N51767  11.458   9.942  10.612  0.1303  0.1899  0.1105
  376MOL0     C51768  11.458   9.938  10.473 -0.1125  0.0212 -1.2017
  376MOL0     C51769  11.565   9.865  10.445  0.6076  0.2349 -0.0322
  376MOL0     C51770  11.597   9.838  10.305 -1.3851 -0.0834  0.2648
  376MOL0     C51771  11.655   9.965  10.238  0.4552  0.1489 -0.2233
  376MOL0     C51772  11.709   9.934  10.095 -0.2899 -0.0245 -0.2136
  376MOL0     C51773  11.826  10.029  10.075 -0.5055 -0.8145 -0.1384
  376MOL0     O51774  11.783  10.166  10.065 -0.5951 -0.1799  0.3217
  376MOL0     C51775  11.880  10.264  10.058 -0.5656  1.0761 -0.3399
  376MOL0     C51776  11.830  10.389  10.094  0.1211 -0.0733  0.4932
  376MOL0     C51777  11.911  10.502  10.099 -0.1605  0.0040  0.4484
  376MOL0     C51778  11.860  10.625  10.162  0.3371  0.2545  0.2626
  376MOL0     C51779  12.048  10.495  10.043 -0.0141 -0.2547 -0.0805
  376MOL0     C51780  12.136  10.612  10.014 -0.9131  0.5218 -0.0624
  376MOL0     O51781  12.270  10.591   9.986 -0.0086 -0.7451  1.3774
  376MOL0     C51782  12.344  10.703   9.967 -0.1692 -0.0820 -0.1635
  376MOL0     C51783  12.383  10.784  10.066 -0.6167  0.2354  0.4147
  376MOL0     C51784  12.458  10.900  10.046 -0.3592 -0.1675  0.8419
  376MOL0     C51785  12.516  10.919   9.923 -0.5466  0.7878 -0.0779
  376MOL0     O51786  12.606  11.033   9.903  0.6336  0.0339 -0.9126
  376MOL0     C51787  12.736  11.020   9.963  0.8386 -1.1800 -0.5150
  376MOL0     C51788  12.853  10.983   9.866 -0.1020  0.2228 -0.0454
  376MOL0     C51789  12.823  10.878   9.759  0.5575  0.3514 -0.1987
  376MOL0     C51790  12.949  10.835   9.688 -0.1930 -0.4877  0.6368
  376MOL0     C51791  12.950  10.872   9.543  1.0619 -0.2763 -0.4912
  376MOL0     C51792  13.057  10.815   9.458 -0.8528  0.0496 -0.7270
  376MOL0     C51793  12.999  10.771   9.321 -1.5972 -0.4957  0.5580
  376MOL0     C51794  13.103  10.799   9.206 -0.3185  0.2716 -0.6416
  376MOL0    Cl51795  13.069  10.959   9.139  0.5122 -0.0145  0.0636
  376MOL0     C51796  12.498  10.824   9.818  0.1246 -0.0318 -0.1351
  376MOL0     C51797  12.411  10.716   9.843 -0.1216 -0.2950 -0.7983
  376MOL0     O51798  12.076  10.720  10.021 -0.8909 -0.2059  0.0140
  376MOL0     C51799  12.091  10.364   9.997 -0.7649 -0.1553 -0.0914
  376MOL0     C51800  12.009  10.249  10.000  0.1492  0.7393 -0.5099
  376MOL0     N51801  11.628   9.814  10.554 -0.2022  0.2002  0.2791
  376MOL0     N51802  11.567   9.869  10.661 -0.0758 -0.1515 -0.2299
  376MOL0     C51803  10.252   9.979  10.434  0.4237 -0.4069  0.6820
  376MOL0     C51804  10.123   9.999  10.499  0.3076 -0.3386 -0.0489
  376MOL0     C51805   9.804   9.952  10.814 -0.1135 -1.2927 -0.6859
  376MOL0     C51806   9.795  10.077  10.888  0.4951  0.2776 -1.0484
  376MOL0     C51807   9.682  10.104  10.969 -1.6053 -0.3599 -0.0008
  376MOL0     C51808   9.579  10.011  10.983 -0.3435  0.6143 -0.3720
  376MOL0     O51809   9.454  10.026  11.044  0.3960 -0.2090 -0.3141
  376MOL0     C51810   9.461  10.110  11.162 -0.2825  0.7111  1.0744
  376MOL0     C51811   9.431  10.260  11.138  0.1943 -0.6428 -0.4109
  376MOL0     C51812   9.407  10.346  11.261  0.0141  0.7743 -0.1017
  376MOL0     C51813   9.268  10.343  11.317 -1.0675 -0.2362 -0.2745
  376MOL0     C51814   9.159  10.410  11.241 -0.6034 -0.8516  0.5719
  376MOL0     C51815   9.066  10.465  11.186 -0.6820 -0.0621 -0.4124
  376MOL0     C51816   9.597   9.885  10.918 -0.0485  0.5474 -0.6222
  376MOL0     C51817   9.700   9.859  10.827  0.3110  0.4419 -0.2297
  376MOL0     C51818   9.695   9.728  10.756 -0.0843  0.2834 -0.3144
  376MOL0     H51819  10.248  10.085  10.796  3.9445  4.4891 -1.7670
  376MOL0     H51820  10.447  10.078  10.685  1.7033 -0.2808 -1.9284
  376MOL0     H51821  10.484   9.899  10.291 -0.3720 -1.0194  1.3424
  376MOL0     H51822  10.517   9.801  10.439  1.0126 -0.9526 -1.4739
  376MOL0     H51823  10.707   9.848  10.264 -0.6620 -0.7347 -0.4129
  376MOL0     H51824  10.696  10.009  10.302  0.8013 -0.7833 -1.2920
  376MOL0     H51825  10.788  10.005  10.521  1.1210  0.6284 -1.1671
  376MOL0     H51826  10.746   9.827  10.534 -3.8342  0.7910 -0.2693
  376MOL0     H51827  10.920   9.770  10.386  0.2961  0.3560  0.6847
  376MOL0     H51828  10.955   9.936  10.342  3.3590  1.4928  1.9859
  376MOL0     H51829  11.072   9.776  10.508  1.1160  1.0359 -3.4107
  376MOL0     H51830  10.971   9.839  10.634  0.0020 -1.0918  1.0286
  376MOL0     H51831  11.167   9.989  10.469  1.0088 -2.6679 -0.3924
  376MOL0     H51832  11.054  10.067  10.596 -2.3043 -1.4249  0.1862
  376MOL0     H51833  11.226   9.822  10.658 -0.9355 -0.8108  1.2098
  376MOL0     H51834  11.156   9.940  10.768  1.4166  0.1485  1.1578
  376MOL0     H51835  11.350  10.106  10.697  4.0666  0.2632  3.3296
  376MOL0     H51836  11.370   9.974  10.796  0.1346 -1.5149 -1.2124
  376MOL0     H51837  11.388   9.988  10.408 -0.3702 -0.7220 -1.4996
  376MOL0     H51838  11.510   9.805  10.247 -1.8309  0.3032  0.7063
  376MOL0     H51839  11.677   9.763  10.310  2.4814  3.6687  0.2942
  376MOL0     H51840  11.576  10.041  10.239  0.6457  0.3448  0.8318
  376MOL0     H51841  11.737  10.004  10.300  1.3347 -2.6460  0.5004
  376MOL0     H51842  11.751   9.833  10.096 -0.2621 -0.0539 -1.8399
  376MOL0     H51843  11.629   9.945  10.021  0.4927  0.3724 -1.0123
  376MOL0     H51844  11.908  10.017  10.147  2.3157  1.0007 -2.8167
  376MOL0     H51845  11.871  10.004   9.979  0.6211  0.4377  0.0300
  376MOL0     H51846  11.727  10.402  10.124  0.1208  1.7718 -0.1746
  376MOL0     H51847  11.783  10.598  10.235 -0.1385 -0.2243 -0.4093
  376MOL0     H51848  11.804  10.681  10.087  2.0691 -2.1735 -3.0589
  376MOL0     H51849  11.938  10.687  10.208  0.9611  1.3891 -2.1620
  376MOL0     H51850  12.334  10.753  10.159 -1.2554  2.1151  0.7355
  376MOL0     H51851  12.483  10.959  10.134 -2.0359  1.2412  0.4221
  376MOL0     H51852  12.752  11.123   9.997 -2.2555 -0.8137  0.1491
  376MOL0     H51853  12.730  10.954  10.050 -0.9413  0.5780  0.8052
  376MOL0     H51854  12.878  11.074   9.811 -0.5009 -0.8753 -2.1345
  376MOL0     H51855  12.944  10.957   9.921  0.0327 -1.8941 -1.1794
  376MOL0     H51856  12.742  10.907   9.692 -0.5103 -1.2662  0.3518
  376MOL0     H51857  12.789  10.799   9.827 -0.1289  0.9498  0.1732
  376MOL0     H51858  12.955  10.728   9.708 -0.9869 -0.5674  0.4501
  376MOL0     H51859  13.036  10.880   9.738 -0.7833  1.4820 -0.0050
  376MOL0     H51860  12.850  10.847   9.507  1.5185 -0.9379 -1.3239
  376MOL0     H51861  12.953  10.981   9.538 -2.0642 -0.1295 -1.8770
  376MOL0     H51862  13.088  10.719   9.501 -0.2741 -0.7075 -2.7311
  376MOL0     H51863  13.142  10.884   9.461 -0.9391  0.1393 -0.1685
  376MOL0     H51864  12.902  10.814   9.299 -2.1045 -0.3206  2.9098
  376MOL0     H51865  12.972  10.666   9.332 -2.0500 -0.3679  0.6798
  376MOL0     H51866  13.091  10.730   9.122 -1.3083  1.9458 -1.9512
  376MOL0     H51867  13.207  10.791   9.239  0.2967 -0.6322 -2.5991
  376MOL0     H51868  12.563  10.835   9.733  3.2879 -0.1679  2.1062
  376MOL0     H51869  12.397  10.646   9.761  1.6653  0.0447 -1.4514
  376MOL0     H51870  12.183  10.356   9.939 -1.1921 -1.4666 -0.6260
  376MOL0     H51871  12.039  10.155   9.954  0.7015  1.2323 -1.1794
  376MOL0     H51872  10.263   9.959  10.328  0.4475  1.4095  0.2974
  376MOL0     H51873  10.035   9.964  10.445  0.5267  0.8144 -1.2031
  376MOL0     H51874   9.868  10.157  10.883  1.1777 -0.3530 -1.3308
  376MOL0     H51875   9.684  10.197  11.025  2.5984  1.8733 -3.2272
  376MOL0     H51876   9.388  10.080  11.239 -1.0867 -0.9749 -0.2683
  376MOL0     H51877   9.556  10.103  11.215 -0.7702  0.8459  1.9926
  376MOL0     H51878   9.336  10.266  11.083 -0.9653  0.0038  1.5633
  376MOL0     H51879   9.505  10.309  11.073  1.4490 -1.3074  0.4910
  376MOL0     H51880   9.463  10.288  11.335 -0.7277  0.4564  0.2139
  376MOL0     H51881   9.452  10.445  11.243  3.5196 -0.8159 -1.0042
  376MOL0     H51882   9.269  10.392  11.415 -0.5175  2.8900 -1.7059
  376MOL0     H51883   9.249  10.237  11.337  1.7765 -0.7233  0.2920
  376MOL0     H51884   8.986  10.513  11.134  0.2905  0.0623 -1.8440
  376MOL0     H51885   9.523   9.807  10.931  2.6513 -1.8039  1.9607
  376MOL0     H51886   9.727   9.738  10.652  0.8676  1.7019  0.0849
  376MOL0     H51887   9.770   9.663  10.802 -1.6230 -0.0006  1.9468
  376MOL0     H51888   9.595   9.688  10.772 -1.2880  3.0574 -0.3228
  377MOL0     O51889   6.383   4.874  10.505 -0.7086  0.2977 -0.3842
  377MOL0     C51890   6.421   4.890  10.623  0.2898 -0.6011 -0.1078
  377MOL0     O51891   6.536   4.962  10.654  0.4949 -0.1360 -0.9186
  377MOL0     C51892   6.624   4.982  10.562 -0.3105  0.1280  1.4806
  377MOL0     C51893   6.601   5.086  10.477 -0.2515  0.8837  0.5074
  377MOL0     C51894   6.703   5.106  10.377  0.0941 -0.0021 -0.0029
  377MOL0     C51895   6.814   5.023  10.360  0.5694  0.0673  0.0187
  377MOL0     O51896   6.898   5.047  10.259 -0.4441 -0.8366 -0.6669
  377MOL0     C51897   7.027   4.968  10.261 -1.3459  0.8308  0.0849
  377MOL0     C51898   7.110   5.015  10.141  0.0407  0.5500  0.5024
  377MOL0     C51899   7.167   5.153  10.144 -0.1498  0.9243  0.2620
  377MOL0     C51900   7.302   5.155  10.209 -0.2120  0.6434 -0.0861
  377MOL0     C51901   7.345   5.300  10.227  0.5234 -0.3153  0.3454
  377MOL0     C51902   7.492   5.326  10.271 -1.0661  0.3015 -0.1152
  377MOL0     C51903   7.529   5.474  10.224 -0.4279  0.0238  0.2179
  377MOL0     C51904   7.669   5.514  10.261 -0.2327  0.2636  0.3970
  377MOL0     N51905   7.683   5.657  10.248 -0.5994 -0.9412  0.4205
  377MOL0     C51906   7.685   5.761  10.344 -0.5267  0.4353  0.0155
  377MOL0     C51907   7.711   5.876  10.271 -0.9360 -0.5838  0.4398
  377MOL0     C51908   7.742   6.014  10.330  0.2799  0.2371  0.1031
  377MOL0     C51909   7.890   6.022  10.373  0.4285 -0.1699  0.2166
  377MOL0     C51910   7.983   5.958  10.266 -0.4194  0.3411 -0.3910
  377MOL0     C51911   8.138   5.984  10.273  0.2948  0.3413  0.3243
  377MOL0     O51912   8.186   5.983  10.410 -0.2700 -0.4723  0.3308
  377MOL0     C51913   8.325   5.981  10.406  0.3435 -0.8649 -0.5086
  377MOL0     C51914   8.402   5.870  10.369  0.1215 -0.4884  0.2547
  377MOL0     C51915   8.545   5.874  10.370  0.3792 -0.8337 -0.6501
  377MOL0     C51916   8.620   5.750  10.317  0.0968 -0.7302 -0.8571
  377MOL0     C51917   8.610   5.990  10.410  0.4723 -0.1677 -0.1865
  377MOL0     C51918   8.754   6.016  10.412 -0.3548 -0.6797 -0.0202
  377MOL0     O51919   8.794   6.140  10.458 -0.1727  0.6967  0.3956
  377MOL0     C51920   8.928   6.168  10.475 -0.2450  0.0711 -0.2419
  377MOL0     C51921   8.983   6.222  10.595  0.6760 -0.7620  0.9569
  377MOL0     C51922   9.120   6.245  10.607  0.0212 -0.1424  0.4029
  377MOL0     C51923   9.212   6.221  10.505  0.9977  0.2279 -0.4297
  377MOL0     O51924   9.346   6.249  10.528 -0.2946  0.6623  0.0536
  377MOL0     C51925   9.429   6.240  10.413  0.1535  0.5463 -0.6909
  377MOL0     C51926   9.579   6.278  10.462  0.2511  0.8019  0.6082
  377MOL0     C51927   9.628   6.194  10.577  0.4380  0.6495  0.1472
  377MOL0     C51928   9.726   6.250  10.663 -0.5095 -0.4574 -0.0277
  377MOL0     C51929   9.867   6.235  10.593  0.0051 -0.1532 -0.5860
  377MOL0     C51930   9.918   6.379  10.551  0.0274  0.2438  0.1258
  377MOL0     C51931  10.058   6.376  10.493 -0.2712 -0.0092  0.6067
  377MOL0     C51932  10.104   6.500  10.410  0.1579  0.0182  0.6680
  377MOL0    Cl51933  10.088   6.671  10.480 -0.4681 -0.2005  0.1298
  377MOL0     C51934   9.158   6.169  10.386  0.6251 -0.4545  1.3660
  377MOL0     C51935   9.015   6.158  10.367 -0.0431  0.5814  0.5064
  377MOL0     O51936   8.831   5.920  10.402  0.2548  0.1518  0.4618
  377MOL0     C51937   8.531   6.100  10.456 -0.3936 -0.0161  0.5964
  377MOL0     C51938   8.384   6.097  10.450 -0.7157 -0.0340 -0.6152
  377MOL0     N51939   7.711   5.836  10.135 -0.9342  0.9858  0.2707
  377MOL0     N51940   7.707   5.711  10.121  0.1333  0.0967  0.0819
  377MOL0     C51941   6.828   4.913  10.448 -0.8006 -0.9931 -0.4912
  377MOL0     C51942   6.739   4.895  10.548  0.0185  0.4370  0.0467
  377MOL0     C51943   6.338   4.861  10.742 -0.3311  0.2131 -0.7021
  377MOL0     C51944   6.384   4.895  10.871  0.1009 -0.4561  0.0055
  377MOL0     C51945   6.307   4.868  10.991  0.0702 -1.0458 -0.0142
  377MOL0     C51946   6.181   4.814  10.977  0.1235 -0.0466 -0.4692
  377MOL0     O51947   6.093   4.790  11.081  0.2261  0.3269  0.0225
  377MOL0     C51948   6.138   4.815  11.215 -0.8376  0.3935  0.3624
  377MOL0     C51949   6.029   4.750  11.315  0.3720  0.2791  0.7366
  377MOL0     C51950   6.043   4.805  11.456 -0.3331 -0.2308  0.5047
  377MOL0     C51951   6.124   4.708  11.550 -0.4326 -0.7553  0.4040
  377MOL0     C51952   6.124   4.756  11.685  0.4249 -0.4577 -0.3148
  377MOL0     C51953   6.148   4.799  11.802  0.4048  0.6765  0.5711
  377MOL0     C51954   6.136   4.788  10.850 -0.1152 -0.2800 -0.2595
  377MOL0     C51955   6.210   4.808  10.736 -0.3556 -0.5658  0.2806
  377MOL0     C51956   6.133   4.753  10.609 -0.4289 -0.2597 -0.5415
  377MOL0     H51957   6.508   5.142  10.487 -2.5720 -2.8250  1.5797
  377MOL0     H51958   6.692   5.186  10.304  1.4246  0.6309  0.4544
  377MOL0     H51959   7.019   4.862  10.236 -0.2910  1.6600 -5.0173
  377MOL0     H51960   7.084   4.996  10.350 -2.8760 -1.7463  2.0025
  377MOL0     H51961   7.196   4.947  10.134  1.4195  2.2288  0.4846
  377MOL0     H51962   7.041   5.003  10.057  0.3886  0.1249  0.2734
  377MOL0     H51963   7.184   5.191  10.043  0.7527  3.2832  1.2113
  377MOL0     H51964   7.094   5.221  10.188  0.9221  2.6260 -0.4888
  377MOL0     H51965   7.304   5.100  10.303  0.3215 -1.1581 -1.1015
  377MOL0     H51966   7.371   5.102  10.142  0.8000  1.2708  0.4281
  377MOL0     H51967   7.276   5.341  10.300 -0.5866 -0.9241 -0.3383
  377MOL0     H51968   7.322   5.363  10.140 -0.2870  0.4660  1.1087
  377MOL0     H51969   7.499   5.314  10.379  2.1245  0.5656 -0.1887
  377MOL0     H51970   7.564   5.269  10.211  0.0084  0.1003  1.3277
  377MOL0     H51971   7.468   5.538  10.287  1.2315 -0.2973  2.2692
  377MOL0     H51972   7.513   5.494  10.117 -1.4393 -3.2318 -0.3417
  377MOL0     H51973   7.694   5.481  10.363 -0.8630 -1.7799 -0.0802
  377MOL0     H51974   7.736   5.462  10.192  1.7268  1.9406  0.9230
  377MOL0     H51975   7.680   5.760  10.452  0.2954  0.9838  0.0667
  377MOL0     H51976   7.662   6.037  10.401  0.1474  0.3039 -0.0664
  377MOL0     H51977   7.735   6.084  10.246 -0.2966  1.4072  1.0858
  377MOL0     H51978   7.913   6.128  10.387 -3.0988  0.8527 -0.7650
  377MOL0     H51979   7.901   5.983  10.475  2.1315  0.9651  0.5090
  377MOL0     H51980   7.971   5.849  10.271 -0.5197  0.2780 -1.6735
  377MOL0     H51981   7.945   5.993  10.170 -1.1231  0.0276 -0.2314
  377MOL0     H51982   8.192   5.913  10.209  0.8134  0.7802  0.2618
  377MOL0     H51983   8.152   6.084  10.231 -2.8312  0.5977 -0.3001
  377MOL0     H51984   8.359   5.777  10.334  0.0415 -0.7326  0.9939
  377MOL0     H51985   8.549   5.685  10.266 -3.6401 -1.2697  4.2026
  377MOL0     H51986   8.649   5.687  10.402 -0.0971  0.4227  0.1040
  377MOL0     H51987   8.700   5.775  10.247  2.2880  1.7267  2.1999
  377MOL0     H51988   8.922   6.232  10.684  1.1851  0.5583  1.1785
  377MOL0     H51989   9.151   6.293  10.699 -1.8306  2.0411 -0.0375
  377MOL0     H51990   9.422   6.140  10.370 -1.6442 -0.6992  2.1748
  377MOL0     H51991   9.383   6.311  10.343 -1.0570  0.2460 -0.2412
  377MOL0     H51992   9.654   6.271  10.383  1.2558  2.7136  1.3437
  377MOL0     H51993   9.575   6.386  10.478  1.9629  1.6095 -3.1280
  377MOL0     H51994   9.660   6.096  10.541  5.7832  1.1123  2.6693
  377MOL0     H51995   9.545   6.169  10.643 -0.6232  0.3033 -1.2533
  377MOL0     H51996   9.728   6.210  10.765  0.5806  3.2255  1.5553
  377MOL0     H51997   9.707   6.356  10.679  0.9725 -0.4973  2.7914
  377MOL0     H51998   9.945   6.210  10.665 -0.3103 -0.5777 -0.3893
  377MOL0     H51999   9.862   6.167  10.508 -0.4607  0.3081 -0.9377
  377MOL0     H52000   9.912   6.437  10.644 -3.0147  2.1049 -1.0822
  377MOL0     H52001   9.854   6.437  10.483 -0.0937  0.2693  0.2631
  377MOL0     H52002  10.046   6.291  10.425  0.9963 -1.0540  1.6158
  377MOL0     H52003  10.124   6.359  10.579 -1.6095  0.4286  1.7632
  377MOL0     H52004  10.041   6.501  10.321 -1.9003 -2.0580  1.9515
  377MOL0     H52005  10.203   6.476  10.370  0.7472 -0.1434  2.1512
  377MOL0     H52006   9.213   6.145  10.296 -0.2191 -0.7262  0.9134
  377MOL0     H52007   8.970   6.139  10.270  1.5975 -1.2518  0.0369
  377MOL0     H52008   8.579   6.188  10.497  0.9596 -0.6779  0.4828
  377MOL0     H52009   8.328   6.183  10.486 -2.2248  0.3687 -3.5739
  377MOL0     H52010   6.902   4.835  10.437 -1.3420 -1.4001 -1.3677
  377MOL0     H52011   6.754   4.818  10.623  0.0961  0.7984  0.4111
  377MOL0     H52012   6.476   4.942  10.904 -1.3300  2.2714  0.3826
  377MOL0     H52013   6.353   4.887  11.088 -2.1010 -0.9060  1.0526
  377MOL0     H52014   6.240   4.778  11.229 -0.3585  1.1353 -0.9789
  377MOL0     H52015   6.139   4.923  11.231 -2.0378  0.4472  0.1846
  377MOL0     H52016   6.044   4.641  11.322 -2.5674 -0.1504  2.0912
  377MOL0     H52017   5.931   4.776  11.274 -0.1513 -1.2510  0.9523
  377MOL0     H52018   6.093   4.902  11.449 -5.4355  2.8948  2.1423
  377MOL0     H52019   5.946   4.833  11.499  1.8492  1.7706  4.7188
  377MOL0     H52020   6.225   4.706  11.506  0.0210 -1.9959  1.4480
  377MOL0     H52021   6.073   4.611  11.551  0.6354 -1.3630 -0.5954
  377MOL0     H52022   6.140   4.834  11.903 -1.8264  0.2285  0.6011
  377MOL0     H52023   6.032   4.758  10.854  0.0733 -1.1654 -1.4985
  377MOL0     H52024   6.194   4.698  10.537  0.6720 -0.6513  0.6471
  377MOL0     H52025   6.053   4.685  10.641  1.2572 -1.4424  1.3767
  377MOL0     H52026   6.088   4.837  10.555 -0.7495  0.2622  0.5164
  378MOL0     O52027  10.221   6.147   2.767 -0.4239 -0.1945 -0.0671
  378MOL0     C52028  10.254   6.077   2.863 -0.4248  0.0069 -0.0665
  378MOL0     O52029  10.167   6.018   2.952  0.1501  0.5632 -0.2618
  378MOL0     C52030  10.030   6.002   2.911  0.7911  0.3737 -0.0135
  378MOL0     C52031   9.984   5.982   2.776  0.7191  0.1536  0.2315
  378MOL0     C52032   9.846   5.981   2.750 -0.3911 -0.4204  0.3588
  378MOL0     C52033   9.750   6.001   2.855 -0.5400  1.3898 -0.0584
  378MOL0     O52034   9.618   5.993   2.841 -0.1606 -0.0023 -0.9132
  378MOL0     C52035   9.553   5.968   2.713  0.9761 -0.8271 -0.0078
  378MOL0     C52036   9.552   5.817   2.680 -0.0942 -0.1349 -0.0099
  378MOL0     C52037   9.418   5.753   2.744  0.8219 -0.3640 -0.8943
  378MOL0     C52038   9.438   5.605   2.729  0.5597 -0.7968 -0.8949
  378MOL0     C52039   9.329   5.513   2.794 -0.2250  0.5186  0.5593
  378MOL0     C52040   9.344   5.515   2.944 -0.5277 -0.0436 -0.0988
  378MOL0     C52041   9.268   5.417   3.030 -0.0054 -0.6011  0.4089
  378MOL0     C52042   9.124   5.450   3.061 -0.3920 -0.9311 -0.2404
  378MOL0     N52043   9.110   5.560   3.153 -0.0545  0.8481 -0.0738
  378MOL0     C52044   9.096   5.691   3.124 -0.4146 -0.4195  0.8249
  378MOL0     C52045   9.076   5.757   3.244 -0.0276 -0.1915 -0.5979
  378MOL0     C52046   9.074   5.910   3.270  0.3229  0.0228  0.3945
  378MOL0     C52047   8.998   6.000   3.177 -0.0299  0.3903  0.0198
  378MOL0     C52048   8.842   6.019   3.190 -0.4568  0.0773 -0.1912
  378MOL0     C52049   8.803   6.066   3.323  0.2153 -0.2871 -0.2532
  378MOL0     O52050   8.675   6.129   3.314  1.1574  0.7252  0.2021
  378MOL0     C52051   8.602   6.158   3.429 -0.7994 -0.2344 -0.2361
  378MOL0     C52052   8.493   6.242   3.409 -0.6090  0.2791 -0.9288
  378MOL0     C52053   8.417   6.280   3.524  0.3033 -0.7895  1.2708
  378MOL0     C52054   8.278   6.343   3.477 -0.6780  0.0361 -0.3701
  378MOL0     C52055   8.452   6.236   3.655 -0.6968 -0.5197 -0.4980
  378MOL0     C52056   8.365   6.256   3.776 -0.2763  0.8647  0.1512
  378MOL0     O52057   8.348   6.150   3.854  0.2380  0.3512  0.2569
  378MOL0     C52058   8.242   6.149   3.932 -0.5151 -0.0557  0.8739
  378MOL0     C52059   8.262   6.143   4.070 -0.0540  0.3331 -0.2549
  378MOL0     C52060   8.149   6.163   4.152  0.4560  0.4581  0.2730
  378MOL0     C52061   8.022   6.178   4.105  0.0763 -0.4843  0.0688
  378MOL0     O52062   7.908   6.192   4.182  0.0640  0.5506  0.1725
  378MOL0     C52063   7.907   6.163   4.322  0.5076  0.6544 -0.6541
  378MOL0     C52064   7.764   6.133   4.359 -0.1385 -0.0239 -0.1995
  378MOL0     C52065   7.681   6.257   4.384 -0.6373  1.0508 -0.6560
  378MOL0     C52066   7.533   6.201   4.402 -0.8541 -1.1198 -0.0386
  378MOL0     C52067   7.429   6.310   4.435 -0.4216  0.7216  0.2401
  378MOL0     C52068   7.310   6.317   4.340 -0.4307 -0.4672 -0.2409
  378MOL0     C52069   7.230   6.191   4.351 -0.4536  0.2614 -0.6251
  378MOL0     C52070   7.136   6.179   4.238  0.3985 -0.0593  0.0933
  378MOL0    Cl52071   7.041   6.033   4.224  0.1908 -0.1755 -0.0323
  378MOL0     C52072   7.996   6.177   3.968 -0.0510 -0.4262 -1.1231
  378MOL0     C52073   8.109   6.162   3.886  0.5921  0.2565 -0.2560
  378MOL0     O52074   8.308   6.364   3.791  0.3506  0.2353 -0.3768
  378MOL0     C52075   8.566   6.158   3.667  0.4898 -0.1553  0.0885
  378MOL0     C52076   8.647   6.124   3.557  0.4113 -0.0620 -0.0549
  378MOL0     N52077   9.070   5.659   3.345  0.7873  0.7308 -0.4654
  378MOL0     N52078   9.085   5.545   3.282  0.0268  1.0559 -0.2181
  378MOL0     C52079   9.796   6.016   2.987 -1.0325 -0.4241  0.8025
  378MOL0     C52080   9.938   6.007   3.014  0.7319 -0.3302  0.1456
  378MOL0     C52081  10.394   6.076   2.905 -0.3616  0.0145  0.2154
  378MOL0     C52082  10.485   6.141   2.807  0.9143  0.9370 -0.0699
  378MOL0     C52083  10.625   6.160   2.833 -0.1477 -1.2798  0.9220
  378MOL0     C52084  10.678   6.128   2.959 -0.4214 -0.9576 -0.2024
  378MOL0     O52085  10.813   6.161   2.989  0.0477  0.0631 -0.6190
  378MOL0     C52086  10.836   6.177   3.127  0.8634  0.3786 -0.0279
  378MOL0     C52087  10.977   6.226   3.148 -0.4692 -0.1199  0.0460
  378MOL0     C52088  11.064   6.099   3.169 -0.1308 -0.4175 -0.5549
  378MOL0     C52089  11.210   6.128   3.153 -0.2912 -0.4538  0.1603
  378MOL0     C52090  11.246   6.171   3.012 -0.9429 -0.1200 -0.0830
  378MOL0     C52091  11.260   6.204   2.898 -0.4209 -0.1838 -0.1030
  378MOL0     C52092  10.596   6.049   3.041  0.1176 -0.3469  0.0229
  378MOL0     C52093  10.458   6.024   3.017 -0.6742  0.6339 -0.3372
  378MOL0     C52094  10.397   5.927   3.124 -0.2513  0.0657  0.7489
  378MOL0     H52095  10.051   5.977   2.691  1.9375  3.0820  0.9025
  378MOL0     H52096   9.816   5.958   2.648 -1.8596 -2.9303  1.2433
  378MOL0     H52097   9.601   6.030   2.636  1.0195  1.0452  1.4536
  378MOL0     H52098   9.449   6.002   2.719  1.3457  0.3121  0.1695
  378MOL0     H52099   9.549   5.813   2.571  0.1445 -3.8099 -0.0086
  378MOL0     H52100   9.641   5.761   2.713  0.4636  1.8037  2.0015
  378MOL0     H52101   9.409   5.777   2.850 -2.6860  0.5299 -1.2914
  378MOL0     H52102   9.327   5.772   2.686  1.3617  0.3558 -1.5366
  378MOL0     H52103   9.429   5.577   2.624 -1.3508 -1.9155 -0.4913
  378MOL0     H52104   9.530   5.581   2.782 -0.0126  1.0139  1.0511
  378MOL0     H52105   9.334   5.408   2.765 -4.0161 -0.9657  4.2914
  378MOL0     H52106   9.226   5.544   2.773 -1.2265 -2.8161 -0.1042
  378MOL0     H52107   9.449   5.497   2.967 -0.1327  1.1923 -0.8059
  378MOL0     H52108   9.325   5.618   2.978  1.1581 -0.3243  1.8519
  378MOL0     H52109   9.326   5.411   3.123  0.8012 -2.5731 -0.1745
  378MOL0     H52110   9.271   5.322   2.976  0.3003  0.9856 -2.5761
  378MOL0     H52111   9.080   5.472   2.963 -1.3435 -2.0146 -0.0714
  378MOL0     H52112   9.078   5.358   3.096  0.7007 -1.8257 -1.1042
  378MOL0     H52113   9.091   5.744   3.029 -1.8118 -0.2940  0.9403
  378MOL0     H52114   9.179   5.930   3.246  0.9851 -4.0182 -0.6970
  378MOL0     H52115   9.051   5.936   3.374 -0.2866 -2.3924  0.9165
  378MOL0     H52116   9.051   6.095   3.187  3.9218 -1.5578 -0.4082
  378MOL0     H52117   9.009   5.955   3.077  2.8641  1.8337 -0.4162
  378MOL0     H52118   8.827   6.102   3.119 -0.7569 -1.1536 -1.6177
  378MOL0     H52119   8.793   5.928   3.154  1.6077  0.4561 -4.5596
  378MOL0     H52120   8.813   5.991   3.402  0.6720  1.5567  1.5293
  378MOL0     H52121   8.877   6.142   3.352  0.9365 -0.4297 -1.6090
  378MOL0     H52122   8.466   6.284   3.312 -0.9993  2.0818 -0.0948
  378MOL0     H52123   8.296   6.399   3.385  0.3438  0.5567  0.1385
  378MOL0     H52124   8.248   6.415   3.553  0.6194  2.3374 -1.9372
  378MOL0     H52125   8.210   6.258   3.465  1.0300 -1.4204 -0.1501
  378MOL0     H52126   8.348   6.125   4.134 -3.1147  0.3438  4.3650
  378MOL0     H52127   8.160   6.169   4.260  3.2102  0.9380  0.0219
  378MOL0     H52128   7.961   6.071   4.346  0.9667  0.8810 -0.8089
  378MOL0     H52129   7.945   6.246   4.383  1.0135  0.6210 -0.9199
  378MOL0     H52130   7.717   6.081   4.275 -2.3478  0.4911  0.6663
  378MOL0     H52131   7.768   6.067   4.446  1.8302 -0.8332 -0.8435
  378MOL0     H52132   7.692   6.327   4.300  1.4597  2.1815  0.4635
  378MOL0     H52133   7.708   6.299   4.481  0.0362  1.0935 -0.8557
  378MOL0     H52134   7.532   6.133   4.487 -0.9853  1.4631  2.1526
  378MOL0     H52135   7.509   6.143   4.312 -1.5431 -1.9972  0.6900
  378MOL0     H52136   7.390   6.294   4.536  2.0728 -1.0395  1.0121
  378MOL0     H52137   7.486   6.403   4.426  0.4105  0.1525 -0.4935
  378MOL0     H52138   7.354   6.334   4.241 -2.7927  0.8171 -1.1625
  378MOL0     H52139   7.249   6.405   4.361  1.3827  0.8134 -0.1420
  378MOL0     H52140   7.180   6.197   4.448  0.0840 -1.2131 -0.2366
  378MOL0     H52141   7.288   6.099   4.357 -1.3395 -0.1985  2.1376
  378MOL0     H52142   7.183   6.191   4.140 -2.6515  3.4826 -1.1649
  378MOL0     H52143   7.068   6.264   4.236 -0.8102 -0.9983  0.2789
  378MOL0     H52144   7.895   6.184   3.929  0.1895  2.4059 -1.4579
  378MOL0     H52145   8.090   6.159   3.779  0.7812  0.2320 -0.2902
  378MOL0     H52146   8.608   6.129   3.763  0.6871  2.2205  0.7773
  378MOL0     H52147   8.739   6.072   3.580  1.1046  0.1608 -2.0761
  378MOL0     H52148   9.737   6.037   3.076 -1.3665  0.7968  0.3214
  378MOL0     H52149   9.963   6.008   3.120 -0.3491  1.3356  0.4160
  378MOL0     H52150  10.440   6.170   2.713 -0.8381 -1.1419  0.0437
  378MOL0     H52151  10.669   6.217   2.753 -2.4677  2.3381  1.9721
  378MOL0     H52152  10.765   6.255   3.158  0.9762  1.0108 -1.2966
  378MOL0     H52153  10.811   6.097   3.198  0.2774  0.5781  0.0024
  378MOL0     H52154  10.972   6.292   3.236  1.9226 -1.4965  1.3246
  378MOL0     H52155  10.999   6.287   3.060 -0.4914 -0.1122  0.0456
  378MOL0     H52156  11.059   6.049   3.266 -0.8507  2.0442  0.7655
  378MOL0     H52157  11.028   6.031   3.091 -2.3881  1.6628 -1.4832
  378MOL0     H52158  11.283   6.052   3.182  1.9009  0.9004 -1.4150
  378MOL0     H52159  11.227   6.209   3.224 -2.2785 -0.2568  0.4726
  378MOL0     H52160  11.286   6.229   2.797  0.6378  5.1109  1.2151
  378MOL0     H52161  10.637   6.005   3.131  1.1177 -1.4179 -0.9248
  378MOL0     H52162  10.340   5.853   3.067 -0.8790  1.3274 -0.3186
  378MOL0     H52163  10.470   5.882   3.192  0.6404  0.6425  0.1852
  378MOL0     H52164  10.335   5.996   3.181 -2.4122 -0.6989 -0.5433
  379MOL0     O52165   2.913  11.406  11.351  0.0520  0.2342 -0.8940
  379MOL0     C52166   2.825  11.389  11.439 -0.0181 -1.5766 -0.2557
  379MOL0     O52167   2.704  11.447  11.428  0.1039  0.0274 -0.9051
  379MOL0     C52168   2.673  11.529  11.326 -0.0051  0.2504  0.3190
  379MOL0     C52169   2.572  11.492  11.236  0.8799 -0.4705 -0.4782
  379MOL0     C52170   2.523  11.578  11.135  0.4777 -0.5766  0.3582
  379MOL0     C52171   2.576  11.712  11.128  0.2694  0.1724  0.2588
  379MOL0     O52172   2.526  11.806  11.040 -0.7435 -0.8172  0.6708
  379MOL0     C52173   2.599  11.834  10.916  0.2358 -0.7995  0.0308
  379MOL0     C52174   2.510  11.911  10.803  0.1637  0.0764  0.6051
  379MOL0     C52175   2.433  11.811  10.711  0.2085 -0.1889  0.4163
  379MOL0     C52176   2.496  11.776  10.579 -0.5086 -0.1386 -0.0465
  379MOL0     C52177   2.416  11.681  10.479  0.7497 -0.0584 -0.5852
  379MOL0     C52178   2.342  11.565  10.546  0.3092  0.3162 -0.7470
  379MOL0     C52179   2.259  11.497  10.440  0.0291  0.1599  0.4208
  379MOL0     C52180   2.203  11.369  10.500  0.1026  0.8944  0.3213
  379MOL0     N52181   2.119  11.295  10.407 -0.4067 -0.7952  0.2558
  379MOL0     C52182   2.018  11.326  10.314 -0.3694 -0.7170 -0.5135
  379MOL0     C52183   1.967  11.206  10.278  0.0260 -0.0402  0.1841
  379MOL0     C52184   1.853  11.191  10.192  0.8272  0.6183  0.3229
  379MOL0     C52185   1.737  11.143  10.281  0.8615 -0.3902  0.3523
  379MOL0     C52186   1.605  11.133  10.195  0.2664  0.6624  0.5198
  379MOL0     C52187   1.503  11.044  10.266 -0.6268  0.1950  0.1676
  379MOL0     O52188   1.545  10.908  10.285 -0.3558  0.5426  0.0453
  379MOL0     C52189   1.475  10.813  10.213 -1.0134  0.1032 -0.8902
  379MOL0     C52190   1.540  10.727  10.121  0.3320 -0.1375  0.4311
  379MOL0     C52191   1.476  10.616  10.063  0.9444  0.2245 -0.6178
  379MOL0     C52192   1.562  10.528   9.979 -0.4099  0.2192  0.0990
  379MOL0     C52193   1.332  10.600  10.079 -0.2591 -0.2771 -0.3374
  379MOL0     C52194   1.247  10.491  10.025  0.6476 -0.0717  0.2720
  379MOL0     O52195   1.121  10.474  10.077  0.3808 -0.0567 -0.1742
  379MOL0     C52196   1.058  10.372  10.025  0.4842 -1.0190 -0.3966
  379MOL0     C52197   0.998  10.383   9.892 -0.2000 -0.4482 -0.1757
  379MOL0     C52198   0.919  10.279   9.831  0.2146 -0.5962  0.0828
  379MOL0     C52199   0.892  10.165   9.910 -0.5075 -0.6233 -0.4122
  379MOL0     O52200   0.827  10.052   9.863  0.0405  0.7941  0.0616
  379MOL0     C52201   0.853  10.000   9.731 -0.6015  0.2535  0.0465
  379MOL0     C52202   0.992   9.936   9.718 -0.1338 -0.4131 -1.0333
  379MOL0     C52203   1.007   9.839   9.593 -0.0962  1.5277  0.1727
  379MOL0     C52204   0.976   9.922   9.475 -0.0686  0.2036  0.0343
  379MOL0     C52205   1.017   9.857   9.351 -0.1489 -0.2744  0.6890
  379MOL0     C52206   0.975   9.961   9.236  0.3823 -0.3991  0.7221
  379MOL0     C52207   1.003   9.911   9.092  0.9175  0.3504  0.4743
  379MOL0     C52208   0.943   9.994   8.985  0.0917 -0.8017 -0.5203
  379MOL0    Cl52209   0.765   9.977   8.993 -0.1775  0.3308 -0.1807
  379MOL0     C52210   0.948  10.166  10.046  0.3669  0.0500 -0.3500
  379MOL0     C52211   1.030  10.267  10.098  0.4836  1.0034  0.0854
  379MOL0     O52212   1.294  10.430   9.928  0.6625 -0.2681  0.6773
  379MOL0     C52213   1.267  10.700  10.158  0.3691  0.2322 -0.4828
  379MOL0     C52214   1.337  10.801  10.223 -0.0152  0.5042 -0.0185
  379MOL0     N52215   2.027  11.105  10.352  0.5192  0.0879  0.1110
  379MOL0     N52216   2.115  11.165  10.427  0.2692 -0.1422  0.1588
  379MOL0     C52217   2.677  11.747  11.223  0.3148  0.5901 -0.1387
  379MOL0     C52218   2.721  11.662  11.320 -0.6437 -0.8124  1.0002
  379MOL0     C52219   2.840  11.292  11.552 -0.3424 -0.2499 -0.0260
  379MOL0     C52220   2.758  11.301  11.665 -0.3521 -0.5249  0.7631
  379MOL0     C52221   2.746  11.196  11.755  0.9494  0.4526  0.0713
  379MOL0     C52222   2.820  11.072  11.737  0.0581 -0.1915  0.7847
  379MOL0     O52223   2.795  10.973  11.830 -0.0277  0.4628  0.1295
  379MOL0     C52224   2.886  10.857  11.834  0.0094  0.0461  0.3065
  379MOL0     C52225   3.025  10.895  11.892 -0.6388 -0.1061 -0.6107
  379MOL0     C52226   3.019  10.919  12.044 -0.1440 -0.3229 -0.2210
  379MOL0     C52227   3.022  10.796  12.129  0.2080 -0.3042  0.2182
  379MOL0     C52228   2.902  10.715  12.132 -0.9525  0.3815  0.2284
  379MOL0     C52229   2.810  10.638  12.154  1.7001  0.3196 -0.3508
  379MOL0     C52230   2.902  11.063  11.627  0.8383  0.8062  0.1292
  379MOL0     C52231   2.919  11.171  11.541 -0.4497 -0.0776 -0.2736
  379MOL0     C52232   3.033  11.167  11.446 -0.7918 -0.0095  0.1859
  379MOL0     H52233   2.540  11.388  11.235 -3.4938  0.6191 -3.6130
  379MOL0     H52234   2.451  11.537  11.064 -0.0219  2.6236 -1.1401
  379MOL0     H52235   2.623  11.734  10.877  1.0347 -1.6542  2.5300
  379MOL0     H52236   2.691  11.890  10.939 -0.0721 -0.5597  0.6861
  379MOL0     H52237   2.442  11.987  10.843  0.2656 -0.0846  1.0948
  379MOL0     H52238   2.585  11.958  10.739 -0.1394  2.5672  1.9474
  379MOL0     H52239   2.427  11.716  10.766 -0.5595 -0.8071 -0.7180
  379MOL0     H52240   2.342  11.868  10.693  0.1459  0.7394  3.1658
  379MOL0     H52241   2.528  11.871  10.534  0.3084  0.5090  1.8321
  379MOL0     H52242   2.586  11.727  10.616  1.8340  3.6534 -0.2102
  379MOL0     H52243   2.484  11.640  10.404 -0.2222  1.2355 -2.2476
  379MOL0     H52244   2.346  11.738  10.417 -1.6744 -2.0123  0.1628
  379MOL0     H52245   2.404  11.497  10.605 -4.0301 -3.0025  0.5393
  379MOL0     H52246   2.265  11.607  10.611 -0.5479  0.4483 -1.8027
  379MOL0     H52247   2.312  11.474  10.347 -0.2688  0.4933  0.1641
  379MOL0     H52248   2.172  11.562  10.424  0.1217  0.6028  1.6645
  379MOL0     H52249   2.294  11.312  10.519  0.2471  0.2471 -1.9895
  379MOL0     H52250   2.142  11.389  10.589 -0.8538  0.0377 -0.1220
  379MOL0     H52251   1.982  11.423  10.279 -1.0783 -1.3918 -1.7616
  379MOL0     H52252   1.874  11.108  10.124 -0.0081  0.6236  0.0454
  379MOL0     H52253   1.818  11.283  10.144 -2.7012 -0.1728  1.0580
  379MOL0     H52254   1.765  11.046  10.323 -1.6032 -2.2064 -1.8986
  379MOL0     H52255   1.716  11.207  10.367 -0.5233  0.0958 -0.3201
  379MOL0     H52256   1.548  11.227  10.191 -1.8692 -0.5394  1.0153
  379MOL0     H52257   1.615  11.103  10.091 -0.5537 -1.0982  0.9180
  379MOL0     H52258   1.488  11.079  10.369 -0.5529  0.7460 -0.0065
  379MOL0     H52259   1.413  11.049  10.205  0.2283 -0.8868 -1.2591
  379MOL0     H52260   1.647  10.733  10.103  0.4216  4.0295  1.2723
  379MOL0     H52261   1.668  10.542  10.003 -1.2639  0.9872  4.2359
  379MOL0     H52262   1.534  10.560   9.879 -2.4933 -3.3503 -0.6129
  379MOL0     H52263   1.529  10.428  10.007 -3.0446  0.8654 -0.4884
  379MOL0     H52264   1.001  10.479   9.843 -3.2282 -0.3890 -0.4497
  379MOL0     H52265   0.874  10.298   9.734 -0.5864  2.0796  0.8918
  379MOL0     H52266   0.771   9.929   9.718 -1.3490  1.4428 -2.2908
  379MOL0     H52267   0.840  10.069   9.647  0.3683 -0.6901 -0.9021
  379MOL0     H52268   1.061  10.021   9.719  0.0331 -0.4956 -2.4817
  379MOL0     H52269   1.010   9.880   9.810 -2.1071  2.3186  1.2040
  379MOL0     H52270   0.933   9.759   9.606  1.3801  0.4679  2.9575
  379MOL0     H52271   1.100   9.784   9.572 -1.9785 -1.6956 -0.4854
  379MOL0     H52272   1.007  10.027   9.483 -0.9749  0.3972  1.4235
  379MOL0     H52273   0.867   9.935   9.471 -0.0997 -0.1466 -0.3326
  379MOL0     H52274   1.125   9.843   9.349 -0.3710 -2.3616  0.2264
  379MOL0     H52275   0.967   9.761   9.335 -2.8007  0.8090  1.7976
  379MOL0     H52276   1.041  10.048   9.251 -0.7991  0.9125 -1.2576
  379MOL0     H52277   0.871   9.993   9.245  0.6490  1.1542 -0.9782
  379MOL0     H52278   0.962   9.810   9.084 -0.2273  0.6708  1.8649
  379MOL0     H52279   1.111   9.904   9.072  0.8021 -0.1947  0.0000
  379MOL0     H52280   0.979   9.976   8.883  1.2074  2.2680 -0.7865
  379MOL0     H52281   0.965  10.100   9.002 -0.0491 -0.9497  0.6141
  379MOL0     H52282   0.928  10.076  10.103 -2.6742 -0.1508 -1.5546
  379MOL0     H52283   1.049  10.261  10.204  0.1381 -1.3379  0.0771
  379MOL0     H52284   1.159  10.710  10.169  0.1519 -0.7302 -1.5461
  379MOL0     H52285   1.280  10.872  10.282 -0.9786  2.4949 -3.0577
  379MOL0     H52286   2.718  11.848  11.224  1.1594  0.2638  0.9869
  379MOL0     H52287   2.785  11.707  11.396 -1.7512  2.1705  0.2946
  379MOL0     H52288   2.689  11.385  11.671 -2.9979 -2.5326  0.0421
  379MOL0     H52289   2.686  11.205  11.845  0.1892  0.2640 -0.4045
  379MOL0     H52290   2.840  10.786  11.902 -1.0080  2.0259  1.7913
  379MOL0     H52291   2.894  10.811  11.735  0.5086 -0.4174  0.5607
  379MOL0     H52292   3.080  10.976  11.842  1.2997 -0.1214  1.3486
  379MOL0     H52293   3.079  10.802  11.872 -1.2598 -1.1847  2.3055
  379MOL0     H52294   3.102  10.987  12.063  0.1736 -0.7524 -0.0652
  379MOL0     H52295   2.927  10.976  12.061  0.7879  0.6349  1.9537
  379MOL0     H52296   3.059  10.809  12.231 -3.5737  1.2663  1.5449
  379MOL0     H52297   3.098  10.741  12.072  1.0707  2.8561 -1.9945
  379MOL0     H52298   2.723  10.576  12.168 -1.3938  4.4969  0.7925
  379MOL0     H52299   2.960  10.977  11.595 -1.3932 -0.4227 -0.8429
  379MOL0     H52300   3.098  11.255  11.445 -0.7615 -0.0204  0.8210
  379MOL0     H52301   3.103  11.088  11.474 -0.3870  0.5247  0.7093
  379MOL0     H52302   3.000  11.165  11.342 -1.8579  1.3311  0.4720
  380MOL0     O52303   5.574   7.480   5.599 -0.7608 -0.4430 -0.7872
  380MOL0     C52304   5.501   7.382   5.592 -0.3752 -0.0023  0.7012
  380MOL0     O52305   5.486   7.311   5.477 -0.0479  0.0405  0.9184
  380MOL0     C52306   5.554   7.350   5.363 -0.5581  0.1136  0.2268
  380MOL0     C52307   5.482   7.394   5.251 -0.1040 -1.0612 -0.6185
  380MOL0     C52308   5.555   7.422   5.133 -0.1732 -0.1723 -0.1941
  380MOL0     C52309   5.693   7.401   5.128  0.2747  0.9645 -0.0384
  380MOL0     O52310   5.760   7.426   5.009  0.7621 -0.0006  0.2891
  380MOL0     C52311   5.887   7.483   5.007  0.0487 -0.5851  0.1749
  380MOL0     C52312   5.874   7.638   5.037 -0.3808  0.7289 -0.9512
  380MOL0     C52313   5.832   7.729   4.914 -0.5934  0.1395 -0.0325
  380MOL0     C52314   5.687   7.708   4.869  0.1130  0.6216 -1.0774
  380MOL0     C52315   5.643   7.796   4.754 -0.0438 -0.5576  0.7866
  380MOL0     C52316   5.576   7.926   4.799 -0.3640  0.3713 -0.0898
  380MOL0     C52317   5.439   7.949   4.752 -0.0389  0.4408  0.5274
  380MOL0     C52318   5.352   7.866   4.854 -0.5429  0.3470  0.3916
  380MOL0     N52319   5.209   7.883   4.823 -0.3276  0.7808  0.6495
  380MOL0     C52320   5.101   7.794   4.857  0.4286 -0.7856 -0.1971
  380MOL0     C52321   4.989   7.855   4.835  0.4898 -0.4557  0.3258
  380MOL0     C52322   4.843   7.798   4.850 -0.3820 -0.5233 -0.3884
  380MOL0     C52323   4.827   7.791   5.002  0.8255  0.8625  0.2642
  380MOL0     C52324   4.714   7.696   5.041  0.1415  0.2861 -1.1269
  380MOL0     C52325   4.576   7.749   5.003 -0.3621  0.2593  0.2066
  380MOL0     O52326   4.531   7.875   5.058  0.5879 -0.5187 -0.6307
  380MOL0     C52327   4.450   7.868   5.174 -0.7472  0.0951  0.6856
  380MOL0     C52328   4.396   7.984   5.213  0.4320 -0.4869 -0.4735
  380MOL0     C52329   4.295   7.989   5.313 -0.7732 -0.3275  0.1673
  380MOL0     C52330   4.219   8.118   5.329 -0.7615 -0.2883 -0.2834
  380MOL0     C52331   4.245   7.870   5.370 -1.1317 -0.2124  0.6906
  380MOL0     C52332   4.132   7.866   5.459  0.1893  0.4816 -0.1617
  380MOL0     O52333   4.123   7.955   5.567 -0.2118 -0.4088 -0.2028
  380MOL0     C52334   3.999   7.967   5.632 -0.0336 -1.3483 -0.7767
  380MOL0     C52335   3.956   7.862   5.706  0.0083 -1.1095  0.0962
  380MOL0     C52336   3.853   7.878   5.789  0.1799  0.7641  0.6604
  380MOL0     C52337   3.770   7.994   5.783 -0.7848  0.6180 -2.0628
  380MOL0     O52338   3.656   8.011   5.863  0.2175 -0.5125  0.4097
  380MOL0     C52339   3.561   7.902   5.854  0.0775 -0.1350 -0.3454
  380MOL0     C52340   3.498   7.903   5.996 -0.1459  0.2546  0.1481
  380MOL0     C52341   3.408   7.785   6.009  0.6357 -0.0587 -0.5623
  380MOL0     C52342   3.355   7.793   6.151  0.2812  0.8585  0.4874
  380MOL0     C52343   3.294   7.660   6.209  1.3967 -0.3778  0.2625
  380MOL0     C52344   3.379   7.545   6.234 -0.4662 -0.0851  1.0556
  380MOL0     C52345   3.496   7.569   6.335 -0.1653 -0.1976 -0.1026
  380MOL0     C52346   3.455   7.520   6.479 -0.8717 -0.6303 -0.1331
  380MOL0    Cl52347   3.344   7.651   6.549 -0.4304 -0.0665  0.1747
  380MOL0     C52348   3.815   8.100   5.711 -0.0395  0.9407 -0.2301
  380MOL0     C52349   3.944   8.095   5.642  0.4520  0.3960 -0.3854
  380MOL0     O52350   4.050   7.777   5.427  0.6414  0.2058  0.0636
  380MOL0     C52351   4.316   7.755   5.337 -0.4185  0.3792 -0.1390
  380MOL0     C52352   4.425   7.746   5.248  0.0177  0.3268  0.0659
  380MOL0     N52353   5.023   7.980   4.780  0.0326 -0.0954 -0.0320
  380MOL0     N52354   5.151   7.999   4.790 -0.7915  0.0885  0.1990
  380MOL0     C52355   5.762   7.351   5.248  0.3276  0.2364 -0.3604
  380MOL0     C52356   5.687   7.328   5.364 -1.0635  0.3074 -0.0678
  380MOL0     C52357   5.411   7.359   5.698 -0.9085 -0.5064  0.2364
  380MOL0     C52358   5.288   7.303   5.661 -0.2601  0.2467  0.6771
  380MOL0     C52359   5.194   7.283   5.757  0.7279 -0.2190  0.0769
  380MOL0     C52360   5.216   7.314   5.894 -0.7499 -0.7094  0.0472
  380MOL0     O52361   5.120   7.294   5.989 -0.1901  0.3371  0.7110
  380MOL0     C52362   5.029   7.183   5.982 -0.8252  0.1313 -0.4671
  380MOL0     C52363   4.891   7.228   5.935  0.2369  0.4911 -0.8259
  380MOL0     C52364   4.763   7.145   5.981 -0.6327  0.0338 -0.0564
  380MOL0     C52365   4.768   6.999   5.958 -0.9143 -0.5094 -0.3800
  380MOL0     C52366   4.778   6.983   5.811 -0.3964  0.2101 -0.8058
  380MOL0     C52367   4.780   6.977   5.691  0.0540  0.5115 -0.2709
  380MOL0     C52368   5.336   7.389   5.925  0.5659 -0.4365  0.8196
  380MOL0     C52369   5.434   7.417   5.830 -0.4458  0.8458  1.0134
  380MOL0     C52370   5.566   7.478   5.873  0.5613 -0.6471  0.0403
  380MOL0     H52371   5.375   7.406   5.263  0.2513  0.5845  1.6945
  380MOL0     H52372   5.507   7.444   5.038 -0.7797 -0.5777  0.0107
  380MOL0     H52373   5.924   7.471   4.905  1.5379 -2.1727  0.8304
  380MOL0     H52374   5.962   7.437   5.072  1.0171 -0.5275 -0.8766
  380MOL0     H52375   5.800   7.658   5.115  0.9938  3.1770 -0.1885
  380MOL0     H52376   5.966   7.675   5.083 -0.0351  0.9408 -1.7850
  380MOL0     H52377   5.861   7.834   4.918  1.4173 -0.4177  2.1974
  380MOL0     H52378   5.893   7.694   4.831  1.7822 -0.5833  1.9061
  380MOL0     H52379   5.673   7.603   4.842 -1.4042  0.7795 -0.9989
  380MOL0     H52380   5.626   7.747   4.952  0.8621  0.5734 -0.4890
  380MOL0     H52381   5.570   7.735   4.701 -0.4564 -1.4304  2.3107
  380MOL0     H52382   5.718   7.800   4.674 -0.9522 -0.1106 -0.0622
  380MOL0     H52383   5.585   7.943   4.907  2.5883  0.8998 -0.3339
  380MOL0     H52384   5.642   8.003   4.759 -0.0885  1.7410  2.7434
  380MOL0     H52385   5.421   7.918   4.648 -3.0585 -0.2505  1.1674
  380MOL0     H52386   5.416   8.056   4.758 -1.5047  0.3076 -1.4606
  380MOL0     H52387   5.374   7.759   4.853  0.1426  0.3706  3.1621
  380MOL0     H52388   5.374   7.903   4.955 -0.2922 -0.2640  0.5650
  380MOL0     H52389   5.111   7.693   4.896 -1.6111 -1.2394 -0.7222
  380MOL0     H52390   4.841   7.699   4.803  0.5450 -0.9596  0.4354
  380MOL0     H52391   4.773   7.862   4.796  0.9587 -0.1210 -1.7015
  380MOL0     H52392   4.914   7.750   5.055  0.0203  0.9122  1.6744
  380MOL0     H52393   4.803   7.888   5.047 -1.1117  1.0582 -1.0649
  380MOL0     H52394   4.726   7.603   4.985 -0.4815 -0.1736 -0.4993
  380MOL0     H52395   4.725   7.683   5.149 -1.1017  2.7826 -0.6358
  380MOL0     H52396   4.588   7.777   4.898  0.6170  2.0998  0.7717
  380MOL0     H52397   4.501   7.669   5.003  0.3696 -0.4391 -0.5201
  380MOL0     H52398   4.428   8.074   5.162 -0.6662 -1.7254 -3.5640
  380MOL0     H52399   4.222   8.136   5.437  0.4800 -0.1530 -0.3300
  380MOL0     H52400   4.114   8.102   5.301 -0.1633 -1.7522 -1.8436
  380MOL0     H52401   4.265   8.203   5.278 -2.0192 -0.3044 -1.5096
  380MOL0     H52402   4.010   7.769   5.690  0.5821 -0.4317 -2.4926
  380MOL0     H52403   3.820   7.792   5.847 -1.3005  1.2817  0.6222
  380MOL0     H52404   3.488   7.930   5.778  0.2987  1.4262 -0.0312
  380MOL0     H52405   3.605   7.802   5.848 -0.8242 -0.6339  1.0208
  380MOL0     H52406   3.576   7.899   6.073 -0.2087 -2.5109  0.1618
  380MOL0     H52407   3.449   8.001   5.995 -1.7024 -0.5123 -0.6747
  380MOL0     H52408   3.455   7.686   6.003 -2.8577 -1.9415 -0.1604
  380MOL0     H52409   3.325   7.787   5.937  2.9066  1.3099 -3.3355
  380MOL0     H52410   3.274   7.867   6.151 -0.0287  0.7052  4.3136
  380MOL0     H52411   3.428   7.837   6.219  0.2577  1.2097  0.2913
  380MOL0     H52412   3.242   7.682   6.303  1.1147  1.1309 -0.2124
  380MOL0     H52413   3.211   7.631   6.143 -0.9353  0.3862  2.6702
  380MOL0     H52414   3.414   7.513   6.135 -0.4323  1.6047  0.4898
  380MOL0     H52415   3.322   7.457   6.267 -0.2853 -0.9425 -0.7477
  380MOL0     H52416   3.532   7.672   6.328 -1.2104  0.1544 -0.4191
  380MOL0     H52417   3.580   7.514   6.292  0.1724  0.8166 -0.7738
  380MOL0     H52418   3.539   7.498   6.545 -1.2892 -1.8964  0.0000
  380MOL0     H52419   3.391   7.432   6.471 -1.8877 -0.0913  1.5889
  380MOL0     H52420   3.765   8.196   5.724 -1.2072  0.6124 -1.9717
  380MOL0     H52421   3.994   8.183   5.605  0.9533  0.2043 -0.1810
  380MOL0     H52422   4.295   7.668   5.398 -0.1237 -0.4652 -1.1963
  380MOL0     H52423   4.474   7.650   5.233 -0.4234 -0.0952  1.2244
  380MOL0     H52424   5.868   7.331   5.256  0.1558 -0.4920  0.1096
  380MOL0     H52425   5.757   7.299   5.442  1.5509 -1.1992 -2.7508
  380MOL0     H52426   5.270   7.259   5.564  4.1132  0.0641 -0.2699
  380MOL0     H52427   5.093   7.249   5.732  0.1101 -1.7247  3.8920
  380MOL0     H52428   5.060   7.102   5.914 -1.7251 -0.3357 -0.3351
  380MOL0     H52429   5.010   7.148   6.084 -0.0762  1.3245  0.1000
  380MOL0     H52430   4.890   7.231   5.825 -2.5165  2.5923 -0.8582
  380MOL0     H52431   4.879   7.329   5.975 -1.9327 -0.0988  0.2059
  380MOL0     H52432   4.728   7.181   6.078 -3.5800  2.6470 -1.8639
  380MOL0     H52433   4.677   7.184   5.924  0.7238  2.8811 -0.3412
  380MOL0     H52434   4.682   6.951   6.005  2.2152 -4.5348  1.9179
  380MOL0     H52435   4.856   6.954   6.005 -0.6112  0.7551  0.2946
  380MOL0     H52436   4.779   6.989   5.584  0.0695 -0.3208 -0.3702
  380MOL0     H52437   5.353   7.406   6.031  0.6121  1.0072  0.5950
  380MOL0     H52438   5.565   7.488   5.982 -2.6827 -3.0810  0.3573
  380MOL0     H52439   5.649   7.422   5.828  0.1584 -0.7718 -0.5574
  380MOL0     H52440   5.560   7.576   5.824 -1.5798 -1.8140 -2.2572
  381MOL0     O52441   2.051   1.234   7.240  0.4514 -0.4069 -0.4459
  381MOL0     C52442   1.970   1.253   7.148 -0.5056 -0.7442 -0.2549
  381MOL0     O52443   2.000   1.293   7.022  0.1239  0.1112  0.0607
  381MOL0     C52444   2.126   1.338   6.996 -0.4302 -0.3505 -0.8257
  381MOL0     C52445   2.236   1.250   7.003  0.3903  0.3434 -0.6781
  381MOL0     C52446   2.365   1.298   6.982 -0.6479  0.5464 -0.2535
  381MOL0     C52447   2.392   1.428   6.950  0.9415  0.2617 -0.1116
  381MOL0     O52448   2.518   1.480   6.953 -0.4531 -0.4992  0.0617
  381MOL0     C52449   2.586   1.484   7.083  1.3119 -0.6783 -0.4001
  381MOL0     C52450   2.735   1.504   7.076 -0.0494 -0.4965 -0.8687
  381MOL0     C52451   2.779   1.497   7.228  0.4928  0.0951  0.5381
  381MOL0     C52452   2.928   1.526   7.223  0.0268  0.8071 -0.5348
  381MOL0     C52453   2.994   1.486   7.359  0.1146 -0.2266  0.8436
  381MOL0     C52454   3.142   1.521   7.344 -0.2911  0.3905  0.3258
  381MOL0     C52455   3.224   1.495   7.468 -0.0346 -0.6318  0.7209
  381MOL0     C52456   3.210   1.611   7.570  0.3046 -0.1561 -0.1197
  381MOL0     N52457   3.281   1.727   7.516 -0.3579 -0.2876  0.2876
  381MOL0     C52458   3.416   1.747   7.527 -0.7629  0.1106 -0.9934
  381MOL0     C52459   3.446   1.865   7.473  0.4664  0.5321 -0.0871
  381MOL0     C52460   3.572   1.932   7.439 -0.1747  0.0835 -0.7777
  381MOL0     C52461   3.651   1.870   7.321 -0.0622  0.4273  0.0423
  381MOL0     C52462   3.563   1.828   7.202  0.2717  0.1468  0.2150
  381MOL0     C52463   3.483   1.945   7.142 -0.1528  0.2057 -0.1034
  381MOL0     O52464   3.571   2.047   7.095  0.0289  0.2688  0.5085
  381MOL0     C52465   3.514   2.155   7.029  0.3587  0.4320 -0.0656
  381MOL0     C52466   3.404   2.228   7.089  0.0760  0.4360  0.3449
  381MOL0     C52467   3.341   2.339   7.019 -0.2085  0.6575 -0.5767
  381MOL0     C52468   3.226   2.403   7.079  0.0136  0.3152 -0.7294
  381MOL0     C52469   3.389   2.376   6.892 -0.5792 -0.0588 -0.0807
  381MOL0     C52470   3.321   2.469   6.805  0.4056  0.2039 -0.4251
  381MOL0     O52471   3.188   2.450   6.774  0.3156  0.5194  0.5821
  381MOL0     C52472   3.106   2.557   6.742  0.1421  0.2000 -0.2761
  381MOL0     C52473   3.129   2.695   6.773  0.5617  0.7987 -0.0232
  381MOL0     C52474   3.045   2.797   6.741 -0.0242 -0.6928 -0.8498
  381MOL0     C52475   2.935   2.768   6.670 -0.4022 -0.2905  0.5054
  381MOL0     O52476   2.857   2.875   6.647  1.7259 -0.3500 -0.7851
  381MOL0     C52477   2.787   2.903   6.521 -0.2432  0.6777 -0.0355
  381MOL0     C52478   2.824   3.042   6.467 -0.6047 -0.0353 -0.2348
  381MOL0     C52479   2.965   3.051   6.414  0.1251  0.0879 -0.1951
  381MOL0     C52480   3.036   3.190   6.381  0.1425 -0.1383  1.5239
  381MOL0     C52481   3.180   3.178   6.334  0.2628 -0.1607 -0.1919
  381MOL0     C52482   3.239   3.310   6.269  0.4122  0.6130 -0.1986
  381MOL0     C52483   3.203   3.319   6.120  0.4181 -1.3433  0.2262
  381MOL0     C52484   3.295   3.413   6.039 -0.1398  0.8934  0.3272
  381MOL0    Cl52485   3.224   3.492   5.884  0.6090 -0.0399 -0.0878
  381MOL0     C52486   2.898   2.633   6.634  0.0866  0.3838  0.4728
  381MOL0     C52487   2.987   2.528   6.679  0.1970  0.4475  0.4670
  381MOL0     O52488   3.403   2.545   6.750  0.6684  0.2502  0.8433
  381MOL0     C52489   3.508   2.312   6.838  0.2258 -0.5305 -1.0657
  381MOL0     C52490   3.559   2.200   6.906  0.2073  0.0716  0.0268
  381MOL0     N52491   3.328   1.928   7.448 -0.3170  0.2638 -1.1748
  381MOL0     N52492   3.230   1.849   7.473 -0.1805  0.4211 -0.1448
  381MOL0     C52493   2.281   1.517   6.930 -0.2395  0.2326  0.1850
  381MOL0     C52494   2.154   1.472   6.962  0.1795 -0.2728  0.2026
  381MOL0     C52495   1.827   1.234   7.178 -0.0497  0.1853  0.0214
  381MOL0     C52496   1.738   1.278   7.080 -0.8715 -0.1642  0.2299
  381MOL0     C52497   1.602   1.245   7.096 -0.1725 -0.2395  0.4621
  381MOL0     C52498   1.548   1.178   7.206 -0.9101  0.5852  0.6960
  381MOL0     O52499   1.415   1.148   7.222 -0.2841 -1.0325  0.0716
  381MOL0     C52500   1.339   1.108   7.111 -1.6348 -0.0417  0.4048
  381MOL0     C52501   1.265   0.972   7.142  0.1482  0.4664  0.4525
  381MOL0     C52502   1.216   0.897   7.017 -0.8915 -0.0235  0.1631
  381MOL0     C52503   1.156   0.762   7.073 -0.8005 -0.2066  0.6260
  381MOL0     C52504   1.174   0.660   6.968 -0.0150 -0.3651 -0.3903
  381MOL0     C52505   1.191   0.569   6.886 -0.3041  0.5932 -0.7281
  381MOL0     C52506   1.640   1.142   7.301 -0.4268 -0.1254 -0.6654
  381MOL0     C52507   1.781   1.161   7.292 -0.2819 -0.6355 -0.1163
  381MOL0     C52508   1.871   1.118   7.402  0.6969  0.0972 -0.5677
  381MOL0     H52509   2.216   1.145   7.026  2.0127 -0.0085 -0.7915
  381MOL0     H52510   2.445   1.226   7.000 -1.9562 -0.8843  0.0397
  381MOL0     H52511   2.567   1.394   7.142 -0.3939 -0.4821 -0.5980
  381MOL0     H52512   2.541   1.567   7.138  2.1612  0.6637 -1.6678
  381MOL0     H52513   2.784   1.428   7.015 -0.7505  0.9804 -3.4179
  381MOL0     H52514   2.746   1.606   7.037 -2.6111  1.2067  2.3516
  381MOL0     H52515   2.737   1.576   7.290  1.2234  0.8578  0.0920
  381MOL0     H52516   2.757   1.401   7.277 -1.9508 -0.3817 -1.3162
  381MOL0     H52517   2.978   1.484   7.135 -0.2800  2.8602 -1.7620
  381MOL0     H52518   2.928   1.635   7.211  0.3650  0.5866 -3.1557
  381MOL0     H52519   2.974   1.382   7.387 -2.4985 -0.5521 -1.7813
  381MOL0     H52520   2.941   1.556   7.424 -0.4241  3.2254 -2.8870
  381MOL0     H52521   3.181   1.457   7.265  1.0630 -0.5657  1.7122
  381MOL0     H52522   3.160   1.622   7.308  1.1386 -0.1466 -0.5030
  381MOL0     H52523   3.327   1.489   7.434 -0.4401 -1.7755 -0.3934
  381MOL0     H52524   3.191   1.404   7.520  1.3840 -1.2623  0.5474
  381MOL0     H52525   3.106   1.638   7.589 -0.4379 -3.5050  1.4784
  381MOL0     H52526   3.241   1.575   7.669 -0.5112  2.5642  1.2217
  381MOL0     H52527   3.491   1.674   7.557 -0.7121 -0.2323 -1.9353
  381MOL0     H52528   3.640   1.934   7.524 -1.8508 -0.6337  0.6329
  381MOL0     H52529   3.559   2.038   7.420  0.7294  0.0811 -1.4999
  381MOL0     H52530   3.717   1.946   7.278 -2.4246  2.1222 -0.8134
  381MOL0     H52531   3.713   1.790   7.363  1.5157  0.0901 -2.6725
  381MOL0     H52532   3.619   1.764   7.132  0.8978  0.0488  0.7940
  381MOL0     H52533   3.501   1.747   7.242 -0.0760  0.4619  0.3133
  381MOL0     H52534   3.411   1.919   7.064  0.8972  1.2691 -1.4903
  381MOL0     H52535   3.417   1.987   7.218  1.6440  0.7614  1.2235
  381MOL0     H52536   3.356   2.207   7.184  3.7846  3.0825  3.1509
  381MOL0     H52537   3.226   2.512   7.086 -4.2706  0.4329  0.5943
  381MOL0     H52538   3.218   2.375   7.184  0.1072  1.7776 -0.3148
  381MOL0     H52539   3.130   2.382   7.031 -0.1849  1.4231 -0.8382
  381MOL0     H52540   3.220   2.728   6.823 -0.9881  2.4487  1.8906
  381MOL0     H52541   3.066   2.899   6.773  3.3092 -1.4381 -0.2685
  381MOL0     H52542   2.817   2.832   6.443  1.2331  2.0634 -0.7839
  381MOL0     H52543   2.680   2.885   6.535  0.2610 -1.9597  0.9091
  381MOL0     H52544   2.747   3.077   6.398 -2.6096  1.3301  2.5044
  381MOL0     H52545   2.816   3.108   6.554 -0.7779 -0.3166 -0.0375
  381MOL0     H52546   2.970   2.978   6.333  1.9705 -1.0843  0.9121
  381MOL0     H52547   3.010   3.012   6.505 -2.7135  0.0866  1.3402
  381MOL0     H52548   3.046   3.249   6.472 -1.5386  0.6098  1.2586
  381MOL0     H52549   2.973   3.246   6.310  0.4007  0.8582  2.0671
  381MOL0     H52550   3.243   3.141   6.415 -0.8166  0.0719  0.7917
  381MOL0     H52551   3.182   3.105   6.253 -2.2955 -0.9520  0.3707
  381MOL0     H52552   3.346   3.290   6.280  0.1845 -1.3151 -0.9531
  381MOL0     H52553   3.207   3.397   6.326  0.9846 -0.3313  1.6746
  381MOL0     H52554   3.101   3.355   6.107  1.5887  2.0017 -0.5166
  381MOL0     H52555   3.205   3.221   6.072 -0.8331 -0.4312 -1.7837
  381MOL0     H52556   3.388   3.369   6.002  0.3328  0.6544  1.7413
  381MOL0     H52557   3.333   3.487   6.111  1.4076 -2.4475  3.2327
  381MOL0     H52558   2.806   2.612   6.579  1.4950 -0.2889 -1.7488
  381MOL0     H52559   2.962   2.426   6.652 -0.0903 -0.3074  3.2508
  381MOL0     H52560   3.542   2.339   6.739  0.3853  2.0950 -0.3559
  381MOL0     H52561   3.637   2.146   6.854  0.5438  0.1464  0.4500
  381MOL0     H52562   2.305   1.617   6.895  0.9636 -0.4767 -1.1550
  381MOL0     H52563   2.070   1.539   6.970 -0.8575 -1.7019  2.1440
  381MOL0     H52564   1.767   1.324   6.986 -2.5225 -2.9143 -1.7611
  381MOL0     H52565   1.539   1.298   7.025  2.0898 -0.8894 -2.2425
  381MOL0     H52566   1.282   1.191   7.069  3.3584  3.3683 -0.4904
  381MOL0     H52567   1.406   1.080   7.029 -0.7996 -0.5179  1.2359
  381MOL0     H52568   1.171   0.991   7.195 -0.4900  0.0874 -0.5089
  381MOL0     H52569   1.325   0.907   7.207 -1.2061 -0.9548  0.3409
  381MOL0     H52570   1.136   0.954   6.969 -0.0017 -0.0095 -1.3595
  381MOL0     H52571   1.295   0.879   6.943 -0.9747 -0.7790  0.2465
  381MOL0     H52572   1.048   0.755   7.088 -1.0587 -0.9645 -1.3145
  381MOL0     H52573   1.210   0.733   7.163  0.9961  2.8513  0.6729
  381MOL0     H52574   1.210   0.492   6.814  0.3021  2.2593 -2.4437
  381MOL0     H52575   1.605   1.078   7.382 -1.4125 -1.7085 -2.2575
  381MOL0     H52576   1.940   1.041   7.368  0.6931 -1.3851  2.4090
  381MOL0     H52577   1.938   1.194   7.444  1.4536 -0.4246 -0.8193
  381MOL0     H52578   1.814   1.071   7.483  1.7532 -2.1362 -1.0589
  382MOL0     O52579  11.363   2.883   0.161  0.1281 -0.1310  0.6579
  382MOL0     C52580  11.290   2.789   0.147  0.3414  1.5105  0.1410
  382MOL0     O52581  11.301   2.683   0.059  0.0060  0.0708 -0.2482
  382MOL0     C52582  11.377   2.674  -0.052  0.2350  0.7828  0.1304
  382MOL0     C52583  11.367   2.556  -0.145 -0.4878 -1.0779 -0.2179
  382MOL0     C52584  11.425   2.554  -0.272  0.2485  0.3379  0.1144
  382MOL0     C52585  11.523   2.654  -0.298  0.5019 -0.6048  1.0758
  382MOL0     O52586  11.595   2.665  -0.414 -0.3636 -0.0704 -0.2504
  382MOL0     C52587  11.621   2.555  -0.503  0.4124 -0.6313  0.0231
  382MOL0     C52588  11.669   2.419  -0.445 -0.5163 -0.7422 -0.5089
  382MOL0     C52589  11.814   2.423  -0.400 -0.0062  0.4426  1.4586
  382MOL0     C52590  11.840   2.287  -0.331  0.0465 -0.1245  0.6843
  382MOL0     C52591  11.989   2.273  -0.296 -0.3650 -0.1726 -0.6983
  382MOL0     C52592  12.017   2.152  -0.205 -0.5325  1.2532  0.2272
  382MOL0     C52593  11.986   2.007  -0.261  0.3110 -0.5866  0.5448
  382MOL0     C52594  12.040   1.895  -0.169  1.0668  0.3912 -0.4552
  382MOL0     N52595  11.991   1.762  -0.220 -0.5035 -0.4284 -0.2708
  382MOL0     C52596  12.059   1.691  -0.311 -0.3301 -0.8638  0.4638
  382MOL0     C52597  11.970   1.599  -0.335 -0.4446 -0.5749  0.3368
  382MOL0     C52598  12.014   1.498  -0.428  0.1497  1.3300  0.2859
  382MOL0     C52599  12.104   1.400  -0.350  0.7086  0.4079 -0.4845
  382MOL0     C52600  12.130   1.267  -0.416  0.1691 -0.5132  0.0165
  382MOL0     C52601  12.221   1.289  -0.537  0.2722  0.3293  0.2641
  382MOL0     O52602  12.261   1.170  -0.600 -0.6371  0.1751 -0.1427
  382MOL0     C52603  12.323   1.181  -0.720  0.4348 -0.1443 -0.1268
  382MOL0     C52604  12.330   1.056  -0.796 -0.0446 -0.2998  0.6336
  382MOL0     C52605  12.380   1.063  -0.923 -0.1117  0.5976 -0.4809
  382MOL0     C52606  12.401   0.940  -0.995  0.2684  0.7687 -0.7411
  382MOL0     C52607  12.413   1.187  -0.980  0.2590  0.3001  0.3775
  382MOL0     C52608  12.448   1.202  -1.121  0.1972  0.2277  0.4278
  382MOL0     O52609  12.576   1.243  -1.141 -0.1529 -0.5175 -0.6235
  382MOL0     C52610  12.633   1.281  -1.264 -0.3245 -0.2077  0.3687
  382MOL0     C52611  12.769   1.296  -1.256 -0.5124  0.6481 -0.0488
  382MOL0     C52612  12.856   1.291  -1.369 -0.2580  0.2499  0.0043
  382MOL0     C52613  12.790   1.274  -1.499  0.6639 -0.1432 -0.2118
  382MOL0     O52614  12.865   1.256  -1.607  0.2043  0.7194 -0.3005
  382MOL0     C52615  12.827   1.143  -1.691 -0.6328 -0.2711  0.5889
  382MOL0     C52616  12.949   1.107  -1.774 -1.0077 -0.0992  0.1369
  382MOL0     C52617  13.068   1.058  -1.689 -0.2821  0.2196  0.3365
  382MOL0     C52618  13.074   0.910  -1.681  0.3429 -0.0371  0.2559
  382MOL0     C52619  13.204   0.866  -1.624 -0.2685  0.8109  0.0687
  382MOL0     C52620  13.193   0.731  -1.554 -0.2093 -0.0429  0.2147
  382MOL0     C52621  13.197   0.608  -1.657 -0.0175  0.3857 -0.5332
  382MOL0     C52622  13.173   0.468  -1.591  0.0480 -1.3042 -0.3261
  382MOL0    Cl52623  13.014   0.469  -1.499 -0.6989  0.3555  0.4952
  382MOL0     C52624  12.649   1.275  -1.512  0.0147  0.7413  0.1361
  382MOL0     C52625  12.567   1.272  -1.399  1.2238 -0.0126 -0.9016
  382MOL0     O52626  12.366   1.176  -1.206 -0.6838  0.0064  0.1849
  382MOL0     C52627  12.418   1.301  -0.899 -0.5940 -1.2556 -0.7750
  382MOL0     C52628  12.366   1.307  -0.770 -1.2316  0.1160 -0.9544
  382MOL0     N52629  11.851   1.615  -0.272  0.0281 -0.6663 -0.6128
  382MOL0     N52630  11.865   1.720  -0.194 -0.4697  1.5966 -0.0717
  382MOL0     C52631  11.534   2.766  -0.207 -0.2209  0.4712  0.7840
  382MOL0     C52632  11.469   2.767  -0.089 -0.9435 -0.0619 -0.6246
  382MOL0     C52633  11.200   2.757   0.258 -0.0260 -0.1506  0.6159
  382MOL0     C52634  11.105   2.849   0.288 -0.2684 -0.5504 -0.2956
  382MOL0     C52635  10.992   2.807   0.359  0.0633  1.0724 -0.2175
  382MOL0     C52636  10.984   2.684   0.426  0.0423  0.3975  0.0668
  382MOL0     O52637  10.869   2.649   0.490 -0.7522 -0.1511 -0.3455
  382MOL0     C52638  10.819   2.725   0.603 -0.4964  1.0284 -0.5494
  382MOL0     C52639  10.670   2.729   0.599  0.5229  0.4577 -0.0553
  382MOL0     C52640  10.602   2.587   0.620  0.4410 -0.7508 -0.2641
  382MOL0     C52641  10.449   2.617   0.636 -0.2986 -0.5457  0.1887
  382MOL0     C52642  10.384   2.636   0.506  0.0868  0.4316  0.9141
  382MOL0     C52643  10.320   2.650   0.407 -0.5368  0.2584  0.4779
  382MOL0     C52644  11.086   2.594   0.401  0.0232  1.0555  1.4656
  382MOL0     C52645  11.193   2.627   0.326 -0.5195 -0.7108 -0.6105
  382MOL0     C52646  11.297   2.525   0.307  1.1927  0.4268  0.2134
  382MOL0     H52647  11.298   2.476  -0.119  0.2678 -1.3742  0.9615
  382MOL0     H52648  11.409   2.462  -0.327  0.7072  1.4250 -1.9197
  382MOL0     H52649  11.694   2.585  -0.579 -1.1314 -0.9788 -1.6681
  382MOL0     H52650  11.531   2.534  -0.563  0.7132 -3.5427  0.4260
  382MOL0     H52651  11.608   2.405  -0.355 -3.5297  0.9315 -2.1221
  382MOL0     H52652  11.658   2.343  -0.523  0.4805  0.5876 -1.9962
  382MOL0     H52653  11.874   2.438  -0.490  0.2423  1.7811  1.8303
  382MOL0     H52654  11.832   2.507  -0.332 -0.1694 -1.4212  3.9937
  382MOL0     H52655  11.781   2.295  -0.239 -0.0312  3.4590  0.4471
  382MOL0     H52656  11.799   2.200  -0.384 -0.9611  0.4564  0.4904
  382MOL0     H52657  12.024   2.366  -0.250  0.3211  0.7510 -2.9349
  382MOL0     H52658  12.034   2.266  -0.396 -2.8191 -2.3959 -1.7921
  382MOL0     H52659  12.127   2.151  -0.202 -0.2968 -1.4657 -3.2330
  382MOL0     H52660  11.965   2.166  -0.110  1.7593 -0.4479  1.8514
  382MOL0     H52661  12.025   1.996  -0.363  1.2419  0.2461  0.8017
  382MOL0     H52662  11.878   1.994  -0.269  0.2368  0.4853 -0.3997
  382MOL0     H52663  12.149   1.898  -0.163  1.1205  2.5038 -1.4859
  382MOL0     H52664  11.997   1.904  -0.069 -0.4905 -5.7269 -0.1603
  382MOL0     H52665  12.162   1.700  -0.343 -0.7571 -2.6715 -1.6814
  382MOL0     H52666  12.081   1.532  -0.508  3.9534 -2.4212  1.5156
  382MOL0     H52667  11.927   1.457  -0.481  1.1561 -0.2818 -0.1901
  382MOL0     H52668  12.201   1.449  -0.339  0.8525  0.5621 -2.1658
  382MOL0     H52669  12.057   1.371  -0.255  1.6603  2.8137  0.8171
  382MOL0     H52670  12.201   1.219  -0.349 -0.0695  1.2046  1.6048
  382MOL0     H52671  12.044   1.205  -0.443  0.0018 -1.6920  2.8824
  382MOL0     H52672  12.182   1.364  -0.606 -0.7453  0.3941  0.8846
  382MOL0     H52673  12.317   1.332  -0.505  0.7946  1.3111 -2.3704
  382MOL0     H52674  12.300   0.962  -0.750  1.6301 -0.8031  0.7753
  382MOL0     H52675  12.506   0.950  -1.026  0.0807 -2.7418 -3.0787
  382MOL0     H52676  12.329   0.930  -1.077  0.7827  2.1244 -1.3914
  382MOL0     H52677  12.388   0.855  -0.928 -2.1908  2.5614  1.2108
  382MOL0     H52678  12.814   1.311  -1.158 -0.5063  0.1307  0.0319
  382MOL0     H52679  12.963   1.282  -1.355 -0.4666  0.2725  1.8979
  382MOL0     H52680  12.794   1.056  -1.634  0.9086 -0.0262  1.9189
  382MOL0     H52681  12.749   1.175  -1.761  0.8604  1.2381 -0.4838
  382MOL0     H52682  12.911   1.023  -1.833 -0.7158 -1.8585  2.2950
  382MOL0     H52683  12.986   1.182  -1.844 -2.3173 -1.2946 -1.9260
  382MOL0     H52684  13.060   1.105  -1.590 -0.5424  1.4257 -0.2405
  382MOL0     H52685  13.164   1.092  -1.728 -0.4767  1.6833  1.0646
  382MOL0     H52686  13.054   0.861  -1.777  1.3043 -0.1782  0.1206
  382MOL0     H52687  12.993   0.888  -1.611 -0.1739  0.6943 -0.0918
  382MOL0     H52688  13.287   0.870  -1.695 -0.2953  1.5990  0.0722
  382MOL0     H52689  13.236   0.928  -1.539  3.4671  0.5716 -1.0114
  382MOL0     H52690  13.107   0.736  -1.487  0.3430  2.8093  0.8868
  382MOL0     H52691  13.275   0.723  -1.481 -0.1693 -0.8027  0.0943
  382MOL0     H52692  13.286   0.605  -1.721 -2.2965  1.2432 -4.0469
  382MOL0     H52693  13.110   0.619  -1.723  0.3329  1.1397 -0.8749
  382MOL0     H52694  13.247   0.449  -1.513 -3.3747 -1.0487  3.3510
  382MOL0     H52695  13.186   0.381  -1.656 -2.4923 -2.3721  0.4631
  382MOL0     H52696  12.603   1.273  -1.610 -0.2413  0.2710  0.2602
  382MOL0     H52697  12.460   1.254  -1.410  0.7408 -0.5219  3.0605
  382MOL0     H52698  12.438   1.399  -0.942  3.0920 -2.4150 -2.0767
  382MOL0     H52699  12.372   1.400  -0.715  2.7149  0.1533 -1.1370
  382MOL0     H52700  11.619   2.834  -0.216 -0.2307  0.8150  2.8006
  382MOL0     H52701  11.484   2.852  -0.023 -1.5514 -0.0252 -0.5195
  382MOL0     H52702  11.123   2.944   0.238  2.6628 -0.4667  0.7066
  382MOL0     H52703  10.916   2.880   0.386 -0.4006 -0.4510  3.1295
  382MOL0     H52704  10.849   2.672   0.694  2.7090  3.3430 -0.0569
  382MOL0     H52705  10.855   2.829   0.610  2.8209 -0.0321  0.1966
  382MOL0     H52706  10.655   2.764   0.497  3.3285 -0.3916 -0.8581
  382MOL0     H52707  10.623   2.799   0.669  0.8749  1.3589 -0.7056
  382MOL0     H52708  10.615   2.525   0.530  0.8190  0.0457 -0.7784
  382MOL0     H52709  10.647   2.532   0.703  2.8053 -0.4087 -1.2264
  382MOL0     H52710  10.431   2.701   0.703 -2.1810 -0.9995  0.2860
  382MOL0     H52711  10.414   2.528   0.690  0.9669 -0.0950  1.8681
  382MOL0     H52712  10.250   2.672   0.329  0.7583  0.0001 -0.8042
  382MOL0     H52713  11.092   2.497   0.449  1.6287  0.0599 -0.5737
  382MOL0     H52714  11.279   2.456   0.390 -0.5858  0.1136 -0.3771
  382MOL0     H52715  11.274   2.471   0.215 -3.8262  1.2239  0.6925
  382MOL0     H52716  11.398   2.565   0.304  1.2057  0.7401  2.8454
  383MOL0     O52717   3.727   5.131   8.152  0.5519  0.9005  0.2697
  383MOL0     C52718   3.771   5.049   8.075 -0.5555  0.1865 -0.3338
  383MOL0     O52719   3.736   5.043   7.944  0.2957  0.4967 -0.5733
  383MOL0     C52720   3.611   5.097   7.908 -0.9808  0.3073  0.7103
  383MOL0     C52721   3.600   5.213   7.837  0.6225 -0.4196 -0.1386
  383MOL0     C52722   3.472   5.264   7.804  0.6262 -0.1773  0.1726
  383MOL0     C52723   3.358   5.180   7.812 -0.9038 -0.5695 -0.1510
  383MOL0     O52724   3.238   5.211   7.753  0.1894  0.4840 -0.7561
  383MOL0     C52725   3.196   5.345   7.766  0.4177  0.6142  0.5259
  383MOL0     C52726   3.053   5.389   7.732  0.4688  0.2094  0.0216
  383MOL0     C52727   2.955   5.311   7.825 -1.3962  0.3277  0.2124
  383MOL0     C52728   2.808   5.332   7.797 -0.0957  0.2397  0.1413
  383MOL0     C52729   2.753   5.298   7.657 -0.1927 -0.5278 -1.1092
  383MOL0     C52730   2.602   5.312   7.658 -0.2692  0.3870  0.5354
  383MOL0     C52731   2.534   5.202   7.735 -0.3970  0.7463 -0.1344
  383MOL0     C52732   2.381   5.173   7.700 -0.5524  0.2885  0.0111
  383MOL0     N52733   2.274   5.244   7.774 -0.4011  0.4511 -0.4906
  383MOL0     C52734   2.289   5.300   7.898  0.4802  0.1978 -0.2966
  383MOL0     C52735   2.169   5.366   7.916  0.2716  0.3405  0.6213
  383MOL0     C52736   2.149   5.435   8.045  0.8225  0.3807  0.4757
  383MOL0     C52737   2.251   5.559   8.043  0.1424 -0.3712  0.9164
  383MOL0     C52738   2.238   5.635   8.179  0.7582  0.3579  0.4706
  383MOL0     C52739   2.300   5.772   8.156  0.3470  0.4519 -0.9348
  383MOL0     O52740   2.425   5.763   8.095 -0.6147  0.1101 -0.5521
  383MOL0     C52741   2.542   5.746   8.167  0.2081  0.1513 -0.7841
  383MOL0     C52742   2.657   5.736   8.094  0.0486  0.5516  0.2934
  383MOL0     C52743   2.781   5.704   8.153  0.2262  0.5465  0.2760
  383MOL0     C52744   2.901   5.687   8.057  0.8080  0.0415 -0.1254
  383MOL0     C52745   2.787   5.682   8.301  0.2364 -0.1007 -0.9296
  383MOL0     C52746   2.924   5.654   8.371  0.3332  0.0400  0.4526
  383MOL0     O52747   2.925   5.672   8.512 -0.4782  0.8511 -0.1275
  383MOL0     C52748   3.042   5.647   8.577  0.6247  0.6732  0.1931
  383MOL0     C52749   3.081   5.521   8.629 -0.1310 -1.2353 -0.7153
  383MOL0     C52750   3.207   5.514   8.690 -0.1440  0.4780 -0.8516
  383MOL0     C52751   3.277   5.627   8.731  0.0061 -0.0290 -0.4752
  383MOL0     O52752   3.374   5.609   8.822 -0.7385  0.1229 -0.6437
  383MOL0     C52753   3.380   5.699   8.933 -1.5060  0.2697 -1.0885
  383MOL0     C52754   3.507   5.661   9.011 -0.0515 -0.3657 -0.7890
  383MOL0     C52755   3.488   5.590   9.147  0.1591  0.3353 -1.2297
  383MOL0     C52756   3.626   5.563   9.211  0.3002 -0.8553  0.2133
  383MOL0     C52757   3.615   5.524   9.356  0.2080 -0.0144  0.5225
  383MOL0     C52758   3.538   5.391   9.383 -1.1689  1.0753 -0.3021
  383MOL0     C52759   3.530   5.367   9.530 -0.7286  0.3761 -0.0563
  383MOL0     C52760   3.663   5.326   9.589 -0.2814 -0.6550  0.0311
  383MOL0    Cl52761   3.738   5.187   9.502 -0.0139  0.1164  0.1721
  383MOL0     C52762   3.237   5.752   8.684  0.0053  0.1804 -0.3553
  383MOL0     C52763   3.127   5.755   8.600  0.1357 -0.3614  0.8179
  383MOL0     O52764   3.021   5.617   8.306  0.0079  0.4562  0.9133
  383MOL0     C52765   2.668   5.705   8.377  0.5263  0.5061  0.2810
  383MOL0     C52766   2.546   5.733   8.307 -0.2302  1.0337 -0.3994
  383MOL0     N52767   2.096   5.363   7.802 -0.2898  0.3920  0.2564
  383MOL0     N52768   2.158   5.285   7.722 -0.3197  0.0494 -0.3269
  383MOL0     C52769   3.375   5.060   7.866  0.7430  0.8018 -0.3643
  383MOL0     C52770   3.498   5.020   7.925 -0.3187  0.3625  1.1615
  383MOL0     C52771   3.879   4.947   8.119 -0.6592 -0.6410 -0.5384
  383MOL0     C52772   3.946   4.865   8.020 -0.1706 -0.6715 -0.9521
  383MOL0     C52773   4.028   4.770   8.064  0.5332  0.7116  0.2677
  383MOL0     C52774   4.050   4.733   8.191  0.0802 -0.1725 -0.1422
  383MOL0     O52775   4.123   4.621   8.206  1.0048  0.4191  0.4605
  383MOL0     C52776   4.181   4.589   8.327  0.3940  0.6708 -0.0426
  383MOL0     C52777   4.260   4.701   8.393  0.3026  0.1654 -0.3866
  383MOL0     C52778   4.283   4.689   8.540  0.5575  0.5475 -0.0995
  383MOL0     C52779   4.303   4.828   8.606 -0.4100  0.5429 -0.4395
  383MOL0     C52780   4.173   4.890   8.636 -0.2949 -0.5249  0.1318
  383MOL0     C52781   4.068   4.942   8.661 -0.0086 -0.0188 -1.2598
  383MOL0     C52782   3.990   4.808   8.291  1.0247  0.1462 -0.0073
  383MOL0     C52783   3.900   4.920   8.261 -0.0393  0.2261  0.5123
  383MOL0     C52784   3.832   4.982   8.381  0.2731  0.1299 -0.5161
  383MOL0     H52785   3.683   5.283   7.821  0.1113  0.5942  1.3673
  383MOL0     H52786   3.473   5.369   7.775  2.6313  0.1197  1.1459
  383MOL0     H52787   3.259   5.395   7.692 -0.6028 -0.4530 -1.1270
  383MOL0     H52788   3.217   5.390   7.864  0.8237  2.2450 -0.2863
  383MOL0     H52789   3.052   5.495   7.761  2.4553  1.8081 -4.7889
  383MOL0     H52790   3.028   5.385   7.626 -2.4136 -0.3281  0.6141
  383MOL0     H52791   2.971   5.204   7.808  1.0240  0.5370  0.7814
  383MOL0     H52792   2.979   5.338   7.929  2.2145  1.9358 -0.8850
  383MOL0     H52793   2.752   5.282   7.877  3.0370 -2.5660  0.7743
  383MOL0     H52794   2.793   5.438   7.821  1.5011  0.4348  0.3557
  383MOL0     H52795   2.779   5.195   7.634 -0.3239 -1.2433  1.6851
  383MOL0     H52796   2.803   5.354   7.577 -0.7010  0.5840 -0.6816
  383MOL0     H52797   2.568   5.410   7.692  1.3377  1.5180 -0.9128
  383MOL0     H52798   2.566   5.307   7.555 -3.3999 -1.0752  1.5876
  383MOL0     H52799   2.541   5.224   7.842 -0.6937 -3.3770  0.9321
  383MOL0     H52800   2.583   5.106   7.716  1.8868  2.1514 -1.9076
  383MOL0     H52801   2.384   5.194   7.593 -0.9989 -0.0271 -0.0659
  383MOL0     H52802   2.356   5.066   7.710  1.8600 -0.8185 -3.7254
  383MOL0     H52803   2.375   5.288   7.963  0.6242 -0.4432 -0.5936
  383MOL0     H52804   2.167   5.356   8.118 -2.0604 -2.6740 -1.8145
  383MOL0     H52805   2.046   5.468   8.059  0.7746  1.3378 -1.7674
  383MOL0     H52806   2.354   5.524   8.036  0.8712  1.8024 -0.0827
  383MOL0     H52807   2.240   5.628   7.959  4.4163 -0.6615 -0.1125
  383MOL0     H52808   2.133   5.648   8.204  0.2266  2.6016 -2.3713
  383MOL0     H52809   2.284   5.578   8.260 -1.3374 -0.5803  1.0726
  383MOL0     H52810   2.233   5.839   8.102  2.2283  1.0738 -2.6346
  383MOL0     H52811   2.307   5.823   8.253  0.7367  0.8518 -1.1715
  383MOL0     H52812   2.658   5.755   7.987 -0.7845  2.4336  0.5711
  383MOL0     H52813   2.865   5.688   7.954 -1.6891 -1.2521  0.6387
  383MOL0     H52814   2.947   5.589   8.068 -0.2743 -0.3509  1.1878
  383MOL0     H52815   2.983   5.753   8.086  2.6573 -2.5865  1.0326
  383MOL0     H52816   3.030   5.429   8.602 -1.3575 -1.2274  1.3444
  383MOL0     H52817   3.242   5.419   8.728  1.7092  1.0788 -0.9578
  383MOL0     H52818   3.378   5.802   8.897 -1.4494  0.2725 -1.0828
  383MOL0     H52819   3.297   5.679   9.001  0.3578  0.1650  1.3020
  383MOL0     H52820   3.579   5.611   8.945  4.2107  1.8217  1.7537
  383MOL0     H52821   3.554   5.758   9.029 -1.1537  0.1532 -0.6524
  383MOL0     H52822   3.436   5.496   9.125 -0.5302  0.2264  0.6510
  383MOL0     H52823   3.424   5.661   9.201 -1.1126 -1.4757 -0.2681
  383MOL0     H52824   3.691   5.651   9.206 -1.0559  0.1528  0.0605
  383MOL0     H52825   3.668   5.472   9.167 -0.7273 -1.1050 -0.2675
  383MOL0     H52826   3.719   5.517   9.391  1.2076 -2.7466 -2.4589
  383MOL0     H52827   3.569   5.604   9.414  1.2913  1.1472 -0.1681
  383MOL0     H52828   3.586   5.307   9.333 -0.2277  2.8456 -2.5346
  383MOL0     H52829   3.436   5.405   9.347 -1.4363 -0.5508 -0.2685
  383MOL0     H52830   3.464   5.283   9.553 -2.1766  1.6049  0.3806
  383MOL0     H52831   3.493   5.455   9.584  2.0579 -0.8390  4.3080
  383MOL0     H52832   3.652   5.290   9.692  1.4520  1.3652  1.0057
  383MOL0     H52833   3.736   5.407   9.581  0.8691 -1.5879  0.7945
  383MOL0     H52834   3.289   5.845   8.700  0.9133 -0.3510 -0.1396
  383MOL0     H52835   3.101   5.851   8.556 -1.7285 -0.7304  1.0200
  383MOL0     H52836   2.659   5.691   8.484 -2.5008  1.9362  0.3194
  383MOL0     H52837   2.452   5.752   8.358 -0.3474 -1.5176  0.4250
  383MOL0     H52838   3.285   5.007   7.895  0.5080  1.8097  0.7998
  383MOL0     H52839   3.509   4.931   7.987  3.8552  2.0257  3.2219
  383MOL0     H52840   3.938   4.883   7.913 -0.1204  0.8836 -0.7185
  383MOL0     H52841   4.087   4.712   7.993 -0.0549 -0.5452  0.7638
  383MOL0     H52842   4.103   4.567   8.400  0.3331  0.0647 -0.2858
  383MOL0     H52843   4.252   4.506   8.323  2.1630  1.9192  2.4274
  383MOL0     H52844   4.215   4.798   8.372 -2.4421 -0.7830  0.6491
  383MOL0     H52845   4.358   4.708   8.345  1.4209  1.2781  1.9118
  383MOL0     H52846   4.191   4.639   8.570 -0.9135  1.0624 -3.3457
  383MOL0     H52847   4.370   4.627   8.567 -1.3393 -1.0243  2.9797
  383MOL0     H52848   4.365   4.894   8.545  1.9052 -0.9442  0.1723
  383MOL0     H52849   4.352   4.827   8.703 -0.1357 -4.5939 -0.3401
  383MOL0     H52850   3.971   4.975   8.693  0.1421 -0.2279 -0.5499
  383MOL0     H52851   4.005   4.772   8.392 -3.0559 -2.7959 -0.1960
  383MOL0     H52852   3.865   4.942   8.477 -1.1478  0.5553  0.1710
  383MOL0     H52853   3.844   5.090   8.375  2.3004 -0.1289 -3.2329
  383MOL0     H52854   3.726   4.959   8.370  0.3918  0.3962 -2.7430
  384MOL0     O52855   0.265   1.626   0.867  0.1654 -0.2330 -0.0597
  384MOL0     C52856   0.271   1.755   0.847  0.1277  0.2091 -0.6777
  384MOL0     O52857   0.166   1.834   0.798 -0.1828  0.0070  0.3599
  384MOL0     C52858   0.051   1.780   0.750 -0.2189 -1.0759  0.2962
  384MOL0     C52859   0.008   1.839   0.629  0.1037 -0.1807  0.3768
  384MOL0     C52860  -0.108   1.793   0.563 -0.6763  0.7097 -0.2096
  384MOL0     C52861  -0.181   1.697   0.628 -0.0966 -0.4666 -0.3276
  384MOL0     O52862  -0.288   1.663   0.555  0.1970 -0.4952  0.1178
  384MOL0     C52863  -0.404   1.677   0.645 -0.0185 -0.0108  1.4692
  384MOL0     C52864  -0.511   1.755   0.573 -0.1584  0.5337 -0.3545
  384MOL0     C52865  -0.577   1.701   0.445 -0.0803  0.5119  0.1701
  384MOL0     C52866  -0.674   1.809   0.392 -0.3123 -0.2591 -0.6762
  384MOL0     C52867  -0.719   1.764   0.253 -0.0494  0.2538  0.6843
  384MOL0     C52868  -0.806   1.877   0.180  0.3620 -0.1075 -0.0167
  384MOL0     C52869  -0.717   2.002   0.141  0.2936 -0.6086  0.2359
  384MOL0     C52870  -0.800   2.116   0.085 -0.4742  1.4390 -0.4198
  384MOL0     N52871  -0.900   2.065  -0.015 -0.0111 -0.2996  0.0023
  384MOL0     C52872  -0.873   2.050  -0.144 -0.3523 -0.9004 -0.9680
  384MOL0     C52873  -0.980   2.052  -0.209  0.4122 -0.1372 -0.2345
  384MOL0     C52874  -1.003   2.028  -0.360  0.4223 -0.2650  0.4575
  384MOL0     C52875  -0.926   2.114  -0.454  0.0628  0.4250  0.9215
  384MOL0     C52876  -0.971   2.258  -0.463  0.0111  0.8482 -0.5436
  384MOL0     C52877  -0.891   2.327  -0.566  0.1248  0.1037  0.1659
  384MOL0     O52878  -0.901   2.470  -0.559  0.2317  0.1693  0.0498
  384MOL0     C52879  -0.824   2.537  -0.652 -0.5192 -0.3224 -0.0027
  384MOL0     C52880  -0.797   2.668  -0.624 -0.2066  0.2415  0.3767
  384MOL0     C52881  -0.716   2.762  -0.697  0.6331  0.8625 -0.2946
  384MOL0     C52882  -0.688   2.892  -0.637 -1.4749 -0.1123 -0.3206
  384MOL0     C52883  -0.678   2.710  -0.827  0.0802  0.1220 -0.1214
  384MOL0     C52884  -0.583   2.781  -0.928 -0.4830  0.0794 -0.6276
  384MOL0     O52885  -0.535   2.708  -1.028 -0.1852  0.1345  0.0986
  384MOL0     C52886  -0.440   2.753  -1.114  0.1121  0.2298 -0.5106
  384MOL0     C52887  -0.417   2.887  -1.147 -0.2779 -0.2024  0.9592
  384MOL0     C52888  -0.312   2.928  -1.232  0.6392  0.3582  0.3388
  384MOL0     C52889  -0.220   2.833  -1.284 -0.1158 -0.1721  0.0350
  384MOL0     O52890  -0.124   2.877  -1.375 -0.4251  0.5129  0.5663
  384MOL0     C52891  -0.021   2.776  -1.415 -0.1048  0.3443 -0.1277
  384MOL0     C52892   0.111   2.832  -1.473 -0.3426  0.1258 -0.6557
  384MOL0     C52893   0.216   2.716  -1.501 -0.3133 -1.6874 -0.3825
  384MOL0     C52894   0.330   2.774  -1.589  0.3340  0.6246  0.4234
  384MOL0     C52895   0.405   2.656  -1.649 -0.7555  0.7873  0.3180
  384MOL0     C52896   0.473   2.693  -1.779 -0.7057 -0.0298  0.8594
  384MOL0     C52897   0.584   2.595  -1.821 -0.0028  0.0805  0.1616
  384MOL0     C52898   0.670   2.661  -1.931 -1.0158  0.7018  0.2783
  384MOL0    Cl52899   0.726   2.827  -1.875  0.0862 -0.2324 -0.2818
  384MOL0     C52900  -0.246   2.698  -1.251  0.3818  0.1108  0.3944
  384MOL0     C52901  -0.350   2.660  -1.173 -0.0098 -0.1008 -0.6708
  384MOL0     O52902  -0.543   2.893  -0.892 -0.0613  1.0590 -0.0413
  384MOL0     C52903  -0.706   2.575  -0.855  0.0462 -0.0572  0.5743
  384MOL0     C52904  -0.772   2.486  -0.772 -0.0627  0.3440 -0.1122
  384MOL0     N52905  -1.086   2.063  -0.121  0.1971 -0.4206 -0.5305
  384MOL0     N52906  -1.038   2.071  -0.001 -0.0502  0.4631 -0.0781
  384MOL0     C52907  -0.140   1.633   0.748  1.0038  0.5849  0.6338
  384MOL0     C52908  -0.025   1.682   0.806  0.1802 -0.2044  0.2677
  384MOL0     C52909   0.386   1.830   0.882 -0.3876 -0.7745  0.2068
  384MOL0     C52910   0.407   1.953   0.825 -0.0923  0.0039  1.0232
  384MOL0     C52911   0.518   2.042   0.845 -0.5350  0.1135  0.2351
  384MOL0     C52912   0.621   1.997   0.937  0.6624  0.7548  0.6522
  384MOL0     O52913   0.723   2.087   0.974 -0.4073 -0.1918 -0.0298
  384MOL0     C52914   0.805   2.059   1.087  0.3830  0.8902 -0.3942
  384MOL0     C52915   0.892   2.181   1.108 -0.1320 -0.6135  0.2444
  384MOL0     C52916   1.005   2.155   1.215 -0.4834 -0.4352  1.4246
  384MOL0     C52917   1.097   2.273   1.223 -0.2403  0.1513  0.2889
  384MOL0     C52918   1.096   2.334   1.353 -0.0281 -1.0913 -0.4525
  384MOL0     C52919   1.109   2.409   1.448  0.0482  0.8909 -0.4355
  384MOL0     C52920   0.592   1.873   1.003 -0.5166  0.1873 -0.1594
  384MOL0     C52921   0.482   1.785   0.978  0.1218  0.2195 -0.3938
  384MOL0     C52922   0.496   1.655   1.044 -0.1893 -0.2785  0.7918
  384MOL0     H52923   0.061   1.921   0.582 -1.1366 -1.3082 -3.3578
  384MOL0     H52924  -0.152   1.826   0.470 -3.9887  1.3831  1.4537
  384MOL0     H52925  -0.379   1.726   0.740 -2.5790  3.3900  0.5690
  384MOL0     H52926  -0.432   1.573   0.663  1.1254 -0.4964  0.5717
  384MOL0     H52927  -0.584   1.793   0.645  1.5302 -0.0121  1.7257
  384MOL0     H52928  -0.453   1.842   0.540 -0.9957  1.7418  1.2231
  384MOL0     H52929  -0.502   1.691   0.366  1.5263  1.4102  1.5085
  384MOL0     H52930  -0.626   1.606   0.470 -1.3987  1.6964  2.4707
  384MOL0     H52931  -0.754   1.827   0.464  1.6464  2.6303  1.0052
  384MOL0     H52932  -0.616   1.901   0.390  3.9509 -2.2944  4.1289
  384MOL0     H52933  -0.783   1.675   0.252 -0.5946  0.6446 -0.3313
  384MOL0     H52934  -0.635   1.740   0.188 -0.3866  1.2448 -0.1375
  384MOL0     H52935  -0.846   1.838   0.086 -0.2019  2.6438 -1.0279
  384MOL0     H52936  -0.886   1.904   0.249 -0.3985 -2.6234  0.1869
  384MOL0     H52937  -0.650   1.969   0.061  0.0408 -2.3034  0.6680
  384MOL0     H52938  -0.661   2.051   0.221 -2.7174 -1.2935  3.0160
  384MOL0     H52939  -0.850   2.170   0.165 -0.5575  0.9607 -0.1458
  384MOL0     H52940  -0.734   2.189   0.037  2.7754  0.1564  1.7741
  384MOL0     H52941  -0.776   2.039  -0.193 -0.1597  1.7569 -1.3167
  384MOL0     H52942  -1.111   2.041  -0.374 -0.2515 -1.5753  3.5135
  384MOL0     H52943  -0.979   1.924  -0.386 -0.0511  0.3794 -2.8726
  384MOL0     H52944  -0.818   2.109  -0.434  0.1973 -4.5966  0.2805
  384MOL0     H52945  -0.917   2.073  -0.555 -0.1226 -0.3788  1.2221
  384MOL0     H52946  -1.077   2.262  -0.487 -1.7505  1.1929  5.5120
  384MOL0     H52947  -0.953   2.305  -0.366 -1.8109  0.3848  0.0613
  384MOL0     H52948  -0.788   2.292  -0.557 -0.4790 -2.1455 -0.8974
  384MOL0     H52949  -0.924   2.304  -0.667 -0.2687 -1.1167  0.5537
  384MOL0     H52950  -0.849   2.692  -0.531 -0.2255 -1.2250  0.7703
  384MOL0     H52951  -0.724   2.893  -0.534  0.2048 -1.9010  0.3362
  384MOL0     H52952  -0.729   2.975  -0.696 -2.4201 -2.2912 -2.8887
  384MOL0     H52953  -0.581   2.915  -0.647 -1.8210  1.8089  0.0240
  384MOL0     H52954  -0.480   2.964  -1.103 -2.5698 -1.4324 -0.0274
  384MOL0     H52955  -0.306   3.036  -1.247 -1.9713  0.5461  0.3166
  384MOL0     H52956   0.002   2.712  -1.330  2.2899 -0.7546 -1.5166
  384MOL0     H52957  -0.068   2.710  -1.488 -2.1067 -0.4182  1.7448
  384MOL0     H52958   0.098   2.881  -1.570  2.1824 -0.6079 -1.4516
  384MOL0     H52959   0.155   2.905  -1.405 -1.3610 -1.5813  1.9953
  384MOL0     H52960   0.162   2.640  -1.557  1.8436 -1.3764 -3.1084
  384MOL0     H52961   0.260   2.671  -1.411 -0.3301  0.5416  0.8162
  384MOL0     H52962   0.403   2.841  -1.544  0.1562  1.5729 -0.6466
  384MOL0     H52963   0.284   2.827  -1.673 -1.9029 -0.0771  1.1388
  384MOL0     H52964   0.481   2.622  -1.578 -0.0508 -0.5438 -1.0197
  384MOL0     H52965   0.337   2.571  -1.660  2.0778 -1.3655 -2.9102
  384MOL0     H52966   0.501   2.799  -1.769  2.5899 -0.9043  2.2736
  384MOL0     H52967   0.394   2.686  -1.854  0.4666  0.3290 -0.4525
  384MOL0     H52968   0.536   2.503  -1.856  2.6841 -1.9257  1.3634
  384MOL0     H52969   0.629   2.572  -1.724 -1.6851  0.0566  0.9801
  384MOL0     H52970   0.631   2.673  -2.032  3.1320 -0.9229 -1.7908
  384MOL0     H52971   0.760   2.599  -1.943  0.7194  2.5996  2.4126
  384MOL0     H52972  -0.172   2.624  -1.279  1.6957  0.9413  1.5383
  384MOL0     H52973  -0.366   2.554  -1.156 -0.0022  0.0397  0.2424
  384MOL0     H52974  -0.669   2.541  -0.951  1.5169 -0.5005  1.2636
  384MOL0     H52975  -0.768   2.382  -0.801 -0.5955  0.5553 -1.0308
  384MOL0     H52976  -0.200   1.557   0.796 -2.9004  1.3308 -2.5508
  384MOL0     H52977   0.005   1.639   0.901 -2.1374 -2.7997 -0.0237
  384MOL0     H52978   0.334   1.995   0.757 -0.4028 -1.1228  0.6271
  384MOL0     H52979   0.528   2.145   0.814  1.8712  0.3517  1.5348
  384MOL0     H52980   0.740   2.046   1.174 -2.6693  2.0147 -2.3048
  384MOL0     H52981   0.862   1.971   1.057 -0.1427  0.3357  0.2148
  384MOL0     H52982   0.831   2.265   1.141  1.2132  0.5991 -0.2445
  384MOL0     H52983   0.948   2.208   1.017  3.9801 -1.0057  2.4263
  384MOL0     H52984   0.955   2.150   1.312  0.7021  0.0356  2.0733
  384MOL0     H52985   1.053   2.060   1.194 -3.3859 -1.3933 -1.8426
  384MOL0     H52986   1.076   2.340   1.139 -0.8111 -0.0249  0.2826
  384MOL0     H52987   1.197   2.230   1.210  0.2581 -0.0068  3.7710
  384MOL0     H52988   1.136   2.458   1.539  1.8971 -1.4359  0.3766
  384MOL0     H52989   0.660   1.826   1.073 -0.0796 -0.0278 -0.7191
  384MOL0     H52990   0.528   1.669   1.148  1.6152 -0.2356  0.2596
  384MOL0     H52991   0.401   1.600   1.051  0.2507 -1.1474  0.1656
  384MOL0     H52992   0.573   1.593   0.998  0.2156  1.5141 -1.0543
  385MOL0     O52993   6.635   0.487   9.474  0.7062  0.3401  0.1302
  385MOL0     C52994   6.536   0.539   9.523 -0.2737  0.4465  0.7769
  385MOL0     O52995   6.492   0.521   9.656 -0.1301  0.7386 -0.3543
  385MOL0     C52996   6.553   0.414   9.722  0.3530 -0.1105  0.4894
  385MOL0     C52997   6.619   0.435   9.841  0.0372  0.5201  0.9565
  385MOL0     C52998   6.692   0.332   9.886  0.4098 -0.0104  0.5511
  385MOL0     C52999   6.688   0.199   9.842  0.5740 -0.9454  0.2956
  385MOL0     O53000   6.765   0.101   9.905 -0.1045 -0.9946 -0.5630
  385MOL0     C53001   6.689  -0.015   9.947 -0.3339 -0.5725  0.0327
  385MOL0     C53002   6.769  -0.136   9.972 -0.1008 -0.4293 -0.5951
  385MOL0     C53003   6.829  -0.186   9.833 -0.6281 -0.0243 -0.3909
  385MOL0     C53004   6.974  -0.254   9.859  0.8842 -0.0451  0.4762
  385MOL0     C53005   7.034  -0.312   9.723  0.0898 -0.6670 -0.3370
  385MOL0     C53006   7.189  -0.330   9.752 -0.2137  0.3658  0.4484
  385MOL0     C53007   7.244  -0.421   9.637  0.3045 -0.1669 -0.8794
  385MOL0     C53008   7.389  -0.465   9.677 -0.2329  0.0329  0.2269
  385MOL0     N53009   7.490  -0.367   9.655  0.0744 -0.8883 -0.1556
  385MOL0     C53010   7.557  -0.350   9.538 -0.0609 -0.1643 -0.1461
  385MOL0     C53011   7.615  -0.229   9.552  0.3310 -0.2569 -0.0882
  385MOL0     C53012   7.688  -0.156   9.451  1.1138 -0.0076 -1.2031
  385MOL0     C53013   7.837  -0.187   9.474  1.1466  0.1240 -0.4783
  385MOL0     C53014   7.940  -0.097   9.391 -0.1865  0.5232 -0.1913
  385MOL0     C53015   7.943  -0.120   9.238 -0.7420  0.2032 -0.5435
  385MOL0     O53016   8.011  -0.246   9.212 -1.0372 -0.5608 -0.2890
  385MOL0     C53017   8.069  -0.272   9.093  1.0291 -0.1957  0.6152
  385MOL0     C53018   7.986  -0.271   8.975 -0.8061 -0.1472 -0.0862
  385MOL0     C53019   8.031  -0.322   8.853 -0.2393 -0.4694  1.2916
  385MOL0     C53020   7.936  -0.314   8.750  1.3838 -0.0225  0.2896
  385MOL0     C53021   8.163  -0.380   8.843 -0.2366 -0.0099 -0.2178
  385MOL0     C53022   8.213  -0.450   8.724  0.1435  0.1626  0.5899
  385MOL0     O53023   8.132  -0.455   8.608 -0.1990  0.3430 -0.6257
  385MOL0     C53024   8.176  -0.512   8.490  0.6392 -0.0511 -0.2207
  385MOL0     C53025   8.073  -0.537   8.400 -0.7221  0.9227 -0.1290
  385MOL0     C53026   8.096  -0.599   8.271 -0.0653 -0.7242  0.1750
  385MOL0     C53027   8.227  -0.636   8.229  0.6364 -0.7517 -0.0708
  385MOL0     O53028   8.236  -0.685   8.101 -0.1372  0.1418  0.6117
  385MOL0     C53029   8.177  -0.814   8.085  0.7824  0.4229  0.6034
  385MOL0     C53030   8.192  -0.864   7.945  0.1571 -0.6037  0.0778
  385MOL0     C53031   8.113  -0.997   7.940  0.4490  0.5662  0.7355
  385MOL0     C53032   8.115  -1.054   7.794 -0.1493  0.2314  0.0517
  385MOL0     C53033   8.027  -1.183   7.770 -0.6435  0.1239 -0.4681
  385MOL0     C53034   8.040  -1.228   7.630 -0.1939  0.1214 -0.0131
  385MOL0     C53035   7.970  -1.351   7.602 -0.4188  0.2029 -0.2260
  385MOL0     C53036   7.981  -1.400   7.460 -0.0109 -0.0424  0.0285
  385MOL0    Cl53037   7.866  -1.320   7.346 -0.3799  0.1070  0.0300
  385MOL0     C53038   8.324  -0.612   8.323  0.0801  0.3900  0.7175
  385MOL0     C53039   8.303  -0.553   8.445  1.8023 -0.5565 -0.3530
  385MOL0     O53040   8.320  -0.509   8.741 -0.1064 -0.2669  0.5484
  385MOL0     C53041   8.241  -0.393   8.966 -0.9419 -0.3714  0.4333
  385MOL0     C53042   8.198  -0.324   9.082  0.1933  0.9110 -0.2421
  385MOL0     N53043   7.593  -0.179   9.678 -0.3854  0.3847 -0.8288
  385MOL0     N53044   7.524  -0.267   9.744  0.4115  0.0966  0.4958
  385MOL0     C53045   6.608   0.176   9.730  0.4908 -0.6458 -0.3211
  385MOL0     C53046   6.545   0.279   9.669  0.1165  0.4216 -0.7414
  385MOL0     C53047   6.446   0.615   9.431  0.1948  0.1217  0.4217
  385MOL0     C53048   6.460   0.757   9.412 -0.9708 -0.6326  0.1721
  385MOL0     C53049   6.359   0.819   9.333 -0.1526  0.9226  0.2410
  385MOL0     C53050   6.253   0.746   9.271  0.1162  0.1719 -0.0065
  385MOL0     O53051   6.156   0.799   9.197  0.8766 -0.0071  0.0147
  385MOL0     C53052   6.160   0.932   9.143  0.1882 -0.3425  0.2424
  385MOL0     C53053   6.010   0.973   9.115  0.1616  0.1393  0.2140
  385MOL0     C53054   6.004   1.078   9.010  0.0746 -1.1640 -0.4820
  385MOL0     C53055   5.852   1.106   8.974 -0.2715 -0.1419 -0.4718
  385MOL0     C53056   5.832   1.159   8.840  0.3683 -0.8199  0.1723
  385MOL0     C53057   5.808   1.188   8.727  0.3769  0.2532  0.0153
  385MOL0     C53058   6.251   0.608   9.284 -0.8863 -0.4256 -0.6864
  385MOL0     C53059   6.341   0.542   9.370  0.4357 -0.3871  0.0848
  385MOL0     C53060   6.335   0.394   9.382 -0.1131 -0.3009  0.8022
  385MOL0     H53061   6.618   0.535   9.882  0.5291  1.2433 -0.7037
  385MOL0     H53062   6.750   0.353   9.975  0.4327  2.9753 -0.0455
  385MOL0     H53063   6.616  -0.041   9.869 -0.9249 -3.9257  1.5110
  385MOL0     H53064   6.641   0.007  10.043 -2.7866  1.0912 -1.4440
  385MOL0     H53065   6.841  -0.104  10.049 -1.2802  2.7610 -0.6684
  385MOL0     H53066   6.692  -0.197  10.019  1.6606 -1.2427  1.4039
  385MOL0     H53067   6.768  -0.269   9.795 -0.2812 -1.0816  1.2661
  385MOL0     H53068   6.831  -0.113   9.752 -1.0724 -1.3467 -1.6462
  385MOL0     H53069   7.044  -0.182   9.903 -1.4155  2.0707  0.9021
  385MOL0     H53070   6.966  -0.329   9.938  0.2477 -0.9309 -0.4039
  385MOL0     H53071   7.018  -0.236   9.646 -2.0176  0.7195  1.3326
  385MOL0     H53072   6.988  -0.408   9.698 -1.6482  0.3236 -1.1304
  385MOL0     H53073   7.247  -0.238   9.755 -1.0169  0.8783  2.7555
  385MOL0     H53074   7.195  -0.377   9.851 -1.5861 -0.6908  0.0620
  385MOL0     H53075   7.240  -0.363   9.544 -5.5748  0.0549 -0.8348
  385MOL0     H53076   7.176  -0.504   9.618  2.0626 -1.4957 -1.6509
  385MOL0     H53077   7.389  -0.478   9.786 -2.1375 -3.0053 -0.0286
  385MOL0     H53078   7.406  -0.560   9.626  0.7406 -0.8221  2.0534
  385MOL0     H53079   7.535  -0.395   9.442 -0.0701  0.1666 -0.3027
  385MOL0     H53080   7.667  -0.050   9.468  2.4461  0.5244 -2.6407
  385MOL0     H53081   7.650  -0.184   9.352  0.0056 -2.4100 -0.1714
  385MOL0     H53082   7.855  -0.173   9.581 -0.3854  0.5532 -0.2581
  385MOL0     H53083   7.855  -0.294   9.460  1.3846  0.1675 -0.5131
  385MOL0     H53084   7.926   0.006   9.426  3.7906  0.9092  0.7454
  385MOL0     H53085   8.037  -0.115   9.437 -0.9293 -2.0678  0.5355
  385MOL0     H53086   7.841  -0.110   9.198 -2.0717 -1.5159  2.1362
  385MOL0     H53087   8.007  -0.037   9.205 -2.0238  1.9670  1.1733
  385MOL0     H53088   7.885  -0.233   8.985 -0.8231 -0.1923 -0.0877
  385MOL0     H53089   7.890  -0.410   8.726 -0.1352  1.2243 -2.3656
  385MOL0     H53090   7.985  -0.274   8.660  2.7094 -0.7514  0.6609
  385MOL0     H53091   7.848  -0.256   8.779  0.1510 -1.7434  0.1438
  385MOL0     H53092   7.970  -0.508   8.418 -1.2671  0.4295 -2.1830
  385MOL0     H53093   8.010  -0.602   8.205  0.9318 -2.7485 -1.1373
  385MOL0     H53094   8.205  -0.895   8.153  4.6309  1.5430  0.5544
  385MOL0     H53095   8.072  -0.789   8.103  1.3700  1.6603  2.6867
  385MOL0     H53096   8.150  -0.793   7.873  0.5175  0.6273  1.0588
  385MOL0     H53097   8.298  -0.877   7.924 -0.0719 -1.7982 -0.4060
  385MOL0     H53098   8.009  -0.986   7.972  0.0962 -0.0196 -0.1671
  385MOL0     H53099   8.159  -1.081   7.994  2.4882  0.0794 -1.5546
  385MOL0     H53100   8.219  -1.074   7.767 -1.2022 -1.7942 -3.0598
  385MOL0     H53101   8.091  -0.968   7.730  0.3805  0.5488  0.2737
  385MOL0     H53102   8.071  -1.261   7.833 -1.7278 -2.2658 -2.5215
  385MOL0     H53103   7.923  -1.172   7.803 -0.0155  2.2432  1.0770
  385MOL0     H53104   8.145  -1.240   7.606 -0.1316 -0.3335  0.4688
  385MOL0     H53105   8.003  -1.153   7.560 -0.5771 -1.8774 -2.0521
  385MOL0     H53106   7.870  -1.350   7.647 -0.2342 -2.2512  0.3917
  385MOL0     H53107   8.021  -1.424   7.665  0.8788  0.7238 -0.6484
  385MOL0     H53108   7.970  -1.509   7.456  1.2863 -0.1739 -0.5155
  385MOL0     H53109   8.078  -1.378   7.415 -1.1171  1.0302 -1.9933
  385MOL0     H53110   8.429  -0.628   8.301  0.0052  0.9210 -0.0384
  385MOL0     H53111   8.393  -0.538   8.503  0.8184  3.1074  0.4627
  385MOL0     H53112   8.342  -0.432   8.966 -0.1839  1.5117  0.2258
  385MOL0     H53113   8.252  -0.322   9.176  0.6427 -0.8377 -0.4363
  385MOL0     H53114   6.603   0.076   9.687  1.1815  0.2938 -2.7031
  385MOL0     H53115   6.484   0.252   9.583  0.5874 -0.8509 -0.6952
  385MOL0     H53116   6.543   0.812   9.457 -0.2704  0.8505 -2.6983
  385MOL0     H53117   6.379   0.926   9.333  2.8592  0.5781  3.4942
  385MOL0     H53118   6.196   1.008   9.213 -1.3875  0.9460 -0.2912
  385MOL0     H53119   6.217   0.929   9.049  0.6011 -0.5112  0.4958
  385MOL0     H53120   5.957   1.005   9.205 -0.9555  2.8105 -1.2602
  385MOL0     H53121   5.955   0.886   9.076  0.9853 -0.4670  0.3940
  385MOL0     H53122   6.055   1.166   9.050 -1.3207 -1.2796  1.7174
  385MOL0     H53123   6.046   1.028   8.922  2.3868 -1.0299  0.4900
  385MOL0     H53124   5.813   1.177   9.048  0.7292  1.6179 -1.5649
  385MOL0     H53125   5.780   1.023   8.971 -1.3676  0.7749 -0.1126
  385MOL0     H53126   5.803   1.233   8.630  1.3567  1.6992  0.5868
  385MOL0     H53127   6.171   0.557   9.232 -0.1798 -0.5549 -1.6772
  385MOL0     H53128   6.244   0.359   9.334 -0.1894  2.0491 -0.9658
  385MOL0     H53129   6.427   0.352   9.341 -0.6763  0.4909 -1.4199
  385MOL0     H53130   6.331   0.365   9.488 -2.3224  0.3702  0.9521
  386MOL0     O53131   7.177   5.915   9.317  0.1983 -0.4555  1.1288
  386MOL0     C53132   7.294   5.888   9.327 -0.8967  0.1082 -0.2691
  386MOL0     O53133   7.362   5.794   9.248  0.0026 -0.8767  0.1188
  386MOL0     C53134   7.293   5.739   9.146 -0.6767  0.1511  0.2140
  386MOL0     C53135   7.185   5.649   9.164  0.2645 -0.6416 -0.4034
  386MOL0     C53136   7.115   5.588   9.065 -1.1513 -0.8152 -0.4151
  386MOL0     C53137   7.173   5.590   8.932  0.7218  0.4661  0.0156
  386MOL0     O53138   7.140   5.519   8.823  0.7174 -0.3657 -0.2400
  386MOL0     C53139   6.998   5.503   8.806 -0.6952 -0.6887  0.3767
  386MOL0     C53140   6.966   5.481   8.657 -0.6665 -0.1265 -0.4206
  386MOL0     C53141   7.048   5.374   8.589 -0.2405 -0.4835  0.2109
  386MOL0     C53142   6.988   5.347   8.451  0.1254  0.0746 -0.4099
  386MOL0     C53143   7.029   5.212   8.391  0.3989 -0.6746  0.2968
  386MOL0     C53144   7.184   5.184   8.381  0.9973 -0.7021 -0.9663
  386MOL0     C53145   7.231   5.075   8.292 -0.0496  1.6158  0.4660
  386MOL0     C53146   7.218   5.113   8.148  0.1435 -0.6987 -0.0209
  386MOL0     N53147   7.315   5.029   8.076 -0.1383  0.2203 -0.0595
  386MOL0     C53148   7.429   5.066   7.991  0.4121  0.6633  0.4936
  386MOL0     C53149   7.487   4.951   7.955  0.7417  0.2595 -0.6470
  386MOL0     C53150   7.596   4.939   7.854  0.7850  0.6666 -0.1606
  386MOL0     C53151   7.560   4.953   7.706 -0.5925  0.8406 -0.0348
  386MOL0     C53152   7.435   5.047   7.683 -0.0520 -0.0722  0.6188
  386MOL0     C53153   7.430   5.064   7.529  0.1339  0.0223  0.2492
  386MOL0     O53154   7.535   5.155   7.480  0.4012  0.2735  0.5995
  386MOL0     C53155   7.516   5.203   7.352  0.4566 -0.2059 -0.4635
  386MOL0     C53156   7.395   5.199   7.274 -0.0271 -0.4177  0.0147
  386MOL0     C53157   7.398   5.252   7.139 -0.4651 -0.2589  1.4649
  386MOL0     C53158   7.273   5.214   7.058 -0.2560  0.2308 -0.7820
  386MOL0     C53159   7.509   5.315   7.079  1.0308 -0.1044 -0.8763
  386MOL0     C53160   7.515   5.368   6.940  0.3604 -0.1488  0.3985
  386MOL0     O53161   7.628   5.438   6.898 -0.0258 -0.7781 -0.0454
  386MOL0     C53162   7.612   5.506   6.776 -0.5269  0.5435  0.7224
  386MOL0     C53163   7.680   5.450   6.663  0.3781 -0.0844 -0.0547
  386MOL0     C53164   7.661   5.515   6.540  0.6456 -0.6824 -0.3487
  386MOL0     C53165   7.583   5.628   6.527  0.2518 -0.1023  1.0037
  386MOL0     O53166   7.557   5.682   6.405  0.1066 -0.3192 -0.5866
  386MOL0     C53167   7.591   5.619   6.287 -0.2975 -0.2564  0.9430
  386MOL0     C53168   7.536   5.691   6.157  0.4817 -0.2632 -0.6141
  386MOL0     C53169   7.624   5.815   6.096 -0.0843 -0.4065  0.4107
  386MOL0     C53170   7.547   5.893   6.004 -0.6044  0.3743 -0.3645
  386MOL0     C53171   7.623   6.012   5.941 -0.8309 -0.2122 -0.3377
  386MOL0     C53172   7.751   5.998   5.862 -1.4870  0.2587 -0.2563
  386MOL0     C53173   7.778   6.132   5.789  0.0301 -0.6889  0.3479
  386MOL0     C53174   7.782   6.264   5.865 -0.0662  0.2794 -0.4165
  386MOL0    Cl53175   7.884   6.382   5.767 -0.4625 -0.0601  0.2903
  386MOL0     C53176   7.537   5.691   6.641 -0.2844 -0.4888 -0.3925
  386MOL0     C53177   7.560   5.632   6.763 -0.4516 -0.7344 -0.3230
  386MOL0     O53178   7.417   5.342   6.868  0.2438  0.4705 -0.1848
  386MOL0     C53179   7.623   5.319   7.166  0.7338  0.4604 -0.0305
  386MOL0     C53180   7.625   5.269   7.300 -0.3336  0.7647  0.9295
  386MOL0     N53181   7.408   4.847   7.994  1.2486 -0.8707  0.1223
  386MOL0     N53182   7.305   4.891   8.063  0.5632  0.3542  0.0520
  386MOL0     C53183   7.287   5.669   8.907  0.5789 -0.3667 -0.7123
  386MOL0     C53184   7.342   5.739   9.013 -0.8802  0.3996  0.0280
  386MOL0     C53185   7.377   5.947   9.434  0.1081  0.7280  0.0607
  386MOL0     C53186   7.515   5.918   9.446  0.8886 -0.1824 -0.2345
  386MOL0     C53187   7.601   5.981   9.543  0.9795  0.3646 -0.5008
  386MOL0     C53188   7.549   6.076   9.628  0.1099  0.5168 -0.4934
  386MOL0     O53189   7.630   6.162   9.697 -0.3354 -0.0150 -0.2322
  386MOL0     C53190   7.624   6.170   9.839  0.4928 -0.3443 -0.1869
  386MOL0     C53191   7.675   6.045   9.903 -0.1270  0.4545  0.4709
  386MOL0     C53192   7.827   6.048   9.904  1.1627 -0.2975 -0.2017
  386MOL0     C53193   7.868   5.907   9.849 -0.5762 -0.7599  0.0276
  386MOL0     C53194   8.017   5.901   9.846 -0.3200 -0.3803  0.2926
  386MOL0     C53195   8.133   5.887   9.840  0.6347 -0.0574 -0.9346
  386MOL0     C53196   7.413   6.098   9.623  0.6281 -0.6569  0.1099
  386MOL0     C53197   7.333   6.043   9.525 -0.5540 -0.3101  0.0168
  386MOL0     C53198   7.189   6.095   9.527 -0.7301  0.3270 -0.4852
  386MOL0     H53199   7.153   5.637   9.267 -0.1302 -1.3978 -0.6106
  386MOL0     H53200   7.028   5.531   9.096  0.2160 -1.7575  1.9807
  386MOL0     H53201   6.952   5.595   8.845  0.2661 -1.2052  2.9612
  386MOL0     H53202   6.955   5.420   8.862  0.3037 -0.4152  1.6208
  386MOL0     H53203   6.859   5.461   8.653 -1.1267  1.9041  0.5545
  386MOL0     H53204   6.985   5.572   8.600 -0.9202 -0.1461 -0.5390
  386MOL0     H53205   7.147   5.421   8.576 -0.7964  0.3200 -1.3458
  386MOL0     H53206   7.040   5.282   8.648 -1.8545  0.2081  1.1458
  386MOL0     H53207   6.879   5.352   8.439 -0.0577  4.5292  1.0065
  386MOL0     H53208   7.027   5.428   8.389 -0.0926  1.0163  0.6302
  386MOL0     H53209   6.992   5.203   8.289  2.6661  0.7972 -0.7513
  386MOL0     H53210   6.991   5.138   8.462  1.9496 -0.1457  1.7663
  386MOL0     H53211   7.235   5.279   8.365  1.0938 -0.6661 -0.4653
  386MOL0     H53212   7.219   5.160   8.481 -1.5619  0.4832  0.3057
  386MOL0     H53213   7.181   4.980   8.313  3.1684 -0.5122 -0.7818
  386MOL0     H53214   7.335   5.048   8.311 -0.3396 -1.1038 -1.1871
  386MOL0     H53215   7.121   5.093   8.102  1.1089 -2.4905 -1.4255
  386MOL0     H53216   7.233   5.221   8.135  0.6639 -1.0293 -2.9700
  386MOL0     H53217   7.472   5.164   7.971 -0.1373  0.7532 -0.2588
  386MOL0     H53218   7.631   4.836   7.862 -2.3455 -0.4386  0.6330
  386MOL0     H53219   7.675   5.012   7.879 -0.6793  2.8367 -1.5363
  386MOL0     H53220   7.649   4.991   7.655  1.4486 -1.8200  1.2691
  386MOL0     H53221   7.541   4.854   7.663  1.6165 -0.6835  2.2082
  386MOL0     H53222   7.337   5.007   7.710 -0.8408  1.7922  0.6372
  386MOL0     H53223   7.442   5.148   7.724  2.0210  0.9318 -1.9417
  386MOL0     H53224   7.462   4.967   7.489  0.1845  0.2970 -0.3877
  386MOL0     H53225   7.336   5.108   7.495  1.6379  4.3562  1.0846
  386MOL0     H53226   7.305   5.147   7.306 -0.3024  1.0579  1.8341
  386MOL0     H53227   7.226   5.292   6.997 -1.9283 -1.0691 -1.2135
  386MOL0     H53228   7.199   5.194   7.137  1.1083 -0.8024  0.2819
  386MOL0     H53229   7.286   5.122   7.001 -2.8054 -0.3406 -0.5995
  386MOL0     H53230   7.737   5.359   6.680  0.5236 -0.2563 -1.3175
  386MOL0     H53231   7.689   5.461   6.450 -1.5333  1.1391 -2.2379
  386MOL0     H53232   7.698   5.626   6.269 -0.5378 -2.9112 -2.7197
  386MOL0     H53233   7.565   5.513   6.294 -1.9975 -0.0244 -0.8729
  386MOL0     H53234   7.521   5.615   6.080 -1.8850  1.3498 -1.8864
  386MOL0     H53235   7.439   5.734   6.185  0.4978 -0.2817 -0.5321
  386MOL0     H53236   7.703   5.776   6.031 -1.4213 -1.0507 -0.8991
  386MOL0     H53237   7.656   5.871   6.185  2.6030 -0.4538 -0.4292
  386MOL0     H53238   7.468   5.945   6.058 -0.1269  2.3769 -1.5122
  386MOL0     H53239   7.512   5.831   5.920 -0.7438 -0.7416  0.4967
  386MOL0     H53240   7.550   6.056   5.873 -1.4707 -1.7061 -0.6385
  386MOL0     H53241   7.647   6.085   6.020 -0.2647 -0.1574 -0.5501
  386MOL0     H53242   7.748   5.919   5.787 -3.9282 -1.4313  1.4517
  386MOL0     H53243   7.838   5.975   5.924 -0.6754  2.7903 -0.3518
  386MOL0     H53244   7.711   6.152   5.705 -1.5896  1.6188  2.0389
  386MOL0     H53245   7.877   6.115   5.747  0.0744 -1.6294  0.7995
  386MOL0     H53246   7.837   6.260   5.959  1.9715  3.7431 -1.3081
  386MOL0     H53247   7.682   6.305   5.881  0.4522  1.5035 -0.2151
  386MOL0     H53248   7.496   5.791   6.633  3.2746  1.0201 -1.6896
  386MOL0     H53249   7.536   5.685   6.854 -0.3162  1.9145 -1.7262
  386MOL0     H53250   7.719   5.358   7.135  1.4285 -0.1883  1.2289
  386MOL0     H53251   7.717   5.269   7.357 -1.8598 -0.8426  3.6242
  386MOL0     H53252   7.339   5.662   8.812  1.2499 -0.7417 -0.3218
  386MOL0     H53253   7.439   5.787   9.004 -1.1158  0.8264 -0.2630
  386MOL0     H53254   7.571   5.847   9.385  1.9797 -0.8578  1.4608
  386MOL0     H53255   7.707   5.961   9.546  1.4444  2.6855  1.1723
  386MOL0     H53256   7.677   6.260   9.869 -5.7315  3.8198  0.1833
  386MOL0     H53257   7.524   6.188   9.879  1.1613 -0.6050  1.6983
  386MOL0     H53258   7.636   5.952   9.860 -1.2529  1.5232 -0.9175
  386MOL0     H53259   7.646   6.039  10.008  1.6651 -0.4548  0.9419
  386MOL0     H53260   7.867   6.117   9.829  4.1191 -0.1534  1.3387
  386MOL0     H53261   7.852   6.068  10.009  2.4394 -0.8530 -0.3819
  386MOL0     H53262   7.844   5.899   9.743  1.7371  1.9052 -0.8545
  386MOL0     H53263   7.841   5.823   9.913  6.1250 -3.0052  0.7201
  386MOL0     H53264   8.239   5.870   9.836  0.3317 -2.0216 -2.0073
  386MOL0     H53265   7.390   6.189   9.678  1.2946 -0.6427  0.3777
  386MOL0     H53266   7.161   6.142   9.433  1.2369 -0.8205 -1.7273
  386MOL0     H53267   7.112   6.021   9.552 -2.1492  0.9564 -2.7427
  386MOL0     H53268   7.186   6.174   9.602 -3.0303  0.8726 -1.0763
  387MOL0     O53269   0.623   4.909   5.046 -0.5760 -0.4562 -0.4394
  387MOL0     C53270   0.608   4.869   4.934 -1.2921  0.6270  0.3321
  387MOL0     O53271   0.718   4.854   4.845 -0.2257 -0.1695  0.2196
  387MOL0     C53272   0.851   4.878   4.887  0.3368 -0.7321 -0.6613
  387MOL0     C53273   0.947   4.792   4.830  0.3616  0.0190  0.1664
  387MOL0     C53274   1.083   4.807   4.856 -0.0400  0.1860  0.5284
  387MOL0     C53275   1.125   4.901   4.955  0.2965  0.3434  0.0212
  387MOL0     O53276   1.262   4.911   4.974  0.1980 -0.6375 -0.3070
  387MOL0     C53277   1.316   4.955   5.097  0.9428 -0.5039 -0.4276
  387MOL0     C53278   1.457   4.897   5.108 -0.2543 -0.2699 -0.7415
  387MOL0     C53279   1.543   4.936   5.234  1.1847  0.3804 -0.6776
  387MOL0     C53280   1.600   5.077   5.222  0.3468 -0.1820 -0.5315
  387MOL0     C53281   1.653   5.130   5.362  0.3868  0.0764 -0.4763
  387MOL0     C53282   1.528   5.175   5.436 -0.1245  0.6237  0.3174
  387MOL0     C53283   1.570   5.228   5.573  0.0135  0.3525  0.6157
  387MOL0     C53284   1.443   5.227   5.668 -0.0263 -0.5264  0.0880
  387MOL0     N53285   1.340   5.326   5.629 -0.1619  0.5008 -0.1859
  387MOL0     C53286   1.324   5.460   5.661 -0.9298 -0.0275  0.6403
  387MOL0     C53287   1.215   5.500   5.583 -0.5039  0.3848 -1.2518
  387MOL0     C53288   1.157   5.635   5.603  0.1605 -0.0851  0.3418
  387MOL0     C53289   1.016   5.627   5.658  0.7811  0.3103 -0.4297
  387MOL0     C53290   1.001   5.708   5.790 -0.1533  0.1891 -0.1013
  387MOL0     C53291   0.956   5.853   5.774 -0.3404 -0.3222  0.6187
  387MOL0     O53292   1.070   5.936   5.767 -0.1351 -0.4926 -0.0944
  387MOL0     C53293   1.070   6.046   5.839  0.7606  0.1369 -0.2896
  387MOL0     C53294   0.995   6.156   5.790  0.3717  1.2392  0.0025
  387MOL0     C53295   0.989   6.283   5.855  0.2421 -0.5765  0.6648
  387MOL0     C53296   0.944   6.408   5.784  0.0436 -0.7894 -0.4618
  387MOL0     C53297   1.052   6.286   5.981  0.4407  0.1849  0.4982
  387MOL0     C53298   1.037   6.403   6.069  0.3651  0.4712  0.8008
  387MOL0     O53299   1.131   6.401   6.163 -0.6463  0.0641  0.3728
  387MOL0     C53300   1.131   6.497   6.260  0.0616 -0.6208  0.4983
  387MOL0     C53301   1.062   6.494   6.380  0.0693 -0.2374  0.0149
  387MOL0     C53302   1.055   6.605   6.471 -0.2747  0.1899 -0.2158
  387MOL0     C53303   1.148   6.706   6.453 -0.1269 -0.4949  0.2934
  387MOL0     O53304   1.158   6.821   6.539 -0.0266  0.3088  0.5665
  387MOL0     C53305   1.132   6.785   6.674 -0.3738  1.2418 -0.5470
  387MOL0     C53306   1.212   6.863   6.778  0.5646 -0.5721  0.5618
  387MOL0     C53307   1.371   6.873   6.744 -0.1170 -1.0175 -1.3876
  387MOL0     C53308   1.460   6.925   6.864  0.4644  0.5625 -0.7662
  387MOL0     C53309   1.599   6.868   6.853  0.2167 -0.2967 -0.3380
  387MOL0     C53310   1.708   6.929   6.949 -0.0710  0.0012 -0.0861
  387MOL0     C53311   1.694   6.901   7.101 -1.1426 -0.3578  0.3612
  387MOL0     C53312   1.823   6.914   7.179  0.5776  0.2694  0.3079
  387MOL0    Cl53313   1.937   6.781   7.123  0.4316 -0.3351 -0.2199
  387MOL0     C53314   1.230   6.697   6.334  0.3896 -1.5917 -0.0377
  387MOL0     C53315   1.214   6.603   6.234  0.1789  0.2985  0.2136
  387MOL0     O53316   0.941   6.474   6.076  0.6100  0.0196 -0.4756
  387MOL0     C53317   1.125   6.173   6.027 -0.1687  0.3350 -0.4015
  387MOL0     C53318   1.136   6.063   5.952 -0.7444 -0.1875  0.0696
  387MOL0     N53319   1.164   5.391   5.511 -0.0295 -0.3006  0.0543
  387MOL0     N53320   1.234   5.295   5.550  0.0776 -0.9493 -0.3223
  387MOL0     C53321   1.024   4.983   5.016  0.7644 -0.5041 -0.4853
  387MOL0     C53322   0.891   4.977   4.983  0.1837  0.2818 -0.6998
  387MOL0     C53323   0.468   4.827   4.878  0.1498  0.3541  0.1788
  387MOL0     C53324   0.458   4.776   4.747 -0.0678 -0.2934  0.2765
  387MOL0     C53325   0.331   4.734   4.698  0.5095  0.3799  0.1888
  387MOL0     C53326   0.211   4.742   4.767  0.6754 -0.0588  0.3195
  387MOL0     O53327   0.082   4.716   4.723 -0.4672 -0.1272 -0.0576
  387MOL0     C53328   0.067   4.696   4.580  0.4826 -0.3186 -0.3746
  387MOL0     C53329   0.105   4.559   4.531  1.4749 -0.6813  0.6275
  387MOL0     C53330   0.050   4.453   4.619 -1.1030  0.6276 -1.0060
  387MOL0     C53331   0.052   4.317   4.560 -0.3007 -1.2142  0.3317
  387MOL0     C53332  -0.021   4.215   4.637 -0.0519  0.3336  0.7356
  387MOL0     C53333  -0.080   4.125   4.696 -0.2730 -0.0914 -0.4650
  387MOL0     C53334   0.228   4.792   4.897  0.0876  0.2679  0.5756
  387MOL0     C53335   0.347   4.835   4.957 -0.7251  0.3273  0.9937
  387MOL0     C53336   0.349   4.883   5.101  0.2739  0.1655 -0.4125
  387MOL0     H53337   0.914   4.724   4.752 -0.4160  2.2026 -1.4831
  387MOL0     H53338   1.152   4.740   4.805 -3.3208 -2.6696 -0.4958
  387MOL0     H53339   1.249   4.924   5.178 -1.1071  0.7316 -1.5736
  387MOL0     H53340   1.321   5.064   5.091  0.2406 -0.5365 -2.0460
  387MOL0     H53341   1.450   4.787   5.109  1.2458 -0.3939 -1.4569
  387MOL0     H53342   1.508   4.923   5.015 -2.1681 -0.7704 -1.9935
  387MOL0     H53343   1.478   4.917   5.321  1.1712  0.4831 -0.6655
  387MOL0     H53344   1.624   4.863   5.245  1.0134 -0.1804 -2.8270
  387MOL0     H53345   1.675   5.088   5.143  0.5300 -0.7970 -0.4477
  387MOL0     H53346   1.517   5.145   5.201  0.7731  2.5587  4.9369
  387MOL0     H53347   1.724   5.213   5.353  1.7774 -0.7482  1.9581
  387MOL0     H53348   1.727   5.065   5.410  3.0800  1.2938 -2.6780
  387MOL0     H53349   1.464   5.244   5.380 -0.8312 -0.3780 -0.1369
  387MOL0     H53350   1.465   5.089   5.458 -0.7616  1.0949  0.3951
  387MOL0     H53351   1.605   5.332   5.569 -0.7601  0.6302  0.8624
  387MOL0     H53352   1.645   5.162   5.619 -0.7950 -0.4046  0.8636
  387MOL0     H53353   1.392   5.130   5.669 -0.7058 -0.1721  0.0770
  387MOL0     H53354   1.480   5.247   5.769 -1.4856  1.8582  0.2135
  387MOL0     H53355   1.377   5.518   5.735 -1.0422  0.2159  0.5323
  387MOL0     H53356   1.153   5.684   5.505 -1.0404 -2.2367 -0.7668
  387MOL0     H53357   1.222   5.693   5.669  2.1652  1.8961 -3.0513
  387MOL0     H53358   0.935   5.654   5.589 -0.0603 -0.5548  0.1889
  387MOL0     H53359   0.999   5.524   5.691  0.8736 -0.3737 -2.3804
  387MOL0     H53360   0.919   5.660   5.844 -0.7069  0.5578 -0.6024
  387MOL0     H53361   1.092   5.710   5.851 -1.1302  1.2758  1.4175
  387MOL0     H53362   0.903   5.852   5.678  1.6061 -1.2345 -0.5179
  387MOL0     H53363   0.887   5.869   5.856 -1.6740 -2.3124 -0.0353
  387MOL0     H53364   0.945   6.153   5.693  2.1266  0.2566 -0.9063
  387MOL0     H53365   0.963   6.405   5.677  0.3252 -1.6044 -0.3975
  387MOL0     H53366   0.978   6.503   5.827 -0.1213 -0.2970 -1.3847
  387MOL0     H53367   0.838   6.416   5.808  0.3071 -0.1217  0.5983
  387MOL0     H53368   1.004   6.404   6.399 -1.5443 -0.1449 -3.6709
  387MOL0     H53369   0.999   6.600   6.564 -2.0015 -0.4410 -1.2418
  387MOL0     H53370   1.025   6.793   6.696  0.4645  1.6790  4.6266
  387MOL0     H53371   1.158   6.680   6.688 -0.1822  1.3906  0.2637
  387MOL0     H53372   1.172   6.962   6.799  0.7989 -0.7708  2.0541
  387MOL0     H53373   1.200   6.808   6.872 -0.1182 -1.9155 -0.2852
  387MOL0     H53374   1.394   6.936   6.658 -1.0545  0.8113 -0.3498
  387MOL0     H53375   1.399   6.769   6.721  1.9199 -0.4382 -1.7163
  387MOL0     H53376   1.413   6.903   6.961  1.5517 -0.1728 -0.3930
  387MOL0     H53377   1.459   7.035   6.858 -2.1048  0.6504  0.0332
  387MOL0     H53378   1.591   6.761   6.871  1.3875 -0.7464 -2.1815
  387MOL0     H53379   1.637   6.867   6.750 -1.2984 -1.9843 -0.9148
  387MOL0     H53380   1.720   7.036   6.933 -0.4008 -0.0441 -0.6784
  387MOL0     H53381   1.804   6.885   6.917  1.2040  1.6641  1.2725
  387MOL0     H53382   1.659   6.799   7.114 -0.1072 -0.7488  0.1329
  387MOL0     H53383   1.612   6.958   7.146 -1.9517 -0.6934 -0.6545
  387MOL0     H53384   1.804   6.899   7.286  0.3569 -0.5183  0.1661
  387MOL0     H53385   1.871   7.011   7.163 -0.9713  1.3077  1.6380
  387MOL0     H53386   1.301   6.779   6.331 -1.2524 -0.0827  0.4000
  387MOL0     H53387   1.272   6.608   6.142  1.5254  2.7803  1.1034
  387MOL0     H53388   1.178   6.174   6.122  3.2886 -0.3187 -2.1821
  387MOL0     H53389   1.178   5.970   5.989 -0.1839 -0.1521 -0.4531
  387MOL0     H53390   1.048   5.072   5.074  1.4913 -1.4613  0.7164
  387MOL0     H53391   0.825   5.054   5.023  1.8145  1.3848  0.0087
  387MOL0     H53392   0.550   4.759   4.693  1.0109  1.5858  1.3726
  387MOL0     H53393   0.325   4.708   4.593  0.7197  2.8282 -0.5103
  387MOL0     H53394  -0.040   4.714   4.567  0.2458  1.5620  2.8689
  387MOL0     H53395   0.111   4.771   4.514  1.7725 -1.0215 -0.3626
  387MOL0     H53396   0.215   4.559   4.528  1.4637 -0.1851  0.0619
  387MOL0     H53397   0.057   4.543   4.434  1.8379  1.5408  0.0187
  387MOL0     H53398   0.128   4.437   4.694  0.6860  3.1152 -2.2257
  387MOL0     H53399  -0.046   4.481   4.663 -0.7564 -0.5736  0.6237
  387MOL0     H53400   0.154   4.286   4.537  0.0373 -0.0756  0.2460
  387MOL0     H53401   0.006   4.324   4.461  0.2519 -0.4125  0.1230
  387MOL0     H53402  -0.132   4.042   4.740 -0.4043 -0.1555 -0.7340
  387MOL0     H53403   0.135   4.806   4.951  0.0039  0.7145  0.3154
  387MOL0     H53404   0.406   4.822   5.171 -0.8743  1.0142  1.3240
  387MOL0     H53405   0.390   4.983   5.092 -2.3863  1.4038  0.1830
  387MOL0     H53406   0.246   4.892   5.138 -0.3781 -1.8181 -1.5527
  388MOL0     O53407   2.415   5.854   2.709  0.1645 -0.1514 -0.1379
  388MOL0     C53408   2.480   5.859   2.606  0.3152  0.1002 -0.1471
  388MOL0     O53409   2.617   5.835   2.602 -0.4662  0.0116 -0.4705
  388MOL0     C53410   2.662   5.799   2.730 -0.4273  0.0594  0.1695
  388MOL0     C53411   2.705   5.667   2.755 -0.9629  0.1151 -0.4138
  388MOL0     C53412   2.767   5.634   2.877  0.7914 -0.1804  0.7626
  388MOL0     C53413   2.808   5.738   2.962  0.2810 -0.2806  0.2390
  388MOL0     O53414   2.884   5.704   3.070  0.6985 -0.2058  0.0780
  388MOL0     C53415   2.951   5.796   3.155  0.9291  0.3017 -0.0516
  388MOL0     C53416   3.102   5.777   3.169  0.2439 -0.4888  0.3350
  388MOL0     C53417   3.167   5.762   3.028 -0.3445  0.9514 -0.1012
  388MOL0     C53418   3.317   5.787   3.054  0.0293  0.1449  0.2112
  388MOL0     C53419   3.411   5.810   2.929  0.2933  0.0110  0.0915
  388MOL0     C53420   3.387   5.959   2.886 -0.3803 -0.0534 -0.8052
  388MOL0     C53421   3.496   6.021   2.788 -0.5565 -0.9140 -0.9666
  388MOL0     C53422   3.636   6.040   2.860  0.0499  0.6084  0.5122
  388MOL0     N53423   3.737   6.085   2.765 -0.0882  0.6726 -0.3728
  388MOL0     C53424   3.844   6.005   2.714 -0.2366  0.3781  0.4076
  388MOL0     C53425   3.905   6.087   2.615  1.5080  0.5683 -0.6863
  388MOL0     C53426   4.022   6.060   2.521 -0.3500 -0.5275 -0.2764
  388MOL0     C53427   3.996   6.032   2.375 -0.8971 -0.5747  0.1274
  388MOL0     C53428   4.125   5.975   2.312 -0.4964  0.6912 -0.4609
  388MOL0     C53429   4.234   6.075   2.329  0.3765  0.5561 -0.1013
  388MOL0     O53430   4.337   6.052   2.233 -0.5833  0.6564 -0.1559
  388MOL0     C53431   4.386   6.174   2.196 -0.3711 -0.5672 -0.0357
  388MOL0     C53432   4.359   6.223   2.069 -0.1074  0.1916 -0.0180
  388MOL0     C53433   4.411   6.347   2.035 -0.6146  0.5418 -0.9737
  388MOL0     C53434   4.355   6.408   1.915 -0.3645  0.0702  0.8115
  388MOL0     C53435   4.515   6.406   2.117 -0.4515  0.2325  0.2905
  388MOL0     C53436   4.593   6.528   2.087  0.3818 -0.4606  0.6868
  388MOL0     O53437   4.661   6.596   2.180 -0.4155  0.3609 -0.1541
  388MOL0     C53438   4.719   6.711   2.142  0.1797  0.2316 -0.0148
  388MOL0     C53439   4.647   6.813   2.071  0.0868 -0.1802 -0.5326
  388MOL0     C53440   4.709   6.937   2.048  0.6460  0.2834  0.9242
  388MOL0     C53441   4.843   6.962   2.094  0.4392 -0.2330 -0.6120
  388MOL0     O53442   4.906   7.079   2.072 -0.3657  0.2517  0.0243
  388MOL0     C53443   4.828   7.197   2.057  0.2449 -0.5148  0.5211
  388MOL0     C53444   4.878   7.271   1.932 -0.7692 -0.7575 -0.8570
  388MOL0     C53445   5.030   7.317   1.926 -0.3068 -0.1236 -0.3467
  388MOL0     C53446   5.043   7.443   1.839 -0.6279  0.4215 -0.1960
  388MOL0     C53447   5.179   7.441   1.759  0.6238 -0.5024 -0.5194
  388MOL0     C53448   5.184   7.534   1.647  0.2037  0.1542 -0.1884
  388MOL0     C53449   5.312   7.511   1.561 -0.0810 -0.3840 -0.3706
  388MOL0     C53450   5.290   7.405   1.457 -0.1987 -0.4079  0.6398
  388MOL0    Cl53451   5.433   7.371   1.364 -0.4415  0.1848 -0.1050
  388MOL0     C53452   4.914   6.858   2.161 -0.5069 -0.4423 -0.6848
  388MOL0     C53453   4.849   6.740   2.192 -0.2240  0.4734  0.4317
  388MOL0     O53454   4.591   6.564   1.966  0.5016  0.5793  0.0046
  388MOL0     C53455   4.551   6.340   2.234 -0.3969 -0.9465  0.1438
  388MOL0     C53456   4.495   6.221   2.274  0.2727 -0.2280  0.8888
  388MOL0     N53457   3.844   6.212   2.630 -0.4467  0.8090 -0.4354
  388MOL0     N53458   3.753   6.213   2.716 -0.5576  1.0166 -0.3664
  388MOL0     C53459   2.762   5.865   2.935  0.0670  0.4479 -0.2453
  388MOL0     C53460   2.690   5.893   2.822 -0.3901  0.1965  0.1152
  388MOL0     C53461   2.420   5.907   2.485 -0.5236  0.5430  0.8965
  388MOL0     C53462   2.491   5.898   2.364  0.1409 -0.2796  0.0035
  388MOL0     C53463   2.435   5.938   2.243  1.2422  0.2475  0.1919
  388MOL0     C53464   2.309   5.993   2.243 -0.3067 -0.2867  0.2192
  388MOL0     O53465   2.264   6.046   2.120  0.5374  0.2827 -0.3094
  388MOL0     C53466   2.141   5.998   2.067 -0.2232  0.1537  0.8126
  388MOL0     C53467   2.083   6.128   2.001 -0.7144  0.3423 -0.5484
  388MOL0     C53468   2.150   6.172   1.875 -0.0809 -0.0919  1.0519
  388MOL0     C53469   2.055   6.234   1.776  0.3717 -0.0932  0.2534
  388MOL0     C53470   2.011   6.365   1.825  0.5429 -0.0242 -0.3475
  388MOL0     C53471   1.971   6.467   1.877 -0.1528  0.0995 -0.2656
  388MOL0     C53472   2.227   5.995   2.358  0.2464 -0.2155  1.3064
  388MOL0     C53473   2.288   5.967   2.489 -0.0281 -0.5277  1.1352
  388MOL0     C53474   2.205   6.017   2.608  0.7390  0.0391 -0.7913
  388MOL0     H53475   2.685   5.583   2.689 -1.4754 -0.0923 -0.0042
  388MOL0     H53476   2.795   5.538   2.919  1.1818  2.1795  6.9470
  388MOL0     H53477   2.901   5.802   3.252  0.7013 -0.6214 -0.1026
  388MOL0     H53478   2.935   5.899   3.120 -3.9079  0.0039  0.5550
  388MOL0     H53479   3.133   5.868   3.222  0.3719 -0.3904  0.0920
  388MOL0     H53480   3.126   5.692   3.233  1.8113  0.5649  1.2086
  388MOL0     H53481   3.157   5.657   2.998  2.6733 -0.1271  2.1327
  388MOL0     H53482   3.118   5.831   2.959  0.3219 -1.0646 -2.7721
  388MOL0     H53483   3.313   5.881   3.110 -4.5708  0.5876 -0.5125
  388MOL0     H53484   3.365   5.712   3.118 -0.2964  0.5290  0.9101
  388MOL0     H53485   3.376   5.752   2.843  2.8343 -2.2782  0.4702
  388MOL0     H53486   3.514   5.775   2.934 -0.3972 -2.0652  1.1366
  388MOL0     H53487   3.281   5.975   2.867 -0.5807 -2.9476 -2.8138
  388MOL0     H53488   3.409   6.007   2.982 -0.6648 -0.3746 -0.5750
  388MOL0     H53489   3.462   6.119   2.754  0.3814 -0.5071 -0.7745
  388MOL0     H53490   3.501   5.958   2.699  2.5140 -2.8111  0.3629
  388MOL0     H53491   3.619   6.101   2.949  0.5604 -1.2948  1.9751
  388MOL0     H53492   3.666   5.938   2.888 -0.2998  0.6939  1.2029
  388MOL0     H53493   3.852   5.898   2.731 -2.4924 -0.1710 -1.5123
  388MOL0     H53494   4.071   5.974   2.567  1.8006  0.9119  0.2631
  388MOL0     H53495   4.095   6.139   2.542 -0.6949 -0.5742  1.2416
  388MOL0     H53496   3.917   5.956   2.371  1.0989 -2.8465  1.4807
  388MOL0     H53497   3.964   6.124   2.325  3.3941  0.9238 -0.2947
  388MOL0     H53498   4.149   5.884   2.367 -0.3202  1.7103  1.2458
  388MOL0     H53499   4.107   5.956   2.206 -0.6298  1.9361 -0.6811
  388MOL0     H53500   4.194   6.174   2.304  0.8692  0.3621 -1.8083
  388MOL0     H53501   4.273   6.070   2.430 -0.3289 -2.8575  0.1064
  388MOL0     H53502   4.279   6.175   2.014  0.3721  0.3976 -0.9033
  388MOL0     H53503   4.332   6.513   1.936 -4.1267  0.0043 -1.9177
  388MOL0     H53504   4.249   6.385   1.897 -1.0245 -0.5098  4.5594
  388MOL0     H53505   4.422   6.389   1.831  0.3345 -0.7389  1.5306
  388MOL0     H53506   4.546   6.810   2.033  0.2652 -0.1247 -1.0255
  388MOL0     H53507   4.663   7.009   1.981  1.6655 -0.5114 -0.7232
  388MOL0     H53508   4.721   7.176   2.046  0.5140 -1.1758 -1.3402
  388MOL0     H53509   4.836   7.253   2.150  1.3525 -0.1832  0.2447
  388MOL0     H53510   4.874   7.215   1.838  1.1630 -0.7930 -0.9423
  388MOL0     H53511   4.814   7.359   1.919 -1.4839 -1.2868 -0.9828
  388MOL0     H53512   5.082   7.235   1.877 -3.9111 -1.5340 -2.2090
  388MOL0     H53513   5.067   7.335   2.027 -1.9057  0.1812  0.2122
  388MOL0     H53514   5.034   7.524   1.912  1.8752  0.3060  0.3475
  388MOL0     H53515   4.960   7.433   1.769 -0.8150 -2.2553  0.2964
  388MOL0     H53516   5.267   7.456   1.823 -0.2213  2.3207  0.1380
  388MOL0     H53517   5.182   7.340   1.718 -1.3451 -1.5444  1.7049
  388MOL0     H53518   5.182   7.633   1.694 -0.1094  0.2392 -0.3775
  388MOL0     H53519   5.096   7.525   1.582 -1.5599  0.2607  2.0288
  388MOL0     H53520   5.392   7.477   1.627  0.2683 -2.1588 -1.6402
  388MOL0     H53521   5.338   7.607   1.516 -3.9377  0.4157 -1.2851
  388MOL0     H53522   5.209   7.437   1.391 -0.5621  0.4756  1.4766
  388MOL0     H53523   5.260   7.311   1.505  0.5991 -1.4667 -0.8848
  388MOL0     H53524   5.014   6.877   2.198 -1.0630  2.9887 -0.6618
  388MOL0     H53525   4.900   6.654   2.235  1.5852  0.7424 -1.0435
  388MOL0     H53526   4.640   6.383   2.279  0.4856  0.3346 -2.6290
  388MOL0     H53527   4.526   6.170   2.364  1.7448 -0.3469  0.3320
  388MOL0     H53528   2.776   5.945   3.006 -0.2974 -0.1112  0.4671
  388MOL0     H53529   2.672   6.000   2.809 -1.1680  0.1239  0.6015
  388MOL0     H53530   2.591   5.856   2.367  1.5548  2.9119  2.1659
  388MOL0     H53531   2.498   5.934   2.154  2.7067  2.6526  1.0259
  388MOL0     H53532   2.152   5.923   1.988 -2.3893  0.6822 -0.0663
  388MOL0     H53533   2.071   5.952   2.138 -0.4913 -0.0402  0.4253
  388MOL0     H53534   2.115   6.200   2.077  1.5170 -1.3564  0.2258
  388MOL0     H53535   1.974   6.132   1.993 -0.7708  2.2855  0.4742
  388MOL0     H53536   2.234   6.240   1.895 -0.5742  0.5588  0.9188
  388MOL0     H53537   2.190   6.079   1.833  1.6462  0.0413  2.2508
  388MOL0     H53538   1.975   6.162   1.757  0.5328 -1.1392  3.0917
  388MOL0     H53539   2.104   6.247   1.679 -1.8538  1.4090 -0.7417
  388MOL0     H53540   1.936   6.555   1.927 -1.4935 -1.2134  1.2142
  388MOL0     H53541   2.124   6.027   2.353  0.1684 -0.6111 -0.9555
  388MOL0     H53542   2.123   6.084   2.580  0.5317  1.6716  3.0620
  388MOL0     H53543   2.167   5.929   2.661  4.0552 -0.1407  1.5640
  388MOL0     H53544   2.268   6.068   2.682 -0.1941  3.2184 -2.0265
  389MOL0     O53545   0.477   2.506   5.137  0.7286  0.0036 -0.2020
  389MOL0     C53546   0.398   2.419   5.095  0.6426 -0.2022  0.2118
  389MOL0     O53547   0.275   2.455   5.057  0.2377  0.2922  0.6266
  389MOL0     C53548   0.235   2.579   5.099  0.3377  0.1563  0.2532
  389MOL0     C53549   0.181   2.578   5.228 -0.7006 -0.2248  0.2638
  389MOL0     C53550   0.119   2.685   5.285  0.6455 -0.2551 -0.0357
  389MOL0     C53551   0.103   2.801   5.213  0.4770 -0.6612 -0.4275
  389MOL0     O53552   0.032   2.897   5.281 -0.6114  0.0793  0.1828
  389MOL0     C53553  -0.081   2.955   5.209 -0.7803  0.3971 -0.8681
  389MOL0     C53554  -0.122   3.074   5.299 -0.6299  0.2475 -0.1937
  389MOL0     C53555  -0.014   3.176   5.304 -0.4884 -0.7406  0.3964
  389MOL0     C53556  -0.059   3.295   5.390 -0.7323  0.2680  1.0893
  389MOL0     C53557   0.043   3.414   5.398  0.5012 -0.4792  0.8231
  389MOL0     C53558   0.005   3.515   5.499  0.4769  0.0811 -0.1945
  389MOL0     C53559   0.099   3.637   5.486 -0.7620  0.1557 -0.1532
  389MOL0     C53560   0.059   3.755   5.578  0.2498 -0.6627  0.2726
  389MOL0     N53561   0.105   3.724   5.708 -0.4913 -0.6841 -0.4758
  389MOL0     C53562   0.214   3.786   5.779  0.1460 -0.0984  0.6972
  389MOL0     C53563   0.213   3.741   5.910  0.1535  0.5503  1.0255
  389MOL0     C53564   0.289   3.770   6.027  0.3627 -0.3803 -0.3065
  389MOL0     C53565   0.340   3.921   6.022 -1.0927 -0.5139  0.0612
  389MOL0     C53566   0.372   3.973   6.164  0.1155 -0.5782 -0.1459
  389MOL0     C53567   0.511   3.920   6.219  0.0799  0.5127  0.0332
  389MOL0     O53568   0.511   3.797   6.290  0.0921  0.3876  0.2774
  389MOL0     C53569   0.629   3.727   6.315  0.2114  0.1631 -0.2262
  389MOL0     C53570   0.753   3.772   6.287  0.4006 -0.0100  0.7781
  389MOL0     C53571   0.873   3.705   6.312 -0.1146 -0.0678 -0.0257
  389MOL0     C53572   0.999   3.774   6.288  0.1533  0.0901 -0.3021
  389MOL0     C53573   0.856   3.578   6.376 -1.2349 -0.7154  0.2642
  389MOL0     C53574   0.978   3.492   6.409  0.1097  0.2926  0.4260
  389MOL0     O53575   1.099   3.508   6.337  0.1972  0.1163 -0.2807
  389MOL0     C53576   1.204   3.435   6.373  0.3853  0.5673  1.1069
  389MOL0     C53577   1.211   3.305   6.325 -0.2374  0.3226  0.0021
  389MOL0     C53578   1.325   3.225   6.359  0.3052  0.0633  0.2899
  389MOL0     C53579   1.418   3.271   6.443  0.0128 -0.0166 -0.0151
  389MOL0     O53580   1.517   3.190   6.487 -0.3231 -0.0473  0.6248
  389MOL0     C53581   1.617   3.222   6.593  1.5143  0.2923 -0.1561
  389MOL0     C53582   1.682   3.086   6.630 -0.3800 -0.2224 -0.0535
  389MOL0     C53583   1.736   3.016   6.504  0.6338  0.4491  0.2466
  389MOL0     C53584   1.836   3.105   6.426 -0.3544  0.2097  0.4013
  389MOL0     C53585   1.906   3.033   6.306  0.2556 -0.0987 -1.1252
  389MOL0     C53586   1.997   3.132   6.229  0.1935 -0.1472  0.1843
  389MOL0     C53587   2.060   3.067   6.096  0.2771 -0.2357  0.4809
  389MOL0     C53588   2.156   2.954   6.122 -0.2753  1.3164  0.1577
  389MOL0    Cl53589   2.240   2.909   5.971 -0.5776 -0.1784  0.1222
  389MOL0     C53590   1.401   3.402   6.489 -1.0376  0.5857 -0.4996
  389MOL0     C53591   1.304   3.487   6.451 -0.1383 -0.9561 -0.4289
  389MOL0     O53592   0.951   3.389   6.466 -0.4895  0.5469 -0.1964
  389MOL0     C53593   0.724   3.532   6.398 -0.3973  0.1511 -0.0910
  389MOL0     C53594   0.611   3.602   6.377  0.0594 -1.1596  0.6930
  389MOL0     N53595   0.101   3.656   5.913 -0.0497 -0.0959 -0.3098
  389MOL0     N53596   0.038   3.651   5.802 -0.5758  0.2002  0.3050
  389MOL0     C53597   0.164   2.804   5.084 -0.0557  0.0426  0.1338
  389MOL0     C53598   0.233   2.695   5.028 -0.1136 -0.3399  0.6788
  389MOL0     C53599   0.437   2.284   5.087  0.9510  0.9058 -0.3398
  389MOL0     C53600   0.342   2.198   5.036 -0.4640  0.0319 -0.1959
  389MOL0     C53601   0.371   2.069   5.026  0.6453  0.2946  0.0086
  389MOL0     C53602   0.494   2.017   5.070  0.8455  0.1131  0.4603
  389MOL0     O53603   0.521   1.878   5.046  0.8836 -0.1488 -0.2073
  389MOL0     C53604   0.612   1.810   5.115  0.0847  0.2348  0.7413
  389MOL0     C53605   0.576   1.794   5.265 -0.0980 -0.1497 -0.6046
  389MOL0     C53606   0.644   1.691   5.351  0.6329 -0.1265  0.1211
  389MOL0     C53607   0.792   1.692   5.349 -0.3255  0.3214 -0.6111
  389MOL0     C53608   0.851   1.827   5.381 -0.1296 -0.2243 -0.1855
  389MOL0     C53609   0.914   1.925   5.418 -0.5003  0.9281 -0.2647
  389MOL0     C53610   0.582   2.104   5.135 -0.2149  0.2916 -0.4469
  389MOL0     C53611   0.562   2.236   5.135  0.5422  0.1382  1.2691
  389MOL0     C53612   0.680   2.324   5.174  0.1808  0.4907 -0.1468
  389MOL0     H53613   0.195   2.493   5.295  0.0914 -2.8100 -2.9083
  389MOL0     H53614   0.074   2.669   5.382  2.1361  1.3091  0.9687
  389MOL0     H53615  -0.157   2.880   5.188  0.6633 -1.2257 -0.5281
  389MOL0     H53616  -0.052   3.000   5.114  1.8619 -0.5857 -0.6206
  389MOL0     H53617  -0.216   3.119   5.263  0.1954  3.0908  0.9169
  389MOL0     H53618  -0.145   3.041   5.400 -1.5763 -0.5334 -0.6427
  389MOL0     H53619   0.077   3.139   5.352  0.2017  0.7421  0.3170
  389MOL0     H53620   0.017   3.207   5.204  1.8260 -1.8021  0.7113
  389MOL0     H53621  -0.152   3.337   5.352 -0.5702  1.3440  1.8411
  389MOL0     H53622  -0.072   3.260   5.493  1.4155  0.8968  1.6269
  389MOL0     H53623   0.068   3.448   5.298  4.2122 -1.0025  1.4005
  389MOL0     H53624   0.138   3.378   5.439 -0.3698 -0.4705  3.0021
  389MOL0     H53625  -0.099   3.544   5.483  0.6014  0.6107 -0.0387
  389MOL0     H53626   0.007   3.473   5.600 -0.5068  0.4717 -0.0093
  389MOL0     H53627   0.099   3.676   5.384 -2.5215 -2.3694 -1.2116
  389MOL0     H53628   0.205   3.621   5.506 -0.9751 -0.2291  0.6873
  389MOL0     H53629   0.099   3.848   5.535 -2.7010  1.6795  2.2152
  389MOL0     H53630  -0.049   3.767   5.583  0.1064 -1.3312 -0.8592
  389MOL0     H53631   0.285   3.850   5.728 -0.0519 -1.5766 -1.5922
  389MOL0     H53632   0.374   3.701   6.034  1.2975  0.8623  1.2102
  389MOL0     H53633   0.225   3.747   6.113 -0.2041  1.4413 -0.1918
  389MOL0     H53634   0.431   3.924   5.961  0.1870 -2.3235  1.7441
  389MOL0     H53635   0.263   3.993   5.991 -1.4809 -0.8234  0.2943
  389MOL0     H53636   0.386   4.081   6.155  0.2129 -0.6868 -1.5307
  389MOL0     H53637   0.288   3.961   6.232 -1.0393 -2.3160 -1.7986
  389MOL0     H53638   0.574   3.919   6.130 -0.8577  4.4921 -0.8469
  389MOL0     H53639   0.537   4.000   6.289 -2.2657  2.4984 -1.1816
  389MOL0     H53640   0.764   3.868   6.237 -0.8534 -0.3001 -0.1219
  389MOL0     H53641   1.058   3.799   6.377  1.0443  0.9672 -1.1268
  389MOL0     H53642   0.973   3.872   6.246 -4.3930  0.1967  2.0162
  389MOL0     H53643   1.066   3.716   6.225  3.4469  2.0778  1.1283
  389MOL0     H53644   1.145   3.255   6.255  2.8384 -1.2017 -2.0090
  389MOL0     H53645   1.336   3.124   6.321 -1.6338  0.2086 -0.8189
  389MOL0     H53646   1.688   3.298   6.561  0.5217  1.7775  1.0411
  389MOL0     H53647   1.561   3.253   6.681 -2.1119 -0.9893 -1.8275
  389MOL0     H53648   1.765   3.113   6.696  1.1244 -1.3402 -1.4051
  389MOL0     H53649   1.609   3.024   6.682 -1.4396  1.3640  0.4460
  389MOL0     H53650   1.656   2.998   6.431  0.0604  1.3236  0.6402
  389MOL0     H53651   1.778   2.922   6.540  2.2235  0.7438 -0.7379
  389MOL0     H53652   1.898   3.146   6.506 -2.2608 -0.5100  2.3703
  389MOL0     H53653   1.775   3.190   6.394  0.4224  1.5222  2.2137
  389MOL0     H53654   1.965   2.953   6.351 -0.4669  0.8054  1.6705
  389MOL0     H53655   1.824   3.000   6.241  0.0821  0.6034 -1.2711
  389MOL0     H53656   2.081   3.168   6.289  1.1989 -1.2970 -0.4844
  389MOL0     H53657   1.932   3.216   6.204  0.4176  0.0199  0.1617
  389MOL0     H53658   2.117   3.142   6.040  0.0152 -1.5272 -1.6220
  389MOL0     H53659   1.987   3.023   6.028 -1.8255  0.4038  2.2109
  389MOL0     H53660   2.094   2.871   6.155  2.9496 -0.8618  1.2074
  389MOL0     H53661   2.236   2.960   6.197  2.5650 -1.7769 -2.3203
  389MOL0     H53662   1.474   3.451   6.553 -2.1094 -0.3032  1.4951
  389MOL0     H53663   1.300   3.589   6.489  0.3357 -0.7283 -0.9788
  389MOL0     H53664   0.711   3.437   6.449  1.3800  0.1908  0.5012
  389MOL0     H53665   0.507   3.573   6.384 -1.1410  1.5505 -2.7336
  389MOL0     H53666   0.145   2.890   5.020 -0.7353 -0.4802 -0.3837
  389MOL0     H53667   0.271   2.706   4.927  1.3435 -0.9945  1.1275
  389MOL0     H53668   0.250   2.237   4.993 -1.0402  0.9575  1.7242
  389MOL0     H53669   0.301   1.998   4.983 -0.2465  0.2121  1.5116
  389MOL0     H53670   0.645   1.715   5.071  2.8598  2.1477 -1.6633
  389MOL0     H53671   0.703   1.871   5.113 -0.9189  1.7596 -0.0604
  389MOL0     H53672   0.471   1.766   5.282  1.1513 -3.3748  3.1134
  389MOL0     H53673   0.590   1.893   5.309  0.8064  0.0177 -1.2373
  389MOL0     H53674   0.603   1.706   5.451 -0.3365  0.8930 -0.4077
  389MOL0     H53675   0.617   1.588   5.323  0.7725 -1.1805  3.4439
  389MOL0     H53676   0.823   1.665   5.248  0.7956 -0.4941 -0.0669
  389MOL0     H53677   0.832   1.623   5.424 -1.5546  3.9040  3.8046
  389MOL0     H53678   0.978   1.995   5.466  0.5149 -0.9817  1.3285
  389MOL0     H53679   0.680   2.071   5.167 -0.9676 -1.1051  0.5204
  389MOL0     H53680   0.769   2.270   5.208  0.6598  1.4370  0.1146
  389MOL0     H53681   0.701   2.398   5.096 -0.3429  0.6747 -0.1177
  389MOL0     H53682   0.647   2.384   5.259 -1.5713 -0.6374  0.0353
  390MOL0     O53683   8.659   6.272   9.285 -0.5220 -0.0138 -0.4750
  390MOL0     C53684   8.576   6.310   9.369  0.0545  0.0615  0.7372
  390MOL0     O53685   8.606   6.337   9.502  0.4126 -0.1874 -0.5207
  390MOL0     C53686   8.715   6.285   9.570  1.2648  0.3126 -0.8888
  390MOL0     C53687   8.771   6.372   9.661  0.0141  0.5078 -0.2380
  390MOL0     C53688   8.884   6.318   9.734 -0.1522 -0.2738  1.3030
  390MOL0     C53689   8.934   6.190   9.720 -0.4619 -0.3142 -0.5972
  390MOL0     O53690   9.020   6.164   9.825  0.5458 -0.3750 -0.7774
  390MOL0     C53691   9.110   6.054   9.808  0.0477  0.7445 -0.6588
  390MOL0     C53692   9.119   5.969   9.935 -1.5517  0.2310  0.0941
  390MOL0     C53693   9.216   5.842   9.926 -0.0297 -1.1871  0.2386
  390MOL0     C53694   9.151   5.733   9.834 -0.4920  0.9393  0.3718
  390MOL0     C53695   9.069   5.623   9.901 -0.0466  0.2857 -0.3473
  390MOL0     C53696   9.156   5.499   9.921 -0.6982  0.2741  0.2496
  390MOL0     C53697   9.114   5.398  10.028 -0.0141  0.7272 -0.1015
  390MOL0     C53698   9.221   5.294  10.053  0.4839 -0.0899 -0.4615
  390MOL0     N53699   9.187   5.181  10.138 -0.1839  0.6163  0.7510
  390MOL0     C53700   9.116   5.177  10.253 -0.0188 -0.7484  0.1714
  390MOL0     C53701   9.120   5.050  10.293 -0.5926 -1.2627 -0.4829
  390MOL0     C53702   9.059   5.000  10.418  0.0248  0.1436  0.1050
  390MOL0     C53703   9.152   4.902  10.489  0.0499 -0.7440 -0.0420
  390MOL0     C53704   9.112   4.867  10.628 -0.2109 -0.1241 -0.8094
  390MOL0     C53705   8.968   4.823  10.631 -0.1342  0.7756  0.4198
  390MOL0     O53706   8.936   4.714  10.540  0.4855 -0.0985  0.0163
  390MOL0     C53707   8.821   4.639  10.572  0.4173 -0.0791  0.7749
  390MOL0     C53708   8.792   4.522  10.496  0.7223  0.4617 -0.1411
  390MOL0     C53709   8.670   4.446  10.501 -0.0463 -0.0300  0.5762
  390MOL0     C53710   8.659   4.333  10.398 -0.4582 -0.1018  0.3054
  390MOL0     C53711   8.576   4.483  10.603  0.5997  0.6166 -0.1878
  390MOL0     C53712   8.465   4.391  10.627 -0.7028  0.0127 -0.5849
  390MOL0     O53713   8.461   4.344  10.757  0.3300  0.1230 -0.5833
  390MOL0     C53714   8.336   4.303  10.801  0.4268 -0.8114 -0.3236
  390MOL0     C53715   8.286   4.361  10.924 -0.7231  1.2683 -0.1415
  390MOL0     C53716   8.166   4.323  10.972  0.5784  0.5705 -0.1572
  390MOL0     C53717   8.094   4.215  10.914  0.3871 -0.1595 -0.2995
  390MOL0     O53718   7.982   4.177  10.980 -0.4404  0.0011 -0.1506
  390MOL0     C53719   7.860   4.136  10.907 -0.6929 -0.2615  0.2461
  390MOL0     C53720   7.749   4.081  10.999 -0.0263  0.3721 -0.0983
  390MOL0     C53721   7.621   4.072  10.924  1.2191 -1.2453 -0.3996
  390MOL0     C53722   7.625   3.981  10.799 -0.1657  0.3947 -0.2393
  390MOL0     C53723   7.626   4.053  10.664 -0.2528  0.0349  0.5282
  390MOL0     C53724   7.488   4.131  10.642 -0.8874  0.1247 -0.1229
  390MOL0     C53725   7.494   4.213  10.513  0.9509  0.0132  0.0117
  390MOL0     C53726   7.546   4.353  10.548  0.3562  0.8683 -0.2574
  390MOL0    Cl53727   7.409   4.464  10.606  0.0431  0.1341 -0.0887
  390MOL0     C53728   8.140   4.155  10.792 -0.0918 -0.2497  0.1249
  390MOL0     C53729   8.267   4.193  10.737 -1.4645  0.3885  0.1404
  390MOL0     O53730   8.396   4.364  10.535  0.0116  0.1338 -0.0964
  390MOL0     C53731   8.605   4.600  10.680  0.8706  0.2485 -0.0748
  390MOL0     C53732   8.714   4.678  10.659 -0.3683 -1.0081  0.6917
  390MOL0     N53733   9.197   4.966  10.211 -0.0635  0.3300  0.2473
  390MOL0     N53734   9.233   5.050  10.113  0.5128 -0.0824  0.8224
  390MOL0     C53735   8.869   6.101   9.625 -0.2037 -0.4616 -0.7657
  390MOL0     C53736   8.765   6.155   9.552  0.1706  0.3673 -0.0774
  390MOL0     C53737   8.435   6.360   9.340 -0.5774  0.3648 -0.2552
  390MOL0     C53738   8.372   6.450   9.432 -0.1238 -0.6261  0.5922
  390MOL0     C53739   8.248   6.504   9.405 -1.5287  0.3199 -0.1630
  390MOL0     C53740   8.174   6.466   9.295  0.2447  0.6239 -0.3873
  390MOL0     O53741   8.049   6.521   9.274 -0.7442 -0.0098 -0.2128
  390MOL0     C53742   7.948   6.456   9.200  0.0290 -0.2693  0.3945
  390MOL0     C53743   7.890   6.333   9.269 -0.0429  0.1042  1.1292
  390MOL0     C53744   7.790   6.270   9.178  0.5640 -0.4655 -0.1307
  390MOL0     C53745   7.859   6.203   9.058  0.1279 -0.2717  0.2871
  390MOL0     C53746   7.773   6.097   8.994  1.5039 -0.8669  0.0724
  390MOL0     C53747   7.700   6.024   8.933  0.4591 -0.3085 -0.5463
  390MOL0     C53748   8.230   6.368   9.208  0.1498 -1.1201 -0.1286
  390MOL0     C53749   8.365   6.316   9.224 -0.3715  0.0398 -0.2919
  390MOL0     C53750   8.427   6.208   9.133  0.0331  0.0114 -0.0126
  390MOL0     H53751   8.734   6.473   9.671 -0.6242  0.4518 -1.6943
  390MOL0     H53752   8.940   6.386   9.796 -0.4681  0.6206  0.6281
  390MOL0     H53753   9.204   6.092   9.767 -0.4027 -0.1808 -2.6978
  390MOL0     H53754   9.076   5.991   9.725 -0.1741  0.1834 -0.1468
  390MOL0     H53755   9.169   6.032  10.010  2.4574 -1.2889 -1.0291
  390MOL0     H53756   9.019   5.943   9.970 -0.7745  0.2473  2.5676
  390MOL0     H53757   9.303   5.877   9.870 -1.2513 -0.2804 -1.1703
  390MOL0     H53758   9.250   5.800  10.021  2.3624 -0.7353 -0.3545
  390MOL0     H53759   9.088   5.777   9.756  0.2914  2.3661  0.5045
  390MOL0     H53760   9.231   5.684   9.779 -1.1077 -0.7996  0.9693
  390MOL0     H53761   8.983   5.589   9.841 -0.2253 -0.1398  0.1370
  390MOL0     H53762   9.024   5.659   9.994 -1.3282 -1.0689 -0.4037
  390MOL0     H53763   9.163   5.459   9.819 -2.6526  1.9125 -0.5948
  390MOL0     H53764   9.252   5.534   9.960 -2.2231  2.7433  2.0634
  390MOL0     H53765   9.030   5.342   9.984  0.2000  1.3938 -1.4037
  390MOL0     H53766   9.078   5.444  10.121  0.4598  0.9282 -0.0149
  390MOL0     H53767   9.243   5.247   9.957 -1.7069  0.3566 -1.2499
  390MOL0     H53768   9.307   5.346  10.095  0.5669 -1.4806  1.2020
  390MOL0     H53769   9.074   5.263  10.304 -1.0401 -0.5157 -1.0056
  390MOL0     H53770   8.979   4.934  10.384  0.1656 -0.9209  1.7644
  390MOL0     H53771   9.030   5.082  10.485  0.9143 -0.2337  0.9779
  390MOL0     H53772   9.158   4.811  10.427  1.6684 -0.8906  0.2774
  390MOL0     H53773   9.256   4.934  10.502 -0.7547  1.3700  1.6193
  390MOL0     H53774   9.177   4.784  10.656 -1.1270 -0.9643 -1.1076
  390MOL0     H53775   9.130   4.949  10.698  4.6788 -0.1514 -1.7387
  390MOL0     H53776   8.943   4.793  10.734 -1.3931 -0.3150 -0.1777
  390MOL0     H53777   8.900   4.901  10.597 -1.4403 -1.0155 -1.2694
  390MOL0     H53778   8.871   4.491  10.429  0.8116 -0.6613  0.4534
  390MOL0     H53779   8.608   4.246  10.441  1.0609 -0.5868  1.2143
  390MOL0     H53780   8.758   4.300  10.363 -0.6113  0.5404 -0.7596
  390MOL0     H53781   8.607   4.368  10.309  0.6723 -0.2550 -0.4348
  390MOL0     H53782   8.331   4.445  10.976 -2.1806  1.2110  1.2778
  390MOL0     H53783   8.117   4.372  11.055 -2.3724 -1.3068 -0.6387
  390MOL0     H53784   7.820   4.222  10.852  2.6904  1.9787  0.9896
  390MOL0     H53785   7.876   4.060  10.830 -3.7307 -1.7283  0.8939
  390MOL0     H53786   7.778   3.986  11.046 -0.4228  1.1836  1.9039
  390MOL0     H53787   7.739   4.160  11.074  0.3925 -0.6205  1.0350
  390MOL0     H53788   7.579   4.169  10.899 -1.0367 -1.3936  2.2799
  390MOL0     H53789   7.545   4.025  10.987  2.3695 -3.1142 -0.3199
  390MOL0     H53790   7.534   3.920  10.800  1.1324 -1.6874  1.6929
  390MOL0     H53791   7.719   3.925  10.796 -0.4232 -0.0137 -0.8045
  390MOL0     H53792   7.712   4.121  10.654 -0.8960  0.6463 -1.4537
  390MOL0     H53793   7.643   3.975  10.589 -1.4037  0.9442 -0.7549
  390MOL0     H53794   7.470   4.205  10.720  1.7628  1.1439 -0.3847
  390MOL0     H53795   7.415   4.050  10.632  1.4544 -2.1174  0.0219
  390MOL0     H53796   7.389   4.205  10.481 -0.3048 -0.4510  3.6871
  390MOL0     H53797   7.563   4.169  10.441  0.2140 -1.7553  0.3221
  390MOL0     H53798   7.602   4.389  10.461 -1.0047  0.1010 -1.4963
  390MOL0     H53799   7.608   4.357  10.638 -3.8210 -1.2770  3.1035
  390MOL0     H53800   8.078   4.083  10.741 -0.4196  0.7388 -0.9383
  390MOL0     H53801   8.316   4.145  10.653 -1.8828  0.8163 -0.3544
  390MOL0     H53802   8.536   4.617  10.763 -1.1392 -0.8508 -1.4580
  390MOL0     H53803   8.730   4.768  10.717  2.9421 -0.0619 -1.4336
  390MOL0     H53804   8.912   6.004   9.602 -1.8007 -2.3513  3.2202
  390MOL0     H53805   8.709   6.087   9.489 -0.3544 -0.1303  0.8989
  390MOL0     H53806   8.417   6.502   9.516  1.6466  1.1059 -1.3153
  390MOL0     H53807   8.205   6.570   9.480 -0.6296  1.2754 -0.4751
  390MOL0     H53808   7.868   6.530   9.190  1.0688  0.6762 -1.4409
  390MOL0     H53809   7.973   6.443   9.094  0.9317  1.5679  0.3520
  390MOL0     H53810   7.843   6.382   9.354 -0.1681  1.7096  0.1691
  390MOL0     H53811   7.959   6.253   9.298 -0.0299 -2.0954 -3.8906
  390MOL0     H53812   7.734   6.195   9.233 -2.2178  0.8270 -1.0108
  390MOL0     H53813   7.725   6.353   9.149  3.0055  1.4728 -0.4292
  390MOL0     H53814   7.953   6.155   9.086  0.9162 -0.5466 -2.4624
  390MOL0     H53815   7.886   6.280   8.984 -2.1567  1.1604  0.8392
  390MOL0     H53816   7.636   5.948   8.893  0.5446 -0.7275  0.1041
  390MOL0     H53817   8.171   6.341   9.121 -0.1810  1.7879 -0.8947
  390MOL0     H53818   8.336   6.155   9.103  0.0964  0.5548 -1.2000
  390MOL0     H53819   8.471   6.246   9.041 -0.1239  1.6940  0.5735
  390MOL0     H53820   8.497   6.138   9.180  3.1601  2.4241 -0.7475
  391MOL0     O53821   9.272   5.034   1.896  0.1908 -0.9057  0.0845
  391MOL0     C53822   9.230   5.115   1.809  0.9195  0.3838 -0.1168
  391MOL0     O53823   9.288   5.237   1.774 -0.8911  0.0807  0.5989
  391MOL0     C53824   9.362   5.302   1.872  0.5592  0.3592 -0.0869
  391MOL0     C53825   9.479   5.250   1.928  0.5449  0.4595  0.4726
  391MOL0     C53826   9.553   5.306   2.031  0.6108 -1.1968 -0.0035
  391MOL0     C53827   9.517   5.439   2.065  0.4917  0.3442  0.1449
  391MOL0     O53828   9.606   5.500   2.154 -0.1051 -0.0858  0.6876
  391MOL0     C53829   9.596   5.646   2.175  0.1993 -0.7504 -0.6155
  391MOL0     C53830   9.704   5.685   2.276  0.0820  0.0523 -0.4594
  391MOL0     C53831   9.697   5.608   2.406  0.7507 -0.4446 -0.1484
  391MOL0     C53832   9.799   5.638   2.518 -0.6885  0.3750  0.0133
  391MOL0     C53833   9.937   5.574   2.486 -0.0106 -0.2358  0.4712
  391MOL0     C53834  10.058   5.622   2.563  0.3912 -0.2253 -0.7270
  391MOL0     C53835  10.140   5.735   2.503 -0.0246 -0.4646 -0.2779
  391MOL0     C53836  10.252   5.773   2.595 -0.2648  0.4240  0.7545
  391MOL0     N53837  10.331   5.878   2.538 -0.7490 -0.7327  1.0732
  391MOL0     C53838  10.282   5.999   2.486 -0.4570 -0.5314 -0.2343
  391MOL0     C53839  10.393   6.074   2.477 -0.6122 -0.3960  0.6905
  391MOL0     C53840  10.405   6.210   2.402 -0.4987 -0.8752  0.1057
  391MOL0     C53841  10.517   6.301   2.453 -0.8478  0.0714  0.3200
  391MOL0     C53842  10.534   6.424   2.363 -0.6521  0.1484 -0.0457
  391MOL0     C53843  10.658   6.499   2.408  0.7596  0.2395 -1.0899
  391MOL0     O53844  10.678   6.616   2.320 -0.1554 -0.0481  0.0383
  391MOL0     C53845  10.756   6.719   2.363  0.1130  0.8213 -0.6152
  391MOL0     C53846  10.865   6.710   2.455 -0.4393 -0.0869 -0.4537
  391MOL0     C53847  10.933   6.828   2.495  0.1332  0.8251 -1.1368
  391MOL0     C53848  11.051   6.810   2.592 -0.4392  0.3837 -0.1072
  391MOL0     C53849  10.898   6.950   2.437 -0.3928  0.3809 -0.1233
  391MOL0     C53850  10.967   7.070   2.468 -0.4813 -0.4210 -1.1708
  391MOL0     O53851  11.041   7.119   2.360  0.1677 -0.3020  0.4733
  391MOL0     C53852  11.141   7.214   2.378  0.1701 -0.2304 -0.2554
  391MOL0     C53853  11.157   7.304   2.276  0.0227  0.0015  0.1440
  391MOL0     C53854  11.251   7.411   2.284  1.5419  0.6115 -0.7087
  391MOL0     C53855  11.327   7.425   2.394  0.1523 -0.8236 -0.1801
  391MOL0     O53856  11.412   7.536   2.386 -0.7465  0.6877 -0.1366
  391MOL0     C53857  11.544   7.510   2.416 -0.1245  0.9523  0.6973
  391MOL0     C53858  11.587   7.538   2.561  0.6869  0.0497  0.1543
  391MOL0     C53859  11.634   7.688   2.577  0.5587  0.1039  0.2606
  391MOL0     C53860  11.670   7.708   2.722  0.6921 -0.0739 -0.9610
  391MOL0     C53861  11.771   7.819   2.746 -0.2316  0.1389  0.7532
  391MOL0     C53862  11.717   7.958   2.696 -0.9816  0.3926 -0.2012
  391MOL0     C53863  11.830   8.064   2.707  0.4573  1.0954 -0.5006
  391MOL0     C53864  11.842   8.130   2.846 -0.5271 -0.8748  0.1300
  391MOL0    Cl53865  11.979   8.245   2.839  0.0778  0.2785  0.1403
  391MOL0     C53866  11.324   7.322   2.492 -0.1598 -0.4563  0.2510
  391MOL0     C53867  11.231   7.223   2.497  0.7060  0.3932 -0.0824
  391MOL0     O53868  10.975   7.112   2.587 -0.2238  0.3308  0.6139
  391MOL0     C53869  10.797   6.957   2.347  0.0262  0.1872 -0.0625
  391MOL0     C53870  10.727   6.845   2.311 -0.2369 -0.1721 -0.0715
  391MOL0     N53871  10.510   6.005   2.524 -1.4835  0.1506  0.7032
  391MOL0     N53872  10.466   5.892   2.561 -1.0857 -0.0183  0.0356
  391MOL0     C53873   9.400   5.494   2.011  0.5278  0.1357 -0.5405
  391MOL0     C53874   9.324   5.433   1.910  0.8281  0.0790 -0.7227
  391MOL0     C53875   9.108   5.067   1.727 -0.6631 -0.0604  0.1708
  391MOL0     C53876   9.097   5.131   1.611  0.7079  0.4722  0.8597
  391MOL0     C53877   8.990   5.103   1.524 -0.0541  0.0436  0.3610
  391MOL0     C53878   8.895   5.009   1.566 -1.4610 -0.6199  0.6106
  391MOL0     O53879   8.784   4.974   1.494  0.1396  0.8628  0.4988
  391MOL0     C53880   8.715   5.081   1.438 -0.4755 -0.0184 -0.1989
  391MOL0     C53881   8.586   5.029   1.369  0.2583 -0.2017  0.4033
  391MOL0     C53882   8.467   5.000   1.463 -0.0349 -0.1906  0.4178
  391MOL0     C53883   8.355   4.924   1.401 -0.4398 -1.0409 -0.8418
  391MOL0     C53884   8.285   4.996   1.297 -0.3652 -0.1638 -0.1011
  391MOL0     C53885   8.221   5.065   1.222  0.1432  0.3864  0.5639
  391MOL0     C53886   8.913   4.945   1.693  0.1884 -0.0943  0.6360
  391MOL0     C53887   9.015   4.969   1.777 -0.7055 -0.5041  0.5945
  391MOL0     C53888   9.023   4.903   1.909  0.2114 -0.5193 -0.0403
  391MOL0     H53889   9.508   5.156   1.881  0.4249  1.2841 -1.3346
  391MOL0     H53890   9.643   5.261   2.069 -0.3684 -1.0858  2.6441
  391MOL0     H53891   9.497   5.669   2.217  0.4857 -1.5118  0.5298
  391MOL0     H53892   9.607   5.697   2.079 -1.7656 -1.2727 -1.1646
  391MOL0     H53893   9.800   5.659   2.229 -0.7629 -1.5986 -1.3734
  391MOL0     H53894   9.698   5.791   2.300  1.9729 -0.2482  1.7652
  391MOL0     H53895   9.600   5.622   2.455  0.9332 -2.6373  0.9675
  391MOL0     H53896   9.693   5.502   2.379 -1.6254  0.4951 -4.3786
  391MOL0     H53897   9.801   5.748   2.517 -0.0962  0.4005 -2.5236
  391MOL0     H53898   9.756   5.599   2.610  1.2567 -0.2847  0.7007
  391MOL0     H53899   9.951   5.600   2.380 -2.1350  1.5953  0.5501
  391MOL0     H53900   9.923   5.466   2.483  0.0162 -0.2215 -2.0672
  391MOL0     H53901  10.034   5.640   2.668  1.9994 -2.1588  0.0542
  391MOL0     H53902  10.124   5.534   2.561 -1.5360 -1.7433 -0.2986
  391MOL0     H53903  10.067   5.816   2.504  1.7712  1.2733 -1.3327
  391MOL0     H53904  10.161   5.707   2.399  0.6155 -0.2878 -0.1987
  391MOL0     H53905  10.202   5.817   2.682 -1.4831  0.7007 -0.0614
  391MOL0     H53906  10.313   5.689   2.628  3.0194  2.4420  0.2038
  391MOL0     H53907  10.180   6.014   2.451 -0.3583 -0.3931 -0.4687
  391MOL0     H53908  10.312   6.266   2.418  0.9650  1.8324 -0.1385
  391MOL0     H53909  10.412   6.202   2.294 -0.3821  0.7516 -0.0383
  391MOL0     H53910  10.499   6.343   2.553 -1.2056  0.6054  0.0353
  391MOL0     H53911  10.619   6.261   2.460 -0.3536  1.0116 -1.0225
  391MOL0     H53912  10.557   6.394   2.260 -1.9792  0.0515 -0.3332
  391MOL0     H53913  10.442   6.482   2.355 -0.1234  0.9603 -0.4005
  391MOL0     H53914  10.655   6.537   2.511  2.0307  1.0953 -1.3348
  391MOL0     H53915  10.747   6.438   2.389  0.8252 -0.4986  1.2122
  391MOL0     H53916  10.888   6.609   2.486  0.9807  0.4922  0.5364
  391MOL0     H53917  11.105   6.893   2.638 -1.1215 -0.7532  2.9859
  391MOL0     H53918  11.134   6.753   2.550 -0.6719 -0.8059  0.9865
  391MOL0     H53919  11.014   6.742   2.670  0.4796 -3.9079 -3.0600
  391MOL0     H53920  11.085   7.297   2.195 -2.0663 -0.8344  1.9657
  391MOL0     H53921  11.247   7.499   2.220  0.5979 -0.2661 -1.8915
  391MOL0     H53922  11.576   7.407   2.393 -2.2831 -0.2191  2.5615
  391MOL0     H53923  11.600   7.571   2.344  2.4376 -1.1744  0.6951
  391MOL0     H53924  11.515   7.510   2.639  0.1672 -2.8832 -1.2504
  391MOL0     H53925  11.671   7.470   2.571 -0.4411 -1.8322 -2.2335
  391MOL0     H53926  11.553   7.760   2.565 -0.5877 -1.0963  0.5671
  391MOL0     H53927  11.726   7.702   2.519  0.7368 -2.8595 -0.3030
  391MOL0     H53928  11.712   7.617   2.767  1.5523 -0.4867 -2.5141
  391MOL0     H53929  11.581   7.741   2.777  2.3367  3.0947  0.0193
  391MOL0     H53930  11.807   7.812   2.849  0.3575  0.6326  0.5863
  391MOL0     H53931  11.861   7.794   2.688  0.3422 -0.4434  1.8491
  391MOL0     H53932  11.628   7.985   2.754 -1.4585  1.9907 -1.5879
  391MOL0     H53933  11.689   7.948   2.591  2.8672 -2.6957 -1.1541
  391MOL0     H53934  11.817   8.147   2.637 -1.2737 -0.3793 -2.0175
  391MOL0     H53935  11.921   8.008   2.683  1.2219  2.2787 -0.4225
  391MOL0     H53936  11.861   8.057   2.926 -1.4808 -0.9799  0.2703
  391MOL0     H53937  11.755   8.189   2.875 -0.1766 -0.1438 -0.2817
  391MOL0     H53938  11.399   7.329   2.570  0.3691  2.6552 -0.4084
  391MOL0     H53939  11.227   7.158   2.583 -1.2010  0.7442  0.1395
  391MOL0     H53940  10.773   7.048   2.293  0.6148  0.8041  0.6946
  391MOL0     H53941  10.633   6.863   2.260 -2.1829 -0.9558  2.9595
  391MOL0     H53942   9.378   5.592   2.050  0.5544 -1.4962  4.3103
  391MOL0     H53943   9.245   5.488   1.859 -0.9779 -0.6304  1.1689
  391MOL0     H53944   9.157   5.214   1.575  0.2217 -0.4042 -2.2669
  391MOL0     H53945   8.981   5.146   1.425 -3.8279 -0.8236  0.1919
  391MOL0     H53946   8.692   5.155   1.515  0.0008 -0.1385  0.0638
  391MOL0     H53947   8.786   5.122   1.365 -1.5459 -0.4363 -1.5274
  391MOL0     H53948   8.623   4.938   1.321  2.4788  1.9457 -2.2733
  391MOL0     H53949   8.563   5.092   1.283 -3.1898  1.6033  2.4076
  391MOL0     H53950   8.501   4.942   1.549  0.0583 -2.3658 -0.9803
  391MOL0     H53951   8.426   5.097   1.491 -2.2029 -0.1036 -2.5555
  391MOL0     H53952   8.277   4.914   1.477  0.1444  0.2089 -0.0583
  391MOL0     H53953   8.384   4.822   1.372  1.6827 -1.5210  2.5014
  391MOL0     H53954   8.157   5.126   1.162  0.4024 -0.4001 -0.5277
  391MOL0     H53955   8.834   4.879   1.729 -0.1342  0.0537  0.2097
  391MOL0     H53956   9.101   4.827   1.921 -0.8822 -1.2853  3.2872
  391MOL0     H53957   9.044   4.961   1.999  0.6776 -2.6034  1.2674
  391MOL0     H53958   8.922   4.861   1.917 -1.5877  3.7281  2.5765
  392MOL0     O53959   4.260   1.380   8.249  0.0867 -0.2676 -0.6380
  392MOL0     C53960   4.234   1.451   8.349  0.6996 -0.4712 -0.9532
  392MOL0     O53961   4.316   1.528   8.408  0.1031 -0.7130 -0.6410
  392MOL0     C53962   4.404   1.605   8.342  0.1270  0.3210 -0.3133
  392MOL0     C53963   4.534   1.586   8.398  0.0350 -0.2496 -0.1680
  392MOL0     C53964   4.642   1.648   8.330 -0.0808  0.2037 -1.3494
  392MOL0     C53965   4.622   1.721   8.216 -0.5688 -0.8925 -0.1123
  392MOL0     O53966   4.719   1.798   8.154  0.3185 -0.0990  0.0715
  392MOL0     C53967   4.860   1.757   8.176  0.7665 -0.1934  0.2167
  392MOL0     C53968   4.940   1.847   8.083 -0.0919  0.5192  0.3454
  392MOL0     C53969   5.081   1.855   8.130 -0.4208 -0.1380  0.5638
  392MOL0     C53970   5.176   1.925   8.024 -1.0485  0.6295 -0.3731
  392MOL0     C53971   5.299   1.988   8.090  0.6576 -0.0550  0.3473
  392MOL0     C53972   5.378   1.890   8.175  0.8731  0.8974 -1.2423
  392MOL0     C53973   5.467   1.970   8.257  0.3452 -0.6364  0.7185
  392MOL0     C53974   5.568   1.890   8.333  0.1518  0.0988 -0.2811
  392MOL0     N53975   5.530   1.817   8.458 -0.2671 -0.8056  0.6322
  392MOL0     C53976   5.536   1.868   8.583 -0.3347  0.1807 -0.9441
  392MOL0     C53977   5.527   1.756   8.663  0.1076 -0.4648 -0.9352
  392MOL0     C53978   5.512   1.752   8.810 -0.2698  0.1650  0.7275
  392MOL0     C53979   5.398   1.664   8.857 -0.3615  0.0232  0.4493
  392MOL0     C53980   5.389   1.682   9.010 -0.0336  0.1466  0.3103
  392MOL0     C53981   5.498   1.617   9.085 -0.0923 -0.6716 -0.4993
  392MOL0     O53982   5.511   1.475   9.070  0.4677 -0.5396  0.3060
  392MOL0     C53983   5.601   1.421   9.149  0.4801 -0.7391 -0.4392
  392MOL0     C53984   5.571   1.396   9.284  0.1976 -0.3328  1.3618
  392MOL0     C53985   5.672   1.358   9.371 -0.1903 -0.0986 -1.1748
  392MOL0     C53986   5.618   1.318   9.512 -0.0398  0.2217  0.2751
  392MOL0     C53987   5.813   1.352   9.325  0.3775 -1.1927  0.0998
  392MOL0     C53988   5.926   1.306   9.398 -0.6777  0.1472  1.2654
  392MOL0     O53989   6.040   1.274   9.332  0.0818  1.0861 -0.2221
  392MOL0     C53990   6.150   1.225   9.402  0.5180  0.1510 -0.0048
  392MOL0     C53991   6.150   1.096   9.446 -0.2722  0.0883 -0.1400
  392MOL0     C53992   6.245   1.041   9.537  0.5560  0.3977  0.3303
  392MOL0     C53993   6.341   1.123   9.587 -1.0030  1.6102 -0.2000
  392MOL0     O53994   6.435   1.072   9.670  0.3329  0.3278 -0.2263
  392MOL0     C53995   6.524   1.158   9.743 -0.5719  0.3748 -0.6244
  392MOL0     C53996   6.590   1.066   9.847  0.3332  0.0859 -0.6818
  392MOL0     C53997   6.669   0.956   9.777  0.3785  0.0450 -0.0807
  392MOL0     C53998   6.770   0.867   9.862 -0.2558 -0.2422  0.1762
  392MOL0     C53999   6.828   0.752   9.783 -0.6216  0.4695 -0.0117
  392MOL0     C54000   6.907   0.798   9.658 -0.7038 -0.1252  0.3522
  392MOL0     C54001   6.994   0.675   9.614 -0.0699 -0.5276  0.3873
  392MOL0     C54002   6.921   0.573   9.528 -0.2479  0.0749  0.5022
  392MOL0    Cl54003   7.033   0.513   9.397 -0.0677  0.2265  0.0593
  392MOL0     C54004   6.349   1.259   9.537  0.7355  1.0282 -0.2704
  392MOL0     C54005   6.253   1.313   9.448  0.1808  0.1347 -0.2428
  392MOL0     O54006   5.911   1.308   9.519  0.1092 -0.2298 -0.7902
  392MOL0     C54007   5.842   1.388   9.187 -0.2432  1.8886 -0.0004
  392MOL0     C54008   5.739   1.420   9.099 -0.1491 -0.0671 -0.1377
  392MOL0     N54009   5.526   1.641   8.592  0.0088  0.4659  0.1639
  392MOL0     N54010   5.522   1.679   8.468 -0.2023 -0.3019 -0.4949
  392MOL0     C54011   4.495   1.729   8.162 -0.6562 -0.5275 -0.0252
  392MOL0     C54012   4.386   1.670   8.220 -0.0030 -0.4125 -0.4163
  392MOL0     C54013   4.121   1.398   8.428  0.8729 -0.3560 -0.2432
  392MOL0     C54014   4.155   1.370   8.563  0.2983  0.0713  0.0899
  392MOL0     C54015   4.056   1.323   8.658  0.2033 -0.5508  0.6887
  392MOL0     C54016   3.922   1.318   8.633  0.2065  0.1461 -0.9284
  392MOL0     O54017   3.833   1.288   8.734 -0.0720  0.2031 -0.4801
  392MOL0     C54018   3.705   1.226   8.713 -0.2516  0.4294  0.4642
  392MOL0     C54019   3.716   1.073   8.703 -0.4744  0.4371  0.2910
  392MOL0     C54020   3.802   1.030   8.579  0.8308  0.6167  0.0618
  392MOL0     C54021   3.801   0.877   8.556  0.4085 -0.3487 -1.0963
  392MOL0     C54022   3.662   0.835   8.515  0.3311 -0.2030 -0.7881
  392MOL0     C54023   3.566   0.791   8.454 -0.6161 -0.5686 -0.3910
  392MOL0     C54024   3.892   1.339   8.491  0.1769  0.0371 -0.5402
  392MOL0     C54025   3.982   1.376   8.395 -0.3275 -0.8160 -0.4893
  392MOL0     C54026   3.936   1.384   8.247 -0.2892 -0.8281 -0.1315
  392MOL0     H54027   4.546   1.525   8.487  1.7733  0.4354  0.1066
  392MOL0     H54028   4.741   1.635   8.373  0.0118  0.6778 -1.4071
  392MOL0     H54029   4.887   1.652   8.160  0.4848 -0.8130  3.1659
  392MOL0     H54030   4.874   1.766   8.284 -0.2984 -2.0538  0.5632
  392MOL0     H54031   4.944   1.800   7.984  1.1321 -0.0620  0.6552
  392MOL0     H54032   4.899   1.948   8.074  1.8175  1.3311  0.4056
  392MOL0     H54033   5.070   1.912   8.223  1.7146 -2.5502  2.4387
  392MOL0     H54034   5.116   1.753   8.145 -1.0226 -0.5360 -0.6567
  392MOL0     H54035   5.222   1.849   7.960  1.9735  1.3367  0.7832
  392MOL0     H54036   5.124   2.003   7.968 -0.1497  2.1967  0.8654
  392MOL0     H54037   5.269   2.080   8.141  2.6441  0.9767 -0.2219
  392MOL0     H54038   5.371   2.022   8.015  1.6305 -1.1245  0.7678
  392MOL0     H54039   5.317   1.834   8.246 -0.9444 -2.2645 -4.9361
  392MOL0     H54040   5.430   1.813   8.117 -1.6400 -1.8973 -0.0635
  392MOL0     H54041   5.415   2.042   8.321 -1.5164 -0.1337 -1.2476
  392MOL0     H54042   5.537   2.023   8.192  1.0055 -2.3616 -0.0233
  392MOL0     H54043   5.607   1.813   8.266 -1.5120 -2.2092  1.2560
  392MOL0     H54044   5.661   1.948   8.347 -0.6307  1.0862  1.1348
  392MOL0     H54045   5.561   1.970   8.608 -1.1841 -0.1395  1.3990
  392MOL0     H54046   5.505   1.851   8.857 -3.3866  0.0979  0.6031
  392MOL0     H54047   5.607   1.712   8.846 -1.1271 -0.7334  2.0760
  392MOL0     H54048   5.304   1.692   8.809  0.0479 -2.4376 -2.0995
  392MOL0     H54049   5.413   1.559   8.829  2.0462  0.6417 -0.8292
  392MOL0     H54050   5.381   1.787   9.042  2.3146 -0.1781  2.1667
  392MOL0     H54051   5.296   1.633   9.039 -1.4524  2.8614  0.6851
  392MOL0     H54052   5.596   1.665   9.078  0.9696 -2.4300  1.2611
  392MOL0     H54053   5.477   1.636   9.191  1.5116  0.6574 -0.3772
  392MOL0     H54054   5.465   1.407   9.305 -0.7253 -0.1901 -2.6065
  392MOL0     H54055   5.682   1.341   9.598  0.5670 -0.4465  0.0099
  392MOL0     H54056   5.614   1.209   9.504 -4.1917  0.3181 -1.5616
  392MOL0     H54057   5.518   1.353   9.536 -0.9152 -1.8780 -0.1100
  392MOL0     H54058   6.063   1.035   9.422  0.4908 -2.6672  3.1871
  392MOL0     H54059   6.244   0.936   9.561 -0.5978  0.5106  0.8492
  392MOL0     H54060   6.605   1.199   9.682  1.1150  0.0474  1.2654
  392MOL0     H54061   6.470   1.238   9.794 -2.3940  1.3864 -3.8760
  392MOL0     H54062   6.650   1.135   9.907  0.1628 -0.5438  0.2302
  392MOL0     H54063   6.512   1.020   9.909  2.2997 -1.5346  0.6864
  392MOL0     H54064   6.719   1.008   9.695  0.3057  3.2856  1.7604
  392MOL0     H54065   6.595   0.888   9.733  0.4893 -0.0989 -0.0424
  392MOL0     H54066   6.725   0.825   9.952 -0.0818  0.6550  0.6875
  392MOL0     H54067   6.844   0.943   9.888 -0.8351  0.4123 -0.0554
  392MOL0     H54068   6.884   0.690   9.854 -3.2364 -0.7222  1.1441
  392MOL0     H54069   6.751   0.683   9.747  2.0793 -2.2659 -0.9278
  392MOL0     H54070   6.971   0.883   9.680 -0.4706 -0.1775 -0.1154
  392MOL0     H54071   6.846   0.833   9.574 -0.1100  1.1834  0.4548
  392MOL0     H54072   7.038   0.625   9.700  0.1918 -1.6487 -0.3741
  392MOL0     H54073   7.082   0.708   9.558  1.1351  2.1591  3.5293
  392MOL0     H54074   6.833   0.626   9.488 -1.1996  2.0918  4.7417
  392MOL0     H54075   6.888   0.489   9.590 -0.8683  0.1740  0.3223
  392MOL0     H54076   6.430   1.321   9.575  1.9985 -0.3265 -0.6677
  392MOL0     H54077   6.249   1.419   9.429 -0.4577  0.7131  2.6026
  392MOL0     H54078   5.942   1.384   9.145  1.3482  2.7904  3.4184
  392MOL0     H54079   5.766   1.458   9.001  1.3281 -0.4826  0.0862
  392MOL0     H54080   4.475   1.800   8.083  0.4285  0.4765  0.5773
  392MOL0     H54081   4.285   1.677   8.181 -1.1675  1.8214  2.6338
  392MOL0     H54082   4.255   1.383   8.602 -0.7966  3.1804  2.2656
  392MOL0     H54083   4.080   1.290   8.758 -0.0984  0.6221  1.1629
  392MOL0     H54084   3.648   1.258   8.801  1.2110  1.4644  1.0711
  392MOL0     H54085   3.662   1.263   8.620  1.7157  0.1278 -0.6174
  392MOL0     H54086   3.618   1.026   8.690 -1.4143  2.5279 -0.6804
  392MOL0     H54087   3.761   1.036   8.795 -0.2781 -0.8571 -0.3157
  392MOL0     H54088   3.768   1.083   8.490 -1.2300  0.4023  0.6577
  392MOL0     H54089   3.907   1.057   8.598  1.3097 -1.8526  1.3013
  392MOL0     H54090   3.831   0.834   8.652 -1.1324 -1.5328 -1.0939
  392MOL0     H54091   3.874   0.849   8.480  0.8548 -1.0274 -0.4414
  392MOL0     H54092   3.476   0.763   8.403 -1.3556  0.7008  0.1594
  392MOL0     H54093   3.790   1.338   8.452  0.1229 -0.1105 -0.3972
  392MOL0     H54094   3.991   1.468   8.205 -2.7577  0.8976 -0.1485
  392MOL0     H54095   3.974   1.292   8.202  1.3235 -0.9927  1.4495
  392MOL0     H54096   3.828   1.382   8.231 -0.2793 -0.0310 -0.3424
  393MOL0     O54097  11.172   6.231   2.433 -0.4113 -0.3826  0.3993
  393MOL0     C54098  11.225   6.128   2.484 -0.3215  0.2322  1.2787
  393MOL0     O54099  11.359   6.089   2.479  0.2110 -0.3595 -0.4414
  393MOL0     C54100  11.455   6.187   2.454  0.5291  0.0003  0.3182
  393MOL0     C54101  11.568   6.153   2.381  0.8096  0.4343  0.2473
  393MOL0     C54102  11.658   6.249   2.344 -0.3137 -0.0062  0.5240
  393MOL0     C54103  11.646   6.384   2.387  0.4698 -0.0288 -0.1829
  393MOL0     O54104  11.715   6.494   2.339 -0.4410  0.3134 -0.2107
  393MOL0     C54105  11.821   6.459   2.243  0.0774 -0.5183  0.1041
  393MOL0     C54106  11.874   6.588   2.170  0.5728  0.2724  0.1704
  393MOL0     C54107  11.947   6.547   2.048 -0.3237 -0.6941 -0.4515
  393MOL0     C54108  12.000   6.666   1.970  0.4021 -0.1357 -1.1439
  393MOL0     C54109  12.052   6.618   1.841  0.7059 -0.6625  0.4838
  393MOL0     C54110  12.072   6.720   1.739  0.5417 -0.0670 -0.5562
  393MOL0     C54111  12.201   6.804   1.768 -0.0428 -0.8958 -0.2823
  393MOL0     C54112  12.248   6.900   1.659  0.7220  0.6800  0.2198
  393MOL0     N54113  12.301   6.828   1.547 -0.0231 -0.2957 -0.0272
  393MOL0     C54114  12.437   6.811   1.528 -0.1282  0.3012 -0.5459
  393MOL0     C54115  12.436   6.740   1.408  0.5438 -0.3745  0.7272
  393MOL0     C54116  12.556   6.710   1.318 -0.5879  0.0304 -0.3626
  393MOL0     C54117  12.579   6.831   1.228  0.0857  0.0318 -0.6151
  393MOL0     C54118  12.459   6.855   1.131 -0.2226 -0.4508  0.3534
  393MOL0     C54119  12.465   6.984   1.044  0.3759  0.5956 -0.1504
  393MOL0     O54120  12.334   7.033   1.023 -0.4084  0.3854 -0.3701
  393MOL0     C54121  12.238   6.965   0.953  0.5064 -0.1467 -0.1358
  393MOL0     C54122  12.268   6.856   0.872 -0.7770  0.4593 -0.0227
  393MOL0     C54123  12.164   6.789   0.803  0.0702 -0.1510 -0.0463
  393MOL0     C54124  12.223   6.675   0.714  0.3498 -0.4092  0.0202
  393MOL0     C54125  12.028   6.824   0.812  0.4823 -0.2136 -0.8063
  393MOL0     C54126  11.919   6.742   0.757 -0.0368  0.4727 -0.8266
  393MOL0     O54127  11.945   6.633   0.676 -0.4574  0.6537 -0.0051
  393MOL0     C54128  11.851   6.577   0.595 -0.1686 -0.8623 -0.4995
  393MOL0     C54129  11.889   6.553   0.465  0.5486  0.7603  0.4734
  393MOL0     C54130  11.802   6.493   0.380  0.5750  0.9340  0.4364
  393MOL0     C54131  11.678   6.444   0.413 -0.2203  0.6372 -0.2860
  393MOL0     O54132  11.605   6.354   0.328 -0.2134  0.1638  0.7210
  393MOL0     C54133  11.472   6.316   0.356  0.3136  0.3126  0.4569
  393MOL0     C54134  11.379   6.436   0.342  0.3191  0.1128  0.3132
  393MOL0     C54135  11.229   6.402   0.327  0.3854  0.4376  0.2471
  393MOL0     C54136  11.133   6.514   0.361 -0.0081 -0.5928  0.7411
  393MOL0     C54137  10.999   6.440   0.365 -0.4039 -0.0006 -0.6727
  393MOL0     C54138  10.883   6.538   0.355 -0.5091  0.2260 -0.5012
  393MOL0     C54139  10.873   6.608   0.218  0.1331  0.5205 -0.2411
  393MOL0     C54140  10.766   6.718   0.225 -0.4152  0.2021 -0.4532
  393MOL0    Cl54141  10.810   6.852   0.121 -0.1378 -0.0451  0.2896
  393MOL0     C54142  11.640   6.472   0.546  0.5170  0.4302  0.3113
  393MOL0     C54143  11.726   6.533   0.643  0.4149  0.5965 -0.1673
  393MOL0     O54144  11.808   6.777   0.796 -0.3680 -0.7899 -0.1517
  393MOL0     C54145  12.000   6.930   0.905 -0.3773 -0.6411  0.0494
  393MOL0     C54146  12.103   6.999   0.970 -1.0598 -0.2434 -0.9020
  393MOL0     N54147  12.308   6.708   1.370  0.3492  0.3791  0.3153
  393MOL0     N54148  12.235   6.758   1.457 -0.2657 -0.7061 -0.1048
  393MOL0     C54149  11.546   6.415   2.470  0.8013 -0.7081 -0.1097
  393MOL0     C54150  11.444   6.318   2.504 -0.3856  0.0927 -0.1717
  393MOL0     C54151  11.137   6.011   2.501  0.4548 -0.0451  0.1284
  393MOL0     C54152  11.165   5.890   2.430  0.0816  0.5223 -0.2077
  393MOL0     C54153  11.079   5.787   2.434  0.3443  0.1515 -0.1073
  393MOL0     C54154  10.958   5.795   2.497  0.0322 -0.5398  0.5544
  393MOL0     O54155  10.900   5.674   2.502 -0.6996  0.2048 -0.3090
  393MOL0     C54156  10.756   5.673   2.459 -0.2005  0.0234 -0.8130
  393MOL0     C54157  10.689   5.539   2.485 -0.0670  0.9371  0.1519
  393MOL0     C54158  10.546   5.532   2.429  0.6174 -0.0656 -0.3335
  393MOL0     C54159  10.466   5.406   2.463 -0.5323  0.1653 -0.1058
  393MOL0     C54160  10.413   5.416   2.598  0.0987 -0.1172  0.3465
  393MOL0     C54161  10.366   5.419   2.706 -0.0271  0.2524  0.9234
  393MOL0     C54162  10.913   5.904   2.570 -0.5764 -0.2830  0.1032
  393MOL0     C54163  11.003   6.015   2.572  0.1235  0.5912 -0.5552
  393MOL0     C54164  10.965   6.145   2.648 -0.2487  0.0551  0.3793
  393MOL0     H54165  11.581   6.052   2.346 -0.0230 -0.5514  2.5772
  393MOL0     H54166  11.742   6.217   2.282 -0.6473  1.2407 -0.6303
  393MOL0     H54167  11.770   6.404   2.164 -2.0959  0.5323  0.6858
  393MOL0     H54168  11.907   6.406   2.286 -0.5917 -0.4821  1.5421
  393MOL0     H54169  11.785   6.649   2.152 -0.2787 -0.9216  0.2232
  393MOL0     H54170  11.933   6.646   2.242 -0.3743 -0.3827  1.5207
  393MOL0     H54171  12.033   6.484   2.074 -0.7077 -0.2010  2.4397
  393MOL0     H54172  11.875   6.491   1.988 -0.5456  0.6972 -1.5277
  393MOL0     H54173  11.914   6.732   1.953  0.3607  0.6249  1.4845
  393MOL0     H54174  12.072   6.720   2.032 -1.4894  2.3185 -0.8996
  393MOL0     H54175  11.978   6.550   1.797 -1.8812  2.0304  0.3333
  393MOL0     H54176  12.149   6.569   1.853  1.4080 -0.1267 -2.2211
  393MOL0     H54177  12.096   6.663   1.649  3.1619 -2.2926  1.4029
  393MOL0     H54178  11.985   6.783   1.718 -1.0946 -2.9875 -3.6260
  393MOL0     H54179  12.281   6.740   1.806  0.5345 -0.2352 -0.3640
  393MOL0     H54180  12.185   6.857   1.862  0.6275  2.6132 -1.9622
  393MOL0     H54181  12.162   6.963   1.633 -1.1660 -1.6848  0.3775
  393MOL0     H54182  12.334   6.952   1.701 -0.7290  1.8483  1.9405
  393MOL0     H54183  12.518   6.839   1.595 -0.3936 -1.5512  0.5895
  393MOL0     H54184  12.542   6.621   1.256  1.6009 -1.3616  0.9998
  393MOL0     H54185  12.641   6.695   1.385 -0.4374  1.7981 -0.1100
  393MOL0     H54186  12.576   6.918   1.294 -0.0975  0.8185 -1.6374
  393MOL0     H54187  12.672   6.822   1.171  2.1161 -3.6731  2.7530
  393MOL0     H54188  12.447   6.766   1.068  1.4247  1.7365 -3.4294
  393MOL0     H54189  12.367   6.863   1.188 -1.1733 -0.1435 -1.1617
  393MOL0     H54190  12.519   7.064   1.096  2.4762 -0.8664  0.0885
  393MOL0     H54191  12.513   6.960   0.948  3.9108 -2.7687  2.1573
  393MOL0     H54192  12.367   6.817   0.848 -1.0557  1.3927 -3.2715
  393MOL0     H54193  12.331   6.663   0.731  0.2436 -0.0432  1.0707
  393MOL0     H54194  12.209   6.693   0.607 -1.8993 -0.2961  0.2949
  393MOL0     H54195  12.180   6.580   0.748  0.7101  0.2960  2.7180
  393MOL0     H54196  11.990   6.581   0.438  0.7844  0.2589  0.7995
  393MOL0     H54197  11.828   6.486   0.275  1.2215  0.2250  0.6373
  393MOL0     H54198  11.445   6.253   0.271  1.2566 -0.9293  1.0517
  393MOL0     H54199  11.469   6.263   0.451 -2.0746  0.5394  0.5554
  393MOL0     H54200  11.381   6.501   0.430 -1.4503 -0.0771  0.5269
  393MOL0     H54201  11.401   6.480   0.244  0.8316 -1.5209 -0.3241
  393MOL0     H54202  11.210   6.309   0.380  0.0788 -0.2981 -1.1005
  393MOL0     H54203  11.210   6.369   0.224  4.7335  0.9408 -0.9247
  393MOL0     H54204  11.131   6.587   0.280 -1.0935 -2.2934 -0.8672
  393MOL0     H54205  11.168   6.567   0.450 -0.6966  0.5051  0.3782
  393MOL0     H54206  10.989   6.368   0.282  3.0832 -1.3287 -0.0942
  393MOL0     H54207  10.997   6.393   0.464  1.0263  0.4863 -0.3892
  393MOL0     H54208  10.881   6.621   0.426 -0.1445  0.5596 -0.8794
  393MOL0     H54209  10.796   6.474   0.374  0.8625 -1.7450 -0.6328
  393MOL0     H54210  10.871   6.536   0.136 -0.4076  0.6770 -0.3723
  393MOL0     H54211  10.967   6.660   0.202 -1.2256  2.9693 -0.7963
  393MOL0     H54212  10.736   6.751   0.325 -3.0941 -0.6516 -0.8902
  393MOL0     H54213  10.668   6.681   0.194 -0.1018 -1.2821  0.2140
  393MOL0     H54214  11.541   6.442   0.580  1.1366 -1.7033  0.3792
  393MOL0     H54215  11.696   6.546   0.747  0.4219  0.9655 -0.2077
  393MOL0     H54216  11.897   6.957   0.922 -1.2681 -1.9508 -2.6276
  393MOL0     H54217  12.083   7.074   1.045 -0.3471 -1.3984  0.5156
  393MOL0     H54218  11.543   6.514   2.513  0.2049 -0.1917 -1.2921
  393MOL0     H54219  11.364   6.338   2.574 -0.7433 -4.2302  0.9369
  393MOL0     H54220  11.258   5.884   2.374 -0.2123  1.4596 -0.8298
  393MOL0     H54221  11.109   5.694   2.389  1.0082 -0.6459  1.8826
  393MOL0     H54222  10.714   5.757   2.516  4.1472  1.7033  0.2885
  393MOL0     H54223  10.744   5.692   2.352  0.1172  0.9589 -0.6959
  393MOL0     H54224  10.683   5.538   2.594 -0.6238 -1.5878  0.1636
  393MOL0     H54225  10.742   5.451   2.448  0.7126  1.6540 -0.4701
  393MOL0     H54226  10.485   5.621   2.450 -2.3506 -1.9452 -0.4520
  393MOL0     H54227  10.556   5.527   2.320 -1.6327 -2.5094 -0.5166
  393MOL0     H54228  10.517   5.311   2.449 -2.0227 -0.9566  1.5901
  393MOL0     H54229  10.381   5.413   2.394  0.1815 -0.4430 -1.0538
  393MOL0     H54230  10.323   5.418   2.805  0.7344  0.2652  1.2620
  393MOL0     H54231  10.828   5.902   2.638 -0.5589 -2.8846  0.1496
  393MOL0     H54232  10.882   6.189   2.593  0.4932  1.0363  0.0095
  393MOL0     H54233  10.945   6.124   2.753 -2.7061  1.5402  0.2685
  393MOL0     H54234  11.041   6.224   2.642 -0.8255  0.5326 -4.0542
  394MOL0     O54235   8.839   9.546   5.048  0.0527  0.2896 -0.3245
  394MOL0     C54236   8.792   9.437   5.068  0.5333 -0.2870  0.7729
  394MOL0     O54237   8.665   9.405   5.027 -0.5106  0.0298 -0.1847
  394MOL0     C54238   8.626   9.469   4.913  0.2887  0.3485 -0.4346
  394MOL0     C54239   8.639   9.397   4.793  0.6487 -0.3201 -0.3250
  394MOL0     C54240   8.598   9.464   4.679 -0.1742 -0.4486  0.1244
  394MOL0     C54241   8.545   9.602   4.681 -0.3603  0.3284  0.1321
  394MOL0     O54242   8.525   9.669   4.565  0.4159 -0.1214  0.0730
  394MOL0     C54243   8.382   9.682   4.536 -0.1011 -1.1071  0.0662
  394MOL0     C54244   8.392   9.788   4.432 -0.2947 -0.0401  0.7242
  394MOL0     C54245   8.413   9.935   4.479  0.1299 -1.0174  0.0826
  394MOL0     C54246   8.344  10.034   4.390 -0.3612  0.4281  1.2872
  394MOL0     C54247   8.321  10.169   4.457 -0.0633 -0.0616 -0.3440
  394MOL0     C54248   8.450  10.250   4.441 -0.2329 -0.3018 -0.1380
  394MOL0     C54249   8.444  10.388   4.504 -0.6389 -0.7228 -0.2326
  394MOL0     C54250   8.558  10.479   4.449 -0.2093 -0.3361  0.3216
  394MOL0     N54251   8.553  10.606   4.520  0.2661  0.7649  0.6680
  394MOL0     C54252   8.517  10.626   4.649 -1.6656 -0.6083 -1.1654
  394MOL0     C54253   8.506  10.759   4.664  0.8375  0.1872  0.1467
  394MOL0     C54254   8.474  10.830   4.788  0.7215  0.6471 -0.0577
  394MOL0     C54255   8.586  10.937   4.832  0.5319 -1.1371  0.1326
  394MOL0     C54256   8.583  10.977   4.991 -0.9944 -0.5848 -0.4868
  394MOL0     C54257   8.710  11.070   5.011 -0.5317 -0.6243 -0.2956
  394MOL0     O54258   8.723  11.111   5.147 -0.4751  0.0545 -0.1448
  394MOL0     C54259   8.740  11.030   5.255 -0.2651  0.4034  0.3829
  394MOL0     C54260   8.816  10.916   5.247  0.3181  0.3883  0.3589
  394MOL0     C54261   8.835  10.828   5.355 -0.2138 -0.2846  0.4805
  394MOL0     C54262   8.937  10.712   5.342 -0.1054 -0.3787  0.3734
  394MOL0     C54263   8.757  10.852   5.473  0.0318 -0.8926 -0.9004
  394MOL0     C54264   8.762  10.768   5.595  0.4929 -0.2601 -0.0586
  394MOL0     O54265   8.835  10.652   5.598  0.2410 -0.2390 -0.5933
  394MOL0     C54266   8.822  10.560   5.701 -0.3067 -1.4001 -0.3098
  394MOL0     C54267   8.701  10.524   5.755 -0.2996 -0.1105 -0.3147
  394MOL0     C54268   8.699  10.433   5.867  0.3468 -1.3473 -0.4017
  394MOL0     C54269   8.808  10.387   5.929  0.1589 -0.3477 -0.2265
  394MOL0     O54270   8.800  10.297   6.034 -0.8645  0.4469  0.2207
  394MOL0     C54271   8.750  10.359   6.157 -0.6391 -0.0449  0.0757
  394MOL0     C54272   8.866  10.429   6.227  0.3150 -0.9500 -0.1132
  394MOL0     C54273   8.835  10.448   6.382 -0.3857 -0.0276 -0.8109
  394MOL0     C54274   8.968  10.486   6.443 -0.7174  1.2759 -0.5771
  394MOL0     C54275   8.941  10.526   6.593  0.2009  0.2101  0.6802
  394MOL0     C54276   9.060  10.510   6.679 -0.4537  0.5619  0.6422
  394MOL0     C54277   9.169  10.610   6.646  0.5299 -0.6141  0.3148
  394MOL0     C54278   9.269  10.637   6.763  0.8571 -0.2166  0.0792
  394MOL0    Cl54279   9.358  10.787   6.717  0.4518  0.1707  0.4892
  394MOL0     C54280   8.926  10.418   5.860  0.7631  0.2135  0.5626
  394MOL0     C54281   8.940  10.502   5.750 -0.3153  0.8375  0.6918
  394MOL0     O54282   8.689  10.811   5.688 -0.0255 -0.3406 -0.3972
  394MOL0     C54283   8.672  10.958   5.480 -0.2257 -0.5978  0.9836
  394MOL0     C54284   8.674  11.050   5.371 -0.1263 -0.2856  0.0398
  394MOL0     N54285   8.525  10.815   4.533 -0.6466  0.2544 -0.6474
  394MOL0     N54286   8.557  10.723   4.455  0.0899 -0.9166  0.3892
  394MOL0     C54287   8.535   9.670   4.804 -0.6935 -0.3233 -0.2322
  394MOL0     C54288   8.578   9.603   4.920 -0.4750 -0.0918 -0.7391
  394MOL0     C54289   8.858   9.332   5.150  0.0999  0.4820  0.7475
  394MOL0     C54290   8.768   9.247   5.222 -0.6078  0.1298  0.6600
  394MOL0     C54291   8.827   9.144   5.302  0.6441  0.6171  1.0347
  394MOL0     C54292   8.959   9.125   5.303 -0.0172 -0.3207  0.5630
  394MOL0     O54293   8.984   9.018   5.384 -0.8821 -0.0551 -0.6867
  394MOL0     C54294   9.120   8.990   5.420  0.6062  0.7750 -0.2737
  394MOL0     C54295   9.112   8.867   5.516  0.3955 -0.6915 -0.3144
  394MOL0     C54296   9.100   8.726   5.457 -1.0295  0.0635 -0.9204
  394MOL0     C54297   9.110   8.609   5.560  0.1847  0.0195  1.1549
  394MOL0     C54298   9.139   8.471   5.506 -0.2795 -0.2102 -0.7977
  394MOL0     C54299   9.146   8.358   5.466  0.5713 -0.6117 -0.2164
  394MOL0     C54300   9.043   9.197   5.229  0.7324  0.0613 -0.7445
  394MOL0     C54301   8.998   9.310   5.155  0.6154 -0.8388  1.1887
  394MOL0     C54302   9.095   9.382   5.062  0.3997 -1.1206 -0.0703
  394MOL0     H54303   8.664   9.292   4.785  3.6766  0.1321  1.5876
  394MOL0     H54304   8.587   9.415   4.583 -3.3698 -0.8017  0.5604
  394MOL0     H54305   8.316   9.712   4.618  0.0707  1.0236 -0.5370
  394MOL0     H54306   8.343   9.588   4.496  1.9709 -2.2499  0.5393
  394MOL0     H54307   8.477   9.755   4.371  0.0894 -4.6514  3.2967
  394MOL0     H54308   8.310   9.778   4.361  0.8094 -1.1750 -0.4651
  394MOL0     H54309   8.364   9.951   4.575 -0.2508  0.2389 -0.2996
  394MOL0     H54310   8.517   9.959   4.499 -0.8190  1.8492  2.2235
  394MOL0     H54311   8.393  10.041   4.293 -0.5996  3.8120  1.2934
  394MOL0     H54312   8.245   9.997   4.366 -0.1311  0.8936 -0.5166
  394MOL0     H54313   8.286  10.142   4.557 -0.7109 -3.0329 -1.2796
  394MOL0     H54314   8.250  10.228   4.398  1.1702  2.2696  0.3668
  394MOL0     H54315   8.535  10.196   4.485  0.4671  2.6457  2.5459
  394MOL0     H54316   8.473  10.263   4.335 -0.1824  0.1217 -0.0750
  394MOL0     H54317   8.447  10.381   4.613  1.5130 -1.3266 -0.2780
  394MOL0     H54318   8.348  10.426   4.467 -0.7665 -2.9281 -2.4786
  394MOL0     H54319   8.659  10.438   4.460  1.1949  2.8165  0.2453
  394MOL0     H54320   8.546  10.498   4.342 -0.4872 -1.7808  0.0717
  394MOL0     H54321   8.522  10.558   4.734  2.3912  3.4586  2.3967
  394MOL0     H54322   8.459  10.759   4.870  2.0940  3.3526  2.7733
  394MOL0     H54323   8.381  10.886   4.786  0.3669  0.0734  0.2192
  394MOL0     H54324   8.683  10.892   4.808 -0.2696 -1.6973 -2.2709
  394MOL0     H54325   8.570  11.030   4.777 -2.2098 -1.6586 -0.0944
  394MOL0     H54326   8.495  11.033   5.023  0.9523  0.8403  2.7681
  394MOL0     H54327   8.582  10.893   5.061  0.1641 -0.5842 -0.4590
  394MOL0     H54328   8.799  11.015   4.977  0.8387 -0.4171  2.6266
  394MOL0     H54329   8.703  11.160   4.950 -0.1857 -0.9082 -0.7605
  394MOL0     H54330   8.867  10.905   5.152 -1.3616 -0.0812 -0.5424
  394MOL0     H54331   8.993  10.724   5.248  2.5741  0.8400  2.0165
  394MOL0     H54332   8.892  10.612   5.337  1.2272 -1.0430  1.2688
  394MOL0     H54333   9.004  10.713   5.428 -0.2248  1.0553  0.4755
  394MOL0     H54334   8.608  10.569   5.722 -0.8605 -2.1078 -1.6125
  394MOL0     H54335   8.606  10.400   5.910  0.7907 -1.3736  0.5597
  394MOL0     H54336   8.666  10.427   6.141  1.5946  3.1040  0.6623
  394MOL0     H54337   8.725  10.281   6.229  2.1952 -0.7812  0.4138
  394MOL0     H54338   8.960  10.374   6.213  1.7494  1.9836 -3.4924
  394MOL0     H54339   8.883  10.519   6.168 -1.1339 -1.4272 -1.3432
  394MOL0     H54340   8.796  10.358   6.430  2.1906  0.0858  1.7644
  394MOL0     H54341   8.769  10.534   6.398 -0.7689 -0.2149 -1.3464
  394MOL0     H54342   9.017  10.563   6.383 -2.3728  2.1985 -0.8078
  394MOL0     H54343   9.035  10.400   6.450 -2.0661  0.2498  0.3772
  394MOL0     H54344   8.913  10.632   6.586  1.7000  0.5488 -4.2195
  394MOL0     H54345   8.865  10.459   6.636  0.6991  0.9279  2.7859
  394MOL0     H54346   9.099  10.413   6.649  0.4459  1.2474 -0.5130
  394MOL0     H54347   9.041  10.512   6.787 -0.5495  0.8516  0.6215
  394MOL0     H54348   9.121  10.706   6.625  0.6803  0.7166  4.9285
  394MOL0     H54349   9.229  10.580   6.560 -0.3739 -0.9695 -0.1975
  394MOL0     H54350   9.336  10.551   6.772  0.6019 -0.3189  1.1790
  394MOL0     H54351   9.195  10.643   6.844  0.3164 -2.1383 -0.2131
  394MOL0     H54352   9.010  10.356   5.888  2.1242  2.5338  2.0267
  394MOL0     H54353   9.042  10.517   5.716 -0.0890 -0.0205  0.9565
  394MOL0     H54354   8.614  10.994   5.564 -0.8622  0.6456  0.0481
  394MOL0     H54355   8.616  11.142   5.379  0.0611 -0.1606 -0.0530
  394MOL0     H54356   8.504   9.774   4.811  3.0596  0.8597  0.9961
  394MOL0     H54357   8.587   9.654   5.015  0.8419 -1.1293 -0.2570
  394MOL0     H54358   8.661   9.263   5.222 -0.7582 -0.7802  0.8531
  394MOL0     H54359   8.762   9.092   5.371  0.5989 -0.3572  0.2848
  394MOL0     H54360   9.168   8.963   5.326  0.4290  0.8039 -0.3729
  394MOL0     H54361   9.165   9.081   5.460 -0.5173  0.7866  1.0281
  394MOL0     H54362   9.025   8.889   5.579  1.4185 -1.1953  1.3323
  394MOL0     H54363   9.203   8.866   5.576 -0.6288 -0.2400  1.3241
  394MOL0     H54364   8.999   8.716   5.415 -1.6506  1.8346  0.0377
  394MOL0     H54365   9.165   8.710   5.370 -0.5091 -2.4999 -0.1219
  394MOL0     H54366   9.015   8.605   5.614  0.5558 -2.7124  1.7471
  394MOL0     H54367   9.189   8.632   5.632  0.5788  2.9587 -0.0942
  394MOL0     H54368   9.149   8.260   5.423  1.5813 -0.4622 -0.5141
  394MOL0     H54369   9.150   9.179   5.234  1.2551  2.4022 -1.9440
  394MOL0     H54370   9.135   9.468   5.115  1.0833 -0.0286 -2.2493
  394MOL0     H54371   9.176   9.320   5.022  2.3353  0.3401  1.3805
  394MOL0     H54372   9.049   9.432   4.976  2.2864  0.9346  0.0436
  395MOL0     O54373  10.222   3.468   9.378  0.3626 -0.3048  0.2276
  395MOL0     C54374  10.106   3.468   9.431  0.3630  0.1427 -0.1581
  395MOL0     O54375   9.991   3.448   9.368  0.4612 -0.0941 -0.1339
  395MOL0     C54376   9.965   3.427   9.234  0.0028 -0.5465 -0.1824
  395MOL0     C54377  10.051   3.461   9.127  0.6921  0.2783  0.1995
  395MOL0     C54378  10.014   3.435   8.992  0.0376  0.3665  0.2135
  395MOL0     C54379   9.903   3.361   8.962 -0.6109 -0.6163 -0.7258
  395MOL0     O54380   9.868   3.324   8.838 -0.3187  0.4673 -0.4514
  395MOL0     C54381   9.946   3.382   8.726 -0.0144  0.3688 -0.1238
  395MOL0     C54382   9.888   3.318   8.607 -0.6572  0.2712  0.6530
  395MOL0     C54383   9.743   3.368   8.577  0.0229  0.3505 -0.2016
  395MOL0     C54384   9.686   3.264   8.478 -0.1707 -0.2561 -0.4973
  395MOL0     C54385   9.562   3.314   8.404 -0.7063  1.2055 -0.8083
  395MOL0     C54386   9.484   3.196   8.337  0.4060  0.2064  0.0639
  395MOL0     C54387   9.555   3.128   8.218  0.4336 -0.2982  0.3273
  395MOL0     C54388   9.476   3.014   8.156 -0.8078 -0.2755  0.3706
  395MOL0     N54389   9.512   2.889   8.211  0.3146  1.0539  0.5478
  395MOL0     C54390   9.454   2.825   8.322  0.0217 -0.0107 -0.6150
  395MOL0     C54391   9.520   2.702   8.323 -0.2263 -0.6493  0.1927
  395MOL0     C54392   9.523   2.597   8.429  0.3003  0.5568 -0.0597
  395MOL0     C54393   9.660   2.560   8.489  0.0542  1.1032 -1.2356
  395MOL0     C54394   9.707   2.671   8.588 -0.7990  0.1258 -0.5326
  395MOL0     C54395   9.831   2.628   8.670 -0.3994  0.1017 -0.1826
  395MOL0     O54396   9.959   2.639   8.587 -0.1123  0.3094 -0.5273
  395MOL0     C54397  10.074   2.590   8.641 -0.0609  0.3714  0.4150
  395MOL0     C54398  10.190   2.615   8.569  0.3652  0.7165  0.3754
  395MOL0     C54399  10.312   2.559   8.602  0.1675 -1.0835 -0.1341
  395MOL0     C54400  10.405   2.591   8.494  0.6383  0.3986  0.4558
  395MOL0     C54401  10.333   2.495   8.725  0.0092 -0.6890  0.4884
  395MOL0     C54402  10.468   2.450   8.772 -0.2929 -0.9962  0.9763
  395MOL0     O54403  10.481   2.438   8.899  0.0138  0.5300 -0.9001
  395MOL0     C54404  10.596   2.403   8.971  0.6765 -1.4616  0.1401
  395MOL0     C54405  10.582   2.331   9.091 -0.5196 -1.3064  0.7826
  395MOL0     C54406  10.685   2.293   9.165 -0.7717 -0.4931 -0.2931
  395MOL0     C54407  10.817   2.335   9.131  0.1090  0.7320 -0.5292
  395MOL0     O54408  10.929   2.287   9.196  0.0880  0.3435  0.0528
  395MOL0     C54409  11.027   2.390   9.226  0.3269  0.2165 -0.0487
  395MOL0     C54410  11.133   2.340   9.324  0.1664  0.4474  0.3418
  395MOL0     C54411  11.096   2.333   9.473 -0.2676  0.4043 -0.6652
  395MOL0     C54412  10.961   2.261   9.511 -0.3384 -0.8554 -0.2094
  395MOL0     C54413  10.957   2.112   9.503  0.1861  0.6851 -0.7474
  395MOL0     C54414  11.063   2.034   9.586 -0.2804  0.0485 -0.0571
  395MOL0     C54415  11.035   1.887   9.591 -0.0905  0.7822  0.5226
  395MOL0     C54416  11.092   1.819   9.458  0.3862  0.8356  0.4278
  395MOL0    Cl54417  11.277   1.841   9.434 -0.0843  0.6195 -0.3662
  395MOL0     C54418  10.832   2.413   9.018  0.2192 -0.4354 -0.2222
  395MOL0     C54419  10.720   2.452   8.937 -0.4906 -0.4838 -0.4166
  395MOL0     O54420  10.548   2.412   8.686  0.0961  0.5286 -0.3677
  395MOL0     C54421  10.219   2.485   8.806 -0.4586  0.7225 -0.2381
  395MOL0     C54422  10.090   2.524   8.764 -0.4903  0.5745 -0.4252
  395MOL0     N54423   9.604   2.703   8.210 -0.0990 -0.3461 -0.6959
  395MOL0     N54424   9.605   2.819   8.153 -0.8717  0.6206 -0.0315
  395MOL0     C54425   9.817   3.324   9.064  1.2987  0.2939  0.5692
  395MOL0     C54426   9.844   3.358   9.201  0.0660 -0.6347  0.1176
  395MOL0     C54427  10.093   3.475   9.578 -0.4172  0.6888 -0.7816
  395MOL0     C54428   9.992   3.416   9.655  0.2286  0.6521  0.5752
  395MOL0     C54429   9.984   3.418   9.793 -0.3433 -0.9004 -0.0725
  395MOL0     C54430  10.088   3.478   9.869  0.8298 -0.2564 -0.5205
  395MOL0     O54431  10.108   3.475  10.005 -0.2375  0.5989 -0.3766
  395MOL0     C54432  10.034   3.378  10.086  0.8567  0.0018 -0.3897
  395MOL0     C54433  10.085   3.241  10.047  1.1659  0.0336  0.7274
  395MOL0     C54434  10.237   3.216  10.058  0.0284  0.0469 -0.6227
  395MOL0     C54435  10.270   3.069  10.034  0.8554 -0.8414 -0.7122
  395MOL0     C54436  10.222   2.978  10.143  0.9738 -0.1475 -0.9590
  395MOL0     C54437  10.179   2.903  10.226  0.6449  0.2543 -0.6410
  395MOL0     C54438  10.182   3.542   9.798 -0.5050 -0.1543  0.7402
  395MOL0     C54439  10.192   3.543   9.657  0.6450 -0.3965  0.0029
  395MOL0     C54440  10.311   3.620   9.589  1.1456  0.1996 -0.3769
  395MOL0     H54441  10.141   3.520   9.143  1.9197 -1.4384 -0.1048
  395MOL0     H54442  10.061   3.470   8.901 -5.1147 -2.8111 -4.3177
  395MOL0     H54443  10.051   3.352   8.737 -0.6106 -1.6479  0.4969
  395MOL0     H54444   9.929   3.490   8.726 -3.0036 -0.0346 -0.2839
  395MOL0     H54445   9.957   3.326   8.523  0.5473  0.3112  1.6213
  395MOL0     H54446   9.882   3.212   8.633 -1.3453  0.1795  0.1671
  395MOL0     H54447   9.687   3.375   8.671 -1.3074 -2.4484 -0.6756
  395MOL0     H54448   9.749   3.463   8.523 -2.6428  1.6495  1.5334
  395MOL0     H54449   9.760   3.239   8.401 -0.1749  0.7024 -0.8257
  395MOL0     H54450   9.663   3.179   8.543  1.1879 -1.8530 -1.9557
  395MOL0     H54451   9.593   3.384   8.326 -1.5296  2.3855 -0.1155
  395MOL0     H54452   9.496   3.372   8.469 -1.8138 -0.8271 -0.0124
  395MOL0     H54453   9.447   3.126   8.413  1.9286  1.3306  1.9502
  395MOL0     H54454   9.395   3.245   8.297  1.1989  0.1264 -1.8965
  395MOL0     H54455   9.656   3.093   8.241  0.0732 -2.1886 -0.7018
  395MOL0     H54456   9.545   3.206   8.141 -2.9604  0.8679  1.7872
  395MOL0     H54457   9.370   3.029   8.174 -0.3348  1.5510  1.9175
  395MOL0     H54458   9.488   3.014   8.048  2.1916 -2.1375  0.5880
  395MOL0     H54459   9.380   2.852   8.396 -0.5783 -0.8941 -0.8683
  395MOL0     H54460   9.471   2.511   8.385 -1.2985  2.0408 -1.2134
  395MOL0     H54461   9.461   2.635   8.511 -0.7810  3.8374 -2.1881
  395MOL0     H54462   9.643   2.472   8.553 -2.2583  2.5317  0.2370
  395MOL0     H54463   9.731   2.528   8.412  0.2444 -1.0603 -0.2468
  395MOL0     H54464   9.722   2.767   8.538 -1.3879 -0.6708 -2.3444
  395MOL0     H54465   9.623   2.682   8.657 -1.4822 -3.1376 -0.6825
  395MOL0     H54466   9.842   2.682   8.764  0.5096 -1.0049  0.3621
  395MOL0     H54467   9.815   2.526   8.706 -0.3865  0.2931  0.3741
  395MOL0     H54468  10.180   2.667   8.474  0.5704  0.8523  0.4269
  395MOL0     H54469  10.452   2.495   8.468  0.8222  0.6128 -0.0008
  395MOL0     H54470  10.484   2.653   8.538 -1.2053  2.3417  1.1615
  395MOL0     H54471  10.354   2.630   8.406 -0.6707 -3.7895 -0.8575
  395MOL0     H54472  10.479   2.306   9.114 -1.7653  0.4401 -2.3204
  395MOL0     H54473  10.667   2.217   9.241 -0.8165 -1.5166 -1.2927
  395MOL0     H54474  11.076   2.427   9.136  0.9845 -0.1028  0.1700
  395MOL0     H54475  10.983   2.479   9.271 -1.0544  0.1169 -1.1513
  395MOL0     H54476  11.171   2.240   9.297  0.0082  0.1646  1.1402
  395MOL0     H54477  11.213   2.414   9.325 -0.2098  0.8544  0.2498
  395MOL0     H54478  11.085   2.431   9.520 -3.8374 -0.1125 -0.1290
  395MOL0     H54479  11.185   2.286   9.516  1.7842  0.6263 -4.2761
  395MOL0     H54480  10.884   2.314   9.454  0.8252  2.6886  1.2100
  395MOL0     H54481  10.948   2.291   9.616  1.8221  0.4601 -0.2436
  395MOL0     H54482  10.857   2.079   9.532 -0.7382  2.5820 -1.6392
  395MOL0     H54483  10.964   2.081   9.398  0.0161  0.1237 -0.5969
  395MOL0     H54484  11.060   2.059   9.693  0.9701 -0.8989  0.2291
  395MOL0     H54485  11.167   2.045   9.554 -1.1357  2.1519 -2.4187
  395MOL0     H54486  10.931   1.862   9.612  0.6002 -1.5041  1.5374
  395MOL0     H54487  11.098   1.846   9.671 -0.4660  0.8401  0.8501
  395MOL0     H54488  11.046   1.856   9.365  2.7716 -0.0052 -1.2002
  395MOL0     H54489  11.066   1.716   9.431 -0.6374  1.1183  0.2830
  395MOL0     H54490  10.934   2.443   8.999  0.5984 -1.7780 -0.4417
  395MOL0     H54491  10.725   2.520   8.853 -0.2812  2.8248  2.0508
  395MOL0     H54492  10.231   2.435   8.901 -0.5387 -2.1539 -1.6139
  395MOL0     H54493  10.002   2.517   8.828 -2.1200 -1.3205 -2.7075
  395MOL0     H54494   9.726   3.274   9.031  2.7718 -1.2147 -1.4003
  395MOL0     H54495   9.774   3.335   9.281  0.6877 -0.6567  0.6598
  395MOL0     H54496   9.929   3.349   9.597 -0.5666  0.2533  1.8667
  395MOL0     H54497   9.907   3.356   9.836  1.1021 -3.0515 -0.4013
  395MOL0     H54498  10.057   3.382  10.193  0.3895 -0.1443 -0.2814
  395MOL0     H54499   9.926   3.382  10.071  0.5494  0.8991  1.6748
  395MOL0     H54500  10.047   3.214   9.948  2.9676  0.1683 -0.0573
  395MOL0     H54501  10.037   3.170  10.114 -1.8191  0.3104 -0.9284
  395MOL0     H54502  10.289   3.278   9.984  0.1597  0.9096  0.1790
  395MOL0     H54503  10.272   3.261  10.151 -1.7399 -1.4939  0.8789
  395MOL0     H54504  10.379   3.063  10.035  1.1368  2.6526  0.8559
  395MOL0     H54505  10.233   3.027   9.940 -0.9406  0.0203 -0.4242
  395MOL0     H54506  10.153   2.827  10.298  0.5672 -0.0628 -1.0030
  395MOL0     H54507  10.265   3.584   9.854  1.0619 -0.7432 -1.0176
  395MOL0     H54508  10.356   3.701   9.647 -0.4563  1.2371 -0.5333
  395MOL0     H54509  10.377   3.544   9.545 -2.0103 -1.6240 -2.3641
  395MOL0     H54510  10.268   3.681   9.509  0.0912  0.0891  0.0936
  396MOL0     O54511   3.383   0.013   0.337  0.5638 -0.1536  0.1341
  396MOL0     C54512   3.385   0.136   0.327 -0.1716  0.4285 -0.1211
  396MOL0     O54513   3.472   0.221   0.393 -1.1428 -0.1960  0.2374
  396MOL0     C54514   3.595   0.182   0.450  0.3954 -0.1125 -0.0049
  396MOL0     C54515   3.675   0.074   0.394  0.8695 -0.0546  0.5909
  396MOL0     C54516   3.793   0.053   0.447 -0.2332  0.4881 -0.4221
  396MOL0     C54517   3.862   0.141   0.532  0.2702  0.4771 -0.4669
  396MOL0     O54518   3.993   0.112   0.569  0.5292 -0.3141 -0.7858
  396MOL0     C54519   4.017   0.097   0.711 -0.2697  0.0117 -0.1515
  396MOL0     C54520   4.130   0.192   0.756 -1.1473  0.3403 -0.8399
  396MOL0     C54521   4.272   0.153   0.705  0.3008  0.7583 -0.2796
  396MOL0     C54522   4.382   0.232   0.780  0.1980 -1.2234  0.0934
  396MOL0     C54523   4.523   0.171   0.748  0.4271  0.0908 -1.1188
  396MOL0     C54524   4.538   0.042   0.836 -0.5756  0.5416  0.4612
  396MOL0     C54525   4.670  -0.027   0.834  0.2619 -0.3031  0.1852
  396MOL0     C54526   4.689  -0.118   0.954 -0.7564 -0.4007 -0.2227
  396MOL0     N54527   4.619  -0.245   0.956  0.4397  0.1347 -0.3523
  396MOL0     C54528   4.614  -0.329   0.842 -0.8114 -0.4163  0.3843
  396MOL0     C54529   4.520  -0.423   0.875 -0.5646  0.2861 -0.3384
  396MOL0     C54530   4.487  -0.543   0.798  0.3374 -0.5634  0.6062
  396MOL0     C54531   4.389  -0.507   0.687 -0.5695 -0.5943 -0.1155
  396MOL0     C54532   4.262  -0.445   0.722  0.5924 -0.1001 -0.3785
  396MOL0     C54533   4.262  -0.288   0.736 -0.1917 -0.4379  0.2551
  396MOL0     O54534   4.297  -0.221   0.611  0.9340  0.8624  0.4742
  396MOL0     C54535   4.200  -0.214   0.510 -1.2023 -0.4337 -0.6522
  396MOL0     C54536   4.069  -0.267   0.518  0.0551 -0.2612 -0.4534
  396MOL0     C54537   3.988  -0.273   0.407  0.2941 -0.1525 -1.3639
  396MOL0     C54538   3.856  -0.346   0.420 -0.7501  0.0065 -0.1788
  396MOL0     C54539   4.034  -0.231   0.286  0.0513 -0.6070  0.5800
  396MOL0     C54540   3.960  -0.223   0.159 -0.2404 -0.3664  0.0011
  396MOL0     O54541   4.033  -0.247   0.044 -0.2477 -0.5126 -0.3039
  396MOL0     C54542   3.981  -0.205  -0.077  0.3483 -0.0773  0.3569
  396MOL0     C54543   4.070  -0.130  -0.153 -0.6654 -0.0184  0.4712
  396MOL0     C54544   4.028  -0.087  -0.290 -0.0402  0.6419  0.3465
  396MOL0     C54545   3.897  -0.118  -0.337  0.8483 -1.1366 -0.0551
  396MOL0     O54546   3.869  -0.074  -0.466  0.5543 -0.4575  0.0129
  396MOL0     C54547   3.739  -0.121  -0.516 -0.7424 -0.7514  0.0416
  396MOL0     C54548   3.744  -0.130  -0.668  0.0794 -0.3094  0.4385
  396MOL0     C54549   3.755   0.002  -0.755 -0.3966  0.1465  0.5922
  396MOL0     C54550   3.856  -0.007  -0.884  0.3128 -0.4021 -0.5126
  396MOL0     C54551   3.804  -0.073  -1.012  0.4221  0.7220 -0.5726
  396MOL0     C54552   3.679  -0.010  -1.072  0.4116 -0.3051  0.9770
  396MOL0     C54553   3.697   0.134  -1.113 -0.5830 -0.0410  0.5704
  396MOL0     C54554   3.567   0.205  -1.165 -0.2381  0.8796  0.1493
  396MOL0    Cl54555   3.622   0.334  -1.270  0.3100 -0.4150  0.1818
  396MOL0     C54556   3.809  -0.175  -0.243  0.0041 -0.4158  0.5773
  396MOL0     C54557   3.853  -0.221  -0.122  0.7933  0.1732 -0.5944
  396MOL0     O54558   3.846  -0.181   0.167 -0.3233  0.0709 -0.2450
  396MOL0     C54559   4.157  -0.169   0.282 -0.8678  0.3241 -0.8450
  396MOL0     C54560   4.244  -0.159   0.387 -0.1560  0.0378 -0.3176
  396MOL0     N54561   4.472  -0.402   1.003 -0.4050  0.3463 -0.4883
  396MOL0     N54562   4.527  -0.287   1.045  0.0403  0.9265 -0.3657
  396MOL0     C54563   3.793   0.245   0.585 -0.2812 -0.0807 -0.4790
  396MOL0     C54564   3.664   0.276   0.543 -0.0385 -0.5457  0.3542
  396MOL0     C54565   3.283   0.198   0.236 -0.5118  0.5083  1.1446
  396MOL0     C54566   3.270   0.337   0.249 -0.3315 -0.3776 -0.1896
  396MOL0     C54567   3.175   0.402   0.174 -0.3518 -0.6199 -0.2914
  396MOL0     C54568   3.079   0.331   0.092 -1.1449 -0.4436  0.1311
  396MOL0     O54569   2.973   0.383   0.019 -0.3573  0.4719 -0.7979
  396MOL0     C54570   2.943   0.521   0.039 -0.1912 -0.0675 -0.9071
  396MOL0     C54571   2.824   0.569  -0.045 -0.0065 -0.5219  0.1824
  396MOL0     C54572   2.785   0.722  -0.057  0.1685  0.0241  0.4754
  396MOL0     C54573   2.832   0.819   0.056 -0.3005  0.8199  0.1157
  396MOL0     C54574   2.764   0.953   0.067 -0.3266 -0.1696 -0.5208
  396MOL0     C54575   2.720   1.055   0.093  0.5856 -0.4044  0.3700
  396MOL0     C54576   3.088   0.196   0.089 -0.0333 -0.2035 -0.4055
  396MOL0     C54577   3.193   0.127   0.151  0.4026 -0.3011  0.0941
  396MOL0     C54578   3.194  -0.023   0.128  0.2599  0.4339  0.6050
  396MOL0     H54579   3.630   0.022   0.310 -2.8405  0.6190  1.9648
  396MOL0     H54580   3.849  -0.030   0.406 -2.3202 -0.7097 -0.9492
  396MOL0     H54581   4.041  -0.009   0.724  0.7438  0.2377 -0.1093
  396MOL0     H54582   3.925   0.114   0.769  0.6228 -0.9936  1.6367
  396MOL0     H54583   4.104   0.291   0.718 -1.9421 -0.1964 -1.7106
  396MOL0     H54584   4.123   0.210   0.864 -1.4243 -2.9506 -0.2017
  396MOL0     H54585   4.280   0.047   0.732 -0.7930  0.3184 -1.5714
  396MOL0     H54586   4.283   0.165   0.597  4.4752 -1.0713 -0.2579
  396MOL0     H54587   4.364   0.328   0.730 -1.0019 -2.3924 -1.8635
  396MOL0     H54588   4.362   0.246   0.886  0.9153  2.7858 -0.1396
  396MOL0     H54589   4.594   0.249   0.780 -0.8935  0.8072  0.2148
  396MOL0     H54590   4.538   0.150   0.642  2.2822  1.4413 -1.1809
  396MOL0     H54591   4.522   0.072   0.940  0.0141 -1.1773  1.0825
  396MOL0     H54592   4.459  -0.031   0.814 -0.1315 -0.2457  1.3736
  396MOL0     H54593   4.751   0.046   0.829 -0.2870  0.3594  0.7092
  396MOL0     H54594   4.676  -0.092   0.747 -0.0770 -0.5761  0.3601
  396MOL0     H54595   4.798  -0.132   0.948 -1.0505 -2.3266 -2.6080
  396MOL0     H54596   4.677  -0.060   1.046  0.9212  2.6466 -1.7724
  396MOL0     H54597   4.671  -0.320   0.750  1.4821 -1.3041  1.6425
  396MOL0     H54598   4.426  -0.608   0.862 -1.3100 -0.9003 -1.2148
  396MOL0     H54599   4.578  -0.583   0.752 -0.9713  0.4586 -3.2575
  396MOL0     H54600   4.427  -0.435   0.613 -3.1262  0.2461 -0.7115
  396MOL0     H54601   4.364  -0.594   0.625 -3.2674  0.7925 -1.1219
  396MOL0     H54602   4.189  -0.474   0.645 -0.3427  0.7120  0.1818
  396MOL0     H54603   4.215  -0.476   0.816  2.0479  0.2835  0.5049
  396MOL0     H54604   4.166  -0.245   0.765 -0.7333 -1.4324 -0.0127
  396MOL0     H54605   4.343  -0.255   0.802  1.6491 -1.5006 -1.3684
  396MOL0     H54606   4.018  -0.305   0.606  1.1170  1.8691  1.2028
  396MOL0     H54607   3.842  -0.398   0.515  1.3651  2.5659  1.6454
  396MOL0     H54608   3.831  -0.416   0.339 -0.5417 -1.0729  0.6616
  396MOL0     H54609   3.782  -0.266   0.418  0.1150  0.8785 -3.3069
  396MOL0     H54610   4.169  -0.111  -0.114 -0.9580 -0.2706  1.3726
  396MOL0     H54611   4.097  -0.045  -0.362  0.6508 -0.8421  0.0933
  396MOL0     H54612   3.734  -0.227  -0.490 -0.4012 -1.5233 -2.7050
  396MOL0     H54613   3.653  -0.062  -0.483 -1.5128 -2.0252  0.3523
  396MOL0     H54614   3.826  -0.199  -0.691 -3.6586 -4.7678 -1.0679
  396MOL0     H54615   3.648  -0.173  -0.698 -1.5641  2.4322  1.3559
  396MOL0     H54616   3.793   0.078  -0.687  0.4664 -2.5127  3.3410
  396MOL0     H54617   3.650   0.021  -0.780 -1.1703 -3.3363  0.5605
  396MOL0     H54618   3.955  -0.041  -0.853  0.5541  2.4892  2.4670
  396MOL0     H54619   3.876   0.096  -0.917 -1.6405 -0.7876 -3.2078
  396MOL0     H54620   3.883  -0.072  -1.088 -0.1365  0.9131 -1.1507
  396MOL0     H54621   3.775  -0.176  -0.988  1.6918  0.5372  0.2605
  396MOL0     H54622   3.590  -0.016  -1.008 -0.4801  2.4200  0.1404
  396MOL0     H54623   3.656  -0.062  -1.165  1.3520 -1.8974  1.6023
  396MOL0     H54624   3.772   0.136  -1.192  0.6180  1.6445  1.6988
  396MOL0     H54625   3.725   0.200  -1.031 -0.9501  3.0666 -1.6317
  396MOL0     H54626   3.506   0.240  -1.082 -0.2322  0.1303  0.4791
  396MOL0     H54627   3.500   0.137  -1.219 -1.5776  2.8859 -0.8242
  396MOL0     H54628   3.702  -0.187  -0.255  0.1799 -3.2237  1.2538
  396MOL0     H54629   3.789  -0.284  -0.060  1.7147  0.5024  0.7272
  396MOL0     H54630   4.186  -0.117   0.191  2.7964  0.6708  0.3828
  396MOL0     H54631   4.339  -0.107   0.387  0.2594 -0.6164  2.1103
  396MOL0     H54632   3.859   0.309   0.643  1.1577 -2.0169  0.1251
  396MOL0     H54633   3.619   0.368   0.579 -1.4073 -1.1752  0.3324
  396MOL0     H54634   3.327   0.394   0.321 -0.2030 -0.5231 -0.1766
  396MOL0     H54635   3.163   0.509   0.175 -0.8257 -0.6725  0.2794
  396MOL0     H54636   2.916   0.537   0.143 -0.6357  2.5773 -1.3464
  396MOL0     H54637   3.034   0.578   0.017  0.9477 -1.6029 -0.3562
  396MOL0     H54638   2.736   0.512  -0.012  0.9696 -2.2066  0.0003
  396MOL0     H54639   2.847   0.535  -0.146  2.2204  1.8153 -0.1978
  396MOL0     H54640   2.809   0.757  -0.158  1.0832 -0.7643  0.4050
  396MOL0     H54641   2.677   0.717  -0.044  0.2575 -1.5511  0.7779
  396MOL0     H54642   2.934   0.828   0.018 -0.3432  1.1457  0.0702
  396MOL0     H54643   2.824   0.759   0.147  0.1232  1.0978  0.3424
  396MOL0     H54644   2.671   1.149   0.112 -0.3909 -1.0952  1.3662
  396MOL0     H54645   3.015   0.150   0.023  0.3135 -0.2037 -0.7941
  396MOL0     H54646   3.152  -0.053   0.031  2.0991 -0.7021  0.0964
  396MOL0     H54647   3.293  -0.069   0.141  0.2056  0.8401  2.6611
  396MOL0     H54648   3.141  -0.077   0.206  0.1533 -1.8101 -0.9048
  397MOL0     O54649   2.779   6.469   7.305  0.2880 -0.1141 -0.5543
  397MOL0     C54650   2.837   6.473   7.192  0.4564  0.1139 -0.9018
  397MOL0     O54651   2.776   6.451   7.073  0.3281 -0.7559 -1.1196
  397MOL0     C54652   2.635   6.439   7.079 -0.6790 -0.0756  0.6523
  397MOL0     C54653   2.548   6.532   7.143 -0.8191  0.7660 -0.5275
  397MOL0     C54654   2.412   6.500   7.147 -0.1344  0.0144 -0.2901
  397MOL0     C54655   2.357   6.382   7.086  0.2456  0.3852 -0.4060
  397MOL0     O54656   2.225   6.342   7.100 -0.1793  0.2813 -0.6286
  397MOL0     C54657   2.131   6.420   7.185  0.0438  0.7375  0.4624
  397MOL0     C54658   2.010   6.342   7.241  0.4238  0.2251 -0.5139
  397MOL0     C54659   1.910   6.306   7.129  0.1567  0.0184  1.1126
  397MOL0     C54660   1.831   6.182   7.153  0.2956  0.4076  0.2020
  397MOL0     C54661   1.701   6.171   7.080  0.0538  0.4326 -0.8528
  397MOL0     C54662   1.638   6.044   7.113  0.3964  0.7246  0.0927
  397MOL0     C54663   1.490   6.050   7.056 -0.1899  0.6104 -0.0979
  397MOL0     C54664   1.424   5.911   7.036  0.1512 -0.5122  0.9551
  397MOL0     N54665   1.329   5.869   7.149 -0.3952  0.0488 -0.3706
  397MOL0     C54666   1.200   5.906   7.169  0.4142 -0.7608 -0.3929
  397MOL0     C54667   1.173   5.861   7.295  0.4190 -0.0655 -0.5534
  397MOL0     C54668   1.037   5.839   7.359  0.6288  0.6125  0.3644
  397MOL0     C54669   0.923   5.913   7.279  0.3870  0.5639  0.0228
  397MOL0     C54670   0.935   6.070   7.306  0.4455  1.1272 -0.6495
  397MOL0     C54671   0.838   6.143   7.213 -0.8423  0.0402 -0.2698
  397MOL0     O54672   0.868   6.103   7.077 -0.3936 -0.4502  0.0132
  397MOL0     C54673   0.976   6.138   7.010  0.2130 -0.7845  0.3702
  397MOL0     C54674   1.069   6.234   7.046 -1.7530 -0.8264  0.1694
  397MOL0     C54675   1.177   6.282   6.963  0.2824 -0.1740 -1.1207
  397MOL0     C54676   1.279   6.384   7.009 -0.7683  0.1577  0.0094
  397MOL0     C54677   1.191   6.225   6.828  1.6532 -0.1178 -0.3073
  397MOL0     C54678   1.304   6.247   6.742  1.0652  0.8664  1.1500
  397MOL0     O54679   1.276   6.248   6.602 -0.3880  0.6472 -0.1866
  397MOL0     C54680   1.376   6.278   6.522 -0.1685 -0.6205  0.8173
  397MOL0     C54681   1.429   6.174   6.444 -0.9275 -0.2151  0.2489
  397MOL0     C54682   1.538   6.203   6.358 -0.1666  0.5360  0.2382
  397MOL0     C54683   1.589   6.336   6.344 -0.1647  0.3690  0.9745
  397MOL0     O54684   1.683   6.383   6.252 -0.2430 -0.0736 -0.2783
  397MOL0     C54685   1.763   6.274   6.199  0.7983 -0.5505 -0.3540
  397MOL0     C54686   1.881   6.344   6.104  0.4742 -0.2814  0.2957
  397MOL0     C54687   1.974   6.432   6.194  1.5161  0.1921 -0.0100
  397MOL0     C54688   2.100   6.465   6.126  0.1171 -0.2577  0.0932
  397MOL0     C54689   2.193   6.539   6.217 -0.0569 -0.2921 -0.3911
  397MOL0     C54690   2.298   6.640   6.158  0.1880  0.2732  0.3541
  397MOL0     C54691   2.401   6.683   6.255 -0.2354  0.5550  0.3409
  397MOL0     C54692   2.478   6.806   6.215  0.5886 -0.7515  0.2891
  397MOL0    Cl54693   2.575   6.784   6.072 -0.2238 -0.2471  0.3390
  397MOL0     C54694   1.539   6.430   6.432  0.1721 -0.5787 -0.2232
  397MOL0     C54695   1.436   6.402   6.517  0.6163  0.5170  0.0223
  397MOL0     O54696   1.416   6.268   6.793  0.5054 -0.1207 -0.6522
  397MOL0     C54697   1.094   6.122   6.797 -0.9154 -0.0584  0.4861
  397MOL0     C54698   0.987   6.091   6.883  0.2822 -0.1008 -0.2667
  397MOL0     N54699   1.289   5.819   7.357 -0.0071 -0.4162  0.1193
  397MOL0     N54700   1.377   5.809   7.261  0.6474  0.0819  0.2099
  397MOL0     C54701   2.439   6.316   6.995 -0.2272 -0.2651 -0.0310
  397MOL0     C54702   2.584   6.344   6.992  0.4419 -0.7543 -1.0219
  397MOL0     C54703   2.988   6.498   7.201 -0.4314 -0.8499 -1.2078
  397MOL0     C54704   3.035   6.543   7.330  1.1060 -0.6690 -1.0470
  397MOL0     C54705   3.174   6.562   7.352  0.4804 -0.4979  0.4015
  397MOL0     C54706   3.267   6.536   7.248  0.7179  0.1266  0.1575
  397MOL0     O54707   3.398   6.540   7.277 -0.4117 -0.7447 -0.1062
  397MOL0     C54708   3.493   6.483   7.197  0.2701 -0.0019 -0.3918
  397MOL0     C54709   3.631   6.515   7.253 -1.0216 -0.3009 -0.2535
  397MOL0     C54710   3.655   6.679   7.238 -0.7067 -0.2933 -0.7500
  397MOL0     C54711   3.808   6.705   7.281  0.2469 -1.1429  1.3016
  397MOL0     C54712   3.891   6.771   7.179  1.1988  0.0881 -0.9779
  397MOL0     C54713   3.960   6.823   7.101  0.5408 -0.1363  0.6496
  397MOL0     C54714   3.221   6.492   7.121  0.3056 -0.4044 -0.4706
  397MOL0     C54715   3.086   6.478   7.096  0.1227  0.0063 -1.0459
  397MOL0     C54716   3.041   6.419   6.963 -0.0688 -0.0225  0.4850
  397MOL0     H54717   2.582   6.622   7.193  0.1334 -0.5143  1.2521
  397MOL0     H54718   2.345   6.566   7.201  1.1854  0.3667  0.9589
  397MOL0     H54719   2.089   6.503   7.126 -0.7457  0.7655  1.0484
  397MOL0     H54720   2.180   6.463   7.272  1.8360 -0.1428 -0.0684
  397MOL0     H54721   2.043   6.245   7.281  0.2690 -0.2234 -1.4512
  397MOL0     H54722   1.958   6.391   7.325 -0.0560  0.1490 -0.7624
  397MOL0     H54723   1.844   6.392   7.110  1.6871  1.3922  1.8182
  397MOL0     H54724   1.963   6.282   7.037 -3.3537 -0.5091 -0.9645
  397MOL0     H54725   1.886   6.092   7.123 -1.7017 -0.6818 -0.3909
  397MOL0     H54726   1.816   6.169   7.261  0.1771  0.6017  0.2082
  397MOL0     H54727   1.728   6.175   6.974  0.0488  0.5494 -0.8492
  397MOL0     H54728   1.631   6.249   7.112 -1.0556 -1.2272  1.0401
  397MOL0     H54729   1.691   5.959   7.068 -1.1559  0.8746 -2.1392
  397MOL0     H54730   1.635   6.028   7.221 -2.9044 -1.8849 -0.2136
  397MOL0     H54731   1.475   6.101   6.960  0.4397  0.8767 -0.0602
  397MOL0     H54732   1.426   6.103   7.127  2.3304  0.6519  2.3208
  397MOL0     H54733   1.357   5.920   6.950  0.5622 -2.3922  0.3905
  397MOL0     H54734   1.502   5.839   7.012 -1.4968 -2.3051  0.7010
  397MOL0     H54735   1.132   5.950   7.097 -0.7464 -0.6449  0.7447
  397MOL0     H54736   1.045   5.877   7.462  0.5169 -2.4903  1.6281
  397MOL0     H54737   1.024   5.731   7.371 -0.3340  0.4902 -1.4153
  397MOL0     H54738   0.923   5.901   7.170  1.2168  2.4500 -0.2172
  397MOL0     H54739   0.830   5.871   7.319  1.5243 -1.4379  0.7003
  397MOL0     H54740   0.910   6.106   7.407 -0.0768  2.1816 -1.1366
  397MOL0     H54741   1.040   6.092   7.285  0.6177  1.3483  0.3864
  397MOL0     H54742   0.733   6.123   7.236 -1.3635 -1.5207 -3.4354
  397MOL0     H54743   0.842   6.250   7.235  2.7660 -0.0441  0.0333
  397MOL0     H54744   1.066   6.279   7.144  5.6489  1.3823 -0.0629
  397MOL0     H54745   1.308   6.451   6.927 -0.0539 -1.6117 -1.2533
  397MOL0     H54746   1.366   6.326   7.041 -0.5694  1.2438  1.4880
  397MOL0     H54747   1.229   6.435   7.092 -0.5847 -1.6355  1.2809
  397MOL0     H54748   1.409   6.068   6.452  1.3396 -0.7281 -0.2579
  397MOL0     H54749   1.586   6.126   6.299 -2.1371 -1.1706  0.7423
  397MOL0     H54750   1.812   6.217   6.278  0.2812 -0.7709 -0.1814
  397MOL0     H54751   1.706   6.212   6.129  1.8988  0.1178 -1.9004
  397MOL0     H54752   1.940   6.261   6.064  0.6718  0.0325 -0.0676
  397MOL0     H54753   1.822   6.397   6.029  1.3827 -0.7333 -0.7702
  397MOL0     H54754   1.996   6.379   6.287 -0.7129  0.1730  0.5688
  397MOL0     H54755   1.922   6.527   6.211  0.2181 -0.0789 -2.1141
  397MOL0     H54756   2.083   6.528   6.038  2.3670  0.2315 -0.0516
  397MOL0     H54757   2.150   6.376   6.088 -2.4285 -1.8309  0.2233
  397MOL0     H54758   2.130   6.610   6.271 -0.8974  0.6912 -2.5574
  397MOL0     H54759   2.243   6.464   6.278 -0.9592 -2.2694 -1.9768
  397MOL0     H54760   2.246   6.725   6.114 -2.9308 -1.3340  0.6354
  397MOL0     H54761   2.350   6.593   6.074 -1.6858  3.5071 -2.8488
  397MOL0     H54762   2.471   6.599   6.264  0.9754  1.4832 -0.2276
  397MOL0     H54763   2.354   6.689   6.353  0.7823  1.3005  0.8034
  397MOL0     H54764   2.541   6.837   6.299 -2.2556 -0.6078  2.5053
  397MOL0     H54765   2.413   6.893   6.206  2.0437  0.4042  0.5120
  397MOL0     H54766   1.570   6.534   6.423  0.9649 -0.8139 -0.2426
  397MOL0     H54767   1.389   6.485   6.568 -0.8665  1.2796 -2.3822
  397MOL0     H54768   1.108   6.065   6.706  1.4950  0.3948  0.5269
  397MOL0     H54769   0.912   6.022   6.844  0.5222 -0.4309 -0.1510
  397MOL0     H54770   2.401   6.241   6.927 -0.0598 -1.4300  1.1129
  397MOL0     H54771   2.659   6.297   6.929  1.2544 -0.8228 -0.0316
  397MOL0     H54772   2.981   6.573   7.419  2.9162  1.6157 -0.5976
  397MOL0     H54773   3.219   6.597   7.445  3.4347  2.3451 -1.8881
  397MOL0     H54774   3.495   6.374   7.194  2.1348 -0.2118  3.2961
  397MOL0     H54775   3.487   6.515   7.093  0.1230 -0.2556 -0.4621
  397MOL0     H54776   3.708   6.473   7.187 -0.1784  0.5294  0.1925
  397MOL0     H54777   3.638   6.483   7.357 -4.3861 -2.5011 -0.5288
  397MOL0     H54778   3.649   6.708   7.133  2.1104 -1.1145 -1.2143
  397MOL0     H54779   3.581   6.728   7.303 -0.9653 -1.0598 -0.4533
  397MOL0     H54780   3.857   6.609   7.303  1.0649 -1.3912 -1.2475
  397MOL0     H54781   3.797   6.766   7.371  2.4509 -3.0256  2.9811
  397MOL0     H54782   4.029   6.884   7.046 -1.0130  1.5515  0.5009
  397MOL0     H54783   3.287   6.483   7.035 -0.3336  0.5300 -1.0735
  397MOL0     H54784   3.121   6.378   6.900 -0.2415 -0.7198  0.7056
  397MOL0     H54785   2.985   6.330   6.991 -2.6215  1.3521  0.0047
  397MOL0     H54786   2.977   6.488   6.907 -0.3843 -0.7945 -0.1264
  398MOL0     O54787   0.801   2.161  10.502  0.3358 -0.4458  0.3691
  398MOL0     C54788   0.804   2.062  10.569 -0.4662 -0.0432  0.3653
  398MOL0     O54789   0.909   1.979  10.591  0.2730 -0.4512  1.2697
  398MOL0     C54790   1.028   2.002  10.527  0.6778  1.0127  0.2473
  398MOL0     C54791   1.124   2.077  10.598 -0.7588  0.2280 -0.8387
  398MOL0     C54792   1.251   2.096  10.549 -0.7287  0.2896 -0.6395
  398MOL0     C54793   1.288   2.046  10.421 -0.1754 -1.0463 -0.7415
  398MOL0     O54794   1.411   2.081  10.377 -0.1539  1.0195 -0.1821
  398MOL0     C54795   1.482   1.983  10.309 -0.0617  1.0296  0.8803
  398MOL0     C54796   1.628   2.024  10.323 -1.1651  0.1931 -0.7368
  398MOL0     C54797   1.718   1.915  10.254 -0.2636  0.2847 -0.2052
  398MOL0     C54798   1.853   1.973  10.249 -0.3655  0.0472  0.2917
  398MOL0     C54799   1.964   1.874  10.216  0.7587 -0.3802  0.3682
  398MOL0     C54800   2.093   1.936  10.169  0.1967  0.6121  0.3023
  398MOL0     C54801   2.159   1.836  10.094 -0.3710 -0.2440  0.6752
  398MOL0     C54802   2.298   1.894  10.042 -0.0952 -0.5163 -0.3977
  398MOL0     N54803   2.389   1.900  10.152  0.1671  0.8071 -0.2859
  398MOL0     C54804   2.427   2.016  10.218  0.5047  0.4533  0.3645
  398MOL0     C54805   2.499   1.970  10.330 -0.1788 -0.1482  0.1641
  398MOL0     C54806   2.564   2.055  10.441  0.2064  0.1502  0.2055
  398MOL0     C54807   2.466   2.117  10.536  0.0195  0.1508 -0.5037
  398MOL0     C54808   2.519   2.248  10.607 -0.3618 -0.1009  0.1394
  398MOL0     C54809   2.634   2.218  10.693  0.5016 -0.5231 -0.7147
  398MOL0     O54810   2.611   2.121  10.798  0.5057 -0.0631 -0.5172
  398MOL0     C54811   2.492   2.120  10.869  0.3429 -0.4710 -0.3120
  398MOL0     C54812   2.442   2.239  10.935 -0.2753  0.1648  0.0279
  398MOL0     C54813   2.334   2.226  11.020  0.1157 -0.2693 -0.5306
  398MOL0     C54814   2.281   2.362  11.085 -0.3485  0.1074 -0.0389
  398MOL0     C54815   2.257   2.112  11.026 -0.5342  0.1431  0.4237
  398MOL0     C54816   2.123   2.106  11.080  0.6624 -0.2884 -0.2881
  398MOL0     O54817   2.041   2.216  11.089  0.2453 -0.1419  0.7721
  398MOL0     C54818   1.905   2.208  11.118 -0.3315 -0.4305  0.4626
  398MOL0     C54819   1.842   2.327  11.099 -0.0080  0.0103 -0.1359
  398MOL0     C54820   1.709   2.357  11.112 -0.5549  0.2001 -0.0190
  398MOL0     C54821   1.628   2.247  11.169 -0.9641 -0.3580  0.7577
  398MOL0     O54822   1.500   2.264  11.199  0.0649  0.4977 -0.3967
  398MOL0     C54823   1.485   2.358  11.305 -0.0966  0.9406  0.2508
  398MOL0     C54824   1.337   2.393  11.307 -1.1812  0.2198 -0.2118
  398MOL0     C54825   1.303   2.495  11.408 -0.0510  0.5213 -0.5574
  398MOL0     C54826   1.342   2.633  11.358  0.0785  0.2525 -0.0694
  398MOL0     C54827   1.301   2.749  11.460  0.2358  0.2015  0.3258
  398MOL0     C54828   1.386   2.756  11.583 -0.5187 -0.3849  0.1564
  398MOL0     C54829   1.338   2.866  11.680 -0.1923  1.0307  0.2318
  398MOL0     C54830   1.189   2.900  11.683  0.2657  0.6165  0.8106
  398MOL0    Cl54831   1.159   3.047  11.767 -0.6420  0.1783  0.1084
  398MOL0     C54832   1.686   2.120  11.180 -0.4914 -0.1756  0.3987
  398MOL0     C54833   1.821   2.107  11.161  0.4731 -0.6493  0.1178
  398MOL0     O54834   2.094   1.996  11.120  0.5571  0.0650 -0.3617
  398MOL0     C54835   2.306   2.003  10.949 -0.2173 -0.7527  0.5391
  398MOL0     C54836   2.424   2.001  10.878  0.2661 -0.4950  0.1622
  398MOL0     N54837   2.491   1.825  10.324 -0.7422 -0.9445 -0.4782
  398MOL0     N54838   2.432   1.792  10.218 -0.1897 -0.4352  0.2122
  398MOL0     C54839   1.189   1.983  10.345 -0.9144 -0.3275  0.0809
  398MOL0     C54840   1.059   1.968  10.396  0.6621 -1.0129  0.4490
  398MOL0     C54841   0.685   2.020  10.644  0.2045 -0.7344  1.0060
  398MOL0     C54842   0.687   1.899  10.719 -0.0567 -0.2117 -0.3148
  398MOL0     C54843   0.569   1.844  10.772 -0.6182 -0.7571  0.1311
  398MOL0     C54844   0.449   1.900  10.744  0.0277  0.5136 -0.4498
  398MOL0     O54845   0.343   1.823  10.762  0.8804  0.1880 -0.2668
  398MOL0     C54846   0.354   1.707  10.671  0.2689 -0.0092  0.1413
  398MOL0     C54847   0.205   1.659  10.641 -0.6681 -0.2396 -0.7661
  398MOL0     C54848   0.192   1.553  10.533  0.5730 -0.7991 -0.0442
  398MOL0     C54849   0.050   1.502  10.534  0.8621 -0.9825  0.0651
  398MOL0     C54850   0.046   1.386  10.625  0.2581  0.8394  0.7578
  398MOL0     C54851   0.051   1.285  10.706 -0.0874 -0.6801  0.1037
  398MOL0     C54852   0.441   2.023  10.691  0.1299  0.4244  0.3615
  398MOL0     C54853   0.559   2.086  10.636 -0.3726  0.3474  0.2808
  398MOL0     C54854   0.534   2.234  10.592  0.5756  0.1045 -0.0939
  398MOL0     H54855   1.109   2.105  10.702 -1.2097  0.1801 -0.8880
  398MOL0     H54856   1.313   2.167  10.603  2.3265 -2.2924 -0.5040
  398MOL0     H54857   1.452   1.972  10.205 -0.2929 -1.2459  1.1357
  398MOL0     H54858   1.471   1.888  10.362  0.8994 -0.0220 -0.7345
  398MOL0     H54859   1.638   2.123  10.278 -0.7260  0.5860  0.2034
  398MOL0     H54860   1.642   2.038  10.431  1.6168 -2.6141 -0.5946
  398MOL0     H54861   1.725   1.824  10.314  0.5383  1.1910  1.1417
  398MOL0     H54862   1.682   1.898  10.152 -0.8966  2.0930 -0.3171
  398MOL0     H54863   1.846   2.060  10.183  2.3336  0.9555  1.0704
  398MOL0     H54864   1.871   2.023  10.344 -2.1060  1.4665 -0.0881
  398MOL0     H54865   1.921   1.806  10.143  1.2625  0.3770 -0.6663
  398MOL0     H54866   1.990   1.830  10.312  0.7836 -1.7818 -0.2579
  398MOL0     H54867   2.073   2.021  10.102 -1.4306  1.0761  1.3166
  398MOL0     H54868   2.146   1.964  10.260 -2.6223 -0.6469  2.4754
  398MOL0     H54869   2.087   1.814  10.015 -1.2741  0.4232  1.2908
  398MOL0     H54870   2.185   1.748  10.153  1.7665  1.2133  2.0264
  398MOL0     H54871   2.335   1.828   9.962  2.8084  0.0333  0.3570
  398MOL0     H54872   2.283   1.992   9.997  4.0183  0.0735 -0.9048
  398MOL0     H54873   2.421   2.121  10.191  0.5535  0.7588  1.4869
  398MOL0     H54874   2.613   2.142  10.397 -0.3652  0.9354  1.0850
  398MOL0     H54875   2.626   1.991  10.505 -2.2881  0.3691  3.0935
  398MOL0     H54876   2.377   2.155  10.486  0.3182  3.6014  1.3085
  398MOL0     H54877   2.436   2.038  10.606  1.6374 -2.4779 -2.5632
  398MOL0     H54878   2.549   2.309  10.521 -1.0751  0.2193  0.1084
  398MOL0     H54879   2.440   2.304  10.658 -0.0168 -0.8815  1.5722
  398MOL0     H54880   2.715   2.185  10.627  0.7108 -2.3750  0.4148
  398MOL0     H54881   2.657   2.311  10.747  1.9077 -0.0678 -2.0102
  398MOL0     H54882   2.490   2.332  10.908 -0.0035  0.2397  0.7592
  398MOL0     H54883   2.208   2.408  11.018 -0.1010  2.6074  1.2904
  398MOL0     H54884   2.358   2.438  11.102 -2.6933  2.5798  0.2783
  398MOL0     H54885   2.229   2.349  11.181 -1.4672  2.0765 -0.3277
  398MOL0     H54886   1.909   2.410  11.078 -0.1598 -0.3033 -2.0208
  398MOL0     H54887   1.669   2.455  11.088 -3.3473 -0.7437  0.3586
  398MOL0     H54888   1.516   2.324  11.404  1.8804 -2.2592 -1.2842
  398MOL0     H54889   1.535   2.451  11.274  2.2456 -0.1907  0.3846
  398MOL0     H54890   1.298   2.434  11.214 -1.0724 -1.3631 -0.9817
  398MOL0     H54891   1.276   2.310  11.345 -2.5183  1.9480  1.6800
  398MOL0     H54892   1.351   2.461  11.500 -3.2682 -1.9659  0.4057
  398MOL0     H54893   1.196   2.504  11.431 -0.4192  1.2157 -2.3391
  398MOL0     H54894   1.290   2.655  11.264  0.0481 -0.5448 -0.2437
  398MOL0     H54895   1.451   2.637  11.347 -0.0509 -1.0227 -2.5114
  398MOL0     H54896   1.308   2.840  11.399  0.8242 -0.4815 -0.6546
  398MOL0     H54897   1.200   2.721  11.492  1.7103 -2.1300  3.3704
  398MOL0     H54898   1.490   2.771  11.552 -0.4152 -0.3016  0.5332
  398MOL0     H54899   1.373   2.658  11.630 -0.0773  0.1980  1.5576
  398MOL0     H54900   1.392   2.958  11.658  1.5080 -0.1658 -0.8161
  398MOL0     H54901   1.368   2.830  11.778 -0.5787  2.6800  0.9853
  398MOL0     H54902   1.148   2.810  11.728  0.8363 -0.8326 -1.4258
  398MOL0     H54903   1.147   2.913  11.583 -1.0057 -0.7152  1.1442
  398MOL0     H54904   1.624   2.038  11.216 -1.4533 -0.5660 -1.9312
  398MOL0     H54905   1.869   2.013  11.188  1.8553  0.0100  0.0712
  398MOL0     H54906   2.247   1.912  10.947 -1.0509 -0.2152 -0.3414
  398MOL0     H54907   2.458   1.910  10.830  1.8184 -2.0653  3.8925
  398MOL0     H54908   1.213   1.946  10.246  0.0701  2.4230 -0.8120
  398MOL0     H54909   0.990   1.899  10.349  0.9126 -2.1908  1.7209
  398MOL0     H54910   0.776   1.843  10.749  0.1404  0.4765  0.4137
  398MOL0     H54911   0.580   1.760  10.839  1.7870  1.0648  2.2654
  398MOL0     H54912   0.405   1.728  10.577 -0.2580 -0.3568 -0.2299
  398MOL0     H54913   0.414   1.626  10.713  0.2637  0.2146  0.5861
  398MOL0     H54914   0.152   1.752  10.619 -0.1920  0.3584  0.5307
  398MOL0     H54915   0.173   1.610  10.733  4.5476 -0.5746  1.2160
  398MOL0     H54916   0.218   1.594  10.435  1.5584  0.2902  0.6482
  398MOL0     H54917   0.266   1.478  10.565  0.5704 -0.5760  0.5071
  398MOL0     H54918   0.015   1.481  10.432  2.4807  0.6728 -0.9015
  398MOL0     H54919  -0.015   1.582  10.569 -0.0096 -1.7274  0.1988
  398MOL0     H54920   0.045   1.201  10.773  0.0061  0.0781  1.0781
  398MOL0     H54921   0.344   2.070  10.686  0.7707  1.6504 -1.1560
  398MOL0     H54922   0.439   2.272  10.632  1.5550  2.8531 -0.1867
  398MOL0     H54923   0.612   2.293  10.641  0.6625  1.3476 -1.6596
  398MOL0     H54924   0.533   2.252  10.484 -1.5333 -0.6679 -0.2655
  399MOL0     O54925   0.408   6.742  10.666  0.0140  0.8200  0.6196
  399MOL0     C54926   0.405   6.621  10.679  0.2826  0.7622 -0.2749
  399MOL0     O54927   0.292   6.548  10.687 -0.2461 -0.9880  0.6201
  399MOL0     C54928   0.180   6.615  10.647 -0.3421  1.1670  1.3205
  399MOL0     C54929   0.168   6.671  10.520 -0.2265 -0.7955 -0.6752
  399MOL0     C54930   0.060   6.732  10.480 -0.1846 -0.7018 -0.6665
  399MOL0     C54931  -0.043   6.763  10.573  0.1720 -0.5847 -0.3637
  399MOL0     O54932  -0.151   6.844  10.535  0.4361 -0.2414  0.9249
  399MOL0     C54933  -0.234   6.908  10.633 -0.6450 -0.1298  0.1251
  399MOL0     C54934  -0.353   6.978  10.561  0.6860 -0.5907 -0.6021
  399MOL0     C54935  -0.432   6.886  10.468  0.4431 -0.5753 -0.3848
  399MOL0     C54936  -0.569   6.954  10.419  0.2737  0.4937  0.1367
  399MOL0     C54937  -0.687   6.864  10.377 -1.3172 -0.9333  1.0975
  399MOL0     C54938  -0.785   6.851  10.500 -0.2919  0.3561 -0.3563
  399MOL0     C54939  -0.922   6.780  10.472 -0.1230  0.9859 -0.8828
  399MOL0     C54940  -1.009   6.769  10.603 -0.3698 -0.6424 -0.6633
  399MOL0     N54941  -1.026   6.902  10.663  0.3397  0.8151  0.8520
  399MOL0     C54942  -0.954   6.937  10.767 -0.3162 -0.1609  0.1307
  399MOL0     C54943  -1.020   7.044  10.818  0.2860  0.4843  0.3400
  399MOL0     C54944  -0.955   7.125  10.932  0.7433  0.4014  0.0212
  399MOL0     C54945  -0.940   7.051  11.070  0.2660 -0.2382 -0.2558
  399MOL0     C54946  -0.924   7.148  11.186  0.1261 -1.2013 -0.0155
  399MOL0     C54947  -0.795   7.217  11.209 -0.4249  0.4872 -0.6081
  399MOL0     O54948  -0.690   7.129  11.251  0.8246  0.3744  0.5175
  399MOL0     C54949  -0.574   7.188  11.301 -0.8480 -0.7118  0.0513
  399MOL0     C54950  -0.534   7.320  11.287 -0.7793  1.8496 -0.1466
  399MOL0     C54951  -0.424   7.379  11.359 -0.2231  0.3192 -0.3198
  399MOL0     C54952  -0.366   7.506  11.313  0.4962 -0.0102  0.2616
  399MOL0     C54953  -0.355   7.293  11.446  0.4447 -0.8984  0.3448
  399MOL0     C54954  -0.241   7.339  11.520  0.5338 -0.7037 -0.6578
  399MOL0     O54955  -0.146   7.251  11.524  0.0253  0.0674 -0.6216
  399MOL0     C54956  -0.019   7.286  11.567 -0.4684  0.4692 -0.6083
  399MOL0     C54957   0.059   7.188  11.631  0.0546  0.2302  0.6002
  399MOL0     C54958   0.192   7.211  11.655 -0.1126 -0.2581  0.2515
  399MOL0     C54959   0.257   7.332  11.616 -0.9673  0.5040  0.1469
  399MOL0     O54960   0.389   7.358  11.642 -0.2899  0.0258 -0.0963
  399MOL0     C54961   0.491   7.262  11.605 -0.2014 -0.0250 -1.3492
  399MOL0     C54962   0.635   7.316  11.611 -0.4688  0.0739  0.4952
  399MOL0     C54963   0.733   7.204  11.565 -0.0702 -0.8267 -0.1522
  399MOL0     C54964   0.877   7.235  11.611 -1.3063 -0.0434  0.4231
  399MOL0     C54965   0.973   7.194  11.498  0.4213  0.7229  0.0526
  399MOL0     C54966   1.118   7.233  11.516  0.3892  0.6301 -0.1209
  399MOL0     C54967   1.214   7.190  11.404  0.7251 -0.0922 -0.4627
  399MOL0     C54968   1.286   7.055  11.448  0.6266  0.2540 -0.3897
  399MOL0    Cl54969   1.412   7.005  11.324 -0.1093  0.3175 -0.0594
  399MOL0     C54970   0.174   7.423  11.559 -0.3667 -0.1400  0.1645
  399MOL0     C54971   0.045   7.400  11.528 -0.0733  0.1878  0.2174
  399MOL0     O54972  -0.243   7.454  11.563 -0.2994 -0.0023 -0.0651
  399MOL0     C54973  -0.404   7.162  11.469 -0.5524  0.4046 -0.3703
  399MOL0     C54974  -0.507   7.108  11.394 -0.1878  0.3517  0.1282
  399MOL0     N54975  -1.135   7.060  10.747  0.5790  0.0657  0.4290
  399MOL0     N54976  -1.142   6.971  10.650 -0.3953  0.2535 -0.7987
  399MOL0     C54977  -0.030   6.713  10.708  0.0698  0.1798  0.5157
  399MOL0     C54978   0.082   6.634  10.740 -0.1992  0.9057  0.5008
  399MOL0     C54979   0.532   6.547  10.665 -0.0939 -0.3139 -0.7227
  399MOL0     C54980   0.537   6.412  10.604  0.2217 -1.1626  0.1558
  399MOL0     C54981   0.653   6.353  10.570 -0.7678  0.0318  0.5402
  399MOL0     C54982   0.780   6.417  10.594  0.4398  0.1628  0.2293
  399MOL0     O54983   0.899   6.361  10.562  0.3690  0.1886 -0.3889
  399MOL0     C54984   0.904   6.283  10.442  0.2023  1.0681  0.1568
  399MOL0     C54985   1.053   6.292  10.403  0.6539 -0.4210  0.7102
  399MOL0     C54986   1.105   6.201  10.296 -0.3615 -0.2151  0.1746
  399MOL0     C54987   1.260   6.235  10.279  0.9996 -0.2575  0.0628
  399MOL0     C54988   1.351   6.206  10.387 -0.2972  0.0319 -0.1059
  399MOL0     C54989   1.433   6.176  10.474  0.3290 -0.4300  0.0850
  399MOL0     C54990   0.777   6.542  10.655 -0.4866  0.0810  0.3056
  399MOL0     C54991   0.662   6.595  10.704 -0.8069 -0.5265  0.1353
  399MOL0     C54992   0.683   6.718  10.782 -0.3848  0.0738 -0.1400
  399MOL0     H54993   0.237   6.651  10.438 -0.4974  0.9561 -1.3666
  399MOL0     H54994   0.054   6.765  10.377  1.0496  0.5762 -0.3653
  399MOL0     H54995  -0.177   6.989  10.679  0.1477  1.8432 -3.8734
  399MOL0     H54996  -0.262   6.848  10.720  2.4920  1.2525  2.2535
  399MOL0     H54997  -0.415   7.028  10.636 -1.1611 -1.2521 -1.6355
  399MOL0     H54998  -0.302   7.050  10.496 -1.2325  1.4627  0.0652
  399MOL0     H54999  -0.370   6.871  10.379  2.4453  1.3591  0.5946
  399MOL0     H55000  -0.456   6.789  10.512  1.6041  0.0726  1.7952
  399MOL0     H55001  -0.609   7.031  10.486  2.6317  0.8355  1.2639
  399MOL0     H55002  -0.547   7.010  10.327  0.3024 -0.6030 -0.5338
  399MOL0     H55003  -0.639   6.769  10.352 -0.3128 -1.0750  3.2927
  399MOL0     H55004  -0.744   6.896  10.290  3.1785  2.2049 -1.0650
  399MOL0     H55005  -0.737   6.790  10.577 -0.7740  0.1543 -0.2185
  399MOL0     H55006  -0.802   6.955  10.529 -0.6137  1.0497 -2.7622
  399MOL0     H55007  -0.902   6.682  10.428 -0.0645  1.8474 -2.9203
  399MOL0     H55008  -0.993   6.827  10.403 -0.9746 -0.9576 -1.3969
  399MOL0     H55009  -1.106   6.729  10.574 -1.5666  2.1211 -0.8532
  399MOL0     H55010  -0.969   6.695  10.672  2.4320 -0.0823 -1.5571
  399MOL0     H55011  -0.858   6.899  10.800 -1.2558 -1.1574  1.8591
  399MOL0     H55012  -1.014   7.215  10.952  0.4951 -0.2287  2.5020
  399MOL0     H55013  -0.857   7.160  10.898  1.4700 -0.0549  1.5359
  399MOL0     H55014  -1.034   6.996  11.079  0.7642 -1.7472 -3.1470
  399MOL0     H55015  -0.857   6.981  11.062 -0.4073 -0.8448 -3.2423
  399MOL0     H55016  -0.993   7.232  11.184  2.4425  0.8483 -3.1275
  399MOL0     H55017  -0.940   7.098  11.283  2.8408 -0.5579  0.8554
  399MOL0     H55018  -0.767   7.278  11.122 -3.7479  1.3945 -1.1773
  399MOL0     H55019  -0.805   7.283  11.295 -0.1263 -2.4544  1.8564
  399MOL0     H55020  -0.582   7.388  11.217 -1.2638 -0.2383 -1.9308
  399MOL0     H55021  -0.403   7.543  11.218  0.5134  1.7038  0.8920
  399MOL0     H55022  -0.257   7.510  11.306  0.3587  3.1366 -3.5842
  399MOL0     H55023  -0.409   7.577  11.385  2.7382 -1.0554  2.8028
  399MOL0     H55024   0.022   7.089  11.651  0.5770  0.2598  1.8045
  399MOL0     H55025   0.246   7.123  11.690  2.5361 -0.4873 -3.7648
  399MOL0     H55026   0.492   7.169  11.664  0.7278 -2.1482 -4.4485
  399MOL0     H55027   0.471   7.218  11.507 -1.6633 -2.3974 -0.1019
  399MOL0     H55028   0.650   7.409  11.554 -0.0097  0.3841  1.1113
  399MOL0     H55029   0.677   7.328  11.711  1.6863 -1.2946 -0.1836
  399MOL0     H55030   0.728   7.199  11.456  1.4207  1.8138 -0.4343
  399MOL0     H55031   0.698   7.106  11.599 -2.3358 -1.4111 -3.6775
  399MOL0     H55032   0.900   7.183  11.704 -0.2506  1.5381  1.0898
  399MOL0     H55033   0.899   7.341  11.628 -1.8117 -0.1570  1.8892
  399MOL0     H55034   0.964   7.087  11.474  2.9578  0.0466  1.6215
  399MOL0     H55035   0.952   7.248  11.405 -1.0918 -4.9644 -3.4281
  399MOL0     H55036   1.149   7.197  11.615  0.7067 -2.1373 -1.1337
  399MOL0     H55037   1.130   7.341  11.524 -1.0919  0.7782  0.4207
  399MOL0     H55038   1.284   7.272  11.389  0.3391  0.1466 -0.9940
  399MOL0     H55039   1.163   7.180  11.308  1.4817  1.7459 -1.1100
  399MOL0     H55040   1.212   6.974  11.452 -0.4319  1.1708 -1.0380
  399MOL0     H55041   1.342   7.068  11.541  1.1910  3.1216 -1.0557
  399MOL0     H55042   0.217   7.522  11.546  0.6589 -0.3235  1.8577
  399MOL0     H55043  -0.010   7.476  11.474  0.6580  0.8386  0.3644
  399MOL0     H55044  -0.352   7.101  11.541 -0.6731 -0.8960 -1.3482
  399MOL0     H55045  -0.554   7.010  11.401 -0.4265  0.5624  2.2204
  399MOL0     H55046  -0.108   6.719  10.783 -2.6612 -0.7267 -2.0652
  399MOL0     H55047   0.092   6.587  10.837  2.4639  1.1204  0.3997
  399MOL0     H55048   0.444   6.358  10.589  0.0403 -1.0913  0.9724
  399MOL0     H55049   0.658   6.252  10.532  1.4813 -0.0305  0.8458
  399MOL0     H55050   0.875   6.178  10.445 -1.8253  1.4990 -1.7138
  399MOL0     H55051   0.844   6.331  10.364  0.7545  2.3186  0.4686
  399MOL0     H55052   1.108   6.260  10.492 -2.0327 -3.9910  1.2993
  399MOL0     H55053   1.079   6.395  10.378 -0.7308  0.2650  1.9463
  399MOL0     H55054   1.089   6.094  10.316  0.4944 -0.3266  0.2698
  399MOL0     H55055   1.046   6.223  10.206 -2.9048 -1.0436  1.5287
  399MOL0     H55056   1.272   6.344  10.274  0.8417 -0.1054  2.1691
  399MOL0     H55057   1.289   6.178  10.190 -1.3055  0.2489 -1.0984
  399MOL0     H55058   1.512   6.162  10.546 -0.2623 -0.0406  0.8282
  399MOL0     H55059   0.874   6.590  10.664 -1.1357  1.3431  0.8165
  399MOL0     H55060   0.704   6.800  10.712  1.2879 -0.4511 -0.2820
  399MOL0     H55061   0.599   6.749  10.845  0.0818 -0.4961  0.7726
  399MOL0     H55062   0.775   6.698  10.837  0.9576 -0.7406 -2.5004
  400MOL0     O55063   2.815   7.227   5.765 -0.3771 -0.0578  0.2507
  400MOL0     C55064   2.767   7.237   5.658  0.1194  0.0076  0.2049
  400MOL0     O55065   2.738   7.357   5.592  0.1000  0.3776 -0.4789
  400MOL0     C55066   2.767   7.473   5.663  0.1395  0.3644 -0.1254
  400MOL0     C55067   2.900   7.516   5.669 -0.1158  1.0740  0.3626
  400MOL0     C55068   2.932   7.639   5.714  0.1734 -0.6378  0.1443
  400MOL0     C55069   2.829   7.725   5.746 -0.1920 -0.7274 -0.2101
  400MOL0     O55070   2.853   7.855   5.793  0.2379 -0.7349 -0.3275
  400MOL0     C55071   2.985   7.882   5.833 -0.7582  1.1829  0.3302
  400MOL0     C55072   3.009   8.024   5.877  0.2556  0.0342  0.1879
  400MOL0     C55073   2.968   8.129   5.773 -0.1477 -0.0951 -0.2901
  400MOL0     C55074   3.028   8.265   5.786 -1.5477 -0.1936  0.2363
  400MOL0     C55075   3.026   8.316   5.940 -0.5006 -0.4673 -0.2952
  400MOL0     C55076   3.084   8.456   5.948  0.5092  0.7500  0.0626
  400MOL0     C55077   3.048   8.530   6.082 -0.0981  0.2908 -0.1796
  400MOL0     C55078   3.086   8.680   6.100 -0.5165 -0.5173 -0.0670
  400MOL0     N55079   3.215   8.697   6.170 -0.0437  0.0945 -0.8379
  400MOL0     C55080   3.234   8.679   6.303  0.9052  0.7258  0.6146
  400MOL0     C55081   3.368   8.669   6.319  0.1766  0.1040 -0.7579
  400MOL0     C55082   3.430   8.630   6.459 -0.4401 -0.0028  0.8564
  400MOL0     C55083   3.539   8.733   6.511  0.4814  0.1182 -0.0084
  400MOL0     C55084   3.660   8.752   6.418 -0.1366  0.2470  0.4539
  400MOL0     C55085   3.747   8.856   6.492 -0.6688  0.3596 -0.0946
  400MOL0     O55086   3.865   8.892   6.415 -0.7507 -0.6043 -0.1583
  400MOL0     C55087   3.945   8.979   6.488  0.4034 -0.3013 -0.4865
  400MOL0     C55088   3.901   9.084   6.580  0.6235 -0.1265  0.9871
  400MOL0     C55089   4.004   9.156   6.654  0.6602  0.1386 -0.1079
  400MOL0     C55090   3.942   9.252   6.763  0.1183 -0.4517  0.7644
  400MOL0     C55091   4.138   9.130   6.647  0.9219 -0.3678 -0.6465
  400MOL0     C55092   4.244   9.203   6.726 -0.5216  0.5434 -0.2521
  400MOL0     O55093   4.233   9.205   6.862  0.3021  0.1823 -0.8827
  400MOL0     C55094   4.311   9.285   6.946 -0.0210  0.8978  0.1326
  400MOL0     C55095   4.327   9.250   7.077  0.1796  0.6749 -0.1284
  400MOL0     C55096   4.399   9.330   7.164 -0.1501 -0.7282 -1.0279
  400MOL0     C55097   4.453   9.450   7.116  0.5123 -0.1416  1.1415
  400MOL0     O55098   4.503   9.543   7.213  0.1246 -0.7786  1.0104
  400MOL0     C55099   4.626   9.599   7.179 -0.5336 -0.7081  0.3344
  400MOL0     C55100   4.694   9.620   7.315 -0.0297  0.5709 -0.7550
  400MOL0     C55101   4.736   9.495   7.390  0.7253  1.0815  0.0114
  400MOL0     C55102   4.614   9.441   7.484 -0.0607  1.1526 -0.2013
  400MOL0     C55103   4.625   9.482   7.632 -0.7497 -0.3654  0.6046
  400MOL0     C55104   4.522   9.416   7.716  0.1674 -0.5240  0.0449
  400MOL0     C55105   4.515   9.482   7.855  0.3536  0.4384  0.8992
  400MOL0     C55106   4.414   9.415   7.949  0.1081 -0.5987 -0.8885
  400MOL0    Cl55107   4.256   9.391   7.870  0.1687 -0.1735  0.0928
  400MOL0     C55108   4.435   9.485   6.978 -0.4508 -0.4100 -0.0000
  400MOL0     C55109   4.364   9.404   6.896 -0.5504  0.5140 -0.4989
  400MOL0     O55110   4.341   9.237   6.663  0.4435 -0.8808  1.1752
  400MOL0     C55111   4.181   9.028   6.560  0.4132  0.2065  0.3080
  400MOL0     C55112   4.077   8.956   6.485 -0.3204  0.4577  0.8448
  400MOL0     N55113   3.428   8.697   6.194  0.2036  0.2534 -0.3786
  400MOL0     N55114   3.335   8.716   6.109  0.4093 -0.5340  0.1199
  400MOL0     C55115   2.693   7.680   5.754 -1.1021 -0.6406 -0.2724
  400MOL0     C55116   2.656   7.550   5.709  0.3435  0.1578  0.0391
  400MOL0     C55117   2.724   7.110   5.585 -0.7096  0.6425 -0.6205
  400MOL0     C55118   2.751   7.105   5.444 -0.1861  0.0458 -0.5946
  400MOL0     C55119   2.732   6.986   5.372 -0.1788 -0.5684 -0.7487
  400MOL0     C55120   2.675   6.873   5.431 -0.4503 -0.8470 -0.0265
  400MOL0     O55121   2.679   6.763   5.355 -0.5946  0.0868  0.9791
  400MOL0     C55122   2.634   6.638   5.404 -0.5315  0.5704  0.4726
  400MOL0     C55123   2.611   6.522   5.308  0.5319  0.5465  0.3052
  400MOL0     C55124   2.506   6.538   5.194 -0.1302 -0.4423  0.0122
  400MOL0     C55125   2.572   6.569   5.055  0.0060  0.3535 -0.5787
  400MOL0     C55126   2.581   6.714   5.041 -0.4360 -0.0362  0.7801
  400MOL0     C55127   2.574   6.836   5.033 -1.0098 -0.0690 -0.2212
  400MOL0     C55128   2.645   6.880   5.573  1.0977  0.1334 -0.0554
  400MOL0     C55129   2.662   7.000   5.646 -0.0184 -0.4292  0.1379
  400MOL0     C55130   2.646   6.974   5.796  0.8738  0.3714  0.7090
  400MOL0     H55131   2.975   7.451   5.624 -0.5219  1.3218 -0.7118
  400MOL0     H55132   3.037   7.667   5.713  0.4240 -1.4621  1.1752
  400MOL0     H55133   3.048   7.869   5.745 -0.3702  2.6615  0.3525
  400MOL0     H55134   3.023   7.806   5.902  0.1216  0.1239 -1.2588
  400MOL0     H55135   2.966   8.026   5.977 -1.2301  0.4185 -0.4263
  400MOL0     H55136   3.116   8.043   5.888  0.2096  0.7077 -0.4530
  400MOL0     H55137   2.990   8.094   5.671  0.9044 -0.2643 -0.0234
  400MOL0     H55138   2.859   8.133   5.771 -0.2598  0.1575 -5.3205
  400MOL0     H55139   3.132   8.264   5.752 -2.5947  1.1470 -3.4088
  400MOL0     H55140   2.983   8.340   5.721 -0.4118  0.4813  0.2050
  400MOL0     H55141   3.079   8.256   6.015  1.3331  0.8603 -0.4604
  400MOL0     H55142   2.920   8.335   5.960 -0.1958  2.2939 -0.8495
  400MOL0     H55143   3.191   8.449   5.926  0.5001 -2.9050  0.4405
  400MOL0     H55144   3.047   8.522   5.869  0.3742  0.7483  0.1233
  400MOL0     H55145   3.090   8.478   6.169 -0.6151  0.0969 -0.0419
  400MOL0     H55146   2.942   8.519   6.104  0.4023 -1.5246  1.5507
  400MOL0     H55147   3.094   8.726   6.001 -0.3423  0.8386  0.5577
  400MOL0     H55148   3.016   8.737   6.161  0.8231  1.2915 -0.1267
  400MOL0     H55149   3.162   8.669   6.384 -1.0776 -0.6270 -1.1923
  400MOL0     H55150   3.482   8.535   6.444  1.5220  1.3898 -2.3800
  400MOL0     H55151   3.342   8.620   6.523 -1.3143  1.4471 -0.0478
  400MOL0     H55152   3.475   8.820   6.526 -0.1608  0.1564 -2.4562
  400MOL0     H55153   3.559   8.700   6.613 -2.4513 -0.3750  0.4997
  400MOL0     H55154   3.714   8.657   6.413 -0.8369 -0.3870  3.0495
  400MOL0     H55155   3.633   8.778   6.316  0.6987 -1.3010 -0.1960
  400MOL0     H55156   3.691   8.949   6.505 -0.0583  0.4667  2.1446
  400MOL0     H55157   3.771   8.813   6.589 -1.6363 -0.8365 -0.3469
  400MOL0     H55158   3.800   9.107   6.614 -0.2650 -0.9011 -0.9893
  400MOL0     H55159   4.012   9.324   6.807  0.9903 -2.4836  2.9054
  400MOL0     H55160   3.893   9.204   6.849 -2.7401  0.1071 -0.4359
  400MOL0     H55161   3.873   9.322   6.715  1.8236  1.0661  0.4234
  400MOL0     H55162   4.283   9.160   7.118  3.0995 -1.3566 -1.1225
  400MOL0     H55163   4.408   9.304   7.269 -2.1002 -1.7658 -1.0755
  400MOL0     H55164   4.684   9.536   7.110  0.5638  0.4886  0.1182
  400MOL0     H55165   4.592   9.695   7.137 -0.1997 -1.7619 -2.5814
  400MOL0     H55166   4.793   9.662   7.293 -0.8711  1.8714 -2.2182
  400MOL0     H55167   4.640   9.689   7.380 -0.3523 -0.2919 -0.0871
  400MOL0     H55168   4.820   9.508   7.458 -0.9235 -0.4138  2.4724
  400MOL0     H55169   4.758   9.417   7.316 -3.7239 -1.6356  1.1687
  400MOL0     H55170   4.593   9.335   7.469 -0.1110  1.3271 -1.4673
  400MOL0     H55171   4.518   9.477   7.445 -0.2211 -1.9171 -3.1271
  400MOL0     H55172   4.720   9.445   7.672 -2.5145 -3.2761  2.4172
  400MOL0     H55173   4.608   9.589   7.647 -0.4491 -0.5843  2.8009
  400MOL0     H55174   4.553   9.313   7.736  1.1591  0.1971  2.6208
  400MOL0     H55175   4.423   9.417   7.670 -0.5523 -0.8695  1.5127
  400MOL0     H55176   4.498   9.590   7.851  2.8783  0.9604  1.9892
  400MOL0     H55177   4.616   9.475   7.897  1.6720  4.0965 -1.1316
  400MOL0     H55178   4.392   9.489   8.027  1.2919 -0.9446 -0.2040
  400MOL0     H55179   4.452   9.321   7.989  0.8680 -0.2553 -0.8011
  400MOL0     H55180   4.462   9.583   6.941 -1.2761  0.8177  2.3787
  400MOL0     H55181   4.354   9.423   6.790 -0.1696  1.6607 -0.3394
  400MOL0     H55182   4.287   9.014   6.541  0.5949  2.4177 -0.6795
  400MOL0     H55183   4.108   8.881   6.412 -0.4617  1.4662 -0.2672
  400MOL0     H55184   2.611   7.742   5.790 -0.8487 -0.4102 -0.0934
  400MOL0     H55185   2.552   7.518   5.702  0.7282 -0.8317 -1.6333
  400MOL0     H55186   2.811   7.180   5.394 -1.3183  1.4402  0.0436
  400MOL0     H55187   2.754   6.985   5.265  0.0968 -2.6126 -0.7001
  400MOL0     H55188   2.703   6.595   5.477 -1.4411 -1.4064  0.2309
  400MOL0     H55189   2.541   6.655   5.459 -1.3577  2.3368 -1.3528
  400MOL0     H55190   2.578   6.438   5.370 -1.0387  0.9644  0.0752
  400MOL0     H55191   2.708   6.494   5.264  0.6361  0.8377  0.3465
  400MOL0     H55192   2.480   6.434   5.173 -0.2117 -0.1183 -1.6429
  400MOL0     H55193   2.424   6.605   5.219  1.9899  1.3566  2.5999
  400MOL0     H55194   2.500   6.521   4.987  0.7848 -0.8800 -0.5637
  400MOL0     H55195   2.667   6.516   5.042 -0.9897 -1.4954 -0.6916
  400MOL0     H55196   2.530   6.933   5.028 -2.0315 -0.3983  1.6334
  400MOL0     H55197   2.598   6.796   5.623 -1.1090  0.7880 -0.8911
  400MOL0     H55198   2.652   7.068   5.852  1.1589  0.0664  1.1980
  400MOL0     H55199   2.546   6.931   5.807  0.0670  0.2410 -4.5596
  400MOL0     H55200   2.720   6.904   5.837 -1.3161 -3.5068 -1.3843
  401MOL0     O55201   9.009   8.932   0.456 -0.7369 -0.3155  0.3232
  401MOL0     C55202   8.993   9.005   0.360 -0.1536 -1.2264 -0.4397
  401MOL0     O55203   9.081   9.027   0.262  0.5198 -0.4219 -0.5372
  401MOL0     C55204   9.211   8.980   0.258 -0.2470  1.0110  0.2319
  401MOL0     C55205   9.254   8.857   0.316 -0.3411  0.2983 -0.0324
  401MOL0     C55206   9.391   8.822   0.313  0.1093  0.0102 -0.6224
  401MOL0     C55207   9.482   8.876   0.220  0.4300 -0.9033  0.3419
  401MOL0     O55208   9.603   8.813   0.194  0.4948  0.2374 -0.3774
  401MOL0     C55209   9.625   8.675   0.235  0.3321 -0.7057  0.1237
  401MOL0     C55210   9.754   8.617   0.178 -0.1285 -0.0468 -0.2607
  401MOL0     C55211   9.887   8.701   0.216  0.0155  0.1356  1.0162
  401MOL0     C55212  10.012   8.668   0.134 -0.2808 -0.4334 -0.1625
  401MOL0     C55213  10.078   8.536   0.157  0.2303 -0.4167  0.3341
  401MOL0     C55214  10.148   8.520   0.292  0.0194 -0.2200 -0.1100
  401MOL0     C55215  10.189   8.373   0.318 -0.2935  0.8002  0.1484
  401MOL0     C55216  10.234   8.349   0.463  0.1383 -0.2675  0.1370
  401MOL0     N55217  10.300   8.215   0.474  0.1203  1.3565  0.9596
  401MOL0     C55218  10.436   8.189   0.464  0.2886  0.4402 -0.4702
  401MOL0     C55219  10.448   8.056   0.493  0.2023 -0.0753 -0.0418
  401MOL0     C55220  10.570   7.980   0.493  0.2766  1.2355 -0.0919
  401MOL0     C55221  10.661   8.041   0.592  0.3527 -0.1470 -0.2365
  401MOL0     C55222  10.814   8.012   0.578  0.3679  0.1817 -0.0025
  401MOL0     C55223  10.891   8.061   0.708 -0.2916  1.3151 -0.6856
  401MOL0     O55224  10.851   8.202   0.728  0.5045  0.0685 -0.2512
  401MOL0     C55225  10.943   8.295   0.760 -0.3259 -1.0860  0.7087
  401MOL0     C55226  10.888   8.428   0.793 -0.3790 -0.1439 -0.8840
  401MOL0     C55227  10.956   8.551   0.823  0.8679 -0.3106  0.1713
  401MOL0     C55228  10.875   8.666   0.870 -0.7939  1.0468 -0.5800
  401MOL0     C55229  11.093   8.544   0.821  0.1209 -1.6941  0.8067
  401MOL0     C55230  11.173   8.657   0.845  0.7523  0.0419  0.5256
  401MOL0     O55231  11.274   8.678   0.752 -0.0782 -0.1436  0.6321
  401MOL0     C55232  11.377   8.763   0.772 -0.5620 -0.3038 -0.3500
  401MOL0     C55233  11.508   8.720   0.735 -0.0009  0.1672 -0.1136
  401MOL0     C55234  11.617   8.809   0.728  0.0489  0.7003  0.6982
  401MOL0     C55235  11.599   8.942   0.774  0.3534 -0.1149  0.1941
  401MOL0     O55236  11.710   9.036   0.768  0.4636 -0.1699 -0.0938
  401MOL0     C55237  11.800   9.038   0.655 -0.4753  0.0988 -0.4781
  401MOL0     C55238  11.889   9.160   0.636 -0.4692  0.2276 -0.2041
  401MOL0     C55239  11.981   9.169   0.752 -0.0999  0.4036  0.4955
  401MOL0     C55240  12.102   9.251   0.723 -0.6967 -0.5101  0.1434
  401MOL0     C55241  12.070   9.399   0.691 -0.7775 -0.4475  0.1998
  401MOL0     C55242  12.189   9.490   0.711 -0.3250 -0.7969 -0.3767
  401MOL0     C55243  12.315   9.437   0.636 -0.3941 -0.2670 -0.0842
  401MOL0     C55244  12.445   9.501   0.692 -0.6846  0.1254  0.2430
  401MOL0    Cl55245  12.486   9.449   0.862 -0.0052  0.1940  0.3451
  401MOL0     C55246  11.470   8.987   0.813  0.7394 -0.3340  0.2141
  401MOL0     C55247  11.361   8.901   0.803 -0.2182  0.8003 -0.3028
  401MOL0     O55248  11.165   8.718   0.950 -0.2590  0.3567  0.6787
  401MOL0     C55249  11.155   8.420   0.801 -0.3824  0.5376  0.3839
  401MOL0     C55250  11.083   8.298   0.763  0.5541  0.1582 -0.5020
  401MOL0     N55251  10.319   8.008   0.515  0.2366 -0.1613  0.6851
  401MOL0     N55252  10.231   8.102   0.511 -0.0877 -0.3896  0.2870
  401MOL0     C55253   9.439   8.997   0.157 -0.8866 -0.1934 -0.2833
  401MOL0     C55254   9.314   9.051   0.182 -0.4529  0.0968 -0.5692
  401MOL0     C55255   8.857   9.066   0.334  0.4593  0.3421 -0.0591
  401MOL0     C55256   8.844   9.174   0.239  0.2877  0.2854 -0.2571
  401MOL0     C55257   8.728   9.252   0.225  0.0620 -0.6400  0.1904
  401MOL0     C55258   8.609   9.203   0.282 -0.8875  0.2414 -0.4552
  401MOL0     O55259   8.493   9.276   0.278  1.1933  0.0101 -0.1036
  401MOL0     C55260   8.467   9.331   0.410 -0.0971 -0.1747 -0.0637
  401MOL0     C55261   8.415   9.480   0.381 -0.2679 -0.1121 -0.9084
  401MOL0     C55262   8.288   9.490   0.301 -0.1955 -0.9502  0.6742
  401MOL0     C55263   8.268   9.642   0.260  0.2780  0.8947  0.1590
  401MOL0     C55264   8.348   9.697   0.145  0.9317 -0.4458 -0.5144
  401MOL0     C55265   8.415   9.729   0.050  0.4018  0.1387 -0.3625
  401MOL0     C55266   8.614   9.083   0.362 -0.1448 -0.1526  0.6881
  401MOL0     C55267   8.732   9.016   0.388 -0.0216  0.2736 -0.5182
  401MOL0     C55268   8.736   8.894   0.484 -0.6382  0.5453 -0.5765
  401MOL0     H55269   9.189   8.801   0.383 -2.3749  0.9197 -1.4105
  401MOL0     H55270   9.418   8.742   0.381  0.5114  0.1007 -0.6779
  401MOL0     H55271   9.534   8.619   0.211  0.0924 -0.3804  0.2602
  401MOL0     H55272   9.624   8.682   0.344 -3.5606  3.3097  0.1493
  401MOL0     H55273   9.752   8.515   0.218 -4.5821 -0.3403 -0.6762
  401MOL0     H55274   9.745   8.614   0.069 -0.7488  0.2643 -0.2230
  401MOL0     H55275   9.869   8.808   0.199 -2.4072 -0.3300  0.1228
  401MOL0     H55276   9.900   8.698   0.324  0.3502  0.0611  0.9740
  401MOL0     H55277   9.992   8.690   0.029 -0.2374  2.7237  0.3960
  401MOL0     H55278  10.082   8.746   0.166 -0.1105 -0.5772 -0.1822
  401MOL0     H55279  10.148   8.519   0.075 -3.3329 -1.3720 -2.7805
  401MOL0     H55280  10.004   8.457   0.144 -0.2322  0.1188 -0.3525
  401MOL0     H55281  10.239   8.580   0.295 -0.8938  1.2993 -1.4319
  401MOL0     H55282  10.088   8.564   0.372 -0.1228 -1.0454  0.2456
  401MOL0     H55283  10.273   8.349   0.251 -1.1097  0.6831 -0.8537
  401MOL0     H55284  10.107   8.302   0.310  2.3109 -2.5638  0.9702
  401MOL0     H55285  10.308   8.422   0.496 -1.4388  1.5371 -0.1196
  401MOL0     H55286  10.146   8.366   0.526 -1.5996  1.3810 -2.5560
  401MOL0     H55287  10.511   8.256   0.423 -1.1678  1.4267 -1.6415
  401MOL0     H55288  10.612   7.972   0.393  2.5656 -2.2544  0.9538
  401MOL0     H55289  10.539   7.880   0.525 -0.8804  1.9833  1.2372
  401MOL0     H55290  10.647   8.149   0.577 -2.3231 -0.4254 -0.1472
  401MOL0     H55291  10.622   8.020   0.692  2.2542 -2.3601  0.1001
  401MOL0     H55292  10.831   7.904   0.569 -3.1741 -0.3740 -2.6393
  401MOL0     H55293  10.861   8.054   0.489  3.2420  3.1920  2.6411
  401MOL0     H55294  10.865   8.004   0.797  1.6748 -0.7566 -1.3518
  401MOL0     H55295  10.999   8.051   0.698 -0.2069  1.9897 -0.5034
  401MOL0     H55296  10.782   8.425   0.820  0.3832  0.3536  2.7086
  401MOL0     H55297  10.846   8.635   0.971 -1.7478 -1.9613 -1.6784
  401MOL0     H55298  10.785   8.687   0.811 -2.7664  0.6995  2.1314
  401MOL0     H55299  10.924   8.759   0.901 -2.0131  1.1776  1.0522
  401MOL0     H55300  11.521   8.620   0.697 -3.2382 -0.1606 -0.6682
  401MOL0     H55301  11.718   8.773   0.709  0.1116  0.4226  1.5086
  401MOL0     H55302  11.874   8.958   0.646  2.6131  2.9639 -5.4039
  401MOL0     H55303  11.742   9.038   0.563 -1.4557  0.8824  0.1264
  401MOL0     H55304  11.943   9.153   0.541  0.8646 -0.5575  0.5748
  401MOL0     H55305  11.831   9.253   0.639  0.1726  0.6194  2.2022
  401MOL0     H55306  12.017   9.069   0.779  0.7280 -0.3079 -2.8482
  401MOL0     H55307  11.933   9.223   0.835 -0.6779  2.6099 -1.1900
  401MOL0     H55308  12.146   9.201   0.636 -0.3971  0.5693 -0.3408
  401MOL0     H55309  12.174   9.264   0.805 -1.1906 -0.4057  0.5695
  401MOL0     H55310  12.036   9.418   0.589  3.9904 -0.9039 -1.7341
  401MOL0     H55311  11.996   9.431   0.766  0.5410 -0.1782  1.4170
  401MOL0     H55312  12.222   9.498   0.815  3.8287 -0.8536 -1.4926
  401MOL0     H55313  12.165   9.591   0.676  3.3402  0.0048 -1.0112
  401MOL0     H55314  12.306   9.450   0.528  1.1161 -0.4022 -0.2443
  401MOL0     H55315  12.343   9.334   0.657  2.7626  0.7762  1.4151
  401MOL0     H55316  12.452   9.609   0.674  1.2999  0.2882  1.7345
  401MOL0     H55317  12.533   9.466   0.636  0.2774  0.7733  1.3241
  401MOL0     H55318  11.451   9.090   0.841 -2.1018 -0.1645 -1.8737
  401MOL0     H55319  11.263   8.944   0.824 -0.1019  1.7076 -1.4641
  401MOL0     H55320  11.261   8.401   0.797 -0.4877 -1.6631  3.6998
  401MOL0     H55321  11.156   8.225   0.730  2.5061  2.8076 -2.5589
  401MOL0     H55322   9.511   9.053   0.097  0.3140 -0.5905  0.7372
  401MOL0     H55323   9.272   9.133   0.125  1.0773 -0.0472 -1.9943
  401MOL0     H55324   8.933   9.217   0.195  1.7230 -2.3483 -0.1216
  401MOL0     H55325   8.714   9.336   0.158  3.7968  1.7616  2.1092
  401MOL0     H55326   8.386   9.279   0.462  1.1545 -2.0255  0.1323
  401MOL0     H55327   8.555   9.340   0.474  0.0585  3.4677 -0.5961
  401MOL0     H55328   8.484   9.536   0.318 -0.6128 -0.2982 -1.4598
  401MOL0     H55329   8.416   9.535   0.476  0.4397 -2.3956  0.5141
  401MOL0     H55330   8.289   9.417   0.220  1.1821 -0.0615 -0.1548
  401MOL0     H55331   8.202   9.472   0.367 -1.1116  2.9698  0.7833
  401MOL0     H55332   8.268   9.703   0.351 -1.0141  0.4358  0.4877
  401MOL0     H55333   8.165   9.654   0.226 -0.1926  0.3057  1.2835
  401MOL0     H55334   8.455   9.756  -0.045 -0.7810  2.1098 -0.3581
  401MOL0     H55335   8.519   9.047   0.400  0.9390 -3.1970  0.7773
  401MOL0     H55336   8.635   8.856   0.502 -0.5381  0.0325 -1.0837
  401MOL0     H55337   8.781   8.807   0.436  0.9651  1.4216 -0.7222
  401MOL0     H55338   8.794   8.920   0.573 -0.2626 -0.9842 -0.3464
  402MOL0     O55339  10.486   2.341   2.281 -0.1484 -0.2582  0.4920
  402MOL0     C55340  10.518   2.410   2.379 -0.2994 -0.2640  0.0462
  402MOL0     O55341  10.641   2.481   2.388  0.1851  0.2523  0.4143
  402MOL0     C55342  10.727   2.474   2.282  0.2618  0.6504  0.7581
  402MOL0     C55343  10.716   2.569   2.170 -1.1811 -0.5970 -0.3701
  402MOL0     C55344  10.808   2.566   2.059  0.3395  0.0893  0.4121
  402MOL0     C55345  10.899   2.459   2.066 -0.6869 -0.3955  0.6274
  402MOL0     O55346  10.986   2.441   1.963 -0.7490  0.7682 -0.3134
  402MOL0     C55347  10.963   2.317   1.900  0.1822  0.5012 -0.6357
  402MOL0     C55348  10.981   2.325   1.748 -0.4497 -0.6190  1.0617
  402MOL0     C55349  10.961   2.461   1.690 -0.0050  0.5680 -0.1435
  402MOL0     C55350  10.808   2.502   1.686 -0.7851  0.7464  0.2190
  402MOL0     C55351  10.794   2.645   1.634 -0.2196  0.1035 -0.5159
  402MOL0     C55352  10.650   2.688   1.650  0.6619 -0.5914 -1.3380
  402MOL0     C55353  10.612   2.728   1.800 -0.7104 -0.5144  0.3630
  402MOL0     C55354  10.508   2.843   1.810  0.6493 -0.3763  0.0535
  402MOL0     N55355  10.489   2.891   1.952  0.6763 -0.5272  0.1024
  402MOL0     C55356  10.451   2.802   2.047  0.0083 -0.4013 -0.2849
  402MOL0     C55357  10.433   2.873   2.159 -0.5619  0.1764  0.2296
  402MOL0     C55358  10.406   2.812   2.291  0.4383 -0.1859  0.0749
  402MOL0     C55359  10.398   2.914   2.408  0.9217  0.3542  0.3617
  402MOL0     C55360  10.367   2.843   2.541 -0.7178 -0.0058  0.1100
  402MOL0     C55361  10.332   2.935   2.660  0.5851  0.7127  0.3999
  402MOL0     O55362  10.437   3.031   2.686  0.1628 -0.3869  0.2622
  402MOL0     C55363  10.560   3.001   2.736 -0.9675 -0.2504  0.1691
  402MOL0     C55364  10.578   2.904   2.830 -0.5526  0.1622 -0.1476
  402MOL0     C55365  10.708   2.875   2.870 -0.0314  0.3406 -0.3070
  402MOL0     C55366  10.718   2.758   2.963  0.5803  0.6859  0.3266
  402MOL0     C55367  10.823   2.936   2.822  0.2155 -0.1729  0.1861
  402MOL0     C55368  10.957   2.915   2.877 -0.1656  0.1375  1.0331
  402MOL0     O55369  10.981   2.798   2.937  0.0732  0.0284  0.4650
  402MOL0     C55370  11.110   2.788   2.987  0.8761 -0.7936 -0.0745
  402MOL0     C55371  11.134   2.848   3.113  0.6259  0.7184 -0.5645
  402MOL0     C55372  11.259   2.824   3.165  0.2005 -0.1221  0.6673
  402MOL0     C55373  11.363   2.758   3.093  0.2716 -0.2475 -0.2079
  402MOL0     O55374  11.492   2.737   3.143 -0.2271  0.8963 -0.1835
  402MOL0     C55375  11.558   2.811   3.237 -1.2587 -1.2813  0.5153
  402MOL0     C55376  11.565   2.960   3.206  0.0571 -0.4100  0.7288
  402MOL0     C55377  11.574   3.039   3.344  0.5809  0.1587 -0.2873
  402MOL0     C55378  11.587   3.186   3.299  0.3476 -0.2168  0.3199
  402MOL0     C55379  11.561   3.288   3.413 -0.1883  0.4137 -0.5363
  402MOL0     C55380  11.642   3.260   3.546  0.5083 -0.1618  0.0776
  402MOL0     C55381  11.793   3.288   3.538 -0.8019 -0.6750  0.0456
  402MOL0     C55382  11.874   3.261   3.669  0.5036 -0.2562  0.2284
  402MOL0    Cl55383  12.056   3.269   3.648  0.1046  0.6590  0.2448
  402MOL0     C55384  11.328   2.697   2.975  0.2428 -0.1960 -0.7916
  402MOL0     C55385  11.202   2.714   2.916  0.0917  0.0297 -0.0342
  402MOL0     O55386  11.033   3.018   2.880 -0.1726 -0.3639  0.2158
  402MOL0     C55387  10.801   3.047   2.744  1.1472  0.0051  0.2848
  402MOL0     C55388  10.672   3.078   2.695 -0.0299  0.0621 -0.3687
  402MOL0     N55389  10.487   3.000   2.130 -0.0184  0.0789  0.6395
  402MOL0     N55390  10.519   3.009   2.004 -1.4454 -0.1645  0.2872
  402MOL0     C55391  10.904   2.362   2.164  0.4177  0.4399 -0.5377
  402MOL0     C55392  10.813   2.364   2.274 -0.6674 -0.7560  0.2627
  402MOL0     C55393  10.423   2.422   2.490  0.6909 -1.2367  0.0705
  402MOL0     C55394  10.292   2.421   2.454  0.5341 -1.0058 -0.8225
  402MOL0     C55395  10.193   2.453   2.550 -1.8164  0.1913  1.1084
  402MOL0     C55396  10.223   2.506   2.676  0.8854  0.4617  0.3197
  402MOL0     O55397  10.130   2.550   2.770  1.1354  0.0538  0.1259
  402MOL0     C55398  10.009   2.611   2.715  0.6167 -0.9439 -0.2016
  402MOL0     C55399   9.943   2.707   2.822  0.7665  0.2087  0.6647
  402MOL0     C55400   9.850   2.814   2.760  0.3019 -0.1194 -0.7345
  402MOL0     C55401   9.930   2.935   2.686 -0.0309  0.4797  0.0877
  402MOL0     C55402   9.831   3.030   2.638  0.1064 -0.8939  0.3307
  402MOL0     C55403   9.749   3.120   2.628  1.0188  0.1810 -0.1427
  402MOL0     C55404  10.360   2.504   2.709  0.3289 -0.4901  0.1921
  402MOL0     C55405  10.460   2.464   2.619 -0.0309 -0.5556  0.0333
  402MOL0     C55406  10.591   2.470   2.676 -0.8711  0.0326 -0.1161
  402MOL0     H55407  10.660   2.662   2.158  0.6887  0.5917 -0.3309
  402MOL0     H55408  10.804   2.632   1.974 -1.1144 -0.9244 -0.3527
  402MOL0     H55409  10.856   2.293   1.905  0.2461  0.2678 -0.4455
  402MOL0     H55410  11.025   2.239   1.943 -1.3156  0.1912  1.0960
  402MOL0     H55411  11.080   2.290   1.720 -1.5468 -3.3243  0.2429
  402MOL0     H55412  10.914   2.258   1.693 -0.7740  0.8588 -0.4155
  402MOL0     H55413  11.014   2.534   1.752  0.7874  0.3879 -0.5918
  402MOL0     H55414  11.009   2.465   1.591  1.5228  0.2428  0.5587
  402MOL0     H55415  10.766   2.429   1.616  2.7232  1.1403 -2.5605
  402MOL0     H55416  10.761   2.492   1.784 -1.8826  0.6350 -0.3023
  402MOL0     H55417  10.822   2.670   1.531 -3.8766  2.5322 -1.0982
  402MOL0     H55418  10.862   2.706   1.695 -1.1684  2.0511 -1.3191
  402MOL0     H55419  10.624   2.770   1.582 -2.0869 -0.5202 -0.3435
  402MOL0     H55420  10.578   2.609   1.625 -0.8676  0.5888 -0.8330
  402MOL0     H55421  10.703   2.777   1.837 -1.2725  0.1964  0.8379
  402MOL0     H55422  10.579   2.644   1.862 -3.5391  2.7224  3.7577
  402MOL0     H55423  10.543   2.925   1.746 -0.0252 -0.8681 -0.9786
  402MOL0     H55424  10.415   2.796   1.778 -0.0906  0.5746  0.7459
  402MOL0     H55425  10.439   2.694   2.041  2.5288 -0.7024 -1.2285
  402MOL0     H55426  10.487   2.739   2.304  1.7573  0.5732 -2.9805
  402MOL0     H55427  10.313   2.754   2.290  1.0017 -1.1032 -0.5852
  402MOL0     H55428  10.488   2.971   2.432 -0.8564  1.9442  4.1082
  402MOL0     H55429  10.306   2.972   2.397 -2.2847 -3.7873  2.5071
  402MOL0     H55430  10.284   2.776   2.518 -0.7645 -0.6602  2.0860
  402MOL0     H55431  10.455   2.781   2.562 -0.9394 -0.1592  0.5824
  402MOL0     H55432  10.248   2.999   2.630 -1.2106 -1.4327  0.5821
  402MOL0     H55433  10.306   2.874   2.747 -2.4326  0.4895 -0.5464
  402MOL0     H55434  10.494   2.838   2.849  1.5884 -2.8083 -0.2378
  402MOL0     H55435  10.779   2.787   3.049  0.8920 -0.9283  0.6747
  402MOL0     H55436  10.764   2.668   2.921 -2.0751 -0.1017 -1.1219
  402MOL0     H55437  10.624   2.720   3.004  1.4815  0.2257  2.0725
  402MOL0     H55438  11.055   2.897   3.168  2.4960  1.1875  1.8502
  402MOL0     H55439  11.289   2.865   3.261  0.3897 -1.7947  1.3542
  402MOL0     H55440  11.505   2.795   3.332  0.4761  0.1631  1.8006
  402MOL0     H55441  11.658   2.772   3.255 -1.2427 -0.5692  2.1813
  402MOL0     H55442  11.654   2.974   3.145 -1.3128 -2.2814 -1.8698
  402MOL0     H55443  11.473   2.986   3.153 -1.5232 -0.8037  3.1114
  402MOL0     H55444  11.666   3.008   3.395  2.4321  2.9872 -1.6430
  402MOL0     H55445  11.491   3.016   3.411  1.4823  0.1230  0.8629
  402MOL0     H55446  11.512   3.220   3.227 -0.3343 -0.3992  0.9206
  402MOL0     H55447  11.684   3.214   3.258 -0.5991 -0.6741 -2.4310
  402MOL0     H55448  11.592   3.388   3.382 -0.9303  0.7834 -0.1087
  402MOL0     H55449  11.455   3.292   3.438 -0.4837  2.0715 -1.8279
  402MOL0     H55450  11.632   3.153   3.569 -1.8372 -1.1342 -4.3421
  402MOL0     H55451  11.603   3.328   3.622 -0.7712 -0.3762 -0.3646
  402MOL0     H55452  11.804   3.394   3.510 -1.8443 -1.0210 -1.8786
  402MOL0     H55453  11.845   3.224   3.467  1.5400 -3.3576  3.8325
  402MOL0     H55454  11.841   3.163   3.705  0.3715  0.1473  1.2310
  402MOL0     H55455  11.844   3.335   3.743  2.2035  0.5242  0.1919
  402MOL0     H55456  11.399   2.626   2.933 -1.1412 -0.6561 -2.4987
  402MOL0     H55457  11.181   2.666   2.820 -3.6844 -0.1307  0.6978
  402MOL0     H55458  10.875   3.118   2.710 -0.3727  1.2602 -0.5734
  402MOL0     H55459  10.666   3.165   2.631  2.5401  0.6455  0.0997
  402MOL0     H55460  10.977   2.283   2.149 -1.0516 -0.9393 -0.6745
  402MOL0     H55461  10.822   2.286   2.350  0.1635 -2.2822 -1.3225
  402MOL0     H55462  10.251   2.409   2.354 -4.5795 -1.4361  1.0325
  402MOL0     H55463  10.094   2.445   2.505  0.0911 -2.2984 -3.1703
  402MOL0     H55464  10.040   2.671   2.629 -0.0993 -0.8776 -0.4147
  402MOL0     H55465   9.945   2.538   2.665  1.2180  0.0712 -2.5847
  402MOL0     H55466  10.027   2.745   2.880 -0.3427  2.2976  1.0169
  402MOL0     H55467   9.895   2.639   2.892  0.0223 -1.0529 -0.9878
  402MOL0     H55468   9.769   2.772   2.699  1.7928 -0.4552 -2.6056
  402MOL0     H55469   9.804   2.858   2.848 -2.3126  1.0523 -2.5429
  402MOL0     H55470   9.991   2.909   2.599  0.1458  1.1934 -0.0081
  402MOL0     H55471   9.986   2.981   2.768  0.3400 -2.3344  1.5383
  402MOL0     H55472   9.673   3.195   2.620  0.3218 -0.2009  2.0805
  402MOL0     H55473  10.368   2.538   2.812 -4.3814  1.2723  0.2169
  402MOL0     H55474  10.654   2.558   2.658 -0.1816  0.4045  3.3412
  402MOL0     H55475  10.598   2.459   2.785  3.3933  0.7498 -0.1225
  402MOL0     H55476  10.652   2.394   2.627  1.1056  1.4965 -0.0634
  403MOL0     O55477   1.753   2.364  10.105 -0.6086  0.5559  0.2490
  403MOL0     C55478   1.716   2.426  10.205 -0.8326  1.0386  0.2106
  403MOL0     O55479   1.811   2.473  10.299  0.7299  0.4271  0.5283
  403MOL0     C55480   1.948   2.460  10.272  0.1824 -0.1557  1.0912
  403MOL0     C55481   2.021   2.575  10.261 -0.4436 -0.3969 -0.6178
  403MOL0     C55482   2.156   2.572  10.225  0.0560 -0.0348 -0.7307
  403MOL0     C55483   2.220   2.449  10.236  1.6243  0.2702  1.0024
  403MOL0     O55484   2.352   2.440  10.223 -0.1139  0.4532  0.8782
  403MOL0     C55485   2.447   2.544  10.172  0.0254  0.2035 -1.1444
  403MOL0     C55486   2.436   2.571  10.022 -0.1708 -0.1751 -0.9859
  403MOL0     C55487   2.385   2.468   9.916 -0.6081 -0.1894 -0.2483
  403MOL0     C55488   2.460   2.335   9.892  0.0641 -0.0097  1.3874
  403MOL0     C55489   2.364   2.249   9.813 -0.3285  0.5999 -0.1205
  403MOL0     C55490   2.311   2.313   9.688  0.8454 -0.4517 -0.1242
  403MOL0     C55491   2.226   2.211   9.616  0.1069 -0.2500  0.3017
  403MOL0     C55492   2.242   2.225   9.468 -0.4627  0.0775  0.9573
  403MOL0     N55493   2.147   2.137   9.404 -0.2187 -0.1143  0.5424
  403MOL0     C55494   2.052   2.194   9.311 -0.3000 -0.3894 -0.3033
  403MOL0     C55495   2.010   2.086   9.239  0.8023  0.9174  0.2531
  403MOL0     C55496   1.916   2.071   9.121 -0.4729  0.2904  0.1028
  403MOL0     C55497   1.778   2.103   9.164  0.2857  0.5877 -0.1298
  403MOL0     C55498   1.730   2.005   9.278 -0.7793 -0.2527 -0.7416
  403MOL0     C55499   1.580   2.012   9.303 -0.0784  0.3194 -0.2898
  403MOL0     O55500   1.504   1.956   9.192 -0.1833 -0.2359  0.0831
  403MOL0     C55501   1.366   1.941   9.200  0.4555  0.2893  0.1666
  403MOL0     C55502   1.290   1.889   9.098  0.2752  0.4049  0.4886
  403MOL0     C55503   1.146   1.885   9.103 -1.1145  0.3780 -0.4913
  403MOL0     C55504   1.070   1.829   8.983 -0.1637 -0.2882 -0.6761
  403MOL0     C55505   1.075   1.915   9.218 -0.9806 -0.0097  0.4440
  403MOL0     C55506   0.930   1.897   9.254  0.4721 -0.3755  0.2625
  403MOL0     O55507   0.866   1.789   9.208 -0.3715 -0.6264  0.1468
  403MOL0     C55508   0.743   1.754   9.241  0.7881 -0.4836  0.7407
  403MOL0     C55509   0.636   1.798   9.162 -0.5592  0.4360 -0.2473
  403MOL0     C55510   0.504   1.759   9.183 -0.7283  0.5404  0.2554
  403MOL0     C55511   0.475   1.675   9.297  0.3371  0.4233  0.1595
  403MOL0     O55512   0.351   1.631   9.324  0.1894  1.1583  0.8510
  403MOL0     C55513   0.240   1.675   9.244 -0.8913 -0.0901 -0.3460
  403MOL0     C55514   0.186   1.798   9.297 -0.0003 -0.3752  0.3475
  403MOL0     C55515   0.173   1.815   9.454 -0.2556  0.3904 -0.2464
  403MOL0     C55516   0.104   1.694   9.524  1.1604 -0.1182  0.2010
  403MOL0     C55517   0.092   1.709   9.676 -0.5490  0.2818 -1.1611
  403MOL0     C55518  -0.006   1.816   9.725 -0.1684  0.5747  0.7659
  403MOL0     C55519  -0.009   1.829   9.885  0.3998  0.3510  1.1981
  403MOL0     C55520  -0.047   1.693   9.957 -1.0246 -0.7515  0.1200
  403MOL0    Cl55521  -0.178   1.606   9.887  0.5161 -0.5257 -0.1965
  403MOL0     C55522   0.586   1.625   9.379 -0.8224 -0.1268 -0.5122
  403MOL0     C55523   0.722   1.672   9.350  0.2213  1.4487 -0.0994
  403MOL0     O55524   0.883   1.977   9.336  0.3112 -0.0245 -0.1374
  403MOL0     C55525   1.152   1.966   9.322 -0.7911 -0.6673  0.4178
  403MOL0     C55526   1.297   1.989   9.315  0.0317  0.5295  0.0775
  403MOL0     N55527   2.076   1.970   9.285  0.4328 -0.0207 -0.1890
  403MOL0     N55528   2.153   2.001   9.388  0.1292 -0.3945  0.6840
  403MOL0     C55529   2.152   2.327  10.249 -1.3255 -0.3108 -0.1001
  403MOL0     C55530   2.018   2.336  10.267 -0.6554 -0.1833 -0.0132
  403MOL0     C55531   1.579   2.424  10.238  0.3589 -0.5479 -1.2808
  403MOL0     C55532   1.553   2.404  10.382  0.1110  0.5170  0.5693
  403MOL0     C55533   1.415   2.405  10.427 -0.5396  0.1361  1.0385
  403MOL0     C55534   1.308   2.429  10.338  0.3482 -0.0197  0.2940
  403MOL0     O55535   1.175   2.432  10.361  0.3952 -0.4010  0.1912
  403MOL0     C55536   1.129   2.439  10.496  0.0728  0.5989  0.2994
  403MOL0     C55537   1.156   2.573  10.561 -0.7292 -0.3877 -0.9314
  403MOL0     C55538   1.110   2.698  10.479  0.5932 -0.7062  0.5106
  403MOL0     C55539   1.119   2.825  10.559 -0.1803  0.5174  0.9124
  403MOL0     C55540   1.019   2.833  10.671  0.5794 -0.1523 -0.1081
  403MOL0     C55541   0.953   2.839  10.775  1.0729 -0.6773 -0.9827
  403MOL0     C55542   1.340   2.468  10.206 -0.1263 -0.3344  0.1769
  403MOL0     C55543   1.476   2.474  10.158 -0.6372  0.3579  0.5853
  403MOL0     C55544   1.505   2.548  10.031  0.6082  0.0257  0.6369
  403MOL0     H55545   1.971   2.670  10.274 -4.2226 -2.3041  0.1653
  403MOL0     H55546   2.214   2.663  10.213  1.0118 -0.6292 -0.7246
  403MOL0     H55547   2.548   2.508  10.195 -0.1237 -0.8534 -2.0298
  403MOL0     H55548   2.424   2.636  10.227 -1.1046 -1.2887  1.0137
  403MOL0     H55549   2.357   2.647  10.020 -1.4207 -0.8023  5.1390
  403MOL0     H55550   2.529   2.615   9.985  0.4167 -0.9388 -0.4595
  403MOL0     H55551   2.283   2.439   9.943  0.2871 -3.8464 -0.3744
  403MOL0     H55552   2.390   2.515   9.817  1.5756  2.1955  0.8717
  403MOL0     H55553   2.556   2.333   9.839 -1.0467 -1.1307 -0.6987
  403MOL0     H55554   2.480   2.299   9.994  0.8018  3.7465  2.7422
  403MOL0     H55555   2.282   2.217   9.878  0.0398  0.9183  0.5072
  403MOL0     H55556   2.422   2.162   9.779 -0.9009 -0.9348  2.5117
  403MOL0     H55557   2.251   2.399   9.719  0.8634 -0.6722  0.5414
  403MOL0     H55558   2.395   2.348   9.627  1.3204  0.4284  1.0044
  403MOL0     H55559   2.118   2.219   9.634  0.0008 -0.6797 -0.1280
  403MOL0     H55560   2.254   2.112   9.652 -0.8275 -0.2020  1.2130
  403MOL0     H55561   2.213   2.325   9.435 -0.7287 -0.0974  0.6575
  403MOL0     H55562   2.346   2.208   9.437 -1.1635 -1.1290 -0.8969
  403MOL0     H55563   2.020   2.297   9.306  0.4409 -0.1628 -0.4752
  403MOL0     H55564   1.932   1.974   9.072 -0.6137  0.5024 -0.3662
  403MOL0     H55565   1.954   2.136   9.041  0.7056  1.8465  1.8561
  403MOL0     H55566   1.778   2.209   9.188 -0.7460  0.5221  0.2333
  403MOL0     H55567   1.711   2.066   9.085  0.4224  0.7763 -0.3318
  403MOL0     H55568   1.754   1.899   9.261 -2.5432 -0.8201  0.1055
  403MOL0     H55569   1.780   2.045   9.366  0.4277 -0.4106 -1.3277
  403MOL0     H55570   1.553   1.958   9.395  1.5210  2.0341  1.2835
  403MOL0     H55571   1.559   2.117   9.324  1.0322  0.4350  0.3069
  403MOL0     H55572   1.347   1.870   9.008 -0.9441 -0.7295 -0.0846
  403MOL0     H55573   0.995   1.753   9.009 -1.0984 -0.8598 -4.3822
  403MOL0     H55574   1.124   1.771   8.907  0.8642 -0.7970  0.4225
  403MOL0     H55575   1.003   1.905   8.940 -3.9009 -2.4548  0.7776
  403MOL0     H55576   0.660   1.866   9.081  1.1897 -1.1591 -1.1391
  403MOL0     H55577   0.426   1.805   9.123 -1.1901 -0.9841 -0.3633
  403MOL0     H55578   0.261   1.680   9.137 -0.3732 -3.2548 -0.4928
  403MOL0     H55579   0.158   1.604   9.259 -2.2549  1.8378  2.1866
  403MOL0     H55580   0.248   1.884   9.269 -1.6421  0.5077 -0.7493
  403MOL0     H55581   0.085   1.814   9.257  0.0585 -1.0805 -0.0958
  403MOL0     H55582   0.126   1.913   9.461  0.4055  0.6999 -0.0806
  403MOL0     H55583   0.273   1.818   9.498 -1.0294 -0.6632  1.7190
  403MOL0     H55584   0.160   1.601   9.511  1.7496  0.1198  0.9700
  403MOL0     H55585   0.006   1.685   9.476  0.5895 -0.4097  1.3807
  403MOL0     H55586   0.058   1.616   9.722  0.0977  0.1623 -0.9000
  403MOL0     H55587   0.190   1.730   9.720  0.2796 -1.9034 -1.8213
  403MOL0     H55588  -0.103   1.801   9.676  2.0524 -0.7404 -3.7525
  403MOL0     H55589   0.032   1.911   9.686  1.3688 -1.0154 -1.9229
  403MOL0     H55590  -0.084   1.897   9.926 -3.4249 -2.0976 -1.0805
  403MOL0     H55591   0.092   1.859   9.917  1.0990 -2.3590  1.8155
  403MOL0     H55592  -0.083   1.715  10.058 -0.1542  0.1437  0.2519
  403MOL0     H55593   0.040   1.626   9.960 -1.2676 -1.0484  0.8870
  403MOL0     H55594   0.571   1.543   9.448  2.0370 -0.2571  0.0703
  403MOL0     H55595   0.803   1.622   9.402 -0.7857  1.6292  1.7111
  403MOL0     H55596   1.099   1.989   9.414  0.1065 -4.1099  1.9799
  403MOL0     H55597   1.347   2.038   9.397  1.5835 -3.7376  1.9281
  403MOL0     H55598   2.200   2.229  10.249  2.2373  1.1730 -3.3460
  403MOL0     H55599   1.960   2.245  10.283 -1.3098 -0.3178 -2.7501
  403MOL0     H55600   1.631   2.365  10.447 -0.0936  0.7527  0.9613
  403MOL0     H55601   1.395   2.371  10.528 -2.2973 -0.5081  0.5045
  403MOL0     H55602   1.020   2.434  10.486 -0.3146  4.2076  1.2601
  403MOL0     H55603   1.171   2.353  10.550 -0.4357  0.3162  0.2540
  403MOL0     H55604   1.261   2.571  10.590 -0.5071  2.1220 -1.3459
  403MOL0     H55605   1.101   2.584  10.655 -1.5411  0.2963 -1.4689
  403MOL0     H55606   1.174   2.706  10.390  0.8531  1.0264  0.8225
  403MOL0     H55607   1.006   2.687  10.447  0.7656 -0.9742  0.0282
  403MOL0     H55608   1.101   2.905  10.487  0.0085  2.8970  3.3808
  403MOL0     H55609   1.220   2.830  10.602  1.0789 -0.6129 -1.6573
  403MOL0     H55610   0.898   2.838  10.867 -0.8023  0.6826 -2.0105
  403MOL0     H55611   1.258   2.506  10.146  0.3512  0.6533  0.1319
  403MOL0     H55612   1.506   2.475   9.950 -0.6079 -2.2812  2.5817
  403MOL0     H55613   1.412   2.600  10.008 -0.7516 -2.1047  1.0129
  403MOL0     H55614   1.601   2.601  10.032  0.4225  0.6282 -2.5887
  404MOL0     O55615   7.001   3.402   3.413  0.2163 -0.2545  0.2222
  404MOL0     C55616   7.087   3.330   3.461  0.3188  1.3919 -0.3776
  404MOL0     O55617   7.065   3.207   3.515  0.0006  0.0728 -0.1131
  404MOL0     C55618   6.942   3.179   3.542 -0.2367 -0.1113  0.6963
  404MOL0     C55619   6.900   3.168   3.671  0.5622 -0.1978  0.2303
  404MOL0     C55620   6.782   3.112   3.711 -0.5401 -0.5703  0.3698
  404MOL0     C55621   6.698   3.059   3.614 -0.2770  0.4265 -0.1977
  404MOL0     O55622   6.582   2.996   3.643  0.7585  0.3695 -0.3888
  404MOL0     C55623   6.531   2.989   3.781 -0.5681  0.9086 -0.6119
  404MOL0     C55624   6.413   2.902   3.780 -0.9527 -0.3370  0.0100
  404MOL0     C55625   6.275   2.949   3.731 -0.0108 -0.2212 -0.1989
  404MOL0     C55626   6.175   2.833   3.747 -0.3936  0.9915 -0.0558
  404MOL0     C55627   6.035   2.873   3.705  0.7836  0.5325 -0.2261
  404MOL0     C55628   6.016   2.897   3.557  0.2988 -0.4766  0.3182
  404MOL0     C55629   6.012   2.774   3.470 -0.1518  0.0812  0.4144
  404MOL0     C55630   5.891   2.693   3.465 -0.0751 -0.6764  0.0626
  404MOL0     N55631   5.892   2.582   3.369  0.4954  0.2429  0.0901
  404MOL0     C55632   5.849   2.596   3.239  0.1195 -0.0331 -0.6100
  404MOL0     C55633   5.853   2.474   3.182  0.6065 -0.1379 -0.3741
  404MOL0     C55634   5.807   2.415   3.050 -0.1231 -0.6037  0.5965
  404MOL0     C55635   5.915   2.329   2.993 -0.1533 -0.0185 -0.3701
  404MOL0     C55636   5.879   2.256   2.856  0.1890 -0.5693 -0.1890
  404MOL0     C55637   6.002   2.195   2.794  0.3775  0.1931  0.5768
  404MOL0     O55638   5.960   2.163   2.665  0.2501  0.5472 -0.0510
  404MOL0     C55639   6.043   2.181   2.553 -0.2898  0.5748 -0.4423
  404MOL0     C55640   5.991   2.206   2.432  0.1862 -0.8020 -0.3674
  404MOL0     C55641   6.075   2.244   2.327 -0.2883  0.0147  0.2772
  404MOL0     C55642   6.001   2.289   2.206  0.4748 -0.3820 -0.2810
  404MOL0     C55643   6.214   2.220   2.332  0.2578  0.2616 -1.1627
  404MOL0     C55644   6.298   2.236   2.219  0.0769  0.4286 -0.2352
  404MOL0     O55645   6.388   2.138   2.201  0.2879  0.6775 -1.2227
  404MOL0     C55646   6.480   2.134   2.094 -0.6761 -0.1987  0.2527
  404MOL0     C55647   6.517   2.011   2.041 -0.6833  0.7081 -0.1541
  404MOL0     C55648   6.620   1.992   1.944  0.2980  0.1262  0.7940
  404MOL0     C55649   6.707   2.101   1.903  0.6722  0.9973 -1.2691
  404MOL0     O55650   6.791   2.093   1.793 -0.2307  0.5417  0.4077
  404MOL0     C55651   6.870   1.973   1.790 -0.1294  0.0897  0.7191
  404MOL0     C55652   7.010   2.003   1.742  1.1556 -0.6663  1.1257
  404MOL0     C55653   7.110   1.886   1.748  0.6853 -0.2252  0.2419
  404MOL0     C55654   7.258   1.924   1.754  0.2679 -0.3579  0.2340
  404MOL0     C55655   7.358   1.809   1.720 -0.0708  0.2539  0.0119
  404MOL0     C55656   7.333   1.689   1.809 -0.4768  0.2032 -0.2792
  404MOL0     C55657   7.371   1.717   1.955 -0.5195  0.8830 -0.9951
  404MOL0     C55658   7.381   1.585   2.031 -0.1098 -0.5444  0.1778
  404MOL0    Cl55659   7.518   1.492   1.971  0.4548  0.3743  0.0412
  404MOL0     C55660   6.669   2.231   1.945 -0.0050  0.3806 -0.6151
  404MOL0     C55661   6.568   2.244   2.052 -0.0981  0.4165  0.8387
  404MOL0     O55662   6.271   2.325   2.148 -0.5627  0.2961  0.7073
  404MOL0     C55663   6.263   2.182   2.458 -0.5151 -0.8050  0.4955
  404MOL0     C55664   6.183   2.170   2.568  0.6640  0.3042 -0.4207
  404MOL0     N55665   5.898   2.391   3.281 -0.1256  0.4208  0.3984
  404MOL0     N55666   5.930   2.454   3.389 -0.7739  0.1875  0.3263
  404MOL0     C55667   6.729   3.081   3.483  0.3584  0.5962  0.7323
  404MOL0     C55668   6.850   3.142   3.446  1.3228 -0.7060  0.5962
  404MOL0     C55669   7.226   3.371   3.445 -0.5581 -0.3472 -0.1362
  404MOL0     C55670   7.309   3.379   3.566  0.4617  0.3303 -0.3766
  404MOL0     C55671   7.443   3.413   3.565 -0.5191 -0.1876  0.4579
  404MOL0     C55672   7.510   3.432   3.438 -0.1509 -0.5867 -0.3718
  404MOL0     O55673   7.640   3.470   3.414 -0.2664  0.0261  0.0610
  404MOL0     C55674   7.717   3.524   3.527 -1.0022 -0.6733 -0.0607
  404MOL0     C55675   7.827   3.604   3.470  0.2600 -0.0486  0.3910
  404MOL0     C55676   7.928   3.509   3.393  0.6545  0.2100  0.3626
  404MOL0     C55677   8.065   3.566   3.382 -0.2914 -0.0250 -0.3325
  404MOL0     C55678   8.074   3.710   3.352  0.3756  0.5570  0.4979
  404MOL0     C55679   8.089   3.832   3.342  0.0559 -0.0221  0.0665
  404MOL0     C55680   7.428   3.433   3.323 -0.2185  0.1165  0.3909
  404MOL0     C55681   7.289   3.401   3.325 -0.1036  0.3805 -0.2292
  404MOL0     C55682   7.215   3.373   3.192 -0.3024 -0.5722  1.1882
  404MOL0     H55683   6.955   3.210   3.755  1.2000 -0.7719  0.1133
  404MOL0     H55684   6.756   3.117   3.816  0.7739  2.1937  0.6651
  404MOL0     H55685   6.509   3.084   3.830 -0.0405  0.1184  1.2803
  404MOL0     H55686   6.613   2.942   3.838 -1.2082  0.3957 -0.0912
  404MOL0     H55687   6.444   2.810   3.730  0.4683  0.8000 -1.3108
  404MOL0     H55688   6.402   2.865   3.882 -3.3535  2.3819  0.8694
  404MOL0     H55689   6.247   3.034   3.794 -0.0781 -0.0523 -0.4525
  404MOL0     H55690   6.283   2.981   3.626  1.1588  3.1930  0.7975
  404MOL0     H55691   6.217   2.752   3.687  0.0551  0.2796  1.1955
  404MOL0     H55692   6.169   2.789   3.847 -0.1366  2.4740  0.6520
  404MOL0     H55693   5.999   2.955   3.767  0.1314 -0.6700  1.0329
  404MOL0     H55694   5.973   2.788   3.734 -0.4692  1.6219  0.3797
  404MOL0     H55695   5.921   2.948   3.540 -1.0098 -2.7937  0.2937
  404MOL0     H55696   6.102   2.952   3.519  1.0962 -3.4591 -2.6421
  404MOL0     H55697   6.096   2.708   3.492  1.6581  1.8405 -0.8905
  404MOL0     H55698   6.025   2.817   3.370 -1.9499 -0.7602 -0.2196
  404MOL0     H55699   5.892   2.654   3.567 -0.7621 -0.6619  0.0791
  404MOL0     H55700   5.805   2.759   3.451  0.1244 -0.6263 -1.0500
  404MOL0     H55701   5.808   2.687   3.197  0.5560  0.3268 -0.2630
  404MOL0     H55702   5.789   2.499   2.982 -1.5656 -2.1008 -0.9672
  404MOL0     H55703   5.714   2.357   3.056 -1.7693  1.8449  0.1327
  404MOL0     H55704   5.997   2.400   2.979 -0.3442  0.0812 -1.0102
  404MOL0     H55705   5.936   2.241   3.055 -0.2516 -1.1040 -1.8295
  404MOL0     H55706   5.796   2.187   2.872 -1.7442  1.4407 -1.0103
  404MOL0     H55707   5.844   2.343   2.799 -3.3492 -2.0527 -0.4950
  404MOL0     H55708   6.084   2.265   2.811  0.0849  0.2161  2.0734
  404MOL0     H55709   6.033   2.108   2.854  0.3147  1.3377  2.3583
  404MOL0     H55710   5.884   2.193   2.420 -0.3443  0.4554  2.3253
  404MOL0     H55711   6.010   2.220   2.122 -0.0478  0.3220 -0.9312
  404MOL0     H55712   6.033   2.387   2.170 -1.9498  0.2947 -0.7872
  404MOL0     H55713   5.893   2.303   2.220  0.8555  3.5031 -0.2360
  404MOL0     H55714   6.457   1.926   2.074 -0.2758  0.4985  0.0504
  404MOL0     H55715   6.639   1.888   1.918 -0.0691 -0.0132  1.0632
  404MOL0     H55716   6.866   1.907   1.877 -2.2401 -1.6138 -0.5458
  404MOL0     H55717   6.830   1.908   1.711  0.9126  2.3244 -1.8089
  404MOL0     H55718   7.014   2.048   1.643  2.8919  1.2457  1.9766
  404MOL0     H55719   7.045   2.080   1.812  1.7376 -1.3971  1.6553
  404MOL0     H55720   7.081   1.840   1.654 -2.1847  2.6153 -0.4270
  404MOL0     H55721   7.081   1.818   1.828 -0.1748  0.9662  0.9797
  404MOL0     H55722   7.272   1.962   1.855 -1.7522  3.1173 -0.6456
  404MOL0     H55723   7.284   2.004   1.684  0.7822 -0.6413  0.0912
  404MOL0     H55724   7.330   1.785   1.617  0.9903  2.2174 -0.7990
  404MOL0     H55725   7.462   1.841   1.719  0.4190 -1.2656 -0.0122
  404MOL0     H55726   7.396   1.605   1.777  0.0897  0.2229  0.7496
  404MOL0     H55727   7.227   1.666   1.800 -0.7971  1.9822 -1.4268
  404MOL0     H55728   7.299   1.786   1.999 -2.6188 -1.6741 -0.1238
  404MOL0     H55729   7.469   1.765   1.951  0.2968 -0.4895  0.9417
  404MOL0     H55730   7.287   1.532   2.018  0.1633 -0.8177 -0.7317
  404MOL0     H55731   7.394   1.612   2.137 -1.8665  1.3213 -0.0361
  404MOL0     H55732   6.710   2.325   1.909  2.6572  0.4356  2.1272
  404MOL0     H55733   6.556   2.345   2.091  0.8089  0.6069  0.6680
  404MOL0     H55734   6.369   2.176   2.477  0.6779  2.7269 -3.5367
  404MOL0     H55735   6.221   2.157   2.669  1.1879  0.1561 -0.6323
  404MOL0     H55736   6.662   3.046   3.405 -1.3899 -1.0693  2.8314
  404MOL0     H55737   6.875   3.158   3.342  0.2811 -0.8496  0.3126
  404MOL0     H55738   7.258   3.341   3.654  0.3404 -3.6771 -1.9783
  404MOL0     H55739   7.493   3.428   3.661 -0.1816  0.3822  0.2029
  404MOL0     H55740   7.652   3.592   3.584 -1.5743 -0.6557 -0.7244
  404MOL0     H55741   7.762   3.450   3.594  3.0841 -0.3672 -2.1673
  404MOL0     H55742   7.886   3.663   3.540  3.2113 -1.3475 -0.8319
  404MOL0     H55743   7.790   3.680   3.400  1.6729  0.4802  0.1958
  404MOL0     H55744   7.936   3.414   3.447  0.3942 -0.3018 -0.4652
  404MOL0     H55745   7.889   3.502   3.291 -0.3821  2.2248  0.5747
  404MOL0     H55746   8.122   3.508   3.308 -2.7144 -2.9162 -0.1177
  404MOL0     H55747   8.116   3.551   3.477  0.8538 -2.0800 -1.2000
  404MOL0     H55748   8.090   3.939   3.336  0.4460  0.0285  0.8991
  404MOL0     H55749   7.474   3.456   3.227 -1.3860  1.2028  0.0598
  404MOL0     H55750   7.158   3.280   3.196  0.9713 -1.3571  2.2350
  404MOL0     H55751   7.161   3.466   3.170  3.6218  1.5876 -0.5671
  404MOL0     H55752   7.287   3.364   3.110 -0.7710  0.5393  0.6350
  405MOL0     O55753   2.583   7.518   0.062 -0.3384 -0.7077  0.8828
  405MOL0     C55754   2.518   7.606   0.000 -0.8423  0.2659 -0.3248
  405MOL0     O55755   2.546   7.651  -0.118  0.6185  0.6656  0.4617
  405MOL0     C55756   2.636   7.587  -0.195  0.5902 -0.5121  1.1400
  405MOL0     C55757   2.590   7.501  -0.303  0.0778  0.2684 -0.1067
  405MOL0     C55758   2.679   7.435  -0.385 -0.9182 -0.4368  0.9040
  405MOL0     C55759   2.818   7.455  -0.372  0.5398 -1.3925 -1.0320
  405MOL0     O55760   2.894   7.392  -0.462  0.1107 -0.7611  0.3434
  405MOL0     C55761   3.027   7.423  -0.495 -0.2863 -0.1803  0.1081
  405MOL0     C55762   3.125   7.357  -0.388  0.4872 -0.0245  0.1043
  405MOL0     C55763   3.243   7.297  -0.459 -0.2608  0.9001 -0.4078
  405MOL0     C55764   3.319   7.199  -0.362 -0.1096 -0.5914  1.4338
  405MOL0     C55765   3.450   7.136  -0.393 -0.2267  0.0491  0.0826
  405MOL0     C55766   3.493   7.040  -0.276  0.1672  0.3566  0.3498
  405MOL0     C55767   3.624   6.970  -0.295 -1.0090  0.5482 -0.1651
  405MOL0     C55768   3.747   7.066  -0.327 -1.0851  0.0813  0.0065
  405MOL0     N55769   3.772   7.151  -0.211 -0.9620  0.2934 -0.8150
  405MOL0     C55770   3.823   7.111  -0.085 -0.3395 -0.4569 -0.2016
  405MOL0     C55771   3.797   7.206   0.003  0.4717  0.0763  0.2059
  405MOL0     C55772   3.819   7.183   0.154  0.2135  0.0899  0.2233
  405MOL0     C55773   3.814   7.314   0.241 -0.5097 -0.0732  0.4438
  405MOL0     C55774   3.670   7.379   0.267  0.8453  0.1510  0.6759
  405MOL0     C55775   3.678   7.530   0.302 -0.2811  0.2463  0.3887
  405MOL0     O55776   3.669   7.557   0.440  0.2577  0.1737 -0.0099
  405MOL0     C55777   3.548   7.588   0.498 -0.3037  0.6325  0.9013
  405MOL0     C55778   3.452   7.682   0.454 -0.8849  0.1502  0.2815
  405MOL0     C55779   3.335   7.700   0.531 -0.0627  0.0919  0.2410
  405MOL0     C55780   3.233   7.796   0.476 -0.3397 -0.2507  0.1866
  405MOL0     C55781   3.315   7.637   0.656 -0.8877 -0.1788  0.2287
  405MOL0     C55782   3.206   7.666   0.751 -0.2553  0.7343 -0.2387
  405MOL0     O55783   3.199   7.577   0.855  0.5047  0.3870  0.1267
  405MOL0     C55784   3.098   7.600   0.940 -0.3782  0.2263  0.4476
  405MOL0     C55785   3.133   7.601   1.073  0.3219  0.1723  0.0923
  405MOL0     C55786   3.031   7.624   1.170 -0.3880  0.0799 -0.0038
  405MOL0     C55787   2.899   7.634   1.138 -0.9964 -0.4293 -0.2069
  405MOL0     O55788   2.815   7.670   1.240  0.5455  0.2942 -0.1639
  405MOL0     C55789   2.682   7.616   1.241 -0.1673  0.8087 -0.3824
  405MOL0     C55790   2.592   7.670   1.347 -0.3301 -0.1263 -0.3965
  405MOL0     C55791   2.474   7.577   1.385 -0.8531 -0.3886  0.6546
  405MOL0     C55792   2.382   7.623   1.499 -0.1978  0.8383  0.5386
  405MOL0     C55793   2.318   7.498   1.566  0.4665 -0.0726  0.0866
  405MOL0     C55794   2.382   7.467   1.699  0.3124  0.1111 -0.2510
  405MOL0     C55795   2.322   7.348   1.772  0.3916 -0.6642 -0.3555
  405MOL0     C55796   2.399   7.319   1.904  0.3323  0.3936  0.3704
  405MOL0    Cl55797   2.400   7.458   2.002 -0.1033  0.2383 -0.4367
  405MOL0     C55798   2.863   7.624   0.999  0.9659  0.0844 -0.3880
  405MOL0     C55799   2.964   7.603   0.900 -0.3416  0.2335 -0.2816
  405MOL0     O55800   3.142   7.768   0.733  0.1289 -0.7914 -0.4056
  405MOL0     C55801   3.422   7.560   0.700  0.3930 -0.6225  0.0770
  405MOL0     C55802   3.533   7.533   0.626 -1.4250  0.0509 -0.7260
  405MOL0     N55803   3.729   7.310  -0.069 -0.7158 -0.7025  0.2914
  405MOL0     N55804   3.700   7.266  -0.187  0.3002  0.8821 -0.4674
  405MOL0     C55805   2.859   7.546  -0.270 -0.4907 -0.5327 -0.1563
  405MOL0     C55806   2.768   7.604  -0.175  0.0401 -0.2154  0.2568
  405MOL0     C55807   2.409   7.665   0.077 -0.2693  0.4833  0.3688
  405MOL0     C55808   2.343   7.578   0.162  0.3469  0.0860  0.4975
  405MOL0     C55809   2.237   7.616   0.241  0.4206 -0.8687 -0.6812
  405MOL0     C55810   2.199   7.751   0.238  0.0979  0.4124 -0.4993
  405MOL0     O55811   2.092   7.793   0.306 -0.9276 -0.3122 -0.7416
  405MOL0     C55812   1.993   7.690   0.334 -1.1091  0.1432 -0.0762
  405MOL0     C55813   1.862   7.752   0.381  0.8012  0.2201  0.4989
  405MOL0     C55814   1.817   7.878   0.310  0.0242 -1.1346  1.1868
  405MOL0     C55815   1.707   7.954   0.391  0.1102  0.5928 -1.0097
  405MOL0     C55816   1.651   8.051   0.294  0.1578 -0.8763  0.4634
  405MOL0     C55817   1.618   8.138   0.211 -0.1462  0.5106  0.9491
  405MOL0     C55818   2.258   7.837   0.154 -0.2294  0.3548  0.4297
  405MOL0     C55819   2.362   7.797   0.069  0.9449 -0.1068 -0.7690
  405MOL0     C55820   2.430   7.907  -0.012  0.1165  0.2400 -0.9823
  405MOL0     H55821   2.484   7.476  -0.298  0.2307 -0.2744  0.8953
  405MOL0     H55822   2.633   7.369  -0.458 -0.0258 -0.0432 -0.0384
  405MOL0     H55823   3.032   7.532  -0.499  1.1270 -0.2594 -1.8885
  405MOL0     H55824   3.044   7.383  -0.596 -0.7621 -1.8500  0.6603
  405MOL0     H55825   3.146   7.426  -0.306 -0.2260 -2.0232  2.0777
  405MOL0     H55826   3.077   7.266  -0.351  0.6281 -0.3820 -0.5823
  405MOL0     H55827   3.206   7.232  -0.539 -1.4194 -0.0673  0.8663
  405MOL0     H55828   3.311   7.375  -0.495  0.6929  1.2955  2.0313
  405MOL0     H55829   3.343   7.260  -0.274 -3.7954 -0.3325  2.4161
  405MOL0     H55830   3.259   7.109  -0.341 -0.7106 -1.7465 -3.8705
  405MOL0     H55831   3.523   7.217  -0.403  0.7283 -0.4217  2.5634
  405MOL0     H55832   3.460   7.064  -0.475  0.9085 -0.7847  0.9173
  405MOL0     H55833   3.490   7.104  -0.188  0.8751  2.5524 -1.1342
  405MOL0     H55834   3.424   6.957  -0.260  1.6804 -0.6665  1.9019
  405MOL0     H55835   3.624   6.894  -0.373 -0.4108 -0.9425  1.2361
  405MOL0     H55836   3.652   6.913  -0.206  1.1571  1.9602  0.1381
  405MOL0     H55837   3.836   7.005  -0.342  0.1646  1.0626  2.7732
  405MOL0     H55838   3.736   7.124  -0.419  2.8137 -0.1109 -0.7727
  405MOL0     H55839   3.870   7.016  -0.062  0.4093 -0.0382  0.0313
  405MOL0     H55840   3.908   7.123   0.174  1.2628  1.6587  0.4389
  405MOL0     H55841   3.732   7.127   0.191  0.8871 -0.7663  0.5347
  405MOL0     H55842   3.857   7.290   0.338  1.9542 -1.4308 -0.8729
  405MOL0     H55843   3.878   7.387   0.191  2.3086 -1.4077  1.8948
  405MOL0     H55844   3.614   7.375   0.174  2.2462 -0.3677 -0.1717
  405MOL0     H55845   3.613   7.319   0.339  0.8332 -1.8653 -0.9409
  405MOL0     H55846   3.777   7.561   0.268 -0.4165 -2.0726 -2.5956
  405MOL0     H55847   3.602   7.586   0.246 -0.8890 -0.6355  0.3028
  405MOL0     H55848   3.478   7.754   0.377 -0.6737 -0.6442 -0.4073
  405MOL0     H55849   3.227   7.889   0.533  2.2435  0.7276 -0.9654
  405MOL0     H55850   3.140   7.739   0.473  0.6130 -1.8920  0.2988
  405MOL0     H55851   3.262   7.831   0.376 -2.7132  1.2576 -0.0483
  405MOL0     H55852   3.238   7.599   1.102  0.6943  0.4001 -1.1744
  405MOL0     H55853   3.064   7.628   1.274 -2.5356  0.6608  0.6954
  405MOL0     H55854   2.625   7.626   1.148 -0.6741  0.6603 -0.0937
  405MOL0     H55855   2.689   7.509   1.260 -1.9982  0.8016  0.4465
  405MOL0     H55856   2.656   7.686   1.435 -0.6562 -1.0041  0.0071
  405MOL0     H55857   2.540   7.761   1.315 -0.4051 -0.2697 -0.6877
  405MOL0     H55858   2.522   7.487   1.423  0.9380  0.7072  1.0954
  405MOL0     H55859   2.422   7.557   1.290  0.4541  0.0060 -0.1740
  405MOL0     H55860   2.308   7.697   1.467 -1.3812  0.9694  3.2711
  405MOL0     H55861   2.441   7.681   1.571  1.9189  0.6407 -0.9339
  405MOL0     H55862   2.210   7.508   1.584 -0.0856 -0.8577 -2.4824
  405MOL0     H55863   2.335   7.413   1.500  3.6555  0.4795  0.0372
  405MOL0     H55864   2.375   7.554   1.765  3.0271 -0.2054  0.6163
  405MOL0     H55865   2.490   7.459   1.684  0.1946  2.0420 -2.6637
  405MOL0     H55866   2.319   7.265   1.701  1.2981  0.6769 -2.0386
  405MOL0     H55867   2.220   7.370   1.806  1.0031 -0.0445  1.1434
  405MOL0     H55868   2.502   7.284   1.894 -0.5482 -2.5113  0.5897
  405MOL0     H55869   2.342   7.242   1.957  2.4043 -2.2327 -1.0182
  405MOL0     H55870   2.759   7.617   0.968  0.9350 -2.8342  0.0996
  405MOL0     H55871   2.935   7.576   0.799 -2.9207  0.3594  0.3437
  405MOL0     H55872   3.406   7.509   0.794  0.9519 -0.0792  0.4753
  405MOL0     H55873   3.603   7.459   0.664 -1.7275  0.5000  0.7611
  405MOL0     H55874   2.962   7.578  -0.260 -1.5988  2.8552  1.8557
  405MOL0     H55875   2.796   7.664  -0.089 -0.9259 -0.6430  0.8950
  405MOL0     H55876   2.373   7.474   0.176 -0.4003  0.1388  2.9686
  405MOL0     H55877   2.195   7.543   0.310  3.5691  1.3090  4.0746
  405MOL0     H55878   1.954   7.638   0.246  2.5745  0.3611 -2.0172
  405MOL0     H55879   2.025   7.619   0.411 -2.5898  1.0928  1.4820
  405MOL0     H55880   1.872   7.776   0.488  1.5727 -3.2366  1.3318
  405MOL0     H55881   1.791   7.669   0.376  0.9048  0.1741 -4.0059
  405MOL0     H55882   1.900   7.942   0.279 -2.9929  2.0731 -0.9667
  405MOL0     H55883   1.783   7.839   0.214  1.4392 -2.0916  1.0440
  405MOL0     H55884   1.757   8.005   0.474  0.3775 -0.3028 -0.6061
  405MOL0     H55885   1.635   7.881   0.430  1.0343 -1.6868 -3.2591
  405MOL0     H55886   1.596   8.202   0.128  0.3330 -1.5641 -0.8652
  405MOL0     H55887   2.218   7.938   0.150  0.6665  0.7247 -3.7915
  405MOL0     H55888   2.369   7.901  -0.103  1.3902  1.3548 -1.9498
  405MOL0     H55889   2.430   8.006   0.035  2.2605  1.0111 -2.4416
  405MOL0     H55890   2.532   7.875  -0.033 -0.9889 -2.1119 -3.2612
  406MOL0     O55891   4.924  11.408   2.715 -0.4109 -0.6071  0.8948
  406MOL0     C55892   4.831  11.346   2.769 -0.0296  0.1322  0.5586
  406MOL0     O55893   4.844  11.258   2.873  0.6955 -0.2048  0.3814
  406MOL0     C55894   4.965  11.245   2.940 -0.1439 -0.5000  0.4331
  406MOL0     C55895   4.955  11.258   3.080 -0.3665 -1.5246  0.2937
  406MOL0     C55896   5.073  11.257   3.158  0.7054  0.0759 -0.4266
  406MOL0     C55897   5.198  11.232   3.105 -0.0991  0.1544 -0.3564
  406MOL0     O55898   5.310  11.227   3.180 -1.2388 -1.0868 -0.1653
  406MOL0     C55899   5.318  11.252   3.326 -0.6634  0.6072  0.5309
  406MOL0     C55900   5.454  11.226   3.396 -0.7659  0.4185  1.2828
  406MOL0     C55901   5.502  11.080   3.381  0.4300  0.0327 -0.5499
  406MOL0     C55902   5.653  11.053   3.409  0.6916 -0.2316 -0.1658
  406MOL0     C55903   5.679  10.906   3.376 -0.4022 -0.0446  0.4498
  406MOL0     C55904   5.619  10.810   3.476 -0.5046 -0.0152  0.0246
  406MOL0     C55905   5.660  10.667   3.446  0.0765  0.4583  0.5972
  406MOL0     C55906   5.573  10.574   3.540 -0.3756 -1.1307  0.2138
  406MOL0     N55907   5.603  10.597   3.687 -0.3992  0.6001  0.3124
  406MOL0     C55908   5.518  10.634   3.793 -0.2949  0.6202 -0.3648
  406MOL0     C55909   5.591  10.647   3.903 -0.4693 -0.5106  0.5115
  406MOL0     C55910   5.559  10.702   4.045 -0.6137  0.6811  0.2936
  406MOL0     C55911   5.544  10.856   4.036  0.1102 -0.1635  0.0344
  406MOL0     C55912   5.490  10.932   4.162 -0.3591  0.6542  0.3863
  406MOL0     C55913   5.508  11.074   4.160 -1.0341 -0.5177  0.3585
  406MOL0     O55914   5.519  11.122   4.300  0.9200  0.1437  0.0272
  406MOL0     C55915   5.483  11.248   4.328  0.6994 -0.0589 -0.1853
  406MOL0     C55916   5.354  11.296   4.290  0.3100  0.3371  0.1368
  406MOL0     C55917   5.316  11.425   4.314 -0.1810 -0.1837 -0.0476
  406MOL0     C55918   5.182  11.474   4.281  0.3082  0.3995  0.1029
  406MOL0     C55919   5.412  11.522   4.353  0.1631 -0.0248  0.3757
  406MOL0     C55920   5.394  11.673   4.367 -0.3529  0.4355  0.5298
  406MOL0     O55921   5.486  11.752   4.299  0.2018  0.6357 -0.5873
  406MOL0     C55922   5.498  11.878   4.352  0.3796  0.0548 -0.4472
  406MOL0     C55923   5.457  11.987   4.267 -0.9134 -0.1652 -0.2432
  406MOL0     C55924   5.476  12.118   4.318 -0.0753 -0.3843  1.2036
  406MOL0     C55925   5.529  12.142   4.440  0.3588 -0.4981 -0.1499
  406MOL0     O55926   5.538  12.272   4.494  0.5088 -0.5063  0.7792
  406MOL0     C55927   5.510  12.389   4.414  0.5218  0.6898 -0.3505
  406MOL0     C55928   5.643  12.414   4.328 -0.2483 -0.3831  0.7046
  406MOL0     C55929   5.624  12.542   4.234 -0.0343 -0.0714  0.6062
  406MOL0     C55930   5.759  12.563   4.154  0.5708 -0.5032 -0.6437
  406MOL0     C55931   5.757  12.687   4.066  0.2768  0.9549  0.7789
  406MOL0     C55932   5.891  12.714   3.985 -0.8252  0.5346 -0.4352
  406MOL0     C55933   6.014  12.736   4.084  0.2050 -0.6340  0.3246
  406MOL0     C55934   6.139  12.800   4.016 -0.2390  0.0921 -0.1158
  406MOL0    Cl55935   6.210  12.686   3.906  0.3044  0.1052  0.2192
  406MOL0     C55936   5.568  12.039   4.524  0.3349 -0.0756 -0.5423
  406MOL0     C55937   5.556  11.901   4.480 -0.0925  0.1286  0.5131
  406MOL0     O55938   5.309  11.716   4.446  0.1548 -0.8075 -1.0433
  406MOL0     C55939   5.537  11.477   4.374 -0.9198  0.1515 -0.9572
  406MOL0     C55940   5.578  11.339   4.365  0.1054  0.2454 -0.0047
  406MOL0     N55941   5.728  10.622   3.862  0.0696 -0.5873 -0.5588
  406MOL0     N55942   5.727  10.591   3.735 -0.1674 -0.8768 -0.1179
  406MOL0     C55943   5.203  11.219   2.961 -0.8557  0.3151 -0.0365
  406MOL0     C55944   5.086  11.210   2.885 -0.0660  0.2042 -0.4401
  406MOL0     C55945   4.695  11.345   2.704 -0.8069 -0.1716 -0.2049
  406MOL0     C55946   4.680  11.430   2.602 -0.6582 -0.4127 -0.0336
  406MOL0     C55947   4.570  11.439   2.529  0.4582  0.5408 -0.3503
  406MOL0     C55948   4.454  11.362   2.557  0.9845  0.0082  0.0437
  406MOL0     O55949   4.336  11.390   2.494  0.1965 -0.6570  0.6878
  406MOL0     C55950   4.213  11.313   2.520 -1.3612 -0.6814 -0.9284
  406MOL0     C55951   4.208  11.173   2.457 -0.5366 -0.0975 -0.4652
  406MOL0     C55952   4.085  11.092   2.491  0.2647 -0.0466 -0.1894
  406MOL0     C55953   4.071  11.020   2.629 -0.8364  0.3606 -0.3943
  406MOL0     C55954   3.939  11.024   2.681  0.5839  0.4586 -0.1832
  406MOL0     C55955   3.829  11.033   2.735 -0.5905 -0.7447  0.6250
  406MOL0     C55956   4.466  11.281   2.675  0.2053 -0.4994  0.8225
  406MOL0     C55957   4.586  11.262   2.741  0.2076 -0.0458  0.0373
  406MOL0     C55958   4.591  11.165   2.857  1.2161 -0.1719 -0.0736
  406MOL0     H55959   4.862  11.285   3.128 -0.5987 -0.5328 -0.6654
  406MOL0     H55960   5.052  11.279   3.263  1.0817 -1.7597  0.0701
  406MOL0     H55961   5.249  11.178   3.366 -1.5932  0.1164 -1.8388
  406MOL0     H55962   5.294  11.357   3.348  0.4943  0.9718  0.1014
  406MOL0     H55963   5.533  11.289   3.356 -1.2453 -0.5918 -1.4909
  406MOL0     H55964   5.436  11.255   3.500 -0.6730  0.7469  1.2075
  406MOL0     H55965   5.436  11.017   3.442 -2.1672  0.8685 -2.3381
  406MOL0     H55966   5.498  11.059   3.274 -0.6954  0.3378 -0.5813
  406MOL0     H55967   5.720  11.116   3.349 -0.2881 -0.6301 -1.7163
  406MOL0     H55968   5.669  11.075   3.515 -0.3657 -1.8896  0.3709
  406MOL0     H55969   5.786  10.892   3.356 -0.6869 -0.2074 -1.1005
  406MOL0     H55970   5.643  10.880   3.276  1.7748 -0.2930 -0.3211
  406MOL0     H55971   5.654  10.833   3.578 -3.3520 -1.6995  1.4878
  406MOL0     H55972   5.511  10.817   3.487 -0.2199  1.4099  2.7501
  406MOL0     H55973   5.763  10.653   3.480  0.9351 -0.5110 -2.1067
  406MOL0     H55974   5.661  10.631   3.343 -0.4940 -1.0541  1.1049
  406MOL0     H55975   5.469  10.598   3.519 -0.6360 -0.7917  1.8021
  406MOL0     H55976   5.601  10.472   3.514 -1.0197 -0.9387 -1.3249
  406MOL0     H55977   5.413  10.661   3.788 -0.8420 -1.2333  0.3410
  406MOL0     H55978   5.645  10.676   4.106  1.1260  0.0542 -2.2491
  406MOL0     H55979   5.472  10.655   4.091 -0.4278  1.9429  1.9984
  406MOL0     H55980   5.641  10.903   4.020  0.4595  2.0631  6.0999
  406MOL0     H55981   5.473  10.881   3.957 -0.6631 -3.2463 -0.3838
  406MOL0     H55982   5.382  10.915   4.166 -0.7027  2.6686  0.7633
  406MOL0     H55983   5.544  10.897   4.251  1.1595  1.2921 -0.2514
  406MOL0     H55984   5.603  11.093   4.109 -2.1633  0.5021 -1.5001
  406MOL0     H55985   5.430  11.114   4.094  0.0963  0.9958 -0.1301
  406MOL0     H55986   5.281  11.227   4.249  0.1468  1.4409 -1.5290
  406MOL0     H55987   5.186  11.538   4.192  0.2691 -1.4612 -1.3041
  406MOL0     H55988   5.146  11.537   4.363 -0.9558 -1.5928  1.1558
  406MOL0     H55989   5.112  11.394   4.255 -0.2797 -0.0532  2.8086
  406MOL0     H55990   5.430  11.968   4.164  0.1305  0.3962 -0.6437
  406MOL0     H55991   5.460  12.204   4.254  1.6824 -0.5685  0.4479
  406MOL0     H55992   5.415  12.383   4.362  0.2017 -0.5744  0.3310
  406MOL0     H55993   5.489  12.473   4.481 -1.8848  0.5422 -0.8585
  406MOL0     H55994   5.730  12.439   4.389  0.3517  0.8159 -0.5734
  406MOL0     H55995   5.658  12.326   4.265 -0.8134 -1.2624  1.7689
  406MOL0     H55996   5.588  12.626   4.293  2.3306 -0.4617  2.7384
  406MOL0     H55997   5.549  12.518   4.158 -1.7964  1.6452  1.7146
  406MOL0     H55998   5.806  12.481   4.100  2.8521 -2.1227  3.4318
  406MOL0     H55999   5.823  12.599   4.235 -0.1700  0.5835 -0.5152
  406MOL0     H56000   5.683  12.668   3.987  0.9703  0.9150  0.1289
  406MOL0     H56001   5.736  12.782   4.116  0.2452  1.9127 -0.9677
  406MOL0     H56002   5.876  12.806   3.929 -0.7911  2.1609  2.0852
  406MOL0     H56003   5.914  12.626   3.923 -1.1682 -0.3232  0.6196
  406MOL0     H56004   6.041  12.642   4.132  0.4265  0.2828  2.0363
  406MOL0     H56005   5.979  12.807   4.159 -0.2996  0.3016 -0.7590
  406MOL0     H56006   6.210  12.840   4.089  1.3487 -0.8537 -1.0840
  406MOL0     H56007   6.108  12.888   3.959  0.1918  0.3217  0.0009
  406MOL0     H56008   5.590  12.055   4.629 -0.6576 -3.6237  0.3486
  406MOL0     H56009   5.578  11.811   4.537  0.1077 -0.2472 -0.1519
  406MOL0     H56010   5.619  11.546   4.394 -1.0895  0.4876 -1.4056
  406MOL0     H56011   5.679  11.305   4.386 -0.0877  1.1096  2.6768
  406MOL0     H56012   5.301  11.222   2.914 -0.2536  0.6343  1.2060
  406MOL0     H56013   5.094  11.183   2.780 -0.6491  0.7219 -0.6234
  406MOL0     H56014   4.766  11.491   2.574  0.1077 -1.9360 -1.1732
  406MOL0     H56015   4.566  11.516   2.452  3.1586 -0.4235 -1.5822
  406MOL0     H56016   4.194  11.306   2.628 -0.5469  0.2537 -0.7106
  406MOL0     H56017   4.131  11.381   2.493 -0.2389  1.2329  0.2712
  406MOL0     H56018   4.292  11.109   2.486 -1.5279 -1.3097 -0.2309
  406MOL0     H56019   4.200  11.175   2.348  0.0677 -1.0641 -0.5418
  406MOL0     H56020   4.007  11.168   2.483  0.1807 -0.0142  0.8179
  406MOL0     H56021   4.073  11.008   2.421  4.1196 -2.0829  1.2958
  406MOL0     H56022   4.141  11.066   2.699  0.3562 -1.9078 -0.0109
  406MOL0     H56023   4.083  10.913   2.613  0.4481  0.6806 -1.7988
  406MOL0     H56024   3.730  11.051   2.772 -0.2275  3.6655  0.0142
  406MOL0     H56025   4.379  11.224   2.706  0.8985 -2.1805 -0.1744
  406MOL0     H56026   4.498  11.107   2.851  0.2873  1.4298 -3.2478
  406MOL0     H56027   4.675  11.097   2.848  0.6024 -1.5711  3.2199
  406MOL0     H56028   4.594  11.217   2.954  2.4599  0.5771 -0.4982
  407MOL0     O56029   5.704   9.674   0.740  0.0063  0.3130  0.7367
  407MOL0     C56030   5.637   9.645   0.836 -0.1076 -0.4297 -0.5985
  407MOL0     O56031   5.624   9.516   0.889 -0.8847  0.2979  0.2346
  407MOL0     C56032   5.686   9.416   0.821  0.2693  0.1407  0.0910
  407MOL0     C56033   5.808   9.359   0.865 -0.0243  0.0568 -0.2451
  407MOL0     C56034   5.868   9.265   0.783 -0.3092  0.1931  0.3304
  407MOL0     C56035   5.817   9.213   0.658  0.5163  0.2706 -0.9181
  407MOL0     O56036   5.880   9.113   0.582  0.2423  0.3582 -0.0457
  407MOL0     C56037   5.802   9.021   0.497  0.1278 -0.2570 -0.0399
  407MOL0     C56038   5.888   8.902   0.477 -0.0879  0.2640 -0.3153
  407MOL0     C56039   6.023   8.919   0.400  0.0154 -0.1434 -0.2672
  407MOL0     C56040   6.070   8.784   0.348 -0.1139 -0.9573 -0.3947
  407MOL0     C56041   6.193   8.807   0.265  0.0044 -0.3652  0.0835
  407MOL0     C56042   6.223   8.698   0.164  0.1508  0.4862  0.7866
  407MOL0     C56043   6.249   8.555   0.209 -0.2732 -0.3270  0.1454
  407MOL0     C56044   6.139   8.458   0.168  0.2073 -0.4700  0.3562
  407MOL0     N56045   6.179   8.320   0.185 -0.4741 -0.0333 -0.1643
  407MOL0     C56046   6.236   8.232   0.092  0.0529  0.4335  0.4238
  407MOL0     C56047   6.308   8.134   0.165 -0.5221 -0.0268  0.2078
  407MOL0     C56048   6.401   8.034   0.132 -0.0955 -0.6111  0.0986
  407MOL0     C56049   6.343   7.940   0.024  0.5989 -0.0226  0.1223
  407MOL0     C56050   6.245   7.834   0.078  0.5126 -0.8232  0.4043
  407MOL0     C56051   6.109   7.873   0.123  0.3678 -0.8563  0.1754
  407MOL0     O56052   6.059   7.974   0.029  0.4247 -0.2323 -0.8899
  407MOL0     C56053   5.933   8.025   0.030 -0.2874 -0.6202 -0.0953
  407MOL0     C56054   5.895   8.103  -0.078  0.0286  0.0702  0.1935
  407MOL0     C56055   5.769   8.161  -0.093  0.2135  0.4410  0.3631
  407MOL0     C56056   5.750   8.248  -0.220 -0.7759 -0.5336 -0.4822
  407MOL0     C56057   5.665   8.119  -0.003 -0.4015  0.0177 -0.6665
  407MOL0     C56058   5.527   8.163  -0.011 -0.2597 -0.4038  0.3973
  407MOL0     O56059   5.433   8.077   0.046 -0.2707  0.1478 -0.9418
  407MOL0     C56060   5.303   8.122   0.061  0.0445  0.7631  0.0416
  407MOL0     C56061   5.268   8.248   0.116 -0.0398 -0.4522 -0.1486
  407MOL0     C56062   5.132   8.277   0.131  0.3090  0.8542 -0.8004
  407MOL0     C56063   5.026   8.183   0.104  0.0999 -0.1887  0.0488
  407MOL0     O56064   4.901   8.238   0.135 -0.6143  0.7082  0.6085
  407MOL0     C56065   4.772   8.167   0.128 -0.5016  0.1030  0.0478
  407MOL0     C56066   4.668   8.244   0.042 -0.0084 -0.9309 -0.6265
  407MOL0     C56067   4.636   8.376   0.112  0.3999 -0.2613  0.8541
  407MOL0     C56068   4.540   8.453   0.019 -0.6492 -0.5791  0.6087
  407MOL0     C56069   4.410   8.389  -0.041 -1.3777 -0.6567  0.0710
  407MOL0     C56070   4.300   8.368   0.068 -1.2769  0.4974 -0.0676
  407MOL0     C56071   4.192   8.280   0.021 -0.3472 -0.1178 -0.6417
  407MOL0     C56072   4.108   8.218   0.136  0.3781 -0.5575  0.3408
  407MOL0    Cl56073   4.209   8.098   0.203  0.0904 -0.3540 -0.1942
  407MOL0     C56074   5.066   8.058   0.073  0.3299  0.7604  0.2048
  407MOL0     C56075   5.201   8.029   0.044 -0.3005  0.2732 -0.0520
  407MOL0     O56076   5.494   8.254  -0.087  0.2734 -0.4722 -0.3292
  407MOL0     C56077   5.700   8.036   0.106 -0.3091 -0.3947 -0.7217
  407MOL0     C56078   5.830   7.981   0.117 -0.4409 -0.0299 -0.0297
  407MOL0     N56079   6.281   8.168   0.300 -0.0160  0.9255 -0.5395
  407MOL0     N56080   6.199   8.267   0.306 -0.2159  0.6419  0.4132
  407MOL0     C56081   5.687   9.269   0.625 -0.3079  0.7365 -0.1020
  407MOL0     C56082   5.629   9.369   0.706  0.0787 -0.4355  0.2463
  407MOL0     C56083   5.556   9.741   0.907  0.0634 -0.8655  0.3295
  407MOL0     C56084   5.596   9.868   0.903 -0.7410 -0.1684 -0.6117
  407MOL0     C56085   5.527   9.969   0.972  0.0592  0.0273  0.2945
  407MOL0     C56086   5.407   9.947   1.039 -0.3507  0.5312  1.0922
  407MOL0     O56087   5.346  10.048   1.102  0.2160 -0.0305 -0.1097
  407MOL0     C56088   5.201  10.039   1.125 -0.6825 -0.4797 -0.0976
  407MOL0     C56089   5.154  10.181   1.173 -0.0542 -0.1609 -0.0151
  407MOL0     C56090   5.167  10.297   1.067 -0.1848  0.3651 -0.2374
  407MOL0     C56091   5.070  10.282   0.949  0.6355  0.0165 -0.5947
  407MOL0     C56092   4.928  10.297   0.994 -0.5581  0.4300 -0.6384
  407MOL0     C56093   4.817  10.296   1.039 -0.0576  0.0244 -0.0767
  407MOL0     C56094   5.356   9.816   1.031  0.1876  0.6020 -0.7037
  407MOL0     C56095   5.431   9.706   0.972  0.2125  0.5119 -0.0298
  407MOL0     C56096   5.365   9.565   0.981  0.2348  0.1121  0.9134
  407MOL0     H56097   5.827   9.401   0.963 -1.9711  0.4368  0.0002
  407MOL0     H56098   5.966   9.223   0.806  1.7394  4.2121 -0.2519
  407MOL0     H56099   5.777   9.060   0.398 -1.7811 -3.1273 -0.7995
  407MOL0     H56100   5.716   8.987   0.555  0.1805  0.8236  0.7204
  407MOL0     H56101   5.912   8.862   0.576  1.0218 -1.1744 -1.1180
  407MOL0     H56102   5.835   8.826   0.419  1.4337  0.8865 -2.7047
  407MOL0     H56103   6.001   8.983   0.314 -2.2248 -0.3807  0.0743
  407MOL0     H56104   6.101   8.958   0.467 -1.2329  1.3098  0.4014
  407MOL0     H56105   6.079   8.710   0.428 -3.4452  0.8223  1.8150
  407MOL0     H56106   5.996   8.736   0.284  2.0761  0.5284 -4.4290
  407MOL0     H56107   6.277   8.815   0.335 -2.0297 -0.1724  2.6397
  407MOL0     H56108   6.186   8.899   0.206  1.2616  0.0225  0.4903
  407MOL0     H56109   6.146   8.701   0.087  0.6403 -2.2964  0.0855
  407MOL0     H56110   6.312   8.728   0.110  2.2229 -0.7884  3.2665
  407MOL0     H56111   6.281   8.553   0.313  3.1315 -0.6391 -0.8048
  407MOL0     H56112   6.341   8.519   0.161 -0.4686  2.4501 -2.6201
  407MOL0     H56113   6.042   8.471   0.217 -0.4723 -2.1647 -0.4171
  407MOL0     H56114   6.126   8.463   0.060  2.7591 -2.3122 -0.1466
  407MOL0     H56115   6.238   8.257  -0.013  0.9592  1.8806  0.7584
  407MOL0     H56116   6.426   7.987   0.228 -0.5973 -3.9102 -1.2318
  407MOL0     H56117   6.482   8.086   0.080 -0.9433  2.7821  1.9220
  407MOL0     H56118   6.300   7.986  -0.066 -0.4903 -1.0756  0.0742
  407MOL0     H56119   6.432   7.881   0.000  1.3006  1.3801 -0.8692
  407MOL0     H56120   6.221   7.758   0.003 -3.0539  2.3983 -2.1260
  407MOL0     H56121   6.290   7.793   0.169  0.6038 -0.5537  0.4811
  407MOL0     H56122   6.044   7.786   0.141 -2.4399  1.1327  0.3093
  407MOL0     H56123   6.113   7.920   0.221 -0.8259 -0.0105 -0.1565
  407MOL0     H56124   5.965   8.112  -0.160  0.6794  0.5379  0.7927
  407MOL0     H56125   5.675   8.328  -0.210 -1.3224 -1.0489 -0.3948
  407MOL0     H56126   5.734   8.186  -0.308 -0.7447 -0.3344 -0.6317
  407MOL0     H56127   5.843   8.301  -0.242 -0.2916 -0.9584  0.4896
  407MOL0     H56128   5.347   8.317   0.145  1.5928 -2.3921  0.2555
  407MOL0     H56129   5.106   8.378   0.163 -1.6974  0.7877 -2.0058
  407MOL0     H56130   4.781   8.065   0.090  0.5944  0.8579 -1.8451
  407MOL0     H56131   4.736   8.162   0.231 -0.1621  0.5146  0.1946
  407MOL0     H56132   4.733   8.264  -0.044  0.2280  1.9864  0.1382
  407MOL0     H56133   4.578   8.183   0.035 -1.4733  1.2067 -1.6090
  407MOL0     H56134   4.724   8.435   0.140 -0.6159  2.1356 -0.6473
  407MOL0     H56135   4.571   8.352   0.196 -0.1817  1.9052  1.1000
  407MOL0     H56136   4.606   8.473  -0.065  0.7051 -0.6281  1.6260
  407MOL0     H56137   4.520   8.551   0.064  0.3766  0.5441 -1.2484
  407MOL0     H56138   4.365   8.454  -0.116 -2.2903 -3.2467 -1.7500
  407MOL0     H56139   4.434   8.296  -0.093  1.0749  0.0782 -0.2326
  407MOL0     H56140   4.265   8.467   0.099 -0.5766  0.4216  1.0175
  407MOL0     H56141   4.346   8.330   0.160 -2.7376  3.2394  1.9462
  407MOL0     H56142   4.232   8.212  -0.055 -0.6253 -1.9174  0.7563
  407MOL0     H56143   4.120   8.343  -0.031 -1.0455  3.1155  3.7212
  407MOL0     H56144   4.023   8.168   0.090  1.2669 -0.7903 -1.1155
  407MOL0     H56145   4.083   8.297   0.207  1.2228  0.3862 -0.3638
  407MOL0     H56146   4.994   7.976   0.078  0.1053  0.7821 -1.9351
  407MOL0     H56147   5.237   7.933   0.008  3.1949  1.2225  0.5587
  407MOL0     H56148   5.628   7.994   0.176 -2.2689 -0.4586 -2.6653
  407MOL0     H56149   5.873   7.920   0.196 -0.4565 -0.9100 -0.6866
  407MOL0     H56150   5.630   9.234   0.539 -1.9952  0.5773  1.0373
  407MOL0     H56151   5.532   9.413   0.686 -0.2791 -0.4780  1.7564
  407MOL0     H56152   5.688   9.901   0.857 -1.5235  0.4216 -1.7793
  407MOL0     H56153   5.578  10.064   0.988  0.4060 -0.1367  0.1708
  407MOL0     H56154   5.140  10.006   1.041 -0.5340 -2.2524  0.4334
  407MOL0     H56155   5.197   9.973   1.213  0.7104 -0.9067 -0.3185
  407MOL0     H56156   5.220  10.201   1.258  0.4186 -1.4457 -0.0557
  407MOL0     H56157   5.057  10.183   1.225 -0.7092  0.6409 -1.2488
  407MOL0     H56158   5.146  10.394   1.114  0.7842  1.1562 -1.4048
  407MOL0     H56159   5.270  10.308   1.035 -0.5625  1.5277 -1.1239
  407MOL0     H56160   5.084  10.185   0.902 -0.3130  0.1520 -1.1696
  407MOL0     H56161   5.095  10.345   0.864  1.1531 -1.2640 -1.4215
  407MOL0     H56162   4.725  10.293   1.094 -0.0881 -0.6737 -0.1660
  407MOL0     H56163   5.255   9.790   1.060  0.8421 -0.2549  0.9476
  407MOL0     H56164   5.261   9.566   1.015  0.6376  0.5651  2.1954
  407MOL0     H56165   5.382   9.500   0.894  0.8551  0.0284  1.0954
  407MOL0     H56166   5.426   9.506   1.050  2.0451 -0.8511 -1.3735
  408MOL0     O56167   9.806   8.166   2.343 -0.2668 -0.6769 -0.3372
  408MOL0     C56168   9.926   8.193   2.329 -0.6797  0.3681  0.3515
  408MOL0     O56169   9.986   8.321   2.327  0.1698 -0.4539 -0.3939
  408MOL0     C56170   9.897   8.423   2.334 -0.3897 -0.3394  0.2291
  408MOL0     C56171   9.870   8.470   2.457  0.8874  0.5931  1.0272
  408MOL0     C56172   9.765   8.556   2.475  0.0015 -0.2222 -0.1087
  408MOL0     C56173   9.683   8.592   2.368 -0.0522 -0.1338 -0.9779
  408MOL0     O56174   9.587   8.683   2.402 -0.0270  0.0322 -0.2012
  408MOL0     C56175   9.460   8.670   2.338 -0.3366  0.6011 -0.2754
  408MOL0     C56176   9.379   8.785   2.399 -0.3970 -0.8105  0.3804
  408MOL0     C56177   9.229   8.752   2.396  0.2796  0.0519 -0.2550
  408MOL0     C56178   9.157   8.860   2.461 -0.5985 -0.0436 -0.0712
  408MOL0     C56179   9.005   8.827   2.478  0.5985  0.3101 -1.3522
  408MOL0     C56180   8.938   8.912   2.589  0.8579  0.0984 -0.7849
  408MOL0     C56181   8.794   8.866   2.638 -0.0480  0.1606  0.5514
  408MOL0     C56182   8.759   8.948   2.754  0.5296 -0.4714 -0.0468
  408MOL0     N56183   8.662   9.046   2.704  0.2851 -0.6913 -0.1415
  408MOL0     C56184   8.682   9.147   2.609 -0.6680  0.9621  0.0516
  408MOL0     C56185   8.569   9.215   2.612  0.9839 -0.6891 -0.6453
  408MOL0     C56186   8.539   9.347   2.536 -0.2531 -0.2236 -0.0059
  408MOL0     C56187   8.410   9.333   2.450 -0.2789  0.3992 -0.8128
  408MOL0     C56188   8.352   9.454   2.380 -0.2246 -0.4428 -0.8137
  408MOL0     C56189   8.457   9.531   2.299  0.5303  0.2762 -0.9204
  408MOL0     O56190   8.514   9.450   2.196  0.7378 -0.5427 -0.1300
  408MOL0     C56191   8.647   9.432   2.204 -0.2169 -0.0877 -0.1104
  408MOL0     C56192   8.728   9.545   2.207 -0.1229 -0.4965 -0.5301
  408MOL0     C56193   8.867   9.532   2.216 -0.4991  0.2036 -0.7450
  408MOL0     C56194   8.946   9.655   2.178  0.4236  0.4608  0.0372
  408MOL0     C56195   8.929   9.406   2.235  0.0228 -0.4090  0.3789
  408MOL0     C56196   9.068   9.371   2.223  0.0018 -0.5576 -0.7432
  408MOL0     O56197   9.111   9.248   2.267 -0.1788 -0.4933 -0.1274
  408MOL0     C56198   9.246   9.228   2.262  0.1282 -0.6782  0.2480
  408MOL0     C56199   9.283   9.147   2.155 -0.7832 -0.8307  0.1584
  408MOL0     C56200   9.417   9.101   2.138  0.4567  0.0404 -0.5318
  408MOL0     C56201   9.521   9.141   2.223 -0.4419 -0.1673  0.0736
  408MOL0     O56202   9.653   9.101   2.194  0.0063  0.1552  0.4050
  408MOL0     C56203   9.680   8.956   2.179  0.0026 -0.0817 -0.2193
  408MOL0     C56204   9.803   8.926   2.089 -0.3869 -0.3177 -0.0267
  408MOL0     C56205   9.933   8.933   2.172  0.1327  0.1188  0.3923
  408MOL0     C56206  10.050   8.875   2.083 -0.5410 -0.3601 -0.1046
  408MOL0     C56207  10.080   8.719   2.094 -0.8397 -0.3464  0.4637
  408MOL0     C56208  10.124   8.647   1.953 -0.7226  0.3333 -0.1653
  408MOL0     C56209  10.156   8.502   1.978 -0.2557  0.3257 -0.0522
  408MOL0     C56210  10.290   8.470   2.046  0.0900 -0.1347  0.1908
  408MOL0    Cl56211  10.427   8.532   1.941 -0.0365  0.2087 -0.4104
  408MOL0     C56212   9.489   9.234   2.319 -0.9331  0.0478 -0.3157
  408MOL0     C56213   9.354   9.280   2.347 -0.3504 -0.1352 -0.1383
  408MOL0     O56214   9.144   9.454   2.167 -0.2566 -0.3803 -0.7921
  408MOL0     C56215   8.837   9.301   2.258  0.0097  0.1029  0.7129
  408MOL0     C56216   8.699   9.309   2.248  0.0294  0.0543  0.3040
  408MOL0     N56217   8.479   9.155   2.702 -0.0460 -0.9086 -0.0638
  408MOL0     N56218   8.537   9.048   2.747  0.9149 -0.8722  0.2813
  408MOL0     C56219   9.710   8.551   2.240 -0.3663  0.1531  0.0556
  408MOL0     C56220   9.810   8.458   2.220 -0.2538  0.3742  0.6273
  408MOL0     C56221  10.011   8.079   2.289  0.9605 -0.2150 -0.5623
  408MOL0     C56222  10.139   8.108   2.239 -0.7615 -0.8397  0.1780
  408MOL0     C56223  10.226   8.004   2.204  0.0907  0.2605  0.7442
  408MOL0     C56224  10.184   7.872   2.199 -0.7753 -1.2298 -0.4010
  408MOL0     O56225  10.281   7.786   2.162  0.3345  0.4404 -0.2686
  408MOL0     C56226  10.359   7.722   2.262 -0.1710  0.2076 -0.3752
  408MOL0     C56227  10.472   7.628   2.214 -0.0472  0.3262  0.7524
  408MOL0     C56228  10.598   7.692   2.154 -0.0957  0.4407  0.2328
  408MOL0     C56229  10.553   7.795   2.051  0.2121  0.4482  0.2542
  408MOL0     C56230  10.675   7.841   1.972 -0.3806 -0.2017 -0.3988
  408MOL0     C56231  10.778   7.882   1.919 -0.0141 -0.4988 -0.1070
  408MOL0     C56232  10.057   7.840   2.242 -1.2716 -0.6813 -0.4951
  408MOL0     C56233   9.970   7.933   2.298  0.2991  0.4042 -0.3653
  408MOL0     C56234   9.847   7.876   2.357  0.5293 -0.3346 -0.4173
  408MOL0     H56235   9.936   8.428   2.532 -0.1782 -2.1422  0.5554
  408MOL0     H56236   9.729   8.591   2.571  0.3807 -1.3620  0.4704
  408MOL0     H56237   9.417   8.573   2.364 -0.3316  0.1037 -1.9791
  408MOL0     H56238   9.463   8.664   2.229  2.0628  0.9265 -0.2846
  408MOL0     H56239   9.411   8.806   2.501 -0.9221  2.1375  0.0191
  408MOL0     H56240   9.395   8.877   2.343 -1.7710 -0.8424 -0.1099
  408MOL0     H56241   9.197   8.738   2.293  1.9871 -1.5648 -0.6391
  408MOL0     H56242   9.209   8.660   2.453 -2.4890  2.4407  3.0761
  408MOL0     H56243   9.195   8.878   2.562 -1.3109  1.7499 -0.0827
  408MOL0     H56244   9.164   8.954   2.406 -0.1940  0.4293  0.7617
  408MOL0     H56245   8.995   8.724   2.513 -0.0434  1.4189  2.1567
  408MOL0     H56246   8.947   8.838   2.386  0.9665 -2.5671 -2.0197
  408MOL0     H56247   9.002   8.901   2.677  0.3871  0.2259 -0.4183
  408MOL0     H56248   8.936   9.014   2.550  0.0310  1.3635  2.2796
  408MOL0     H56249   8.789   8.762   2.672  0.7922  0.8777  3.1527
  408MOL0     H56250   8.721   8.863   2.558 -0.5153 -0.2212  0.9881
  408MOL0     H56251   8.709   8.888   2.831  1.5972 -0.9501  0.2981
  408MOL0     H56252   8.842   9.000   2.804  0.1305  2.3545 -2.0752
  408MOL0     H56253   8.774   9.165   2.556  1.3148 -2.8515  1.7906
  408MOL0     H56254   8.622   9.386   2.477 -0.0141  1.0184  1.1201
  408MOL0     H56255   8.511   9.424   2.607  1.8065  0.0114  0.6135
  408MOL0     H56256   8.416   9.260   2.368 -4.5376 -1.9467  0.6282
  408MOL0     H56257   8.333   9.293   2.517 -0.1116  3.2815  1.2679
  408MOL0     H56258   8.268   9.411   2.324  1.7322 -4.5523 -0.9756
  408MOL0     H56259   8.297   9.523   2.445  0.3619  1.4929 -2.2797
  408MOL0     H56260   8.421   9.628   2.263 -1.7424 -0.8493 -1.8131
  408MOL0     H56261   8.539   9.545   2.370  0.2932  2.4605 -0.9968
  408MOL0     H56262   8.687   9.644   2.190 -1.6518 -0.5486  2.2373
  408MOL0     H56263   9.039   9.674   2.233 -0.5553  0.4244  1.7780
  408MOL0     H56264   8.887   9.744   2.202 -0.0902 -0.5411  2.8838
  408MOL0     H56265   8.984   9.645   2.076  3.3715 -0.0412  1.0818
  408MOL0     H56266   9.212   9.118   2.078 -2.5909 -0.6226  1.6735
  408MOL0     H56267   9.445   9.036   2.056  1.0048  0.7751 -0.9325
  408MOL0     H56268   9.675   8.904   2.275 -4.4899 -2.7718 -1.5883
  408MOL0     H56269   9.598   8.906   2.126 -0.8368 -1.6800  2.4183
  408MOL0     H56270   9.799   8.829   2.039 -0.4310  1.0610 -2.8997
  408MOL0     H56271   9.808   8.999   2.008  3.1765 -1.6081 -1.1443
  408MOL0     H56272   9.915   8.865   2.257  0.0453 -0.7037 -0.2661
  408MOL0     H56273   9.954   9.036   2.201 -2.6186  0.0589  3.1112
  408MOL0     H56274  10.131   8.944   2.110 -3.2003  1.5375  3.9279
  408MOL0     H56275  10.027   8.883   1.976 -1.8440  0.8827  0.2452
  408MOL0     H56276  10.147   8.697   2.178  0.2634  1.0189 -0.0099
  408MOL0     H56277   9.984   8.672   2.113 -0.6149 -1.5515 -1.1668
  408MOL0     H56278  10.206   8.703   1.908 -2.8534  3.5023 -0.4815
  408MOL0     H56279  10.043   8.648   1.879  2.4177 -0.7746 -3.9279
  408MOL0     H56280  10.164   8.455   1.880  3.2998  1.3502 -0.3875
  408MOL0     H56281  10.082   8.449   2.039 -0.1239 -0.4830 -0.5753
  408MOL0     H56282  10.304   8.364   2.071 -0.6292 -0.4989 -0.8855
  408MOL0     H56283  10.291   8.538   2.132  1.4788 -1.9117  1.6658
  408MOL0     H56284   9.570   9.273   2.381  0.0726 -0.2165 -1.4242
  408MOL0     H56285   9.341   9.339   2.437 -1.3637 -1.1275  0.3889
  408MOL0     H56286   8.881   9.205   2.282  0.0362  0.2563  1.2724
  408MOL0     H56287   8.638   9.220   2.261  1.9326 -1.0080  2.9940
  408MOL0     H56288   9.653   8.596   2.158 -2.2914  0.1058  1.3103
  408MOL0     H56289   9.838   8.417   2.124  0.0897 -1.5089  1.4915
  408MOL0     H56290  10.167   8.213   2.234 -1.2701 -0.6353  1.2566
  408MOL0     H56291  10.326   8.032   2.173 -0.8087  1.9448 -0.8550
  408MOL0     H56292  10.393   7.800   2.331 -3.9067  2.3157 -0.6415
  408MOL0     H56293  10.291   7.671   2.331 -0.8172 -1.8450 -2.3805
  408MOL0     H56294  10.427   7.559   2.143  0.6375  2.1501 -1.6026
  408MOL0     H56295  10.513   7.573   2.299 -0.1866  0.2959  0.8013
  408MOL0     H56296  10.656   7.734   2.237  0.3837  0.9356 -0.3410
  408MOL0     H56297  10.660   7.621   2.099 -2.1390  0.0476 -1.7048
  408MOL0     H56298  10.525   7.892   2.094 -1.7701  0.3640 -0.7302
  408MOL0     H56299  10.473   7.752   1.991 -0.5707  0.9178  0.9512
  408MOL0     H56300  10.867   7.924   1.877  0.8495 -1.4216  0.7527
  408MOL0     H56301  10.037   7.733   2.239  3.2848 -1.6921 -0.9202
  408MOL0     H56302   9.810   7.939   2.438  0.8250 -1.4969  0.6570
  408MOL0     H56303   9.778   7.861   2.274 -0.5874  0.3416  0.3659
  408MOL0     H56304   9.860   7.781   2.411 -2.5361  0.2193  1.4998
  409MOL0     O56305   8.227   9.127   4.491 -0.3412  0.1389 -0.2442
  409MOL0     C56306   8.268   9.037   4.423 -0.5743 -0.9413 -0.2429
  409MOL0     O56307   8.367   9.043   4.329  0.2959 -0.0060 -0.2798
  409MOL0     C56308   8.433   9.173   4.316 -0.5247  1.3584 -0.2664
  409MOL0     C56309   8.571   9.181   4.327 -0.5031 -0.2551 -0.2021
  409MOL0     C56310   8.644   9.303   4.307 -0.1579 -0.1100 -0.7330
  409MOL0     C56311   8.572   9.417   4.263 -0.4819 -0.4328 -0.6846
  409MOL0     O56312   8.642   9.530   4.234  0.0725 -0.2963  0.2993
  409MOL0     C56313   8.617   9.604   4.113  0.0913  0.2116 -0.0975
  409MOL0     C56314   8.664   9.528   3.980  0.0265 -0.1590 -0.0024
  409MOL0     C56315   8.810   9.477   3.992  1.4178  0.0245  0.8898
  409MOL0     C56316   8.899   9.582   4.047 -0.9654 -0.4562  0.2620
  409MOL0     C56317   9.050   9.537   4.041 -0.2709  0.3823 -0.6935
  409MOL0     C56318   9.083   9.425   4.144 -0.3703 -0.3089 -0.5105
  409MOL0     C56319   9.240   9.403   4.163  0.1616 -0.4740  0.5341
  409MOL0     C56320   9.301   9.360   4.026  0.0179  0.0007  0.6860
  409MOL0     N56321   9.427   9.298   4.031 -0.5835 -0.2426 -0.3269
  409MOL0     C56322   9.545   9.362   4.045  0.3825  0.1463 -0.3318
  409MOL0     C56323   9.640   9.264   4.063  0.7748 -0.5115 -0.2751
  409MOL0     C56324   9.792   9.298   4.066  0.1023  1.0217  0.6729
  409MOL0     C56325   9.854   9.300   4.202 -0.1471  0.3722  0.1791
  409MOL0     C56326   9.817   9.175   4.284  0.2530 -0.5305 -0.1025
  409MOL0     C56327   9.865   9.188   4.431  0.4956 -0.0824 -0.2783
  409MOL0     O56328  10.006   9.163   4.433  0.1117 -0.3920 -0.4871
  409MOL0     C56329  10.062   9.183   4.553  0.2351 -0.0378  0.2714
  409MOL0     C56330  10.044   9.099   4.657 -0.1135  0.2534 -0.9474
  409MOL0     C56331  10.088   9.118   4.788 -0.2829  0.2426 -0.1876
  409MOL0     C56332  10.047   9.018   4.898 -0.3268 -0.0048  0.3143
  409MOL0     C56333  10.157   9.236   4.820 -0.0215  0.2746  0.1223
  409MOL0     C56334  10.222   9.259   4.950 -0.9334 -0.1417 -0.6927
  409MOL0     O56335  10.318   9.362   4.947  0.6519 -0.6972 -0.2876
  409MOL0     C56336  10.376   9.386   5.066  0.2125 -0.2827 -0.7459
  409MOL0     C56337  10.312   9.433   5.182  0.3462  0.0309 -0.6316
  409MOL0     C56338  10.387   9.487   5.285  0.2220 -0.0191  0.0112
  409MOL0     C56339  10.525   9.492   5.279  0.0418  0.9929  0.4466
  409MOL0     O56340  10.610   9.540   5.379 -0.3333 -0.7526 -0.2366
  409MOL0     C56341  10.660   9.681   5.356 -0.6678  1.2979 -0.3978
  409MOL0     C56342  10.749   9.726   5.482  0.0331 -1.1702 -0.5298
  409MOL0     C56343  10.809   9.861   5.463 -0.7465 -0.3812  0.8570
  409MOL0     C56344  10.861   9.920   5.589 -0.5866  0.4346 -0.2327
  409MOL0     C56345  10.952  10.036   5.595  0.9407 -0.2232 -0.8296
  409MOL0     C56346  10.908  10.151   5.506 -1.2087 -0.5507  0.5136
  409MOL0     C56347  11.037  10.243   5.494  0.1520  0.4450  1.0403
  409MOL0     C56348  11.141  10.206   5.378  0.1671  0.2606 -0.3260
  409MOL0    Cl56349  11.056  10.208   5.224  0.0820  0.0620  0.1960
  409MOL0     C56350  10.584   9.417   5.182  0.5646  0.1363  0.5898
  409MOL0     C56351  10.511   9.367   5.073 -0.5519  0.1388 -0.0571
  409MOL0     O56352  10.187   9.205   5.052 -0.7581 -0.1532  0.0567
  409MOL0     C56353  10.173   9.325   4.713  0.1513  0.5600 -0.1212
  409MOL0     C56354  10.123   9.303   4.584 -0.3732  0.3864  0.3866
  409MOL0     N56355   9.569   9.144   4.069  0.7955 -0.0725 -0.7339
  409MOL0     N56356   9.444   9.167   4.057  0.1703 -0.9283  0.2601
  409MOL0     C56357   8.432   9.402   4.242  0.8609  0.3207  0.1274
  409MOL0     C56358   8.366   9.283   4.274  0.3037  1.0260 -0.7482
  409MOL0     C56359   8.222   8.901   4.454 -0.1864 -0.1921 -1.5422
  409MOL0     C56360   8.280   8.798   4.377  0.8307 -0.0193 -1.1544
  409MOL0     C56361   8.253   8.663   4.412 -0.5964 -0.5800 -0.5684
  409MOL0     C56362   8.162   8.625   4.505  0.3613 -0.7383 -0.0067
  409MOL0     O56363   8.143   8.501   4.541 -0.0080 -0.3636 -0.3394
  409MOL0     C56364   8.253   8.415   4.568 -0.5434  0.3961 -0.1153
  409MOL0     C56365   8.255   8.314   4.458  0.2398 -0.1383 -0.4858
  409MOL0     C56366   8.137   8.211   4.461  0.1826  0.5176  0.0184
  409MOL0     C56367   8.146   8.096   4.357 -0.3301 -1.2034 -1.0755
  409MOL0     C56368   8.267   8.008   4.380 -0.3711 -0.3035 -0.4298
  409MOL0     C56369   8.359   7.942   4.411 -0.2463  0.1514  0.1628
  409MOL0     C56370   8.097   8.728   4.569 -0.1310  0.0778 -0.0420
  409MOL0     C56371   8.124   8.867   4.548  0.2667 -0.1594 -0.3997
  409MOL0     C56372   8.040   8.969   4.629  0.0983 -0.1021  0.5388
  409MOL0     H56373   8.630   9.100   4.368  2.5517  2.1536  0.5570
  409MOL0     H56374   8.750   9.306   4.333 -0.4920 -2.9331  1.4953
  409MOL0     H56375   8.662   9.703   4.115  0.3637  0.1076 -0.7138
  409MOL0     H56376   8.509   9.622   4.106  0.1247  1.2197  1.5652
  409MOL0     H56377   8.603   9.440   3.959  0.2188 -0.2317 -0.2786
  409MOL0     H56378   8.650   9.606   3.904  2.5638 -1.0875 -1.5831
  409MOL0     H56379   8.810   9.380   4.042  1.4250 -0.5210 -0.1693
  409MOL0     H56380   8.844   9.452   3.892 -1.6612 -0.9312 -0.0152
  409MOL0     H56381   8.886   9.668   3.980  1.0548  0.4293  0.9378
  409MOL0     H56382   8.867   9.621   4.144 -1.1207  2.4112 -0.8132
  409MOL0     H56383   9.115   9.624   4.050  0.9413 -0.5931  0.1246
  409MOL0     H56384   9.078   9.492   3.945 -2.4158 -0.0614 -1.1811
  409MOL0     H56385   9.053   9.461   4.243  2.9265  2.5793 -0.3673
  409MOL0     H56386   9.022   9.337   4.120 -2.0512  0.4716  0.6728
  409MOL0     H56387   9.259   9.322   4.235  2.6580 -0.1150  0.3749
  409MOL0     H56388   9.287   9.493   4.205  0.7653 -0.0277 -1.0331
  409MOL0     H56389   9.231   9.286   3.985 -2.0446 -0.5127  4.6671
  409MOL0     H56390   9.307   9.449   3.963  2.8074  1.4152  2.7361
  409MOL0     H56391   9.569   9.468   4.043  0.9882  0.0852 -4.2865
  409MOL0     H56392   9.802   9.395   4.015  3.2163 -0.9034 -2.9075
  409MOL0     H56393   9.835   9.229   3.994 -3.0679 -1.1276  0.6102
  409MOL0     H56394   9.963   9.308   4.192 -0.3808  0.7481 -3.3431
  409MOL0     H56395   9.817   9.386   4.258  1.5422  0.6860  0.8740
  409MOL0     H56396   9.709   9.159   4.285 -1.2780  6.5704 -0.7514
  409MOL0     H56397   9.866   9.090   4.236 -0.0617 -0.4586 -0.5617
  409MOL0     H56398   9.842   9.287   4.470  2.2677 -1.0100  3.5743
  409MOL0     H56399   9.803   9.118   4.487 -0.8362  1.2874 -0.0101
  409MOL0     H56400   9.997   9.006   4.630  0.4001 -0.9379  1.8949
  409MOL0     H56401  10.002   9.085   4.972 -0.4451 -0.0488  0.2832
  409MOL0     H56402  10.131   8.960   4.935  0.5894  0.9845 -0.1452
  409MOL0     H56403   9.974   8.952   4.849  0.1153  1.2960 -2.3058
  409MOL0     H56404  10.204   9.440   5.177 -0.1511 -2.5042  2.6271
  409MOL0     H56405  10.358   9.526   5.383 -1.1137  1.8061 -1.0482
  409MOL0     H56406  10.722   9.693   5.267 -1.0865  0.7419 -0.7644
  409MOL0     H56407  10.576   9.751   5.346  0.0705  2.0162 -1.9806
  409MOL0     H56408  10.692   9.724   5.575 -1.1069  3.0004 -0.9694
  409MOL0     H56409  10.833   9.657   5.495  0.9250 -0.2737 -1.3945
  409MOL0     H56410  10.741   9.928   5.410 -0.6190 -1.0132 -0.1203
  409MOL0     H56411  10.892   9.861   5.392 -2.1223  2.7903 -0.9411
  409MOL0     H56412  10.904   9.839   5.650 -1.4902  0.9327  1.0988
  409MOL0     H56413  10.772   9.947   5.646  0.7271  3.2063  0.6630
  409MOL0     H56414  10.955  10.081   5.694  0.6507  1.8201 -1.6994
  409MOL0     H56415  11.054  10.013   5.564  1.5945  2.3388 -0.8229
  409MOL0     H56416  10.829  10.208   5.555 -1.1966  0.8980 -1.0561
  409MOL0     H56417  10.886  10.122   5.403 -0.8501 -0.6927  0.4754
  409MOL0     H56418  11.092  10.244   5.588 -0.4006 -2.1714  1.4680
  409MOL0     H56419  10.997  10.343   5.481 -3.0218 -0.6692  1.4240
  409MOL0     H56420  11.192  10.111   5.398  0.7136  1.1474  3.1448
  409MOL0     H56421  11.223  10.278   5.376 -0.7734  1.4230  1.0854
  409MOL0     H56422  10.692   9.410   5.175  1.1297  1.5441  5.1604
  409MOL0     H56423  10.575   9.321   4.998  1.6544 -0.9033  2.3033
  409MOL0     H56424  10.232   9.415   4.726 -1.4350  1.3957  1.9981
  409MOL0     H56425  10.131   9.375   4.504 -1.8878  1.1367  0.8715
  409MOL0     H56426   8.367   9.485   4.213  1.3163  1.4410  2.0692
  409MOL0     H56427   8.258   9.270   4.264  0.4816 -1.2911 -0.1640
  409MOL0     H56428   8.342   8.818   4.289  0.0097  0.4146 -1.6507
  409MOL0     H56429   8.301   8.586   4.352 -2.5709  0.0945 -3.2025
  409MOL0     H56430   8.343   8.475   4.582 -0.9987  1.2612 -0.7980
  409MOL0     H56431   8.249   8.356   4.660 -0.0745  0.5936  0.0305
  409MOL0     H56432   8.352   8.264   4.468 -0.6924 -2.4939 -2.3301
  409MOL0     H56433   8.263   8.361   4.360 -0.2670  0.0957 -0.4205
  409MOL0     H56434   8.133   8.174   4.564  3.2913  0.8105  0.3379
  409MOL0     H56435   8.042   8.263   4.445  0.9766  1.9007 -0.3190
  409MOL0     H56436   8.154   8.129   4.253  4.1560 -0.9869 -0.8672
  409MOL0     H56437   8.054   8.037   4.362 -1.5518  0.6699 -0.2426
  409MOL0     H56438   8.432   7.867   4.436  2.2290  1.9428 -1.1579
  409MOL0     H56439   8.024   8.702   4.645 -0.0098 -0.5008 -0.1171
  409MOL0     H56440   7.945   8.919   4.650  0.1113 -0.4171 -0.1376
  409MOL0     H56441   8.076   8.996   4.729 -2.4856  1.4490  1.1502
  409MOL0     H56442   8.021   9.062   4.575  0.5433 -0.9638 -1.1489
  410MOL0     O56443   1.577   3.510   5.751  0.0787  0.4944  0.7008
  410MOL0     C56444   1.528   3.565   5.845  0.7742 -0.2765 -0.0350
  410MOL0     O56445   1.593   3.628   5.943  0.4982 -0.7792 -0.0415
  410MOL0     C56446   1.715   3.602   5.987  0.7616 -0.5935  0.7961
  410MOL0     C56447   1.766   3.695   6.076 -1.0606  0.2489  0.6667
  410MOL0     C56448   1.896   3.669   6.130  0.0530  0.9702 -0.5080
  410MOL0     C56449   1.961   3.545   6.113 -0.0419 -0.2263  0.2767
  410MOL0     O56450   2.079   3.507   6.169  0.5140  0.3235 -0.0571
  410MOL0     C56451   2.155   3.592   6.245  0.5814  0.6132  0.8030
  410MOL0     C56452   2.264   3.506   6.311 -0.4806 -0.1992  0.4710
  410MOL0     C56453   2.352   3.432   6.202 -0.1331 -0.4214 -0.0930
  410MOL0     C56454   2.427   3.525   6.107 -0.3973  0.0678  0.3354
  410MOL0     C56455   2.547   3.464   6.033 -0.0033  0.9173 -0.0584
  410MOL0     C56456   2.499   3.365   5.928 -0.2121 -0.0257  0.4861
  410MOL0     C56457   2.624   3.319   5.840  0.0704 -0.3936 -1.1750
  410MOL0     C56458   2.591   3.195   5.753 -0.0023  0.3962 -0.0523
  410MOL0     N56459   2.681   3.160   5.646  0.3877  0.1887 -0.4381
  410MOL0     C56460   2.767   3.050   5.659  0.0463  0.1518 -0.2838
  410MOL0     C56461   2.835   3.037   5.543  0.1428 -0.3549 -0.3988
  410MOL0     C56462   2.931   2.923   5.523  0.1343  0.4231 -0.6354
  410MOL0     C56463   2.850   2.799   5.502  0.0371  0.2266  0.4950
  410MOL0     C56464   2.910   2.709   5.387  0.3091 -0.5971  0.1062
  410MOL0     C56465   3.044   2.636   5.423  0.2383  1.1506 -0.5812
  410MOL0     O56466   3.149   2.732   5.424 -0.1754  0.4339 -0.2722
  410MOL0     C56467   3.277   2.702   5.462  0.6438  0.2938  0.5784
  410MOL0     C56468   3.325   2.585   5.510 -0.2791  0.2140 -0.8024
  410MOL0     C56469   3.453   2.551   5.531 -1.1197  0.4663 -0.0344
  410MOL0     C56470   3.484   2.412   5.581 -0.6796  0.7930  0.3193
  410MOL0     C56471   3.553   2.635   5.497  0.4967 -0.5578 -0.7582
  410MOL0     C56472   3.697   2.621   5.513 -0.4291  0.2719 -1.0451
  410MOL0     O56473   3.759   2.685   5.421 -0.7211  0.5780 -0.0442
  410MOL0     C56474   3.898   2.699   5.413 -0.3706  0.0711  0.5038
  410MOL0     C56475   3.949   2.735   5.283 -0.5286  0.1125 -0.3859
  410MOL0     C56476   4.078   2.764   5.260 -0.7308 -0.0463  0.4396
  410MOL0     C56477   4.170   2.763   5.368 -0.4173  0.0719  0.7568
  410MOL0     O56478   4.299   2.799   5.326 -0.8665 -0.1905  0.3490
  410MOL0     C56479   4.397   2.749   5.415 -0.3235 -0.0120 -0.4416
  410MOL0     C56480   4.539   2.771   5.355  0.7877 -0.3846 -0.8809
  410MOL0     C56481   4.572   2.919   5.349  0.3609 -0.6457  0.0029
  410MOL0     C56482   4.721   2.954   5.321  0.1412  0.7403  0.2207
  410MOL0     C56483   4.762   3.100   5.342  0.3218 -0.5691  0.3001
  410MOL0     C56484   4.913   3.119   5.322 -0.2667  0.6551 -0.3615
  410MOL0     C56485   4.981   3.250   5.346  0.2062  0.6493  0.6459
  410MOL0     C56486   4.989   3.304   5.481  1.1587 -0.8147 -0.8218
  410MOL0    Cl56487   5.058   3.464   5.469  0.2826  0.3866 -0.3715
  410MOL0     C56488   4.128   2.718   5.499 -0.4247  0.5156 -0.2809
  410MOL0     C56489   3.991   2.689   5.516  0.0061  0.3556 -0.3392
  410MOL0     O56490   3.748   2.561   5.607  0.3396 -0.2985 -0.4582
  410MOL0     C56491   3.515   2.770   5.463 -0.5819 -0.0513 -0.9976
  410MOL0     C56492   3.375   2.801   5.443 -0.0303 -0.4356  0.3876
  410MOL0     N56493   2.801   3.147   5.460  0.4454 -0.0470  0.4442
  410MOL0     N56494   2.719   3.230   5.531 -0.2236  0.3931 -1.3808
  410MOL0     C56495   1.903   3.445   6.030  0.3197  0.1256 -0.6651
  410MOL0     C56496   1.788   3.487   5.960 -0.8246  0.7426  1.1401
  410MOL0     C56497   1.378   3.575   5.839 -0.2631 -0.5844  0.1041
  410MOL0     C56498   1.311   3.662   5.926  0.0939  0.1225  0.4694
  410MOL0     C56499   1.175   3.689   5.928  0.4642 -0.2938  0.7383
  410MOL0     C56500   1.091   3.615   5.842 -0.3753 -0.3031  0.5257
  410MOL0     O56501   0.952   3.624   5.836  0.0337 -0.3254 -0.2666
  410MOL0     C56502   0.884   3.718   5.923 -0.0911 -0.0525  0.0106
  410MOL0     C56503   0.737   3.702   5.898 -0.2197  0.1923 -0.0477
  410MOL0     C56504   0.712   3.717   5.742  0.6029  0.7469 -0.4412
  410MOL0     C56505   0.561   3.740   5.702  0.2615  0.5845 -0.8025
  410MOL0     C56506   0.540   3.772   5.560 -0.6737 -0.2957  0.4457
  410MOL0     C56507   0.500   3.793   5.449 -0.3027 -0.4394 -0.7742
  410MOL0     C56508   1.156   3.529   5.748 -0.4260  0.0797  0.0880
  410MOL0     C56509   1.296   3.506   5.749  0.8134 -0.0190 -0.5780
  410MOL0     C56510   1.350   3.392   5.664  0.8772 -0.0136  0.5012
  410MOL0     H56511   1.717   3.789   6.101 -1.8710 -0.2420  0.9581
  410MOL0     H56512   1.952   3.743   6.186  1.2905  0.8227 -1.4821
  410MOL0     H56513   2.090   3.625   6.327  1.7957  1.3943  1.4783
  410MOL0     H56514   2.188   3.678   6.186  0.3619 -1.3060 -2.2927
  410MOL0     H56515   2.324   3.567   6.379 -1.2707 -0.6347  1.5749
  410MOL0     H56516   2.220   3.427   6.372  0.0017 -1.3823 -0.6670
  410MOL0     H56517   2.431   3.388   6.264 -0.5669  0.4461  1.1223
  410MOL0     H56518   2.289   3.359   6.152 -3.2538  0.8683  1.6387
  410MOL0     H56519   2.356   3.566   6.036  0.0136 -1.2123 -0.8562
  410MOL0     H56520   2.476   3.609   6.156  3.4953 -2.8828  2.0790
  410MOL0     H56521   2.623   3.413   6.092  0.5944  0.2953 -1.3272
  410MOL0     H56522   2.594   3.546   5.978  1.0423  0.3292 -0.0564
  410MOL0     H56523   2.458   3.283   5.987 -2.8034  1.3414  0.7117
  410MOL0     H56524   2.422   3.411   5.866 -0.1458 -1.5840 -0.7980
  410MOL0     H56525   2.716   3.312   5.898  0.9453  2.0593 -2.1509
  410MOL0     H56526   2.642   3.395   5.764 -0.2923  1.0613  0.1537
  410MOL0     H56527   2.568   3.099   5.802  2.0216 -0.2088 -0.1862
  410MOL0     H56528   2.493   3.221   5.715 -1.1584  1.4284  3.2777
  410MOL0     H56529   2.781   2.985   5.745 -0.6073  0.0044 -0.2864
  410MOL0     H56530   3.004   2.910   5.603  0.9210  3.2788 -0.7664
  410MOL0     H56531   2.996   2.944   5.438  2.5281  1.7385  1.3850
  410MOL0     H56532   2.831   2.751   5.598  0.0531  0.1837  0.4769
  410MOL0     H56533   2.750   2.828   5.469  1.3899  3.8974 -0.9688
  410MOL0     H56534   2.834   2.638   5.353 -2.3776  1.1600  2.0446
  410MOL0     H56535   2.927   2.772   5.299 -2.2147 -0.5716 -0.4598
  410MOL0     H56536   3.040   2.594   5.524  0.3701  0.6634 -0.7801
  410MOL0     H56537   3.059   2.556   5.351  0.0207  1.2694 -0.7603
  410MOL0     H56538   3.250   2.507   5.516  1.3590 -1.3044  1.9562
  410MOL0     H56539   3.585   2.376   5.563 -0.6189 -0.0134  2.0969
  410MOL0     H56540   3.418   2.339   5.532 -1.6957  2.0942 -0.3153
  410MOL0     H56541   3.454   2.420   5.686 -1.9738  4.1138 -0.1528
  410MOL0     H56542   3.893   2.737   5.190  1.6167 -0.1710 -1.7557
  410MOL0     H56543   4.116   2.809   5.169 -0.1568 -0.6844  0.3543
  410MOL0     H56544   4.395   2.795   5.514  0.3689 -3.6958  1.4313
  410MOL0     H56545   4.386   2.643   5.436  1.2418 -0.1386 -0.1374
  410MOL0     H56546   4.610   2.720   5.421  0.7524  0.5907 -0.0780
  410MOL0     H56547   4.545   2.717   5.260  0.4144  0.1516 -1.2139
  410MOL0     H56548   4.534   2.972   5.437 -3.0057 -0.5640 -1.3556
  410MOL0     H56549   4.526   2.974   5.266  4.4367  2.2446 -0.6528
  410MOL0     H56550   4.753   2.920   5.223  1.2410 -1.2069  1.1889
  410MOL0     H56551   4.781   2.896   5.391 -1.2562  1.0276  1.7356
  410MOL0     H56552   4.706   3.166   5.275 -0.2930  0.7922  2.0630
  410MOL0     H56553   4.740   3.129   5.445  1.3662  0.1309  0.3443
  410MOL0     H56554   4.940   3.094   5.219 -0.8643  0.4497 -0.4739
  410MOL0     H56555   4.960   3.036   5.375 -0.5804 -1.1263 -2.7157
  410MOL0     H56556   4.941   3.314   5.267  1.9698 -0.5218 -1.3235
  410MOL0     H56557   5.077   3.233   5.295 -0.6094  2.2208 -1.5961
  410MOL0     H56558   5.058   3.233   5.527 -0.3593 -0.9661  1.3923
  410MOL0     H56559   4.889   3.299   5.527  0.1231 -2.5531 -3.0682
  410MOL0     H56560   4.208   2.705   5.571  2.8516  0.4371 -3.6390
  410MOL0     H56561   3.978   2.655   5.619  1.6166  0.4884 -0.0601
  410MOL0     H56562   3.597   2.840   5.453  0.5159 -1.1976 -0.2841
  410MOL0     H56563   3.358   2.906   5.423  2.3695 -0.1427 -0.3509
  410MOL0     H56564   1.942   3.345   6.017 -3.0401 -1.0933 -2.5527
  410MOL0     H56565   1.743   3.408   5.901  1.2107  0.6645 -0.4117
  410MOL0     H56566   1.364   3.726   5.996 -2.8147  0.7786  2.2540
  410MOL0     H56567   1.133   3.751   6.006  1.1325  0.1784  0.7333
  410MOL0     H56568   0.892   3.691   6.029  0.2119 -0.7902 -0.1930
  410MOL0     H56569   0.926   3.816   5.903  1.8942 -0.8463  0.0600
  410MOL0     H56570   0.683   3.783   5.947 -2.6810 -0.6301 -1.2253
  410MOL0     H56571   0.701   3.606   5.938 -0.9014  1.7016  3.3254
  410MOL0     H56572   0.769   3.805   5.711  2.5188  0.6278  2.3654
  410MOL0     H56573   0.744   3.622   5.697  1.5457  1.2656 -0.8917
  410MOL0     H56574   0.520   3.820   5.764 -3.6545 -2.9835  1.7810
  410MOL0     H56575   0.506   3.654   5.742  0.5143  1.2696  1.1580
  410MOL0     H56576   0.479   3.824   5.348  0.4017  0.9384 -0.5270
  410MOL0     H56577   1.096   3.473   5.677 -2.8115  4.5125 -1.7611
  410MOL0     H56578   1.415   3.326   5.722 -0.8331 -3.5212 -1.1770
  410MOL0     H56579   1.269   3.339   5.611 -1.1450  1.7668  1.6499
  410MOL0     H56580   1.419   3.430   5.588  0.9066  0.2586  0.6672
  411MOL0     O56581   9.773   5.539   3.525 -0.2322  0.3305 -0.1474
  411MOL0     C56582   9.748   5.466   3.622 -0.3592  0.2070 -0.4379
  411MOL0     O56583   9.824   5.356   3.656  0.5597  0.8561 -0.1240
  411MOL0     C56584   9.943   5.334   3.592 -0.4324 -0.1778  0.7074
  411MOL0     C56585  10.056   5.394   3.647 -0.6404  0.1315 -0.2023
  411MOL0     C56586  10.182   5.383   3.573 -0.8143  0.4678 -0.6603
  411MOL0     C56587  10.196   5.319   3.452 -0.2979  0.7397  0.1148
  411MOL0     O56588  10.323   5.296   3.405 -0.3903 -0.2860 -0.2576
  411MOL0     C56589  10.334   5.296   3.260 -0.3229 -0.4100 -0.2147
  411MOL0     C56590  10.441   5.405   3.231 -0.3148  0.0861 -0.2785
  411MOL0     C56591  10.467   5.423   3.082  0.4384  1.0968  0.0122
  411MOL0     C56592  10.560   5.540   3.060 -0.0590  0.4467  0.2947
  411MOL0     C56593  10.588   5.586   2.913  0.1943 -0.6081  0.2304
  411MOL0     C56594  10.678   5.710   2.884  1.4685 -0.4231 -0.2114
  411MOL0     C56595  10.821   5.681   2.927 -0.2431 -0.0028 -1.1446
  411MOL0     C56596  10.893   5.815   2.943 -0.6801 -0.3009  0.6316
  411MOL0     N56597  11.041   5.813   2.960  0.0969 -0.5566 -0.7159
  411MOL0     C56598  11.135   5.847   2.862  0.3788 -0.3094  0.0612
  411MOL0     C56599  11.249   5.804   2.909  0.6597 -0.2718  0.5259
  411MOL0     C56600  11.382   5.804   2.851 -0.4601 -0.1487  1.1010
  411MOL0     C56601  11.476   5.901   2.932  0.2309 -0.6955 -0.3680
  411MOL0     C56602  11.597   5.944   2.854 -0.6959  0.5686 -0.0480
  411MOL0     C56603  11.689   6.050   2.921 -0.1461  0.0443 -0.0131
  411MOL0     O56604  11.726   6.002   3.045  0.0627  0.3727 -0.7281
  411MOL0     C56605  11.828   6.060   3.125  0.1394  0.2438  0.1827
  411MOL0     C56606  11.928   6.147   3.084  0.2174  0.1315  0.0552
  411MOL0     C56607  12.041   6.180   3.161  1.2734  0.3524  1.5344
  411MOL0     C56608  12.135   6.278   3.087  0.2268 -0.3109 -0.2017
  411MOL0     C56609  12.047   6.138   3.291  0.5538  1.2457  0.6579
  411MOL0     C56610  12.150   6.186   3.379 -0.4744 -0.1019 -0.2880
  411MOL0     O56611  12.265   6.112   3.396 -0.6071  0.3749 -0.4067
  411MOL0     C56612  12.357   6.184   3.473 -0.4309  0.4340 -0.0175
  411MOL0     C56613  12.328   6.207   3.609 -0.0635 -0.1632  0.1664
  411MOL0     C56614  12.431   6.254   3.696  0.4856  1.1674 -0.7728
  411MOL0     C56615  12.561   6.286   3.654  0.0146  0.2324  1.2627
  411MOL0     O56616  12.655   6.329   3.741 -1.0941 -0.7450  0.2875
  411MOL0     C56617  12.797   6.340   3.698 -0.2995  0.4774  0.0308
  411MOL0     C56618  12.893   6.352   3.819  1.2300  0.8370 -0.7432
  411MOL0     C56619  12.866   6.243   3.922 -0.6973 -0.4101 -0.4502
  411MOL0     C56620  13.001   6.209   3.995 -0.2306  0.1808 -0.1721
  411MOL0     C56621  13.076   6.082   3.947 -0.1658 -0.3603 -0.2349
  411MOL0     C56622  13.217   6.073   3.988 -0.3175  0.3518 -0.9747
  411MOL0     C56623  13.281   5.932   3.966  0.6074  0.7920  0.7889
  411MOL0     C56624  13.191   5.826   4.038  0.1297  0.2597 -0.1337
  411MOL0    Cl56625  13.299   5.686   4.075 -0.0263 -0.3649 -0.3445
  411MOL0     C56626  12.589   6.265   3.512 -0.1903 -0.5509  0.0098
  411MOL0     C56627  12.490   6.217   3.425 -0.3574 -0.3181  0.2162
  411MOL0     O56628  12.126   6.295   3.439  0.2133  0.3208  0.2249
  411MOL0     C56629  11.944   6.045   3.344 -0.5845 -0.1947  0.5344
  411MOL0     C56630  11.836   6.012   3.259 -0.2899 -0.8782  0.2366
  411MOL0     N56631  11.230   5.732   3.021  0.1574  0.0949 -0.5845
  411MOL0     N56632  11.107   5.736   3.055  0.6052  0.9991  0.0746
  411MOL0     C56633  10.075   5.250   3.405 -0.2145 -0.7279  0.0818
  411MOL0     C56634   9.952   5.266   3.469  0.1209 -0.5141  0.1885
  411MOL0     C56635   9.636   5.502   3.706  0.1255 -0.3173  0.0188
  411MOL0     C56636   9.652   5.516   3.847  0.2104 -0.2156 -0.2625
  411MOL0     C56637   9.547   5.544   3.932  0.0711 -0.0326  0.1290
  411MOL0     C56638   9.420   5.569   3.875 -0.3093  0.3895  0.3753
  411MOL0     O56639   9.317   5.594   3.961 -0.3854  0.3526 -0.0072
  411MOL0     C56640   9.267   5.737   3.947  1.0454 -0.0849  0.2663
  411MOL0     C56641   9.173   5.767   4.072 -0.2755 -0.6297  0.1649
  411MOL0     C56642   9.078   5.661   4.114 -0.8692 -0.5078  0.1724
  411MOL0     C56643   9.045   5.684   4.257  0.3667  0.8725 -0.0727
  411MOL0     C56644   9.139   5.616   4.347 -0.9482 -0.8023  0.2750
  411MOL0     C56645   9.214   5.550   4.419 -0.4939 -0.0477 -0.0446
  411MOL0     C56646   9.400   5.569   3.735 -0.6647  0.0815  0.1351
  411MOL0     C56647   9.509   5.537   3.656  0.8982  0.3677  0.9923
  411MOL0     C56648   9.485   5.532   3.508  0.1500  0.3779 -0.6624
  411MOL0     H56649  10.055   5.450   3.740  1.2630  1.7923 -1.1127
  411MOL0     H56650  10.270   5.440   3.602 -0.8981  0.2532  0.0503
  411MOL0     H56651  10.249   5.323   3.197  2.3293  3.4062 -2.5884
  411MOL0     H56652  10.379   5.200   3.230  0.3339 -0.4217  0.7730
  411MOL0     H56653  10.395   5.496   3.272 -0.3088  0.9262 -2.0229
  411MOL0     H56654  10.536   5.376   3.275 -1.1527  0.9703  2.2778
  411MOL0     H56655  10.517   5.339   3.034 -0.1296  1.0306 -0.4881
  411MOL0     H56656  10.370   5.448   3.038  0.1782  0.2779  0.1009
  411MOL0     H56657  10.517   5.626   3.113  2.0486  1.6927  0.0755
  411MOL0     H56658  10.654   5.513   3.108  0.6900  2.3008 -0.0641
  411MOL0     H56659  10.492   5.599   2.863  1.2633  1.1499 -1.5446
  411MOL0     H56660  10.636   5.508   2.852  1.1854  0.0498  0.1429
  411MOL0     H56661  10.676   5.733   2.778  1.8579 -1.4463 -0.4598
  411MOL0     H56662  10.633   5.794   2.937  2.1018  0.1523 -0.5710
  411MOL0     H56663  10.875   5.623   2.852 -1.5939 -1.8173 -0.7829
  411MOL0     H56664  10.821   5.631   3.024 -1.2234 -1.0477 -1.6461
  411MOL0     H56665  10.875   5.868   2.849 -0.5587 -1.0292  0.1906
  411MOL0     H56666  10.845   5.867   3.026 -2.2090 -2.4556  1.1648
  411MOL0     H56667  11.124   5.896   2.765  4.6651  2.4575  0.7235
  411MOL0     H56668  11.363   5.839   2.749 -1.6595  0.5700  1.5505
  411MOL0     H56669  11.408   5.698   2.841 -3.3081 -0.9559  1.5490
  411MOL0     H56670  11.421   5.987   2.970 -2.0261 -1.9073 -0.6829
  411MOL0     H56671  11.506   5.847   3.022  0.3491  0.6593  0.4290
  411MOL0     H56672  11.665   5.859   2.842 -1.4753 -1.2793  5.7304
  411MOL0     H56673  11.566   5.977   2.754  2.4434  0.9823 -1.0104
  411MOL0     H56674  11.784   6.070   2.871  0.4093 -4.0973 -0.9243
  411MOL0     H56675  11.636   6.143   2.946 -1.3162 -0.8348  0.9165
  411MOL0     H56676  11.919   6.181   2.981  0.0376 -2.0071 -0.6850
  411MOL0     H56677  12.097   6.309   2.990  0.7346 -1.0724 -0.6545
  411MOL0     H56678  12.229   6.231   3.057  0.2305  0.3804 -1.3362
  411MOL0     H56679  12.162   6.357   3.159  4.4695 -2.6373  1.1634
  411MOL0     H56680  12.227   6.185   3.643  0.3338 -0.5029  1.1849
  411MOL0     H56681  12.398   6.266   3.798 -0.3943  3.0395 -1.2489
  411MOL0     H56682  12.820   6.252   3.637  0.3820  0.7788 -0.1545
  411MOL0     H56683  12.828   6.418   3.628 -0.6349 -0.2136 -0.8987
  411MOL0     H56684  12.999   6.348   3.792  1.7971 -1.9079  1.3709
  411MOL0     H56685  12.875   6.453   3.858  0.7499  0.7989 -0.8609
  411MOL0     H56686  12.828   6.145   3.892  0.5618 -1.7627  2.0190
  411MOL0     H56687  12.802   6.284   4.000  0.5642 -1.0252  0.9533
  411MOL0     H56688  12.980   6.194   4.102 -3.4117 -0.3726 -0.7717
  411MOL0     H56689  13.061   6.300   3.989  0.1516 -0.1373 -1.3892
  411MOL0     H56690  13.024   5.988   3.970  0.7757 -0.5899  1.0924
  411MOL0     H56691  13.081   6.088   3.838  0.2827  0.1116 -0.1922
  411MOL0     H56692  13.212   6.083   4.097  0.9500 -3.1828 -0.4754
  411MOL0     H56693  13.276   6.157   3.949 -0.5502  1.3748  0.7770
  411MOL0     H56694  13.381   5.938   4.011  1.2896 -2.0733 -0.1258
  411MOL0     H56695  13.305   5.895   3.866 -0.9969 -0.4015  0.8108
  411MOL0     H56696  13.100   5.797   3.985  0.7576  0.1563 -1.1696
  411MOL0     H56697  13.161   5.869   4.134 -3.0504  0.3033 -1.0414
  411MOL0     H56698  12.678   6.302   3.460  0.1747  0.8187  1.5215
  411MOL0     H56699  12.512   6.214   3.319  2.8141  1.0874  0.7109
  411MOL0     H56700  11.967   6.010   3.444 -1.4463  0.7449  1.0763
  411MOL0     H56701  11.766   5.941   3.301 -0.1614 -0.8031  0.5782
  411MOL0     H56702  10.083   5.200   3.310  1.4977 -0.5566  0.1030
  411MOL0     H56703   9.865   5.234   3.413  1.3894  0.6333 -2.6481
  411MOL0     H56704   9.751   5.495   3.887  0.7410  1.3550 -0.6779
  411MOL0     H56705   9.553   5.543   4.040  1.3150  0.0920  0.0759
  411MOL0     H56706   9.350   5.808   3.954  2.6110 -1.8789  0.7424
  411MOL0     H56707   9.199   5.744   3.861  3.5281  0.3495 -1.7690
  411MOL0     H56708   9.138   5.871   4.068  1.5479  0.0577  0.9126
  411MOL0     H56709   9.242   5.784   4.156  0.5620  0.1496 -0.6519
  411MOL0     H56710   8.985   5.668   4.057 -1.6234  1.0374  1.5278
  411MOL0     H56711   9.111   5.557   4.114 -0.8298 -0.5218 -1.7669
  411MOL0     H56712   8.954   5.628   4.275  0.8556  0.3810  0.9550
  411MOL0     H56713   9.029   5.790   4.278 -0.4424  0.5012  1.2424
  411MOL0     H56714   9.279   5.479   4.465  3.5494  2.0525 -1.9410
  411MOL0     H56715   9.302   5.585   3.692 -1.6313 -2.6093  1.1045
  411MOL0     H56716   9.523   5.435   3.472  1.8902  0.8021 -0.0497
  411MOL0     H56717   9.378   5.546   3.488 -0.3235 -1.9938 -0.0940
  411MOL0     H56718   9.539   5.613   3.458  1.8255  0.5842  1.3850
  412MOL0     O56719   9.894  10.766   7.427  0.3209 -0.0295  0.1744
  412MOL0     C56720   9.962  10.716   7.521  0.0138 -0.1903  0.7266
  412MOL0     O56721   9.975  10.768   7.650 -0.1307 -0.3276  0.5431
  412MOL0     C56722   9.877  10.850   7.702 -0.6407  0.7974 -0.6594
  412MOL0     C56723   9.740  10.845   7.666  1.0811 -0.1383  0.4368
  412MOL0     C56724   9.652  10.946   7.718 -0.1107  0.1324  0.8942
  412MOL0     C56725   9.699  11.034   7.821  0.8587 -0.6201 -0.2121
  412MOL0     O56726   9.611  11.127   7.881 -0.2706 -0.6307  0.3850
  412MOL0     C56727   9.636  11.192   8.005 -0.1845  0.4375  0.4416
  412MOL0     C56728   9.526  11.292   8.037  0.6564 -0.2860  0.2005
  412MOL0     C56729   9.472  11.382   7.929  0.7491  0.3497 -0.4948
  412MOL0     C56730   9.520  11.524   7.949  0.5842 -0.4876 -0.0856
  412MOL0     C56731   9.435  11.624   7.877  0.4192  0.5633 -1.3165
  412MOL0     C56732   9.469  11.774   7.919  0.2077  0.5736  0.8965
  412MOL0     C56733   9.401  11.801   8.055 -0.3062  0.1948 -0.0955
  412MOL0     C56734   9.391  11.951   8.091 -0.2442  1.0681  0.3375
  412MOL0     N56735   9.386  11.969   8.234 -0.3306  0.1430 -0.2378
  412MOL0     C56736   9.282  11.946   8.320 -1.3117  0.3577 -0.4958
  412MOL0     C56737   9.326  11.977   8.446 -0.8398 -0.6457  0.6106
  412MOL0     C56738   9.243  11.958   8.564 -0.0506 -0.1732  0.9050
  412MOL0     C56739   9.301  12.026   8.687 -0.6155  0.0969  0.6980
  412MOL0     C56740   9.293  12.185   8.688  0.1460  0.7718 -0.1870
  412MOL0     C56741   9.416  12.252   8.754 -0.1464 -0.0244 -0.1050
  412MOL0     O56742   9.402  12.272   8.887 -0.1544  0.7573  0.5640
  412MOL0     C56743   9.327  12.378   8.924 -0.5282 -0.6264 -0.2845
  412MOL0     C56744   9.319  12.381   9.062  0.4753  0.2152 -0.3263
  412MOL0     C56745   9.260  12.481   9.137  0.7537  0.7722  0.0905
  412MOL0     C56746   9.260  12.470   9.287 -0.9654  0.7591  0.0841
  412MOL0     C56747   9.184  12.581   9.072 -0.9910 -0.2338  0.5401
  412MOL0     C56748   9.128  12.705   9.137  0.5261 -0.2255  0.0377
  412MOL0     O56749   9.011  12.761   9.068  0.2874 -0.0004 -0.6030
  412MOL0     C56750   8.955  12.887   9.099  0.8695 -0.2241  0.7412
  412MOL0     C56751   8.948  12.941   9.236 -0.0857  0.0481  0.2677
  412MOL0     C56752   8.886  13.067   9.260  0.4982  0.0259 -0.0055
  412MOL0     C56753   8.835  13.142   9.152  0.3783  0.3331 -0.1514
  412MOL0     O56754   8.765  13.258   9.187  0.0938 -0.5554  0.2920
  412MOL0     C56755   8.758  13.369   9.091 -1.0976  0.1660 -0.3569
  412MOL0     C56756   8.736  13.505   9.165  0.4081  0.1054 -0.6555
  412MOL0     C56757   8.604  13.515   9.255 -1.0404 -0.3133  0.0069
  412MOL0     C56758   8.590  13.651   9.328  0.1846 -0.2880 -0.1043
  412MOL0     C56759   8.458  13.661   9.413 -0.5144 -0.7973  0.5142
  412MOL0     C56760   8.406  13.806   9.418 -0.5071 -0.6138 -0.0613
  412MOL0     C56761   8.472  13.897   9.528 -0.7587 -0.6492  0.3988
  412MOL0     C56762   8.388  13.901   9.654  0.8056  0.1529 -0.0518
  412MOL0    Cl56763   8.472  13.948   9.798 -0.4337 -0.0733 -0.0815
  412MOL0     C56764   8.848  13.091   9.019 -0.1589 -0.3784  0.0926
  412MOL0     C56765   8.914  12.970   8.996  1.1033 -0.8550  0.6512
  412MOL0     O56766   9.190  12.762   9.232  0.9850  1.0591 -0.0460
  412MOL0     C56767   9.189  12.582   8.928 -0.1634  0.2896  0.1015
  412MOL0     C56768   9.261  12.481   8.861 -0.4840 -0.3689 -0.9452
  412MOL0     N56769   9.454  12.013   8.440 -0.0676 -0.6901  0.2312
  412MOL0     N56770   9.493  12.004   8.310  0.0967  0.5888  0.2053
  412MOL0     C56771   9.823  11.008   7.877  0.1491  0.3962  0.9981
  412MOL0     C56772   9.917  10.921   7.823 -1.2707 -0.5113  0.0726
  412MOL0     C56773  10.050  10.594   7.497 -1.0158 -0.3429 -0.7551
  412MOL0     C56774  10.106  10.541   7.616 -0.1068 -0.2934 -0.2144
  412MOL0     C56775  10.197  10.435   7.603 -0.7463 -0.5555  0.1624
  412MOL0     C56776  10.233  10.371   7.484  1.1775 -0.2053  0.4778
  412MOL0     O56777  10.310  10.255   7.498 -0.3246  0.0938 -0.0783
  412MOL0     C56778  10.232  10.137   7.488  0.2808  0.8839  0.8003
  412MOL0     C56779  10.282  10.022   7.568 -0.4349  0.0070 -0.5553
  412MOL0     C56780  10.225  10.041   7.710 -0.4006  1.3020 -0.2321
  412MOL0     C56781  10.287   9.935   7.807 -0.3205  0.2963 -0.9044
  412MOL0     C56782  10.280   9.976   7.949 -0.1761 -0.5193 -0.9820
  412MOL0     C56783  10.282  10.005   8.061 -0.3831  0.0908 -0.2045
  412MOL0     C56784  10.181  10.425   7.370  0.2757  0.7655  0.3897
  412MOL0     C56785  10.091  10.540   7.376 -0.9823 -0.1036  0.5140
  412MOL0     C56786  10.059  10.591   7.240 -0.5961 -0.1716  0.3383
  412MOL0     H56787   9.711  10.776   7.589  1.3335 -1.3739  1.4183
  412MOL0     H56788   9.547  10.952   7.692 -0.9053 -3.9169  2.3916
  412MOL0     H56789   9.725  11.251   7.982 -2.5314  3.8125 -0.7857
  412MOL0     H56790   9.655  11.126   8.090 -2.7358 -0.8896  0.0928
  412MOL0     H56791   9.447  11.230   8.081  2.2567 -1.0179  2.1555
  412MOL0     H56792   9.564  11.346   8.124 -0.3615 -1.2072  1.2657
  412MOL0     H56793   9.496  11.338   7.831 -0.0922  0.4890 -0.7804
  412MOL0     H56794   9.364  11.362   7.937  1.0268 -0.4283  2.5416
  412MOL0     H56795   9.522  11.545   8.056  2.9229  0.0830 -0.1843
  412MOL0     H56796   9.626  11.522   7.922  1.3538  1.9025  2.2686
  412MOL0     H56797   9.329  11.603   7.890  0.3742  0.5053 -1.7610
  412MOL0     H56798   9.450  11.613   7.769  0.6995  3.9307 -1.7359
  412MOL0     H56799   9.575  11.799   7.924  0.9254 -2.1597  0.5036
  412MOL0     H56800   9.423  11.841   7.845 -0.3559 -0.1404  0.5924
  412MOL0     H56801   9.464  11.752   8.130  0.7058  0.5285 -0.7071
  412MOL0     H56802   9.300  11.760   8.056 -1.1345  2.0422 -1.5238
  412MOL0     H56803   9.472  12.008   8.045  1.5285 -1.9308 -0.5909
  412MOL0     H56804   9.292  11.975   8.051  0.5776 -0.7664 -3.2217
  412MOL0     H56805   9.184  11.905   8.295 -0.5229 -1.1129 -1.3146
  412MOL0     H56806   9.248  11.851   8.587 -0.7336 -0.2900  0.5378
  412MOL0     H56807   9.135  11.972   8.555 -0.0430 -1.2979 -1.5467
  412MOL0     H56808   9.250  11.982   8.773  0.5206 -1.4582  0.6156
  412MOL0     H56809   9.403  11.991   8.701  0.0332  2.3582  2.1549
  412MOL0     H56810   9.300  12.228   8.588  2.9385 -0.7747 -0.7710
  412MOL0     H56811   9.196  12.206   8.734  0.5510  2.1869  0.0746
  412MOL0     H56812   9.506  12.193   8.735  0.0229  0.2230 -0.0737
  412MOL0     H56813   9.437  12.343   8.696 -0.3343 -1.5219 -2.7107
  412MOL0     H56814   9.363  12.301   9.119  3.0302  0.4299 -1.8351
  412MOL0     H56815   9.346  12.527   9.322  0.1398 -0.6007 -0.3033
  412MOL0     H56816   9.263  12.369   9.330 -0.9979 -0.1447 -1.9115
  412MOL0     H56817   9.168  12.512   9.329 -2.9891 -0.6827 -2.5706
  412MOL0     H56818   8.973  12.872   9.316  2.6924 -0.2318 -0.7194
  412MOL0     H56819   8.870  13.093   9.364 -0.4425  1.3025 -0.4382
  412MOL0     H56820   8.853  13.381   9.037 -0.9126  0.3558  0.0030
  412MOL0     H56821   8.684  13.347   9.014  1.5139 -0.6627 -2.8064
  412MOL0     H56822   8.814  13.536   9.235 -1.1420 -0.7663  1.5721
  412MOL0     H56823   8.715  13.575   9.084  0.7520 -0.1453 -0.9635
  412MOL0     H56824   8.614  13.438   9.332  0.8064 -1.2359 -1.0855
  412MOL0     H56825   8.519  13.486   9.194 -2.4635 -1.2735  2.3114
  412MOL0     H56826   8.587  13.729   9.251  3.5850 -1.1519 -1.3041
  412MOL0     H56827   8.678  13.679   9.386 -0.2076  0.8110 -0.0194
  412MOL0     H56828   8.384  13.593   9.370  0.5082 -3.0114  2.0331
  412MOL0     H56829   8.477  13.619   9.512  3.0448 -0.3362  0.1879
  412MOL0     H56830   8.298  13.811   9.427 -0.4891 -0.1050 -0.0916
  412MOL0     H56831   8.426  13.861   9.326 -0.1160  1.2769  1.0842
  412MOL0     H56832   8.478  14.001   9.495  1.5522 -0.0044  2.5606
  412MOL0     H56833   8.575  13.859   9.531 -0.7633 -1.2821 -2.8549
  412MOL0     H56834   8.349  13.802   9.680  4.1145 -1.4918 -0.8295
  412MOL0     H56835   8.303  13.968   9.636  0.5109 -0.3565 -0.6042
  412MOL0     H56836   8.814  13.147   8.933 -3.7684 -0.1702  1.4965
  412MOL0     H56837   8.914  12.943   8.891 -2.1381  1.2896 -0.0782
  412MOL0     H56838   9.133  12.664   8.886 -3.4021  0.3508  3.9113
  412MOL0     H56839   9.261  12.484   8.752 -1.7925 -2.9998 -1.1037
  412MOL0     H56840   9.851  11.063   7.966  0.4959  1.6119  0.1557
  412MOL0     H56841  10.018  10.907   7.859 -1.7245  0.9096  2.0616
  412MOL0     H56842  10.067  10.566   7.714 -3.2376 -1.8154 -0.9307
  412MOL0     H56843  10.233  10.389   7.694  0.4453  2.1486  1.1836
  412MOL0     H56844  10.131  10.159   7.526  0.2567  0.4118  1.0171
  412MOL0     H56845  10.230  10.108   7.383 -2.1727 -4.5367  1.9945
  412MOL0     H56846  10.391  10.017   7.576 -0.5629 -1.2465  0.7706
  412MOL0     H56847  10.247   9.933   7.514 -0.0695  0.6934 -1.9706
  412MOL0     H56848  10.256  10.138   7.751  0.8885  0.9773 -0.3890
  412MOL0     H56849  10.116  10.030   7.705 -0.2975  0.7276 -1.5121
  412MOL0     H56850  10.392   9.922   7.780  0.7443 -3.4451  3.7396
  412MOL0     H56851  10.236   9.843   7.775 -1.0805 -0.0379  1.1084
  412MOL0     H56852  10.292  10.051   8.157  0.0879 -1.9312  0.7597
  412MOL0     H56853  10.201  10.380   7.273  0.9713  0.6828  0.5641
  412MOL0     H56854   9.995  10.515   7.195  0.1274 -1.2027  0.9915
  412MOL0     H56855  10.005  10.685   7.244 -0.5245 -0.1289  0.3110
  412MOL0     H56856  10.148  10.603   7.178 -1.5905 -2.2818 -1.6463
  413MOL0     O56857   8.053   5.409   5.321 -0.2340 -0.4275  0.2099
  413MOL0     C56858   7.936   5.424   5.292 -1.1631  0.4912 -1.0097
  413MOL0     O56859   7.845   5.324   5.308  0.0405  0.2493  0.2866
  413MOL0     C56860   7.863   5.189   5.337  0.1872  0.3452 -0.8879
  413MOL0     C56861   7.978   5.120   5.321 -0.1833  0.0836 -0.5424
  413MOL0     C56862   7.998   4.991   5.367 -0.6406 -0.2777 -0.1170
  413MOL0     C56863   7.903   4.921   5.438  0.7086 -0.0201  0.5707
  413MOL0     O56864   7.920   4.803   5.499  0.1781  0.2160  0.8058
  413MOL0     C56865   7.997   4.702   5.424 -0.4386 -0.4725 -0.3836
  413MOL0     C56866   7.943   4.558   5.469 -0.2980 -0.0981  0.2941
  413MOL0     C56867   8.006   4.448   5.365 -0.2840  0.3701 -0.2937
  413MOL0     C56868   7.954   4.309   5.383 -0.0970  0.2917  0.1120
  413MOL0     C56869   8.009   4.205   5.283  0.3749 -0.7596 -0.1781
  413MOL0     C56870   8.160   4.201   5.259 -0.0269 -0.0657  0.4965
  413MOL0     C56871   8.192   4.098   5.150  0.1144  0.3400 -0.5494
  413MOL0     C56872   8.347   4.080   5.148 -0.0501  0.0167  0.6684
  413MOL0     N56873   8.427   4.201   5.151 -0.5213  0.4876 -0.1912
  413MOL0     C56874   8.456   4.286   5.047 -0.4664  0.4942 -0.3727
  413MOL0     C56875   8.524   4.391   5.108 -0.3877  0.4110  0.2245
  413MOL0     C56876   8.570   4.504   5.028  0.0935 -0.6047  0.1739
  413MOL0     C56877   8.672   4.466   4.916  0.4315  0.2467 -0.7979
  413MOL0     C56878   8.699   4.577   4.823  0.1364  0.6097  0.2079
  413MOL0     C56879   8.790   4.540   4.706 -1.1974  0.8148 -0.4690
  413MOL0     O56880   8.889   4.443   4.758  0.1599  0.4835 -0.0458
  413MOL0     C56881   8.961   4.370   4.671  0.3568 -0.8532  0.4516
  413MOL0     C56882   8.909   4.282   4.581  0.0460  0.7263  0.6239
  413MOL0     C56883   8.980   4.228   4.478  0.2904 -0.1677 -0.9016
  413MOL0     C56884   8.907   4.140   4.382 -1.0026 -0.8468  0.9641
  413MOL0     C56885   9.118   4.242   4.482 -0.9019 -0.6264 -0.3024
  413MOL0     C56886   9.215   4.188   4.377  0.5882  0.5933  0.0881
  413MOL0     O56887   9.346   4.216   4.388  0.0958  0.5342 -0.3053
  413MOL0     C56888   9.445   4.163   4.303  0.2225 -0.8680 -0.3901
  413MOL0     C56889   9.557   4.091   4.356  0.0717 -0.0178 -0.3884
  413MOL0     C56890   9.657   4.045   4.278  0.2990 -0.1003 -0.0229
  413MOL0     C56891   9.656   4.072   4.142 -0.3297  0.3074  0.5395
  413MOL0     O56892   9.754   4.021   4.070 -0.6016 -0.9661  0.4006
  413MOL0     C56893   9.818   4.092   3.956  0.0102  0.2866  0.5559
  413MOL0     C56894   9.958   4.141   4.011 -0.5027  0.3676  0.1472
  413MOL0     C56895  10.057   4.021   4.002 -0.2806  0.4105 -0.5915
  413MOL0     C56896  10.202   4.051   4.030  0.0118  0.3530  0.9902
  413MOL0     C56897  10.224   4.097   4.179 -0.1017  0.1920 -0.0637
  413MOL0     C56898  10.369   4.115   4.210 -0.3121  0.1853 -0.5960
  413MOL0     C56899  10.455   4.177   4.103 -0.2478  0.7858  0.0517
  413MOL0     C56900  10.599   4.199   4.157  0.5912  0.6192 -0.3368
  413MOL0    Cl56901  10.715   4.190   4.017  0.1450 -0.7171 -0.1250
  413MOL0     C56902   9.545   4.139   4.087 -0.0319  0.1150  0.4274
  413MOL0     C56903   9.441   4.193   4.164 -0.1950 -0.1576 -0.2047
  413MOL0     O56904   9.169   4.103   4.302 -0.1273 -0.1830 -0.0680
  413MOL0     C56905   9.175   4.324   4.578 -0.6212 -0.2632  0.0771
  413MOL0     C56906   9.101   4.396   4.671 -0.2653  0.0377  0.0460
  413MOL0     N56907   8.535   4.370   5.240  0.4070 -0.0143 -0.8908
  413MOL0     N56908   8.473   4.257   5.268  0.0725 -0.0636 -0.0897
  413MOL0     C56909   7.780   4.985   5.459  0.3564 -0.8525 -0.6347
  413MOL0     C56910   7.760   5.117   5.406  0.1576 -0.9757  0.4983
  413MOL0     C56911   7.886   5.553   5.228  0.6074  0.5994  0.2100
  413MOL0     C56912   7.750   5.550   5.182 -0.5687  0.9918  0.0753
  413MOL0     C56913   7.691   5.652   5.107 -0.6600  0.5022 -0.6920
  413MOL0     C56914   7.767   5.762   5.074  0.0268  0.6156  0.2595
  413MOL0     O56915   7.726   5.870   4.994 -0.3120 -0.0709 -0.1234
  413MOL0     C56916   7.597   5.873   4.927  0.2195 -0.5512 -0.4434
  413MOL0     C56917   7.490   5.952   5.005  0.0376 -0.8753  0.3368
  413MOL0     C56918   7.527   6.102   5.016  1.2698 -0.7607  0.0949
  413MOL0     C56919   7.408   6.168   5.085 -0.0701  0.8644 -0.5045
  413MOL0     C56920   7.446   6.306   5.091  0.2616 -0.9749  0.4507
  413MOL0     C56921   7.454   6.422   5.111 -0.3064 -0.4194 -0.2073
  413MOL0     C56922   7.910   5.767   5.105 -0.0777  0.4582  0.3587
  413MOL0     C56923   7.964   5.659   5.187  0.3109  0.3901  0.8200
  413MOL0     C56924   8.105   5.675   5.232  1.0685 -0.1911 -0.0844
  413MOL0     H56925   8.064   5.169   5.276 -0.5776  1.2008 -0.1205
  413MOL0     H56926   8.103   4.965   5.362 -0.9860 -1.7470  0.0431
  413MOL0     H56927   8.103   4.699   5.449 -0.7064 -1.8087  0.6350
  413MOL0     H56928   7.984   4.715   5.316  0.1341 -0.4355 -0.4482
  413MOL0     H56929   7.975   4.530   5.570  3.1102  0.5540 -0.4679
  413MOL0     H56930   7.835   4.558   5.452  0.0198  1.6968 -2.4158
  413MOL0     H56931   8.015   4.487   5.263  1.6437 -3.4859 -1.7798
  413MOL0     H56932   8.106   4.443   5.409 -0.8609 -0.6765  0.9543
  413MOL0     H56933   7.972   4.274   5.485  0.0161  3.0117  1.0989
  413MOL0     H56934   7.847   4.321   5.363 -0.0275 -0.2947 -0.6861
  413MOL0     H56935   7.955   4.228   5.190 -0.3556  1.8815  0.8081
  413MOL0     H56936   7.969   4.112   5.323 -1.7465 -0.8684 -2.2896
  413MOL0     H56937   8.190   4.300   5.225  1.4501  0.0768  2.0571
  413MOL0     H56938   8.216   4.192   5.352 -0.5215 -0.9224  0.7233
  413MOL0     H56939   8.160   4.135   5.052  0.6297 -0.9674 -1.2504
  413MOL0     H56940   8.147   3.999   5.166 -0.1368  0.6603  0.8278
  413MOL0     H56941   8.383   4.011   5.224  1.8975  0.1128 -0.1081
  413MOL0     H56942   8.370   4.041   5.049  1.4282 -3.0232  2.0897
  413MOL0     H56943   8.434   4.277   4.941 -1.0707  0.6345 -0.2655
  413MOL0     H56944   8.603   4.577   5.102 -2.6404  0.5323  0.3801
  413MOL0     H56945   8.478   4.545   4.987 -3.2174 -3.7560  3.6109
  413MOL0     H56946   8.762   4.438   4.971 -1.1561 -2.1089  0.7966
  413MOL0     H56947   8.642   4.376   4.860 -0.8330  1.3807 -2.0053
  413MOL0     H56948   8.608   4.622   4.783 -0.4107 -1.0425 -0.4797
  413MOL0     H56949   8.746   4.651   4.889  0.0012  2.4844 -1.6920
  413MOL0     H56950   8.725   4.492   4.632 -0.9685 -0.1786 -0.0476
  413MOL0     H56951   8.846   4.624   4.665  0.6210  1.6329  3.2554
  413MOL0     H56952   8.802   4.262   4.580  0.4802 -1.9107 -0.9870
  413MOL0     H56953   8.939   4.136   4.278  0.1416 -1.1004  1.3198
  413MOL0     H56954   8.805   4.181   4.376 -0.8110 -0.4849  0.1372
  413MOL0     H56955   8.917   4.040   4.425  3.1379 -0.0917  2.2302
  413MOL0     H56956   9.566   4.077   4.463 -1.3179  1.0361 -0.0983
  413MOL0     H56957   9.736   3.992   4.331 -1.0006 -1.5576  0.5254
  413MOL0     H56958   9.844   4.028   3.871  1.9608 -0.9131  1.9585
  413MOL0     H56959   9.749   4.168   3.920 -3.6283 -2.4167  1.3016
  413MOL0     H56960   9.987   4.227   3.951  0.2108 -0.9428 -1.4714
  413MOL0     H56961   9.932   4.171   4.113 -1.3045  2.0846 -0.5222
  413MOL0     H56962  10.042   3.985   3.900 -0.9448  3.2342 -1.6019
  413MOL0     H56963  10.020   3.937   4.062 -2.3106 -0.3310 -2.7250
  413MOL0     H56964  10.233   4.133   3.965  2.0988 -1.3094 -0.2332
  413MOL0     H56965  10.262   3.963   4.007 -0.1763  0.6261 -0.6531
  413MOL0     H56966  10.173   4.189   4.207 -0.3690 -0.0745  0.3326
  413MOL0     H56967  10.197   4.018   4.249  0.2376  1.4304  1.5128
  413MOL0     H56968  10.404   4.016   4.240  1.1814  0.6204 -0.7843
  413MOL0     H56969  10.375   4.184   4.295 -1.0543  2.4352 -2.2679
  413MOL0     H56970  10.422   4.276   4.072 -2.5437  0.1046  0.1428
  413MOL0     H56971  10.456   4.116   4.012  0.0313  0.1621  0.4630
  413MOL0     H56972  10.632   4.123   4.228 -0.8570  0.6785  0.4264
  413MOL0     H56973  10.595   4.292   4.215 -2.7073  0.3688  0.0320
  413MOL0     H56974   9.545   4.141   3.979  0.0911 -2.1701  0.3313
  413MOL0     H56975   9.364   4.244   4.107 -0.2737 -1.4398 -1.2932
  413MOL0     H56976   9.282   4.340   4.587 -0.6471  0.2703 -0.5582
  413MOL0     H56977   9.149   4.458   4.746 -1.8723  4.6333 -2.3301
  413MOL0     H56978   7.701   4.937   5.516 -0.7694 -1.1504 -2.3678
  413MOL0     H56979   7.673   5.182   5.416 -1.5748 -2.7817 -1.6803
  413MOL0     H56980   7.679   5.471   5.205 -0.1955 -0.7893 -4.0365
  413MOL0     H56981   7.584   5.650   5.090 -1.0286  0.5662  1.4218
  413MOL0     H56982   7.601   5.924   4.830  1.8443  0.2362  0.0010
  413MOL0     H56983   7.547   5.778   4.910  0.5676 -0.3144 -3.1480
  413MOL0     H56984   7.485   5.903   5.102 -0.4753  1.8669  1.8055
  413MOL0     H56985   7.399   5.946   4.944  1.6904  1.7642 -2.7439
  413MOL0     H56986   7.624   6.115   5.064  1.7953  0.1085 -1.1677
  413MOL0     H56987   7.529   6.149   4.917  0.0861  1.6159  1.1140
  413MOL0     H56988   7.395   6.132   5.187  0.6578 -2.1605 -1.3683
  413MOL0     H56989   7.308   6.151   5.043 -0.7468  1.9329  0.6166
  413MOL0     H56990   7.477   6.524   5.131 -0.7613 -0.1218 -1.1156
  413MOL0     H56991   7.972   5.846   5.065 -0.6208  1.0262  0.6133
  413MOL0     H56992   8.146   5.776   5.219  0.1526  0.0260 -1.4971
  413MOL0     H56993   8.128   5.639   5.332 -1.1030  0.0310  0.5395
  413MOL0     H56994   8.167   5.609   5.171  0.1695 -1.4190  0.3050
  414MOL0     O56995  10.051   9.880   6.321 -0.4999  0.3303  1.2033
  414MOL0     C56996  10.012   9.832   6.223 -0.1956  0.9541 -0.3212
  414MOL0     O56997  10.087   9.779   6.120  0.3015 -0.0960 -1.0671
  414MOL0     C56998  10.216   9.756   6.135 -0.0557  0.1221 -0.2945
  414MOL0     C56999  10.261   9.626   6.171  0.2162 -1.2245  0.0873
  414MOL0     C57000  10.397   9.598   6.183 -0.4970  0.7152  0.1309
  414MOL0     C57001  10.494   9.700   6.156  0.4609  1.1249  0.1627
  414MOL0     O57002  10.627   9.661   6.171  0.4656  0.4968 -0.1594
  414MOL0     C57003  10.727   9.750   6.116  1.3502 -0.3615 -0.0755
  414MOL0     C57004  10.856   9.681   6.137  1.7566 -0.1617  0.1118
  414MOL0     C57005  10.968   9.768   6.102 -0.3013 -0.3056  0.0356
  414MOL0     C57006  10.989   9.796   5.956 -0.5855 -0.3108  0.1231
  414MOL0     C57007  11.121   9.881   5.932  0.5011  0.1092  0.2945
  414MOL0     C57008  11.202   9.827   5.820 -0.0814  0.8091  0.7760
  414MOL0     C57009  11.349   9.885   5.798  0.5013 -0.2304  0.2897
  414MOL0     C57010  11.329  10.029   5.761 -0.4715  1.0270 -0.1977
  414MOL0     N57011  11.453  10.082   5.730  0.2926  0.0484 -0.9571
  414MOL0     C57012  11.554  10.113   5.815  0.2764  0.1805  0.1473
  414MOL0     C57013  11.656  10.157   5.736 -0.4883 -0.1251  0.5784
  414MOL0     C57014  11.787  10.210   5.797  0.4032  0.6406  0.3595
  414MOL0     C57015  11.909  10.120   5.757  0.3660 -0.0482  1.2079
  414MOL0     C57016  11.908   9.986   5.823  0.6678 -0.2409  0.2282
  414MOL0     C57017  12.010   9.891   5.759 -0.9901  0.4548 -0.7672
  414MOL0     O57018  12.024   9.792   5.862 -0.3812 -0.0075  0.7141
  414MOL0     C57019  12.090   9.675   5.832 -0.3076  0.0665  0.1944
  414MOL0     C57020  12.085   9.575   5.931 -0.7538 -1.2510 -0.5456
  414MOL0     C57021  12.141   9.446   5.909 -0.0897 -0.6328 -0.0704
  414MOL0     C57022  12.123   9.349   6.024 -0.6583 -0.2350 -0.6971
  414MOL0     C57023  12.205   9.423   5.783 -0.0029 -0.1909 -0.2136
  414MOL0     C57024  12.255   9.289   5.738 -0.5188  0.3019 -0.0193
  414MOL0     O57025  12.278   9.279   5.606  0.2389  0.2638 -1.0478
  414MOL0     C57026  12.306   9.159   5.537 -0.4064  0.5304 -0.5278
  414MOL0     C57027  12.369   9.044   5.588 -1.0726  0.3275 -0.4129
  414MOL0     C57028  12.395   8.933   5.507  0.0949 -0.1808  0.5229
  414MOL0     C57029  12.354   8.933   5.372  0.1082 -0.0726 -0.3248
  414MOL0     O57030  12.367   8.826   5.281 -1.2508 -0.5484 -0.2471
  414MOL0     C57031  12.427   8.705   5.324  0.3893  0.2051  0.3020
  414MOL0     C57032  12.462   8.629   5.203 -0.2566  0.6086  1.0322
  414MOL0     C57033  12.572   8.522   5.243 -0.0658  0.3910 -0.0701
  414MOL0     C57034  12.630   8.468   5.109 -0.3126  0.1442  0.2929
  414MOL0     C57035  12.759   8.381   5.124 -0.6526 -0.2154  0.4603
  414MOL0     C57036  12.831   8.343   4.999  0.0804  0.6950  0.8886
  414MOL0     C57037  12.976   8.310   5.019 -0.8131  0.0989 -0.8880
  414MOL0     C57038  13.001   8.158   5.039 -0.6659 -0.8061  0.1166
  414MOL0    Cl57039  12.911   8.096   5.186 -0.3805 -0.0859  0.4865
  414MOL0     C57040  12.317   9.058   5.313 -0.1240 -0.1024 -0.3241
  414MOL0     C57041  12.297   9.166   5.393 -0.4789  0.0544 -1.0789
  414MOL0     O57042  12.276   9.202   5.825 -0.3921 -0.0971  1.3508
  414MOL0     C57043  12.226   9.525   5.690  0.5417 -0.1583 -0.0316
  414MOL0     C57044  12.157   9.644   5.716 -0.9895  1.1607  0.3949
  414MOL0     N57045  11.616  10.138   5.602 -0.6570 -0.6665  0.3338
  414MOL0     N57046  11.494  10.099   5.603  0.0142  0.3712 -0.2563
  414MOL0     C57047  10.445   9.835   6.140  0.2307  0.1677 -0.2145
  414MOL0     C57048  10.309   9.861   6.129  0.7491 -0.3461  0.3974
  414MOL0     C57049   9.864   9.840   6.202 -0.9214  0.1406 -0.3186
  414MOL0     C57050   9.820   9.879   6.069 -0.2338 -0.5199 -0.8001
  414MOL0     C57051   9.680   9.902   6.057 -0.2350 -0.3640 -0.2621
  414MOL0     C57052   9.579   9.895   6.161 -0.0975  0.1276  1.0951
  414MOL0     O57053   9.443   9.913   6.142  0.2924 -0.3723  0.1532
  414MOL0     C57054   9.379   9.963   6.018 -0.8398  0.1391 -0.7663
  414MOL0     C57055   9.263  10.051   6.068 -0.1205  0.0026  0.1857
  414MOL0     C57056   9.139   9.977   6.100 -0.6852  1.2065  0.9970
  414MOL0     C57057   9.025  10.067   6.134  0.2839 -0.6298  0.2710
  414MOL0     C57058   8.923   9.985   6.199 -0.9834 -0.2542  0.4738
  414MOL0     C57059   8.853   9.918   6.274 -0.1245 -0.1143 -0.9653
  414MOL0     C57060   9.636   9.859   6.287  0.2928  0.4168  0.0784
  414MOL0     C57061   9.774   9.831   6.309  0.8565  0.2071  0.3594
  414MOL0     C57062   9.814   9.766   6.448 -0.4973 -0.1844 -0.0795
  414MOL0     H57063  10.195   9.540   6.177 -0.5709 -0.5509  2.2953
  414MOL0     H57064  10.435   9.504   6.222 -1.1330  0.2685 -0.3026
  414MOL0     H57065  10.719   9.847   6.166 -3.4583  0.3181 -1.6578
  414MOL0     H57066  10.699   9.775   6.013 -0.3710  1.2583  0.7274
  414MOL0     H57067  10.852   9.662   6.244 -0.3084 -0.7990 -0.0252
  414MOL0     H57068  10.865   9.588   6.080  2.5236  0.2085 -0.3879
  414MOL0     H57069  10.963   9.860   6.160 -0.6409  1.5314 -2.7352
  414MOL0     H57070  11.056   9.717   6.144 -1.2535 -2.3181 -0.2718
  414MOL0     H57071  10.998   9.701   5.903 -0.0081 -0.3999  0.3729
  414MOL0     H57072  10.908   9.864   5.927  2.6547  4.5980  1.2013
  414MOL0     H57073  11.170   9.891   6.029 -1.5131 -0.5593  1.4251
  414MOL0     H57074  11.084   9.979   5.902 -0.9913 -0.2039  1.0420
  414MOL0     H57075  11.208   9.718   5.830  1.4727  0.3598 -3.1517
  414MOL0     H57076  11.146   9.843   5.727  0.6564  0.2802  0.2280
  414MOL0     H57077  11.403   9.824   5.725 -1.6088 -0.6938 -0.9869
  414MOL0     H57078  11.401   9.883   5.893 -1.1392  1.3445  1.3003
  414MOL0     H57079  11.263  10.035   5.674  1.4837  0.3333 -1.8080
  414MOL0     H57080  11.275  10.071   5.846 -0.9949  1.5508 -0.7811
  414MOL0     H57081  11.556  10.105   5.923 -0.3859 -0.3500  0.1255
  414MOL0     H57082  11.777  10.207   5.906 -3.7247  0.0902  0.1215
  414MOL0     H57083  11.813  10.312   5.765  0.7283  0.3394 -0.3589
  414MOL0     H57084  11.915  10.106   5.649  1.8615 -2.1654  1.4960
  414MOL0     H57085  12.002  10.170   5.782 -0.3453  2.0932 -0.1807
  414MOL0     H57086  11.934  10.002   5.927 -1.8565 -2.1321  1.2597
  414MOL0     H57087  11.808   9.942   5.824 -0.5463  2.3526 -0.4280
  414MOL0     H57088  11.983   9.846   5.664  1.1951 -1.9292 -0.3688
  414MOL0     H57089  12.110   9.936   5.759 -0.8269  0.3936  2.8399
  414MOL0     H57090  12.034   9.614   6.018 -0.0052 -4.9349  1.7755
  414MOL0     H57091  12.216   9.361   6.081 -1.4754  1.3467  0.3764
  414MOL0     H57092  12.118   9.244   5.994 -0.3597 -0.6528  0.6212
  414MOL0     H57093  12.034   9.378   6.080 -0.9947 -2.2078 -0.1027
  414MOL0     H57094  12.400   9.054   5.691  0.7951  1.0046 -1.0044
  414MOL0     H57095  12.443   8.842   5.543 -0.4031  0.4508  2.9405
  414MOL0     H57096  12.519   8.738   5.372  0.7200 -0.6260  0.2501
  414MOL0     H57097  12.370   8.638   5.388  3.5294 -1.4143  1.5839
  414MOL0     H57098  12.376   8.574   5.164 -0.0832  0.7161  0.4932
  414MOL0     H57099  12.500   8.691   5.121 -2.0683 -1.0940 -1.2130
  414MOL0     H57100  12.523   8.439   5.293  2.4524 -0.6195  0.9118
  414MOL0     H57101  12.648   8.567   5.309 -0.2380  1.9566 -0.8914
  414MOL0     H57102  12.656   8.558   5.052 -0.3545 -0.9668 -1.5771
  414MOL0     H57103  12.550   8.433   5.042 -1.8460  1.6698  1.2391
  414MOL0     H57104  12.819   8.436   5.197  0.7636 -1.5835  0.3722
  414MOL0     H57105  12.718   8.288   5.164  1.0350 -0.1835  2.3994
  414MOL0     H57106  12.828   8.424   4.926 -3.3143  0.1389  0.2667
  414MOL0     H57107  12.789   8.251   4.957 -2.2286  0.5325  3.3193
  414MOL0     H57108  13.013   8.367   5.104 -2.2423  2.0855 -1.5062
  414MOL0     H57109  13.036   8.342   4.933  2.7574  1.7472  1.9533
  414MOL0     H57110  13.109   8.150   5.059  0.1120  3.5467 -1.3044
  414MOL0     H57111  12.987   8.107   4.943  2.9067  0.7683 -1.4440
  414MOL0     H57112  12.299   9.061   5.206  0.5421  2.0028 -0.4133
  414MOL0     H57113  12.265   9.265   5.361 -2.5864  0.5743  2.1604
  414MOL0     H57114  12.266   9.510   5.590 -1.3547  2.0017 -1.2218
  414MOL0     H57115  12.179   9.721   5.642  0.1092 -1.0221 -1.6680
  414MOL0     H57116  10.516   9.915   6.126  0.7009 -0.0336  0.8845
  414MOL0     H57117  10.287   9.966   6.114 -0.5620 -0.3931  1.7503
  414MOL0     H57118   9.889   9.882   5.984 -2.9515 -1.3863 -3.1986
  414MOL0     H57119   9.646   9.930   5.957 -0.2065  1.2593  0.1501
  414MOL0     H57120   9.443  10.021   5.950 -0.5252  1.3867  0.5357
  414MOL0     H57121   9.345   9.875   5.963  0.1611 -1.0725  0.4819
  414MOL0     H57122   9.232  10.124   5.992 -2.2960  2.9506  3.5973
  414MOL0     H57123   9.311  10.106   6.150  1.9088  0.4131 -1.2002
  414MOL0     H57124   9.105   9.910   6.021  1.6361 -2.1494  2.6241
  414MOL0     H57125   9.153   9.902   6.178  3.6853  1.7874  1.0458
  414MOL0     H57126   8.981  10.121   6.050  0.4085 -1.4130 -0.3092
  414MOL0     H57127   9.060  10.140   6.208  0.1018  0.5878 -0.8103
  414MOL0     H57128   8.784   9.865   6.337  1.1781 -3.1456 -1.9145
  414MOL0     H57129   9.559   9.856   6.362  2.5796  1.8556  2.6700
  414MOL0     H57130   9.870   9.673   6.441  0.6490  0.3933  0.8885
  414MOL0     H57131   9.884   9.835   6.497  0.0234 -1.1569  0.5798
  414MOL0     H57132   9.727   9.751   6.513  0.5844 -0.0813  1.4399
  415MOL0     O57133   5.533   8.005  10.667  0.2417 -0.6957  0.3316
  415MOL0     C57134   5.489   7.904  10.610 -0.4316 -0.3292 -0.4716
  415MOL0     O57135   5.567   7.831  10.519  0.6586  0.3527 -0.0833
  415MOL0     C57136   5.689   7.872  10.485 -0.3752 -0.7200 -0.6842
  415MOL0     C57137   5.785   7.917  10.575 -0.0452 -0.2049  0.5936
  415MOL0     C57138   5.911   7.966  10.530  0.7144  0.5526 -0.3928
  415MOL0     C57139   5.933   7.975  10.391 -0.7304 -0.3773 -0.1949
  415MOL0     O57140   6.063   8.005  10.346  0.2209  0.0150  0.0869
  415MOL0     C57141   6.137   8.098  10.429  0.2712  0.7208 -0.4725
  415MOL0     C57142   6.242   8.170  10.340 -0.3411 -0.0383 -0.3128
  415MOL0     C57143   6.359   8.078  10.296 -0.6440  0.4579 -0.8053
  415MOL0     C57144   6.469   8.158  10.217  1.2143 -1.0231  0.5044
  415MOL0     C57145   6.563   8.056  10.141  0.1587 -0.2317  0.2552
  415MOL0     C57146   6.666   8.126  10.058 -0.8326 -0.6173 -0.5705
  415MOL0     C57147   6.741   8.035   9.969 -0.9826  0.5017  0.4743
  415MOL0     C57148   6.864   8.095   9.895  0.1629  0.9559 -1.5352
  415MOL0     N57149   6.961   8.142   9.996  0.1643 -0.1796 -0.5280
  415MOL0     C57150   6.970   8.264  10.060  0.6412  0.3489  0.6885
  415MOL0     C57151   7.050   8.247  10.169 -0.1437 -0.3106 -0.0260
  415MOL0     C57152   7.085   8.348  10.276  0.6429 -0.7268 -0.1684
  415MOL0     C57153   6.979   8.396  10.376  0.3811  0.5627 -1.1064
  415MOL0     C57154   6.922   8.275  10.457 -0.4324 -0.2034 -0.8748
  415MOL0     C57155   6.805   8.320  10.542 -0.0996 -0.7280  0.9394
  415MOL0     O57156   6.685   8.344  10.463  0.4516 -0.0193 -0.2508
  415MOL0     C57157   6.572   8.401  10.520  0.3350 -0.1891  0.1743
  415MOL0     C57158   6.570   8.445  10.651  0.4560  0.2239 -0.0142
  415MOL0     C57159   6.456   8.521  10.697  0.3765 -0.0658  1.0442
  415MOL0     C57160   6.453   8.535  10.852 -0.7696  0.1138 -0.3038
  415MOL0     C57161   6.352   8.564  10.611 -0.2467 -0.1022  0.3806
  415MOL0     C57162   6.234   8.639  10.661 -0.5404  0.2310  0.3538
  415MOL0     O57163   6.237   8.679  10.786  0.2601 -0.7628 -0.3643
  415MOL0     C57164   6.119   8.718  10.843  0.6088  0.8601  0.7566
  415MOL0     C57165   5.988   8.658  10.827  0.1033  0.9121 -0.6968
  415MOL0     C57166   5.876   8.724  10.872  0.1959 -0.9277 -0.1064
  415MOL0     C57167   5.884   8.845  10.941  0.1823  0.3872  0.6283
  415MOL0     O57168   5.768   8.902  10.991 -0.4708 -0.1940 -0.2259
  415MOL0     C57169   5.779   9.012  11.079  0.5677  0.2000 -0.5417
  415MOL0     C57170   5.628   9.037  11.108 -0.7218  0.3223 -0.2854
  415MOL0     C57171   5.604   9.186  11.139 -0.6314 -0.5736 -0.3285
  415MOL0     C57172   5.473   9.211  11.210  0.1877 -0.0324 -0.1578
  415MOL0     C57173   5.460   9.368  11.216 -0.7803 -0.6024  0.1306
  415MOL0     C57174   5.319   9.412  11.265  0.8205  0.3515  1.3429
  415MOL0     C57175   5.294   9.399  11.419  0.7051 -0.9067 -0.0544
  415MOL0     C57176   5.336   9.540  11.481 -0.5918  0.1790  0.1996
  415MOL0    Cl57177   5.275   9.537  11.654  0.2418 -0.4788 -0.0283
  415MOL0     C57178   6.014   8.900  10.970  0.1751 -0.6128  0.6901
  415MOL0     C57179   6.131   8.845  10.914  0.4024 -0.0270 -0.2587
  415MOL0     O57180   6.149   8.657  10.575  0.2908 -0.1673  0.0020
  415MOL0     C57181   6.365   8.522  10.468  0.4919  0.4482 -1.2888
  415MOL0     C57182   6.469   8.443  10.429 -0.0953  0.1114 -0.9782
  415MOL0     N57183   7.091   8.120  10.169  0.4031  0.5067 -0.0337
  415MOL0     N57184   7.052   8.066  10.062 -1.1116 -0.5936  0.0197
  415MOL0     C57185   5.839   7.911  10.303 -0.3193 -0.1152 -0.4192
  415MOL0     C57186   5.718   7.867  10.355 -0.5480  0.2107  0.2756
  415MOL0     C57187   5.349   7.861  10.649  0.4322  0.2465  0.0228
  415MOL0     C57188   5.277   7.949  10.737 -0.5621  0.2844  0.8117
  415MOL0     C57189   5.157   7.921  10.793 -0.2730  0.1883  0.7407
  415MOL0     C57190   5.095   7.805  10.763  0.7592 -0.5894  0.1983
  415MOL0     O57191   4.973   7.794  10.828  0.4633 -0.4148  0.1239
  415MOL0     C57192   4.903   7.679  10.786  0.8559 -0.1316 -0.6953
  415MOL0     C57193   4.759   7.686  10.839  0.0185 -0.1089 -0.3932
  415MOL0     C57194   4.704   7.546  10.804 -0.2149 -1.0657 -0.5447
  415MOL0     C57195   4.554   7.523  10.820  0.4239  0.2503  0.3306
  415MOL0     C57196   4.517   7.538  10.962  0.1972 -0.4343 -0.3124
  415MOL0     C57197   4.471   7.558  11.075  0.2083  0.4326  0.0367
  415MOL0     C57198   5.168   7.712  10.687 -0.0366 -0.9569 -0.4942
  415MOL0     C57199   5.288   7.736  10.618 -0.3539 -0.1266  0.4186
  415MOL0     C57200   5.344   7.634  10.515  0.0663 -0.0206 -0.4511
  415MOL0     H57201   5.774   7.920  10.683  1.9669  0.6338  0.8235
  415MOL0     H57202   5.987   7.979  10.607 -1.1400  1.9464  1.3010
  415MOL0     H57203   6.174   8.032  10.509 -0.3496 -2.1205 -2.3660
  415MOL0     H57204   6.063   8.165  10.472 -1.9483 -1.2836 -0.9529
  415MOL0     H57205   6.190   8.211  10.253  4.2238  1.5077 -2.6378
  415MOL0     H57206   6.280   8.250  10.404 -2.1105  0.2982  0.3855
  415MOL0     H57207   6.406   8.018  10.375 -0.8113  1.9799  0.5072
  415MOL0     H57208   6.316   8.007  10.225  1.0365  0.9564 -2.4060
  415MOL0     H57209   6.419   8.225  10.147  3.1611  0.0058  0.0176
  415MOL0     H57210   6.529   8.207  10.294  0.2678 -2.6817  2.3807
  415MOL0     H57211   6.499   7.992  10.080 -1.9015  1.4138  0.5866
  415MOL0     H57212   6.613   7.986  10.209 -0.8719 -2.2611 -0.9999
  415MOL0     H57213   6.619   8.202   9.995 -1.2914 -1.9919 -1.9214
  415MOL0     H57214   6.731   8.175  10.131  1.6401 -1.0234 -2.3650
  415MOL0     H57215   6.673   8.007   9.888  1.3264 -1.0009 -1.0599
  415MOL0     H57216   6.766   7.939  10.014 -1.2062 -0.3019 -1.0645
  415MOL0     H57217   6.907   8.023   9.825 -0.4816  0.1478 -1.1101
  415MOL0     H57218   6.836   8.186   9.841  4.7442  3.1784 -0.6763
  415MOL0     H57219   6.903   8.346  10.038 -0.1552 -0.6145 -0.7123
  415MOL0     H57220   7.116   8.433  10.214 -1.0533  0.3459  0.3677
  415MOL0     H57221   7.171   8.307  10.329  0.5396 -2.0196 -0.9443
  415MOL0     H57222   7.032   8.463  10.444 -0.6417 -0.1729  0.5056
  415MOL0     H57223   6.901   8.460  10.334 -0.1078  0.4221 -0.4553
  415MOL0     H57224   6.885   8.203  10.384 -0.1343 -1.7482  0.4635
  415MOL0     H57225   7.001   8.232  10.518  1.6244  0.6060 -2.8013
  415MOL0     H57226   6.795   8.241  10.617  0.1227 -2.9370 -1.2486
  415MOL0     H57227   6.830   8.409  10.601  1.7219 -1.1148  0.8226
  415MOL0     H57228   6.644   8.411  10.722 -1.0765 -1.5111  0.8145
  415MOL0     H57229   6.360   8.490  10.887 -1.6271 -1.3205 -3.9958
  415MOL0     H57230   6.476   8.634  10.894  0.9304 -0.3005 -0.1506
  415MOL0     H57231   6.537   8.482  10.898  1.0298  2.8453 -0.1700
  415MOL0     H57232   5.996   8.571  10.762 -0.0818  1.2795 -1.2110
  415MOL0     H57233   5.783   8.685  10.831  0.4875  0.9840 -2.9100
  415MOL0     H57234   5.826   8.992  11.176 -1.7238  1.6585  0.9667
  415MOL0     H57235   5.823   9.101  11.034 -1.1350  1.2944 -0.1431
  415MOL0     H57236   5.553   9.016  11.031  0.2347 -0.4318 -1.0378
  415MOL0     H57237   5.599   8.970  11.190  2.8711 -3.8883 -2.0216
  415MOL0     H57238   5.601   9.247  11.049  0.3083 -2.3678 -1.6516
  415MOL0     H57239   5.691   9.225  11.193  1.6831 -0.8724 -3.5442
  415MOL0     H57240   5.488   9.171  11.311 -0.7895  0.3355  0.1507
  415MOL0     H57241   5.382   9.165  11.170  1.0220 -1.5225 -0.4060
  415MOL0     H57242   5.536   9.408  11.283  0.5181 -1.0394 -1.0366
  415MOL0     H57243   5.478   9.425  11.124  0.7070  2.7839  2.3097
  415MOL0     H57244   5.246   9.349  11.213  1.6820 -1.5807  2.3580
  415MOL0     H57245   5.307   9.519  11.242  1.6546  0.2510  0.4263
  415MOL0     H57246   5.374   9.336  11.458  0.8286  0.3140  1.8189
  415MOL0     H57247   5.196   9.369  11.459  0.3328 -0.2796 -0.4908
  415MOL0     H57248   5.281   9.617  11.426  0.4922 -0.4171 -1.8429
  415MOL0     H57249   5.446   9.543  11.484 -0.5572 -0.0770 -0.4791
  415MOL0     H57250   6.024   9.003  11.001 -2.3938  1.0139 -3.2210
  415MOL0     H57251   6.226   8.897  10.917  0.9419 -0.9788 -0.3302
  415MOL0     H57252   6.305   8.575  10.395  0.9119  0.5315 -1.5769
  415MOL0     H57253   6.468   8.417  10.324 -0.1583 -3.2755 -0.2451
  415MOL0     H57254   5.865   7.892  10.199  2.5001 -0.4941  0.2923
  415MOL0     H57255   5.649   7.810  10.294  0.4672 -0.7987  0.0344
  415MOL0     H57256   5.310   8.047  10.770 -2.7952  1.0915  0.8187
  415MOL0     H57257   5.098   7.997  10.846 -1.1124 -0.0497  0.1678
  415MOL0     H57258   4.918   7.664  10.678  3.3244  0.8548 -0.5463
  415MOL0     H57259   4.947   7.594  10.839 -0.4861 -0.4678 -0.0806
  415MOL0     H57260   4.706   7.768  10.790  0.5045  1.1213  1.0624
  415MOL0     H57261   4.758   7.698  10.948 -2.8543 -0.5135 -0.2962
  415MOL0     H57262   4.726   7.533  10.698  1.9076 -1.5511 -0.0957
  415MOL0     H57263   4.764   7.469  10.854  0.5704  0.4752  1.0029
  415MOL0     H57264   4.540   7.418  10.792  1.6799  0.2246 -0.2673
  415MOL0     H57265   4.500   7.589  10.752  0.1808 -2.0050 -1.7948
  415MOL0     H57266   4.434   7.575  11.174  1.3725 -2.0128  0.9918
  415MOL0     H57267   5.134   7.609  10.680  0.2360 -1.1005  0.2707
  415MOL0     H57268   5.323   7.665  10.412 -2.1009  3.1475  0.7934
  415MOL0     H57269   5.449   7.606  10.526 -0.1163 -1.3515 -1.7467
  415MOL0     H57270   5.279   7.547  10.524 -0.0655  0.1563  0.3722
  416MOL0     O57271   6.130   7.886  10.793  0.1952  0.5235  0.0556
  416MOL0     C57272   6.174   7.938  10.900 -0.5213  0.4488 -0.1967
  416MOL0     O57273   6.128   8.057  10.956 -0.6608  0.1740 -0.3452
  416MOL0     C57274   6.047   8.129  10.876 -0.5295  0.0051  0.3062
  416MOL0     C57275   6.100   8.227  10.789  0.2397 -0.2571 -0.5630
  416MOL0     C57276   6.017   8.304  10.708  0.0872  0.3661 -0.0928
  416MOL0     C57277   5.873   8.287  10.713 -0.6913 -0.9824 -0.2560
  416MOL0     O57278   5.795   8.371  10.636  0.0719  0.4401  0.5765
  416MOL0     C57279   5.654   8.356  10.629  0.1827  0.8741  0.7141
  416MOL0     C57280   5.592   8.471  10.549  0.5222 -0.9314  0.2323
  416MOL0     C57281   5.659   8.610  10.565  0.3237 -0.6720 -0.7097
  416MOL0     C57282   5.589   8.708  10.471  0.7813 -0.7621  0.6755
  416MOL0     C57283   5.618   8.858  10.493  0.5245 -0.6148 -0.1898
  416MOL0     C57284   5.764   8.888  10.508 -0.3588 -0.4141  0.3544
  416MOL0     C57285   5.794   9.025  10.578  0.3330  0.3816  0.2839
  416MOL0     C57286   5.945   9.046  10.566  0.3808 -0.3492 -0.8909
  416MOL0     N57287   5.980   9.166  10.641 -0.5199 -0.7009  0.4643
  416MOL0     C57288   6.001   9.291  10.588 -0.4692  0.1996  0.8025
  416MOL0     C57289   6.001   9.370  10.701  0.5310 -0.0699 -0.6354
  416MOL0     C57290   6.037   9.516  10.704  1.2363 -0.3629  1.0219
  416MOL0     C57291   6.184   9.532  10.716 -0.4382  0.1934 -0.5113
  416MOL0     C57292   6.216   9.682  10.732  0.3625  0.5330 -0.8408
  416MOL0     C57293   6.201   9.733  10.875  1.3330 -0.4412 -0.5244
  416MOL0     O57294   6.246   9.872  10.887 -0.6200  0.3333  0.1452
  416MOL0     C57295   6.162   9.979  10.852 -0.4825  0.2055  0.6784
  416MOL0     C57296   6.229  10.095  10.843  0.6881 -0.2984 -0.4848
  416MOL0     C57297   6.157  10.209  10.802 -1.3989 -0.4675  0.2104
  416MOL0     C57298   6.231  10.336  10.801  0.5625  0.2138  0.8201
  416MOL0     C57299   6.027  10.205  10.749  0.0972 -0.3801  0.1857
  416MOL0     C57300   5.950  10.328  10.701  0.0601  0.3360  0.5654
  416MOL0     O57301   5.832  10.359  10.758  0.1774  0.1208 -0.0022
  416MOL0     C57302   5.760  10.474  10.730 -1.1027 -0.0956  0.4115
  416MOL0     C57303   5.818  10.593  10.739  0.1670 -0.0229  1.1656
  416MOL0     C57304   5.741  10.711  10.728 -0.4568 -1.0121  0.4112
  416MOL0     C57305   5.606  10.698  10.721  1.3202 -0.1058 -1.2447
  416MOL0     O57306   5.508  10.794  10.709 -0.4921 -0.7383  0.6210
  416MOL0     C57307   5.557  10.922  10.667  0.2844 -0.0602 -0.3703
  416MOL0     C57308   5.433  11.004  10.613  0.4926  0.1964 -0.1726
  416MOL0     C57309   5.310  10.996  10.708 -0.7771 -0.3175 -0.5029
  416MOL0     C57310   5.188  11.087  10.669  0.2184  0.7482  0.2998
  416MOL0     C57311   5.057  11.046  10.739 -0.0541  0.7613  0.0107
  416MOL0     C57312   4.951  11.152  10.706 -0.2914  0.3689 -0.1127
  416MOL0     C57313   4.830  11.142  10.785  0.3713 -0.3007 -0.6361
  416MOL0     C57314   4.718  11.241  10.740  0.2013 -0.6373 -0.3810
  416MOL0    Cl57315   4.577  11.181  10.830  0.0557  0.1009  0.2750
  416MOL0     C57316   5.544  10.574  10.724 -0.4889 -0.4540 -0.0852
  416MOL0     C57317   5.612  10.458  10.724 -0.7794  1.2722 -0.2674
  416MOL0     O57318   5.989  10.364  10.589 -0.3459 -0.6100  0.0413
  416MOL0     C57319   5.964  10.076  10.753 -0.8471  0.6406 -0.1862
  416MOL0     C57320   6.028   9.966  10.809  0.6999 -0.3380 -0.0523
  416MOL0     N57321   5.975   9.295  10.814  1.0885 -0.0290  0.5987
  416MOL0     N57322   5.972   9.175  10.775  0.1549  0.1124 -0.2605
  416MOL0     C57323   5.825   8.193  10.806 -0.1150  0.6148 -0.7385
  416MOL0     C57324   5.909   8.112  10.879 -0.0824 -0.6178  0.3633
  416MOL0     C57325   6.263   7.857  10.983  0.3257 -0.1945  0.7681
  416MOL0     C57326   6.284   7.722  10.940  1.0269 -0.2213 -0.5037
  416MOL0     C57327   6.363   7.635  11.011  0.1261 -0.1889 -0.2733
  416MOL0     C57328   6.431   7.681  11.126  0.6081  0.6317 -0.6082
  416MOL0     O57329   6.522   7.601  11.202 -1.0199 -0.0029 -0.2065
  416MOL0     C57330   6.578   7.468  11.169  0.0076  0.2335  0.4077
  416MOL0     C57331   6.728   7.493  11.170 -0.6203  0.4669 -0.2290
  416MOL0     C57332   6.803   7.375  11.230 -0.6297  0.1433 -0.6664
  416MOL0     C57333   6.805   7.241  11.155 -0.5302  0.8177 -0.2996
  416MOL0     C57334   6.854   7.126  11.228 -0.4931 -0.6712  0.5632
  416MOL0     C57335   6.888   7.034  11.300 -0.0183 -0.3723 -0.0039
  416MOL0     C57336   6.419   7.819  11.163 -0.5623  0.9587  0.5021
  416MOL0     C57337   6.327   7.911  11.103 -0.5850  1.0920 -0.0006
  416MOL0     C57338   6.320   8.052  11.147 -1.2987 -0.0343 -0.9016
  416MOL0     H57339   6.207   8.245  10.787 -0.0141  1.6820  0.5358
  416MOL0     H57340   6.073   8.377  10.651 -1.6777  1.0935 -0.9723
  416MOL0     H57341   5.614   8.365  10.731 -1.8107 -1.9115  0.3174
  416MOL0     H57342   5.613   8.261  10.594  3.3726  0.6409 -3.0299
  416MOL0     H57343   5.603   8.455  10.442  0.1220 -0.1923  0.0729
  416MOL0     H57344   5.491   8.469  10.589  0.5282  1.9372  0.6461
  416MOL0     H57345   5.660   8.635  10.671 -0.5742 -2.0813 -0.3409
  416MOL0     H57346   5.763   8.603  10.531  1.1684 -0.0432  1.5383
  416MOL0     H57347   5.611   8.681  10.368  0.2937 -2.5385  1.0128
  416MOL0     H57348   5.481   8.693  10.480 -0.2138  4.0909 -0.1508
  416MOL0     H57349   5.559   8.890  10.580  0.8509  0.0862 -0.2198
  416MOL0     H57350   5.569   8.913  10.412  0.1088  0.3372  0.6768
  416MOL0     H57351   5.812   8.816  10.574 -1.2054 -1.3675 -0.0481
  416MOL0     H57352   5.810   8.878  10.409 -1.1820 -0.1995 -0.0597
  416MOL0     H57353   5.774   9.037  10.685  2.4758  2.2995  0.5414
  416MOL0     H57354   5.738   9.103  10.526 -1.6275 -0.5992  0.8015
  416MOL0     H57355   6.001   8.961  10.608 -0.4933 -1.5993 -2.1566
  416MOL0     H57356   5.976   9.050  10.461  2.3448 -3.0872 -0.5474
  416MOL0     H57357   6.015   9.333  10.489 -0.9892  3.3383  1.9440
  416MOL0     H57358   5.994   9.568  10.791 -3.3783 -2.2055  0.1512
  416MOL0     H57359   6.019   9.575  10.614  2.8547  2.1218  2.2351
  416MOL0     H57360   6.235   9.472  10.792  3.7264  2.4096 -1.3004
  416MOL0     H57361   6.225   9.504  10.618  2.5336 -0.5051  0.8202
  416MOL0     H57362   6.317   9.700  10.695  1.5292 -2.9929  0.1967
  416MOL0     H57363   6.143   9.737  10.672 -3.5527 -3.0741  0.1198
  416MOL0     H57364   6.097   9.727  10.909  1.4971 -2.1036 -0.2189
  416MOL0     H57365   6.262   9.670  10.940 -3.1903 -2.3218  2.4492
  416MOL0     H57366   6.336  10.096  10.860  0.7797  1.3256 -0.9801
  416MOL0     H57367   6.235  10.371  10.697  2.5967  2.7458  1.6357
  416MOL0     H57368   6.335  10.327  10.833  0.5237 -0.3311  0.7942
  416MOL0     H57369   6.177  10.411  10.861 -1.6944  1.2288 -2.2239
  416MOL0     H57370   5.922  10.611  10.766  0.7961 -0.5951 -0.6537
  416MOL0     H57371   5.790  10.808  10.733 -1.5817 -0.2187 -2.3063
  416MOL0     H57372   5.606  10.978  10.748 -2.8310  0.0897  1.5799
  416MOL0     H57373   5.627  10.916  10.583 -0.9698 -1.7393 -1.3376
  416MOL0     H57374   5.471  11.106  10.602  0.2339  0.6137  2.1673
  416MOL0     H57375   5.416  10.967  10.512 -2.7730 -2.0843  1.0587
  416MOL0     H57376   5.328  11.029  10.810 -1.2493  3.6252 -1.5176
  416MOL0     H57377   5.273  10.893  10.717 -0.1605 -0.6607 -1.6229
  416MOL0     H57378   5.176  11.079  10.561  1.8515  4.1272 -0.2448
  416MOL0     H57379   5.204  11.191  10.698  1.4662 -0.1574  3.2893
  416MOL0     H57380   5.025  10.945  10.713  0.4689  0.9797 -1.6370
  416MOL0     H57381   5.074  11.033  10.846  1.3474 -0.5393 -0.3328
  416MOL0     H57382   4.910  11.147  10.605 -4.4214 -3.8252  1.4163
  416MOL0     H57383   4.993  11.253  10.705  1.0360 -0.1615 -1.1237
  416MOL0     H57384   4.857  11.160  10.889  2.4168  0.0162 -1.1893
  416MOL0     H57385   4.791  11.043  10.759  1.6051 -0.6623 -1.1451
  416MOL0     H57386   4.692  11.237  10.634 -0.6106 -2.1347 -0.1494
  416MOL0     H57387   4.744  11.343  10.769 -1.3283 -0.2194 -0.4250
  416MOL0     H57388   5.436  10.569  10.736 -0.8119 -2.2782 -2.8523
  416MOL0     H57389   5.568  10.359  10.733  1.9151  0.0399  0.4488
  416MOL0     H57390   5.862  10.062  10.720 -1.0712 -1.7563  1.2543
  416MOL0     H57391   5.974   9.873  10.826 -0.2766  0.6691  2.9592
  416MOL0     H57392   5.719   8.179  10.825  0.8031 -4.9608  2.3196
  416MOL0     H57393   5.872   8.031  10.942 -1.4020 -0.0159  0.3928
  416MOL0     H57394   6.244   7.681  10.848  1.9521 -0.9815 -0.5769
  416MOL0     H57395   6.359   7.529  10.992 -2.7429 -0.6838  2.2677
  416MOL0     H57396   6.539   7.394  11.239  1.4148  1.4979  2.6425
  416MOL0     H57397   6.551   7.433  11.069  0.9243  2.7013 -0.8061
  416MOL0     H57398   6.756   7.584  11.224 -0.3381  1.4472 -1.9672
  416MOL0     H57399   6.767   7.512  11.070  0.8233 -0.9463  0.0300
  416MOL0     H57400   6.902   7.416  11.252 -1.2265  1.0244  0.4889
  416MOL0     H57401   6.776   7.357  11.334 -0.9241 -2.9125 -1.1635
  416MOL0     H57402   6.862   7.257  11.063  1.2751 -0.9555  0.4343
  416MOL0     H57403   6.704   7.211  11.127  0.2133 -2.4835  0.1810
  416MOL0     H57404   6.918   6.941  11.345 -1.0533 -1.3264 -1.1857
  416MOL0     H57405   6.471   7.847  11.254 -1.8221  0.2112  1.4643
  416MOL0     H57406   6.400   8.067  11.221 -2.0939 -2.7314  0.6349
  416MOL0     H57407   6.334   8.128  11.070 -2.4919  0.2100 -0.8959
  416MOL0     H57408   6.227   8.075  11.200 -0.3158 -1.6074  1.6998
  417MOL0     O57409   6.667   4.567  11.092  0.4386  0.1168  1.1184
  417MOL0     C57410   6.550   4.558  11.060  0.2270 -0.8630 -0.5798
  417MOL0     O57411   6.446   4.555  11.146 -0.3350 -0.4421 -0.5510
  417MOL0     C57412   6.465   4.549  11.282  0.3179 -0.0427  0.1081
  417MOL0     C57413   6.377   4.470  11.361 -0.6280  0.4641  0.2461
  417MOL0     C57414   6.395   4.459  11.494  0.7112 -0.0930 -0.3909
  417MOL0     C57415   6.497   4.527  11.569  0.0473 -0.6673  0.1785
  417MOL0     O57416   6.488   4.505  11.701 -0.0149 -0.0471  0.0397
  417MOL0     C57417   6.514   4.616  11.784 -0.6661 -0.1256 -0.1089
  417MOL0     C57418   6.590   4.578  11.901 -0.1879 -0.1135 -0.3535
  417MOL0     C57419   6.618   4.697  11.996 -0.1558  0.1139  0.4853
  417MOL0     C57420   6.509   4.722  12.098 -0.0056  0.4478 -0.0174
  417MOL0     C57421   6.564   4.807  12.213 -0.1369 -0.6407  0.7633
  417MOL0     C57422   6.601   4.946  12.170  0.2198 -0.6976  0.2801
  417MOL0     C57423   6.636   5.032  12.285  0.4781  0.3482  0.0320
  417MOL0     C57424   6.647   5.174  12.239  0.2636  0.0332  0.2336
  417MOL0     N57425   6.649   5.272  12.348  0.3395  0.3073 -0.9902
  417MOL0     C57426   6.722   5.261  12.469 -0.9534  0.1395 -0.1466
  417MOL0     C57427   6.685   5.368  12.540 -0.0616  0.1673 -0.0923
  417MOL0     C57428   6.763   5.416  12.659 -0.2037 -0.1178 -0.1244
  417MOL0     C57429   6.661   5.440  12.778  0.5393  0.3485  0.2935
  417MOL0     C57430   6.607   5.307  12.857 -0.4113 -0.5615 -0.7289
  417MOL0     C57431   6.460   5.279  12.815 -0.1179 -0.2405  0.3994
  417MOL0     O57432   6.385   5.408  12.846 -0.7789 -0.1634 -0.0161
  417MOL0     C57433   6.255   5.400  12.886  0.0731  0.1901 -0.3931
  417MOL0     C57434   6.188   5.311  12.975 -0.1377  0.8148  0.5295
  417MOL0     C57435   6.045   5.302  13.003  0.4959 -0.6317 -0.2217
  417MOL0     C57436   5.997   5.193  13.095  0.3437  0.0895  0.3383
  417MOL0     C57437   5.965   5.401  12.934  0.4736 -0.0203  0.0475
  417MOL0     C57438   5.817   5.424  12.953  1.1305  0.3691  0.2117
  417MOL0     O57439   5.768   5.538  12.907 -0.2424  0.7470 -0.6337
  417MOL0     C57440   5.669   5.526  12.813 -0.3501  0.2718 -0.5059
  417MOL0     C57441   5.605   5.636  12.766  0.3624 -0.1573  0.2629
  417MOL0     C57442   5.478   5.632  12.693 -0.3903  0.0588 -0.5537
  417MOL0     C57443   5.425   5.514  12.664  0.8493  0.3026 -0.2084
  417MOL0     O57444   5.314   5.489  12.581 -0.1559 -0.0239 -0.3550
  417MOL0     C57445   5.209   5.404  12.624 -0.0608  0.1419 -0.6960
  417MOL0     C57446   5.101   5.401  12.517  0.6379  1.0390 -1.3251
  417MOL0     C57447   5.170   5.368  12.385  0.2320 -0.0901  0.3414
  417MOL0     C57448   5.101   5.261  12.297 -0.5942  0.1682  0.0568
  417MOL0     C57449   4.956   5.296  12.272  0.2092  0.9607  0.3689
  417MOL0     C57450   4.928   5.386  12.144  0.4459 -0.0975  0.2737
  417MOL0     C57451   4.966   5.309  12.011  0.6255 -0.1380  0.2149
  417MOL0     C57452   4.908   5.356  11.876  0.0581  0.2376  0.3961
  417MOL0    Cl57453   5.027   5.310  11.743 -0.1509 -0.0022  0.3495
  417MOL0     C57454   5.492   5.399  12.710 -0.0596 -0.0059  1.0324
  417MOL0     C57455   5.614   5.400  12.774 -0.5707  0.1989  0.3393
  417MOL0     O57456   5.750   5.334  12.997  0.2840  0.3099 -0.1114
  417MOL0     C57457   6.022   5.484  12.842 -0.6583  1.1770 -0.8841
  417MOL0     C57458   6.166   5.481  12.816  0.4577  0.3451  0.1845
  417MOL0     N57459   6.586   5.435  12.477  0.3806 -0.1988 -0.2023
  417MOL0     N57460   6.559   5.373  12.364  0.4024 -0.1421  0.0217
  417MOL0     C57461   6.591   4.594  11.494 -0.2172 -0.7958 -0.0448
  417MOL0     C57462   6.583   4.597  11.351  1.1105 -0.7722 -0.7701
  417MOL0     C57463   6.519   4.550  10.910  1.0226 -1.9948  0.3891
  417MOL0     C57464   6.627   4.570  10.817 -0.1548 -0.2771  0.7093
  417MOL0     C57465   6.611   4.560  10.676  0.5646  0.3892 -0.3625
  417MOL0     C57466   6.483   4.531  10.624  0.3227 -0.4350 -0.1597
  417MOL0     O57467   6.452   4.516  10.493  0.0453 -0.1919 -0.0963
  417MOL0     C57468   6.560   4.490  10.401  0.0892 -0.0811  0.2297
  417MOL0     C57469   6.599   4.620  10.355 -0.7737 -0.5623 -0.0901
  417MOL0     C57470   6.507   4.666  10.242 -0.0340  0.0830  0.0046
  417MOL0     C57471   6.549   4.796  10.166 -0.6311  0.0176  0.1765
  417MOL0     C57472   6.685   4.774  10.117 -0.4014 -0.0894 -0.0375
  417MOL0     C57473   6.800   4.782  10.069 -0.4332  0.4010 -1.5545
  417MOL0     C57474   6.377   4.514  10.715 -0.0360 -0.5604 -0.2383
  417MOL0     C57475   6.392   4.526  10.853 -0.1446 -0.4734  0.2132
  417MOL0     C57476   6.267   4.503  10.931 -0.3305  0.2528 -0.0985
  417MOL0     H57477   6.293   4.417  11.316 -0.1939  0.1810 -0.2371
  417MOL0     H57478   6.325   4.401  11.553 -0.9487  1.3417 -0.8723
  417MOL0     H57479   6.415   4.655  11.812  0.2960  1.2265  1.5896
  417MOL0     H57480   6.571   4.690  11.727  0.5979 -0.1700  1.0543
  417MOL0     H57481   6.542   4.492  11.949  0.6511 -0.9256 -0.9285
  417MOL0     H57482   6.686   4.536  11.869 -0.9465 -2.0358 -0.2507
  417MOL0     H57483   6.713   4.671  12.044  1.5990  2.3142 -1.5310
  417MOL0     H57484   6.620   4.784  11.929 -2.9782  0.5156  0.8180
  417MOL0     H57485   6.422   4.770  12.052 -0.1369  1.2077  0.9987
  417MOL0     H57486   6.481   4.629  12.150  1.6780  0.2272  0.5575
  417MOL0     H57487   6.657   4.766  12.255 -0.0136 -0.0548  1.0713
  417MOL0     H57488   6.497   4.796  12.299 -1.3209 -0.6239 -0.1401
  417MOL0     H57489   6.683   4.932  12.099 -0.7337  0.7077 -1.1970
  417MOL0     H57490   6.514   4.986  12.116  1.9577  2.0104 -0.7186
  417MOL0     H57491   6.726   4.992  12.331  1.0150 -1.0438 -2.0594
  417MOL0     H57492   6.557   5.038  12.360 -2.1677  1.1894 -2.6301
  417MOL0     H57493   6.744   5.195  12.193 -0.6043  2.2871 -0.6712
  417MOL0     H57494   6.569   5.199  12.166  1.3578  2.3421 -0.2447
  417MOL0     H57495   6.805   5.199  12.503 -1.0137  1.5235  2.7785
  417MOL0     H57496   6.807   5.509  12.623 -1.4152  0.8952  0.8833
  417MOL0     H57497   6.833   5.342  12.698  1.6013  1.1376 -0.8927
  417MOL0     H57498   6.713   5.497  12.855 -0.2604  0.9438  0.4021
  417MOL0     H57499   6.584   5.512  12.750  0.3837 -0.4311 -1.3761
  417MOL0     H57500   6.666   5.219  12.828  0.0994  0.0872 -1.7239
  417MOL0     H57501   6.619   5.310  12.965  3.0985 -2.1591 -0.9122
  417MOL0     H57502   6.461   5.267  12.707 -0.6023 -2.3666  0.5774
  417MOL0     H57503   6.418   5.193  12.869 -2.0505  0.3776 -0.0526
  417MOL0     H57504   6.258   5.250  13.031  0.0367  1.7594  1.3868
  417MOL0     H57505   6.014   5.237  13.194  1.1611  1.6283 -0.4468
  417MOL0     H57506   6.050   5.097  13.089  0.4695  0.2276 -0.8370
  417MOL0     H57507   5.896   5.162  13.067  1.0574 -1.9765 -0.1656
  417MOL0     H57508   5.647   5.734  12.788  1.8608 -0.1666 -2.1862
  417MOL0     H57509   5.437   5.726  12.657  1.1063  1.1721  0.5046
  417MOL0     H57510   5.247   5.301  12.631 -1.3479 -0.3095 -0.1746
  417MOL0     H57511   5.164   5.445  12.714 -2.8503 -0.5243 -1.6883
  417MOL0     H57512   5.026   5.325  12.542  0.1964  0.9853 -2.6882
  417MOL0     H57513   5.058   5.501  12.522 -0.2181  0.6267  1.4255
  417MOL0     H57514   5.276   5.344  12.398  0.0217 -1.8628 -0.7982
  417MOL0     H57515   5.171   5.450  12.312 -2.6281 -0.3095 -0.0589
  417MOL0     H57516   5.092   5.174  12.363 -3.1826 -0.5997 -1.2011
  417MOL0     H57517   5.153   5.223  12.209 -0.6529 -3.3976  1.3987
  417MOL0     H57518   4.903   5.201  12.260  1.2377  0.0126  2.8124
  417MOL0     H57519   4.908   5.338  12.360 -0.2546  1.3100 -0.0432
  417MOL0     H57520   4.997   5.470  12.152  1.2090 -0.8337  1.9924
  417MOL0     H57521   4.823   5.419  12.146  0.4185 -0.1870  1.7722
  417MOL0     H57522   4.930   5.207  12.026  0.3168 -0.0021  0.4274
  417MOL0     H57523   5.074   5.296  12.009  0.6890  0.3656 -1.8584
  417MOL0     H57524   4.904   5.465  11.884  0.8635  0.7377 -3.8709
  417MOL0     H57525   4.809   5.316  11.850  0.1368  1.0630 -1.2926
  417MOL0     H57526   5.447   5.308  12.672 -1.8863  0.4367  2.0454
  417MOL0     H57527   5.652   5.301  12.798  0.6245  0.4979 -0.2625
  417MOL0     H57528   5.964   5.549  12.779 -1.2704  0.9122 -0.5993
  417MOL0     H57529   6.212   5.565  12.765  0.0509  0.3910 -0.1064
  417MOL0     H57530   6.674   4.638  11.549 -0.5212 -1.0194  0.5987
  417MOL0     H57531   6.652   4.665  11.304 -0.4186  1.0659 -0.4687
  417MOL0     H57532   6.723   4.600  10.857 -0.9969  0.3519  2.3622
  417MOL0     H57533   6.691   4.583  10.607  0.7706  0.9428  0.0585
  417MOL0     H57534   6.636   4.431  10.453 -0.5783 -1.0331  0.1515
  417MOL0     H57535   6.519   4.435  10.316 -2.0556 -1.0866  1.8204
  417MOL0     H57536   6.702   4.622  10.318 -0.6998  0.9934  0.1221
  417MOL0     H57537   6.593   4.696  10.434  0.0769  2.6795 -2.8677
  417MOL0     H57538   6.493   4.586  10.168  0.9063 -1.5537  1.5026
  417MOL0     H57539   6.413   4.697  10.288  0.3408  0.5540  0.4566
  417MOL0     H57540   6.543   4.894  10.215  0.3531  1.2578 -2.0077
  417MOL0     H57541   6.477   4.810  10.085 -0.0522  2.1792 -0.0258
  417MOL0     H57542   6.903   4.791  10.040  0.9717  1.1434  2.9015
  417MOL0     H57543   6.280   4.511  10.668 -0.3894 -0.8084  0.4918
  417MOL0     H57544   6.241   4.568  11.015 -0.1084  0.7541 -0.4117
  417MOL0     H57545   6.182   4.507  10.862  1.1062  3.3816 -1.9089
  417MOL0     H57546   6.270   4.398  10.960 -2.0010  0.9361  2.8549
  418MOL0     O57547   6.686   4.553   6.766 -0.4771  0.5410  0.0977
  418MOL0     C57548   6.793   4.538   6.816 -0.7077  0.0842 -0.4707
  418MOL0     O57549   6.817   4.490   6.939  0.2425 -0.1263 -0.5048
  418MOL0     C57550   6.728   4.398   6.999  0.3168  0.4365 -0.0670
  418MOL0     C57551   6.659   4.291   6.932  0.1908  0.3527 -0.0608
  418MOL0     C57552   6.553   4.223   6.984 -0.0042  0.1476  0.1451
  418MOL0     C57553   6.536   4.237   7.122 -0.5515  0.7947 -0.5942
  418MOL0     O57554   6.429   4.164   7.173  0.3475 -0.0931  0.4916
  418MOL0     C57555   6.367   4.224   7.296  0.2617  0.2462  0.3842
  418MOL0     C57556   6.249   4.132   7.322  0.9932  0.4087  0.3741
  418MOL0     C57557   6.149   4.178   7.430  0.6559  0.1518 -0.0609
  418MOL0     C57558   6.063   4.295   7.383  1.0415  0.0131 -0.4239
  418MOL0     C57559   5.970   4.354   7.492 -0.4387 -0.0513 -1.3291
  418MOL0     C57560   5.852   4.251   7.512  0.4198  0.4349 -0.6517
  418MOL0     C57561   5.746   4.290   7.619 -0.0792  0.9244 -0.5128
  418MOL0     C57562   5.608   4.227   7.578  0.3946 -0.8461 -0.1363
  418MOL0     N57563   5.499   4.221   7.672 -0.4295  0.0918 -0.4029
  418MOL0     C57564   5.397   4.315   7.694 -0.5548 -0.4751  0.1767
  418MOL0     C57565   5.296   4.245   7.750 -0.2060 -0.8641 -0.3234
  418MOL0     C57566   5.165   4.303   7.809 -0.9140  0.0685  0.4090
  418MOL0     C57567   5.047   4.270   7.723  1.0316  0.1661  0.7560
  418MOL0     C57568   4.964   4.403   7.687  0.3212  1.2563 -0.5186
  418MOL0     C57569   4.908   4.470   7.818 -0.4306 -0.2752 -0.9285
  418MOL0     O57570   4.819   4.378   7.891  0.3097  0.8111  0.6781
  418MOL0     C57571   4.781   4.430   8.005 -0.5780 -0.3194  0.8087
  418MOL0     C57572   4.866   4.412   8.110 -0.2877  0.1062  0.6063
  418MOL0     C57573   4.827   4.456   8.230  0.1427 -0.4876 -1.1347
  418MOL0     C57574   4.929   4.442   8.345  0.2286 -0.7667  0.1607
  418MOL0     C57575   4.702   4.516   8.246  0.8817 -0.4520  0.0195
  418MOL0     C57576   4.662   4.569   8.377 -0.0519  0.7082 -0.0651
  418MOL0     O57577   4.749   4.652   8.442  0.1461  0.9349 -0.6291
  418MOL0     C57578   4.723   4.680   8.572 -0.3701 -0.3076 -0.0132
  418MOL0     C57579   4.737   4.582   8.675  0.6623 -0.4736 -0.5168
  418MOL0     C57580   4.710   4.620   8.812 -1.1042  0.5123  0.7935
  418MOL0     C57581   4.672   4.745   8.847  0.0253 -0.0886  0.2892
  418MOL0     O57582   4.653   4.770   8.982 -0.1628  0.0912  0.4620
  418MOL0     C57583   4.509   4.787   8.997  0.2482  0.7604  0.2478
  418MOL0     C57584   4.477   4.931   9.029 -0.2809 -0.1681  0.6388
  418MOL0     C57585   4.514   4.969   9.168 -0.8422 -0.5345 -0.3553
  418MOL0     C57586   4.531   5.117   9.173  0.0514  0.2264  0.0570
  418MOL0     C57587   4.628   5.177   9.273  0.2418 -0.2694 -0.6007
  418MOL0     C57588   4.589   5.144   9.425  0.5748 -0.2780  0.1262
  418MOL0     C57589   4.711   5.152   9.522 -0.1938  0.0818  1.1110
  418MOL0     C57590   4.778   5.290   9.505 -0.3116  0.4373  0.2831
  418MOL0    Cl57591   4.911   5.305   9.380  0.0698 -0.0815 -0.1128
  418MOL0     C57592   4.644   4.843   8.736  0.2119  0.4052 -0.1006
  418MOL0     C57593   4.670   4.807   8.603  0.1122 -1.0247 -0.4853
  418MOL0     O57594   4.544   4.559   8.400  0.5995  0.0406 -0.7245
  418MOL0     C57595   4.613   4.531   8.139 -0.5374 -0.3696 -0.4624
  418MOL0     C57596   4.658   4.489   8.019 -0.8872  0.3791  0.3399
  418MOL0     N57597   5.333   4.109   7.760  0.8022 -0.6946  0.4068
  418MOL0     N57598   5.449   4.101   7.710 -1.1016  0.3926 -0.1119
  418MOL0     C57599   6.602   4.345   7.190  0.3952  0.1583  0.4001
  418MOL0     C57600   6.692   4.428   7.123 -0.0737  0.1197 -0.4080
  418MOL0     C57601   6.914   4.599   6.741  0.3818 -0.1334  0.0013
  418MOL0     C57602   6.882   4.698   6.645  0.1721  0.6446 -0.8207
  418MOL0     C57603   6.985   4.774   6.585 -0.3466 -0.0859  1.0839
  418MOL0     C57604   7.114   4.760   6.623  0.7450  0.4229 -0.5751
  418MOL0     O57605   7.204   4.830   6.554 -0.4036  0.1365 -0.7016
  418MOL0     C57606   7.193   4.977   6.560 -0.1151  0.8174 -0.0897
  418MOL0     C57607   7.326   5.041   6.571 -0.3695  0.4992  0.0063
  418MOL0     C57608   7.426   4.985   6.678  0.7687 -0.1900  0.3128
  418MOL0     C57609   7.529   4.899   6.618 -0.4255 -0.1467 -0.7083
  418MOL0     C57610   7.613   4.968   6.522 -0.4900  1.0132  0.0694
  418MOL0     C57611   7.686   5.019   6.438  0.7391 -0.1700  0.1441
  418MOL0     C57612   7.147   4.656   6.718  0.9499 -0.7470  0.4416
  418MOL0     C57613   7.055   4.583   6.778 -0.1831  0.2701  0.5660
  418MOL0     C57614   7.097   4.479   6.880 -0.4335 -0.1144 -0.3708
  418MOL0     H57615   6.692   4.268   6.831  3.5493  2.3167  0.4419
  418MOL0     H57616   6.500   4.153   6.921  0.8822 -1.3791  1.0470
  418MOL0     H57617   6.344   4.330   7.279  0.5427  0.1433 -0.7298
  418MOL0     H57618   6.437   4.228   7.380  0.6904 -1.0510  0.1120
  418MOL0     H57619   6.195   4.107   7.230  0.3867  0.6451  0.6539
  418MOL0     H57620   6.297   4.040   7.356  3.4374  1.9340  1.2981
  418MOL0     H57621   6.090   4.089   7.452 -3.2633  1.8284 -2.6671
  418MOL0     H57622   6.221   4.206   7.507  0.0920 -0.3141  0.6439
  418MOL0     H57623   6.132   4.373   7.348  2.2611 -0.7581  0.1894
  418MOL0     H57624   6.007   4.272   7.292 -1.6855 -0.0334  1.1777
  418MOL0     H57625   5.935   4.453   7.460  2.9635  1.9376  0.5055
  418MOL0     H57626   6.024   4.364   7.586 -3.4166  3.6470  0.2358
  418MOL0     H57627   5.795   4.244   7.419 -0.9830  1.9936  0.0469
  418MOL0     H57628   5.888   4.149   7.534 -1.3792 -0.4632 -1.6231
  418MOL0     H57629   5.729   4.398   7.624 -1.1912  0.7805 -1.0161
  418MOL0     H57630   5.795   4.258   7.711 -1.3553 -1.2906 -0.5459
  418MOL0     H57631   5.574   4.282   7.490 -0.6820 -0.9533  0.1957
  418MOL0     H57632   5.615   4.121   7.550  1.0946 -0.7421 -0.3825
  418MOL0     H57633   5.391   4.416   7.653 -0.8492 -1.1390 -1.4853
  418MOL0     H57634   5.180   4.411   7.811 -0.4169 -0.0043  0.7869
  418MOL0     H57635   5.150   4.266   7.911  1.5151  1.1657  1.2522
  418MOL0     H57636   5.083   4.229   7.628 -0.1261  0.5669  0.1235
  418MOL0     H57637   4.982   4.196   7.770  0.4312 -1.7802 -2.8005
  418MOL0     H57638   5.039   4.473   7.649  0.6716  0.6182 -1.0110
  418MOL0     H57639   4.884   4.387   7.615  2.0872 -2.7720 -1.8553
  418MOL0     H57640   4.994   4.499   7.878 -2.8643  0.7427  2.3893
  418MOL0     H57641   4.845   4.553   7.784  1.6993  0.7024 -2.7113
  418MOL0     H57642   4.961   4.361   8.099 -0.6528 -0.6180  0.7501
  418MOL0     H57643   5.014   4.509   8.330  0.2710 -1.1750 -1.6364
  418MOL0     H57644   4.962   4.339   8.330  1.5413  0.0288 -3.4082
  418MOL0     H57645   4.889   4.447   8.447 -0.0003 -4.1469  0.3697
  418MOL0     H57646   4.780   4.487   8.648 -1.0081 -0.7390 -2.5085
  418MOL0     H57647   4.731   4.544   8.887  1.0546  3.4992  3.5290
  418MOL0     H57648   4.450   4.755   8.911  0.3416 -0.9542  0.7832
  418MOL0     H57649   4.476   4.723   9.079 -5.1470  1.7819 -0.7958
  418MOL0     H57650   4.523   4.993   8.951 -0.5688 -0.8148 -0.0583
  418MOL0     H57651   4.369   4.943   9.035 -0.3857  2.1308 -2.8992
  418MOL0     H57652   4.608   4.920   9.194  0.0570  1.2753  0.0098
  418MOL0     H57653   4.444   4.947   9.249 -0.8006  0.3496 -0.0729
  418MOL0     H57654   4.433   5.163   9.186  1.1182  2.6731  0.0440
  418MOL0     H57655   4.562   5.157   9.076  1.0021  2.0088  1.0399
  418MOL0     H57656   4.727   5.132   9.264  0.6045 -0.2009  2.2661
  418MOL0     H57657   4.629   5.286   9.265 -1.1918 -0.2618 -0.9630
  418MOL0     H57658   4.551   5.042   9.422  2.2208 -0.8849 -1.9066
  418MOL0     H57659   4.511   5.212   9.460  0.8297  0.8253 -1.3546
  418MOL0     H57660   4.780   5.072   9.495  0.6568  1.2654 -0.4240
  418MOL0     H57661   4.680   5.135   9.625 -1.7422 -0.4885  0.5876
  418MOL0     H57662   4.820   5.300   9.606  1.6331 -1.1686 -0.2747
  418MOL0     H57663   4.706   5.363   9.469 -0.3374 -0.5710 -1.9120
  418MOL0     H57664   4.617   4.947   8.755  1.8297  1.2994 -2.2873
  418MOL0     H57665   4.656   4.882   8.526  4.0498 -0.0102 -0.4523
  418MOL0     H57666   4.514   4.573   8.156 -0.3316  0.0933 -0.4090
  418MOL0     H57667   4.596   4.504   7.931 -1.7314  5.1855  1.4737
  418MOL0     H57668   6.591   4.363   7.297  0.0354 -2.5510  0.8933
  418MOL0     H57669   6.744   4.509   7.173  0.8366 -0.6356 -0.1188
  418MOL0     H57670   6.780   4.726   6.622  1.0585  3.9561 -1.3196
  418MOL0     H57671   6.970   4.842   6.502  2.1278  1.4653  1.7933
  418MOL0     H57672   7.143   5.009   6.468  0.8300 -2.3338 -1.8420
  418MOL0     H57673   7.128   5.002   6.644 -2.1065  2.9472 -2.1121
  418MOL0     H57674   7.312   5.147   6.597 -0.8884  0.4811 -0.1943
  418MOL0     H57675   7.369   5.039   6.471 -0.3332 -2.6841 -0.0083
  418MOL0     H57676   7.476   5.066   6.732 -1.9016  2.0271 -0.3349
  418MOL0     H57677   7.360   4.938   6.750 -1.2271  1.9350 -0.0075
  418MOL0     H57678   7.491   4.809   6.568  0.3899  0.6693 -2.9350
  418MOL0     H57679   7.592   4.868   6.702 -0.6063  0.8283 -0.2038
  418MOL0     H57680   7.740   5.051   6.351  2.1361 -1.9591  0.2866
  418MOL0     H57681   7.251   4.649   6.750  1.2188 -0.0923 -0.2504
  418MOL0     H57682   7.042   4.385   6.878 -0.2388 -0.2370 -0.1156
  418MOL0     H57683   7.199   4.445   6.859  0.0364 -0.1216  1.6957
  418MOL0     H57684   7.094   4.514   6.983  3.9825  0.2498 -0.1581
  419MOL0     O57685   1.766  10.787   6.124 -0.0014  0.3786  0.4591
  419MOL0     C57686   1.792  10.852   6.224  0.3748  0.7446 -0.4976
  419MOL0     O57687   1.922  10.878   6.267  0.2358  0.2837 -0.7465
  419MOL0     C57688   2.037  10.839   6.201  0.0447 -0.3242 -0.3526
  419MOL0     C57689   2.050  10.782   6.071 -0.1718  1.5660 -1.0453
  419MOL0     C57690   2.180  10.749   6.027 -0.0957 -0.1043 -0.2846
  419MOL0     C57691   2.289  10.764   6.108  0.1124  0.4880  0.5263
  419MOL0     O57692   2.423  10.743   6.071  0.3765  0.2056  0.1168
  419MOL0     C57693   2.440  10.646   5.962  0.4155 -0.4515 -0.1902
  419MOL0     C57694   2.587  10.621   5.941  0.6581 -0.2623  0.6785
  419MOL0     C57695   2.644  10.574   6.077 -0.6946 -0.4735 -0.5138
  419MOL0     C57696   2.782  10.505   6.071  0.4090 -0.1031  0.3945
  419MOL0     C57697   2.904  10.606   6.076  0.1384 -0.1340 -0.9648
  419MOL0     C57698   3.036  10.528   6.114  0.7187 -0.3603 -0.1632
  419MOL0     C57699   3.131  10.628   6.183 -0.6160  0.4796  0.7626
  419MOL0     C57700   3.230  10.561   6.269  0.2240  1.0521  0.0645
  419MOL0     N57701   3.334  10.647   6.307  0.4977 -0.3505 -0.5293
  419MOL0     C57702   3.442  10.680   6.242  0.5318  0.9387 -1.0031
  419MOL0     C57703   3.513  10.760   6.317  0.0156  0.9965  0.3499
  419MOL0     C57704   3.648  10.819   6.282  0.5241  0.8324 -0.0009
  419MOL0     C57705   3.608  10.941   6.200  0.1966  0.0435 -0.3298
  419MOL0     C57706   3.724  11.030   6.161  0.2391 -0.0834  0.0358
  419MOL0     C57707   3.686  11.167   6.104  0.2686  0.5574 -1.2891
  419MOL0     O57708   3.806  11.245   6.090  0.2396 -0.7122  0.2732
  419MOL0     C57709   3.850  11.314   6.202 -0.1027  0.1533 -0.3124
  419MOL0     C57710   3.963  11.261   6.254  0.1333  0.8009 -0.2228
  419MOL0     C57711   4.019  11.317   6.368 -0.3069  0.3712  0.5634
  419MOL0     C57712   4.145  11.247   6.418 -0.1488 -0.5611  0.4022
  419MOL0     C57713   3.960  11.425   6.435  0.1002  0.0194  0.3905
  419MOL0     C57714   4.005  11.500   6.556 -0.4218 -0.1916  0.4920
  419MOL0     O57715   4.143  11.498   6.585  0.5189  0.1186  0.5789
  419MOL0     C57716   4.205  11.554   6.692 -0.3251 -0.0695 -0.2982
  419MOL0     C57717   4.276  11.477   6.782  0.2597 -1.3797  0.0631
  419MOL0     C57718   4.343  11.537   6.890 -0.2816  0.5161  0.0159
  419MOL0     C57719   4.348  11.677   6.903  0.8135  0.4804  0.6836
  419MOL0     O57720   4.408  11.748   7.001 -0.2615  0.0979 -0.9027
  419MOL0     C57721   4.472  11.682   7.109 -0.1098  0.5713 -0.1176
  419MOL0     C57722   4.528  11.788   7.210 -0.2359  0.1347  0.2683
  419MOL0     C57723   4.599  11.900   7.138 -0.4992 -0.1221 -0.4339
  419MOL0     C57724   4.648  11.998   7.244  0.3625  0.7636  0.5258
  419MOL0     C57725   4.794  11.977   7.285 -0.1046 -0.5620  1.1809
  419MOL0     C57726   4.830  12.028   7.427  0.4109 -0.7067  0.8096
  419MOL0     C57727   4.797  12.177   7.439  0.2858 -0.0281  1.0829
  419MOL0     C57728   4.844  12.251   7.571  0.3948 -0.5106  0.5588
  419MOL0    Cl57729   4.753  12.201   7.711 -0.4666  0.1485 -0.1201
  419MOL0     C57730   4.288  11.754   6.803 -0.1214 -1.4182 -0.3596
  419MOL0     C57731   4.203  11.690   6.710  1.0243 -1.4815  0.0520
  419MOL0     O57732   3.921  11.557   6.619  0.2749 -0.0080 -0.1482
  419MOL0     C57733   3.839  11.468   6.383 -0.0565 -0.0607 -0.1710
  419MOL0     C57734   3.778  11.408   6.275  0.0516 -0.1149  0.2800
  419MOL0     N57735   3.444  10.767   6.435 -0.5506  0.0125 -0.3628
  419MOL0     N57736   3.336  10.706   6.426  0.4518  1.1602 -0.3149
  419MOL0     C57737   2.279  10.809   6.238 -0.3856  0.4938 -0.6043
  419MOL0     C57738   2.153  10.854   6.278  0.8608 -0.2791  0.5865
  419MOL0     C57739   1.678  10.916   6.302 -0.0398  0.3310 -0.2863
  419MOL0     C57740   1.691  11.048   6.356 -0.4391  0.6959  0.4244
  419MOL0     C57741   1.580  11.119   6.392 -0.1462 -0.5929 -0.5160
  419MOL0     C57742   1.448  11.064   6.385 -0.3698  0.4459  0.0105
  419MOL0     O57743   1.346  11.148   6.420 -0.4296  0.5373 -0.5759
  419MOL0     C57744   1.216  11.091   6.424 -0.0880 -0.3294  0.4120
  419MOL0     C57745   1.121  11.204   6.442 -0.8986 -0.0254 -0.7610
  419MOL0     C57746   0.980  11.170   6.401 -0.0537  0.2449 -0.9887
  419MOL0     C57747   0.890  11.215   6.527 -0.2293  0.0960  0.5948
  419MOL0     C57748   0.751  11.234   6.479  0.4125  1.0227  0.3386
  419MOL0     C57749   0.641  11.239   6.428 -0.4089  1.0509  0.3395
  419MOL0     C57750   1.439  10.933   6.339 -0.0023  0.4794 -0.5840
  419MOL0     C57751   1.544  10.861   6.295  0.2832 -0.6886 -0.3850
  419MOL0     C57752   1.506  10.714   6.251  0.0235 -0.9952  0.2891
  419MOL0     H57753   1.960  10.770   6.012  0.0275 -0.3673 -1.0433
  419MOL0     H57754   2.178  10.732   5.920 -2.3553 -0.5103 -0.2375
  419MOL0     H57755   2.389  10.678   5.871 -3.4175  1.6488  2.4062
  419MOL0     H57756   2.383  10.560   5.999 -0.4689  0.7412  1.3863
  419MOL0     H57757   2.585  10.544   5.864 -1.1741  1.4490 -1.0917
  419MOL0     H57758   2.638  10.712   5.908 -2.8471  1.5847 -0.1220
  419MOL0     H57759   2.661  10.659   6.144  0.9879 -0.3668 -1.0189
  419MOL0     H57760   2.578  10.494   6.110 -1.0452 -0.7130 -1.7589
  419MOL0     H57761   2.815  10.426   6.139  4.1889  1.3805  0.4867
  419MOL0     H57762   2.790  10.474   5.967  2.2463  2.1019 -0.2073
  419MOL0     H57763   2.885  10.680   6.155  0.1687  0.2734 -1.3326
  419MOL0     H57764   2.916  10.656   5.980  0.4769 -1.3857 -1.5880
  419MOL0     H57765   3.018  10.444   6.182 -1.5040 -0.7610 -1.1659
  419MOL0     H57766   3.083  10.480   6.028 -0.5867  0.3040 -1.2733
  419MOL0     H57767   3.062  10.688   6.244 -1.7005  0.4102 -0.3621
  419MOL0     H57768   3.184  10.687   6.107  1.5813 -2.3596 -0.0644
  419MOL0     H57769   3.173  10.522   6.353 -0.3584  0.6932 -0.4834
  419MOL0     H57770   3.277  10.477   6.217  0.7573  0.5481  1.3224
  419MOL0     H57771   3.458  10.641   6.142 -2.1441  2.2421 -2.0163
  419MOL0     H57772   3.709  10.754   6.219 -0.8711  1.4815 -2.1109
  419MOL0     H57773   3.690  10.850   6.379  1.0632  1.1340 -0.3255
  419MOL0     H57774   3.567  10.896   6.109  1.1639 -1.5899 -0.0110
  419MOL0     H57775   3.529  10.990   6.258  1.3353 -1.5119  2.7687
  419MOL0     H57776   3.782  11.054   6.251 -0.9103  3.4836 -0.0363
  419MOL0     H57777   3.782  10.987   6.079  2.0411  3.9523 -1.0464
  419MOL0     H57778   3.623  11.155   6.015 -0.9942 -1.6042 -0.1973
  419MOL0     H57779   3.606  11.214   6.163 -1.9184 -1.2530 -2.6177
  419MOL0     H57780   4.003  11.171   6.209 -4.0586  0.3043 -3.5189
  419MOL0     H57781   4.175  11.182   6.335 -1.0256  0.6919 -0.9729
  419MOL0     H57782   4.120  11.193   6.509 -0.2837  0.2659  0.8695
  419MOL0     H57783   4.223  11.318   6.446 -0.3183 -1.6063  3.9685
  419MOL0     H57784   4.278  11.371   6.759 -1.1035 -1.3490 -0.2576
  419MOL0     H57785   4.395  11.478   6.965  1.0147  1.1011 -0.4100
  419MOL0     H57786   4.402  11.618   7.164  0.1976 -0.4570 -0.9083
  419MOL0     H57787   4.558  11.622   7.078 -0.3985 -1.6173  2.8370
  419MOL0     H57788   4.441  11.817   7.270 -1.1515  0.7440 -1.2823
  419MOL0     H57789   4.603  11.733   7.267  0.9746  0.4889 -0.9310
  419MOL0     H57790   4.521  11.958   7.088 -0.8527  1.2371  1.6123
  419MOL0     H57791   4.678  11.867   7.070 -0.5793  0.3448 -0.7570
  419MOL0     H57792   4.583  11.975   7.329  1.1242 -0.8637  0.7006
  419MOL0     H57793   4.632  12.105   7.223 -1.0308  0.2753 -1.1171
  419MOL0     H57794   4.821  11.871   7.274  0.2168 -0.3058 -1.0269
  419MOL0     H57795   4.844  12.033   7.206 -6.3897 -0.9202 -3.8332
  419MOL0     H57796   4.937  12.004   7.433  0.7619  0.6124  0.1724
  419MOL0     H57797   4.771  11.973   7.501 -0.4731  1.3804  1.7150
  419MOL0     H57798   4.688  12.185   7.435  0.4398  1.7835 -1.5748
  419MOL0     H57799   4.841  12.232   7.355 -2.5698 -2.2779 -2.1356
  419MOL0     H57800   4.829  12.357   7.552 -4.1084 -1.3449 -2.3227
  419MOL0     H57801   4.949  12.223   7.573  1.5291  2.8142 -2.4417
  419MOL0     H57802   4.291  11.862   6.816  0.2345 -1.7240  2.9930
  419MOL0     H57803   4.131  11.749   6.655 -1.1278 -1.2413  2.8981
  419MOL0     H57804   3.784  11.553   6.422 -3.1752 -1.4525 -1.1856
  419MOL0     H57805   3.682  11.453   6.253 -0.1648  0.1173  1.5912
  419MOL0     H57806   2.372  10.809   6.293 -1.5479  3.8051  1.6565
  419MOL0     H57807   2.140  10.882   6.382 -0.6523 -3.5058  1.3965
  419MOL0     H57808   1.794  11.082   6.359  0.1849 -1.0462 -0.0990
  419MOL0     H57809   1.588  11.216   6.440 -0.6909  0.4368 -2.3972
  419MOL0     H57810   1.203  11.042   6.327  4.0303 -0.8754 -0.0707
  419MOL0     H57811   1.207  11.021   6.508 -0.1954 -0.3025  0.4225
  419MOL0     H57812   1.159  11.289   6.385  0.2712  0.6154  0.8870
  419MOL0     H57813   1.135  11.235   6.546 -2.0538  0.1303 -0.6368
  419MOL0     H57814   0.937  11.220   6.314 -1.2354  2.4641  0.7795
  419MOL0     H57815   0.970  11.063   6.380 -0.9298 -0.3802  2.1555
  419MOL0     H57816   0.926  11.313   6.559 -2.1166  1.6426 -1.6901
  419MOL0     H57817   0.896  11.142   6.609 -1.2020 -1.0784 -0.3496
  419MOL0     H57818   0.541  11.242   6.388 -0.0452  3.7882 -0.6141
  419MOL0     H57819   1.344  10.880   6.347  0.7188 -0.5690  1.6554
  419MOL0     H57820   1.402  10.684   6.268  0.3641 -2.5410 -0.1546
  419MOL0     H57821   1.518  10.704   6.142 -0.7532 -1.3625  0.2271
  419MOL0     H57822   1.574  10.645   6.301  0.6317 -0.7660 -0.2079
  420MOL0     O57823   5.114  10.692   3.684  0.3221 -0.2556  0.3718
  420MOL0     C57824   4.993  10.744   3.667  0.2924  0.5298  0.3023
  420MOL0     O57825   4.958  10.816   3.556 -0.5172  0.0767  0.8765
  420MOL0     C57826   5.040  10.800   3.442 -0.2288 -0.6997  0.8386
  420MOL0     C57827   5.072  10.915   3.372 -0.2016 -0.0751  0.8134
  420MOL0     C57828   5.148  10.912   3.258  0.3143 -0.1604  0.0002
  420MOL0     C57829   5.196  10.794   3.203  0.4593 -0.0921  0.0092
  420MOL0     O57830   5.253  10.780   3.085 -0.7010  0.5585  0.1906
  420MOL0     C57831   5.361  10.864   3.062 -0.0589 -0.4994  0.3995
  420MOL0     C57832   5.483  10.785   3.024 -0.3936 -0.3217  0.7493
  420MOL0     C57833   5.472  10.726   2.883 -0.7784 -0.2381  0.5414
  420MOL0     C57834   5.612  10.673   2.834 -0.3782 -0.1381 -0.1110
  420MOL0     C57835   5.600  10.589   2.711  0.3109 -1.2956  0.5365
  420MOL0     C57836   5.481  10.489   2.697  0.2519  0.3394  0.4499
  420MOL0     C57837   5.477  10.424   2.555 -0.5977 -0.3471  0.2824
  420MOL0     C57838   5.610  10.359   2.509  0.2089  0.5059 -0.1449
  420MOL0     N57839   5.580  10.278   2.390 -0.3503  0.1837 -0.1328
  420MOL0     C57840   5.470  10.284   2.308 -0.1432 -0.5074  0.4030
  420MOL0     C57841   5.474  10.181   2.220 -0.5863  0.1986  0.2423
  420MOL0     C57842   5.390  10.136   2.102  0.0952 -0.2906 -0.0862
  420MOL0     C57843   5.392  10.244   1.989  0.8932 -0.7057 -0.8292
  420MOL0     C57844   5.523  10.308   1.944  0.0673 -0.2499 -0.6405
  420MOL0     C57845   5.536  10.463   1.972 -0.7930 -0.8811 -1.0223
  420MOL0     O57846   5.434  10.535   1.901  0.4167 -0.1909 -0.7178
  420MOL0     C57847   5.429  10.675   1.923  0.6816  0.3986  0.3750
  420MOL0     C57848   5.335  10.738   1.843 -0.4064  0.1528  0.8386
  420MOL0     C57849   5.325  10.871   1.835 -0.1112 -0.5754  0.5139
  420MOL0     C57850   5.236  10.935   1.720 -0.9477  0.3192  0.1418
  420MOL0     C57851   5.406  10.954   1.929  0.4529 -0.1063  1.0707
  420MOL0     C57852   5.395  11.102   1.943  0.0700  0.6274  0.1087
  420MOL0     O57853   5.405  11.153   2.065  0.5567  1.2741 -0.2102
  420MOL0     C57854   5.383  11.284   2.067 -0.8460  0.3001  0.1187
  420MOL0     C57855   5.490  11.364   2.069 -0.2986 -0.0222 -0.8116
  420MOL0     C57856   5.477  11.507   2.066 -0.0019 -0.1756  0.3021
  420MOL0     C57857   5.355  11.559   2.051 -0.1125 -0.5218 -0.1616
  420MOL0     O57858   5.357  11.697   2.018  0.4694  0.0073  0.3503
  420MOL0     C57859   5.248  11.776   2.059  0.1828 -0.1419 -0.2487
  420MOL0     C57860   5.279  11.920   2.051  0.0230 -0.5312  0.0644
  420MOL0     C57861   5.153  11.989   2.095 -0.4050  0.2318 -0.3858
  420MOL0     C57862   5.171  12.142   2.078 -0.5378  0.6098  0.4904
  420MOL0     C57863   5.050  12.223   2.134 -0.4878 -0.3827 -0.5234
  420MOL0     C57864   4.998  12.202   2.275 -0.1640  0.8097 -0.0912
  420MOL0     C57865   4.907  12.307   2.326  0.4579 -0.1071 -0.3199
  420MOL0     C57866   4.801  12.252   2.425 -0.5822  1.2012 -0.0521
  420MOL0    Cl57867   4.681  12.154   2.336 -0.0905 -0.3082  0.0958
  420MOL0     C57868   5.238  11.479   2.079 -0.2601  0.1299 -0.0458
  420MOL0     C57869   5.255  11.339   2.086  0.1042 -0.6697  0.2919
  420MOL0     O57870   5.393  11.166   1.839 -0.4702  0.1514  0.1448
  420MOL0     C57871   5.482  10.884   2.024 -0.2816 -0.5816 -0.6001
  420MOL0     C57872   5.496  10.746   2.027 -0.0130 -0.2621 -0.3614
  420MOL0     N57873   5.587  10.107   2.243 -0.1973 -0.3756  0.3715
  420MOL0     N57874   5.644  10.164   2.349 -0.6386 -0.4446 -0.3306
  420MOL0     C57875   5.166  10.679   3.274  0.7025 -0.1334  0.2432
  420MOL0     C57876   5.082  10.676   3.394 -0.8253  0.0685 -0.0522
  420MOL0     C57877   4.890  10.729   3.768 -0.3351  0.7870 -1.5831
  420MOL0     C57878   4.931  10.722   3.900 -0.8845  0.8656  0.9710
  420MOL0     C57879   4.841  10.702   4.005  0.2387  0.1378 -0.1946
  420MOL0     C57880   4.709  10.717   3.988  0.0219  0.7560 -0.6748
  420MOL0     O57881   4.626  10.688   4.098  0.5879 -0.3752  0.6352
  420MOL0     C57882   4.513  10.772   4.126 -0.2040  0.3163  0.3843
  420MOL0     C57883   4.551  10.896   4.196 -0.4266  1.1566 -0.9542
  420MOL0     C57884   4.439  10.988   4.207  0.0890 -0.7499 -0.1226
  420MOL0     C57885   4.477  11.120   4.283  0.4909  0.6746  0.3550
  420MOL0     C57886   4.382  11.239   4.262  0.0542 -0.5983  0.1538
  420MOL0     C57887   4.321  11.342   4.255  1.0665  0.3984 -0.5586
  420MOL0     C57888   4.657  10.716   3.859 -0.4519 -0.2505  1.3886
  420MOL0     C57889   4.751  10.725   3.750  0.6060 -0.5672  0.0070
  420MOL0     C57890   4.689  10.724   3.615  0.4735  1.5630 -0.0772
  420MOL0     H57891   5.032  11.010   3.407  1.7567  1.9393 -1.9858
  420MOL0     H57892   5.172  11.004   3.205 -2.9090 -1.2989 -3.9757
  420MOL0     H57893   5.388  10.931   3.144  2.3343 -1.1584  0.2296
  420MOL0     H57894   5.332  10.928   2.979 -2.5404  1.3734  2.5512
  420MOL0     H57895   5.564  10.858   3.016 -1.4003  0.6033 -2.4021
  420MOL0     H57896   5.509  10.716   3.105  0.1187 -0.9332  0.0709
  420MOL0     H57897   5.396  10.647   2.888 -0.2299 -0.7661  0.6359
  420MOL0     H57898   5.441  10.793   2.802  0.3849 -0.6674 -0.2924
  420MOL0     H57899   5.691  10.749   2.835  1.0325 -1.5415  0.3392
  420MOL0     H57900   5.650  10.617   2.920  2.0935  1.1346 -0.2941
  420MOL0     H57901   5.699  10.545   2.695  1.8731  1.5516  1.6198
  420MOL0     H57902   5.598  10.664   2.631  2.9882  0.0936  1.6552
  420MOL0     H57903   5.489  10.407   2.769  0.7321 -0.0954 -0.0834
  420MOL0     H57904   5.385  10.533   2.726  0.5586  0.2546  1.6606
  420MOL0     H57905   5.441  10.504   2.490 -1.0412  1.4962  2.6350
  420MOL0     H57906   5.406  10.342   2.569  0.2612 -0.9219  1.4370
  420MOL0     H57907   5.678  10.442   2.486  0.0469  0.0845 -2.3574
  420MOL0     H57908   5.658  10.301   2.587 -1.3452  0.9785  1.2415
  420MOL0     H57909   5.390  10.355   2.324  1.1154  0.5468  2.3095
  420MOL0     H57910   5.288  10.111   2.133  1.6094 -1.1696  5.0268
  420MOL0     H57911   5.437  10.049   2.055  1.6855  1.1398 -1.2648
  420MOL0     H57912   5.349  10.186   1.907  0.9040 -1.7979 -0.0858
  420MOL0     H57913   5.324  10.318   2.032 -0.6068 -2.2632 -0.4493
  420MOL0     H57914   5.603  10.251   1.993 -2.1383 -1.9592  1.2206
  420MOL0     H57915   5.535  10.299   1.836  5.4670  1.4913 -0.4973
  420MOL0     H57916   5.525  10.476   2.080  0.6383  1.7867 -1.1350
  420MOL0     H57917   5.633  10.499   1.939 -1.1675 -0.4268 -1.6563
  420MOL0     H57918   5.276  10.673   1.779  1.3975 -3.1502  2.2801
  420MOL0     H57919   5.293  10.944   1.627 -0.7594  3.7754  0.4710
  420MOL0     H57920   5.201  11.037   1.737 -0.0677  1.6962 -4.7313
  420MOL0     H57921   5.144  10.881   1.697 -1.1424  0.5411  0.4063
  420MOL0     H57922   5.592  11.327   2.073 -0.3565 -0.1459  2.3648
  420MOL0     H57923   5.564  11.573   2.068  0.3913 -0.6274 -1.0167
  420MOL0     H57924   5.166  11.743   1.994  1.0946  0.2312 -1.6328
  420MOL0     H57925   5.237  11.759   2.167  6.8710 -0.0617  0.8652
  420MOL0     H57926   5.348  11.943   2.132 -1.2935 -1.4863  1.5199
  420MOL0     H57927   5.323  11.952   1.956 -2.0528 -2.5334 -1.7029
  420MOL0     H57928   5.124  11.968   2.199 -0.7688  2.4029 -0.0134
  420MOL0     H57929   5.068  11.966   2.030 -1.7640  3.7577 -0.0891
  420MOL0     H57930   5.182  12.180   1.976  0.9478  0.1030  0.4422
  420MOL0     H57931   5.263  12.168   2.130 -0.0422 -0.8174  0.3502
  420MOL0     H57932   5.068  12.329   2.113  0.0928 -0.2522  0.5315
  420MOL0     H57933   4.965  12.200   2.069 -1.4137  0.1278  0.4860
  420MOL0     H57934   5.088  12.195   2.335  0.8330  0.4468 -1.5689
  420MOL0     H57935   4.941  12.109   2.280 -2.8224  2.2279 -1.5410
  420MOL0     H57936   4.855  12.356   2.243  0.1443  0.7417  0.3753
  420MOL0     H57937   4.972  12.376   2.379 -0.2286  1.3690 -1.3239
  420MOL0     H57938   4.749  12.329   2.482 -5.2908 -2.4702  1.3055
  420MOL0     H57939   4.851  12.198   2.507 -1.1644 -0.4148 -0.7092
  420MOL0     H57940   5.139  11.522   2.079 -0.0844  0.8352  3.6364
  420MOL0     H57941   5.177  11.264   2.086 -0.0673 -0.4941 -0.8158
  420MOL0     H57942   5.529  10.949   2.098 -2.0282  1.4551 -1.1566
  420MOL0     H57943   5.559  10.702   2.103  0.7329  0.9759 -0.2451
  420MOL0     H57944   5.199  10.589   3.223 -1.1100 -0.5465 -0.2822
  420MOL0     H57945   5.058  10.580   3.438  1.0989 -0.3878  0.0748
  420MOL0     H57946   5.037  10.719   3.924 -0.7430 -1.1577  0.2305
  420MOL0     H57947   4.872  10.686   4.108  0.2898  1.2190 -0.0320
  420MOL0     H57948   4.458  10.789   4.033 -0.4240  0.9040  0.6098
  420MOL0     H57949   4.446  10.722   4.197  0.1647  0.7775  1.0723
  420MOL0     H57950   4.635  10.941   4.144  0.9914 -1.4611 -1.0923
  420MOL0     H57951   4.586  10.879   4.299 -1.2079 -1.1129 -0.9888
  420MOL0     H57952   4.407  11.012   4.105  0.9202 -2.6604 -0.8725
  420MOL0     H57953   4.361  10.933   4.260  2.7152 -0.8507  4.1711
  420MOL0     H57954   4.576  11.144   4.243  0.8530 -0.9967  0.1913
  420MOL0     H57955   4.497  11.108   4.390  0.8616  3.0524  0.6068
  420MOL0     H57956   4.271  11.435   4.236 -0.8966 -0.1155  1.5353
  420MOL0     H57957   4.551  10.710   3.839  0.2127 -0.8468 -2.8440
  420MOL0     H57958   4.704  10.823   3.572  2.3960  1.4534  0.2454
  420MOL0     H57959   4.739  10.646   3.556  0.8382  1.3149  0.5461
  420MOL0     H57960   4.581  10.703   3.617  0.8725 -1.1663 -1.9480
  421MOL0     O57961   9.298   2.595  10.326  0.1569 -0.2340 -0.2324
  421MOL0     C57962   9.414   2.616  10.357 -0.2776  0.2459  0.2449
  421MOL0     O57963   9.456   2.721  10.441  0.0710 -0.3707 -0.0329
  421MOL0     C57964   9.357   2.802  10.498 -0.1270 -0.0392 -0.3219
  421MOL0     C57965   9.374   2.936  10.451  0.5454  0.5152 -0.2096
  421MOL0     C57966   9.285   3.036  10.491 -0.4919 -0.9276 -0.7766
  421MOL0     C57967   9.190   3.013  10.589  0.9392  0.1464 -0.0780
  421MOL0     O57968   9.113   3.116  10.629 -0.1743  0.2545  0.5314
  421MOL0     C57969   8.975   3.096  10.657 -0.1333  0.0606  0.4987
  421MOL0     C57970   8.901   3.237  10.682 -0.2566  0.1915  1.1559
  421MOL0     C57971   8.892   3.297  10.540 -0.0220  0.6030  0.6606
  421MOL0     C57972   8.811   3.429  10.547 -1.0246  0.1595  0.3020
  421MOL0     C57973   8.805   3.496  10.406  0.4242  0.1050 -0.6491
  421MOL0     C57974   8.730   3.635  10.426 -0.5753  0.6972 -0.5751
  421MOL0     C57975   8.717   3.715  10.298 -0.7408 -0.4432  0.8442
  421MOL0     C57976   8.680   3.856  10.332  0.8802  0.2483  0.7539
  421MOL0     N57977   8.793   3.932  10.372 -0.8071  0.4589 -0.1851
  421MOL0     C57978   8.922   3.941  10.323  0.0976  0.5371  0.7775
  421MOL0     C57979   8.987   4.037  10.391  1.2917  0.4378  0.3791
  421MOL0     C57980   9.123   4.073  10.354  1.6285 -0.2954  0.4447
  421MOL0     C57981   9.185   4.190  10.426 -0.9421 -0.4564 -0.6157
  421MOL0     C57982   9.135   4.325  10.374  1.1214  0.0103  0.6594
  421MOL0     C57983   9.154   4.449  10.453 -0.0979 -0.0260  0.2127
  421MOL0     O57984   9.295   4.483  10.478  0.1908 -0.2754  0.2939
  421MOL0     C57985   9.361   4.555  10.377  0.5011 -0.0408 -0.5423
  421MOL0     C57986   9.495   4.567  10.403  0.7226  1.2141 -0.4297
  421MOL0     C57987   9.585   4.644  10.326 -0.5158  0.7489  0.9350
  421MOL0     C57988   9.733   4.634  10.370 -0.6046 -0.3086  0.2246
  421MOL0     C57989   9.534   4.722  10.215 -0.0517  0.7411  0.7787
  421MOL0     C57990   9.615   4.804  10.127 -0.8322 -0.1750  0.3549
  421MOL0     O57991   9.756   4.809  10.155  0.2034  0.3631  0.3641
  421MOL0     C57992   9.853   4.870  10.082 -0.1518 -0.5663  0.0461
  421MOL0     C57993   9.851   4.845   9.942  1.0441  0.5744 -0.3362
  421MOL0     C57994   9.953   4.886   9.861 -0.3439  0.2964 -1.3370
  421MOL0     C57995  10.075   4.935   9.916  0.3118 -0.4048 -0.7539
  421MOL0     O57996  10.184   4.975   9.850 -0.1609  0.5026 -0.4271
  421MOL0     C57997  10.177   4.962   9.706 -0.6487  0.4850  0.8164
  421MOL0     C57998  10.321   5.002   9.659 -0.5276 -0.3234 -0.2585
  421MOL0     C57999  10.426   4.892   9.681  0.4665 -0.3904  0.3681
  421MOL0     C58000  10.429   4.784   9.574 -0.1242 -0.4960  0.0948
  421MOL0     C58001  10.469   4.651   9.647 -0.5010 -0.8702 -0.0031
  421MOL0     C58002  10.523   4.559   9.536  0.1580 -0.6887 -0.2052
  421MOL0     C58003  10.428   4.541   9.412  0.2368 -0.1976  0.1576
  421MOL0     C58004  10.307   4.472   9.464  0.5929 -0.3223 -0.2093
  421MOL0    Cl58005  10.338   4.294   9.521 -0.1865 -0.2983  0.3062
  421MOL0     C58006  10.073   4.972  10.051 -0.7276  0.8796 -0.1025
  421MOL0     C58007   9.962   4.943  10.131  0.1378 -0.0733 -0.8479
  421MOL0     O58008   9.559   4.871  10.038  0.0567  0.2861 -0.0625
  421MOL0     C58009   9.393   4.716  10.198 -0.6775  0.3370  1.4319
  421MOL0     C58010   9.310   4.631  10.271 -0.3162 -0.4607 -0.6496
  421MOL0     N58011   8.905   4.089  10.484  0.1718  0.3680  0.1669
  421MOL0     N58012   8.788   4.026  10.474 -0.4678 -0.7920  0.1275
  421MOL0     C58013   9.181   2.879  10.642  0.5548 -0.4600  0.0692
  421MOL0     C58014   9.261   2.772  10.591 -0.5610 -0.2850 -0.6957
  421MOL0     C58015   9.530   2.557  10.296  0.1566 -0.2878  0.2809
  421MOL0     C58016   9.659   2.573  10.344 -0.6171  0.4001 -0.9980
  421MOL0     C58017   9.780   2.544  10.279 -0.4319  0.7949 -0.0959
  421MOL0     C58018   9.773   2.473  10.161 -0.5281 -0.3267 -1.1474
  421MOL0     O58019   9.893   2.431  10.112  0.0801 -0.3280  0.0424
  421MOL0     C58020   9.889   2.376   9.976 -0.2891 -0.7488 -0.3671
  421MOL0     C58021  10.031   2.338   9.934 -0.2582 -0.3668  0.7617
  421MOL0     C58022  10.162   2.419   9.959 -0.4385  0.4670  0.6368
  421MOL0     C58023  10.264   2.393   9.851 -0.1095  0.1514 -0.5560
  421MOL0     C58024  10.318   2.259   9.848  0.5182  0.3980 -0.4543
  421MOL0     C58025  10.373   2.155   9.845 -0.2728 -0.0243  0.9017
  421MOL0     C58026   9.643   2.435  10.113  0.2985  0.1890 -0.6598
  421MOL0     C58027   9.522   2.475  10.178 -0.2182 -0.7298  0.9121
  421MOL0     C58028   9.388   2.439  10.113  0.2284 -0.3051 -0.2589
  421MOL0     H58029   9.463   2.957  10.392 -0.7241  0.3362 -2.2661
  421MOL0     H58030   9.295   3.134  10.445  1.1515 -0.4223  0.5675
  421MOL0     H58031   8.972   3.039  10.750 -0.8821 -0.8305 -0.0595
  421MOL0     H58032   8.922   3.036  10.583  1.0653 -0.8834  0.3681
  421MOL0     H58033   8.801   3.203  10.712 -0.8715 -2.0961 -2.7477
  421MOL0     H58034   8.961   3.301  10.748 -0.1748  3.2866 -1.7046
  421MOL0     H58035   8.993   3.321  10.506  0.7060  0.0884  2.3329
  421MOL0     H58036   8.837   3.227  10.476  0.3305  0.3477  0.6342
  421MOL0     H58037   8.710   3.399  10.575 -1.0729 -0.9178 -0.8940
  421MOL0     H58038   8.855   3.502  10.615  0.0982  1.3426 -1.5949
  421MOL0     H58039   8.747   3.435  10.336  0.7859  1.6540 -2.3618
  421MOL0     H58040   8.908   3.512  10.374  0.4013 -0.3735 -0.9682
  421MOL0     H58041   8.634   3.624  10.479  1.7754 -1.2149  3.7958
  421MOL0     H58042   8.796   3.688  10.494  0.6254 -1.1849 -0.1910
  421MOL0     H58043   8.639   3.670  10.236  0.2686 -2.5543  1.0152
  421MOL0     H58044   8.813   3.707  10.247 -0.0369  2.4917  1.5162
  421MOL0     H58045   8.626   3.913  10.256  1.8708 -1.2839 -1.1744
  421MOL0     H58046   8.612   3.848  10.417  1.4087  2.8752  1.5305
  421MOL0     H58047   8.953   3.873  10.244 -5.1420 -1.2142 -0.2078
  421MOL0     H58048   9.127   4.083  10.245  1.7634 -1.9457  0.2851
  421MOL0     H58049   9.186   3.986  10.373  1.3367 -0.2779  1.5182
  421MOL0     H58050   9.154   4.176  10.530  2.9786  0.1688  0.8014
  421MOL0     H58051   9.294   4.186  10.433 -1.0834 -3.0843  2.3251
  421MOL0     H58052   9.176   4.336  10.273 -1.0014 -0.4918 -0.3340
  421MOL0     H58053   9.026   4.313  10.362  1.4065 -0.7801 -1.8345
  421MOL0     H58054   9.098   4.531  10.408 -3.3289 -1.4681  1.2552
  421MOL0     H58055   9.106   4.432  10.550 -0.8822  0.0256 -0.1596
  421MOL0     H58056   9.520   4.521  10.497 -0.7044  1.0746 -0.0903
  421MOL0     H58057   9.753   4.722  10.431 -2.1771 -1.5737  2.7563
  421MOL0     H58058   9.809   4.623  10.293 -0.9678  0.4964 -0.2588
  421MOL0     H58059   9.754   4.552  10.440  0.9502 -0.1327  0.0041
  421MOL0     H58060   9.768   4.786   9.905  0.9903  1.3922 -1.5600
  421MOL0     H58061   9.942   4.865   9.755  1.1480 -1.1693 -1.2452
  421MOL0     H58062  10.159   4.862   9.667  3.6672  0.0484 -0.6294
  421MOL0     H58063  10.109   5.034   9.659  0.5622 -0.3456 -2.4401
  421MOL0     H58064  10.319   5.030   9.553 -1.2154 -0.6167 -0.3276
  421MOL0     H58065  10.342   5.100   9.704 -0.1896 -1.9140  3.3264
  421MOL0     H58066  10.405   4.850   9.780 -1.0462 -0.4122  0.0654
  421MOL0     H58067  10.528   4.930   9.673 -0.3693  1.5768 -3.8118
  421MOL0     H58068  10.500   4.824   9.501 -3.5964  1.0242 -2.7678
  421MOL0     H58069  10.334   4.772   9.522  0.6828 -1.3553 -1.2255
  421MOL0     H58070  10.553   4.668   9.714 -0.0694  0.0397 -0.7390
  421MOL0     H58071  10.388   4.624   9.715 -0.9823  0.8080  0.1383
  421MOL0     H58072  10.547   4.463   9.582  0.0088 -0.2864  0.7383
  421MOL0     H58073  10.617   4.597   9.495  0.3945 -1.9462 -0.8473
  421MOL0     H58074  10.473   4.467   9.345 -0.9813  0.5398 -1.5623
  421MOL0     H58075  10.402   4.631   9.355  0.7842  1.0678  1.8423
  421MOL0     H58076  10.241   4.472   9.377  0.6541  2.1765 -0.3305
  421MOL0     H58077  10.259   4.530   9.543 -0.2606 -0.1520 -0.8492
  421MOL0     H58078  10.163   5.006  10.100 -0.0668  0.9726 -1.3281
  421MOL0     H58079   9.976   4.961  10.238 -0.2091  0.8212 -0.9401
  421MOL0     H58080   9.354   4.775  10.116  1.1834 -0.3725 -0.0526
  421MOL0     H58081   9.204   4.632  10.246 -0.7599  2.2557  0.9654
  421MOL0     H58082   9.111   2.861  10.723 -3.3317  1.4585 -2.5328
  421MOL0     H58083   9.260   2.672  10.635 -1.3763  1.7675  4.7548
  421MOL0     H58084   9.677   2.623  10.439  0.7322  0.2725 -1.1634
  421MOL0     H58085   9.875   2.579  10.317  0.9838 -0.6593 -2.0633
  421MOL0     H58086   9.821   2.291   9.978 -1.3433  0.0578 -0.9798
  421MOL0     H58087   9.859   2.453   9.904  0.9057 -2.5518 -2.9535
  421MOL0     H58088  10.030   2.321   9.826  1.1555 -0.8956  0.8115
  421MOL0     H58089  10.047   2.235   9.969 -0.0351  0.0468  1.9075
  421MOL0     H58090  10.135   2.525   9.965 -0.5144  0.3859  4.3492
  421MOL0     H58091  10.201   2.400  10.060 -1.3822  2.7105  1.5036
  421MOL0     H58092  10.347   2.453   9.890  0.2908  0.9064 -2.4549
  421MOL0     H58093  10.249   2.442   9.755  3.0704  0.5135 -0.9820
  421MOL0     H58094  10.431   2.066   9.859 -0.1567  0.1329  1.4412
  421MOL0     H58095   9.634   2.364  10.032 -2.8943  0.5222 -0.7405
  421MOL0     H58096   9.320   2.521  10.091  1.0407  1.0430  1.9157
  421MOL0     H58097   9.402   2.397  10.013 -0.8637  0.5708 -0.7992
  421MOL0     H58098   9.346   2.363  10.180 -1.3980 -1.9665 -2.9993
  422MOL0     O58099   2.514   5.576   4.272 -0.2730 -0.4016  0.0126
  422MOL0     C58100   2.563   5.650   4.356  0.3450 -0.2679  0.2313
  422MOL0     O58101   2.557   5.794   4.352  0.0073 -0.0345 -0.5727
  422MOL0     C58102   2.475   5.837   4.253  0.0399  0.1613 -0.9649
  422MOL0     C58103   2.336   5.806   4.240  0.2440  0.3639  0.0919
  422MOL0     C58104   2.249   5.848   4.137 -0.5161 -0.6120 -0.4967
  422MOL0     C58105   2.297   5.933   4.040  0.1283 -0.1033 -1.0998
  422MOL0     O58106   2.211   5.956   3.939  0.0466  0.2945  0.1566
  422MOL0     C58107   2.245   6.065   3.848 -0.0454  0.4704  0.5178
  422MOL0     C58108   2.123   6.087   3.763 -0.2040 -0.3900  0.0969
  422MOL0     C58109   2.108   5.994   3.642 -0.6638  0.0559  0.4832
  422MOL0     C58110   2.167   5.849   3.657 -0.2602 -0.6676  0.3171
  422MOL0     C58111   2.145   5.752   3.538  0.1199  0.3104 -0.3902
  422MOL0     C58112   2.000   5.739   3.498 -0.2385 -0.0877  0.5825
  422MOL0     C58113   1.972   5.645   3.381 -0.3138  0.4806 -0.5512
  422MOL0     C58114   1.831   5.649   3.339  0.8934 -0.0572  1.0473
  422MOL0     N58115   1.794   5.555   3.230 -0.9757 -0.6182 -0.3528
  422MOL0     C58116   1.816   5.418   3.247 -1.5531 -0.4030  0.2366
  422MOL0     C58117   1.774   5.366   3.135 -0.5252  0.1606  0.6733
  422MOL0     C58118   1.782   5.228   3.097 -0.5675 -0.3916  0.3957
  422MOL0     C58119   1.709   5.136   3.198  0.8447 -0.5407  0.3601
  422MOL0     C58120   1.755   4.988   3.172  0.6274  0.4192  0.3105
  422MOL0     C58121   1.722   4.897   3.294 -0.6509 -0.2743  0.1764
  422MOL0     O58122   1.760   4.955   3.421 -0.4962  1.1118  0.0459
  422MOL0     C58123   1.721   4.881   3.539 -0.2323 -0.3901  0.0306
  422MOL0     C58124   1.682   4.748   3.533 -0.2210 -0.2482  0.6626
  422MOL0     C58125   1.657   4.672   3.646 -0.2230  0.5004 -0.7223
  422MOL0     C58126   1.642   4.522   3.624  1.2411  0.3835  0.3923
  422MOL0     C58127   1.660   4.731   3.776 -0.6130 -0.3875 -0.2169
  422MOL0     C58128   1.636   4.669   3.910  0.4068 -0.0399 -0.1744
  422MOL0     O58129   1.603   4.752   4.024  0.2038 -0.4074  0.2124
  422MOL0     C58130   1.493   4.831   4.020  0.5514  0.2162 -0.5376
  422MOL0     C58131   1.487   4.947   4.096 -0.7361  0.7487 -0.2351
  422MOL0     C58132   1.368   5.015   4.096  0.2612 -0.5869 -0.8710
  422MOL0     C58133   1.253   4.978   4.030  0.1392  0.0922  0.0471
  422MOL0     O58134   1.134   5.053   4.017 -0.4754  0.4151 -0.6351
  422MOL0     C58135   1.114   5.156   4.111  0.0167 -0.3362  0.4445
  422MOL0     C58136   0.975   5.212   4.115  0.5623 -0.7083  0.1123
  422MOL0     C58137   0.937   5.268   3.974 -0.6952  1.0977 -0.7687
  422MOL0     C58138   0.794   5.296   3.973  0.1824 -0.5737 -0.4034
  422MOL0     C58139   0.754   5.344   3.829  0.6067  0.3305  0.4340
  422MOL0     C58140   0.593   5.352   3.806  0.7411 -0.1030 -0.0391
  422MOL0     C58141   0.555   5.429   3.676  0.3830  0.2838 -0.4430
  422MOL0     C58142   0.619   5.395   3.539 -0.8322 -0.7383  0.3584
  422MOL0    Cl58143   0.574   5.229   3.476  0.1872 -0.8479 -0.2595
  422MOL0     C58144   1.260   4.858   3.970 -0.3648  0.7367 -0.0285
  422MOL0     C58145   1.376   4.789   3.956 -0.3083  0.0856 -0.5969
  422MOL0     O58146   1.647   4.550   3.918 -0.6605  0.0146  0.5696
  422MOL0     C58147   1.694   4.876   3.781  0.5403  0.6547 -0.0757
  422MOL0     C58148   1.741   4.936   3.663 -0.4800 -0.5672  0.4223
  422MOL0     N58149   1.712   5.460   3.061 -0.9750  0.3473  0.2249
  422MOL0     N58150   1.723   5.580   3.115  0.3085 -0.2108  0.7292
  422MOL0     C58151   2.437   5.973   4.049  0.7624 -0.4052 -0.0327
  422MOL0     C58152   2.518   5.925   4.154  0.1341  0.3598 -0.0706
  422MOL0     C58153   2.628   5.584   4.471 -0.7910  0.2998 -0.4310
  422MOL0     C58154   2.663   5.672   4.577  0.1986  0.2446 -0.6022
  422MOL0     C58155   2.740   5.625   4.683  0.6325  0.5274 -0.9901
  422MOL0     C58156   2.769   5.485   4.699 -0.2852  0.3119 -0.4253
  422MOL0     O58157   2.847   5.435   4.802 -0.3635  0.6685 -0.2796
  422MOL0     C58158   2.791   5.449   4.929  1.5626 -0.5451 -0.2555
  422MOL0     C58159   2.871   5.381   5.039 -0.3143  0.2285 -0.0120
  422MOL0     C58160   2.800   5.378   5.176  0.4730 -0.3203 -0.5348
  422MOL0     C58161   2.894   5.328   5.288  0.0932 -0.5177  0.2424
  422MOL0     C58162   2.852   5.340   5.423  0.5782 -0.4463  0.6850
  422MOL0     C58163   2.818   5.366   5.533  0.5480 -0.7581 -0.5729
  422MOL0     C58164   2.738   5.408   4.590 -0.7255  0.3684  1.0029
  422MOL0     C58165   2.668   5.449   4.475 -0.8960  0.1437 -0.2469
  422MOL0     C58166   2.642   5.338   4.379 -0.2273  0.0517 -1.0197
  422MOL0     H58167   2.302   5.739   4.319  1.1886  2.2203  2.1870
  422MOL0     H58168   2.151   5.801   4.128 -0.5105 -0.5115 -1.0602
  422MOL0     H58169   2.331   6.033   3.789 -0.3903  1.5565 -0.5963
  422MOL0     H58170   2.260   6.152   3.913 -1.6619  0.1242  1.4151
  422MOL0     H58171   2.036   6.069   3.827  0.2396 -3.1629  0.0387
  422MOL0     H58172   2.117   6.193   3.734 -0.5687 -0.3747  0.2169
  422MOL0     H58173   2.000   5.984   3.630 -0.8347 -0.3431  2.1721
  422MOL0     H58174   2.155   6.038   3.553 -0.0564 -1.6282 -0.0604
  422MOL0     H58175   2.275   5.859   3.669 -0.3470  2.0339 -0.3636
  422MOL0     H58176   2.128   5.800   3.747  0.8810 -2.7732 -0.2824
  422MOL0     H58177   2.193   5.658   3.564  2.1164  1.5186  0.5282
  422MOL0     H58178   2.202   5.781   3.450  1.3449 -2.7323 -0.7136
  422MOL0     H58179   1.944   5.721   3.591  0.0425 -1.5288  0.4956
  422MOL0     H58180   1.971   5.839   3.464 -1.4458 -0.2171  1.1694
  422MOL0     H58181   1.995   5.547   3.423 -0.1193  0.5134 -0.5753
  422MOL0     H58182   2.041   5.666   3.299 -0.1351 -1.1147 -0.8398
  422MOL0     H58183   1.774   5.629   3.430  0.3552 -0.9420  0.5254
  422MOL0     H58184   1.801   5.748   3.303  3.3346  0.9289  1.4889
  422MOL0     H58185   1.855   5.368   3.336 -0.4179  0.4147  0.2235
  422MOL0     H58186   1.889   5.206   3.104 -0.3519  0.7992  0.9539
  422MOL0     H58187   1.763   5.214   2.990  3.2721  2.5901 -0.8945
  422MOL0     H58188   1.728   5.175   3.298 -2.6885  0.2430  0.8484
  422MOL0     H58189   1.600   5.136   3.190  0.6043 -1.9805  2.6993
  422MOL0     H58190   1.698   4.941   3.091  2.2827 -0.2621 -0.5053
  422MOL0     H58191   1.860   4.992   3.144  0.7700  0.3888  0.8310
  422MOL0     H58192   1.614   4.881   3.296 -0.3588 -2.5013  0.5775
  422MOL0     H58193   1.787   4.812   3.273  1.0400  0.7801  0.9419
  422MOL0     H58194   1.694   4.699   3.437 -0.0466  0.7975  0.1372
  422MOL0     H58195   1.544   4.482   3.649  0.9451  1.0358  0.2810
  422MOL0     H58196   1.714   4.469   3.688  0.3763 -0.5010  0.6436
  422MOL0     H58197   1.665   4.493   3.521  1.0283  0.3299  0.3600
  422MOL0     H58198   1.569   4.981   4.159 -0.8762 -0.4093  0.6023
  422MOL0     H58199   1.375   5.110   4.147 -1.3262  0.9799 -3.3550
  422MOL0     H58200   1.133   5.123   4.213 -0.7148 -0.6053  0.5031
  422MOL0     H58201   1.179   5.237   4.078 -1.2818  0.2611 -0.7327
  422MOL0     H58202   0.899   5.145   4.155 -0.9148  0.9926  0.2863
  422MOL0     H58203   0.979   5.299   4.181  1.8398 -1.4280  1.0245
  422MOL0     H58204   0.953   5.191   3.898  1.0006 -0.4797  1.0442
  422MOL0     H58205   0.997   5.359   3.964  2.9374 -0.8943  0.7285
  422MOL0     H58206   0.782   5.372   4.051  4.0742 -0.3590  0.2166
  422MOL0     H58207   0.742   5.203   3.998 -0.1765 -0.4295 -0.6141
  422MOL0     H58208   0.791   5.446   3.818 -3.0013  1.9266  1.6074
  422MOL0     H58209   0.807   5.289   3.750  0.0505  0.7006 -0.2174
  422MOL0     H58210   0.536   5.389   3.892  2.6605 -0.8843  1.6359
  422MOL0     H58211   0.565   5.246   3.800  2.0082 -0.7801  3.5072
  422MOL0     H58212   0.570   5.537   3.683 -1.5202  0.5545 -0.0257
  422MOL0     H58213   0.447   5.417   3.661 -0.1823  2.0547  1.6651
  422MOL0     H58214   0.728   5.399   3.547 -0.7440 -1.3182 -0.3682
  422MOL0     H58215   0.573   5.467   3.470  1.3863  0.4365  0.0378
  422MOL0     H58216   1.177   4.812   3.918 -0.0442  0.5745 -0.4002
  422MOL0     H58217   1.379   4.711   3.880  1.2567 -1.3664  0.8852
  422MOL0     H58218   1.685   4.935   3.871  1.2207 -0.1658  0.5485
  422MOL0     H58219   1.788   5.034   3.658 -2.8008  0.6605  1.2188
  422MOL0     H58220   2.478   6.019   3.960 -1.8261 -1.6539 -2.0096
  422MOL0     H58221   2.619   5.964   4.154  0.1007  0.4514 -0.3029
  422MOL0     H58222   2.646   5.779   4.586 -1.7591 -0.0242 -0.8432
  422MOL0     H58223   2.785   5.690   4.757 -3.4330  4.2227 -1.3952
  422MOL0     H58224   2.773   5.554   4.953 -1.0707 -0.9311 -0.3495
  422MOL0     H58225   2.692   5.405   4.920  1.2682  0.0183  0.1834
  422MOL0     H58226   2.963   5.440   5.046 -0.2378  0.3496 -1.6514
  422MOL0     H58227   2.905   5.280   5.015  1.4621  0.8458 -0.2529
  422MOL0     H58228   2.754   5.473   5.207  1.5631  0.4836 -1.2997
  422MOL0     H58229   2.712   5.313   5.172  1.7694 -2.4494  2.3667
  422MOL0     H58230   2.993   5.366   5.264 -0.5717  0.8620 -0.4352
  422MOL0     H58231   2.911   5.220   5.276  0.3272 -0.9508  3.5823
  422MOL0     H58232   2.801   5.382   5.638 -0.8739 -1.2691 -0.7009
  422MOL0     H58233   2.765   5.304   4.598  2.7447  0.7663 -2.3472
  422MOL0     H58234   2.583   5.259   4.427 -2.3159  1.9729 -0.2132
  422MOL0     H58235   2.590   5.367   4.288 -0.3624  1.8938 -0.3849
  422MOL0     H58236   2.740   5.298   4.353 -0.5806 -0.5430 -1.4552
  423MOL0     O58237   8.770   9.172   5.828 -0.6891  0.4911  0.6248
  423MOL0     C58238   8.759   9.279   5.781 -0.8204 -0.6483 -0.6704
  423MOL0     O58239   8.865   9.361   5.743 -0.2600  0.4774 -0.1645
  423MOL0     C58240   8.989   9.313   5.770 -0.5631 -0.0462  0.0777
  423MOL0     C58241   9.054   9.220   5.693 -0.4946  0.6723 -0.1133
  423MOL0     C58242   9.190   9.173   5.720 -0.2762  0.2389 -0.4310
  423MOL0     C58243   9.259   9.225   5.832  0.5374  0.4856 -0.3047
  423MOL0     O58244   9.385   9.172   5.863 -0.5391 -0.0661  0.0259
  423MOL0     C58245   9.475   9.245   5.958 -0.9959 -0.2738  0.1342
  423MOL0     C58246   9.604   9.159   5.983 -0.3750  0.4597  0.2682
  423MOL0     C58247   9.648   9.158   6.132 -0.1249  0.0997 -0.6253
  423MOL0     C58248   9.791   9.116   6.154 -0.3776  0.1821 -0.2979
  423MOL0     C58249   9.830   8.990   6.070  0.8348  0.1047 -0.6917
  423MOL0     C58250   9.739   8.875   6.101 -0.2704  1.2474 -0.0172
  423MOL0     C58251   9.771   8.764   6.009 -0.3944  0.9450 -0.3663
  423MOL0     C58252   9.696   8.623   6.039 -0.5039  0.3671  0.0250
  423MOL0     N58253   9.550   8.640   6.029  0.9531  0.6246  0.0214
  423MOL0     C58254   9.475   8.705   5.931  0.2252 -0.7538 -0.3223
  423MOL0     C58255   9.348   8.707   5.973  0.4478 -0.1703  0.7286
  423MOL0     C58256   9.225   8.740   5.895 -0.0308  0.2623  0.2311
  423MOL0     C58257   9.117   8.809   5.988 -0.4320  1.2588  0.3715
  423MOL0     C58258   9.156   8.951   6.029  0.6106 -0.2631 -0.4476
  423MOL0     C58259   9.026   9.027   6.061 -0.0142 -1.1720 -0.1075
  423MOL0     O58260   8.963   8.945   6.162  0.7612 -0.5458 -0.9542
  423MOL0     C58261   8.842   8.999   6.202  0.8221  0.0550  0.1367
  423MOL0     C58262   8.726   9.026   6.124 -0.3547 -0.4888 -0.6972
  423MOL0     C58263   8.620   9.101   6.184 -0.7844  0.7064  0.0615
  423MOL0     C58264   8.513   9.157   6.093 -0.1289 -0.3860 -0.2717
  423MOL0     C58265   8.614   9.117   6.325  0.1189 -0.7993  0.0649
  423MOL0     C58266   8.492   9.164   6.392  0.5641  0.7048  0.4410
  423MOL0     O58267   8.512   9.242   6.502 -0.0282  0.2118 -0.0505
  423MOL0     C58268   8.401   9.257   6.574 -0.0441  0.6840  0.2495
  423MOL0     C58269   8.358   9.163   6.662 -0.4594  0.2385  0.3131
  423MOL0     C58270   8.253   9.171   6.745  1.6981  0.2322 -0.2144
  423MOL0     C58271   8.171   9.285   6.744 -0.1604 -0.8750 -0.6072
  423MOL0     O58272   8.059   9.307   6.812 -0.0855  0.1578  0.0447
  423MOL0     C58273   7.999   9.206   6.894 -0.0467  0.9551 -0.1614
  423MOL0     C58274   7.915   9.277   7.003  0.1697 -0.2685  0.5880
  423MOL0     C58275   8.007   9.364   7.093  0.5798 -0.4761 -0.6035
  423MOL0     C58276   8.114   9.291   7.175  0.9351  0.3765 -0.1147
  423MOL0     C58277   8.181   9.375   7.283 -0.3898  0.0665  0.5999
  423MOL0     C58278   8.288   9.283   7.353  0.4681 -0.0933  0.2886
  423MOL0     C58279   8.343   9.353   7.482  0.2634 -1.0350  0.1042
  423MOL0     C58280   8.246   9.358   7.601 -0.0876 -0.1352  0.1247
  423MOL0    Cl58281   8.313   9.440   7.743 -0.0486 -0.1001 -0.4046
  423MOL0     C58282   8.215   9.389   6.656  0.3184 -0.2684 -1.4524
  423MOL0     C58283   8.334   9.376   6.578 -0.1490 -0.3725 -0.4678
  423MOL0     O58284   8.377   9.119   6.352 -0.5599 -0.2576  0.0416
  423MOL0     C58285   8.728   9.090   6.404 -0.9242 -0.0008  0.3583
  423MOL0     C58286   8.837   9.031   6.336  0.0910 -1.1130  0.5075
  423MOL0     N58287   9.348   8.654   6.103  0.1521  0.5312  0.3107
  423MOL0     N58288   9.464   8.603   6.128 -0.1853  0.6610 -0.4554
  423MOL0     C58289   9.197   9.324   5.908 -0.0118 -0.4018  0.5279
  423MOL0     C58290   9.065   9.365   5.879  0.1618  0.2393 -0.5210
  423MOL0     C58291   8.633   9.345   5.768  0.2227 -0.3378 -0.1245
  423MOL0     C58292   8.629   9.483   5.798  0.2352  0.3934  0.1849
  423MOL0     C58293   8.509   9.557   5.799  0.1439  0.0740 -0.2231
  423MOL0     C58294   8.390   9.497   5.768  0.6876  0.5783 -0.6267
  423MOL0     O58295   8.261   9.547   5.777 -0.0818 -0.8116  0.2294
  423MOL0     C58296   8.239   9.686   5.810  0.2432  0.2927 -0.3151
  423MOL0     C58297   8.088   9.718   5.823  0.3291  0.2414  0.1532
  423MOL0     C58298   8.002   9.650   5.924 -0.8448 -0.0213 -0.3933
  423MOL0     C58299   7.859   9.659   5.890  0.5725 -1.0118 -0.4274
  423MOL0     C58300   7.818   9.799   5.905  0.8508  0.0671  0.4088
  423MOL0     C58301   7.788   9.919   5.911 -0.2461  0.1311 -0.5610
  423MOL0     C58302   8.395   9.356   5.735 -0.0467 -0.9131 -0.9631
  423MOL0     C58303   8.513   9.278   5.736 -0.2815  0.5133 -0.0415
  423MOL0     C58304   8.502   9.134   5.690 -0.3969  0.2960 -0.0422
  423MOL0     H58305   9.017   9.190   5.595 -1.3808  2.2980 -0.3032
  423MOL0     H58306   9.239   9.106   5.651 -1.4960 -0.3573 -0.7518
  423MOL0     H58307   9.428   9.255   6.057  0.3693 -3.8922  1.2974
  423MOL0     H58308   9.491   9.344   5.913  0.5306  0.0223  1.2298
  423MOL0     H58309   9.597   9.060   5.938 -1.1970  1.3656 -1.7445
  423MOL0     H58310   9.681   9.211   5.925 -0.7811  0.4510 -0.2889
  423MOL0     H58311   9.626   9.258   6.171 -0.6053 -0.3709  0.3530
  423MOL0     H58312   9.578   9.092   6.184 -3.3041  1.8030 -2.3857
  423MOL0     H58313   9.860   9.199   6.137 -1.0843  1.3199  1.9496
  423MOL0     H58314   9.795   9.085   6.259 -1.4067 -0.7885 -0.5287
  423MOL0     H58315   9.935   8.962   6.083  1.7110  2.8373 -1.3842
  423MOL0     H58316   9.819   9.023   5.967  0.6826  3.4559  0.2679
  423MOL0     H58317   9.754   8.843   6.205 -0.1410 -0.8128 -0.6282
  423MOL0     H58318   9.632   8.897   6.101 -0.8645 -1.3147  0.5400
  423MOL0     H58319   9.879   8.745   6.007 -0.8209 -2.0159 -0.1417
  423MOL0     H58320   9.735   8.790   5.909 -1.5537 -2.0037 -0.8209
  423MOL0     H58321   9.727   8.551   5.963 -0.4958 -0.8484  1.1560
  423MOL0     H58322   9.725   8.580   6.134  0.8223 -0.6021 -0.7901
  423MOL0     H58323   9.511   8.751   5.840 -3.5468 -0.3872 -1.8074
  423MOL0     H58324   9.185   8.652   5.844 -0.3544 -1.3175  3.0026
  423MOL0     H58325   9.264   8.815   5.826 -1.0645 -0.1152 -0.7889
  423MOL0     H58326   9.018   8.807   5.942  0.0045 -0.8929 -0.6009
  423MOL0     H58327   9.104   8.738   6.071  0.7812  0.6024  0.0345
  423MOL0     H58328   9.229   8.956   6.110  0.2788 -1.5268 -0.0346
  423MOL0     H58329   9.206   9.001   5.946  0.6706 -1.5645 -1.2237
  423MOL0     H58330   9.051   9.127   6.100 -0.3020 -1.8635  2.0174
  423MOL0     H58331   8.964   9.040   5.972 -1.6287 -0.0026  1.1005
  423MOL0     H58332   8.711   9.002   6.020 -0.9063  1.9878 -1.2381
  423MOL0     H58333   8.454   9.079   6.046 -2.9690  1.0193  0.7501
  423MOL0     H58334   8.566   9.200   6.007  1.6254  0.9057  1.3605
  423MOL0     H58335   8.443   9.224   6.143  0.4301 -0.9175  1.3157
  423MOL0     H58336   8.428   9.082   6.676  1.8519  1.2103 -3.7831
  423MOL0     H58337   8.224   9.088   6.810 -0.2939 -1.6240 -3.1822
  423MOL0     H58338   7.929   9.158   6.825 -2.2059  2.9716  0.5039
  423MOL0     H58339   8.069   9.134   6.937 -1.1000 -1.1867 -1.8748
  423MOL0     H58340   7.848   9.351   6.958  0.3776  2.5576  4.4893
  423MOL0     H58341   7.868   9.205   7.070 -0.4288  0.2384  0.7221
  423MOL0     H58342   7.945   9.423   7.162  1.8546  2.4017 -1.7299
  423MOL0     H58343   8.067   9.429   7.029  0.4601 -2.2729 -2.6292
  423MOL0     H58344   8.191   9.257   7.104 -0.0438 -0.7217 -0.6828
  423MOL0     H58345   8.063   9.211   7.229 -0.1019  1.3481  0.3731
  423MOL0     H58346   8.221   9.473   7.254 -2.9630  0.6263 -1.3618
  423MOL0     H58347   8.105   9.397   7.359 -3.3152  0.9664 -2.3495
  423MOL0     H58348   8.361   9.258   7.276  1.0423  3.1291 -0.3302
  423MOL0     H58349   8.236   9.192   7.384 -0.2988  0.1219 -0.3536
  423MOL0     H58350   8.385   9.454   7.470 -1.4430 -0.1096  1.5034
  423MOL0     H58351   8.434   9.302   7.516  1.9153 -0.4662 -3.0496
  423MOL0     H58352   8.230   9.253   7.627 -0.0142 -0.5445 -1.3783
  423MOL0     H58353   8.148   9.400   7.575 -1.0369 -2.0427  0.4284
  423MOL0     H58354   8.158   9.481   6.665 -0.6332 -0.7689 -2.2524
  423MOL0     H58355   8.359   9.463   6.518  1.3074  0.8207  1.7356
  423MOL0     H58356   8.723   9.132   6.504 -2.6666  0.9189 -0.0879
  423MOL0     H58357   8.929   9.003   6.387 -0.0903 -5.1203 -0.9862
  423MOL0     H58358   9.246   9.366   5.995 -0.8561  0.5444  0.5628
  423MOL0     H58359   9.006   9.429   5.944 -1.0206 -1.4113  0.0945
  423MOL0     H58360   8.726   9.530   5.799  0.7238 -0.4887 -1.5654
  423MOL0     H58361   8.507   9.665   5.808  2.1946  0.2628 -1.3854
  423MOL0     H58362   8.286   9.695   5.908 -2.7453 -0.9872  1.3797
  423MOL0     H58363   8.290   9.741   5.731  0.8458  1.3770  0.7974
  423MOL0     H58364   8.057   9.705   5.719  1.4356  3.2011 -0.6493
  423MOL0     H58365   8.085   9.824   5.850  0.6530  0.2062  0.3496
  423MOL0     H58366   8.021   9.542   5.934 -3.1621 -0.3638  1.1619
  423MOL0     H58367   8.023   9.694   6.022  2.1377  1.1273 -1.4203
  423MOL0     H58368   7.797   9.616   5.969 -0.4569  3.2120  1.2937
  423MOL0     H58369   7.832   9.611   5.795  1.9390 -2.7519  0.0035
  423MOL0     H58370   7.759  10.021   5.931 -0.0629  0.1749 -0.5157
  423MOL0     H58371   8.294   9.321   5.719 -1.0651 -0.7924  3.6786
  423MOL0     H58372   8.428   9.122   5.611  0.2297 -2.7760 -0.2889
  423MOL0     H58373   8.602   9.103   5.656 -0.2114  3.0883 -2.5739
  423MOL0     H58374   8.463   9.080   5.776 -1.3031  1.4054  0.2655
  424MOL0     O58375   5.259   5.410   3.612 -0.0784 -0.0463  0.1751
  424MOL0     C58376   5.182   5.347   3.686 -0.4477 -0.2597  0.4950
  424MOL0     O58377   5.188   5.351   3.828 -0.3092  0.8060  0.0024
  424MOL0     C58378   5.283   5.421   3.896 -0.5494  0.1348  0.7001
  424MOL0     C58379   5.406   5.368   3.926 -0.8435  0.7886 -0.1512
  424MOL0     C58380   5.507   5.445   3.996  0.3099  1.0258  0.6647
  424MOL0     C58381   5.470   5.574   4.036 -0.1480  0.4708  0.1363
  424MOL0     O58382   5.559   5.650   4.099  0.3914 -0.3616  0.2302
  424MOL0     C58383   5.530   5.678   4.233  0.2712 -0.5183 -0.4476
  424MOL0     C58384   5.571   5.828   4.261  0.8163  0.6636  0.8749
  424MOL0     C58385   5.457   5.925   4.226 -0.0690  1.0761  1.3085
  424MOL0     C58386   5.473   6.062   4.299  0.6549  0.5885 -0.6987
  424MOL0     C58387   5.347   6.146   4.272 -0.7728  0.5204 -1.5192
  424MOL0     C58388   5.367   6.290   4.298  0.2913 -0.5865 -0.5213
  424MOL0     C58389   5.398   6.322   4.441  0.3360  0.0547 -0.1739
  424MOL0     C58390   5.401   6.474   4.458 -0.1417 -0.3107  0.0671
  424MOL0     N58391   5.491   6.542   4.363 -0.0027 -0.0720 -0.2564
  424MOL0     C58392   5.625   6.524   4.361  0.5954  0.3383  0.2041
  424MOL0     C58393   5.668   6.599   4.256  0.0972 -0.2905 -0.3362
  424MOL0     C58394   5.808   6.615   4.209 -0.4367 -0.1788 -0.6781
  424MOL0     C58395   5.830   6.524   4.088 -0.1501 -0.3466  0.2223
  424MOL0     C58396   5.966   6.563   4.022 -0.2541 -1.0106 -0.0205
  424MOL0     C58397   5.983   6.466   3.898 -0.0839 -0.2389 -0.5982
  424MOL0     O58398   6.095   6.494   3.811  0.6642 -0.2580  0.0181
  424MOL0     C58399   6.117   6.622   3.779  0.4397 -0.0373  0.3062
  424MOL0     C58400   6.020   6.709   3.736  0.5952  0.1167  0.3717
  424MOL0     C58401   6.049   6.838   3.689  0.1874 -0.4552  0.6119
  424MOL0     C58402   5.933   6.928   3.664  0.0568 -0.3173 -0.2423
  424MOL0     C58403   6.183   6.887   3.702 -0.2222 -0.1327  0.4257
  424MOL0     C58404   6.218   7.032   3.674 -0.4762 -0.2125 -0.2595
  424MOL0     O58405   6.302   7.083   3.758 -0.1383  0.5341  0.1335
  424MOL0     C58406   6.341   7.212   3.741 -0.2458 -0.2431  0.0825
  424MOL0     C58407   6.296   7.316   3.822  0.2379  1.2845  0.5916
  424MOL0     C58408   6.340   7.449   3.800 -0.1474  0.0822 -0.1437
  424MOL0     C58409   6.443   7.485   3.709 -0.3490  0.5454 -0.8632
  424MOL0     O58410   6.487   7.620   3.682 -0.1640 -0.2850  0.4179
  424MOL0     C58411   6.393   7.726   3.707  0.3146 -0.1122  0.9933
  424MOL0     C58412   6.457   7.867   3.665  0.5333  0.0458  0.6996
  424MOL0     C58413   6.606   7.886   3.697  1.1371 -0.3540  0.2467
  424MOL0     C58414   6.690   7.876   3.564 -0.3833  0.8954 -0.5582
  424MOL0     C58415   6.837   7.873   3.579  0.6190  1.1341 -0.6470
  424MOL0     C58416   6.891   7.997   3.657 -0.1854 -0.4477 -0.6330
  424MOL0     C58417   7.047   7.996   3.677  0.6741  0.1878  0.2286
  424MOL0     C58418   7.099   8.070   3.547  0.3372 -0.0504 -0.6000
  424MOL0    Cl58419   7.272   8.095   3.545  0.3368 -0.0332 -0.1506
  424MOL0     C58420   6.491   7.374   3.639  0.3305 -0.3135  0.1428
  424MOL0     C58421   6.451   7.236   3.651 -0.5910 -0.9748 -0.4957
  424MOL0     O58422   6.187   7.096   3.571 -0.1410 -0.3259 -0.4188
  424MOL0     C58423   6.282   6.801   3.753  0.1346  0.1470  0.8087
  424MOL0     C58424   6.252   6.668   3.780  0.2829  0.4608 -0.7825
  424MOL0     N58425   5.556   6.659   4.199  0.0634  0.2704  0.0365
  424MOL0     N58426   5.455   6.631   4.272 -0.7254  0.0634 -0.5184
  424MOL0     C58427   5.346   5.627   4.014  0.9545  0.8659  0.0528
  424MOL0     C58428   5.254   5.551   3.940  0.7067 -0.2750  0.5953
  424MOL0     C58429   5.066   5.268   3.628  0.1395 -1.0350  0.9044
  424MOL0     C58430   4.962   5.216   3.714 -0.1518 -0.0248 -0.4016
  424MOL0     C58431   4.846   5.151   3.667 -0.4163  0.3909  0.3980
  424MOL0     C58432   4.821   5.150   3.531 -0.2261 -0.1223 -0.1976
  424MOL0     O58433   4.725   5.093   3.461  0.6756  0.2259 -0.3216
  424MOL0     C58434   4.622   5.019   3.521  0.2519  0.1690  0.1172
  424MOL0     C58435   4.504   4.976   3.416  0.2714 -0.2728  0.2754
  424MOL0     C58436   4.568   4.938   3.280 -0.4703  0.4799 -0.3637
  424MOL0     C58437   4.648   4.806   3.287  0.1470  0.2876 -0.8766
  424MOL0     C58438   4.770   4.813   3.202  0.1062  0.1470 -0.3854
  424MOL0     C58439   4.871   4.819   3.134 -0.2997  0.9510 -0.1074
  424MOL0     C58440   4.915   5.201   3.448  0.1020  1.3723  0.2700
  424MOL0     C58441   5.038   5.256   3.487  0.3373  0.1052  0.5256
  424MOL0     C58442   5.114   5.312   3.374 -0.3371 -0.0659  0.4388
  424MOL0     H58443   5.425   5.265   3.897 -2.5404  0.4058 -0.0156
  424MOL0     H58444   5.601   5.394   4.015  0.3801  0.4772 -0.9860
  424MOL0     H58445   5.597   5.617   4.294 -0.2254 -1.0377 -0.4169
  424MOL0     H58446   5.427   5.657   4.265  0.3419  1.3719  1.2458
  424MOL0     H58447   5.610   5.830   4.363 -0.8478 -3.1852  1.7661
  424MOL0     H58448   5.659   5.849   4.199  1.6884  0.8783  2.1510
  424MOL0     H58449   5.457   5.954   4.120  0.8225 -0.6280  0.8015
  424MOL0     H58450   5.368   5.872   4.260 -0.9755  1.0828 -0.9063
  424MOL0     H58451   5.474   6.056   4.409 -0.9443  1.8053 -0.5705
  424MOL0     H58452   5.558   6.115   4.256  1.9935  0.3878  1.5085
  424MOL0     H58453   5.269   6.109   4.340  1.4060  2.6272  2.4711
  424MOL0     H58454   5.320   6.119   4.170  1.8040 -2.2423 -1.5975
  424MOL0     H58455   5.445   6.323   4.228  1.3437 -0.7841  0.5189
  424MOL0     H58456   5.280   6.351   4.272 -0.0542 -0.7854  0.1643
  424MOL0     H58457   5.496   6.280   4.466  0.8861  0.8746 -0.8862
  424MOL0     H58458   5.326   6.273   4.507  1.4867  0.9077  1.8148
  424MOL0     H58459   5.296   6.501   4.441 -0.6866 -3.1648 -1.8267
  424MOL0     H58460   5.438   6.498   4.558  1.1234  1.7466 -0.8136
  424MOL0     H58461   5.680   6.460   4.429 -0.8081  1.4025  2.4273
  424MOL0     H58462   5.879   6.593   4.289 -0.0153  0.6220 -0.8272
  424MOL0     H58463   5.834   6.718   4.183 -0.6657  0.5223  1.6219
  424MOL0     H58464   5.836   6.420   4.120  0.9533 -1.1795 -2.3960
  424MOL0     H58465   5.738   6.531   4.029  0.8121 -0.5979 -1.3504
  424MOL0     H58466   5.963   6.669   3.998 -0.0988 -0.5871  1.7093
  424MOL0     H58467   6.045   6.532   4.091 -0.2133 -0.4643  0.1791
  424MOL0     H58468   5.981   6.368   3.946  1.9995  1.2056  2.7950
  424MOL0     H58469   5.894   6.493   3.841  1.0686  0.7853 -1.9917
  424MOL0     H58470   5.914   6.686   3.745  0.8151 -1.5361 -0.8499
  424MOL0     H58471   5.953   7.030   3.698  2.6593 -1.9235  3.8563
  424MOL0     H58472   5.840   6.901   3.714  1.0643 -2.7627  0.4637
  424MOL0     H58473   5.913   6.930   3.556 -2.0031  0.9316  0.1154
  424MOL0     H58474   6.230   7.281   3.901  2.1879 -5.5338 -0.1615
  424MOL0     H58475   6.293   7.525   3.862 -2.6948  0.2037 -2.0582
  424MOL0     H58476   6.296   7.699   3.663  0.9346 -2.5548  0.9597
  424MOL0     H58477   6.379   7.727   3.816 -0.8072  0.7174  0.8581
  424MOL0     H58478   6.439   7.886   3.559  1.0416 -0.1047  0.5834
  424MOL0     H58479   6.392   7.944   3.709 -0.3296 -0.8300  0.9877
  424MOL0     H58480   6.644   7.817   3.773  0.9629  2.0803  2.7103
  424MOL0     H58481   6.608   7.984   3.745  4.1628 -0.0788 -0.2751
  424MOL0     H58482   6.670   7.970   3.511  1.8914  2.0541  0.4948
  424MOL0     H58483   6.653   7.789   3.510 -0.3006 -0.0863  0.9039
  424MOL0     H58484   6.873   7.787   3.635  1.4072  1.6145 -0.3983
  424MOL0     H58485   6.891   7.856   3.486  1.1147 -1.3621  0.0199
  424MOL0     H58486   6.837   7.992   3.751 -2.2440 -0.7877 -1.7789
  424MOL0     H58487   6.850   8.090   3.617 -0.7107 -0.7296 -0.7616
  424MOL0     H58488   7.082   7.893   3.680  0.2939 -0.0544 -1.9504
  424MOL0     H58489   7.061   8.056   3.767 -1.0980  1.2042 -0.1152
  424MOL0     H58490   7.058   8.171   3.553 -2.1323 -0.9593  5.5127
  424MOL0     H58491   7.067   8.019   3.455  0.6995 -0.5686 -0.4390
  424MOL0     H58492   6.570   7.396   3.568 -1.1545  0.6272 -1.2811
  424MOL0     H58493   6.492   7.162   3.582 -2.0990 -3.0499  0.7164
  424MOL0     H58494   6.382   6.842   3.762  0.6415 -1.1824  1.5252
  424MOL0     H58495   6.331   6.596   3.798  1.2535  1.5243 -0.6793
  424MOL0     H58496   5.320   5.725   4.051 -1.7890  0.7600 -1.3190
  424MOL0     H58497   5.168   5.606   3.903 -0.2129 -2.4643 -0.6418
  424MOL0     H58498   4.969   5.219   3.822  0.0620 -0.0886 -0.4118
  424MOL0     H58499   4.775   5.099   3.729  2.9956 -3.7506  1.3176
  424MOL0     H58500   4.667   4.924   3.554  1.0283  1.0485  1.7076
  424MOL0     H58501   4.584   5.065   3.612 -0.2021 -1.1102  0.6080
  424MOL0     H58502   4.433   5.058   3.403  1.4958  0.5577 -1.6297
  424MOL0     H58503   4.450   4.891   3.459  0.8280 -0.4458  0.6383
  424MOL0     H58504   4.502   4.943   3.193 -1.4058  0.3927  0.3391
  424MOL0     H58505   4.638   5.018   3.252  1.7402 -0.8770  0.9069
  424MOL0     H58506   4.584   4.726   3.250 -2.0205  1.4815  0.1159
  424MOL0     H58507   4.676   4.771   3.387 -3.1750 -0.2357 -0.0060
  424MOL0     H58508   4.961   4.809   3.077 -0.3519  0.0891 -0.0519
  424MOL0     H58509   4.876   5.194   3.347 -0.4131  5.2464  0.0566
  424MOL0     H58510   5.098   5.246   3.288 -1.3612  1.5672 -0.7084
  424MOL0     H58511   5.070   5.410   3.349  0.7327  0.1316 -0.7454
  424MOL0     H58512   5.222   5.319   3.388 -0.6253 -0.0653  3.1928
  425MOL0     O58513   0.686   9.200   0.217  0.5020  0.5073  0.0504
  425MOL0     C58514   0.671   9.085   0.174  0.1516  0.0195 -0.5964
  425MOL0     O58515   0.763   9.012   0.107 -0.0692 -0.2793 -0.1880
  425MOL0     C58516   0.891   9.057   0.108  1.6103 -0.1392 -0.8929
  425MOL0     C58517   0.945   9.098  -0.015 -0.5700 -0.1407  0.4743
  425MOL0     C58518   1.078   9.134  -0.018 -0.5140 -0.0058 -0.5610
  425MOL0     C58519   1.157   9.145   0.102  0.0437 -0.6469 -0.9956
  425MOL0     O58520   1.289   9.181   0.098  0.0482  0.2582 -0.1990
  425MOL0     C58521   1.315   9.312   0.043 -0.5943  0.0456 -0.3901
  425MOL0     C58522   1.461   9.298   0.011  0.2134  0.5093 -0.4440
  425MOL0     C58523   1.497   9.196  -0.094 -0.0163 -1.0841 -1.8790
  425MOL0     C58524   1.551   9.066  -0.029  0.9761  0.3590  0.1341
  425MOL0     C58525   1.513   8.960  -0.126 -0.4879 -0.7108 -0.9099
  425MOL0     C58526   1.582   8.822  -0.112 -0.2244 -0.0017 -0.4500
  425MOL0     C58527   1.548   8.728  -0.231  0.3645  0.7174 -0.0770
  425MOL0     C58528   1.621   8.762  -0.361 -0.3556  0.1656  1.5893
  425MOL0     N58529   1.768   8.729  -0.361  0.2439  0.3288  1.0346
  425MOL0     C58530   1.860   8.827  -0.328  0.1519  0.5267 -0.2205
  425MOL0     C58531   1.980   8.764  -0.337  0.0191  0.4895  0.1527
  425MOL0     C58532   2.115   8.827  -0.331 -0.6402  0.1118 -0.1234
  425MOL0     C58533   2.218   8.729  -0.281 -0.4161  0.5080  0.4099
  425MOL0     C58534   2.289   8.646  -0.389 -0.1325  0.0873 -0.2988
  425MOL0     C58535   2.379   8.731  -0.485  0.1994 -0.5945 -0.4333
  425MOL0     O58536   2.523   8.700  -0.454  0.3376  0.2189 -0.6027
  425MOL0     C58537   2.604   8.660  -0.555 -0.5968 -0.0631  0.1058
  425MOL0     C58538   2.588   8.711  -0.688  0.4670 -0.4547 -0.0188
  425MOL0     C58539   2.684   8.672  -0.791 -0.1177 -0.5510  0.0292
  425MOL0     C58540   2.666   8.738  -0.923  0.1317 -0.3634 -0.3732
  425MOL0     C58541   2.790   8.590  -0.761  0.1942  0.5487  0.8582
  425MOL0     C58542   2.894   8.552  -0.855  0.6941 -0.0962  0.3818
  425MOL0     O58543   3.008   8.621  -0.841 -0.1443  0.5412  0.6711
  425MOL0     C58544   3.096   8.573  -0.927 -0.3657 -0.2411  0.1984
  425MOL0     C58545   3.126   8.638  -1.048 -0.2206 -0.5745 -0.3535
  425MOL0     C58546   3.232   8.599  -1.123 -0.3049 -1.2949  0.3019
  425MOL0     C58547   3.305   8.482  -1.092 -0.0035  0.0638  0.1058
  425MOL0     O58548   3.400   8.442  -1.182 -0.0660  0.3769  0.1822
  425MOL0     C58549   3.463   8.319  -1.185 -0.2366 -0.3944 -0.3738
  425MOL0     C58550   3.502   8.278  -1.324  0.2121 -0.2132 -0.4893
  425MOL0     C58551   3.621   8.364  -1.379 -0.2535  0.3056  0.2610
  425MOL0     C58552   3.755   8.341  -1.300  0.0504  0.6454  1.2351
  425MOL0     C58553   3.851   8.235  -1.367 -0.0736 -0.4858  0.3477
  425MOL0     C58554   3.795   8.100  -1.405  0.9814  0.7974 -0.3120
  425MOL0     C58555   3.897   8.018  -1.488 -0.2820  0.2033  0.1510
  425MOL0     C58556   3.844   7.892  -1.541  0.7502 -0.3005  0.1355
  425MOL0    Cl58557   3.798   7.772  -1.421  0.1097  0.4638  0.3732
  425MOL0     C58558   3.277   8.420  -0.973 -1.3459  0.6833 -1.1742
  425MOL0     C58559   3.174   8.465  -0.888  0.5484 -0.1884  0.4159
  425MOL0     O58560   2.871   8.464  -0.946 -0.3028 -1.1168 -0.5335
  425MOL0     C58561   2.804   8.534  -0.624  0.2449  0.0298  0.2459
  425MOL0     C58562   2.705   8.569  -0.521 -0.5028  0.5750  0.3894
  425MOL0     N58563   1.956   8.629  -0.363 -0.6233  0.2623 -0.2859
  425MOL0     N58564   1.826   8.607  -0.359 -0.0394 -0.4054 -0.7951
  425MOL0     C58565   1.096   9.109   0.225  1.1499 -0.0500 -0.1808
  425MOL0     C58566   0.964   9.068   0.230  0.3254  0.8833 -0.0157
  425MOL0     C58567   0.551   8.998   0.221 -0.4573 -0.8476 -0.3072
  425MOL0     C58568   0.427   9.067   0.228 -0.4297  0.8080  0.4393
  425MOL0     C58569   0.299   8.995   0.244 -0.8864  0.3806  0.3446
  425MOL0     C58570   0.298   8.857   0.268 -1.3343 -0.2405  0.2960
  425MOL0     O58571   0.176   8.797   0.264 -0.1193 -0.0239 -0.1195
  425MOL0     C58572   0.162   8.658   0.229  0.8018 -0.1969  0.5108
  425MOL0     C58573   0.173   8.561   0.344  0.2083  0.2037 -0.1478
  425MOL0     C58574   0.216   8.429   0.293 -0.4951  0.1136 -0.5627
  425MOL0     C58575   0.240   8.348   0.419 -0.4146  0.2389 -0.9491
  425MOL0     C58576   0.197   8.207   0.387 -0.1697 -0.3692 -0.8024
  425MOL0     C58577   0.134   8.104   0.375  0.6992  0.2847  0.4652
  425MOL0     C58578   0.432   8.789   0.267  0.2127 -0.2598  0.5066
  425MOL0     C58579   0.550   8.861   0.245 -0.1871  0.2295  0.1141
  425MOL0     C58580   0.678   8.774   0.253  0.2795 -0.0959 -0.1675
  425MOL0     H58581   0.883   9.115  -0.103  0.8064  1.2598 -0.2664
  425MOL0     H58582   1.116   9.172  -0.113  0.1057  1.9671  0.4156
  425MOL0     H58583   1.315   9.395   0.114 -2.7092  0.2848 -0.6053
  425MOL0     H58584   1.249   9.337  -0.040 -1.4476 -1.0479 -0.0773
  425MOL0     H58585   1.486   9.396  -0.031 -2.8524  1.6849  0.2187
  425MOL0     H58586   1.515   9.293   0.106 -0.7817 -2.2792  0.0884
  425MOL0     H58587   1.409   9.177  -0.156 -0.9171  0.8451 -1.2880
  425MOL0     H58588   1.578   9.237  -0.154 -1.9574  2.7545 -2.1478
  425MOL0     H58589   1.660   9.067  -0.020  1.0789  0.3063 -1.0274
  425MOL0     H58590   1.503   9.051   0.068 -0.3411  3.1782 -0.0052
  425MOL0     H58591   1.533   9.009  -0.222  2.3022  3.2654  1.4071
  425MOL0     H58592   1.404   8.951  -0.116 -0.1823 -2.2193  2.7895
  425MOL0     H58593   1.689   8.842  -0.104  0.3633 -3.0095  0.4112
  425MOL0     H58594   1.549   8.774  -0.020  2.2767 -1.5927 -0.3013
  425MOL0     H58595   1.443   8.730  -0.262 -0.1225  3.3201  1.4359
  425MOL0     H58596   1.564   8.629  -0.187 -1.2597 -0.1911 -1.4134
  425MOL0     H58597   1.568   8.711  -0.442 -1.2940 -0.7866  2.7585
  425MOL0     H58598   1.615   8.868  -0.385  1.4511 -0.1490 -0.5697
  425MOL0     H58599   1.839   8.928  -0.295 -1.6290 -0.3324  1.4532
  425MOL0     H58600   2.116   8.913  -0.263  0.4901 -0.5418  0.7035
  425MOL0     H58601   2.149   8.865  -0.428 -1.8852 -1.0682 -1.0643
  425MOL0     H58602   2.292   8.791  -0.231  0.5846  1.0236 -1.5946
  425MOL0     H58603   2.178   8.668  -0.200 -2.0279  2.3228  1.0462
  425MOL0     H58604   2.352   8.569  -0.343  1.6868  0.6333 -1.7622
  425MOL0     H58605   2.211   8.601  -0.452 -0.4157  0.0305  0.0909
  425MOL0     H58606   2.340   8.693  -0.580 -3.1929 -2.4330  1.4900
  425MOL0     H58607   2.365   8.839  -0.480 -1.4777 -0.8282  0.5593
  425MOL0     H58608   2.509   8.773  -0.729  0.5900 -0.3237 -0.0567
  425MOL0     H58609   2.572   8.793  -0.922 -0.7817 -1.5620 -4.0279
  425MOL0     H58610   2.681   8.671  -1.008  1.4963 -2.4424  1.4000
  425MOL0     H58611   2.749   8.809  -0.937  1.0457 -1.2976  0.2156
  425MOL0     H58612   3.072   8.728  -1.073 -0.1371  0.6995  3.4318
  425MOL0     H58613   3.251   8.661  -1.211 -1.3068 -1.4761 -0.0584
  425MOL0     H58614   3.546   8.337  -1.116 -2.3436  0.4779  2.1269
  425MOL0     H58615   3.405   8.235  -1.146 -1.7670 -0.0808 -1.8737
  425MOL0     H58616   3.529   8.173  -1.307  3.4059  0.4076 -1.0122
  425MOL0     H58617   3.418   8.283  -1.393 -0.4064  0.5053  0.2957
  425MOL0     H58618   3.583   8.466  -1.371 -2.2611 -0.3152 -0.7253
  425MOL0     H58619   3.639   8.334  -1.483  2.6516  1.6512  0.2744
  425MOL0     H58620   3.729   8.322  -1.195 -0.7006 -2.3155  0.6046
  425MOL0     H58621   3.816   8.431  -1.291  0.3748  0.5393  0.1876
  425MOL0     H58622   3.896   8.279  -1.456  2.6315 -0.1806  1.7774
  425MOL0     H58623   3.935   8.233  -1.297  0.2732 -0.6295 -0.0715
  425MOL0     H58624   3.708   8.123  -1.468  2.1828  0.9576 -1.9751
  425MOL0     H58625   3.766   8.057  -1.308 -1.2978  0.7139 -0.9739
  425MOL0     H58626   3.985   8.002  -1.425 -1.1253 -0.2622  1.2296
  425MOL0     H58627   3.908   8.071  -1.583 -1.9994 -3.2659 -2.1815
  425MOL0     H58628   3.895   7.852  -1.629  1.0121  1.2714 -0.4549
  425MOL0     H58629   3.754   7.922  -1.595  0.9431  0.1132  0.0413
  425MOL0     H58630   3.331   8.329  -0.949  1.0928  1.8651 -1.8639
  425MOL0     H58631   3.152   8.425  -0.790  0.1948 -2.3568 -0.4840
  425MOL0     H58632   2.887   8.465  -0.615  1.2456  1.0809 -0.5270
  425MOL0     H58633   2.723   8.539  -0.418  2.9242  2.2045  0.3848
  425MOL0     H58634   1.156   9.110   0.315  0.6761 -0.0482  0.1430
  425MOL0     H58635   0.915   9.046   0.325  4.4622 -0.2399  2.1343
  425MOL0     H58636   0.418   9.172   0.204  0.8625  0.9622  0.5357
  425MOL0     H58637   0.201   9.040   0.245 -0.7008  0.8092 -0.4103
  425MOL0     H58638   0.066   8.635   0.181 -0.0259  1.7321  1.1402
  425MOL0     H58639   0.240   8.650   0.153 -0.4143  3.6433 -1.3828
  425MOL0     H58640   0.087   8.560   0.410 -1.4963 -1.4186 -2.2355
  425MOL0     H58641   0.250   8.592   0.415 -2.3841 -1.3308  3.6217
  425MOL0     H58642   0.148   8.385   0.220 -0.8456  1.0723 -0.8299
  425MOL0     H58643   0.311   8.445   0.240  0.0696 -3.8429 -1.1000
  425MOL0     H58644   0.182   8.385   0.503  0.3807 -0.1781 -0.2014
  425MOL0     H58645   0.346   8.348   0.445 -0.8125 -0.8355  0.8382
  425MOL0     H58646   0.093   8.005   0.367  0.1059  0.3805  2.0224
  425MOL0     H58647   0.448   8.684   0.286  4.3136 -0.1837 -1.4427
  425MOL0     H58648   0.678   8.702   0.335  2.7151 -0.6061 -0.5587
  425MOL0     H58649   0.692   8.717   0.161 -0.2560 -1.0732  0.3422
  425MOL0     H58650   0.770   8.831   0.270  1.2079 -1.6852  0.3380
  426MOL0     O58651   5.394   8.862   5.286  0.2751  0.1959  0.0560
  426MOL0     C58652   5.424   8.745   5.256 -0.0756 -0.1037 -0.4316
  426MOL0     O58653   5.352   8.660   5.176 -0.0281  0.0218  0.7475
  426MOL0     C58654   5.240   8.692   5.118 -0.3101 -0.2324  0.6057
  426MOL0     C58655   5.205   8.817   5.074 -0.4095  0.5222 -0.0596
  426MOL0     C58656   5.094   8.846   5.003  0.7879 -0.5626  0.6633
  426MOL0     C58657   5.010   8.747   4.951  0.8991  0.0966  0.1405
  426MOL0     O58658   4.892   8.781   4.886 -0.9661  0.2943 -0.4306
  426MOL0     C58659   4.844   8.914   4.899 -1.4519 -0.0469  0.7555
  426MOL0     C58660   4.709   8.900   4.838  0.4766  0.2847  0.0231
  426MOL0     C58661   4.647   9.031   4.786 -1.2491 -0.2770  0.2946
  426MOL0     C58662   4.498   9.002   4.754 -0.5011 -0.9508 -0.3011
  426MOL0     C58663   4.478   8.949   4.613 -0.9150  0.1986 -0.4885
  426MOL0     C58664   4.337   8.893   4.575 -0.9609  0.4224  0.0552
  426MOL0     C58665   4.290   8.768   4.653  0.4046  0.4536 -0.1389
  426MOL0     C58666   4.318   8.636   4.592 -1.1338 -0.4780  0.1062
  426MOL0     N58667   4.461   8.605   4.576 -0.3913  0.5751  0.3964
  426MOL0     C58668   4.559   8.600   4.673 -0.4186 -0.5596  0.5364
  426MOL0     C58669   4.668   8.550   4.606 -0.6986 -0.6064 -0.0277
  426MOL0     C58670   4.808   8.535   4.664 -0.4656 -0.6368 -0.2484
  426MOL0     C58671   4.917   8.530   4.560 -1.0063  0.6553 -0.0282
  426MOL0     C58672   5.061   8.514   4.622  0.2764  0.0406  0.6627
  426MOL0     C58673   5.175   8.528   4.520 -0.0486 -0.4725  0.0681
  426MOL0     O58674   5.182   8.656   4.466  0.5003 -0.0211 -0.4863
  426MOL0     C58675   5.294   8.659   4.386  0.1074  0.2560  0.6927
  426MOL0     C58676   5.399   8.753   4.406 -0.3622 -0.8988  0.1759
  426MOL0     C58677   5.504   8.767   4.315  0.0631 -0.2125 -0.2550
  426MOL0     C58678   5.583   8.895   4.336 -0.2752  0.1942  1.0839
  426MOL0     C58679   5.523   8.671   4.207  0.3127  0.3971  0.3876
  426MOL0     C58680   5.623   8.678   4.098 -0.2529 -0.3419  0.1765
  426MOL0     O58681   5.649   8.574   4.009  0.0277 -0.2007  0.4879
  426MOL0     C58682   5.730   8.595   3.902  0.4197  0.2085 -0.2579
  426MOL0     C58683   5.856   8.535   3.893  0.0640  0.2957 -0.1598
  426MOL0     C58684   5.937   8.548   3.780 -0.2971 -1.3433  0.2529
  426MOL0     C58685   5.892   8.619   3.664 -0.8452  0.8689 -0.6478
  426MOL0     O58686   5.961   8.628   3.545 -0.1508 -0.0444 -0.2028
  426MOL0     C58687   6.091   8.560   3.527 -0.0653 -0.0996  0.1794
  426MOL0     C58688   6.128   8.569   3.372 -0.3700  0.0175  0.2385
  426MOL0     C58689   6.134   8.716   3.330 -0.3184  0.5281  0.8514
  426MOL0     C58690   6.239   8.789   3.414  0.1801  0.0805 -0.1220
  426MOL0     C58691   6.313   8.911   3.358 -0.6843 -0.6504  0.1968
  426MOL0     C58692   6.217   9.004   3.278  0.8083  0.4668 -0.7176
  426MOL0     C58693   6.298   9.134   3.237  0.5134  0.3524 -0.1184
  426MOL0     C58694   6.200   9.242   3.205 -0.4428  0.1261 -0.0974
  426MOL0    Cl58695   6.090   9.182   3.070  0.1892  0.3702  0.2205
  426MOL0     C58696   5.755   8.668   3.673  0.3933  0.2175 -0.8415
  426MOL0     C58697   5.682   8.655   3.786 -0.3022  0.2819  1.0750
  426MOL0     O58698   5.675   8.791   4.084 -1.4862  0.3901  0.1274
  426MOL0     C58699   5.429   8.572   4.199 -0.7575 -0.4658 -0.3814
  426MOL0     C58700   5.313   8.575   4.281 -0.9212 -0.0780 -0.7869
  426MOL0     N58701   4.640   8.548   4.476  0.0911  0.0785  0.4560
  426MOL0     N58702   4.521   8.587   4.454 -0.1544 -0.1989 -0.3693
  426MOL0     C58703   5.035   8.616   4.995 -0.4384 -0.3377  0.0217
  426MOL0     C58704   5.155   8.594   5.073 -0.0419 -0.2828  0.2271
  426MOL0     C58705   5.536   8.684   5.342  0.2491  0.0731 -0.3824
  426MOL0     C58706   5.629   8.779   5.376 -0.5233 -0.1557  0.2762
  426MOL0     C58707   5.749   8.744   5.445 -0.1795  0.5538  0.1819
  426MOL0     C58708   5.771   8.615   5.483  0.4186 -0.3147  0.1692
  426MOL0     O58709   5.877   8.573   5.553 -0.0455 -0.2204  0.1610
  426MOL0     C58710   5.923   8.661   5.655 -0.0039 -0.9808  0.0673
  426MOL0     C58711   5.830   8.656   5.769  0.4928  0.3630  0.9619
  426MOL0     C58712   5.874   8.546   5.866 -0.8243  0.2935 -0.0227
  426MOL0     C58713   5.780   8.523   5.982 -0.4081 -0.0986  0.2654
  426MOL0     C58714   5.786   8.616   6.089  0.4203 -0.9558 -0.7242
  426MOL0     C58715   5.774   8.698   6.189 -0.3956 -0.0333 -0.6013
  426MOL0     C58716   5.671   8.518   5.451 -0.1574 -1.4287 -0.3665
  426MOL0     C58717   5.560   8.553   5.388 -0.2663 -0.6797  0.5777
  426MOL0     C58718   5.476   8.443   5.337  0.5299  0.2182  0.3286
  426MOL0     H58719   5.266   8.905   5.095 -1.1179  0.6339  1.7391
  426MOL0     H58720   5.085   8.943   4.954  0.1001 -1.7668 -1.7872
  426MOL0     H58721   4.916   8.978   4.847  2.5757 -5.2419 -0.8363
  426MOL0     H58722   4.822   8.951   4.999  0.8157  2.1802  0.5216
  426MOL0     H58723   4.723   8.840   4.747  1.4364 -1.4267  1.2274
  426MOL0     H58724   4.637   8.856   4.908 -1.7015  1.2976 -1.5004
  426MOL0     H58725   4.656   9.103   4.868 -0.9422  0.7831 -0.6544
  426MOL0     H58726   4.703   9.072   4.702  1.7737 -0.3968  2.0701
  426MOL0     H58727   4.451   8.930   4.821 -0.3731 -2.1031 -1.4149
  426MOL0     H58728   4.433   9.090   4.754  0.3958 -0.2590 -1.1319
  426MOL0     H58729   4.551   8.869   4.600 -1.0077  0.1931 -1.0014
  426MOL0     H58730   4.506   9.023   4.537  1.4392  0.4861  0.5839
  426MOL0     H58731   4.273   8.980   4.597  1.4607  2.3599 -0.1169
  426MOL0     H58732   4.342   8.883   4.466 -3.3344 -2.6448  0.0997
  426MOL0     H58733   4.185   8.791   4.673  0.1500  1.4210 -2.3365
  426MOL0     H58734   4.340   8.762   4.751 -1.0457  2.2084  0.7657
  426MOL0     H58735   4.268   8.563   4.657 -1.0058  0.0426  0.7907
  426MOL0     H58736   4.272   8.628   4.493 -0.7122 -2.0938  0.0003
  426MOL0     H58737   4.540   8.637   4.774  0.1768  2.7319 -0.4472
  426MOL0     H58738   4.829   8.442   4.718  0.3196 -0.2823  0.0660
  426MOL0     H58739   4.831   8.615   4.735 -1.4835 -1.9219  1.6288
  426MOL0     H58740   4.912   8.445   4.491  2.7214 -1.3370  1.8282
  426MOL0     H58741   4.916   8.615   4.492 -1.2571  0.7478  0.0911
  426MOL0     H58742   5.081   8.597   4.691 -1.6739  0.9673  0.1927
  426MOL0     H58743   5.059   8.418   4.674 -0.7248 -0.6566 -0.5973
  426MOL0     H58744   5.272   8.496   4.560 -0.5288 -1.5391  0.4184
  426MOL0     H58745   5.159   8.458   4.437  1.4844  1.1486 -1.6772
  426MOL0     H58746   5.385   8.834   4.477 -0.7370  0.4944 -1.4228
  426MOL0     H58747   5.688   8.863   4.336 -1.1385 -3.3725 -2.8023
  426MOL0     H58748   5.557   8.964   4.417  1.2371  2.9499 -0.6140
  426MOL0     H58749   5.561   8.951   4.245  1.6775  0.9696  1.0332
  426MOL0     H58750   5.880   8.467   3.974 -5.5753  0.0624  1.7119
  426MOL0     H58751   6.030   8.492   3.785  0.6052 -0.0806 -1.3868
  426MOL0     H58752   6.164   8.600   3.598 -1.2250 -1.4243  2.2015
  426MOL0     H58753   6.083   8.455   3.556  1.3420  0.2923  2.2761
  426MOL0     H58754   6.223   8.523   3.343  0.5454  2.2855 -0.6056
  426MOL0     H58755   6.041   8.523   3.325 -0.8227  0.4411  0.6441
  426MOL0     H58756   6.038   8.768   3.328 -0.2346  0.7167 -1.7142
  426MOL0     H58757   6.168   8.720   3.226  1.7796  2.9543  1.5324
  426MOL0     H58758   6.317   8.723   3.452  2.1478  2.2712 -0.1023
  426MOL0     H58759   6.183   8.826   3.500 -1.2659  1.1414 -1.4546
  426MOL0     H58760   6.360   8.973   3.435  0.4952  0.9550 -1.7014
  426MOL0     H58761   6.392   8.887   3.285 -0.4544 -0.7685  0.4834
  426MOL0     H58762   6.126   9.016   3.338 -0.4057 -6.0503 -0.5171
  426MOL0     H58763   6.201   8.948   3.186  3.7038 -2.9112  0.5699
  426MOL0     H58764   6.360   9.116   3.149 -1.2714 -0.2260 -1.3296
  426MOL0     H58765   6.360   9.166   3.321 -0.9224  6.2912 -0.8998
  426MOL0     H58766   6.255   9.324   3.158  2.6297 -4.1246 -5.0841
  426MOL0     H58767   6.135   9.278   3.285 -1.9993  0.0286 -1.2644
  426MOL0     H58768   5.706   8.705   3.583  1.5617  0.6492 -1.3268
  426MOL0     H58769   5.580   8.691   3.784 -0.1297  0.7638  0.7978
  426MOL0     H58770   5.429   8.496   4.121  0.2963 -3.8829  2.6634
  426MOL0     H58771   5.242   8.495   4.265 -1.7366  0.6957 -1.0902
  426MOL0     H58772   4.963   8.542   4.961  0.8521 -1.2445 -0.8478
  426MOL0     H58773   5.194   8.499   5.110 -0.9430  0.0942  2.3068
  426MOL0     H58774   5.618   8.881   5.341  0.5646 -0.6216 -1.5853
  426MOL0     H58775   5.817   8.826   5.467  0.4466 -0.4813  2.3619
  426MOL0     H58776   6.017   8.626   5.699  0.3132 -1.2741 -0.8063
  426MOL0     H58777   5.936   8.767   5.634  2.2074 -1.3449 -0.6922
  426MOL0     H58778   5.730   8.637   5.729  0.4628 -0.1370  1.2714
  426MOL0     H58779   5.826   8.755   5.816  4.5509  0.3157  1.7350
  426MOL0     H58780   5.875   8.451   5.812 -1.7850  0.3051 -0.0702
  426MOL0     H58781   5.969   8.565   5.916 -1.8589 -1.1489  2.6716
  426MOL0     H58782   5.805   8.422   6.015 -0.6200 -0.9114 -1.8778
  426MOL0     H58783   5.680   8.513   5.937  0.5904 -0.5916 -1.9751
  426MOL0     H58784   5.769   8.770   6.268  1.7152 -1.4532  0.9295
  426MOL0     H58785   5.696   8.418   5.487 -1.7710 -1.0080  2.2041
  426MOL0     H58786   5.450   8.466   5.233 -3.5468  1.1335  1.3475
  426MOL0     H58787   5.527   8.348   5.350 -0.5906 -0.7438 -1.7692
  426MOL0     H58788   5.376   8.437   5.381 -0.2185 -2.0361 -1.4471
  427MOL0     O58789   9.477   8.371   8.242 -0.3529 -0.4636  0.4734
  427MOL0     C58790   9.450   8.275   8.318  0.4452  0.1713  0.2819
  427MOL0     O58791   9.525   8.235   8.429 -0.8003 -0.0759  0.0288
  427MOL0     C58792   9.651   8.282   8.447 -0.6431 -0.1516  0.2726
  427MOL0     C58793   9.693   8.289   8.580 -0.6470  1.2188  0.2266
  427MOL0     C58794   9.831   8.308   8.604 -0.3235  0.0016 -0.4911
  427MOL0     C58795   9.929   8.326   8.504  0.5597 -0.1178  0.3676
  427MOL0     O58796  10.061   8.345   8.524 -0.4626  0.4353 -0.3053
  427MOL0     C58797  10.124   8.270   8.620 -0.6658  0.5597 -0.7566
  427MOL0     C58798  10.131   8.124   8.578  0.0148  0.0281  0.1515
  427MOL0     C58799  10.200   8.032   8.683  1.3476  0.2150  0.3773
  427MOL0     C58800  10.356   8.033   8.678 -0.5819  0.3988  0.2238
  427MOL0     C58801  10.398   7.927   8.577  0.0638 -0.3887  0.4930
  427MOL0     C58802  10.554   7.916   8.551 -0.3153 -0.4407 -0.3401
  427MOL0     C58803  10.579   7.819   8.432  0.0567  0.5810 -0.5798
  427MOL0     C58804  10.569   7.867   8.285 -0.4049  1.1219 -0.9893
  427MOL0     N58805  10.592   7.748   8.192  0.0799 -0.1138  0.2622
  427MOL0     C58806  10.706   7.744   8.109 -0.1224 -0.3493 -0.6770
  427MOL0     C58807  10.702   7.629   8.041  0.0931  0.2174 -0.0705
  427MOL0     C58808  10.796   7.609   7.931  0.5733  0.3073  0.2390
  427MOL0     C58809  10.719   7.538   7.815 -0.4212  0.1545 -0.3725
  427MOL0     C58810  10.810   7.496   7.692  0.3011 -0.2366 -0.7194
  427MOL0     C58811  10.901   7.602   7.619 -0.4459  0.4889 -0.1896
  427MOL0     O58812  11.009   7.630   7.708 -0.2870  0.6039 -0.0879
  427MOL0     C58813  11.108   7.719   7.675  0.2164 -0.2271  0.5450
  427MOL0     C58814  11.118   7.820   7.578 -0.3794  0.1190 -0.4187
  427MOL0     C58815  11.243   7.872   7.557 -1.0386  0.3302 -0.1278
  427MOL0     C58816  11.260   7.961   7.442 -0.0512 -0.0751 -0.3820
  427MOL0     C58817  11.354   7.829   7.636 -0.0707  0.2482  0.0895
  427MOL0     C58818  11.491   7.882   7.628  0.6491  0.5937  0.6942
  427MOL0     O58819  11.596   7.805   7.644 -0.8258  0.4859 -0.5994
  427MOL0     C58820  11.711   7.868   7.673 -0.1486 -0.3162  0.1864
  427MOL0     C58821  11.799   7.926   7.575 -0.6357 -0.1875 -0.0280
  427MOL0     C58822  11.923   7.974   7.620  0.2714 -0.0842  0.7852
  427MOL0     C58823  11.960   7.964   7.758 -0.1725 -0.2598  0.2548
  427MOL0     O58824  12.078   7.999   7.814  0.3504  0.6523  0.1836
  427MOL0     C58825  12.135   8.127   7.793  0.2269 -0.1434  0.2608
  427MOL0     C58826  12.286   8.104   7.794  0.2101  0.5525  0.2876
  427MOL0     C58827  12.367   8.241   7.797 -0.1508 -0.1521 -0.3211
  427MOL0     C58828  12.515   8.204   7.778 -0.3643 -0.6212 -1.1337
  427MOL0     C58829  12.608   8.333   7.761 -0.0265  0.0123  0.5148
  427MOL0     C58830  12.751   8.296   7.808  0.4517 -0.1990  1.0191
  427MOL0     C58831  12.857   8.398   7.766  1.1815 -0.2608 -0.0678
  427MOL0     C58832  13.006   8.344   7.769 -0.5159  0.4142 -0.0256
  427MOL0    Cl58833  13.133   8.453   7.716 -0.3957 -0.1591  0.0188
  427MOL0     C58834  11.865   7.916   7.851 -0.7736  0.6662  0.6662
  427MOL0     C58835  11.741   7.867   7.813  0.5957  1.0487 -0.0883
  427MOL0     O58836  11.493   8.005   7.621 -1.2138 -0.3832  0.0132
  427MOL0     C58837  11.341   7.740   7.736 -0.1790 -0.1818 -0.2692
  427MOL0     C58838  11.218   7.687   7.749  0.9755 -0.2883  0.7254
  427MOL0     N58839  10.605   7.550   8.099  0.6999 -0.0612 -0.9912
  427MOL0     N58840  10.539   7.623   8.186  0.8054 -0.4495  0.3321
  427MOL0     C58841   9.883   8.341   8.374 -0.5244 -0.0150  0.2747
  427MOL0     C58842   9.744   8.308   8.343  0.1497 -0.9809 -0.4845
  427MOL0     C58843   9.341   8.177   8.269 -0.6260 -0.7453  0.1752
  427MOL0     C58844   9.388   8.047   8.238  0.3698 -0.4647 -0.7080
  427MOL0     C58845   9.304   7.951   8.178  0.3144  0.1773 -0.4044
  427MOL0     C58846   9.170   7.990   8.159 -0.1195  0.6577  1.0960
  427MOL0     O58847   9.095   7.899   8.095  0.1376  0.1465  0.9224
  427MOL0     C58848   8.952   7.910   8.082 -0.0920  1.0521  0.4494
  427MOL0     C58849   8.872   7.890   8.216  0.4781 -0.3663 -0.2085
  427MOL0     C58850   8.775   7.770   8.211  1.4982  0.7003  0.4458
  427MOL0     C58851   8.641   7.797   8.152 -0.1894 -0.8178 -0.5772
  427MOL0     C58852   8.561   7.892   8.225 -0.0452  0.1033  0.2135
  427MOL0     C58853   8.490   7.973   8.277 -0.1903  0.1083  0.3472
  427MOL0     C58854   9.126   8.112   8.205 -0.4489  0.4333  0.3255
  427MOL0     C58855   9.210   8.216   8.248  1.0479  0.3857 -0.1220
  427MOL0     C58856   9.157   8.357   8.261 -0.4162 -0.2187 -0.9860
  427MOL0     H58857   9.620   8.274   8.659 -1.9891  0.6397 -1.0826
  427MOL0     H58858   9.856   8.300   8.709 -0.9368 -0.6997 -0.3901
  427MOL0     H58859  10.077   8.284   8.718  1.6446 -0.4100  0.5889
  427MOL0     H58860  10.229   8.302   8.625 -0.2204 -0.9933  1.6618
  427MOL0     H58861  10.028   8.090   8.569 -0.1852  0.3175  1.1281
  427MOL0     H58862  10.180   8.122   8.480  0.9010  7.0473 -0.0816
  427MOL0     H58863  10.172   8.055   8.786 -2.4735 -1.7603 -0.0382
  427MOL0     H58864  10.155   7.933   8.674  0.7233  0.4598  0.7438
  427MOL0     H58865  10.403   8.124   8.638  3.8650 -1.1063  1.4469
  427MOL0     H58866  10.393   8.017   8.779 -0.1191  0.6944  0.1053
  427MOL0     H58867  10.356   7.943   8.477 -0.5382 -0.8494  0.6645
  427MOL0     H58868  10.363   7.828   8.606 -2.4553  0.2039 -0.2739
  427MOL0     H58869  10.598   8.014   8.529  1.5276 -0.9547  0.7843
  427MOL0     H58870  10.603   7.896   8.647 -0.8677 -1.0340 -0.1743
  427MOL0     H58871  10.510   7.737   8.451 -1.8323  2.8780  4.3050
  427MOL0     H58872  10.682   7.781   8.440 -0.2129 -0.1322 -0.4174
  427MOL0     H58873  10.464   7.896   8.271 -2.0411 -2.8825  1.1427
  427MOL0     H58874  10.653   7.934   8.265  2.2214 -0.7850  2.4543
  427MOL0     H58875  10.783   7.815   8.081  0.6225 -0.9641 -0.2125
  427MOL0     H58876  10.879   7.552   7.973  0.6847 -1.8686 -2.6739
  427MOL0     H58877  10.828   7.709   7.898  2.5072 -0.0887  0.7776
  427MOL0     H58878  10.658   7.456   7.854 -0.2446 -0.2547 -0.9457
  427MOL0     H58879  10.647   7.606   7.770 -2.2463 -2.9753 -2.5502
  427MOL0     H58880  10.861   7.404   7.722 -2.9058 -1.4600  1.6094
  427MOL0     H58881  10.725   7.470   7.628 -0.8550 -1.2590  1.1296
  427MOL0     H58882  10.933   7.575   7.518 -2.0932  0.4931 -0.7444
  427MOL0     H58883  10.842   7.694   7.608  0.6505  0.8972 -3.8190
  427MOL0     H58884  11.041   7.843   7.505 -0.7032 -0.8238 -0.3888
  427MOL0     H58885  11.264   8.062   7.484 -0.0808 -0.5987  0.9322
  427MOL0     H58886  11.180   7.966   7.368 -0.6946 -2.5728  0.0577
  427MOL0     H58887  11.350   7.939   7.384  0.8941 -0.7368  1.2767
  427MOL0     H58888  11.769   7.932   7.471  3.4360 -1.0892 -1.4730
  427MOL0     H58889  11.984   8.020   7.542  0.9337  2.5574  2.7102
  427MOL0     H58890  12.100   8.167   7.697 -1.7339  0.7320  1.2939
  427MOL0     H58891  12.092   8.195   7.868 -3.5602  1.2943 -2.8843
  427MOL0     H58892  12.318   8.043   7.878  1.4819 -1.2667 -1.4078
  427MOL0     H58893  12.332   8.052   7.709 -0.3337 -1.1610  1.0240
  427MOL0     H58894  12.342   8.300   7.886 -1.1889  0.1482 -0.8000
  427MOL0     H58895  12.330   8.297   7.710  0.2514  1.4807  0.5077
  427MOL0     H58896  12.521   8.142   7.688 -0.5403  0.5526 -1.9734
  427MOL0     H58897  12.548   8.153   7.869 -0.6601 -0.8304 -1.1420
  427MOL0     H58898  12.596   8.357   7.655  0.3045 -2.8064 -0.2424
  427MOL0     H58899  12.565   8.421   7.811  0.0610  1.6888 -2.2045
  427MOL0     H58900  12.785   8.204   7.760  1.6295  0.6959  0.0628
  427MOL0     H58901  12.752   8.284   7.916  2.6899  0.7826  1.1755
  427MOL0     H58902  12.847   8.497   7.812 -1.5332  0.4367 -1.8654
  427MOL0     H58903  12.839   8.413   7.659 -1.1345  0.1642  0.3143
  427MOL0     H58904  13.007   8.265   7.694 -0.0912 -1.1406  1.5547
  427MOL0     H58905  13.029   8.316   7.872  0.3378  1.3366  0.0520
  427MOL0     H58906  11.907   7.912   7.951  0.4599  2.9339  0.2888
  427MOL0     H58907  11.651   7.843   7.870 -0.0591 -0.6933 -1.7494
  427MOL0     H58908  11.419   7.714   7.806  0.3399  0.8593 -0.4518
  427MOL0     H58909  11.212   7.609   7.825  2.8910 -0.9150  0.2780
  427MOL0     H58910   9.965   8.339   8.302 -1.5867 -3.6010 -1.0416
  427MOL0     H58911   9.713   8.308   8.239 -0.3203 -0.8504 -0.3474
  427MOL0     H58912   9.496   8.040   8.239  0.4619  0.7645 -0.2609
  427MOL0     H58913   9.353   7.862   8.143  3.0203  0.4724  2.2350
  427MOL0     H58914   8.908   8.003   8.044 -1.7021  0.9709  1.9775
  427MOL0     H58915   8.925   7.828   8.015 -1.6035  0.3426  1.8518
  427MOL0     H58916   8.834   7.984   8.258  1.2862  0.0537 -0.3911
  427MOL0     H58917   8.933   7.863   8.303  0.6644  0.1998 -0.1574
  427MOL0     H58918   8.826   7.683   8.168  2.3249 -0.0276  2.7122
  427MOL0     H58919   8.765   7.741   8.316 -2.6981  2.8390  0.8473
  427MOL0     H58920   8.579   7.707   8.156 -1.5118 -0.1073 -3.0274
  427MOL0     H58921   8.644   7.828   8.047  0.8708  1.4215  0.0473
  427MOL0     H58922   8.420   8.044   8.317  2.0011  3.0422 -0.6632
  427MOL0     H58923   9.021   8.131   8.184 -0.5711 -2.6411 -2.4785
  427MOL0     H58924   9.154   8.393   8.364 -3.8011 -1.7504 -0.4339
  427MOL0     H58925   9.221   8.425   8.203  0.0553 -1.2345 -1.6795
  427MOL0     H58926   9.055   8.360   8.223 -1.0331  2.7693  0.5616
  428MOL0     O58927   7.888   3.175   4.186 -0.0641 -0.1850 -0.1058
  428MOL0     C58928   7.903   3.063   4.148  0.2351 -0.5454  0.6779
  428MOL0     O58929   8.004   3.023   4.064  0.3223  0.0662  0.3460
  428MOL0     C58930   8.042   3.125   3.984  0.2125 -0.7694 -0.7752
  428MOL0     C58931   7.985   3.150   3.858  0.8596  0.5318  0.1036
  428MOL0     C58932   8.033   3.258   3.782 -0.0100  0.2926 -0.0439
  428MOL0     C58933   8.128   3.349   3.835 -1.1089  0.3565  0.5014
  428MOL0     O58934   8.164   3.461   3.762 -0.1618  0.1819  0.2141
  428MOL0     C58935   8.253   3.552   3.826  0.0928 -0.4540  0.3905
  428MOL0     C58936   8.275   3.664   3.725 -0.0795  0.3895 -0.4894
  428MOL0     C58937   8.366   3.769   3.789 -0.0772 -0.0364 -0.4725
  428MOL0     C58938   8.440   3.854   3.687  0.6721 -0.0604  0.1245
  428MOL0     C58939   8.516   3.971   3.744  0.5659 -0.3625  0.4459
  428MOL0     C58940   8.565   4.072   3.642 -0.6818 -0.4863  0.1473
  428MOL0     C58941   8.675   4.157   3.712 -1.2292  0.1315 -0.8447
  428MOL0     C58942   8.733   4.252   3.617  0.8780  0.7982 -0.1674
  428MOL0     N58943   8.809   4.192   3.512 -0.4605 -0.0571  0.1579
  428MOL0     C58944   8.767   4.152   3.381  0.1779  0.1798 -0.2545
  428MOL0     C58945   8.878   4.129   3.307  0.7404 -0.3500  0.9781
  428MOL0     C58946   8.885   4.089   3.161 -0.3653 -0.6779 -0.5580
  428MOL0     C58947   8.768   4.021   3.102  0.7867  0.6391  0.3263
  428MOL0     C58948   8.781   4.002   2.946  0.4001 -0.5521 -0.0774
  428MOL0     C58949   8.913   3.945   2.885  1.1505  0.2214  0.7725
  428MOL0     O58950   8.956   3.824   2.961  0.5559 -0.5476 -0.3064
  428MOL0     C58951   9.092   3.793   2.949  0.8406 -0.0470  0.3812
  428MOL0     C58952   9.160   3.808   2.831 -0.2704  0.3394 -0.6214
  428MOL0     C58953   9.300   3.794   2.829 -0.4135 -0.0116  0.0005
  428MOL0     C58954   9.362   3.819   2.695  0.8303 -0.2682 -0.0389
  428MOL0     C58955   9.364   3.741   2.944  0.6945 -0.8707 -0.1423
  428MOL0     C58956   9.503   3.710   2.938  0.6541 -0.2907 -0.0804
  428MOL0     O58957   9.546   3.579   2.928 -0.2198 -0.3552  0.1811
  428MOL0     C58958   9.682   3.543   2.947  1.1927 -0.1940  0.8084
  428MOL0     C58959   9.723   3.432   2.871  0.3880 -0.3907  0.1837
  428MOL0     C58960   9.856   3.395   2.890 -0.4414  0.6177 -0.2331
  428MOL0     C58961   9.943   3.463   2.965  0.4028 -0.3711 -0.5185
  428MOL0     O58962  10.065   3.410   2.983  0.1633 -0.2952  0.2328
  428MOL0     C58963  10.139   3.391   2.865  0.1833  0.5863 -0.2642
  428MOL0     C58964  10.253   3.292   2.881  0.4376 -0.1113 -0.5391
  428MOL0     C58965  10.370   3.359   2.957 -0.4241  0.3644 -0.1339
  428MOL0     C58966  10.495   3.265   2.978 -1.5200 -0.4442 -0.9134
  428MOL0     C58967  10.626   3.332   3.051  0.8773  0.7941 -0.2077
  428MOL0     C58968  10.752   3.238   3.062  0.0744 -0.8392 -0.5096
  428MOL0     C58969  10.855   3.316   3.148  0.4952 -0.4210 -0.4911
  428MOL0     C58970  10.975   3.219   3.161  0.3029 -0.5930  0.2426
  428MOL0    Cl58971  11.115   3.300   3.238  0.3585  0.1972 -0.7562
  428MOL0     C58972   9.900   3.575   3.043 -0.4704  0.3215 -0.7021
  428MOL0     C58973   9.768   3.609   3.029  0.3293 -0.4241 -0.8719
  428MOL0     O58974   9.577   3.803   2.936  0.5738  0.3007 -0.6321
  428MOL0     C58975   9.299   3.739   3.062 -0.4462  1.0857 -0.5210
  428MOL0     C58976   9.165   3.754   3.063  0.6487 -0.0092 -0.8651
  428MOL0     N58977   8.988   4.148   3.390  0.2190 -0.5407  0.0798
  428MOL0     N58978   8.940   4.193   3.506  0.3572 -0.4293  0.8325
  428MOL0     C58979   8.185   3.318   3.962  0.9846  0.4390  0.9213
  428MOL0     C58980   8.146   3.203   4.030 -0.1336 -0.4615 -0.2148
  428MOL0     C58981   7.801   2.958   4.180  0.0784 -0.5443  0.1931
  428MOL0     C58982   7.782   2.856   4.087 -0.4646 -0.2677  0.1087
  428MOL0     C58983   7.690   2.743   4.111 -0.2138 -0.3020  0.5367
  428MOL0     C58984   7.633   2.741   4.238  0.3467  0.3273 -0.2333
  428MOL0     O58985   7.550   2.643   4.277 -0.1324  0.2973  0.0074
  428MOL0     C58986   7.540   2.525   4.198 -0.2475  0.1948 -0.0157
  428MOL0     C58987   7.450   2.423   4.274 -0.2358 -0.6424  0.2234
  428MOL0     C58988   7.512   2.378   4.409 -0.2710 -0.3795 -0.3606
  428MOL0     C58989   7.458   2.242   4.481 -0.3812 -0.3415  0.4227
  428MOL0     C58990   7.466   2.130   4.389  0.4962  0.3503  0.3964
  428MOL0     C58991   7.469   2.035   4.315 -0.8527  1.1864  0.2403
  428MOL0     C58992   7.656   2.839   4.336 -0.0764  0.0982  0.4263
  428MOL0     C58993   7.739   2.953   4.304 -0.0095  0.0599  0.3734
  428MOL0     C58994   7.737   3.073   4.397  0.6230  0.4665  0.1166
  428MOL0     H58995   7.899   3.094   3.822  1.3758 -0.4682  0.3855
  428MOL0     H58996   7.996   3.287   3.684  1.6697  0.9802 -0.5016
  428MOL0     H58997   8.353   3.512   3.850  0.0015  0.1890  1.9876
  428MOL0     H58998   8.207   3.592   3.917  0.5175  1.7567 -0.3165
  428MOL0     H58999   8.315   3.617   3.635 -3.2711 -0.5192 -1.5416
  428MOL0     H59000   8.179   3.708   3.695 -0.8816 -1.1770 -0.3052
  428MOL0     H59001   8.304   3.840   3.845  3.5921  1.8808  1.5171
  428MOL0     H59002   8.443   3.730   3.857  1.7789  1.5930 -1.5429
  428MOL0     H59003   8.506   3.788   3.632 -0.0922 -1.1499  0.4819
  428MOL0     H59004   8.356   3.901   3.633 -1.4682 -0.9904  2.4199
  428MOL0     H59005   8.608   3.938   3.793 -0.5732  0.6415  3.4342
  428MOL0     H59006   8.453   4.022   3.816 -0.2585 -1.2379  0.3668
  428MOL0     H59007   8.611   4.018   3.559 -2.2917 -1.7050  0.0022
  428MOL0     H59008   8.480   4.131   3.608  0.2822  0.1989 -1.1919
  428MOL0     H59009   8.747   4.080   3.743  0.5656  0.8872 -2.9294
  428MOL0     H59010   8.640   4.216   3.797  1.6522  1.2172 -0.3195
  428MOL0     H59011   8.657   4.323   3.584 -1.2055 -1.5194 -0.7055
  428MOL0     H59012   8.810   4.303   3.676 -0.7868  1.5439  1.4635
  428MOL0     H59013   8.662   4.153   3.356 -0.0456 -2.8904  0.1274
  428MOL0     H59014   8.970   4.020   3.167 -0.3556 -0.5420  2.0623
  428MOL0     H59015   8.914   4.176   3.102 -1.0372  0.8587  1.2661
  428MOL0     H59016   8.753   3.924   3.149  1.7218 -0.4708 -1.5530
  428MOL0     H59017   8.681   4.087   3.109  1.0908  1.2518 -1.2472
  428MOL0     H59018   8.695   3.938   2.925 -0.1091 -0.0665  0.4712
  428MOL0     H59019   8.756   4.092   2.888 -0.5995 -0.6608  0.1619
  428MOL0     H59020   8.885   3.925   2.781  3.2056  2.0956 -0.2192
  428MOL0     H59021   8.997   4.014   2.874 -0.4375  1.9624 -1.8341
  428MOL0     H59022   9.123   3.844   2.736  3.6616 -0.5180 -2.6569
  428MOL0     H59023   9.309   3.887   2.628  0.4810  0.0170  0.5199
  428MOL0     H59024   9.383   3.727   2.640  2.3757  0.0203  0.0252
  428MOL0     H59025   9.453   3.876   2.716  1.4101 -0.0669 -2.8328
  428MOL0     H59026   9.657   3.372   2.809  0.1613 -0.1392  0.1834
  428MOL0     H59027   9.897   3.317   2.826  2.2799  3.8472 -2.7746
  428MOL0     H59028  10.082   3.348   2.782  1.0507 -0.6049 -0.2674
  428MOL0     H59029  10.176   3.486   2.825  0.3298  0.0741 -1.3770
  428MOL0     H59030  10.214   3.201   2.928  1.8294 -0.1435  0.6205
  428MOL0     H59031  10.284   3.269   2.779 -1.6726 -0.1451 -1.2223
  428MOL0     H59032  10.332   3.395   3.053  0.9660  1.1829  0.1268
  428MOL0     H59033  10.416   3.442   2.903  1.6974 -0.9738 -0.5174
  428MOL0     H59034  10.521   3.241   2.874  1.8392 -0.0237 -0.3094
  428MOL0     H59035  10.471   3.173   3.031  1.8621  0.5679  2.9541
  428MOL0     H59036  10.650   3.426   3.001 -1.2031  0.0625 -2.8025
  428MOL0     H59037  10.592   3.356   3.152  1.3279 -1.5173  0.5507
  428MOL0     H59038  10.773   3.216   2.957 -2.1179  1.6271 -1.5815
  428MOL0     H59039  10.724   3.147   3.117 -1.4494  0.3677  0.8234
  428MOL0     H59040  10.830   3.332   3.253  0.5324 -1.6314 -0.2804
  428MOL0     H59041  10.891   3.405   3.097 -1.2175  0.7046  0.1847
  428MOL0     H59042  10.993   3.189   3.057  0.9363 -0.4935  0.3182
  428MOL0     H59043  10.938   3.139   3.226 -2.7703 -1.0461 -1.8536
  428MOL0     H59044   9.972   3.629   3.103  0.8258 -0.9971 -1.0202
  428MOL0     H59045   9.719   3.679   3.096 -1.2476 -0.9593 -1.4279
  428MOL0     H59046   9.348   3.698   3.150  0.1193  1.5910 -0.5926
  428MOL0     H59047   9.100   3.738   3.149 -0.1574 -0.0672 -1.4726
  428MOL0     H59048   8.253   3.386   4.012  1.5108 -0.0850  0.9169
  428MOL0     H59049   8.192   3.187   4.127 -0.8645  0.5496  0.3193
  428MOL0     H59050   7.836   2.852   3.992  0.7064  0.9407  0.6942
  428MOL0     H59051   7.673   2.673   4.031 -0.9422 -0.0512  0.4604
  428MOL0     H59052   7.483   2.562   4.112 -1.0470  0.6428  0.6928
  428MOL0     H59053   7.633   2.477   4.166 -0.9563  0.3212 -2.5035
  428MOL0     H59054   7.437   2.342   4.202 -1.5287  1.8313 -2.5661
  428MOL0     H59055   7.354   2.471   4.295 -0.2096 -1.6625  3.0876
  428MOL0     H59056   7.613   2.346   4.383  0.0048 -0.3342  0.6381
  428MOL0     H59057   7.516   2.450   4.491 -0.2000 -0.1153 -0.5942
  428MOL0     H59058   7.358   2.251   4.523  0.3023  1.9661  1.7394
  428MOL0     H59059   7.528   2.225   4.563  0.0842  3.2251  0.8998
  428MOL0     H59060   7.461   1.953   4.247  1.5836  1.8175 -0.9204
  428MOL0     H59061   7.607   2.830   4.433 -0.2414 -4.0960  0.1260
  428MOL0     H59062   7.701   3.161   4.344 -1.4388  0.9480  2.1424
  428MOL0     H59063   7.677   3.062   4.488 -0.5407  0.5268 -0.6264
  428MOL0     H59064   7.840   3.088   4.431  0.7250  1.5709 -0.6561
  429MOL0     O59065   1.328   9.204   0.763 -0.8763 -0.2750 -0.0035
  429MOL0     C59066   1.271   9.161   0.864  0.6402  0.3516 -0.8829
  429MOL0     O59067   1.310   9.176   0.999 -0.0478 -0.6994  1.0883
  429MOL0     C59068   1.442   9.216   1.011 -0.8843 -0.3092 -0.2819
  429MOL0     C59069   1.548   9.128   1.000  1.0346  0.0854 -0.2273
  429MOL0     C59070   1.673   9.182   1.028 -0.1328  0.2938 -1.0086
  429MOL0     C59071   1.695   9.317   1.047 -0.8156  0.6832  0.8907
  429MOL0     O59072   1.834   9.353   1.063 -0.1937  0.2662 -0.0071
  429MOL0     C59073   1.862   9.488   1.069  0.6841 -1.2246  0.4280
  429MOL0     C59074   2.012   9.501   1.102  0.3112  0.3024  0.4142
  429MOL0     C59075   2.058   9.649   1.125  1.1659  0.1590 -0.0553
  429MOL0     C59076   2.207   9.659   1.119  0.0850  0.4792 -0.3016
  429MOL0     C59077   2.260   9.809   1.143 -0.9201 -0.2516 -0.2274
  429MOL0     C59078   2.407   9.812   1.181  0.7507 -0.5764 -0.5436
  429MOL0     C59079   2.450   9.964   1.205  0.5583  0.3542  0.7060
  429MOL0     C59080   2.592   9.968   1.255 -0.2216 -0.0613 -0.5851
  429MOL0     N59081   2.641  10.108   1.268  0.3151  0.7081  0.5203
  429MOL0     C59082   2.740  10.155   1.353  0.4982 -0.2620 -0.8530
  429MOL0     C59083   2.751  10.293   1.335 -0.3518 -0.6407  0.8209
  429MOL0     C59084   2.814  10.392   1.415  0.0492 -0.2623 -0.4056
  429MOL0     C59085   2.739  10.426   1.546 -0.2324  1.0504 -0.2123
  429MOL0     C59086   2.608  10.506   1.506  0.6270 -0.5329  0.3878
  429MOL0     C59087   2.497  10.405   1.505 -0.2023  0.3747 -0.3289
  429MOL0     O59088   2.387  10.449   1.422 -0.3423  0.1065 -0.6359
  429MOL0     C59089   2.288  10.373   1.369  0.1152  0.7761 -0.5283
  429MOL0     C59090   2.213  10.438   1.273 -0.8189 -0.3224  0.2646
  429MOL0     C59091   2.102  10.382   1.227  0.5627 -0.2013  0.0885
  429MOL0     C59092   2.014  10.482   1.155 -0.4066  0.2254  0.1881
  429MOL0     C59093   2.070  10.248   1.262  0.1963 -0.1775  0.4472
  429MOL0     C59094   1.955  10.176   1.208  0.2565  0.2598  0.4404
  429MOL0     O59095   1.945  10.041   1.254  0.6592 -0.3796  0.5662
  429MOL0     C59096   1.850   9.964   1.185  0.0920  0.5839 -0.1824
  429MOL0     C59097   1.734   9.935   1.266 -0.1578  0.1875  0.4421
  429MOL0     C59098   1.637   9.854   1.207 -0.7189  0.3478 -0.6094
  429MOL0     C59099   1.636   9.825   1.068  0.1688 -0.6489  1.3294
  429MOL0     O59100   1.546   9.737   1.000  0.2856  0.1129  0.4162
  429MOL0     C59101   1.415   9.793   0.999 -0.0260  0.1602  0.4895
  429MOL0     C59102   1.329   9.716   0.898  0.0445 -0.0185  0.0740
  429MOL0     C59103   1.183   9.771   0.891  0.5012  0.7371  0.8261
  429MOL0     C59104   1.102   9.729   1.022  0.3557 -0.4941 -0.2803
  429MOL0     C59105   0.951   9.760   1.026 -0.0891  0.1607  0.7015
  429MOL0     C59106   0.876   9.665   1.128  0.5066  0.8688 -0.0578
  429MOL0     C59107   0.725   9.694   1.098  0.0413 -0.2728  0.5264
  429MOL0     C59108   0.647   9.614   1.200 -0.3061 -0.8845  0.6699
  429MOL0    Cl59109   0.476   9.601   1.156  0.0545 -0.1096  0.4064
  429MOL0     C59110   1.744   9.877   0.983 -0.3031 -0.2832  0.7266
  429MOL0     C59111   1.848   9.940   1.047 -1.0999 -0.6811 -0.2177
  429MOL0     O59112   1.882  10.223   1.122 -0.3335  1.2087  1.0676
  429MOL0     C59113   2.142  10.184   1.364  0.7963 -0.1233 -0.3239
  429MOL0     C59114   2.240  10.252   1.424  0.2040  0.1827  0.1780
  429MOL0     N59115   2.671  10.319   1.224 -0.2560  0.9307  0.3959
  429MOL0     N59116   2.612  10.213   1.188 -0.0522  1.0926 -0.1178
  429MOL0     C59117   1.587   9.407   1.052  0.0659  0.2052 -0.6644
  429MOL0     C59118   1.461   9.351   1.032 -0.3568  0.1210  0.3630
  429MOL0     C59119   1.144   9.083   0.835  0.3849 -0.0997  0.5224
  429MOL0     C59120   1.057   9.120   0.736  0.4520 -0.6057  1.1480
  429MOL0     C59121   0.945   9.055   0.704  0.4743 -0.3777 -0.5632
  429MOL0     C59122   0.909   8.935   0.771  1.0434  0.2681 -0.0824
  429MOL0     O59123   0.795   8.869   0.724  0.4662 -0.0730 -0.0227
  429MOL0     C59124   0.711   8.788   0.803 -1.0653  0.2400  0.2964
  429MOL0     C59125   0.593   8.735   0.718 -0.3891 -0.4111 -0.2630
  429MOL0     C59126   0.641   8.626   0.622  0.1609 -0.4831  0.6954
  429MOL0     C59127   0.510   8.561   0.560 -0.3876 -0.4246 -0.6064
  429MOL0     C59128   0.492   8.445   0.644 -0.2942  0.1638 -0.3827
  429MOL0     C59129   0.472   8.364   0.726 -0.7171 -0.2266 -0.6640
  429MOL0     C59130   0.976   8.903   0.887 -0.2015 -0.6215 -0.4241
  429MOL0     C59131   1.098   8.973   0.912 -0.2838 -0.1212  0.3298
  429MOL0     C59132   1.173   8.923   1.029 -0.2879 -0.5983 -0.4912
  429MOL0     H59133   1.529   9.023   0.979  3.5022  0.0205 -2.6883
  429MOL0     H59134   1.759   9.116   1.031 -1.5196 -1.6030 -0.9969
  429MOL0     H59135   1.792   9.539   1.135  0.6949 -1.1842  0.4084
  429MOL0     H59136   1.852   9.534   0.970  0.4363  0.1846  1.0880
  429MOL0     H59137   2.021   9.459   1.203 -1.8154  1.0393  0.9732
  429MOL0     H59138   2.070   9.460   1.019 -0.8438  1.1590 -0.8764
  429MOL0     H59139   2.020   9.714   1.045  2.6854  1.0460 -0.0948
  429MOL0     H59140   2.017   9.684   1.220 -1.0508 -0.5439 -0.6701
  429MOL0     H59141   2.249   9.590   1.193  0.3757  1.2284  0.2440
  429MOL0     H59142   2.252   9.638   1.021  0.9946  0.0939  0.1873
  429MOL0     H59143   2.202   9.846   1.228 -3.7455  2.8910 -3.1986
  429MOL0     H59144   2.233   9.873   1.059 -0.8640 -2.7862 -2.2856
  429MOL0     H59145   2.407   9.762   1.278 -1.5413  0.2440 -0.0536
  429MOL0     H59146   2.468   9.761   1.105  1.9977  0.1059 -0.0265
  429MOL0     H59147   2.388  10.022   1.274 -0.3752  1.3122 -0.8756
  429MOL0     H59148   2.447  10.018   1.110 -1.1183  2.3436  1.8002
  429MOL0     H59149   2.609   9.914   1.349 -1.2090  0.3799 -0.1401
  429MOL0     H59150   2.661   9.924   1.183  2.1244 -1.6241  2.3495
  429MOL0     H59151   2.788  10.100   1.433 -2.8634 -1.9362  0.1997
  429MOL0     H59152   2.845  10.481   1.359  1.4756 -0.6534 -0.2944
  429MOL0     H59153   2.909  10.348   1.445  0.1975  0.1820 -0.2096
  429MOL0     H59154   2.715  10.333   1.599  0.4451 -1.2061 -3.5163
  429MOL0     H59155   2.801  10.481   1.617  0.0482  1.3863 -0.7155
  429MOL0     H59156   2.583  10.587   1.574  1.4008 -2.4289  3.0880
  429MOL0     H59157   2.630  10.550   1.408  1.2049  1.6856  1.4457
  429MOL0     H59158   2.526  10.302   1.482 -0.9520  0.8027 -3.5876
  429MOL0     H59159   2.452  10.393   1.604 -3.9211  1.5228 -1.7099
  429MOL0     H59160   2.242  10.538   1.243 -0.9105 -0.8618 -1.7441
  429MOL0     H59161   2.034  10.481   1.048 -0.6138  0.2976  0.1488
  429MOL0     H59162   2.040  10.580   1.197  0.9528 -0.4042  0.8945
  429MOL0     H59163   1.907  10.471   1.173 -0.5812  0.0399 -0.9323
  429MOL0     H59164   1.731   9.969   1.369 -1.3792  0.1829  0.4254
  429MOL0     H59165   1.558   9.808   1.265  0.3715 -0.0435  0.6178
  429MOL0     H59166   1.366   9.791   1.097 -0.9844  0.8715  0.0419
  429MOL0     H59167   1.417   9.896   0.961 -2.1038 -0.7042 -2.3042
  429MOL0     H59168   1.352   9.724   0.792 -2.3152  2.4915 -0.3807
  429MOL0     H59169   1.330   9.610   0.926  0.1257 -0.3582 -1.1567
  429MOL0     H59170   1.131   9.729   0.805 -0.5322 -0.1279  1.8457
  429MOL0     H59171   1.181   9.879   0.874  2.7497  0.5154 -1.5191
  429MOL0     H59172   1.131   9.789   1.109 -0.8096  0.6842 -0.6709
  429MOL0     H59173   1.111   9.624   1.050 -4.2294 -1.3738 -1.3170
  429MOL0     H59174   0.940   9.862   1.062 -0.4479  0.1163  0.7229
  429MOL0     H59175   0.910   9.759   0.924  1.2775  1.3822  0.1014
  429MOL0     H59176   0.907   9.688   1.230 -1.3349 -0.8522  0.9554
  429MOL0     H59177   0.901   9.561   1.106 -0.9045  0.9083 -2.1474
  429MOL0     H59178   0.691   9.668   0.998 -2.0978  0.3319  1.0558
  429MOL0     H59179   0.704   9.800   1.115 -0.1241 -0.1487 -0.3969
  429MOL0     H59180   0.665   9.673   1.290  1.3655 -0.3734  0.0510
  429MOL0     H59181   0.686   9.511   1.208  2.3644 -0.0261 -0.1307
  429MOL0     H59182   1.745   9.858   0.876  0.9727 -3.7637  1.2238
  429MOL0     H59183   1.923   9.956   0.971 -2.7310 -1.8398 -2.2064
  429MOL0     H59184   2.117  10.086   1.404 -0.5450  0.4168  0.2059
  429MOL0     H59185   2.296  10.188   1.492  0.5727 -0.2327 -0.4976
  429MOL0     H59186   1.608   9.513   1.062  0.9995  0.3305 -3.2373
  429MOL0     H59187   1.380   9.423   1.035 -1.4819 -0.9731 -1.7543
  429MOL0     H59188   1.074   9.210   0.677  2.6219 -1.2562  0.6888
  429MOL0     H59189   0.871   9.089   0.632  0.0375 -1.1248 -0.4670
  429MOL0     H59190   0.766   8.696   0.824  0.3180  0.2038 -2.8162
  429MOL0     H59191   0.674   8.826   0.898  1.0026 -0.9065  1.6298
  429MOL0     H59192   0.546   8.816   0.660 -0.6298  1.1453  1.9342
  429MOL0     H59193   0.514   8.702   0.787  0.3304 -1.2835  0.1615
  429MOL0     H59194   0.697   8.674   0.542  0.3144  0.9489  1.6301
  429MOL0     H59195   0.715   8.560   0.668  1.9732  0.2258 -1.0649
  429MOL0     H59196   0.526   8.537   0.455 -1.5244  2.0803 -1.4308
  429MOL0     H59197   0.425   8.630   0.568 -0.2928 -0.4921  1.5196
  429MOL0     H59198   0.456   8.286   0.799 -0.2846  0.4811  0.2015
  429MOL0     H59199   0.948   8.825   0.957 -1.7818  1.3010  1.2342
  429MOL0     H59200   1.280   8.939   1.015 -0.5588 -1.0115 -3.7471
  429MOL0     H59201   1.132   8.963   1.122 -2.8562  2.8664 -2.8805
  429MOL0     H59202   1.158   8.814   1.037 -2.8316 -0.5161 -2.6291
  430MOL0     O59203   1.836   9.969   4.392  0.0068  0.1430 -0.0437
  430MOL0     C59204   1.756  10.063   4.394  0.5067 -0.2831 -0.3422
  430MOL0     O59205   1.628  10.058   4.341 -0.2501  0.6502 -0.2643
  430MOL0     C59206   1.572   9.941   4.302  0.4382 -0.3591  0.2704
  430MOL0     C59207   1.478   9.936   4.186  0.5614  0.0934 -0.2500
  430MOL0     C59208   1.404   9.825   4.158  0.6809  0.1076 -0.9306
  430MOL0     C59209   1.426   9.701   4.222  0.7104  0.2593  0.2422
  430MOL0     O59210   1.363   9.583   4.181  0.2097 -1.1880  0.4272
  430MOL0     C59211   1.263   9.590   4.075  0.2666  0.1361 -0.1634
  430MOL0     C59212   1.201   9.457   4.031 -0.1718 -0.7425  0.0549
  430MOL0     C59213   1.099   9.462   3.919  0.4353  0.5267  0.5426
  430MOL0     C59214   1.017   9.335   3.923  1.1987 -0.5816  0.2408
  430MOL0     C59215   1.070   9.224   3.824  0.2181 -0.7131 -0.5262
  430MOL0     C59216   0.968   9.111   3.812  0.2683 -0.5234 -0.7728
  430MOL0     C59217   0.946   9.052   3.956 -0.6135 -0.4707  0.0353
  430MOL0     C59218   0.873   8.915   3.949 -0.9247 -0.5298  0.0651
  430MOL0     N59219   0.945   8.802   3.889  0.2574 -0.7026 -0.8357
  430MOL0     C59220   1.074   8.755   3.925  0.5637  0.0527 -0.8604
  430MOL0     C59221   1.093   8.646   3.840  0.3731 -0.5066 -0.3759
  430MOL0     C59222   1.203   8.552   3.825  0.3151  0.4303 -0.1935
  430MOL0     C59223   1.248   8.485   3.952  0.1278 -0.5806  0.2929
  430MOL0     C59224   1.161   8.372   3.996  0.5579 -0.3036 -0.3266
  430MOL0     C59225   1.238   8.295   4.116 -0.3650 -0.6555 -0.2466
  430MOL0     O59226   1.135   8.212   4.178  0.1664  1.2147 -0.1314
  430MOL0     C59227   1.159   8.135   4.288  0.0980 -0.8686 -0.5427
  430MOL0     C59228   1.281   8.124   4.353  0.1621 -0.4359 -0.6549
  430MOL0     C59229   1.289   8.060   4.481 -0.0515 -0.0898 -0.0167
  430MOL0     C59230   1.424   8.067   4.541  0.3452 -0.0224 -0.5858
  430MOL0     C59231   1.173   7.987   4.531 -0.5273  0.2022  0.1011
  430MOL0     C59232   1.175   7.917   4.657  0.0689  0.9917 -0.3668
  430MOL0     O59233   1.056   7.876   4.697 -0.0102 -0.9934 -0.4287
  430MOL0     C59234   1.035   7.845   4.824  0.1775  0.4343 -1.3631
  430MOL0     C59235   0.944   7.741   4.837 -0.6978 -1.2941 -0.3643
  430MOL0     C59236   0.901   7.703   4.969 -0.2249 -0.4388 -0.3889
  430MOL0     C59237   0.943   7.784   5.083  0.8344 -0.2924  0.2040
  430MOL0     O59238   0.898   7.747   5.206 -0.6032  0.0826  0.3784
  430MOL0     C59239   0.815   7.836   5.273 -0.5069 -0.1842 -0.3485
  430MOL0     C59240   0.664   7.807   5.233 -0.2839  1.0041 -0.4418
  430MOL0     C59241   0.628   7.662   5.254 -0.5799 -0.7469 -0.0155
  430MOL0     C59242   0.484   7.621   5.219 -0.3359  0.0806  0.6197
  430MOL0     C59243   0.457   7.480   5.218  0.3140  0.6035 -0.6889
  430MOL0     C59244   0.310   7.440   5.230 -0.0534 -0.0809 -0.3787
  430MOL0     C59245   0.274   7.294   5.224  0.0600  0.2452  0.1063
  430MOL0     C59246   0.143   7.259   5.293  0.6823 -0.1748  0.2484
  430MOL0    Cl59247   0.151   7.084   5.325 -0.0352 -0.0876 -0.2133
  430MOL0     C59248   1.033   7.882   5.066  0.4212  0.1419 -0.1498
  430MOL0     C59249   1.068   7.923   4.936 -0.2829  0.6938 -0.4956
  430MOL0     O59250   1.277   7.901   4.719 -0.3623 -0.2383  0.1201
  430MOL0     C59251   1.056   7.992   4.451  0.5496  0.5891 -0.0508
  430MOL0     C59252   1.046   8.070   4.340 -0.9421  0.4426 -0.6190
  430MOL0     N59253   0.978   8.627   3.769 -0.3707 -0.5357  0.2841
  430MOL0     N59254   0.898   8.725   3.788 -0.0156  0.0482 -0.7106
  430MOL0     C59255   1.513   9.702   4.332  0.1442  0.7474  0.4400
  430MOL0     C59256   1.594   9.815   4.362  0.0747 -0.1835 -0.8710
  430MOL0     C59257   1.800  10.192   4.449 -0.9226  0.4315 -0.0741
  430MOL0     C59258   1.702  10.287   4.473  0.5714 -0.1242 -0.3221
  430MOL0     C59259   1.724  10.408   4.525  0.0734  0.6330  1.0782
  430MOL0     C59260   1.861  10.449   4.551  0.0040 -0.3126 -0.5100
  430MOL0     O59261   1.912  10.574   4.590 -0.0267  0.2943  0.2424
  430MOL0     C59262   1.820  10.686   4.605 -0.3453  1.1144 -0.8244
  430MOL0     C59263   1.864  10.799   4.511  0.0314  0.3732  0.2283
  430MOL0     C59264   2.012  10.838   4.521  0.6607  0.3417 -0.7736
  430MOL0     C59265   2.042  10.965   4.454  0.4715  0.5324  0.2538
  430MOL0     C59266   2.049  10.930   4.312  0.4660 -0.1900  0.1870
  430MOL0     C59267   2.058  10.923   4.195 -0.2795  0.6323  0.0186
  430MOL0     C59268   1.964  10.357   4.535 -0.5848 -0.9080 -0.3691
  430MOL0     C59269   1.934  10.223   4.484  0.4093  0.3007  0.0538
  430MOL0     C59270   2.057  10.138   4.464 -0.1015 -0.1905 -1.1760
  430MOL0     H59271   1.441  10.025   4.135 -2.8846 -0.7269  0.5417
  430MOL0     H59272   1.329   9.838   4.081 -0.2556 -0.4910 -0.1532
  430MOL0     H59273   1.313   9.623   3.984 -0.6299  0.1107 -0.6859
  430MOL0     H59274   1.179   9.657   4.096  1.0556  0.6521  1.5086
  430MOL0     H59275   1.285   9.390   4.012 -1.2995 -1.6573 -2.0365
  430MOL0     H59276   1.137   9.421   4.113 -1.5031 -3.4085 -2.0043
  430MOL0     H59277   1.030   9.544   3.937  0.9797  1.2585 -0.5706
  430MOL0     H59278   1.137   9.461   3.816 -1.2997  0.0586 -0.1285
  430MOL0     H59279   1.002   9.292   4.023  2.7145 -1.1530  0.2552
  430MOL0     H59280   0.916   9.361   3.893  2.1757  1.9986 -1.1367
  430MOL0     H59281   1.162   9.176   3.859 -0.4615 -1.3848  0.3801
  430MOL0     H59282   1.093   9.267   3.726 -1.0981 -1.7875 -1.3371
  430MOL0     H59283   0.880   9.161   3.770  1.0865  1.4479 -0.2586
  430MOL0     H59284   0.998   9.039   3.734  0.6891 -0.0054 -1.0962
  430MOL0     H59285   0.885   9.122   4.014 -1.1484  3.2981 -4.4824
  430MOL0     H59286   1.040   9.035   4.008 -2.0544 -4.9087  1.6432
  430MOL0     H59287   0.843   8.892   4.052  0.2156  0.5038  0.6549
  430MOL0     H59288   0.780   8.925   3.892 -0.3559 -1.1570 -0.9992
  430MOL0     H59289   1.145   8.776   4.004  0.7162 -1.0031 -0.7028
  430MOL0     H59290   1.284   8.607   3.778 -0.9959 -0.5919 -4.0324
  430MOL0     H59291   1.167   8.470   3.763  0.1035  1.0093 -0.8447
  430MOL0     H59292   1.350   8.451   3.936 -0.4959 -1.5585 -2.0228
  430MOL0     H59293   1.257   8.561   4.031 -0.8177 -0.8917  0.7133
  430MOL0     H59294   1.066   8.410   4.035  1.1959  2.3234 -1.1247
  430MOL0     H59295   1.145   8.297   3.917  0.6563  0.3272 -0.9583
  430MOL0     H59296   1.314   8.227   4.078 -0.9377 -1.3245 -0.2209
  430MOL0     H59297   1.280   8.366   4.188 -1.5461  0.4287 -0.5881
  430MOL0     H59298   1.367   8.170   4.306 -1.6742  4.1193 -0.1203
  430MOL0     H59299   1.496   8.114   4.473  1.6770 -1.0413  0.0608
  430MOL0     H59300   1.477   7.975   4.567  3.8497  1.1634 -2.7784
  430MOL0     H59301   1.411   8.122   4.635  1.9750 -2.5389  1.2236
  430MOL0     H59302   0.911   7.678   4.755 -3.2039 -1.3269  0.5844
  430MOL0     H59303   0.842   7.615   4.991  1.5521 -1.6321 -0.2868
  430MOL0     H59304   0.851   7.842   5.376  1.6074  0.2394 -1.0636
  430MOL0     H59305   0.829   7.940   5.241 -2.0345  1.6776  4.1951
  430MOL0     H59306   0.609   7.866   5.307 -0.2118  0.3544  0.1378
  430MOL0     H59307   0.644   7.842   5.131  2.9615 -3.2984 -2.8843
  430MOL0     H59308   0.654   7.638   5.357  4.3479 -0.0580 -0.8562
  430MOL0     H59309   0.688   7.600   5.186  1.7129 -1.4236  2.4533
  430MOL0     H59310   0.465   7.649   5.115  0.6133 -1.7701 -0.0988
  430MOL0     H59311   0.408   7.674   5.276  0.1734  0.1321  1.2570
  430MOL0     H59312   0.493   7.424   5.131  0.8704 -2.3874  1.3448
  430MOL0     H59313   0.503   7.436   5.307 -2.4395 -1.6429 -0.2533
  430MOL0     H59314   0.251   7.486   5.150  0.7585  0.9838 -0.3931
  430MOL0     H59315   0.275   7.476   5.327 -1.9447  0.2911 -1.1437
  430MOL0     H59316   0.349   7.266   5.299 -0.3984  0.7952  0.7832
  430MOL0     H59317   0.295   7.245   5.129 -0.8588 -1.2087  0.6317
  430MOL0     H59318   0.054   7.285   5.235  0.1805 -0.0269  1.0624
  430MOL0     H59319   0.124   7.312   5.387 -1.0526 -1.9179  0.9446
  430MOL0     H59320   1.071   7.943   5.147 -1.6042  1.4252 -0.1044
  430MOL0     H59321   1.136   8.007   4.919 -0.8444  1.1831 -0.3714
  430MOL0     H59322   0.966   7.946   4.491 -0.5724  2.4083 -0.3973
  430MOL0     H59323   0.952   8.060   4.287 -2.5638  3.7394  1.3016
  430MOL0     H59324   1.541   9.621   4.398  1.4243  0.7729 -0.0274
  430MOL0     H59325   1.656   9.793   4.449  0.1405 -2.2590 -1.3978
  430MOL0     H59326   1.596  10.267   4.462 -0.2298  3.1261  0.5634
  430MOL0     H59327   1.633  10.465   4.541  0.1716  1.5130 -1.0548
  430MOL0     H59328   1.717  10.654   4.585 -0.1878 -1.3692  1.6797
  430MOL0     H59329   1.819  10.722   4.709  2.3011 -0.3427 -0.2246
  430MOL0     H59330   1.802  10.888   4.521  0.9969  0.8887  1.8564
  430MOL0     H59331   1.848  10.757   4.411 -1.0374 -0.0090  0.5477
  430MOL0     H59332   2.035  10.848   4.628 -0.7097  0.4199 -0.4581
  430MOL0     H59333   2.083  10.766   4.481  0.0587 -1.0016  0.4853
  430MOL0     H59334   2.135  11.016   4.482 -0.1818  2.2442 -0.5280
  430MOL0     H59335   1.960  11.035   4.473 -0.0125 -0.1603  0.7118
  430MOL0     H59336   2.066  10.917   4.088 -0.2802  0.7123  0.0144
  430MOL0     H59337   2.066  10.388   4.558 -0.7833 -0.7410  0.2950
  430MOL0     H59338   2.049  10.034   4.496 -1.1575 -0.5136 -2.4478
  430MOL0     H59339   2.086  10.135   4.359 -2.2292 -2.0703 -1.7830
  430MOL0     H59340   2.136  10.183   4.525 -1.2829  1.6810 -0.9428
  431MOL0     O59341   3.098   9.632   3.043 -0.7271 -0.4094 -0.6480
  431MOL0     C59342   3.123   9.743   2.994  1.0006  0.8017  0.2481
  431MOL0     O59343   3.220   9.830   3.035 -0.1553 -0.1385  0.0379
  431MOL0     C59344   3.307   9.787   3.132 -0.2184 -0.2190  0.7297
  431MOL0     C59345   3.423   9.725   3.095 -0.2987  0.1671 -1.7649
  431MOL0     C59346   3.517   9.690   3.196  0.9725  0.5897 -0.6557
  431MOL0     C59347   3.500   9.733   3.329 -0.3848  1.4278  0.1008
  431MOL0     O59348   3.599   9.692   3.416  0.0307 -0.1902 -0.5020
  431MOL0     C59349   3.563   9.656   3.556  0.6825 -0.9250 -0.6593
  431MOL0     C59350   3.669   9.570   3.618 -0.7077 -0.0001 -0.0694
  431MOL0     C59351   3.786   9.652   3.675 -0.5918 -0.3898  0.2529
  431MOL0     C59352   3.903   9.661   3.574  0.7264 -0.3871  0.6340
  431MOL0     C59353   4.020   9.738   3.622  0.5078 -0.0032  0.0899
  431MOL0     C59354   4.084   9.709   3.754 -0.4623 -0.4781 -0.1171
  431MOL0     C59355   4.194   9.821   3.764 -0.4053 -0.3002 -0.5311
  431MOL0     C59356   4.306   9.777   3.860  0.7741  0.1751  0.2757
  431MOL0     N59357   4.418   9.883   3.855 -0.1200 -0.0377  0.5954
  431MOL0     C59358   4.551   9.872   3.832  0.0696  0.3262  0.0161
  431MOL0     C59359   4.605   9.990   3.859 -0.4494  0.3194 -0.4310
  431MOL0     C59360   4.754  10.024   3.869 -0.8133 -0.0104 -0.0279
  431MOL0     C59361   4.799  10.115   3.753 -0.4565  0.2163  0.2902
  431MOL0     C59362   4.911  10.207   3.805  0.4309  0.2678 -0.3332
  431MOL0     C59363   4.941  10.311   3.690 -0.3888  1.1504 -0.3527
  431MOL0     O59364   4.995  10.224   3.588 -0.2909 -0.4770  0.0907
  431MOL0     C59365   4.984  10.257   3.457 -0.0144  0.0299 -0.1450
  431MOL0     C59366   4.915  10.373   3.415  0.0698  0.9928  0.1675
  431MOL0     C59367   4.918  10.405   3.278  0.5867 -0.7311 -0.7012
  431MOL0     C59368   4.849  10.535   3.232 -0.4967  0.2148 -0.2848
  431MOL0     C59369   4.978  10.314   3.190  0.4619  0.0758  1.8788
  431MOL0     C59370   4.973  10.333   3.037  0.5329  1.5408 -0.2807
  431MOL0     O59371   5.035  10.238   2.959 -0.4173 -0.0023 -0.5987
  431MOL0     C59372   5.052  10.261   2.825  0.1609  0.6457 -0.4865
  431MOL0     C59373   5.005  10.161   2.739  0.9944  0.2293  0.1065
  431MOL0     C59374   5.011  10.177   2.598 -0.1370  0.3330  0.2147
  431MOL0     C59375   5.076  10.287   2.547  1.0778  0.2096 -0.6690
  431MOL0     O59376   5.109  10.307   2.416 -0.3702 -0.0288  0.6612
  431MOL0     C59377   5.048  10.419   2.350  0.4179  0.0043 -0.2284
  431MOL0     C59378   5.059  10.409   2.201  0.5877 -0.4972  0.3412
  431MOL0     C59379   4.975  10.530   2.131  0.2956  0.5584  0.8084
  431MOL0     C59380   5.020  10.571   1.988  0.9040  0.3768  0.0055
  431MOL0     C59381   4.955  10.482   1.881 -0.2576 -0.5276 -0.7135
  431MOL0     C59382   4.946  10.559   1.740  0.0651  0.4182 -2.1504
  431MOL0     C59383   4.888  10.470   1.634  0.6483 -0.5753 -0.0119
  431MOL0     C59384   4.977  10.354   1.583 -0.3340  0.0801 -0.4619
  431MOL0    Cl59385   4.893  10.274   1.441  0.2201 -0.0537  0.5031
  431MOL0     C59386   5.127  10.383   2.634  0.5751 -0.3711  0.2485
  431MOL0     C59387   5.122  10.367   2.774 -0.2406  0.1265  0.9524
  431MOL0     O59388   4.916  10.428   2.994 -0.7402  0.1763  0.1507
  431MOL0     C59389   5.040  10.198   3.234  0.4382 -0.4703  0.1468
  431MOL0     C59390   5.048  10.173   3.366  0.4029  0.3863 -0.1215
  431MOL0     N59391   4.503  10.072   3.903  0.3728  0.1562 -0.4364
  431MOL0     N59392   4.394  10.010   3.898  0.3080  0.6399  0.0965
  431MOL0     C59393   3.383   9.804   3.364 -0.0306 -0.1322  0.2652
  431MOL0     C59394   3.284   9.831   3.266  0.2908  0.1208  0.6114
  431MOL0     C59395   3.037   9.796   2.886 -0.1610 -1.0177 -0.6507
  431MOL0     C59396   3.102   9.866   2.785  0.3649 -0.1685  0.7660
  431MOL0     C59397   3.027   9.929   2.689  0.6755  0.9308 -0.1275
  431MOL0     C59398   2.892   9.917   2.685  1.2790 -0.5871 -0.5328
  431MOL0     O59399   2.833   9.976   2.578 -0.0756  0.2473  0.3598
  431MOL0     C59400   2.698   9.932   2.544 -0.1384  0.5701  0.2844
  431MOL0     C59401   2.649   9.991   2.406  0.4412 -0.0265 -0.8111
  431MOL0     C59402   2.502   9.970   2.378 -0.1809  0.7667  0.2141
  431MOL0     C59403   2.455   9.826   2.338  0.3682  0.3245 -0.6094
  431MOL0     C59404   2.460   9.811   2.196 -0.1582 -0.0037  1.0564
  431MOL0     C59405   2.461   9.788   2.076  0.4475 -0.8626  0.4423
  431MOL0     C59406   2.825   9.844   2.782 -0.5627  0.5464 -0.1083
  431MOL0     C59407   2.895   9.781   2.883  0.3620 -0.5668 -0.0214
  431MOL0     C59408   2.816   9.700   2.973  0.0454  0.4884 -0.4323
  431MOL0     H59409   3.440   9.701   2.991  2.3777  1.2700 -1.6572
  431MOL0     H59410   3.604   9.629   3.170  1.9399  2.1456 -1.2031
  431MOL0     H59411   3.468   9.602   3.549  0.4462 -0.3249 -2.7836
  431MOL0     H59412   3.539   9.749   3.609  0.0797 -1.2502 -0.3518
  431MOL0     H59413   3.624   9.520   3.705  1.9075 -1.3865  0.5871
  431MOL0     H59414   3.704   9.486   3.557 -1.1073 -0.7283  0.6657
  431MOL0     H59415   3.756   9.748   3.718  0.0205  0.2597 -0.7219
  431MOL0     H59416   3.824   9.592   3.758  1.9976  0.6347 -0.1079
  431MOL0     H59417   3.930   9.562   3.536 -2.0902 -0.9109 -0.2194
  431MOL0     H59418   3.857   9.724   3.497  0.2149 -0.3407  0.9722
  431MOL0     H59419   3.984   9.840   3.631  1.9613  0.6869 -1.2858
  431MOL0     H59420   4.090   9.742   3.537  1.1712  0.4843  0.6518
  431MOL0     H59421   4.016   9.709   3.840  2.2914 -1.6686  2.2113
  431MOL0     H59422   4.128   9.609   3.752  2.4132  0.6887 -1.1531
  431MOL0     H59423   4.148   9.912   3.804  0.1740 -0.9224  1.6457
  431MOL0     H59424   4.226   9.843   3.661 -0.1874 -0.2281 -0.4470
  431MOL0     H59425   4.260   9.768   3.959 -0.9607 -1.6274 -0.6111
  431MOL0     H59426   4.339   9.675   3.841 -2.1103 -0.6312 -1.1597
  431MOL0     H59427   4.602   9.786   3.789 -1.2943 -1.0649  1.0707
  431MOL0     H59428   4.810   9.930   3.874 -1.9659 -0.7006  4.9289
  431MOL0     H59429   4.768  10.065   3.969  0.5082 -0.5557  0.0280
  431MOL0     H59430   4.831  10.050   3.670 -2.9342 -0.5311 -0.1744
  431MOL0     H59431   4.710  10.176   3.732 -1.2272 -0.2284  2.1081
  431MOL0     H59432   4.878  10.256   3.897 -1.0089 -2.1484  0.5265
  431MOL0     H59433   5.000  10.147   3.826  0.3132 -0.2009 -1.1346
  431MOL0     H59434   4.849  10.365   3.665 -0.5989  1.1981  0.4935
  431MOL0     H59435   5.022  10.379   3.720  0.1725  0.2623  0.2116
  431MOL0     H59436   4.867  10.435   3.490  1.6442  0.7134  1.4827
  431MOL0     H59437   4.831  10.597   3.320 -1.7483  1.5724 -1.4521
  431MOL0     H59438   4.750  10.520   3.187 -2.4585  4.1592  2.2168
  431MOL0     H59439   4.923  10.585   3.169  3.0726 -2.1456  1.6916
  431MOL0     H59440   4.937  10.090   2.785  2.8237 -0.8226  1.2943
  431MOL0     H59441   4.962  10.099   2.542 -1.6686  1.0868  0.4485
  431MOL0     H59442   4.943  10.425   2.378  1.1911 -1.9052  3.9332
  431MOL0     H59443   5.095  10.514   2.376  3.7055 -1.5294  0.0323
  431MOL0     H59444   5.159  10.398   2.160 -0.0818  0.2420 -1.5883
  431MOL0     H59445   5.020  10.315   2.162  1.2746 -1.0046  0.8653
  431MOL0     H59446   4.979  10.622   2.190 -1.7812  1.1898  0.0786
  431MOL0     H59447   4.871  10.494   2.133 -0.3511  2.2754  0.1163
  431MOL0     H59448   5.129  10.569   1.990  0.9538 -2.3344  3.6233
  431MOL0     H59449   4.979  10.671   1.970 -3.8360 -1.1765  0.7363
  431MOL0     H59450   5.015  10.391   1.875  3.6117  1.7961 -0.8043
  431MOL0     H59451   4.850  10.461   1.906 -0.9487 -1.6181 -4.0813
  431MOL0     H59452   5.051  10.577   1.718  0.8999 -1.1771  0.1243
  431MOL0     H59453   4.894  10.654   1.755 -1.6776 -0.8153  0.5127
  431MOL0     H59454   4.861  10.535   1.551 -1.1370 -1.4338 -0.1495
  431MOL0     H59455   4.796  10.432   1.678  0.1924 -1.6735 -1.8008
  431MOL0     H59456   5.014  10.292   1.666 -1.8569  2.5145  2.2365
  431MOL0     H59457   5.072  10.393   1.545 -0.4750 -0.2889 -1.2067
  431MOL0     H59458   5.170  10.478   2.603 -0.7106  0.3100  0.4638
  431MOL0     H59459   5.183  10.425   2.843  1.4055  0.5035 -0.7528
  431MOL0     H59460   5.089  10.131   3.163 -1.2642 -1.6383  0.0216
  431MOL0     H59461   5.113  10.091   3.398 -1.9186 -1.5243  0.0046
  431MOL0     H59462   3.360   9.824   3.468  0.4122 -2.0872  0.7907
  431MOL0     H59463   3.187   9.878   3.279 -1.9240 -4.5695  4.3354
  431MOL0     H59464   3.207   9.892   2.782 -0.2287  2.5403  0.1844
  431MOL0     H59465   3.079   9.991   2.617 -0.7487  2.3752  0.0301
  431MOL0     H59466   2.688   9.824   2.531 -1.3754  1.0006 -3.9772
  431MOL0     H59467   2.631   9.968   2.623  1.3250  2.4827  0.7416
  431MOL0     H59468   2.708   9.972   2.316  1.5685  4.0324 -1.0990
  431MOL0     H59469   2.668  10.096   2.430  0.6621 -0.4086  0.7913
  431MOL0     H59470   2.451  10.010   2.465  1.1361 -1.2632  2.0212
  431MOL0     H59471   2.478  10.038   2.295  1.4208  2.6789  1.2222
  431MOL0     H59472   2.355   9.811   2.381  0.5832  1.0618  0.1823
  431MOL0     H59473   2.518   9.746   2.379  3.0980  3.1922  1.2845
  431MOL0     H59474   2.466   9.764   1.971  2.5968 -0.5558  0.4364
  431MOL0     H59475   2.717   9.838   2.771 -0.3619  0.1183 -2.4190
  431MOL0     H59476   2.790   9.598   2.941  1.1298  0.0266  0.1271
  431MOL0     H59477   2.872   9.696   3.067 -1.4641  1.5056  0.5552
  431MOL0     H59478   2.723   9.752   2.997  0.5992 -0.0745  3.6582
  432MOL0     O59479   3.971   8.273   5.110  1.2864 -0.1382 -0.3081
  432MOL0     C59480   4.056   8.207   5.058  0.2841  0.0294  0.1413
  432MOL0     O59481   4.173   8.260   5.005 -0.2968  0.1055  0.5721
  432MOL0     C59482   4.201   8.392   5.015  0.8488 -0.4329 -0.3139
  432MOL0     C59483   4.105   8.484   4.971  0.5546  0.0541  0.1903
  432MOL0     C59484   4.142   8.616   4.955 -0.3555 -0.1850  0.7500
  432MOL0     C59485   4.257   8.672   5.010  0.9972 -0.0298 -0.4358
  432MOL0     O59486   4.314   8.797   5.005 -0.0591 -1.2872 -0.0917
  432MOL0     C59487   4.233   8.907   5.059  0.4488 -0.4463 -0.0288
  432MOL0     C59488   4.322   9.022   5.062  0.2959  0.7431  0.3519
  432MOL0     C59489   4.292   9.142   5.151  0.8055  0.4358  0.8403
  432MOL0     C59490   4.362   9.145   5.282  0.4348 -1.0154  0.2252
  432MOL0     C59491   4.325   9.281   5.351  0.0067  1.6161  0.1863
  432MOL0     C59492   4.320   9.265   5.504 -0.4924  0.2322  0.1594
  432MOL0     C59493   4.317   9.405   5.568 -0.1596  0.1056  0.3326
  432MOL0     C59494   4.303   9.385   5.722  0.0108  0.6950 -0.3555
  432MOL0     N59495   4.351   9.501   5.793 -0.2229 -0.7321 -0.1331
  432MOL0     C59496   4.483   9.533   5.819  0.0783  0.0478  0.2992
  432MOL0     C59497   4.476   9.636   5.907  0.0245  0.3654  0.3612
  432MOL0     C59498   4.588   9.716   5.964 -0.0067 -0.4367  0.5472
  432MOL0     C59499   4.601   9.687   6.112 -0.8824 -0.2883  0.6853
  432MOL0     C59500   4.724   9.756   6.160 -0.8577 -0.5189  0.4364
  432MOL0     C59501   4.699   9.909   6.166  0.2965  0.4829  0.0736
  432MOL0     O59502   4.734   9.964   6.292  0.5313  0.4812 -0.2018
  432MOL0     C59503   4.867   9.974   6.315 -0.3932  0.1375  0.2009
  432MOL0     C59504   4.925   9.934   6.434  0.6201  0.1793  0.0671
  432MOL0     C59505   5.052   9.958   6.471  0.2650 -0.0352 -0.2448
  432MOL0     C59506   5.119   9.900   6.598  0.0632  0.9058  0.0657
  432MOL0     C59507   5.128  10.048   6.386 -0.9168  0.6406 -0.0015
  432MOL0     C59508   5.271  10.108   6.405 -0.0078 -0.2245  0.6435
  432MOL0     O59509   5.317  10.209   6.320  0.8709  0.1274  0.3746
  432MOL0     C59510   5.446  10.239   6.308 -0.1629  0.1928 -0.0118
  432MOL0     C59511   5.551  10.159   6.346 -0.1410 -0.8437 -0.2694
  432MOL0     C59512   5.682  10.207   6.334  0.6885  0.2505 -0.3896
  432MOL0     C59513   5.709  10.338   6.293 -0.5456  0.3478 -0.1591
  432MOL0     O59514   5.824  10.407   6.320 -0.5002 -0.1212  0.4054
  432MOL0     C59515   5.932  10.343   6.384 -0.3418  0.4469  0.5058
  432MOL0     C59516   6.058  10.420   6.345 -0.1072 -0.5454 -0.3873
  432MOL0     C59517   6.182  10.341   6.394 -0.4520  0.1714 -0.3373
  432MOL0     C59518   6.316  10.423   6.352 -0.0543 -0.3149 -0.9569
  432MOL0     C59519   6.348  10.526   6.471  0.5776  1.1399  0.3351
  432MOL0     C59520   6.471  10.612   6.444 -0.4824  0.6335  0.7032
  432MOL0     C59521   6.492  10.729   6.547 -0.0359  0.2343  0.0456
  432MOL0     C59522   6.594  10.824   6.493 -0.0944  0.7415  0.0410
  432MOL0    Cl59523   6.530  10.922   6.352 -0.0086 -0.2626  0.1012
  432MOL0     C59524   5.602  10.413   6.258  0.1851 -0.4081  0.2131
  432MOL0     C59525   5.475  10.362   6.258 -0.0097 -0.5323 -0.9369
  432MOL0     O59526   5.331  10.077   6.506 -0.7545 -0.2107 -0.0176
  432MOL0     C59527   5.072  10.091   6.269 -0.2168 -0.0565  0.3016
  432MOL0     C59528   4.941  10.061   6.236 -0.0782 -0.0864 -0.9383
  432MOL0     N59529   4.344   9.667   5.930 -0.0083 -0.3423 -0.3852
  432MOL0     N59530   4.270   9.583   5.861  0.7815 -0.0876 -0.7646
  432MOL0     C59531   4.353   8.570   5.048 -1.5356 -0.5762  0.7946
  432MOL0     C59532   4.329   8.434   5.045 -0.3729 -0.3583 -0.3063
  432MOL0     C59533   4.047   8.063   5.042  0.5845  0.4762 -0.6497
  432MOL0     C59534   4.152   7.983   4.982 -0.1706 -0.3426 -0.6184
  432MOL0     C59535   4.155   7.843   4.981  0.7806 -0.2652 -0.4344
  432MOL0     C59536   4.054   7.773   5.028  1.0131 -0.2057  0.1625
  432MOL0     O59537   4.059   7.638   4.999 -0.3661 -0.2341  0.1965
  432MOL0     C59538   3.973   7.547   5.076 -0.1761 -0.6876 -0.0451
  432MOL0     C59539   3.988   7.416   5.019 -0.5956  0.3037  0.6085
  432MOL0     C59540   3.897   7.389   4.903 -0.1502  0.4352 -0.0903
  432MOL0     C59541   3.781   7.298   4.939  0.0649  0.3781  0.3068
  432MOL0     C59542   3.703   7.270   4.814  0.3174 -0.1019  0.0056
  432MOL0     C59543   3.625   7.268   4.716 -0.5738 -0.3894  0.1514
  432MOL0     C59544   3.941   7.843   5.081  0.3369  0.3948 -0.1988
  432MOL0     C59545   3.933   7.984   5.095 -0.3826  0.0241  0.3820
  432MOL0     C59546   3.812   8.031   5.172 -0.2152  0.0390  0.9009
  432MOL0     H59547   4.011   8.451   4.930 -1.4746  3.9212  1.2228
  432MOL0     H59548   4.072   8.687   4.914 -0.7447 -0.1483  1.4678
  432MOL0     H59549   4.189   8.883   5.156 -3.3788 -0.0862 -1.4919
  432MOL0     H59550   4.149   8.936   4.994 -0.1757 -2.4479 -0.1771
  432MOL0     H59551   4.420   8.981   5.088 -0.6571 -3.8640 -2.1871
  432MOL0     H59552   4.341   9.063   4.962  0.0261 -1.3950 -0.6174
  432MOL0     H59553   4.308   9.236   5.097 -0.9125  0.4387  0.2831
  432MOL0     H59554   4.183   9.146   5.164  0.2953  2.7833 -2.8739
  432MOL0     H59555   4.339   9.054   5.339  0.2943  0.8914  3.4952
  432MOL0     H59556   4.471   9.151   5.273  0.6253  0.0995  2.5034
  432MOL0     H59557   4.231   9.326   5.320  0.0069  1.2629 -0.3475
  432MOL0     H59558   4.405   9.353   5.329  0.7659  0.8931  0.5344
  432MOL0     H59559   4.228   9.213   5.532 -1.2294  1.2488 -0.2991
  432MOL0     H59560   4.404   9.201   5.530 -1.2058 -1.9142 -2.3068
  432MOL0     H59561   4.228   9.461   5.538  0.6458  1.0651 -0.3722
  432MOL0     H59562   4.411   9.459   5.549  0.3813 -0.7349  0.5562
  432MOL0     H59563   4.200   9.362   5.750  0.3735  1.3540  1.7236
  432MOL0     H59564   4.361   9.298   5.753 -0.6254 -0.4430 -2.1964
  432MOL0     H59565   4.568   9.489   5.769 -0.8464 -0.2611 -1.0759
  432MOL0     H59566   4.580   9.821   5.934 -3.2853 -1.1016 -1.4034
  432MOL0     H59567   4.672   9.688   5.900  0.3076  1.8860 -0.1665
  432MOL0     H59568   4.513   9.723   6.167 -1.8570 -1.5330 -0.0230
  432MOL0     H59569   4.605   9.580   6.134 -1.8714  0.0266  2.6444
  432MOL0     H59570   4.749   9.713   6.258  0.8411 -2.4531 -0.7571
  432MOL0     H59571   4.810   9.736   6.095 -2.4465  1.4259 -2.4857
  432MOL0     H59572   4.750   9.959   6.083  1.9314 -0.4867  0.4527
  432MOL0     H59573   4.594   9.927   6.142 -0.1459 -0.5474  1.1492
  432MOL0     H59574   4.863   9.875   6.500 -2.0990  1.3644 -1.2662
  432MOL0     H59575   5.158   9.988   6.651  0.7671  1.2075 -0.9219
  432MOL0     H59576   5.196   9.824   6.580 -2.0073 -1.2312 -0.2227
  432MOL0     H59577   5.050   9.848   6.665 -0.3131  1.8508  0.4335
  432MOL0     H59578   5.530  10.057   6.377 -0.7507  0.1678  3.0054
  432MOL0     H59579   5.766  10.147   6.366  0.1884  1.6346  4.3261
  432MOL0     H59580   5.918  10.338   6.492 -0.5023 -1.5222  0.4295
  432MOL0     H59581   5.938  10.239   6.350 -0.7334  1.5280 -3.3770
  432MOL0     H59582   6.054  10.442   6.238  1.4875  0.8335 -0.2034
  432MOL0     H59583   6.054  10.514   6.400 -1.9052 -0.2204 -1.0097
  432MOL0     H59584   6.179  10.249   6.336 -1.4682 -0.1756  0.2498
  432MOL0     H59585   6.182  10.321   6.502  0.3232  3.9744  0.5368
  432MOL0     H59586   6.284  10.484   6.267 -0.1737 -1.7212 -1.9534
  432MOL0     H59587   6.401  10.358   6.328  2.7360  2.8167 -0.2591
  432MOL0     H59588   6.262  10.587   6.499  0.2616  0.5472  0.6782
  432MOL0     H59589   6.360  10.470   6.564 -0.0164  2.3687  1.1703
  432MOL0     H59590   6.455  10.666   6.350 -0.7700 -1.8335 -0.7709
  432MOL0     H59591   6.561  10.552   6.426 -0.9208  0.3781 -0.8485
  432MOL0     H59592   6.504  10.686   6.647 -1.9017 -2.3674 -0.7377
  432MOL0     H59593   6.398  10.787   6.550 -1.8105 -2.0737 -3.8737
  432MOL0     H59594   6.680  10.766   6.458  1.4535  0.6609  3.5762
  432MOL0     H59595   6.618  10.901   6.567  0.8802 -0.7079  1.2833
  432MOL0     H59596   5.594  10.513   6.216 -6.3665 -1.1494 -1.4071
  432MOL0     H59597   5.392  10.424   6.225 -0.0503  0.5438  1.0165
  432MOL0     H59598   5.124  10.151   6.194 -2.8958 -1.4003 -2.9209
  432MOL0     H59599   4.894  10.111   6.152  1.9091  1.8577 -0.9704
  432MOL0     H59600   4.449   8.612   5.077 -1.9542  0.5490  0.6213
  432MOL0     H59601   4.404   8.359   5.069 -1.2096 -1.1123  0.0360
  432MOL0     H59602   4.235   8.033   4.933 -0.9431  1.3360 -0.2852
  432MOL0     H59603   4.240   7.799   4.929  1.5361  1.3755 -0.6531
  432MOL0     H59604   4.007   7.566   5.178 -2.2305  2.0028  0.2797
  432MOL0     H59605   3.867   7.575   5.082  0.3203  1.2177  0.8015
  432MOL0     H59606   3.954   7.348   5.098 -1.7478  0.0603 -0.0655
  432MOL0     H59607   4.093   7.395   4.996  0.0873  0.6749  3.1169
  432MOL0     H59608   3.861   7.488   4.871 -1.6290 -0.3853 -1.1122
  432MOL0     H59609   3.956   7.343   4.823 -0.4833  0.7409 -0.5145
  432MOL0     H59610   3.715   7.351   5.008  1.1599 -0.1986  1.8745
  432MOL0     H59611   3.812   7.201   4.981 -0.2341 -0.4860 -1.3769
  432MOL0     H59612   3.549   7.269   4.641 -0.2241 -1.2746 -0.2176
  432MOL0     H59613   3.858   7.778   5.108  1.2743 -1.4492 -1.5034
  432MOL0     H59614   3.771   8.123   5.129  0.8885  0.0795 -0.0882
  432MOL0     H59615   3.725   7.964   5.176 -1.1648  1.2386  1.3710
  432MOL0     H59616   3.840   8.053   5.276  1.1180  2.9737  0.0389
  433MOL0     O59617  11.432   3.430   8.867  0.0415 -0.4188  0.1063
  433MOL0     C59618  11.358   3.528   8.847 -0.1215 -0.2002 -0.0243
  433MOL0     O59619  11.400   3.661   8.851 -0.3352  0.3166  0.1787
  433MOL0     C59620  11.537   3.683   8.859  1.1395  0.0193  0.5020
  433MOL0     C59621  11.595   3.768   8.952 -0.2710 -0.9274  0.0803
  433MOL0     C59622  11.729   3.801   8.957  0.5964  0.1745  0.3253
  433MOL0     C59623  11.811   3.733   8.874  0.7472  0.0304  0.1514
  433MOL0     O59624  11.946   3.771   8.863  0.7736  0.0508  0.2351
  433MOL0     C59625  12.006   3.831   8.974 -0.4144 -0.0852 -0.1106
  433MOL0     C59626  12.153   3.866   8.932  0.2863  0.2081  0.0614
  433MOL0     C59627  12.230   3.945   9.039  0.2971 -0.5573 -0.6389
  433MOL0     C59628  12.280   3.855   9.147  1.3298 -1.0968 -0.4649
  433MOL0     C59629  12.385   3.919   9.231 -0.3380  0.5947 -0.3968
  433MOL0     C59630  12.441   3.832   9.337 -0.7947  0.1329  0.0736
  433MOL0     C59631  12.543   3.900   9.427  0.1550  0.4098  0.1068
  433MOL0     C59632  12.688   3.869   9.364 -0.4418  0.6150 -0.2339
  433MOL0     N59633  12.789   3.932   9.455 -0.4553 -0.0545 -1.1836
  433MOL0     C59634  12.870   4.043   9.453  0.5211 -0.0600  0.3265
  433MOL0     C59635  12.966   4.028   9.537 -0.1859 -0.2637 -0.4279
  433MOL0     C59636  13.074   4.139   9.565 -0.1318 -0.8805  0.2858
  433MOL0     C59637  13.159   4.159   9.437  0.1013  0.5066  0.3028
  433MOL0     C59638  13.297   4.205   9.481 -0.0902 -0.2000  0.1183
  433MOL0     C59639  13.382   4.082   9.533  0.5555  0.7446  0.3463
  433MOL0     O59640  13.486   4.130   9.616 -0.0561  0.2474 -0.2729
  433MOL0     C59641  13.598   4.065   9.643  0.4634  0.0849 -0.4485
  433MOL0     C59642  13.708   4.142   9.670 -0.2410  0.2396  0.3506
  433MOL0     C59643  13.830   4.092   9.715 -0.2266  0.2649  0.2763
  433MOL0     C59644  13.952   4.190   9.718  0.5794  0.0886  0.3256
  433MOL0     C59645  13.825   3.964   9.774 -0.0968  0.2176  0.7386
  433MOL0     C59646  13.939   3.887   9.835 -0.4081  0.2831  0.1025
  433MOL0     O59647  14.061   3.927   9.804 -0.2869 -0.1358  0.5759
  433MOL0     C59648  14.171   3.903   9.881 -0.1767  0.6764 -1.4243
  433MOL0     C59649  14.292   3.971   9.839 -0.7579 -0.2121  0.3033
  433MOL0     C59650  14.413   3.948   9.896 -0.8079 -0.2716 -1.2707
  433MOL0     C59651  14.426   3.856  10.002  0.3571  0.2845 -1.1834
  433MOL0     O59652  14.555   3.815  10.028  0.5718 -0.3468  1.0442
  433MOL0     C59653  14.584   3.719  10.128 -0.5527 -0.0418  0.6692
  433MOL0     C59654  14.578   3.771  10.260  0.2554  0.1371  0.1657
  433MOL0     C59655  14.671   3.897  10.288  0.3011 -0.2029 -0.4625
  433MOL0     C59656  14.614   4.039  10.288  0.1101  0.5689  0.0976
  433MOL0     C59657  14.724   4.161  10.286 -0.0648  0.5238  0.3828
  433MOL0     C59658  14.813   4.173  10.407 -0.2907 -0.1643 -0.4543
  433MOL0     C59659  14.893   4.294  10.397 -0.5271 -0.2984 -0.9111
  433MOL0     C59660  14.984   4.307  10.518  0.4345 -0.1025  0.4991
  433MOL0    Cl59661  15.098   4.440  10.470  0.3067  0.2288  0.2426
  433MOL0     C59662  14.308   3.811  10.057  0.5457 -0.5117 -0.0700
  433MOL0     C59663  14.180   3.826  10.000 -0.2636  0.3826 -0.4353
  433MOL0     O59664  13.907   3.805   9.912  0.8773 -0.6873 -0.5268
  433MOL0     C59665  13.715   3.887   9.746 -0.2456  0.3451 -1.0119
  433MOL0     C59666  13.600   3.933   9.679  0.6411  0.4790  0.1006
  433MOL0     N59667  12.958   3.904   9.594  0.1539 -0.3623 -0.0958
  433MOL0     N59668  12.843   3.854   9.551 -0.0144  0.4465 -0.5750
  433MOL0     C59669  11.754   3.648   8.771  0.1377  0.3385  0.5861
  433MOL0     C59670  11.617   3.624   8.758 -0.4273  0.3971  0.0853
  433MOL0     C59671  11.213   3.491   8.829  0.2604 -1.2130 -1.5753
  433MOL0     C59672  11.121   3.594   8.805  0.0999  0.1307  0.1200
  433MOL0     C59673  10.984   3.575   8.795  0.6674  0.3788  0.2561
  433MOL0     C59674  10.925   3.444   8.788  0.8124 -0.1053 -0.2423
  433MOL0     O59675  10.791   3.435   8.776  0.3867 -0.1227  0.6166
  433MOL0     C59676  10.738   3.303   8.767 -0.1835  0.3874 -0.9780
  433MOL0     C59677  10.585   3.304   8.742 -0.0739 -0.4809  0.3523
  433MOL0     C59678  10.544   3.384   8.611 -0.3139  0.3370  0.0971
  433MOL0     C59679  10.391   3.355   8.577 -0.9193 -0.3789 -0.7813
  433MOL0     C59680  10.334   3.442   8.472 -0.5777  0.5807 -0.0675
  433MOL0     C59681  10.279   3.513   8.383 -0.3883  0.0313  0.0153
  433MOL0     C59682  11.014   3.337   8.789 -1.2880  0.2611  0.6433
  433MOL0     C59683  11.157   3.364   8.798  0.2858  0.0818  0.3560
  433MOL0     C59684  11.238   3.241   8.781 -1.0214  0.7145  0.7468
  433MOL0     H59685  11.541   3.814   9.034  0.7288 -0.1828  0.3423
  433MOL0     H59686  11.766   3.880   9.021  2.8643  1.0219 -1.8586
  433MOL0     H59687  12.010   3.764   9.060 -3.2139  1.9375  1.7877
  433MOL0     H59688  11.961   3.927   8.999 -1.6814 -0.4142 -0.9997
  433MOL0     H59689  12.203   3.772   8.907  0.1547  0.2072 -0.1959
  433MOL0     H59690  12.142   3.941   8.853 -0.0288  0.3034  0.1909
  433MOL0     H59691  12.311   3.990   8.982  2.9818 -2.9787  0.9988
  433MOL0     H59692  12.166   4.028   9.071  0.0554  0.4556 -3.4163
  433MOL0     H59693  12.198   3.812   9.204  0.3897 -0.2730 -1.1675
  433MOL0     H59694  12.331   3.774   9.095  1.4891 -1.1126 -0.2872
  433MOL0     H59695  12.339   4.013   9.263 -0.9337 -0.6480  2.6921
  433MOL0     H59696  12.467   3.946   9.163 -2.2513  2.3312 -2.1724
  433MOL0     H59697  12.370   3.798   9.413 -0.3330  1.0508  0.9361
  433MOL0     H59698  12.482   3.742   9.290  0.3697  0.6166  0.1339
  433MOL0     H59699  12.541   3.856   9.527  2.4071  1.4605  0.6750
  433MOL0     H59700  12.523   4.007   9.430 -0.7209  0.5448 -4.1309
  433MOL0     H59701  12.697   3.760   9.366 -1.1451  0.5573  1.6565
  433MOL0     H59702  12.707   3.902   9.261  0.3518  0.1509 -0.2359
  433MOL0     H59703  12.861   4.129   9.388  2.5831  0.6118  0.8552
  433MOL0     H59704  13.136   4.120   9.653 -0.2547 -3.3182 -0.0687
  433MOL0     H59705  13.020   4.232   9.587  1.5421 -0.0430  1.0935
  433MOL0     H59706  13.159   4.066   9.380  0.7807  0.6674  0.0287
  433MOL0     H59707  13.115   4.238   9.377 -1.3058 -1.9865 -2.1867
  433MOL0     H59708  13.350   4.252   9.398  1.4928 -1.8542  0.1250
  433MOL0     H59709  13.285   4.281   9.559  1.5300  1.7824 -1.4546
  433MOL0     H59710  13.320   4.010   9.586  1.3883  0.9506  1.6525
  433MOL0     H59711  13.429   4.028   9.450  0.8395  0.8236  0.4554
  433MOL0     H59712  13.709   4.246   9.637 -1.6260 -0.2325 -1.3481
  433MOL0     H59713  13.976   4.208   9.823 -1.5519  2.2398  0.5297
  433MOL0     H59714  13.934   4.291   9.679 -0.2587 -0.2170 -0.1075
  433MOL0     H59715  14.036   4.146   9.662 -1.4142 -1.0074 -2.0041
  433MOL0     H59716  14.290   4.034   9.751 -0.0759  1.6219  1.5108
  433MOL0     H59717  14.506   3.982   9.851 -2.2372  1.5947 -2.9793
  433MOL0     H59718  14.512   3.638  10.119  0.1809 -0.6474  0.0965
  433MOL0     H59719  14.682   3.673  10.110 -0.0084  1.8725 -1.8739
  433MOL0     H59720  14.474   3.797  10.283  0.4443  3.8916 -2.2970
  433MOL0     H59721  14.616   3.688  10.320  1.4692  0.5740  0.0306
  433MOL0     H59722  14.763   3.902  10.229  0.1270  2.3474 -0.6363
  433MOL0     H59723  14.716   3.877  10.385  0.8825  0.3184 -0.6176
  433MOL0     H59724  14.557   4.044  10.381  0.7514 -1.3286  0.6475
  433MOL0     H59725  14.548   4.040  10.200  0.9347 -1.3103 -0.6202
  433MOL0     H59726  14.797   4.140  10.207  1.6648  1.8144  1.5569
  433MOL0     H59727  14.666   4.252  10.264  1.2638  0.8928 -1.8553
  433MOL0     H59728  14.869   4.082  10.430  0.4034  0.1617 -0.8143
  433MOL0     H59729  14.746   4.185  10.493 -2.1337 -3.0543 -1.3362
  433MOL0     H59730  14.833   4.385  10.384 -2.5227 -1.6896 -1.7934
  433MOL0     H59731  14.957   4.293  10.308  0.7134 -2.9979 -0.0769
  433MOL0     H59732  15.043   4.216  10.525  1.0986  0.3037  0.3086
  433MOL0     H59733  14.923   4.321  10.608 -2.2031 -1.4919 -0.9660
  433MOL0     H59734  14.303   3.744  10.142  2.5832 -1.2799 -0.5039
  433MOL0     H59735  14.098   3.778  10.053 -0.3632  0.4868 -0.4956
  433MOL0     H59736  13.707   3.785   9.782  0.8869  1.3258  2.3651
  433MOL0     H59737  13.517   3.863   9.681  0.6011  0.5395  2.4811
  433MOL0     H59738  11.830   3.600   8.710  0.4601  2.0997 -0.4643
  433MOL0     H59739  11.578   3.568   8.673  2.1688  0.1762 -1.0364
  433MOL0     H59740  11.166   3.693   8.814  1.6588 -0.6964  2.1261
  433MOL0     H59741  10.909   3.653   8.801  2.1159  1.6676  2.6042
  433MOL0     H59742  10.789   3.246   8.689 -0.4104 -1.4262  0.1555
  433MOL0     H59743  10.760   3.258   8.864  0.9492 -0.8090 -1.7550
  433MOL0     H59744  10.529   3.343   8.827  3.3131  1.9417  1.7015
  433MOL0     H59745  10.559   3.199   8.731  1.0756 -0.6228 -1.4598
  433MOL0     H59746  10.559   3.492   8.618  0.0537  0.4562 -1.8922
  433MOL0     H59747  10.614   3.342   8.538 -0.1066 -0.5672  0.7890
  433MOL0     H59748  10.328   3.370   8.666 -0.7014  0.8777 -0.8152
  433MOL0     H59749  10.399   3.255   8.534 -2.1911 -0.5928 -0.5428
  433MOL0     H59750  10.244   3.568   8.298 -1.5496 -0.0937  0.3945
  433MOL0     H59751  10.988   3.233   8.773 -0.3833  0.2595 -1.0378
  433MOL0     H59752  11.278   3.223   8.881 -1.0090  0.2621  0.6618
  433MOL0     H59753  11.191   3.144   8.759 -0.4529 -0.5947  4.4765
  433MOL0     H59754  11.320   3.254   8.710 -0.2787 -0.8300  1.2644
  434MOL0     O59755   6.387   7.954   9.817 -0.8183 -0.2474 -0.1417
  434MOL0     C59756   6.332   7.971   9.708 -0.6104  0.8863  0.9924
  434MOL0     O59757   6.403   7.965   9.590 -0.6121 -0.3924  0.0453
  434MOL0     C59758   6.532   7.917   9.596  0.8569 -0.6860  0.8276
  434MOL0     C59759   6.625   7.986   9.516 -0.4340  0.9048 -0.1039
  434MOL0     C59760   6.761   7.948   9.520 -0.3228  0.0209  0.3742
  434MOL0     C59761   6.803   7.835   9.582 -0.9878 -0.4752 -0.7085
  434MOL0     O59762   6.937   7.815   9.585 -0.0698 -0.1916 -0.6449
  434MOL0     C59763   6.998   7.738   9.691 -0.0254  0.4021  0.0813
  434MOL0     C59764   7.146   7.720   9.655  0.5654  0.0416 -0.6830
  434MOL0     C59765   7.215   7.852   9.692 -0.3477  0.4459  0.6589
  434MOL0     C59766   7.363   7.834   9.708  1.2305  0.5277  0.2360
  434MOL0     C59767   7.437   7.957   9.758 -0.0226  0.4558 -0.4946
  434MOL0     C59768   7.428   7.981   9.912 -0.1014 -0.3986  0.2012
  434MOL0     C59769   7.491   8.131   9.941  0.0190  0.6810  0.4026
  434MOL0     C59770   7.426   8.190  10.057  0.0813  0.4163 -0.4101
  434MOL0     N59771   7.476   8.325  10.102  0.1192 -0.4463  0.4130
  434MOL0     C59772   7.610   8.361  10.091 -0.2515 -0.3441  0.1088
  434MOL0     C59773   7.616   8.491  10.129 -0.2831  0.7933  0.8948
  434MOL0     C59774   7.725   8.581  10.133 -0.1027 -0.8174  0.9596
  434MOL0     C59775   7.807   8.567  10.253  0.2069  0.5626 -0.0837
  434MOL0     C59776   7.894   8.702  10.265  0.6440 -0.6429  0.0338
  434MOL0     C59777   7.993   8.695  10.386 -0.0006  0.1277 -0.2203
  434MOL0     O59778   8.065   8.578  10.365 -0.6161  0.3760 -0.8012
  434MOL0     C59779   8.149   8.526  10.462  0.0252  0.1674 -0.3130
  434MOL0     C59780   8.236   8.428  10.431  0.9523  0.1328 -0.1124
  434MOL0     C59781   8.316   8.371  10.520  0.2524 -0.4327 -0.4413
  434MOL0     C59782   8.434   8.279  10.475  0.3709  0.9121  0.5316
  434MOL0     C59783   8.309   8.413  10.656  1.1461 -0.2257  0.5216
  434MOL0     C59784   8.380   8.345  10.767  0.5138  1.7060  0.1733
  434MOL0     O59785   8.404   8.207  10.762  0.6179 -0.1591  0.0368
  434MOL0     C59786   8.500   8.147  10.835  0.1367  0.4341  0.4860
  434MOL0     C59787   8.636   8.207  10.851  0.9440  0.6160 -0.0344
  434MOL0     C59788   8.730   8.131  10.920  0.8458 -1.0151 -0.2599
  434MOL0     C59789   8.700   8.004  10.963 -0.1272 -0.0459  0.4955
  434MOL0     O59790   8.806   7.928  11.015  0.1746 -0.6720 -0.9079
  434MOL0     C59791   8.880   8.004  11.115 -0.0546 -0.3037  0.1308
  434MOL0     C59792   8.962   7.923  11.214 -1.2732  0.6645 -0.2859
  434MOL0     C59793   9.113   7.950  11.190  0.9645 -0.8402 -0.2830
  434MOL0     C59794   9.211   7.883  11.285 -0.8377 -0.6553  0.2905
  434MOL0     C59795   9.340   7.900  11.209 -0.6521  0.2904 -1.1040
  434MOL0     C59796   9.349   7.827  11.078 -1.0123 -0.2999  0.3322
  434MOL0     C59797   9.494   7.800  11.025  0.6280 -0.2062  0.2119
  434MOL0     C59798   9.568   7.933  11.000  0.5863 -0.0113 -0.3602
  434MOL0    Cl59799   9.720   7.948  11.100 -0.3307  0.0159  0.0573
  434MOL0     C59800   8.573   7.953  10.943  0.2181  0.3556 -0.2601
  434MOL0     C59801   8.468   8.022  10.879 -0.4297 -0.2028 -0.3375
  434MOL0     O59802   8.417   8.413  10.865  0.3450 -0.0222 -0.6083
  434MOL0     C59803   8.218   8.508  10.695  1.0341 -0.9375 -0.1693
  434MOL0     C59804   8.131   8.567  10.599  0.0018 -0.1567  0.4776
  434MOL0     N59805   7.485   8.534  10.147  0.5266  0.1310  0.3450
  434MOL0     N59806   7.398   8.435  10.127  0.5710  0.0048  0.0937
  434MOL0     C59807   6.705   7.761   9.656  1.0118  0.4054 -0.3319
  434MOL0     C59808   6.577   7.802   9.661  0.4466  0.5502  0.6005
  434MOL0     C59809   6.194   8.018   9.702  0.3488  0.3171  0.0484
  434MOL0     C59810   6.131   7.980   9.587 -0.7900  0.4617  1.1987
  434MOL0     C59811   6.006   8.013   9.552 -0.1409 -0.2418  0.4934
  434MOL0     C59812   5.936   8.099   9.633 -0.1597 -0.7708 -0.1943
  434MOL0     O59813   5.807   8.126   9.602  0.3456  0.1886  0.2394
  434MOL0     C59814   5.715   8.161   9.701 -0.1096 -0.7954 -0.1385
  434MOL0     C59815   5.700   8.316   9.722 -0.9012  0.2679  0.1605
  434MOL0     C59816   5.641   8.375   9.598  0.3931  0.2595  0.3756
  434MOL0     C59817   5.674   8.525   9.604  0.1740 -0.1355 -0.2093
  434MOL0     C59818   5.661   8.590   9.469 -0.1499 -0.3961 -0.2802
  434MOL0     C59819   5.637   8.640   9.358 -0.4238  0.4586 -0.3856
  434MOL0     C59820   6.006   8.152   9.752  0.0960  0.1948 -0.0370
  434MOL0     C59821   6.127   8.104   9.795  0.1075 -0.3472  0.5352
  434MOL0     C59822   6.186   8.142   9.932  0.3046  0.2370  0.6826
  434MOL0     H59823   6.585   8.068   9.456  2.3346  3.7675  1.6714
  434MOL0     H59824   6.826   8.009   9.458 -1.6136  0.0092 -1.0229
  434MOL0     H59825   6.949   7.641   9.703  1.2694 -0.3343 -0.3609
  434MOL0     H59826   6.965   7.775   9.789 -2.2995  2.6054 -1.4060
  434MOL0     H59827   7.189   7.641   9.717 -6.8096 -1.5628  3.4560
  434MOL0     H59828   7.151   7.693   9.549 -1.8008 -0.5372 -0.6977
  434MOL0     H59829   7.197   7.923   9.611 -0.9188 -1.9113 -1.4209
  434MOL0     H59830   7.169   7.879   9.787 -2.7239 -1.0954  0.0454
  434MOL0     H59831   7.378   7.747   9.773  1.8213  0.1870 -0.3500
  434MOL0     H59832   7.415   7.799   9.619  1.3200 -3.4353  1.6455
  434MOL0     H59833   7.400   8.040   9.697 -0.9614  0.2895 -0.1571
  434MOL0     H59834   7.543   7.940   9.736  0.1560 -0.6188  1.0290
  434MOL0     H59835   7.319   7.992   9.918 -0.2130  1.5762 -3.2200
  434MOL0     H59836   7.469   7.899   9.973  1.0615 -0.4446 -0.6105
  434MOL0     H59837   7.467   8.192   9.853 -0.2180 -1.4638 -1.1299
  434MOL0     H59838   7.600   8.129   9.946  0.0716 -0.6084 -0.7290
  434MOL0     H59839   7.318   8.199  10.040 -0.0733  0.7355  0.6511
  434MOL0     H59840   7.428   8.111  10.133 -3.3455 -0.9805 -1.5421
  434MOL0     H59841   7.685   8.287  10.065  2.4279  2.2692 -0.1062
  434MOL0     H59842   7.698   8.687  10.121 -2.6206 -1.6995 -3.5395
  434MOL0     H59843   7.781   8.550  10.045  0.0772 -1.1415  1.1875
  434MOL0     H59844   7.753   8.555  10.348  1.9471  2.3464  1.2104
  434MOL0     H59845   7.873   8.480  10.257 -2.3508 -1.4824  2.4363
  434MOL0     H59846   7.945   8.724  10.171 -0.5670 -3.2023 -1.3662
  434MOL0     H59847   7.834   8.789  10.293  0.9670 -0.8837  1.5322
  434MOL0     H59848   8.064   8.777  10.398  2.6136 -2.0679  0.2008
  434MOL0     H59849   7.927   8.690  10.474 -1.6355  0.6089 -1.3722
  434MOL0     H59850   8.245   8.400  10.327 -0.5042 -1.5765  0.1610
  434MOL0     H59851   8.523   8.333  10.509 -0.7672  2.1099  1.7441
  434MOL0     H59852   8.425   8.259  10.368 -3.1724  0.6782  0.7694
  434MOL0     H59853   8.423   8.181  10.521 -1.0109  1.0897  0.6357
  434MOL0     H59854   8.665   8.306  10.816  4.0455 -0.1266  0.1653
  434MOL0     H59855   8.831   8.170  10.915  0.3335  0.3852 -0.1356
  434MOL0     H59856   8.940   8.090  11.085 -0.2662  0.1627  1.0165
  434MOL0     H59857   8.803   8.058  11.171  2.5041  3.1462  0.6912
  434MOL0     H59858   8.935   7.958  11.314 -0.8691  0.0007  0.0616
  434MOL0     H59859   8.943   7.817  11.195  2.3084  0.2648 -2.4441
  434MOL0     H59860   9.131   8.058  11.192 -2.9011 -0.0196  2.8529
  434MOL0     H59861   9.107   7.911  11.088 -1.9088 -1.5121  0.0666
  434MOL0     H59862   9.178   7.782  11.308 -2.1107 -0.1889  0.5976
  434MOL0     H59863   9.219   7.936  11.380 -5.3623 -0.2400  0.6461
  434MOL0     H59864   9.352   8.008  11.200 -2.1901  0.5467 -0.4978
  434MOL0     H59865   9.423   7.866  11.272 -1.6642 -1.0477 -0.4394
  434MOL0     H59866   9.300   7.880  10.997  1.3229  0.0045 -0.9744
  434MOL0     H59867   9.296   7.731  11.081 -1.5332 -0.0800 -1.1660
  434MOL0     H59868   9.492   7.745  10.930  2.1738 -0.7609  0.4657
  434MOL0     H59869   9.542   7.741  11.104  2.3971 -0.8525 -1.2731
  434MOL0     H59870   9.505   8.022  11.006 -0.1248 -0.2489 -2.9353
  434MOL0     H59871   9.585   7.937  10.892 -0.5601  0.9937 -0.5221
  434MOL0     H59872   8.551   7.858  10.992 -2.1391  0.0475 -1.7753
  434MOL0     H59873   8.368   7.981  10.879  0.9564 -4.1796 -3.4548
  434MOL0     H59874   8.203   8.542  10.797  0.3249  1.7447 -1.0807
  434MOL0     H59875   8.052   8.636  10.628  0.7068  0.4409  1.0000
  434MOL0     H59876   6.724   7.671   9.714 -3.7516  0.2681  1.4727
  434MOL0     H59877   6.508   7.735   9.712  1.3893 -2.3530 -1.6323
  434MOL0     H59878   6.175   7.902   9.525 -0.9201  1.6870 -0.4817
  434MOL0     H59879   5.945   7.961   9.479 -1.6666 -1.1365  2.3214
  434MOL0     H59880   5.616   8.123   9.678 -1.2726  2.6149 -1.3876
  434MOL0     H59881   5.743   8.115   9.796 -2.2736 -4.1248 -0.9732
  434MOL0     H59882   5.796   8.366   9.732 -1.9029  1.9535  1.9069
  434MOL0     H59883   5.646   8.345   9.812 -1.2523 -0.8219  0.3160
  434MOL0     H59884   5.669   8.331   9.502  2.7463 -0.0761  1.1619
  434MOL0     H59885   5.534   8.354   9.597  0.6158 -0.9489  0.9754
  434MOL0     H59886   5.778   8.535   9.636  0.1310 -0.7607  0.1417
  434MOL0     H59887   5.611   8.584   9.670 -1.9610 -0.4477 -1.8622
  434MOL0     H59888   5.606   8.664   9.258 -0.1989 -1.9582 -1.1145
  434MOL0     H59889   5.953   8.228   9.808 -0.1198 -0.5030  0.7150
  434MOL0     H59890   6.197   8.063  10.006 -0.4849  0.0372  0.6001
  434MOL0     H59891   6.286   8.179   9.906 -0.1682 -0.4935 -2.6071
  434MOL0     H59892   6.129   8.228   9.968 -0.7840 -0.0068 -0.3853
  435MOL0     O59893   4.019   9.722  10.402 -0.4138 -0.1040  0.3780
  435MOL0     C59894   3.989   9.793  10.494 -1.2125 -0.8401 -0.2805
  435MOL0     O59895   4.042   9.917  10.512 -0.2834  1.1715  0.4285
  435MOL0     C59896   4.097  10.002  10.418 -0.5263  0.2218  0.9591
  435MOL0     C59897   4.208  10.075  10.471  0.3158 -0.8458  0.6540
  435MOL0     C59898   4.294  10.149  10.376  0.3350  0.1454 -0.0873
  435MOL0     C59899   4.253  10.170  10.245  0.2250  0.1001 -0.6012
  435MOL0     O59900   4.324  10.247  10.156  0.6919  1.0956 -1.0153
  435MOL0     C59901   4.470  10.244  10.172  1.2171  0.0511 -0.4167
  435MOL0     C59902   4.520  10.329  10.055  0.0542  0.1416 -1.1358
  435MOL0     C59903   4.498  10.264   9.922  0.6951 -0.5614 -0.1888
  435MOL0     C59904   4.548  10.120   9.908 -0.6721 -0.2273 -1.2802
  435MOL0     C59905   4.517  10.058   9.777 -0.1708 -0.0735  0.3872
  435MOL0     C59906   4.573   9.927   9.746 -0.4495  0.1188  0.1453
  435MOL0     C59907   4.549   9.824   9.862 -0.3480  0.1289 -0.3533
  435MOL0     C59908   4.674   9.809   9.955  0.1664  0.3209 -0.3267
  435MOL0     N59909   4.784   9.720   9.904  0.5557  0.2387  0.6054
  435MOL0     C59910   4.778   9.585   9.919  0.0188 -0.3790  0.6308
  435MOL0     C59911   4.907   9.546   9.892  0.9592 -0.1011 -0.2356
  435MOL0     C59912   4.949   9.401   9.855  0.3290  0.1666  0.0596
  435MOL0     C59913   4.976   9.379   9.702 -0.6115 -0.1857 -0.2870
  435MOL0     C59914   4.995   9.231   9.651 -0.6085 -0.6994 -0.4037
  435MOL0     C59915   4.868   9.156   9.684 -0.4717 -0.2725  0.0422
  435MOL0     O59916   4.884   9.040   9.592  0.0857 -0.8513 -0.2373
  435MOL0     C59917   4.776   8.966   9.568 -0.2854 -0.4528 -0.0680
  435MOL0     C59918   4.673   8.956   9.664 -1.1073 -0.1296 -0.6938
  435MOL0     C59919   4.555   8.885   9.634 -0.2554  0.1050 -0.2944
  435MOL0     C59920   4.454   8.870   9.736 -0.2020  0.5372 -1.2949
  435MOL0     C59921   4.542   8.821   9.505 -0.8377 -0.6003  1.0547
  435MOL0     C59922   4.422   8.752   9.453 -0.2263  0.2129 -0.3345
  435MOL0     O59923   4.429   8.649   9.365 -0.8334  0.3514  0.5312
  435MOL0     C59924   4.311   8.593   9.316 -0.1902  0.8628 -0.3604
  435MOL0     C59925   4.251   8.491   9.393 -0.3189  0.3161 -0.4630
  435MOL0     C59926   4.163   8.403   9.333 -0.9879  0.8339  0.4462
  435MOL0     C59927   4.114   8.433   9.204 -0.0052  0.3878 -0.3277
  435MOL0     O59928   4.026   8.339   9.155  0.0355  0.6078  1.1747
  435MOL0     C59929   4.077   8.231   9.093 -0.2338  0.3779 -0.1893
  435MOL0     C59930   3.969   8.145   9.023 -0.1344 -0.5907  0.5586
  435MOL0     C59931   3.885   8.230   8.937  0.3496 -0.9533 -0.5656
  435MOL0     C59932   3.765   8.154   8.885 -0.0969 -0.5396 -0.6089
  435MOL0     C59933   3.660   8.235   8.811 -0.2515 -0.5924  0.3197
  435MOL0     C59934   3.556   8.141   8.758  0.9684  0.3686 -0.4982
  435MOL0     C59935   3.419   8.218   8.725 -0.4669  0.6139 -0.0376
  435MOL0     C59936   3.426   8.316   8.609  0.3543  0.3634  0.8354
  435MOL0    Cl59937   3.277   8.407   8.585  0.3782 -0.1048  0.0142
  435MOL0     C59938   4.170   8.535   9.126 -0.4736 -0.0843 -0.0626
  435MOL0     C59939   4.270   8.613   9.184  0.0678 -0.2788 -0.6340
  435MOL0     O59940   4.317   8.794   9.500 -0.2265 -0.4594  0.3086
  435MOL0     C59941   4.659   8.815   9.422  0.1848 -0.4628 -0.1973
  435MOL0     C59942   4.772   8.881   9.454 -0.2611 -0.8019 -0.6055
  435MOL0     N59943   4.992   9.649   9.879 -0.6302 -0.4199 -0.2540
  435MOL0     N59944   4.918   9.753   9.895  0.4981  0.0608 -0.5997
  435MOL0     C59945   4.137  10.102  10.202  0.1049 -0.5523  0.7652
  435MOL0     C59946   4.056  10.023  10.286 -0.2814  0.7229 -0.6984
  435MOL0     C59947   3.907   9.731  10.597 -0.1900  1.1700 -0.0128
  435MOL0     C59948   3.792   9.667  10.546 -0.5921 -0.1443 -0.0014
  435MOL0     C59949   3.682   9.638  10.631 -0.4022  0.7026  0.6041
  435MOL0     C59950   3.694   9.658  10.762  0.0009  0.0088  0.3372
  435MOL0     O59951   3.585   9.629  10.843 -0.1811 -0.5388 -0.4350
  435MOL0     C59952   3.541   9.739  10.919 -0.5696 -0.3023 -0.0592
  435MOL0     C59953   3.430   9.690  11.004  0.1765  0.6695  0.3497
  435MOL0     C59954   3.319   9.613  10.921  0.0140 -0.3855  0.2960
  435MOL0     C59955   3.196   9.601  11.007 -0.0529  1.1360  0.2195
  435MOL0     C59956   3.095   9.515  10.938  1.1972 -0.3965  0.1268
  435MOL0     C59957   3.002   9.454  10.882 -0.1045 -0.6314 -1.3027
  435MOL0     C59958   3.809   9.711  10.811 -0.1965 -0.0515  0.0196
  435MOL0     C59959   3.918   9.750  10.732  0.6650 -0.6665  0.2177
  435MOL0     C59960   4.038   9.803  10.804 -0.0897  0.5154 -0.7172
  435MOL0     H59961   4.231  10.065  10.577 -1.0444 -0.2998  1.0170
  435MOL0     H59962   4.380  10.201  10.417 -1.5315  3.1914  0.2654
  435MOL0     H59963   4.514  10.144  10.176  2.9523  0.8330  1.7386
  435MOL0     H59964   4.505  10.296  10.261  0.1902 -0.5822  0.3810
  435MOL0     H59965   4.470  10.426  10.048 -0.0956  0.2058  0.5073
  435MOL0     H59966   4.630  10.336  10.054  0.0341  0.4891 -1.2496
  435MOL0     H59967   4.391  10.256   9.903  0.1667 -0.9129  2.4393
  435MOL0     H59968   4.543  10.325   9.843  0.4889  2.1066  1.5845
  435MOL0     H59969   4.656  10.106   9.921 -1.3780 -4.1454  2.3057
  435MOL0     H59970   4.510  10.067   9.996  1.3367 -0.5327 -0.5446
  435MOL0     H59971   4.545  10.124   9.694  2.2774 -0.8919  0.4932
  435MOL0     H59972   4.409  10.039   9.781 -0.7451  2.6923  0.4459
  435MOL0     H59973   4.527   9.891   9.654  0.8493  1.3170 -1.0185
  435MOL0     H59974   4.678   9.935   9.716 -0.1732 -0.8877  0.8234
  435MOL0     H59975   4.534   9.726   9.815  3.4728 -0.2324 -1.1419
  435MOL0     H59976   4.455   9.846   9.914 -0.4200  1.6249 -1.0494
  435MOL0     H59977   4.704   9.902  10.002  1.0838  0.4735 -1.1717
  435MOL0     H59978   4.630   9.755  10.039  1.1212  0.8665  0.5366
  435MOL0     H59979   4.687   9.528   9.931 -2.1471  2.7237  0.1538
  435MOL0     H59980   4.873   9.331   9.891  2.7357 -2.3855  0.5219
  435MOL0     H59981   5.035   9.376   9.917  0.4403 -0.3819 -0.3071
  435MOL0     H59982   4.900   9.423   9.636  0.6296  0.8440 -1.0718
  435MOL0     H59983   5.071   9.428   9.680 -0.7395 -1.2427 -3.9453
  435MOL0     H59984   5.014   9.235   9.543  1.8395 -0.0751 -0.0194
  435MOL0     H59985   5.093   9.197   9.687 -0.4923  1.3966  1.4729
  435MOL0     H59986   4.856   9.125   9.789 -0.3978 -1.1517 -0.1967
  435MOL0     H59987   4.786   9.223   9.659 -1.7658 -0.8195  2.4845
  435MOL0     H59988   4.691   8.998   9.762 -0.8284  0.5248 -1.0257
  435MOL0     H59989   4.416   8.769   9.746 -3.1116  1.7382  1.4183
  435MOL0     H59990   4.372   8.937   9.709  0.2087  2.8112  2.3584
  435MOL0     H59991   4.490   8.896   9.836 -0.5675 -2.1792 -0.3897
  435MOL0     H59992   4.282   8.474   9.496  1.0293 -1.0417 -1.0497
  435MOL0     H59993   4.140   8.308   9.381  1.6175 -0.0037  0.2176
  435MOL0     H59994   4.139   8.256   9.006  0.8739 -3.5406 -0.7061
  435MOL0     H59995   4.139   8.166   9.155 -0.4948  0.9386  0.6756
  435MOL0     H59996   4.018   8.061   8.973 -1.2115 -0.6838 -0.3761
  435MOL0     H59997   3.907   8.103   9.104  1.6605 -2.7152  0.9229
  435MOL0     H59998   3.931   8.260   8.842 -0.2687  0.7971 -0.3404
  435MOL0     H59999   3.860   8.318   8.996  2.1553 -2.8952  3.4763
  435MOL0     H60000   3.713   8.114   8.972  0.8573  0.2218  0.3447
  435MOL0     H60001   3.799   8.077   8.815  0.6421 -2.2126  1.4798
  435MOL0     H60002   3.617   8.314   8.875 -1.9687 -0.8078 -0.5058
  435MOL0     H60003   3.707   8.285   8.726 -0.1838 -0.5981  0.3547
  435MOL0     H60004   3.532   8.072   8.839  0.3436  0.1810 -0.8306
  435MOL0     H60005   3.589   8.085   8.671  0.6312 -1.2056  0.3499
  435MOL0     H60006   3.395   8.276   8.814  0.7022 -1.0401  1.4217
  435MOL0     H60007   3.331   8.154   8.710 -0.1488  0.5272 -1.7438
  435MOL0     H60008   3.458   8.275   8.513 -0.9850  0.8511  0.1606
  435MOL0     H60009   3.501   8.387   8.645  1.6187 -1.1427  1.2815
  435MOL0     H60010   4.148   8.546   9.020 -3.5450 -1.7056  0.2949
  435MOL0     H60011   4.329   8.674   9.116 -0.1484 -1.3050 -1.7837
  435MOL0     H60012   4.655   8.763   9.326 -2.0645 -1.5461  0.4020
  435MOL0     H60013   4.857   8.870   9.387  0.8428 -4.0184  1.1121
  435MOL0     H60014   4.108  10.103  10.098  1.0516 -0.8038  0.4866
  435MOL0     H60015   3.965   9.970  10.260 -0.3067  0.5081 -0.1939
  435MOL0     H60016   3.784   9.657  10.439  1.1878 -0.2985 -0.1479
  435MOL0     H60017   3.588   9.591  10.601 -0.2469  0.4588  0.4937
  435MOL0     H60018   3.613   9.791  10.982 -1.9927  2.7966 -0.8067
  435MOL0     H60019   3.503   9.804  10.840  0.5678 -0.4273 -0.7233
  435MOL0     H60020   3.376   9.770  11.056 -4.7844 -2.2865  0.4625
  435MOL0     H60021   3.469   9.625  11.083 -1.5185 -1.7061 -0.6292
  435MOL0     H60022   3.297   9.669  10.830 -0.5558 -1.5763 -0.3201
  435MOL0     H60023   3.344   9.515  10.880 -1.1084 -0.8787  0.7505
  435MOL0     H60024   3.153   9.700  11.023  0.8749  1.3688  1.3344
  435MOL0     H60025   3.219   9.548  11.100 -1.4065 -0.2197 -0.1642
  435MOL0     H60026   2.920   9.402  10.838 -1.1248  3.0962 -4.2538
  435MOL0     H60027   3.825   9.709  10.918  0.1840  1.9494  0.0367
  435MOL0     H60028   4.017   9.828  10.908  1.4720 -1.7776  0.2343
  435MOL0     H60029   4.096   9.711  10.815 -1.8515 -0.7808 -1.6599
  435MOL0     H60030   4.089   9.886  10.755 -0.3885  1.2180  0.1354
  436MOL0     O60031   9.148   0.146   8.267 -0.4540 -0.7231  0.1738
  436MOL0     C60032   9.149   0.058   8.181  0.1731  0.2529  0.0493
  436MOL0     O60033   9.219  -0.064   8.187  0.6433 -0.7834 -0.2601
  436MOL0     C60034   9.303  -0.096   8.288  0.0633 -1.4736 -0.7962
  436MOL0     C60035   9.394  -0.005   8.350 -0.2108  1.1518 -1.0713
  436MOL0     C60036   9.454  -0.048   8.469 -0.0078 -0.2149  0.2005
  436MOL0     C60037   9.426  -0.174   8.530 -0.3738  0.0562  0.3862
  436MOL0     O60038   9.476  -0.207   8.652 -0.1427 -0.4188 -0.0436
  436MOL0     C60039   9.389  -0.282   8.738 -0.3060 -0.3412 -0.3133
  436MOL0     C60040   9.456  -0.288   8.879  0.3910  1.5581 -0.2446
  436MOL0     C60041   9.593  -0.353   8.871 -0.7373  0.2479 -0.0746
  436MOL0     C60042   9.644  -0.419   8.995 -0.7807 -0.4025  0.0395
  436MOL0     C60043   9.776  -0.496   8.974  0.5346 -0.1790 -1.0625
  436MOL0     C60044   9.890  -0.387   8.938  0.5597 -0.6348  0.0582
  436MOL0     C60045  10.023  -0.448   8.953 -0.1846 -0.4182 -1.0163
  436MOL0     C60046  10.127  -0.400   8.851 -0.7068 -0.2171 -0.3932
  436MOL0     N60047  10.217  -0.505   8.797 -0.4130  0.0235 -0.2897
  436MOL0     C60048  10.278  -0.613   8.856  0.5489 -1.3064 -0.5235
  436MOL0     C60049  10.333  -0.681   8.752 -0.3166  0.5216  0.4210
  436MOL0     C60050  10.401  -0.809   8.760  0.3058 -0.1910  0.2019
  436MOL0     C60051  10.532  -0.799   8.678 -0.3327 -0.2302  0.1439
  436MOL0     C60052  10.520  -0.836   8.526 -0.5864  0.5424  0.0213
  436MOL0     C60053  10.623  -0.770   8.442 -0.1649 -0.2828 -0.9687
  436MOL0     O60054  10.756  -0.814   8.451  0.1412  0.5451 -0.3514
  436MOL0     C60055  10.843  -0.760   8.359  0.1936  0.0405 -0.5420
  436MOL0     C60056  10.813  -0.674   8.251 -0.2474  1.0554 -0.4086
  436MOL0     C60057  10.918  -0.625   8.172 -0.0547 -0.1867  0.2482
  436MOL0     C60058  10.872  -0.556   8.045 -0.2979 -0.9674  1.0808
  436MOL0     C60059  11.052  -0.643   8.207  0.8703 -0.0870  0.1051
  436MOL0     C60060  11.165  -0.574   8.137 -0.3515  0.1848 -0.6163
  436MOL0     O60061  11.284  -0.631   8.163  0.7995 -0.6139  0.2325
  436MOL0     C60062  11.399  -0.570   8.110 -0.0231  0.7951  0.4000
  436MOL0     C60063  11.504  -0.661   8.074  0.1682 -0.1154  0.7541
  436MOL0     C60064  11.629  -0.612   8.057  0.2594 -0.2943 -0.0684
  436MOL0     C60065  11.655  -0.475   8.062  0.0418 -0.8014  0.2019
  436MOL0     O60066  11.784  -0.443   8.009 -0.0525 -0.3526  0.3606
  436MOL0     C60067  11.852  -0.321   8.033  0.3146  0.0862  0.2774
  436MOL0     C60068  11.998  -0.326   7.988 -0.3460  0.0532  0.1354
  436MOL0     C60069  12.063  -0.186   7.970  0.2398 -0.3213  0.5401
  436MOL0     C60070  11.990  -0.094   7.871 -0.1544 -0.1278  1.1137
  436MOL0     C60071  12.088   0.017   7.814 -0.4659  0.6858  0.7606
  436MOL0     C60072  12.014   0.110   7.706 -0.2782 -0.1351 -0.0711
  436MOL0     C60073  12.092   0.230   7.656  0.1682 -0.4034  0.3932
  436MOL0     C60074  12.008   0.322   7.556 -0.5903  0.6940  0.3606
  436MOL0    Cl60075  11.838   0.350   7.628 -0.6594 -0.1259 -0.3983
  436MOL0     C60076  11.552  -0.384   8.090  0.5644 -0.1239 -0.5723
  436MOL0     C60077  11.425  -0.434   8.125  0.1738 -0.1056  0.5570
  436MOL0     O60078  11.145  -0.479   8.060 -0.8053  0.3448 -0.1845
  436MOL0     C60079  11.080  -0.740   8.308  0.0416 -0.0287  0.1350
  436MOL0     C60080  10.979  -0.794   8.385  0.5113 -0.7325 -0.1087
  436MOL0     N60081  10.294  -0.623   8.634 -0.5224 -0.5057  0.1171
  436MOL0     N60082  10.226  -0.519   8.664 -0.2164  0.0765 -0.2169
  436MOL0     C60083   9.348  -0.265   8.457 -0.3268  0.1724  0.4683
  436MOL0     C60084   9.289  -0.223   8.337  0.8790  0.8762 -0.4511
  436MOL0     C60085   9.064   0.063   8.051  0.3780 -0.1322 -0.6818
  436MOL0     C60086   9.083  -0.027   7.947  0.4125 -1.2345 -0.1720
  436MOL0     C60087   9.021  -0.021   7.824  1.2011 -0.1011  0.0310
  436MOL0     C60088   8.927   0.083   7.797  0.7057 -0.0471  0.0069
  436MOL0     O60089   8.865   0.096   7.673  0.7973 -0.2459  0.0729
  436MOL0     C60090   8.720   0.099   7.673 -0.9255  0.1289 -0.3656
  436MOL0     C60091   8.668   0.047   7.539 -0.4321  0.3889  1.0931
  436MOL0     C60092   8.698   0.155   7.436 -0.3649  0.0613 -0.6847
  436MOL0     C60093   8.633   0.108   7.310  0.0643  0.4722 -0.5925
  436MOL0     C60094   8.482   0.131   7.307  1.1356 -0.3654 -1.0416
  436MOL0     C60095   8.361   0.145   7.288 -0.0993  0.3812 -0.3402
  436MOL0     C60096   8.908   0.175   7.897 -0.7346 -0.3214 -0.4388
  436MOL0     C60097   8.969   0.169   8.024 -0.4761  1.1783  0.5614
  436MOL0     C60098   8.947   0.285   8.122  0.1064 -0.5684  0.7926
  436MOL0     H60099   9.417   0.092   8.308 -0.4138  1.2992 -0.8497
  436MOL0     H60100   9.515   0.027   8.519  0.1813  0.0153 -0.3685
  436MOL0     H60101   9.378  -0.386   8.708 -0.3148 -0.3279 -0.3567
  436MOL0     H60102   9.287  -0.243   8.745 -0.8465 -1.9243  1.4882
  436MOL0     H60103   9.477  -0.185   8.912  0.4686  1.0771  1.2875
  436MOL0     H60104   9.392  -0.340   8.951 -0.7227 -1.2076 -3.0295
  436MOL0     H60105   9.593  -0.422   8.787 -0.3803  2.1541 -1.7095
  436MOL0     H60106   9.664  -0.274   8.846 -0.7186  1.5318  3.4188
  436MOL0     H60107   9.654  -0.345   9.076  1.2146  0.5667 -1.0376
  436MOL0     H60108   9.574  -0.497   9.026  0.3348 -0.8377  1.5814
  436MOL0     H60109   9.771  -0.576   8.900  1.6645 -0.1963 -1.1440
  436MOL0     H60110   9.818  -0.532   9.068  1.5948  1.4578 -0.8650
  436MOL0     H60111   9.886  -0.361   8.832 -0.9127  1.0029  0.4735
  436MOL0     H60112   9.883  -0.298   9.001 -0.4452  0.7855 -1.9545
  436MOL0     H60113  10.017  -0.556   8.936 -0.1392 -0.5362 -0.3141
  436MOL0     H60114  10.048  -0.434   9.058 -3.9844 -2.8058  0.4393
  436MOL0     H60115  10.077  -0.349   8.768 -3.5613 -0.9811  0.7252
  436MOL0     H60116  10.188  -0.329   8.906  2.1643 -0.9380 -2.4278
  436MOL0     H60117  10.274  -0.637   8.961 -2.5228 -0.1643 -0.2696
  436MOL0     H60118  10.331  -0.883   8.722 -2.9562  1.8436  1.7426
  436MOL0     H60119  10.429  -0.832   8.863  0.9233 -0.9570 -0.1304
  436MOL0     H60120  10.575  -0.700   8.692 -3.9058  1.6438 -1.0701
  436MOL0     H60121  10.599  -0.861   8.739  2.0500  1.1486 -0.9507
  436MOL0     H60122  10.535  -0.944   8.518 -1.3583  0.4650 -0.4032
  436MOL0     H60123  10.420  -0.815   8.489 -0.0347 -0.7925 -2.5181
  436MOL0     H60124  10.582  -0.787   8.342 -3.8400  3.1354 -0.2420
  436MOL0     H60125  10.617  -0.664   8.467 -0.9661 -0.0063 -2.2400
  436MOL0     H60126  10.713  -0.642   8.224  0.0228  3.3412  1.0972
  436MOL0     H60127  10.902  -0.606   7.953  0.3779  3.9002 -1.7019
  436MOL0     H60128  10.915  -0.457   8.028  0.7459 -1.8088 -1.8280
  436MOL0     H60129  10.765  -0.535   8.048 -0.3491 -0.2546 -2.1273
  436MOL0     H60130  11.481  -0.767   8.081  0.9760 -0.2854  0.8596
  436MOL0     H60131  11.692  -0.694   8.024  1.0651 -0.0888  0.8847
  436MOL0     H60132  11.806  -0.236   7.982 -0.3549 -0.2355  0.3273
  436MOL0     H60133  11.845  -0.308   8.141  0.3526 -1.4750  0.4973
  436MOL0     H60134  12.049  -0.385   8.065  0.3402 -0.6917 -0.8519
  436MOL0     H60135  12.019  -0.389   7.901  2.9415 -2.4098  2.4485
  436MOL0     H60136  12.167  -0.202   7.941  0.5143 -1.2331  1.8908
  436MOL0     H60137  12.063  -0.142   8.070  1.3496 -0.6882  0.7095
  436MOL0     H60138  11.903  -0.052   7.923 -2.3692 -4.3655  1.3418
  436MOL0     H60139  11.947  -0.159   7.794 -2.5983  1.5738  0.9364
  436MOL0     H60140  12.120   0.076   7.900 -1.1109 -0.6486  1.9501
  436MOL0     H60141  12.182  -0.023   7.774 -1.2289 -1.0371  0.6150
  436MOL0     H60142  11.917   0.141   7.745 -0.7704 -0.2391 -1.1587
  436MOL0     H60143  11.997   0.058   7.611 -2.3135  0.4663 -0.0971
  436MOL0     H60144  12.185   0.201   7.606  0.1289 -2.1686  1.2612
  436MOL0     H60145  12.117   0.293   7.741 -0.1929  0.0509  0.1723
  436MOL0     H60146  11.998   0.273   7.459 -0.9926  0.7221  0.3832
  436MOL0     H60147  12.053   0.421   7.551  1.4072 -0.0552  2.1615
  436MOL0     H60148  11.566  -0.277   8.082 -1.0491  0.2116  0.5001
  436MOL0     H60149  11.351  -0.367   8.169  1.7966  2.1453  0.0131
  436MOL0     H60150  11.183  -0.772   8.317 -0.0862 -0.1141  1.4418
  436MOL0     H60151  10.989  -0.862   8.470 -1.3968 -2.2384 -0.9906
  436MOL0     H60152   9.330  -0.370   8.480  3.1325 -1.2753 -2.4975
  436MOL0     H60153   9.226  -0.297   8.288 -4.2997  3.1832  2.0140
  436MOL0     H60154   9.139  -0.118   7.968  1.5903 -0.0888  2.0453
  436MOL0     H60155   9.053  -0.095   7.752  1.1916 -0.1844  0.1121
  436MOL0     H60156   8.673   0.029   7.743  1.2469 -1.3511 -0.2848
  436MOL0     H60157   8.679   0.200   7.683 -0.7516  0.3261 -1.5342
  436MOL0     H60158   8.560   0.033   7.552 -0.4021 -0.5704  0.4578
  436MOL0     H60159   8.718  -0.045   7.507 -1.4733  0.3561 -0.5976
  436MOL0     H60160   8.661   0.252   7.471  0.4526  0.6007 -1.2508
  436MOL0     H60161   8.807   0.158   7.420 -0.3417 -1.1416 -0.8176
  436MOL0     H60162   8.652   0.000   7.308  0.2600  0.3567  2.5304
  436MOL0     H60163   8.670   0.162   7.222 -2.2199  1.9602 -0.7186
  436MOL0     H60164   8.260   0.150   7.253 -0.1179  0.1430 -0.3199
  436MOL0     H60165   8.853   0.266   7.877  0.2363  1.1154  2.8201
  436MOL0     H60166   8.864   0.347   8.087  1.1284  0.1478 -0.4812
  436MOL0     H60167   8.923   0.239   8.218 -3.4936 -0.3486  0.1360
  436MOL0     H60168   9.034   0.350   8.134 -0.1338  1.0728 -4.0648
  437MOL0     O60169   5.221   8.677   1.267 -0.4050 -0.1584 -0.1812
  437MOL0     C60170   5.313   8.763   1.278  0.3606 -0.0113  0.8308
  437MOL0     O60171   5.286   8.891   1.321  0.0203 -0.0346 -0.7968
  437MOL0     C60172   5.152   8.920   1.335  0.1512 -0.2941  0.5802
  437MOL0     C60173   5.086   8.949   1.218  0.4044  0.2449  0.2115
  437MOL0     C60174   4.955   8.988   1.224  0.2840 -0.4725  0.5376
  437MOL0     C60175   4.890   9.012   1.341  0.2766  0.2246  0.1127
  437MOL0     O60176   4.759   9.046   1.345 -0.0570  1.1150  0.0167
  437MOL0     C60177   4.732   9.177   1.296  0.3589  0.0880 -0.1302
  437MOL0     C60178   4.581   9.199   1.276 -0.2361 -0.3351  0.3060
  437MOL0     C60179   4.546   9.266   1.145  0.3637  0.5963  0.4860
  437MOL0     C60180   4.399   9.265   1.128  0.1783  0.7670 -0.3325
  437MOL0     C60181   4.354   9.360   1.018 -0.1937  0.4308  0.5815
  437MOL0     C60182   4.413   9.330   0.876  0.3236  0.2614 -1.4201
  437MOL0     C60183   4.390   9.451   0.789  0.6316 -0.2034  1.1080
  437MOL0     C60184   4.437   9.418   0.643  0.7135  0.0079  0.2338
  437MOL0     N60185   4.581   9.445   0.626 -0.4025  0.2013 -0.0518
  437MOL0     C60186   4.664   9.397   0.524 -0.0866 -0.3914 -1.0638
  437MOL0     C60187   4.777   9.456   0.549  0.9487 -0.3727 -0.9610
  437MOL0     C60188   4.889   9.446   0.456  0.3477  0.3523 -0.0305
  437MOL0     C60189   5.016   9.375   0.519  0.0955  0.0102  0.5833
  437MOL0     C60190   5.148   9.378   0.435  0.9019  0.0905 -0.2085
  437MOL0     C60191   5.258   9.340   0.531  0.1026  0.1108 -0.2739
  437MOL0     O60192   5.321   9.218   0.484 -0.0307 -0.1764 -0.6081
  437MOL0     C60193   5.406   9.221   0.376  0.4553  0.1283 -0.6988
  437MOL0     C60194   5.456   9.095   0.325 -0.3827  0.2365  0.1469
  437MOL0     C60195   5.561   9.082   0.233  0.5718 -0.7109  0.2302
  437MOL0     C60196   5.603   8.933   0.215  0.0641  0.3409 -0.4759
  437MOL0     C60197   5.613   9.205   0.173  0.6886  0.5612 -0.4481
  437MOL0     C60198   5.711   9.195   0.067 -0.8129  0.3450  0.6963
  437MOL0     O60199   5.777   9.078   0.055  0.2306 -0.0684 -0.2089
  437MOL0     C60200   5.889   9.067  -0.025  0.1724 -0.9583  0.0673
  437MOL0     C60201   5.958   9.173  -0.091  0.3321  0.5448 -0.4604
  437MOL0     C60202   6.073   9.144  -0.172  0.6711 -0.4140 -0.6090
  437MOL0     C60203   6.116   9.008  -0.186  0.1280  1.1262 -1.1593
  437MOL0     O60204   6.230   8.968  -0.258 -0.6143  0.2213 -0.4059
  437MOL0     C60205   6.303   9.081  -0.315  0.7282  0.6288 -0.1807
  437MOL0     C60206   6.438   9.031  -0.363  0.7461 -0.9260  0.5208
  437MOL0     C60207   6.506   8.978  -0.233  0.7484 -1.2494 -0.7541
  437MOL0     C60208   6.658   8.999  -0.232  0.3107  0.3495  0.2002
  437MOL0     C60209   6.733   8.918  -0.132 -0.4562 -0.0221 -0.5701
  437MOL0     C60210   6.889   8.942  -0.152  0.3751 -0.3318 -0.1087
  437MOL0     C60211   6.961   8.880  -0.027 -0.8710  0.4228  0.2614
  437MOL0     C60212   7.117   8.892  -0.036  0.7496 -0.2951  0.7532
  437MOL0    Cl60213   7.185   9.060  -0.045  0.5201 -0.0607 -0.0311
  437MOL0     C60214   6.058   8.906  -0.104  0.0899  0.0899  0.3940
  437MOL0     C60215   5.949   8.947  -0.023  0.2435  0.2472  0.7672
  437MOL0     O60216   5.714   9.290  -0.008 -0.4727  0.0303  0.3038
  437MOL0     C60217   5.550   9.327   0.213 -1.1904 -0.2582 -0.1144
  437MOL0     C60218   5.456   9.333   0.315 -0.6139  1.5028 -0.6481
  437MOL0     N60219   4.765   9.538   0.658  0.3120 -0.3873  0.4026
  437MOL0     N60220   4.649   9.522   0.700  0.5030 -0.1594 -0.6273
  437MOL0     C60221   4.959   8.981   1.458 -0.3705  0.4794  1.0363
  437MOL0     C60222   5.090   8.936   1.459 -0.2357  0.5395  0.0507
  437MOL0     C60223   5.450   8.725   1.235 -0.4786 -0.1149  0.7350
  437MOL0     C60224   5.547   8.830   1.223 -0.3653 -0.4816 -0.1519
  437MOL0     C60225   5.675   8.799   1.186  0.5927 -0.1832  0.6367
  437MOL0     C60226   5.718   8.672   1.179  0.8578 -0.0855 -0.2121
  437MOL0     O60227   5.854   8.663   1.159 -0.8491  0.2359 -0.8025
  437MOL0     C60228   5.919   8.532   1.149 -0.0430  0.1369 -1.1846
  437MOL0     C60229   6.073   8.544   1.144 -0.0110 -0.5132 -0.3547
  437MOL0     C60230   6.138   8.645   1.245  0.5207 -0.5017  0.7087
  437MOL0     C60231   6.291   8.665   1.229  0.2120  0.7814 -0.3238
  437MOL0     C60232   6.333   8.767   1.319 -0.2183  0.3904 -0.4289
  437MOL0     C60233   6.354   8.842   1.417 -0.2783 -0.7505  0.6056
  437MOL0     C60234   5.630   8.570   1.187  0.2503 -1.0929  0.0403
  437MOL0     C60235   5.496   8.587   1.216 -0.1744 -0.7943  0.1073
  437MOL0     C60236   5.421   8.467   1.234  0.4774 -0.9631 -0.4004
  437MOL0     H60237   5.141   8.937   1.125 -2.2845  0.1912 -1.4902
  437MOL0     H60238   4.903   9.005   1.130  0.2559  1.1334  0.8214
  437MOL0     H60239   4.773   9.188   1.196 -0.5569 -0.4742 -0.5833
  437MOL0     H60240   4.775   9.253   1.362  0.2372 -0.4175  0.5508
  437MOL0     H60241   4.537   9.099   1.276  1.7628 -1.2741 -0.4044
  437MOL0     H60242   4.542   9.265   1.353  0.3247 -1.8076  1.9116
  437MOL0     H60243   4.586   9.368   1.151  1.0480  0.8363 -4.1760
  437MOL0     H60244   4.591   9.222   1.055 -1.4120 -0.7044  0.1975
  437MOL0     H60245   4.360   9.164   1.113  1.2917  0.4241 -1.0661
  437MOL0     H60246   4.349   9.289   1.223  2.2133  1.6760  0.5536
  437MOL0     H60247   4.368   9.464   1.049 -5.0188  1.5885 -0.2641
  437MOL0     H60248   4.246   9.346   1.008 -0.1210 -0.3307  0.8047
  437MOL0     H60249   4.517   9.298   0.871  0.6692  1.3665 -1.5039
  437MOL0     H60250   4.351   9.251   0.833  0.5852  0.9232 -3.0643
  437MOL0     H60251   4.442   9.540   0.827  1.0604 -0.6931  1.6738
  437MOL0     H60252   4.286   9.485   0.782  1.0553  0.7763 -1.8968
  437MOL0     H60253   4.410   9.312   0.633 -1.3910  0.6348 -1.3752
  437MOL0     H60254   4.369   9.461   0.569  1.7620  0.5274 -0.4317
  437MOL0     H60255   4.643   9.336   0.436  2.2197 -1.4949 -0.9191
  437MOL0     H60256   4.922   9.549   0.435 -0.9174  0.4063 -1.9567
  437MOL0     H60257   4.848   9.403   0.365 -2.7107 -2.1611  2.3140
  437MOL0     H60258   5.037   9.432   0.610  1.5281 -1.0366  0.9419
  437MOL0     H60259   4.989   9.273   0.546  0.1480 -0.1658 -0.0236
  437MOL0     H60260   5.123   9.298   0.365  0.7755 -1.3187  1.3860
  437MOL0     H60261   5.170   9.475   0.389 -2.4261  0.7407 -0.7073
  437MOL0     H60262   5.328   9.424   0.522 -0.2678  0.3128 -1.3683
  437MOL0     H60263   5.214   9.335   0.631 -2.1006 -0.2078 -1.2012
  437MOL0     H60264   5.409   9.009   0.373 -3.7765  1.8346  0.0046
  437MOL0     H60265   5.526   8.868   0.257  0.9067  0.4107  1.2736
  437MOL0     H60266   5.695   8.907   0.268 -1.2245  0.2144  1.8605
  437MOL0     H60267   5.611   8.908   0.109 -2.2404 -1.0638 -0.3821
  437MOL0     H60268   5.921   9.275  -0.089 -2.0576 -0.1816  2.7114
  437MOL0     H60269   6.121   9.228  -0.221  2.0221  0.8904  2.6791
  437MOL0     H60270   6.249   9.126  -0.398  0.3113 -2.6508 -1.8467
  437MOL0     H60271   6.329   9.152  -0.236  0.2718  0.2362  0.3306
  437MOL0     H60272   6.420   8.958  -0.442 -0.9801  0.4509 -0.4388
  437MOL0     H60273   6.500   9.116  -0.396  0.9015 -1.0135  0.5872
  437MOL0     H60274   6.484   8.871  -0.228 -0.9554 -0.8640  2.1862
  437MOL0     H60275   6.466   9.026  -0.143  1.7558  0.3236 -1.1139
  437MOL0     H60276   6.678   9.106  -0.226 -0.9303  0.5091  2.6916
  437MOL0     H60277   6.681   8.968  -0.335 -1.3556  1.5196 -0.5655
  437MOL0     H60278   6.706   8.940  -0.028 -0.4734  0.1259 -0.6048
  437MOL0     H60279   6.709   8.812  -0.135 -1.2094  0.1427 -0.4674
  437MOL0     H60280   6.889   9.051  -0.151  4.0122 -0.2182  1.3067
  437MOL0     H60281   6.912   8.889  -0.245 -0.8221 -1.8769  0.4209
  437MOL0     H60282   6.940   8.773  -0.028 -0.7363  0.3989 -0.7222
  437MOL0     H60283   6.935   8.918   0.073  0.2474 -2.2398  1.6532
  437MOL0     H60284   7.153   8.827  -0.116 -1.2228  0.3457 -0.7290
  437MOL0     H60285   7.156   8.848   0.057  0.0673  2.9787  2.7363
  437MOL0     H60286   6.095   8.805  -0.093 -0.6738 -0.2010  0.3744
  437MOL0     H60287   5.917   8.867   0.042  4.0624 -1.9290  0.2809
  437MOL0     H60288   5.573   9.417   0.158  0.3052 -2.0044 -2.5302
  437MOL0     H60289   5.430   9.435   0.342 -2.3331  1.2144 -1.0799
  437MOL0     H60290   4.899   8.982   1.548 -0.5537 -1.0310  0.9702
  437MOL0     H60291   5.142   8.905   1.549  0.8725  0.8071 -0.4785
  437MOL0     H60292   5.520   8.934   1.239  1.1775 -0.0116 -0.4737
  437MOL0     H60293   5.755   8.872   1.180  1.6202 -1.3367 -0.2902
  437MOL0     H60294   5.889   8.468   1.232 -1.0365  1.3459 -0.5910
  437MOL0     H60295   5.880   8.478   1.061  1.5757 -2.1432 -0.6043
  437MOL0     H60296   6.101   8.575   1.043  2.8572 -1.5622  0.0098
  437MOL0     H60297   6.120   8.445   1.146  2.9981  0.7263 -2.2144
  437MOL0     H60298   6.084   8.739   1.226  2.0150  0.1225 -0.6723
  437MOL0     H60299   6.113   8.611   1.346  0.5250  1.8223  1.5615
  437MOL0     H60300   6.323   8.701   1.131  0.6250  1.4110  0.0358
  437MOL0     H60301   6.345   8.576   1.261  1.5626  1.6320 -0.1591
  437MOL0     H60302   6.366   8.911   1.498 -0.2588  0.8787 -0.7314
  437MOL0     H60303   5.663   8.469   1.168 -0.0841 -1.0708 -0.6664
  437MOL0     H60304   5.346   8.488   1.311  3.1956 -5.2327  4.0406
  437MOL0     H60305   5.379   8.428   1.141 -0.0860  0.4202 -0.7378
  437MOL0     H60306   5.478   8.388   1.285  1.2567  0.0604  0.3613
  438MOL0     O60307   7.838   4.795   3.544  0.2204 -0.6919 -0.1125
  438MOL0     C60308   7.800   4.727   3.637  0.4479  0.0719  0.2248
  438MOL0     O60309   7.765   4.595   3.632 -0.3237 -0.6253 -1.0740
  438MOL0     C60310   7.778   4.525   3.514 -0.9158  0.1324  0.5163
  438MOL0     C60311   7.884   4.552   3.418 -0.3145  0.1359 -0.2746
  438MOL0     C60312   7.913   4.455   3.321 -0.2578  0.0329  0.8379
  438MOL0     C60313   7.832   4.350   3.300 -0.4477 -0.3736  0.7116
  438MOL0     O60314   7.869   4.255   3.206 -0.5431  0.3001  0.6056
  438MOL0     C60315   7.980   4.269   3.120  0.4048  0.6632  0.3221
  438MOL0     C60316   8.016   4.132   3.059 -0.6805  0.6986 -0.2076
  438MOL0     C60317   7.919   4.081   2.963 -0.3190  0.0535 -0.6208
  438MOL0     C60318   7.959   3.959   2.886 -0.5107  0.4616 -0.8098
  438MOL0     C60319   7.985   3.839   2.974 -0.1096  0.4477  0.1945
  438MOL0     C60320   7.971   3.697   2.902  0.0444  0.2133 -0.7746
  438MOL0     C60321   7.923   3.578   2.999  0.0179  0.1040  0.5142
  438MOL0     C60322   7.894   3.448   2.935 -0.1963 -0.6816  0.5732
  438MOL0     N60323   7.780   3.445   2.838 -0.0404 -0.4643  0.1177
  438MOL0     C60324   7.649   3.453   2.882  0.8249  0.0453  0.1146
  438MOL0     C60325   7.580   3.427   2.768  0.2067  0.5189  0.3007
  438MOL0     C60326   7.432   3.436   2.767  0.7739  0.0648  0.7128
  438MOL0     C60327   7.392   3.530   2.657  0.1058  0.3733  0.5692
  438MOL0     C60328   7.387   3.443   2.527 -0.2515  0.4026 -0.7161
  438MOL0     C60329   7.380   3.530   2.404 -0.4139  0.2572  0.8702
  438MOL0     O60330   7.260   3.595   2.396  1.2583  0.5922  0.4590
  438MOL0     C60331   7.146   3.522   2.375  0.3764 -0.1977 -0.2012
  438MOL0     C60332   7.125   3.386   2.338 -0.2481  0.2512 -0.9064
  438MOL0     C60333   7.000   3.343   2.292  0.1093  0.3864 -0.5484
  438MOL0     C60334   6.987   3.191   2.264 -0.3307  0.3682  0.4150
  438MOL0     C60335   6.893   3.434   2.274  0.0222 -0.0070 -0.4492
  438MOL0     C60336   6.761   3.391   2.228 -0.8492  0.4134  0.1298
  438MOL0     O60337   6.752   3.283   2.138  0.0375 -0.4933 -0.0848
  438MOL0     C60338   6.636   3.258   2.066 -0.5635  0.2825  0.1048
  438MOL0     C60339   6.559   3.360   2.014  0.7751 -0.4480  0.1831
  438MOL0     C60340   6.449   3.327   1.930 -0.3408  0.8810 -0.8301
  438MOL0     C60341   6.429   3.192   1.890  0.3421  0.4375  0.4526
  438MOL0     O60342   6.337   3.170   1.790  0.1258 -0.1820 -0.3606
  438MOL0     C60343   6.278   3.044   1.766 -0.4347 -0.0741 -0.8612
  438MOL0     C60344   6.163   3.063   1.669 -0.5594  0.1430  0.3099
  438MOL0     C60345   6.025   3.098   1.728 -0.9574 -0.4405  0.7359
  438MOL0     C60346   5.953   2.979   1.800 -0.8739 -0.2913 -0.2190
  438MOL0     C60347   5.812   3.003   1.840  0.1059 -0.5659 -0.3127
  438MOL0     C60348   5.796   3.133   1.909 -0.8247 -0.0446 -0.0304
  438MOL0     C60349   5.668   3.143   1.983 -0.1694 -0.1847  0.8368
  438MOL0     C60350   5.648   3.292   2.018  0.6862 -0.7450 -1.0450
  438MOL0    Cl60351   5.757   3.349   2.151  0.1844 -0.5915 -0.2151
  438MOL0     C60352   6.494   3.089   1.964 -0.4509  0.1216  0.3356
  438MOL0     C60353   6.609   3.128   2.036  0.7890  0.3613  0.4817
  438MOL0     O60354   6.667   3.456   2.279  0.1248  0.1796  0.0291
  438MOL0     C60355   6.907   3.564   2.323  0.0141 -0.4708 -0.5703
  438MOL0     C60356   7.034   3.611   2.365  0.2506  0.1460  0.4272
  438MOL0     N60357   7.670   3.383   2.673  1.0821 -0.3666  0.2704
  438MOL0     N60358   7.789   3.400   2.707  1.3033  0.5393  0.4631
  438MOL0     C60359   7.722   4.329   3.377 -0.5591 -0.2693 -0.3824
  438MOL0     C60360   7.702   4.413   3.488  1.3910  0.2361 -0.0639
  438MOL0     C60361   7.800   4.783   3.772 -1.2563  0.0103 -0.2370
  438MOL0     C60362   7.710   4.879   3.811  0.2652 -0.5528  0.2248
  438MOL0     C60363   7.710   4.941   3.934  0.3471 -0.0704  0.1697
  438MOL0     C60364   7.813   4.902   4.029  0.5907  0.1583 -0.5559
  438MOL0     O60365   7.820   4.944   4.164 -0.1220  0.6607 -1.0970
  438MOL0     C60366   7.712   5.030   4.208  0.7413 -0.0551  0.2997
  438MOL0     C60367   7.714   5.043   4.358 -0.7479  0.1158  0.1906
  438MOL0     C60368   7.691   4.909   4.427 -0.3083 -0.2876  0.8885
  438MOL0     C60369   7.826   4.825   4.450 -0.3264  0.2658  0.4257
  438MOL0     C60370   7.788   4.698   4.514 -0.4201  1.0882  0.0504
  438MOL0     C60371   7.753   4.603   4.578  0.1607  0.4532  0.4413
  438MOL0     C60372   7.911   4.815   3.983 -0.0739 -0.3612  0.1087
  438MOL0     C60373   7.908   4.754   3.856 -0.3480  0.7058 -0.3750
  438MOL0     C60374   8.018   4.656   3.832  0.4423  0.3767  0.4310
  438MOL0     H60375   7.969   4.618   3.429  0.9271 -1.6661  2.0775
  438MOL0     H60376   8.007   4.477   3.272 -1.5803  1.1765 -1.3420
  438MOL0     H60377   8.064   4.293   3.185 -0.7095 -0.3208  2.2198
  438MOL0     H60378   7.960   4.342   3.040 -2.7117 -2.2408 -1.8307
  438MOL0     H60379   8.106   4.147   2.998 -1.3775 -0.1877 -1.4792
  438MOL0     H60380   8.026   4.058   3.139 -2.1705 -1.0865 -1.5983
  438MOL0     H60381   7.834   4.055   3.028 -0.7796 -0.4579 -1.3976
  438MOL0     H60382   7.885   4.162   2.898  2.4717  1.9578  0.1448
  438MOL0     H60383   7.877   3.932   2.819 -3.8807  1.3433  2.6042
  438MOL0     H60384   8.050   3.991   2.834 -0.6854 -1.4051 -2.3703
  438MOL0     H60385   7.902   3.839   3.045 -0.4661  2.1076 -0.1670
  438MOL0     H60386   8.077   3.866   3.027 -1.1528  0.0418  2.3158
  438MOL0     H60387   7.899   3.702   2.819 -0.3090  1.8553 -0.4021
  438MOL0     H60388   8.068   3.664   2.864 -0.3389 -0.1919 -1.4298
  438MOL0     H60389   7.830   3.609   3.048 -0.8755 -0.2907 -0.8661
  438MOL0     H60390   8.001   3.558   3.072  1.1470  1.0913 -0.3693
  438MOL0     H60391   7.988   3.422   2.885  1.4839 -1.0337  3.6154
  438MOL0     H60392   7.890   3.373   3.016  3.0751 -0.6698  0.8965
  438MOL0     H60393   7.600   3.483   2.974  1.4507  1.2410  0.0827
  438MOL0     H60394   7.402   3.482   2.862  1.3209  1.4240  0.2502
  438MOL0     H60395   7.390   3.335   2.755 -0.0165  0.5370 -0.7441
  438MOL0     H60396   7.295   3.574   2.681 -0.1324 -0.5424  1.3559
  438MOL0     H60397   7.457   3.617   2.645 -0.9420  0.8537 -2.1793
  438MOL0     H60398   7.483   3.395   2.503 -0.4244  0.4645 -1.5777
  438MOL0     H60399   7.302   3.375   2.528 -2.2804  2.7896  1.2605
  438MOL0     H60400   7.450   3.614   2.417 -0.8804  0.9116 -0.6423
  438MOL0     H60401   7.404   3.474   2.313 -1.6925 -0.1960  0.7964
  438MOL0     H60402   7.203   3.311   2.342  0.2815  0.8203 -0.5370
  438MOL0     H60403   6.909   3.139   2.319  3.6314 -3.3646  3.0897
  438MOL0     H60404   7.067   3.120   2.286 -2.0798 -2.3372 -1.3103
  438MOL0     H60405   6.975   3.183   2.155  4.1323 -2.9733 -0.1081
  438MOL0     H60406   6.581   3.464   2.034 -0.1953 -0.6923  2.9678
  438MOL0     H60407   6.396   3.410   1.884 -2.3452 -0.5808 -1.2871
  438MOL0     H60408   6.344   2.970   1.720  1.1565  1.6534 -1.5047
  438MOL0     H60409   6.248   2.998   1.861  1.7681 -2.1374 -1.0488
  438MOL0     H60410   6.180   3.131   1.585 -2.0843 -0.8335 -0.8165
  438MOL0     H60411   6.142   2.966   1.624 -4.3411  1.3524 -0.9296
  438MOL0     H60412   5.975   3.130   1.637  1.1884 -2.1886 -1.1556
  438MOL0     H60413   6.040   3.183   1.796  1.8443 -0.1802 -0.0837
  438MOL0     H60414   6.020   2.966   1.885  2.4473  0.9490 -2.4211
  438MOL0     H60415   5.959   2.893   1.733  0.9168 -0.4240  0.0746
  438MOL0     H60416   5.737   2.988   1.763  0.0949 -3.8457  0.1642
  438MOL0     H60417   5.804   2.927   1.919  0.3559  0.3957  0.6615
  438MOL0     H60418   5.798   3.195   1.819  4.2051 -1.1718 -0.9590
  438MOL0     H60419   5.891   3.156   1.958  1.1678 -1.9381 -2.7112
  438MOL0     H60420   5.667   3.090   2.079 -3.5081 -0.1952  0.9338
  438MOL0     H60421   5.596   3.108   1.908  1.5381  0.5092 -1.2316
  438MOL0     H60422   5.546   3.307   2.055  1.3036  0.8351  0.1515
  438MOL0     H60423   5.661   3.360   1.934  0.5903  1.3003  0.5160
  438MOL0     H60424   6.462   2.988   1.942 -0.7344  0.6710 -2.0586
  438MOL0     H60425   6.667   3.045   2.076  0.5456 -1.6885 -3.0296
  438MOL0     H60426   6.826   3.636   2.318  0.2661 -0.2172 -1.0991
  438MOL0     H60427   7.054   3.714   2.395  0.4382  0.5645 -1.0763
  438MOL0     H60428   7.658   4.243   3.359  0.5600 -0.6261 -3.0714
  438MOL0     H60429   7.617   4.399   3.555  1.4030 -1.6878 -0.3870
  438MOL0     H60430   7.638   4.904   3.734 -0.9068 -1.2475  1.0554
  438MOL0     H60431   7.638   5.022   3.946 -0.8311 -0.8153 -1.5571
  438MOL0     H60432   7.735   5.125   4.160  0.4463 -0.2992 -0.3379
  438MOL0     H60433   7.617   4.981   4.182  1.8289 -1.0042 -2.2140
  438MOL0     H60434   7.633   5.106   4.396  0.7471  3.0238 -1.1897
  438MOL0     H60435   7.813   5.080   4.385  0.6308 -1.1606 -2.7012
  438MOL0     H60436   7.647   4.928   4.525  0.3567  0.2196  1.1005
  438MOL0     H60437   7.618   4.849   4.373  1.1074 -1.1360 -0.1796
  438MOL0     H60438   7.897   4.877   4.515 -1.4714  2.3736  0.0949
  438MOL0     H60439   7.873   4.792   4.357  1.8710 -0.4820  1.7304
  438MOL0     H60440   7.718   4.521   4.638  1.4402 -0.0967  0.4560
  438MOL0     H60441   7.984   4.780   4.056 -0.1995 -2.1030 -0.5475
  438MOL0     H60442   8.048   4.599   3.920  1.9800 -1.2401 -1.0295
  438MOL0     H60443   7.981   4.591   3.751 -1.7193  1.5277  0.4262
  438MOL0     H60444   8.110   4.707   3.801 -0.1382  0.6141 -0.9911
  439MOL0     O60445   1.753   8.854   1.996 -0.2892  0.5814 -1.1707
  439MOL0     C60446   1.759   8.795   2.101 -0.7621 -0.4614  0.1385
  439MOL0     O60447   1.684   8.689   2.135  0.2687 -0.3540  0.4639
  439MOL0     C60448   1.552   8.677   2.099 -0.3595 -1.1411 -0.2295
  439MOL0     C60449   1.503   8.565   2.058  0.0818 -0.0195 -0.6421
  439MOL0     C60450   1.365   8.538   2.040  0.7719  1.0683  0.6784
  439MOL0     C60451   1.269   8.636   2.075 -0.1985  0.0946 -0.0578
  439MOL0     O60452   1.132   8.635   2.056  0.0334 -0.5708  0.4244
  439MOL0     C60453   1.045   8.532   2.015  0.8683  0.3208 -0.5543
  439MOL0     C60454   0.985   8.571   1.875  0.4259 -0.0902 -0.1904
  439MOL0     C60455   1.067   8.553   1.746  0.0048 -0.3730  0.1266
  439MOL0     C60456   1.097   8.403   1.731  0.1092  0.5230  1.0142
  439MOL0     C60457   1.160   8.386   1.591 -0.1867  0.5206 -0.4641
  439MOL0     C60458   1.177   8.237   1.557 -1.1399 -0.4252 -0.3313
  439MOL0     C60459   1.269   8.174   1.654  0.4301  1.9091  0.2832
  439MOL0     C60460   1.330   8.039   1.612  1.0510  0.1077 -0.6761
  439MOL0     N60461   1.432   8.072   1.520  1.0318  0.3802  0.6145
  439MOL0     C60462   1.552   8.115   1.557  0.5641 -0.5860  0.6833
  439MOL0     C60463   1.623   8.131   1.441  0.0366  0.3655  0.0485
  439MOL0     C60464   1.764   8.172   1.433 -0.8595  0.2299  0.9332
  439MOL0     C60465   1.773   8.316   1.379  0.0887  0.3932 -0.5923
  439MOL0     C60466   1.920   8.363   1.352  0.7626  0.1472  1.0202
  439MOL0     C60467   1.999   8.372   1.485  0.2894  0.7140  0.2910
  439MOL0     O60468   2.113   8.446   1.458 -0.5888 -0.6989 -0.7050
  439MOL0     C60469   2.230   8.371   1.441 -0.2560 -0.1557 -0.3134
  439MOL0     C60470   2.276   8.267   1.527 -0.0311  0.3100  0.2673
  439MOL0     C60471   2.396   8.196   1.510 -0.0177 -0.1712  0.6721
  439MOL0     C60472   2.420   8.097   1.616 -0.2869  0.8007  0.2303
  439MOL0     C60473   2.459   8.214   1.388  0.2092 -0.2812  0.0236
  439MOL0     C60474   2.593   8.160   1.357  0.0174 -1.1830  0.2792
  439MOL0     O60475   2.659   8.221   1.252  0.5047 -0.4040 -0.3329
  439MOL0     C60476   2.780   8.181   1.215 -0.3494  0.0594  0.4284
  439MOL0     C60477   2.872   8.278   1.178 -0.3069 -0.7975  0.0564
  439MOL0     C60478   2.998   8.248   1.130 -0.6583  0.5615  0.1908
  439MOL0     C60479   3.030   8.112   1.103  0.1717  0.4508 -0.0894
  439MOL0     O60480   3.144   8.091   1.040 -0.1769  0.1762  0.0836
  439MOL0     C60481   3.143   8.003   0.925  0.0801  0.2487  0.2247
  439MOL0     C60482   3.125   8.091   0.802 -0.5346  0.3258  0.3066
  439MOL0     C60483   3.265   8.143   0.753  0.1920  0.3169  0.2092
  439MOL0     C60484   3.245   8.221   0.620  0.5591  0.0829 -0.2040
  439MOL0     C60485   3.374   8.257   0.551 -0.3422 -0.0422 -0.6953
  439MOL0     C60486   3.440   8.148   0.464  0.6207 -0.1981 -0.1902
  439MOL0     C60487   3.539   8.218   0.368 -0.8189  0.1332 -0.8645
  439MOL0     C60488   3.671   8.149   0.378 -0.0347 -0.4559 -0.3893
  439MOL0    Cl60489   3.800   8.242   0.288 -0.0316 -0.3148  0.2335
  439MOL0     C60490   2.950   8.007   1.155  1.1079  0.1672 -0.0328
  439MOL0     C60491   2.828   8.046   1.204 -0.4512  0.0873 -0.5596
  439MOL0     O60492   2.644   8.069   1.428  0.0246  0.1031 -0.3428
  439MOL0     C60493   2.409   8.308   1.296 -0.2228 -0.1586 -0.2616
  439MOL0     C60494   2.295   8.385   1.320 -0.0999  1.0710  0.1937
  439MOL0     N60495   1.547   8.086   1.338 -0.1373  0.0733  0.5798
  439MOL0     N60496   1.428   8.047   1.384  0.8888  0.1046 -0.3595
  439MOL0     C60497   1.326   8.752   2.142 -0.2965  0.8057  0.3279
  439MOL0     C60498   1.467   8.779   2.154 -0.3277 -0.6031  1.3261
  439MOL0     C60499   1.861   8.833   2.202 -1.2098 -0.1255 -0.1151
  439MOL0     C60500   1.895   8.741   2.315 -0.2615 -0.4201  0.4875
  439MOL0     C60501   2.000   8.768   2.398 -1.3516 -0.0655  0.3771
  439MOL0     C60502   2.067   8.895   2.395 -0.1442  0.0571  1.4051
  439MOL0     O60503   2.164   8.918   2.491 -0.4965  0.0529 -0.3581
  439MOL0     C60504   2.279   9.006   2.455  0.9137  0.0191  0.0680
  439MOL0     C60505   2.408   8.962   2.526  0.0195  0.0963  1.1465
  439MOL0     C60506   2.396   8.957   2.677 -0.6227 -0.2754  0.0909
  439MOL0     C60507   2.532   8.920   2.747  0.3774 -0.2529 -0.2764
  439MOL0     C60508   2.637   9.005   2.686  0.0563 -0.8065  0.0318
  439MOL0     C60509   2.725   9.077   2.637 -0.3934 -0.1384 -0.7293
  439MOL0     C60510   2.024   8.984   2.293  0.1596 -0.0723  0.1836
  439MOL0     C60511   1.923   8.961   2.201 -0.5838  0.5396  0.5113
  439MOL0     C60512   1.893   9.071   2.101  0.3519 -0.0111 -0.7203
  439MOL0     H60513   1.575   8.495   2.018 -0.3930 -0.0774 -1.4067
  439MOL0     H60514   1.340   8.450   1.981 -1.1207  2.1134 -0.1719
  439MOL0     H60515   0.969   8.533   2.093  0.9312  0.7490 -0.4952
  439MOL0     H60516   1.089   8.432   2.014  0.3336  0.0663  0.4090
  439MOL0     H60517   0.890   8.516   1.872  1.4774 -2.1318  1.5651
  439MOL0     H60518   0.969   8.679   1.871 -0.9608 -0.2679 -0.0856
  439MOL0     H60519   1.015   8.582   1.654  1.0153  0.4379 -0.2087
  439MOL0     H60520   1.161   8.609   1.741  0.9503 -1.9898 -2.3993
  439MOL0     H60521   1.158   8.374   1.817  0.2808  1.7545  1.3206
  439MOL0     H60522   1.006   8.344   1.721 -0.2658  1.2544 -0.1055
  439MOL0     H60523   1.251   8.447   1.597  0.2856 -0.3109  2.4559
  439MOL0     H60524   1.092   8.422   1.512 -0.5047 -0.5202 -0.6837
  439MOL0     H60525   1.077   8.195   1.551 -1.8488  1.1512 -0.1778
  439MOL0     H60526   1.219   8.237   1.456 -0.1204 -0.2073  0.0748
  439MOL0     H60527   1.212   8.158   1.747  0.6850 -2.6718 -0.0932
  439MOL0     H60528   1.349   8.245   1.677  0.8074  1.8221 -0.7473
  439MOL0     H60529   1.369   7.992   1.703 -1.0150  1.8584  1.2474
  439MOL0     H60530   1.250   7.981   1.565  0.6723 -0.7514  0.9299
  439MOL0     H60531   1.580   8.127   1.661 -0.1159 -1.1579  0.9331
  439MOL0     H60532   1.830   8.098   1.387 -0.2197  1.1728  0.3050
  439MOL0     H60533   1.802   8.165   1.535 -2.4049 -0.9097  1.4636
  439MOL0     H60534   1.710   8.339   1.292 -0.0795  1.2306 -0.2514
  439MOL0     H60535   1.744   8.383   1.459 -0.7761 -0.5514 -0.0905
  439MOL0     H60536   1.972   8.294   1.285 -0.3938  0.7397 -0.5458
  439MOL0     H60537   1.912   8.458   1.299  0.5933 -0.9584 -1.0114
  439MOL0     H60538   1.945   8.422   1.566 -0.3686 -0.9428  0.9370
  439MOL0     H60539   2.017   8.269   1.518 -1.2593  0.7672  1.4402
  439MOL0     H60540   2.218   8.257   1.618 -1.3251  0.5145 -0.5021
  439MOL0     H60541   2.485   8.162   1.676  1.2617  1.0576 -1.5985
  439MOL0     H60542   2.482   8.010   1.591 -1.2752  0.1929 -0.1399
  439MOL0     H60543   2.330   8.059   1.665 -0.0891  1.4653  1.1478
  439MOL0     H60544   2.848   8.383   1.193  1.9812 -0.4106  1.5137
  439MOL0     H60545   3.065   8.328   1.097  0.7571 -1.6489 -2.7484
  439MOL0     H60546   3.234   7.944   0.914  1.1819  1.9633 -0.2175
  439MOL0     H60547   3.056   7.937   0.920  0.6789 -0.4739 -1.2511
  439MOL0     H60548   3.088   8.027   0.722  2.1086 -2.1049  0.8734
  439MOL0     H60549   3.068   8.183   0.820  1.0196  1.7345 -1.4187
  439MOL0     H60550   3.334   8.060   0.736 -0.5152 -0.3228  0.4247
  439MOL0     H60551   3.305   8.211   0.829  1.8612 -1.4634  1.0319
  439MOL0     H60552   3.211   8.321   0.647  1.4302  0.2075  0.4481
  439MOL0     H60553   3.179   8.172   0.547  0.5710  0.6466 -0.5926
  439MOL0     H60554   3.345   8.346   0.494 -2.2044  0.1125  0.4137
  439MOL0     H60555   3.450   8.276   0.628 -0.7664 -1.1991  0.0318
  439MOL0     H60556   3.366   8.095   0.404 -1.1409 -0.8380  2.3451
  439MOL0     H60557   3.479   8.065   0.523 -3.9435 -3.0137 -0.7014
  439MOL0     H60558   3.542   8.327   0.383 -1.9332  0.4337 -2.5701
  439MOL0     H60559   3.507   8.202   0.265 -0.2849 -2.5835 -0.6795
  439MOL0     H60560   3.678   8.046   0.342 -0.9798 -0.9739  0.8813
  439MOL0     H60561   3.703   8.157   0.482  3.2823  3.4007 -1.4008
  439MOL0     H60562   2.962   7.899   1.161  0.0927  0.0850  0.8363
  439MOL0     H60563   2.764   7.964   1.234 -0.2186 -0.6688 -2.0308
  439MOL0     H60564   2.456   8.328   1.200 -2.1625  1.2423 -0.9671
  439MOL0     H60565   2.255   8.457   1.249  1.3053 -0.0096 -1.8063
  439MOL0     H60566   1.258   8.824   2.185  0.1116  1.3252  0.1151
  439MOL0     H60567   1.530   8.852   2.205 -0.4140 -2.4262  4.2648
  439MOL0     H60568   1.841   8.649   2.339  2.1702 -2.0384  0.1673
  439MOL0     H60569   2.014   8.699   2.480 -0.6811  0.0283  0.3497
  439MOL0     H60570   2.280   9.014   2.346 -0.7413  3.8188  0.1650
  439MOL0     H60571   2.261   9.109   2.488  0.1548 -0.4119  1.0365
  439MOL0     H60572   2.492   9.018   2.483 -1.9097 -0.3195 -3.8250
  439MOL0     H60573   2.425   8.858   2.496 -2.9875 -0.1008 -0.2462
  439MOL0     H60574   2.354   9.047   2.723  0.3556  1.2744 -1.9275
  439MOL0     H60575   2.332   8.876   2.713  0.1042 -2.1307 -2.4932
  439MOL0     H60576   2.554   8.816   2.721 -2.4028 -0.8296 -0.6607
  439MOL0     H60577   2.519   8.931   2.855  0.2753 -2.8297  0.0215
  439MOL0     H60578   2.800   9.138   2.590 -0.4435  0.9693  0.5544
  439MOL0     H60579   2.066   9.084   2.300  0.7096 -0.3252  0.5611
  439MOL0     H60580   1.784   9.081   2.091  0.3572 -0.1844 -0.9785
  439MOL0     H60581   1.916   9.170   2.139 -1.6285  0.3552 -0.3337
  439MOL0     H60582   1.947   9.055   2.007  2.1315 -1.0219  0.4191
  440MOL0     O60583   7.018   1.993   3.497  0.5320  0.5566  0.6276
  440MOL0     C60584   6.979   2.101   3.452 -0.3332  0.6568 -0.2961
  440MOL0     O60585   6.980   2.213   3.521 -0.2340  0.3713  0.0608
  440MOL0     C60586   7.030   2.218   3.643  0.3373  0.7203  0.9031
  440MOL0     C60587   6.939   2.229   3.749 -0.4654  0.6313  1.0743
  440MOL0     C60588   6.975   2.224   3.885  0.0652  0.7901  0.3420
  440MOL0     C60589   7.112   2.209   3.915  0.2817 -0.6333 -0.3163
  440MOL0     O60590   7.156   2.174   4.044  0.0777 -0.5197  0.9845
  440MOL0     C60591   7.066   2.160   4.145  0.5553  0.1230 -0.3406
  440MOL0     C60592   7.129   2.148   4.281 -0.2811 -1.0654  0.1449
  440MOL0     C60593   7.027   2.122   4.396 -0.8721  0.2599  0.1879
  440MOL0     C60594   7.099   2.092   4.532 -1.0142 -0.3486  1.2944
  440MOL0     C60595   6.999   2.052   4.643 -0.1258  0.0435 -0.0462
  440MOL0     C60596   6.907   2.157   4.676  0.1009 -0.0737 -0.3972
  440MOL0     C60597   6.824   2.104   4.804 -0.1651 -0.0832  0.0070
  440MOL0     C60598   6.736   2.227   4.830  0.7688 -0.1344 -0.0150
  440MOL0     N60599   6.617   2.193   4.914 -0.1943 -1.1583 -0.3019
  440MOL0     C60600   6.613   2.152   5.048 -1.1075  0.0200  0.2611
  440MOL0     C60601   6.482   2.133   5.070 -0.0521 -0.2012  1.2624
  440MOL0     C60602   6.416   2.093   5.191  0.5689  0.0613  0.6047
  440MOL0     C60603   6.301   1.985   5.183 -0.4168 -0.4311 -0.5667
  440MOL0     C60604   6.199   1.985   5.308 -1.1168  0.2786 -0.7357
  440MOL0     C60605   6.107   1.869   5.292  0.0515  0.1751 -0.4730
  440MOL0     O60606   6.177   1.748   5.310  0.1793  0.0940 -0.3970
  440MOL0     C60607   6.101   1.633   5.322  0.1191 -0.3206 -0.1201
  440MOL0     C60608   5.952   1.627   5.319  0.7450  0.0789  0.0450
  440MOL0     C60609   5.883   1.500   5.319 -0.6346 -0.5232  0.0232
  440MOL0     C60610   5.730   1.502   5.309 -0.2065 -0.3026 -0.0636
  440MOL0     C60611   5.969   1.380   5.316 -0.6440 -0.2074 -0.8259
  440MOL0     C60612   5.910   1.239   5.307  0.7152  0.8347 -0.6243
  440MOL0     O60613   6.001   1.140   5.295 -0.5786  0.8501 -0.0696
  440MOL0     C60614   5.963   1.009   5.294  0.2893 -0.3563 -0.2823
  440MOL0     C60615   5.890   0.963   5.408  0.2248 -1.0624 -0.8303
  440MOL0     C60616   5.867   0.824   5.405  1.0253 -0.0788  0.2847
  440MOL0     C60617   5.885   0.734   5.290 -0.4795 -0.5709 -0.1002
  440MOL0     O60618   5.847   0.605   5.274 -0.1619  0.7083  0.7797
  440MOL0     C60619   5.767   0.542   5.367  0.1848  0.0866 -0.2005
  440MOL0     C60620   5.844   0.433   5.439  0.3885 -0.0924  0.1925
  440MOL0     C60621   5.749   0.321   5.507 -0.7659 -0.1865 -0.1615
  440MOL0     C60622   5.819   0.219   5.594  0.1379  0.4349 -0.5505
  440MOL0     C60623   5.726   0.137   5.680 -0.1197  0.3001 -0.9723
  440MOL0     C60624   5.678   0.006   5.606  0.3467 -0.0087  0.0953
  440MOL0     C60625   5.573  -0.071   5.677 -0.3580 -0.1467 -0.6575
  440MOL0     C60626   5.632  -0.178   5.770 -0.0789 -0.0343  0.3863
  440MOL0    Cl60627   5.494  -0.276   5.822 -0.0016  0.4501 -0.5577
  440MOL0     C60628   5.962   0.797   5.183 -0.3113  0.1138 -0.6341
  440MOL0     C60629   5.994   0.934   5.186  0.0996 -0.3238  0.0807
  440MOL0     O60630   5.786   1.222   5.298  0.4776 -0.3580  0.4308
  440MOL0     C60631   6.109   1.389   5.323 -0.4382  0.8410 -0.4438
  440MOL0     C60632   6.170   1.511   5.327 -0.9257  0.3548 -0.1542
  440MOL0     N60633   6.410   2.166   4.958  0.1938 -0.2586 -0.3443
  440MOL0     N60634   6.490   2.204   4.862  0.1342  0.1046  0.2179
  440MOL0     C60635   7.202   2.215   3.804 -0.4797 -0.7717  0.5061
  440MOL0     C60636   7.166   2.223   3.671  0.3367  0.1442 -0.3480
  440MOL0     C60637   6.928   2.103   3.310  0.1180 -0.7486  0.0164
  440MOL0     C60638   6.970   1.994   3.224  0.8042 -0.8352  0.7636
  440MOL0     C60639   6.937   1.992   3.091 -0.0504  0.1869  0.5183
  440MOL0     C60640   6.841   2.089   3.044 -1.6062  0.6421  0.2813
  440MOL0     O60641   6.800   2.096   2.913  0.0707  0.7364  0.7526
  440MOL0     C60642   6.842   2.001   2.809  0.4073 -0.1505 -0.3899
  440MOL0     C60643   6.794   1.847   2.825  0.5167 -0.6152  0.5297
  440MOL0     C60644   6.822   1.762   2.706 -0.4810 -0.6722 -0.9426
  440MOL0     C60645   6.749   1.627   2.715 -0.2666 -0.1419  0.4497
  440MOL0     C60646   6.815   1.543   2.826  0.3967 -0.4694 -0.0826
  440MOL0     C60647   6.852   1.467   2.917 -0.9950 -0.3844  1.0155
  440MOL0     C60648   6.795   2.187   3.126 -0.3690  0.3585 -0.1833
  440MOL0     C60649   6.840   2.202   3.257 -1.0836 -0.7517  0.7163
  440MOL0     C60650   6.787   2.311   3.343 -0.1082 -1.0592  0.0868
  440MOL0     H60651   6.833   2.233   3.727  0.0061  0.2945 -1.5485
  440MOL0     H60652   6.894   2.220   3.957 -1.3864 -0.3638 -1.2694
  440MOL0     H60653   7.013   2.067   4.126  2.3671 -1.2623  0.9623
  440MOL0     H60654   6.998   2.246   4.146 -2.1979 -1.9334 -0.2352
  440MOL0     H60655   7.197   2.065   4.260  1.8791  1.3099 -3.2727
  440MOL0     H60656   7.182   2.242   4.296 -2.7125  0.0343  2.8959
  440MOL0     H60657   6.968   2.214   4.391  1.4662  1.7449 -2.4907
  440MOL0     H60658   6.968   2.031   4.379  0.3161 -0.8888  1.8391
  440MOL0     H60659   7.172   2.011   4.531 -1.2436 -0.5954  2.5258
  440MOL0     H60660   7.144   2.183   4.572 -3.8976  1.6414  0.3975
  440MOL0     H60661   7.049   2.016   4.733 -0.4100  0.0979  0.1343
  440MOL0     H60662   6.942   1.964   4.612  1.8559 -1.0148 -0.9015
  440MOL0     H60663   6.969   2.246   4.690  1.4234 -0.9363 -0.6260
  440MOL0     H60664   6.841   2.177   4.591  1.1151  0.3862 -1.0918
  440MOL0     H60665   6.889   2.082   4.890  0.1731  1.7879  0.2610
  440MOL0     H60666   6.764   2.015   4.780 -2.2629  0.7190  1.9386
  440MOL0     H60667   6.799   2.302   4.878  2.6719 -0.3871 -1.9838
  440MOL0     H60668   6.706   2.276   4.738  1.9397 -0.2637 -0.4817
  440MOL0     H60669   6.699   2.123   5.108  0.8544  3.7286 -0.4622
  440MOL0     H60670   6.377   2.183   5.239 -2.1000 -0.2552 -0.7841
  440MOL0     H60671   6.495   2.044   5.249  1.8327  1.7965  0.4237
  440MOL0     H60672   6.258   2.014   5.087  2.9412 -2.5136 -2.9241
  440MOL0     H60673   6.348   1.887   5.182  1.0118  0.2289 -0.5990
  440MOL0     H60674   6.272   1.969   5.388 -0.0901  0.3294 -1.6400
  440MOL0     H60675   6.142   2.078   5.316 -2.2771 -0.2676 -2.3286
  440MOL0     H60676   6.027   1.890   5.364  0.5885 -0.7595  0.4159
  440MOL0     H60677   6.064   1.883   5.192 -0.2518  0.9946 -0.2378
  440MOL0     H60678   5.889   1.715   5.309 -4.1459 -3.2214 -1.5223
  440MOL0     H60679   5.690   1.591   5.358 -0.7207  1.1699 -2.9171
  440MOL0     H60680   5.671   1.423   5.355  0.1407  0.7230  2.2574
  440MOL0     H60681   5.705   1.512   5.203  1.1537 -2.8441 -0.6998
  440MOL0     H60682   5.889   1.028   5.495  1.8657 -1.4028 -0.5350
  440MOL0     H60683   5.835   0.777   5.498 -0.9621 -0.3973 -0.5002
  440MOL0     H60684   5.716   0.605   5.441  0.4840 -0.7562  0.7470
  440MOL0     H60685   5.682   0.509   5.306 -1.7084  2.5471  0.9638
  440MOL0     H60686   5.902   0.375   5.366  1.6093  2.2134 -0.7835
  440MOL0     H60687   5.905   0.482   5.515  0.7761 -1.3549  0.7302
  440MOL0     H60688   5.693   0.268   5.430 -3.1459 -0.1458  1.4277
  440MOL0     H60689   5.685   0.380   5.574  0.8609  1.6227 -0.1036
  440MOL0     H60690   5.895   0.271   5.654  1.5132 -2.3272  0.2510
  440MOL0     H60691   5.871   0.144   5.534  1.2431  0.2806  0.5628
  440MOL0     H60692   5.785   0.104   5.766 -0.3160  1.0097 -0.5563
  440MOL0     H60693   5.647   0.202   5.719  1.2549 -0.1747  3.1251
  440MOL0     H60694   5.755  -0.065   5.573 -0.0585 -0.8384  0.8907
  440MOL0     H60695   5.640   0.054   5.515  0.1111  2.0934  1.2627
  440MOL0     H60696   5.511  -0.127   5.607 -0.5215  0.7552 -1.2446
  440MOL0     H60697   5.513   0.001   5.734  1.4885  3.6792 -3.1466
  440MOL0     H60698   5.666  -0.131   5.863 -1.9483  1.5852  0.3273
  440MOL0     H60699   5.714  -0.238   5.731  0.3166  0.6720  0.1108
  440MOL0     H60700   5.989   0.728   5.104 -2.1716 -0.1441 -1.0940
  440MOL0     H60701   6.027   0.976   5.091 -0.9074  1.5069  0.4994
  440MOL0     H60702   6.160   1.294   5.334 -0.4786  1.0118  1.5189
  440MOL0     H60703   6.276   1.502   5.306 -0.5568 -0.3404  1.8164
  440MOL0     H60704   7.309   2.201   3.811 -0.4001 -1.8892 -1.8347
  440MOL0     H60705   7.247   2.209   3.600 -1.9283 -3.1884 -2.5465
  440MOL0     H60706   7.032   1.917   3.268  1.5217  1.0742  3.3607
  440MOL0     H60707   6.968   1.908   3.029 -0.5652  0.1479  0.3091
  440MOL0     H60708   6.817   2.026   2.706  0.0592  0.9440 -0.0497
  440MOL0     H60709   6.951   2.007   2.807  0.3586  2.9869  0.9176
  440MOL0     H60710   6.685   1.833   2.824  0.4919 -0.3883 -0.5020
  440MOL0     H60711   6.836   1.795   2.912  1.3510 -0.9331 -0.0458
  440MOL0     H60712   6.791   1.822   2.620  0.5954  0.1553 -0.7726
  440MOL0     H60713   6.926   1.732   2.688  1.0376  3.5855 -0.3692
  440MOL0     H60714   6.768   1.575   2.621 -4.0797 -0.2997 -0.3814
  440MOL0     H60715   6.642   1.638   2.732  0.0808  1.4727  1.7955
  440MOL0     H60716   6.882   1.393   2.989 -0.0691 -2.1177 -1.0356
  440MOL0     H60717   6.729   2.268   3.094 -1.6174  0.0584  1.4725
  440MOL0     H60718   6.766   2.285   3.447  1.4520  0.3627  0.8080
  440MOL0     H60719   6.850   2.400   3.334 -1.1280 -0.4649 -1.5053
  440MOL0     H60720   6.687   2.339   3.308  0.1902 -0.2084 -0.1230
  441MOL0     O60721   1.790   2.465   2.779 -0.2013 -0.1573 -0.2330
  441MOL0     C60722   1.806   2.397   2.678 -0.2984  0.9559 -0.4720
  441MOL0     O60723   1.922   2.385   2.611  0.1685 -0.7267  0.0877
  441MOL0     C60724   2.032   2.456   2.652  0.8151 -0.0201 -0.2274
  441MOL0     C60725   2.030   2.590   2.668 -0.3803  1.0449  0.0564
  441MOL0     C60726   2.138   2.664   2.708 -0.1685 -0.5253 -0.2343
  441MOL0     C60727   2.254   2.590   2.741 -0.0551  0.0219 -0.2594
  441MOL0     O60728   2.371   2.646   2.776 -0.6350  0.4494 -0.7185
  441MOL0     C60729   2.374   2.760   2.855 -0.9056 -0.8737 -0.6586
  441MOL0     C60730   2.512   2.828   2.870 -0.8335 -1.1176  0.6103
  441MOL0     C60731   2.598   2.779   2.991  0.8093 -0.1899  0.3451
  441MOL0     C60732   2.700   2.889   3.028  0.2397 -0.2649  0.1773
  441MOL0     C60733   2.784   2.852   3.154  0.1048  0.9059 -0.5104
  441MOL0     C60734   2.886   2.960   3.180  0.2890  0.5621 -0.1676
  441MOL0     C60735   2.935   2.935   3.320 -0.1256 -0.1731 -0.4142
  441MOL0     C60736   3.080   2.983   3.326 -0.0072  0.1306 -0.2312
  441MOL0     N60737   3.088   3.121   3.257 -0.0630  0.3265  0.2655
  441MOL0     C60738   3.060   3.234   3.325  1.2854 -0.6577  0.5416
  441MOL0     C60739   3.080   3.336   3.234  1.0609  0.1669 -0.1089
  441MOL0     C60740   3.046   3.480   3.239 -0.8022 -1.3054 -0.0195
  441MOL0     C60741   3.165   3.553   3.299 -0.5251  0.1180  0.2855
  441MOL0     C60742   3.135   3.705   3.278 -0.6600 -0.6429  0.1326
  441MOL0     C60743   3.255   3.796   3.313 -0.1747  0.2253  0.0959
  441MOL0     O60744   3.271   3.774   3.453  0.2192 -0.0284 -0.1813
  441MOL0     C60745   3.368   3.854   3.520  0.5695 -0.3183 -0.2470
  441MOL0     C60746   3.409   3.811   3.647  0.2283 -0.1357  0.2851
  441MOL0     C60747   3.500   3.880   3.724 -0.8432 -0.2893  1.1338
  441MOL0     C60748   3.532   3.821   3.860  0.2481 -0.0951  0.0092
  441MOL0     C60749   3.555   3.997   3.668  0.1421  0.5630 -0.1208
  441MOL0     C60750   3.657   4.077   3.729 -0.2259 -0.6787 -0.1682
  441MOL0     O60751   3.687   4.194   3.670  0.4271  0.0951  0.0593
  441MOL0     C60752   3.784   4.281   3.718  0.0584  0.7228 -0.6006
  441MOL0     C60753   3.743   4.410   3.743  0.3663  0.3660 -0.3421
  441MOL0     C60754   3.831   4.495   3.796  0.0571  0.2595  0.7557
  441MOL0     C60755   3.966   4.463   3.809  0.8997  1.2788  0.9831
  441MOL0     O60756   4.063   4.548   3.830 -0.4539 -0.3606 -0.5605
  441MOL0     C60757   4.059   4.595   3.962 -0.2073 -0.3062 -0.3038
  441MOL0     C60758   4.136   4.496   4.065  0.3822 -0.0893 -0.5618
  441MOL0     C60759   4.140   4.534   4.215  0.0385 -0.2539 -0.4949
  441MOL0     C60760   4.239   4.645   4.222 -0.1651 -0.7716  0.2788
  441MOL0     C60761   4.250   4.699   4.364  0.3817 -0.1015 -0.1349
  441MOL0     C60762   4.113   4.759   4.437  0.0577  0.1409  0.3207
  441MOL0     C60763   4.132   4.786   4.587 -0.5126  0.3594 -0.3344
  441MOL0     C60764   4.224   4.919   4.605  0.6346 -0.1398  0.4066
  441MOL0    Cl60765   4.131   5.067   4.546 -0.3760  0.1361  0.1486
  441MOL0     C60766   4.007   4.327   3.784 -0.7656 -0.5675 -0.6872
  441MOL0     C60767   3.914   4.237   3.743  0.5085  0.6563  0.0971
  441MOL0     O60768   3.707   4.045   3.833  0.1644 -0.1510 -0.0340
  441MOL0     C60769   3.515   4.041   3.540  0.0544  0.4086 -0.3292
  441MOL0     C60770   3.411   3.978   3.468  0.6168 -0.4077  0.5218
  441MOL0     N60771   3.130   3.283   3.120  0.3512  0.1400 -0.1119
  441MOL0     N60772   3.129   3.156   3.133  0.0398  1.0644  0.3575
  441MOL0     C60773   2.272   2.451   2.717  0.5843  0.6046  0.3661
  441MOL0     C60774   2.152   2.385   2.669 -0.4452  0.4349  0.1976
  441MOL0     C60775   1.693   2.326   2.615 -0.0317 -0.6763 -0.2320
  441MOL0     C60776   1.705   2.294   2.480 -0.0461  0.8125  0.0727
  441MOL0     C60777   1.610   2.223   2.413 -0.1227 -0.3978  0.2247
  441MOL0     C60778   1.493   2.189   2.482  0.2190 -0.1346  0.3245
  441MOL0     O60779   1.401   2.121   2.401  0.1853 -0.3856  0.1248
  441MOL0     C60780   1.275   2.070   2.448  0.8815  0.3090 -0.3786
  441MOL0     C60781   1.182   2.012   2.344  0.7629 -0.4130  0.4000
  441MOL0     C60782   1.186   1.857   2.342 -0.1257  0.3773 -0.5077
  441MOL0     C60783   1.116   1.791   2.231  0.6707  0.6734  0.8797
  441MOL0     C60784   0.970   1.807   2.253  0.1510  0.1155 -0.3199
  441MOL0     C60785   0.852   1.816   2.274  0.8986 -0.1011 -0.9422
  441MOL0     C60786   1.470   2.217   2.611 -0.3904 -0.7615 -0.1425
  441MOL0     C60787   1.565   2.288   2.682 -0.1298 -0.2808 -0.5651
  441MOL0     C60788   1.518   2.331   2.825 -0.4581  0.5502 -0.9470
  441MOL0     H60789   1.938   2.643   2.647 -1.2589 -0.2814  0.4422
  441MOL0     H60790   2.142   2.772   2.704  2.1529 -0.4685  1.7601
  441MOL0     H60791   2.320   2.755   2.951  1.7122  0.3008  0.9797
  441MOL0     H60792   2.330   2.840   2.795 -2.1033  0.6222  2.0275
  441MOL0     H60793   2.571   2.811   2.780  1.3299  1.2149  1.4838
  441MOL0     H60794   2.495   2.935   2.879 -0.4777 -0.8004 -1.9142
  441MOL0     H60795   2.534   2.771   3.079  1.8666  2.6714  1.5137
  441MOL0     H60796   2.643   2.684   2.961 -3.9403 -1.2434 -4.9569
  441MOL0     H60797   2.769   2.871   2.945  0.0860 -0.3320  0.0628
  441MOL0     H60798   2.653   2.987   3.033 -0.3569 -0.6109  2.0917
  441MOL0     H60799   2.836   2.763   3.119  0.0857  1.2976 -1.5540
  441MOL0     H60800   2.712   2.844   3.236 -0.4088  3.9875 -0.5490
  441MOL0     H60801   2.956   2.964   3.096  0.6929  3.2752  0.1950
  441MOL0     H60802   2.836   3.057   3.166 -0.7846  0.4502  2.3952
  441MOL0     H60803   2.928   2.829   3.346  2.7502 -0.3516 -0.0806
  441MOL0     H60804   2.870   2.988   3.390  1.5461 -0.1046  1.1586
  441MOL0     H60805   3.109   2.998   3.431  1.1254 -0.4428 -0.4468
  441MOL0     H60806   3.149   2.910   3.283  0.8488  1.0537 -0.4525
  441MOL0     H60807   3.002   3.245   3.416 -1.9886  0.0888 -1.4429
  441MOL0     H60808   2.945   3.503   3.275 -0.1469  1.2359  0.4277
  441MOL0     H60809   3.039   3.512   3.134  1.0115 -0.1696  0.1452
  441MOL0     H60810   3.183   3.517   3.401  4.9948  2.6100  0.5815
  441MOL0     H60811   3.249   3.519   3.238 -0.9322  0.3615 -0.4232
  441MOL0     H60812   3.104   3.726   3.175 -2.0704  1.0297  0.8602
  441MOL0     H60813   3.040   3.720   3.329 -1.3708 -0.4179 -1.1982
  441MOL0     H60814   3.347   3.774   3.258  1.5423  3.0713  1.5925
  441MOL0     H60815   3.229   3.900   3.291 -1.8111  0.0575  1.0546
  441MOL0     H60816   3.369   3.716   3.680  0.6493 -1.4541 -2.6318
  441MOL0     H60817   3.634   3.784   3.873  0.8608 -0.2686 -4.0199
  441MOL0     H60818   3.462   3.741   3.885 -0.3055  0.4113  0.1207
  441MOL0     H60819   3.518   3.893   3.941 -1.6745 -1.6424  1.1329
  441MOL0     H60820   3.640   4.437   3.724 -0.7862 -1.2459  2.8276
  441MOL0     H60821   3.800   4.599   3.806  1.6239  0.6289  2.5439
  441MOL0     H60822   4.102   4.696   3.966 -0.8159 -0.0610  0.5364
  441MOL0     H60823   3.955   4.600   3.998 -0.0460  1.6867  0.0111
  441MOL0     H60824   4.090   4.397   4.062  1.2520 -0.5142 -0.1847
  441MOL0     H60825   4.239   4.493   4.028  0.4385  0.9832 -0.5362
  441MOL0     H60826   4.167   4.456   4.287 -2.2688 -0.5947  0.0967
  441MOL0     H60827   4.037   4.557   4.246  0.7588 -0.5613  2.4443
  441MOL0     H60828   4.210   4.722   4.150 -3.0509 -1.3592  0.6913
  441MOL0     H60829   4.341   4.613   4.199  0.7185  1.4159  0.8229
  441MOL0     H60830   4.286   4.618   4.428 -1.3376 -1.3887 -0.7057
  441MOL0     H60831   4.327   4.776   4.365 -0.7857  1.1584 -1.7867
  441MOL0     H60832   4.034   4.682   4.430  0.0095  0.2107  0.0749
  441MOL0     H60833   4.073   4.842   4.378 -0.6869 -0.1682  0.3747
  441MOL0     H60834   4.172   4.701   4.643 -2.4670  0.5761  1.5307
  441MOL0     H60835   4.030   4.805   4.622 -0.1055  2.9653 -0.3956
  441MOL0     H60836   4.318   4.924   4.550 -0.1663  2.7500 -0.9230
  441MOL0     H60837   4.246   4.937   4.710  0.3275  0.0287  0.4443
  441MOL0     H60838   4.111   4.300   3.769  0.1335  2.4096 -0.5591
  441MOL0     H60839   3.941   4.135   3.718 -0.1589  0.8473 -1.5033
  441MOL0     H60840   3.538   4.137   3.496 -1.3274  0.3004 -1.3774
  441MOL0     H60841   3.375   4.025   3.377  1.4035  0.7722  0.7918
  441MOL0     H60842   2.369   2.406   2.734 -0.1008 -0.5346  1.4508
  441MOL0     H60843   2.158   2.279   2.647 -0.0591 -0.3005  3.2751
  441MOL0     H60844   1.799   2.310   2.427  0.7107 -1.1670  0.6988
  441MOL0     H60845   1.622   2.210   2.306 -1.4249 -0.3719  0.0696
  441MOL0     H60846   1.297   1.993   2.522 -1.3298  1.2275  1.3192
  441MOL0     H60847   1.212   2.148   2.492  1.6092  1.1868 -0.8476
  441MOL0     H60848   1.208   2.049   2.244 -0.4102  0.7646  0.5056
  441MOL0     H60849   1.083   2.042   2.380  0.0853 -1.6370 -0.3699
  441MOL0     H60850   1.290   1.826   2.331 -0.3419  0.1907 -2.2725
  441MOL0     H60851   1.153   1.820   2.439  2.2029  2.7786  1.3476
  441MOL0     H60852   1.159   1.690   2.228 -0.5977  0.1327 -0.5382
  441MOL0     H60853   1.142   1.835   2.134 -0.4992 -0.5764 -0.0365
  441MOL0     H60854   0.746   1.812   2.290  0.9317 -1.6822 -0.9682
  441MOL0     H60855   1.387   2.188   2.675  0.7870 -0.1840  1.7382
  441MOL0     H60856   1.416   2.365   2.842  0.4508  1.6448  3.5815
  441MOL0     H60857   1.524   2.242   2.888  0.3104  0.7298 -0.7538
  441MOL0     H60858   1.591   2.401   2.866  0.2915 -0.0630 -1.2050
  442MOL0     O60859   9.425   6.497   3.589  0.2175 -0.3424 -0.1557
  442MOL0     C60860   9.392   6.607   3.633  0.0741 -0.5452 -0.4661
  442MOL0     O60861   9.473   6.693   3.700 -0.4165  0.1472  0.6632
  442MOL0     C60862   9.604   6.706   3.670  0.1147  0.0584 -0.0428
  442MOL0     C60863   9.679   6.767   3.765  0.2555 -0.8385 -0.4062
  442MOL0     C60864   9.818   6.786   3.756 -0.0216 -0.4408  0.3761
  442MOL0     C60865   9.888   6.724   3.651  0.2034  0.1064 -0.6394
  442MOL0     O60866  10.022   6.717   3.655 -0.6326  0.0249  1.3427
  442MOL0     C60867  10.092   6.674   3.539 -1.0765 -0.4306  0.9959
  442MOL0     C60868  10.239   6.647   3.554  0.1960  0.4896 -0.1469
  442MOL0     C60869  10.280   6.632   3.701  0.1506  0.4212  0.5564
  442MOL0     C60870  10.433   6.597   3.701  0.4281  0.1914  0.2074
  442MOL0     C60871  10.484   6.603   3.841 -0.2373  0.7850 -0.2786
  442MOL0     C60872  10.626   6.546   3.832  0.5552  0.4052  0.4277
  442MOL0     C60873  10.617   6.394   3.838 -0.0854 -0.2149  0.7201
  442MOL0     C60874  10.717   6.341   3.936 -0.1951  0.6306  0.3486
  442MOL0     N60875  10.732   6.192   3.930 -0.1304  0.2706  0.1880
  442MOL0     C60876  10.817   6.104   3.861 -0.1183  0.2763  0.1227
  442MOL0     C60877  10.819   5.992   3.932 -0.0196  0.1093  1.1511
  442MOL0     C60878  10.915   5.880   3.917  0.2357  0.1936 -0.5969
  442MOL0     C60879  11.038   5.930   3.999  0.5972  0.7877  0.2319
  442MOL0     C60880  11.166   5.848   3.970 -0.2280  0.0124  0.6965
  442MOL0     C60881  11.278   5.856   4.081 -0.0112 -0.9793  1.0619
  442MOL0     O60882  11.317   5.999   4.080 -0.2339 -0.3957 -0.4692
  442MOL0     C60883  11.435   6.044   4.133  0.8514  0.6743 -0.1976
  442MOL0     C60884  11.467   6.179   4.131  0.0093  0.3634  0.2268
  442MOL0     C60885  11.589   6.229   4.176  0.1901 -0.0318  0.5669
  442MOL0     C60886  11.597   6.383   4.186 -0.5380 -0.8236  0.1885
  442MOL0     C60887  11.684   6.139   4.223 -0.4312 -0.4318 -0.1763
  442MOL0     C60888  11.818   6.168   4.276  0.1619  0.0198 -0.5087
  442MOL0     O60889  11.835   6.272   4.361 -0.4811 -0.2132  0.3709
  442MOL0     C60890  11.968   6.295   4.405  0.4939 -0.5020 -0.1322
  442MOL0     C60891  12.027   6.423   4.399  0.7177  0.3820  0.2903
  442MOL0     C60892  12.153   6.449   4.459  1.1341 -0.4363  0.5019
  442MOL0     C60893  12.214   6.354   4.535 -0.9623 -0.5954 -0.3515
  442MOL0     O60894  12.332   6.401   4.591  0.3723 -0.4763 -0.0509
  442MOL0     C60895  12.394   6.314   4.694  0.0820 -0.7037  0.1405
  442MOL0     C60896  12.538   6.349   4.721  0.4835 -1.0036  0.5451
  442MOL0     C60897  12.550   6.501   4.764  0.3599 -0.1109  0.0195
  442MOL0     C60898  12.443   6.555   4.865  0.1793  0.0817 -0.8847
  442MOL0     C60899  12.460   6.707   4.895  0.2991  1.4713 -0.9580
  442MOL0     C60900  12.452   6.800   4.780  0.6555 -0.0867 -0.4004
  442MOL0     C60901  12.489   6.947   4.829 -0.6003  0.9150  1.2379
  442MOL0     C60902  12.417   7.037   4.739 -0.1777 -0.0037  0.0525
  442MOL0    Cl60903  12.439   6.992   4.559  0.1849  0.0682  0.1922
  442MOL0     C60904  12.159   6.230   4.543 -0.0727 -0.2228  0.5848
  442MOL0     C60905  12.040   6.199   4.478 -0.3071  0.7080  0.2064
  442MOL0     O60906  11.902   6.082   4.245  0.2774 -0.5796  0.2884
  442MOL0     C60907  11.654   6.005   4.234 -0.3221  0.3011  0.6019
  442MOL0     C60908  11.531   5.958   4.192  1.2819  0.8690  0.7317
  442MOL0     N60909  10.737   6.008   4.040  0.8064 -0.1056 -0.1547
  442MOL0     N60910  10.682   6.122   4.034  0.7242  0.6023 -0.9321
  442MOL0     C60911   9.809   6.679   3.546  1.3260  0.7783  0.2982
  442MOL0     C60912   9.665   6.663   3.556  0.2140  0.1671 -0.2355
  442MOL0     C60913   9.245   6.628   3.634  0.8433  0.1898 -0.4862
  442MOL0     C60914   9.165   6.527   3.694 -0.1464 -0.6711 -0.5193
  442MOL0     C60915   9.022   6.531   3.687 -0.6947  0.4723  0.1674
  442MOL0     C60916   8.954   6.634   3.628 -0.4958 -0.9032  0.1081
  442MOL0     O60917   8.825   6.664   3.620 -0.2551  0.2180 -0.1339
  442MOL0     C60918   8.747   6.592   3.714 -0.8244  0.2323 -0.7167
  442MOL0     C60919   8.598   6.640   3.732 -0.7519  0.3723  0.4456
  442MOL0     C60920   8.513   6.602   3.609 -0.8001 -0.1569  0.6401
  442MOL0     C60921   8.364   6.656   3.621 -0.0784  0.2749  0.2700
  442MOL0     C60922   8.323   6.688   3.488  0.8388 -1.1660  0.3407
  442MOL0     C60923   8.291   6.734   3.383  0.8964  0.0427 -0.5896
  442MOL0     C60924   9.035   6.737   3.575 -0.3620  0.7933  0.5270
  442MOL0     C60925   9.182   6.737   3.577 -0.0146 -0.1270 -1.1845
  442MOL0     C60926   9.261   6.851   3.515  0.2615 -0.1061 -0.3482
  442MOL0     H60927   9.630   6.808   3.852  2.0274  0.2684  0.1319
  442MOL0     H60928   9.866   6.847   3.832  1.0765  0.7127 -1.1775
  442MOL0     H60929  10.082   6.743   3.455 -1.3108 -2.6246 -0.8933
  442MOL0     H60930  10.054   6.574   3.518 -1.2355  0.0132 -1.0167
  442MOL0     H60931  10.262   6.553   3.503  2.7424  0.5497  0.7575
  442MOL0     H60932  10.307   6.719   3.507  2.5336 -1.5536 -0.0580
  442MOL0     H60933  10.261   6.722   3.759 -4.1604  1.1101 -1.5004
  442MOL0     H60934  10.226   6.556   3.757 -0.5186  3.4985  4.4825
  442MOL0     H60935  10.454   6.496   3.663  0.8002  0.5006 -0.4254
  442MOL0     H60936  10.494   6.666   3.643  1.8588 -0.7284  0.5643
  442MOL0     H60937  10.413   6.553   3.908  1.0767 -3.5646 -1.7754
  442MOL0     H60938  10.489   6.708   3.871  2.5711 -0.1005  3.0660
  442MOL0     H60939  10.672   6.579   3.739  0.3109  0.4570  0.3235
  442MOL0     H60940  10.680   6.581   3.920 -0.3250  0.8551  0.8029
  442MOL0     H60941  10.641   6.359   3.737 -0.1345 -2.7328  1.5014
  442MOL0     H60942  10.513   6.361   3.849 -0.3797 -0.2796 -1.7304
  442MOL0     H60943  10.822   6.369   3.921  0.1596  1.7625  3.9634
  442MOL0     H60944  10.695   6.382   4.034 -0.9998 -0.0600  0.4709
  442MOL0     H60945  10.886   6.120   3.779  0.5270 -2.3276  0.0707
  442MOL0     H60946  10.949   5.850   3.817  1.3476 -2.6933  0.5182
  442MOL0     H60947  10.862   5.790   3.949 -2.3281  1.1223 -1.9917
  442MOL0     H60948  11.058   6.035   3.976 -0.2254  0.6770 -1.1482
  442MOL0     H60949  11.010   5.917   4.104 -2.7011 -2.2673 -0.7982
  442MOL0     H60950  11.138   5.743   3.955 -0.5570  0.3492 -1.3575
  442MOL0     H60951  11.215   5.872   3.876  1.0194  0.9420  1.5507
  442MOL0     H60952  11.242   5.839   4.183 -5.2557 -0.0023 -0.3372
  442MOL0     H60953  11.360   5.786   4.063  0.4868 -0.2362  0.3149
  442MOL0     H60954  11.405   6.257   4.088  2.7437  3.5869  1.6284
  442MOL0     H60955  11.553   6.432   4.098  0.9341  0.5622  0.1849
  442MOL0     H60956  11.704   6.401   4.188 -0.5429 -0.6682  3.6007
  442MOL0     H60957  11.557   6.423   4.279  3.5996  0.2576  1.7034
  442MOL0     H60958  11.969   6.492   4.340 -0.7774 -1.1021 -0.0475
  442MOL0     H60959  12.196   6.548   4.452  0.3063 -0.0748  0.4508
  442MOL0     H60960  12.326   6.324   4.779 -1.5410 -3.0323 -0.7738
  442MOL0     H60961  12.399   6.209   4.665  1.1538 -0.0626 -2.2191
  442MOL0     H60962  12.583   6.288   4.800  3.5498  0.0824 -0.1907
  442MOL0     H60963  12.601   6.337   4.632  0.8680  0.3534  0.6083
  442MOL0     H60964  12.554   6.560   4.672 -0.2467 -0.3390 -0.1561
  442MOL0     H60965  12.646   6.517   4.812 -1.2103  2.6652  2.5672
  442MOL0     H60966  12.450   6.493   4.955 -0.8765 -0.5538 -1.2246
  442MOL0     H60967  12.343   6.539   4.824 -0.0670 -3.4994  0.7197
  442MOL0     H60968  12.378   6.722   4.966  0.7721  1.6036 -0.4288
  442MOL0     H60969  12.556   6.717   4.948  0.0891  0.0024 -0.2563
  442MOL0     H60970  12.354   6.785   4.733  2.0083  2.3074 -4.4892
  442MOL0     H60971  12.515   6.771   4.695 -1.5782  1.6113 -2.8127
  442MOL0     H60972  12.597   6.967   4.827 -0.3810 -0.2345 -0.2437
  442MOL0     H60973  12.455   6.959   4.932 -2.2231  1.4504  0.6734
  442MOL0     H60974  12.445   7.140   4.764 -0.0971  0.2007 -0.8714
  442MOL0     H60975  12.308   7.028   4.749 -0.4153 -0.1135 -2.2086
  442MOL0     H60976  12.206   6.156   4.608  0.3479  0.9371  1.6635
  442MOL0     H60977  12.015   6.094   4.487  1.0583  0.3984  0.6648
  442MOL0     H60978  11.720   5.928   4.272  0.3314  0.9989  0.8948
  442MOL0     H60979  11.512   5.852   4.208 -2.1339  0.7529 -2.5633
  442MOL0     H60980   9.859   6.645   3.456 -1.2244 -2.4441 -0.0850
  442MOL0     H60981   9.606   6.637   3.469  2.5557  3.8954 -3.2276
  442MOL0     H60982   9.214   6.442   3.740 -0.0602 -1.7100 -2.4157
  442MOL0     H60983   8.963   6.455   3.739  0.1825 -1.9791 -2.2205
  442MOL0     H60984   8.740   6.488   3.681 -3.3979  0.7017 -1.8192
  442MOL0     H60985   8.787   6.598   3.816 -1.8454  3.8964 -0.4170
  442MOL0     H60986   8.598   6.749   3.738 -0.2975  0.2865  3.1087
  442MOL0     H60987   8.559   6.612   3.830  2.2861 -0.7276  1.4503
  442MOL0     H60988   8.560   6.638   3.518  1.0796 -2.1644  0.7386
  442MOL0     H60989   8.502   6.493   3.601  1.5050 -0.3521 -0.7448
  442MOL0     H60990   8.357   6.754   3.667  2.8958  0.2995  0.8211
  442MOL0     H60991   8.300   6.587   3.677  0.7238  0.3852  1.3489
  442MOL0     H60992   8.250   6.763   3.288  1.9804 -0.6054 -1.2834
  442MOL0     H60993   8.982   6.813   3.519  0.2738  0.5420 -0.4360
  442MOL0     H60994   9.364   6.847   3.551  0.1098 -2.2536 -0.0223
  442MOL0     H60995   9.259   6.818   3.410  1.2476  3.1303 -1.5125
  442MOL0     H60996   9.223   6.954   3.518  1.0760  0.2212 -1.0363
  443MOL0     O60997   4.810  11.464  10.555  0.4403 -0.1671  0.4897
  443MOL0     C60998   4.774  11.501  10.445  0.2313 -0.3269  0.3675
  443MOL0     O60999   4.862  11.545  10.340 -0.1517 -0.7780 -0.6564
  443MOL0     C61000   4.998  11.516  10.342  1.1269 -0.1763 -0.5006
  443MOL0     C61001   5.050  11.398  10.386 -0.1891  0.7283 -0.5838
  443MOL0     C61002   5.189  11.382  10.389  0.1822  0.0185  0.0889
  443MOL0     C61003   5.275  11.470  10.338  0.4000  0.7201  0.4891
  443MOL0     O61004   5.411  11.435  10.327  0.4635 -0.2619  0.8310
  443MOL0     C61005   5.515  11.527  10.279 -0.1925  1.0029  1.0644
  443MOL0     C61006   5.651  11.475  10.294 -0.0060 -0.7740  0.1520
  443MOL0     C61007   5.692  11.465  10.441  0.2224  0.3581  0.5878
  443MOL0     C61008   5.819  11.394  10.470  0.8753  0.0237  0.6194
  443MOL0     C61009   5.844  11.375  10.623 -0.2705  0.1434  0.6209
  443MOL0     C61010   5.755  11.274  10.690 -1.0860 -0.0695 -0.3489
  443MOL0     C61011   5.818  11.218  10.819  0.3076  0.0851  0.5738
  443MOL0     C61012   5.833  11.314  10.933 -0.0648 -1.4736  0.4623
  443MOL0     N61013   5.913  11.257  11.042  0.3266  0.0596 -1.0147
  443MOL0     C61014   5.858  11.164  11.131  0.7217 -0.3159  0.9980
  443MOL0     C61015   5.961  11.137  11.217  0.3350 -0.2104  1.1112
  443MOL0     C61016   5.950  11.051  11.340 -0.2067  1.0738  0.0741
  443MOL0     C61017   6.013  11.111  11.468 -0.3138 -0.3446 -0.7684
  443MOL0     C61018   6.075  10.997  11.555  0.4178  0.6723  0.3654
  443MOL0     C61019   6.133  11.051  11.685 -0.4642  0.4484 -0.5940
  443MOL0     O61020   6.254  11.131  11.665  0.4104 -0.5539 -0.2382
  443MOL0     C61021   6.314  11.157  11.792  0.5845 -0.0334 -0.2775
  443MOL0     C61022   6.432  11.236  11.783 -0.1394  0.2078  0.4858
  443MOL0     C61023   6.510  11.266  11.894  0.3512  0.0628  0.0971
  443MOL0     C61024   6.629  11.355  11.877  0.0142  0.0783 -0.2725
  443MOL0     C61025   6.458  11.238  12.025  0.2408  0.5833 -0.0306
  443MOL0     C61026   6.535  11.275  12.150 -0.0372  0.7533 -0.4106
  443MOL0     O61027   6.644  11.349  12.147  0.4456 -0.1072 -0.0079
  443MOL0     C61028   6.716  11.374  12.263 -0.6311 -0.3839 -0.3395
  443MOL0     C61029   6.853  11.405  12.230 -0.1369  0.1616 -0.4927
  443MOL0     C61030   6.946  11.417  12.329 -0.1287 -0.2531 -0.1721
  443MOL0     C61031   6.905  11.416  12.463 -0.1299  0.5155 -0.0632
  443MOL0     O61032   6.987  11.437  12.571 -0.1845 -0.5035 -0.2652
  443MOL0     C61033   7.128  11.420  12.567  0.5152 -0.6500  0.2339
  443MOL0     C61034   7.195  11.461  12.697 -0.0937 -0.2900 -0.1342
  443MOL0     C61035   7.355  11.404  12.702 -0.5005 -0.3809 -0.1855
  443MOL0     C61036   7.457  11.489  12.632 -1.0445  0.3965  0.1436
  443MOL0     C61037   7.598  11.416  12.633  0.3047 -0.0538 -0.4519
  443MOL0     C61038   7.699  11.510  12.583  0.5037  0.2590 -0.0405
  443MOL0     C61039   7.834  11.442  12.559 -0.3200  0.4108 -0.5533
  443MOL0     C61040   7.920  11.456  12.685 -0.0728  0.5576  0.1343
  443MOL0    Cl61041   8.089  11.409  12.647 -0.1860  0.1337 -0.0148
  443MOL0     C61042   6.768  11.399  12.494 -0.6260 -0.4736 -0.3757
  443MOL0     C61043   6.677  11.371  12.396  0.0588 -0.2686 -0.3158
  443MOL0     O61044   6.500  11.206  12.246 -0.7784 -0.5224  0.2750
  443MOL0     C61045   6.334  11.170  12.029  0.1724  0.6046  0.6376
  443MOL0     C61046   6.265  11.127  11.914  0.1065 -0.1642 -0.0581
  443MOL0     N61047   6.077  11.198  11.170 -0.9676 -0.6086  0.5458
  443MOL0     N61048   6.045  11.272  11.070 -0.5074 -0.0078  0.8264
  443MOL0     C61049   5.224  11.595  10.291 -0.1502 -0.1599  0.6370
  443MOL0     C61050   5.087  11.618  10.300  0.1331  0.4447  0.5337
  443MOL0     C61051   4.631  11.521  10.413 -0.2948  0.1170 -0.8660
  443MOL0     C61052   4.550  11.408  10.395  0.6214 -0.4212  0.0671
  443MOL0     C61053   4.414  11.422  10.358 -1.0136  0.6616 -1.0059
  443MOL0     C61054   4.360  11.546  10.344 -0.0510 -0.2747 -0.6440
  443MOL0     O61055   4.224  11.539  10.331  0.1129 -0.4528  0.7482
  443MOL0     C61056   4.162  11.667  10.300  0.2974 -0.3656  0.0871
  443MOL0     C61057   4.181  11.705  10.145 -0.1625  0.1739 -0.9750
  443MOL0     C61058   4.098  11.601  10.068 -0.2157 -0.7903  0.0109
  443MOL0     C61059   4.080  11.642   9.924 -0.0700  0.1486  0.2630
  443MOL0     C61060   3.995  11.551   9.843  0.0818  0.8964  0.5955
  443MOL0     C61061   3.925  11.492   9.763 -0.1554  0.0015  0.0790
  443MOL0     C61062   4.447  11.661  10.362  0.3614 -0.1484 -0.2457
  443MOL0     C61063   4.578  11.648  10.399  0.0751  0.0522  1.0480
  443MOL0     C61064   4.672  11.765  10.416  1.3915  0.2873 -0.2096
  443MOL0     H61065   4.987  11.316  10.420  2.0821 -0.0276  2.1289
  443MOL0     H61066   5.221  11.285  10.425 -1.0369 -0.3301  0.2939
  443MOL0     H61067   5.520  11.629  10.317 -0.1700  0.8022  1.6230
  443MOL0     H61068   5.499  11.534  10.171 -0.3227 -0.5180  0.9531
  443MOL0     H61069   5.641  11.376  10.248 -1.9976 -0.6722  0.2692
  443MOL0     H61070   5.716  11.542  10.237 -1.5331  1.3926  0.8370
  443MOL0     H61071   5.701  11.563  10.489 -2.6163 -0.1376  2.4152
  443MOL0     H61072   5.620  11.408  10.501 -0.5561 -1.3324 -1.7797
  443MOL0     H61073   5.819  11.299  10.416 -1.6791  0.5726 -0.4831
  443MOL0     H61074   5.899  11.451  10.421 -0.1597  1.3580  0.4441
  443MOL0     H61075   5.833  11.473  10.671 -1.0722 -0.0827  0.9056
  443MOL0     H61076   5.948  11.345  10.639 -0.5030 -0.8297  0.3554
  443MOL0     H61077   5.667  11.332  10.719  1.0323  3.2347  0.0824
  443MOL0     H61078   5.724  11.195  10.621  1.5588 -1.1770 -0.3863
  443MOL0     H61079   5.916  11.176  10.791  0.1052  0.3866 -0.6613
  443MOL0     H61080   5.766  11.126  10.848  1.6844 -1.2443 -0.9655
  443MOL0     H61081   5.887  11.398  10.887 -1.9951 -0.0248  0.7381
  443MOL0     H61082   5.739  11.362  10.960  1.0739  2.0697 -1.1410
  443MOL0     H61083   5.760  11.120  11.121 -0.1893  2.1032 -2.2868
  443MOL0     H61084   6.001  10.957  11.315 -1.7346  0.2185  0.0326
  443MOL0     H61085   5.844  11.027  11.355 -0.1673  1.5100  1.1355
  443MOL0     H61086   6.093  11.179  11.440  0.0082  0.6798  2.2585
  443MOL0     H61087   5.952  11.170  11.537  0.0650 -2.7954  1.8409
  443MOL0     H61088   5.984  10.938  11.573 -0.1765  2.1347  2.6506
  443MOL0     H61089   6.146  10.928  11.509 -2.0355 -0.3953 -2.1674
  443MOL0     H61090   6.060  11.106  11.745 -1.5087 -1.8479  0.3485
  443MOL0     H61091   6.160  10.964  11.746  2.9791 -0.3127 -2.9365
  443MOL0     H61092   6.469  11.269  11.686  0.1698 -1.6092 -0.0639
  443MOL0     H61093   6.607  11.448  11.930  0.2075 -0.0675  0.0713
  443MOL0     H61094   6.650  11.376  11.772  0.6895 -0.4001 -0.2415
  443MOL0     H61095   6.720  11.306  11.915  1.4652  0.7179 -2.6992
  443MOL0     H61096   6.895  11.376  12.134  0.2152 -3.4004  0.5562
  443MOL0     H61097   7.048  11.429  12.294 -0.3418  0.7269 -0.4990
  443MOL0     H61098   7.144  11.313  12.558 -0.1239 -0.9740  2.3546
  443MOL0     H61099   7.167  11.478  12.483 -0.4672 -0.7634 -0.3070
  443MOL0     H61100   7.203  11.569  12.712 -0.0408 -0.0856 -1.4817
  443MOL0     H61101   7.129  11.430  12.778 -0.2262  0.8785  0.2300
  443MOL0     H61102   7.352  11.305  12.656 -1.5222  0.1127 -1.2421
  443MOL0     H61103   7.382  11.395  12.807 -0.1773 -2.8169 -0.4288
  443MOL0     H61104   7.464  11.587  12.681  0.6796  0.5672 -0.3793
  443MOL0     H61105   7.414  11.506  12.533 -3.8560 -1.5660  0.9010
  443MOL0     H61106   7.622  11.375  12.732 -0.0310  0.6727 -0.0542
  443MOL0     H61107   7.586  11.334  12.561 -0.5399 -0.6187  0.2998
  443MOL0     H61108   7.701  11.597  12.651 -1.4804  0.1209  0.2501
  443MOL0     H61109   7.670  11.540  12.482 -1.8030 -4.0303 -0.8817
  443MOL0     H61110   7.884  11.488  12.473 -0.2764 -0.2567 -0.8930
  443MOL0     H61111   7.825  11.334  12.545 -1.1218  0.3927  0.0872
  443MOL0     H61112   7.875  11.387  12.757  0.1420  1.1641  0.8621
  443MOL0     H61113   7.923  11.555  12.731 -0.1416  0.0655  1.2302
  443MOL0     H61114   6.747  11.404  12.601 -0.3260 -0.9399 -0.2894
  443MOL0     H61115   6.576  11.345  12.424 -0.0780 -2.2453 -2.3496
  443MOL0     H61116   6.295  11.138  12.125  2.8854 -2.5098  0.8697
  443MOL0     H61117   6.174  11.072  11.934  1.1919 -1.2479  2.3161
  443MOL0     H61118   5.289  11.670  10.247 -0.3425  0.4896  1.4229
  443MOL0     H61119   5.041  11.712  10.272 -0.3192  0.3560  0.9639
  443MOL0     H61120   4.584  11.305  10.402 -2.8620 -1.6915  0.0870
  443MOL0     H61121   4.348  11.338  10.340  1.2445 -0.9081 -2.4883
  443MOL0     H61122   4.055  11.657  10.321 -0.0302  1.9730 -0.1160
  443MOL0     H61123   4.201  11.749  10.361 -0.6798 -0.7072  1.1948
  443MOL0     H61124   4.288  11.690  10.130  0.3100  1.1932  0.9548
  443MOL0     H61125   4.161  11.809  10.120  1.5979  0.9382  0.5581
  443MOL0     H61126   4.134  11.500  10.088 -2.6679 -1.2337  3.0208
  443MOL0     H61127   4.000  11.611  10.116  0.4484  1.0159  1.1233
  443MOL0     H61128   4.177  11.658   9.877 -1.8117  0.6645 -3.4706
  443MOL0     H61129   4.040  11.743   9.910 -1.6697 -0.4940  0.0297
  443MOL0     H61130   3.866  11.451   9.683  0.5610  1.9120 -1.5197
  443MOL0     H61131   4.423  11.766  10.346  3.2159  0.6797  0.3734
  443MOL0     H61132   4.707  11.764  10.520  0.2797 -2.0507  0.2116
  443MOL0     H61133   4.755  11.757  10.345 -0.5485  0.8019 -2.6616
  443MOL0     H61134   4.620  11.861  10.403 -1.3370 -0.6096  2.6935
  444MOL0     O61135   5.174   8.372   7.519 -0.2762 -0.2375 -0.0658
  444MOL0     C61136   5.101   8.274   7.529 -0.0748  0.3707  0.6421
  444MOL0     O61137   5.128   8.157   7.459  0.4856 -0.3726  0.2623
  444MOL0     C61138   5.224   8.142   7.360  0.9248 -0.0599  1.1307
  444MOL0     C61139   5.290   8.242   7.289 -0.4111  0.3614 -0.4427
  444MOL0     C61140   5.385   8.213   7.183 -0.2283  1.0253 -0.6334
  444MOL0     C61141   5.419   8.083   7.149  0.3092  0.5258 -1.1111
  444MOL0     O61142   5.518   8.047   7.070  0.1599 -0.3750 -0.1643
  444MOL0     C61143   5.611   8.141   7.013  0.3666 -1.1606  0.4548
  444MOL0     C61144   5.688   8.080   6.900  0.1088  0.3613 -0.4805
  444MOL0     C61145   5.825   8.143   6.886 -0.3337  0.0647  0.2891
  444MOL0     C61146   5.893   8.097   6.755 -1.0094 -0.2696  0.0235
  444MOL0     C61147   6.038   8.148   6.759  0.5372 -1.0773 -0.2280
  444MOL0     C61148   6.052   8.302   6.740 -0.3291  0.3576 -0.3667
  444MOL0     C61149   6.199   8.345   6.717  0.5547  0.5501 -0.2017
  444MOL0     C61150   6.307   8.293   6.822  0.4848 -0.1984 -0.0631
  444MOL0     N61151   6.444   8.339   6.791  0.1226 -0.2649  0.5761
  444MOL0     C61152   6.538   8.276   6.712 -0.4038 -0.0892  0.1153
  444MOL0     C61153   6.636   8.373   6.701  1.0845 -0.3907  0.1595
  444MOL0     C61154   6.764   8.370   6.628  0.4110 -0.1492  0.1736
  444MOL0     C61155   6.798   8.226   6.589  0.0206 -0.1958 -0.0498
  444MOL0     C61156   6.936   8.222   6.526  0.1789 -0.1032  0.4192
  444MOL0     C61157   6.926   8.187   6.382 -1.2842  0.0245 -0.1968
  444MOL0     O61158   6.859   8.296   6.320 -0.6909  0.8542  0.0143
  444MOL0     C61159   6.858   8.297   6.181  0.0248  0.1106  0.2027
  444MOL0     C61160   6.800   8.407   6.125 -0.3933 -0.4265  0.6477
  444MOL0     C61161   6.764   8.416   5.987 -0.3368  0.4500  0.0986
  444MOL0     C61162   6.686   8.530   5.943 -0.3229  0.4205  0.0795
  444MOL0     C61163   6.816   8.320   5.900 -0.3392  0.2585  0.5974
  444MOL0     C61164   6.794   8.330   5.752 -1.7294 -0.5502  0.3664
  444MOL0     O61165   6.908   8.319   5.673 -0.3669  0.5739 -0.4143
  444MOL0     C61166   6.888   8.284   5.544 -0.9949 -0.7733 -1.2591
  444MOL0     C61167   6.884   8.147   5.511 -0.3808 -0.7040 -0.1033
  444MOL0     C61168   6.864   8.117   5.377  0.4852  0.2070  0.1243
  444MOL0     C61169   6.839   8.218   5.282  0.5772 -0.6540 -0.4584
  444MOL0     O61170   6.812   8.203   5.150 -0.1019 -0.6452  0.3223
  444MOL0     C61171   6.777   8.077   5.102 -0.6372  0.9151  0.0949
  444MOL0     C61172   6.781   8.072   4.948  1.1671  0.5418  0.3500
  444MOL0     C61173   6.879   8.156   4.860 -0.2989 -0.8368 -0.4800
  444MOL0     C61174   7.021   8.108   4.887  0.3248 -0.0089  0.3863
  444MOL0     C61175   7.126   8.201   4.837  0.4814 -0.3147 -0.4151
  444MOL0     C61176   7.156   8.161   4.696  0.4509 -1.0464  0.2562
  444MOL0     C61177   7.277   8.237   4.664 -0.5531 -0.0984 -0.4142
  444MOL0     C61178   7.342   8.196   4.528 -0.3918 -0.7467 -0.4110
  444MOL0    Cl61179   7.251   8.242   4.390 -0.1986  0.3593  0.1558
  444MOL0     C61180   6.832   8.349   5.324  0.1425  0.0828  0.3902
  444MOL0     C61181   6.848   8.382   5.460 -0.3461 -0.3335  0.2689
  444MOL0     O61182   6.681   8.340   5.712  0.1996 -0.3067  0.5408
  444MOL0     C61183   6.875   8.203   5.955  0.3985 -0.8350  0.8127
  444MOL0     C61184   6.887   8.191   6.094  0.2326 -0.5491 -0.0552
  444MOL0     N61185   6.598   8.484   6.773  0.0014  0.8510  0.5645
  444MOL0     N61186   6.480   8.464   6.825  0.7720 -0.3226  0.3774
  444MOL0     C61187   5.347   7.985   7.218  0.0457 -0.1819  0.4914
  444MOL0     C61188   5.257   8.007   7.328 -0.3992 -0.1447 -0.2956
  444MOL0     C61189   5.007   8.269   7.641 -0.4386 -0.5356  0.8644
  444MOL0     C61190   5.003   8.149   7.712 -0.3479  0.4069 -0.7542
  444MOL0     C61191   4.942   8.146   7.839  0.1479  0.9758 -0.0405
  444MOL0     C61192   4.853   8.236   7.883 -0.4038  0.1716  0.5181
  444MOL0     O61193   4.803   8.220   8.009  0.6536  0.3735  0.0337
  444MOL0     C61194   4.715   8.320   8.074  0.7780  0.2697 -0.4363
  444MOL0     C61195   4.628   8.257   8.181 -0.2170  0.3321 -1.5957
  444MOL0     C61196   4.570   8.123   8.144 -0.0430  1.7881  1.1155
  444MOL0     C61197   4.493   8.043   8.243 -0.0067 -0.2077 -0.1206
  444MOL0     C61198   4.368   8.098   8.276 -0.0532  0.2843  0.1849
  444MOL0     C61199   4.259   8.154   8.282 -0.4391 -0.3162  0.3241
  444MOL0     C61200   4.848   8.359   7.804  0.7218  0.6826  0.0448
  444MOL0     C61201   4.927   8.375   7.690 -0.3830 -0.4290 -0.7456
  444MOL0     C61202   4.924   8.504   7.611 -0.3943  0.0840 -0.3008
  444MOL0     H61203   5.263   8.346   7.301 -0.8217  0.1652  0.4121
  444MOL0     H61204   5.432   8.288   7.119 -0.5028  0.9325 -0.9472
  444MOL0     H61205   5.672   8.167   7.100 -1.2735  1.3556  0.9680
  444MOL0     H61206   5.562   8.234   6.982 -0.9518 -1.6438  1.0154
  444MOL0     H61207   5.702   7.975   6.927  1.4451  0.6378 -0.0143
  444MOL0     H61208   5.630   8.079   6.807 -2.1913  1.4568  0.8579
  444MOL0     H61209   5.817   8.252   6.885  1.9828  0.2964 -0.2306
  444MOL0     H61210   5.891   8.120   6.970  0.0079 -0.7946 -0.2026
  444MOL0     H61211   5.890   7.988   6.751  0.6670 -0.4636  2.3824
  444MOL0     H61212   5.834   8.142   6.674  0.5914  3.5460  0.7481
  444MOL0     H61213   6.077   8.114   6.662 -2.2520 -1.0898 -1.4522
  444MOL0     H61214   6.093   8.122   6.850 -2.3433  1.6906  2.5506
  444MOL0     H61215   5.998   8.332   6.649 -1.0571  2.7570  0.7592
  444MOL0     H61216   6.007   8.365   6.817  1.1602  1.0113 -0.0014
  444MOL0     H61217   6.187   8.454   6.717  1.3635  0.7129 -2.6404
  444MOL0     H61218   6.228   8.321   6.614 -0.4788 -0.9027 -0.1773
  444MOL0     H61219   6.286   8.316   6.927  1.7837 -2.0710  0.6639
  444MOL0     H61220   6.323   8.185   6.819  2.3033 -0.1320  2.7180
  444MOL0     H61221   6.545   8.174   6.675  2.2322 -0.1782  0.6650
  444MOL0     H61222   6.851   8.407   6.684 -0.9010 -0.6683  2.6922
  444MOL0     H61223   6.749   8.432   6.539  0.8016 -1.5177 -0.8865
  444MOL0     H61224   6.798   8.168   6.682 -0.8060 -1.1811 -0.6622
  444MOL0     H61225   6.728   8.183   6.518  1.2806 -1.6429 -0.4696
  444MOL0     H61226   6.998   8.311   6.539  1.4471 -0.7637 -0.8355
  444MOL0     H61227   6.989   8.138   6.574  0.0053 -2.4205 -3.0575
  444MOL0     H61228   7.031   8.186   6.350 -0.6141 -1.2099  1.8351
  444MOL0     H61229   6.882   8.088   6.365  0.0250 -0.2723 -2.1357
  444MOL0     H61230   6.774   8.490   6.190 -1.3612  1.2949 -1.7711
  444MOL0     H61231   6.701   8.568   5.842 -3.4229 -2.3140 -1.5966
  444MOL0     H61232   6.704   8.611   6.014 -1.4062 -0.9967  2.0650
  444MOL0     H61233   6.580   8.503   5.947  0.3921 -3.2585 -1.6999
  444MOL0     H61234   6.913   8.075   5.586  1.7325 -0.2020 -0.3694
  444MOL0     H61235   6.847   8.015   5.342 -4.6215  0.2566  1.5867
  444MOL0     H61236   6.856   8.012   5.140 -0.9085  0.3035 -0.3831
  444MOL0     H61237   6.683   8.032   5.133 -0.4746 -0.7393 -1.6258
  444MOL0     H61238   6.787   7.965   4.927 -0.4703  0.5702 -0.4363
  444MOL0     H61239   6.683   8.101   4.909 -0.2206 -3.8954 -0.0742
  444MOL0     H61240   6.867   8.260   4.894 -0.2783 -0.5258 -1.3802
  444MOL0     H61241   6.859   8.156   4.752  1.4542  1.1055 -0.8795
  444MOL0     H61242   7.032   8.007   4.847  1.6952 -1.3958  3.8218
  444MOL0     H61243   7.034   8.094   4.995 -1.7935  2.9013  1.1496
  444MOL0     H61244   7.085   8.301   4.854 -0.9428 -1.2509  2.2636
  444MOL0     H61245   7.212   8.199   4.904 -0.1326 -1.5404  0.3713
  444MOL0     H61246   7.074   8.174   4.624  1.2404  1.5607 -0.3072
  444MOL0     H61247   7.183   8.056   4.686 -1.6875 -1.4200 -3.3278
  444MOL0     H61248   7.353   8.217   4.740  0.4652 -0.5573 -1.5274
  444MOL0     H61249   7.251   8.343   4.657 -3.0059 -0.6700 -0.7093
  444MOL0     H61250   7.367   8.089   4.522  1.1345 -0.3792 -1.3493
  444MOL0     H61251   7.432   8.258   4.526  0.6443 -2.1508  0.5700
  444MOL0     H61252   6.794   8.423   5.254 -0.9209  0.7328  1.6149
  444MOL0     H61253   6.841   8.487   5.485  0.7964  0.4386 -2.3692
  444MOL0     H61254   6.907   8.131   5.881  1.0960  0.3772 -0.1093
  444MOL0     H61255   6.922   8.100   6.142  0.8519 -0.6346 -0.6582
  444MOL0     H61256   5.370   7.880   7.206  3.2016  0.3853  0.8187
  444MOL0     H61257   5.217   7.930   7.393 -2.7447  0.2700 -1.1526
  444MOL0     H61258   5.075   8.070   7.693  0.8321  1.8580 -2.7291
  444MOL0     H61259   4.957   8.054   7.894 -0.3039  0.6973 -0.3685
  444MOL0     H61260   4.785   8.399   8.102  0.6163 -0.0597  0.9830
  444MOL0     H61261   4.642   8.371   8.009 -0.7523 -1.4901 -0.1902
  444MOL0     H61262   4.544   8.322   8.207  1.5095  1.9948  0.1214
  444MOL0     H61263   4.689   8.242   8.270 -1.8617  1.1315 -0.2775
  444MOL0     H61264   4.533   8.135   8.042  0.5047  1.5860  0.8875
  444MOL0     H61265   4.653   8.053   8.129 -3.5779 -2.2563 -1.8975
  444MOL0     H61266   4.542   8.031   8.340 -1.7335  1.8120  1.0852
  444MOL0     H61267   4.473   7.939   8.215 -2.4903  0.0984  0.3600
  444MOL0     H61268   4.169   8.210   8.267 -0.3434 -0.4706 -1.0151
  444MOL0     H61269   4.785   8.441   7.835 -0.0907 -1.3425  4.5137
  444MOL0     H61270   4.841   8.566   7.644 -0.0298  0.7347 -0.5835
  444MOL0     H61271   5.019   8.557   7.621  1.4207 -2.5835 -2.0369
  444MOL0     H61272   4.896   8.480   7.508 -1.7220  0.7163 -0.0963
  445MOL0     O61273  10.999   7.181   1.996 -0.5796  0.6214 -0.4808
  445MOL0     C61274  10.909   7.208   1.921 -0.2335  0.3045  0.0239
  445MOL0     O61275  10.880   7.332   1.877 -0.0466  0.3346 -0.3486
  445MOL0     C61276  10.944   7.431   1.935 -0.4750  0.0803 -0.5379
  445MOL0     C61277  11.009   7.522   1.852  0.2049  0.3227  0.0396
  445MOL0     C61278  11.064   7.651   1.894  0.4523 -0.0755 -0.1917
  445MOL0     C61279  11.063   7.687   2.028  0.4341 -0.0249 -0.1183
  445MOL0     O61280  11.123   7.810   2.052 -0.0130  0.4305  0.2674
  445MOL0     C61281  11.160   7.849   2.180 -0.7706  0.9928 -0.0315
  445MOL0     C61282  11.210   7.995   2.173 -1.5350 -0.8506 -0.2940
  445MOL0     C61283  11.121   8.109   2.158 -0.6160 -0.4704 -0.2878
  445MOL0     C61284  11.204   8.242   2.147 -1.2189  0.4717  0.2104
  445MOL0     C61285  11.109   8.362   2.132  0.3347  1.5442 -0.3240
  445MOL0     C61286  11.177   8.496   2.096 -0.4303  1.1271 -0.1244
  445MOL0     C61287  11.275   8.542   2.206  0.2687  0.3883 -0.0837
  445MOL0     C61288  11.286   8.692   2.192 -1.5860  0.0997  0.2513
  445MOL0     N61289  11.424   8.726   2.141  0.0627  0.0399  0.3046
  445MOL0     C61290  11.452   8.811   2.036  0.3868  0.3289  0.0294
  445MOL0     C61291  11.584   8.799   2.023 -0.3820 -0.6090  0.3600
  445MOL0     C61292  11.676   8.884   1.941  0.8068  0.2918 -0.4802
  445MOL0     C61293  11.728   8.807   1.825  0.7699  0.9249  0.7569
  445MOL0     C61294  11.804   8.897   1.728  0.2795 -0.5242 -0.2098
  445MOL0     C61295  11.871   8.813   1.621  0.3534  0.0196  0.0969
  445MOL0     O61296  11.946   8.892   1.534 -0.1194  0.3857 -0.5511
  445MOL0     C61297  12.085   8.875   1.532 -0.0107  0.3743  0.8400
  445MOL0     C61298  12.148   8.847   1.414  0.2291 -0.9630  0.0908
  445MOL0     C61299  12.287   8.855   1.411 -0.0783  0.4663 -0.0305
  445MOL0     C61300  12.349   8.841   1.273 -0.1003  0.1058 -0.4240
  445MOL0     C61301  12.364   8.865   1.534  0.3138 -0.5753  0.8721
  445MOL0     C61302  12.512   8.873   1.541 -0.5787  0.3427 -0.6986
  445MOL0     O61303  12.559   8.932   1.648  0.2933  0.0461 -0.4713
  445MOL0     C61304  12.689   8.973   1.667  0.2165 -0.0003  1.2532
  445MOL0     C61305  12.768   8.933   1.782 -0.5207  0.6092 -0.3067
  445MOL0     C61306  12.884   9.006   1.799 -0.5480  1.2218  0.5184
  445MOL0     C61307  12.933   9.104   1.704  0.0837  0.0130 -0.3942
  445MOL0     O61308  13.056   9.168   1.711  0.1666 -1.1020 -0.4304
  445MOL0     C61309  13.156   9.119   1.804  0.5574 -1.0558 -0.7047
  445MOL0     C61310  13.291   9.186   1.783  1.3385  0.4920  0.1033
  445MOL0     C61311  13.303   9.325   1.844  0.5209  0.8470 -0.1923
  445MOL0     C61312  13.444   9.383   1.864 -0.8692 -0.3809 -0.0203
  445MOL0     C61313  13.443   9.525   1.927 -0.5729  0.6130  0.8411
  445MOL0     C61314  13.588   9.579   1.925  0.0073  0.7183 -0.0145
  445MOL0     C61315  13.668   9.525   2.041 -0.1744 -0.4839  1.0864
  445MOL0     C61316  13.620   9.552   2.184 -0.8662 -0.2311  0.3067
  445MOL0    Cl61317  13.556   9.395   2.256  0.2935 -0.3592  0.0724
  445MOL0     C61318  12.862   9.115   1.591 -0.1346 -0.5580  0.2800
  445MOL0     C61319  12.739   9.059   1.570  1.0205  0.8172  0.6273
  445MOL0     O61320  12.580   8.846   1.440  0.0166  0.0691 -0.2698
  445MOL0     C61321  12.291   8.873   1.651  0.7556 -0.0090  0.1062
  445MOL0     C61322  12.154   8.878   1.651 -0.4035  0.0871  0.0478
  445MOL0     N61323  11.637   8.721   2.124 -0.1740 -0.0723  0.5118
  445MOL0     N61324  11.540   8.680   2.196 -0.1531 -0.0248 -0.1296
  445MOL0     C61325  10.992   7.600   2.117 -0.5621  0.3491 -0.1248
  445MOL0     C61326  10.923   7.476   2.071 -1.9533  0.0315  0.0692
  445MOL0     C61327  10.827   7.099   1.866 -0.5116 -1.5103  0.5738
  445MOL0     C61328  10.746   7.125   1.755 -0.1554  0.3287  0.1465
  445MOL0     C61329  10.658   7.044   1.693 -0.3502 -0.1772 -0.0535
  445MOL0     C61330  10.679   6.907   1.726 -0.5092  0.1511 -0.2746
  445MOL0     O61331  10.584   6.819   1.663 -0.3806 -0.7327  0.5015
  445MOL0     C61332  10.593   6.674   1.689  0.8727  0.6573  1.2142
  445MOL0     C61333  10.520   6.644   1.820  0.3469 -0.0935 -0.4768
  445MOL0     C61334  10.499   6.498   1.839 -0.5534  0.4046 -0.1865
  445MOL0     C61335  10.412   6.467   1.960  1.1329  0.0246 -0.2669
  445MOL0     C61336  10.408   6.323   1.989 -0.5767  0.1677  0.4813
  445MOL0     C61337  10.415   6.200   1.987  0.4282  0.9901  0.1397
  445MOL0     C61338  10.778   6.866   1.820  0.1600 -0.2572  0.9244
  445MOL0     C61339  10.842   6.963   1.896 -0.0214 -0.2462  0.0285
  445MOL0     C61340  10.926   6.910   2.004  0.0037 -0.5597  0.2694
  445MOL0     H61341  11.032   7.509   1.746  0.9145 -0.0153  0.2279
  445MOL0     H61342  11.100   7.717   1.816  0.8146 -0.8833 -0.7225
  445MOL0     H61343  11.238   7.778   2.209 -0.2634  1.8200  0.7181
  445MOL0     H61344  11.079   7.835   2.253 -0.6679  0.7656  0.0377
  445MOL0     H61345  11.269   8.011   2.264 -0.4703  0.5414 -1.1988
  445MOL0     H61346  11.289   7.988   2.098 -2.5717  5.1388 -2.4302
  445MOL0     H61347  11.054   8.101   2.072 -1.4318  0.9851  0.1745
  445MOL0     H61348  11.054   8.121   2.244  0.0860  1.1429  0.0700
  445MOL0     H61349  11.267   8.253   2.236  0.9013  0.7281 -1.2318
  445MOL0     H61350  11.271   8.243   2.061  0.0763  2.6287  1.1295
  445MOL0     H61351  11.057   8.384   2.225  2.0833  1.3813  0.7432
  445MOL0     H61352  11.050   8.334   2.044 -1.2167 -0.8089  1.3185
  445MOL0     H61353  11.226   8.478   2.000  0.4683 -0.4301  0.5908
  445MOL0     H61354  11.097   8.568   2.077 -1.1027  1.1080  2.3167
  445MOL0     H61355  11.366   8.481   2.208 -1.9421 -3.2093  1.8274
  445MOL0     H61356  11.227   8.533   2.304  2.1506  0.1850  0.8584
  445MOL0     H61357  11.216   8.735   2.120  0.1646  2.5386 -0.1408
  445MOL0     H61358  11.274   8.737   2.291  3.4733  0.0833  1.1414
  445MOL0     H61359  11.375   8.862   1.980 -3.2524 -1.3722  3.0167
  445MOL0     H61360  11.764   8.910   2.000 -0.0369 -4.0301  3.2741
  445MOL0     H61361  11.624   8.974   1.907  0.3065  0.5755  0.9525
  445MOL0     H61362  11.793   8.728   1.864 -0.3775 -1.1498 -1.2127
  445MOL0     H61363  11.651   8.759   1.762  1.7252 -0.4736  0.6051
  445MOL0     H61364  11.734   8.972   1.689  0.0709 -0.7700 -0.3118
  445MOL0     H61365  11.879   8.959   1.779  1.0422  0.0264 -1.9371
  445MOL0     H61366  11.943   8.741   1.660  1.9276  1.0167 -0.8827
  445MOL0     H61367  11.791   8.751   1.579 -0.5781 -0.5192  2.4915
  445MOL0     H61368  12.087   8.830   1.326  0.9193 -2.1624 -0.1898
  445MOL0     H61369  12.406   8.933   1.260 -1.7629  1.0289 -1.5418
  445MOL0     H61370  12.271   8.819   1.199  0.0362  0.0582 -0.5542
  445MOL0     H61371  12.413   8.752   1.269  1.8145  1.4425 -1.3185
  445MOL0     H61372  12.727   8.861   1.852  1.3129  0.9536  1.2210
  445MOL0     H61373  12.936   8.988   1.892 -0.9145  2.3613  0.9570
  445MOL0     H61374  13.132   9.152   1.905  1.1730  2.4259 -1.5728
  445MOL0     H61375  13.169   9.012   1.786 -2.8484 -1.6788 -0.0488
  445MOL0     H61376  13.368   9.131   1.838 -0.9790 -0.8194  2.2721
  445MOL0     H61377  13.320   9.190   1.678 -0.9207 -0.7899 -0.6385
  445MOL0     H61378  13.241   9.343   1.932  3.9177  0.1537  2.5389
  445MOL0     H61379  13.261   9.395   1.771 -0.0963  1.9330  1.1517
  445MOL0     H61380  13.486   9.403   1.765 -0.9622  1.1566  0.2269
  445MOL0     H61381  13.509   9.321   1.926  0.2298  1.0895  0.3446
  445MOL0     H61382  13.382   9.596   1.870 -0.6352 -0.4140 -0.3921
  445MOL0     H61383  13.401   9.520   2.028  1.2800 -2.7910  1.5751
  445MOL0     H61384  13.583   9.688   1.929  0.4986  0.8398 -1.7211
  445MOL0     H61385  13.636   9.563   1.828  0.6139  0.9803  0.2372
  445MOL0     H61386  13.768   9.568   2.033 -0.2709 -0.2499  1.1449
  445MOL0     H61387  13.680   9.417   2.025  1.4487 -0.0777 -0.8997
  445MOL0     H61388  13.545   9.631   2.180 -0.1916  0.3962 -3.2355
  445MOL0     H61389  13.701   9.578   2.253  0.7788 -0.0789 -1.5677
  445MOL0     H61390  12.913   9.178   1.519 -0.2523  0.4794  1.0768
  445MOL0     H61391  12.690   9.076   1.474  1.9051  0.3978  0.0841
  445MOL0     H61392  12.339   8.852   1.745 -3.5750 -0.7585  2.4067
  445MOL0     H61393  12.107   8.895   1.747  1.0972  0.0992  0.8081
  445MOL0     H61394  10.985   7.614   2.224  0.3549  1.5362 -0.1920
  445MOL0     H61395  10.867   7.418   2.145  0.8567 -2.5317  0.3981
  445MOL0     H61396  10.734   7.231   1.735 -1.1609  0.3329  0.6966
  445MOL0     H61397  10.588   7.094   1.627 -1.4538  4.1829  3.8394
  445MOL0     H61398  10.553   6.616   1.606 -0.6962 -1.8827  3.5727
  445MOL0     H61399  10.699   6.649   1.690  1.7179  3.8005  0.9320
  445MOL0     H61400  10.420   6.687   1.810  1.6908  2.9590 -2.0305
  445MOL0     H61401  10.566   6.682   1.912 -1.5381 -1.9329  1.3678
  445MOL0     H61402  10.442   6.449   1.759  0.6536 -0.5459 -0.4973
  445MOL0     H61403  10.600   6.455   1.842 -1.0959 -0.9417 -0.4455
  445MOL0     H61404  10.308   6.492   1.941  1.4898  0.3530 -1.9645
  445MOL0     H61405  10.448   6.510   2.054  0.6824 -1.2783  0.5413
  445MOL0     H61406  10.406   6.093   1.993 -4.0881  1.1934  0.5793
  445MOL0     H61407  10.786   6.760   1.842 -1.5162 -0.5937  0.1303
  445MOL0     H61408  10.918   6.966   2.097  2.7582 -1.3709  1.0848
  445MOL0     H61409  10.895   6.807   2.027  0.2341 -0.2961  1.8499
  445MOL0     H61410  11.033   6.904   1.979  0.0270 -2.3901  0.6386
  446MOL0     O61411   0.739   7.699   7.303 -0.1183  0.5036 -0.0078
  446MOL0     C61412   0.638   7.662   7.358 -0.7448 -0.1193  0.5585
  446MOL0     O61413   0.633   7.581   7.474 -0.1987  0.3265  0.4240
  446MOL0     C61414   0.730   7.593   7.569  0.3642 -0.0688  0.1555
  446MOL0     C61415   0.773   7.714   7.630 -0.2456  0.1916  0.4905
  446MOL0     C61416   0.876   7.715   7.725  0.6099 -0.4367  0.7992
  446MOL0     C61417   0.931   7.596   7.775  0.6144 -0.0819 -0.1184
  446MOL0     O61418   1.017   7.609   7.878  0.1584 -0.5724  0.0318
  446MOL0     C61419   1.056   7.482   7.941  0.1067  0.3743  0.4308
  446MOL0     C61420   1.147   7.489   8.060 -0.4549  0.4961  0.4671
  446MOL0     C61421   1.288   7.523   8.022  0.0106  1.1351  0.5675
  446MOL0     C61422   1.370   7.552   8.145 -0.8812 -0.4598  0.3229
  446MOL0     C61423   1.513   7.587   8.090 -0.6638  0.6147  0.1162
  446MOL0     C61424   1.606   7.654   8.199 -0.1974 -0.6904 -0.2354
  446MOL0     C61425   1.607   7.578   8.337 -0.4645 -0.6295 -0.2107
  446MOL0     C61426   1.654   7.680   8.447 -0.2942 -0.4667 -0.6045
  446MOL0     N61427   1.640   7.630   8.584 -0.7365  0.4782 -0.1431
  446MOL0     C61428   1.730   7.555   8.658 -0.3066 -0.0177  0.1030
  446MOL0     C61429   1.676   7.530   8.777 -0.7169 -0.0111 -0.7354
  446MOL0     C61430   1.758   7.448   8.871  0.5903 -0.3340 -0.3921
  446MOL0     C61431   1.755   7.502   9.012 -0.5594  0.0631  0.7324
  446MOL0     C61432   1.639   7.447   9.104 -0.0725  0.1440  0.0963
  446MOL0     C61433   1.590   7.555   9.202 -0.1789 -0.9979 -0.0427
  446MOL0     O61434   1.706   7.613   9.268  0.5539  0.5092  0.1417
  446MOL0     C61435   1.713   7.622   9.409 -0.0390  0.5598 -0.5405
  446MOL0     C61436   1.841   7.644   9.459 -0.7790  0.2726 -0.4561
  446MOL0     C61437   1.867   7.659   9.597  0.1944  1.2915  0.1635
  446MOL0     C61438   2.016   7.676   9.640  0.3243 -0.4647  0.5689
  446MOL0     C61439   1.755   7.660   9.685 -0.1726 -0.0636 -0.2781
  446MOL0     C61440   1.772   7.681   9.836  1.1619  0.1529 -1.3025
  446MOL0     O61441   1.659   7.707   9.914 -1.2547  0.3087  0.1239
  446MOL0     C61442   1.667   7.696  10.047 -0.7839 -1.4121  0.1056
  446MOL0     C61443   1.590   7.595  10.098 -0.7947 -0.1348  0.3633
  446MOL0     C61444   1.579   7.584  10.242  0.2131  0.7443  0.1516
  446MOL0     C61445   1.620   7.688  10.336 -0.0327  0.1489  1.0071
  446MOL0     O61446   1.579   7.674  10.470 -0.1428 -0.2194 -0.3049
  446MOL0     C61447   1.677   7.703  10.572  0.2585 -0.5756 -0.4162
  446MOL0     C61448   1.613   7.705  10.712 -0.1990  0.3066 -1.0966
  446MOL0     C61449   1.720   7.718  10.820 -0.0737 -0.0681 -0.1773
  446MOL0     C61450   1.772   7.868  10.803 -0.4656  0.2809 -0.3955
  446MOL0     C61451   1.881   7.905  10.902 -0.2665  0.4637  0.4852
  446MOL0     C61452   1.942   8.046  10.889  0.1754 -0.0276  0.5914
  446MOL0     C61453   1.846   8.166  10.927  0.8034  0.7237  0.4861
  446MOL0     C61454   1.913   8.293  10.946  0.4494  0.1554  0.3426
  446MOL0    Cl61455   2.044   8.315  10.820  0.2340  0.3615 -0.0686
  446MOL0     C61456   1.686   7.801  10.277 -0.8114  0.4537  0.2883
  446MOL0     C61457   1.705   7.798  10.138 -0.2298 -0.1531  0.0622
  446MOL0     O61458   1.886   7.664   9.883 -0.2033 -0.0938 -0.6066
  446MOL0     C61459   1.630   7.658   9.629  0.5921  0.1129  0.3592
  446MOL0     C61460   1.605   7.637   9.496 -0.8503  0.2619  0.0304
  446MOL0     N61461   1.551   7.584   8.782  0.0730  0.2006  0.4300
  446MOL0     N61462   1.527   7.633   8.661 -0.6370 -0.1783 -0.1435
  446MOL0     C61463   0.878   7.466   7.721  0.6633 -0.4417 -0.2496
  446MOL0     C61464   0.782   7.470   7.623 -0.9840  1.1212  1.0115
  446MOL0     C61465   0.511   7.683   7.286 -0.0230  0.4438 -0.0214
  446MOL0     C61466   0.396   7.687   7.367  0.2856 -0.5681 -0.0855
  446MOL0     C61467   0.279   7.721   7.304 -0.2421 -0.9136  0.6831
  446MOL0     C61468   0.267   7.744   7.170 -0.4845 -0.0580 -0.0802
  446MOL0     O61469   0.152   7.752   7.097 -0.3884 -0.4173 -0.3335
  446MOL0     C61470   0.021   7.756   7.165  0.9461  0.4100  0.2988
  446MOL0     C61471  -0.026   7.610   7.200  0.6167  0.3538 -0.4694
  446MOL0     C61472  -0.170   7.609   7.265 -0.6615  0.3689  0.2558
  446MOL0     C61473  -0.275   7.585   7.157  0.1257  0.9208  0.4617
  446MOL0     C61474  -0.389   7.515   7.221  0.0875  0.1363  0.2637
  446MOL0     C61475  -0.478   7.445   7.270 -0.1164 -0.4203 -0.9126
  446MOL0     C61476   0.376   7.739   7.092 -0.7373 -0.2637  0.2384
  446MOL0     C61477   0.498   7.703   7.146 -1.1114 -0.5535 -0.7920
  446MOL0     C61478   0.615   7.696   7.037  0.3234  0.3615  0.3056
  446MOL0     H61479   0.728   7.808   7.600  0.5445  0.3853 -0.1205
  446MOL0     H61480   0.907   7.809   7.770 -1.3021  2.0807 -2.6857
  446MOL0     H61481   1.098   7.402   7.878 -2.5545 -0.2433 -0.7349
  446MOL0     H61482   0.958   7.441   7.968 -0.0360  0.8422  0.6349
  446MOL0     H61483   1.113   7.561   8.135  3.1343  0.5689  2.2311
  446MOL0     H61484   1.151   7.389   8.105  0.0809 -1.1827 -2.9359
  446MOL0     H61485   1.327   7.431   7.977 -1.9999  0.1569  0.7342
  446MOL0     H61486   1.291   7.609   7.956  0.0285  1.3364  0.8292
  446MOL0     H61487   1.317   7.635   8.193  0.8064  2.8365 -3.1092
  446MOL0     H61488   1.371   7.469   8.217  1.1114  2.3366  3.8481
  446MOL0     H61489   1.505   7.656   8.005  0.2233  1.7422  0.9292
  446MOL0     H61490   1.562   7.499   8.047 -0.3617 -0.2128  2.0477
  446MOL0     H61491   1.707   7.668   8.158 -0.2387 -2.9360 -1.2665
  446MOL0     H61492   1.562   7.753   8.215  2.1037  0.7552 -2.1156
  446MOL0     H61493   1.666   7.486   8.347 -0.0034 -0.4159 -0.8811
  446MOL0     H61494   1.503   7.553   8.357  0.0712 -1.3630  1.8117
  446MOL0     H61495   1.758   7.709   8.431 -0.7070  1.5073  0.0276
  446MOL0     H61496   1.602   7.775   8.435  1.2382  0.4611 -0.2262
  446MOL0     H61497   1.824   7.518   8.618 -0.4085 -0.0007 -0.1565
  446MOL0     H61498   1.863   7.436   8.841  1.7142  2.9846  1.6413
  446MOL0     H61499   1.711   7.349   8.875  0.0492 -0.0990 -0.8286
  446MOL0     H61500   1.846   7.471   9.066 -0.7223 -0.3673  0.7624
  446MOL0     H61501   1.764   7.611   9.009  2.4053 -0.0400  1.7275
  446MOL0     H61502   1.556   7.406   9.046  0.7021 -1.9752  0.3822
  446MOL0     H61503   1.682   7.362   9.158 -1.8236 -2.7718 -2.7345
  446MOL0     H61504   1.545   7.643   9.155  0.8778 -1.2669 -1.6224
  446MOL0     H61505   1.518   7.509   9.270  0.5033 -2.8219 -0.5068
  446MOL0     H61506   1.926   7.655   9.392  0.5183  0.9658  1.2300
  446MOL0     H61507   2.077   7.671   9.550  1.6701  1.2978  1.3265
  446MOL0     H61508   2.066   7.608   9.710  3.9012  1.8773  0.5222
  446MOL0     H61509   2.031   7.780   9.670  2.7559 -0.2337 -1.1968
  446MOL0     H61510   1.549   7.524  10.026  0.8937 -0.7943 -0.0046
  446MOL0     H61511   1.533   7.492  10.277 -3.6460  2.6438  0.4878
  446MOL0     H61512   1.756   7.630  10.588  0.5089  0.4619  4.5075
  446MOL0     H61513   1.731   7.793  10.540 -0.7936 -0.8853 -3.4427
  446MOL0     H61514   1.548   7.793  10.703  0.6583  0.8435 -2.3408
  446MOL0     H61515   1.547   7.620  10.728  1.1831 -0.2853  2.3180
  446MOL0     H61516   1.796   7.640  10.811  2.8609  2.2894  2.0787
  446MOL0     H61517   1.679   7.709  10.921 -0.1479 -0.0480 -0.2048
  446MOL0     H61518   1.685   7.933  10.818 -2.3002 -1.4617 -2.7074
  446MOL0     H61519   1.820   7.872  10.705  0.4909 -1.2252 -0.0376
  446MOL0     H61520   1.856   7.889  11.007  0.7549 -1.6831  0.4499
  446MOL0     H61521   1.966   7.837  10.898 -1.7204 -1.4252 -0.2775
  446MOL0     H61522   1.978   8.060  10.787  3.3736 -1.2896  1.3987
  446MOL0     H61523   2.030   8.059  10.953 -0.7501  1.9394  1.5436
  446MOL0     H61524   1.802   8.121  11.016  1.0177 -2.1223 -0.7556
  446MOL0     H61525   1.771   8.177  10.848  1.9316 -1.4130 -0.9923
  446MOL0     H61526   1.959   8.294  11.045  1.8264  1.1736 -0.2719
  446MOL0     H61527   1.845   8.379  10.947  1.9805  1.4163  0.7006
  446MOL0     H61528   1.719   7.884  10.339  0.1240 -0.9348  1.7163
  446MOL0     H61529   1.767   7.877  10.098  1.7414 -1.5611  0.2116
  446MOL0     H61530   1.537   7.674   9.683  0.2728  3.1806 -0.9377
  446MOL0     H61531   1.498   7.635   9.477 -1.1921 -1.3295  1.7873
  446MOL0     H61532   0.913   7.368   7.753 -3.0665 -2.8410 -2.7635
  446MOL0     H61533   0.734   7.377   7.596 -0.5758  0.8500  1.2039
  446MOL0     H61534   0.393   7.676   7.475 -1.6692  2.1394  0.2456
  446MOL0     H61535   0.188   7.719   7.362 -0.0217 -1.8418  1.0188
  446MOL0     H61536   0.022   7.820   7.254 -0.8586 -0.0830  0.7098
  446MOL0     H61537  -0.051   7.790   7.091 -0.5884 -0.1285  1.4929
  446MOL0     H61538   0.047   7.569   7.270 -0.7302 -0.9919  0.1943
  446MOL0     H61539  -0.029   7.552   7.107 -1.1749  0.4613 -0.5104
  446MOL0     H61540  -0.178   7.538   7.348  3.1762 -1.5265 -0.7882
  446MOL0     H61541  -0.193   7.705   7.312 -3.0175  0.3593 -0.7135
  446MOL0     H61542  -0.239   7.519   7.078 -1.0375 -0.3090  0.9251
  446MOL0     H61543  -0.312   7.683   7.124 -2.9108 -0.3639 -0.3571
  446MOL0     H61544  -0.544   7.384   7.329  1.8136 -3.4282 -1.6479
  446MOL0     H61545   0.371   7.741   6.984  1.4715 -0.6224  0.0821
  446MOL0     H61546   0.688   7.617   7.054  2.1854  1.8957 -0.2527
  446MOL0     H61547   0.583   7.685   6.933  1.6453  1.4993 -0.2454
  446MOL0     H61548   0.670   7.790   7.040  1.8515 -0.5318  1.8003
  447MOL0     O61549   5.288   4.783  11.093  0.0967  0.6546 -0.1381
  447MOL0     C61550   5.338   4.719  11.002  0.3170 -0.1323  0.4789
  447MOL0     O61551   5.307   4.588  10.963 -0.2255  0.3125  0.7666
  447MOL0     C61552   5.207   4.514  11.034  0.0731 -0.5216 -0.3401
  447MOL0     C61553   5.087   4.562  11.092  0.8122  0.0166  0.9131
  447MOL0     C61554   5.013   4.471  11.168 -0.1853 -0.5279  0.5351
  447MOL0     C61555   5.061   4.344  11.190  0.1374 -0.0512  0.3663
  447MOL0     O61556   4.986   4.247  11.251 -0.3168  0.3228  0.0376
  447MOL0     C61557   4.881   4.182  11.176  0.3576 -0.7352  0.2427
  447MOL0     C61558   4.810   4.077  11.261 -0.3687  0.0932 -0.4566
  447MOL0     C61559   4.688   4.017  11.187  0.1041 -0.4878  0.4728
  447MOL0     C61560   4.582   3.968  11.282 -0.6343  0.3677  0.2771
  447MOL0     C61561   4.438   4.005  11.232 -0.0498 -0.2396 -0.2610
  447MOL0     C61562   4.344   3.944  11.327  0.6664  0.1170 -0.5081
  447MOL0     C61563   4.203   3.996  11.313 -0.5059  0.5144  0.0195
  447MOL0     C61564   4.150   3.978  11.175 -0.2340  0.4606  0.3253
  447MOL0     N61565   4.134   3.837  11.153 -0.4562  0.4369  0.2150
  447MOL0     C61566   4.018   3.768  11.167 -0.3465 -0.0055  0.3385
  447MOL0     C61567   4.028   3.635  11.121 -1.1495  0.3869 -0.5380
  447MOL0     C61568   3.922   3.530  11.087 -0.9864  0.1572  0.1897
  447MOL0     C61569   3.783   3.601  11.074  0.2832 -0.2691 -0.0772
  447MOL0     C61570   3.769   3.672  10.939  0.2828 -0.1683 -0.8757
  447MOL0     C61571   3.646   3.767  10.938 -0.8717  0.4543  0.0119
  447MOL0     O61572   3.529   3.675  10.944  0.3325 -0.3608  0.7657
  447MOL0     C61573   3.411   3.726  10.913  0.6866  0.1294 -0.3463
  447MOL0     C61574   3.391   3.843  10.822  0.2209  0.5718 -0.5288
  447MOL0     C61575   3.258   3.902  10.803 -0.2142 -0.4086 -0.3605
  447MOL0     C61576   3.238   4.032  10.735  0.0211 -0.2716 -0.4235
  447MOL0     C61577   3.150   3.832  10.856  0.2973 -0.5418 -0.9164
  447MOL0     C61578   3.003   3.869  10.835  0.8395  0.3812  0.1697
  447MOL0     O61579   2.965   3.945  10.721 -0.2160 -1.0266  0.1223
  447MOL0     C61580   2.834   3.956  10.685  0.1213 -0.6020 -0.0759
  447MOL0     C61581   2.794   4.086  10.654  0.3858 -0.0828  0.6272
  447MOL0     C61582   2.663   4.111  10.616 -0.7033 -0.8758  0.3270
  447MOL0     C61583   2.573   4.003  10.586  0.5984 -0.2984  0.4486
  447MOL0     O61584   2.445   4.022  10.548  0.2096 -0.0347  0.5958
  447MOL0     C61585   2.371   4.126  10.605  0.6577 -0.3268 -0.2922
  447MOL0     C61586   2.214   4.111  10.588  0.2798  0.4544 -0.1167
  447MOL0     C61587   2.165   3.970  10.636 -0.1192 -0.3423 -0.0427
  447MOL0     C61588   2.201   3.945  10.787 -0.3061  0.8570  0.7701
  447MOL0     C61589   2.162   3.798  10.822 -0.3469 -0.6429 -0.7363
  447MOL0     C61590   2.245   3.700  10.753  0.6374 -0.1208  0.9074
  447MOL0     C61591   2.238   3.546  10.778  0.9444 -1.2448 -0.2359
  447MOL0     C61592   2.105   3.496  10.718 -0.1678  0.2945  0.5679
  447MOL0    Cl61593   2.101   3.314  10.728  0.0178  0.4273 -0.0380
  447MOL0     C61594   2.612   3.874  10.623  0.0453 -0.7318  0.9084
  447MOL0     C61595   2.738   3.851  10.684 -0.2937  0.3640  0.2923
  447MOL0     O61596   2.920   3.824  10.913 -0.4655 -0.5767  0.3452
  447MOL0     C61597   3.167   3.717  10.939  0.3381  0.1335  0.9084
  447MOL0     C61598   3.298   3.667  10.969  0.3763 -0.5251 -0.3891
  447MOL0     N61599   4.169   3.629  11.094 -0.2072 -0.3772 -0.5788
  447MOL0     N61600   4.223   3.746  11.103 -0.4768 -0.1867  0.1482
  447MOL0     C61601   5.184   4.304  11.138  0.5037 -0.2650 -0.3081
  447MOL0     C61602   5.258   4.388  11.065  0.2162 -0.0992 -0.3998
  447MOL0     C61603   5.447   4.782  10.929 -0.1789  0.6657 -0.2192
  447MOL0     C61604   5.546   4.706  10.875 -0.2463  0.8608 -0.0543
  447MOL0     C61605   5.669   4.753  10.822 -0.1092  0.4440  0.4601
  447MOL0     C61606   5.694   4.887  10.813 -0.4624 -0.0783 -0.0562
  447MOL0     O61607   5.797   4.915  10.733  0.3385 -0.6054  0.5468
  447MOL0     C61608   5.816   5.051  10.697 -0.3403 -1.2992 -0.2827
  447MOL0     C61609   5.927   5.066  10.596  0.6501 -0.3918  0.1822
  447MOL0     C61610   5.908   5.181  10.501  0.5461  0.2938  0.0257
  447MOL0     C61611   5.944   5.318  10.558  0.7783  0.1490 -0.5172
  447MOL0     C61612   5.894   5.414  10.461 -0.5301  0.1042 -0.4042
  447MOL0     C61613   5.878   5.509  10.393 -0.5745 -0.6333 -0.5662
  447MOL0     C61614   5.595   4.974  10.863  0.5067 -0.5391 -0.4943
  447MOL0     C61615   5.476   4.922  10.925  0.2560 -0.4205  0.6219
  447MOL0     C61616   5.360   5.024  10.943  0.5312  0.3604  0.8622
  447MOL0     H61617   5.050   4.661  11.069  1.2520 -0.3710 -1.9330
  447MOL0     H61618   4.918   4.508  11.205  0.1645  0.9183  0.0595
  447MOL0     H61619   4.922   4.145  11.081 -0.4848  0.7228 -0.7126
  447MOL0     H61620   4.810   4.262  11.154  1.6253  1.0258  2.1305
  447MOL0     H61621   4.888   4.003  11.279  1.6333  1.7575 -1.8132
  447MOL0     H61622   4.790   4.128  11.356  0.4660 -0.6435  0.1325
  447MOL0     H61623   4.650   4.101  11.127 -0.2021 -0.3313  0.8837
  447MOL0     H61624   4.724   3.942  11.116 -1.0386  2.1086 -3.1928
  447MOL0     H61625   4.600   3.861  11.300  0.0129  0.5878  0.9906
  447MOL0     H61626   4.581   4.021  11.378 -1.9055  1.2788 -0.2128
  447MOL0     H61627   4.419   3.952  11.138 -1.1622  1.9113 -1.3037
  447MOL0     H61628   4.436   4.112  11.213  0.9976 -0.0146  0.7108
  447MOL0     H61629   4.337   3.835  11.334  0.4997  0.1821  0.4645
  447MOL0     H61630   4.367   3.972  11.430 -1.7829 -0.3744  0.2372
  447MOL0     H61631   4.214   4.103  11.331  0.3751  0.8736 -2.3945
  447MOL0     H61632   4.134   3.951  11.385 -1.4059  1.8654  0.0339
  447MOL0     H61633   4.048   4.017  11.166  0.0349  1.4334  1.3441
  447MOL0     H61634   4.218   4.015  11.097 -1.3738  1.4815 -0.2121
  447MOL0     H61635   3.927   3.813  11.206  0.5016 -0.1007  2.5517
  447MOL0     H61636   3.927   3.458  11.168 -1.6179  0.1670  0.2367
  447MOL0     H61637   3.941   3.484  10.989  0.4360  1.7662 -0.3634
  447MOL0     H61638   3.705   3.524  11.077 -1.3637  1.1840 -2.2678
  447MOL0     H61639   3.770   3.668  11.159 -0.1060  3.0576 -2.5630
  447MOL0     H61640   3.850   3.746  10.947 -0.2486  0.3722 -0.3146
  447MOL0     H61641   3.777   3.600  10.857  0.4076  2.1423 -3.0310
  447MOL0     H61642   3.649   3.831  11.026 -2.6863  0.9170 -0.2207
  447MOL0     H61643   3.655   3.839  10.856  2.0579 -1.4278 -1.5057
  447MOL0     H61644   3.477   3.887  10.773  0.9597  0.4575  0.6097
  447MOL0     H61645   3.336   4.077  10.717 -1.2387  2.5376 -0.6662
  447MOL0     H61646   3.182   4.108  10.790  3.1090  0.7215  1.6258
  447MOL0     H61647   3.191   4.019  10.636  1.9496 -0.8994 -1.3004
  447MOL0     H61648   2.850   4.179  10.655 -2.3755  1.7053  0.2069
  447MOL0     H61649   2.635   4.214  10.596  1.2184 -0.4884 -0.6294
  447MOL0     H61650   2.393   4.129  10.712 -0.0689  1.0588 -0.1540
  447MOL0     H61651   2.408   4.218  10.559 -0.0575 -0.0995 -0.4251
  447MOL0     H61652   2.155   4.190  10.634 -0.1949  0.8766 -1.3984
  447MOL0     H61653   2.205   4.127  10.480  1.3296 -1.0351 -0.4767
  447MOL0     H61654   2.208   3.893  10.571  1.9997  0.7110  0.0447
  447MOL0     H61655   2.057   3.958  10.621 -0.2600  1.5387 -0.7465
  447MOL0     H61656   2.150   4.017  10.851 -0.6213  0.5318  0.8859
  447MOL0     H61657   2.309   3.945  10.805  0.1005  0.4782 -1.3323
  447MOL0     H61658   2.162   3.769  10.928 -0.5427  0.8409 -0.2980
  447MOL0     H61659   2.056   3.785  10.797 -0.7849 -0.5970  0.9830
  447MOL0     H61660   2.351   3.719  10.771  1.3786 -0.5957 -2.4112
  447MOL0     H61661   2.223   3.714  10.647  0.5514 -0.0319  0.9363
  447MOL0     H61662   2.252   3.523  10.884 -3.0259 -1.0120  0.5123
  447MOL0     H61663   2.306   3.498  10.707 -0.5345  0.7684 -3.1828
  447MOL0     H61664   2.090   3.519  10.613  1.7034 -1.0605 -0.0438
  447MOL0     H61665   2.020   3.534  10.776 -1.9064 -0.2721 -1.4751
  447MOL0     H61666   2.537   3.797  10.608 -0.6047 -0.1392  1.1073
  447MOL0     H61667   2.757   3.750  10.720  0.4448  0.6880  0.8372
  447MOL0     H61668   3.085   3.669  10.990  1.1419 -2.5238 -0.1658
  447MOL0     H61669   3.309   3.583  11.037  0.7762 -0.2786 -0.1494
  447MOL0     H61670   5.212   4.205  11.175 -0.2423  0.7705  3.5477
  447MOL0     H61671   5.352   4.362  11.017 -0.2856  1.1125 -2.1338
  447MOL0     H61672   5.546   4.597  10.870  0.1956  0.7863  1.0925
  447MOL0     H61673   5.741   4.689  10.771  0.0447  0.3974  0.7341
  447MOL0     H61674   5.720   5.081  10.655 -0.5976  0.3472  1.4124
  447MOL0     H61675   5.832   5.120  10.779 -1.4555  0.0693 -1.1693
  447MOL0     H61676   5.921   4.986  10.522  0.9136  1.0942 -1.5269
  447MOL0     H61677   6.023   5.069  10.649  0.2966  2.3356  0.8363
  447MOL0     H61678   5.964   5.152  10.411  0.0262 -0.2137 -0.1405
  447MOL0     H61679   5.806   5.187  10.463  1.0717 -1.6877 -1.9171
  447MOL0     H61680   6.053   5.310  10.564  0.6330 -2.3802  0.0535
  447MOL0     H61681   5.892   5.321  10.654 -1.1785 -0.2861 -1.4962
  447MOL0     H61682   5.852   5.593  10.332 -2.8095 -0.8830 -0.0635
  447MOL0     H61683   5.604   5.081  10.852  0.1136 -0.2059  1.9762
  447MOL0     H61684   5.393   5.127  10.926 -0.3412  0.5537  0.3086
  447MOL0     H61685   5.273   5.011  10.878  1.2090  0.2433 -0.0474
  447MOL0     H61686   5.326   5.028  11.047 -1.6534  1.1222  0.1805
  448MOL0     O61687   0.423   5.697   1.165  0.3322  0.2062 -0.7881
  448MOL0     C61688   0.450   5.814   1.149  0.2718  0.2259 -0.0462
  448MOL0     O61689   0.576   5.870   1.145 -0.0443 -0.7405 -0.6232
  448MOL0     C61690   0.693   5.809   1.165 -0.2766  0.0553  0.0555
  448MOL0     C61691   0.707   5.701   1.254  0.4876  0.1315 -0.1301
  448MOL0     C61692   0.831   5.648   1.271  0.8213 -0.1281 -0.4047
  448MOL0     C61693   0.942   5.694   1.202  0.2997  0.1794  0.0058
  448MOL0     O61694   1.052   5.617   1.230  0.4128 -0.0251 -0.1456
  448MOL0     C61695   1.183   5.689   1.222  0.3701  0.1236  0.2477
  448MOL0     C61696   1.188   5.803   1.326  0.6071  0.4740  0.6598
  448MOL0     C61697   1.184   5.740   1.461 -0.0375 -0.3058 -0.0902
  448MOL0     C61698   1.315   5.676   1.507 -0.4684  0.1022 -0.4259
  448MOL0     C61699   1.301   5.611   1.643 -0.2624 -0.1382 -0.1160
  448MOL0     C61700   1.286   5.711   1.756 -0.5487  0.3278 -1.1834
  448MOL0     C61701   1.197   5.637   1.855  0.4376  0.1644  0.3787
  448MOL0     C61702   1.170   5.718   1.983  0.7197  0.1521  0.0423
  448MOL0     N61703   1.286   5.744   2.073 -0.0829 -0.3225 -0.9571
  448MOL0     C61704   1.299   5.675   2.196 -0.3200 -0.3612 -0.1687
  448MOL0     C61705   1.390   5.747   2.263  0.4361  0.3030  0.6563
  448MOL0     C61706   1.429   5.716   2.406  0.9375  0.2836  0.4452
  448MOL0     C61707   1.362   5.813   2.503  0.4672 -0.0916  1.2686
  448MOL0     C61708   1.339   5.762   2.639 -0.5416  0.1944 -0.4605
  448MOL0     C61709   1.264   5.871   2.716  0.1335  0.7770  0.4399
  448MOL0     O61710   1.203   5.821   2.844 -0.0566 -0.5124  0.1645
  448MOL0     C61711   1.270   5.809   2.967  0.2708  1.1760  0.4286
  448MOL0     C61712   1.194   5.800   3.076  0.1842  0.5319  1.0473
  448MOL0     C61713   1.239   5.807   3.209  0.2501 -0.2703 -0.0828
  448MOL0     C61714   1.130   5.809   3.320  0.0108  0.5542  0.1449
  448MOL0     C61715   1.376   5.825   3.236 -0.0576  0.6529  0.1569
  448MOL0     C61716   1.446   5.843   3.364  0.0798 -0.6442 -0.1240
  448MOL0     O61717   1.361   5.861   3.468 -0.0603  0.0479 -0.2360
  448MOL0     C61718   1.383   5.818   3.593  0.1869 -0.8426 -0.2241
  448MOL0     C61719   1.464   5.705   3.633  0.0350 -0.1211 -0.2678
  448MOL0     C61720   1.467   5.686   3.774  0.3487  0.2170 -1.5028
  448MOL0     C61721   1.381   5.749   3.866  0.6086  0.8374 -0.4335
  448MOL0     O61722   1.379   5.701   3.995  0.6106  0.1691  0.3304
  448MOL0     C61723   1.269   5.622   4.042 -0.2742  0.1068  0.6711
  448MOL0     C61724   1.228   5.644   4.192 -0.0237 -0.0666  0.0980
  448MOL0     C61725   1.131   5.538   4.241 -1.1253  0.4303  0.4810
  448MOL0     C61726   1.091   5.548   4.389  1.1787 -0.3813 -0.1057
  448MOL0     C61727   1.212   5.552   4.478  0.5862  0.8148 -0.2848
  448MOL0     C61728   1.195   5.518   4.632  0.1187  0.3333  1.1151
  448MOL0     C61729   1.158   5.640   4.714 -0.6018 -0.0083  0.5108
  448MOL0     C61730   1.282   5.735   4.732 -0.3451  0.1257 -0.7116
  448MOL0    Cl61731   1.416   5.638   4.816 -0.3667  0.2356  0.1520
  448MOL0     C61732   1.290   5.848   3.818 -0.6306 -0.4384 -0.1963
  448MOL0     C61733   1.300   5.884   3.681 -0.9033  0.8196 -1.0379
  448MOL0     O61734   1.569   5.842   3.377  0.0115  0.6575  0.4515
  448MOL0     C61735   1.454   5.836   3.121 -0.3346 -0.1056  0.5221
  448MOL0     C61736   1.406   5.826   2.990  0.5179  0.2070  0.0544
  448MOL0     N61737   1.429   5.854   2.186 -0.3829 -0.4757  0.2760
  448MOL0     N61738   1.371   5.852   2.070 -0.8120 -0.0390 -0.1223
  448MOL0     C61739   0.934   5.805   1.115 -0.1453  0.0046 -0.0702
  448MOL0     C61740   0.806   5.862   1.103  0.0013  0.0161 -0.2436
  448MOL0     C61741   0.348   5.895   1.097  0.0417 -0.0066 -0.4882
  448MOL0     C61742   0.380   5.984   0.990 -0.7067 -0.0439 -0.9613
  448MOL0     C61743   0.290   6.070   0.941  0.0818  0.5846  0.5638
  448MOL0     C61744   0.158   6.076   0.995  0.1321 -0.3718 -0.2357
  448MOL0     O61745   0.055   6.149   0.951 -0.1024 -0.1153  0.1084
  448MOL0     C61746   0.052   6.217   0.816 -0.0894 -0.2789 -0.3430
  448MOL0     C61747  -0.074   6.304   0.819  0.3730  0.0671 -0.5295
  448MOL0     C61748  -0.204   6.210   0.810 -1.1496 -0.8206  0.3227
  448MOL0     C61749  -0.250   6.187   0.665 -0.1380 -0.6164 -0.4520
  448MOL0     C61750  -0.360   6.094   0.693 -0.1174 -1.1577 -0.6797
  448MOL0     C61751  -0.468   6.050   0.701  0.0801 -0.3621 -0.0563
  448MOL0     C61752   0.123   6.000   1.104 -0.2246 -0.3160 -1.1408
  448MOL0     C61753   0.222   5.908   1.157  0.5519 -0.2769 -0.6882
  448MOL0     C61754   0.170   5.820   1.258  0.4426  0.4243 -0.0515
  448MOL0     H61755   0.626   5.674   1.321  1.2796  0.5042  1.0159
  448MOL0     H61756   0.828   5.562   1.337 -1.2275  0.2490  0.0671
  448MOL0     H61757   1.207   5.731   1.124 -1.3467  0.2887 -0.1310
  448MOL0     H61758   1.265   5.617   1.235 -1.5573 -2.1273  0.7016
  448MOL0     H61759   1.274   5.869   1.309  0.5232  0.0696 -1.7929
  448MOL0     H61760   1.099   5.865   1.310 -0.8002 -1.9400 -1.9421
  448MOL0     H61761   1.169   5.826   1.527 -0.3793 -0.2722 -0.2070
  448MOL0     H61762   1.097   5.676   1.481  1.3429 -1.8328  1.2891
  448MOL0     H61763   1.350   5.602   1.434  1.6062  1.8963 -1.3567
  448MOL0     H61764   1.382   5.761   1.517  0.6804 -0.4922 -2.4366
  448MOL0     H61765   1.389   5.546   1.654  0.0540  0.4774  1.1513
  448MOL0     H61766   1.215   5.544   1.637 -0.2942  0.0190 -1.6475
  448MOL0     H61767   1.385   5.735   1.797 -0.2243  0.0215 -1.7697
  448MOL0     H61768   1.241   5.805   1.723 -1.9746 -1.1095 -3.6375
  448MOL0     H61769   1.230   5.534   1.871 -2.8195 -1.2049 -0.8489
  448MOL0     H61770   1.102   5.627   1.802  1.3939 -0.1580 -1.3547
  448MOL0     H61771   1.125   5.813   1.953  0.2983 -0.2490 -0.6415
  448MOL0     H61772   1.095   5.668   2.046 -0.9148  0.4371 -1.5721
  448MOL0     H61773   1.246   5.590   2.238  1.8080 -0.8129  1.7686
  448MOL0     H61774   1.535   5.704   2.426  0.9303  0.4963  0.6110
  448MOL0     H61775   1.397   5.615   2.435  0.2748  0.6470  1.0278
  448MOL0     H61776   1.430   5.897   2.493  2.7664 -2.1082 -2.8086
  448MOL0     H61777   1.274   5.853   2.451  2.3410 -1.3879 -3.3823
  448MOL0     H61778   1.268   5.680   2.623  2.3316 -2.9643  1.6545
  448MOL0     H61779   1.429   5.718   2.683 -2.1738 -1.7741  1.1324
  448MOL0     H61780   1.322   5.961   2.737 -1.9246  1.7976  2.1173
  448MOL0     H61781   1.189   5.918   2.652 -0.3611  0.6834  0.9423
  448MOL0     H61782   1.088   5.789   3.055  0.3291  1.0707 -0.0498
  448MOL0     H61783   1.047   5.747   3.285  0.8327 -3.7956  4.6429
  448MOL0     H61784   1.102   5.913   3.339  0.4771  0.4957  1.2712
  448MOL0     H61785   1.159   5.766   3.417 -2.5349 -1.5078  0.1127
  448MOL0     H61786   1.515   5.640   3.562 -1.3586 -1.0221 -0.4800
  448MOL0     H61787   1.536   5.612   3.813 -0.0182  1.0957  0.9825
  448MOL0     H61788   1.181   5.640   3.978  0.3929 -2.4239 -1.1179
  448MOL0     H61789   1.307   5.523   4.014  2.4089  0.9336  1.1028
  448MOL0     H61790   1.317   5.646   4.255 -1.1541  3.1223  1.7726
  448MOL0     H61791   1.184   5.744   4.198  0.2631  0.2755 -2.2874
  448MOL0     H61792   1.173   5.439   4.226 -3.7180 -0.4899 -1.5748
  448MOL0     H61793   1.037   5.539   4.185 -1.8301  1.2478  1.6246
  448MOL0     H61794   1.039   5.452   4.399 -1.9017  1.2729  1.6505
  448MOL0     H61795   1.032   5.640   4.391 -0.9821 -1.6860  1.2659
  448MOL0     H61796   1.279   5.474   4.441 -2.3772 -0.5605 -3.2552
  448MOL0     H61797   1.260   5.650   4.472  0.5670  1.0610  2.5029
  448MOL0     H61798   1.287   5.474   4.672  1.4094  2.2256  0.4094
  448MOL0     H61799   1.111   5.448   4.638 -0.9439  1.5014  0.2961
  448MOL0     H61800   1.141   5.617   4.820  0.2854  1.8446  1.0976
  448MOL0     H61801   1.070   5.694   4.679  0.2039  1.4702  0.6705
  448MOL0     H61802   1.260   5.808   4.810  0.7335 -1.5415  1.2530
  448MOL0     H61803   1.326   5.785   4.645  2.4020 -0.9534 -0.0536
  448MOL0     H61804   1.222   5.892   3.890  1.1892  0.3857  1.1047
  448MOL0     H61805   1.241   5.970   3.650  0.9834  1.8946 -1.8717
  448MOL0     H61806   1.560   5.861   3.120 -0.4003  0.3014 -1.9828
  448MOL0     H61807   1.472   5.843   2.906 -1.6555  1.3692 -1.5026
  448MOL0     H61808   1.019   5.849   1.064  1.8254 -0.0674  2.9280
  448MOL0     H61809   0.800   5.940   1.027 -0.0462 -0.5413 -0.8136
  448MOL0     H61810   0.481   5.971   0.952 -0.2739 -1.6304  0.5753
  448MOL0     H61811   0.321   6.127   0.854  0.1989 -0.0254  0.1979
  448MOL0     H61812   0.143   6.274   0.795  0.8031 -1.1044  1.0727
  448MOL0     H61813   0.049   6.152   0.728  1.3204  0.0137 -0.6318
  448MOL0     H61814  -0.073   6.372   0.734  3.4616 -1.8933 -2.2108
  448MOL0     H61815  -0.089   6.366   0.908 -0.3349  0.7251 -1.0913
  448MOL0     H61816  -0.174   6.109   0.840  1.1055 -0.5040 -0.6063
  448MOL0     H61817  -0.288   6.253   0.865 -1.5458 -0.7477 -0.3278
  448MOL0     H61818  -0.167   6.148   0.605  1.3732  2.1783 -0.3726
  448MOL0     H61819  -0.282   6.284   0.625  2.6037  1.8564  2.7523
  448MOL0     H61820  -0.563   6.001   0.695 -0.2773  0.4887 -2.4178
  448MOL0     H61821   0.031   6.019   1.158  0.4433  2.9095 -0.9425
  448MOL0     H61822   0.220   5.843   1.353  1.4951 -3.5556  0.5280
  448MOL0     H61823   0.063   5.838   1.273 -0.0594 -2.2056  0.0134
  448MOL0     H61824   0.170   5.713   1.233  0.4681  0.6687 -1.1428
  449MOL0     O61825   0.030   5.102   5.546  0.3968 -0.0117 -0.4238
  449MOL0     C61826   0.029   5.116   5.425 -0.6380 -0.2638  0.5675
  449MOL0     O61827   0.126   5.082   5.340 -0.2503  0.7925 -0.0118
  449MOL0     C61828   0.252   5.075   5.395  0.0001  0.4253  1.1428
  449MOL0     C61829   0.282   4.972   5.489 -0.9792 -0.5498 -0.4129
  449MOL0     C61830   0.414   4.965   5.537  0.0629 -1.3999  0.0428
  449MOL0     C61831   0.512   5.049   5.482  0.0108  0.1023  0.2171
  449MOL0     O61832   0.648   5.037   5.521 -1.2602 -0.3172  0.1888
  449MOL0     C61833   0.701   4.900   5.549 -0.1094 -0.9011  0.4740
  449MOL0     C61834   0.825   4.871   5.468 -0.2412  0.7105 -1.0261
  449MOL0     C61835   0.945   4.945   5.513 -0.1957  0.1613  0.0732
  449MOL0     C61836   0.989   4.932   5.654 -0.7220  0.2474  0.6237
  449MOL0     C61837   1.146   4.969   5.675  0.4276  0.8018  0.5223
  449MOL0     C61838   1.213   4.904   5.795  1.4172 -0.3775  0.2525
  449MOL0     C61839   1.127   4.941   5.918  0.1642  0.5676 -0.1585
  449MOL0     C61840   1.209   4.922   6.042  0.8777  0.0878 -0.1558
  449MOL0     N61841   1.273   5.040   6.088  0.3624  0.7439 -0.6890
  449MOL0     C61842   1.269   5.073   6.223 -0.1039  0.1048 -0.7894
  449MOL0     C61843   1.370   5.159   6.236 -0.2566  0.7092 -0.2595
  449MOL0     C61844   1.412   5.224   6.366  0.1243  0.1734  0.3405
  449MOL0     C61845   1.534   5.315   6.340  0.3193  0.1616 -0.4144
  449MOL0     C61846   1.580   5.385   6.462  0.0422  0.3585 -0.1367
  449MOL0     C61847   1.693   5.487   6.435 -0.8278 -0.6152  0.8075
  449MOL0     O61848   1.811   5.408   6.409  0.3376 -0.1535  0.7484
  449MOL0     C61849   1.934   5.472   6.389 -0.2280 -0.1576 -0.0674
  449MOL0     C61850   1.956   5.608   6.363 -0.2056 -0.4690  0.1586
  449MOL0     C61851   2.082   5.666   6.364  0.0234  0.1766  0.0431
  449MOL0     C61852   2.082   5.817   6.358 -0.1615  0.0897 -0.1796
  449MOL0     C61853   2.198   5.578   6.374  0.4661 -1.4680 -0.5596
  449MOL0     C61854   2.334   5.626   6.377  0.4576  0.8168 -0.2111
  449MOL0     O61855   2.432   5.528   6.398 -0.1734  0.1092 -0.4436
  449MOL0     C61856   2.567   5.557   6.413 -0.0126  0.9008  0.0459
  449MOL0     C61857   2.652   5.556   6.302  0.0890  0.6055 -0.1676
  449MOL0     C61858   2.785   5.587   6.318 -0.5338 -0.8912  0.2159
  449MOL0     C61859   2.844   5.618   6.442  0.5917  1.0865  0.3283
  449MOL0     O61860   2.977   5.639   6.441 -0.0363  0.2676 -0.3981
  449MOL0     C61861   3.041   5.665   6.569 -0.0177 -0.2600  0.4413
  449MOL0     C61862   3.186   5.690   6.534 -0.6935  0.7385 -0.3369
  449MOL0     C61863   3.197   5.810   6.444 -0.1339 -0.1280  0.5461
  449MOL0     C61864   3.323   5.887   6.460  0.1513 -0.2993 -0.9894
  449MOL0     C61865   3.451   5.812   6.467 -0.0354  0.6530  0.1113
  449MOL0     C61866   3.575   5.873   6.523  0.0193 -0.1217  0.2180
  449MOL0     C61867   3.608   6.014   6.474 -0.5116  1.1366 -0.2140
  449MOL0     C61868   3.751   6.036   6.505  0.1192 -0.7828  0.2486
  449MOL0    Cl61869   3.790   6.065   6.679  0.0090 -0.2947  0.2657
  449MOL0     C61870   2.754   5.635   6.553 -0.5688 -0.1826  0.5472
  449MOL0     C61871   2.621   5.603   6.537 -0.3969  0.2763 -0.8684
  449MOL0     O61872   2.357   5.740   6.379  0.0154 -0.3308  0.3520
  449MOL0     C61873   2.177   5.439   6.386 -0.1075 -1.3687 -0.2762
  449MOL0     C61874   2.049   5.389   6.403 -1.0103 -0.8774  0.9306
  449MOL0     N61875   1.440   5.172   6.114 -0.2336  0.1445 -0.3839
  449MOL0     N61876   1.367   5.107   6.021 -0.4982  0.3380  0.0614
  449MOL0     C61877   0.474   5.150   5.396  0.3435 -0.3731 -0.2244
  449MOL0     C61878   0.343   5.170   5.347  0.8341 -0.1672  0.9923
  449MOL0     C61879  -0.090   5.166   5.356  0.1801 -0.1350  0.4534
  449MOL0     C61880  -0.208   5.193   5.431 -0.0476 -0.3177  0.5018
  449MOL0     C61881  -0.326   5.245   5.372  0.2379 -0.3760 -0.6294
  449MOL0     C61882  -0.336   5.255   5.238  0.4916 -0.3366  0.3365
  449MOL0     O61883  -0.460   5.276   5.190  0.0697  0.7242 -0.1870
  449MOL0     C61884  -0.480   5.351   5.082 -0.0464  0.1879  1.1803
  449MOL0     C61885  -0.617   5.414   5.092  0.2192  0.3632 -0.7348
  449MOL0     C61886  -0.716   5.339   4.994 -0.1750 -0.1048  1.0687
  449MOL0     C61887  -0.742   5.190   5.022 -0.9104  0.7074 -0.6412
  449MOL0     C61888  -0.870   5.158   4.952  0.5541  0.8310 -0.3287
  449MOL0     C61889  -0.958   5.121   4.881 -1.2691 -0.2819  1.2655
  449MOL0     C61890  -0.225   5.234   5.155  0.6463 -0.2894 -0.2925
  449MOL0     C61891  -0.101   5.183   5.210 -0.2373  0.2108  0.6085
  449MOL0     C61892   0.012   5.158   5.111 -1.0411 -0.0952 -0.5123
  449MOL0     H61893   0.214   4.895   5.525  0.2186 -0.9753  1.0147
  449MOL0     H61894   0.442   4.899   5.618  0.8335 -0.5145  0.5209
  449MOL0     H61895   0.623   4.825   5.533 -3.2914  1.6009  2.9390
  449MOL0     H61896   0.721   4.888   5.656 -1.8057  0.0536  0.9195
  449MOL0     H61897   0.836   4.763   5.462 -4.6535 -0.1156  1.3710
  449MOL0     H61898   0.811   4.911   5.367  3.3657 -0.5710 -2.1636
  449MOL0     H61899   1.028   4.913   5.449 -0.1707 -2.6637  1.3597
  449MOL0     H61900   0.929   5.051   5.493 -0.8283 -0.5016 -3.9340
  449MOL0     H61901   0.935   4.994   5.726 -0.2759  3.1753 -1.3786
  449MOL0     H61902   0.975   4.832   5.696  0.2257 -0.0931  0.1567
  449MOL0     H61903   1.153   5.078   5.660 -0.3946  1.0906  2.0333
  449MOL0     H61904   1.203   4.921   5.596  1.5329  0.9376  1.2061
  449MOL0     H61905   1.218   4.795   5.782 -4.0578 -0.8039 -0.8494
  449MOL0     H61906   1.315   4.943   5.801  1.8626 -1.4771  0.0549
  449MOL0     H61907   1.046   4.867   5.919  0.3810  0.1142 -3.5879
  449MOL0     H61908   1.092   5.044   5.907  2.6023  1.3424 -1.2785
  449MOL0     H61909   1.147   4.883   6.124 -2.5064  4.2931 -0.3789
  449MOL0     H61910   1.293   4.860   6.011  0.5080  0.0320 -1.0831
  449MOL0     H61911   1.210   5.039   6.307 -2.2859  2.3867 -1.2717
  449MOL0     H61912   1.442   5.146   6.436 -2.7841 -0.1864  1.3045
  449MOL0     H61913   1.336   5.279   6.422  0.1283 -0.8642  1.3782
  449MOL0     H61914   1.612   5.251   6.298 -2.9782 -3.0339 -2.2969
  449MOL0     H61915   1.500   5.386   6.264 -1.7581 -1.8973 -1.5675
  449MOL0     H61916   1.500   5.443   6.508 -2.3606 -2.6928 -0.1152
  449MOL0     H61917   1.619   5.314   6.536 -1.9682 -0.7680 -0.0678
  449MOL0     H61918   1.663   5.547   6.348  2.3796 -2.6876 -2.0122
  449MOL0     H61919   1.712   5.541   6.527  1.1170 -2.8378  1.8242
  449MOL0     H61920   1.871   5.671   6.339 -0.5327 -0.7105  0.6656
  449MOL0     H61921   2.122   5.835   6.258 -1.0666  1.9427 -0.2555
  449MOL0     H61922   2.148   5.858   6.436 -0.5565 -0.3339  0.3834
  449MOL0     H61923   1.989   5.871   6.374 -0.6958 -0.1740 -2.1089
  449MOL0     H61924   2.612   5.533   6.204 -1.5654  0.7817  0.4339
  449MOL0     H61925   2.858   5.573   6.239  0.6035 -0.5338  1.1694
  449MOL0     H61926   2.993   5.752   6.613  0.8524  0.6724 -0.4179
  449MOL0     H61927   3.035   5.576   6.634  1.1790 -0.4217  0.3391
  449MOL0     H61928   3.236   5.701   6.630 -0.7448 -2.1264  0.1014
  449MOL0     H61929   3.223   5.599   6.486 -1.8024  0.7422 -1.2569
  449MOL0     H61930   3.117   5.881   6.467  0.1689  0.5608 -0.4597
  449MOL0     H61931   3.186   5.779   6.339 -1.8727 -3.1205  1.4746
  449MOL0     H61932   3.310   5.955   6.544  0.7991 -1.9460  0.5060
  449MOL0     H61933   3.351   5.951   6.376  0.0516 -0.6410 -1.2901
  449MOL0     H61934   3.442   5.713   6.514 -0.1795 -0.0145 -1.2582
  449MOL0     H61935   3.474   5.789   6.363  0.7575 -0.9943  0.6137
  449MOL0     H61936   3.654   5.799   6.509  0.2693  0.4149 -1.4758
  449MOL0     H61937   3.561   5.881   6.631  3.4806 -0.6175  0.8028
  449MOL0     H61938   3.550   6.082   6.536 -0.2943  0.9810  0.1670
  449MOL0     H61939   3.590   6.024   6.366  0.3492  0.7823 -0.3999
  449MOL0     H61940   3.763   6.131   6.451 -2.6128  0.7195  2.0405
  449MOL0     H61941   3.807   5.954   6.460  0.5123 -0.1073 -0.5318
  449MOL0     H61942   2.789   5.672   6.649  0.0210 -1.6012  0.9107
  449MOL0     H61943   2.542   5.630   6.607 -1.2778  3.2281 -2.8236
  449MOL0     H61944   2.262   5.371   6.387 -0.2618 -1.5617 -0.3739
  449MOL0     H61945   2.057   5.284   6.430  0.2709 -0.6552  1.4950
  449MOL0     H61946   0.549   5.224   5.366 -1.8778  2.6745  1.1822
  449MOL0     H61947   0.322   5.244   5.271  2.4313 -2.2206 -1.6078
  449MOL0     H61948  -0.202   5.171   5.537  2.1681  2.2146  1.0085
  449MOL0     H61949  -0.407   5.264   5.441 -0.2013  0.9832 -1.4747
  449MOL0     H61950  -0.402   5.428   5.080  1.3477 -1.1688 -0.9253
  449MOL0     H61951  -0.473   5.289   4.992  1.2944 -0.7198  1.8653
  449MOL0     H61952  -0.618   5.518   5.059  1.0198  1.0162  1.1616
  449MOL0     H61953  -0.655   5.413   5.195  0.3026 -1.2306 -0.6949
  449MOL0     H61954  -0.808   5.397   5.002 -1.3824 -1.7456 -0.3465
  449MOL0     H61955  -0.694   5.335   4.887 -1.2245 -0.8359  0.8706
  449MOL0     H61956  -0.749   5.177   5.130  4.2052 -1.0047 -0.2213
  449MOL0     H61957  -0.661   5.128   4.982 -2.0147 -1.2789  0.0683
  449MOL0     H61958  -1.037   5.086   4.818 -1.0433 -4.6939  3.0773
  449MOL0     H61959  -0.234   5.255   5.048 -0.0607 -0.9475 -0.3741
  449MOL0     H61960   0.044   5.054   5.117 -2.2189 -0.4148  0.6546
  449MOL0     H61961  -0.021   5.180   5.009 -0.0346  0.9131 -0.6446
  449MOL0     H61962   0.094   5.231   5.117 -0.3832 -0.7187 -1.6362
  450MOL0     O61963   5.209   4.584   1.290  0.5836  0.7245  0.0783
  450MOL0     C61964   5.269   4.658   1.364  0.1916 -0.6312 -0.7082
  450MOL0     O61965   5.399   4.687   1.338 -0.2085 -0.3142 -0.1292
  450MOL0     C61966   5.475   4.604   1.271 -0.0439  0.7497 -1.8564
  450MOL0     C61967   5.476   4.466   1.314  0.6400 -1.1981 -0.1424
  450MOL0     C61968   5.553   4.375   1.243  0.9305 -1.2777  0.9829
  450MOL0     C61969   5.646   4.408   1.138  0.8542 -0.0873 -0.4688
  450MOL0     O61970   5.718   4.313   1.065 -0.3761 -0.8971 -0.6933
  450MOL0     C61971   5.746   4.329   0.926 -0.4728  0.3628 -0.3531
  450MOL0     C61972   5.820   4.205   0.868  0.2086  0.3061 -0.7923
  450MOL0     C61973   5.875   4.233   0.725  0.4918 -0.2508 -0.6627
  450MOL0     C61974   5.972   4.118   0.681  0.1013 -0.1212 -1.0437
  450MOL0     C61975   6.065   4.156   0.566 -0.0060 -0.1343  0.3321
  450MOL0     C61976   6.193   4.233   0.621 -0.3865  1.0206  0.3178
  450MOL0     C61977   6.268   4.294   0.499 -0.3282  0.5434 -0.5219
  450MOL0     C61978   6.188   4.385   0.405  0.0844  0.0667  0.6293
  450MOL0     N61979   6.128   4.489   0.484 -0.0035 -0.5732 -0.9130
  450MOL0     C61980   5.988   4.504   0.491 -0.6044  0.7909 -1.1985
  450MOL0     C61981   5.964   4.598   0.587  0.2181  0.6653  0.4243
  450MOL0     C61982   5.830   4.647   0.641  0.1547  0.7305 -0.5970
  450MOL0     C61983   5.836   4.784   0.702  0.3732 -0.2289  0.6751
  450MOL0     C61984   5.846   4.893   0.596  0.6108 -0.2433 -0.0930
  450MOL0     C61985   5.852   5.035   0.660 -0.5700 -0.3023  0.5835
  450MOL0     O61986   5.723   5.063   0.720  0.5547 -0.8258  0.6080
  450MOL0     C61987   5.716   5.051   0.857 -0.4552 -0.3185 -0.2901
  450MOL0     C61988   5.823   5.049   0.947  0.5133  0.0667  0.5636
  450MOL0     C61989   5.789   5.047   1.080 -0.0719 -0.0750 -0.1298
  450MOL0     C61990   5.900   5.064   1.168 -0.3304 -0.1537 -0.6946
  450MOL0     C61991   5.654   5.044   1.131  0.4472  1.2501 -0.0062
  450MOL0     C61992   5.605   5.042   1.268  0.1305 -0.6357  0.1486
  450MOL0     O61993   5.685   4.979   1.359 -0.2014 -0.3427 -0.5539
  450MOL0     C61994   5.649   4.957   1.492  0.5530 -0.0530 -0.8162
  450MOL0     C61995   5.605   5.059   1.572  0.1423 -0.5006  0.2743
  450MOL0     C61996   5.575   5.030   1.708 -0.0643  0.8619 -0.2331
  450MOL0     C61997   5.585   4.901   1.761  0.2314  0.0259  0.5779
  450MOL0     O61998   5.546   4.899   1.889  1.1195  0.1384  0.8091
  450MOL0     C61999   5.511   4.770   1.947  0.4853 -0.1655  1.0560
  450MOL0     C62000   5.632   4.686   1.980 -0.4360  0.8015 -0.4278
  450MOL0     C62001   5.698   4.744   2.104  0.4524 -1.1638  0.2076
  450MOL0     C62002   5.787   4.647   2.176  0.2016 -0.0207 -0.0601
  450MOL0     C62003   5.866   4.714   2.286  0.4051  0.3786  0.3033
  450MOL0     C62004   5.959   4.624   2.372 -0.2357  0.2476 -0.0786
  450MOL0     C62005   6.006   4.678   2.510  0.2576  0.2716 -0.1646
  450MOL0     C62006   6.089   4.565   2.577 -0.0875 -0.4809 -0.2630
  450MOL0    Cl62007   6.256   4.557   2.492 -0.0384  0.6170 -0.0812
  450MOL0     C62008   5.618   4.795   1.677  1.3296  0.4989  0.8518
  450MOL0     C62009   5.654   4.826   1.545 -0.5692  0.9151  0.0014
  450MOL0     O62010   5.493   5.088   1.285 -0.8555 -0.7151  0.0910
  450MOL0     C62011   5.545   5.052   1.038  0.5620 -0.0903  0.5290
  450MOL0     C62012   5.584   5.056   0.901  0.0284  0.5412  0.5114
  450MOL0     N62013   6.089   4.641   0.631  0.1951  0.7293 -0.6686
  450MOL0     N62014   6.183   4.580   0.563  0.1765  0.2762 -0.1523
  450MOL0     C62015   5.652   4.547   1.115 -0.5822  0.3312 -0.3074
  450MOL0     C62016   5.578   4.643   1.184 -0.1223  0.8216  0.0636
  450MOL0     C62017   5.206   4.743   1.463 -0.1699  0.4317  0.0973
  450MOL0     C62018   5.280   4.844   1.524 -0.5147  0.0608 -0.3754
  450MOL0     C62019   5.213   4.923   1.627 -0.5752  0.1264  0.1197
  450MOL0     C62020   5.085   4.891   1.680 -0.2124 -0.4130  0.2756
  450MOL0     O62021   5.011   4.970   1.761 -0.1405 -0.4037 -0.0866
  450MOL0     C62022   5.084   5.090   1.817 -0.5460 -0.4724 -0.0904
  450MOL0     C62023   4.991   5.177   1.912  1.1848  0.3838  0.6729
  450MOL0     C62024   4.917   5.274   1.826  0.5454  0.3554  0.2821
  450MOL0     C62025   4.817   5.366   1.903  0.0205 -0.2068 -0.1585
  450MOL0     C62026   4.860   5.405   2.043 -0.0847 -0.5687  0.3157
  450MOL0     C62027   4.885   5.445   2.156 -0.6610 -0.0097 -0.7405
  450MOL0     C62028   5.027   4.774   1.626  0.5087  0.0967 -0.3777
  450MOL0     C62029   5.077   4.709   1.512 -0.9592 -0.1967  0.2226
  450MOL0     C62030   4.988   4.600   1.463 -0.6679  0.0446 -0.2133
  450MOL0     H62031   5.403   4.419   1.378  1.0494 -1.4636  0.1372
  450MOL0     H62032   5.547   4.270   1.272  0.1212 -0.6071  3.3920
  450MOL0     H62033   5.803   4.420   0.903 -0.9574  0.1366 -2.6571
  450MOL0     H62034   5.648   4.326   0.879  0.0772  0.8898 -1.5919
  450MOL0     H62035   5.895   4.177   0.942  0.6064  1.3231 -0.7996
  450MOL0     H62036   5.743   4.127   0.858 -0.1914  0.5262  0.4641
  450MOL0     H62037   5.787   4.249   0.662  0.3781  0.6460 -0.2927
  450MOL0     H62038   5.941   4.320   0.728 -1.9180  1.6673 -0.0683
  450MOL0     H62039   6.031   4.094   0.769 -1.0270  2.8264  0.6678
  450MOL0     H62040   5.911   4.035   0.644 -1.9089  1.3634 -1.2798
  450MOL0     H62041   6.016   4.219   0.492  1.9450  0.1012 -0.8002
  450MOL0     H62042   6.100   4.064   0.517  1.8953  3.0515 -5.1514
  450MOL0     H62043   6.173   4.309   0.696 -0.9286 -0.6692  1.9444
  450MOL0     H62044   6.261   4.163   0.670 -0.1848  2.2362  1.8311
  450MOL0     H62045   6.309   4.209   0.443 -0.1641  0.9935 -1.0921
  450MOL0     H62046   6.349   4.349   0.549 -0.9160 -0.2701  1.4224
  450MOL0     H62047   6.254   4.434   0.333 -0.8031 -1.6494 -1.4596
  450MOL0     H62048   6.110   4.332   0.350  1.5706 -0.4927 -1.0255
  450MOL0     H62049   5.917   4.440   0.438 -0.7313 -1.4458  1.4742
  450MOL0     H62050   5.790   4.572   0.710  2.5629 -0.7059 -0.6143
  450MOL0     H62051   5.760   4.653   0.558 -0.3918 -0.7850 -0.2827
  450MOL0     H62052   5.745   4.791   0.763  0.4519 -2.1696  1.0775
  450MOL0     H62053   5.923   4.778   0.768  1.9782 -1.4568 -1.4328
  450MOL0     H62054   5.943   4.887   0.544  0.2373  0.9069 -0.9541
  450MOL0     H62055   5.768   4.892   0.520  1.4067  0.6376 -0.9365
  450MOL0     H62056   5.941   5.045   0.724 -0.1439  1.2088 -0.1782
  450MOL0     H62057   5.862   5.106   0.577  0.5885 -0.7354  0.3234
  450MOL0     H62058   5.921   5.059   0.902  0.0984  0.0355 -0.3657
  450MOL0     H62059   5.868   5.145   1.234 -3.1186 -3.2655  2.1280
  450MOL0     H62060   5.992   5.103   1.123 -1.3140  3.4561  0.1030
  450MOL0     H62061   5.924   4.973   1.224  0.1186 -0.2897 -1.0995
  450MOL0     H62062   5.586   5.152   1.519 -0.0961  0.6682  2.3137
  450MOL0     H62063   5.544   5.108   1.778  2.7357  0.9763  1.0169
  450MOL0     H62064   5.450   4.775   2.037  1.1405 -0.0088  1.4976
  450MOL0     H62065   5.445   4.712   1.882  0.0100  1.5639 -0.0726
  450MOL0     H62066   5.587   4.587   1.990 -0.1161  0.6923 -0.0477
  450MOL0     H62067   5.696   4.676   1.891 -0.0921 -1.5209  0.0302
  450MOL0     H62068   5.627   4.788   2.175  0.6909 -2.1148  1.0634
  450MOL0     H62069   5.761   4.823   2.061  0.8306 -1.0880  0.8859
  450MOL0     H62070   5.857   4.597   2.108  1.2614  2.4316 -0.8953
  450MOL0     H62071   5.718   4.575   2.221 -1.7131  2.4605  1.2437
  450MOL0     H62072   5.925   4.798   2.247  0.9951  1.1315  2.5967
  450MOL0     H62073   5.787   4.741   2.356 -0.7294 -3.2134  0.5920
  450MOL0     H62074   6.043   4.615   2.302 -2.2233 -1.8536 -2.4348
  450MOL0     H62075   5.912   4.526   2.382 -0.8187  0.3838 -1.2604
  450MOL0     H62076   5.918   4.698   2.571  0.0355 -0.5847 -0.1886
  450MOL0     H62077   6.070   4.766   2.496  1.7784 -0.7399  0.1931
  450MOL0     H62078   6.036   4.469   2.575  3.0965 -2.5471  2.9317
  450MOL0     H62079   6.103   4.602   2.679  3.9157 -0.9659 -0.5027
  450MOL0     H62080   5.606   4.691   1.703  1.2320  0.6002  1.2222
  450MOL0     H62081   5.684   4.743   1.483 -2.9510  0.7291 -1.0091
  450MOL0     H62082   5.437   5.061   1.051  0.0539 -2.1726 -1.4722
  450MOL0     H62083   5.514   5.073   0.820  0.9717 -1.2123 -0.7595
  450MOL0     H62084   5.730   4.575   1.044 -1.8434 -0.7880 -2.2084
  450MOL0     H62085   5.586   4.749   1.160 -4.7658  1.4155  0.2272
  450MOL0     H62086   5.373   4.889   1.492 -1.2487  1.8235 -0.1477
  450MOL0     H62087   5.284   5.000   1.656 -0.0543 -0.0280 -0.7064
  450MOL0     H62088   5.180   5.063   1.863 -0.0026 -0.3537 -1.1169
  450MOL0     H62089   5.103   5.143   1.723 -1.0451 -2.1660 -1.1873
  450MOL0     H62090   5.066   5.227   1.973  1.8166 -1.9640  1.9280
  450MOL0     H62091   4.928   5.109   1.969 -0.2640  0.9685 -0.1605
  450MOL0     H62092   4.981   5.347   1.775 -0.8210  3.0037  2.1157
  450MOL0     H62093   4.856   5.226   1.749  0.0618  0.9925  0.2557
  450MOL0     H62094   4.723   5.312   1.919  0.4441 -0.2478  2.7051
  450MOL0     H62095   4.795   5.461   1.854 -0.8828  0.5078  1.5487
  450MOL0     H62096   4.937   5.473   2.246 -0.5162 -0.3375 -0.7219
  450MOL0     H62097   4.928   4.743   1.658  0.7010  1.2390  1.4289
  450MOL0     H62098   4.971   4.597   1.355  3.5914 -0.7931 -1.0744
  450MOL0     H62099   5.010   4.498   1.495  0.2198 -0.8592 -3.3938
  450MOL0     H62100   4.894   4.611   1.517  0.4594 -1.5453  2.2443
  451MOL0     O62101   2.827  11.045   0.816 -0.2391  0.4094  0.0970
  451MOL0     C62102   2.770  10.960   0.878  0.5270  0.1573 -0.1666
  451MOL0     O62103   2.639  10.923   0.858  0.8836  0.1041 -0.2058
  451MOL0     C62104   2.566  10.994   0.770 -0.0365 -0.2518 -0.2268
  451MOL0     C62105   2.570  10.969   0.632  0.2291 -0.1673  0.3364
  451MOL0     C62106   2.494  11.050   0.542 -0.5206  0.1767 -0.4292
  451MOL0     C62107   2.403  11.138   0.592  0.2208 -0.8573 -1.0586
  451MOL0     O62108   2.336  11.214   0.505  0.5831  0.0925  0.4775
  451MOL0     C62109   2.194  11.207   0.532  0.1226 -0.1651  0.2653
  451MOL0     C62110   2.135  11.152   0.401 -0.4866  0.0371  0.1926
  451MOL0     C62111   1.977  11.168   0.391 -0.3185 -0.2992 -0.0207
  451MOL0     C62112   1.916  11.308   0.383 -0.2808 -0.1878  0.2219
  451MOL0     C62113   1.757  11.311   0.384  0.1746 -0.1751 -0.7976
  451MOL0     C62114   1.688  11.246   0.273  0.2658  0.7045  0.3716
  451MOL0     C62115   1.726  11.298   0.134 -0.3967 -0.1284 -0.2342
  451MOL0     C62116   1.635  11.232   0.031 -0.3391 -0.4077 -0.1641
  451MOL0     N62117   1.672  11.263  -0.108  0.2734  1.1400  0.4973
  451MOL0     C62118   1.606  11.360  -0.182 -0.3641  0.5298  0.5714
  451MOL0     C62119   1.649  11.333  -0.313  0.5733  0.1789 -0.8805
  451MOL0     C62120   1.607  11.403  -0.433  0.3253 -0.0521 -0.4175
  451MOL0     C62121   1.492  11.506  -0.413 -0.3530 -0.4678  1.2132
  451MOL0     C62122   1.408  11.508  -0.542 -0.0121 -0.5287  0.1980
  451MOL0     C62123   1.298  11.620  -0.542 -0.4571  0.2101  0.0709
  451MOL0     O62124   1.189  11.581  -0.465 -0.4284 -0.1062 -0.0825
  451MOL0     C62125   1.116  11.674  -0.409  0.7868 -0.3876 -0.5629
  451MOL0     C62126   0.987  11.625  -0.364  0.8669 -0.8103 -0.6856
  451MOL0     C62127   0.888  11.712  -0.315  0.4445  0.0103  0.9177
  451MOL0     C62128   0.754  11.650  -0.287 -0.3854  0.1524  0.1891
  451MOL0     C62129   0.911  11.854  -0.317  0.3933  0.0877 -0.2865
  451MOL0     C62130   0.817  11.958  -0.288 -0.7026 -0.3937 -0.0570
  451MOL0     O62131   0.869  12.089  -0.267 -0.1728  0.9519  0.0922
  451MOL0     C62132   0.788  12.195  -0.225 -0.1741  0.5814  0.8025
  451MOL0     C62133   0.689  12.259  -0.306  0.2664  0.7410  0.0451
  451MOL0     C62134   0.636  12.388  -0.277  0.4071  0.7115  0.0610
  451MOL0     C62135   0.679  12.455  -0.166 -0.0500  0.5784 -0.8324
  451MOL0     O62136   0.629  12.584  -0.140 -0.0515 -0.0162 -0.0006
  451MOL0     C62137   0.624  12.647  -0.013 -0.1500 -0.7440  0.6317
  451MOL0     C62138   0.473  12.659   0.013 -0.0647 -0.6310  0.4452
  451MOL0     C62139   0.458  12.768   0.122  0.5932 -0.2899 -0.2960
  451MOL0     C62140   0.480  12.915   0.067  0.3292 -0.3102  0.5635
  451MOL0     C62141   0.434  13.027   0.151  0.8091 -0.8905 -0.3390
  451MOL0     C62142   0.532  13.050   0.264  0.7081 -0.3809 -0.8617
  451MOL0     C62143   0.533  13.188   0.328  0.1519 -0.2083 -0.5142
  451MOL0     C62144   0.426  13.199   0.436  0.6202 -0.7351 -0.0150
  451MOL0    Cl62145   0.484  13.121   0.592  0.0792  0.5190 -0.4550
  451MOL0     C62146   0.777  12.389  -0.081  0.3311 -0.3754  0.3908
  451MOL0     C62147   0.814  12.257  -0.105 -0.1053 -0.5701  0.5607
  451MOL0     O62148   0.697  11.933  -0.286  0.9201  0.3007  0.7537
  451MOL0     C62149   1.043  11.901  -0.350 -0.0129 -0.5977  0.8360
  451MOL0     C62150   1.138  11.812  -0.400 -0.3924  0.1229 -0.2338
  451MOL0     N62151   1.740  11.226  -0.311  0.3408  0.3717 -0.2645
  451MOL0     N62152   1.727  11.176  -0.194 -0.0609 -0.4184  0.0505
  451MOL0     C62153   2.392  11.168   0.729  0.3508  1.2690 -0.6769
  451MOL0     C62154   2.474  11.092   0.811  0.0689 -0.0564 -0.5951
  451MOL0     C62155   2.854  10.873   0.986  0.6570 -0.6700  0.1664
  451MOL0     C62156   2.792  10.758   1.044 -0.7150 -0.0400 -0.1707
  451MOL0     C62157   2.860  10.662   1.117 -0.4735 -0.1632  0.6364
  451MOL0     C62158   2.998  10.664   1.133  0.4092  0.6902  0.0228
  451MOL0     O62159   3.071  10.552   1.184  0.2283  0.3422 -0.6369
  451MOL0     C62160   3.210  10.559   1.178  0.5687 -0.4656  0.2145
  451MOL0     C62161   3.270  10.624   1.310  0.8096 -0.7799 -0.1673
  451MOL0     C62162   3.185  10.616   1.438 -0.4014 -0.1440 -1.3272
  451MOL0     C62163   3.265  10.679   1.549 -0.0808 -0.2831  0.0380
  451MOL0     C62164   3.368  10.580   1.604 -0.0677 -0.0874  0.1209
  451MOL0     C62165   3.436  10.497   1.652  0.5090  0.3454  0.5820
  451MOL0     C62166   3.057  10.791   1.102 -0.0196 -0.0497 -0.1032
  451MOL0     C62167   2.990  10.896   1.029  0.5342  0.0453 -0.2338
  451MOL0     C62168   3.078  11.002   0.985  0.7388 -0.2517 -0.0652
  451MOL0     H62169   2.634  10.893   0.589 -0.8975 -1.1834  0.3915
  451MOL0     H62170   2.524  11.035   0.439  1.1298  1.1020 -0.1058
  451MOL0     H62171   2.144  11.304   0.543 -2.1705 -1.3551  0.9980
  451MOL0     H62172   2.163  11.152   0.621 -4.2932  1.5451  0.0443
  451MOL0     H62173   2.176  11.209   0.317 -0.2423 -2.7773 -1.7242
  451MOL0     H62174   2.155  11.048   0.375 -2.0172 -0.1264 -0.4962
  451MOL0     H62175   1.934  11.107   0.311 -3.5313  2.2188 -0.4460
  451MOL0     H62176   1.934  11.125   0.482  0.5130 -2.7949 -0.7354
  451MOL0     H62177   1.955  11.378   0.456 -1.0231 -0.6325  1.0677
  451MOL0     H62178   1.936  11.353   0.285 -2.6638  0.6310  0.0466
  451MOL0     H62179   1.723  11.414   0.397  0.5617 -0.1907  0.5203
  451MOL0     H62180   1.724  11.264   0.477 -0.5837  0.6136 -0.6599
  451MOL0     H62181   1.684  11.138   0.292 -1.3603  0.7665  0.5256
  451MOL0     H62182   1.588  11.289   0.288 -0.7711 -1.1731 -0.7319
  451MOL0     H62183   1.831  11.273   0.116  0.4924  1.6295  2.1074
  451MOL0     H62184   1.705  11.405   0.125 -0.4302 -0.1921 -0.9955
  451MOL0     H62185   1.649  11.125   0.050  2.4331 -0.1326 -0.1558
  451MOL0     H62186   1.533  11.269   0.047 -0.0387  1.1259 -1.4933
  451MOL0     H62187   1.542  11.438  -0.144  0.1156  1.2091  0.0186
  451MOL0     H62188   1.584  11.326  -0.507 -0.8477 -0.0912 -0.0402
  451MOL0     H62189   1.690  11.457  -0.480  0.5079  0.3017  0.2961
  451MOL0     H62190   1.420  11.491  -0.332 -1.4145  1.0281  0.5943
  451MOL0     H62191   1.541  11.598  -0.382 -0.2818 -0.5845  1.4501
  451MOL0     H62192   1.467  11.518  -0.633  2.6178  0.4564  1.8919
  451MOL0     H62193   1.363  11.409  -0.553 -1.5351  0.4564 -5.2745
  451MOL0     H62194   1.341  11.708  -0.492 -1.4250 -0.3903  2.0718
  451MOL0     H62195   1.256  11.646  -0.640  0.1947  0.2252 -0.2121
  451MOL0     H62196   0.957  11.520  -0.364 -1.3627 -0.2304 -0.9142
  451MOL0     H62197   0.680  11.649  -0.368  0.4636 -4.7642 -0.8650
  451MOL0     H62198   0.714  11.696  -0.197  1.6683  0.9015  0.7873
  451MOL0     H62199   0.757  11.542  -0.270  1.8326 -0.6057 -3.6734
  451MOL0     H62200   0.656  12.222  -0.403 -0.2357 -0.3796  0.6207
  451MOL0     H62201   0.560  12.436  -0.339 -0.7401 -0.6527  0.3476
  451MOL0     H62202   0.676  12.595   0.068  1.3879 -0.6844 -0.2895
  451MOL0     H62203   0.675  12.743  -0.023 -2.2265  0.5006  1.3914
  451MOL0     H62204   0.435  12.692  -0.083 -3.2360  0.7727  2.0568
  451MOL0     H62205   0.420  12.567   0.041 -3.0570  0.3151 -1.6688
  451MOL0     H62206   0.522  12.742   0.207  0.5366 -0.8799 -0.4303
  451MOL0     H62207   0.356  12.752   0.157 -0.3207  2.7726 -1.2495
  451MOL0     H62208   0.421  12.928  -0.024 -0.0491  1.8213  1.0646
  451MOL0     H62209   0.583  12.933   0.032 -0.2776  1.5562 -0.4219
  451MOL0     H62210   0.434  13.120   0.093 -0.2687  1.8240  3.6021
  451MOL0     H62211   0.333  13.010   0.190  1.1581  1.3438  1.7971
  451MOL0     H62212   0.635  13.043   0.226  0.6069 -1.4870 -0.9505
  451MOL0     H62213   0.520  12.969   0.336 -0.0553 -2.8016 -3.5367
  451MOL0     H62214   0.540  13.263   0.249  0.2917 -2.0842 -2.3810
  451MOL0     H62215   0.626  13.195   0.384 -0.2691  1.2505  0.0535
  451MOL0     H62216   0.321  13.170   0.424  0.3658 -0.2756  1.0506
  451MOL0     H62217   0.426  13.307   0.455 -0.3442 -0.4787 -1.3311
  451MOL0     H62218   0.820  12.448  -0.001 -0.6330 -0.6420  1.1306
  451MOL0     H62219   0.890  12.208  -0.045  0.1111 -1.7638 -0.6301
  451MOL0     H62220   1.067  12.006  -0.352  1.6442 -0.9478  1.1042
  451MOL0     H62221   1.228  11.863  -0.434  0.3109 -1.5463 -1.0426
  451MOL0     H62222   2.328  11.241   0.777  2.2395  2.5370  0.0128
  451MOL0     H62223   2.478  11.118   0.916  3.9458 -0.6975 -0.4491
  451MOL0     H62224   2.688  10.747   1.018 -0.4379  0.3349 -1.4964
  451MOL0     H62225   2.790  10.583   1.139 -1.8508  0.2172 -2.0116
  451MOL0     H62226   3.241  10.454   1.186  0.1913 -0.4807  1.8546
  451MOL0     H62227   3.255  10.604   1.089 -1.0007 -0.0192 -0.3834
  451MOL0     H62228   3.287  10.731   1.292 -1.7673 -0.1486  0.6816
  451MOL0     H62229   3.371  10.584   1.323  0.7524 -0.8767 -0.0198
  451MOL0     H62230   3.089  10.665   1.420 -1.3304 -3.0736 -6.4969
  451MOL0     H62231   3.171  10.509   1.459  3.5728 -1.0311 -2.3490
  451MOL0     H62232   3.196  10.710   1.628 -0.3278  0.8077 -0.5809
  451MOL0     H62233   3.310  10.772   1.513 -0.8022  0.4753  1.0517
  451MOL0     H62234   3.492  10.417   1.695 -0.5157  0.2062  1.7277
  451MOL0     H62235   3.155  10.816   1.139 -0.4628 -0.7416  1.6408
  451MOL0     H62236   3.020  11.091   0.960  1.1624  0.6562  1.9905
  451MOL0     H62237   3.161  11.033   1.050  1.5551 -2.6368  0.1149
  451MOL0     H62238   3.132  10.960   0.899  0.7466 -1.3688  0.4823
  452MOL0     O62239   6.529   7.016  10.965  0.8755  0.3346  0.6298
  452MOL0     C62240   6.417   6.996  10.922  0.2940 -0.0090 -0.1182
  452MOL0     O62241   6.395   6.904  10.832  0.2852 -0.3520  0.4298
  452MOL0     C62242   6.487   6.851  10.754 -0.0925  0.3862  0.0341
  452MOL0     C62243   6.521   6.911  10.630 -0.0149  0.7228  0.0451
  452MOL0     C62244   6.592   6.834  10.536 -0.4675  0.1844  0.7496
  452MOL0     C62245   6.642   6.702  10.561 -0.6487 -0.4151  0.3541
  452MOL0     O62246   6.725   6.640  10.468 -0.1706  0.0809 -0.6731
  452MOL0     C62247   6.697   6.501  10.455 -0.8808  0.4149 -0.3525
  452MOL0     C62248   6.777   6.432  10.330  0.7837  0.3675  0.8966
  452MOL0     C62249   6.731   6.477  10.188  0.0636  0.2984  0.1540
  452MOL0     C62250   6.611   6.410  10.145 -0.0829  0.2036 -0.3510
  452MOL0     C62251   6.541   6.494  10.036 -0.1943  0.2638 -0.3535
  452MOL0     C62252   6.434   6.419   9.954 -0.3074  0.6139 -0.1648
  452MOL0     C62253   6.382   6.506   9.833 -0.2265  0.5617 -0.3431
  452MOL0     C62254   6.267   6.441   9.749 -0.1327  0.3445 -0.2726
  452MOL0     N62255   6.326   6.350   9.648 -0.0416  0.8353 -0.3078
  452MOL0     C62256   6.351   6.400   9.523 -0.5364  0.4755  0.2363
  452MOL0     C62257   6.436   6.299   9.468  0.8645 -0.3323 -0.1100
  452MOL0     C62258   6.489   6.314   9.336 -0.2123 -0.8190  0.9346
  452MOL0     C62259   6.647   6.345   9.332  0.8002 -1.0051  0.1688
  452MOL0     C62260   6.693   6.485   9.401  1.1734 -0.1432  0.8509
  452MOL0     C62261   6.679   6.603   9.293 -0.0770  0.2495 -0.3523
  452MOL0     O62262   6.553   6.621   9.234 -1.1047 -0.2114  0.1732
  452MOL0     C62263   6.442   6.672   9.313  0.7702 -0.5143  0.0720
  452MOL0     C62264   6.445   6.730   9.437 -0.5542 -0.5748  0.4185
  452MOL0     C62265   6.331   6.794   9.499  0.0628  0.4264  0.3932
  452MOL0     C62266   6.343   6.868   9.630  0.2400 -0.6188  0.5271
  452MOL0     C62267   6.206   6.787   9.435 -0.6515 -0.0364 -0.1729
  452MOL0     C62268   6.086   6.855   9.490 -0.0754 -0.3986  0.1854
  452MOL0     O62269   5.976   6.796   9.465  0.1958  1.3449  0.2544
  452MOL0     C62270   5.856   6.854   9.511 -0.2418  0.5247 -0.2056
  452MOL0     C62271   5.743   6.816   9.440 -0.4890 -0.8786  0.4045
  452MOL0     C62272   5.617   6.838   9.485 -0.2734 -0.3353 -0.1414
  452MOL0     C62273   5.600   6.927   9.590  0.8144 -0.0313 -0.0617
  452MOL0     O62274   5.475   6.981   9.615 -1.0477  0.5931  0.9642
  452MOL0     C62275   5.373   6.891   9.655  0.2654  0.3099  0.1387
  452MOL0     C62276   5.402   6.834   9.793 -0.8227  0.4544 -0.6387
  452MOL0     C62277   5.402   6.955   9.900 -0.4148  0.3050 -0.0137
  452MOL0     C62278   5.352   6.904  10.030 -0.7424  0.1385 -1.3813
  452MOL0     C62279   5.445   6.808  10.103 -0.4271 -0.2689 -1.0166
  452MOL0     C62280   5.380   6.767  10.235  0.1375 -0.2145  0.5135
  452MOL0     C62281   5.477   6.710  10.338 -0.0633 -0.3784  0.2732
  452MOL0     C62282   5.406   6.654  10.460  0.4225  0.6145 -0.2308
  452MOL0    Cl62283   5.291   6.540  10.423 -0.2145 -0.1436  0.1696
  452MOL0     C62284   5.710   6.966   9.666  0.4182 -0.9643  0.0534
  452MOL0     C62285   5.840   6.916   9.635 -0.9785 -0.8809  0.0194
  452MOL0     O62286   6.095   6.977   9.519 -0.6540  0.2000  0.1405
  452MOL0     C62287   6.197   6.706   9.323  0.7987  0.7973 -0.0780
  452MOL0     C62288   6.319   6.657   9.256  0.4402 -0.1464  0.6124
  452MOL0     N62289   6.442   6.196   9.556 -0.0474  1.4332 -1.5128
  452MOL0     N62290   6.375   6.227   9.661  0.7525  0.8575 -0.5301
  452MOL0     C62291   6.611   6.653  10.694  0.4488 -0.6008 -0.3196
  452MOL0     C62292   6.536   6.719  10.792  1.2253 -0.9404  0.6594
  452MOL0     C62293   6.320   7.097  10.961 -0.6662 -0.4177  0.2544
  452MOL0     C62294   6.321   7.141  11.097 -0.4160  0.6960 -0.6404
  452MOL0     C62295   6.225   7.230  11.146 -0.7664  0.4572 -0.1185
  452MOL0     C62296   6.160   7.311  11.056 -0.5119  0.3050 -0.2348
  452MOL0     O62297   6.069   7.400  11.103 -0.2821 -0.6015  0.2982
  452MOL0     C62298   6.027   7.510  11.027 -0.0818  0.2368  0.6344
  452MOL0     C62299   5.978   7.615  11.131 -0.2669  0.5137 -0.6052
  452MOL0     C62300   5.900   7.716  11.054  0.2355 -0.0824  0.5611
  452MOL0     C62301   5.842   7.835  11.143  0.5556 -0.8279  0.8480
  452MOL0     C62302   5.712   7.878  11.079 -0.7501  0.0743 -0.4210
  452MOL0     C62303   5.605   7.914  11.041  0.3604  0.0570 -0.1501
  452MOL0     C62304   6.176   7.293  10.919 -0.3728  0.6334 -0.0630
  452MOL0     C62305   6.244   7.176  10.868  0.0646 -0.5248 -0.3858
  452MOL0     C62306   6.254   7.154  10.720 -0.9169  0.4570  0.6887
  452MOL0     H62307   6.492   7.013  10.608  1.2943  1.8640  3.0155
  452MOL0     H62308   6.609   6.873  10.436 -0.9178 -0.2342  0.5041
  452MOL0     H62309   6.589   6.485  10.444 -0.8441  0.3037 -0.5601
  452MOL0     H62310   6.733   6.452  10.546  0.3996 -2.6117 -2.3218
  452MOL0     H62311   6.886   6.441  10.332  1.0306 -1.5588 -0.3356
  452MOL0     H62312   6.750   6.326  10.337 -2.5353  1.2176  3.4928
  452MOL0     H62313   6.725   6.586  10.189  1.2686  0.3802  0.1738
  452MOL0     H62314   6.811   6.459  10.116  1.4856  1.4833  1.3631
  452MOL0     H62315   6.637   6.309  10.110  1.5947  0.1318  1.0181
  452MOL0     H62316   6.543   6.406  10.230  0.5445 -0.5405  0.1335
  452MOL0     H62317   6.615   6.533   9.965  0.6891  2.0865  1.4646
  452MOL0     H62318   6.484   6.574  10.083 -2.2173 -2.6729  2.5968
  452MOL0     H62319   6.471   6.321   9.921 -1.2070  1.2564 -3.4580
  452MOL0     H62320   6.347   6.407  10.020  0.4577 -2.0910  0.4953
  452MOL0     H62321   6.459   6.526   9.759 -2.3393 -0.4977 -2.9920
  452MOL0     H62322   6.341   6.601   9.868  0.0829  0.5598  0.0356
  452MOL0     H62323   6.195   6.376   9.800  0.5599 -2.1972 -2.2916
  452MOL0     H62324   6.206   6.514   9.696  0.4411  1.8069  1.0061
  452MOL0     H62325   6.317   6.494   9.480  0.7868  0.1404 -1.6633
  452MOL0     H62326   6.440   6.390   9.275  2.6979 -1.5855 -2.7905
  452MOL0     H62327   6.466   6.221   9.283 -3.2640  1.3923 -2.0269
  452MOL0     H62328   6.695   6.256   9.374  1.0855 -1.2199 -0.5884
  452MOL0     H62329   6.680   6.357   9.229  1.0380 -1.3367  0.2071
  452MOL0     H62330   6.629   6.502   9.488 -1.2098  2.1070 -1.1587
  452MOL0     H62331   6.791   6.481   9.449 -0.7798  1.1087  5.4648
  452MOL0     H62332   6.712   6.699   9.334  0.5246  0.2153 -0.7411
  452MOL0     H62333   6.748   6.572   9.213  2.4814  0.7517  1.5093
  452MOL0     H62334   6.544   6.727   9.483 -0.4685  0.9283  0.3569
  452MOL0     H62335   6.432   6.838   9.687  0.0830 -0.0587  1.0767
  452MOL0     H62336   6.257   6.852   9.695 -1.6453  0.0267 -1.6737
  452MOL0     H62337   6.349   6.975   9.611 -3.3871 -0.2510  0.8166
  452MOL0     H62338   5.747   6.763   9.346  0.0532  0.1015 -0.1409
  452MOL0     H62339   5.530   6.802   9.431 -1.1560  1.7690 -0.2079
  452MOL0     H62340   5.281   6.951   9.651  0.7721  1.2439 -5.2041
  452MOL0     H62341   5.354   6.814   9.579 -0.0571  1.7953 -1.3592
  452MOL0     H62342   5.324   6.765   9.827  0.0655  0.2037  0.9732
  452MOL0     H62343   5.499   6.783   9.790 -1.1073 -0.2719  1.2111
  452MOL0     H62344   5.326   7.031   9.878  1.4051  1.9555 -0.9258
  452MOL0     H62345   5.503   6.997   9.908  0.4286 -1.4006 -0.9670
  452MOL0     H62346   5.256   6.852  10.022 -0.7426  0.0348 -0.7255
  452MOL0     H62347   5.329   6.990  10.093 -0.8365 -0.9161  0.0626
  452MOL0     H62348   5.502   6.734  10.047  0.1502 -0.3534 -0.3293
  452MOL0     H62349   5.518   6.884  10.134 -2.1938 -0.0314  3.2421
  452MOL0     H62350   5.295   6.701  10.216  0.2236 -0.1549 -0.0865
  452MOL0     H62351   5.342   6.855  10.288 -0.4729 -0.6595  0.8368
  452MOL0     H62352   5.541   6.795  10.363 -0.6216 -0.5265  2.3920
  452MOL0     H62353   5.538   6.625  10.306  0.5212 -1.0507  2.9799
  452MOL0     H62354   5.364   6.738  10.516  1.1661  1.9334 -1.6107
  452MOL0     H62355   5.474   6.597  10.524 -1.2913 -0.3942  0.7853
  452MOL0     H62356   5.691   7.031   9.750  0.2220 -1.5269  0.4484
  452MOL0     H62357   5.924   6.948   9.696  0.0159  0.1733 -1.8198
  452MOL0     H62358   6.107   6.673   9.271  1.0959 -0.1117 -0.0314
  452MOL0     H62359   6.312   6.599   9.164  0.1616 -0.5932  0.9105
  452MOL0     H62360   6.666   6.566  10.728  0.4195  0.0775  1.5506
  452MOL0     H62361   6.510   6.677  10.888  1.0682  0.1766  1.1176
  452MOL0     H62362   6.377   7.085  11.171 -1.7406  0.3390  0.1287
  452MOL0     H62363   6.224   7.253  11.252  1.4464 -0.9719  0.2834
  452MOL0     H62364   6.115   7.547  10.974 -1.4027  1.3566 -0.8663
  452MOL0     H62365   5.952   7.469  10.959 -0.1991  1.1088  0.2260
  452MOL0     H62366   6.057   7.669  11.183 -0.2582  2.5764 -2.6497
  452MOL0     H62367   5.913   7.556  11.197 -2.1871  0.9887 -1.9859
  452MOL0     H62368   5.958   7.745  10.966 -0.8973 -0.0438 -0.1835
  452MOL0     H62369   5.813   7.666  11.011  0.4643 -1.9156  2.0848
  452MOL0     H62370   5.916   7.915  11.155 -0.8561  0.7348 -0.3945
  452MOL0     H62371   5.815   7.802  11.243 -0.1141  3.6836  2.4031
  452MOL0     H62372   5.519   7.955  10.993  0.8160  3.0780  1.3932
  452MOL0     H62373   6.117   7.355  10.852  0.7349  4.0705  1.8518
  452MOL0     H62374   6.346   7.186  10.672 -1.1077 -0.6578 -0.4690
  452MOL0     H62375   6.239   7.050  10.691 -0.3733  0.4435  0.4431
  452MOL0     H62376   6.179   7.206  10.659  2.3362  1.1984 -3.0402
  453MOL0     O62377  10.693  10.349   9.339 -0.1080 -0.3579  0.0198
  453MOL0     C62378  10.780  10.267   9.308 -0.1024 -0.6245 -0.3333
  453MOL0     O62379  10.882  10.237   9.391 -0.5729 -0.3527 -0.2124
  453MOL0     C62380  10.918  10.333   9.497  0.4888  0.9947  0.4683
  453MOL0     C62381  11.053  10.365   9.516  0.3191  1.1718  0.3495
  453MOL0     C62382  11.084  10.463   9.617 -0.8250  0.6328 -0.3059
  453MOL0     C62383  10.991  10.531   9.683  0.0298 -0.3557 -1.3414
  453MOL0     O62384  11.007  10.606   9.792 -0.3837  0.2912 -0.2969
  453MOL0     C62385  11.092  10.726   9.772  0.3449 -0.5145  0.6152
  453MOL0     C62386  11.065  10.837   9.874 -0.8548  0.0035  0.1280
  453MOL0     C62387  10.917  10.880   9.900  0.3379  0.0978 -0.1174
  453MOL0     C62388  10.852  10.942   9.773  0.7282  0.3575 -0.2138
  453MOL0     C62389  10.695  10.959   9.813 -0.5660  0.1575  0.7542
  453MOL0     C62390  10.619  11.025   9.693 -0.7619  0.5510  0.1718
  453MOL0     C62391  10.468  11.030   9.729 -0.2631  0.0116  0.7297
  453MOL0     C62392  10.427  11.176   9.725  0.0018  0.3176  0.0115
  453MOL0     N62393  10.286  11.198   9.771 -0.4441  0.3581  0.3816
  453MOL0     C62394  10.213  11.302   9.732 -0.5426  0.2177 -0.2523
  453MOL0     C62395  10.096  11.272   9.793 -0.6825 -0.3573 -1.0868
  453MOL0     C62396   9.978  11.358   9.796  0.2657 -0.1410 -0.2441
  453MOL0     C62397   9.965  11.434   9.924  0.4165  0.0764 -0.6678
  453MOL0     C62398  10.064  11.545   9.921  0.1713  0.6873 -0.5196
  453MOL0     C62399  10.060  11.640  10.037  0.4793 -0.1465  0.2126
  453MOL0     O62400  10.124  11.772   9.998  0.0384 -0.4363 -0.3479
  453MOL0     C62401  10.263  11.771   9.984  0.4753  0.6139 -0.0933
  453MOL0     C62402  10.341  11.680  10.044 -1.1941 -0.0834  1.6224
  453MOL0     C62403  10.477  11.671  10.012  0.6303  0.1429  0.2606
  453MOL0     C62404  10.547  11.554  10.079 -0.5366  0.2804 -0.0741
  453MOL0     C62405  10.542  11.763   9.932 -0.1236  0.0475 -0.3455
  453MOL0     C62406  10.682  11.748   9.913  0.3632  1.0275  0.4526
  453MOL0     O62407  10.763  11.702  10.004 -0.4414 -0.3801  0.9767
  453MOL0     C62408  10.896  11.731   9.990  0.2959  0.5695  0.3791
  453MOL0     C62409  10.959  11.820   9.896  0.0153 -0.6949  0.2295
  453MOL0     C62410  11.098  11.852   9.897 -1.0373  0.4853  0.2115
  453MOL0     C62411  11.183  11.779   9.983 -0.1851 -0.4448  0.5147
  453MOL0     O62412  11.324  11.794   9.975  0.4242 -0.1244  0.8448
  453MOL0     C62413  11.411  11.724  10.075 -0.6181  0.7213 -0.6585
  453MOL0     C62414  11.482  11.596  10.009  0.6116 -0.8955  0.6344
  453MOL0     C62415  11.375  11.505   9.941  0.3875  0.0761  0.1516
  453MOL0     C62416  11.447  11.382   9.872  0.6117 -0.0703 -0.0964
  453MOL0     C62417  11.345  11.288   9.823  0.2577  0.0226 -0.4542
  453MOL0     C62418  11.398  11.179   9.723  0.5674 -0.7872  0.9466
  453MOL0     C62419  11.282  11.104   9.665 -0.2278  0.0484 -0.4260
  453MOL0     C62420  11.324  10.959   9.627  0.2775  0.3115  0.2123
  453MOL0    Cl62421  11.447  10.960   9.496 -0.0566 -0.1778  0.0478
  453MOL0     C62422  11.121  11.682  10.063  1.2285  0.0657 -0.0221
  453MOL0     C62423  10.982  11.658  10.070 -0.4126 -0.1253 -0.2541
  453MOL0     O62424  10.704  11.755   9.790  0.0454 -0.1694  0.2229
  453MOL0     C62425  10.458  11.864   9.885 -0.8515 -0.8039  0.0125
  453MOL0     C62426  10.321  11.867   9.905 -0.1313 -0.1330 -0.2700
  453MOL0     N62427  10.109  11.166   9.874  0.4777  0.3840  0.1716
  453MOL0     N62428  10.223  11.107   9.848 -0.7089 -0.8399 -0.0014
  453MOL0     C62429  10.857  10.489   9.674  0.3183 -0.2858  0.8203
  453MOL0     C62430  10.822  10.395   9.585  0.5710  0.3338 -0.2530
  453MOL0     C62431  10.768  10.189   9.185 -0.2551 -0.1078  0.9119
  453MOL0     C62432  10.880  10.114   9.146  0.4876  0.0308 -0.8131
  453MOL0     C62433  10.873  10.041   9.025  0.8504 -0.8490 -0.1153
  453MOL0     C62434  10.757  10.010   8.961 -0.1556 -0.1035 -0.2195
  453MOL0     O62435  10.740   9.915   8.865 -0.5276 -0.4865  1.0386
  453MOL0     C62436  10.852   9.865   8.787  0.3582 -0.2339 -0.1715
  453MOL0     C62437  10.834   9.710   8.765 -0.1808 -0.9760 -0.4252
  453MOL0     C62438  10.972   9.645   8.733 -0.0707 -0.3227 -0.0077
  453MOL0     C62439  10.971   9.497   8.737 -0.0478 -0.1547  0.2352
  453MOL0     C62440  11.096   9.434   8.706  0.0715  0.7391 -0.1708
  453MOL0     C62441  11.200   9.387   8.681  1.1506  0.2480  0.6657
  453MOL0     C62442  10.647  10.082   9.000  0.0275 -0.4435 -0.5842
  453MOL0     C62443  10.645  10.174   9.104  0.1222  0.1396 -0.1221
  453MOL0     C62444  10.509  10.224   9.140  0.3976 -0.4447  0.0959
  453MOL0     H62445  11.139  10.317   9.470 -1.2647 -0.2242 -1.3167
  453MOL0     H62446  11.191  10.475   9.635 -0.4333  0.5552 -2.3422
  453MOL0     H62447  11.091  10.754   9.666  1.0691  0.0633  0.7512
  453MOL0     H62448  11.197  10.700   9.786  0.2422 -0.8896  0.6938
  453MOL0     H62449  11.097  10.799   9.972  0.3654 -0.4833 -0.4436
  453MOL0     H62450  11.115  10.929   9.841  1.0427 -0.9425  0.2494
  453MOL0     H62451  10.855  10.799   9.937 -0.1884  1.1319  1.3801
  453MOL0     H62452  10.920  10.951   9.983  3.8347 -0.9854  0.8229
  453MOL0     H62453  10.897  11.038   9.747 -2.6882  1.7300 -1.5971
  453MOL0     H62454  10.868  10.873   9.689  1.3737  0.4470 -0.1701
  453MOL0     H62455  10.693  11.020   9.903  1.1956 -3.4216  3.4482
  453MOL0     H62456  10.649  10.860   9.823  2.9460 -1.7791 -0.2860
  453MOL0     H62457  10.670  11.120   9.680  3.3863 -1.3826  0.8246
  453MOL0     H62458  10.641  10.958   9.609  2.0016  0.0807  1.1609
  453MOL0     H62459  10.448  10.987   9.828  2.3488 -1.3845  0.7472
  453MOL0     H62460  10.422  10.968   9.651  1.2855  1.5090 -1.4972
  453MOL0     H62461  10.488  11.239   9.791 -1.4774  1.8753 -0.0579
  453MOL0     H62462  10.433  11.212   9.622 -0.1931  0.1927 -0.0436
  453MOL0     H62463  10.235  11.377   9.657  0.9486  0.2543  0.1922
  453MOL0     H62464   9.888  11.301   9.771 -0.0988  1.6480 -3.7469
  453MOL0     H62465   9.982  11.429   9.712  0.5596 -1.9570 -1.8267
  453MOL0     H62466   9.863  11.472   9.935  0.4264 -0.2733  0.9363
  453MOL0     H62467   9.974  11.363  10.007 -0.7337  1.9133  1.1299
  453MOL0     H62468  10.167  11.515   9.901 -0.8115 -1.1098 -3.4139
  453MOL0     H62469  10.037  11.608   9.836  1.7516 -0.3701 -1.8551
  453MOL0     H62470   9.956  11.654  10.068  0.8187  0.6880  1.0377
  453MOL0     H62471  10.103  11.593  10.125  2.0105  2.4859  0.9859
  453MOL0     H62472  10.307  11.599  10.109 -0.8092 -0.5373  1.2589
  453MOL0     H62473  10.606  11.595  10.161 -1.2196  1.0190  0.0623
  453MOL0     H62474  10.629  11.508  10.023  0.8621  1.4941  0.9108
  453MOL0     H62475  10.487  11.474  10.125  0.2231 -0.9853 -1.1842
  453MOL0     H62476  10.902  11.885   9.830  0.4555  1.0627  1.4939
  453MOL0     H62477  11.139  11.931   9.836 -0.8191  0.9122  0.9058
  453MOL0     H62478  11.489  11.794  10.104 -0.7669  0.0389  1.5047
  453MOL0     H62479  11.352  11.700  10.164 -0.2992 -1.8567 -1.0516
  453MOL0     H62480  11.555  11.636   9.939 -0.5181 -0.3454 -0.2641
  453MOL0     H62481  11.528  11.534  10.086  0.0642 -0.4618  1.3251
  453MOL0     H62482  11.322  11.563   9.865  1.9459  0.4451 -0.6931
  453MOL0     H62483  11.302  11.467  10.013 -1.7769  0.8339 -1.5091
  453MOL0     H62484  11.509  11.331   9.947  1.2196 -2.0568 -1.8693
  453MOL0     H62485  11.504  11.420   9.787  0.9454 -2.9287 -1.2591
  453MOL0     H62486  11.280  11.253   9.904 -1.2883  1.3582 -1.0640
  453MOL0     H62487  11.284  11.354   9.761  1.0751  0.9742 -0.2659
  453MOL0     H62488  11.461  11.105   9.774  0.5254 -1.4581  0.0407
  453MOL0     H62489  11.471  11.221   9.653  1.2548 -1.9997  0.9075
  453MOL0     H62490  11.242  11.157   9.578 -2.1552 -0.4683  0.1164
  453MOL0     H62491  11.205  11.088   9.740 -0.6718 -1.3319 -1.1448
  453MOL0     H62492  11.241  10.896   9.592  0.2987 -0.1337  0.9478
  453MOL0     H62493  11.373  10.920   9.716  0.0240  0.5044  0.4339
  453MOL0     H62494  11.174  11.626  10.139  2.0082 -0.4980 -0.9670
  453MOL0     H62495  10.952  11.591  10.150 -0.6159  1.6706  1.2395
  453MOL0     H62496  10.509  11.943   9.830  1.0354  0.1141  2.8631
  453MOL0     H62497  10.264  11.945   9.855  0.4571 -0.3538 -1.3153
  453MOL0     H62498  10.788  10.535   9.744  1.4737  3.0828 -0.0418
  453MOL0     H62499  10.718  10.364   9.587  1.0632 -1.4129 -0.4966
  453MOL0     H62500  10.970  10.130   9.205 -0.5525 -3.9348  2.2374
  453MOL0     H62501  10.967   9.994   8.998  1.7600  0.9275 -0.2449
  453MOL0     H62502  10.842   9.899   8.684 -1.9424 -1.2781 -0.3663
  453MOL0     H62503  10.945   9.892   8.837 -0.7138  0.8291  1.3548
  453MOL0     H62504  10.758   9.691   8.688 -2.4848 -2.1544  1.9800
  453MOL0     H62505  10.790   9.667   8.855 -0.7673 -1.3940 -0.8991
  453MOL0     H62506  11.014   9.678   8.638 -0.2237 -3.0414 -1.1157
  453MOL0     H62507  11.035   9.681   8.815  0.6314 -0.0869 -0.6482
  453MOL0     H62508  10.901   9.480   8.654 -2.3621 -0.1441  2.0504
  453MOL0     H62509  10.927   9.463   8.831  1.7157 -2.1642  0.3947
  453MOL0     H62510  11.293   9.342   8.653  0.7631  0.8370 -1.7545
  453MOL0     H62511  10.559  10.060   8.940  0.1461  1.4006 -1.5187
  453MOL0     H62512  10.511  10.333   9.126  0.8027 -0.4859 -0.1893
  453MOL0     H62513  10.424  10.186   9.081 -1.3345  1.0927  1.4772
  453MOL0     H62514  10.489  10.207   9.246 -1.6632 -0.8311 -0.3015
  454MOL0     O62515   2.464   8.217   8.675 -0.7336  1.3384 -0.4011
  454MOL0     C62516   2.421   8.164   8.783  0.0891 -1.4556 -0.1543
  454MOL0     O62517   2.427   8.229   8.909  0.2531 -0.2099  0.4901
  454MOL0     C62518   2.462   8.364   8.926  0.9793 -0.7748 -0.2969
  454MOL0     C62519   2.460   8.473   8.835 -0.4836  0.1348 -0.7988
  454MOL0     C62520   2.486   8.606   8.879  0.2591 -0.0409  0.1849
  454MOL0     C62521   2.515   8.629   9.008 -0.4748  0.5681  0.9010
  454MOL0     O62522   2.542   8.750   9.065 -0.2390  0.0430 -0.6786
  454MOL0     C62523   2.448   8.855   9.044 -0.2161  0.5118  0.0094
  454MOL0     C62524   2.499   8.988   9.105  0.4474  0.0012  0.8176
  454MOL0     C62525   2.573   9.079   9.007 -0.0627  0.2373 -0.1359
  454MOL0     C62526   2.700   8.998   8.958 -0.0378  0.2208  0.2190
  454MOL0     C62527   2.800   9.074   8.856 -0.0945  1.5249 -0.4033
  454MOL0     C62528   2.880   9.187   8.925 -0.8648  0.5108 -0.6219
  454MOL0     C62529   2.976   9.246   8.829 -0.9283  0.9161 -0.2661
  454MOL0     C62530   3.079   9.149   8.773 -1.5758 -0.2064  0.0025
  454MOL0     N62531   3.187   9.227   8.706  0.6124  0.2243  0.7588
  454MOL0     C62532   3.182   9.335   8.620  0.2765 -0.1483 -0.6310
  454MOL0     C62533   3.314   9.374   8.609  0.6525  0.7136 -0.4954
  454MOL0     C62534   3.364   9.469   8.506  0.6708  0.1844  0.2814
  454MOL0     C62535   3.458   9.582   8.552  0.7073  0.1811 -0.1196
  454MOL0     C62536   3.489   9.674   8.432 -0.5516 -0.3407 -0.5421
  454MOL0     C62537   3.621   9.746   8.462 -0.0632  0.1596 -0.3585
  454MOL0     O62538   3.727   9.658   8.434  1.0579  0.6124  0.1831
  454MOL0     C62539   3.850   9.710   8.413  0.4825 -0.5637 -0.7275
  454MOL0     C62540   3.892   9.844   8.432  0.2882 -0.3160  0.2337
  454MOL0     C62541   4.024   9.887   8.394 -0.1216  0.8421 -1.4890
  454MOL0     C62542   4.052  10.025   8.449  0.5957 -0.5756 -0.1872
  454MOL0     C62543   4.107   9.794   8.318  0.1834 -0.1889 -0.5551
  454MOL0     C62544   4.253   9.820   8.282 -0.7708 -0.6678  0.1834
  454MOL0     O62545   4.300   9.758   8.170  0.3346 -0.5311  0.2474
  454MOL0     C62546   4.424   9.801   8.125 -1.0337 -0.0918 -0.9103
  454MOL0     C62547   4.541   9.719   8.132  0.2710 -2.0048  0.1417
  454MOL0     C62548   4.655   9.772   8.067 -0.8005  0.1763 -0.0047
  454MOL0     C62549   4.659   9.892   8.001 -0.4095 -0.1233  0.1231
  454MOL0     O62550   4.763   9.949   7.934  0.9272  0.1450 -0.4273
  454MOL0     C62551   4.794   9.887   7.808  0.1333 -0.4303  0.3737
  454MOL0     C62552   4.925   9.941   7.744 -0.8452 -0.0642 -0.2012
  454MOL0     C62553   4.944   9.865   7.610  0.5770 -0.3764  0.3769
  454MOL0     C62554   5.032   9.938   7.504 -0.3810 -0.3861  0.5990
  454MOL0     C62555   5.155   9.998   7.561  0.0981  0.1372  1.2466
  454MOL0     C62556   5.246  10.038   7.444  0.1450  0.2578  1.0293
  454MOL0     C62557   5.384  10.064   7.503 -0.4673 -0.5073  0.5104
  454MOL0     C62558   5.498  10.101   7.410 -0.3808  0.3704  0.0932
  454MOL0    Cl62559   5.508  10.001   7.270  0.3142 -0.1734 -0.1215
  454MOL0     C62560   4.543   9.970   8.003 -0.1424 -0.3500  0.1251
  454MOL0     C62561   4.430   9.931   8.072  0.2206  0.7293  0.1939
  454MOL0     O62562   4.318   9.894   8.353  0.4527  0.3323  0.0157
  454MOL0     C62563   4.049   9.674   8.287 -0.1368 -0.6463  0.1863
  454MOL0     C62564   3.930   9.638   8.329 -0.4461 -1.0059 -0.3593
  454MOL0     N62565   3.392   9.292   8.688 -0.8083  0.5292  0.6992
  454MOL0     N62566   3.317   9.210   8.750  0.8219  0.6037 -0.0950
  454MOL0     C62567   2.523   8.519   9.098 -0.6836 -0.1793 -0.2585
  454MOL0     C62568   2.495   8.390   9.066  0.4357 -0.3843 -0.0588
  454MOL0     C62569   2.350   8.035   8.775  0.2168 -0.3213  0.4602
  454MOL0     C62570   2.207   8.038   8.800 -0.6771 -0.0857  0.4977
  454MOL0     C62571   2.134   7.922   8.786  0.0983  0.3587  1.1957
  454MOL0     C62572   2.209   7.800   8.758  0.3795  0.2899  0.2586
  454MOL0     O62573   2.140   7.678   8.745 -0.1255  0.1721 -0.1291
  454MOL0     C62574   2.192   7.575   8.832 -0.3831 -0.4590  0.6695
  454MOL0     C62575   2.131   7.580   8.975  0.0528 -0.0349  0.6799
  454MOL0     C62576   2.181   7.455   9.041  0.4654  0.0679  0.1943
  454MOL0     C62577   2.122   7.432   9.188  0.5919 -0.4496 -0.0989
  454MOL0     C62578   2.180   7.321   9.260  0.1626  0.2829  0.9153
  454MOL0     C62579   2.225   7.218   9.309  0.6755  0.0453  0.2601
  454MOL0     C62580   2.346   7.799   8.726  0.5008  0.1072 -0.2606
  454MOL0     C62581   2.415   7.912   8.741 -0.7582 -0.7351 -0.4308
  454MOL0     C62582   2.570   7.913   8.732  1.0073 -0.7738 -0.4537
  454MOL0     H62583   2.453   8.452   8.729 -0.0127 -3.2621 -0.2603
  454MOL0     H62584   2.486   8.687   8.806  1.0255 -0.0249  0.1965
  454MOL0     H62585   2.351   8.831   9.088 -0.7916  3.3713  0.4967
  454MOL0     H62586   2.426   8.875   8.938 -0.4175  1.8878  0.2985
  454MOL0     H62587   2.407   9.047   9.115 -0.4048 -1.3914  1.5916
  454MOL0     H62588   2.533   8.975   9.208  0.3480 -0.4383  0.7963
  454MOL0     H62589   2.505   9.100   8.924 -1.6493 -1.3474  0.6926
  454MOL0     H62590   2.601   9.170   9.059 -0.7116 -0.7463  2.0352
  454MOL0     H62591   2.750   8.956   9.046 -2.6308 -1.3574  1.0640
  454MOL0     H62592   2.678   8.913   8.893  0.3923  2.3975 -3.0004
  454MOL0     H62593   2.747   9.115   8.770 -1.0928 -0.3696 -0.7489
  454MOL0     H62594   2.855   8.993   8.807 -1.4162 -0.2449  0.8463
  454MOL0     H62595   2.813   9.265   8.961  2.8494  2.9380  1.6568
  454MOL0     H62596   2.936   9.159   9.015 -2.1837 -2.0543 -0.4988
  454MOL0     H62597   3.031   9.329   8.872 -0.1536 -0.6559  1.9445
  454MOL0     H62598   2.925   9.290   8.743  2.7008  4.9731 -0.6770
  454MOL0     H62599   3.131   9.085   8.846 -1.0346 -1.2369 -1.2313
  454MOL0     H62600   3.038   9.078   8.700 -0.2897  2.2545 -3.3592
  454MOL0     H62601   3.097   9.385   8.574  1.8752 -0.2423 -3.9930
  454MOL0     H62602   3.284   9.513   8.446 -0.2983 -4.1433 -2.0011
  454MOL0     H62603   3.417   9.406   8.434  0.1991 -1.3361  1.2146
  454MOL0     H62604   3.401   9.641   8.624 -2.9190 -0.0316 -2.5311
  454MOL0     H62605   3.543   9.536   8.603 -0.8396 -3.8011 -0.7591
  454MOL0     H62606   3.480   9.632   8.331 -2.1243  0.5367 -0.7899
  454MOL0     H62607   3.404   9.742   8.444 -0.5021 -0.5478  1.3380
  454MOL0     H62608   3.629   9.833   8.396  1.6055  1.3265  1.2772
  454MOL0     H62609   3.628   9.785   8.564 -4.1296  1.0243 -0.2148
  454MOL0     H62610   3.819   9.915   8.469 -1.4919 -2.1740  0.4287
  454MOL0     H62611   3.973  10.065   8.513  1.5334 -1.8304  1.8674
  454MOL0     H62612   4.080  10.097   8.372 -0.5567 -1.6382 -1.6438
  454MOL0     H62613   4.134  10.023   8.522  0.8255  2.5342 -0.2275
  454MOL0     H62614   4.554   9.620   8.173 -1.2934 -3.1475 -1.9614
  454MOL0     H62615   4.747   9.717   8.056 -0.3721  1.1991 -2.1511
  454MOL0     H62616   4.803   9.779   7.820  1.5913 -0.2785  0.8890
  454MOL0     H62617   4.710   9.893   7.739  0.5353  1.0322 -0.0373
  454MOL0     H62618   4.913  10.049   7.729  0.1570 -0.0827 -1.2587
  454MOL0     H62619   5.008   9.920   7.812 -1.9663 -4.4353  0.1266
  454MOL0     H62620   4.846   9.851   7.562  1.2349 -4.5551 -0.1281
  454MOL0     H62621   4.985   9.767   7.637  1.3642  0.7980  3.9328
  454MOL0     H62622   4.967  10.008   7.451 -0.0630 -2.2831 -2.5499
  454MOL0     H62623   5.047   9.861   7.427 -2.5746 -2.2008  1.8221
  454MOL0     H62624   5.141  10.091   7.617  3.3053  0.7192  1.3057
  454MOL0     H62625   5.202   9.926   7.628 -0.8014 -1.0506  0.6334
  454MOL0     H62626   5.207  10.125   7.390  0.9063  0.0010  0.0272
  454MOL0     H62627   5.260   9.955   7.374  2.4595  0.6036  0.9940
  454MOL0     H62628   5.414   9.975   7.560 -2.1839  0.5672  3.3274
  454MOL0     H62629   5.356  10.140   7.576 -4.0477  0.7500 -1.9331
  454MOL0     H62630   5.598  10.094   7.456 -0.8812 -2.1508  0.9512
  454MOL0     H62631   5.487  10.204   7.377 -1.1208  1.0620  2.3054
  454MOL0     H62632   4.556  10.064   7.951 -4.6598  0.8434  0.7612
  454MOL0     H62633   4.342   9.994   8.060  0.9300  1.3772 -2.1274
  454MOL0     H62634   4.110   9.614   8.220  0.4133  1.6957 -1.5174
  454MOL0     H62635   3.904   9.535   8.307 -0.0320 -0.6946 -2.5245
  454MOL0     H62636   2.546   8.551   9.199 -1.1175  2.1031 -0.8229
  454MOL0     H62637   2.484   8.312   9.142 -0.5047 -1.1421 -0.9450
  454MOL0     H62638   2.172   8.137   8.829  0.1637  0.5837 -0.6530
  454MOL0     H62639   2.028   7.930   8.809 -0.5676  1.7612 -1.9367
  454MOL0     H62640   2.164   7.482   8.784 -1.3796  0.3865 -0.4466
  454MOL0     H62641   2.301   7.563   8.837 -0.3524 -0.7230 -0.3696
  454MOL0     H62642   2.023   7.588   8.962 -0.1045  1.1806  2.4004
  454MOL0     H62643   2.169   7.660   9.040  1.1231 -0.1600  0.2393
  454MOL0     H62644   2.166   7.367   8.977  0.8068 -0.7948  1.2761
  454MOL0     H62645   2.290   7.463   9.052  0.4995 -2.1341  2.2287
  454MOL0     H62646   2.015   7.415   9.177  0.8285 -2.5167  0.2544
  454MOL0     H62647   2.135   7.524   9.246  2.7080 -2.5779  3.1493
  454MOL0     H62648   2.254   7.119   9.337 -0.5142 -0.9958 -1.8901
  454MOL0     H62649   2.393   7.706   8.697  0.9582  0.3554 -0.3238
  454MOL0     H62650   2.621   7.958   8.818  1.3973 -2.5183  0.2889
  454MOL0     H62651   2.613   7.813   8.719  4.0924  0.2435  1.1026
  454MOL0     H62652   2.599   7.977   8.649  0.7534 -0.7317 -0.5098
  455MOL0     O62653   3.210   2.742   4.951 -0.3647  0.8407  0.3735
  455MOL0     C62654   3.178   2.623   4.956 -0.3074 -0.7231 -0.8760
  455MOL0     O62655   3.260   2.518   4.998  0.3498  1.0897  0.6140
  455MOL0     C62656   3.390   2.534   4.990 -0.0893  0.2585  0.0620
  455MOL0     C62657   3.473   2.444   4.914  0.0559  0.1828  0.5029
  455MOL0     C62658   3.611   2.441   4.918 -0.2736 -0.0925  0.3852
  455MOL0     C62659   3.681   2.542   4.998 -0.2172  0.2638 -0.4666
  455MOL0     O62660   3.817   2.553   5.009  0.1888 -0.1173 -0.3667
  455MOL0     C62661   3.897   2.479   4.908  0.1814  0.8524  0.9379
  455MOL0     C62662   4.049   2.526   4.908 -0.5765 -0.6087 -0.1361
  455MOL0     C62663   4.154   2.426   4.846  0.9155 -0.6947 -0.2784
  455MOL0     C62664   4.156   2.422   4.696  0.0626 -0.2378 -0.0477
  455MOL0     C62665   4.260   2.319   4.654 -0.3316  0.0411  0.0480
  455MOL0     C62666   4.310   2.360   4.513  0.7763  0.7218 -0.1802
  455MOL0     C62667   4.432   2.285   4.464  0.3664 -0.0691 -0.4304
  455MOL0     C62668   4.459   2.326   4.313 -0.1765  0.6609  0.5956
  455MOL0     N62669   4.590   2.262   4.279  0.1519  0.1161 -0.6504
  455MOL0     C62670   4.593   2.150   4.201 -0.3635 -0.0401 -1.3754
  455MOL0     C62671   4.728   2.138   4.187  0.2652  0.1003  0.5821
  455MOL0     C62672   4.805   2.035   4.108 -0.5277  0.1558  0.6652
  455MOL0     C62673   4.825   1.907   4.192  0.5434 -0.6499 -0.1351
  455MOL0     C62674   4.934   1.936   4.295  0.1848  0.8133  0.6433
  455MOL0     C62675   5.002   1.812   4.340 -0.3756  0.3911 -0.3230
  455MOL0     O62676   5.119   1.772   4.270 -0.0628 -0.1151  0.1641
  455MOL0     C62677   5.246   1.808   4.309  0.9319 -0.6363  0.4706
  455MOL0     C62678   5.342   1.788   4.210 -0.1297 -0.8196 -0.2958
  455MOL0     C62679   5.476   1.822   4.234  0.0670  0.6373  0.0579
  455MOL0     C62680   5.568   1.822   4.118  0.5564 -0.5981  0.6019
  455MOL0     C62681   5.507   1.867   4.365 -0.7199 -0.3248  0.1901
  455MOL0     C62682   5.641   1.896   4.417  0.5140  0.0917 -0.5752
  455MOL0     O62683   5.735   1.967   4.346  0.6270 -0.8213  0.4670
  455MOL0     C62684   5.859   1.976   4.410  0.0416  0.2943 -0.7272
  455MOL0     C62685   5.876   2.037   4.539  0.2814  0.4163  0.1237
  455MOL0     C62686   6.003   2.047   4.603 -1.0017  0.0084 -0.0579
  455MOL0     C62687   6.121   1.992   4.537  0.4672 -0.2117 -0.3532
  455MOL0     O62688   6.240   1.970   4.592  0.2316 -0.3067 -0.3931
  455MOL0     C62689   6.260   1.997   4.733  0.0582 -0.9448  0.3813
  455MOL0     C62690   6.191   1.885   4.822  0.5468 -0.4383  0.5893
  455MOL0     C62691   6.286   1.764   4.838 -0.0285 -0.4989  0.5028
  455MOL0     C62692   6.202   1.637   4.870  0.6291 -0.3538  0.3388
  455MOL0     C62693   6.303   1.539   4.933  0.2340  0.0539 -0.6010
  455MOL0     C62694   6.246   1.391   4.950  0.2685 -0.3062  0.2429
  455MOL0     C62695   6.339   1.293   5.013 -0.2012  0.0703  0.4007
  455MOL0     C62696   6.284   1.146   5.021  0.1001 -0.2862  0.0066
  455MOL0    Cl62697   6.276   1.063   4.862 -0.5343 -0.0027 -0.3761
  455MOL0     C62698   6.105   1.938   4.412  0.1805 -0.2615  0.4301
  455MOL0     C62699   5.982   1.945   4.349  0.3069  0.4843  0.3662
  455MOL0     O62700   5.652   1.842   4.527  0.2213 -0.1818  0.5607
  455MOL0     C62701   5.410   1.902   4.460  0.1084  0.6598 -0.1111
  455MOL0     C62702   5.277   1.873   4.424  0.1774 -0.1828 -0.4649
  455MOL0     N62703   4.796   2.225   4.260  0.5054  0.4947  0.1133
  455MOL0     N62704   4.710   2.295   4.320 -0.8588 -0.5897 -0.5033
  455MOL0     C62705   3.603   2.631   5.066 -0.3114 -0.3117 -1.7434
  455MOL0     C62706   3.458   2.628   5.072 -0.4667  0.5830  0.1348
  455MOL0     C62707   3.044   2.578   4.918  0.1764  0.6459  0.5768
  455MOL0     C62708   3.030   2.439   4.889  0.9209  0.6396 -0.0719
  455MOL0     C62709   2.901   2.386   4.863  0.4665 -0.4307 -1.3563
  455MOL0     C62710   2.789   2.479   4.865  0.3732  0.7466 -1.0318
  455MOL0     O62711   2.659   2.431   4.857 -0.3976  0.3872  0.2384
  455MOL0     C62712   2.636   2.291   4.856 -0.3595  0.3070  0.0400
  455MOL0     C62713   2.490   2.264   4.871 -0.2985  0.2158  0.3502
  455MOL0     C62714   2.443   2.119   4.861  0.3600  0.3598  0.3403
  455MOL0     C62715   2.289   2.095   4.886  1.0411  0.2215 -0.5492
  455MOL0     C62716   2.207   2.209   4.830 -0.9112 -0.1137 -0.0266
  455MOL0     C62717   2.148   2.307   4.790 -0.3797 -0.0854 -0.0715
  455MOL0     C62718   2.805   2.606   4.896  0.5178 -0.5965 -0.3538
  455MOL0     C62719   2.930   2.664   4.920 -0.3445  0.5602 -0.1148
  455MOL0     C62720   2.932   2.808   4.963 -0.1451  0.1892  0.1506
  455MOL0     H62721   3.417   2.366   4.863  0.8636 -0.9867  1.3550
  455MOL0     H62722   3.652   2.354   4.867  1.1128  0.4253  0.5596
  455MOL0     H62723   3.862   2.510   4.809 -0.7944  1.3869  1.4340
  455MOL0     H62724   3.894   2.371   4.929  1.5183  0.6331  0.1269
  455MOL0     H62725   4.056   2.622   4.855 -0.2310  0.4858  1.7723
  455MOL0     H62726   4.075   2.539   5.013  0.6973  0.0100 -0.4981
  455MOL0     H62727   4.248   2.477   4.867 -0.3688  1.9119 -0.4814
  455MOL0     H62728   4.142   2.329   4.897 -1.0704 -0.0081  0.6830
  455MOL0     H62729   4.052   2.403   4.667 -0.8198 -2.1725  3.7255
  455MOL0     H62730   4.177   2.520   4.653 -4.4433  0.3039 -1.5463
  455MOL0     H62731   4.211   2.221   4.649 -1.4997  0.5162  1.4006
  455MOL0     H62732   4.345   2.323   4.724  0.7385 -0.6564 -1.1773
  455MOL0     H62733   4.222   2.349   4.448  0.0665 -0.5981  0.9728
  455MOL0     H62734   4.342   2.465   4.513  4.0426 -0.1828 -0.1921
  455MOL0     H62735   4.416   2.177   4.474 -2.0099  0.0832 -1.8966
  455MOL0     H62736   4.518   2.314   4.526 -0.9422  3.3885  0.0265
  455MOL0     H62737   4.378   2.286   4.251  0.4487  1.6281 -0.9114
  455MOL0     H62738   4.469   2.433   4.293 -1.3224  0.4360 -1.5781
  455MOL0     H62739   4.515   2.088   4.159 -0.2252  0.3365 -2.2212
  455MOL0     H62740   4.904   2.072   4.078 -0.2791  0.6830  2.0232
  455MOL0     H62741   4.745   2.010   4.020 -4.3815  1.3630  2.7427
  455MOL0     H62742   4.735   1.887   4.249  1.1759 -2.5808  0.2700
  455MOL0     H62743   4.832   1.818   4.127  2.0061  0.5583 -1.7397
  455MOL0     H62744   5.007   2.006   4.253  1.1422  0.0646  1.0105
  455MOL0     H62745   4.889   1.977   4.386  1.2111  2.2804  0.5275
  455MOL0     H62746   5.014   1.823   4.449  0.1768  2.2723 -0.5299
  455MOL0     H62747   4.924   1.735   4.341 -0.4899  0.4948  1.0942
  455MOL0     H62748   5.324   1.743   4.113 -3.0495  0.4536 -0.4505
  455MOL0     H62749   5.660   1.768   4.140  1.9383  1.1512 -0.6040
  455MOL0     H62750   5.585   1.928   4.095 -2.0675 -0.0032  0.9999
  455MOL0     H62751   5.528   1.774   4.028  2.0620  1.9928 -1.6079
  455MOL0     H62752   5.796   2.084   4.596  1.1290  1.2692  0.6515
  455MOL0     H62753   6.013   2.075   4.707  1.1295 -3.2031  0.7739
  455MOL0     H62754   6.366   2.004   4.759  0.3258 -1.7622 -0.4450
  455MOL0     H62755   6.208   2.090   4.757 -0.3117 -0.6400 -1.4420
  455MOL0     H62756   6.168   1.930   4.919  1.3032 -0.4672  0.7929
  455MOL0     H62757   6.101   1.839   4.780  0.9428 -0.0767 -0.6871
  455MOL0     H62758   6.355   1.793   4.918 -0.8299  3.9556 -0.1272
  455MOL0     H62759   6.348   1.757   4.748 -0.2826  2.0287  0.0450
  455MOL0     H62760   6.166   1.586   4.780 -0.2141 -0.5372  0.7669
  455MOL0     H62761   6.117   1.665   4.932  0.7281  0.6383  0.0455
  455MOL0     H62762   6.391   1.539   4.869  0.9114  1.8940  0.2782
  455MOL0     H62763   6.320   1.586   5.030  1.9562  1.7026 -1.6365
  455MOL0     H62764   6.212   1.356   4.852  0.1403  0.4777 -0.0019
  455MOL0     H62765   6.157   1.379   5.013 -0.2450 -3.3465 -0.9157
  455MOL0     H62766   6.368   1.333   5.111  3.5150 -1.9728  0.3089
  455MOL0     H62767   6.429   1.283   4.952 -1.1363 -0.9047 -0.8923
  455MOL0     H62768   6.186   1.158   5.068 -0.5622 -2.4931 -0.6906
  455MOL0     H62769   6.352   1.080   5.074  0.7528  0.9869  0.7971
  455MOL0     H62770   6.184   1.881   4.364 -2.4398 -5.0406  1.1307
  455MOL0     H62771   5.987   1.914   4.245 -0.1225  1.5510  0.0108
  455MOL0     H62772   5.430   1.946   4.557  0.3194  1.7597 -0.6380
  455MOL0     H62773   5.201   1.894   4.498  1.5966 -1.0019  1.2991
  455MOL0     H62774   3.652   2.703   5.131  2.0899 -1.7649 -1.8176
  455MOL0     H62775   3.403   2.685   5.147  0.1258 -0.4172  1.3582
  455MOL0     H62776   3.112   2.369   4.882  2.0089  2.0244 -1.7036
  455MOL0     H62777   2.901   2.278   4.856 -0.0554 -0.4178 -1.6522
  455MOL0     H62778   2.686   2.244   4.771 -1.0974 -3.4173  1.4961
  455MOL0     H62779   2.685   2.234   4.936 -0.5661  1.3391  0.9247
  455MOL0     H62780   2.440   2.322   4.792 -2.3560  0.7576  1.9697
  455MOL0     H62781   2.458   2.313   4.963  0.4381  2.8362 -0.6875
  455MOL0     H62782   2.466   2.089   4.759  0.2743  2.2337 -0.2666
  455MOL0     H62783   2.498   2.048   4.924  0.5087  0.1347 -0.0441
  455MOL0     H62784   2.276   2.084   4.994 -1.0813  0.5733 -0.7235
  455MOL0     H62785   2.272   2.006   4.825  0.7483  1.0694 -1.7535
  455MOL0     H62786   2.098   2.392   4.750 -1.1206 -0.4259  0.1037
  455MOL0     H62787   2.714   2.663   4.910 -1.5503 -3.8365  0.1357
  455MOL0     H62788   2.850   2.837   5.029 -0.9487 -3.4513  0.9458
  455MOL0     H62789   3.013   2.829   5.033 -1.0164  1.3107  0.8687
  455MOL0     H62790   2.937   2.874   4.876  0.5456  3.5670  2.5323
  456MOL0     O62791  11.287  11.444   3.633 -0.8653  0.1635  0.0283
  456MOL0     C62792  11.224  11.537   3.678  0.0075  0.2598  0.2978
  456MOL0     O62793  11.264  11.625   3.776  0.6840  0.1650 -0.2821
  456MOL0     C62794  11.393  11.671   3.754  0.3073 -0.1074  0.8368
  456MOL0     C62795  11.455  11.693   3.626 -0.2473 -0.4474  0.1072
  456MOL0     C62796  11.591  11.734   3.609  0.5017  0.3012  0.7784
  456MOL0     C62797  11.663  11.761   3.726 -0.7439  0.2234  1.2621
  456MOL0     O62798  11.797  11.806   3.735  1.0246  0.4759 -0.6335
  456MOL0     C62799  11.870  11.791   3.621 -0.1084  0.4414  0.1547
  456MOL0     C62800  12.016  11.821   3.648 -0.4608  0.5275 -0.3159
  456MOL0     C62801  12.090  11.831   3.514 -0.5483 -0.5430  0.4354
  456MOL0     C62802  12.233  11.892   3.535  0.5423 -0.4722 -0.0821
  456MOL0     C62803  12.317  11.866   3.411  0.1219 -0.0811  0.3447
  456MOL0     C62804  12.429  11.969   3.381  0.2290  0.6033 -0.4301
  456MOL0     C62805  12.398  12.122   3.365 -0.6230  0.0830 -0.3985
  456MOL0     C62806  12.296  12.152   3.252  0.1048  0.5019  0.1628
  456MOL0     N62807  12.373  12.121   3.125 -0.7426  1.0483 -0.7890
  456MOL0     C62808  12.347  12.017   3.041 -0.2128 -0.5310 -0.0647
  456MOL0     C62809  12.411  12.035   2.921 -0.4684 -0.0288 -0.1038
  456MOL0     C62810  12.400  11.943   2.810  0.4303  0.0805 -0.3684
  456MOL0     C62811  12.404  12.015   2.677 -0.3091 -0.1701 -0.3759
  456MOL0     C62812  12.456  11.919   2.564  0.0017 -0.5084  0.1042
  456MOL0     C62813  12.609  11.906   2.565  0.6544 -0.8174 -0.3019
  456MOL0     O62814  12.648  11.848   2.442 -0.4411 -0.0786 -0.4701
  456MOL0     C62815  12.786  11.875   2.402  0.2000 -0.5489 -0.6355
  456MOL0     C62816  12.890  11.953   2.458 -0.4627 -0.2573 -0.0753
  456MOL0     C62817  13.023  11.953   2.416 -0.2166  0.6560  0.3060
  456MOL0     C62818  13.134  12.001   2.511  0.3432 -0.1340  1.1204
  456MOL0     C62819  13.044  11.897   2.282  0.7335 -0.1508 -0.1016
  456MOL0     C62820  13.182  11.905   2.211  0.1037 -0.2892  0.3217
  456MOL0     O62821  13.263  12.013   2.249 -0.0949 -0.1677 -0.5495
  456MOL0     C62822  13.400  12.007   2.205 -0.9266  0.3517 -0.0590
  456MOL0     C62823  13.489  11.940   2.280  0.2516 -0.0884 -0.0572
  456MOL0     C62824  13.622  11.917   2.229  0.5127 -0.2892  0.0074
  456MOL0     C62825  13.660  11.961   2.103  0.6369 -0.9148  0.2386
  456MOL0     O62826  13.777  11.934   2.038 -0.2194  0.2670 -0.0761
  456MOL0     C62827  13.882  11.888   2.115  0.8428 -0.1807 -0.4924
  456MOL0     C62828  14.012  11.926   2.040  0.3294 -1.0873 -0.7515
  456MOL0     C62829  14.014  11.872   1.900  0.5076 -0.2821  1.0524
  456MOL0     C62830  13.974  11.717   1.882 -0.1442 -0.0506 -0.3058
  456MOL0     C62831  14.057  11.638   1.777 -0.2221  0.3789 -0.1025
  456MOL0     C62832  14.008  11.495   1.765 -0.1359  0.9089  0.2572
  456MOL0     C62833  13.859  11.471   1.737  0.4877  0.3013  1.0941
  456MOL0     C62834  13.842  11.330   1.688 -0.1078 -1.2657  0.0088
  456MOL0    Cl62835  13.675  11.301   1.633 -0.0990  0.2482  0.2813
  456MOL0     C62836  13.564  12.034   2.027  0.1506 -0.1238 -0.1432
  456MOL0     C62837  13.438  12.058   2.079 -0.3228 -0.2635  0.3714
  456MOL0     O62838  13.206  11.824   2.121 -0.0387 -0.0212  0.7022
  456MOL0     C62839  12.941  11.818   2.220 -0.0970  0.0162  0.1981
  456MOL0     C62840  12.817  11.803   2.280 -0.3270  0.1138  0.2405
  456MOL0     N62841  12.489  12.148   2.937 -0.5160  0.4574 -0.0687
  456MOL0     N62842  12.465  12.195   3.056  0.0115 -0.3491 -0.2673
  456MOL0     C62843  11.599  11.758   3.852  0.2177 -0.2385 -0.1445
  456MOL0     C62844  11.469  11.702   3.863 -0.0949 -0.9923 -0.4275
  456MOL0     C62845  11.085  11.558   3.631 -0.6129  0.4655  0.3673
  456MOL0     C62846  10.991  11.620   3.706  0.7166 -0.3237 -0.1689
  456MOL0     C62847  10.855  11.635   3.665 -0.0944 -0.7260  0.0171
  456MOL0     C62848  10.819  11.603   3.538 -0.1614 -0.3092  0.3473
  456MOL0     O62849  10.700  11.606   3.474 -0.3782 -0.7067 -0.3027
  456MOL0     C62850  10.575  11.637   3.541 -0.2310  0.0986  0.1804
  456MOL0     C62851  10.527  11.507   3.611  0.7900  1.0990 -0.5179
  456MOL0     C62852  10.405  11.534   3.696 -0.2271  0.7204  0.1035
  456MOL0     C62853  10.278  11.567   3.619  0.2923 -0.6368  0.2239
  456MOL0     C62854  10.261  11.714   3.596 -0.1241  0.5308 -0.3304
  456MOL0     C62855  10.249  11.836   3.581 -0.0235  0.2453 -0.2329
  456MOL0     C62856  10.925  11.558   3.449  0.6217  0.1982  0.4421
  456MOL0     C62857  11.052  11.531   3.493 -0.1635 -0.1049 -0.2220
  456MOL0     C62858  11.137  11.445   3.403  0.4720 -0.0477  0.6058
  456MOL0     H62859  11.403  11.669   3.534  0.5238 -1.6832 -0.0408
  456MOL0     H62860  11.638  11.748   3.512  1.8458  0.9589  1.4931
  456MOL0     H62861  11.842  11.860   3.541 -1.2230  1.1491  1.1142
  456MOL0     H62862  11.863  11.690   3.580  1.4761  0.3853 -0.0514
  456MOL0     H62863  12.034  11.919   3.694  0.8863 -0.0357  0.4251
  456MOL0     H62864  12.051  11.738   3.710 -1.7231  2.3820  3.1615
  456MOL0     H62865  12.096  11.730   3.472  0.9488  0.5450 -2.2173
  456MOL0     H62866  12.040  11.898   3.443  2.0817  0.3579 -0.6868
  456MOL0     H62867  12.215  12.000   3.541 -4.3041 -1.0181 -0.3592
  456MOL0     H62868  12.270  11.855   3.631  1.7997  0.3100 -0.2361
  456MOL0     H62869  12.247  11.871   3.327  1.2039  2.3335 -0.4763
  456MOL0     H62870  12.369  11.770   3.405  0.5877  0.1760  0.2583
  456MOL0     H62871  12.511  11.947   3.451 -0.0656 -0.4136 -0.3899
  456MOL0     H62872  12.477  11.933   3.290 -0.0016  2.0783 -1.1551
  456MOL0     H62873  12.485  12.180   3.333 -1.3355  2.4626  1.6506
  456MOL0     H62874  12.362  12.159   3.461 -1.0614 -4.4805  1.4377
  456MOL0     H62875  12.205  12.092   3.263  0.1732  0.3693  0.0122
  456MOL0     H62876  12.270  12.258   3.260  1.9231  1.0701 -0.6615
  456MOL0     H62877  12.282  11.931   3.059 -0.7201  0.0993  1.2661
  456MOL0     H62878  12.308  11.885   2.818 -0.0124  1.0652  3.8703
  456MOL0     H62879  12.490  11.881   2.820 -0.0325 -0.4474  0.7122
  456MOL0     H62880  12.311  12.065   2.650  0.9083  2.6671  0.3313
  456MOL0     H62881  12.477  12.096   2.686  1.5512 -1.8095  0.0137
  456MOL0     H62882  12.403  11.824   2.576 -0.6653  0.0954  2.4526
  456MOL0     H62883  12.445  11.975   2.471 -1.2154 -1.9893 -0.6861
  456MOL0     H62884  12.650  12.007   2.579 -1.7401  0.5451 -2.3226
  456MOL0     H62885  12.643  11.846   2.649 -1.0857  0.3718  1.3296
  456MOL0     H62886  12.859  12.019   2.538  0.7718 -0.9343  0.9866
  456MOL0     H62887  13.223  11.939   2.502 -0.9342 -1.9249  0.1170
  456MOL0     H62888  13.077  11.993   2.604 -2.7725  1.3660 -0.4824
  456MOL0     H62889  13.165  12.103   2.489  2.7461 -1.2545 -1.1990
  456MOL0     H62890  13.473  11.906   2.382  1.1492  1.2800  0.5818
  456MOL0     H62891  13.695  11.861   2.286  2.2630  2.0824  0.2608
  456MOL0     H62892  13.894  11.930   2.216  2.9559 -0.4782 -0.5750
  456MOL0     H62893  13.893  11.780   2.129  2.5435  0.2157  1.9200
  456MOL0     H62894  14.014  12.036   2.043  1.6227 -1.1131  0.1656
  456MOL0     H62895  14.100  11.897   2.098  2.2929 -0.3812 -3.1729
  456MOL0     H62896  14.106  11.905   1.850 -0.0011 -0.5267 -0.0660
  456MOL0     H62897  13.937  11.924   1.842 -2.1892 -0.3145  4.3226
  456MOL0     H62898  13.870  11.698   1.852  0.5231 -1.2377 -2.0766
  456MOL0     H62899  13.994  11.674   1.980  0.3793  0.6231 -0.1106
  456MOL0     H62900  14.048  11.683   1.678 -2.8691 -0.0408 -0.1151
  456MOL0     H62901  14.162  11.632   1.809 -0.4842  3.2994  1.6118
  456MOL0     H62902  14.044  11.451   1.858  1.5215  3.1256  0.7510
  456MOL0     H62903  14.068  11.459   1.681 -0.3427 -0.2825  0.6111
  456MOL0     H62904  13.805  11.542   1.675  0.3754 -0.5831  0.1510
  456MOL0     H62905  13.799  11.475   1.829  0.3223  1.0082  0.9602
  456MOL0     H62906  13.869  11.264   1.771  0.8610 -2.8451 -1.4812
  456MOL0     H62907  13.913  11.310   1.607  0.2225 -4.2258  0.8978
  456MOL0     H62908  13.571  12.068   1.925 -1.1847  0.0444 -0.2032
  456MOL0     H62909  13.354  12.103   2.027 -0.2019  0.0443  0.4384
  456MOL0     H62910  12.965  11.774   2.124 -4.7946 -1.2144 -0.6604
  456MOL0     H62911  12.747  11.750   2.215 -3.9023  0.1994  3.6546
  456MOL0     H62912  11.654  11.781   3.943  0.8036  1.3951 -0.8806
  456MOL0     H62913  11.441  11.687   3.967  2.4214  1.1524  0.7160
  456MOL0     H62914  11.023  11.649   3.805  2.5866  2.3189 -1.4197
  456MOL0     H62915  10.773  11.673   3.724  0.0047 -0.1239 -0.2249
  456MOL0     H62916  10.580  11.724   3.608  0.9830 -1.6508  2.5368
  456MOL0     H62917  10.509  11.672   3.461  0.7015 -0.6848 -0.9623
  456MOL0     H62918  10.607  11.464   3.673  0.2761 -4.2670 -2.9676
  456MOL0     H62919  10.496  11.430   3.540  1.6939 -1.4728  1.6911
  456MOL0     H62920  10.393  11.436   3.744  2.6104 -0.1839 -0.8258
  456MOL0     H62921  10.428  11.612   3.769 -3.9061  2.6037 -0.4987
  456MOL0     H62922  10.184  11.525   3.657 -1.2844 -2.2114 -4.6264
  456MOL0     H62923  10.288  11.520   3.520 -0.4638  0.1732 -0.2575
  456MOL0     H62924  10.227  11.941   3.580 -2.1003 -0.1405 -0.1143
  456MOL0     H62925  10.899  11.541   3.345 -2.0157 -1.1485  1.2258
  456MOL0     H62926  11.239  11.483   3.392  0.2756  0.4211  0.4075
  456MOL0     H62927  11.139  11.340   3.436  3.9593 -0.7226 -1.2455
  456MOL0     H62928  11.108  11.448   3.298  1.4489 -3.1440  0.1426
  457MOL0     O62929   5.208   1.204   1.891 -0.6020 -0.5955 -0.1117
  457MOL0     C62930   5.182   1.179   2.007 -0.4098  0.0163  0.0786
  457MOL0     O62931   5.230   1.065   2.076  0.3477  0.4089  0.3231
  457MOL0     C62932   5.347   1.004   2.028  0.4314 -0.1335 -0.4443
  457MOL0     C62933   5.347   0.938   1.903  0.1787  0.1279 -0.1596
  457MOL0     C62934   5.466   0.893   1.853 -0.8360 -0.5134 -0.5346
  457MOL0     C62935   5.588   0.891   1.924  0.2870 -0.4076  0.3704
  457MOL0     O62936   5.698   0.844   1.858  1.0982 -0.2636  0.3806
  457MOL0     C62937   5.809   0.812   1.944  0.0543  0.0125 -0.0985
  457MOL0     C62938   5.916   0.731   1.867 -0.2189 -0.1455  0.4007
  457MOL0     C62939   6.004   0.665   1.972 -0.0786  0.4506  0.4247
  457MOL0     C62940   6.110   0.586   1.896 -0.4729 -0.5351 -0.1146
  457MOL0     C62941   6.159   0.469   1.979 -0.4695  1.1160  0.0312
  457MOL0     C62942   6.290   0.409   1.914  0.2421  0.1107 -0.3313
  457MOL0     C62943   6.373   0.302   2.002  0.0882 -0.2523 -0.4420
  457MOL0     C62944   6.277   0.177   2.013  1.0163  0.0268 -0.9536
  457MOL0     N62945   6.347   0.074   2.093 -0.7628  0.0472 -0.0073
  457MOL0     C62946   6.432  -0.019   2.044  0.1788 -1.1634 -0.2343
  457MOL0     C62947   6.462  -0.092   2.155 -0.3557 -0.2159  1.1211
  457MOL0     C62948   6.543  -0.214   2.162 -0.2745  0.4370  0.8640
  457MOL0     C62949   6.693  -0.184   2.123 -0.8147  0.8291 -0.4693
  457MOL0     C62950   6.789  -0.305   2.096  0.1090 -0.7567 -0.4867
  457MOL0     C62951   6.914  -0.256   2.031 -0.3531  1.4964  0.1409
  457MOL0     O62952   7.000  -0.369   2.024  0.5674  0.5298  0.8836
  457MOL0     C62953   7.094  -0.375   1.921  0.1304  0.3203 -0.0558
  457MOL0     C62954   7.199  -0.287   1.920 -0.0786 -0.4811 -0.0290
  457MOL0     C62955   7.313  -0.296   1.836 -1.5429  0.3822 -0.4379
  457MOL0     C62956   7.415  -0.177   1.847 -0.4037  0.4072 -0.8314
  457MOL0     C62957   7.320  -0.392   1.737  0.6992  0.2822  0.0077
  457MOL0     C62958   7.417  -0.396   1.627  0.6440 -0.8062  0.0033
  457MOL0     O62959   7.408  -0.497   1.525  0.6557  1.0764  0.1813
  457MOL0     C62960   7.516  -0.499   1.451 -0.3614 -1.2335  0.7190
  457MOL0     C62961   7.528  -0.411   1.332  0.4480  0.8881  0.2666
  457MOL0     C62962   7.646  -0.416   1.261 -0.1844  0.7539 -0.9534
  457MOL0     C62963   7.751  -0.496   1.294 -0.6330 -0.1833 -0.9594
  457MOL0     O62964   7.867  -0.467   1.227  0.1915 -0.2214  1.3069
  457MOL0     C62965   7.981  -0.535   1.273 -0.5377  0.4955 -0.2361
  457MOL0     C62966   8.109  -0.499   1.196  0.6186 -0.3304 -1.0368
  457MOL0     C62967   8.100  -0.538   1.046 -0.6387  0.5663 -0.3574
  457MOL0     C62968   8.233  -0.568   0.976 -0.4586  0.4941  0.0825
  457MOL0     C62969   8.284  -0.708   1.012  1.6545  0.1514 -0.4800
  457MOL0     C62970   8.358  -0.786   0.907 -0.5259 -0.0855  0.2116
  457MOL0     C62971   8.383  -0.933   0.937  0.0608 -0.0355 -0.9404
  457MOL0     C62972   8.532  -0.947   0.974  0.1798  0.0416 -0.6008
  457MOL0    Cl62973   8.623  -0.912   0.829 -0.3598  0.0840 -0.0329
  457MOL0     C62974   7.746  -0.578   1.408  0.4409  0.3502 -0.3718
  457MOL0     C62975   7.633  -0.567   1.490 -0.2767 -0.5086 -0.5691
  457MOL0     O62976   7.506  -0.313   1.634 -0.2034 -0.0428 -1.1215
  457MOL0     C62977   7.218  -0.485   1.732 -1.4935  1.0456 -0.1986
  457MOL0     C62978   7.109  -0.473   1.822  0.0723 -0.2843  0.4065
  457MOL0     N62979   6.395  -0.045   2.259 -1.2814  0.6513  0.2176
  457MOL0     N62980   6.331   0.057   2.227  0.2896  0.1731 -0.7008
  457MOL0     C62981   5.585   0.955   2.049  0.1573  0.6947  1.0415
  457MOL0     C62982   5.467   1.006   2.103  0.0852  0.1384  0.0785
  457MOL0     C62983   5.084   1.253   2.082  0.5612 -0.8456 -0.6434
  457MOL0     C62984   5.001   1.181   2.177 -0.0061 -0.4187  0.1650
  457MOL0     C62985   4.905   1.247   2.249  0.5154 -0.1785 -0.8092
  457MOL0     C62986   4.892   1.383   2.249  0.4103  0.5453  0.2884
  457MOL0     O62987   4.807   1.456   2.336  0.1723  0.1224 -0.3677
  457MOL0     C62988   4.727   1.373   2.431 -0.2144 -0.1452 -0.6153
  457MOL0     C62989   4.642   1.447   2.533  0.1590  0.2790  0.1237
  457MOL0     C62990   4.558   1.564   2.471  0.0180  0.4018  0.3499
  457MOL0     C62991   4.439   1.590   2.564 -0.1205 -0.5217 -0.2355
  457MOL0     C62992   4.341   1.668   2.496 -0.5952 -0.1867  0.4759
  457MOL0     C62993   4.257   1.740   2.440 -0.1841 -0.3023  0.8428
  457MOL0     C62994   4.974   1.450   2.158  0.5484  0.2409  0.8725
  457MOL0     C62995   5.075   1.392   2.079  0.1416 -0.5719 -0.7863
  457MOL0     C62996   5.147   1.483   1.988 -0.1099 -0.7590  0.1832
  457MOL0     H62997   5.261   0.930   1.837 -1.3800 -2.0024  1.9266
  457MOL0     H62998   5.473   0.858   1.750  1.6896  1.5519 -1.1523
  457MOL0     H62999   5.776   0.746   2.024  3.2198 -1.6347  0.0140
  457MOL0     H63000   5.849   0.908   1.978  2.1928  0.4763 -3.3568
  457MOL0     H63001   5.862   0.660   1.804 -2.1743  1.8279 -0.2474
  457MOL0     H63002   5.971   0.797   1.799 -0.1698 -0.9983 -0.4166
  457MOL0     H63003   6.043   0.745   2.036  0.2104  2.6862 -2.3515
  457MOL0     H63004   5.957   0.591   2.037  0.7931 -0.8969 -0.4254
  457MOL0     H63005   6.072   0.562   1.796 -0.6129  1.0097 -0.4678
  457MOL0     H63006   6.195   0.652   1.877 -0.3634  0.0596  2.2233
  457MOL0     H63007   6.088   0.386   1.977  1.8804 -0.9992 -2.4002
  457MOL0     H63008   6.170   0.501   2.084 -0.3860 -0.2124  0.4369
  457MOL0     H63009   6.251   0.375   1.818  0.1548  0.5881 -0.4680
  457MOL0     H63010   6.364   0.487   1.898  0.2991  1.2322  4.0140
  457MOL0     H63011   6.403   0.340   2.100 -0.2248 -1.1038 -0.0014
  457MOL0     H63012   6.464   0.286   1.945 -0.4747 -0.6541 -1.2500
  457MOL0     H63013   6.185   0.208   2.063  2.0443  1.7792 -0.0471
  457MOL0     H63014   6.249   0.136   1.916 -1.4257 -1.1724  0.1610
  457MOL0     H63015   6.466  -0.024   1.941 -3.0816  0.9272 -1.6181
  457MOL0     H63016   6.506  -0.288   2.090  0.6840  1.4080 -0.6815
  457MOL0     H63017   6.542  -0.265   2.259 -0.7134 -1.1871  0.0350
  457MOL0     H63018   6.704  -0.120   2.035  1.2111  0.5484 -0.4685
  457MOL0     H63019   6.744  -0.133   2.205  1.7247  0.1146 -1.5039
  457MOL0     H63020   6.827  -0.365   2.179  2.0712  0.7617 -0.1984
  457MOL0     H63021   6.751  -0.377   2.024 -0.3536 -0.4414 -0.5600
  457MOL0     H63022   6.897  -0.204   1.936 -0.6272 -0.6670 -1.0384
  457MOL0     H63023   6.967  -0.191   2.102 -0.2915 -1.2483  2.8049
  457MOL0     H63024   7.195  -0.204   1.990 -0.1994 -1.0581  0.6620
  457MOL0     H63025   7.385  -0.113   1.930  1.1967 -1.6208  1.4713
  457MOL0     H63026   7.406  -0.114   1.759  0.3497 -0.2752 -1.4151
  457MOL0     H63027   7.522  -0.199   1.850 -0.4307  0.3351 -0.2442
  457MOL0     H63028   7.438  -0.352   1.318  0.5007  1.1915  1.1835
  457MOL0     H63029   7.669  -0.352   1.175 -0.1048  0.5903 -1.0542
  457MOL0     H63030   7.996  -0.507   1.377 -2.8410 -1.1434  0.6328
  457MOL0     H63031   7.979  -0.644   1.277 -0.4478  0.5149  3.0854
  457MOL0     H63032   8.141  -0.396   1.209 -1.6575  0.4442 -1.0742
  457MOL0     H63033   8.193  -0.555   1.239 -0.1217 -1.8434 -1.5011
  457MOL0     H63034   8.073  -0.442   1.000  1.0671  1.6807  0.8289
  457MOL0     H63035   8.036  -0.623   1.020  0.1581 -0.6474  1.4375
  457MOL0     H63036   8.299  -0.497   1.026  1.2598 -2.2741  1.9650
  457MOL0     H63037   8.231  -0.543   0.869 -0.6028  1.0806  0.2201
  457MOL0     H63038   8.341  -0.711   1.105  1.6945 -2.4366 -0.5216
  457MOL0     H63039   8.198  -0.766   1.048 -0.3736  2.7191 -0.8679
  457MOL0     H63040   8.451  -0.734   0.881 -0.7281  0.5136  0.6659
  457MOL0     H63041   8.306  -0.785   0.810  0.5847 -0.9623 -0.4171
  457MOL0     H63042   8.356  -0.989   0.847 -3.2855  2.1855 -1.5000
  457MOL0     H63043   8.323  -0.962   1.023 -2.0918 -3.3509 -3.3330
  457MOL0     H63044   8.550  -1.050   1.005  2.1805  0.6821  0.5069
  457MOL0     H63045   8.551  -0.895   1.068 -1.3901 -2.2777  1.1039
  457MOL0     H63046   7.834  -0.638   1.427  1.3141  0.7537 -2.8062
  457MOL0     H63047   7.615  -0.629   1.577  0.6338  0.7179  0.5441
  457MOL0     H63048   7.216  -0.570   1.665  1.3261 -1.0483  2.0650
  457MOL0     H63049   7.037  -0.555   1.816 -1.6876  1.2651 -0.7923
  457MOL0     H63050   5.674   0.961   2.110  1.3511  2.1008 -0.7556
  457MOL0     H63051   5.480   1.045   2.203  1.5777  1.3834 -0.5534
  457MOL0     H63052   5.020   1.076   2.195 -0.9607 -0.5768  0.3197
  457MOL0     H63053   4.829   1.187   2.298 -0.8653  0.6990 -1.8035
  457MOL0     H63054   4.654   1.325   2.366  0.8597 -1.4828 -0.8766
  457MOL0     H63055   4.786   1.304   2.491 -1.1133 -1.6307 -1.3869
  457MOL0     H63056   4.702   1.479   2.619 -1.0715  0.4218  0.9582
  457MOL0     H63057   4.571   1.375   2.574 -0.0598  1.1303  1.2835
  457MOL0     H63058   4.609   1.661   2.466 -2.8454  2.0240  0.0329
  457MOL0     H63059   4.511   1.555   2.372 -1.9425 -0.3828  1.2948
  457MOL0     H63060   4.466   1.646   2.654  0.9763 -1.9552  0.3683
  457MOL0     H63061   4.393   1.494   2.589  1.0613 -1.1925 -0.5677
  457MOL0     H63062   4.185   1.808   2.400  1.3083  0.8817  0.0618
  457MOL0     H63063   4.962   1.558   2.164 -1.1765  0.2574 -1.4637
  457MOL0     H63064   5.164   1.575   2.045 -0.4263 -1.1267  0.8792
  457MOL0     H63065   5.245   1.451   1.952  0.9901  0.4950  1.9255
  457MOL0     H63066   5.086   1.499   1.898 -0.2910 -1.1540  0.2328
  458MOL0     O63067   1.507  10.659   7.178 -1.0478 -0.4541  0.2936
  458MOL0     C63068   1.508  10.534   7.200  0.3040 -0.0733 -0.9828
  458MOL0     O63069   1.628  10.458   7.225 -0.5429  0.2238  0.6808
  458MOL0     C63070   1.746  10.521   7.213  0.0780  0.0681  0.2856
  458MOL0     C63071   1.861  10.471   7.285  0.0863  0.3021 -0.5820
  458MOL0     C63072   1.993  10.526   7.264  0.8451  0.1725  0.6969
  458MOL0     C63073   2.008  10.631   7.181  0.6254 -0.0051  0.6345
  458MOL0     O63074   2.133  10.683   7.175  0.3412  0.2286  0.0681
  458MOL0     C63075   2.154  10.814   7.125 -0.0153 -0.1884 -0.3515
  458MOL0     C63076   2.283  10.865   7.163 -0.0589  0.7630  0.3893
  458MOL0     C63077   2.292  10.867   7.314 -0.9859 -0.2057 -0.3575
  458MOL0     C63078   2.404  10.957   7.361 -0.3684 -0.5359 -0.4062
  458MOL0     C63079   2.399  10.984   7.508  0.9193 -0.4067 -0.3562
  458MOL0     C63080   2.521  10.954   7.587  0.3275 -0.8074  0.4833
  458MOL0     C63081   2.473  10.945   7.735 -1.3943 -0.3633  0.6058
  458MOL0     C63082   2.597  10.931   7.822 -0.4791 -0.5056 -0.4142
  458MOL0     N63083   2.650  11.059   7.873 -0.2906  0.2587 -0.7717
  458MOL0     C63084   2.617  11.111   7.994  0.2704 -0.1788 -0.4008
  458MOL0     C63085   2.694  11.227   8.010  0.1410  0.8379 -0.1053
  458MOL0     C63086   2.686  11.331   8.118 -0.3136  0.4813  0.1232
  458MOL0     C63087   2.717  11.470   8.060  1.2211 -0.0935  0.4195
  458MOL0     C63088   2.641  11.573   8.137  0.1931  0.1406 -0.3452
  458MOL0     C63089   2.632  11.712   8.071 -0.4116 -0.6564  0.8322
  458MOL0     O63090   2.555  11.691   7.954 -0.1337  0.6170 -0.0401
  458MOL0     C63091   2.539  11.799   7.876  0.3096 -0.0111  0.3313
  458MOL0     C63092   2.655  11.861   7.815  0.1736  0.4329  0.2638
  458MOL0     C63093   2.643  11.976   7.744 -0.0908 -0.2511  0.7578
  458MOL0     C63094   2.770  12.023   7.680  0.0753 -0.0069 -0.3777
  458MOL0     C63095   2.511  12.034   7.726  0.2006 -0.2797 -0.5119
  458MOL0     C63096   2.491  12.166   7.663  0.6510  0.1980  0.1912
  458MOL0     O63097   2.361  12.185   7.619 -0.1007  0.1708  0.2865
  458MOL0     C63098   2.303  12.306   7.650  0.6819 -0.2458  0.0553
  458MOL0     C63099   2.335  12.427   7.585 -0.0108 -0.4265 -0.7250
  458MOL0     C63100   2.275  12.550   7.620 -0.6387 -0.8121 -0.5387
  458MOL0     C63101   2.168  12.552   7.710 -0.4409 -0.6015 -0.1483
  458MOL0     O63102   2.110  12.678   7.731 -0.3282 -0.0857  0.4296
  458MOL0     C63103   2.051  12.706   7.859  0.9317 -0.4255  0.5275
  458MOL0     C63104   1.961  12.828   7.834 -0.3505  0.2697 -0.0354
  458MOL0     C63105   1.845  12.789   7.738 -0.7743 -0.9233 -0.4671
  458MOL0     C63106   1.729  12.896   7.752 -0.3546  1.0078 -0.2532
  458MOL0     C63107   1.769  13.023   7.675  0.1577 -0.2334 -1.4245
  458MOL0     C63108   1.651  13.120   7.651 -0.3267 -0.7982 -0.7362
  458MOL0     C63109   1.693  13.249   7.580 -1.3649 -0.1390  0.1267
  458MOL0     C63110   1.578  13.329   7.517 -0.8942  0.0611 -0.2167
  458MOL0    Cl63111   1.470  13.383   7.646 -0.1998 -0.3106  0.0374
  458MOL0     C63112   2.129  12.431   7.763  0.8536 -0.9511 -0.3256
  458MOL0     C63113   2.192  12.310   7.739 -0.1838 -0.6277  0.1343
  458MOL0     O63114   2.576  12.249   7.671  0.3254  0.2594 -0.3034
  458MOL0     C63115   2.401  11.962   7.770 -0.2664 -0.0260  1.2716
  458MOL0     C63116   2.411  11.850   7.856  0.4759  1.0077  0.9492
  458MOL0     N63117   2.763  11.247   7.900 -0.6332  0.1123  0.3718
  458MOL0     N63118   2.747  11.146   7.818  0.6421 -0.4048 -1.0221
  458MOL0     C63119   1.904  10.676   7.109 -0.6303  0.4918  0.2434
  458MOL0     C63120   1.776  10.617   7.117 -0.1340 -0.2272 -0.3614
  458MOL0     C63121   1.376  10.457   7.205  0.9644 -0.9625  0.6539
  458MOL0     C63122   1.383  10.329   7.262 -0.5458  1.0164 -0.4775
  458MOL0     C63123   1.255  10.261   7.287 -0.1967 -1.5993  0.3440
  458MOL0     C63124   1.138  10.308   7.242 -0.0874  0.8132 -1.0036
  458MOL0     O63125   1.027  10.232   7.258 -0.0404 -0.4147  0.5693
  458MOL0     C63126   0.921  10.288   7.328 -0.0593 -0.3079  0.1077
  458MOL0     C63127   0.869  10.169   7.411 -0.2813  0.4520 -0.7426
  458MOL0     C63128   0.968  10.142   7.529 -0.2439  1.3572  0.3931
  458MOL0     C63129   0.913  10.051   7.637 -0.6178 -0.3693  0.2184
  458MOL0     C63130   1.020   9.970   7.705 -0.4921 -0.4953  0.2528
  458MOL0     C63131   1.109   9.909   7.759 -0.0743  0.0317  0.9167
  458MOL0     C63132   1.130  10.432   7.183  0.2590 -0.1943  0.5620
  458MOL0     C63133   1.251  10.504   7.163 -0.1113 -0.0629  0.3978
  458MOL0     C63134   1.241  10.644   7.098 -0.2237  0.1870 -0.2918
  458MOL0     H63135   1.828  10.379   7.333 -0.9760  1.4012  0.8872
  458MOL0     H63136   2.072  10.476   7.319  0.9460 -0.4067  0.0396
  458MOL0     H63137   2.072  10.878   7.159  0.0201  1.1185 -2.5402
  458MOL0     H63138   2.132  10.805   7.018  0.0425 -0.5628 -0.3351
  458MOL0     H63139   2.362  10.797   7.131  0.4696  0.9055  1.3392
  458MOL0     H63140   2.302  10.959   7.111  0.1735  0.2975 -0.3843
  458MOL0     H63141   2.198  10.897   7.360 -1.3704 -0.2567 -1.0912
  458MOL0     H63142   2.306  10.769   7.359 -0.6754 -0.5478 -1.1712
  458MOL0     H63143   2.496  10.905   7.333  0.1479 -0.2096  0.6246
  458MOL0     H63144   2.403  11.052   7.307  1.7872 -1.1631 -1.6572
  458MOL0     H63145   2.311  10.937   7.553  0.6833  0.6111  0.2783
  458MOL0     H63146   2.381  11.091   7.517 -2.6105 -0.5158 -3.4881
  458MOL0     H63147   2.549  10.849   7.572  0.8136 -1.4148  4.5015
  458MOL0     H63148   2.600  11.026   7.566  0.7561 -1.2416  0.5940
  458MOL0     H63149   2.398  10.866   7.747 -2.0500 -0.2970 -2.3132
  458MOL0     H63150   2.414  11.033   7.763 -0.4681 -0.1323  1.9478
  458MOL0     H63151   2.559  10.873   7.906 -2.7292  0.4884 -0.6716
  458MOL0     H63152   2.678  10.867   7.785 -0.3181 -0.2434 -0.5170
  458MOL0     H63153   2.545  11.077   8.068 -1.8685  2.6737 -0.9835
  458MOL0     H63154   2.747  11.313   8.207 -1.5317  0.4846  0.9942
  458MOL0     H63155   2.583  11.328   8.156 -0.9552  0.3770 -1.5330
  458MOL0     H63156   2.823  11.495   8.065  0.9576  1.1721  0.0677
  458MOL0     H63157   2.689  11.473   7.954  3.3104  2.2029 -0.1628
  458MOL0     H63158   2.541  11.536   8.157  0.1929  0.6944  0.7498
  458MOL0     H63159   2.687  11.569   8.237 -2.5371  2.8437  1.1810
  458MOL0     H63160   2.590  11.786   8.139  3.3879  0.2869  2.4074
  458MOL0     H63161   2.733  11.749   8.052 -0.6115 -0.4888  0.0676
  458MOL0     H63162   2.747  11.811   7.844 -1.5462 -1.9569  1.9870
  458MOL0     H63163   2.763  12.082   7.588  3.2854  1.4591  0.1769
  458MOL0     H63164   2.842  11.947   7.648  2.2959  1.7776  0.1444
  458MOL0     H63165   2.823  12.078   7.758  0.4450 -1.1841  0.2318
  458MOL0     H63166   2.408  12.411   7.507 -0.1549 -2.3893 -0.5011
  458MOL0     H63167   2.312  12.640   7.571 -3.5174  1.1404  0.5473
  458MOL0     H63168   1.984  12.623   7.884  0.7820 -0.3674  0.3201
  458MOL0     H63169   2.127  12.713   7.937 -0.6365  0.5831  2.0583
  458MOL0     H63170   1.930  12.848   7.937  1.4357 -1.4434  0.8958
  458MOL0     H63171   2.021  12.910   7.796  1.0216 -0.3834  0.6535
  458MOL0     H63172   1.801  12.693   7.769 -1.6821 -0.1553  0.7465
  458MOL0     H63173   1.887  12.798   7.638 -1.7403  1.1538 -0.7258
  458MOL0     H63174   1.690  12.922   7.851 -0.9972  3.5165 -1.0717
  458MOL0     H63175   1.642  12.848   7.707 -0.8267 -0.5838  2.1869
  458MOL0     H63176   1.854  13.066   7.730  0.5494 -4.1587  1.4829
  458MOL0     H63177   1.800  12.987   7.577 -0.3586 -2.8971 -0.7041
  458MOL0     H63178   1.599  13.147   7.744  2.6012 -2.0513  1.4399
  458MOL0     H63179   1.588  13.060   7.585  2.6182 -2.3538 -2.2771
  458MOL0     H63180   1.772  13.227   7.507 -0.8082 -0.4763  0.8190
  458MOL0     H63181   1.741  13.313   7.654 -1.8326 -0.1158  0.4122
  458MOL0     H63182   1.540  13.261   7.440  1.0979 -1.6821  0.2257
  458MOL0     H63183   1.614  13.426   7.484  1.1149 -0.9784 -1.2660
  458MOL0     H63184   2.041  12.437   7.827  1.3428 -2.0452  0.4607
  458MOL0     H63185   2.144  12.228   7.792 -0.9095 -0.2137  0.1277
  458MOL0     H63186   2.301  11.999   7.749  0.6978  1.5859 -0.7917
  458MOL0     H63187   2.332  11.804   7.914 -0.0415  1.6127  0.7341
  458MOL0     H63188   1.921  10.744   7.026 -0.2960  2.0699  1.5522
  458MOL0     H63189   1.703  10.646   7.042  1.6011  1.4661 -1.4858
  458MOL0     H63190   1.477  10.284   7.293  1.3546  3.2389 -2.6424
  458MOL0     H63191   1.268  10.164   7.334  2.8346 -0.0863  3.0430
  458MOL0     H63192   0.951  10.376   7.385  0.5009  0.4550 -1.3121
  458MOL0     H63193   0.847  10.310   7.250 -0.7310 -0.3328  0.7263
  458MOL0     H63194   0.878  10.083   7.345  4.7457  1.2083 -1.4354
  458MOL0     H63195   0.766  10.184   7.444  0.1080  0.5275  0.5128
  458MOL0     H63196   1.047  10.077   7.491 -0.1981  1.9582 -0.5625
  458MOL0     H63197   1.005  10.235   7.572  1.6451  0.5305  0.6318
  458MOL0     H63198   0.843   9.979   7.594  0.3580 -1.4537  0.4253
  458MOL0     H63199   0.857  10.110   7.710 -0.6269 -0.0451 -0.0461
  458MOL0     H63200   1.190   9.865   7.814  1.0616  1.0858  0.1594
  458MOL0     H63201   1.033  10.464   7.147  0.1779 -2.0455 -1.0157
  458MOL0     H63202   1.270  10.728   7.162 -2.5036  1.3735 -0.7228
  458MOL0     H63203   1.297  10.641   7.004 -1.4773 -0.5997 -1.0435
  458MOL0     H63204   1.135  10.662   7.076 -1.3480 -4.5812  0.0895
  459MOL0     O63205  11.384   8.989   1.713 -0.0612 -0.9273 -0.1029
  459MOL0     C63206  11.298   8.960   1.636  1.0137 -0.6596  0.0131
  459MOL0     O63207  11.264   9.026   1.522 -0.0297 -0.1918  0.2324
  459MOL0     C63208  11.342   9.137   1.497  0.0778 -0.5843  0.3286
  459MOL0     C63209  11.293   9.266   1.517 -0.4857  0.1361 -0.4053
  459MOL0     C63210  11.385   9.368   1.496 -0.0078 -0.2156  0.0348
  459MOL0     C63211  11.516   9.355   1.449  0.4702 -0.0601 -0.4765
  459MOL0     O63212  11.597   9.461   1.425  0.1885 -0.6374 -0.1104
  459MOL0     C63213  11.532   9.589   1.378  0.8738  0.0908  0.4157
  459MOL0     C63214  11.644   9.693   1.348 -0.0062 -0.7183  0.9974
  459MOL0     C63215  11.707   9.730   1.477  0.9831 -0.8845  0.9192
  459MOL0     C63216  11.820   9.820   1.448 -0.4254 -0.3793 -0.3485
  459MOL0     C63217  11.903   9.837   1.571  0.2429 -0.6432  0.6631
  459MOL0     C63218  12.026   9.924   1.562 -1.1886 -0.2606 -0.8878
  459MOL0     C63219  12.012  10.062   1.478  0.3951  0.3942 -0.1157
  459MOL0     C63220  12.120  10.169   1.506 -0.5479  0.5567 -0.7261
  459MOL0     N63221  12.114  10.237   1.628  0.5806 -0.0699 -0.0695
  459MOL0     C63222  12.122  10.183   1.758  0.0187  0.0194  0.6870
  459MOL0     C63223  12.120  10.291   1.843 -0.8164 -0.4846 -0.1788
  459MOL0     C63224  12.123  10.298   1.993  0.4147  0.4385 -0.1526
  459MOL0     C63225  11.986  10.296   2.056 -0.2767  0.9506  0.1124
  459MOL0     C63226  11.986  10.224   2.196  0.3907 -0.0098  0.1879
  459MOL0     C63227  12.052  10.306   2.298 -0.9369 -0.7948  0.4931
  459MOL0     O63228  12.026  10.256   2.431  0.2137  0.0745  0.0011
  459MOL0     C63229  12.083  10.318   2.531 -0.3078  0.6479 -1.0394
  459MOL0     C63230  12.080  10.251   2.657 -0.3568 -0.1262  0.2056
  459MOL0     C63231  12.154  10.297   2.765 -0.2153  0.2347 -0.4264
  459MOL0     C63232  12.157  10.215   2.888 -0.1438 -0.2340  0.2182
  459MOL0     C63233  12.233  10.412   2.759 -0.0965  0.7228 -0.0415
  459MOL0     C63234  12.309  10.468   2.874 -0.7071  0.4367 -1.1052
  459MOL0     O63235  12.381  10.581   2.850  0.5297 -0.8855 -0.1893
  459MOL0     C63236  12.431  10.647   2.957  0.2796 -0.2060 -0.5468
  459MOL0     C63237  12.535  10.601   3.025 -0.3863 -0.0580 -0.3473
  459MOL0     C63238  12.592  10.663   3.135 -0.3226  0.6282 -0.1286
  459MOL0     C63239  12.538  10.788   3.181  0.8379  0.4640  0.6493
  459MOL0     O63240  12.601  10.855   3.287 -0.3983  0.2718 -0.1125
  459MOL0     C63241  12.562  10.990   3.309  0.6270  0.6422  0.0728
  459MOL0     C63242  12.660  11.043   3.413 -0.0404 -0.1421 -1.8017
  459MOL0     C63243  12.795  11.055   3.342 -0.0910 -0.4316 -0.4116
  459MOL0     C63244  12.908  11.089   3.432  1.6704 -0.2662  0.4184
  459MOL0     C63245  13.020  11.139   3.348 -0.0639 -0.8405  0.6089
  459MOL0     C63246  13.139  11.158   3.442  1.0919 -0.1123  0.4823
  459MOL0     C63247  13.233  11.271   3.380 -0.0889 -0.5730 -0.0087
  459MOL0     C63248  13.321  11.217   3.263 -0.9311  0.7617 -0.4362
  459MOL0    Cl63249  13.427  11.335   3.182  0.0391 -0.4556 -0.3640
  459MOL0     C63250  12.418  10.843   3.109 -0.5443  0.4709  0.9517
  459MOL0     C63251  12.373  10.769   2.999  0.0329 -0.0459  0.1066
  459MOL0     O63252  12.309  10.416   2.994 -0.3391 -0.3281  0.3302
  459MOL0     C63253  12.234  10.477   2.634 -0.1773  0.4071 -0.8425
  459MOL0     C63254  12.155  10.443   2.528  0.8967  0.6993  1.0112
  459MOL0     N63255  12.105  10.406   1.775  0.6689  0.1341 -0.1181
  459MOL0     N63256  12.106  10.378   1.652 -0.1729  0.0819 -0.1955
  459MOL0     C63257  11.567   9.235   1.422 -0.4812 -0.1386 -0.1317
  459MOL0     C63258  11.480   9.122   1.448  0.7232 -0.1929 -0.1059
  459MOL0     C63259  11.210   8.853   1.676 -0.8167  0.5503 -0.5491
  459MOL0     C63260  11.272   8.738   1.707 -0.3700  0.7858  0.3387
  459MOL0     C63261  11.204   8.627   1.748 -0.8732  0.4060 -0.0804
  459MOL0     C63262  11.067   8.617   1.754  0.0966  0.9909 -0.7652
  459MOL0     O63263  10.999   8.496   1.782 -0.3460  0.0388 -0.0066
  459MOL0     C63264  10.857   8.486   1.770  0.0890  0.3891  0.0929
  459MOL0     C63265  10.829   8.339   1.801  0.9952  0.7383  0.0327
  459MOL0     C63266  10.849   8.241   1.690 -0.5960 -0.0311  0.1887
  459MOL0     C63267  10.987   8.215   1.645 -0.1727  0.4101  0.8250
  459MOL0     C63268  11.059   8.124   1.733  0.0649  0.2052  0.0611
  459MOL0     C63269  11.129   8.053   1.799 -0.6057 -0.4010 -0.0922
  459MOL0     C63270  11.002   8.738   1.714 -0.3488 -0.0785 -1.5729
  459MOL0     C63271  11.068   8.861   1.697 -0.5853 -0.4938  0.1436
  459MOL0     C63272  10.998   8.996   1.680  0.2996  0.3699  1.0593
  459MOL0     H63273  11.195   9.294   1.555 -0.1017 -1.5177  2.0458
  459MOL0     H63274  11.353   9.470   1.516  0.1956 -0.2306  0.4478
  459MOL0     H63275  11.453   9.622   1.446  0.2700 -4.9024  2.5812
  459MOL0     H63276  11.479   9.565   1.286 -0.1355 -0.7755  1.2073
  459MOL0     H63277  11.717   9.644   1.282  0.5341  0.9897  0.2487
  459MOL0     H63278  11.603   9.779   1.294  0.6236 -1.5600 -0.9410
  459MOL0     H63279  11.631   9.781   1.537  1.4011 -0.3967  1.0389
  459MOL0     H63280  11.734   9.642   1.536  0.8640 -2.6355 -1.5085
  459MOL0     H63281  11.879   9.769   1.371 -0.4874 -2.3485  0.8353
  459MOL0     H63282  11.773   9.911   1.410  0.2629  0.6579  1.2054
  459MOL0     H63283  11.941   9.742   1.608  2.4187 -0.3092 -0.5241
  459MOL0     H63284  11.835   9.871   1.650  0.3397 -2.1494  1.4196
  459MOL0     H63285  12.057   9.952   1.663 -1.9206 -2.4572 -0.0015
  459MOL0     H63286  12.113   9.869   1.526  1.4107  2.7889  0.2293
  459MOL0     H63287  11.918  10.108   1.510  0.5886  1.4135 -0.9650
  459MOL0     H63288  11.995  10.039   1.373 -0.9309  2.4212 -0.4135
  459MOL0     H63289  12.216  10.119   1.490 -2.4968 -3.3055 -1.7222
  459MOL0     H63290  12.111  10.250   1.433 -0.2058  2.1258  0.8970
  459MOL0     H63291  12.116  10.079   1.791 -0.6517  0.0923  0.7997
  459MOL0     H63292  12.178  10.389   2.019 -1.0452  1.3588 -0.1517
  459MOL0     H63293  12.180  10.212   2.030 -0.8467 -1.5452 -2.5416
  459MOL0     H63294  11.954  10.401   2.060 -2.1025  0.4175  0.7850
  459MOL0     H63295  11.923  10.238   1.988  0.8800 -1.3785  0.9294
  459MOL0     H63296  11.880  10.214   2.219  0.2475  0.2708 -0.3414
  459MOL0     H63297  12.037  10.128   2.185 -1.7869 -1.0780 -1.3392
  459MOL0     H63298  12.159  10.317   2.278 -1.4420  0.9585 -1.6286
  459MOL0     H63299  12.006  10.405   2.290 -1.0097 -0.9756 -2.0823
  459MOL0     H63300  12.025  10.160   2.678 -0.0055 -0.4693 -0.3633
  459MOL0     H63301  12.259  10.183   2.909 -0.7303 -2.4961 -0.1622
  459MOL0     H63302  12.098  10.123   2.879  0.8893 -0.7315 -2.3009
  459MOL0     H63303  12.120  10.267   2.978  0.1438 -2.0310  1.4382
  459MOL0     H63304  12.571  10.502   2.998  1.9898  0.7889 -0.5217
  459MOL0     H63305  12.673  10.612   3.187  0.4095  0.6290 -1.2465
  459MOL0     H63306  12.565  11.054   3.220  1.8648 -1.2743 -1.3571
  459MOL0     H63307  12.461  10.993   3.352 -0.2238 -3.2120 -1.2351
  459MOL0     H63308  12.631  11.147   3.434  0.3040 -0.0299 -1.8786
  459MOL0     H63309  12.657  10.975   3.499 -4.4385 -0.3376 -1.8972
  459MOL0     H63310  12.784  11.139   3.274 -1.5754 -0.0378  0.2671
  459MOL0     H63311  12.817  10.960   3.292  1.6772 -0.0349 -0.4332
  459MOL0     H63312  12.936  10.996   3.482 -1.8285 -1.6535  0.0787
  459MOL0     H63313  12.880  11.162   3.509 -0.7420 -2.1034  1.4141
  459MOL0     H63314  13.050  11.066   3.272 -0.4586  0.7322 -1.1154
  459MOL0     H63315  13.004  11.238   3.305  3.2593 -0.4548 -0.0378
  459MOL0     H63316  13.206  11.073   3.453 -0.8168 -1.6773  0.6936
  459MOL0     H63317  13.103  11.193   3.539 -0.6112  2.0560 -0.8216
  459MOL0     H63318  13.301  11.308   3.457 -1.2347  3.1017 -0.5796
  459MOL0     H63319  13.181  11.358   3.338 -0.3009  0.9929  3.1346
  459MOL0     H63320  13.254  11.168   3.192  0.0251 -2.1806  0.5297
  459MOL0     H63321  13.385  11.134   3.296 -0.5017  1.7651  1.3983
  459MOL0     H63322  12.367  10.934   3.139  0.8640  1.2150  1.1788
  459MOL0     H63323  12.290  10.801   2.938  0.6137  1.8674  0.2699
  459MOL0     H63324  12.283  10.574   2.632 -2.9911  2.0958  1.7876
  459MOL0     H63325  12.171  10.493   2.433  1.6398 -1.4973 -0.0778
  459MOL0     H63326  11.664   9.218   1.378 -0.5269 -0.8863  0.0432
  459MOL0     H63327  11.515   9.027   1.408 -0.3983 -0.7402  0.1554
  459MOL0     H63328  11.380   8.742   1.698 -0.2399  3.1951  2.1491
  459MOL0     H63329  11.275   8.547   1.767 -0.8033  0.6613  0.7952
  459MOL0     H63330  10.809   8.544   1.849  0.6806  2.5543 -1.0533
  459MOL0     H63331  10.813   8.517   1.674 -4.6522 -1.2317  1.4681
  459MOL0     H63332  10.722   8.330   1.820  0.6890  0.2090 -1.7861
  459MOL0     H63333  10.880   8.305   1.892  0.3182  0.5993  0.3635
  459MOL0     H63334  10.808   8.144   1.717  2.8371 -1.0036  2.7166
  459MOL0     H63335  10.798   8.285   1.604 -0.4431  1.6765  0.9105
  459MOL0     H63336  11.038   8.312   1.651  1.2546 -0.3877  3.5344
  459MOL0     H63337  10.982   8.185   1.540  1.2014 -0.7425  1.0536
  459MOL0     H63338  11.203   7.993   1.848 -0.0968 -0.3599 -0.8086
  459MOL0     H63339  10.893   8.742   1.718 -0.3043  1.0667  2.7971
  459MOL0     H63340  11.055   9.073   1.734 -1.3121  1.5335  1.1547
  459MOL0     H63341  10.971   9.022   1.577 -1.4117 -3.1336  0.4908
  459MOL0     H63342  10.908   8.981   1.740  1.2335 -0.6943  2.2569
  460MOL0     O63343  10.150  10.485   5.147 -1.0068 -0.4370  0.8960
  460MOL0     C63344  10.054  10.539   5.191  0.6764 -0.6076  0.1764
  460MOL0     O63345  10.056  10.641   5.280  0.2967 -0.3237  0.3101
  460MOL0     C63346  10.168  10.681   5.338  1.1658  0.5786  0.5087
  460MOL0     C63347  10.237  10.604   5.432 -0.7172  0.5575 -0.0932
  460MOL0     C63348  10.346  10.657   5.500 -0.2380 -0.8089 -0.8331
  460MOL0     C63349  10.394  10.794   5.469  0.4123  0.9208 -0.6801
  460MOL0     O63350  10.496  10.845   5.546 -0.4656 -0.9797 -0.4904
  460MOL0     C63351  10.533  10.985   5.512 -0.3305  0.2897 -0.1542
  460MOL0     C63352  10.645  11.034   5.601  1.0291  0.4327 -0.4893
  460MOL0     C63353  10.766  10.953   5.608 -0.0348  0.3595 -0.0099
  460MOL0     C63354  10.864  11.013   5.699 -0.8546 -0.1941 -0.1080
  460MOL0     C63355  11.002  10.937   5.689 -0.0711 -0.0646  0.1321
  460MOL0     C63356  11.099  11.015   5.778 -0.1361  0.6028  0.1766
  460MOL0     C63357  11.236  10.936   5.785  0.0069 -0.2978  0.3282
  460MOL0     C63358  11.331  10.990   5.678 -0.2958  1.2736  0.4510
  460MOL0     N63359  11.462  10.924   5.688  0.6861 -0.2248  0.4721
  460MOL0     C63360  11.549  10.946   5.797  0.0442  0.6170  0.6869
  460MOL0     C63361  11.650  10.861   5.773 -0.3106 -0.4447 -0.0726
  460MOL0     C63362  11.767  10.841   5.871 -0.0171 -1.2481 -0.2939
  460MOL0     C63363  11.869  10.740   5.821  0.1431  0.1882  0.2553
  460MOL0     C63364  11.991  10.743   5.920  0.2137  0.5243  0.4490
  460MOL0     C63365  12.079  10.627   5.890 -0.4016  0.4405  0.2121
  460MOL0     O63366  12.029  10.501   5.937 -1.1192  0.7953  0.1817
  460MOL0     C63367  12.121  10.397   5.953  0.1283  0.1085 -0.3400
  460MOL0     C63368  12.240  10.387   5.888 -0.1454 -0.2828  0.5265
  460MOL0     C63369  12.333  10.276   5.903  0.7443 -0.3823  0.0473
  460MOL0     C63370  12.461  10.273   5.828  0.1215  0.4329 -1.1302
  460MOL0     C63371  12.293  10.163   5.970  0.3657 -0.3096  0.1585
  460MOL0     C63372  12.380  10.042   5.999 -0.6447 -0.3837 -0.4711
  460MOL0     O63373  12.303   9.924   5.991 -0.4028 -0.9040  0.0181
  460MOL0     C63374  12.367   9.807   6.031  0.1299 -0.6985  0.1851
  460MOL0     C63375  12.338   9.747   6.148 -0.7796 -0.4600  0.5642
  460MOL0     C63376  12.407   9.631   6.183  0.6179 -1.2357 -0.6529
  460MOL0     C63377  12.495   9.562   6.104  0.0492  0.2688  0.7037
  460MOL0     O63378  12.541   9.447   6.157 -0.4879 -0.0741 -0.3819
  460MOL0     C63379  12.627   9.360   6.087  0.0763 -0.0833  1.0085
  460MOL0     C63380  12.541   9.259   6.002 -0.7419  0.2595 -0.2730
  460MOL0     C63381  12.632   9.145   5.936  0.5046  0.0598  0.2354
  460MOL0     C63382  12.719   9.192   5.820  0.0297 -0.2126 -0.0554
  460MOL0     C63383  12.770   9.087   5.720  0.7179 -0.4645  0.4760
  460MOL0     C63384  12.837   9.154   5.600 -0.7434  0.1451 -0.5493
  460MOL0     C63385  12.889   9.051   5.496  0.7464  0.1730  0.0072
  460MOL0     C63386  12.799   9.050   5.370 -0.2689 -0.2903 -0.8052
  460MOL0    Cl63387  12.873   8.923   5.276 -0.0250  0.3896  0.3487
  460MOL0     C63388  12.519   9.619   5.976  0.2594  0.1098 -0.5075
  460MOL0     C63389  12.455   9.740   5.937 -1.0610  0.3291 -0.1127
  460MOL0     O63390  12.504  10.049   6.026  0.4982 -0.8187 -0.4848
  460MOL0     C63391  12.168  10.166   6.040 -1.2247  0.3900 -0.1442
  460MOL0     C63392  12.083  10.281   6.024 -0.6458 -0.1283  0.0277
  460MOL0     N63393  11.629  10.795   5.652  0.0231 -0.5224 -0.1623
  460MOL0     N63394  11.510  10.831   5.604  0.6815  0.2764  0.0418
  460MOL0     C63395  10.316  10.867   5.375  0.0150 -0.4752  0.4238
  460MOL0     C63396  10.206  10.813   5.319 -0.3772 -0.9851 -0.1165
  460MOL0     C63397   9.914  10.496   5.152 -0.8341  0.7120  0.3948
  460MOL0     C63398   9.807  10.520   5.239  0.5072 -0.7768 -0.7054
  460MOL0     C63399   9.684  10.478   5.206  0.0213  0.3431 -0.3642
  460MOL0     C63400   9.655  10.411   5.089  0.5333  0.3637  0.4583
  460MOL0     O63401   9.525  10.366   5.068 -0.0989  0.2480 -0.4236
  460MOL0     C63402   9.505  10.251   5.143  0.0863  0.6898 -0.2938
  460MOL0     C63403   9.404  10.154   5.081  0.5364 -0.2783 -0.2481
  460MOL0     C63404   9.463  10.012   5.094  0.8002  0.2257 -0.5179
  460MOL0     C63405   9.477   9.968   5.237  0.1268  0.6307  0.3464
  460MOL0     C63406   9.522   9.825   5.245  1.0033 -0.6293 -0.5142
  460MOL0     C63407   9.563   9.714   5.249  0.5693 -0.3128  0.2563
  460MOL0     C63408   9.758  10.387   4.999  0.2346  1.0672  0.2747
  460MOL0     C63409   9.886  10.425   5.026  1.1743  0.3778 -0.4754
  460MOL0     C63410   9.984  10.423   4.918 -0.3441 -0.2949  0.3070
  460MOL0     H63411  10.212  10.500   5.446  4.5662 -0.8285  1.2379
  460MOL0     H63412  10.410  10.606   5.571  0.0157 -1.0099 -1.2054
  460MOL0     H63413  10.449  11.054   5.523 -0.4822 -0.2726  4.1635
  460MOL0     H63414  10.579  10.979   5.413  0.9439  1.0929  0.3528
  460MOL0     H63415  10.661  11.141   5.580  2.5177  0.3220 -0.0138
  460MOL0     H63416  10.605  11.023   5.702 -0.3867 -1.5715 -1.2199
  460MOL0     H63417  10.737  10.858   5.654 -0.4527  0.4996  0.0147
  460MOL0     H63418  10.833  10.944   5.522  1.8847 -1.1802  1.5499
  460MOL0     H63419  10.876  11.114   5.659 -1.2615  0.1249  0.5553
  460MOL0     H63420  10.831  11.016   5.803  0.1430  2.2592  0.2046
  460MOL0     H63421  11.037  10.942   5.585 -1.0526 -1.4165 -0.2920
  460MOL0     H63422  10.992  10.832   5.719  3.8682 -0.3024  1.1369
  460MOL0     H63423  11.117  11.117   5.744 -1.2382  1.1576  1.1810
  460MOL0     H63424  11.052  11.016   5.877  0.9667 -1.8418  0.8064
  460MOL0     H63425  11.220  10.828   5.787 -1.4351 -0.1251 -0.2129
  460MOL0     H63426  11.285  10.968   5.877  0.7559 -0.2861 -0.0675
  460MOL0     H63427  11.281  10.963   5.584  0.8593  0.0448  0.1648
  460MOL0     H63428  11.340  11.099   5.669  0.3222  1.0742 -2.3809
  460MOL0     H63429  11.528  11.011   5.881 -1.0943 -1.0240  1.7370
  460MOL0     H63430  11.720  10.812   5.965  0.6025 -0.4026  0.2877
  460MOL0     H63431  11.811  10.939   5.889 -2.5587 -0.6259  3.9101
  460MOL0     H63432  11.822  10.642   5.803 -1.4979  1.1111 -0.7961
  460MOL0     H63433  11.903  10.769   5.721  1.4342 -0.0469  0.6078
  460MOL0     H63434  12.053  10.831   5.899  1.0736 -0.2202 -0.2203
  460MOL0     H63435  11.953  10.739   6.022 -1.0528 -2.4247 -0.0307
  460MOL0     H63436  12.086  10.608   5.782 -2.8125 -0.7459  0.1994
  460MOL0     H63437  12.178  10.647   5.933 -0.9270  2.0935  0.7442
  460MOL0     H63438  12.289  10.464   5.829  1.6283 -0.8462  1.1906
  460MOL0     H63439  12.536  10.291   5.906  0.2448  0.3960 -1.2394
  460MOL0     H63440  12.482  10.350   5.752  1.2570 -2.3249 -3.8156
  460MOL0     H63441  12.471  10.180   5.772 -0.5227  1.4861 -3.0772
  460MOL0     H63442  12.266   9.796   6.213 -1.3405  0.9980 -1.0431
  460MOL0     H63443  12.390   9.606   6.288  2.2071  1.2117  0.2769
  460MOL0     H63444  12.701   9.411   6.025 -0.5140 -3.7145 -3.1701
  460MOL0     H63445  12.675   9.297   6.162 -2.1609 -1.5488  1.3253
  460MOL0     H63446  12.458   9.213   6.057  2.3023 -0.1945  4.5270
  460MOL0     H63447  12.494   9.325   5.929  0.7343  2.9990  1.1238
  460MOL0     H63448  12.564   9.066   5.902 -1.1678 -0.0722  3.4666
  460MOL0     H63449  12.702   9.099   6.006  2.8036 -0.2518 -2.1452
  460MOL0     H63450  12.801   9.239   5.875 -0.1467 -0.8748  0.8034
  460MOL0     H63451  12.660   9.267   5.768 -2.9622 -2.2459  0.1637
  460MOL0     H63452  12.831   9.008   5.763 -2.7992 -3.5134  0.3976
  460MOL0     H63453  12.682   9.034   5.681  0.5557  1.2315 -1.6549
  460MOL0     H63454  12.930   9.193   5.642 -1.5138 -0.0559  1.4361
  460MOL0     H63455  12.774   9.225   5.547 -0.0671 -0.1430 -1.7726
  460MOL0     H63456  12.875   8.949   5.533 -0.4876  0.1188 -0.5476
  460MOL0     H63457  12.995   9.065   5.476  0.8175  2.2005  1.4706
  460MOL0     H63458  12.804   9.151   5.329 -0.9267  0.9062  1.8215
  460MOL0     H63459  12.695   9.025   5.395 -0.1670  0.8813  1.0039
  460MOL0     H63460  12.586   9.569   5.907 -1.5431 -0.0765 -2.2039
  460MOL0     H63461  12.489   9.783   5.844  1.4510 -0.6400  0.2879
  460MOL0     H63462  12.137  10.072   6.086  0.3566 -0.0844  0.0098
  460MOL0     H63463  11.985  10.282   6.070 -0.4327 -0.3945  0.4903
  460MOL0     H63464  10.333  10.973   5.356  3.0541 -0.5516  2.1391
  460MOL0     H63465  10.153  10.877   5.249 -1.1954 -0.7522  0.6979
  460MOL0     H63466   9.820  10.566   5.336 -2.5551 -2.5193  0.6733
  460MOL0     H63467   9.593  10.494   5.262  0.2217  3.3735 -0.7517
  460MOL0     H63468   9.602  10.200   5.146 -0.0157  0.5082 -0.0818
  460MOL0     H63469   9.479  10.273   5.247  2.4842 -0.0429  0.5319
  460MOL0     H63470   9.386  10.177   4.975  2.0514 -4.2852 -1.5713
  460MOL0     H63471   9.312  10.167   5.138 -0.0412 -2.0302 -0.6964
  460MOL0     H63472   9.398   9.933   5.055 -0.9702  1.1668  0.3798
  460MOL0     H63473   9.561   9.998   5.048  1.0705 -3.5581  0.8574
  460MOL0     H63474   9.375   9.972   5.278  0.0286 -2.3437  0.6122
  460MOL0     H63475   9.549  10.033   5.287  1.9123 -0.2577 -0.9658
  460MOL0     H63476   9.599   9.613   5.253 -0.6023 -0.8146 -1.0543
  460MOL0     H63477   9.740  10.334   4.906  0.3045  0.6989  0.4676
  460MOL0     H63478   9.929  10.419   4.824  4.3813 -0.2813 -2.8291
  460MOL0     H63479  10.042  10.516   4.922 -4.1050  2.3028 -0.6211
  460MOL0     H63480  10.058  10.342   4.918  2.0924  1.7889 -0.2961
  461MOL0     O63481   7.355   2.745   3.973  0.3628 -0.7621 -0.1707
  461MOL0     C63482   7.351   2.845   4.046 -0.0972  0.6061  0.1695
  461MOL0     O63483   7.288   2.857   4.158  0.0193  0.8797 -0.2444
  461MOL0     C63484   7.194   2.763   4.199  0.3036 -0.1811  0.3897
  461MOL0     C63485   7.175   2.758   4.335  0.4274  0.3207  0.5986
  461MOL0     C63486   7.076   2.672   4.380 -0.5914 -0.4688 -0.2757
  461MOL0     C63487   7.003   2.591   4.296 -0.2489 -0.2709 -0.1879
  461MOL0     O63488   6.912   2.513   4.357 -0.6063  0.7931  0.0991
  461MOL0     C63489   6.811   2.444   4.273 -0.4062 -0.5853 -0.0278
  461MOL0     C63490   6.701   2.532   4.225 -0.8887 -0.2906  0.4422
  461MOL0     C63491   6.606   2.444   4.146  0.0702 -0.0606  0.1778
  461MOL0     C63492   6.558   2.516   4.024 -0.2972  0.2476  0.0215
  461MOL0     C63493   6.491   2.433   3.916 -0.8734  0.6367  0.2545
  461MOL0     C63494   6.432   2.507   3.796 -0.6245 -0.5938  0.5927
  461MOL0     C63495   6.346   2.420   3.713 -0.2050  0.5121 -0.4968
  461MOL0     C63496   6.217   2.387   3.783 -0.3275 -0.2170 -0.4297
  461MOL0     N63497   6.122   2.303   3.705 -0.2057  0.4020  0.2021
  461MOL0     C63498   5.990   2.335   3.682  1.1178  0.6282 -0.1775
  461MOL0     C63499   5.934   2.219   3.650 -0.1551 -0.0756 -0.5168
  461MOL0     C63500   5.798   2.183   3.606  0.4155  0.1047  0.7368
  461MOL0     C63501   5.690   2.157   3.717 -0.4416  0.5356 -0.8552
  461MOL0     C63502   5.732   2.046   3.819  0.2404 -0.7249 -0.4626
  461MOL0     C63503   5.743   1.920   3.736  0.5244 -0.6774 -0.0785
  461MOL0     O63504   5.751   1.800   3.808  0.2859  0.7046 -0.0841
  461MOL0     C63505   5.861   1.768   3.886  1.0417 -0.6603 -0.2946
  461MOL0     C63506   5.979   1.843   3.894 -0.2904 -0.1293 -0.5482
  461MOL0     C63507   6.091   1.824   3.980  0.4696 -0.4393 -0.4574
  461MOL0     C63508   6.187   1.947   4.002  0.3424 -0.0274  0.2031
  461MOL0     C63509   6.089   1.710   4.066 -0.3653 -0.4034 -0.2638
  461MOL0     C63510   6.205   1.668   4.156  0.1087 -0.3588 -0.0868
  461MOL0     O63511   6.176   1.566   4.239 -0.0536  0.2064 -0.7981
  461MOL0     C63512   6.276   1.530   4.335  0.7464  0.0650  0.1857
  461MOL0     C63513   6.333   1.615   4.434  0.2047  0.0908  0.9256
  461MOL0     C63514   6.412   1.548   4.535 -0.1854 -0.5510  0.2036
  461MOL0     C63515   6.450   1.411   4.541  1.0480  0.4126  0.0906
  461MOL0     O63516   6.517   1.369   4.656 -0.0212 -0.2059  0.7762
  461MOL0     C63517   6.603   1.257   4.646 -0.6280  1.3917  0.3065
  461MOL0     C63518   6.679   1.221   4.773 -0.3614 -0.5588 -1.6275
  461MOL0     C63519   6.765   1.107   4.754  0.2519 -0.1449  0.5096
  461MOL0     C63520   6.773   1.008   4.870  0.2734 -0.4785 -0.2666
  461MOL0     C63521   6.893   0.921   4.873 -0.2049 -0.3711 -0.0578
  461MOL0     C63522   6.901   0.813   4.756 -0.2099 -0.3848 -0.8067
  461MOL0     C63523   7.051   0.783   4.722  0.5718  0.7327  0.5831
  461MOL0     C63524   7.058   0.638   4.658  1.0716  0.1051  0.2997
  461MOL0    Cl63525   6.943   0.607   4.514  0.1827  0.3328 -0.3647
  461MOL0     C63526   6.409   1.342   4.433  0.3943  0.0168  0.2786
  461MOL0     C63527   6.318   1.395   4.341 -0.1429  0.4723 -0.3205
  461MOL0     O63528   6.321   1.702   4.124  0.1321 -0.2106  0.0985
  461MOL0     C63529   5.966   1.633   4.061 -0.9863  0.1701  0.4132
  461MOL0     C63530   5.861   1.663   3.978  0.6855  0.9111 -0.2025
  461MOL0     N63531   6.028   2.126   3.660 -0.1999  1.5370 -0.6100
  461MOL0     N63532   6.141   2.178   3.696  0.9679  0.3776 -0.4535
  461MOL0     C63533   7.011   2.602   4.154 -0.8245  0.5393 -0.0278
  461MOL0     C63534   7.118   2.682   4.108 -0.5730  0.5528 -0.5375
  461MOL0     C63535   7.448   2.957   4.020 -0.3013 -0.6801  0.3150
  461MOL0     C63536   7.467   3.050   4.115 -0.6192 -1.1054 -0.0302
  461MOL0     C63537   7.545   3.166   4.100 -0.4504 -0.2841 -0.8151
  461MOL0     C63538   7.615   3.187   3.983  0.3427 -0.6707 -0.5035
  461MOL0     O63539   7.685   3.300   3.938  0.1275  0.7796 -0.2872
  461MOL0     C63540   7.712   3.407   4.029  0.0616 -0.7006 -0.4354
  461MOL0     C63541   7.688   3.538   3.944 -0.3372  0.0405  0.5160
  461MOL0     C63542   7.717   3.662   4.031 -0.3424  0.2439 -0.3709
  461MOL0     C63543   7.720   3.795   3.948 -0.7209  0.2608 -0.0904
  461MOL0     C63544   7.769   3.904   4.040 -0.2052 -0.0037 -0.2469
  461MOL0     C63545   7.790   4.000   4.108 -0.1781 -0.7668  0.1145
  461MOL0     C63546   7.604   3.085   3.884  0.0483 -0.9026 -0.4344
  461MOL0     C63547   7.520   2.970   3.901 -0.1279 -0.2823 -0.6690
  461MOL0     C63548   7.527   2.885   3.782 -0.5429 -0.0219  0.1675
  461MOL0     H63549   7.240   2.820   4.397  1.8139 -1.7986  1.3839
  461MOL0     H63550   7.070   2.677   4.488 -1.4241  2.0598 -0.3677
  461MOL0     H63551   6.768   2.358   4.326 -1.3356 -0.4663 -0.5762
  461MOL0     H63552   6.865   2.398   4.189  0.2472 -2.2790  1.2722
  461MOL0     H63553   6.639   2.569   4.307  0.1748 -0.4936  1.3472
  461MOL0     H63554   6.741   2.614   4.165 -0.0787  0.8672  2.4595
  461MOL0     H63555   6.648   2.349   4.113 -0.4557  0.1868 -1.2811
  461MOL0     H63556   6.522   2.414   4.210 -0.3808 -1.6137 -1.0861
  461MOL0     H63557   6.490   2.600   4.039  1.2036  1.7014 -0.9511
  461MOL0     H63558   6.646   2.557   3.974 -1.3544  0.6017 -1.6035
  461MOL0     H63559   6.418   2.362   3.956 -0.3757 -0.2461 -0.3583
  461MOL0     H63560   6.578   2.376   3.882  0.0522  1.1655  1.6593
  461MOL0     H63561   6.377   2.589   3.844  0.6903  1.0171 -0.5187
  461MOL0     H63562   6.520   2.544   3.742 -2.1826 -1.3417 -2.7109
  461MOL0     H63563   6.401   2.327   3.698  0.5227  1.0802 -1.4213
  461MOL0     H63564   6.326   2.460   3.613 -0.0845 -0.4454 -0.9061
  461MOL0     H63565   6.227   2.334   3.878  0.5765 -2.7983 -1.8793
  461MOL0     H63566   6.177   2.487   3.804 -0.0309 -0.3713  0.9495
  461MOL0     H63567   5.959   2.439   3.681 -2.4283 -0.3054  0.0747
  461MOL0     H63568   5.804   2.096   3.540  0.2882  0.3545  0.3952
  461MOL0     H63569   5.757   2.268   3.552 -1.5497 -1.9898 -1.2678
  461MOL0     H63570   5.689   2.254   3.769  0.8407 -0.3042  0.8208
  461MOL0     H63571   5.590   2.145   3.674 -1.1775  0.0276  0.9320
  461MOL0     H63572   5.827   2.084   3.857  0.2768 -3.4110  2.5186
  461MOL0     H63573   5.662   2.042   3.903  1.7555 -1.4002  0.8156
  461MOL0     H63574   5.655   1.917   3.672  0.0843  2.7265  0.1855
  461MOL0     H63575   5.828   1.926   3.667  0.6611 -1.5960  0.0003
  461MOL0     H63576   5.989   1.925   3.825  1.5574 -1.6172 -2.1644
  461MOL0     H63577   6.290   1.908   4.007  0.1374 -0.9475 -1.8428
  461MOL0     H63578   6.169   2.000   4.095  3.0530  1.7567 -0.1651
  461MOL0     H63579   6.175   2.015   3.917  1.4488 -1.4700 -1.1775
  461MOL0     H63580   6.329   1.723   4.443 -2.2054  0.3033 -1.3760
  461MOL0     H63581   6.446   1.616   4.612  2.3295 -1.2489 -0.2101
  461MOL0     H63582   6.546   1.166   4.621  1.1181 -0.2245  1.9033
  461MOL0     H63583   6.674   1.267   4.564 -0.3823  0.3477  0.3713
  461MOL0     H63584   6.737   1.304   4.813 -3.5050  1.1038 -0.1313
  461MOL0     H63585   6.604   1.203   4.851 -1.6401 -0.1556 -2.7096
  461MOL0     H63586   6.861   1.156   4.735  1.2076 -1.1049  2.6287
  461MOL0     H63587   6.744   1.055   4.660 -2.9589  2.9744 -0.7276
  461MOL0     H63588   6.686   0.942   4.863  0.5650 -0.7360 -2.0429
  461MOL0     H63589   6.768   1.051   4.970  2.6913 -1.7363  0.4807
  461MOL0     H63590   6.979   0.986   4.859  0.6207 -0.4237  3.7529
  461MOL0     H63591   6.905   0.867   4.968 -1.5321  1.7406  1.3979
  461MOL0     H63592   6.855   0.855   4.666  0.5430  0.1048 -0.9702
  461MOL0     H63593   6.857   0.720   4.793 -1.3827  0.1599 -0.7922
  461MOL0     H63594   7.116   0.798   4.809 -0.3139  1.2045  1.1831
  461MOL0     H63595   7.095   0.849   4.647 -1.8199  0.9381 -0.7249
  461MOL0     H63596   7.031   0.559   4.729  0.3544 -1.3984 -1.5466
  461MOL0     H63597   7.160   0.613   4.629  1.1074  0.0977  0.4344
  461MOL0     H63598   6.433   1.236   4.433 -0.9559 -0.3020 -0.2739
  461MOL0     H63599   6.286   1.316   4.274  2.2275 -1.1736  0.3362
  461MOL0     H63600   5.960   1.542   4.120  0.6241 -0.9754 -1.0714
  461MOL0     H63601   5.780   1.593   3.959  0.4708  1.6666 -2.4259
  461MOL0     H63602   6.960   2.539   4.083  0.7072  1.4418 -2.0452
  461MOL0     H63603   7.140   2.686   4.002  4.7964  1.2264  0.3064
  461MOL0     H63604   7.420   3.039   4.213 -2.9539 -4.1208 -1.2932
  461MOL0     H63605   7.549   3.240   4.179  0.9097 -0.6018 -0.5599
  461MOL0     H63606   7.649   3.406   4.118  0.6727 -0.0912  0.0132
  461MOL0     H63607   7.814   3.415   4.068  0.5651 -0.7746 -1.6933
  461MOL0     H63608   7.582   3.533   3.915 -0.0593 -0.1249 -0.4940
  461MOL0     H63609   7.743   3.542   3.850  2.4218  0.8136  2.0565
  461MOL0     H63610   7.638   3.666   4.107  0.4430  0.7515  0.4300
  461MOL0     H63611   7.808   3.640   4.086 -1.2564  2.0306  2.0352
  461MOL0     H63612   7.621   3.819   3.906 -0.3105 -0.9289 -1.8826
  461MOL0     H63613   7.793   3.792   3.866 -0.9659 -0.9471 -0.2795
  461MOL0     H63614   7.790   4.088   4.170  2.4894 -2.0458  2.1582
  461MOL0     H63615   7.655   3.106   3.791  1.3561  2.4447  0.9029
  461MOL0     H63616   7.575   2.927   3.694  0.1702  1.0472  1.0432
  461MOL0     H63617   7.577   2.791   3.808  3.6496  1.6575 -1.1021
  461MOL0     H63618   7.424   2.859   3.754 -0.0095 -3.9492  1.1665
  462MOL0     O63619   8.184   2.279   8.255 -0.4341 -0.0860  0.5514
  462MOL0     C63620   8.123   2.230   8.354 -0.0124 -0.3372  0.8499
  462MOL0     O63621   8.060   2.304   8.450 -0.0655  0.3733 -0.5851
  462MOL0     C63622   8.121   2.428   8.474 -0.5825 -0.3323 -0.3461
  462MOL0     C63623   8.046   2.549   8.450  0.3668 -0.4719 -0.4890
  462MOL0     C63624   8.106   2.679   8.466 -0.0736 -0.4100  0.2975
  462MOL0     C63625   8.239   2.692   8.495 -0.1115  0.1901 -0.1686
  462MOL0     O63626   8.313   2.806   8.522 -0.0241 -0.0295  0.2155
  462MOL0     C63627   8.245   2.928   8.561  0.4758 -0.3412 -0.0952
  462MOL0     C63628   8.150   2.911   8.687 -0.5274 -0.8115 -0.1771
  462MOL0     C63629   8.112   3.039   8.752  0.0146 -0.4600  0.2247
  462MOL0     C63630   8.018   2.999   8.872 -0.5094 -0.0368 -0.4128
  462MOL0     C63631   7.937   3.122   8.919 -0.5856 -0.8575 -0.9243
  462MOL0     C63632   7.818   3.078   8.994  0.0124 -0.0592  0.1417
  462MOL0     C63633   7.725   3.196   9.007 -0.3980  0.3470  0.4775
  462MOL0     C63634   7.607   3.158   9.099  0.3644 -0.3378 -0.3374
  462MOL0     N63635   7.499   3.254   9.106 -0.0320 -0.8057 -0.0351
  462MOL0     C63636   7.400   3.247   9.010  0.3615 -1.4563 -0.5305
  462MOL0     C63637   7.294   3.316   9.070 -0.4857  0.3224 -0.1297
  462MOL0     C63638   7.169   3.364   8.994  0.3808 -0.5061 -0.2365
  462MOL0     C63639   7.187   3.496   8.923 -0.4671  0.7954  0.1717
  462MOL0     C63640   7.290   3.476   8.813 -0.9784 -0.4776  0.1004
  462MOL0     C63641   7.279   3.579   8.708  0.1046  0.4275 -0.7931
  462MOL0     O63642   7.375   3.575   8.597  0.2397 -0.2967  0.0986
  462MOL0     C63643   7.391   3.695   8.533 -0.8125  0.8917 -0.0481
  462MOL0     C63644   7.519   3.757   8.523  0.3370  0.0257  0.0751
  462MOL0     C63645   7.526   3.893   8.465 -0.2198 -0.0295 -1.1768
  462MOL0     C63646   7.661   3.954   8.469  0.0312  0.3114  1.0406
  462MOL0     C63647   7.410   3.960   8.427  0.6406 -0.8187  0.8963
  462MOL0     C63648   7.406   4.101   8.377 -0.6236 -0.3440  0.7439
  462MOL0     O63649   7.531   4.152   8.324 -0.2182  0.0135  0.0009
  462MOL0     C63650   7.556   4.285   8.317 -0.0253 -0.6745  0.5839
  462MOL0     C63651   7.475   4.386   8.259 -0.4905 -0.4676 -0.0981
  462MOL0     C63652   7.520   4.518   8.261 -0.3704  0.4411  0.1564
  462MOL0     C63653   7.631   4.556   8.331 -0.4390 -0.6299 -0.3229
  462MOL0     O63654   7.673   4.686   8.339  0.5063  0.8750  0.1218
  462MOL0     C63655   7.619   4.780   8.242 -0.0809 -0.8309  0.4784
  462MOL0     C63656   7.721   4.890   8.203  0.2593 -0.1232  0.1725
  462MOL0     C63657   7.812   4.941   8.312  0.1813  0.2421 -0.3086
  462MOL0     C63658   7.914   5.048   8.264  0.6038  0.5619  0.3818
  462MOL0     C63659   7.860   5.188   8.295  0.6260 -0.2482  0.2863
  462MOL0     C63660   7.955   5.300   8.273  0.1896  0.4096 -0.0941
  462MOL0     C63661   7.937   5.405   8.381  0.3826 -0.3432 -0.4378
  462MOL0     C63662   7.932   5.551   8.319 -0.2378 -0.4179 -0.1020
  462MOL0    Cl63663   8.103   5.582   8.280 -0.4590  0.1762 -0.3187
  462MOL0     C63664   7.708   4.457   8.398  0.0562 -0.4361  0.2074
  462MOL0     C63665   7.666   4.326   8.389  0.2439  0.7398  1.2511
  462MOL0     O63666   7.297   4.165   8.381  0.2345 -0.0438 -0.5381
  462MOL0     C63667   7.285   3.888   8.431  0.2991  0.4222  0.3846
  462MOL0     C63668   7.280   3.755   8.478 -0.5776 -0.0958  0.0997
  462MOL0     N63669   7.334   3.347   9.195  0.0512 -0.0856  0.0028
  462MOL0     N63670   7.457   3.317   9.219 -1.0999  0.1699 -0.8666
  462MOL0     C63671   8.318   2.578   8.517 -0.0398  0.3542  0.3662
  462MOL0     C63672   8.256   2.453   8.502  0.4407  0.1416 -0.5573
  462MOL0     C63673   8.089   2.086   8.365  0.8963  1.1294  0.4686
  462MOL0     C63674   7.949   2.057   8.370 -1.3030  0.5604  0.0353
  462MOL0     C63675   7.902   1.924   8.379  0.7186  0.3493 -0.0083
  462MOL0     C63676   7.986   1.814   8.392 -0.0921  0.2073 -0.0517
  462MOL0     O63677   7.927   1.695   8.412 -0.5117 -0.2836  0.5703
  462MOL0     C63678   7.998   1.578   8.433  0.6065 -0.2816  0.5533
  462MOL0     C63679   7.901   1.464   8.460 -0.9403 -0.6365  0.1422
  462MOL0     C63680   7.972   1.326   8.478  0.1841 -0.9627 -0.5920
  462MOL0     C63681   8.016   1.239   8.359 -0.5596 -1.1091 -0.1853
  462MOL0     C63682   8.138   1.293   8.307 -0.0171  0.8604  0.1712
  462MOL0     C63683   8.238   1.330   8.257  0.1802  0.6008  0.6237
  462MOL0     C63684   8.122   1.844   8.380 -0.1002  0.5717  0.0690
  462MOL0     C63685   8.173   1.973   8.365 -0.5223 -0.6270 -0.4107
  462MOL0     C63686   8.319   1.996   8.341 -0.4117 -0.3249  0.4872
  462MOL0     H63687   7.944   2.530   8.418 -0.7813 -1.8636  3.3661
  462MOL0     H63688   8.039   2.761   8.442 -0.7073 -0.0462  2.9733
  462MOL0     H63689   8.182   2.973   8.484 -1.7109 -3.4449 -0.3285
  462MOL0     H63690   8.328   2.995   8.586 -1.1659  1.0996  1.7782
  462MOL0     H63691   8.061   2.861   8.648 -1.6931  1.4151 -0.5039
  462MOL0     H63692   8.199   2.847   8.761 -0.8541 -2.6396 -1.4682
  462MOL0     H63693   8.198   3.099   8.784 -0.1069 -0.1097 -0.0980
  462MOL0     H63694   8.048   3.099   8.688  0.0927  0.2343  0.7781
  462MOL0     H63695   7.952   2.915   8.850 -1.2480  0.3720  0.1973
  462MOL0     H63696   8.072   2.966   8.962 -0.1836 -3.5778 -1.7549
  462MOL0     H63697   7.911   3.195   8.842  1.0537  1.0667  0.2583
  462MOL0     H63698   8.003   3.177   8.987  1.2568  0.1451 -3.3770
  462MOL0     H63699   7.765   2.999   8.940 -0.1400 -0.8464  1.4118
  462MOL0     H63700   7.844   3.039   9.093 -2.2879 -0.4634  0.6485
  462MOL0     H63701   7.685   3.236   8.913 -2.8666 -1.1461  0.8064
  462MOL0     H63702   7.788   3.274   9.052 -0.7452 -0.4651  2.4489
  462MOL0     H63703   7.562   3.062   9.071  0.3458 -0.3740 -0.1829
  462MOL0     H63704   7.661   3.151   9.193  0.9704  1.0754 -0.5461
  462MOL0     H63705   7.409   3.215   8.907 -4.4770 -1.4075 -1.2077
  462MOL0     H63706   7.091   3.371   9.070 -0.1640 -0.0633 -0.8261
  462MOL0     H63707   7.139   3.289   8.920  0.9896 -0.2064 -0.7904
  462MOL0     H63708   7.085   3.520   8.889 -0.0166  0.5719 -1.3992
  462MOL0     H63709   7.216   3.578   8.990  3.1301  0.0813 -0.3245
  462MOL0     H63710   7.393   3.468   8.849 -0.7020 -0.2018 -0.6205
  462MOL0     H63711   7.266   3.380   8.768  0.1165 -1.3619  1.3171
  462MOL0     H63712   7.174   3.580   8.678 -0.2973 -0.0455  0.5153
  462MOL0     H63713   7.293   3.673   8.762 -1.4292  0.0200  0.3925
  462MOL0     H63714   7.602   3.703   8.569  0.6428 -0.2331 -0.7684
  462MOL0     H63715   7.644   4.055   8.508  3.1702  1.4260 -0.1439
  462MOL0     H63716   7.717   3.969   8.376  1.1886  0.0805  1.6860
  462MOL0     H63717   7.731   3.904   8.537  2.3444  1.2475 -0.5210
  462MOL0     H63718   7.390   4.344   8.206 -0.8597 -0.0025  0.1229
  462MOL0     H63719   7.460   4.588   8.203  0.7016  1.3971  0.1836
  462MOL0     H63720   7.582   4.738   8.148  0.0874  0.2145 -0.0694
  462MOL0     H63721   7.537   4.828   8.296  1.7822  1.0364  1.8368
  462MOL0     H63722   7.777   4.867   8.112  2.7692  1.1882  1.2963
  462MOL0     H63723   7.663   4.979   8.178  4.2206  2.1924 -1.6424
  462MOL0     H63724   7.862   4.854   8.354 -2.4268 -2.4648 -2.3812
  462MOL0     H63725   7.747   4.985   8.388 -1.2558 -0.0770 -1.3023
  462MOL0     H63726   7.943   5.033   8.159 -2.7566  0.8871 -0.7315
  462MOL0     H63727   8.009   5.038   8.316  0.8966  1.1560 -0.0238
  462MOL0     H63728   7.768   5.198   8.237 -0.9596 -0.7011  2.6017
  462MOL0     H63729   7.838   5.185   8.402 -0.8534 -1.1761 -0.0222
  462MOL0     H63730   7.954   5.330   8.168 -1.5869  0.0723 -0.1922
  462MOL0     H63731   8.055   5.256   8.286  0.1291 -0.3256 -1.8100
  462MOL0     H63732   8.012   5.385   8.458 -3.6301 -0.9742  3.7316
  462MOL0     H63733   7.839   5.388   8.426  0.1965 -0.0274 -0.7196
  462MOL0     H63734   7.892   5.616   8.398  0.9002 -1.8636  1.7569
  462MOL0     H63735   7.867   5.558   8.231  0.1647  0.3014 -0.3564
  462MOL0     H63736   7.798   4.479   8.455 -0.5912  2.8714  0.1673
  462MOL0     H63737   7.707   4.240   8.441  0.8037  1.1272  1.4603
  462MOL0     H63738   7.203   3.931   8.375  2.0712  0.6807 -2.1583
  462MOL0     H63739   7.193   3.692   8.464 -0.8211  0.4016 -0.7435
  462MOL0     H63740   8.423   2.593   8.536  0.8663 -1.4467 -2.5313
  462MOL0     H63741   8.321   2.368   8.520  0.3224  0.3342  0.9448
  462MOL0     H63742   7.883   2.143   8.372 -3.2959 -0.8821  2.2518
  462MOL0     H63743   7.794   1.921   8.379  0.6259  0.4106 -2.8740
  462MOL0     H63744   8.072   1.563   8.354  0.2492 -0.6782  0.2910
  462MOL0     H63745   8.063   1.577   8.521  3.7926 -1.2505 -1.6215
  462MOL0     H63746   7.842   1.465   8.367 -0.4641  0.6209 -0.1653
  462MOL0     H63747   7.834   1.487   8.543 -0.1944 -1.0740  0.8747
  462MOL0     H63748   8.055   1.340   8.547 -1.2082 -1.3752  1.2395
  462MOL0     H63749   7.888   1.265   8.512 -0.3916 -1.2492 -2.4141
  462MOL0     H63750   7.939   1.243   8.282 -2.8227 -1.4022  1.9163
  462MOL0     H63751   8.031   1.133   8.382  2.5491 -0.8151 -0.3831
  462MOL0     H63752   8.324   1.370   8.206  0.6377  0.3079  1.1570
  462MOL0     H63753   8.198   1.768   8.398  0.7130  2.0115  3.7045
  462MOL0     H63754   8.372   2.049   8.421 -0.8879  0.4575  0.2993
  462MOL0     H63755   8.369   1.901   8.319 -0.2121 -0.2399  0.5700
  462MOL0     H63756   8.322   2.051   8.247 -1.0424 -0.0080  0.6430
  463MOL0     O63757   0.558   4.999   0.420 -0.4924  0.6202 -0.1695
  463MOL0     C63758   0.545   4.919   0.517 -0.2884  0.6178  0.2848
  463MOL0     O63759   0.652   4.855   0.570  0.3717 -0.1308 -0.1935
  463MOL0     C63760   0.778   4.912   0.557  0.0309 -0.8717 -0.1582
  463MOL0     C63761   0.804   5.055   0.570  0.5562 -0.0698  0.1591
  463MOL0     C63762   0.932   5.112   0.535 -0.6924  0.7395  0.0553
  463MOL0     C63763   1.036   5.021   0.499  0.7375  0.2819 -0.7036
  463MOL0     O63764   1.156   5.083   0.470 -0.0473 -0.3323 -0.1571
  463MOL0     C63765   1.274   5.002   0.475 -0.0703  0.7344  0.4075
  463MOL0     C63766   1.405   5.084   0.465 -0.2729 -0.7646  0.0602
  463MOL0     C63767   1.380   5.229   0.535  0.4143  1.2475 -0.1884
  463MOL0     C63768   1.502   5.304   0.532  0.0025 -0.3888 -0.5560
  463MOL0     C63769   1.495   5.430   0.609  0.0177  0.3935 -0.5143
  463MOL0     C63770   1.376   5.513   0.577 -0.9355  1.1553 -0.3504
  463MOL0     C63771   1.379   5.635   0.661  0.6786 -0.1646 -0.1710
  463MOL0     C63772   1.290   5.745   0.606  0.8040 -0.0861 -0.6981
  463MOL0     N63773   1.166   5.748   0.667  0.2646 -0.0705 -0.0275
  463MOL0     C63774   1.051   5.699   0.614  0.8382  0.9144  0.4737
  463MOL0     C63775   0.959   5.714   0.722  1.0386  0.3434 -0.0412
  463MOL0     C63776   0.817   5.669   0.737  0.4038 -0.3234 -0.0212
  463MOL0     C63777   0.731   5.750   0.645 -1.0055 -1.0210  0.0213
  463MOL0     C63778   0.682   5.887   0.705  0.3878  0.5914 -0.8368
  463MOL0     C63779   0.565   5.947   0.620  0.2651 -0.4228  0.2104
  463MOL0     O63780   0.449   5.897   0.688 -0.5846  0.6147 -0.1432
  463MOL0     C63781   0.326   5.886   0.631  0.3807  0.3878  0.9655
  463MOL0     C63782   0.223   5.854   0.704 -0.4479 -0.8109 -0.1196
  463MOL0     C63783   0.088   5.854   0.662  0.1047 -1.1068 -0.3675
  463MOL0     C63784  -0.017   5.813   0.751 -0.8683  0.6779 -0.2574
  463MOL0     C63785   0.057   5.896   0.528  0.2166 -0.3990  0.6370
  463MOL0     C63786  -0.071   5.890   0.465 -0.5017  0.5266  0.1605
  463MOL0     O63787  -0.100   6.008   0.393 -0.1764  0.1466  0.1199
  463MOL0     C63788  -0.194   5.991   0.299 -0.9228 -0.5536 -0.5706
  463MOL0     C63789  -0.334   5.993   0.343  0.4725 -0.4454 -0.7864
  463MOL0     C63790  -0.431   5.991   0.245 -0.2974 -0.1519  0.2386
  463MOL0     C63791  -0.398   5.990   0.108 -0.3349 -0.1265  0.0797
  463MOL0     O63792  -0.490   5.996   0.004  0.1326 -0.0706  0.5069
  463MOL0     C63793  -0.624   6.046   0.030 -0.7481 -0.7915 -0.5696
  463MOL0     C63794  -0.716   6.039  -0.091 -0.2910  0.9204  0.7426
  463MOL0     C63795  -0.858   6.105  -0.091 -0.2333 -0.2233  0.1512
  463MOL0     C63796  -0.850   6.258  -0.102 -1.5331 -0.2784 -0.7083
  463MOL0     C63797  -0.982   6.321  -0.067  1.3051 -1.8185 -0.0900
  463MOL0     C63798  -0.964   6.480  -0.075 -1.4113  0.7824  0.9335
  463MOL0     C63799  -1.096   6.563  -0.073 -0.5506  0.4072  0.4188
  463MOL0     C63800  -1.067   6.712  -0.036  1.1526 -0.2142  0.0123
  463MOL0    Cl63801  -0.985   6.786  -0.182  0.0277  0.1088  0.1029
  463MOL0     C63802  -0.269   5.992   0.064 -0.0086 -0.9416 -1.4511
  463MOL0     C63803  -0.165   5.986   0.166 -0.4124 -0.0984  0.6516
  463MOL0     O63804  -0.137   5.790   0.460  0.2581 -0.2145 -0.1977
  463MOL0     C63805   0.164   5.937   0.451 -0.1093 -1.3047 -0.1055
  463MOL0     C63806   0.299   5.930   0.498 -0.9871 -0.0479  0.1359
  463MOL0     N63807   1.027   5.765   0.828  0.5857  0.6290  0.1487
  463MOL0     N63808   1.153   5.772   0.800  0.7030  0.5807  0.3032
  463MOL0     C63809   1.010   4.886   0.500  0.7053 -0.1038  0.0138
  463MOL0     C63810   0.884   4.826   0.539 -0.1004  0.5876  0.5185
  463MOL0     C63811   0.405   4.869   0.553 -0.5546 -0.1720  0.4818
  463MOL0     C63812   0.401   4.734   0.584  0.4075 -0.6563 -0.0195
  463MOL0     C63813   0.290   4.670   0.635 -0.2610 -0.2091 -0.0367
  463MOL0     C63814   0.166   4.746   0.638  0.1025 -0.6592 -0.4081
  463MOL0     O63815   0.044   4.698   0.670 -0.0014  0.3918  0.4134
  463MOL0     C63816   0.030   4.556   0.697 -0.4908  0.4224  0.0294
  463MOL0     C63817  -0.118   4.525   0.724  0.2345 -0.4067  0.0253
  463MOL0     C63818  -0.206   4.536   0.595  0.3428  0.2703 -0.1111
  463MOL0     C63819  -0.254   4.683   0.556 -0.4323 -0.3420 -0.5611
  463MOL0     C63820  -0.365   4.689   0.467  0.2397 -0.8366  0.6354
  463MOL0     C63821  -0.454   4.704   0.378 -0.1759 -0.5388 -0.0008
  463MOL0     C63822   0.168   4.882   0.597 -0.6479 -0.6910 -0.1302
  463MOL0     C63823   0.287   4.948   0.557 -0.3500  0.3613 -0.3696
  463MOL0     C63824   0.281   5.096   0.524  0.0737  0.8327  0.5533
  463MOL0     H63825   0.714   5.113   0.584  1.4524  1.3405  0.2870
  463MOL0     H63826   0.952   5.218   0.520 -2.0270  1.1181  0.8208
  463MOL0     H63827   1.277   4.931   0.392  3.3062 -0.4719  1.3806
  463MOL0     H63828   1.290   4.942   0.564  3.0391  0.6922 -0.0648
  463MOL0     H63829   1.495   5.028   0.491  0.2117 -1.6477 -3.0792
  463MOL0     H63830   1.415   5.104   0.358 -0.2653  0.7767  0.3323
  463MOL0     H63831   1.299   5.285   0.487  0.8923  2.3537  0.2584
  463MOL0     H63832   1.346   5.224   0.639 -1.4528  0.5017 -0.7838
  463MOL0     H63833   1.575   5.232   0.572 -1.7448 -2.1627 -0.3911
  463MOL0     H63834   1.539   5.321   0.431  1.2773 -0.0553 -0.0557
  463MOL0     H63835   1.583   5.491   0.582 -0.5453  1.5233  0.1239
  463MOL0     H63836   1.494   5.409   0.716  2.2067  0.8965 -0.3334
  463MOL0     H63837   1.373   5.527   0.468 -1.1103  0.9740 -0.3697
  463MOL0     H63838   1.288   5.454   0.602  0.6377 -0.4666  1.7239
  463MOL0     H63839   1.483   5.669   0.655  1.8655 -2.8433  2.4470
  463MOL0     H63840   1.351   5.604   0.762 -0.7602  0.0670 -0.4709
  463MOL0     H63841   1.342   5.838   0.630 -0.9596  1.5195 -2.7172
  463MOL0     H63842   1.277   5.729   0.499 -1.5495  0.7540 -0.5893
  463MOL0     H63843   1.018   5.673   0.514 -2.5901  1.1878  1.3959
  463MOL0     H63844   0.776   5.677   0.838 -2.4068  1.9514 -1.2059
  463MOL0     H63845   0.801   5.564   0.709 -1.1705 -0.5261  1.5012
  463MOL0     H63846   0.766   5.768   0.542 -0.4505  1.8034  0.6196
  463MOL0     H63847   0.634   5.700   0.642 -1.9645  0.8060 -1.2815
  463MOL0     H63848   0.646   5.869   0.807 -1.1698 -0.4085 -1.5237
  463MOL0     H63849   0.758   5.965   0.694  1.6113 -0.6166 -1.1544
  463MOL0     H63850   0.563   6.056   0.617 -1.9580 -0.3613  1.6966
  463MOL0     H63851   0.577   5.899   0.522  1.6314  1.0982 -0.4150
  463MOL0     H63852   0.250   5.821   0.804 -0.2164  1.0506  0.4658
  463MOL0     H63853  -0.103   5.880   0.766 -1.2011  0.0089  0.9923
  463MOL0     H63854   0.028   5.796   0.850  3.3033 -1.0280 -2.2156
  463MOL0     H63855  -0.049   5.714   0.718 -3.6631  2.1073 -2.2363
  463MOL0     H63856  -0.360   5.995   0.449  0.3096  0.9171 -0.8311
  463MOL0     H63857  -0.537   5.996   0.269 -0.4595 -3.1239  0.5593
  463MOL0     H63858  -0.669   5.997   0.117 -0.7940  0.7450  0.2922
  463MOL0     H63859  -0.601   6.148   0.060 -0.0143 -1.7939  2.7062
  463MOL0     H63860  -0.673   6.085  -0.180  0.1786 -1.0922 -0.1018
  463MOL0     H63861  -0.717   5.934  -0.120 -0.9525  0.9497  0.6498
  463MOL0     H63862  -0.902   6.084   0.007  2.6136 -0.6521  1.4538
  463MOL0     H63863  -0.921   6.068  -0.172  0.8134 -0.4587 -0.5843
  463MOL0     H63864  -0.834   6.279  -0.208  2.5535  1.1808  0.0110
  463MOL0     H63865  -0.772   6.292  -0.033 -1.1506 -0.2136 -1.1687
  463MOL0     H63866  -1.066   6.294  -0.131 -0.7149  1.6542  0.8583
  463MOL0     H63867  -1.017   6.300   0.034 -0.6784 -2.6137 -0.8868
  463MOL0     H63868  -0.923   6.514  -0.170  2.8181  0.1538  2.3492
  463MOL0     H63869  -0.892   6.517  -0.001  1.4640  1.1790 -1.8753
  463MOL0     H63870  -1.156   6.528   0.011 -2.3674  0.6741 -0.7172
  463MOL0     H63871  -1.149   6.560  -0.169  0.7466  1.3401 -0.3529
  463MOL0     H63872  -1.000   6.727   0.049 -3.0043  2.5414  3.2555
  463MOL0     H63873  -1.157   6.765  -0.001 -0.7521 -3.2155  0.0169
  463MOL0     H63874  -0.246   5.988  -0.042 -0.9121 -0.3337 -1.6789
  463MOL0     H63875  -0.063   5.983   0.128 -1.0909  0.9617 -1.4289
  463MOL0     H63876   0.152   5.968   0.348  0.2932 -2.9525 -0.6759
  463MOL0     H63877   0.381   5.952   0.431  0.2542 -1.2666  1.2046
  463MOL0     H63878   1.082   4.807   0.481 -0.1107 -0.5422 -1.4054
  463MOL0     H63879   0.860   4.722   0.519  0.4389  0.2555  1.5517
  463MOL0     H63880   0.486   4.672   0.560  0.3952 -1.3861  1.6797
  463MOL0     H63881   0.302   4.566   0.661  1.5571 -0.4736 -1.6501
  463MOL0     H63882   0.073   4.501   0.614  0.7842  0.0660  0.8958
  463MOL0     H63883   0.082   4.530   0.790 -3.0910  1.4556  1.9171
  463MOL0     H63884  -0.152   4.593   0.802  2.3624  1.8157 -0.8767
  463MOL0     H63885  -0.136   4.421   0.754 -0.2364  0.3065  2.4645
  463MOL0     H63886  -0.160   4.498   0.503  1.8152  3.7033 -0.9714
  463MOL0     H63887  -0.293   4.477   0.624 -0.0224  0.6341 -0.4484
  463MOL0     H63888  -0.164   4.725   0.511  0.5366  1.0519  2.4090
  463MOL0     H63889  -0.266   4.739   0.649  3.7406  0.9372 -0.5878
  463MOL0     H63890  -0.533   4.712   0.306  0.5996 -0.1765 -0.8285
  463MOL0     H63891   0.086   4.950   0.621 -0.1785 -0.8988  2.2301
  463MOL0     H63892   0.372   5.124   0.578  1.8732 -2.5167 -0.4760
  463MOL0     H63893   0.294   5.118   0.418 -1.9159 -1.5361 -0.2754
  463MOL0     H63894   0.197   5.141   0.578  1.1395  3.4463  0.1796
  464MOL0     O63895   5.664   2.112   2.366  0.7676 -0.0955  0.6332
  464MOL0     C63896   5.550   2.087   2.374 -0.2632  0.7167  0.0777
  464MOL0     O63897   5.494   1.987   2.306 -0.6832 -0.2385  0.3159
  464MOL0     C63898   5.561   1.877   2.248 -0.4274  0.6778  0.1229
  464MOL0     C63899   5.686   1.824   2.289 -0.0009 -0.2697  0.0507
  464MOL0     C63900   5.741   1.699   2.243 -0.2688 -0.0923 -0.4121
  464MOL0     C63901   5.655   1.617   2.166 -0.9266 -0.9164  0.5173
  464MOL0     O63902   5.709   1.497   2.125  0.1352  0.0521  0.3818
  464MOL0     C63903   5.671   1.455   1.989  1.1850 -0.1867 -0.6195
  464MOL0     C63904   5.585   1.330   1.995 -0.2062 -0.7699 -0.5223
  464MOL0     C63905   5.577   1.279   1.854  0.4376 -0.7450  0.1535
  464MOL0     C63906   5.479   1.370   1.760 -0.2560  0.1814 -0.8615
  464MOL0     C63907   5.479   1.296   1.627 -0.1341 -0.3866 -1.2337
  464MOL0     C63908   5.372   1.187   1.627  0.0909  0.3525 -0.2707
  464MOL0     C63909   5.359   1.132   1.485  0.4686  0.2355 -1.0835
  464MOL0     C63910   5.246   1.223   1.409  0.2680  0.8743  0.0023
  464MOL0     N63911   5.247   1.207   1.264  0.6395  0.4989 -0.2353
  464MOL0     C63912   5.301   1.291   1.164 -0.4645  0.6131 -0.0960
  464MOL0     C63913   5.287   1.225   1.047 -0.3737  1.0524  0.0217
  464MOL0     C63914   5.364   1.257   0.924 -0.0021 -0.8526 -0.4046
  464MOL0     C63915   5.514   1.237   0.942 -1.0870  0.1254  0.4215
  464MOL0     C63916   5.552   1.093   0.938 -0.0503 -0.0935  0.0483
  464MOL0     C63917   5.703   1.082   0.924 -0.1836  0.4974  0.1230
  464MOL0     O63918   5.744   1.116   0.794  0.1138  0.0470 -0.2850
  464MOL0     C63919   5.876   1.142   0.774 -0.3637 -0.3383  0.7127
  464MOL0     C63920   5.913   1.186   0.644 -0.2244  0.0227 -0.2666
  464MOL0     C63921   6.050   1.208   0.603  0.6276 -0.1202 -0.0470
  464MOL0     C63922   6.065   1.261   0.467 -0.6672 -0.5184 -0.0913
  464MOL0     C63923   6.146   1.200   0.705 -0.1706  0.1256  0.1824
  464MOL0     C63924   6.285   1.234   0.690 -0.5902 -0.6648 -0.0666
  464MOL0     O63925   6.365   1.262   0.805  0.9533 -0.4628 -0.3049
  464MOL0     C63926   6.490   1.319   0.794  0.6156  0.1544 -0.2273
  464MOL0     C63927   6.507   1.444   0.738  0.8215  0.4124  0.0507
  464MOL0     C63928   6.636   1.514   0.738  1.0458  0.8013  0.3060
  464MOL0     C63929   6.738   1.456   0.805  0.3814  0.4099  0.2169
  464MOL0     O63930   6.847   1.530   0.829  0.3717  0.8089 -0.4587
  464MOL0     C63931   6.967   1.494   0.765  0.6326 -0.7821  1.4832
  464MOL0     C63932   7.062   1.461   0.871 -0.5615 -1.4257  0.7515
  464MOL0     C63933   7.193   1.401   0.822  0.4812  0.2442  0.1862
  464MOL0     C63934   7.298   1.399   0.935  0.2467 -0.1569 -0.1742
  464MOL0     C63935   7.425   1.318   0.911 -0.1552  1.4392  0.2647
  464MOL0     C63936   7.509   1.346   0.792  0.1753  1.5865 -0.1863
  464MOL0     C63937   7.648   1.405   0.835  0.3910  0.0501  0.6216
  464MOL0     C63938   7.743   1.306   0.893 -0.4019 -0.2739  0.2550
  464MOL0    Cl63939   7.884   1.401   0.952 -0.5520  0.1301 -0.2111
  464MOL0     C63940   6.722   1.331   0.863  0.3765 -0.1814 -0.3511
  464MOL0     C63941   6.599   1.256   0.856 -0.9797  0.3675 -0.1210
  464MOL0     O63942   6.338   1.228   0.583  0.3401  0.0642  0.0064
  464MOL0     C63943   6.110   1.155   0.833 -0.5332  0.6266 -0.9163
  464MOL0     C63944   5.980   1.115   0.866 -0.1819  0.3688  0.1722
  464MOL0     N63945   5.227   1.106   1.078 -0.1618 -0.3978 -0.4716
  464MOL0     N63946   5.203   1.097   1.202 -0.4686 -0.0795  0.7989
  464MOL0     C63947   5.534   1.671   2.132  0.1595 -0.9422  0.9490
  464MOL0     C63948   5.484   1.791   2.168  0.2146 -1.1501 -0.1601
  464MOL0     C63949   5.457   2.175   2.446  0.0821  0.3840  0.2473
  464MOL0     C63950   5.315   2.169   2.418  0.1304 -0.7224 -0.7674
  464MOL0     C63951   5.223   2.242   2.493  0.3253  0.2310  0.5324
  464MOL0     C63952   5.259   2.344   2.584  0.4149 -0.5178 -0.3978
  464MOL0     O63953   5.159   2.423   2.640 -0.3535 -0.1540  0.1981
  464MOL0     C63954   5.200   2.544   2.705 -0.2577  0.3906  0.5625
  464MOL0     C63955   5.078   2.623   2.749 -0.1536  0.0434  0.1408
  464MOL0     C63956   4.993   2.657   2.632  0.3193 -0.1694  1.0899
  464MOL0     C63957   4.866   2.723   2.670 -0.0528 -1.0822 -0.5115
  464MOL0     C63958   4.880   2.855   2.732  0.0314 -0.0695 -0.3261
  464MOL0     C63959   4.898   2.963   2.777  0.6710 -0.2883  0.0696
  464MOL0     C63960   5.393   2.361   2.600 -0.2461  0.8738  0.0746
  464MOL0     C63961   5.494   2.280   2.537 -0.0247 -0.0397  0.4575
  464MOL0     C63962   5.644   2.319   2.560  0.6040 -0.5084  0.2076
  464MOL0     H63963   5.752   1.892   2.341 -0.4101 -1.0801  1.6896
  464MOL0     H63964   5.840   1.668   2.274 -0.4571 -0.3383 -0.0509
  464MOL0     H63965   5.758   1.434   1.926  1.8232  0.4744  0.0203
  464MOL0     H63966   5.612   1.528   1.932  0.5932 -0.3654 -0.2346
  464MOL0     H63967   5.631   1.252   2.057 -0.4336  2.5372  4.4075
  464MOL0     H63968   5.487   1.343   2.042  0.7306 -1.4725  1.7568
  464MOL0     H63969   5.674   1.282   1.804 -1.2171 -1.0774 -3.3516
  464MOL0     H63970   5.554   1.172   1.854  0.7888 -0.8289  1.3023
  464MOL0     H63971   5.379   1.373   1.804  0.2361 -0.9809  0.4155
  464MOL0     H63972   5.512   1.473   1.750 -0.5691  0.2819 -0.8743
  464MOL0     H63973   5.576   1.253   1.600 -0.7457 -1.6734 -1.4459
  464MOL0     H63974   5.449   1.363   1.546  0.7953 -0.8803 -1.9963
  464MOL0     H63975   5.398   1.103   1.692  1.1395 -0.4144 -1.6087
  464MOL0     H63976   5.278   1.227   1.666  0.4621 -0.6559  1.7636
  464MOL0     H63977   5.324   1.029   1.476  1.0949 -0.1836  0.8238
  464MOL0     H63978   5.457   1.134   1.436 -0.6542 -2.1188 -3.7377
  464MOL0     H63979   5.145   1.196   1.441  0.3233  1.2134  0.4887
  464MOL0     H63980   5.257   1.329   1.436 -3.4888  1.2210  0.7939
  464MOL0     H63981   5.336   1.394   1.170 -3.1105  1.7686 -2.3623
  464MOL0     H63982   5.354   1.359   0.887 -2.0440 -1.1401 -0.7609
  464MOL0     H63983   5.327   1.190   0.846  2.0814 -0.4362 -1.8485
  464MOL0     H63984   5.557   1.301   0.865 -0.2256  0.5156  1.1988
  464MOL0     H63985   5.551   1.274   1.038  1.1100  0.3925 -0.4747
  464MOL0     H63986   5.514   1.050   1.031  0.0793  1.3804  0.8200
  464MOL0     H63987   5.499   1.043   0.857  1.7918  0.0936 -1.3364
  464MOL0     H63988   5.748   1.161   0.984  0.2444  2.0758 -2.1534
  464MOL0     H63989   5.730   0.980   0.953  1.4320  1.3899  1.9215
  464MOL0     H63990   5.828   1.199   0.578  0.1339  1.9723 -0.3964
  464MOL0     H63991   6.149   1.330   0.451 -0.9966 -0.0065  0.3604
  464MOL0     H63992   5.980   1.315   0.424  0.6591  1.4341 -0.4185
  464MOL0     H63993   6.091   1.175   0.405  0.6599 -0.2217  0.0166
  464MOL0     H63994   6.424   1.492   0.687 -1.4627 -1.6077  1.5986
  464MOL0     H63995   6.637   1.609   0.686  0.5837  0.0250 -1.2225
  464MOL0     H63996   6.956   1.408   0.698  2.1407 -1.6807  2.3220
  464MOL0     H63997   7.001   1.577   0.702 -2.2222  1.2020  2.3839
  464MOL0     H63998   7.091   1.560   0.908 -1.0772 -1.3345  0.9233
  464MOL0     H63999   7.016   1.399   0.948 -3.2812  1.6295  1.7959
  464MOL0     H64000   7.219   1.447   0.726 -1.8331  1.9312  0.2882
  464MOL0     H64001   7.187   1.294   0.799  1.6620  0.6733 -2.5483
  464MOL0     H64002   7.254   1.363   1.028 -1.7552 -1.1336 -1.4332
  464MOL0     H64003   7.333   1.500   0.959 -1.0630  0.5884 -1.2372
  464MOL0     H64004   7.483   1.305   1.003  1.0565 -1.0243 -0.7567
  464MOL0     H64005   7.394   1.215   0.892  0.7533  1.1874  0.1091
  464MOL0     H64006   7.461   1.422   0.730  0.7114  2.1977  0.1390
  464MOL0     H64007   7.526   1.253   0.737 -0.9444  3.0124 -3.1555
  464MOL0     H64008   7.631   1.466   0.925 -0.8375 -2.5818  2.3042
  464MOL0     H64009   7.700   1.463   0.759 -3.3808  1.0923 -1.4369
  464MOL0     H64010   7.778   1.239   0.814  3.1160 -1.0119  2.2399
  464MOL0     H64011   7.700   1.247   0.974  1.1613  2.2814  3.1293
  464MOL0     H64012   6.811   1.290   0.909 -0.4408 -1.4171  0.1906
  464MOL0     H64013   6.583   1.162   0.907 -2.9060  1.3872  1.2869
  464MOL0     H64014   6.181   1.160   0.915  2.0212 -0.3964 -2.9300
  464MOL0     H64015   5.967   1.061   0.959 -0.2203 -1.6043 -0.9337
  464MOL0     H64016   5.465   1.609   2.076  1.8280 -1.1507 -0.9878
  464MOL0     H64017   5.381   1.821   2.153  0.5613 -0.3013 -0.8814
  464MOL0     H64018   5.274   2.108   2.338 -4.2268  0.9608 -0.0539
  464MOL0     H64019   5.117   2.235   2.472  0.0842 -1.2704  2.0323
  464MOL0     H64020   5.257   2.518   2.794 -0.8027  1.6378  1.2940
  464MOL0     H64021   5.267   2.606   2.644  2.8814  1.3190  4.5346
  464MOL0     H64022   5.100   2.720   2.794 -2.8050  0.5226  0.6052
  464MOL0     H64023   5.022   2.568   2.825  2.0650 -0.4983  1.4820
  464MOL0     H64024   5.044   2.727   2.565  0.9174 -1.1391  0.5065
  464MOL0     H64025   4.963   2.571   2.572 -0.1699  0.3583  0.5673
  464MOL0     H64026   4.799   2.657   2.726  0.3717 -3.9602 -3.1345
  464MOL0     H64027   4.815   2.738   2.574 -1.2482  0.3821  0.3181
  464MOL0     H64028   4.926   3.054   2.827  1.4678 -0.1588 -0.5937
  464MOL0     H64029   5.437   2.431   2.671 -0.3487  3.0316 -1.8869
  464MOL0     H64030   5.696   2.235   2.609 -2.0266 -1.2134  2.0243
  464MOL0     H64031   5.690   2.333   2.462 -0.0243  1.1649  0.1274
  464MOL0     H64032   5.654   2.410   2.619  1.7445  0.9538 -2.1155
  465MOL0     O64033   3.536   0.828   5.448 -0.7028 -0.2387  0.4375
  465MOL0     C64034   3.551   0.796   5.562  0.2360 -0.5386 -0.0675
  465MOL0     O64035   3.481   0.700   5.625  0.4050  0.7397 -0.2488
  465MOL0     C64036   3.386   0.620   5.568 -0.4115 -0.0791  0.3775
  465MOL0     C64037   3.314   0.558   5.663 -0.0634 -0.0545  0.6744
  465MOL0     C64038   3.206   0.473   5.626  0.0975  0.0814 -0.6698
  465MOL0     C64039   3.173   0.459   5.487 -0.1209  0.4280  1.1276
  465MOL0     O64040   3.081   0.364   5.444 -0.0298 -0.3516 -0.2665
  465MOL0     C64041   3.011   0.400   5.333  0.0063  0.0538 -0.1505
  465MOL0     C64042   2.878   0.315   5.344  0.0707 -0.2832 -0.3164
  465MOL0     C64043   2.777   0.352   5.228 -0.9413  0.1366  0.7221
  465MOL0     C64044   2.645   0.266   5.220 -0.3166 -1.1374 -0.3793
  465MOL0     C64045   2.578   0.305   5.090 -0.2781  0.2078 -0.6479
  465MOL0     C64046   2.442   0.240   5.096  0.3502 -0.7048  0.4239
  465MOL0     C64047   2.354   0.291   4.980  0.7215  0.1237 -0.1064
  465MOL0     C64048   2.228   0.194   4.974 -0.1734 -0.8014  0.0853
  465MOL0     N64049   2.160   0.202   4.850 -0.0313 -0.1134  0.2051
  465MOL0     C64050   2.032   0.253   4.831 -0.7329 -0.3530  0.0787
  465MOL0     C64051   2.000   0.221   4.706  0.5696  0.2961 -0.2446
  465MOL0     C64052   1.867   0.250   4.658  0.6884  0.5721  0.2087
  465MOL0     C64053   1.748   0.185   4.735 -0.3190 -0.4898  0.0524
  465MOL0     C64054   1.618   0.233   4.674 -0.4026  0.6411  0.2081
  465MOL0     C64055   1.505   0.185   4.762 -0.1574  1.0069  0.1256
  465MOL0     O64056   1.378   0.184   4.687  0.3888 -0.6179 -0.2498
  465MOL0     C64057   1.281   0.103   4.740  0.1207 -0.3098  0.0933
  465MOL0     C64058   1.201   0.030   4.660 -0.0003 -0.0790 -0.2796
  465MOL0     C64059   1.109  -0.059   4.709 -0.1583 -0.8735  0.6541
  465MOL0     C64060   1.032  -0.141   4.609  0.9580  0.1462  1.1675
  465MOL0     C64061   1.090  -0.061   4.847  0.5071  0.3911 -0.6042
  465MOL0     C64062   0.995  -0.155   4.914 -0.1765 -0.4923  0.0623
  465MOL0     O64063   0.951  -0.098   5.027  0.3267  0.3079  0.4400
  465MOL0     C64064   0.873  -0.155   5.132  0.0962  0.2385 -0.2040
  465MOL0     C64065   0.897  -0.295   5.171  0.7433 -0.3479  0.5206
  465MOL0     C64066   0.829  -0.354   5.283  0.8287  1.0565 -0.3974
  465MOL0     C64067   0.733  -0.276   5.352  0.1523  0.3916 -0.3561
  465MOL0     O64068   0.665  -0.319   5.465  0.0035 -0.2856  0.8416
  465MOL0     C64069   0.591  -0.442   5.466 -0.2544  0.4807 -0.4514
  465MOL0     C64070   0.443  -0.400   5.431  1.1495 -0.2992  0.9888
  465MOL0     C64071   0.436  -0.375   5.273 -0.5111  1.4961  0.4233
  465MOL0     C64072   0.289  -0.352   5.234 -0.1618 -0.0549 -0.1974
  465MOL0     C64073   0.257  -0.334   5.082 -0.5186 -0.3273  0.4244
  465MOL0     C64074   0.099  -0.334   5.055  0.4142 -0.2021 -0.2249
  465MOL0     C64075   0.050  -0.355   4.912 -0.2403 -0.4810  0.2966
  465MOL0     C64076   0.124  -0.278   4.811 -0.2398 -0.5044 -0.6869
  465MOL0    Cl64077   0.218  -0.387   4.710 -0.0967 -0.4195 -0.1234
  465MOL0     C64078   0.704  -0.145   5.313 -0.1627  0.3487  0.2762
  465MOL0     C64079   0.767  -0.085   5.202 -0.4616  0.4722 -0.7932
  465MOL0     O64080   0.978  -0.272   4.879  0.4607 -0.0867  0.3288
  465MOL0     C64081   1.159   0.024   4.929 -0.3701  0.5239  0.3429
  465MOL0     C64082   1.251   0.108   4.874 -1.2960 -0.1146 -0.7098
  465MOL0     N64083   2.111   0.165   4.644  0.1581  0.0874  0.4476
  465MOL0     N64084   2.210   0.162   4.732  0.1238  0.3434 -0.4014
  465MOL0     C64085   3.254   0.518   5.393 -0.0225 -1.2386  0.6763
  465MOL0     C64086   3.358   0.606   5.426 -0.1705 -0.3265 -1.1936
  465MOL0     C64087   3.633   0.869   5.666  0.5890  0.0243 -0.2032
  465MOL0     C64088   3.671   0.803   5.787  0.0751 -0.2605  0.0403
  465MOL0     C64089   3.752   0.870   5.880 -0.2968 -0.5304  0.0457
  465MOL0     C64090   3.792   1.002   5.869  0.0929  0.6515  0.4213
  465MOL0     O64091   3.872   1.050   5.966 -0.2268  0.9760 -0.3074
  465MOL0     C64092   3.923   1.178   5.948  0.1488  0.1253  0.2097
  465MOL0     C64093   4.011   1.222   6.068 -0.3597  0.0670 -0.2818
  465MOL0     C64094   4.130   1.132   6.106 -0.5011  0.1738  0.5718
  465MOL0     C64095   4.221   1.184   6.222  0.2360 -0.4863  0.0594
  465MOL0     C64096   4.285   1.072   6.294 -0.2797 -0.1597 -0.0724
  465MOL0     C64097   4.338   0.985   6.350  0.2743  0.9719  0.4808
  465MOL0     C64098   3.756   1.064   5.749 -0.0272  0.0586 -0.1370
  465MOL0     C64099   3.669   1.000   5.652  0.1498 -0.2341 -0.2845
  465MOL0     C64100   3.629   1.082   5.537 -0.2260 -0.5102 -0.4982
  465MOL0     H64101   3.313   0.579   5.769  3.2292 -0.1228  0.8304
  465MOL0     H64102   3.151   0.426   5.706  1.8649 -0.8660  0.0372
  465MOL0     H64103   3.068   0.370   5.244  0.3617 -0.4727  0.2506
  465MOL0     H64104   2.988   0.507   5.328  2.2941  0.5629 -1.1502
  465MOL0     H64105   2.904   0.209   5.349  1.4549 -0.0589 -1.8224
  465MOL0     H64106   2.827   0.335   5.439  0.7344 -0.7915  0.1529
  465MOL0     H64107   2.761   0.458   5.249  0.8472  0.0588  2.9759
  465MOL0     H64108   2.832   0.341   5.135 -0.2150 -0.1818  1.1827
  465MOL0     H64109   2.664   0.159   5.226 -1.4611 -1.7177 -4.4483
  465MOL0     H64110   2.579   0.282   5.306 -0.5773  0.2170 -0.7982
  465MOL0     H64111   2.648   0.275   5.012  3.4128  3.3420  1.0661
  465MOL0     H64112   2.569   0.414   5.080 -0.8185  0.2826  0.4250
  465MOL0     H64113   2.461   0.134   5.083 -2.4490 -0.9425 -3.1164
  465MOL0     H64114   2.388   0.266   5.188  2.9227  4.7886  0.8099
  465MOL0     H64115   2.406   0.296   4.884 -0.7945 -0.5183 -1.0019
  465MOL0     H64116   2.320   0.391   5.008 -1.0542 -0.2357 -0.8725
  465MOL0     H64117   2.262   0.092   4.995  1.0417 -0.2805  0.7621
  465MOL0     H64118   2.155   0.216   5.052 -2.5856 -2.8306 -1.4644
  465MOL0     H64119   1.976   0.303   4.910  1.7484 -0.4722  2.0622
  465MOL0     H64120   1.866   0.194   4.564  2.7518 -1.6231  1.3843
  465MOL0     H64121   1.853   0.357   4.643  1.2417  0.8504  1.5893
  465MOL0     H64122   1.750   0.076   4.726 -2.6692 -0.5138 -0.9698
  465MOL0     H64123   1.751   0.222   4.838  0.3424 -1.1504  0.2742
  465MOL0     H64124   1.616   0.340   4.655  2.4182  0.7000 -0.2939
  465MOL0     H64125   1.610   0.195   4.571  1.8952 -0.5649  0.3856
  465MOL0     H64126   1.537   0.084   4.789 -2.1473  0.4538  0.6308
  465MOL0     H64127   1.501   0.246   4.853  1.2763 -0.6392  1.3440
  465MOL0     H64128   1.220   0.038   4.554  0.7442 -3.3103 -0.4774
  465MOL0     H64129   1.061  -0.245   4.629 -1.5302 -0.5689  1.3109
  465MOL0     H64130   1.044  -0.110   4.505  2.3754  0.2388  1.3405
  465MOL0     H64131   0.928  -0.133   4.641  1.2656  3.1373  1.7296
  465MOL0     H64132   0.952  -0.373   5.119  0.2655  0.3124 -1.0300
  465MOL0     H64133   0.859  -0.451   5.322  2.4626  2.5508  2.4193
  465MOL0     H64134   0.633  -0.521   5.404 -2.0200  0.5242 -1.7957
  465MOL0     H64135   0.595  -0.482   5.567  0.2021 -0.1849 -0.7257
  465MOL0     H64136   0.363  -0.470   5.455  0.7595 -1.2152 -2.4674
  465MOL0     H64137   0.426  -0.301   5.473 -0.1317  0.0352 -0.2766
  465MOL0     H64138   0.453  -0.472   5.226  0.5392  0.7315  2.2344
  465MOL0     H64139   0.501  -0.294   5.237 -2.4637  2.9382  0.0035
  465MOL0     H64140   0.265  -0.255   5.277  1.3892  1.1860 -1.9879
  465MOL0     H64141   0.221  -0.428   5.274  0.7018 -2.3413 -2.7590
  465MOL0     H64142   0.310  -0.245   5.049 -1.8857 -0.3138 -1.9494
  465MOL0     H64143   0.297  -0.422   5.031 -0.2106 -1.0100  1.7981
  465MOL0     H64144   0.069  -0.237   5.095  1.5141  1.8476 -3.8345
  465MOL0     H64145   0.076  -0.424   5.112 -2.0017  1.1114  1.0217
  465MOL0     H64146  -0.058  -0.340   4.914 -0.3572  0.1683 -3.4456
  465MOL0     H64147   0.064  -0.461   4.892  3.4910  0.5216 -3.9184
  465MOL0     H64148   0.194  -0.211   4.863  0.0400 -2.9752  2.4750
  465MOL0     H64149   0.054  -0.218   4.753  1.3750  0.2826 -1.9021
  465MOL0     H64150   0.631  -0.089   5.370  0.6247  1.0767  0.5986
  465MOL0     H64151   0.747   0.017   5.170  4.0386  1.5680 -0.6903
  465MOL0     H64152   1.138   0.035   5.035 -1.7186 -3.1276  0.6128
  465MOL0     H64153   1.318   0.154   4.946 -0.4443 -2.2351 -0.0847
  465MOL0     H64154   3.235   0.504   5.287  1.8170 -0.1527  0.1558
  465MOL0     H64155   3.421   0.646   5.348 -1.0299  0.4547 -1.5092
  465MOL0     H64156   3.642   0.700   5.805 -2.9438  0.1670 -1.7066
  465MOL0     H64157   3.790   0.813   5.964 -0.7676 -2.8089 -1.2150
  465MOL0     H64158   3.986   1.195   5.860  2.5287  0.6565  1.9183
  465MOL0     H64159   3.834   1.241   5.941 -3.6561 -4.6860  0.0484
  465MOL0     H64160   3.952   1.221   6.161  0.6762  2.1844  0.4713
  465MOL0     H64161   4.059   1.319   6.052 -3.2905  1.9752  1.4850
  465MOL0     H64162   4.079   1.045   6.148 -1.0241  1.2444  2.2251
  465MOL0     H64163   4.190   1.108   6.018  0.9002  1.5633  1.1015
  465MOL0     H64164   4.161   1.240   6.294  0.7060  0.1196 -0.0170
  465MOL0     H64165   4.307   1.236   6.179  0.7749 -0.0764  1.6033
  465MOL0     H64166   4.384   0.896   6.390  3.4018  2.6774  1.0176
  465MOL0     H64167   3.798   1.163   5.739 -1.3081  0.7891  1.3194
  465MOL0     H64168   3.526   1.062   5.506 -0.1612  0.2451 -1.2513
  465MOL0     H64169   3.626   1.187   5.568  2.4773 -0.8490  1.2145
  465MOL0     H64170   3.682   1.059   5.444 -0.2915 -0.0341 -0.6535
  466MOL0     O64171   9.880   9.714   0.465  0.2264 -0.6394  0.5814
  466MOL0     C64172   9.960   9.800   0.444  1.0044 -0.2791  1.0198
  466MOL0     O64173  10.005   9.843   0.323  0.0593  0.0891  0.3032
  466MOL0     C64174  10.031   9.753   0.217  0.6740 -0.5874 -0.4023
  466MOL0     C64175  10.029   9.614   0.228 -0.3161  0.1156 -0.8488
  466MOL0     C64176  10.062   9.532   0.117 -0.6189 -0.8682 -0.7691
  466MOL0     C64177  10.091   9.592  -0.008 -0.1490 -0.0429  1.1005
  466MOL0     O64178  10.100   9.528  -0.128 -0.0456 -0.3349 -0.2353
  466MOL0     C64179  10.082   9.386  -0.140  0.1452 -0.3858  0.7222
  466MOL0     C64180  10.132   9.332  -0.269  0.0655 -0.2850  0.0989
  466MOL0     C64181  10.038   9.356  -0.387 -0.6951 -0.1092  0.1702
  466MOL0     C64182  10.096   9.323  -0.521 -0.2983  0.7983  0.1306
  466MOL0     C64183  10.119   9.176  -0.545 -1.3482 -0.1839  0.8274
  466MOL0     C64184  10.161   9.139  -0.686  0.5990 -0.4253  0.0842
  466MOL0     C64185  10.276   9.040  -0.696 -0.6033 -0.5498  0.3085
  466MOL0     C64186  10.226   8.896  -0.738 -0.4082  0.2281 -0.6217
  466MOL0     N64187  10.327   8.788  -0.731  0.0888 -0.3638  0.4426
  466MOL0     C64188  10.394   8.744  -0.843  0.6016 -0.6048 -0.0104
  466MOL0     C64189  10.443   8.624  -0.803 -1.2543 -0.0974  0.7452
  466MOL0     C64190  10.533   8.541  -0.889 -0.3955 -0.3927 -0.2268
  466MOL0     C64191  10.559   8.393  -0.844 -0.6956  0.0553  0.8292
  466MOL0     C64192  10.604   8.300  -0.959 -0.1627 -0.5643 -0.2678
  466MOL0     C64193  10.647   8.163  -0.906 -0.2292  0.0769  0.9449
  466MOL0     O64194  10.751   8.162  -0.805 -0.5750 -0.0194  0.4132
  466MOL0     C64195  10.887   8.149  -0.832 -0.8074 -0.3401  0.8417
  466MOL0     C64196  10.941   8.131  -0.963  0.0239  0.2545  0.0070
  466MOL0     C64197  11.076   8.112  -0.986 -0.4061  0.1147 -0.1925
  466MOL0     C64198  11.116   8.109  -1.129 -0.2795  0.4720 -0.5669
  466MOL0     C64199  11.171   8.111  -0.876  0.5662  0.3275  0.0341
  466MOL0     C64200  11.315   8.086  -0.871 -0.5087  0.2241 -0.2637
  466MOL0     O64201  11.372   8.045  -0.757 -0.4287 -0.2080  0.3418
  466MOL0     C64202  11.504   8.013  -0.756  0.6157  0.1874 -0.4151
  466MOL0     C64203  11.545   7.889  -0.791 -1.2382 -0.0249 -0.1216
  466MOL0     C64204  11.685   7.853  -0.776  0.4058 -0.6671  0.1976
  466MOL0     C64205  11.775   7.945  -0.731 -0.3205 -0.3196 -0.2896
  466MOL0     O64206  11.909   7.921  -0.703 -0.2365  0.2349 -0.5523
  466MOL0     C64207  11.956   7.781  -0.715  0.1224 -1.0507  0.5768
  466MOL0     C64208  12.102   7.763  -0.675  0.1944  0.9802  0.4307
  466MOL0     C64209  12.211   7.797  -0.784 -0.1365 -0.3700  0.4876
  466MOL0     C64210  12.352   7.767  -0.726 -0.0655 -0.6566  0.0212
  466MOL0     C64211  12.463   7.791  -0.820 -0.3004  0.1964 -0.3569
  466MOL0     C64212  12.581   7.694  -0.798 -0.5471 -1.3137  0.7858
  466MOL0     C64213  12.707   7.721  -0.893  0.1127  0.1333  0.0610
  466MOL0     C64214  12.706   7.640  -1.024  0.6252 -0.1452 -0.4714
  466MOL0    Cl64215  12.575   7.717  -1.123 -0.3683 -0.4155 -0.1260
  466MOL0     C64216  11.727   8.068  -0.691 -0.2045  0.0247 -0.6409
  466MOL0     C64217  11.595   8.102  -0.701 -1.3545 -0.4552  0.0624
  466MOL0     O64218  11.378   8.111  -0.974  0.1284  0.2757 -0.1537
  466MOL0     C64219  11.109   8.130  -0.748  0.4158 -0.4249 -0.4554
  466MOL0     C64220  10.972   8.145  -0.727 -0.9732 -0.2238 -0.1458
  466MOL0     N64221  10.401   8.599  -0.672  0.4091 -0.5308 -0.2899
  466MOL0     N64222  10.344   8.699  -0.631 -0.0815  0.7005 -0.3126
  466MOL0     C64223  10.075   9.737  -0.021 -0.6686  0.1867 -0.7724
  466MOL0     C64224  10.052   9.819   0.089  0.3028  1.0436 -0.7795
  466MOL0     C64225   9.974   9.887   0.564 -0.5236 -0.0631  0.4188
  466MOL0     C64226   9.928   9.837   0.689 -0.1604 -0.1093  0.6026
  466MOL0     C64227   9.936   9.915   0.803 -0.4298 -0.6154  0.8060
  466MOL0     C64228   9.987  10.048   0.806 -1.2166 -0.0877 -0.2979
  466MOL0     O64229   9.994  10.110   0.933 -0.6937 -0.8460 -0.3897
  466MOL0     C64230  10.108  10.191   0.949 -0.9932 -0.1228  0.7732
  466MOL0     C64231  10.163  10.199   1.086  0.4060  0.3553 -0.4087
  466MOL0     C64232  10.055  10.200   1.194  0.3876 -0.6073 -0.0692
  466MOL0     C64233   9.959  10.314   1.193  0.5602  0.2271 -0.1243
  466MOL0     C64234   9.907  10.313   1.327  0.2764 -0.2078 -0.4353
  466MOL0     C64235   9.855  10.300   1.436 -0.0540 -1.1315 -0.5403
  466MOL0     C64236  10.038  10.096   0.689  0.1912  0.1283 -0.0862
  466MOL0     C64237  10.036  10.013   0.567 -0.3059 -0.6614  0.0515
  466MOL0     C64238  10.083  10.078   0.439 -0.0078  0.4244  0.3719
  466MOL0     H64239  10.013   9.566   0.324 -1.5151 -1.6058 -1.8331
  466MOL0     H64240  10.081   9.428   0.138 -1.1911 -0.6583  0.9022
  466MOL0     H64241   9.977   9.360  -0.122 -0.4169  2.4200  2.0428
  466MOL0     H64242  10.135   9.338  -0.056 -1.2276  0.3212  2.0453
  466MOL0     H64243  10.229   9.379  -0.291 -1.1801  1.3722 -2.4061
  466MOL0     H64244  10.148   9.224  -0.269  2.0522 -0.1532 -3.2059
  466MOL0     H64245   9.942   9.308  -0.369 -0.5486 -0.4629  0.0172
  466MOL0     H64246  10.013   9.463  -0.388 -1.9021 -0.3833 -0.5052
  466MOL0     H64247  10.033   9.368  -0.597 -0.7432  0.7330  0.4554
  466MOL0     H64248  10.192   9.374  -0.514  1.2361 -1.8588  0.0999
  466MOL0     H64249  10.033   9.113  -0.519 -0.7153 -1.7336 -0.6516
  466MOL0     H64250  10.204   9.148  -0.482 -1.1127  0.2003  0.6800
  466MOL0     H64251  10.073   9.092  -0.731  0.3224 -0.2013  0.3893
  466MOL0     H64252  10.195   9.231  -0.735 -3.6153  0.9354 -0.6864
  466MOL0     H64253  10.317   9.038  -0.595 -2.0893 -0.0812  0.9524
  466MOL0     H64254  10.344   9.078  -0.773  2.0318 -2.3236  1.5847
  466MOL0     H64255  10.144   8.876  -0.669 -0.0728  2.6370  0.5673
  466MOL0     H64256  10.185   8.902  -0.840 -1.5220 -3.2497 -0.5108
  466MOL0     H64257  10.403   8.792  -0.940  3.8666 -0.1748  0.3883
  466MOL0     H64258  10.628   8.591  -0.907 -1.1140  0.7752 -0.8810
  466MOL0     H64259  10.482   8.529  -0.986  1.0155  1.1027 -1.1878
  466MOL0     H64260  10.634   8.393  -0.764  0.0342  0.6658  0.1661
  466MOL0     H64261  10.462   8.356  -0.809 -0.8845 -0.1441  0.1097
  466MOL0     H64262  10.518   8.279  -1.024  1.0196  0.4636 -2.2897
  466MOL0     H64263  10.686   8.336  -1.022  0.0416 -0.4233  0.0765
  466MOL0     H64264  10.565   8.102  -0.866  0.4226 -0.6002  1.2702
  466MOL0     H64265  10.680   8.102  -0.990 -1.1529  0.7461  0.0693
  466MOL0     H64266  10.878   8.135  -1.051  1.0596  1.0548 -0.7270
  466MOL0     H64267  11.033   8.065  -1.185  0.5080 -1.7548 -0.0568
  466MOL0     H64268  11.207   8.050  -1.134 -0.0200  0.5473  1.9828
  466MOL0     H64269  11.144   8.212  -1.157  1.1092  1.0725  2.6510
  466MOL0     H64270  11.481   7.815  -0.838 -0.4604 -0.1448 -1.0237
  466MOL0     H64271  11.716   7.753  -0.803  1.3529 -0.0911 -0.9044
  466MOL0     H64272  11.890   7.712  -0.661  0.5945 -1.6230  0.4318
  466MOL0     H64273  11.952   7.759  -0.822  3.5496 -1.2262  0.3584
  466MOL0     H64274  12.127   7.808  -0.579  2.0474  0.9684 -0.0078
  466MOL0     H64275  12.109   7.655  -0.656 -1.3509  0.9569  1.0343
  466MOL0     H64276  12.198   7.901  -0.815  1.0150  0.2010  1.8187
  466MOL0     H64277  12.188   7.736  -0.871 -2.0355  0.6499  0.2122
  466MOL0     H64278  12.349   7.660  -0.701 -1.2414 -0.9621 -1.2945
  466MOL0     H64279  12.371   7.818  -0.630 -0.5842 -3.2024  1.5837
  466MOL0     H64280  12.432   7.784  -0.925  2.5606 -1.5777 -1.2041
  466MOL0     H64281  12.488   7.896  -0.807 -0.1691  0.3758 -1.8916
  466MOL0     H64282  12.549   7.590  -0.806 -2.2733 -0.9863  2.4547
  466MOL0     H64283  12.619   7.714  -0.697 -1.4739  2.4108  0.5453
  466MOL0     H64284  12.792   7.678  -0.839 -1.2624 -2.7578  0.1005
  466MOL0     H64285  12.710   7.829  -0.909 -1.7611 -0.0120 -1.8002
  466MOL0     H64286  12.675   7.541  -0.990  0.6868  0.0523  0.1678
  466MOL0     H64287  12.802   7.624  -1.073 -0.5948 -3.4180 -2.0921
  466MOL0     H64288  11.789   8.143  -0.644  1.2347 -3.1112  3.0067
  466MOL0     H64289  11.560   8.199  -0.670  1.3089  1.3632 -2.1351
  466MOL0     H64290  11.161   8.144  -0.654  0.5085 -5.3663  0.4805
  466MOL0     H64291  10.931   8.151  -0.627  1.3996 -0.9776  0.9269
  466MOL0     H64292  10.088   9.784  -0.117  0.2206 -1.1111 -1.3187
  466MOL0     H64293  10.054   9.927   0.084  3.8125  1.0329 -2.6872
  466MOL0     H64294   9.886   9.738   0.703  1.6465 -1.4849 -2.7021
  466MOL0     H64295   9.889   9.864   0.886 -0.7548 -1.3973  0.1477
  466MOL0     H64296  10.184  10.152   0.880 -3.2216 -2.6011 -0.4249
  466MOL0     H64297  10.097  10.295   0.915 -0.3086  0.3190  1.8443
  466MOL0     H64298  10.224  10.288   1.103  0.6751 -0.3434  2.9383
  466MOL0     H64299  10.240  10.122   1.093 -0.2689 -0.1924  2.0568
  466MOL0     H64300   9.999  10.107   1.203 -1.6432  0.6321  0.9201
  466MOL0     H64301  10.103  10.198   1.292  0.7486 -0.8932 -0.2531
  466MOL0     H64302   9.881  10.314   1.116  1.9724 -0.2963 -1.6052
  466MOL0     H64303  10.017  10.404   1.174  1.7566 -0.0828  1.8648
  466MOL0     H64304   9.814  10.287   1.534 -0.0469 -0.7192 -0.4801
  466MOL0     H64305  10.068  10.200   0.689 -1.6247  0.6905  1.3233
  466MOL0     H64306  10.163  10.015   0.399 -0.9669 -0.7357  0.2201
  466MOL0     H64307  10.002  10.074   0.366  1.3515 -0.7269 -1.1284
  466MOL0     H64308  10.121  10.180   0.456  1.7488 -0.4132  1.7563
  467MOL0     O64309   9.016  11.337   5.631  0.3863 -0.8333 -0.0169
  467MOL0     C64310   8.968  11.225   5.644  0.4049 -1.0428  0.7669
  467MOL0     O64311   9.033  11.103   5.606 -0.2375 -0.6850  0.2355
  467MOL0     C64312   9.156  11.096   5.542 -0.2261  0.1664  0.4975
  467MOL0     C64313   9.212  10.963   5.526 -0.4603 -0.5809  0.2665
  467MOL0     C64314   9.320  10.934   5.457  0.1173 -0.4166  0.0323
  467MOL0     C64315   9.404  11.044   5.441 -0.4406  0.1173  0.0036
  467MOL0     O64316   9.532  11.041   5.384 -0.3345  0.1451  0.7292
  467MOL0     C64317   9.615  10.925   5.397  0.5269 -0.4546 -0.4312
  467MOL0     C64318   9.630  10.864   5.248 -0.1123 -0.5645  0.0729
  467MOL0     C64319   9.682  10.962   5.141  0.0544  0.0283 -0.0633
  467MOL0     C64320   9.804  11.036   5.189 -0.5623 -0.2117  0.3820
  467MOL0     C64321   9.862  11.132   5.075  0.0085  0.1276  0.0204
  467MOL0     C64322   9.934  11.059   4.962  0.2063  1.2587  0.3204
  467MOL0     C64323  10.029  11.147   4.871  0.2578 -0.1667 -0.5282
  467MOL0     C64324  10.127  11.065   4.782 -0.2611 -0.2891 -0.1508
  467MOL0     N64325  10.234  10.998   4.864 -0.1325 -0.2000 -0.4031
  467MOL0     C64326  10.228  10.878   4.925  0.7403 -0.2480 -0.0140
  467MOL0     C64327  10.355  10.846   4.963  0.5766 -0.7324  0.1066
  467MOL0     C64328  10.401  10.716   5.025  0.0274 -0.8568  0.3371
  467MOL0     C64329  10.458  10.614   4.932  1.1054  0.5556  0.8553
  467MOL0     C64330  10.363  10.535   4.843  0.5750 -0.4671 -0.0251
  467MOL0     C64331  10.450  10.436   4.747 -0.5397  0.0362 -0.3558
  467MOL0     O64332  10.507  10.520   4.645 -0.2042  0.7095  0.0160
  467MOL0     C64333  10.604  10.467   4.575 -1.2468 -0.5838  0.1572
  467MOL0     C64334  10.630  10.336   4.567 -0.1443  0.7267 -0.4160
  467MOL0     C64335  10.727  10.286   4.479 -1.0996  0.3741  1.1889
  467MOL0     C64336  10.759  10.133   4.490  1.1263 -0.7060  0.1761
  467MOL0     C64337  10.809  10.380   4.403  0.8421  1.1993  0.5553
  467MOL0     C64338  10.906  10.334   4.298  0.6176  0.8546 -0.2194
  467MOL0     O64339  11.028  10.390   4.292  0.3761  0.1470  0.2472
  467MOL0     C64340  11.109  10.368   4.184  0.8065 -0.1495 -0.3348
  467MOL0     C64341  11.099  10.434   4.061  0.9509  0.0475  0.8735
  467MOL0     C64342  11.199  10.422   3.965  0.5545  0.3986  0.2160
  467MOL0     C64343  11.320  10.353   3.994 -0.4470 -0.4549 -0.0750
  467MOL0     O64344  11.423  10.324   3.912  0.2993  0.3557  0.1317
  467MOL0     C64345  11.440  10.384   3.777  0.3379  0.7110 -0.3032
  467MOL0     C64346  11.582  10.437   3.766  1.1196  0.4223  0.9515
  467MOL0     C64347  11.616  10.459   3.619 -0.1503  0.0166  0.0117
  467MOL0     C64348  11.758  10.524   3.604  0.7802  0.0790  0.2512
  467MOL0     C64349  11.787  10.566   3.456  0.0825  0.0611 -0.6848
  467MOL0     C64350  11.927  10.614   3.426 -0.4446 -0.2909  0.0258
  467MOL0     C64351  11.940  10.651   3.281  0.3208 -0.1036  0.7295
  467MOL0     C64352  12.076  10.640   3.216 -0.4532  0.3009  0.4596
  467MOL0    Cl64353  12.210  10.716   3.306 -0.0546  0.2096  0.1303
  467MOL0     C64354  11.332  10.291   4.119 -0.0911  0.6049 -0.3272
  467MOL0     C64355  11.228  10.293   4.208 -0.0918 -0.0854 -0.7365
  467MOL0     O64356  10.866  10.238   4.223 -0.2126 -0.0302 -0.2277
  467MOL0     C64357  10.799  10.523   4.428  0.7522  0.8416  0.3066
  467MOL0     C64358  10.688  10.560   4.515 -0.2585  0.9679 -0.2417
  467MOL0     N64359  10.433  10.958   4.935 -0.1354  0.1124  0.1584
  467MOL0     N64360  10.361  11.045   4.877  0.3448  1.1231  0.0302
  467MOL0     C64361   9.354  11.174   5.444  0.8744 -0.3777  0.1834
  467MOL0     C64362   9.224  11.202   5.492  0.6818 -0.2489 -0.1730
  467MOL0     C64363   8.831  11.221   5.709  0.1829  0.5281 -0.0960
  467MOL0     C64364   8.733  11.326   5.675 -0.2302 -0.9173 -0.5324
  467MOL0     C64365   8.604  11.320   5.710 -0.1421  0.1695 -1.0675
  467MOL0     C64366   8.559  11.220   5.801 -0.2123 -0.0009 -0.0989
  467MOL0     O64367   8.431  11.211   5.845  0.1162 -0.0538  0.1356
  467MOL0     C64368   8.339  11.318   5.866  0.1907 -0.4563 -0.2380
  467MOL0     C64369   8.215  11.268   5.933  0.0278  0.3975 -0.4250
  467MOL0     C64370   8.101  11.370   5.969 -0.8998  0.1605 -0.6542
  467MOL0     C64371   8.052  11.457   5.848 -1.0677 -0.0572 -0.5117
  467MOL0     C64372   7.952  11.555   5.884  0.2972  0.5318  0.2626
  467MOL0     C64373   7.865  11.639   5.901  0.0443 -0.2219 -0.0313
  467MOL0     C64374   8.656  11.134   5.857  0.4072 -0.1315  1.1537
  467MOL0     C64375   8.790  11.126   5.810  1.1009  0.1415 -0.1204
  467MOL0     C64376   8.875  11.015   5.857 -0.4486  0.3084 -0.1028
  467MOL0     H64377   9.146  10.882   5.556  1.1001 -0.9397  3.1137
  467MOL0     H64378   9.347  10.834   5.426 -0.7052 -0.6737  0.1417
  467MOL0     H64379   9.581  10.847   5.467  0.6319 -0.2389 -0.1405
  467MOL0     H64380   9.709  10.960   5.440 -0.9636  3.7506 -0.1585
  467MOL0     H64381   9.697  10.778   5.255  0.6664  0.1698  2.8153
  467MOL0     H64382   9.529  10.824   5.232  0.2594 -1.2773 -0.5275
  467MOL0     H64383   9.684  10.909   5.046  2.1862 -1.5653  0.7753
  467MOL0     H64384   9.610  11.041   5.117 -0.4419  0.0618  1.4324
  467MOL0     H64385   9.791  11.089   5.284 -0.9168 -1.6693  1.1788
  467MOL0     H64386   9.879  10.960   5.208 -0.6625 -1.2269 -2.7174
  467MOL0     H64387   9.943  11.195   5.113  2.3538 -2.7048  0.1454
  467MOL0     H64388   9.784  11.193   5.030 -1.8532 -0.4695  2.2346
  467MOL0     H64389   9.990  10.986   5.022 -0.4903  0.1379 -0.3525
  467MOL0     H64390   9.862  11.001   4.903  1.9463  0.5540 -1.1922
  467MOL0     H64391  10.082  11.219   4.933  3.8667 -1.5258 -1.7895
  467MOL0     H64392   9.959  11.210   4.815 -0.0339  0.6638  0.7258
  467MOL0     H64393  10.078  10.991   4.718  1.3676 -3.4893  2.0237
  467MOL0     H64394  10.180  11.140   4.723  1.9429  1.0395  3.1984
  467MOL0     H64395  10.148  10.806   4.940  2.4206 -1.9466  1.3068
  467MOL0     H64396  10.318  10.678   5.085 -0.0907  0.4771  1.0497
  467MOL0     H64397  10.472  10.743   5.104 -0.6656 -1.8337  1.3182
  467MOL0     H64398  10.524  10.668   4.862  0.0837  0.5900 -0.1082
  467MOL0     H64399  10.521  10.553   4.997 -1.4180 -0.7789  2.1957
  467MOL0     H64400  10.296  10.467   4.896  0.7005 -0.5430  0.0378
  467MOL0     H64401  10.296  10.607   4.794 -1.9263 -2.0190  0.9450
  467MOL0     H64402  10.511  10.368   4.806 -1.5573 -0.1466  0.5211
  467MOL0     H64403  10.381  10.368   4.697 -0.0446 -2.5276  2.1645
  467MOL0     H64404  10.585  10.253   4.621  0.4839 -0.3819 -1.5409
  467MOL0     H64405  10.857  10.116   4.446  2.8945  0.4011  3.3998
  467MOL0     H64406  10.673  10.072   4.458  0.0004  0.1835  1.4063
  467MOL0     H64407  10.776  10.114   4.596  1.3015 -0.4254  0.1965
  467MOL0     H64408  11.014  10.500   4.045  0.0175 -1.4432 -0.7910
  467MOL0     H64409  11.193  10.462   3.864  1.3170  1.0714  0.4289
  467MOL0     H64410  11.424  10.313   3.695  1.1331  0.3046 -0.1210
  467MOL0     H64411  11.372  10.469   3.766  1.1570  1.5911  1.1681
  467MOL0     H64412  11.585  10.533   3.818 -1.0798 -0.3814  2.7026
  467MOL0     H64413  11.652  10.361   3.803 -0.0571 -1.4820 -0.5488
  467MOL0     H64414  11.544  10.532   3.579 -0.8481  0.1956  1.5328
  467MOL0     H64415  11.622  10.369   3.557  2.3985  0.4751 -0.5407
  467MOL0     H64416  11.838  10.460   3.642  1.8372  1.8516  1.1270
  467MOL0     H64417  11.758  10.624   3.649  3.3258  1.0660 -1.7033
  467MOL0     H64418  11.772  10.474   3.398  2.0605 -0.5683 -0.2843
  467MOL0     H64419  11.714  10.641   3.427 -1.4634 -1.0099  0.2856
  467MOL0     H64420  11.989  10.525   3.441 -2.3049 -1.7194 -0.3903
  467MOL0     H64421  11.963  10.695   3.489 -0.5330 -0.7001  0.6156
  467MOL0     H64422  11.892  10.749   3.272  1.3398  0.2337 -1.9303
  467MOL0     H64423  11.887  10.579   3.217  0.4635 -0.8663  1.4610
  467MOL0     H64424  12.073  10.671   3.111 -0.2415 -2.5176 -0.4621
  467MOL0     H64425  12.102  10.534   3.205 -0.1454  0.5504 -1.8975
  467MOL0     H64426  11.421  10.238   4.151  0.4139  0.1853 -2.2856
  467MOL0     H64427  11.239  10.243   4.304 -1.1636  0.1018 -0.4996
  467MOL0     H64428  10.860  10.594   4.372  1.8613  0.4927  1.0549
  467MOL0     H64429  10.693  10.667   4.532 -1.5108  1.3443 -1.9042
  467MOL0     H64430   9.421  11.256   5.421 -0.0054 -0.2821 -2.2464
  467MOL0     H64431   9.190  11.306   5.489 -0.6175 -0.5944  1.0176
  467MOL0     H64432   8.756  11.411   5.611 -1.6570  1.0587  1.4431
  467MOL0     H64433   8.532  11.394   5.677  1.3531  3.2342  2.0746
  467MOL0     H64434   8.391  11.397   5.922  0.0966  0.1144 -0.9418
  467MOL0     H64435   8.299  11.352   5.770  0.1714  0.4437  0.0824
  467MOL0     H64436   8.246  11.214   6.023  0.0728 -0.9708 -1.2373
  467MOL0     H64437   8.170  11.195   5.866 -1.4587 -0.0352  0.9544
  467MOL0     H64438   8.010  11.317   5.998 -2.1331  1.2292 -2.3859
  467MOL0     H64439   8.134  11.430   6.054 -2.4307 -0.7070  0.6041
  467MOL0     H64440   8.017  11.383   5.776 -0.2003 -1.8801  0.8457
  467MOL0     H64441   8.143  11.498   5.803 -0.8417  1.6717  1.3451
  467MOL0     H64442   7.788  11.714   5.905  1.7302  1.6522 -0.9540
  467MOL0     H64443   8.629  11.047   5.916  1.7131 -2.9830 -2.0827
  467MOL0     H64444   8.981  11.041   5.864 -0.4667  0.0958  1.0976
  467MOL0     H64445   8.853  11.008   5.964 -1.4201 -0.0753 -0.3187
  467MOL0     H64446   8.860  10.918   5.808  0.8385  1.3043 -2.7011
  468MOL0     O64447   0.236   6.697   6.638  0.2263 -0.2840  0.3828
  468MOL0     C64448   0.271   6.576   6.634  0.2317 -0.5418 -0.5323
  468MOL0     O64449   0.347   6.516   6.731 -0.3148  0.1733  0.2454
  468MOL0     C64450   0.359   6.575   6.855  0.3691 -1.0906  0.4550
  468MOL0     C64451   0.248   6.596   6.936  0.6377 -0.0037  0.2035
  468MOL0     C64452   0.260   6.655   7.061 -0.3722  0.6578  0.1141
  468MOL0     C64453   0.385   6.710   7.109 -0.1374  0.0468  0.8924
  468MOL0     O64454   0.381   6.770   7.230  0.2422 -0.5508  0.6057
  468MOL0     C64455   0.498   6.847   7.274  0.5943  0.4447 -0.8191
  468MOL0     C64456   0.465   6.848   7.421 -0.1928  1.2092 -0.0469
  468MOL0     C64457   0.531   6.717   7.495  1.0297 -1.3147  0.3078
  468MOL0     C64458   0.496   6.702   7.638  0.3111  0.2524  0.1338
  468MOL0     C64459   0.583   6.605   7.715 -0.4204  0.4889 -0.0584
  468MOL0     C64460   0.724   6.651   7.751 -0.5943  0.2752 -0.3525
  468MOL0     C64461   0.795   6.551   7.843 -0.1879 -0.9214 -0.3134
  468MOL0     C64462   0.808   6.410   7.794  0.3747  0.3633  0.2909
  468MOL0     N64463   0.903   6.403   7.686 -0.4134 -0.7761 -0.0576
  468MOL0     C64464   1.039   6.404   7.711 -0.0394  0.0322  0.2957
  468MOL0     C64465   1.091   6.392   7.585 -0.2644 -0.1517 -0.4409
  468MOL0     C64466   1.241   6.354   7.567 -0.3679 -0.7609 -0.0288
  468MOL0     C64467   1.282   6.334   7.420 -0.0827 -0.0786  0.0781
  468MOL0     C64468   1.431   6.277   7.398 -0.3002 -0.3378  0.5755
  468MOL0     C64469   1.540   6.343   7.496  0.1549  0.3992  0.7326
  468MOL0     O64470   1.666   6.269   7.482  0.2415  0.4496 -0.5824
  468MOL0     C64471   1.769   6.318   7.563 -0.4249 -0.2981  0.5542
  468MOL0     C64472   1.778   6.443   7.627  0.2862 -0.2684  0.9384
  468MOL0     C64473   1.873   6.483   7.722  0.4683 -0.5109  0.3231
  468MOL0     C64474   1.858   6.628   7.786  0.3725 -0.1022  1.0430
  468MOL0     C64475   1.977   6.389   7.748  1.0882 -0.0457 -0.0437
  468MOL0     C64476   2.093   6.419   7.831 -0.1984  0.3401 -0.8139
  468MOL0     O64477   2.123   6.334   7.931 -0.3256 -0.2604  0.1656
  468MOL0     C64478   2.231   6.365   8.005 -0.2780 -0.6256  0.1711
  468MOL0     C64479   2.220   6.444   8.122 -0.0308  0.3719 -0.8025
  468MOL0     C64480   2.337   6.476   8.192 -0.3456 -0.1756 -0.0461
  468MOL0     C64481   2.466   6.437   8.150  0.3355  0.7082 -0.6271
  468MOL0     O64482   2.579   6.489   8.205  0.0729 -0.3898  0.1836
  468MOL0     C64483   2.660   6.400   8.281 -0.6332 -1.0488  0.6592
  468MOL0     C64484   2.591   6.382   8.417  0.0514  0.0134  0.4139
  468MOL0     C64485   2.569   6.507   8.501 -0.4358  0.3286  0.8650
  468MOL0     C64486   2.648   6.490   8.638  0.6995 -0.2939  0.7440
  468MOL0     C64487   2.630   6.621   8.730 -0.1650 -0.0839  0.9233
  468MOL0     C64488   2.746   6.627   8.837 -0.7576  0.7537  0.2135
  468MOL0     C64489   2.878   6.706   8.786  0.6653 -0.4449 -0.0784
  468MOL0     C64490   2.985   6.714   8.898  0.5816 -0.2699 -0.0272
  468MOL0    Cl64491   3.052   6.543   8.923 -0.2516  0.0299  0.0230
  468MOL0     C64492   2.470   6.343   8.043 -0.1874 -0.0359  0.9699
  468MOL0     C64493   2.354   6.304   7.981 -0.1085  0.1363  0.4446
  468MOL0     O64494   2.155   6.523   7.802  0.7811  0.1278  0.1693
  468MOL0     C64495   1.980   6.264   7.678  0.2295  0.6331 -0.5060
  468MOL0     C64496   1.875   6.229   7.593  0.5903 -0.1606 -0.4889
  468MOL0     N64497   0.995   6.408   7.492  0.3164  0.6114  0.1920
  468MOL0     N64498   0.876   6.416   7.553  0.3836 -0.4421 -0.4562
  468MOL0     C64499   0.499   6.683   7.026 -0.1230 -0.3907 -0.2282
  468MOL0     C64500   0.485   6.631   6.897  0.2220  0.0487  0.9501
  468MOL0     C64501   0.231   6.503   6.509  0.7265 -0.4089  0.8159
  468MOL0     C64502   0.310   6.401   6.462  0.5846 -0.0629 -0.7188
  468MOL0     C64503   0.302   6.355   6.334 -0.7335  0.7405 -1.3034
  468MOL0     C64504   0.190   6.382   6.254 -0.2445  0.4629  0.2923
  468MOL0     O64505   0.166   6.321   6.137  0.4855 -0.1651 -0.1288
  468MOL0     C64506   0.076   6.211   6.143  0.3931 -0.2311 -1.1684
  468MOL0     C64507   0.071   6.141   6.007 -0.8881  1.0873 -0.2385
  468MOL0     C64508   0.207   6.111   5.952  0.1800 -0.3548  0.2978
  468MOL0     C64509   0.186   6.041   5.814  0.0875 -0.2646  0.2924
  468MOL0     C64510   0.156   5.899   5.838  1.2816 -1.0614 -0.0725
  468MOL0     C64511   0.106   5.794   5.872 -0.0161 -0.2622 -0.6621
  468MOL0     C64512   0.105   6.482   6.304  0.0714  0.6740 -0.0596
  468MOL0     C64513   0.129   6.544   6.425 -0.5402 -0.2865 -0.1407
  468MOL0     C64514   0.044   6.659   6.459  0.7500 -0.0825  0.8373
  468MOL0     H64515   0.148   6.564   6.907  0.0376  1.0638  1.0218
  468MOL0     H64516   0.172   6.674   7.123 -1.1923 -0.4451 -0.6612
  468MOL0     H64517   0.493   6.949   7.235  0.9110 -0.1252 -2.4228
  468MOL0     H64518   0.599   6.808   7.261  0.5082  0.2059 -0.7635
  468MOL0     H64519   0.504   6.936   7.473 -0.7024  0.0511  2.4712
  468MOL0     H64520   0.359   6.844   7.450 -0.0381 -2.7584  0.5058
  468MOL0     H64521   0.495   6.634   7.433  2.3050 -1.7794  0.1562
  468MOL0     H64522   0.637   6.737   7.481  0.6579  1.1338  0.5939
  468MOL0     H64523   0.484   6.805   7.673  1.8502  0.2206  0.7945
  468MOL0     H64524   0.397   6.655   7.632  1.0041 -1.1383 -1.2983
  468MOL0     H64525   0.577   6.522   7.644 -2.2647  0.8838 -0.4310
  468MOL0     H64526   0.537   6.583   7.811 -0.9805  3.7339  0.5183
  468MOL0     H64527   0.775   6.654   7.655 -1.9212 -2.7021 -1.2766
  468MOL0     H64528   0.724   6.753   7.791  1.6867  0.9207 -1.8390
  468MOL0     H64529   0.750   6.562   7.943 -1.7436 -0.4886 -1.0303
  468MOL0     H64530   0.897   6.582   7.867  0.5912 -4.7765  2.3604
  468MOL0     H64531   0.847   6.344   7.872 -0.0324 -2.3918 -1.6862
  468MOL0     H64532   0.713   6.365   7.766  2.2722 -3.1037 -1.1900
  468MOL0     H64533   1.099   6.385   7.799  0.1709 -0.1486  0.1119
  468MOL0     H64534   1.256   6.259   7.619  0.0484 -1.2451 -1.0077
  468MOL0     H64535   1.307   6.431   7.609 -0.0992 -1.9253  1.7705
  468MOL0     H64536   1.207   6.273   7.370 -0.0325  1.7361 -2.4456
  468MOL0     H64537   1.276   6.428   7.364 -0.4554 -1.0957 -1.6692
  468MOL0     H64538   1.417   6.172   7.425  0.9152 -0.5019  0.6636
  468MOL0     H64539   1.473   6.289   7.297 -2.3443 -1.6936 -0.4926
  468MOL0     H64540   1.542   6.451   7.485 -1.9152  0.5082  1.1239
  468MOL0     H64541   1.496   6.322   7.594  0.3678  3.3004  1.5212
  468MOL0     H64542   1.694   6.509   7.608 -0.1168 -0.5331  1.7463
  468MOL0     H64543   1.754   6.660   7.791  0.3154  0.0988 -0.8552
  468MOL0     H64544   1.922   6.698   7.732  0.1685  0.4088  1.4464
  468MOL0     H64545   1.906   6.630   7.885  1.6957 -2.1395  0.5162
  468MOL0     H64546   2.118   6.469   8.149 -0.4007  1.4919 -2.9983
  468MOL0     H64547   2.329   6.543   8.277  1.7445  1.6601 -1.1753
  468MOL0     H64548   2.672   6.305   8.228  3.8583 -0.6779  0.6778
  468MOL0     H64549   2.758   6.448   8.289 -0.9544 -0.4277  0.9552
  468MOL0     H64550   2.495   6.331   8.404 -0.4471  0.2456  2.6901
  468MOL0     H64551   2.647   6.313   8.481  1.4471 -0.4376 -1.2435
  468MOL0     H64552   2.464   6.522   8.530 -1.3024 -4.7144  1.2764
  468MOL0     H64553   2.607   6.592   8.444 -2.5148  0.7967  0.1111
  468MOL0     H64554   2.756   6.482   8.623  0.7777  0.7969  0.6131
  468MOL0     H64555   2.609   6.404   8.694 -1.9254  0.3717  0.0944
  468MOL0     H64556   2.626   6.716   8.675  2.5283  1.0176  2.3961
  468MOL0     H64557   2.533   6.608   8.779  0.3391 -0.8529  1.7449
  468MOL0     H64558   2.767   6.523   8.864 -1.7772 -0.1972 -2.3409
  468MOL0     H64559   2.710   6.669   8.931  2.5567  0.8127  1.5887
  468MOL0     H64560   2.871   6.812   8.759  1.9782 -0.4966 -0.6744
  468MOL0     H64561   2.923   6.666   8.695  3.0746 -1.7483  1.5888
  468MOL0     H64562   2.930   6.738   8.990  1.5082  0.5664  0.3368
  468MOL0     H64563   3.057   6.793   8.874 -0.4252  0.8988  0.6801
  468MOL0     H64564   2.568   6.311   8.009 -1.0746 -0.0223 -1.9386
  468MOL0     H64565   2.358   6.264   7.880  2.3911  1.4266 -0.0479
  468MOL0     H64566   2.060   6.194   7.701  0.8950  2.0539  1.9586
  468MOL0     H64567   1.869   6.131   7.546  0.5551 -0.1002 -0.6111
  468MOL0     H64568   0.600   6.717   7.046  0.2156 -1.0144 -0.8151
  468MOL0     H64569   0.563   6.595   6.832  0.4742 -1.1501  1.8768
  468MOL0     H64570   0.393   6.364   6.521 -1.5486 -2.9970  0.7004
  468MOL0     H64571   0.390   6.298   6.304 -0.2887  0.1642  0.9350
  468MOL0     H64572   0.102   6.136   6.218  1.0332  3.2816  2.4328
  468MOL0     H64573  -0.022   6.251   6.172  0.9104  0.5474 -0.4658
  468MOL0     H64574   0.004   6.200   5.944 -3.0056 -0.6838  0.1816
  468MOL0     H64575   0.032   6.040   6.026 -0.5832  0.3591 -3.0763
  468MOL0     H64576   0.273   6.195   5.929  1.4718 -1.4803 -0.2602
  468MOL0     H64577   0.276   6.059   6.020  1.2607  0.9406  0.2550
  468MOL0     H64578   0.265   6.047   5.739  0.1437  0.0049  0.3718
  468MOL0     H64579   0.096   6.090   5.777  0.5526  2.2847  2.2273
  468MOL0     H64580   0.081   5.701   5.919  0.5646  0.5177  1.3093
  468MOL0     H64581   0.020   6.513   6.245  0.3379 -0.0540 -0.8462
  468MOL0     H64582  -0.001   6.640   6.557 -2.1460  1.6705 -0.0243
  468MOL0     H64583   0.105   6.750   6.451 -0.5008  0.6529 -1.3568
  468MOL0     H64584  -0.031   6.668   6.380  2.4781 -0.2357 -0.9062
  469MOL0     O64585   6.171   1.845   9.368  0.5665  0.7400  1.1079
  469MOL0     C64586   6.188   1.730   9.324 -0.6597 -0.3258 -0.0106
  469MOL0     O64587   6.089   1.655   9.273  0.7069 -0.3421  0.1594
  469MOL0     C64588   5.958   1.715   9.279 -0.1163  1.0596  0.3071
  469MOL0     C64589   5.863   1.689   9.381  0.3840 -0.4304  0.2312
  469MOL0     C64590   5.743   1.762   9.365 -0.4599 -0.9718  0.0758
  469MOL0     C64591   5.709   1.842   9.254 -0.4477  0.1429 -1.0288
  469MOL0     O64592   5.589   1.896   9.249  0.1099  0.0188 -0.0495
  469MOL0     C64593   5.551   1.978   9.359 -0.3590 -0.8924 -0.0571
  469MOL0     C64594   5.414   2.043   9.330 -0.3099 -0.2322 -0.6745
  469MOL0     C64595   5.303   1.939   9.306  1.0568 -0.2896 -0.7919
  469MOL0     C64596   5.152   1.982   9.346 -0.4214 -0.0692 -0.4079
  469MOL0     C64597   5.090   2.068   9.237 -0.2568  0.4784 -0.2601
  469MOL0     C64598   5.039   1.990   9.119  0.0350 -0.3259  1.4045
  469MOL0     C64599   5.017   2.081   8.990  0.0616  0.1111  0.6202
  469MOL0     C64600   4.978   2.002   8.856 -0.0639  0.4602 -0.4947
  469MOL0     N64601   4.837   1.955   8.850 -0.6072 -0.3366  0.2919
  469MOL0     C64602   4.792   1.841   8.789 -0.4290  0.1234 -0.1822
  469MOL0     C64603   4.659   1.844   8.804 -0.8501 -0.4114 -0.3022
  469MOL0     C64604   4.569   1.735   8.789 -0.3427 -0.6373 -0.4992
  469MOL0     C64605   4.543   1.645   8.903 -0.3731 -0.2895 -0.3437
  469MOL0     C64606   4.650   1.539   8.929 -0.3639 -0.0138  0.2244
  469MOL0     C64607   4.760   1.580   9.034  0.9921 -0.4607  1.4012
  469MOL0     O64608   4.849   1.478   9.058 -0.0864  0.3746 -0.0055
  469MOL0     C64609   4.938   1.488   9.160  0.4105 -0.4983  0.1173
  469MOL0     C64610   5.013   1.381   9.180 -0.2878  0.5630 -0.3061
  469MOL0     C64611   5.116   1.375   9.273  0.8123 -0.1213 -0.1625
  469MOL0     C64612   5.207   1.257   9.265 -0.3048 -0.7353  0.3526
  469MOL0     C64613   5.128   1.476   9.369  0.5445  0.2565  0.3307
  469MOL0     C64614   5.212   1.468   9.498  0.4511  0.5203  0.5295
  469MOL0     O64615   5.261   1.579   9.557 -0.2643 -0.3961  0.2740
  469MOL0     C64616   5.359   1.561   9.655  0.1462 -0.8077  0.1631
  469MOL0     C64617   5.318   1.525   9.789  0.1284 -0.9783  0.5068
  469MOL0     C64618   5.411   1.514   9.895  0.1194  0.2211 -0.5558
  469MOL0     C64619   5.548   1.524   9.869  0.5562  0.3430  0.1890
  469MOL0     O64620   5.642   1.517   9.968  0.4368 -0.5925 -0.5174
  469MOL0     C64621   5.593   1.557  10.097  0.0515  1.2761 -1.0924
  469MOL0     C64622   5.726   1.606  10.157 -1.3629 -0.8279  0.4891
  469MOL0     C64623   5.708   1.590  10.312 -0.4235  0.0172  0.7421
  469MOL0     C64624   5.830   1.647  10.399  0.2605 -0.0970 -0.7094
  469MOL0     C64625   5.944   1.556  10.396 -1.3601  0.5281 -0.2323
  469MOL0     C64626   6.048   1.597  10.498  0.4412 -0.5954 -0.1270
  469MOL0     C64627   6.163   1.501  10.489 -0.3718  0.9087 -0.1693
  469MOL0     C64628   6.259   1.509  10.603 -0.7414  0.2509  0.7153
  469MOL0    Cl64629   6.407   1.416  10.566  0.0389  0.3579 -0.2426
  469MOL0     C64630   5.585   1.550   9.745  0.6046 -0.3303 -0.0382
  469MOL0     C64631   5.496   1.576   9.640  0.2725 -0.8960 -0.4724
  469MOL0     O64632   5.218   1.357   9.549 -0.4168  0.1255 -0.2927
  469MOL0     C64633   5.045   1.589   9.358  0.2110  0.8992  0.9419
  469MOL0     C64634   4.963   1.600   9.246 -0.3420 -0.1161  0.0994
  469MOL0     N64635   4.623   1.960   8.867  0.1728  0.4944  0.1880
  469MOL0     N64636   4.730   2.026   8.901 -0.8507 -0.4929 -0.5890
  469MOL0     C64637   5.800   1.850   9.140  0.2633 -0.1277  0.2216
  469MOL0     C64638   5.932   1.794   9.163  0.8387 -0.1266  0.1621
  469MOL0     C64639   6.329   1.675   9.305 -0.8821 -0.0925 -0.2948
  469MOL0     C64640   6.346   1.552   9.234  0.7426 -0.3848 -0.9361
  469MOL0     C64641   6.466   1.488   9.214  0.5946 -0.5466 -0.2988
  469MOL0     C64642   6.581   1.555   9.251 -0.3092  0.0304  0.7541
  469MOL0     O64643   6.717   1.518   9.227  0.1732  0.3422 -0.4856
  469MOL0     C64644   6.739   1.401   9.137  0.5726  0.1916 -0.1303
  469MOL0     C64645   6.712   1.273   9.208  0.0520  0.1517 -0.1653
  469MOL0     C64646   6.836   1.171   9.212 -0.0095 -0.3137  0.0073
  469MOL0     C64647   6.796   1.031   9.282  0.8449  0.7410  0.8420
  469MOL0     C64648   6.905   0.938   9.257  0.1114  1.1048 -0.1569
  469MOL0     C64649   6.990   0.854   9.240  0.1205  0.5377 -0.2295
  469MOL0     C64650   6.577   1.681   9.312 -0.1417 -0.5054 -0.3244
  469MOL0     C64651   6.454   1.736   9.347 -0.0145 -0.1354  0.4573
  469MOL0     C64652   6.449   1.866   9.408 -0.1956 -0.8557  0.1895
  469MOL0     H64653   5.881   1.627   9.468 -3.9191 -1.8132  0.4160
  469MOL0     H64654   5.673   1.756   9.448 -1.0059 -1.8096 -0.4264
  469MOL0     H64655   5.616   2.064   9.379 -1.1414 -0.8134  2.5115
  469MOL0     H64656   5.543   1.932   9.458 -1.0654  0.4512  0.5471
  469MOL0     H64657   5.396   2.110   9.415  3.1890 -2.4148  2.0730
  469MOL0     H64658   5.434   2.102   9.240  1.6162  1.4033  0.7445
  469MOL0     H64659   5.310   1.912   9.200  2.4436 -4.0323  0.0721
  469MOL0     H64660   5.333   1.852   9.366  2.0613  1.1284  0.8613
  469MOL0     H64661   5.092   1.894   9.370  1.1719 -1.0795  0.0142
  469MOL0     H64662   5.152   2.042   9.438 -2.0523 -2.4832  1.2973
  469MOL0     H64663   5.154   2.142   9.189  2.2484 -1.0704  0.4797
  469MOL0     H64664   5.005   2.122   9.278 -1.4903 -2.6221  1.6079
  469MOL0     H64665   5.103   1.910   9.082 -2.5382 -1.8640 -0.0272
  469MOL0     H64666   4.946   1.943   9.152 -0.3162 -0.5077  0.2035
  469MOL0     H64667   5.109   2.133   8.963 -0.8204  1.7786  0.7340
  469MOL0     H64668   4.951   2.165   9.012  0.0629  0.6816 -1.3439
  469MOL0     H64669   4.991   2.069   8.771  1.6300 -1.9713 -2.2943
  469MOL0     H64670   5.057   1.927   8.845  0.1091  0.8082 -1.7807
  469MOL0     H64671   4.854   1.760   8.751 -0.5627  0.5759 -1.4051
  469MOL0     H64672   4.589   1.679   8.698  1.7544 -0.1545 -0.3884
  469MOL0     H64673   4.473   1.785   8.771 -0.8896 -2.2408 -2.3516
  469MOL0     H64674   4.531   1.704   8.994  1.2769  0.6470 -0.6929
  469MOL0     H64675   4.447   1.595   8.887  1.3569 -3.5652 -1.2471
  469MOL0     H64676   4.595   1.458   8.978 -2.2863  1.1723  0.1080
  469MOL0     H64677   4.692   1.492   8.839 -2.3859 -0.2318 -0.6545
  469MOL0     H64678   4.810   1.672   9.000  1.3082 -0.6236  1.4227
  469MOL0     H64679   4.714   1.624   9.123 -0.0310 -0.4875  0.9009
  469MOL0     H64680   4.995   1.306   9.103 -2.4420  1.0843 -0.3790
  469MOL0     H64681   5.149   1.183   9.209 -0.9852  1.6394 -2.2985
  469MOL0     H64682   5.236   1.216   9.362  2.9514  3.2440  1.3005
  469MOL0     H64683   5.296   1.277   9.205 -1.3038 -0.0124 -0.9536
  469MOL0     H64684   5.211   1.531   9.803  0.6712  1.9468  5.3130
  469MOL0     H64685   5.363   1.503   9.991  2.6714 -3.6171  0.5359
  469MOL0     H64686   5.517   1.636  10.103 -0.8039  0.4485 -0.5899
  469MOL0     H64687   5.554   1.474  10.157  0.6174  1.1365 -0.9120
  469MOL0     H64688   5.812   1.546  10.127  0.6889  1.6853  0.9927
  469MOL0     H64689   5.747   1.708  10.124 -0.0302 -0.9953  0.7761
  469MOL0     H64690   5.705   1.481  10.320  0.6826 -0.0856 -0.0348
  469MOL0     H64691   5.616   1.647  10.325 -2.0299 -1.3189 -3.1716
  469MOL0     H64692   5.794   1.653  10.502 -1.7829  0.7384 -1.4213
  469MOL0     H64693   5.859   1.746  10.364  0.4341 -1.1370 -3.8026
  469MOL0     H64694   5.912   1.453  10.410  1.1047 -0.1303  1.1600
  469MOL0     H64695   5.989   1.553  10.297  2.4360 -1.2414  1.3564
  469MOL0     H64696   6.002   1.601  10.598  0.0787  2.1278 -0.3239
  469MOL0     H64697   6.084   1.698  10.478 -1.5381  0.0808 -0.5028
  469MOL0     H64698   6.218   1.529  10.400 -2.5677  1.1885 -1.5132
  469MOL0     H64699   6.124   1.399  10.478  0.9051  0.5121 -1.2945
  469MOL0     H64700   6.218   1.460  10.692 -2.9847  0.5415 -0.0882
  469MOL0     H64701   6.282   1.615  10.616 -2.7982  0.8116  0.2046
  469MOL0     H64702   5.688   1.576   9.724  0.5270 -2.0449 -3.1193
  469MOL0     H64703   5.534   1.600   9.541  0.9160 -0.4697 -0.1322
  469MOL0     H64704   5.063   1.678   9.419 -1.1868 -0.0297  2.8297
  469MOL0     H64705   4.916   1.697   9.232 -0.2494  0.0224  0.7245
  469MOL0     H64706   5.763   1.903   9.053 -0.5825  0.8642  1.1466
  469MOL0     H64707   6.018   1.787   9.097  0.4677 -1.0825 -0.2346
  469MOL0     H64708   6.259   1.504   9.190  0.1744  1.9994 -2.5499
  469MOL0     H64709   6.461   1.396   9.157 -1.7598 -1.8782  1.8437
  469MOL0     H64710   6.683   1.399   9.042  1.1652 -1.8853 -0.4764
  469MOL0     H64711   6.844   1.408   9.109  0.3636 -0.9009 -1.2551
  469MOL0     H64712   6.625   1.225   9.163 -3.3188  3.4123  2.2783
  469MOL0     H64713   6.676   1.274   9.311 -1.6416  2.3125 -0.7173
  469MOL0     H64714   6.865   1.146   9.109 -1.7129  0.1389 -0.6053
  469MOL0     H64715   6.918   1.224   9.261 -0.4389 -0.7208  1.1821
  469MOL0     H64716   6.704   0.995   9.235  0.7111 -1.2712  2.5333
  469MOL0     H64717   6.768   1.050   9.386 -1.4152 -0.7695  0.5866
  469MOL0     H64718   7.070   0.785   9.226  0.9793  0.9270  2.3234
  469MOL0     H64719   6.671   1.726   9.341  0.9353 -2.4883 -0.5667
  469MOL0     H64720   6.414   1.922   9.321 -0.0254  0.0560  0.6961
  469MOL0     H64721   6.379   1.880   9.491 -1.4680  0.9109 -1.1045
  469MOL0     H64722   6.553   1.886   9.437  0.2438 -1.2605 -1.0363
  470MOL0     O64723   4.348   0.286   2.695  0.1350  0.3470  0.1535
  470MOL0     C64724   4.336   0.326   2.581  0.4310 -0.0648  0.1920
  470MOL0     O64725   4.429   0.405   2.520 -0.0141  0.0782 -0.5436
  470MOL0     C64726   4.548   0.433   2.580 -0.2126  0.9394 -0.1891
  470MOL0     C64727   4.645   0.326   2.581  0.2658  0.0422 -0.3424
  470MOL0     C64728   4.770   0.342   2.647  0.3562 -0.2483  0.7199
  470MOL0     C64729   4.799   0.464   2.710 -0.5624  0.4294  0.0512
  470MOL0     O64730   4.932   0.474   2.758  0.4885 -0.3091 -0.4597
  470MOL0     C64731   4.989   0.602   2.723  0.1590 -0.5691  0.6424
  470MOL0     C64732   5.079   0.574   2.599  0.2400  0.2382 -0.7674
  470MOL0     C64733   5.205   0.494   2.623  0.3277  0.6014 -0.0473
  470MOL0     C64734   5.287   0.489   2.488  0.0882  0.6656 -0.5638
  470MOL0     C64735   5.423   0.418   2.511 -0.2932 -0.7891  0.3896
  470MOL0     C64736   5.485   0.366   2.388 -1.1727 -0.8612  0.7421
  470MOL0     C64737   5.625   0.307   2.407 -0.4057 -0.3956  0.0541
  470MOL0     C64738   5.623   0.200   2.519 -0.4738 -0.4164 -0.8575
  470MOL0     N64739   5.733   0.105   2.510 -0.8756 -0.1663 -0.1859
  470MOL0     C64740   5.859   0.108   2.445 -0.6883 -0.6205  0.5631
  470MOL0     C64741   5.910  -0.012   2.445 -0.3499  0.2873 -0.2390
  470MOL0     C64742   6.038  -0.033   2.363  0.1439 -0.1214  0.3211
  470MOL0     C64743   6.087  -0.182   2.351  0.9631 -0.7525  0.2872
  470MOL0     C64744   6.142  -0.228   2.488 -0.9260 -0.3983  0.3826
  470MOL0     C64745   6.092  -0.371   2.528 -0.4843 -0.1549 -0.4131
  470MOL0     O64746   6.121  -0.460   2.419  0.9305 -0.0244 -0.1040
  470MOL0     C64747   6.246  -0.502   2.398 -0.0368  0.7137 -0.7352
  470MOL0     C64748   6.358  -0.482   2.484  0.2835  0.5619  0.3599
  470MOL0     C64749   6.482  -0.545   2.453  0.0787 -0.7079 -0.2783
  470MOL0     C64750   6.593  -0.508   2.555  0.5548  0.1092  0.0852
  470MOL0     C64751   6.501  -0.629   2.336 -0.2371  0.0918  1.2139
  470MOL0     C64752   6.632  -0.693   2.308 -0.3199 -0.5536 -0.3086
  470MOL0     O64753   6.749  -0.637   2.351  0.0070 -0.0049  1.2226
  470MOL0     C64754   6.870  -0.700   2.333  0.0912 -0.2906  0.4682
  470MOL0     C64755   6.949  -0.663   2.220  0.4210 -0.4049 -0.3965
  470MOL0     C64756   7.085  -0.713   2.209 -0.2624  0.1658 -0.2780
  470MOL0     C64757   7.133  -0.811   2.299 -0.0491 -0.4719 -0.1603
  470MOL0     O64758   7.248  -0.887   2.277  0.1328 -0.4841  0.2859
  470MOL0     C64759   7.247  -1.025   2.330  0.2354 -0.2809 -0.5112
  470MOL0     C64760   7.376  -1.099   2.295  0.0446 -0.9132 -0.0544
  470MOL0     C64761   7.494  -1.034   2.374 -0.2051 -0.3669  0.8892
  470MOL0     C64762   7.637  -1.083   2.326 -0.5882 -0.5580  0.4170
  470MOL0     C64763   7.692  -1.015   2.194  0.0555  0.0958 -0.2319
  470MOL0     C64764   7.822  -1.069   2.132  0.3337 -0.0920 -0.2687
  470MOL0     C64765   7.933  -1.035   2.233  0.0606 -0.2652 -0.0332
  470MOL0     C64766   8.069  -1.076   2.182  0.6157 -0.4180 -0.2587
  470MOL0    Cl64767   8.204  -0.968   2.233 -0.1474  0.2770  0.0499
  470MOL0     C64768   7.049  -0.840   2.409 -0.2931 -0.7684 -0.0381
  470MOL0     C64769   6.920  -0.792   2.427  0.2304 -0.5161 -0.4259
  470MOL0     O64770   6.621  -0.803   2.246  0.0068 -1.1575 -0.8395
  470MOL0     C64771   6.395  -0.639   2.253  0.1148 -0.0824  0.3574
  470MOL0     C64772   6.270  -0.580   2.286  0.4161 -0.7045  0.2253
  470MOL0     N64773   5.810  -0.091   2.490  0.0133  0.0600 -0.0846
  470MOL0     N64774   5.703  -0.022   2.531  0.2499  0.8964  0.5945
  470MOL0     C64775   4.700   0.564   2.710 -0.0945  0.0731  0.1505
  470MOL0     C64776   4.573   0.552   2.641 -0.0778  0.0754 -0.0248
  470MOL0     C64777   4.211   0.288   2.504 -0.3811  0.1605 -1.0964
  470MOL0     C64778   4.118   0.217   2.586 -0.5738  0.7307  0.4478
  470MOL0     C64779   3.993   0.178   2.538 -0.1031  0.6960  1.2301
  470MOL0     C64780   3.969   0.201   2.402  0.2916  0.1643  0.4872
  470MOL0     O64781   3.873   0.138   2.322 -0.4744  0.1961  0.0158
  470MOL0     C64782   3.760   0.055   2.370 -0.3975 -1.1948  1.0130
  470MOL0     C64783   3.690  -0.021   2.255 -0.3584 -0.6967 -0.0030
  470MOL0     C64784   3.553   0.039   2.210  0.2391 -0.3773 -0.5463
  470MOL0     C64785   3.449  -0.075   2.187 -0.4689 -1.2878 -0.8843
  470MOL0     C64786   3.313  -0.025   2.217 -0.6080  1.3430 -0.8033
  470MOL0     C64787   3.207   0.032   2.227  0.5828  0.1641 -0.1152
  470MOL0     C64788   4.057   0.274   2.321 -0.3399  0.4931  0.2187
  470MOL0     C64789   4.174   0.321   2.372 -0.5160 -0.9376  0.4283
  470MOL0     C64790   4.275   0.386   2.280 -0.5966  0.3180 -0.5946
  470MOL0     H64791   4.605   0.234   2.540  0.1256 -1.0551  2.0424
  470MOL0     H64792   4.848   0.266   2.658  1.9088  1.0407 -0.8061
  470MOL0     H64793   5.048   0.646   2.803  1.3205  2.5981 -1.7572
  470MOL0     H64794   4.916   0.683   2.715  0.2687 -0.4125  1.1923
  470MOL0     H64795   5.020   0.531   2.517 -3.1219  2.8753  0.0426
  470MOL0     H64796   5.104   0.671   2.555 -2.9259  0.6868 -1.8160
  470MOL0     H64797   5.268   0.548   2.695 -0.7167  1.2757  0.3923
  470MOL0     H64798   5.177   0.397   2.665 -1.9565  0.7497 -1.0856
  470MOL0     H64799   5.220   0.458   2.408  2.3246 -0.3617 -2.1156
  470MOL0     H64800   5.302   0.592   2.456 -1.9935  1.4011  0.5835
  470MOL0     H64801   5.405   0.322   2.559 -1.6316 -0.7520  0.0062
  470MOL0     H64802   5.483   0.499   2.554 -2.5199  2.0220 -1.3754
  470MOL0     H64803   5.425   0.297   2.328 -0.5686 -0.3610 -0.4998
  470MOL0     H64804   5.495   0.458   2.330 -1.4250 -0.7239  0.9182
  470MOL0     H64805   5.694   0.388   2.433 -0.8858 -0.2486  0.9246
  470MOL0     H64806   5.650   0.257   2.313  0.6338  0.7081 -0.2911
  470MOL0     H64807   5.621   0.257   2.613 -1.4472  1.1708 -1.7945
  470MOL0     H64808   5.528   0.147   2.512 -0.1529 -0.8269 -2.3309
  470MOL0     H64809   5.907   0.199   2.411  1.9415 -2.3809 -0.8196
  470MOL0     H64810   6.112   0.032   2.409 -0.1701 -0.8613  1.9262
  470MOL0     H64811   6.022   0.013   2.265  1.3690 -0.8907 -0.2529
  470MOL0     H64812   6.008  -0.250   2.318  2.3376 -0.8942 -3.0890
  470MOL0     H64813   6.168  -0.186   2.277  0.1378  0.0421 -0.6977
  470MOL0     H64814   6.251  -0.233   2.488 -0.9255 -0.5771 -0.7139
  470MOL0     H64815   6.114  -0.167   2.575  1.7079  2.2214 -0.4571
  470MOL0     H64816   6.133  -0.411   2.621 -1.3110 -1.2495 -0.5010
  470MOL0     H64817   5.985  -0.348   2.536 -0.4421 -0.0855 -0.0083
  470MOL0     H64818   6.347  -0.408   2.563 -1.9304  0.6146  0.0723
  470MOL0     H64819   6.667  -0.438   2.516  0.9915 -0.0683  0.5889
  470MOL0     H64820   6.650  -0.594   2.590 -0.3534 -0.6585 -0.2647
  470MOL0     H64821   6.542  -0.460   2.639  1.8461 -1.5795  1.9139
  470MOL0     H64822   6.909  -0.593   2.147 -1.2110  0.6308  1.3985
  470MOL0     H64823   7.163  -0.688   2.138  0.5728 -1.1381  0.1445
  470MOL0     H64824   7.243  -1.025   2.439  2.4855 -1.6486 -0.3699
  470MOL0     H64825   7.168  -1.087   2.286 -0.6644  1.2143 -1.0797
  470MOL0     H64826   7.370  -1.206   2.317 -2.1456 -0.9092 -0.4326
  470MOL0     H64827   7.390  -1.088   2.187  0.2618 -0.0737  0.0499
  470MOL0     H64828   7.482  -1.055   2.480  1.4838 -1.1219  0.9717
  470MOL0     H64829   7.488  -0.925   2.363 -2.1354 -0.4314  1.0049
  470MOL0     H64830   7.637  -1.192   2.319 -0.2628 -0.9437  4.3920
  470MOL0     H64831   7.703  -1.062   2.411  1.8208 -4.1750 -0.3660
  470MOL0     H64832   7.618  -1.028   2.115 -1.5911 -0.8168  1.3765
  470MOL0     H64833   7.697  -0.907   2.206 -1.1497  0.0513  0.8788
  470MOL0     H64834   7.836  -1.017   2.037 -1.7443  2.0291  0.4725
  470MOL0     H64835   7.814  -1.177   2.117  1.2202 -0.3200  0.7454
  470MOL0     H64836   7.930  -1.087   2.330 -1.6169 -1.7335 -0.8079
  470MOL0     H64837   7.926  -0.927   2.242 -1.8558 -0.5296  3.7717
  470MOL0     H64838   8.057  -1.074   2.073  2.1969  2.3366 -0.4906
  470MOL0     H64839   8.086  -1.181   2.205  2.1819  0.1741  1.5618
  470MOL0     H64840   7.090  -0.908   2.482 -0.7606  0.6232  1.5869
  470MOL0     H64841   6.859  -0.829   2.508  0.1791 -0.7676 -0.5813
  470MOL0     H64842   6.402  -0.688   2.156  0.4578  1.9969 -0.7428
  470MOL0     H64843   6.193  -0.598   2.212 -3.1132  2.2875  2.7962
  470MOL0     H64844   4.732   0.653   2.763  2.7789  0.6450 -2.2938
  470MOL0     H64845   4.500   0.633   2.640 -0.4086 -0.1593  1.5509
  470MOL0     H64846   4.151   0.192   2.686  2.0032 -2.8138 -1.0644
  470MOL0     H64847   3.927   0.116   2.597  1.7817 -0.9322  1.7168
  470MOL0     H64848   3.789  -0.023   2.442  1.6646 -1.0319  0.4238
  470MOL0     H64849   3.685   0.120   2.416 -0.5257 -0.0911 -0.7125
  470MOL0     H64850   3.675  -0.124   2.286 -1.8208 -0.7880 -0.9199
  470MOL0     H64851   3.753  -0.030   2.165 -1.2475  0.8047 -0.8231
  470MOL0     H64852   3.512   0.097   2.293 -0.0829 -0.3538 -0.7218
  470MOL0     H64853   3.567   0.108   2.126  2.2771 -2.2619 -1.8718
  470MOL0     H64854   3.463  -0.161   2.253 -2.3573  1.5466  3.6820
  470MOL0     H64855   3.449  -0.102   2.081  2.1415  1.0363 -1.5953
  470MOL0     H64856   3.114   0.078   2.255  0.7556 -0.3971  1.4163
  470MOL0     H64857   4.028   0.289   2.218 -0.1275 -1.3640 -0.1557
  470MOL0     H64858   4.303   0.486   2.314  0.1656  0.6948 -2.2528
  470MOL0     H64859   4.357   0.316   2.265 -0.7794 -0.6354  2.3360
  470MOL0     H64860   4.226   0.401   2.183 -2.1497 -1.4212 -0.1431
  471MOL0     O64861  10.422  10.691  10.926  0.8288  0.0438  0.1274
  471MOL0     C64862  10.442  10.575  10.900 -0.1329  0.7060  0.4045
  471MOL0     O64863  10.464  10.479  10.988 -0.3073 -0.1926  0.6279
  471MOL0     C64864  10.552  10.518  11.090  0.2012  0.3411 -0.4345
  471MOL0     C64865  10.694  10.499  11.064  0.5813 -0.0786 -0.0867
  471MOL0     C64866  10.792  10.548  11.154 -0.4908  0.0761 -0.0652
  471MOL0     C64867  10.737  10.596  11.277  0.1207  0.0243  0.9354
  471MOL0     O64868  10.822  10.618  11.382  0.3171 -0.1667 -0.3614
  471MOL0     C64869  10.884  10.491  11.421 -0.4034  0.4951  0.3437
  471MOL0     C64870  10.951  10.516  11.555  0.6751  0.4730  0.6038
  471MOL0     C64871  11.026  10.389  11.604 -0.2453 -0.3323 -0.4196
  471MOL0     C64872  10.938  10.268  11.652  0.3666 -0.6687 -0.4592
  471MOL0     C64873  11.022  10.164  11.737  0.3121 -0.1687  0.1276
  471MOL0     C64874  11.026  10.210  11.890 -0.7616 -0.4345  0.4102
  471MOL0     C64875  11.052  10.090  11.987 -0.1115  0.2500  0.5475
  471MOL0     C64876  11.070  10.136  12.131  0.2905  0.1054 -0.6764
  471MOL0     N64877  11.121  10.024  12.213 -0.3914 -0.2281 -0.4860
  471MOL0     C64878  11.056   9.938  12.300 -0.0918  0.0724 -0.2580
  471MOL0     C64879  11.169   9.862  12.349 -0.3802 -0.4432  0.0327
  471MOL0     C64880  11.150   9.744  12.437 -0.1091 -0.1305  0.5183
  471MOL0     C64881  11.182   9.779  12.574 -0.4313 -0.1810  0.8077
  471MOL0     C64882  11.192   9.660  12.665 -0.3603  0.0319 -0.0164
  471MOL0     C64883  11.069   9.568  12.685  0.8030 -0.1083  0.0514
  471MOL0     O64884  10.950   9.645  12.717 -0.1509  0.1508  0.1592
  471MOL0     C64885  10.834   9.575  12.687 -0.9018 -0.0678  0.7790
  471MOL0     C64886  10.796   9.546  12.557  0.4189 -0.4962 -0.7772
  471MOL0     C64887  10.677   9.479  12.528 -0.2207 -0.2925  0.0363
  471MOL0     C64888  10.649   9.441  12.383  0.2475 -0.7543  0.2150
  471MOL0     C64889  10.589   9.438  12.638  0.4058 -1.1164 -0.2029
  471MOL0     C64890  10.454   9.377  12.621 -0.3426 -0.2183 -0.2435
  471MOL0     O64891  10.408   9.299  12.722  0.4242 -0.9406  0.3972
  471MOL0     C64892  10.270   9.289  12.739  0.4195 -0.7916  0.3056
  471MOL0     C64893  10.203   9.176  12.680  0.1629 -0.0286  0.5396
  471MOL0     C64894  10.067   9.159  12.694 -0.6185  0.5707  0.4725
  471MOL0     C64895   9.989   9.254  12.760  0.1731  0.5507  0.8331
  471MOL0     O64896   9.860   9.220  12.775  1.1511  0.1153  0.8561
  471MOL0     C64897   9.759   9.328  12.780 -1.1516 -0.8155  0.1737
  471MOL0     C64898   9.617   9.279  12.760 -0.2875  0.3065 -0.9440
  471MOL0     C64899   9.568   9.177  12.864  0.3733 -0.2573  0.4109
  471MOL0     C64900   9.445   9.116  12.804  0.6677  0.9212  0.7193
  471MOL0     C64901   9.356   9.037  12.901  0.4481 -0.2516  0.2085
  471MOL0     C64902   9.267   8.935  12.825 -0.3560  1.8998 -0.3086
  471MOL0     C64903   9.201   8.838  12.922 -0.0042  1.0725  0.7155
  471MOL0     C64904   9.065   8.896  12.967 -0.5610 -0.1135  0.3656
  471MOL0    Cl64905   9.009   8.794  13.102  0.1496 -0.2611 -0.1055
  471MOL0     C64906  10.053   9.362  12.834 -0.9482  0.2921  0.0555
  471MOL0     C64907  10.193   9.385  12.818  0.2767  1.2046  0.3884
  471MOL0     O64908  10.382   9.416  12.527 -0.2655  0.2394 -0.5596
  471MOL0     C64909  10.626   9.476  12.771 -0.3136  0.4537 -0.4682
  471MOL0     C64910  10.751   9.535  12.791  0.2107 -1.1547  0.1664
  471MOL0     N64911  11.284   9.897  12.285  0.5216  0.7653 -0.0568
  471MOL0     N64912  11.253  10.000  12.217  0.9716 -0.1932  0.0007
  471MOL0     C64913  10.600  10.616  11.300  0.0012  0.0028 -1.5746
  471MOL0     C64914  10.509  10.578  11.207 -0.6622 -0.2587 -0.7561
  471MOL0     C64915  10.448  10.550  10.755 -0.2377  0.0534  0.2023
  471MOL0     C64916  10.375  10.443  10.697 -0.3261  0.2323 -0.0975
  471MOL0     C64917  10.388  10.410  10.557 -0.7430 -0.2643 -0.4003
  471MOL0     C64918  10.481  10.483  10.480 -0.7906  0.3449  0.2599
  471MOL0     O64919  10.527  10.456  10.354 -0.2082  0.5028 -0.0651
  471MOL0     C64920  10.488  10.329  10.305  0.0536 -0.2002  0.3057
  471MOL0     C64921  10.554  10.301  10.167 -0.5254  0.0215  0.2535
  471MOL0     C64922  10.504  10.172  10.111 -0.4965  0.3492  0.7875
  471MOL0     C64923  10.589  10.140   9.982  0.2858 -0.7720  0.3983
  471MOL0     C64924  10.733  10.134  10.002  0.0874  0.5108 -0.3734
  471MOL0     C64925  10.852  10.114  10.019  0.3351  0.0354  0.2423
  471MOL0     C64926  10.538  10.594  10.528 -0.3615  0.1746  0.0582
  471MOL0     C64927  10.536  10.622  10.668 -0.5071  0.5520  1.5549
  471MOL0     C64928  10.627  10.731  10.717 -0.1462  0.3502 -0.0620
  471MOL0     H64929  10.731  10.474  10.965 -2.9355  5.1730 -3.2779
  471MOL0     H64930  10.897  10.529  11.135  0.4940  4.1081  0.4198
  471MOL0     H64931  10.959  10.462  11.346 -0.2036 -1.3235  1.1748
  471MOL0     H64932  10.815  10.406  11.426  1.0468 -1.0275 -2.4085
  471MOL0     H64933  11.017  10.603  11.555  2.1985 -0.6348  1.3673
  471MOL0     H64934  10.872  10.541  11.627  0.3542 -0.3962  0.5648
  471MOL0     H64935  11.099  10.362  11.527  0.3930  0.8889 -0.2653
  471MOL0     H64936  11.081  10.407  11.697  1.3984  1.8514 -1.7364
  471MOL0     H64937  10.849  10.308  11.700 -0.2400 -2.6227  0.1293
  471MOL0     H64938  10.898  10.215  11.566 -1.0882  0.5466 -0.5751
  471MOL0     H64939  11.121  10.136  11.700  0.3130 -1.3037  0.9329
  471MOL0     H64940  10.965  10.071  11.736 -1.7673  1.0284 -0.6120
  471MOL0     H64941  11.109  10.280  11.902 -0.9560 -0.2473  0.6663
  471MOL0     H64942  10.931  10.259  11.915 -0.0963  2.4325 -2.1900
  471MOL0     H64943  11.135  10.028  11.950 -2.1158 -1.4207 -1.4042
  471MOL0     H64944  10.967  10.022  11.977 -0.4537  0.8617 -1.0801
  471MOL0     H64945  11.136  10.222  12.149 -1.8270  1.7873 -0.4817
  471MOL0     H64946  10.966  10.164  12.154  0.4630  4.9139 -4.1731
  471MOL0     H64947  10.950   9.926  12.321 -0.4596  0.6669 -1.6348
  471MOL0     H64948  11.216   9.668  12.394 -2.0955 -1.1833 -0.8318
  471MOL0     H64949  11.052   9.696  12.433 -0.3626  0.2361  1.8903
  471MOL0     H64950  11.277   9.833  12.572 -0.3113 -0.1157  3.7397
  471MOL0     H64951  11.112   9.851  12.617  0.7956  0.4558  1.8210
  471MOL0     H64952  11.277   9.602  12.629 -0.0503  1.1166 -1.1231
  471MOL0     H64953  11.216   9.698  12.764 -1.8345  1.8794 -0.3022
  471MOL0     H64954  11.049   9.515  12.591 -1.4931 -0.2895  0.5616
  471MOL0     H64955  11.090   9.502  12.770 -0.8504  0.0493  0.6352
  471MOL0     H64956  10.856   9.584  12.474  2.6854 -1.3014  0.4195
  471MOL0     H64957  10.576   9.506  12.335 -1.6166 -4.5428 -2.6615
  471MOL0     H64958  10.615   9.337  12.382 -0.1956 -0.6044 -0.9856
  471MOL0     H64959  10.742   9.453  12.326  0.2291  0.8846  0.4778
  471MOL0     H64960  10.265   9.097  12.639 -1.5022 -0.2430 -1.7746
  471MOL0     H64961  10.030   9.075  12.636  1.4948 -0.6784  0.8218
  471MOL0     H64962   9.755   9.378  12.878 -1.1702  0.6747 -0.5647
  471MOL0     H64963   9.770   9.396  12.695 -1.6064 -1.2899 -0.2716
  471MOL0     H64964   9.561   9.372  12.765  3.1019  2.4746  0.5722
  471MOL0     H64965   9.618   9.236  12.659  0.6993  2.6421 -2.0132
  471MOL0     H64966   9.543   9.225  12.959 -1.4341 -2.9020  1.3766
  471MOL0     H64967   9.638   9.095  12.883 -1.1647 -2.1838 -1.7198
  471MOL0     H64968   9.482   9.049  12.725 -0.3996  2.8500 -1.5456
  471MOL0     H64969   9.380   9.187  12.752  0.1274  0.0840  0.2259
  471MOL0     H64970   9.428   8.992  12.970  2.0438 -0.2073 -1.3477
  471MOL0     H64971   9.288   9.108  12.948 -0.2883  0.5878 -2.0230
  471MOL0     H64972   9.325   8.874  12.754 -1.1001 -1.4369  1.7331
  471MOL0     H64973   9.188   8.990  12.773 -0.6387  0.6682 -1.2230
  471MOL0     H64974   9.258   8.823  13.014  0.5414 -0.5537  0.1458
  471MOL0     H64975   9.202   8.740  12.875  3.9278 -0.6574  3.7526
  471MOL0     H64976   8.994   8.896  12.884  0.1146 -0.6367 -0.2254
  471MOL0     H64977   9.066   9.001  12.997 -2.2884 -0.7022  2.7836
  471MOL0     H64978   9.989   9.427  12.892 -0.5846  0.4046  0.3361
  471MOL0     H64979  10.243   9.459  12.878  0.7688  1.4297 -0.2865
  471MOL0     H64980  10.560   9.455  12.855 -2.5447 -0.4918 -2.3363
  471MOL0     H64981  10.782   9.562  12.892 -0.9316 -0.4433  0.3431
  471MOL0     H64982  10.581  10.666  11.395  1.7962 -1.4448 -0.3945
  471MOL0     H64983  10.402  10.592  11.217 -0.9991 -1.7005 -1.9980
  471MOL0     H64984  10.323  10.381  10.768  1.2517  0.1822  1.0844
  471MOL0     H64985  10.334  10.324  10.517  4.2517 -3.5329 -1.0644
  471MOL0     H64986  10.517  10.259  10.384  0.7653  0.3980  0.5987
  471MOL0     H64987  10.380  10.328  10.292  0.1520  0.8767 -0.7269
  471MOL0     H64988  10.662  10.303  10.181 -0.6346  1.5236  1.0255
  471MOL0     H64989  10.527  10.379  10.096 -3.3288  0.1465  1.3013
  471MOL0     H64990  10.508  10.084  10.176  0.9105 -1.2333 -1.3031
  471MOL0     H64991  10.398  10.187  10.086 -0.4002 -0.8460 -0.4688
  471MOL0     H64992  10.578  10.228   9.918 -0.0680 -0.2557  1.1558
  471MOL0     H64993  10.559  10.044   9.940 -0.2709 -1.4145  2.1645
  471MOL0     H64994  10.959  10.114  10.011  0.3514  3.6317 -1.7132
  471MOL0     H64995  10.603  10.646  10.458 -3.4843  0.1398 -3.1121
  471MOL0     H64996  10.585  10.831  10.703  1.9348  1.3227  0.2913
  471MOL0     H64997  10.639  10.713  10.825 -2.2442 -0.4581  0.0923
  471MOL0     H64998  10.720  10.721  10.661  0.8373 -0.5804  1.6412
  472MOL0     O64999  10.506   8.729   4.954 -0.2073  0.5163  1.3738
  472MOL0     C65000  10.526   8.791   5.055  0.4289 -0.7913 -0.4993
  472MOL0     O65001  10.568   8.927   5.051  0.1270 -0.6555 -0.0109
  472MOL0     C65002  10.566   8.997   4.927  0.2530 -0.7498 -0.3203
  472MOL0     C65003  10.455   9.014   4.847  0.3195  0.3136 -0.3527
  472MOL0     C65004  10.455   9.086   4.726 -0.7504 -0.4936 -0.5196
  472MOL0     C65005  10.566   9.146   4.681  0.3212  0.5238 -0.0407
  472MOL0     O65006  10.582   9.207   4.556  0.0086 -0.0390  0.1946
  472MOL0     C65007  10.500   9.317   4.542  0.3993 -0.2365  0.0484
  472MOL0     C65008  10.586   9.424   4.476 -0.6713 -0.1096 -0.1056
  472MOL0     C65009  10.727   9.454   4.532  0.4578 -0.5113 -0.6359
  472MOL0     C65010  10.707   9.557   4.646  0.4542  0.6836  0.1456
  472MOL0     C65011  10.830   9.579   4.728  0.0177 -0.3354 -0.3442
  472MOL0     C65012  10.813   9.705   4.806 -1.0834 -0.1026 -0.2111
  472MOL0     C65013  10.711   9.701   4.921 -0.4951  0.2746  1.0871
  472MOL0     C65014  10.726   9.824   5.004 -0.3693  0.1435 -0.0886
  472MOL0     N65015  10.712   9.947   4.932  0.0564 -0.4147  0.1642
  472MOL0     C65016  10.804  10.053   4.952  0.2414 -0.9090 -0.8702
  472MOL0     C65017  10.754  10.146   4.872  0.0445  0.0016 -0.3228
  472MOL0     C65018  10.843  10.276   4.836 -0.1424 -0.6317  0.1303
  472MOL0     C65019  10.819  10.390   4.936  0.3567 -0.4207 -0.5289
  472MOL0     C65020  10.941  10.490   4.935  0.4749 -0.3217  0.1164
  472MOL0     C65021  10.970  10.574   4.804  0.6622  0.8196  0.1052
  472MOL0     O65022  11.075  10.520   4.722  0.9284 -0.0124 -0.7705
  472MOL0     C65023  11.126  10.585   4.619 -0.7676  0.0559 -0.1330
  472MOL0     C65024  11.243  10.547   4.562 -0.5651  0.6254 -0.2765
  472MOL0     C65025  11.301  10.611   4.452 -0.0072  0.1994 -0.5455
  472MOL0     C65026  11.425  10.541   4.393 -0.0372  0.2720  0.3257
  472MOL0     C65027  11.227  10.713   4.381 -0.9900 -0.3803 -0.4427
  472MOL0     C65028  11.272  10.778   4.253 -0.2544 -0.0674  0.3662
  472MOL0     O65029  11.405  10.790   4.227  0.0190 -0.4620  0.0409
  472MOL0     C65030  11.450  10.804   4.095  0.2970 -0.2429 -1.3094
  472MOL0     C65031  11.577  10.860   4.086  0.2283 -0.5518  0.9087
  472MOL0     C65032  11.652  10.880   3.967  0.7465 -0.4749  0.8303
  472MOL0     C65033  11.584  10.854   3.848 -0.2873 -0.5092 -0.2844
  472MOL0     O65034  11.651  10.870   3.723 -0.0597  0.6597 -0.1198
  472MOL0     C65035  11.584  10.856   3.592 -0.1993  0.1930  0.2528
  472MOL0     C65036  11.546  10.981   3.513  0.2300 -0.3538 -0.5403
  472MOL0     C65037  11.427  11.058   3.568 -0.0289 -0.4746  0.3953
  472MOL0     C65038  11.295  10.982   3.564 -0.0800 -0.6863 -0.2038
  472MOL0     C65039  11.172  11.065   3.604 -0.0731  0.4618 -0.9573
  472MOL0     C65040  11.143  11.071   3.751 -0.2358  0.3235  0.7902
  472MOL0     C65041  10.999  11.122   3.788 -0.4695  0.3921 -0.1759
  472MOL0     C65042  10.995  11.280   3.774  0.5400  0.3147  0.3030
  472MOL0    Cl65043  10.840  11.354   3.827  0.1662 -0.1504 -0.3910
  472MOL0     C65044  11.456  10.790   3.859  0.2117 -0.0144 -0.1260
  472MOL0     C65045  11.398  10.758   3.980  0.0036  0.3432 -0.9023
  472MOL0     O65046  11.180  10.815   4.181  0.4482 -0.1792  0.4499
  472MOL0     C65047  11.114  10.770   4.449 -0.7289  0.9693  0.0331
  472MOL0     C65048  11.069  10.701   4.567 -0.0772 -0.1111  0.1072
  472MOL0     N65049  10.632  10.106   4.816 -0.0158 -0.7752  0.6510
  472MOL0     N65050  10.618   9.985   4.840  0.6220  0.4970  0.3605
  472MOL0     C65051  10.675   9.131   4.769  0.3899  0.8081  0.4623
  472MOL0     C65052  10.675   9.066   4.890 -0.5976  0.9809  0.9132
  472MOL0     C65053  10.526   8.714   5.189 -0.0330 -1.0506  0.3915
  472MOL0     C65054  10.571   8.786   5.296 -0.4523  0.2488 -1.1820
  472MOL0     C65055  10.594   8.726   5.422  0.0683 -0.0791  0.1410
  472MOL0     C65056  10.554   8.597   5.438  0.9386 -0.4553 -0.2486
  472MOL0     O65057  10.570   8.539   5.565  0.3909 -0.1702 -0.3115
  472MOL0     C65058  10.505   8.414   5.606 -0.9395 -1.0954 -0.1011
  472MOL0     C65059  10.560   8.361   5.734  0.6312  0.2501  0.9477
  472MOL0     C65060  10.710   8.359   5.736  0.2549  0.2068 -0.3609
  472MOL0     C65061  10.752   8.279   5.867 -0.0751 -0.0715 -0.2894
  472MOL0     C65062  10.905   8.285   5.889 -0.2184  0.0823 -0.1118
  472MOL0     C65063  11.028   8.297   5.901 -0.2697  0.6554 -0.4228
  472MOL0     C65064  10.491   8.523   5.334  0.3786 -0.2310  1.1081
  472MOL0     C65065  10.461   8.586   5.216  0.2023  0.5862  0.2653
  472MOL0     C65066  10.390   8.511   5.104 -0.8725  0.6795  0.0771
  472MOL0     H65067  10.367   8.968   4.890  2.0273 -1.2385  1.7193
  472MOL0     H65068  10.367   9.106   4.665  0.4468 -1.6695 -2.7485
  472MOL0     H65069  10.471   9.356   4.640  1.0385  0.6588 -0.1145
  472MOL0     H65070  10.414   9.295   4.478 -0.2605  0.3622  0.7045
  472MOL0     H65071  10.616   9.384   4.379 -0.3419 -2.5019  0.9123
  472MOL0     H65072  10.530   9.515   4.453 -2.5010 -1.0123  0.5965
  472MOL0     H65073  10.779   9.364   4.567 -0.6683 -0.6837  0.6571
  472MOL0     H65074  10.797   9.499   4.461 -0.7537 -0.0236 -1.5646
  472MOL0     H65075  10.654   9.646   4.609  2.5170  1.4236 -1.1731
  472MOL0     H65076  10.637   9.515   4.720  2.3889  0.1368  1.7626
  472MOL0     H65077  10.909   9.601   4.657 -1.0153 -0.4607 -1.5653
  472MOL0     H65078  10.855   9.488   4.783 -0.0468 -0.7508 -0.9973
  472MOL0     H65079  10.905   9.725   4.863 -1.8794  0.6609  0.8444
  472MOL0     H65080  10.790   9.789   4.741 -1.5787  0.3711  0.5655
  472MOL0     H65081  10.719   9.611   4.981  0.0773  2.1361  4.0190
  472MOL0     H65082  10.610   9.707   4.879 -1.0629 -2.6245  1.8346
  472MOL0     H65083  10.641   9.811   5.071 -0.1517 -1.5187 -0.0933
  472MOL0     H65084  10.820   9.810   5.059 -1.3125 -3.5393  0.8861
  472MOL0     H65085  10.902  10.052   5.001  0.7731  2.0803 -1.6970
  472MOL0     H65086  10.825  10.318   4.737 -0.4067  1.0348  0.8597
  472MOL0     H65087  10.949  10.249   4.842  0.2004  0.6654  0.0561
  472MOL0     H65088  10.725  10.443   4.920  0.9552  0.7683 -0.2230
  472MOL0     H65089  10.808  10.349   5.037 -2.3281 -0.1285 -0.6408
  472MOL0     H65090  10.928  10.562   5.017  2.2672 -0.5793  0.6666
  472MOL0     H65091  11.035  10.436   4.953  0.6423  0.2370  0.9805
  472MOL0     H65092  10.878  10.589   4.746  0.2754  1.1339  0.7862
  472MOL0     H65093  11.003  10.674   4.834 -1.9365  1.9871 -0.5878
  472MOL0     H65094  11.298  10.465   4.609 -2.3724 -1.8832 -2.2481
  472MOL0     H65095  11.455  10.555   4.289 -0.6709  2.0511  0.3645
  472MOL0     H65096  11.404  10.437   4.419  1.8784 -0.1533  0.3795
  472MOL0     H65097  11.515  10.565   4.451 -0.0633  0.1451  0.4225
  472MOL0     H65098  11.626  10.892   4.177 -0.0685  1.4694  0.4019
  472MOL0     H65099  11.753  10.919   3.967  0.4711  0.2792 -0.0931
  472MOL0     H65100  11.645  10.794   3.525 -0.6464  0.7759 -0.7107
  472MOL0     H65101  11.495  10.793   3.600 -0.3512  0.2146 -1.1216
  472MOL0     H65102  11.643  11.032   3.515  0.4847 -0.8225 -0.8512
  472MOL0     H65103  11.531  10.946   3.411  2.2233  0.4073 -1.1447
  472MOL0     H65104  11.407  11.155   3.521 -2.3709 -2.0677 -2.2452
  472MOL0     H65105  11.445  11.079   3.673 -0.6560 -0.6241  0.5357
  472MOL0     H65106  11.302  10.904   3.640 -0.4088  0.2368  0.7979
  472MOL0     H65107  11.281  10.926   3.471 -0.6354 -0.8503 -0.0247
  472MOL0     H65108  11.193  11.169   3.574  2.0003  0.7406  1.1006
  472MOL0     H65109  11.088  11.027   3.546 -1.2831 -2.5698  2.4089
  472MOL0     H65110  11.217  11.141   3.791 -0.1337  0.6393  0.0754
  472MOL0     H65111  11.162  10.968   3.783  1.9802 -0.4306 -2.4438
  472MOL0     H65112  10.968  11.097   3.890 -0.7413 -1.2231 -0.6333
  472MOL0     H65113  10.927  11.087   3.714 -2.2241  0.0414  1.6088
  472MOL0     H65114  11.012  11.305   3.669 -1.7633  0.8604  0.0106
  472MOL0     H65115  11.080  11.323   3.828  0.4685  1.9902 -0.8421
  472MOL0     H65116  11.399  10.762   3.772 -0.0971 -1.5818  0.5502
  472MOL0     H65117  11.302  10.707   3.983 -0.7059  1.6540 -0.8025
  472MOL0     H65118  11.055  10.854   4.415 -2.3966 -0.3493 -0.4893
  472MOL0     H65119  10.981  10.743   4.615 -1.0531 -0.4982 -1.2963
  472MOL0     H65120  10.770   9.182   4.756  1.6643 -1.2224  1.3514
  472MOL0     H65121  10.764   9.069   4.952 -0.3007  1.7167  0.4514
  472MOL0     H65122  10.597   8.891   5.297  0.5077  0.0755 -3.0637
  472MOL0     H65123  10.624   8.779   5.512 -1.6413  0.4650  0.4379
  472MOL0     H65124  10.398   8.437   5.615 -1.1243 -0.2842 -3.2904
  472MOL0     H65125  10.500   8.340   5.526  2.0613 -0.1047 -1.3445
  472MOL0     H65126  10.517   8.261   5.742 -0.4138  0.4227 -1.6188
  472MOL0     H65127  10.527   8.411   5.825 -2.6883 -0.7549  0.4079
  472MOL0     H65128  10.743   8.308   5.645  0.2983 -1.5822  0.6148
  472MOL0     H65129  10.746   8.461   5.719 -2.2752  0.6727 -3.9574
  472MOL0     H65130  10.741   8.170   5.860 -1.9219  0.0494  0.3013
  472MOL0     H65131  10.701   8.319   5.954  0.0216 -0.1050 -0.2167
  472MOL0     H65132  11.134   8.281   5.904 -0.5836 -1.7969  2.8439
  472MOL0     H65133  10.449   8.425   5.354 -0.3162  0.3766  2.8940
  472MOL0     H65134  10.319   8.577   5.052 -2.4745 -0.6699  0.4564
  472MOL0     H65135  10.460   8.478   5.026 -1.8697 -0.3878 -0.4172
  472MOL0     H65136  10.331   8.424   5.136  0.3350  0.1158  0.8292
  473MOL0     O65137   2.345  10.329   8.507 -0.2361  0.6400 -0.1261
  473MOL0     C65138   2.354  10.243   8.417 -0.6557  1.0377 -0.1627
  473MOL0     O65139   2.465  10.218   8.356  0.3258 -0.8748 -0.0091
  473MOL0     C65140   2.579  10.287   8.381 -1.0815 -1.0641 -0.6242
  473MOL0     C65141   2.636  10.310   8.509 -0.6384  0.3584 -0.0377
  473MOL0     C65142   2.765  10.379   8.524 -0.0625  0.0156 -0.0835
  473MOL0     C65143   2.844  10.407   8.409 -0.1878 -0.7712 -0.3542
  473MOL0     O65144   2.987  10.437   8.411 -0.1484  0.4268  0.1730
  473MOL0     C65145   3.048  10.490   8.528 -0.2251 -0.0195 -0.5041
  473MOL0     C65146   3.200  10.497   8.499  0.1411  0.4439 -1.0143
  473MOL0     C65147   3.279  10.541   8.625  0.2930 -0.5112 -0.0003
  473MOL0     C65148   3.426  10.572   8.611  0.3686  0.5424  0.0451
  473MOL0     C65149   3.496  10.600   8.742 -0.0608 -0.7183  0.0136
  473MOL0     C65150   3.647  10.592   8.724 -0.6367  0.2748 -0.0434
  473MOL0     C65151   3.719  10.604   8.859  0.5852  0.1573  0.8996
  473MOL0     C65152   3.865  10.547   8.861  0.7991 -0.4409 -1.3336
  473MOL0     N65153   3.931  10.551   8.992 -0.0670  0.5045 -0.1330
  473MOL0     C65154   4.061  10.592   9.015  0.3610  0.2965 -0.1012
  473MOL0     C65155   4.063  10.591   9.148 -0.4162  0.6339  1.5353
  473MOL0     C65156   4.192  10.600   9.228  0.5136  0.1586 -0.5407
  473MOL0     C65157   4.272  10.466   9.244 -0.5678 -0.5307 -1.2605
  473MOL0     C65158   4.341  10.462   9.380  0.0311  0.7582  0.1016
  473MOL0     C65159   4.448  10.565   9.400  0.6520  0.1316 -0.3080
  473MOL0     O65160   4.482  10.584   9.540  0.3747 -0.4185  1.1747
  473MOL0     C65161   4.381  10.642   9.620 -0.0457  0.6553  0.3570
  473MOL0     C65162   4.328  10.576   9.735 -0.7026  0.1483  0.1823
  473MOL0     C65163   4.254  10.653   9.830  0.8147  1.8196 -0.0955
  473MOL0     C65164   4.199  10.572   9.947 -0.2690  0.3323 -0.6324
  473MOL0     C65165   4.218  10.793   9.802  0.0306  0.1922  0.7906
  473MOL0     C65166   4.144  10.890   9.896  0.3362  0.3043  0.8135
  473MOL0     O65167   4.145  11.024   9.873 -0.3288 -0.4501 -0.6880
  473MOL0     C65168   4.052  11.110   9.931 -0.8576  0.1166  0.1931
  473MOL0     C65169   4.083  11.185  10.045  0.1711  0.7028  0.0873
  473MOL0     C65170   3.992  11.263  10.108  0.6278  0.4867 -0.9300
  473MOL0     C65171   3.871  11.279  10.044 -0.2677 -0.4755 -0.3048
  473MOL0     O65172   3.773  11.356  10.115 -0.5327 -0.4977 -0.1179
  473MOL0     C65173   3.632  11.352  10.072  0.5830 -0.0342  0.1598
  473MOL0     C65174   3.616  11.464   9.972 -0.2379 -0.6921  0.9793
  473MOL0     C65175   3.474  11.485   9.931  0.1721  0.4796  1.3025
  473MOL0     C65176   3.473  11.558   9.792 -0.3374 -0.4037 -0.4815
  473MOL0     C65177   3.322  11.585   9.755  0.1168  0.3284 -0.2324
  473MOL0     C65178   3.239  11.707   9.806  0.1290  0.0133  0.6549
  473MOL0     C65179   3.277  11.836   9.729  0.5663  0.2434 -0.0679
  473MOL0     C65180   3.192  11.960   9.778  0.5075 -0.1856 -0.3361
  473MOL0    Cl65181   3.019  11.923   9.798  0.0220  0.2407 -0.0849
  473MOL0     C65182   3.846  11.214   9.927 -0.8323 -0.2275  0.5417
  473MOL0     C65183   3.934  11.121   9.867  0.5410  0.4758 -0.3722
  473MOL0     O65184   4.107  10.846  10.006 -1.2233 -0.3465 -0.2995
  473MOL0     C65185   4.267  10.846   9.678  0.6029 -0.8449 -0.4086
  473MOL0     C65186   4.351  10.768   9.596  1.0996 -0.5782  0.0528
  473MOL0     N65187   3.947  10.550   9.202 -1.6909  0.2544  0.1208
  473MOL0     N65188   3.864  10.542   9.111  0.2980  1.0671 -0.4198
  473MOL0     C65189   2.778  10.384   8.283  0.4242  0.4749  0.5937
  473MOL0     C65190   2.658  10.326   8.270 -0.4260  0.3900 -0.6261
  473MOL0     C65191   2.230  10.160   8.394 -0.1581  0.2348  0.0543
  473MOL0     C65192   2.115  10.177   8.474 -0.3001  0.4326  0.1275
  473MOL0     C65193   1.997  10.107   8.451 -0.2015 -0.0952 -0.3455
  473MOL0     C65194   1.983  10.032   8.337  0.3278  0.2357 -0.3777
  473MOL0     O65195   1.868   9.966   8.295  0.4209 -0.0810 -0.2367
  473MOL0     C65196   1.746  10.004   8.360 -0.4426  0.1223  0.3463
  473MOL0     C65197   1.713   9.918   8.484  0.3933  0.1751 -0.4296
  473MOL0     C65198   1.573   9.949   8.540 -0.0914 -0.1272  0.7711
  473MOL0     C65199   1.521   9.828   8.619  0.3966  0.4598  0.3187
  473MOL0     C65200   1.390   9.870   8.668  0.3012  0.1329  0.1904
  473MOL0     C65201   1.292   9.935   8.701 -0.1527 -0.2778  1.2445
  473MOL0     C65202   2.092  10.020   8.252 -0.0709  0.7600  0.0930
  473MOL0     C65203   2.219  10.078   8.279  0.0314 -0.4682  0.3240
  473MOL0     C65204   2.337  10.024   8.194  0.3905 -0.2281 -0.0458
  473MOL0     H65205   2.579  10.276   8.595 -4.0181  3.5552 -0.7415
  473MOL0     H65206   2.812  10.389   8.622 -1.8060  1.6698  0.6415
  473MOL0     H65207   3.039  10.427   8.616  2.1970  2.3103  1.5717
  473MOL0     H65208   3.001  10.588   8.541 -2.8136 -1.2118 -0.2119
  473MOL0     H65209   3.232  10.402   8.455 -1.1998 -0.0144 -1.0616
  473MOL0     H65210   3.212  10.576   8.423  1.0289  0.4486 -0.8701
  473MOL0     H65211   3.219  10.630   8.643 -2.1780 -1.6620 -1.9353
  473MOL0     H65212   3.257  10.471   8.707 -0.7896 -3.2433 -2.4511
  473MOL0     H65213   3.458  10.478   8.566  0.8089  0.2850  0.8704
  473MOL0     H65214   3.442  10.648   8.534  2.6349 -0.4908 -0.5933
  473MOL0     H65215   3.456  10.519   8.804 -2.9280  0.6171  0.0517
  473MOL0     H65216   3.457  10.693   8.785 -1.9265 -1.0718 -0.8230
  473MOL0     H65217   3.679  10.497   8.680 -0.7582 -0.1537  0.7930
  473MOL0     H65218   3.692  10.672   8.663 -2.4450  1.1729 -0.2703
  473MOL0     H65219   3.672  10.551   8.943 -1.0227  1.5193  0.9114
  473MOL0     H65220   3.717  10.711   8.883  1.6273  0.6178 -0.9191
  473MOL0     H65221   3.857  10.441   8.835  0.8872 -1.4620  2.2053
  473MOL0     H65222   3.923  10.594   8.781  1.8974 -0.9387 -0.8639
  473MOL0     H65223   4.141  10.602   8.943 -0.8279 -2.1106 -1.9011
  473MOL0     H65224   4.167  10.644   9.325 -2.2668 -0.1228 -1.0469
  473MOL0     H65225   4.248  10.672   9.167 -0.8330  1.5931 -0.1429
  473MOL0     H65226   4.210  10.378   9.225 -0.6345 -1.5518  2.7653
  473MOL0     H65227   4.359  10.453   9.181  0.3488 -0.8010  0.0119
  473MOL0     H65228   4.262  10.480   9.455 -0.3269  2.4573 -0.6380
  473MOL0     H65229   4.387  10.365   9.400 -0.8092  0.1211 -0.9238
  473MOL0     H65230   4.542  10.533   9.355  1.4560  2.4740 -0.4321
  473MOL0     H65231   4.424  10.657   9.346  0.9186 -0.2779 -1.1562
  473MOL0     H65232   4.341  10.469   9.748 -5.2351 -1.1511 -3.3920
  473MOL0     H65233   4.090  10.578   9.943 -0.3208 -0.7283 -1.3674
  473MOL0     H65234   4.221  10.623  10.041 -4.0620  1.4172 -0.2091
  473MOL0     H65235   4.227  10.466   9.946 -0.6805  0.2126 -0.0169
  473MOL0     H65236   4.180  11.166  10.088 -0.6789 -1.8031  1.0720
  473MOL0     H65237   4.006  11.303  10.207 -1.7094 -2.5627  0.8442
  473MOL0     H65238   3.593  11.255  10.040 -2.2299  1.9805 -3.1760
  473MOL0     H65239   3.571  11.384  10.156 -1.0167 -0.9108 -0.6338
  473MOL0     H65240   3.652  11.558  10.014  2.9466 -1.5526  0.5123
  473MOL0     H65241   3.681  11.434   9.889  2.1160 -0.2012  2.5417
  473MOL0     H65242   3.419  11.554   9.995 -0.8912  0.9846 -0.1031
  473MOL0     H65243   3.405  11.400   9.930 -0.9329  1.3184  2.9953
  473MOL0     H65244   3.538  11.497   9.729  1.2955 -1.2614  1.8740
  473MOL0     H65245   3.523  11.656   9.798  0.9646 -1.0478 -0.5174
  473MOL0     H65246   3.313  11.597   9.647  1.3310  1.3353 -0.2450
  473MOL0     H65247   3.262  11.495   9.772  2.5084 -1.3891 -0.5168
  473MOL0     H65248   3.263  11.714   9.912 -1.5984  3.2248  0.9342
  473MOL0     H65249   3.137  11.686   9.773  0.9003 -0.9223 -1.2977
  473MOL0     H65250   3.264  11.814   9.623 -1.2013  0.2937  0.1064
  473MOL0     H65251   3.382  11.858   9.748  0.6695  2.1471 -2.3819
  473MOL0     H65252   3.189  12.045   9.710  0.5095  2.0042  2.2279
  473MOL0     H65253   3.239  11.994   9.871  3.1544 -2.2015 -0.7953
  473MOL0     H65254   3.758  11.241   9.870 -1.0374  3.4675  2.2863
  473MOL0     H65255   3.905  11.062   9.781 -1.1609 -2.0120  1.7752
  473MOL0     H65256   4.242  10.945   9.640 -0.6442 -1.4900 -1.3642
  473MOL0     H65257   4.390  10.819   9.508  1.4179 -0.9587 -0.0270
  473MOL0     H65258   2.821  10.415   8.188  0.6165  4.8907  1.9103
  473MOL0     H65259   2.631  10.300   8.169 -0.7033  0.1021 -0.4785
  473MOL0     H65260   2.120  10.233   8.567 -3.4506 -1.2169  1.4518
  473MOL0     H65261   1.920  10.133   8.523 -1.9822 -2.0954 -1.4460
  473MOL0     H65262   1.731  10.110   8.386 -0.6169  0.2797 -0.3720
  473MOL0     H65263   1.672   9.982   8.283  0.7836 -4.4368  0.1886
  473MOL0     H65264   1.786   9.949   8.560  0.6816 -2.4050  0.4619
  473MOL0     H65265   1.721   9.814   8.452 -2.2808 -0.0111 -0.7149
  473MOL0     H65266   1.580  10.035   8.608  2.4894 -1.2181  2.0125
  473MOL0     H65267   1.513   9.966   8.450  3.2048 -3.3333 -2.4042
  473MOL0     H65268   1.594   9.794   8.693  0.8371 -3.5038 -1.6794
  473MOL0     H65269   1.502   9.748   8.546 -1.5475  0.2481  1.0133
  473MOL0     H65270   1.207   9.999   8.712  2.2432  3.1816  1.3328
  473MOL0     H65271   2.086   9.956   8.164 -3.8931 -1.8021  1.9157
  473MOL0     H65272   2.363  10.097   8.117 -1.2969 -0.2723 -0.7024
  473MOL0     H65273   2.426  10.004   8.254  1.2468 -2.5267 -1.9326
  473MOL0     H65274   2.308   9.928   8.152 -3.4374  0.1199  1.4048
  474MOL0     O65275   2.881   9.752   0.378  0.6277 -0.2899  0.4514
  474MOL0     C65276   2.783   9.679   0.350 -0.6469  0.0400  0.3916
  474MOL0     O65277   2.705   9.690   0.236 -0.9209 -0.0524  0.2585
  474MOL0     C65278   2.733   9.798   0.150 -0.1511  1.1358  0.6508
  474MOL0     C65279   2.767   9.931   0.195  0.8348  0.4828 -0.2202
  474MOL0     C65280   2.772  10.031   0.096 -0.4457  0.8695 -0.8356
  474MOL0     C65281   2.755  10.011  -0.032 -0.0956 -0.0216  0.2977
  474MOL0     O65282   2.767  10.122  -0.118 -0.7250  0.4816  0.2657
  474MOL0     C65283   2.761  10.103  -0.259  0.0101 -1.0521 -0.9575
  474MOL0     C65284   2.815  10.239  -0.305  0.2672  0.4632  0.3326
  474MOL0     C65285   2.712  10.347  -0.290 -0.9060  1.4444 -0.0617
  474MOL0     C65286   2.707  10.449  -0.399 -0.9554  0.1130  0.1311
  474MOL0     C65287   2.702  10.586  -0.338  0.1200  0.2217  0.1120
  474MOL0     C65288   2.839  10.632  -0.281  0.3157  0.1290 -0.6190
  474MOL0     C65289   2.829  10.768  -0.206 -0.2054  0.1835 -0.4195
  474MOL0     C65290   2.963  10.831  -0.179 -0.4383 -0.5655 -0.5157
  474MOL0     N65291   3.033  10.747  -0.087 -0.1646 -0.4630 -0.3809
  474MOL0     C65292   3.165  10.763  -0.053  0.3632  0.2960 -0.1102
  474MOL0     C65293   3.189  10.711   0.071 -0.3974 -0.5510 -0.9086
  474MOL0     C65294   3.323  10.727   0.137 -1.1795  0.4066  0.3246
  474MOL0     C65295   3.363  10.584   0.168 -0.2983  0.5260 -0.9114
  474MOL0     C65296   3.500  10.585   0.217  0.2283 -0.2261  0.6201
  474MOL0     C65297   3.539  10.441   0.265 -0.4709  0.2559 -0.0247
  474MOL0     O65298   3.676  10.436   0.294 -0.0159  0.8273  0.5280
  474MOL0     C65299   3.727  10.516   0.402  0.2837 -0.0154  0.7835
  474MOL0     C65300   3.839  10.605   0.382 -0.7787 -0.2030  0.7017
  474MOL0     C65301   3.891  10.686   0.480  0.4714  0.8193 -0.4783
  474MOL0     C65302   4.008  10.780   0.436 -0.8229  0.3484  0.0597
  474MOL0     C65303   3.846  10.681   0.619  0.8989 -0.2580 -0.1762
  474MOL0     C65304   3.899  10.758   0.740  0.2006  0.6978 -0.3518
  474MOL0     O65305   3.921  10.684   0.851 -0.0828  1.1822  0.4100
  474MOL0     C65306   3.973  10.756   0.961 -0.3266  0.1433 -0.1573
  474MOL0     C65307   4.112  10.771   0.964 -0.7669  0.7390 -0.1681
  474MOL0     C65308   4.165  10.813   1.088  1.0309 -0.8056  0.0787
  474MOL0     C65309   4.089  10.862   1.195  0.3074 -0.0447  0.2748
  474MOL0     O65310   4.155  10.898   1.312  0.4732  0.1772 -0.1293
  474MOL0     C65311   4.078  10.962   1.414 -0.0057 -0.1091  0.5272
  474MOL0     C65312   4.157  11.011   1.543 -0.1691 -0.2448 -0.3442
  474MOL0     C65313   4.208  10.890   1.623 -0.1142 -0.4405 -1.1170
  474MOL0     C65314   4.331  10.822   1.551  0.7046  0.1078  1.2684
  474MOL0     C65315   4.373  10.700   1.640 -0.3425  0.8748  0.6134
  474MOL0     C65316   4.447  10.748   1.766  0.8428  0.8948 -0.8312
  474MOL0     C65317   4.519  10.627   1.822  0.0796 -0.1870 -1.3522
  474MOL0     C65318   4.555  10.636   1.968  0.4412 -0.8307 -0.0883
  474MOL0    Cl65319   4.600  10.465   2.030 -0.2977 -0.1918 -0.1877
  474MOL0     C65320   3.952  10.864   1.176  0.0988 -0.9134  0.3414
  474MOL0     C65321   3.890  10.812   1.064  0.2262 -0.6749 -1.0827
  474MOL0     O65322   3.932  10.881   0.732  0.2237  0.3014 -0.2297
  474MOL0     C65323   3.741  10.582   0.645  0.2371  0.2900  0.1444
  474MOL0     C65324   3.693  10.499   0.534  0.4342 -0.6554  0.4887
  474MOL0     N65325   3.064  10.667   0.119 -0.0426 -0.2250  0.4950
  474MOL0     N65326   2.979  10.697   0.023  0.2688 -0.3437 -0.9290
  474MOL0     C65327   2.723   9.878  -0.076 -0.2782 -0.3904 -0.2887
  474MOL0     C65328   2.712   9.772   0.017 -0.4663 -0.3048 -0.2113
  474MOL0     C65329   2.740   9.573   0.445 -0.4661 -0.4869 -0.7233
  474MOL0     C65330   2.622   9.504   0.432 -0.2329 -0.8335 -0.2840
  474MOL0     C65331   2.568   9.412   0.518 -0.4786 -0.8532  0.9608
  474MOL0     C65332   2.649   9.374   0.624  0.8286  1.0589  0.9046
  474MOL0     O65333   2.612   9.284   0.719  0.1331  0.1387  0.4608
  474MOL0     C65334   2.540   9.169   0.677  0.2876  0.2101 -0.4660
  474MOL0     C65335   2.633   9.048   0.666 -0.1211  0.4582 -0.1530
  474MOL0     C65336   2.573   8.914   0.620  0.4723 -0.2954  0.1097
  474MOL0     C65337   2.679   8.813   0.580 -0.3944 -0.7739 -0.3211
  474MOL0     C65338   2.637   8.672   0.578  0.7885 -0.4594 -0.1485
  474MOL0     C65339   2.592   8.559   0.567 -0.0276 -1.4583  0.4601
  474MOL0     C65340   2.774   9.427   0.634  0.6094 -0.1304 -0.3156
  474MOL0     C65341   2.822   9.536   0.561  0.4229  0.8009  0.7551
  474MOL0     C65342   2.960   9.585   0.581  0.1686 -0.7375 -0.3497
  474MOL0     H65343   2.778   9.954   0.300  0.8066 -1.6826  0.2992
  474MOL0     H65344   2.805  10.129   0.131  2.7241  0.2315 -1.6866
  474MOL0     H65345   2.659  10.076  -0.289 -1.2837  1.1816  1.0256
  474MOL0     H65346   2.824  10.016  -0.279  0.1512 -1.1859  0.0410
  474MOL0     H65347   2.912  10.266  -0.265  1.0101 -0.7856 -0.5259
  474MOL0     H65348   2.829  10.221  -0.412  0.2933 -1.0419  0.5707
  474MOL0     H65349   2.616  10.294  -0.291 -0.6819  1.0394 -0.7688
  474MOL0     H65350   2.722  10.392  -0.191 -2.8224 -1.3950  1.5689
  474MOL0     H65351   2.791  10.453  -0.469 -1.1917 -0.6243 -0.2058
  474MOL0     H65352   2.617  10.434  -0.460 -1.3505  1.8994  0.2185
  474MOL0     H65353   2.627  10.593  -0.258  0.0715  0.6759  0.0336
  474MOL0     H65354   2.662  10.655  -0.412 -3.0980 -1.8969 -0.2972
  474MOL0     H65355   2.880  10.548  -0.226  0.0475 -0.9968 -2.0706
  474MOL0     H65356   2.909  10.640  -0.365  3.2492 -1.4037  1.4915
  474MOL0     H65357   2.776  10.745  -0.113  0.9232 -0.6787  0.0437
  474MOL0     H65358   2.777  10.843  -0.265  3.2062  2.7360 -0.4610
  474MOL0     H65359   3.021  10.833  -0.271 -0.5651  1.5319 -0.5982
  474MOL0     H65360   2.966  10.933  -0.141  1.2844 -1.3559  1.7432
  474MOL0     H65361   3.243  10.811  -0.113  1.2100  0.9524  1.4431
  474MOL0     H65362   3.329  10.786   0.229  0.7923  1.4462 -0.4249
  474MOL0     H65363   3.384  10.773   0.059 -0.6704  0.1820  0.5879
  474MOL0     H65364   3.288  10.554   0.242 -0.7230 -0.0262 -1.5479
  474MOL0     H65365   3.355  10.515   0.083  1.3907  0.3856 -0.9881
  474MOL0     H65366   3.575  10.623   0.148  1.1463 -3.1449 -0.1416
  474MOL0     H65367   3.508  10.649   0.305  0.6506 -2.1969  2.1074
  474MOL0     H65368   3.475  10.407   0.346 -0.0968  1.4652  0.8034
  474MOL0     H65369   3.530  10.375   0.178  1.1111 -0.2592  0.1681
  474MOL0     H65370   3.887  10.605   0.285 -2.0493 -3.0412 -0.0324
  474MOL0     H65371   4.075  10.716   0.378 -1.6904 -2.2471  1.7707
  474MOL0     H65372   4.057  10.813   0.528 -0.8145 -2.3465  1.1128
  474MOL0     H65373   3.967  10.863   0.379 -1.8761 -2.4088 -3.5557
  474MOL0     H65374   4.176  10.739   0.882 -2.3030 -0.6861 -0.8657
  474MOL0     H65375   4.272  10.817   1.101  1.0335 -1.2557  0.2182
  474MOL0     H65376   4.035  11.052   1.371 -2.1299 -1.8945 -1.3130
  474MOL0     H65377   3.994  10.902   1.451  0.1959  0.3552  1.8005
  474MOL0     H65378   4.244  11.070   1.512  1.5709 -1.5236  1.7715
  474MOL0     H65379   4.094  11.072   1.609  0.2169 -2.1101  1.9015
  474MOL0     H65380   4.131  10.812   1.633 -0.4058  0.1527  3.2817
  474MOL0     H65381   4.250  10.928   1.716 -1.7394  3.1658 -1.6687
  474MOL0     H65382   4.411  10.895   1.541  0.3942  0.1356 -3.3912
  474MOL0     H65383   4.301  10.789   1.451  0.8160  0.4856  1.1079
  474MOL0     H65384   4.284  10.640   1.660  0.2181 -0.7195 -1.3748
  474MOL0     H65385   4.440  10.631   1.588  1.1938  0.5612  2.8466
  474MOL0     H65386   4.365  10.782   1.830 -1.2827 -1.7785 -1.9427
  474MOL0     H65387   4.509  10.836   1.748  1.5998  0.4002 -0.6999
  474MOL0     H65388   4.609  10.605   1.763  0.6583 -1.4496 -0.0618
  474MOL0     H65389   4.454  10.541   1.807  1.1850 -1.0617 -1.2483
  474MOL0     H65390   4.470  10.678   2.023 -1.4906 -0.4646 -3.0718
  474MOL0     H65391   4.645  10.697   1.976 -0.4428  0.4554  0.5595
  474MOL0     H65392   3.892  10.894   1.262 -1.9735 -1.4343 -0.8511
  474MOL0     H65393   3.781  10.815   1.059  0.2838 -0.0895 -4.2608
  474MOL0     H65394   3.681  10.573   0.735 -0.6861  2.1812 -0.2444
  474MOL0     H65395   3.620  10.421   0.550  2.1349 -2.3605  0.2950
  474MOL0     H65396   2.704   9.864  -0.182  0.2702 -0.9030 -0.3264
  474MOL0     H65397   2.693   9.671  -0.018  2.4371 -0.2946 -2.1498
  474MOL0     H65398   2.552   9.512   0.349  0.1100  3.8375 -0.4210
  474MOL0     H65399   2.465   9.379   0.510 -0.9583  0.8693 -0.7000
  474MOL0     H65400   2.465   9.152   0.754  1.7095 -2.7824  0.4250
  474MOL0     H65401   2.483   9.191   0.587 -1.2217  3.2429  1.0760
  474MOL0     H65402   2.683   9.040   0.763 -0.8818  1.4459  0.3279
  474MOL0     H65403   2.709   9.074   0.592 -2.1595 -0.5301 -2.7642
  474MOL0     H65404   2.522   8.858   0.699  0.2682 -1.6078 -0.9208
  474MOL0     H65405   2.515   8.921   0.528 -0.1863 -2.5075  0.2916
  474MOL0     H65406   2.756   8.823   0.657 -2.7913  0.3826  2.0892
  474MOL0     H65407   2.718   8.842   0.482 -0.8792 -1.2363 -0.6571
  474MOL0     H65408   2.552   8.462   0.546 -0.1556 -1.0775 -1.2011
  474MOL0     H65409   2.848   9.399   0.708 -1.7406  0.5205  2.4286
  474MOL0     H65410   3.020   9.519   0.644  0.6175  1.7516  2.0451
  474MOL0     H65411   3.020   9.601   0.492  0.3823  2.3895  0.2471
  474MOL0     H65412   2.965   9.681   0.633 -1.3266  0.1042 -1.6694
  475MOL0     O65413   0.584   5.116   9.229 -0.6156  0.3793 -1.2463
  475MOL0     C65414   0.581   5.051   9.125 -0.1606 -0.5147  0.2254
  475MOL0     O65415   0.661   4.950   9.092  0.6377  0.9678  0.1992
  475MOL0     C65416   0.728   4.885   9.188 -0.3212 -0.5074 -0.1469
  475MOL0     C65417   0.744   4.744   9.170 -0.3247  0.2889 -0.3235
  475MOL0     C65418   0.822   4.664   9.255  0.5281 -1.3094  1.5705
  475MOL0     C65419   0.894   4.721   9.353 -1.1682  0.6682  0.3054
  475MOL0     O65420   0.980   4.637   9.428 -0.1451  0.1443 -0.5220
  475MOL0     C65421   1.016   4.664   9.564  0.6120  1.1178  0.7929
  475MOL0     C65422   0.934   4.579   9.658  0.3713 -0.0359  0.4228
  475MOL0     C65423   1.017   4.552   9.793  0.6043 -0.0784  0.7829
  475MOL0     C65424   0.944   4.484   9.908  0.3088  0.3144 -0.0052
  475MOL0     C65425   0.841   4.582   9.966  0.1011  0.1599  0.3010
  475MOL0     C65426   0.771   4.528  10.093  0.7446  1.1824  0.8410
  475MOL0     C65427   0.697   4.643  10.172 -0.1802  0.2277  0.0400
  475MOL0     C65428   0.638   4.608  10.309 -0.5954  0.3513 -0.1863
  475MOL0     N65429   0.530   4.506  10.301 -0.1885  0.0824 -0.1499
  475MOL0     C65430   0.545   4.372  10.285  0.3635  0.9928 -0.3438
  475MOL0     C65431   0.416   4.315  10.270 -0.9081 -0.3976  0.0811
  475MOL0     C65432   0.393   4.177  10.233  0.5875  0.4748  0.4323
  475MOL0     C65433   0.404   4.146  10.082 -0.4342  0.2570  0.2338
  475MOL0     C65434   0.347   4.006  10.041 -0.0935  0.1953 -0.1075
  475MOL0     C65435   0.395   3.958   9.906 -0.0713 -0.9820  0.8221
  475MOL0     O65436   0.371   4.056   9.806 -0.2514  0.0132 -0.1253
  475MOL0     C65437   0.240   4.091   9.769  0.8039  0.1841  0.1356
  475MOL0     C65438   0.126   4.023   9.793 -0.0065  0.4360 -0.3871
  475MOL0     C65439  -0.001   4.069   9.766 -0.1902  0.6652  0.1642
  475MOL0     C65440  -0.108   3.967   9.769  0.1187  0.0898 -0.0042
  475MOL0     C65441  -0.017   4.200   9.705 -0.3972  0.7091  0.2552
  475MOL0     C65442  -0.145   4.254   9.660  0.3592 -0.0265  0.0400
  475MOL0     O65443  -0.256   4.181   9.659 -0.3343  0.5532 -0.1856
  475MOL0     C65444  -0.377   4.218   9.603 -0.1802  0.0193  0.4828
  475MOL0     C65445  -0.490   4.224   9.675 -0.2951 -1.1819 -0.7222
  475MOL0     C65446  -0.615   4.229   9.610  1.1892  0.2568 -0.5787
  475MOL0     C65447  -0.640   4.240   9.478 -0.6478  0.1012 -0.9159
  475MOL0     O65448  -0.760   4.218   9.413  0.3744 -0.2192 -0.2730
  475MOL0     C65449  -0.790   4.074   9.409  0.4282  0.2407  0.1671
  475MOL0     C65450  -0.921   4.058   9.335 -0.0802 -0.1183 -0.5890
  475MOL0     C65451  -0.965   3.914   9.333 -0.4011 -0.1731  0.7963
  475MOL0     C65452  -0.864   3.827   9.254 -0.3330  0.3122 -0.4640
  475MOL0     C65453  -0.933   3.702   9.184 -0.4293 -0.1772  0.4469
  475MOL0     C65454  -1.006   3.749   9.064 -0.2586 -0.0946  0.2191
  475MOL0     C65455  -1.087   3.648   9.002 -0.0939 -0.0391  0.2479
  475MOL0     C65456  -1.205   3.696   8.926  0.4948  0.1382 -0.4291
  475MOL0    Cl65457  -1.161   3.821   8.792  0.1557  0.2498  0.3824
  475MOL0     C65458  -0.515   4.250   9.408  0.7339  0.1358 -0.2230
  475MOL0     C65459  -0.386   4.231   9.467 -0.4307 -0.3259 -0.1633
  475MOL0     O65460  -0.143   4.379   9.630 -0.2066  0.4019  0.1714
  475MOL0     C65461   0.103   4.265   9.672  0.5150  0.3004  0.0125
  475MOL0     C65462   0.223   4.217   9.712  0.1916 -0.3149  0.5842
  475MOL0     N65463   0.331   4.425  10.277 -0.2939 -0.4125 -0.2404
  475MOL0     N65464   0.396   4.532  10.300  0.4048 -0.2777  1.1823
  475MOL0     C65465   0.869   4.859   9.377 -0.1185 -0.4793  0.5683
  475MOL0     C65466   0.794   4.939   9.303  0.6088  0.2665 -0.6555
  475MOL0     C65467   0.476   5.086   9.032  0.6373  0.1609  0.7966
  475MOL0     C65468   0.433   4.998   8.928 -1.0950 -0.1908  0.8738
  475MOL0     C65469   0.329   5.012   8.839 -0.8545 -0.6894 -0.9470
  475MOL0     C65470   0.260   5.132   8.845  0.4916 -0.3071  0.4119
  475MOL0     O65471   0.156   5.158   8.764  0.3465 -0.5127  0.5279
  475MOL0     C65472   0.207   5.181   8.631  0.1931  0.7807  0.3107
  475MOL0     C65473   0.233   5.056   8.539 -0.2747  0.7034 -0.0847
  475MOL0     C65474   0.094   4.996   8.505  0.1837 -0.1431 -1.0234
  475MOL0     C65475   0.101   4.887   8.401  0.0135  0.7865 -0.5251
  475MOL0     C65476   0.171   4.913   8.269 -0.4273  0.1006  0.3765
  475MOL0     C65477   0.237   4.930   8.166  0.0265 -0.5181  0.3104
  475MOL0     C65478   0.305   5.231   8.929  0.1536  0.4125  0.7853
  475MOL0     C65479   0.402   5.214   9.029 -0.7493 -0.5148  0.0890
  475MOL0     C65480   0.431   5.332   9.115 -0.6178 -0.1950  0.4605
  475MOL0     H65481   0.703   4.709   9.076  2.2874 -1.2504 -1.0067
  475MOL0     H65482   0.837   4.559   9.234  0.1262 -1.0709 -0.0015
  475MOL0     H65483   0.997   4.768   9.589  0.8179  2.0513 -2.4629
  475MOL0     H65484   1.122   4.638   9.572 -0.0365 -2.2659 -0.0453
  475MOL0     H65485   0.841   4.636   9.666  0.2847  0.0798 -1.0683
  475MOL0     H65486   0.906   4.482   9.617 -0.7472 -0.9078  3.0117
  475MOL0     H65487   1.101   4.487   9.768  0.8624 -0.2057  1.9340
  475MOL0     H65488   1.057   4.649   9.822  0.4386  0.3140 -0.2572
  475MOL0     H65489   0.902   4.387   9.880  0.8902 -0.8234  2.7367
  475MOL0     H65490   1.019   4.444   9.977  0.5674 -2.4406 -1.7294
  475MOL0     H65491   0.764   4.602   9.892  0.1956 -1.2913 -0.2276
  475MOL0     H65492   0.887   4.678   9.990  0.3775 -0.2148  1.3404
  475MOL0     H65493   0.711   4.440  10.066  0.0112  2.6122 -2.7601
  475MOL0     H65494   0.847   4.483  10.158  1.4332 -1.5766 -1.6644
  475MOL0     H65495   0.612   4.683  10.115 -0.7814  1.1339  1.5156
  475MOL0     H65496   0.761   4.731  10.186 -2.6279  2.9000 -3.3844
  475MOL0     H65497   0.718   4.568  10.372 -0.3082 -1.1466 -1.4551
  475MOL0     H65498   0.609   4.703  10.357  0.0363 -0.0242  0.9705
  475MOL0     H65499   0.639   4.321  10.266 -0.6536 -0.8944 -0.5051
  475MOL0     H65500   0.288   4.165  10.261  0.9697 -3.0164  0.8368
  475MOL0     H65501   0.453   4.108  10.295 -0.2890 -2.1307 -1.4516
  475MOL0     H65502   0.360   4.223  10.018  1.2243  2.8054  1.9627
  475MOL0     H65503   0.511   4.145  10.059 -0.6436 -0.3081 -0.7559
  475MOL0     H65504   0.375   3.935  10.119  0.1034 -0.0847 -0.4347
  475MOL0     H65505   0.238   3.997  10.043 -0.0987  0.1635  2.0633
  475MOL0     H65506   0.503   3.945   9.918  0.3196  2.5849  2.3472
  475MOL0     H65507   0.359   3.859   9.876 -0.3436 -0.3773 -0.9579
  475MOL0     H65508   0.135   3.919   9.822 -2.3503  0.6111  1.2095
  475MOL0     H65509  -0.153   3.957   9.670 -1.4276 -0.2116  0.7036
  475MOL0     H65510  -0.193   3.994   9.833  1.3102  1.2167  1.1810
  475MOL0     H65511  -0.062   3.873   9.801  0.2894 -0.0491 -0.6529
  475MOL0     H65512  -0.470   4.226   9.781  0.6511  1.0297 -0.8641
  475MOL0     H65513  -0.701   4.220   9.676  1.1779  0.5312 -0.5568
  475MOL0     H65514  -0.711   4.020   9.357 -1.9858 -0.9776 -2.4754
  475MOL0     H65515  -0.801   4.046   9.515 -1.3734 -0.9701 -0.2932
  475MOL0     H65516  -1.000   4.117   9.383 -1.6624 -0.5892 -2.4767
  475MOL0     H65517  -0.917   4.100   9.235 -0.4475 -0.6029 -0.8117
  475MOL0     H65518  -1.063   3.925   9.286  1.1917  0.7513 -2.5957
  475MOL0     H65519  -0.980   3.869   9.431  0.4848 -0.2629  0.9009
  475MOL0     H65520  -0.773   3.805   9.309 -0.1380 -3.8416 -2.1431
  475MOL0     H65521  -0.818   3.887   9.174 -0.3715  1.0036  0.0197
  475MOL0     H65522  -0.860   3.626   9.157 -1.0267 -1.0469  1.2120
  475MOL0     H65523  -0.985   3.649   9.265  1.2273  0.1171  1.7648
  475MOL0     H65524  -0.933   3.785   8.992  0.5885 -4.0867 -1.1667
  475MOL0     H65525  -1.073   3.825   9.104  0.1970 -0.3088  1.4403
  475MOL0     H65526  -1.128   3.593   9.088 -0.0023 -0.0417  0.2900
  475MOL0     H65527  -1.029   3.584   8.935  1.1048  2.3744 -1.1270
  475MOL0     H65528  -1.282   3.740   8.989  0.1240 -0.4127 -0.4880
  475MOL0     H65529  -1.269   3.623   8.875 -0.0544  1.6595 -2.0365
  475MOL0     H65530  -0.519   4.268   9.301 -0.0130  1.7623  0.0488
  475MOL0     H65531  -0.298   4.225   9.405  0.2699 -2.6515  0.9275
  475MOL0     H65532   0.104   4.359   9.617 -0.5548 -1.5159 -3.3771
  475MOL0     H65533   0.312   4.276   9.694  1.0759 -1.7791 -0.0105
  475MOL0     H65534   0.921   4.906   9.460 -1.3169  0.2750  0.9170
  475MOL0     H65535   0.796   5.040   9.343  3.0110  0.4101 -1.0224
  475MOL0     H65536   0.478   4.899   8.916 -2.4494 -0.7687  0.3441
  475MOL0     H65537   0.297   4.934   8.770 -2.2120 -1.1146  0.1359
  475MOL0     H65538   0.142   5.247   8.574  0.9447  1.1768 -0.1018
  475MOL0     H65539   0.303   5.232   8.637  0.2138  0.6851  0.8567
  475MOL0     H65540   0.304   4.981   8.574 -1.5681  0.1647  1.4901
  475MOL0     H65541   0.258   5.111   8.448 -1.6355  2.6312  0.6326
  475MOL0     H65542   0.048   4.967   8.600  0.2557  2.1746 -0.2179
  475MOL0     H65543   0.022   5.067   8.464 -0.7412 -0.9191 -0.7837
  475MOL0     H65544   0.002   4.854   8.369 -0.9054  3.0319 -0.1415
  475MOL0     H65545   0.161   4.810   8.450  3.4100  0.5136 -4.6254
  475MOL0     H65546   0.298   4.949   8.080 -1.0955  0.2512 -0.3342
  475MOL0     H65547   0.252   5.326   8.933 -0.3536  0.1182  1.1093
  475MOL0     H65548   0.379   5.422   9.079 -1.9182 -1.3832 -0.7976
  475MOL0     H65549   0.405   5.317   9.220  0.9744 -1.1241  0.7375
  475MOL0     H65550   0.537   5.352   9.103 -0.8367 -0.8538 -4.5213
  476MOL0     O65551   5.633   6.306  11.184 -0.1554 -0.1785 -0.5721
  476MOL0     C65552   5.654   6.225  11.270 -0.4708  0.4767  0.1113
  476MOL0     O65553   5.769   6.162  11.280  0.0314  0.0354 -0.1968
  476MOL0     C65554   5.884   6.203  11.216 -0.0331 -0.4956  1.0505
  476MOL0     C65555   5.912   6.159  11.087 -0.4818 -0.1815 -0.8364
  476MOL0     C65556   6.037   6.193  11.026  0.5129 -0.2238  0.0715
  476MOL0     C65557   6.130   6.280  11.089 -0.1576 -0.3389  0.6999
  476MOL0     O65558   6.250   6.298  11.023 -0.3122 -0.7109  0.6401
  476MOL0     C65559   6.356   6.349  11.110 -0.1310  0.7508 -0.3894
  476MOL0     C65560   6.488   6.271  11.069  0.3126  0.7137 -0.0155
  476MOL0     C65561   6.530   6.299  10.924  0.4723  0.0094  0.3037
  476MOL0     C65562   6.646   6.205  10.874 -0.2275  0.5014 -0.2878
  476MOL0     C65563   6.725   6.270  10.761  0.3783  0.4227 -0.3109
  476MOL0     C65564   6.824   6.183  10.670 -0.6297  0.3801 -0.0313
  476MOL0     C65565   6.932   6.138  10.760  0.6676  0.0514 -0.2017
  476MOL0     C65566   6.991   6.017  10.691  0.7255 -0.2995  0.7613
  476MOL0     N65567   7.121   5.977  10.749  0.1978  0.7572  0.1906
  476MOL0     C65568   7.231   6.002  10.677 -0.4914 -0.5756  0.1811
  476MOL0     C65569   7.330   5.973  10.766 -0.0768  0.5611 -0.0990
  476MOL0     C65570   7.479   5.980  10.738  0.5617 -0.3301 -0.1961
  476MOL0     C65571   7.541   6.120  10.760  0.2949 -0.5320  0.0705
  476MOL0     C65572   7.690   6.111  10.734  0.2623 -0.8394 -0.4720
  476MOL0     C65573   7.742   6.238  10.678 -0.1216 -1.0137 -0.0427
  476MOL0     O65574   7.880   6.232  10.659 -0.4378 -0.4185 -0.7105
  476MOL0     C65575   7.945   6.344  10.617 -0.1253 -1.0289  0.1962
  476MOL0     C65576   7.902   6.477  10.612 -0.3576  0.4037 -0.0908
  476MOL0     C65577   7.983   6.583  10.567 -0.7247  0.5439  0.1233
  476MOL0     C65578   7.899   6.704  10.559 -0.3663  0.0561  0.1543
  476MOL0     C65579   8.115   6.553  10.528  0.2742 -0.3011  0.8933
  476MOL0     C65580   8.208   6.660  10.471 -0.0013  0.3018 -0.3350
  476MOL0     O65581   8.326   6.614  10.443 -0.6320  0.3044  0.3662
  476MOL0     C65582   8.400   6.687  10.355 -0.0712 -0.1065 -0.1606
  476MOL0     C65583   8.534   6.695  10.373  0.7582 -0.0919  0.1618
  476MOL0     C65584   8.623   6.735  10.266 -0.5372 -0.1079 -0.8274
  476MOL0     C65585   8.570   6.757  10.140  0.4111  0.7282  0.0995
  476MOL0     O65586   8.664   6.764  10.041  0.3744  0.2788  0.3820
  476MOL0     C65587   8.626   6.760   9.899 -0.2932 -0.2099  0.3736
  476MOL0     C65588   8.758   6.769   9.811  0.3323 -0.0996  0.1432
  476MOL0     C65589   8.827   6.898   9.815  0.2726  0.1941  0.0348
  476MOL0     C65590   8.815   6.981   9.684 -0.3183  0.6616 -0.9173
  476MOL0     C65591   8.916   7.100   9.676 -0.0843 -0.1283 -0.3544
  476MOL0     C65592   8.917   7.189   9.804 -0.7541 -0.5022 -0.5786
  476MOL0     C65593   8.998   7.317   9.770 -1.6034 -1.0452 -0.3503
  476MOL0     C65594   9.015   7.407   9.896 -0.4209  0.3142 -0.2946
  476MOL0    Cl65595   9.090   7.308  10.027 -0.3149 -0.3973 -0.0380
  476MOL0     C65596   8.430   6.763  10.127 -0.8663  0.7236  0.2466
  476MOL0     C65597   8.345   6.731  10.232 -0.2935 -0.0808  0.9050
  476MOL0     O65598   8.173   6.780  10.478  0.2375  0.0453  0.0315
  476MOL0     C65599   8.158   6.414  10.548 -0.4283 -0.6928  0.4792
  476MOL0     C65600   8.069   6.315  10.589 -0.3105  0.4493  0.3199
  476MOL0     N65601   7.278   5.929  10.885  0.1774  0.5375 -0.1083
  476MOL0     N65602   7.148   5.936  10.876  0.3229  0.4477 -0.0445
  476MOL0     C65603   6.088   6.335  11.209 -0.0753 -0.1342 -0.1300
  476MOL0     C65604   5.974   6.290  11.272 -0.7236 -0.8520 -1.0452
  476MOL0     C65605   5.552   6.186  11.374 -0.1040  0.1711  0.7213
  476MOL0     C65606   5.593   6.104  11.479  0.5132 -0.3306  0.3208
  476MOL0     C65607   5.515   6.064  11.589  0.0513 -0.5997  0.3959
  476MOL0     C65608   5.378   6.110  11.582  0.7333  0.1035 -0.0506
  476MOL0     O65609   5.299   6.068  11.686  0.3001 -1.0179  0.0310
  476MOL0     C65610   5.164   6.137  11.694 -0.5289  1.0862 -0.0410
  476MOL0     C65611   5.083   6.069  11.804 -0.3388 -1.0039  0.5076
  476MOL0     C65612   5.041   5.935  11.760 -0.0070 -0.8697  0.2185
  476MOL0     C65613   4.947   5.864  11.846 -0.1904  0.6527 -1.1001
  476MOL0     C65614   5.004   5.840  11.981 -0.0808 -0.5040 -0.2482
  476MOL0     C65615   5.047   5.813  12.088 -0.7559  0.9063  0.1254
  476MOL0     C65616   5.338   6.183  11.474  0.6390 -0.1136  0.2468
  476MOL0     C65617   5.418   6.228  11.376 -0.1914 -0.1151 -0.8129
  476MOL0     C65618   5.361   6.304  11.259 -0.5924 -0.4473 -0.3081
  476MOL0     H65619   5.850   6.093  11.027  0.3127  0.2033 -2.1236
  476MOL0     H65620   6.064   6.145  10.932 -1.5183 -0.3666 -0.4726
  476MOL0     H65621   6.332   6.323  11.213 -2.3732 -2.2833 -1.5386
  476MOL0     H65622   6.385   6.455  11.101 -1.2649  1.3629  2.2170
  476MOL0     H65623   6.569   6.291  11.140 -1.1781  0.4688  1.8485
  476MOL0     H65624   6.459   6.166  11.072 -1.0779  1.0058 -1.7468
  476MOL0     H65625   6.444   6.293  10.857  2.1464 -0.2562 -1.9164
  476MOL0     H65626   6.564   6.403  10.927  1.8343 -0.3467 -1.3126
  476MOL0     H65627   6.707   6.178  10.961 -0.1928  1.9295  0.1582
  476MOL0     H65628   6.608   6.115  10.826  4.7180  0.1846 -4.4454
  476MOL0     H65629   6.793   6.340  10.810  1.9675 -1.7469  0.7412
  476MOL0     H65630   6.660   6.320  10.689 -1.1857  1.1589  1.5079
  476MOL0     H65631   6.771   6.094  10.635 -2.3132  0.4575  2.0564
  476MOL0     H65632   6.866   6.241  10.587  0.5782  0.1948  0.4301
  476MOL0     H65633   6.892   6.111  10.858 -0.3848  0.0803 -0.6161
  476MOL0     H65634   7.010   6.215  10.761 -0.9495  1.9782 -3.7473
  476MOL0     H65635   6.929   5.927  10.678  0.5870 -0.0968 -0.0511
  476MOL0     H65636   7.004   6.049  10.588  1.9725  1.8842  1.5384
  476MOL0     H65637   7.244   6.045  10.578  1.8305  4.3735  2.2562
  476MOL0     H65638   7.493   5.944  10.636 -1.0899  0.4651 -0.7343
  476MOL0     H65639   7.520   5.910  10.812  0.1925 -1.1628 -0.7657
  476MOL0     H65640   7.484   6.183  10.692  1.3362  1.1756  0.7222
  476MOL0     H65641   7.529   6.152  10.864 -3.7634 -0.9298 -0.1108
  476MOL0     H65642   7.749   6.071  10.817 -1.8757 -2.8562  0.1929
  476MOL0     H65643   7.691   6.045  10.647  1.2409 -0.6665 -0.6016
  476MOL0     H65644   7.692   6.251  10.581 -0.5448 -2.5449 -0.0571
  476MOL0     H65645   7.705   6.314  10.747  2.0889 -0.7121  0.8867
  476MOL0     H65646   7.797   6.489  10.640  0.0825  0.2462  1.7554
  476MOL0     H65647   7.891   6.742  10.456  1.7133  0.0392 -0.0502
  476MOL0     H65648   7.954   6.767  10.629  0.6696 -2.4320  1.7464
  476MOL0     H65649   7.795   6.696  10.592 -1.2991  1.2835 -2.2579
  476MOL0     H65650   8.569   6.648  10.464 -3.5460 -2.0436  1.0365
  476MOL0     H65651   8.731   6.737  10.261 -0.5312 -0.0447 -0.6570
  476MOL0     H65652   8.580   6.662   9.887  1.7464 -1.0049 -1.7920
  476MOL0     H65653   8.553   6.831   9.861 -1.2009 -2.6450 -2.8195
  476MOL0     H65654   8.829   6.703   9.861 -1.7456 -1.8741  0.9014
  476MOL0     H65655   8.747   6.743   9.706  0.7951 -0.5408  0.2031
  476MOL0     H65656   8.934   6.878   9.828 -0.3623 -1.5367  4.1431
  476MOL0     H65657   8.784   6.959   9.895  1.0046 -0.9823  1.3595
  476MOL0     H65658   8.714   7.023   9.681 -0.5509  0.1739 -0.2599
  476MOL0     H65659   8.827   6.916   9.596 -0.8105 -3.0947  1.5666
  476MOL0     H65660   9.017   7.064   9.658  0.1489  0.6922 -0.6997
  476MOL0     H65661   8.885   7.176   9.604  1.8573  2.0747  1.0013
  476MOL0     H65662   8.944   7.133   9.894 -4.5663 -0.7381  0.5847
  476MOL0     H65663   8.815   7.221   9.827 -0.5646  0.7027 -1.3310
  476MOL0     H65664   8.940   7.379   9.702 -0.6594  1.1003  0.7032
  476MOL0     H65665   9.101   7.298   9.737  0.7588  2.0232  4.1664
  476MOL0     H65666   8.920   7.443   9.937  0.8724  0.9118  2.3798
  476MOL0     H65667   9.079   7.491   9.866  0.0575 -0.1039 -0.4621
  476MOL0     H65668   8.387   6.771  10.028  1.0037  1.2195 -0.5786
  476MOL0     H65669   8.239   6.724  10.212  0.2340 -0.2800 -2.2315
  476MOL0     H65670   8.261   6.391  10.522 -0.2747  3.1127 -3.5632
  476MOL0     H65671   8.110   6.216  10.602  3.7651  1.7984 -0.7135
  476MOL0     H65672   6.144   6.407  11.268  0.0726 -0.2626 -0.1146
  476MOL0     H65673   5.941   6.313  11.372 -2.1973 -1.1546 -1.4427
  476MOL0     H65674   5.684   6.045  11.468 -0.8126 -2.0051 -3.2230
  476MOL0     H65675   5.553   6.002  11.669 -1.0136  2.8463  3.8347
  476MOL0     H65676   5.188   6.238  11.725  3.0476 -0.2335  2.1045
  476MOL0     H65677   5.113   6.144  11.597  2.3574  1.6617 -1.6125
  476MOL0     H65678   4.989   6.123  11.815  1.6356  3.4234 -1.5458
  476MOL0     H65679   5.145   6.059  11.894  1.5928 -2.2228 -0.8832
  476MOL0     H65680   5.008   5.935  11.656  4.2962 -0.3469 -1.3952
  476MOL0     H65681   5.129   5.869  11.760 -1.9922 -3.6885  0.9589
  476MOL0     H65682   4.929   5.771  11.791 -1.2717  0.7303 -0.8963
  476MOL0     H65683   4.851   5.912  11.870 -0.6614 -0.1032 -1.4456
  476MOL0     H65684   5.075   5.782  12.187 -0.5671 -0.6971 -0.3984
  476MOL0     H65685   5.236   6.218  11.466  0.3865 -0.2231  2.3808
  476MOL0     H65686   5.410   6.398  11.231 -0.7578 -1.1538 -3.3436
  476MOL0     H65687   5.365   6.232  11.176 -0.4528  0.3063 -0.9718
  476MOL0     H65688   5.254   6.314  11.276 -0.2111 -0.2865  2.3570
  477MOL0     O65689   0.856   0.665   3.739  0.1500 -0.0009 -0.4350
  477MOL0     C65690   0.753   0.694   3.808 -0.4735  0.3140 -0.4994
  477MOL0     O65691   0.653   0.775   3.770  0.1886  0.3660  0.0356
  477MOL0     C65692   0.668   0.854   3.654 -0.1641  1.3221 -0.0511
  477MOL0     C65693   0.587   0.838   3.547 -0.5790  0.2594  0.4383
  477MOL0     C65694   0.611   0.915   3.434  0.3572 -0.0365  0.5075
  477MOL0     C65695   0.705   1.002   3.415 -0.1441  0.6954  0.5028
  477MOL0     O65696   0.712   1.069   3.296  0.2931 -0.2735  0.4369
  477MOL0     C65697   0.816   1.162   3.270 -0.1959 -0.3753  0.1776
  477MOL0     C65698   0.843   1.157   3.118 -0.9283 -0.2372 -0.6565
  477MOL0     C65699   0.994   1.174   3.073  1.0837  0.3987 -0.4201
  477MOL0     C65700   1.028   1.212   2.932  0.3444 -0.2040  0.2456
  477MOL0     C65701   0.976   1.104   2.827 -0.9309 -0.3102 -1.1610
  477MOL0     C65702   1.096   1.000   2.825  0.4437 -0.4417  0.1235
  477MOL0     C65703   1.102   0.883   2.725 -0.1353  0.8641  0.1190
  477MOL0     C65704   1.227   0.795   2.753 -0.2942 -0.4205 -0.3689
  477MOL0     N65705   1.358   0.852   2.722 -0.4489 -0.5274  0.6654
  477MOL0     C65706   1.416   0.845   2.594 -0.1843 -0.8171  0.5295
  477MOL0     C65707   1.516   0.931   2.594  0.3558 -0.5718 -0.3504
  477MOL0     C65708   1.605   0.958   2.475  0.1259 -0.3071 -0.3752
  477MOL0     C65709   1.751   0.913   2.503  0.6153 -0.0259 -0.9483
  477MOL0     C65710   1.832   0.877   2.377  0.7786 -0.8903 -0.1608
  477MOL0     C65711   1.977   0.923   2.382  0.3558  0.6950 -0.1195
  477MOL0     O65712   1.981   1.073   2.376  0.0745 -0.2182  0.3703
  477MOL0     C65713   2.101   1.132   2.346  0.2425 -0.1759  0.3267
  477MOL0     C65714   2.098   1.272   2.342 -0.2623  0.5668 -0.4771
  477MOL0     C65715   2.223   1.345   2.319  1.2972 -0.0277 -0.2055
  477MOL0     C65716   2.209   1.491   2.276 -0.4662  0.1238  0.4506
  477MOL0     C65717   2.345   1.279   2.305 -0.1448 -0.3176  0.2426
  477MOL0     C65718   2.474   1.354   2.271 -0.8778 -0.3593 -0.3716
  477MOL0     O65719   2.575   1.281   2.231  0.0958 -0.0090 -0.0636
  477MOL0     C65720   2.704   1.315   2.271 -0.0478  0.0034 -1.1000
  477MOL0     C65721   2.730   1.325   2.410 -0.8390 -0.4584 -0.4785
  477MOL0     C65722   2.869   1.320   2.456 -0.1822 -0.3481 -0.1190
  477MOL0     C65723   2.967   1.290   2.361  0.3957 -0.6551  1.8024
  477MOL0     O65724   3.100   1.271   2.393 -0.0035 -0.9983 -0.2800
  477MOL0     C65725   3.135   1.247   2.531  0.8517  0.9957  0.2149
  477MOL0     C65726   3.275   1.195   2.548 -0.2397 -0.1609  0.5963
  477MOL0     C65727   3.384   1.291   2.485  0.1061 -0.8142  0.3720
  477MOL0     C65728   3.523   1.224   2.505 -0.4238 -0.7842 -0.6650
  477MOL0     C65729   3.631   1.304   2.420 -0.9767  0.1604 -0.3586
  477MOL0     C65730   3.773   1.254   2.437 -0.1506  0.8703  1.6792
  477MOL0     C65731   3.880   1.319   2.347  1.0713  0.7860 -0.5234
  477MOL0     C65732   4.005   1.228   2.341 -0.4135  0.2181  0.1571
  477MOL0    Cl65733   4.086   1.198   2.497 -0.4104  0.1578 -0.5276
  477MOL0     C65734   2.936   1.279   2.225  0.1003  0.3275 -0.1321
  477MOL0     C65735   2.807   1.299   2.181  0.1229  0.3519  0.1128
  477MOL0     O65736   2.488   1.475   2.300 -0.4508 -0.0087  0.0568
  477MOL0     C65737   2.350   1.139   2.324 -0.3836 -0.1180 -0.0528
  477MOL0     C65738   2.231   1.068   2.354 -0.1117 -0.0040 -0.0438
  477MOL0     N65739   1.525   0.994   2.718  0.1355  0.7384  0.6413
  477MOL0     N65740   1.430   0.942   2.793 -0.1431 -0.5814  0.4676
  477MOL0     C65741   0.793   1.015   3.525  0.8331  0.1905  0.6649
  477MOL0     C65742   0.776   0.942   3.641 -0.1779 -0.2231 -0.6284
  477MOL0     C65743   0.758   0.649   3.940  0.8377  0.5163 -0.1936
  477MOL0     C65744   0.652   0.564   3.992  1.3647  0.8235  0.0980
  477MOL0     C65745   0.644   0.520   4.125  0.3779 -0.2452 -0.0017
  477MOL0     C65746   0.737   0.556   4.219  0.1137  0.4040  0.3025
  477MOL0     O65747   0.710   0.509   4.343  0.6125 -0.1247  0.2247
  477MOL0     C65748   0.823   0.490   4.436 -0.0581 -0.4485  0.9809
  477MOL0     C65749   0.893   0.368   4.383 -0.0735  0.0818  0.8140
  477MOL0     C65750   0.824   0.234   4.429 -0.6058 -0.2387  0.5299
  477MOL0     C65751   0.899   0.106   4.385 -0.5700  0.0901  0.4312
  477MOL0     C65752   0.796   0.008   4.410  0.0031  0.1037  0.3608
  477MOL0     C65753   0.735  -0.095   4.422 -0.3437 -0.5323  0.1914
  477MOL0     C65754   0.850   0.618   4.170  0.2532 -0.5812  0.3299
  477MOL0     C65755   0.862   0.673   4.037  0.4727  0.2959 -0.2323
  477MOL0     C65756   0.975   0.765   3.997 -0.5374  0.0372  0.3578
  477MOL0     H65757   0.502   0.771   3.541 -1.9440  2.0355 -1.1261
  477MOL0     H65758   0.523   0.910   3.370 -0.4163 -2.4418  1.6365
  477MOL0     H65759   0.909   1.145   3.326 -0.2382  2.0573  1.0877
  477MOL0     H65760   0.790   1.267   3.285  2.2982  0.4018 -0.5117
  477MOL0     H65761   0.809   1.064   3.071 -0.7556  0.4692 -2.2337
  477MOL0     H65762   0.787   1.237   3.068  0.4340 -1.7465 -5.0400
  477MOL0     H65763   1.038   1.252   3.136  4.7513 -0.5342 -1.6107
  477MOL0     H65764   1.041   1.078   3.094  0.6560  0.3822  0.5296
  477MOL0     H65765   0.986   1.311   2.912  3.2541  0.8479 -1.3116
  477MOL0     H65766   1.133   1.231   2.909 -0.3353 -0.3379 -3.6693
  477MOL0     H65767   0.973   1.156   2.731 -0.7085  1.1771 -0.3962
  477MOL0     H65768   0.881   1.068   2.866 -0.8395  2.3353  1.9620
  477MOL0     H65769   1.189   1.054   2.808  0.3078 -0.8204 -2.0465
  477MOL0     H65770   1.100   0.949   2.922  1.7640 -0.7957 -0.0944
  477MOL0     H65771   1.099   0.924   2.623  0.2325  0.0944 -0.2125
  477MOL0     H65772   1.019   0.814   2.740 -1.8133  2.2687 -1.9438
  477MOL0     H65773   1.225   0.776   2.861 -1.0857  0.1845 -0.2696
  477MOL0     H65774   1.217   0.700   2.702 -1.2451 -0.4933 -0.0574
  477MOL0     H65775   1.373   0.798   2.506 -0.8684  2.7727 -1.2352
  477MOL0     H65776   1.603   1.063   2.446 -0.8277  0.5552  2.5246
  477MOL0     H65777   1.559   0.898   2.396 -1.3723 -2.5167  2.0403
  477MOL0     H65778   1.797   0.979   2.578 -1.2632  0.7220 -0.3885
  477MOL0     H65779   1.746   0.819   2.558 -3.0075  0.2349 -0.5984
  477MOL0     H65780   1.817   0.771   2.359  0.4591 -1.2832  2.0903
  477MOL0     H65781   1.782   0.928   2.293 -2.9688 -2.9155  0.5855
  477MOL0     H65782   2.035   0.894   2.470 -0.9955  1.1004  0.9656
  477MOL0     H65783   2.024   0.875   2.296 -2.1324 -1.3059 -0.4863
  477MOL0     H65784   2.006   1.328   2.350 -0.8916 -0.4516 -0.4384
  477MOL0     H65785   2.262   1.556   2.347  3.5468 -0.8823 -1.3338
  477MOL0     H65786   2.103   1.517   2.272 -1.0136 -2.0475 -2.2621
  477MOL0     H65787   2.231   1.514   2.172  0.1102 -0.3762  0.4563
  477MOL0     H65788   2.648   1.329   2.480 -0.7719 -3.7147 -0.0465
  477MOL0     H65789   2.899   1.322   2.560 -0.5308  1.2883 -0.0315
  477MOL0     H65790   3.131   1.337   2.592 -1.7869  1.1930 -0.1384
  477MOL0     H65791   3.060   1.177   2.570 -2.2772  3.4323 -1.0212
  477MOL0     H65792   3.287   1.170   2.654  0.0119  2.7701  1.3465
  477MOL0     H65793   3.274   1.098   2.498 -1.0434 -0.4694  1.1984
  477MOL0     H65794   3.381   1.387   2.537  0.0944 -1.3908  1.4664
  477MOL0     H65795   3.375   1.308   2.377  2.0899 -2.4556 -0.1196
  477MOL0     H65796   3.517   1.117   2.484 -0.7065 -1.3907  2.1416
  477MOL0     H65797   3.552   1.245   2.609  1.5191  1.3375 -1.5502
  477MOL0     H65798   3.600   1.296   2.315 -2.3295  1.4859 -0.0898
  477MOL0     H65799   3.639   1.408   2.453 -1.7888 -0.5402  2.2741
  477MOL0     H65800   3.766   1.147   2.415  2.0223  1.2841 -1.6793
  477MOL0     H65801   3.795   1.270   2.543 -0.2139  1.3860  1.6176
  477MOL0     H65802   3.908   1.411   2.399  2.3391 -0.6964  1.6183
  477MOL0     H65803   3.845   1.338   2.245 -0.6646 -1.4614 -0.4425
  477MOL0     H65804   4.080   1.263   2.269 -0.1299 -3.2824 -1.4461
  477MOL0     H65805   3.972   1.134   2.295 -2.4008  1.4532 -1.0901
  477MOL0     H65806   3.017   1.272   2.153  1.0892  4.3540  0.3322
  477MOL0     H65807   2.776   1.287   2.078 -0.5547  0.9312  0.2451
  477MOL0     H65808   2.446   1.090   2.312 -0.7701 -0.2321 -3.9883
  477MOL0     H65809   2.242   0.967   2.391  1.3067 -0.1851 -0.8733
  477MOL0     H65810   0.874   1.087   3.517 -1.1353  2.5989  0.8188
  477MOL0     H65811   0.854   0.949   3.716 -0.7920  1.1437 -0.0761
  477MOL0     H65812   0.578   0.521   3.925  0.6275  2.5055 -0.2150
  477MOL0     H65813   0.563   0.464   4.170  0.8957 -0.0911  1.1778
  477MOL0     H65814   0.885   0.580   4.440 -0.4922 -0.1793  1.7687
  477MOL0     H65815   0.791   0.471   4.538  1.0759  1.8821  1.8449
  477MOL0     H65816   0.989   0.370   4.434  2.8100  0.8923 -3.9888
  477MOL0     H65817   0.893   0.366   4.273 -0.0002  1.9596  0.7507
  477MOL0     H65818   0.816   0.240   4.538  0.3771  4.9858  0.5974
  477MOL0     H65819   0.724   0.229   4.386 -1.3643 -0.5891  2.2310
  477MOL0     H65820   0.984   0.091   4.452 -2.4144 -0.1702  2.8472
  477MOL0     H65821   0.919   0.104   4.277 -3.4718 -0.9711 -0.1968
  477MOL0     H65822   0.687  -0.189   4.443 -0.5164 -0.7626 -1.1310
  477MOL0     H65823   0.932   0.631   4.241  0.7128  0.2707 -0.3399
  477MOL0     H65824   0.935   0.862   3.966 -1.5969 -0.4131  0.2739
  477MOL0     H65825   1.038   0.778   4.086 -1.0539  1.2310  0.5769
  477MOL0     H65826   1.048   0.720   3.930 -0.3863 -0.3743  0.7935
  478MOL0     O65827  11.065   7.206   4.883  0.0060 -0.1806 -0.1167
  478MOL0     C65828  11.081   7.098   4.937  0.7474  0.7364  0.1547
  478MOL0     O65829  10.984   6.997   4.948 -0.2044  1.0781 -0.1209
  478MOL0     C65830  10.857   7.023   4.915  0.5884  0.7298 -0.0508
  478MOL0     C65831  10.758   6.994   5.009 -0.2133 -0.6843 -0.9304
  478MOL0     C65832  10.627   6.992   4.973  0.1262  0.0332  0.4273
  478MOL0     C65833  10.591   7.011   4.835 -0.3281 -0.1017 -0.2517
  478MOL0     O65834  10.463   7.000   4.796 -0.0416  0.2983 -0.6240
  478MOL0     C65835  10.354   7.082   4.848  0.5935 -0.6370  0.3275
  478MOL0     C65836  10.257   6.989   4.906  0.0913 -0.0890  0.2856
  478MOL0     C65837  10.132   7.062   4.963  0.4986  0.3816 -0.8985
  478MOL0     C65838  10.042   7.118   4.845  0.7903 -0.9864  0.2738
  478MOL0     C65839   9.928   7.202   4.894 -0.4004  0.7186 -0.6879
  478MOL0     C65840   9.819   7.227   4.785  0.2504 -0.3097  0.0069
  478MOL0     C65841   9.870   7.291   4.659  0.2761 -0.3333  0.8996
  478MOL0     C65842   9.917   7.438   4.677 -0.0276  0.7650 -0.0681
  478MOL0     N65843   9.950   7.487   4.545 -0.3702  0.3699  0.5715
  478MOL0     C65844   9.855   7.529   4.451 -0.2749  0.2582 -0.6310
  478MOL0     C65845   9.926   7.567   4.344 -0.9609  0.6971  0.5960
  478MOL0     C65846   9.874   7.607   4.213  0.0564 -0.4628 -0.1770
  478MOL0     C65847   9.976   7.678   4.124  0.1191 -0.2206  0.2064
  478MOL0     C65848   9.910   7.712   3.986 -0.0607  0.4956 -0.3179
  478MOL0     C65849  10.012   7.764   3.887 -0.3469 -0.2955 -0.4353
  478MOL0     O65850  10.057   7.673   3.783  0.2056 -0.4596  0.1275
  478MOL0     C65851   9.971   7.643   3.688 -0.2385 -0.3320  0.3003
  478MOL0     C65852   9.838   7.673   3.691  0.4280  1.1482 -0.4251
  478MOL0     C65853   9.746   7.639   3.594  0.1373  0.4669  0.1433
  478MOL0     C65854   9.608   7.702   3.595  0.1707  0.9436 -0.5949
  478MOL0     C65855   9.783   7.534   3.502 -0.4129  0.3849  0.2998
  478MOL0     C65856   9.682   7.459   3.416  0.6115 -0.8898  0.2190
  478MOL0     O65857   9.742   7.405   3.302  0.8941 -1.0310 -0.3723
  478MOL0     C65858   9.682   7.319   3.207  0.1203 -0.8729  0.6216
  478MOL0     C65859   9.776   7.241   3.136 -1.0151  0.1643  0.3633
  478MOL0     C65860   9.738   7.158   3.031  0.8156  0.1937  0.3372
  478MOL0     C65861   9.601   7.149   2.993 -0.0320  0.3270  0.1826
  478MOL0     O65862   9.568   7.066   2.892  0.0042 -0.0019  0.7443
  478MOL0     C65863   9.435   7.015   2.872  0.2745 -0.5213  0.8216
  478MOL0     C65864   9.441   6.915   2.752 -0.7244 -0.9291  0.0029
  478MOL0     C65865   9.376   6.778   2.784  0.7948  0.4702  0.4699
  478MOL0     C65866   9.229   6.783   2.794 -0.2898 -0.3180  0.1488
  478MOL0     C65867   9.165   6.677   2.886 -0.3352 -0.0504 -0.0451
  478MOL0     C65868   9.015   6.684   2.885 -0.3626  0.4439 -0.2465
  478MOL0     C65869   8.942   6.661   2.757 -1.0100  0.6248 -0.4291
  478MOL0     C65870   8.820   6.580   2.779  1.2211  0.1960  0.4248
  478MOL0    Cl65871   8.804   6.480   2.623  0.3193 -0.3591 -0.0322
  478MOL0     C65872   9.509   7.220   3.067  0.4106 -0.9028 -0.0289
  478MOL0     C65873   9.551   7.303   3.171  0.1335  0.0769  0.3707
  478MOL0     O65874   9.560   7.455   3.439 -0.0199  0.5406  0.8414
  478MOL0     C65875   9.923   7.498   3.489 -0.0004 -1.3386 -0.6620
  478MOL0     C65876  10.016   7.548   3.593  0.1273  0.0292  0.2343
  478MOL0     N65877  10.056   7.544   4.368  0.7290  0.1878 -0.6420
  478MOL0     N65878  10.072   7.500   4.494  0.0738  0.1402  0.4146
  478MOL0     C65879  10.691   7.053   4.751 -0.1455  0.5708  0.9045
  478MOL0     C65880  10.824   7.060   4.785  1.0710 -0.3416  0.7257
  478MOL0     C65881  11.224   7.066   4.955 -0.2637 -0.1007 -0.2752
  478MOL0     C65882  11.324   7.074   4.848 -0.1473  0.4372 -0.3619
  478MOL0     C65883  11.457   7.051   4.878 -1.5765  0.4469 -0.0140
  478MOL0     C65884  11.492   6.998   4.999  0.5414 -0.5452 -0.4611
  478MOL0     O65885  11.621   6.968   5.032  0.7684 -0.4071 -0.1586
  478MOL0     C65886  11.731   7.005   4.944  0.4177  0.1903  0.0512
  478MOL0     C65887  11.848   6.913   4.988  0.9001 -0.5866 -0.7351
  478MOL0     C65888  11.982   6.945   4.914  0.8086  1.2020 -0.8253
  478MOL0     C65889  12.085   6.839   4.935  0.2349  0.0417  0.0783
  478MOL0     C65890  12.055   6.713   4.863 -0.4358 -0.3535  0.7771
  478MOL0     C65891  12.044   6.618   4.791  0.4351 -0.9759  0.5296
  478MOL0     C65892  11.391   6.993   5.099  0.0087  0.9191 -0.3050
  478MOL0     C65893  11.265   7.027   5.086  0.8957  0.3276  0.9848
  478MOL0     C65894  11.173   7.009   5.200  0.8785  0.3020 -0.3696
  478MOL0     H65895  10.797   6.970   5.107 -0.7582 -2.2826 -1.0681
  478MOL0     H65896  10.547   6.971   5.043  0.1962  0.8190  0.7498
  478MOL0     H65897  10.305   7.138   4.768 -1.3180 -1.9735  0.5055
  478MOL0     H65898  10.388   7.145   4.931  2.0493 -1.9938  0.8188
  478MOL0     H65899  10.226   6.915   4.831  1.1626  0.2890 -0.5481
  478MOL0     H65900  10.304   6.932   4.986 -1.9294 -0.7968  1.0368
  478MOL0     H65901  10.072   6.991   5.021  1.6972  0.2855  0.2833
  478MOL0     H65902  10.167   7.139   5.032  0.0236  0.4213 -0.7000
  478MOL0     H65903  10.097   7.190   4.784  0.3858 -2.3620 -1.8088
  478MOL0     H65904  10.011   7.035   4.781  2.8607  0.1459 -2.3880
  478MOL0     H65905   9.972   7.291   4.940 -1.5390  0.6547  0.5898
  478MOL0     H65906   9.876   7.154   4.978 -1.4319  1.1995 -1.0359
  478MOL0     H65907   9.771   7.135   4.750 -0.9295 -0.4545  1.8712
  478MOL0     H65908   9.738   7.295   4.813  3.1032  3.5075 -0.1627
  478MOL0     H65909   9.787   7.300   4.588  2.1731 -0.0305 -1.4043
  478MOL0     H65910   9.943   7.236   4.599  1.8854  3.5572 -1.0470
  478MOL0     H65911   9.836   7.497   4.723 -1.4413 -0.8669 -0.3538
  478MOL0     H65912   9.997   7.440   4.752  0.3026 -1.2411 -0.3084
  478MOL0     H65913   9.747   7.515   4.453 -0.3725  1.0456  0.5392
  478MOL0     H65914   9.785   7.670   4.226  0.8852  0.7162 -0.0467
  478MOL0     H65915   9.845   7.513   4.165 -4.0122 -0.1764  1.3732
  478MOL0     H65916  10.002   7.775   4.166  2.3141  0.0147 -1.4969
  478MOL0     H65917  10.067   7.617   4.123  0.8248  0.7553  1.4640
  478MOL0     H65918   9.874   7.618   3.944  0.7234  1.0210 -2.2398
  478MOL0     H65919   9.825   7.779   4.008  1.5448  2.5048  0.0769
  478MOL0     H65920   9.971   7.856   3.844 -1.9741 -1.6204 -1.8264
  478MOL0     H65921  10.105   7.789   3.939 -0.5639  1.3962 -0.8037
  478MOL0     H65922   9.795   7.744   3.760 -2.5594 -0.6305 -0.2627
  478MOL0     H65923   9.567   7.706   3.493  1.1438  2.4406 -0.9642
  478MOL0     H65924   9.607   7.802   3.639 -2.5703 -0.4455  2.9109
  478MOL0     H65925   9.548   7.648   3.668  3.9728  1.1806  3.0523
  478MOL0     H65926   9.879   7.241   3.170 -1.2700  0.0635  1.1287
  478MOL0     H65927   9.804   7.099   2.968  1.4489 -0.7604  1.8344
  478MOL0     H65928   9.417   6.964   2.967  2.4282  0.5266  1.8390
  478MOL0     H65929   9.373   7.100   2.843 -1.3373 -2.0042 -0.2676
  478MOL0     H65930   9.385   6.962   2.671  0.2021  3.0112  1.4341
  478MOL0     H65931   9.543   6.899   2.714 -0.0541  0.5848  1.0636
  478MOL0     H65932   9.410   6.747   2.883  2.1052 -2.5057 -0.7900
  478MOL0     H65933   9.398   6.701   2.709  1.6486 -0.2187  1.3912
  478MOL0     H65934   9.190   6.781   2.692  3.6603  0.0865 -1.5606
  478MOL0     H65935   9.195   6.877   2.836 -1.5117 -0.2119 -1.0024
  478MOL0     H65936   9.219   6.585   2.864  0.1124  0.4631 -1.1757
  478MOL0     H65937   9.192   6.695   2.991 -1.2600  0.2153  0.1611
  478MOL0     H65938   8.979   6.784   2.911  1.2398  0.6940  1.1586
  478MOL0     H65939   8.988   6.607   2.959  0.4529 -2.1215 -2.4369
  478MOL0     H65940   9.008   6.623   2.679  3.1927  2.4160  1.8893
  478MOL0     H65941   8.912   6.758   2.716 -2.5630  0.3639  0.0390
  478MOL0     H65942   8.731   6.644   2.779 -0.2201 -1.6858  2.3369
  478MOL0     H65943   8.811   6.520   2.870  0.5362  1.9954  1.6011
  478MOL0     H65944   9.401   7.217   3.062  0.1793  0.6781  2.5443
  478MOL0     H65945   9.476   7.363   3.221 -1.4187 -1.8705  0.4728
  478MOL0     H65946   9.957   7.432   3.411 -0.5185 -2.9851  0.4616
  478MOL0     H65947  10.114   7.502   3.601  0.4980  0.1741 -2.6396
  478MOL0     H65948  10.657   7.063   4.648 -1.7883 -3.2456  0.9108
  478MOL0     H65949  10.895   7.089   4.709 -0.4558 -0.5253 -0.8201
  478MOL0     H65950  11.291   7.115   4.753  0.2943  3.9998  0.8669
  478MOL0     H65951  11.514   7.067   4.787 -4.1786  0.9209 -1.6999
  478MOL0     H65952  11.718   6.990   4.837  0.2227 -0.2460  0.1340
  478MOL0     H65953  11.743   7.113   4.955 -3.5384  0.9667 -1.7979
  478MOL0     H65954  11.829   6.808   4.964  2.1964 -0.7265 -1.2353
  478MOL0     H65955  11.859   6.929   5.096 -1.2643 -1.2657 -0.3712
  478MOL0     H65956  11.954   6.959   4.809  2.1998  0.9781 -1.2497
  478MOL0     H65957  12.028   7.034   4.958  0.1223  1.5318 -0.7647
  478MOL0     H65958  12.097   6.820   5.042 -0.5282  1.5559  0.4528
  478MOL0     H65959  12.182   6.878   4.904 -0.2050  0.1621 -1.2274
  478MOL0     H65960  12.059   6.541   4.719  4.2788 -0.1388  0.2459
  478MOL0     H65961  11.423   6.962   5.198 -0.4129 -2.9878 -1.2292
  478MOL0     H65962  11.094   6.938   5.177  0.8596 -0.5180  1.9643
  478MOL0     H65963  11.221   6.969   5.290 -0.3362 -3.5401 -1.2871
  478MOL0     H65964  11.119   7.098   5.235  0.7448 -0.7902  2.4344
  479MOL0     O65965  10.286   1.109   6.671  0.0805  0.2584 -0.3187
  479MOL0     C65966  10.196   1.022   6.692  0.1036  0.2157  0.1529
  479MOL0     O65967  10.074   1.042   6.729  0.1664  0.4917  0.4497
  479MOL0     C65968  10.026   1.160   6.678 -0.0191 -0.2789 -0.3430
  479MOL0     C65969  10.008   1.279   6.757  0.1943  0.1533  0.6635
  479MOL0     C65970   9.954   1.399   6.704 -0.3525 -0.6958  0.5099
  479MOL0     C65971   9.908   1.409   6.581  0.1164  0.5965 -0.8791
  479MOL0     O65972   9.847   1.519   6.530  0.1114  0.3326 -0.6527
  479MOL0     C65973   9.855   1.639   6.602 -0.9672 -0.3034  0.9941
  479MOL0     C65974   9.750   1.736   6.544  0.0047  0.7371  1.0389
  479MOL0     C65975   9.778   1.776   6.393 -0.1102  0.9164 -0.4230
  479MOL0     C65976   9.688   1.892   6.351  0.2681  0.1547 -0.7639
  479MOL0     C65977   9.718   1.965   6.216  0.0087  0.2123 -0.0754
  479MOL0     C65978   9.843   2.045   6.224  0.3930  0.4082 -0.2207
  479MOL0     C65979   9.898   2.105   6.090  0.1281  0.6015 -0.1056
  479MOL0     C65980   9.906   2.025   5.957  0.2910  0.3362  0.2174
  479MOL0     N65981   9.987   2.102   5.857  0.3726  0.2704  0.4628
  479MOL0     C65982   9.942   2.154   5.736  0.5617  0.7607  0.3740
  479MOL0     C65983  10.050   2.184   5.660  0.2730 -0.4883  0.1366
  479MOL0     C65984  10.053   2.253   5.529  0.0410 -0.0219 -0.8369
  479MOL0     C65985  10.070   2.160   5.407 -0.0609 -0.0719  0.2375
  479MOL0     C65986   9.932   2.119   5.338 -0.1473 -0.0642 -0.3243
  479MOL0     C65987   9.967   2.038   5.209 -0.0821 -0.5504  0.8887
  479MOL0     O65988  10.008   1.903   5.242  0.2091  0.5263  0.6377
  479MOL0     C65989  10.140   1.863   5.240  0.2873 -0.3815  0.2151
  479MOL0     C65990  10.248   1.941   5.204  1.0122 -0.2532  0.2175
  479MOL0     C65991  10.381   1.895   5.224 -0.3688 -0.5799  0.4543
  479MOL0     C65992  10.485   1.997   5.182 -0.4190 -0.5326  0.8927
  479MOL0     C65993  10.406   1.756   5.270 -0.3321 -0.7045  0.2699
  479MOL0     C65994  10.535   1.700   5.295  0.1715 -0.5264  1.2430
  479MOL0     O65995  10.544   1.564   5.297 -0.4387  0.4984 -0.0294
  479MOL0     C65996  10.671   1.508   5.301  0.3582 -0.2321 -0.3812
  479MOL0     C65997  10.683   1.376   5.358  0.4418  0.0150  0.1700
  479MOL0     C65998  10.810   1.312   5.372  0.0486 -0.0343 -0.3193
  479MOL0     C65999  10.924   1.363   5.317 -0.1173  0.5315  0.1480
  479MOL0     O66000  11.049   1.311   5.314  1.1122 -0.6892 -0.6250
  479MOL0     C66001  11.064   1.169   5.346 -0.1882 -0.4647  0.3395
  479MOL0     C66002  11.217   1.139   5.334 -0.3532  0.7482 -0.7994
  479MOL0     C66003  11.257   1.002   5.376  0.2527 -0.5175 -0.0960
  479MOL0     C66004  11.270   0.974   5.525 -0.3083  0.1758 -0.6853
  479MOL0     C66005  11.247   0.824   5.556  0.1022 -0.2386  0.1092
  479MOL0     C66006  11.356   0.740   5.500 -0.6631  0.0278  1.0703
  479MOL0     C66007  11.337   0.583   5.510  0.3296 -0.8195  0.2507
  479MOL0     C66008  11.381   0.534   5.639 -0.2608  0.0355 -0.0013
  479MOL0    Cl66009  11.337   0.370   5.650 -0.1094 -0.2890 -0.2079
  479MOL0     C66010  10.916   1.492   5.257  0.6492 -1.2397 -0.2558
  479MOL0     C66011  10.794   1.555   5.247  0.2420  0.0976  0.7701
  479MOL0     O66012  10.623   1.784   5.329  0.5737 -0.2647  0.1955
  479MOL0     C66013  10.293   1.684   5.294  0.1843 -0.7990  0.0225
  479MOL0     C66014  10.165   1.734   5.270  0.4982  0.6879  0.0095
  479MOL0     N66015  10.161   2.178   5.740  0.2436  0.2120 -1.0952
  479MOL0     N66016  10.122   2.125   5.851 -0.8792 -1.0494 -0.0666
  479MOL0     C66017   9.917   1.293   6.502  0.0850 -0.7074  0.4592
  479MOL0     C66018   9.978   1.175   6.552 -0.1373  0.6203  0.6630
  479MOL0     C66019  10.239   0.876   6.690 -0.0115 -0.0407 -0.3337
  479MOL0     C66020  10.140   0.775   6.716 -0.3328  0.1744 -0.0490
  479MOL0     C66021  10.156   0.637   6.709 -0.5696 -0.7716 -0.7615
  479MOL0     C66022  10.292   0.594   6.683  0.0411 -0.4065 -0.2603
  479MOL0     O66023  10.324   0.465   6.656 -0.2567 -0.4741 -0.1903
  479MOL0     C66024  10.217   0.368   6.653 -0.2111  0.1539  0.7446
  479MOL0     C66025  10.280   0.237   6.611 -0.1800  0.1318 -0.3614
  479MOL0     C66026  10.177   0.144   6.556  1.0749 -0.3393 -0.0712
  479MOL0     C66027  10.236   0.040   6.464 -0.0855 -0.4183  0.3411
  479MOL0     C66028  10.330  -0.046   6.530  0.0233 -0.3255  0.0693
  479MOL0     C66029  10.387  -0.121   6.602 -0.9722  0.3529  0.7564
  479MOL0     C66030  10.402   0.690   6.697 -0.8780 -0.3983  0.2416
  479MOL0     C66031  10.372   0.822   6.700  0.1118 -0.5186 -0.3246
  479MOL0     C66032  10.495   0.916   6.688  0.3215  0.7080  0.1531
  479MOL0     H66033  10.045   1.274   6.859  0.4886  0.9377  0.5998
  479MOL0     H66034   9.955   1.480   6.777 -2.1354 -0.6791  0.5577
  479MOL0     H66035   9.959   1.671   6.594 -1.0374 -0.2163  0.2992
  479MOL0     H66036   9.830   1.628   6.708 -2.5685  0.1790  0.6936
  479MOL0     H66037   9.655   1.682   6.533  0.8230 -0.5325 -0.1245
  479MOL0     H66038   9.740   1.824   6.608 -0.2263  0.1315  1.8536
  479MOL0     H66039   9.882   1.812   6.396  0.8460 -1.6974  0.1020
  479MOL0     H66040   9.769   1.695   6.321 -0.1457 -1.0119  1.6600
  479MOL0     H66041   9.588   1.850   6.336  0.2040  0.6345 -1.7277
  479MOL0     H66042   9.696   1.968   6.429 -0.1930  0.5661 -1.1114
  479MOL0     H66043   9.633   2.029   6.189 -0.7299 -1.1116 -1.0006
  479MOL0     H66044   9.728   1.901   6.128 -4.8462  2.1568 -2.4174
  479MOL0     H66045   9.825   2.129   6.292 -1.7016 -0.1858  0.0254
  479MOL0     H66046   9.926   1.990   6.269  0.4514  1.7635  1.4506
  479MOL0     H66047   9.998   2.132   6.125  0.1233 -0.1699  0.5441
  479MOL0     H66048   9.831   2.187   6.062 -3.0544 -2.1998 -1.4763
  479MOL0     H66049   9.948   1.925   5.973 -2.7016 -0.6017  3.6971
  479MOL0     H66050   9.801   2.022   5.925  0.4391 -0.7323 -0.2233
  479MOL0     H66051   9.839   2.149   5.703  1.3923 -0.0756 -2.3337
  479MOL0     H66052  10.137   2.321   5.516 -0.4649  0.1692 -3.9272
  479MOL0     H66053   9.966   2.319   5.533 -0.5749 -0.8649 -0.0322
  479MOL0     H66054  10.132   2.218   5.338  0.6336 -2.9052 -1.6745
  479MOL0     H66055  10.123   2.067   5.431 -0.2500 -0.9269 -2.3242
  479MOL0     H66056   9.884   2.046   5.403  1.9974  0.2127  1.7436
  479MOL0     H66057   9.866   2.205   5.321 -1.2855 -1.3707 -3.1711
  479MOL0     H66058   9.871   2.035   5.157 -1.3051  1.1441  2.8978
  479MOL0     H66059  10.034   2.083   5.135 -3.5477 -1.7859 -3.4104
  479MOL0     H66060  10.240   2.043   5.168  0.7362 -0.6631 -0.9149
  479MOL0     H66061  10.568   1.956   5.123  0.0057 -1.7760  2.2868
  479MOL0     H66062  10.542   2.036   5.266  0.6812 -1.5272  0.6381
  479MOL0     H66063  10.454   2.077   5.115  1.9281 -2.9578 -3.5539
  479MOL0     H66064  10.592   1.321   5.381 -0.5969  0.8295 -1.7529
  479MOL0     H66065  10.817   1.213   5.416  2.8043 -0.3401 -1.2337
  479MOL0     H66066  11.037   1.138   5.448 -3.2799  2.3344  0.5315
  479MOL0     H66067  11.009   1.103   5.279  0.1549 -0.8079  0.3932
  479MOL0     H66068  11.243   1.159   5.230  3.0628  3.4482  0.3675
  479MOL0     H66069  11.273   1.214   5.391 -0.7780  1.9169 -1.8904
  479MOL0     H66070  11.352   0.988   5.324 -0.2936  1.4574 -1.7412
  479MOL0     H66071  11.183   0.930   5.340  1.4603 -1.2885 -1.1357
  479MOL0     H66072  11.189   1.031   5.571  1.8867  2.5365  0.4710
  479MOL0     H66073  11.365   1.006   5.569 -0.5095 -1.4549  1.0639
  479MOL0     H66074  11.245   0.817   5.665 -2.1566  2.4990  0.3792
  479MOL0     H66075  11.152   0.805   5.504 -2.6268  3.5866  3.0528
  479MOL0     H66076  11.451   0.768   5.546  1.1847 -0.2587 -2.2829
  479MOL0     H66077  11.375   0.768   5.396 -0.4514  1.5474  1.4794
  479MOL0     H66078  11.390   0.542   5.423  2.5298 -1.2995  1.7319
  479MOL0     H66079  11.230   0.566   5.496  0.3240 -0.7122  0.1581
  479MOL0     H66080  11.321   0.578   5.720 -0.6104 -1.1535  0.3992
  479MOL0     H66081  11.490   0.546   5.646 -0.1471 -0.6242 -0.5891
  479MOL0     H66082  11.008   1.539   5.224  1.3415 -2.2495  0.1833
  479MOL0     H66083  10.797   1.650   5.195  0.4916 -1.0981 -1.5184
  479MOL0     H66084  10.286   1.579   5.321  0.1396 -0.4465  1.4645
  479MOL0     H66085  10.089   1.656   5.263  2.6697 -1.4563 -1.3961
  479MOL0     H66086   9.850   1.290   6.417  0.0065 -1.5097  0.5428
  479MOL0     H66087   9.969   1.085   6.492  0.4521 -1.7734  3.8964
  479MOL0     H66088  10.043   0.813   6.746 -1.1405 -1.4538 -0.4957
  479MOL0     H66089  10.078   0.564   6.728  0.0055 -1.8154 -2.2482
  479MOL0     H66090  10.162   0.358   6.747 -2.3432  0.0006 -0.4575
  479MOL0     H66091  10.149   0.387   6.570 -0.7733  0.8801  1.3602
  479MOL0     H66092  10.334   0.199   6.699  0.4727 -0.0039 -0.8186
  479MOL0     H66093  10.349   0.256   6.529  1.5760 -0.6921  0.8587
  479MOL0     H66094  10.130   0.102   6.646 -0.7743 -2.4462 -1.8887
  479MOL0     H66095  10.111   0.197   6.488 -3.2629 -3.1029  1.5458
  479MOL0     H66096  10.289   0.092   6.383 -1.4079  0.2512 -0.1409
  479MOL0     H66097  10.161  -0.015   6.407  2.1892  0.7762 -4.2840
  479MOL0     H66098  10.441  -0.193   6.660  0.8024  1.9373  1.1642
  479MOL0     H66099  10.507   0.666   6.688 -0.4799 -1.0006  4.3852
  479MOL0     H66100  10.494   0.997   6.762  1.2618 -0.0719  1.0410
  479MOL0     H66101  10.587   0.858   6.699  1.0430  1.5966 -0.9702
  479MOL0     H66102  10.494   0.951   6.584  1.2998 -2.9996 -1.2724
  480MOL0     O66103   2.511   9.083   1.734 -0.9133 -0.5139 -0.2080
  480MOL0     C66104   2.489   8.988   1.662  0.1486  0.5881  0.4957
  480MOL0     O66105   2.578   8.924   1.586 -0.3697 -0.7009  0.0428
  480MOL0     C66106   2.701   8.989   1.586  0.8306  0.1542 -0.4571
  480MOL0     C66107   2.731   9.104   1.515  0.6637 -0.3351  0.2649
  480MOL0     C66108   2.857   9.162   1.513  0.0099  0.0408 -0.0157
  480MOL0     C66109   2.955   9.114   1.593 -1.0594  0.8670 -0.0315
  480MOL0     O66110   3.074   9.177   1.589 -0.9605  0.2496 -0.4994
  480MOL0     C66111   3.188   9.102   1.631 -0.2982 -1.3465  0.2667
  480MOL0     C66112   3.314   9.176   1.622 -1.1730 -0.3496 -0.2683
  480MOL0     C66113   3.427   9.079   1.604 -0.3064  0.3835  0.4487
  480MOL0     C66114   3.504   9.092   1.467 -0.4059  0.5218 -0.0300
  480MOL0     C66115   3.633   9.183   1.480  0.3444  0.2910  0.7988
  480MOL0     C66116   3.673   9.218   1.340 -0.5245  0.1612 -0.3557
  480MOL0     C66117   3.726   9.091   1.265  0.7747 -0.2788 -0.0894
  480MOL0     C66118   3.825   9.117   1.150  0.2221  0.2805 -1.4900
  480MOL0     N66119   3.789   9.219   1.058 -0.4069 -0.2623  0.6146
  480MOL0     C66120   3.687   9.213   0.965 -0.6746 -0.3775  0.7681
  480MOL0     C66121   3.711   9.322   0.883 -0.1704 -0.2134  0.1459
  480MOL0     C66122   3.630   9.347   0.764  0.0758  0.3679  0.8766
  480MOL0     C66123   3.714   9.391   0.643 -0.9678 -0.2139  0.9050
  480MOL0     C66124   3.674   9.327   0.505  0.1938 -0.0483  0.4997
  480MOL0     C66125   3.531   9.352   0.468  0.4660  0.0023 -0.2832
  480MOL0     O66126   3.460   9.237   0.513 -0.4672  0.2825  0.8529
  480MOL0     C66127   3.333   9.231   0.459  0.6357 -0.4200 -0.7085
  480MOL0     C66128   3.258   9.127   0.515  0.1218 -0.4968  0.2216
  480MOL0     C66129   3.120   9.116   0.499 -0.8444 -0.3829  0.3323
  480MOL0     C66130   3.060   9.001   0.569  0.0500  0.7602 -1.2913
  480MOL0     C66131   3.065   9.196   0.402  0.1241  0.3669 -0.4749
  480MOL0     C66132   2.936   9.161   0.340  0.3374  0.1341  0.0002
  480MOL0     O66133   2.873   9.266   0.283 -0.0969 -0.1356  0.5555
  480MOL0     C66134   2.742   9.264   0.243  0.2322 -0.1919  0.3953
  480MOL0     C66135   2.625   9.190   0.288 -1.4198 -0.4395 -0.5427
  480MOL0     C66136   2.498   9.222   0.228 -0.6423 -0.3541 -0.4130
  480MOL0     C66137   2.484   9.319   0.130  0.5080  0.3996 -0.4749
  480MOL0     O66138   2.354   9.328   0.075 -0.4778 -0.3471 -0.1502
  480MOL0     C66139   2.321   9.435  -0.011 -0.0665 -0.8586  0.4420
  480MOL0     C66140   2.216   9.524   0.055  0.1718  0.0696 -0.1897
  480MOL0     C66141   2.284   9.619   0.157 -0.1552  0.8172  0.1751
  480MOL0     C66142   2.366   9.733   0.102  0.3715  0.6817 -1.8357
  480MOL0     C66143   2.290   9.862   0.106 -0.4889 -0.5245  0.5238
  480MOL0     C66144   2.367   9.954   0.015 -0.5750  0.1588  0.7964
  480MOL0     C66145   2.302  10.090   0.019  0.4506  0.5708  0.4086
  480MOL0     C66146   2.405  10.190  -0.056  0.8708  0.5430  0.6497
  480MOL0    Cl66147   2.304  10.337  -0.080 -0.1015  0.0529  0.8300
  480MOL0     C66148   2.601   9.379   0.085 -0.5504  0.3668  0.3213
  480MOL0     C66149   2.722   9.350   0.130 -0.4796  1.1152 -0.4338
  480MOL0     O66150   2.896   9.046   0.339  0.0131  0.0531 -0.0387
  480MOL0     C66151   3.134   9.302   0.343 -0.2818  0.6728 -0.1331
  480MOL0     C66152   3.272   9.315   0.363  0.4665 -0.5031  0.6022
  480MOL0     N66153   3.808   9.405   0.949 -0.9736 -0.3044 -0.2407
  480MOL0     N66154   3.853   9.334   1.045 -0.2390  0.2446  0.2501
  480MOL0     C66155   2.927   8.989   1.668 -0.4576 -0.4673 -0.7266
  480MOL0     C66156   2.803   8.929   1.662  0.7438  0.4139 -0.3602
  480MOL0     C66157   2.361   8.919   1.666  0.0145  0.5479  0.5030
  480MOL0     C66158   2.355   8.809   1.579  0.4659  0.0725 -0.2640
  480MOL0     C66159   2.236   8.732   1.578  0.1157  0.2024  0.3120
  480MOL0     C66160   2.124   8.761   1.656  0.2509  0.3025 -0.9700
  480MOL0     O66161   2.013   8.677   1.645  0.4935  0.4133  0.5850
  480MOL0     C66162   1.884   8.726   1.667  0.3457  0.4659 -0.6052
  480MOL0     C66163   1.769   8.619   1.660 -0.5272 -0.4292 -0.0420
  480MOL0     C66164   1.628   8.664   1.695 -0.4097 -0.2620  0.1198
  480MOL0     C66165   1.523   8.555   1.665 -0.3414 -0.2759  0.2865
  480MOL0     C66166   1.559   8.430   1.745  0.0005  0.2782 -0.0192
  480MOL0     C66167   1.572   8.338   1.819 -0.4015 -0.1052 -0.2953
  480MOL0     C66168   2.135   8.879   1.731  0.2445 -0.7466  1.2549
  480MOL0     C66169   2.242   8.965   1.731 -0.1777 -1.1172 -0.4518
  480MOL0     C66170   2.229   9.099   1.813 -0.3726  0.1443  0.0860
  480MOL0     H66171   2.656   9.156   1.456  1.1432  0.0091 -0.0434
  480MOL0     H66172   2.869   9.247   1.447 -7.0096 -0.2382 -2.5263
  480MOL0     H66173   3.175   9.018   1.562 -2.3750 -1.8210  1.1601
  480MOL0     H66174   3.179   9.069   1.735  0.6676 -1.3125  0.3768
  480MOL0     H66175   3.312   9.246   1.537  0.1477  2.1904  1.6662
  480MOL0     H66176   3.325   9.237   1.712 -3.5842  0.6786 -0.5837
  480MOL0     H66177   3.490   9.080   1.693 -0.0604  1.2611  0.2813
  480MOL0     H66178   3.390   8.976   1.602 -2.0193  0.9609 -1.3538
  480MOL0     H66179   3.541   8.989   1.456 -1.9214  0.0439 -0.9468
  480MOL0     H66180   3.432   9.118   1.389 -1.2497 -1.4561  0.0176
  480MOL0     H66181   3.704   9.134   1.548  0.2072  1.1600  1.5812
  480MOL0     H66182   3.612   9.276   1.533  0.0210  0.8408 -0.2723
  480MOL0     H66183   3.584   9.256   1.288 -1.7173 -4.2800 -1.9912
  480MOL0     H66184   3.759   9.285   1.331 -3.8370  5.1855  1.2502
  480MOL0     H66185   3.635   9.042   1.229 -0.7791  1.5905  1.1160
  480MOL0     H66186   3.766   9.019   1.337  2.0893  2.5482  2.2249
  480MOL0     H66187   3.925   9.128   1.194 -0.4855 -0.5278  0.4803
  480MOL0     H66188   3.842   9.025   1.094  1.5731  0.0396 -0.7493
  480MOL0     H66189   3.613   9.134   0.964 -1.0640 -0.0271  1.3009
  480MOL0     H66190   3.566   9.432   0.789  0.8307  0.6177  2.0195
  480MOL0     H66191   3.555   9.271   0.739  0.0246  0.3448  1.0994
  480MOL0     H66192   3.714   9.499   0.626  0.8871 -0.5752 -2.0342
  480MOL0     H66193   3.820   9.373   0.657 -1.1257 -1.1295  0.9764
  480MOL0     H66194   3.737   9.364   0.424 -0.8111  1.4028  0.3210
  480MOL0     H66195   3.697   9.221   0.497 -0.5649 -0.1353 -0.7921
  480MOL0     H66196   3.496   9.446   0.513  1.2432 -0.3384  1.0859
  480MOL0     H66197   3.528   9.361   0.359 -3.3154 -1.3573 -0.4311
  480MOL0     H66198   3.319   9.065   0.580 -0.6024 -0.2746  1.1378
  480MOL0     H66199   3.108   8.989   0.666 -0.3446 -3.3522 -1.4011
  480MOL0     H66200   3.075   8.904   0.520 -1.5250 -0.3351  0.2714
  480MOL0     H66201   2.951   9.003   0.582 -0.2554 -3.6109 -1.6519
  480MOL0     H66202   2.645   9.118   0.367 -0.2031  1.5323  1.0401
  480MOL0     H66203   2.405   9.176   0.259  0.1542  0.7426  4.2615
  480MOL0     H66204   2.397   9.497  -0.060 -3.4245  1.3096 -2.5576
  480MOL0     H66205   2.272   9.384  -0.094 -1.0757 -1.3710  1.3391
  480MOL0     H66206   2.164   9.592  -0.013 -0.3075  2.4517  2.4158
  480MOL0     H66207   2.139   9.457   0.092  1.0506 -0.4236  0.8033
  480MOL0     H66208   2.353   9.554   0.211 -1.0223  0.6158  1.0777
  480MOL0     H66209   2.214   9.654   0.234 -3.1149  1.4388 -2.5489
  480MOL0     H66210   2.403   9.702   0.004 -0.4856  1.1564 -2.3205
  480MOL0     H66211   2.452   9.742   0.169 -2.5754 -0.9121  2.6221
  480MOL0     H66212   2.185   9.858   0.074  0.2344  0.4201 -2.2664
  480MOL0     H66213   2.299   9.928   0.193  3.6572  0.7768 -0.6577
  480MOL0     H66214   2.371   9.916  -0.088  3.0715 -0.8504  1.1668
  480MOL0     H66215   2.473   9.953   0.045  0.5809 -2.0192 -2.7058
  480MOL0     H66216   2.298  10.118   0.124  1.1724  0.2108  0.5379
  480MOL0     H66217   2.203  10.100  -0.027 -0.1167 -1.5195  1.0692
  480MOL0     H66218   2.429  10.159  -0.158 -0.1953 -1.4489  0.9450
  480MOL0     H66219   2.496  10.204   0.003  1.0361  1.8383  0.1166
  480MOL0     H66220   2.591   9.452   0.005  0.5993  2.6153  2.1090
  480MOL0     H66221   2.808   9.400   0.087 -1.7905  2.9646 -1.0440
  480MOL0     H66222   3.102   9.364   0.259 -0.1505  4.8477  2.5832
  480MOL0     H66223   3.331   9.382   0.302 -0.0365  1.0923  1.8109
  480MOL0     H66224   3.003   8.942   1.729 -2.2863 -0.6791  1.5261
  480MOL0     H66225   2.793   8.843   1.727 -0.8827 -0.2365 -1.3923
  480MOL0     H66226   2.434   8.777   1.513  2.6663 -1.2252  2.7632
  480MOL0     H66227   2.219   8.646   1.514  3.2723 -0.0217 -0.3764
  480MOL0     H66228   1.880   8.781   1.762 -1.7708  1.5737 -1.2626
  480MOL0     H66229   1.861   8.807   1.597  5.4412  1.0261 -2.0572
  480MOL0     H66230   1.796   8.530   1.717 -2.8153  1.1162  3.9029
  480MOL0     H66231   1.760   8.582   1.557 -2.3403 -2.0333  0.6205
  480MOL0     H66232   1.618   8.702   1.797 -0.8246 -2.1356  0.8034
  480MOL0     H66233   1.611   8.748   1.626 -0.9451 -0.3704  0.1141
  480MOL0     H66234   1.514   8.534   1.558 -1.6361  1.5437 -0.0322
  480MOL0     H66235   1.427   8.597   1.697  0.0298  1.0673 -0.2643
  480MOL0     H66236   1.596   8.255   1.883  1.0688  2.9330  3.5318
  480MOL0     H66237   2.046   8.912   1.784  0.0245 -1.0845  1.1034
  480MOL0     H66238   2.145   9.099   1.883  0.1576 -0.4219  0.7424
  480MOL0     H66239   2.318   9.103   1.878 -0.4515 -2.2501  0.4076
  480MOL0     H66240   2.233   9.188   1.750 -0.2183 -0.0855 -0.2303
  481MOL0     O66241   4.237   8.445   2.010  0.6923  0.2279 -0.0440
  481MOL0     C66242   4.222   8.348   2.092 -0.8789 -0.6084 -0.0653
  481MOL0     O66243   4.315   8.251   2.116  0.9668  0.3570 -0.4494
  481MOL0     C66244   4.410   8.206   2.032 -0.2606 -0.8093 -0.5780
  481MOL0     C66245   4.526   8.145   2.083  0.0387 -1.2064 -0.3595
  481MOL0     C66246   4.638   8.120   2.002  0.6902  0.2021  0.6842
  481MOL0     C66247   4.620   8.132   1.864  1.0260  0.1755 -0.3129
  481MOL0     O66248   4.713   8.079   1.782 -0.4422  0.1708  0.6273
  481MOL0     C66249   4.854   8.061   1.811 -0.1342  0.1654 -0.7363
  481MOL0     C66250   4.925   8.003   1.694  0.4829 -0.0448 -0.3756
  481MOL0     C66251   4.926   8.093   1.570 -0.7462  0.0806 -0.0945
  481MOL0     C66252   5.022   8.041   1.460 -0.7348 -0.3327  0.7090
  481MOL0     C66253   4.961   7.926   1.380 -0.0984  0.0445 -0.3092
  481MOL0     C66254   5.070   7.860   1.286  0.3390 -0.6886  0.4308
  481MOL0     C66255   5.130   7.963   1.192 -0.1237  0.2056  0.4330
  481MOL0     C66256   5.196   7.879   1.078  0.4986  0.2122  0.2965
  481MOL0     N66257   5.335   7.853   1.117  0.5968 -0.5114 -0.6401
  481MOL0     C66258   5.391   7.758   1.202  0.5027 -0.0706  0.6152
  481MOL0     C66259   5.520   7.797   1.214 -0.1013 -0.1202  0.8919
  481MOL0     C66260   5.617   7.729   1.306  0.6637  0.2426 -0.0439
  481MOL0     C66261   5.600   7.759   1.456  0.1800  0.4147 -0.0596
  481MOL0     C66262   5.719   7.728   1.541  0.5225 -0.8608  0.0001
  481MOL0     C66263   5.709   7.769   1.689  0.1328 -0.5373 -0.5310
  481MOL0     O66264   5.619   7.669   1.748  0.3102  1.1060  0.8881
  481MOL0     C66265   5.625   7.657   1.888  0.1743  0.5068 -0.5095
  481MOL0     C66266   5.692   7.747   1.974 -0.2326 -1.0949  0.7223
  481MOL0     C66267   5.703   7.734   2.112  0.5512 -0.2165 -0.8513
  481MOL0     C66268   5.782   7.837   2.186  0.5569 -0.2343  0.7831
  481MOL0     C66269   5.643   7.620   2.176 -0.2968  0.4820 -0.2264
  481MOL0     C66270   5.659   7.592   2.316  0.4547  0.9028 -1.1502
  481MOL0     O66271   5.556   7.523   2.381  0.2760 -0.4916 -0.1034
  481MOL0     C66272   5.563   7.520   2.525 -0.6205  0.7310 -0.5361
  481MOL0     C66273   5.590   7.392   2.582 -0.5757  0.4346 -0.6410
  481MOL0     C66274   5.617   7.385   2.719 -0.1148 -0.4653 -0.4227
  481MOL0     C66275   5.617   7.499   2.798  0.4026  0.3607 -0.3719
  481MOL0     O66276   5.656   7.487   2.926  0.4896 -0.1628 -0.5351
  481MOL0     C66277   5.739   7.581   2.995 -0.2294  0.2835  0.0800
  481MOL0     C66278   5.793   7.510   3.118  0.0121  0.0246  1.1149
  481MOL0     C66279   5.894   7.388   3.094  0.5540  0.3512  0.9220
  481MOL0     C66280   5.822   7.250   3.085  0.0209 -0.1931 -0.0792
  481MOL0     C66281   5.919   7.136   3.086  0.4489  0.2518  0.7497
  481MOL0     C66282   5.840   7.004   3.087  0.9011 -1.0416  0.1302
  481MOL0     C66283   5.932   6.880   3.064  0.7383 -0.0492  0.9354
  481MOL0     C66284   5.860   6.752   3.092  0.5720  0.3703  0.5232
  481MOL0    Cl66285   5.835   6.721   3.264 -0.1772 -0.0728 -0.3872
  481MOL0     C66286   5.602   7.624   2.743 -0.1438 -0.1984 -0.3697
  481MOL0     C66287   5.573   7.634   2.603  0.3565 -0.2672  0.3625
  481MOL0     O66288   5.762   7.636   2.376  0.9201  0.8072 -0.1820
  481MOL0     C66289   5.581   7.526   2.098 -0.5651  0.1414 -0.1622
  481MOL0     C66290   5.573   7.540   1.952  0.5665 -0.2946 -0.6752
  481MOL0     N66291   5.541   7.920   1.135  0.3450  0.2156  0.2113
  481MOL0     N66292   5.427   7.938   1.079 -0.8152 -0.5891 -0.5707
  481MOL0     C66293   4.510   8.182   1.809  0.4445 -0.5209  0.3041
  481MOL0     C66294   4.403   8.225   1.892  0.0584 -0.1424 -0.2657
  481MOL0     C66295   4.115   8.351   2.194  0.9344 -0.8300 -0.9780
  481MOL0     C66296   4.037   8.232   2.214  0.7112 -0.1212 -0.1176
  481MOL0     C66297   3.934   8.231   2.311  1.1361  0.5441 -0.6397
  481MOL0     C66298   3.907   8.338   2.395 -0.2100  0.8448 -0.8763
  481MOL0     O66299   3.806   8.314   2.489 -0.8851 -0.4518  0.6147
  481MOL0     C66300   3.790   8.399   2.606 -0.3807 -0.2507 -0.6039
  481MOL0     C66301   3.725   8.321   2.733  0.5913  0.6115  0.9113
  481MOL0     C66302   3.707   8.414   2.852  0.0481  0.3744 -0.1160
  481MOL0     C66303   3.676   8.331   2.974 -0.4946 -0.8226 -0.2229
  481MOL0     C66304   3.557   8.250   2.972 -0.0573  0.0878 -0.2606
  481MOL0     C66305   3.452   8.194   2.980  0.9200  0.4108  0.7752
  481MOL0     C66306   3.991   8.456   2.380 -0.1942 -0.3039  0.8608
  481MOL0     C66307   4.086   8.464   2.279  0.5119  0.5300 -1.0064
  481MOL0     C66308   4.153   8.593   2.251 -0.2694 -0.4961  0.4581
  481MOL0     H66309   4.538   8.135   2.190 -0.6900  0.5756 -0.0893
  481MOL0     H66310   4.725   8.068   2.042 -0.2000 -0.5934  1.6411
  481MOL0     H66311   4.860   7.998   1.900 -1.0845 -0.5319 -1.1499
  481MOL0     H66312   4.906   8.151   1.845  4.0822 -2.2968  0.0419
  481MOL0     H66313   5.021   7.958   1.719 -0.2662 -1.6191 -0.2121
  481MOL0     H66314   4.859   7.921   1.663  0.8869 -0.2707 -0.6384
  481MOL0     H66315   4.825   8.100   1.528 -1.0298  0.4159  0.6238
  481MOL0     H66316   4.946   8.192   1.612  1.4012 -1.2257  2.2375
  481MOL0     H66317   5.050   8.108   1.378 -2.2000 -1.0276 -0.4278
  481MOL0     H66318   5.118   8.006   1.499 -0.0401  0.4591 -0.2304
  481MOL0     H66319   4.874   7.967   1.328 -1.4043  0.3462  2.0294
  481MOL0     H66320   4.915   7.861   1.454  4.7869  0.4943  3.6542
  481MOL0     H66321   5.156   7.816   1.338 -0.0773  0.5295  2.2254
  481MOL0     H66322   5.024   7.786   1.220  1.5782  2.5188 -4.5890
  481MOL0     H66323   5.202   8.033   1.235 -2.6179  3.0977  0.2211
  481MOL0     H66324   5.057   8.033   1.151 -2.3795 -1.5442  1.2372
  481MOL0     H66325   5.151   7.780   1.061  2.3804 -0.5819 -0.3367
  481MOL0     H66326   5.188   7.935   0.984  0.4710  0.8810  0.6932
  481MOL0     H66327   5.348   7.665   1.237 -1.5941  1.2464  1.7854
  481MOL0     H66328   5.718   7.753   1.272  2.0189  0.8677  3.8482
  481MOL0     H66329   5.598   7.621   1.303  1.9990 -0.0012 -0.3977
  481MOL0     H66330   5.574   7.865   1.460  0.8943  0.6158 -0.4271
  481MOL0     H66331   5.511   7.709   1.495 -1.7265  3.6372  0.0714
  481MOL0     H66332   5.750   7.624   1.525 -0.8995 -1.5099  1.1608
  481MOL0     H66333   5.791   7.792   1.490 -0.4772 -1.4750 -2.3237
  481MOL0     H66334   5.809   7.764   1.734  0.6356  2.8327 -0.9603
  481MOL0     H66335   5.667   7.870   1.695 -1.0541 -0.9170 -1.9914
  481MOL0     H66336   5.733   7.836   1.926 -0.5090 -0.7214  1.1688
  481MOL0     H66337   5.878   7.786   2.192 -0.3189 -1.8754  1.4274
  481MOL0     H66338   5.732   7.855   2.282  0.0265 -1.4842  0.7650
  481MOL0     H66339   5.796   7.924   2.121  0.2833 -0.9283 -0.2262
  481MOL0     H66340   5.606   7.303   2.523  1.0111 -0.5928  1.2313
  481MOL0     H66341   5.654   7.292   2.760 -0.4427  0.0473  1.0942
  481MOL0     H66342   5.819   7.621   2.933  0.4836 -1.4370 -0.1453
  481MOL0     H66343   5.669   7.663   3.018 -1.1465 -0.8186  1.3787
  481MOL0     H66344   5.857   7.583   3.169  0.0937  0.8391 -0.1224
  481MOL0     H66345   5.706   7.477   3.175 -1.6971 -0.2621 -1.4889
  481MOL0     H66346   5.961   7.373   3.179  0.2907 -0.8071  0.9389
  481MOL0     H66347   5.964   7.395   3.010  1.5332  0.2139  1.6995
  481MOL0     H66348   5.763   7.251   2.993 -0.2766  0.7367  0.1036
  481MOL0     H66349   5.770   7.252   3.181 -2.4868  1.9536 -1.3677
  481MOL0     H66350   5.990   7.137   3.003  0.2163  1.2808  0.5573
  481MOL0     H66351   5.968   7.150   3.182 -3.6079 -0.1446  3.0889
  481MOL0     H66352   5.768   7.010   3.005  0.2092  0.8570  0.8266
  481MOL0     H66353   5.777   6.991   3.175 -0.8041  1.7261 -0.5680
  481MOL0     H66354   6.027   6.879   3.118  2.2153  1.6574 -1.4398
  481MOL0     H66355   5.962   6.886   2.959  1.4579  1.2137  1.1837
  481MOL0     H66356   5.919   6.671   3.049  0.0232 -0.3734  1.1341
  481MOL0     H66357   5.764   6.760   3.039  0.8515  0.4387  0.0217
  481MOL0     H66358   5.624   7.713   2.800  0.4672  0.2241 -1.2400
  481MOL0     H66359   5.571   7.733   2.558  1.2351  0.2937  1.4972
  481MOL0     H66360   5.539   7.437   2.143 -1.0444 -0.5480 -1.9007
  481MOL0     H66361   5.533   7.460   1.890 -0.7117  0.1327 -0.4417
  481MOL0     H66362   4.495   8.195   1.702 -0.8064 -0.5339  0.4669
  481MOL0     H66363   4.307   8.258   1.852  0.0903 -0.7690 -0.8879
  481MOL0     H66364   4.048   8.152   2.141  0.1662  0.5574 -0.9661
  481MOL0     H66365   3.877   8.139   2.320  0.2618  1.1100 -0.2090
  481MOL0     H66366   3.890   8.434   2.635 -0.4182  1.7480 -2.6550
  481MOL0     H66367   3.726   8.484   2.582 -0.7067 -0.3198  0.0085
  481MOL0     H66368   3.792   8.241   2.766  2.2685  1.9519  0.9059
  481MOL0     H66369   3.626   8.292   2.699  0.9782  1.5254 -1.0937
  481MOL0     H66370   3.804   8.460   2.869 -0.3380  1.5879 -0.9988
  481MOL0     H66371   3.628   8.488   2.836  1.3262  1.3933 -2.0961
  481MOL0     H66372   3.667   8.397   3.061  1.6541 -1.6698  0.7236
  481MOL0     H66373   3.760   8.266   2.999  1.2252  1.0671 -0.7682
  481MOL0     H66374   3.359   8.141   2.976 -0.2789  2.4151  0.6082
  481MOL0     H66375   3.966   8.544   2.439  1.4167  1.5688 -1.0663
  481MOL0     H66376   4.122   8.669   2.323 -0.2793  0.3215 -0.3938
  481MOL0     H66377   4.258   8.573   2.276 -0.1482  1.8909  2.2761
  481MOL0     H66378   4.140   8.627   2.148  0.4181  0.4470  0.6704
  482MOL0     O66379   1.273   8.856  10.433 -0.0117 -0.5809  0.1114
  482MOL0     C66380   1.245   8.766  10.505 -0.4484  1.0843  0.0732
  482MOL0     O66381   1.298   8.742  10.635  0.2283 -0.3823 -0.3429
  482MOL0     C66382   1.372   8.842  10.700 -0.5233 -0.2207  0.7692
  482MOL0     C66383   1.340   8.880  10.828 -0.2514 -0.8951 -0.3821
  482MOL0     C66384   1.411   8.973  10.906  0.1357  0.0582  0.3447
  482MOL0     C66385   1.527   9.035  10.846  0.3332  0.1238  0.3690
  482MOL0     O66386   1.604   9.140  10.894  0.4627  0.3286 -1.0580
  482MOL0     C66387   1.576   9.192  11.026 -1.2919 -0.8531 -0.6827
  482MOL0     C66388   1.674   9.310  11.057  0.6035 -0.9685 -0.3460
  482MOL0     C66389   1.822   9.277  11.024  0.3689 -0.6866 -0.7132
  482MOL0     C66390   1.889   9.224  11.147 -0.0956 -0.4783  0.4037
  482MOL0     C66391   2.036   9.270  11.178  0.6440 -0.1153 -0.1600
  482MOL0     C66392   2.126   9.252  11.058 -0.5658  0.0727 -0.9338
  482MOL0     C66393   2.267   9.311  11.089 -0.7219  0.7432 -0.5859
  482MOL0     C66394   2.280   9.460  11.078 -0.4735  0.9558 -0.2330
  482MOL0     N66395   2.413   9.503  11.110  0.2314 -0.1568  0.1353
  482MOL0     C66396   2.537   9.447  11.086  0.6553 -0.1408  0.4185
  482MOL0     C66397   2.627   9.532  11.131 -0.3376  0.0851  0.4545
  482MOL0     C66398   2.778   9.523  11.118  0.0070  1.3396  0.5174
  482MOL0     C66399   2.844   9.528  11.261 -0.3190 -0.7368  0.2076
  482MOL0     C66400   2.989   9.489  11.263 -0.5983 -0.5396 -1.0089
  482MOL0     C66401   3.045   9.480  11.408  0.5551  0.7550 -0.4804
  482MOL0     O66402   3.013   9.357  11.474 -0.0287  0.1934 -0.5103
  482MOL0     C66403   3.105   9.253  11.443  0.4229 -0.1898 -0.2861
  482MOL0     C66404   3.210   9.254  11.350 -1.2892  1.6027  0.1117
  482MOL0     C66405   3.279   9.129  11.310 -0.1327  0.0153  0.4780
  482MOL0     C66406   3.389   9.148  11.206  0.4302 -0.0956  1.0710
  482MOL0     C66407   3.252   9.015  11.384 -0.1093  0.0476  0.1085
  482MOL0     C66408   3.322   8.887  11.371 -0.9594  0.2807  0.0936
  482MOL0     O66409   3.459   8.894  11.339 -0.4439  0.4850 -0.4218
  482MOL0     C66410   3.545   8.789  11.313 -0.4285  0.3870  0.8379
  482MOL0     C66411   3.674   8.816  11.258  0.5257 -1.3655 -0.2073
  482MOL0     C66412   3.765   8.721  11.226  0.9997 -0.4876 -0.0025
  482MOL0     C66413   3.741   8.591  11.267  0.0432  0.4035 -0.0718
  482MOL0     O66414   3.840   8.499  11.228  0.6511  0.1744 -0.1511
  482MOL0     C66415   3.813   8.359  11.256  0.1766 -0.5854  1.1524
  482MOL0     C66416   3.923   8.265  11.198  0.3840 -0.7879 -0.6399
  482MOL0     C66417   3.919   8.122  11.228 -0.4898  0.9129  0.2372
  482MOL0     C66418   3.818   8.049  11.139  0.9515  0.4993  0.4629
  482MOL0     C66419   3.778   7.905  11.177  0.5136  0.5337  0.5034
  482MOL0     C66420   3.757   7.871  11.330 -0.6756  0.6965 -0.0068
  482MOL0     C66421   3.724   7.726  11.358  0.0519  1.0068  0.8160
  482MOL0     C66422   3.602   7.706  11.455  0.5648 -0.2137  0.4059
  482MOL0    Cl66423   3.622   7.808  11.597  0.1703 -0.1042 -0.0760
  482MOL0     C66424   3.622   8.559  11.332  0.9459 -0.5006  0.9139
  482MOL0     C66425   3.522   8.653  11.347 -0.6358 -0.2762 -0.4763
  482MOL0     O66426   3.267   8.787  11.395  0.6233  0.5518 -0.0501
  482MOL0     C66427   3.148   9.018  11.481  0.5611 -0.1435 -0.7754
  482MOL0     C66428   3.067   9.131  11.506 -0.0615  0.5716 -0.1967
  482MOL0     N66429   2.558   9.645  11.181 -0.7021  0.9176  0.1025
  482MOL0     N66430   2.441   9.628  11.163  0.0713  0.6538  0.2815
  482MOL0     C66431   1.569   8.994  10.718  0.3128 -0.7816  0.4216
  482MOL0     C66432   1.491   8.902  10.647  0.3717  0.5022 -0.5912
  482MOL0     C66433   1.157   8.664  10.459 -0.1788  0.3948 -0.4539
  482MOL0     C66434   1.037   8.630  10.541 -0.5363 -0.1908 -0.6647
  482MOL0     C66435   0.955   8.526  10.499  0.7620 -0.4576 -0.2213
  482MOL0     C66436   0.979   8.448  10.385 -0.1593 -0.6835 -0.4196
  482MOL0     O66437   0.894   8.342  10.361  0.2928 -0.3925 -0.8264
  482MOL0     C66438   0.954   8.244  10.287  0.3603  0.1131  0.0861
  482MOL0     C66439   0.858   8.124  10.307 -0.1606 -0.2257 -0.8837
  482MOL0     C66440   0.867   8.011  10.202 -0.5611 -0.0737  0.1824
  482MOL0     C66441   0.798   7.883  10.260 -0.1792  0.4222 -0.2938
  482MOL0     C66442   0.789   7.775  10.162 -0.0255 -0.4088 -0.0714
  482MOL0     C66443   0.770   7.674  10.103 -0.0199  0.3579 -0.2407
  482MOL0     C66444   1.089   8.484  10.306 -0.2599 -0.2075 -0.2698
  482MOL0     C66445   1.170   8.587  10.346  0.9771 -0.0870  0.9005
  482MOL0     C66446   1.279   8.620  10.255  0.3590 -0.6430  0.0486
  482MOL0     H66447   1.256   8.834  10.878  0.8998 -0.0706  2.5136
  482MOL0     H66448   1.381   9.019  11.000 -0.9821  3.2443 -1.3963
  482MOL0     H66449   1.594   9.117  11.103 -1.0786 -1.6037 -1.4560
  482MOL0     H66450   1.473   9.219  11.051 -0.3871  1.1413  1.2621
  482MOL0     H66451   1.634   9.399  11.007 -1.2262 -1.4302  0.2235
  482MOL0     H66452   1.669   9.346  11.160 -3.1058  1.9144 -1.2902
  482MOL0     H66453   1.858   9.220  10.938 -0.0406 -0.4895 -1.0157
  482MOL0     H66454   1.854   9.381  11.015 -1.6595  0.2563  1.7167
  482MOL0     H66455   1.830   9.247  11.237  0.5667 -2.4781  1.3890
  482MOL0     H66456   1.894   9.116  11.135  0.7215 -0.3819 -0.2128
  482MOL0     H66457   2.079   9.207  11.257  1.2762  0.3562 -0.1257
  482MOL0     H66458   2.042   9.371  11.219 -1.1587 -0.4689  1.0845
  482MOL0     H66459   2.129   9.146  11.031 -1.7789 -0.3988  0.6232
  482MOL0     H66460   2.087   9.310  10.974 -0.3167  1.3438 -0.2010
  482MOL0     H66461   2.334   9.268  11.015 -1.0388  1.7476 -1.4702
  482MOL0     H66462   2.312   9.279  11.184  1.1294 -0.0160 -1.6829
  482MOL0     H66463   2.252   9.496  10.978 -0.2891  2.5101  0.2486
  482MOL0     H66464   2.213   9.521  11.139  1.3037  1.5040  1.2749
  482MOL0     H66465   2.559   9.350  11.043  2.6418  0.7742 -0.7707
  482MOL0     H66466   2.814   9.609  11.061  0.8851 -0.7412 -2.2494
  482MOL0     H66467   2.808   9.435  11.061  2.5731  0.7080  2.6253
  482MOL0     H66468   2.839   9.631  11.297 -1.3466 -1.4505  2.2371
  482MOL0     H66469   2.786   9.485  11.343 -2.1892  1.2368  0.0058
  482MOL0     H66470   3.015   9.405  11.199  0.6680 -3.1032  2.5645
  482MOL0     H66471   3.040   9.575  11.219 -0.3517 -0.9612 -1.5475
  482MOL0     H66472   3.151   9.510  11.409  1.2677 -1.1507 -3.7731
  482MOL0     H66473   2.986   9.555  11.461 -3.5854 -2.8681  0.6168
  482MOL0     H66474   3.237   9.342  11.292 -1.2335 -0.8153 -3.8524
  482MOL0     H66475   3.476   9.188  11.258 -1.1343 -0.2059  3.9870
  482MOL0     H66476   3.353   9.215  11.126  0.8476 -2.0980 -0.8898
  482MOL0     H66477   3.415   9.059  11.149 -0.4860  0.0604  0.3670
  482MOL0     H66478   3.689   8.920  11.231  0.8605 -1.0518  1.1334
  482MOL0     H66479   3.861   8.743  11.179  2.1141 -1.1806  1.8209
  482MOL0     H66480   3.807   8.355  11.365  2.1964 -0.0439  1.3177
  482MOL0     H66481   3.717   8.325  11.215  0.1291 -0.7905  1.4324
  482MOL0     H66482   3.937   8.281  11.090 -0.3939 -0.2965 -0.6804
  482MOL0     H66483   4.014   8.311  11.237 -1.1042  1.9020 -0.0750
  482MOL0     H66484   3.899   8.105  11.334  0.8219  0.9648  0.5090
  482MOL0     H66485   4.017   8.084  11.198 -0.7784 -0.1094  0.5524
  482MOL0     H66486   3.841   8.051  11.033 -1.1867  0.7878 -0.0397
  482MOL0     H66487   3.722   8.098  11.156  0.6403 -0.2635  0.9873
  482MOL0     H66488   3.685   7.886  11.122  0.2380 -2.5046  1.8280
  482MOL0     H66489   3.862   7.848  11.137  1.4916  2.6683 -0.6763
  482MOL0     H66490   3.677   7.938  11.362 -0.1352  0.7587  1.2466
  482MOL0     H66491   3.847   7.897  11.385  1.1788 -0.2112 -2.4203
  482MOL0     H66492   3.815   7.681  11.400  0.7549  0.3632 -1.2884
  482MOL0     H66493   3.708   7.693  11.255  3.9174  2.5752 -0.4789
  482MOL0     H66494   3.601   7.603  11.493  1.4272 -1.6166 -3.0217
  482MOL0     H66495   3.509   7.731  11.403 -1.0474 -0.6240  2.8838
  482MOL0     H66496   3.607   8.461  11.377  1.9179 -1.5688 -0.9658
  482MOL0     H66497   3.431   8.622  11.399 -0.8092 -0.0313 -0.6314
  482MOL0     H66498   3.120   8.928  11.536 -1.6218  0.6864 -0.4499
  482MOL0     H66499   2.981   9.123  11.573  0.2329  0.2699  0.1553
  482MOL0     H66500   1.662   9.028  10.675  1.4832 -3.0089  1.0107
  482MOL0     H66501   1.525   8.870  10.549 -0.7122 -1.4423 -0.3767
  482MOL0     H66502   1.015   8.679  10.635 -3.7181  1.1899 -1.9783
  482MOL0     H66503   0.862   8.513  10.554  1.1288 -1.0032  0.2883
  482MOL0     H66504   0.945   8.276  10.183 -0.0675  2.0517  0.6758
  482MOL0     H66505   1.056   8.225  10.320  1.2537  2.0398 -1.3991
  482MOL0     H66506   0.756   8.161  10.306 -0.4488 -0.4834  3.0851
  482MOL0     H66507   0.882   8.077  10.403 -0.0987  1.9030  0.1991
  482MOL0     H66508   0.816   8.048  10.112  0.5695  0.5642 -0.2126
  482MOL0     H66509   0.969   7.993  10.170 -0.7856 -0.0804 -0.5440
  482MOL0     H66510   0.700   7.905  10.305 -0.4903 -1.7090  0.1750
  482MOL0     H66511   0.855   7.840  10.343  0.0293  1.6738  0.2396
  482MOL0     H66512   0.752   7.592  10.036 -1.8591 -0.2309  0.8955
  482MOL0     H66513   1.109   8.421  10.221  2.2811  0.2161 -0.0636
  482MOL0     H66514   1.271   8.717  10.205  0.0990 -0.2469  0.8491
  482MOL0     H66515   1.378   8.635  10.299  1.2503  0.6105 -2.2112
  482MOL0     H66516   1.305   8.536  10.190 -0.5997 -0.9464  0.0374
  483MOL0     O66517   3.075   7.761   0.124 -0.3406 -0.4806  0.2005
  483MOL0     C66518   3.122   7.669   0.063 -0.2959  0.7259  0.4273
  483MOL0     O66519   3.131   7.536   0.112 -0.1261  0.0274  0.6826
  483MOL0     C66520   3.062   7.514   0.223 -0.0440 -0.2331 -0.4955
  483MOL0     C66521   2.924   7.508   0.219 -0.7961  0.3608  0.4745
  483MOL0     C66522   2.847   7.481   0.329  0.3871  0.0579 -0.7133
  483MOL0     C66523   2.905   7.452   0.449 -0.5944 -0.1680  0.7665
  483MOL0     O66524   2.824   7.397   0.554 -0.3211  0.3904  0.6907
  483MOL0     C66525   2.874   7.278   0.621 -0.0747  0.0379 -0.2541
  483MOL0     C66526   2.876   7.152   0.535  0.3835  0.4078  0.2690
  483MOL0     C66527   2.742   7.120   0.467 -0.2033  0.4394 -0.6297
  483MOL0     C66528   2.617   7.109   0.559 -0.6793 -0.1878 -0.3604
  483MOL0     C66529   2.484   7.076   0.498 -0.5283 -0.3118  0.4044
  483MOL0     C66530   2.428   7.191   0.407 -0.1110 -0.1946  0.3164
  483MOL0     C66531   2.410   7.330   0.481  1.4892  0.0602 -0.1968
  483MOL0     C66532   2.345   7.318   0.622 -0.0970  0.4826  0.4120
  483MOL0     N66533   2.245   7.418   0.662  0.1905  0.1003 -0.0854
  483MOL0     C66534   2.149   7.404   0.757  0.6983  1.2975  0.2288
  483MOL0     C66535   2.078   7.518   0.766 -0.1509  0.5777 -0.1160
  483MOL0     C66536   1.961   7.563   0.855 -0.6167  0.0416 -0.0646
  483MOL0     C66537   1.866   7.435   0.871  0.3712 -0.2812  0.2007
  483MOL0     C66538   1.768   7.469   0.990  0.2284 -0.6704  0.9683
  483MOL0     C66539   1.661   7.356   0.997  0.1999  0.8042 -1.3056
  483MOL0     O66540   1.730   7.224   1.025 -0.3803 -0.4725 -0.3092
  483MOL0     C66541   1.759   7.183   1.154  0.4724  0.1094  0.2459
  483MOL0     C66542   1.694   7.230   1.270  0.2122  0.1964 -0.2174
  483MOL0     C66543   1.726   7.189   1.397  0.2531  0.4944 -0.4687
  483MOL0     C66544   1.647   7.271   1.498 -0.4273 -0.1668  0.0792
  483MOL0     C66545   1.839   7.098   1.416 -0.2305 -0.0497 -1.1315
  483MOL0     C66546   1.896   7.066   1.551 -0.5572  1.2541 -0.3151
  483MOL0     O66547   2.001   6.982   1.561 -0.3294  0.2705 -0.0958
  483MOL0     C66548   2.053   6.942   1.681 -0.7925 -0.2399 -0.2138
  483MOL0     C66549   1.988   6.910   1.789  0.0583 -0.8643 -0.3354
  483MOL0     C66550   2.048   6.863   1.910  0.4172 -0.7601 -0.0390
  483MOL0     C66551   2.188   6.858   1.921 -0.3468 -0.1447 -0.1101
  483MOL0     O66552   2.242   6.820   2.046  0.5944 -0.2992  1.0985
  483MOL0     C66553   2.373   6.777   2.061 -1.1442  0.1431  0.4282
  483MOL0     C66554   2.456   6.897   2.105  0.4764 -0.1399  0.4864
  483MOL0     C66555   2.604   6.886   2.105  0.1364  0.3669  0.1924
  483MOL0     C66556   2.660   6.908   1.972 -0.1202  0.6926  0.6475
  483MOL0     C66557   2.807   6.874   1.960 -0.7184  0.9678 -0.1659
  483MOL0     C66558   2.909   6.941   2.060  1.1126 -1.0222 -0.0168
  483MOL0     C66559   2.923   7.088   2.040 -0.4685 -0.1789  0.7160
  483MOL0     C66560   3.034   7.162   2.126  0.9679  0.0648  0.0969
  483MOL0    Cl66561   3.196   7.096   2.086 -0.5783 -0.1893 -0.3126
  483MOL0     C66562   2.268   6.894   1.810  0.1684 -0.4704  0.4427
  483MOL0     C66563   2.196   6.933   1.690 -0.5486 -0.6296 -0.0965
  483MOL0     O66564   1.859   7.134   1.642  0.2376  0.4410 -0.4395
  483MOL0     C66565   1.894   7.046   1.300  0.2821  0.2467 -0.4754
  483MOL0     C66566   1.860   7.089   1.168  0.3066  1.4595 -0.4336
  483MOL0     N66567   2.136   7.598   0.668 -0.1642  0.4924 -0.5288
  483MOL0     N66568   2.237   7.547   0.614 -0.9461  0.7936  0.0896
  483MOL0     C66569   3.047   7.459   0.463  0.5712  0.0413  1.4614
  483MOL0     C66570   3.126   7.484   0.350  0.9482  0.2086 -0.0953
  483MOL0     C66571   3.161   7.703  -0.078 -0.1592 -0.2978  0.6134
  483MOL0     C66572   3.103   7.817  -0.139  0.4981 -0.3820 -0.7680
  483MOL0     C66573   3.129   7.841  -0.275  0.0980 -0.1576  0.2936
  483MOL0     C66574   3.223   7.765  -0.352 -0.7949 -0.6719 -0.0367
  483MOL0     O66575   3.268   7.783  -0.488 -0.4059 -0.0071 -0.5491
  483MOL0     C66576   3.171   7.831  -0.571 -0.1415  0.2096  1.1231
  483MOL0     C66577   3.200   7.813  -0.715  0.1527 -0.2456 -1.1313
  483MOL0     C66578   3.125   7.907  -0.807  1.1309  0.7442  0.0753
  483MOL0     C66579   3.159   7.871  -0.955 -0.6207 -0.3503  0.8146
  483MOL0     C66580   3.301   7.923  -0.974 -0.1824 -0.4849 -0.1732
  483MOL0     C66581   3.408   7.981  -0.988 -0.1692 -0.0460 -0.2904
  483MOL0     C66582   3.289   7.661  -0.289 -0.4461 -0.1143  0.3655
  483MOL0     C66583   3.253   7.622  -0.156  0.3567  0.3485 -0.0362
  483MOL0     C66584   3.322   7.498  -0.104 -0.4334  0.2240 -0.1502
  483MOL0     H66585   2.880   7.494   0.121 -2.0250 -1.2085  1.1972
  483MOL0     H66586   2.740   7.466   0.314  0.3487  0.3813 -0.7891
  483MOL0     H66587   2.798   7.274   0.699 -2.8728  0.8970 -2.7266
  483MOL0     H66588   2.972   7.305   0.660  0.0764  0.6453 -1.0178
  483MOL0     H66589   2.946   7.179   0.455 -1.4577  3.5321 -0.4346
  483MOL0     H66590   2.904   7.064   0.594  4.5421  0.1260 -1.7577
  483MOL0     H66591   2.721   7.207   0.404 -1.4245 -0.8797 -2.1111
  483MOL0     H66592   2.765   7.026   0.416  2.3933 -1.5326  3.5479
  483MOL0     H66593   2.641   7.044   0.643 -4.3956  0.6814  1.5543
  483MOL0     H66594   2.603   7.204   0.612  1.1545  1.0077 -1.8426
  483MOL0     H66595   2.416   7.059   0.582  0.1461  1.8948  1.4817
  483MOL0     H66596   2.492   6.988   0.433  2.2144  0.7790 -0.8979
  483MOL0     H66597   2.495   7.203   0.322 -1.0205  0.7116 -0.2969
  483MOL0     H66598   2.336   7.151   0.363  0.7075 -1.2226 -0.5128
  483MOL0     H66599   2.343   7.399   0.430  0.3406 -0.6156  0.3687
  483MOL0     H66600   2.508   7.379   0.477  1.5216  0.0115 -0.0025
  483MOL0     H66601   2.293   7.222   0.618 -0.5237  0.7512 -0.7279
  483MOL0     H66602   2.430   7.321   0.691  0.3162  0.0216 -0.0651
  483MOL0     H66603   2.134   7.313   0.813 -0.2474  2.2894  1.6597
  483MOL0     H66604   1.915   7.649   0.805 -2.5972 -0.5057  0.6975
  483MOL0     H66605   1.992   7.598   0.954 -0.4157  1.0676 -0.4849
  483MOL0     H66606   1.804   7.415   0.784 -0.9937 -1.1927  1.3242
  483MOL0     H66607   1.929   7.351   0.901  0.3925 -1.1757 -2.1962
  483MOL0     H66608   1.828   7.448   1.079 -0.5040 -2.3534  1.1158
  483MOL0     H66609   1.727   7.570   0.999 -0.8628 -1.1973  2.3459
  483MOL0     H66610   1.591   7.384   1.076  0.5692  3.3858 -1.8057
  483MOL0     H66611   1.616   7.353   0.897  1.3330 -2.3965 -1.8263
  483MOL0     H66612   1.610   7.299   1.261 -0.7253 -0.6507  1.5350
  483MOL0     H66613   1.618   7.211   1.585  0.4203 -2.4019 -1.0887
  483MOL0     H66614   1.555   7.314   1.456 -0.3175 -0.0326 -0.0217
  483MOL0     H66615   1.713   7.349   1.536  1.1906 -1.2050 -0.4779
  483MOL0     H66616   1.881   6.923   1.788  0.0642 -0.1660  2.1890
  483MOL0     H66617   1.987   6.846   1.998 -0.4346 -3.0230 -0.9892
  483MOL0     H66618   2.375   6.699   2.139  2.0852  0.9691  1.3309
  483MOL0     H66619   2.403   6.718   1.974 -2.1222 -0.1938  0.3107
  483MOL0     H66620   2.429   6.988   2.052 -1.1713 -0.0607  1.3826
  483MOL0     H66621   2.420   6.918   2.207  2.0563 -4.5882  2.1918
  483MOL0     H66622   2.636   6.785   2.133 -0.5483  0.0290 -0.2149
  483MOL0     H66623   2.635   6.966   2.173 -2.3589  2.2296 -0.7277
  483MOL0     H66624   2.642   7.014   1.952  2.4535  1.1920  0.5857
  483MOL0     H66625   2.605   6.842   1.904 -0.7020  3.4697 -1.7410
  483MOL0     H66626   2.818   6.766   1.966 -1.0669  0.9985  1.3395
  483MOL0     H66627   2.847   6.894   1.860  1.3171  0.8046  0.5649
  483MOL0     H66628   3.004   6.891   2.038 -0.5977 -3.8491 -1.6346
  483MOL0     H66629   2.880   6.922   2.164 -1.5097  0.2645 -0.4303
  483MOL0     H66630   2.826   7.140   2.044 -0.1646  0.5430 -0.6228
  483MOL0     H66631   2.955   7.115   1.939 -3.9754  1.6221 -0.0920
  483MOL0     H66632   3.020   7.149   2.233  2.1809 -1.6428  0.0899
  483MOL0     H66633   3.033   7.267   2.096 -2.6321 -0.2317 -1.3136
  483MOL0     H66634   2.376   6.889   1.813  0.1251 -1.3385  2.6302
  483MOL0     H66635   2.252   6.970   1.605 -0.0884 -1.5947 -0.2270
  483MOL0     H66636   1.974   6.976   1.320  0.0839 -0.1001 -0.8871
  483MOL0     H66637   1.911   7.046   1.082 -1.6397 -1.3706 -0.3088
  483MOL0     H66638   3.104   7.439   0.554 -0.4867  0.7209  2.2979
  483MOL0     H66639   3.233   7.481   0.365  0.7153 -2.2874  1.8283
  483MOL0     H66640   3.040   7.888  -0.087  2.0555  0.7637 -0.3701
  483MOL0     H66641   3.076   7.923  -0.322 -1.5981 -0.7536  1.0772
  483MOL0     H66642   3.081   7.775  -0.542 -1.0088  0.8972 -0.1623
  483MOL0     H66643   3.157   7.939  -0.562 -4.5217  0.8637 -5.8557
  483MOL0     H66644   3.178   7.711  -0.747  0.3763 -0.7733  0.3614
  483MOL0     H66645   3.306   7.835  -0.729  0.5321 -0.7642  0.6715
  483MOL0     H66646   3.019   7.910  -0.780  1.8581  0.8962  3.4685
  483MOL0     H66647   3.156   8.009  -0.779 -0.1649  0.6841  1.9402
  483MOL0     H66648   3.093   7.929  -1.019 -0.0292  0.9196  1.3093
  483MOL0     H66649   3.151   7.764  -0.976 -1.8444 -0.5160  1.9732
  483MOL0     H66650   3.501   8.029  -1.010  1.5862 -1.0866  3.7766
  483MOL0     H66651   3.356   7.597  -0.346  0.4749  0.0544  1.2270
  483MOL0     H66652   3.254   7.414  -0.086  0.3545 -0.3134  0.3904
  483MOL0     H66653   3.402   7.465  -0.170  1.3002  2.4246  0.7125
  483MOL0     H66654   3.356   7.533  -0.006 -2.0975  3.9010 -0.7207
  484MOL0     O66655   9.997   3.621   8.037 -0.3682 -0.3878  0.3988
  484MOL0     C66656   9.873   3.599   8.040  0.1209 -0.4736  0.5252
  484MOL0     O66657   9.809   3.487   8.088  0.6102 -0.4717  0.4363
  484MOL0     C66658   9.877   3.375   8.120 -0.6810 -0.0300 -0.5209
  484MOL0     C66659   9.818   3.262   8.062  0.3874 -1.2091  0.2490
  484MOL0     C66660   9.874   3.138   8.100 -0.4033 -0.3739  0.3627
  484MOL0     C66661   9.986   3.126   8.180 -0.2027  0.2161 -0.0075
  484MOL0     O66662  10.038   3.006   8.223 -0.6420 -0.7968 -0.1955
  484MOL0     C66663   9.992   2.875   8.173  0.0930 -0.4023 -0.2409
  484MOL0     C66664  10.107   2.770   8.200  0.0628  0.6578 -0.1598
  484MOL0     C66665  10.055   2.624   8.208  1.1613  0.3634 -0.7544
  484MOL0     C66666   9.991   2.568   8.069 -0.5613 -1.0385 -0.1457
  484MOL0     C66667   9.981   2.415   8.062 -0.8853  1.2558 -0.2700
  484MOL0     C66668   9.900   2.348   8.168  0.1035  0.7321 -0.4437
  484MOL0     C66669   9.753   2.366   8.132 -0.4123  0.0899  0.2637
  484MOL0     C66670   9.662   2.258   8.187  0.7698  0.6535 -0.8585
  484MOL0     N66671   9.546   2.240   8.097  0.0612  0.3455 -0.2479
  484MOL0     C66672   9.474   2.342   8.036 -0.1426 -0.4286 -0.6323
  484MOL0     C66673   9.357   2.290   8.003  0.1069  0.2318 -0.1076
  484MOL0     C66674   9.253   2.358   7.909 -0.5131 -0.2077 -0.6140
  484MOL0     C66675   9.306   2.479   7.824 -0.6542 -1.7338  0.0164
  484MOL0     C66676   9.327   2.604   7.900 -0.6144  0.2451  0.3671
  484MOL0     C66677   9.421   2.705   7.832  0.9817  0.4102 -0.8182
  484MOL0     O66678   9.404   2.704   7.691 -0.3879  0.3873 -0.6894
  484MOL0     C66679   9.474   2.815   7.638 -1.0796 -0.6815  1.3458
  484MOL0     C66680   9.573   2.888   7.704 -0.4432 -0.6325  0.4756
  484MOL0     C66681   9.626   3.003   7.651 -0.0517  0.3705 -0.1275
  484MOL0     C66682   9.730   3.076   7.734  0.4270  0.8599  0.0609
  484MOL0     C66683   9.595   3.048   7.512  0.1918 -0.9161  0.3801
  484MOL0     C66684   9.653   3.176   7.445 -1.3962  0.6228  0.1469
  484MOL0     O66685   9.599   3.214   7.333  0.3933  0.1880 -0.1922
  484MOL0     C66686   9.631   3.333   7.270  0.1400  0.1443 -0.1302
  484MOL0     C66687   9.704   3.333   7.150 -0.2821  0.2188 -0.3451
  484MOL0     C66688   9.726   3.452   7.084 -0.3903 -0.4886 -0.4029
  484MOL0     C66689   9.686   3.578   7.144 -0.5582  0.0930 -0.1607
  484MOL0     O66690   9.691   3.692   7.078  0.1783 -1.0078 -0.0323
  484MOL0     C66691   9.634   3.812   7.125 -0.5848  0.6264  0.0769
  484MOL0     C66692   9.689   3.928   7.054  0.5748  0.3390 -0.3969
  484MOL0     C66693   9.606   4.052   7.087 -0.2092  0.5507  0.3284
  484MOL0     C66694   9.534   4.067   7.221  0.6746 -0.4017  0.2253
  484MOL0     C66695   9.496   4.215   7.242  1.1484 -0.0723  0.4553
  484MOL0     C66696   9.475   4.238   7.398 -0.0816  0.3670  0.2777
  484MOL0     C66697   9.430   4.385   7.407 -0.8566 -0.5042 -0.0356
  484MOL0     C66698   9.361   4.406   7.544  0.0745 -0.2173  0.1567
  484MOL0    Cl66699   9.469   4.365   7.679  0.2594  0.2351  1.0263
  484MOL0     C66700   9.622   3.568   7.271 -0.4013 -0.2373  0.3525
  484MOL0     C66701   9.598   3.450   7.326 -0.3331  0.7206 -0.0442
  484MOL0     O66702   9.740   3.240   7.503 -0.1849 -0.1283 -1.1200
  484MOL0     C66703   9.499   2.963   7.444  0.0359 -0.0693 -0.1647
  484MOL0     C66704   9.444   2.850   7.509  0.1908  0.6398 -0.3272
  484MOL0     N66705   9.348   2.171   8.063 -0.2707 -0.3354 -0.2427
  484MOL0     N66706   9.465   2.135   8.113  1.0259  0.3985  0.5904
  484MOL0     C66707  10.039   3.243   8.239  0.1361  0.0617  0.8720
  484MOL0     C66708   9.987   3.369   8.204  0.2088  0.1285 -0.6449
  484MOL0     C66709   9.783   3.711   8.014  0.3317 -0.6016  0.2418
  484MOL0     C66710   9.652   3.704   8.065 -1.1104 -0.6027  0.3165
  484MOL0     C66711   9.554   3.810   8.051  0.6485 -0.2285  0.0898
  484MOL0     C66712   9.589   3.927   7.986  0.0776 -0.9149 -0.1251
  484MOL0     O66713   9.517   4.041   7.963  0.8467  0.7350 -0.3024
  484MOL0     C66714   9.387   4.063   8.024 -0.5569 -0.0186  0.0583
  484MOL0     C66715   9.277   3.993   7.949 -0.5921 -0.7140  0.3478
  484MOL0     C66716   9.279   4.052   7.809  0.7097  0.4395  0.4376
  484MOL0     C66717   9.157   3.984   7.745  0.5642 -1.0395 -0.5591
  484MOL0     C66718   9.151   4.014   7.598  0.0952 -0.0810 -1.4301
  484MOL0     C66719   9.166   4.050   7.488  1.3046  0.1015 -0.4316
  484MOL0     C66720   9.708   3.929   7.919 -0.2472  0.9233 -0.2092
  484MOL0     C66721   9.810   3.822   7.933  0.1958 -0.0549 -0.1358
  484MOL0     C66722   9.933   3.837   7.852 -0.0652 -0.0742 -0.5522
  484MOL0     H66723   9.741   3.277   7.987  0.2921 -1.2568  0.3381
  484MOL0     H66724   9.848   3.039   8.064  2.9941  0.0748 -4.1533
  484MOL0     H66725   9.976   2.871   8.065 -2.0208 -1.6853  0.0629
  484MOL0     H66726   9.912   2.846   8.242  1.9449  0.4686  2.4732
  484MOL0     H66727  10.185   2.780   8.124 -1.3422  0.0702 -1.7572
  484MOL0     H66728  10.161   2.797   8.290 -0.3994 -1.0458  0.6638
  484MOL0     H66729  10.136   2.561   8.245  2.2582  1.7661 -0.6913
  484MOL0     H66730   9.979   2.620   8.287  1.6325  2.0671 -0.1571
  484MOL0     H66731   9.892   2.607   8.044 -0.3456  1.4650  2.4307
  484MOL0     H66732  10.062   2.601   7.992  1.1633 -2.4136  0.7668
  484MOL0     H66733  10.080   2.375   8.085 -1.9813 -1.6470 -0.2364
  484MOL0     H66734   9.965   2.384   7.959  0.3057 -0.9827  0.1680
  484MOL0     H66735   9.934   2.247   8.146  1.7157  1.2566 -0.4965
  484MOL0     H66736   9.920   2.392   8.266 -0.5306  0.1559 -0.0454
  484MOL0     H66737   9.753   2.364   8.022 -0.9272  0.5402  0.2545
  484MOL0     H66738   9.713   2.463   8.162 -2.5803 -0.7522  0.2493
  484MOL0     H66739   9.713   2.161   8.194 -0.4539  0.0529  0.1323
  484MOL0     H66740   9.632   2.287   8.288  1.6051  0.6734 -0.6023
  484MOL0     H66741   9.511   2.440   8.008  0.5553 -0.4376  0.2098
  484MOL0     H66742   9.173   2.384   7.979  0.9882  0.5599  0.8795
  484MOL0     H66743   9.217   2.282   7.838 -1.0538 -2.1791  1.6192
  484MOL0     H66744   9.398   2.450   7.771 -1.7861 -1.0495 -2.4384
  484MOL0     H66745   9.247   2.502   7.735  3.2218 -0.9678 -2.6506
  484MOL0     H66746   9.227   2.646   7.914 -0.2977  1.7141 -1.3790
  484MOL0     H66747   9.358   2.589   8.004 -1.4939  2.3353  0.9771
  484MOL0     H66748   9.400   2.806   7.869  1.6081 -0.0923  1.0380
  484MOL0     H66749   9.525   2.685   7.860  1.3600  0.2753 -2.2673
  484MOL0     H66750   9.603   2.864   7.805  1.0697 -2.0819 -0.2644
  484MOL0     H66751   9.735   3.043   7.838 -1.1029 -0.5835 -0.2881
  484MOL0     H66752   9.697   3.181   7.735 -3.9603 -0.2986 -1.5026
  484MOL0     H66753   9.829   3.047   7.696  0.4999  0.4609  0.5453
  484MOL0     H66754   9.748   3.241   7.112 -0.9985 -0.2770  0.0187
  484MOL0     H66755   9.774   3.460   6.987  2.7559 -0.2014  1.0301
  484MOL0     H66756   9.524   3.814   7.125 -0.6275 -0.1407 -1.5648
  484MOL0     H66757   9.669   3.821   7.228  0.7648  2.3858 -0.4935
  484MOL0     H66758   9.792   3.960   7.074  0.8503 -0.2809 -0.7904
  484MOL0     H66759   9.692   3.908   6.947 -2.5652  1.9163 -0.8861
  484MOL0     H66760   9.532   4.073   7.009  1.2631  2.3262 -0.6750
  484MOL0     H66761   9.676   4.135   7.072  0.6954  0.2049  2.2154
  484MOL0     H66762   9.611   4.034   7.291  4.7442  0.5081 -3.3514
  484MOL0     H66763   9.443   4.008   7.234 -2.4651  4.2957  2.1465
  484MOL0     H66764   9.569   4.288   7.207 -1.3564  2.0112 -0.6896
  484MOL0     H66765   9.408   4.249   7.187  1.3795  1.6946  1.0993
  484MOL0     H66766   9.568   4.226   7.454  0.0122  0.7210  0.1977
  484MOL0     H66767   9.412   4.158   7.438  3.6487 -2.5639  0.9363
  484MOL0     H66768   9.356   4.404   7.329 -1.8690 -0.8838  0.8078
  484MOL0     H66769   9.514   4.452   7.387 -1.4427  0.9603  2.0157
  484MOL0     H66770   9.269   4.348   7.552  0.0620 -0.0526  1.3356
  484MOL0     H66771   9.325   4.509   7.548  0.5515 -0.0339 -0.1521
  484MOL0     H66772   9.575   3.644   7.333 -0.9951  0.1145 -0.5230
  484MOL0     H66773   9.558   3.455   7.426 -1.6187  0.6907 -0.5330
  484MOL0     H66774   9.463   2.987   7.345 -1.2722  2.6266  0.8681
  484MOL0     H66775   9.368   2.792   7.458  0.8776 -1.6832  1.0839
  484MOL0     H66776  10.123   3.241   8.307  0.9739  1.1434 -0.0773
  484MOL0     H66777  10.039   3.461   8.229  1.4612 -0.4816 -0.9602
  484MOL0     H66778   9.607   3.620   8.116 -1.8107  0.0391  0.7897
  484MOL0     H66779   9.456   3.790   8.093 -1.3407  2.2838 -2.9716
  484MOL0     H66780   9.390   4.023   8.125 -2.4161 -0.4501 -0.0270
  484MOL0     H66781   9.363   4.170   8.026 -0.9654 -0.1230  0.8122
  484MOL0     H66782   9.187   4.028   8.002 -0.8110 -0.3307 -0.2709
  484MOL0     H66783   9.293   3.885   7.957  1.5417 -0.5203 -0.6054
  484MOL0     H66784   9.252   4.158   7.809  0.9496  0.5227 -1.2470
  484MOL0     H66785   9.369   4.024   7.754 -1.1192  0.3001 -2.7528
  484MOL0     H66786   9.063   4.022   7.786  0.7320 -0.1611 -0.9556
  484MOL0     H66787   9.163   3.876   7.760  1.7546 -0.9800 -0.5527
  484MOL0     H66788   9.180   4.085   7.387  1.9129  0.4066 -0.2485
  484MOL0     H66789   9.723   4.021   7.864 -1.0279  2.6560  2.3500
  484MOL0     H66790  10.016   3.868   7.916 -1.0423 -0.4878  0.9638
  484MOL0     H66791   9.963   3.749   7.794  0.9984  1.2873 -2.1645
  484MOL0     H66792   9.915   3.915   7.778  0.8469 -1.8593 -2.7884
  485MOL0     O66793   5.408   9.359   3.082 -0.4571  0.0996 -0.3358
  485MOL0     C66794   5.443   9.314   3.197  0.8169 -0.4427  0.0520
  485MOL0     O66795   5.558   9.341   3.264  0.2973  0.0293  0.0433
  485MOL0     C66796   5.659   9.405   3.207  0.1899 -0.4677  1.3100
  485MOL0     C66797   5.720   9.374   3.082 -0.8050  0.5089 -0.5341
  485MOL0     C66798   5.808   9.459   3.018 -0.1798  0.5394 -0.4397
  485MOL0     C66799   5.857   9.564   3.086 -0.7792  0.4675 -0.4828
  485MOL0     O66800   5.934   9.656   3.018  0.2020 -0.0753  0.1877
  485MOL0     C66801   6.064   9.618   2.975  0.6523 -0.6822  0.4805
  485MOL0     C66802   6.112   9.705   2.855  0.0309 -0.1708 -1.2980
  485MOL0     C66803   6.168   9.834   2.906  0.5135 -0.0679 -0.7207
  485MOL0     C66804   6.058   9.919   2.949 -1.2527  0.6461  0.3258
  485MOL0     C66805   6.086  10.067   2.936 -0.3907 -0.7438 -0.2452
  485MOL0     C66806   5.976  10.157   2.995 -0.2490  0.9324  0.3898
  485MOL0     C66807   6.003  10.302   2.977  0.1160 -1.3172  1.1054
  485MOL0     C66808   5.903  10.399   3.053 -0.0777  0.1008 -0.6532
  485MOL0     N66809   5.929  10.423   3.195 -0.4061  0.5571  0.6595
  485MOL0     C66810   5.876  10.355   3.299  0.3034  0.9495  0.2484
  485MOL0     C66811   5.939  10.396   3.410  0.2381 -0.1927 -0.1602
  485MOL0     C66812   5.899  10.346   3.550  0.0564  0.1591 -0.3290
  485MOL0     C66813   5.972  10.208   3.582  0.7867 -0.0264  0.5970
  485MOL0     C66814   5.941  10.174   3.732 -0.3428  0.3414 -0.0271
  485MOL0     C66815   5.795  10.132   3.771 -0.8151  0.1427  0.0183
  485MOL0     O66816   5.797  10.089   3.905 -0.4146  0.1486  0.7406
  485MOL0     C66817   5.824  10.175   3.999 -0.3784  0.2083 -0.4207
  485MOL0     C66818   5.894  10.143   4.112  0.4740 -0.0323 -0.4522
  485MOL0     C66819   5.939  10.229   4.211  0.2733 -0.5908 -0.1180
  485MOL0     C66820   6.027  10.174   4.314 -0.1536  0.2842  0.6330
  485MOL0     C66821   5.892  10.363   4.217 -0.7101 -0.8528 -0.1559
  485MOL0     C66822   5.920  10.463   4.326 -0.6278 -0.3195 -0.9213
  485MOL0     O66823   5.848  10.580   4.326 -0.2458  0.7187 -0.1365
  485MOL0     C66824   5.883  10.697   4.391  0.4011 -0.5740  0.2305
  485MOL0     C66825   5.775  10.773   4.437  0.3208  0.0565 -0.3272
  485MOL0     C66826   5.794  10.900   4.496 -0.6468  0.5540  0.4461
  485MOL0     C66827   5.926  10.951   4.504 -0.0941  0.5028  1.4129
  485MOL0     O66828   5.940  11.068   4.570 -0.4161 -0.9196 -0.5528
  485MOL0     C66829   6.064  11.105   4.633  0.1167  0.2146  0.1123
  485MOL0     C66830   6.074  11.227   4.708  0.4597 -0.5876  0.3851
  485MOL0     C66831   6.000  11.239   4.841  0.4189 -0.7002  0.0532
  485MOL0     C66832   6.062  11.141   4.952  0.0995 -0.2423  0.4687
  485MOL0     C66833   5.965  11.147   5.077 -0.3023 -0.5521 -0.6042
  485MOL0     C66834   6.027  11.095   5.208 -0.3626 -1.0510  0.3767
  485MOL0     C66835   6.070  11.207   5.302 -0.3645  0.3695 -0.3600
  485MOL0     C66836   5.948  11.277   5.368 -0.1567 -1.4676  0.0859
  485MOL0    Cl66837   5.879  11.172   5.486 -0.4637  0.1434  0.0186
  485MOL0     C66838   6.030  10.874   4.460  0.9840 -0.2305 -0.4273
  485MOL0     C66839   6.012  10.748   4.393  0.4677 -1.1142 -0.6495
  485MOL0     O66840   5.995  10.438   4.420 -1.1249 -0.2579  0.1716
  485MOL0     C66841   5.813  10.405   4.102 -1.8543  0.0786 -0.2403
  485MOL0     C66842   5.785  10.314   3.993 -0.3634 -0.3636  0.2070
  485MOL0     N66843   6.023  10.501   3.374  0.0967  0.0257  0.1963
  485MOL0     N66844   6.018  10.516   3.248  0.2530 -0.2065 -0.2278
  485MOL0     C66845   5.809   9.593   3.210 -0.5516  0.3795 -0.2644
  485MOL0     C66846   5.717   9.513   3.275  0.8012 -0.0861  0.0895
  485MOL0     C66847   5.325   9.238   3.267 -0.7746 -0.4523  0.5642
  485MOL0     C66848   5.220   9.193   3.190  0.3150 -0.4406  0.7035
  485MOL0     C66849   5.119   9.115   3.246 -0.0256  0.6613 -0.1906
  485MOL0     C66850   5.115   9.084   3.380 -0.0147  0.0784 -0.9469
  485MOL0     O66851   5.005   9.033   3.443  0.8375  0.0067  0.4220
  485MOL0     C66852   4.905   9.141   3.467 -0.4645  0.2185 -0.4317
  485MOL0     C66853   4.868   9.153   3.612 -0.1326 -0.8317 -1.3289
  485MOL0     C66854   4.772   9.045   3.640  0.5994  0.9111  0.5627
  485MOL0     C66855   4.750   9.048   3.792 -0.2333 -0.0103 -0.2217
  485MOL0     C66856   4.634   8.961   3.806  0.1185 -0.2931  0.1283
  485MOL0     C66857   4.533   8.891   3.826 -1.2105  0.3828  0.1139
  485MOL0     C66858   5.226   9.118   3.467 -0.0828  1.1647 -0.3129
  485MOL0     C66859   5.325   9.202   3.408 -0.4179 -0.0966 -0.6313
  485MOL0     C66860   5.440   9.233   3.508 -0.2807  0.0081  0.3477
  485MOL0     H66861   5.683   9.281   3.040 -1.0656 -0.6602  2.1035
  485MOL0     H66862   5.847   9.437   2.919 -1.4185 -3.7193 -0.1862
  485MOL0     H66863   6.055   9.514   2.942 -0.0830 -0.4641 -0.0339
  485MOL0     H66864   6.132   9.623   3.061 -0.7281 -1.0122  1.6354
  485MOL0     H66865   6.202   9.652   2.819  1.2870  1.6582 -0.9765
  485MOL0     H66866   6.045   9.711   2.769 -0.6129 -1.7684 -0.9448
  485MOL0     H66867   6.247   9.814   2.980 -1.0468  1.9468  1.6653
  485MOL0     H66868   6.212   9.879   2.817 -3.3362 -0.2836 -2.9397
  485MOL0     H66869   5.961   9.896   2.903 -0.4571 -0.5659 -0.8301
  485MOL0     H66870   6.041   9.908   3.056 -0.9760 -1.7642  0.1674
  485MOL0     H66871   6.102  10.085   2.829 -1.0291  2.4114  0.0949
  485MOL0     H66872   6.189  10.078   2.972 -0.1717  1.6572 -1.4341
  485MOL0     H66873   5.879  10.132   2.951  1.2773 -1.0046 -2.1849
  485MOL0     H66874   5.973  10.137   3.103 -1.7855 -1.3151  0.0071
  485MOL0     H66875   5.995  10.340   2.874  1.2491  1.6971  2.0320
  485MOL0     H66876   6.105  10.334   2.997  0.6549 -0.2463 -2.5524
  485MOL0     H66877   5.905  10.496   3.003  0.1617 -0.5589 -1.9477
  485MOL0     H66878   5.800  10.363   3.039 -0.2435 -0.3432  1.3687
  485MOL0     H66879   5.807  10.272   3.289  1.6383 -0.0592 -0.9974
  485MOL0     H66880   5.792  10.337   3.570  0.5560 -0.4293  2.5018
  485MOL0     H66881   5.934  10.425   3.617 -0.7457 -0.0362  0.3327
  485MOL0     H66882   5.926  10.125   3.527 -0.3583  2.2817 -2.1443
  485MOL0     H66883   6.080  10.216   3.565  1.0434 -1.5592  1.2988
  485MOL0     H66884   5.993  10.081   3.757 -3.7279 -1.2801  1.7449
  485MOL0     H66885   5.971  10.255   3.799  1.0560 -0.7751  0.7558
  485MOL0     H66886   5.724  10.210   3.743 -1.9393 -1.3453 -1.4952
  485MOL0     H66887   5.769  10.051   3.702 -0.8355  1.1339 -1.1769
  485MOL0     H66888   5.939  10.044   4.112  1.3594  0.3446  0.6907
  485MOL0     H66889   6.115  10.238   4.322 -1.7927  3.2818 -2.6802
  485MOL0     H66890   6.054  10.073   4.286  1.1814  0.9906 -0.7271
  485MOL0     H66891   5.982  10.165   4.414  0.8664  0.7733  1.1580
  485MOL0     H66892   5.673  10.735   4.427  0.6283 -0.3010 -2.9734
  485MOL0     H66893   5.709  10.949   4.544 -1.4867 -0.0614 -0.3854
  485MOL0     H66894   6.095  11.016   4.689  1.9971  0.3459 -0.6453
  485MOL0     H66895   6.145  11.110   4.559  0.1864 -4.7465 -0.4546
  485MOL0     H66896   6.177  11.258   4.730 -0.4842  1.6635  2.0251
  485MOL0     H66897   6.024  11.295   4.639 -1.6562 -2.5546 -0.1400
  485MOL0     H66898   5.895  11.213   4.832  1.1220 -2.9683 -3.7286
  485MOL0     H66899   6.020  11.342   4.874 -1.5189 -1.0081  2.5119
  485MOL0     H66900   6.158  11.185   4.981  0.0456  1.3851 -1.5629
  485MOL0     H66901   6.068  11.037   4.916 -1.0861 -0.2781  0.3581
  485MOL0     H66902   5.924  11.248   5.089  0.2004 -0.5548  1.8586
  485MOL0     H66903   5.887  11.078   5.045  1.9427 -3.8261  0.5325
  485MOL0     H66904   6.106  11.022   5.187  0.0548 -0.0787 -1.7952
  485MOL0     H66905   5.957  11.038   5.269 -1.2687  1.2430  1.5912
  485MOL0     H66906   6.124  11.286   5.248  3.5956  0.3474  3.0833
  485MOL0     H66907   6.143  11.174   5.376 -0.2359  0.0388 -0.6352
  485MOL0     H66908   5.873  11.290   5.290 -1.6689 -2.2988  1.3473
  485MOL0     H66909   5.969  11.377   5.408 -2.4681 -0.6900 -0.5193
  485MOL0     H66910   6.133  10.908   4.472  0.4058  1.0209  1.4749
  485MOL0     H66911   6.099  10.693   4.358  1.1574  0.0961 -0.8867
  485MOL0     H66912   5.767  10.503   4.096 -0.9954  0.5349  0.3161
  485MOL0     H66913   5.722  10.350   3.912 -0.9356 -0.2319  0.7108
  485MOL0     H66914   5.863   9.672   3.262 -0.6069 -1.1077  2.1798
  485MOL0     H66915   5.679   9.543   3.372  0.6580  4.3990 -1.1182
  485MOL0     H66916   5.204   9.226   3.087 -1.0088  2.3209  1.6884
  485MOL0     H66917   5.039   9.089   3.179  0.5480  2.1161 -1.5084
  485MOL0     H66918   4.938   9.242   3.440 -2.0889  1.5264  2.1007
  485MOL0     H66919   4.806   9.111   3.429 -2.7322  0.5988  4.4321
  485MOL0     H66920   4.818   9.249   3.621 -0.5999 -1.0073 -1.9398
  485MOL0     H66921   4.961   9.145   3.669  0.5651 -1.5069 -2.5112
  485MOL0     H66922   4.682   9.063   3.580  0.9053  2.8810  0.6361
  485MOL0     H66923   4.819   8.950   3.611  0.4315  0.6176  1.2427
  485MOL0     H66924   4.729   9.147   3.832 -0.4278  1.3787 -3.4614
  485MOL0     H66925   4.828   9.001   3.853 -0.3563  0.9765  0.7146
  485MOL0     H66926   4.451   8.826   3.853 -1.0132 -0.0701 -0.3557
  485MOL0     H66927   5.228   9.069   3.564  0.6390 -0.6698 -1.2147
  485MOL0     H66928   5.424   9.168   3.595 -0.8649  0.0874  0.3052
  485MOL0     H66929   5.537   9.204   3.468 -0.2824  0.5249 -0.0323
  485MOL0     H66930   5.452   9.334   3.549  0.8779  0.2219 -0.4907
  486MOL0     O66931   9.445   2.210   9.489  0.0857 -0.5283  0.3418
  486MOL0     C66932   9.532   2.295   9.470 -0.1676  0.4513  1.0535
  486MOL0     O66933   9.628   2.283   9.369  0.2724 -0.3755  0.1644
  486MOL0     C66934   9.613   2.177   9.287  1.0062  0.9150  0.4349
  486MOL0     C66935   9.645   2.044   9.321  0.5149  0.7854 -0.5252
  486MOL0     C66936   9.641   1.945   9.222 -0.6537  0.7529  0.3751
  486MOL0     C66937   9.602   1.974   9.088  0.0433 -0.4254 -1.3822
  486MOL0     O66938   9.606   1.883   8.988 -1.1228  0.8677  0.0574
  486MOL0     C66939   9.722   1.792   8.977  0.1009  0.1144  0.5642
  486MOL0     C66940   9.839   1.862   8.914 -0.7028 -0.5562 -0.1438
  486MOL0     C66941   9.976   1.848   8.991 -0.1681  0.2124 -0.4515
  486MOL0     C66942  10.018   1.955   9.088 -0.4373 -0.0605 -0.6624
  486MOL0     C66943  10.110   1.921   9.210  0.5962  0.0666  1.1889
  486MOL0     C66944  10.134   2.041   9.305  0.0074 -0.6965  0.1201
  486MOL0     C66945  10.202   2.005   9.427  0.2031  0.8715 -0.3086
  486MOL0     C66946  10.201   2.112   9.523  0.4369 -0.6696 -0.4584
  486MOL0     N66947  10.058   2.154   9.564  0.7780 -1.0919  0.3821
  486MOL0     C66948   9.979   2.094   9.653 -0.3664  0.6635  0.3829
  486MOL0     C66949   9.859   2.162   9.660 -0.1800  0.7143  1.0395
  486MOL0     C66950   9.733   2.132   9.730  0.9830 -1.4896  0.0252
  486MOL0     C66951   9.742   2.028   9.844  0.5808  0.2923 -0.1436
  486MOL0     C66952   9.601   1.992   9.897 -0.4937 -0.0640  0.4524
  486MOL0     C66953   9.612   1.875   9.992  0.8608  1.7704 -0.5463
  486MOL0     O66954   9.691   1.914  10.097  0.0117 -0.3294  1.1326
  486MOL0     C66955   9.653   2.000  10.207  0.0101  0.1736 -0.0558
  486MOL0     C66956   9.760   2.053  10.268 -0.2131 -0.0514 -0.2944
  486MOL0     C66957   9.749   2.143  10.377 -0.4150  0.1509 -0.4487
  486MOL0     C66958   9.875   2.206  10.424 -0.6009 -0.5449  0.8934
  486MOL0     C66959   9.617   2.172  10.417 -0.4371 -0.1588 -0.2854
  486MOL0     C66960   9.592   2.245  10.546 -0.2828  1.2554 -0.7468
  486MOL0     O66961   9.467   2.302  10.561 -0.5626  0.1721 -0.0551
  486MOL0     C66962   9.459   2.389  10.670  0.2742 -0.2687 -0.5274
  486MOL0     C66963   9.550   2.489  10.675  0.5617 -0.9723  0.4365
  486MOL0     C66964   9.520   2.596  10.752 -0.2519  0.7944 -0.7692
  486MOL0     C66965   9.410   2.612  10.829  0.9503 -0.6193 -0.4307
  486MOL0     O66966   9.407   2.728  10.891 -0.4231 -0.3689  0.4228
  486MOL0     C66967   9.295   2.764  10.968  0.0727  0.0629  0.6093
  486MOL0     C66968   9.314   2.902  11.034 -0.2794 -0.8848  0.4275
  486MOL0     C66969   9.222   2.952  11.133  0.8797 -0.0411 -0.3082
  486MOL0     C66970   9.073   2.945  11.079 -0.2471 -0.4002  0.2153
  486MOL0     C66971   8.983   3.042  11.165 -0.4912  1.1620 -0.0880
  486MOL0     C66972   8.837   2.996  11.178 -0.1241  0.7952 -0.1507
  486MOL0     C66973   8.752   3.072  11.278 -0.2290  0.3069 -0.3562
  486MOL0     C66974   8.749   3.228  11.260 -0.2241  0.4700 -0.3932
  486MOL0    Cl66975   8.646   3.262  11.112 -0.7782 -0.2252 -0.3211
  486MOL0     C66976   9.308   2.508  10.824 -0.2188 -0.7981 -0.8884
  486MOL0     C66977   9.342   2.402  10.745  0.8776 -0.2178  0.7927
  486MOL0     O66978   9.683   2.252  10.628 -0.1190  0.1320 -0.6636
  486MOL0     C66979   9.510   2.110  10.352 -0.5390 -1.0008 -0.0243
  486MOL0     C66980   9.525   2.029  10.240 -0.4024  0.3920 -0.4458
  486MOL0     N66981   9.871   2.270   9.588  0.4443 -0.4082  0.8162
  486MOL0     N66982   9.983   2.261   9.521 -0.3958 -0.6089  0.4188
  486MOL0     C66983   9.552   2.100   9.062  1.3661  0.8262 -0.6163
  486MOL0     C66984   9.559   2.202   9.159  0.3934  0.4096 -0.8250
  486MOL0     C66985   9.523   2.421   9.543  0.6133  1.6168 -0.0182
  486MOL0     C66986   9.563   2.537   9.486 -0.2533 -0.6193 -0.2459
  486MOL0     C66987   9.553   2.661   9.559  0.2716  0.2188  0.4622
  486MOL0     C66988   9.490   2.668   9.682  0.0014 -0.1391  0.1336
  486MOL0     O66989   9.485   2.788   9.742 -0.3122  0.2965  0.1840
  486MOL0     C66990   9.551   2.800   9.875 -0.7888 -0.0448 -0.3503
  486MOL0     C66991   9.702   2.774   9.873  0.7685  0.7561  0.2944
  486MOL0     C66992   9.804   2.867   9.805 -0.6256  0.6260  0.6005
  486MOL0     C66993   9.943   2.810   9.815  0.1120  0.5687 -0.0310
  486MOL0     C66994   9.930   2.689   9.732  0.3067 -0.4027 -0.4425
  486MOL0     C66995   9.931   2.590   9.662  0.8165  0.4950  0.5071
  486MOL0     C66996   9.439   2.558   9.741  0.7631  0.8002  0.1985
  486MOL0     C66997   9.455   2.427   9.673 -0.5658 -0.9225  0.2307
  486MOL0     C66998   9.422   2.303   9.755  0.3069  0.1217 -0.9047
  486MOL0     H66999   9.684   2.033   9.422 -1.3535  2.0672  0.3983
  486MOL0     H67000   9.660   1.840   9.245 -3.3216  0.4942  1.6889
  486MOL0     H67001   9.704   1.708   8.909 -1.1177  2.7436 -2.6068
  486MOL0     H67002   9.745   1.741   9.071 -0.0147 -2.2483 -0.6162
  486MOL0     H67003   9.848   1.841   8.807  0.9402 -3.1730  0.4046
  486MOL0     H67004   9.822   1.970   8.916 -0.1744 -0.4775  1.1459
  486MOL0     H67005   9.972   1.754   9.046  2.3062  0.6569  0.6378
  486MOL0     H67006  10.050   1.843   8.910 -3.6261 -0.8015 -3.8430
  486MOL0     H67007  10.070   2.033   9.032 -0.6771  1.8825  1.6504
  486MOL0     H67008   9.930   2.008   9.124  0.1077  0.2132  0.2954
  486MOL0     H67009  10.206   1.884   9.173  0.8572  0.7442  1.1721
  486MOL0     H67010  10.058   1.847   9.272 -1.6626  0.0706 -0.5620
  486MOL0     H67011  10.191   2.111   9.243  1.0300 -3.0945 -1.8190
  486MOL0     H67012  10.036   2.082   9.331  0.6240  1.2805 -0.5566
  486MOL0     H67013  10.307   1.982   9.407 -0.1162 -1.3619  0.2545
  486MOL0     H67014  10.157   1.917   9.474  1.1782  0.3908 -0.2345
  486MOL0     H67015  10.263   2.083   9.608 -0.1350  1.2614  0.6942
  486MOL0     H67016  10.247   2.205   9.488  2.8842 -0.8052  2.0400
  486MOL0     H67017  10.014   2.007   9.706  1.8542  0.9255 -0.5578
  486MOL0     H67018   9.654   2.098   9.662  0.6304 -1.8567  0.6090
  486MOL0     H67019   9.692   2.228   9.763  2.2549 -0.8764 -0.1092
  486MOL0     H67020   9.795   1.938   9.811  1.7418  1.0236 -0.3355
  486MOL0     H67021   9.810   2.064   9.921  0.7408  1.2475 -0.7165
  486MOL0     H67022   9.573   2.077   9.960  1.6261 -0.1296  1.5895
  486MOL0     H67023   9.535   1.979   9.811 -0.6497  0.0043  0.5629
  486MOL0     H67024   9.513   1.846  10.026  0.6926  1.5017 -1.2608
  486MOL0     H67025   9.662   1.799   9.932  1.5841  2.6775 -1.1319
  486MOL0     H67026   9.856   2.024  10.228 -0.3942 -2.2458  0.7289
  486MOL0     H67027   9.926   2.231  10.329  0.7499 -3.0196  0.8988
  486MOL0     H67028   9.937   2.134  10.478  2.0921  0.6984 -0.3499
  486MOL0     H67029   9.863   2.296  10.485  0.3154  1.8347 -2.1636
  486MOL0     H67030   9.640   2.498  10.616  0.5616  0.6186  0.6346
  486MOL0     H67031   9.590   2.679  10.739  1.5172 -0.5181 -0.0734
  486MOL0     H67032   9.204   2.773  10.907  0.0994  1.5479  0.7580
  486MOL0     H67033   9.285   2.694  11.052  0.0888  0.3020  0.8101
  486MOL0     H67034   9.410   2.896  11.086 -0.1931  1.0879  0.5757
  486MOL0     H67035   9.323   2.978  10.955 -1.2385  1.8703  2.7926
  486MOL0     H67036   9.245   3.057  11.153 -0.4980 -0.0395  1.5209
  486MOL0     H67037   9.242   2.900  11.227 -0.1389  1.2533  0.6628
  486MOL0     H67038   9.031   2.846  11.095 -0.3372 -0.2007  1.3273
  486MOL0     H67039   9.055   2.971  10.974  4.0911 -1.0039 -0.8453
  486MOL0     H67040   9.021   3.050  11.267 -0.3294 -1.8033  0.1724
  486MOL0     H67041   8.987   3.143  11.124  3.0088  0.6944 -1.2334
  486MOL0     H67042   8.846   2.895  11.217 -2.8319  0.8070  0.7141
  486MOL0     H67043   8.784   3.012  11.084  0.7731 -1.3816 -1.0902
  486MOL0     H67044   8.775   3.041  11.381 -1.0451 -0.2124 -0.3167
  486MOL0     H67045   8.650   3.037  11.262  0.1139 -1.0848  0.2789
  486MOL0     H67046   8.856   3.249  11.255 -0.0238 -0.2179  0.6687
  486MOL0     H67047   8.705   3.268  11.352  1.9005 -1.9591  1.8380
  486MOL0     H67048   9.216   2.529  10.878 -0.1721  5.0820 -2.3963
  486MOL0     H67049   9.271   2.320  10.742 -0.5936  1.0070 -0.6056
  486MOL0     H67050   9.412   2.134  10.393 -0.4701 -2.0096  0.7853
  486MOL0     H67051   9.446   1.968  10.196  0.0683 -1.6031  1.3201
  486MOL0     H67052   9.520   2.114   8.959  1.1913  1.4902 -0.4716
  486MOL0     H67053   9.526   2.304   9.139 -0.5799  1.2456  3.8167
  486MOL0     H67054   9.606   2.546   9.387 -1.9818  0.9171 -0.9317
  486MOL0     H67055   9.607   2.747   9.520  2.0743 -0.5668  1.1342
  486MOL0     H67056   9.530   2.899   9.915  3.6064  0.6446  0.7618
  486MOL0     H67057   9.517   2.724   9.946  0.7141 -0.2718  0.1693
  486MOL0     H67058   9.715   2.671   9.837  0.0003 -0.6407  3.6410
  486MOL0     H67059   9.725   2.773   9.980 -0.5772  0.5685  0.6007
  486MOL0     H67060   9.786   2.891   9.700  0.7170 -2.0827 -0.3601
  486MOL0     H67061   9.804   2.965   9.854 -0.4177  1.3503 -0.7904
  486MOL0     H67062   9.959   2.808   9.923 -0.2482 -1.1886  0.0252
  486MOL0     H67063  10.016   2.875   9.767  0.3103  0.0908 -0.3896
  486MOL0     H67064   9.936   2.506   9.596  1.5149  0.3446  0.7435
  486MOL0     H67065   9.389   2.571   9.836  1.2351  1.9096  0.3020
  486MOL0     H67066   9.499   2.293   9.831 -1.0365  0.8605  0.6161
  486MOL0     H67067   9.330   2.332   9.808 -0.0030 -1.4899 -0.5100
  486MOL0     H67068   9.400   2.208   9.705  0.7575 -0.8288  0.6731
  487MOL0     O67069   2.248   5.598   2.363  0.0301 -0.0329  0.2177
  487MOL0     C67070   2.235   5.554   2.250 -0.4952 -0.5236 -0.7129
  487MOL0     O67071   2.336   5.485   2.183  0.3222 -0.7236 -0.0171
  487MOL0     C67072   2.456   5.500   2.243 -0.2027 -0.2163  0.3350
  487MOL0     C67073   2.561   5.572   2.186  0.0279  0.0622  0.1834
  487MOL0     C67074   2.684   5.598   2.252  0.1751  0.3041  0.3654
  487MOL0     C67075   2.705   5.534   2.371 -0.1648  0.3276 -0.1910
  487MOL0     O67076   2.826   5.526   2.437 -0.3512 -0.3095  0.4548
  487MOL0     C67077   2.899   5.657   2.446  0.3322  0.2681  1.1455
  487MOL0     C67078   3.001   5.656   2.557  0.1683 -0.2963  0.6495
  487MOL0     C67079   3.127   5.585   2.507  0.2609  0.4880 -0.5359
  487MOL0     C67080   3.222   5.556   2.635 -0.9007 -0.1194 -1.0917
  487MOL0     C67081   3.157   5.469   2.752 -0.3643  0.2925 -0.6657
  487MOL0     C67082   3.253   5.409   2.858  0.3614  0.1986  0.2854
  487MOL0     C67083   3.185   5.331   2.961 -0.9255  0.8844  0.1410
  487MOL0     C67084   3.168   5.182   2.911  0.2072 -0.6405  0.5377
  487MOL0     N67085   3.277   5.088   2.943  0.1861  0.1530  0.0928
  487MOL0     C67086   3.264   5.001   3.046 -0.0179 -1.3236 -0.1150
  487MOL0     C67087   3.381   4.944   3.047  0.6747  0.5975 -0.1526
  487MOL0     C67088   3.428   4.831   3.142 -0.7231 -0.1438  0.3671
  487MOL0     C67089   3.446   4.696   3.065 -0.5406  1.0297  0.3074
  487MOL0     C67090   3.402   4.569   3.137  0.8805  0.6468 -0.7458
  487MOL0     C67091   3.458   4.450   3.056  0.3420  1.3322 -0.0789
  487MOL0     O67092   3.379   4.339   3.102 -0.4922  0.7676 -0.7683
  487MOL0     C67093   3.424   4.206   3.089  1.1453  0.0642  0.4913
  487MOL0     C67094   3.559   4.158   3.114  0.6654  0.1330 -0.6214
  487MOL0     C67095   3.601   4.022   3.102  0.0503  0.2147 -0.3062
  487MOL0     C67096   3.745   3.987   3.126 -0.3542 -0.5470  0.4986
  487MOL0     C67097   3.500   3.926   3.059 -0.6044 -0.1150  0.2611
  487MOL0     C67098   3.518   3.780   3.053 -0.3812 -0.1580  0.5433
  487MOL0     O67099   3.427   3.701   2.994  0.0470  0.0699  0.0923
  487MOL0     C67100   3.458   3.573   2.963 -0.7123  0.1618 -0.5387
  487MOL0     C67101   3.364   3.466   2.993  0.0399 -0.3541  0.1046
  487MOL0     C67102   3.386   3.335   2.947 -0.5370 -0.0761  0.1468
  487MOL0     C67103   3.506   3.304   2.882 -0.3880 -0.3490 -0.1156
  487MOL0     O67104   3.533   3.179   2.836  0.6916 -0.4214 -0.5331
  487MOL0     C67105   3.462   3.142   2.713 -0.2767  0.5035 -0.3537
  487MOL0     C67106   3.398   3.007   2.728 -0.1291 -0.4600  0.5023
  487MOL0     C67107   3.502   2.896   2.733  0.7665  0.4037  0.6997
  487MOL0     C67108   3.601   2.888   2.610 -0.8168 -0.4985  0.3394
  487MOL0     C67109   3.529   2.877   2.470  0.4487 -0.1523 -0.1506
  487MOL0     C67110   3.628   2.835   2.363 -0.4392 -0.1057 -1.1283
  487MOL0     C67111   3.550   2.790   2.239 -0.7353  0.4224  0.3312
  487MOL0     C67112   3.643   2.728   2.135  0.5486 -0.1808 -0.1866
  487MOL0    Cl67113   3.747   2.836   2.059 -0.3111 -0.4214  0.1018
  487MOL0     C67114   3.603   3.398   2.873 -0.0322 -0.7675 -0.4574
  487MOL0     C67115   3.580   3.530   2.901  0.3228  0.2312  0.1497
  487MOL0     O67116   3.621   3.740   3.104 -0.3064 -0.3018 -0.4088
  487MOL0     C67117   3.372   3.965   3.026 -0.6176  0.7849 -0.3970
  487MOL0     C67118   3.334   4.106   3.034 -0.2122  0.2726  0.0736
  487MOL0     N67119   3.456   4.998   2.946 -0.1828 -0.0386  0.2084
  487MOL0     N67120   3.395   5.088   2.880  0.5013 -0.0030 -0.3196
  487MOL0     C67121   2.606   5.458   2.425  1.2812 -0.4817 -0.5529
  487MOL0     C67122   2.481   5.433   2.365 -0.0908 -0.0803 -0.3471
  487MOL0     C67123   2.110   5.569   2.181 -0.6893 -0.1524  0.3313
  487MOL0     C67124   2.106   5.521   2.046 -0.2406  0.0453  0.1814
  487MOL0     C67125   2.006   5.558   1.966  0.7959  0.5287 -0.5478
  487MOL0     C67126   1.905   5.638   2.018  0.3816 -0.0670 -0.7082
  487MOL0     O67127   1.817   5.684   1.924  0.2679  0.1265  0.3531
  487MOL0     C67128   1.714   5.774   1.956 -1.0692 -0.1301  0.5579
  487MOL0     C67129   1.655   5.835   1.820  0.0350 -0.2865  0.2549
  487MOL0     C67130   1.769   5.912   1.737  0.0867 -0.3327  0.0586
  487MOL0     C67131   1.842   5.821   1.639  0.0279 -0.1338 -0.6834
  487MOL0     C67132   1.747   5.781   1.528  0.2020 -0.1380  0.0613
  487MOL0     C67133   1.675   5.748   1.435  0.1515 -0.1249 -0.1723
  487MOL0     C67134   1.893   5.673   2.152 -0.5591  0.1577  0.0732
  487MOL0     C67135   2.000   5.645   2.236 -0.5306 -0.6912 -0.3065
  487MOL0     C67136   1.994   5.705   2.374 -0.3076 -0.0635 -0.7578
  487MOL0     H67137   2.532   5.613   2.089 -0.8916 -1.4398 -0.1925
  487MOL0     H67138   2.756   5.648   2.188  0.3236 -1.2747 -0.7434
  487MOL0     H67139   2.828   5.738   2.464 -0.3855  0.0897 -0.6155
  487MOL0     H67140   2.945   5.676   2.348 -0.1396 -0.9243  0.6714
  487MOL0     H67141   3.027   5.762   2.568  2.9712 -1.0779  2.5352
  487MOL0     H67142   2.961   5.613   2.649  2.1561 -1.0024  1.2166
  487MOL0     H67143   3.097   5.489   2.465  1.1101 -0.2953  0.5816
  487MOL0     H67144   3.175   5.637   2.423  3.4809  0.5688  1.1867
  487MOL0     H67145   3.309   5.499   2.602 -0.4536  0.0331 -0.1957
  487MOL0     H67146   3.252   5.652   2.677 -1.5446 -0.8949  1.3018
  487MOL0     H67147   3.106   5.382   2.710 -1.8372  1.5627 -1.5873
  487MOL0     H67148   3.084   5.531   2.805 -0.5550  1.8285 -2.6317
  487MOL0     H67149   3.341   5.359   2.816  2.7569  2.2552  2.4285
  487MOL0     H67150   3.291   5.499   2.908 -0.0770  0.9798 -0.7370
  487MOL0     H67151   3.088   5.375   2.987 -0.1558  0.5027  4.6330
  487MOL0     H67152   3.251   5.313   3.047 -2.8167 -2.0254  1.1262
  487MOL0     H67153   3.075   5.148   2.956  0.1718  0.2295  1.1518
  487MOL0     H67154   3.156   5.179   2.802 -3.0742 -1.1753  0.8112
  487MOL0     H67155   3.177   4.982   3.108 -1.1080 -1.4706 -1.6345
  487MOL0     H67156   3.364   4.819   3.230  2.2278 -0.8787  2.6022
  487MOL0     H67157   3.529   4.850   3.181 -0.2137 -2.4696  0.3547
  487MOL0     H67158   3.382   4.707   2.977  0.0537  2.6342  0.0439
  487MOL0     H67159   3.551   4.675   3.040 -0.8606 -0.9645  0.4691
  487MOL0     H67160   3.453   4.566   3.234  0.4992  0.6046 -0.5442
  487MOL0     H67161   3.294   4.567   3.157  1.0688 -0.7012  0.2854
  487MOL0     H67162   3.420   4.466   2.954 -6.1786 -1.3404  1.4091
  487MOL0     H67163   3.565   4.437   3.072 -0.1286 -1.1441  1.4354
  487MOL0     H67164   3.630   4.233   3.148 -1.4170  0.6764  3.1019
  487MOL0     H67165   3.777   3.919   3.046  1.7431  1.0314 -0.1058
  487MOL0     H67166   3.760   3.939   3.224  1.3626  0.4620  0.7835
  487MOL0     H67167   3.802   4.079   3.112 -1.4272 -0.3267 -3.2986
  487MOL0     H67168   3.271   3.489   3.044 -0.2165 -2.6977  0.8083
  487MOL0     H67169   3.314   3.257   2.967  0.5280 -0.9291  0.8004
  487MOL0     H67170   3.380   3.213   2.697 -1.3956 -0.6173  0.2256
  487MOL0     H67171   3.531   3.131   2.629 -1.3982 -1.2807 -1.0977
  487MOL0     H67172   3.333   3.014   2.817 -0.2416  1.9007  0.2911
  487MOL0     H67173   3.328   2.984   2.647 -1.8417 -0.8460  2.0055
  487MOL0     H67174   3.453   2.798   2.726  1.4588 -0.0109  1.3540
  487MOL0     H67175   3.559   2.897   2.827  1.0048  1.0020  0.5500
  487MOL0     H67176   3.669   2.805   2.632 -0.1453 -0.1283 -0.3094
  487MOL0     H67177   3.663   2.978   2.614  0.8236 -1.6191  0.7358
  487MOL0     H67178   3.455   2.798   2.486  1.3803 -1.5239 -2.2419
  487MOL0     H67179   3.465   2.962   2.442 -0.1298 -1.0540 -1.6980
  487MOL0     H67180   3.690   2.753   2.399 -2.8050 -0.9852  1.3232
  487MOL0     H67181   3.707   2.909   2.346  1.9053 -1.4946  2.4939
  487MOL0     H67182   3.504   2.878   2.193  1.4250  0.8533 -1.1548
  487MOL0     H67183   3.472   2.716   2.254 -0.2327 -0.6093 -1.7959
  487MOL0     H67184   3.575   2.703   2.053  0.5303  1.9277 -0.8625
  487MOL0     H67185   3.694   2.648   2.190  4.6853  4.6265  4.0504
  487MOL0     H67186   3.691   3.359   2.822 -0.9487  1.0032 -3.6763
  487MOL0     H67187   3.654   3.609   2.888  1.0496 -0.2852  1.0958
  487MOL0     H67188   3.298   3.894   2.990  1.1043 -0.5948 -1.3632
  487MOL0     H67189   3.236   4.141   3.002  0.8193  3.8007  0.3359
  487MOL0     H67190   2.631   5.397   2.512  0.0345 -2.0144 -1.2165
  487MOL0     H67191   2.412   5.371   2.420  2.1145 -1.9641  0.4228
  487MOL0     H67192   2.179   5.464   1.990  1.0960  1.3705  0.4856
  487MOL0     H67193   2.011   5.536   1.860  3.4454 -1.2684 -0.1596
  487MOL0     H67194   1.646   5.713   2.015  0.2396 -2.0537  0.2005
  487MOL0     H67195   1.746   5.852   2.025 -0.0736  0.2782 -0.3372
  487MOL0     H67196   1.569   5.892   1.857 -1.1521 -1.5186 -0.5252
  487MOL0     H67197   1.610   5.757   1.758 -0.2533  0.2316 -0.1883
  487MOL0     H67198   1.724   6.000   1.688 -2.7093 -1.6993 -0.0258
  487MOL0     H67199   1.843   5.954   1.806  0.0959  2.5711 -1.5217
  487MOL0     H67200   1.897   5.741   1.690  0.3830  0.0114 -0.8339
  487MOL0     H67201   1.914   5.888   1.592 -1.3252  0.9368 -1.2801
  487MOL0     H67202   1.633   5.724   1.340  1.4992 -2.6543 -0.2013
  487MOL0     H67203   1.813   5.730   2.197  0.4780 -0.4877  2.9577
  487MOL0     H67204   1.899   5.760   2.373 -0.4604 -0.3303 -0.9459
  487MOL0     H67205   1.984   5.640   2.462 -1.3392  2.0790  0.8136
  487MOL0     H67206   2.070   5.781   2.392  0.2094 -0.8352  0.4278
  488MOL0     O67207   1.776   0.067   2.979 -0.5452  0.3278 -0.1194
  488MOL0     C67208   1.762  -0.027   2.911 -0.3696  0.2074  0.8120
  488MOL0     O67209   1.858  -0.089   2.832  0.0481 -0.3035 -0.0128
  488MOL0     C67210   1.982  -0.032   2.847 -0.6032  0.1740  0.1798
  488MOL0     C67211   2.088  -0.109   2.893  0.5001  0.0450  0.1443
  488MOL0     C67212   2.223  -0.062   2.906  0.6087  0.6979  0.8216
  488MOL0     C67213   2.252   0.071   2.883  0.8645  0.0642 -0.0624
  488MOL0     O67214   2.380   0.103   2.910 -1.0764  0.2297 -0.4294
  488MOL0     C67215   2.430   0.235   2.865  0.2093 -0.0451 -0.1431
  488MOL0     C67216   2.399   0.338   2.968  0.1883  0.8382  0.2259
  488MOL0     C67217   2.436   0.486   2.918 -0.3965  0.0942  0.4477
  488MOL0     C67218   2.569   0.554   2.979 -0.4053 -0.0513  0.7629
  488MOL0     C67219   2.588   0.690   2.914  0.2565 -0.2818 -0.3248
  488MOL0     C67220   2.703   0.770   2.959  0.0872 -0.6117  0.5098
  488MOL0     C67221   2.709   0.918   2.912 -0.0630 -1.0074  0.2391
  488MOL0     C67222   2.827   1.004   2.963 -1.0432 -0.2358  0.3465
  488MOL0     N67223   2.954   0.979   2.899  0.5203 -0.2587 -0.5252
  488MOL0     C67224   3.069   0.938   2.960  0.8379 -0.0865  0.1371
  488MOL0     C67225   3.165   0.961   2.869  0.0637  0.4894 -0.0908
  488MOL0     C67226   3.315   0.944   2.895 -0.5421  0.1640  0.4685
  488MOL0     C67227   3.342   0.810   2.847 -0.6531 -0.1994  1.0999
  488MOL0     C67228   3.346   0.800   2.689  0.8252 -0.2402 -0.0104
  488MOL0     C67229   3.398   0.672   2.628 -0.2266 -0.5359  0.4232
  488MOL0     O67230   3.541   0.657   2.660  0.5370 -0.1899 -0.4679
  488MOL0     C67231   3.629   0.696   2.559 -0.1669 -0.6918  0.1278
  488MOL0     C67232   3.749   0.613   2.552  1.3653 -0.2255  0.6894
  488MOL0     C67233   3.854   0.656   2.467  0.2162 -0.4375 -0.4488
  488MOL0     C67234   3.980   0.577   2.468  0.4395 -0.1088  0.4225
  488MOL0     C67235   3.841   0.775   2.381 -0.2166 -0.5807 -0.0781
  488MOL0     C67236   3.943   0.826   2.286 -0.9893 -0.5366 -0.7788
  488MOL0     O67237   4.076   0.798   2.307 -0.0336  0.7125  0.1516
  488MOL0     C67238   4.182   0.859   2.247  0.1375  0.8094  0.3509
  488MOL0     C67239   4.305   0.849   2.309  0.0563 -0.5346 -0.0084
  488MOL0     C67240   4.416   0.927   2.261  0.8285 -0.0530  0.1625
  488MOL0     C67241   4.407   1.004   2.143  0.2241 -0.4342  0.8494
  488MOL0     O67242   4.528   1.066   2.101  0.4983 -0.6267 -0.5991
  488MOL0     C67243   4.521   1.175   2.003  0.3476 -0.1254  0.1358
  488MOL0     C67244   4.656   1.228   1.964 -0.0183  0.0468 -0.0993
  488MOL0     C67245   4.699   1.169   1.834 -1.2141  0.4891  0.5961
  488MOL0     C67246   4.838   1.214   1.796 -1.2199 -0.0912 -0.1035
  488MOL0     C67247   4.903   1.142   1.686  0.0697  0.0409  0.6210
  488MOL0     C67248   4.939   0.998   1.704  0.2150  0.5057 -0.0106
  488MOL0     C67249   5.023   0.931   1.599  0.0638 -0.3155  0.1313
  488MOL0     C67250   4.956   0.901   1.469 -0.3596  0.7533 -0.9997
  488MOL0    Cl67251   4.904   1.056   1.381 -0.4841  0.3298  0.3308
  488MOL0     C67252   4.284   0.999   2.072 -0.6702  0.4581 -0.2175
  488MOL0     C67253   4.176   0.925   2.120 -0.3619  0.0980 -1.0146
  488MOL0     O67254   3.903   0.919   2.213  0.0790 -0.6321  0.5491
  488MOL0     C67255   3.705   0.825   2.368  0.0999  0.5338 -0.3900
  488MOL0     C67256   3.610   0.796   2.466  0.3216 -0.4561 -0.8589
  488MOL0     N67257   3.119   1.027   2.763  0.5384 -1.4063  0.4530
  488MOL0     N67258   2.989   1.037   2.784  0.0201  0.0150  0.5595
  488MOL0     C67259   2.151   0.151   2.819 -0.8294 -0.0346 -0.3097
  488MOL0     C67260   2.020   0.099   2.812  0.1395 -0.0584  0.9012
  488MOL0     C67261   1.630  -0.098   2.912  0.6561  0.3710 -0.3320
  488MOL0     C67262   1.602  -0.199   2.817  0.0942 -0.4684 -0.1492
  488MOL0     C67263   1.486  -0.281   2.837 -0.5801  0.0004 -0.3409
  488MOL0     C67264   1.389  -0.267   2.936 -0.0912 -0.9378 -0.5771
  488MOL0     O67265   1.262  -0.323   2.966  0.2271  0.1731  0.0839
  488MOL0     C67266   1.218  -0.440   2.890 -0.1545 -0.0754  0.1716
  488MOL0     C67267   1.109  -0.389   2.789  0.2589 -0.6731  0.5266
  488MOL0     C67268   0.973  -0.353   2.849  0.5708 -0.5894 -0.4932
  488MOL0     C67269   0.860  -0.330   2.753  0.6726  0.6451  0.4512
  488MOL0     C67270   0.738  -0.327   2.833 -0.1651  0.3817  0.6707
  488MOL0     C67271   0.634  -0.319   2.893  0.4224 -0.3132 -0.3596
  488MOL0     C67272   1.410  -0.156   3.023 -0.2169  0.5184  0.0580
  488MOL0     C67273   1.524  -0.072   3.008 -0.4148  1.0993 -0.7980
  488MOL0     C67274   1.534   0.039   3.116  0.1993  0.8592 -0.9176
  488MOL0     H67275   2.064  -0.211   2.923 -2.1497 -0.1215 -2.0972
  488MOL0     H67276   2.309  -0.124   2.927  1.2443 -0.4137 -3.9330
  488MOL0     H67277   2.393   0.257   2.764  1.6409  2.1614 -0.2596
  488MOL0     H67278   2.539   0.238   2.855  0.5377  0.2824  2.6938
  488MOL0     H67279   2.294   0.328   2.999  0.6871 -1.8906  1.2218
  488MOL0     H67280   2.458   0.316   3.057 -0.5076  1.8735  0.9649
  488MOL0     H67281   2.451   0.490   2.810 -4.9836 -2.0088 -0.4610
  488MOL0     H67282   2.351   0.550   2.945 -0.3388  0.7614 -0.8996
  488MOL0     H67283   2.567   0.556   3.088  3.2987 -1.0514  0.9641
  488MOL0     H67284   2.662   0.499   2.961 -0.8249 -0.5077 -0.0847
  488MOL0     H67285   2.494   0.742   2.933  0.0148 -1.3565  1.7933
  488MOL0     H67286   2.599   0.685   2.806 -3.7295  1.0207 -0.9437
  488MOL0     H67287   2.715   0.774   3.068 -1.1230  2.6553  0.6385
  488MOL0     H67288   2.790   0.719   2.918 -0.1222  0.1925 -0.9779
  488MOL0     H67289   2.615   0.967   2.940  1.8792  2.7983  0.6953
  488MOL0     H67290   2.705   0.920   2.803 -0.7697 -0.0910  0.2683
  488MOL0     H67291   2.803   1.102   2.920  2.1793  0.0014 -1.2075
  488MOL0     H67292   2.837   1.007   3.072  2.1056  1.9430  0.1495
  488MOL0     H67293   3.075   0.887   3.056  2.1530 -0.3803 -0.0781
  488MOL0     H67294   3.337   0.941   3.002 -1.5336  1.1518  0.7206
  488MOL0     H67295   3.379   1.009   2.835  0.6891 -1.0796  0.3939
  488MOL0     H67296   3.436   0.781   2.893 -0.6585 -0.4119  0.9795
  488MOL0     H67297   3.262   0.744   2.883 -0.2750 -0.5746  1.2650
  488MOL0     H67298   3.245   0.811   2.648  1.5463  1.5398 -1.4533
  488MOL0     H67299   3.413   0.878   2.651 -1.5114  0.4486 -3.1886
  488MOL0     H67300   3.339   0.587   2.664  0.9765 -1.1527  1.0030
  488MOL0     H67301   3.383   0.675   2.519  0.6666 -3.2333  0.1282
  488MOL0     H67302   3.773   0.526   2.613 -0.9899 -0.8807  0.7914
  488MOL0     H67303   4.052   0.653   2.499 -0.7260  0.5438  1.6506
  488MOL0     H67304   3.994   0.546   2.364  0.0609  1.0317  0.0172
  488MOL0     H67305   3.987   0.492   2.537  1.3502 -2.2012 -2.0498
  488MOL0     H67306   4.326   0.796   2.401 -0.8341 -0.0047  0.5114
  488MOL0     H67307   4.515   0.918   2.306  0.3424 -1.3113  1.0286
  488MOL0     H67308   4.465   1.142   1.915  1.2077  0.5443 -0.6900
  488MOL0     H67309   4.457   1.255   2.042  0.4580  0.6651 -1.2127
  488MOL0     H67310   4.663   1.337   1.970 -0.4976  0.0489  0.5684
  488MOL0     H67311   4.711   1.209   2.057 -0.8792  2.8630  1.1022
  488MOL0     H67312   4.631   1.198   1.753 -1.8954  0.6426  1.2152
  488MOL0     H67313   4.703   1.061   1.854  0.4992  0.5703  0.8246
  488MOL0     H67314   4.902   1.209   1.885  1.9081 -2.7134 -2.2801
  488MOL0     H67315   4.836   1.320   1.770 -0.3407 -0.3090 -1.1234
  488MOL0     H67316   4.834   1.151   1.602 -1.3464  2.0403  1.9099
  488MOL0     H67317   5.000   1.183   1.656  0.7483 -3.7315 -3.2739
  488MOL0     H67318   4.847   0.939   1.706 -0.0756  0.9550 -0.0796
  488MOL0     H67319   4.988   0.982   1.801  3.0563  2.3175 -1.0178
  488MOL0     H67320   5.070   0.841   1.641  3.3733  2.1883  2.2711
  488MOL0     H67321   5.109   0.998   1.592 -0.2044  0.3394  2.2808
  488MOL0     H67322   4.866   0.839   1.479  1.3779 -1.8040 -0.3592
  488MOL0     H67323   5.034   0.849   1.413  0.7952  0.0452  1.1931
  488MOL0     H67324   4.262   1.050   1.979  0.4576  0.5990 -0.4161
  488MOL0     H67325   4.090   0.918   2.054 -0.9091  1.2236 -0.4501
  488MOL0     H67326   3.674   0.904   2.301  1.3372  1.0928 -0.3294
  488MOL0     H67327   3.516   0.849   2.460  0.5088 -0.0088  0.0028
  488MOL0     H67328   2.171   0.249   2.777  1.2800  0.3138  1.3042
  488MOL0     H67329   1.946   0.156   2.756  1.9697  0.9227 -0.6273
  488MOL0     H67330   1.668  -0.230   2.735  0.7960  1.3229 -0.3039
  488MOL0     H67331   1.474  -0.358   2.761  0.9583  0.5827 -1.2112
  488MOL0     H67332   1.300  -0.487   2.835 -0.3688 -0.1970 -0.0451
  488MOL0     H67333   1.177  -0.511   2.963 -1.4774 -3.2054 -3.2478
  488MOL0     H67334   1.087  -0.464   2.712 -2.2493  0.0436  0.4804
  488MOL0     H67335   1.138  -0.303   2.728 -0.6970 -0.3957  0.4513
  488MOL0     H67336   0.950  -0.424   2.929  0.0141  2.4979  2.2877
  488MOL0     H67337   0.980  -0.259   2.904 -3.7267 -1.0622  1.1884
  488MOL0     H67338   0.849  -0.411   2.681  0.6862  0.0546  1.1043
  488MOL0     H67339   0.871  -0.230   2.709  1.5745 -0.5884 -2.3655
  488MOL0     H67340   0.543  -0.309   2.950  1.2226 -1.0106  1.0848
  488MOL0     H67341   1.342  -0.152   3.107 -0.1772 -0.9484  0.1924
  488MOL0     H67342   1.531   0.142   3.078 -0.3561  2.4693  3.0123
  488MOL0     H67343   1.457   0.026   3.193  2.7973  0.2414  1.7696
  488MOL0     H67344   1.633   0.034   3.161  0.4353  2.2308 -1.2392
  489MOL0     O67345   2.332  10.486   6.743 -0.0881 -0.1945 -0.2636
  489MOL0     C67346   2.286  10.553   6.651 -0.1229  0.0984  0.3322
  489MOL0     O67347   2.358  10.630   6.561  0.0812 -0.4709  0.5529
  489MOL0     C67348   2.490  10.645   6.571  0.5930 -0.1793 -1.1627
  489MOL0     C67349   2.579  10.619   6.465 -0.9360  0.4255 -0.7880
  489MOL0     C67350   2.712  10.667   6.479  0.7679 -0.2841  0.2126
  489MOL0     C67351   2.763  10.722   6.597 -0.4555  0.4276 -0.2548
  489MOL0     O67352   2.894  10.764   6.602  0.4175 -0.7014 -0.2436
  489MOL0     C67353   2.976  10.728   6.713 -0.7414 -0.2525 -0.2993
  489MOL0     C67354   3.117  10.784   6.693 -1.6479 -0.5569  0.6321
  489MOL0     C67355   3.142  10.933   6.731 -0.2249 -0.3313  1.8700
  489MOL0     C67356   3.273  10.981   6.648  0.2033  0.5672 -0.2083
  489MOL0     C67357   3.278  11.135   6.660  1.1840 -0.8269  0.6671
  489MOL0     C67358   3.346  11.180   6.521  0.0080  0.3801 -0.3754
  489MOL0     C67359   3.385  11.317   6.481 -0.3372  0.6265  0.7421
  489MOL0     C67360   3.487  11.364   6.594  0.0235  0.5740 -0.0875
  489MOL0     N67361   3.518  11.511   6.573 -0.0698 -0.2938  0.7953
  489MOL0     C67362   3.588  11.598   6.649  1.0037  0.3459 -0.0586
  489MOL0     C67363   3.620  11.700   6.571 -0.8644  0.2718  1.0953
  489MOL0     C67364   3.716  11.799   6.624 -0.4054  0.8371 -0.6462
  489MOL0     C67365   3.789  11.888   6.520 -0.4246 -0.2533  0.9188
  489MOL0     C67366   3.862  12.005   6.588 -0.7406 -0.0080 -0.5518
  489MOL0     C67367   3.961  12.068   6.489 -0.2458  0.4406 -0.0617
  489MOL0     O67368   4.070  11.977   6.479 -0.3753  0.0638  0.8523
  489MOL0     C67369   4.159  12.008   6.378 -0.2935  0.6716 -0.2011
  489MOL0     C67370   4.146  12.117   6.290  0.6124  1.1227 -0.3966
  489MOL0     C67371   4.215  12.114   6.164 -1.2367  0.0722 -0.4693
  489MOL0     C67372   4.187  12.239   6.077 -1.0099  0.2448  0.6635
  489MOL0     C67373   4.315  12.008   6.146 -0.2329 -0.3304  0.7346
  489MOL0     C67374   4.402  12.010   6.026  0.4806  0.4268  0.6616
  489MOL0     O67375   4.497  11.916   6.035 -0.4946 -0.1633 -0.9483
  489MOL0     C67376   4.555  11.849   5.929  0.1669 -0.9963  0.1560
  489MOL0     C67377   4.491  11.806   5.812  0.5357 -0.7030  0.1261
  489MOL0     C67378   4.566  11.742   5.708 -0.3180  0.3687 -0.3835
  489MOL0     C67379   4.704  11.712   5.728 -0.1112  0.3047 -0.0927
  489MOL0     O67380   4.780  11.659   5.625  0.3263 -0.3065 -0.0061
  489MOL0     C67381   4.776  11.512   5.623  1.0547  0.4279 -0.5841
  489MOL0     C67382   4.902  11.461   5.672 -1.5078  0.1125 -0.1630
  489MOL0     C67383   4.944  11.330   5.606 -0.4232 -0.1911 -1.2047
  489MOL0     C67384   5.080  11.291   5.662  0.2853 -1.0669  0.8332
  489MOL0     C67385   5.103  11.143   5.690 -0.3657  0.5063 -0.3266
  489MOL0     C67386   5.052  11.105   5.832  0.2305 -0.5825  0.6684
  489MOL0     C67387   5.006  10.965   5.872  0.3928 -0.2097  0.1554
  489MOL0     C67388   4.927  10.970   6.001 -0.3236 -0.0242  0.9606
  489MOL0    Cl67389   4.755  11.005   5.980 -0.0430 -0.2878 -0.2950
  489MOL0     C67390   4.767  11.741   5.846 -0.5257 -0.8463  0.8204
  489MOL0     C67391   4.684  11.805   5.946  0.3755 -0.0727 -0.2543
  489MOL0     O67392   4.374  12.078   5.922  0.0200  1.0329  0.1168
  489MOL0     C67393   4.314  11.906   6.236 -0.5993  0.0875  0.8443
  489MOL0     C67394   4.244  11.898   6.346  0.3667  0.4927  0.6646
  489MOL0     N67395   3.551  11.691   6.444 -0.2467  0.2745  0.6040
  489MOL0     N67396   3.487  11.575   6.459 -0.3400  0.1645 -0.6738
  489MOL0     C67397   2.678  10.722   6.704  0.3246 -0.3637  0.2616
  489MOL0     C67398   2.545  10.688   6.695  0.5324  0.2792 -0.4028
  489MOL0     C67399   2.148  10.541   6.613  0.0294 -0.5514  0.3587
  489MOL0     C67400   2.117  10.574   6.476 -1.0711 -0.4786  0.6457
  489MOL0     C67401   1.984  10.562   6.437 -0.4460  0.5792 -0.5327
  489MOL0     C67402   1.875  10.532   6.525  0.1349  0.8963 -0.0100
  489MOL0     O67403   1.749  10.528   6.465 -0.4926 -0.4935 -0.7026
  489MOL0     C67404   1.654  10.453   6.531 -0.1309  0.5507 -0.1801
  489MOL0     C67405   1.690  10.298   6.548 -0.0111  0.6199 -0.4786
  489MOL0     C67406   1.734  10.224   6.425 -0.0406 -0.1548  0.0877
  489MOL0     C67407   1.728  10.071   6.448  0.1522  0.0657  0.1344
  489MOL0     C67408   1.821  10.000   6.363  0.5691  0.2590  0.7541
  489MOL0     C67409   1.889   9.932   6.283 -0.1173 -0.8580  0.5871
  489MOL0     C67410   1.906  10.508   6.660  0.2287 -0.5758  0.0555
  489MOL0     C67411   2.040  10.508   6.704 -0.1155 -0.5941 -0.3287
  489MOL0     C67412   2.062  10.470   6.845 -0.0321  0.2352 -0.0056
  489MOL0     H67413   2.538  10.602   6.366  1.9358 -0.7479 -1.8900
  489MOL0     H67414   2.782  10.674   6.396  1.0745 -1.5364  0.3434
  489MOL0     H67415   2.996  10.621   6.721  3.1536  0.1571 -2.3088
  489MOL0     H67416   2.940  10.774   6.805  3.2503  0.0288  1.3368
  489MOL0     H67417   3.191  10.733   6.754 -0.0918 -1.2270 -1.7026
  489MOL0     H67418   3.141  10.775   6.586 -0.5468  1.3362  0.6687
  489MOL0     H67419   3.059  10.998   6.699  0.2282 -1.1499 -1.2986
  489MOL0     H67420   3.157  10.949   6.838 -1.8866  4.0430  1.6582
  489MOL0     H67421   3.365  10.940   6.691  1.0307  2.7789  0.2744
  489MOL0     H67422   3.261  10.952   6.543  1.2362 -2.0657  0.3350
  489MOL0     H67423   3.336  11.174   6.744  0.9772  0.6982  0.1296
  489MOL0     H67424   3.179  11.180   6.663  3.2082  4.2392  0.2440
  489MOL0     H67425   3.435  11.116   6.525 -2.7840 -3.9242 -0.5904
  489MOL0     H67426   3.284  11.142   6.439  0.7203  0.1987 -0.8397
  489MOL0     H67427   3.297  11.381   6.481 -0.6695  0.1920  1.4816
  489MOL0     H67428   3.436  11.333   6.386 -1.3835  1.8969  0.3811
  489MOL0     H67429   3.452  11.352   6.697  2.8923 -2.2782  0.7283
  489MOL0     H67430   3.578  11.303   6.599  0.7992  1.6789  5.5651
  489MOL0     H67431   3.614  11.573   6.752 -3.1861 -1.4711  0.7632
  489MOL0     H67432   3.792  11.760   6.692  0.2088  1.7758 -0.7721
  489MOL0     H67433   3.670  11.870   6.693  0.1558 -0.6640  1.3860
  489MOL0     H67434   3.871  11.825   6.485 -1.0721 -0.0466 -1.1019
  489MOL0     H67435   3.724  11.924   6.439 -1.4107  0.0974  1.8438
  489MOL0     H67436   3.794  12.077   6.633  0.8019  1.3827 -0.3759
  489MOL0     H67437   3.922  11.963   6.669 -0.3127  0.4850 -0.6075
  489MOL0     H67438   3.912  12.093   6.394  1.3738 -0.1306 -1.1027
  489MOL0     H67439   3.998  12.161   6.534 -0.7164 -0.0439  1.3785
  489MOL0     H67440   4.083  12.204   6.307  0.1784  0.3370  2.7130
  489MOL0     H67441   4.164  12.212   5.974  1.2202  1.3090 -0.1679
  489MOL0     H67442   4.277  12.301   6.073 -0.6474 -0.3128  0.0100
  489MOL0     H67443   4.105  12.300   6.116 -0.9276  0.5937  0.2983
  489MOL0     H67444   4.391  11.835   5.783 -0.1671 -4.1437 -1.3992
  489MOL0     H67445   4.518  11.710   5.616 -0.2468  3.6090 -1.7048
  489MOL0     H67446   4.699  11.472   5.690  2.4094  1.2010  1.5568
  489MOL0     H67447   4.751  11.475   5.524 -0.0293  2.0163 -0.9540
  489MOL0     H67448   4.986  11.529   5.659  0.8602 -2.7411 -0.9455
  489MOL0     H67449   4.882  11.440   5.777 -2.9445 -0.0544 -0.4494
  489MOL0     H67450   4.948  11.355   5.499  0.7735  1.7068 -0.7467
  489MOL0     H67451   4.858  11.269   5.634 -0.6238  0.8310  0.5068
  489MOL0     H67452   5.104  11.332   5.761  0.5204 -1.9088  1.1399
  489MOL0     H67453   5.159  11.317   5.591  0.5985 -0.5716  1.3580
  489MOL0     H67454   5.042  11.094   5.614 -3.0237 -1.4629  2.8176
  489MOL0     H67455   5.212  11.131   5.678 -0.1517  3.8867 -3.5622
  489MOL0     H67456   4.959  11.161   5.842  1.1437  1.6978 -2.1320
  489MOL0     H67457   5.123  11.134   5.911 -0.5112 -0.9873  1.4935
  489MOL0     H67458   5.098  10.907   5.885  0.3756 -0.1659  0.4687
  489MOL0     H67459   4.937  10.925   5.797 -1.4197  1.0434  1.0808
  489MOL0     H67460   4.961  11.047   6.072 -0.5902  1.1303 -0.1201
  489MOL0     H67461   4.940  10.875   6.054  0.0950  0.4341  1.7059
  489MOL0     H67462   4.875  11.730   5.848 -0.4427 -0.3817 -0.3666
  489MOL0     H67463   4.743  11.824   6.035  1.1902  0.9474 -0.9826
  489MOL0     H67464   4.376  11.819   6.216  1.0747  1.3280  0.3611
  489MOL0     H67465   4.230  11.803   6.397  0.7650 -0.2677 -0.6227
  489MOL0     H67466   2.720  10.752   6.800  1.2323  0.0399 -0.2555
  489MOL0     H67467   2.482  10.701   6.783  0.1098 -0.2068 -0.6274
  489MOL0     H67468   2.192  10.606   6.405  1.4226 -0.2613  3.2198
  489MOL0     H67469   1.955  10.579   6.334 -2.1804 -0.2551 -0.2327
  489MOL0     H67470   1.626  10.497   6.628  2.3405  1.3905  0.2312
  489MOL0     H67471   1.561  10.466   6.474 -0.6615  3.7420  1.2044
  489MOL0     H67472   1.597  10.247   6.574  0.3661 -0.5704 -1.3774
  489MOL0     H67473   1.767  10.289   6.625 -0.0249 -1.5389 -0.6703
  489MOL0     H67474   1.669  10.255   6.343  1.4400 -1.3822 -1.6422
  489MOL0     H67475   1.839  10.245   6.402 -0.3433 -1.7769 -3.4883
  489MOL0     H67476   1.624  10.042   6.432  0.2880  0.9104 -2.7596
  489MOL0     H67477   1.748  10.042   6.552  0.6816 -0.8537 -0.2139
  489MOL0     H67478   1.963   9.888   6.219  1.8767  1.1257  1.3901
  489MOL0     H67479   1.838  10.473   6.737 -2.1620 -0.8587 -2.0503
  489MOL0     H67480   1.981  10.478   6.918  0.3775  1.0555  0.3739
  489MOL0     H67481   2.102  10.369   6.837 -1.5490 -0.2988 -1.3151
  489MOL0     H67482   2.139  10.532   6.893  0.4624 -1.9252  2.1701
  490MOL0     O67483   0.316   3.886   0.894 -0.1240  0.2498  0.2070
  490MOL0     C67484   0.434   3.900   0.857  0.7997  0.5784 -0.1423
  490MOL0     O67485   0.543   3.896   0.945 -0.4190 -0.6316  0.5024
  490MOL0     C67486   0.529   3.912   1.077  0.6443  0.7360 -0.0336
  490MOL0     C67487   0.438   4.001   1.133 -1.0903 -0.4516 -0.3646
  490MOL0     C67488   0.400   3.994   1.266 -0.4515 -0.1543  0.0594
  490MOL0     C67489   0.468   3.893   1.335 -0.2254 -0.3604 -1.1022
  490MOL0     O67490   0.458   3.874   1.466  0.8652 -0.5594  0.1123
  490MOL0     C67491   0.557   3.949   1.538  0.1123 -0.2537  0.2045
  490MOL0     C67492   0.497   3.987   1.669 -0.5428 -1.6777 -0.3936
  490MOL0     C67493   0.579   4.098   1.747  0.1050  0.4284  0.1469
  490MOL0     C67494   0.703   4.031   1.802  0.3382  0.2948  0.4522
  490MOL0     C67495   0.793   4.119   1.890  0.1935  0.2588  0.5117
  490MOL0     C67496   0.920   4.051   1.949  0.1565  0.8311  0.4207
  490MOL0     C67497   0.974   4.137   2.055  0.2450  0.5054  0.1214
  490MOL0     C67498   1.114   4.109   2.100 -0.6186  0.0262 -0.5772
  490MOL0     N67499   1.150   4.180   2.230 -0.0859  0.4257  0.8966
  490MOL0     C67500   1.096   4.296   2.293 -0.8163  0.0034 -0.6964
  490MOL0     C67501   1.190   4.313   2.396  0.2070 -0.3899  0.0389
  490MOL0     C67502   1.175   4.416   2.499 -0.7982 -0.7771  0.2137
  490MOL0     C67503   1.310   4.468   2.555  0.5676 -0.9884 -0.2603
  490MOL0     C67504   1.308   4.608   2.629  0.4474  0.0990 -0.4102
  490MOL0     C67505   1.451   4.662   2.658 -0.2454 -0.0618 -0.2510
  490MOL0     O67506   1.513   4.606   2.779 -0.1957  0.2312  0.2113
  490MOL0     C67507   1.635   4.661   2.816  0.0654 -0.1473 -0.2428
  490MOL0     C67508   1.709   4.757   2.750 -0.0256 -0.0361 -0.2686
  490MOL0     C67509   1.836   4.808   2.803  0.6571 -0.6998 -0.3102
  490MOL0     C67510   1.908   4.911   2.726 -0.6671  0.0032  0.2512
  490MOL0     C67511   1.870   4.770   2.934  0.0029 -0.3337  0.8833
  490MOL0     C67512   1.995   4.805   3.013 -0.9468 -0.5503  0.2972
  490MOL0     O67513   2.015   4.754   3.143  0.4504 -0.1947 -1.0816
  490MOL0     C67514   2.116   4.811   3.217 -0.5277 -1.0690  0.7758
  490MOL0     C67515   2.094   4.912   3.313 -0.6614  0.0694  0.3063
  490MOL0     C67516   2.200   4.971   3.384  0.4358  0.2156  0.0861
  490MOL0     C67517   2.326   4.911   3.368 -0.3382  0.7211 -1.8424
  490MOL0     O67518   2.443   4.954   3.420  0.0570 -0.1013  0.1854
  490MOL0     C67519   2.421   5.018   3.546 -0.7083 -0.5651  0.7100
  490MOL0     C67520   2.564   5.028   3.613  1.2769  0.4813 -0.1894
  490MOL0     C67521   2.594   4.878   3.653 -0.5722  0.3028 -0.0610
  490MOL0     C67522   2.739   4.849   3.596  0.1033 -0.6267  0.3001
  490MOL0     C67523   2.801   4.715   3.659 -0.1030 -0.5072  0.4128
  490MOL0     C67524   2.841   4.707   3.804  0.6226  0.1542 -0.0600
  490MOL0     C67525   2.880   4.575   3.873  0.2082  0.4946  0.6418
  490MOL0     C67526   3.014   4.527   3.805  0.2861  0.6865  0.3689
  490MOL0    Cl67527   3.090   4.393   3.900 -0.4419  0.7287  0.2551
  490MOL0     C67528   2.350   4.802   3.284 -0.2830  0.3641  0.0030
  490MOL0     C67529   2.245   4.755   3.202  0.0024  0.1926 -1.1525
  490MOL0     O67530   2.065   4.889   2.968 -0.0517 -0.0423  0.1745
  490MOL0     C67531   1.786   4.686   3.010 -0.2892  0.6790  0.5748
  490MOL0     C67532   1.669   4.628   2.948  0.1510 -1.3860  0.5419
  490MOL0     N67533   1.298   4.223   2.376  0.5133  0.7705  0.4902
  490MOL0     N67534   1.278   4.152   2.269  0.9669  0.1014 -0.5670
  490MOL0     C67535   0.551   3.797   1.280 -0.2292 -0.3169  0.2817
  490MOL0     C67536   0.581   3.801   1.141 -0.7932  0.2605 -0.2294
  490MOL0     C67537   0.455   3.922   0.711 -0.0608  0.2367  0.0550
  490MOL0     C67538   0.571   3.991   0.682 -0.5822 -0.0119  0.4130
  490MOL0     C67539   0.604   4.033   0.552 -0.5320  0.4843  0.2251
  490MOL0     C67540   0.512   4.011   0.449  0.3207 -0.4775  0.0601
  490MOL0     O67541   0.536   4.052   0.324 -0.0115  0.8386  0.4086
  490MOL0     C67542   0.669   4.039   0.274 -0.3725 -1.2681  0.8275
  490MOL0     C67543   0.712   3.895   0.260 -0.4205  0.0077  1.0170
  490MOL0     C67544   0.622   3.802   0.179 -0.0536 -0.3348  0.4089
  490MOL0     C67545   0.684   3.674   0.135  0.3141  0.6060  0.2281
  490MOL0     C67546   0.742   3.687  -0.001  0.0041 -0.5137 -0.5721
  490MOL0     C67547   0.789   3.705  -0.104 -0.8520 -0.9238  0.0026
  490MOL0     C67548   0.393   3.937   0.471  0.2261  0.0088  0.0709
  490MOL0     C67549   0.369   3.891   0.606 -0.4709  1.0269  1.3743
  490MOL0     C67550   0.237   3.820   0.624  0.5142  0.2024  0.0714
  490MOL0     H67551   0.388   4.064   1.061 -2.3332 -2.0450 -0.9626
  490MOL0     H67552   0.325   4.056   1.314 -2.4009 -1.1390 -1.5760
  490MOL0     H67553   0.594   4.042   1.494 -1.1301 -0.3982 -1.2448
  490MOL0     H67554   0.640   3.884   1.566 -0.3443  0.2499  3.0621
  490MOL0     H67555   0.395   4.023   1.650  0.0597  1.4537  1.6487
  490MOL0     H67556   0.499   3.894   1.726  0.9608 -0.9926  0.7280
  490MOL0     H67557   0.609   4.174   1.675 -1.8174  0.0743 -1.1197
  490MOL0     H67558   0.520   4.141   1.829  0.7916  0.6641  0.5210
  490MOL0     H67559   0.669   3.946   1.862  1.6464 -2.0584 -1.9342
  490MOL0     H67560   0.766   3.994   1.721  0.6941 -1.6779  1.5667
  490MOL0     H67561   0.740   4.158   1.976 -0.8250 -2.4525  1.2220
  490MOL0     H67562   0.827   4.205   1.831  3.1113 -0.8017  0.4640
  490MOL0     H67563   0.902   3.958   2.004  3.1820  0.8698  1.6717
  490MOL0     H67564   1.003   4.040   1.878  0.7643  1.1461  1.0662
  490MOL0     H67565   0.902   4.121   2.136 -1.9358  1.0113 -1.6334
  490MOL0     H67566   0.955   4.242   2.030 -3.8723 -0.6072 -2.3859
  490MOL0     H67567   1.128   4.001   2.112  0.1946  0.0891 -0.9064
  490MOL0     H67568   1.195   4.135   2.032 -0.6362  0.2403 -0.5170
  490MOL0     H67569   1.004   4.352   2.282 -0.4795  0.7355  0.0719
  490MOL0     H67570   1.130   4.375   2.590  2.4126 -1.8904  1.4178
  490MOL0     H67571   1.117   4.501   2.459  1.5559  1.2470  0.8482
  490MOL0     H67572   1.359   4.393   2.618 -0.4637  1.1706  3.4064
  490MOL0     H67573   1.381   4.470   2.472  1.0506  1.4277  0.1225
  490MOL0     H67574   1.249   4.673   2.564  0.4845  0.3111 -0.2317
  490MOL0     H67575   1.257   4.590   2.724 -1.6302  0.5533 -1.3792
  490MOL0     H67576   1.519   4.650   2.573  1.4633  0.5049  0.9674
  490MOL0     H67577   1.450   4.772   2.664 -1.9124  0.0628 -1.9592
  490MOL0     H67578   1.679   4.788   2.650 -0.0309 -0.0489 -0.2708
  490MOL0     H67579   1.842   4.938   2.644 -0.4461  1.0903  0.4233
  490MOL0     H67580   2.003   4.867   2.693  1.9568  2.3437  3.8781
  490MOL0     H67581   1.920   5.001   2.787 -4.1743 -0.4942  1.9403
  490MOL0     H67582   1.991   4.942   3.331 -0.2158  0.5079  2.4036
  490MOL0     H67583   2.176   5.058   3.445 -0.3225 -0.1982  0.3984
  490MOL0     H67584   2.378   5.118   3.533 -4.2376 -1.6450  2.7012
  490MOL0     H67585   2.345   4.962   3.600  0.2209 -2.6842 -0.0493
  490MOL0     H67586   2.639   5.084   3.556  0.2991  2.0944  0.0483
  490MOL0     H67587   2.547   5.089   3.703 -2.8510  1.9938 -1.7440
  490MOL0     H67588   2.523   4.808   3.608  0.4116 -2.1192  1.8718
  490MOL0     H67589   2.584   4.843   3.756  1.6061 -1.4759 -0.3545
  490MOL0     H67590   2.803   4.933   3.623 -0.7219 -0.0450  0.4934
  490MOL0     H67591   2.729   4.841   3.487  0.5899 -1.3123  0.3024
  490MOL0     H67592   2.734   4.629   3.645 -2.6307  1.2845  0.7027
  490MOL0     H67593   2.895   4.709   3.605 -0.2636  0.5302  0.0029
  490MOL0     H67594   2.752   4.743   3.856  0.6895 -0.0407  0.1950
  490MOL0     H67595   2.922   4.775   3.832  0.8811 -0.5949  1.1099
  490MOL0     H67596   2.798   4.503   3.883  0.6398  0.2986  3.8578
  490MOL0     H67597   2.897   4.606   3.976 -0.5378  1.6598  0.4321
  490MOL0     H67598   3.085   4.610   3.802  1.2640 -0.1647 -1.4782
  490MOL0     H67599   2.994   4.493   3.703 -0.5008  1.7736  0.1393
  490MOL0     H67600   2.450   4.763   3.269 -1.1169 -1.3696 -1.4881
  490MOL0     H67601   2.253   4.676   3.128 -0.2876 -3.6045  2.4865
  490MOL0     H67602   1.816   4.644   3.105 -0.0703  1.7841  1.0020
  490MOL0     H67603   1.604   4.558   2.999 -1.5956 -0.6984 -0.6738
  490MOL0     H67604   0.581   3.712   1.340 -2.2230 -1.9672 -0.9656
  490MOL0     H67605   0.626   3.721   1.084 -0.2936  0.4674 -0.1309
  490MOL0     H67606   0.635   4.015   0.766 -4.4055  1.7068  3.1129
  490MOL0     H67607   0.699   4.080   0.531  2.1230 -4.3611 -0.0585
  490MOL0     H67608   0.672   4.086   0.175 -1.7973  0.5785  1.5986
  490MOL0     H67609   0.735   4.100   0.337 -1.0677  1.1895 -0.6744
  490MOL0     H67610   0.741   3.843   0.351  1.3807  0.3484  0.6845
  490MOL0     H67611   0.802   3.905   0.198 -1.8400 -1.7716 -1.5181
  490MOL0     H67612   0.534   3.778   0.239 -1.1083 -0.8048 -1.2543
  490MOL0     H67613   0.582   3.852   0.090 -2.5093 -0.4734  1.3807
  490MOL0     H67614   0.605   3.599   0.135  0.6856  0.1985  1.3947
  490MOL0     H67615   0.764   3.639   0.200  2.5231 -1.7077 -3.3851
  490MOL0     H67616   0.839   3.729  -0.196 -0.9349  2.4150  0.7291
  490MOL0     H67617   0.326   3.933   0.386  0.8892  1.5527 -0.5725
  490MOL0     H67618   0.203   3.758   0.541  1.1093 -0.0499  0.0065
  490MOL0     H67619   0.245   3.754   0.711 -0.4600  1.7399  1.3853
  490MOL0     H67620   0.154   3.889   0.639  0.4639  0.2903 -0.5709
  491MOL0     O67621   9.652   7.738   2.602  0.3739  0.0424  0.1391
  491MOL0     C67622   9.556   7.732   2.683  0.5012 -0.9131  0.2975
  491MOL0     O67623   9.562   7.679   2.805  0.3527  0.0203 -0.3046
  491MOL0     C67624   9.688   7.678   2.867 -0.7253  0.9026 -0.6730
  491MOL0     C67625   9.781   7.783   2.860  0.8302 -0.1408  0.8608
  491MOL0     C67626   9.894   7.791   2.942  0.1083 -0.1153  0.0076
  491MOL0     C67627   9.925   7.678   3.018  0.0349 -0.5246 -0.0774
  491MOL0     O67628  10.040   7.664   3.093  0.8084 -0.1922  0.4199
  491MOL0     C67629  10.147   7.742   3.044  0.2870 -0.3888  0.3740
  491MOL0     C67630  10.276   7.663   3.068  0.7205  0.1918  0.2487
  491MOL0     C67631  10.308   7.643   3.218 -0.1502 -0.3757  0.5066
  491MOL0     C67632  10.419   7.547   3.230  0.0955  0.2214  0.1997
  491MOL0     C67633  10.481   7.562   3.372  0.1586  0.6206  0.5543
  491MOL0     C67634  10.403   7.497   3.496  0.0681  0.0421  0.0710
  491MOL0     C67635  10.463   7.526   3.632 -0.2801  0.5196  0.4565
  491MOL0     C67636  10.360   7.488   3.743 -0.2292 -0.7816  0.2372
  491MOL0     N67637  10.415   7.519   3.874  0.0786  0.5060 -0.6208
  491MOL0     C67638  10.409   7.639   3.937  0.5254  0.1538 -0.0004
  491MOL0     C67639  10.483   7.628   4.051  0.5111 -0.2520  1.3433
  491MOL0     C67640  10.498   7.734   4.161  0.2818 -0.1875  0.7980
  491MOL0     C67641  10.519   7.676   4.305  0.1204  0.0256 -0.0171
  491MOL0     C67642  10.664   7.669   4.341 -0.7498 -0.1434  0.1772
  491MOL0     C67643  10.758   7.580   4.258  0.2830  0.4842  1.1087
  491MOL0     O67644  10.888   7.595   4.318  0.4201  0.6808 -0.3802
  491MOL0     C67645  10.988   7.510   4.264 -0.3395  0.8655 -0.8089
  491MOL0     C67646  10.979   7.425   4.153 -0.3303 -0.0573  0.2936
  491MOL0     C67647  11.091   7.369   4.095 -0.1332  0.0320  0.3484
  491MOL0     C67648  11.069   7.319   3.957 -1.0101  0.3948 -0.3473
  491MOL0     C67649  11.216   7.379   4.162 -0.0342  0.3205  0.3467
  491MOL0     C67650  11.346   7.306   4.126  1.0232 -0.1885  0.7465
  491MOL0     O67651  11.345   7.224   4.022 -0.2354  0.1366  0.1165
  491MOL0     C67652  11.467   7.160   3.998 -0.7255 -0.2579 -0.8435
  491MOL0     C67653  11.519   7.161   3.865  0.5370 -0.0403 -0.8240
  491MOL0     C67654  11.644   7.105   3.841  0.1508 -0.5782  0.0031
  491MOL0     C67655  11.713   7.025   3.934 -0.9008 -1.0608 -0.4474
  491MOL0     O67656  11.834   6.972   3.895  0.5480  0.0685  0.3643
  491MOL0     C67657  11.877   6.845   3.948 -0.7855  0.1228  0.1207
  491MOL0     C67658  11.981   6.777   3.862 -0.9781 -0.3176  1.0461
  491MOL0     C67659  12.025   6.637   3.901 -0.5318  0.5112  0.6859
  491MOL0     C67660  12.129   6.586   3.809  0.8534  0.3627 -1.1670
  491MOL0     C67661  12.262   6.662   3.823 -0.5315  0.5220  0.7522
  491MOL0     C67662  12.393   6.578   3.795 -0.5745 -0.3924  0.1993
  491MOL0     C67663  12.521   6.663   3.826 -0.2426  0.3882 -0.4082
  491MOL0     C67664  12.589   6.742   3.710  0.6850  0.6356 -0.2338
  491MOL0    Cl67665  12.493   6.891   3.673  0.2548  0.0915  0.2143
  491MOL0     C67666  11.652   7.002   4.053  0.2218 -0.6549  0.0855
  491MOL0     C67667  11.529   7.071   4.089  0.9662  0.3897 -0.3229
  491MOL0     O67668  11.441   7.335   4.196 -0.1050  1.3943 -0.3123
  491MOL0     C67669  11.221   7.461   4.278  1.0995 -0.3292 -0.3135
  491MOL0     C67670  11.110   7.536   4.315 -1.2307 -0.4155 -0.3601
  491MOL0     N67671  10.555   7.508   4.057 -0.9198  0.2045 -0.0028
  491MOL0     N67672  10.510   7.446   3.943 -0.1609 -0.3264  0.2980
  491MOL0     C67673   9.840   7.564   3.024  0.5387 -0.1918 -0.1506
  491MOL0     C67674   9.724   7.570   2.946  0.6007 -0.1161  0.5487
  491MOL0     C67675   9.420   7.768   2.625  0.1881  1.1316  0.3339
  491MOL0     C67676   9.311   7.710   2.693  0.2952 -0.9052  0.0317
  491MOL0     C67677   9.180   7.725   2.659 -1.7107 -0.5034 -0.0122
  491MOL0     C67678   9.155   7.789   2.539  0.3512 -0.6207  0.3130
  491MOL0     O67679   9.032   7.830   2.504 -0.1030 -0.0822 -0.3332
  491MOL0     C67680   8.909   7.781   2.564  0.2491  0.0710 -0.0698
  491MOL0     C67681   8.871   7.636   2.525 -0.0689 -0.2767 -0.5040
  491MOL0     C67682   8.722   7.586   2.554  0.1598  0.3470  0.5083
  491MOL0     C67683   8.714   7.438   2.532 -0.7029  0.8740  0.6771
  491MOL0     C67684   8.576   7.405   2.556  0.1476 -0.2167  0.0846
  491MOL0     C67685   8.459   7.364   2.559 -0.6339  0.2615 -0.5807
  491MOL0     C67686   9.258   7.862   2.468 -0.8109 -1.1252 -0.5627
  491MOL0     C67687   9.395   7.847   2.511  0.3617  0.3003  0.2168
  491MOL0     C67688   9.485   7.957   2.466 -0.3665 -0.4843  0.0404
  491MOL0     H67689   9.759   7.864   2.791 -1.2059  0.5084  2.1962
  491MOL0     H67690   9.943   7.888   2.936 -1.1193  0.5647  0.5070
  491MOL0     H67691  10.136   7.835   3.099 -2.2198  1.0690 -2.2787
  491MOL0     H67692  10.166   7.752   2.936  0.3070 -0.6479  0.3508
  491MOL0     H67693  10.281   7.568   3.012  1.0532  0.5317 -0.3070
  491MOL0     H67694  10.356   7.718   3.018 -0.4609  0.4038 -1.4738
  491MOL0     H67695  10.337   7.737   3.265 -0.4451 -1.4467  2.9848
  491MOL0     H67696  10.218   7.608   3.268 -1.7580 -0.6203 -2.3492
  491MOL0     H67697  10.394   7.442   3.215  1.7957 -0.3304  1.0117
  491MOL0     H67698  10.495   7.572   3.154 -0.2218 -1.3391 -0.6702
  491MOL0     H67699  10.506   7.668   3.383  2.0812  0.2986 -0.2809
  491MOL0     H67700  10.578   7.512   3.365  2.0319  4.0304 -0.2580
  491MOL0     H67701  10.303   7.539   3.480  0.0262 -1.1750 -4.2894
  491MOL0     H67702  10.393   7.388   3.488 -3.0158  0.2276  0.2585
  491MOL0     H67703  10.489   7.632   3.637  4.7243 -0.2972 -1.9581
  491MOL0     H67704  10.551   7.465   3.651 -0.8497  0.2825  2.5875
  491MOL0     H67705  10.270   7.549   3.734 -0.2424  0.0893  4.1855
  491MOL0     H67706  10.341   7.381   3.732  0.7236 -0.8330 -1.0421
  491MOL0     H67707  10.358   7.729   3.906  0.8974  1.3146  2.5358
  491MOL0     H67708  10.402   7.787   4.155 -0.3833 -1.4625 -3.0009
  491MOL0     H67709  10.578   7.799   4.126 -0.3650 -0.5252 -1.4431
  491MOL0     H67710  10.464   7.733   4.380  1.6897 -0.7306  1.8215
  491MOL0     H67711  10.474   7.577   4.311  1.0860 -0.4880 -0.8798
  491MOL0     H67712  10.707   7.770   4.332  0.4130 -0.6739 -0.5076
  491MOL0     H67713  10.678   7.643   4.446  0.7150 -1.4445 -0.2963
  491MOL0     H67714  10.725   7.475   4.263  2.2248 -0.1354  1.5437
  491MOL0     H67715  10.767   7.605   4.152 -0.0125 -2.1860  0.3739
  491MOL0     H67716  10.880   7.418   4.109  0.2705 -1.0800 -0.9449
  491MOL0     H67717  11.145   7.358   3.890  2.6150 -1.5549  2.2480
  491MOL0     H67718  10.975   7.348   3.910 -1.0963  0.6737 -0.0108
  491MOL0     H67719  11.083   7.211   3.956  1.5015  0.6577 -0.5625
  491MOL0     H67720  11.471   7.209   3.781 -0.9336  0.0257  0.0192
  491MOL0     H67721  11.686   7.129   3.744  0.1383 -2.2364 -0.4425
  491MOL0     H67722  11.929   6.864   4.043 -0.8644 -0.3697  0.2650
  491MOL0     H67723  11.790   6.780   3.961 -0.4886 -1.0327 -2.7715
  491MOL0     H67724  11.949   6.775   3.758  2.7858  1.1017 -0.3240
  491MOL0     H67725  12.070   6.839   3.851 -0.2140 -1.5093  0.2880
  491MOL0     H67726  11.941   6.568   3.890  2.3272 -2.9253 -1.9173
  491MOL0     H67727  12.063   6.630   4.003  1.2791  3.1807  0.3218
  491MOL0     H67728  12.084   6.586   3.710 -0.4188  0.8036 -0.6080
  491MOL0     H67729  12.149   6.479   3.820  2.6604  0.6518 -1.1962
  491MOL0     H67730  12.272   6.739   3.745 -3.2613  1.2731  1.0543
  491MOL0     H67731  12.270   6.726   3.911  2.2946  2.5766 -0.8214
  491MOL0     H67732  12.387   6.538   3.693 -2.7839  0.5958 -0.1138
  491MOL0     H67733  12.391   6.488   3.858 -3.8943 -1.1024 -0.7071
  491MOL0     H67734  12.596   6.597   3.870 -0.9655  0.0507  0.3611
  491MOL0     H67735  12.488   6.723   3.911  0.9115  0.4679  0.0055
  491MOL0     H67736  12.602   6.681   3.620 -0.0334  2.5158 -1.6639
  491MOL0     H67737  12.692   6.761   3.740 -0.1868  0.1972  3.5850
  491MOL0     H67738  11.696   6.936   4.128  0.5717  0.3482  0.7778
  491MOL0     H67739  11.484   7.046   4.184 -0.7079  0.5624 -1.0308
  491MOL0     H67740  11.304   7.471   4.347  0.6319 -1.3027  0.4220
  491MOL0     H67741  11.130   7.603   4.398 -1.9367  1.3460 -1.5583
  491MOL0     H67742   9.868   7.488   3.096  3.4185  2.3931  1.7489
  491MOL0     H67743   9.655   7.487   2.960 -1.1943  1.4396  1.3992
  491MOL0     H67744   9.316   7.649   2.782 -1.3661  0.5384  1.1858
  491MOL0     H67745   9.095   7.680   2.708 -1.7276 -1.4056 -0.8454
  491MOL0     H67746   8.917   7.787   2.673  1.8084  0.6160 -0.1984
  491MOL0     H67747   8.826   7.848   2.541  0.3288  0.9298  1.9063
  491MOL0     H67748   8.930   7.566   2.585 -0.8546  1.4605  2.4631
  491MOL0     H67749   8.885   7.613   2.419  0.2290  1.4556 -0.8638
  491MOL0     H67750   8.690   7.602   2.657 -0.9408  0.0155  0.2280
  491MOL0     H67751   8.656   7.631   2.479  1.3479  0.1659 -0.6847
  491MOL0     H67752   8.768   7.372   2.600 -0.6280 -0.7538 -0.8860
  491MOL0     H67753   8.741   7.411   2.430 -3.4141  1.0180 -0.1532
  491MOL0     H67754   8.361   7.322   2.567 -0.1360 -0.5829  1.5872
  491MOL0     H67755   9.231   7.939   2.397 -0.8722 -0.9476 -0.3491
  491MOL0     H67756   9.510   7.929   2.363 -0.5534 -2.8434  0.5738
  491MOL0     H67757   9.436   8.055   2.457  0.9926  0.4987  2.3738
  491MOL0     H67758   9.571   7.981   2.529  1.1753 -2.2908 -1.2637
  492MOL0     O67759   4.984  11.449   9.032  0.2184  0.3401 -0.5981
  492MOL0     C67760   4.967  11.563   8.994  0.2018 -0.1895  0.1920
  492MOL0     O67761   5.058  11.659   9.026 -0.1498 -0.1076 -0.2760
  492MOL0     C67762   5.143  11.633   9.129 -0.1972  0.7844 -0.0437
  492MOL0     C67763   5.253  11.545   9.114  0.3072 -0.0292  0.0793
  492MOL0     C67764   5.363  11.528   9.208 -0.0690 -0.4886 -0.7226
  492MOL0     C67765   5.354  11.604   9.327  0.6058 -0.5770  0.5943
  492MOL0     O67766   5.444  11.594   9.431 -0.4002 -0.2375 -0.4167
  492MOL0     C67767   5.505  11.468   9.461  1.0098  0.1021 -0.4706
  492MOL0     C67768   5.394  11.376   9.515 -0.0445  0.3816  0.7701
  492MOL0     C67769   5.438  11.248   9.579 -0.4788 -0.5583 -0.3544
  492MOL0     C67770   5.517  11.145   9.490  0.6036 -0.7328  0.1902
  492MOL0     C67771   5.561  11.020   9.566 -0.0340  0.0257 -0.0904
  492MOL0     C67772   5.443  10.946   9.633  0.3946  0.1100  0.0867
  492MOL0     C67773   5.353  10.886   9.535  1.0584 -0.6471  0.2333
  492MOL0     C67774   5.249  10.777   9.578  0.9859  0.5503 -0.3783
  492MOL0     N67775   5.311  10.655   9.625 -0.3740  0.8131  0.0728
  492MOL0     C67776   5.397  10.580   9.552 -0.6523 -0.2041  0.6527
  492MOL0     C67777   5.431  10.475   9.631  0.1866 -0.1861 -0.5463
  492MOL0     C67778   5.520  10.355   9.587  0.1039 -0.3075  0.0826
  492MOL0     C67779   5.482  10.225   9.653  0.4850 -0.7741 -0.3082
  492MOL0     C67780   5.529  10.091   9.595 -0.4394 -0.5908 -0.4303
  492MOL0     C67781   5.438  10.043   9.475 -0.2430  0.2854 -0.4416
  492MOL0     O67782   5.305  10.036   9.516  0.5085 -0.2403 -0.8783
  492MOL0     C67783   5.230   9.936   9.461  0.3754  0.2460  0.1604
  492MOL0     C67784   5.259   9.872   9.336  0.4094  0.0688  0.2842
  492MOL0     C67785   5.182   9.763   9.289  0.1430 -0.3807  0.2101
  492MOL0     C67786   5.229   9.705   9.163 -0.1328  0.2729  0.0609
  492MOL0     C67787   5.065   9.717   9.366 -0.8100  0.5006  0.6931
  492MOL0     C67788   4.976   9.604   9.334  0.4837 -1.0785 -0.2698
  492MOL0     O67789   4.844   9.626   9.366  0.0117  0.1721 -0.2511
  492MOL0     C67790   4.755   9.520   9.392 -0.0105  0.8606 -0.2301
  492MOL0     C67791   4.670   9.546   9.503 -0.2737 -0.0445  0.7053
  492MOL0     C67792   4.573   9.452   9.537  0.1773 -0.5348  0.0384
  492MOL0     C67793   4.558   9.335   9.461  0.6819  0.2574 -0.1067
  492MOL0     O67794   4.440   9.259   9.483 -0.1373 -0.0093 -0.3681
  492MOL0     C67795   4.392   9.151   9.400  0.5654 -0.0946 -0.6396
  492MOL0     C67796   4.323   9.216   9.272 -0.9689 -0.9835 -0.2535
  492MOL0     C67797   4.231   9.116   9.192 -0.4499 -0.1753 -0.1496
  492MOL0     C67798   4.105   9.054   9.258 -0.0611  0.3075 -0.8539
  492MOL0     C67799   4.047   8.941   9.170  0.1089 -0.3165  0.6899
  492MOL0     C67800   3.930   8.864   9.248 -0.6781  0.2829  0.0930
  492MOL0     C67801   3.878   8.745   9.165  0.1635 -0.2311 -0.5628
  492MOL0     C67802   3.787   8.675   9.263 -0.3971  0.4251  0.7536
  492MOL0    Cl67803   3.693   8.540   9.183  0.0572  0.2161 -0.3086
  492MOL0     C67804   4.652   9.308   9.354  0.8099  0.3652 -0.0674
  492MOL0     C67805   4.750   9.397   9.323  0.4202 -0.3482 -0.2609
  492MOL0     O67806   5.033   9.498   9.304  0.7114  0.1880  0.5041
  492MOL0     C67807   5.050   9.773   9.487 -0.5649 -0.1045 -1.0772
  492MOL0     C67808   5.121   9.883   9.531 -0.7804 -0.8324 -0.5286
  492MOL0     N67809   5.371  10.499   9.756  0.0443 -0.1643  0.3658
  492MOL0     N67810   5.295  10.604   9.753 -0.5088  0.0231  0.8052
  492MOL0     C67811   5.246  11.695   9.341  0.0686 -0.5802  0.8571
  492MOL0     C67812   5.146  11.713   9.244  0.6240 -0.3518 -0.1598
  492MOL0     C67813   4.863  11.593   8.900  0.1309  0.3099 -0.1737
  492MOL0     C67814   4.834  11.728   8.886  0.6143  0.0148  0.6126
  492MOL0     C67815   4.725  11.773   8.805 -0.4108  0.1154 -0.7480
  492MOL0     C67816   4.635  11.684   8.745 -0.3531  0.5774 -0.6439
  492MOL0     O67817   4.541  11.729   8.661 -0.5318  0.1334  0.8090
  492MOL0     C67818   4.427  11.651   8.621  1.4709 -0.1893  0.3896
  492MOL0     C67819   4.293  11.726   8.598  0.6759  0.0178  0.9446
  492MOL0     C67820   4.304  11.839   8.486 -1.3494 -0.1245 -0.1262
  492MOL0     C67821   4.179  11.871   8.416 -0.3594 -0.6880  0.0141
  492MOL0     C67822   4.070  11.938   8.491  0.8750  0.1844  0.5730
  492MOL0     C67823   3.977  12.005   8.532  0.2636  0.7488 -0.0596
  492MOL0     C67824   4.662  11.547   8.763 -0.2778  0.3772 -0.9525
  492MOL0     C67825   4.774  11.502   8.838 -0.2748  0.3687  0.5340
  492MOL0     C67826   4.798  11.347   8.840 -0.4615 -0.3439 -0.9417
  492MOL0     H67827   5.241  11.478   9.030  0.5805 -0.8185  0.6545
  492MOL0     H67828   5.436  11.448   9.201 -0.7309 -1.3405  1.3872
  492MOL0     H67829   5.583  11.475   9.538 -0.0131 -0.0580  0.6117
  492MOL0     H67830   5.550  11.420   9.373  0.4128 -0.1790 -0.6268
  492MOL0     H67831   5.347  11.434   9.595 -1.5326  1.3424 -0.7347
  492MOL0     H67832   5.322  11.350   9.437 -3.2019  1.0414  3.2243
  492MOL0     H67833   5.493  11.274   9.670 -0.1860 -0.3272 -0.5959
  492MOL0     H67834   5.354  11.189   9.617  0.0513 -2.8804 -2.4871
  492MOL0     H67835   5.466  11.121   9.396 -0.0955  2.5315 -0.4098
  492MOL0     H67836   5.610  11.194   9.460  0.3001 -0.4491 -0.3096
  492MOL0     H67837   5.629  11.063   9.640  1.7417  0.4543 -1.8665
  492MOL0     H67838   5.615  10.954   9.498 -0.6674 -0.4845 -0.1065
  492MOL0     H67839   5.485  10.868   9.698  2.0569 -0.5791 -1.7239
  492MOL0     H67840   5.396  11.010   9.708 -0.7738 -3.0420  2.2888
  492MOL0     H67841   5.408  10.835   9.455 -1.3775 -0.7242 -1.4926
  492MOL0     H67842   5.289  10.963   9.491 -0.6226 -1.5374  1.0492
  492MOL0     H67843   5.178  10.808   9.655 -1.3932 -2.1991 -1.2495
  492MOL0     H67844   5.179  10.756   9.497  0.1606 -0.4831  0.5679
  492MOL0     H67845   5.437  10.616   9.458 -0.6702  0.1214  0.7669
  492MOL0     H67846   5.623  10.372   9.621 -0.0516 -1.5432  1.2481
  492MOL0     H67847   5.515  10.351   9.477  0.4948 -3.3682  0.1032
  492MOL0     H67848   5.512  10.232   9.758  1.0998 -1.3514 -0.4379
  492MOL0     H67849   5.374  10.235   9.646  0.3161  1.1885  3.0348
  492MOL0     H67850   5.637  10.099   9.579 -0.0740  0.1932  1.9090
  492MOL0     H67851   5.507  10.010   9.666  1.5830 -2.9995 -2.3788
  492MOL0     H67852   5.451  10.127   9.406 -3.8461  1.3662 -0.0425
  492MOL0     H67853   5.476   9.947   9.441  0.4376  0.1389  0.6749
  492MOL0     H67854   5.342   9.909   9.276  3.1641 -1.7952  2.6919
  492MOL0     H67855   5.240   9.598   9.185  0.3936  0.1715 -0.6780
  492MOL0     H67856   5.327   9.737   9.127 -0.1642  0.0140 -0.2612
  492MOL0     H67857   5.145   9.716   9.093 -0.9340  1.2120  1.1226
  492MOL0     H67858   4.693   9.637   9.556  0.1665  0.0421  0.3758
  492MOL0     H67859   4.514   9.460   9.628  0.8512  1.7993  0.3530
  492MOL0     H67860   4.463   9.070   9.381  2.3181  1.6855 -2.2077
  492MOL0     H67861   4.309   9.098   9.448  1.7352 -0.5911  0.9202
  492MOL0     H67862   4.275   9.306   9.313  0.5388 -0.1022 -0.3297
  492MOL0     H67863   4.411   9.239   9.211  0.3228  0.4945  2.0160
  492MOL0     H67864   4.290   9.029   9.162  0.3625 -0.0565  1.0324
  492MOL0     H67865   4.213   9.175   9.102 -1.6344  0.1884  0.3010
  492MOL0     H67866   4.033   9.134   9.277  0.7095  0.8144  0.0113
  492MOL0     H67867   4.140   9.013   9.353  0.5689  0.4294 -1.0245
  492MOL0     H67868   4.009   8.993   9.081  0.9997 -2.0212 -0.7428
  492MOL0     H67869   4.123   8.875   9.129  0.5974  1.0690 -0.7263
  492MOL0     H67870   3.853   8.938   9.269  0.4846  1.1955  1.3557
  492MOL0     H67871   3.974   8.818   9.337 -1.2998 -1.3003 -0.3902
  492MOL0     H67872   3.955   8.678   9.127  2.6261  3.2692 -2.2761
  492MOL0     H67873   3.814   8.781   9.084 -0.3022 -1.9036 -0.9836
  492MOL0     H67874   3.724   8.746   9.318  2.7060  3.8773  0.2883
  492MOL0     H67875   3.854   8.625   9.334 -0.7811  0.3881  1.0878
  492MOL0     H67876   4.637   9.221   9.291 -3.3350  0.5606  0.3374
  492MOL0     H67877   4.814   9.375   9.237  0.7230  0.6133 -0.2906
  492MOL0     H67878   4.956   9.751   9.536  0.1050  3.0531  1.9513
  492MOL0     H67879   5.075   9.946   9.607 -1.0696  1.4041 -2.4761
  492MOL0     H67880   5.244  11.766   9.423  2.2656 -1.1339  1.4353
  492MOL0     H67881   5.066  11.786   9.253 -0.2976 -0.9952 -2.4684
  492MOL0     H67882   4.894  11.802   8.938  0.4160  0.7268 -0.1603
  492MOL0     H67883   4.725  11.881   8.790  4.0803  0.6585  1.3329
  492MOL0     H67884   4.463  11.598   8.533  0.1753  0.5416 -0.6327
  492MOL0     H67885   4.405  11.580   8.700 -4.6122 -1.9032 -2.2586
  492MOL0     H67886   4.256  11.782   8.685  2.2870  3.4566 -0.4165
  492MOL0     H67887   4.220  11.655   8.558 -1.5649  3.1947 -1.0329
  492MOL0     H67888   4.355  11.930   8.522 -1.5597  0.1523 -0.5180
  492MOL0     H67889   4.371  11.798   8.410  1.0021  2.8218  0.1460
  492MOL0     H67890   4.131  11.783   8.371 -2.7902 -0.3118  1.6733
  492MOL0     H67891   4.201  11.936   8.331  0.0603  0.1674  0.7598
  492MOL0     H67892   3.894  12.058   8.574 -1.0984 -1.0955 -0.3222
  492MOL0     H67893   4.598  11.471   8.720  1.6479 -1.5629 -0.5788
  492MOL0     H67894   4.894  11.316   8.798 -0.5841 -0.1454 -1.3621
  492MOL0     H67895   4.805  11.323   8.947  0.3573  1.5692 -0.5229
  492MOL0     H67896   4.725  11.285   8.788 -0.6168 -1.4604  0.5403
  493MOL0     O67897   1.247   9.115   2.481 -0.0315 -0.1544 -1.1421
  493MOL0     C67898   1.310   9.099   2.379 -0.1507  0.2297  0.3290
  493MOL0     O67899   1.263   9.060   2.265 -0.1682  0.4705  0.2123
  493MOL0     C67900   1.137   9.046   2.227  0.2785  0.3536 -0.0632
  493MOL0     C67901   1.030   9.032   2.315 -0.0842 -0.4827  0.3681
  493MOL0     C67902   0.899   8.999   2.268 -0.1497 -0.6041  0.7606
  493MOL0     C67903   0.884   8.976   2.130  0.5153 -0.1195  0.4731
  493MOL0     O67904   0.765   8.927   2.076 -0.0280 -0.1899  0.2818
  493MOL0     C67905   0.656   8.881   2.164 -0.4556  0.0083 -0.3219
  493MOL0     C67906   0.553   8.791   2.091 -0.1733 -0.7746  0.3479
  493MOL0     C67907   0.603   8.648   2.099 -0.9701  0.3954 -0.5010
  493MOL0     C67908   0.493   8.553   2.047  0.8923  0.8593  0.4754
  493MOL0     C67909   0.522   8.399   2.063  0.9473 -0.0037 -0.5019
  493MOL0     C67910   0.422   8.320   1.978 -1.2699 -0.4891  0.0157
  493MOL0     C67911   0.452   8.175   1.975 -0.4272  0.0422  0.1109
  493MOL0     C67912   0.551   8.127   1.863  0.1993  0.5369  0.1721
  493MOL0     N67913   0.693   8.125   1.908  0.4022 -0.2804  0.0790
  493MOL0     C67914   0.745   8.053   2.013  1.0776  0.4552 -0.6287
  493MOL0     C67915   0.870   8.093   2.022  0.6886  0.7153 -0.4281
  493MOL0     C67916   0.956   8.054   2.139 -0.2239  0.1135 -0.7630
  493MOL0     C67917   1.098   8.034   2.090 -0.0244 -0.0724  0.6676
  493MOL0     C67918   1.202   7.977   2.192  0.6619  0.1495 -0.3817
  493MOL0     C67919   1.337   7.935   2.123 -0.1759 -1.5823  0.9793
  493MOL0     O67920   1.386   8.055   2.052 -0.3615  0.2488  0.6489
  493MOL0     C67921   1.489   8.110   2.118  0.0589 -1.4092  0.9231
  493MOL0     C67922   1.612   8.052   2.142 -0.1844 -0.1958 -1.1413
  493MOL0     C67923   1.707   8.118   2.221 -0.6039 -0.0084  0.2492
  493MOL0     C67924   1.839   8.044   2.221 -0.3951  0.4130 -0.2152
  493MOL0     C67925   1.679   8.247   2.276 -0.6341 -0.0423 -0.5316
  493MOL0     C67926   1.759   8.307   2.386  0.3683  0.2490 -0.2720
  493MOL0     O67927   1.851   8.224   2.441 -0.8047 -0.5571 -0.4397
  493MOL0     C67928   1.927   8.269   2.543  0.3321  1.3269  0.0177
  493MOL0     C67929   2.051   8.332   2.533 -0.4997  0.6565 -1.1218
  493MOL0     C67930   2.117   8.388   2.640 -0.2113  0.6020 -0.4318
  493MOL0     C67931   2.073   8.374   2.774 -0.1951  0.1905 -0.1373
  493MOL0     O67932   2.144   8.435   2.873  0.8234 -0.1302 -0.8152
  493MOL0     C67933   2.070   8.469   2.986 -0.5764  0.8104 -0.2348
  493MOL0     C67934   2.157   8.547   3.076 -0.0338 -0.1317  0.1716
  493MOL0     C67935   2.282   8.484   3.137 -0.4117  0.5995 -0.5855
  493MOL0     C67936   2.405   8.569   3.110  0.4196  0.9189 -0.0137
  493MOL0     C67937   2.542   8.503   3.123 -0.7090 -0.0053 -0.1815
  493MOL0     C67938   2.655   8.597   3.096  0.2209  0.2755 -0.2376
  493MOL0     C67939   2.669   8.692   3.216 -0.5068 -0.5489  0.2150
  493MOL0     C67940   2.765   8.807   3.182 -0.1815 -0.5290 -0.4647
  493MOL0    Cl67941   2.698   8.896   3.048 -0.0138 -1.1846  0.2536
  493MOL0     C67942   1.949   8.304   2.784 -0.7156 -0.0148  0.3153
  493MOL0     C67943   1.881   8.255   2.672 -0.5768 -1.2842 -0.7079
  493MOL0     O67944   1.746   8.427   2.400  0.5327 -0.5536 -0.2717
  493MOL0     C67945   1.555   8.301   2.256 -0.1507 -0.0322  0.5066
  493MOL0     C67946   1.457   8.234   2.184  0.3648  0.3604 -0.3332
  493MOL0     N67947   0.892   8.191   1.932 -0.0284  0.2136  1.4336
  493MOL0     N67948   0.788   8.202   1.855  0.6652  0.4819 -0.0746
  493MOL0     C67949   0.985   9.002   2.039 -0.2960  0.7198 -0.7134
  493MOL0     C67950   1.111   9.035   2.091  0.6312  0.3678  0.0179
  493MOL0     C67951   1.447   9.139   2.402 -0.1275 -0.0809  0.5903
  493MOL0     C67952   1.504   9.110   2.521 -0.2169  0.4847  0.6751
  493MOL0     C67953   1.630   9.156   2.559 -0.0711 -0.9393 -0.1423
  493MOL0     C67954   1.711   9.215   2.463 -0.5126 -0.7507  0.1623
  493MOL0     O67955   1.846   9.247   2.477  0.5307  0.3239  0.0715
  493MOL0     C67956   1.913   9.205   2.602 -0.0626  0.0473  0.1033
  493MOL0     C67957   2.005   9.316   2.640  0.1699  0.5438  0.5146
  493MOL0     C67958   2.094   9.268   2.763  0.6174 -0.5325  1.0582
  493MOL0     C67959   2.211   9.359   2.803 -0.2656 -0.1964  0.1305
  493MOL0     C67960   2.159   9.470   2.869  1.1122 -0.0724 -0.9909
  493MOL0     C67961   2.104   9.565   2.929 -0.5551 -0.8062  0.2475
  493MOL0     C67962   1.656   9.239   2.334  0.7027  0.4646 -0.2863
  493MOL0     C67963   1.527   9.201   2.305  0.1089 -0.0394 -0.0491
  493MOL0     C67964   1.477   9.229   2.163 -0.6196 -0.2587  0.3722
  493MOL0     H67965   1.042   9.053   2.420 -1.2236  0.3248  0.3653
  493MOL0     H67966   0.810   8.986   2.330 -1.9243 -1.2418 -1.7764
  493MOL0     H67967   0.596   8.970   2.188 -1.2082 -0.2182 -1.2996
  493MOL0     H67968   0.697   8.838   2.256  0.9392 -1.1914 -1.4570
  493MOL0     H67969   0.454   8.798   2.137 -0.9441 -0.6322 -1.2904
  493MOL0     H67970   0.540   8.820   1.987 -0.2791  0.2163  0.6226
  493MOL0     H67971   0.693   8.637   2.038 -1.7342  0.3162 -1.6385
  493MOL0     H67972   0.628   8.616   2.201 -1.4627 -1.0428 -0.8154
  493MOL0     H67973   0.396   8.574   2.095 -0.1166 -2.0467 -0.0521
  493MOL0     H67974   0.476   8.580   1.943  2.4627 -2.9417 -0.9305
  493MOL0     H67975   0.520   8.363   2.166  1.1705  1.9296  0.2192
  493MOL0     H67976   0.625   8.393   2.025  0.7353 -1.2441 -0.9173
  493MOL0     H67977   0.320   8.330   2.016 -2.8468 -1.0375 -3.5999
  493MOL0     H67978   0.403   8.375   1.885  1.6870  3.4127  1.4714
  493MOL0     H67979   0.357   8.122   1.974 -0.0343 -0.6713 -0.9989
  493MOL0     H67980   0.499   8.137   2.066  2.5890  0.7752 -1.0233
  493MOL0     H67981   0.518   8.029   1.827 -0.3465  1.6434 -2.6313
  493MOL0     H67982   0.529   8.187   1.774 -0.8334  0.8049  0.5830
  493MOL0     H67983   0.691   7.990   2.082 -2.0390  3.3462 -0.1293
  493MOL0     H67984   0.916   7.965   2.188 -1.6810  2.1361  1.9740
  493MOL0     H67985   0.953   8.141   2.205  0.5732 -0.8742  0.6164
  493MOL0     H67986   1.102   7.965   2.005  2.7553  1.5728 -0.6698
  493MOL0     H67987   1.130   8.129   2.047 -0.8401 -0.4431 -0.8374
  493MOL0     H67988   1.215   8.051   2.271 -2.2962  0.2118  0.1769
  493MOL0     H67989   1.167   7.886   2.239  1.2110  0.4810  0.6919
  493MOL0     H67990   1.400   7.885   2.196 -0.2932 -1.7920  0.9382
  493MOL0     H67991   1.315   7.868   2.039 -0.9812  0.4655 -0.5389
  493MOL0     H67992   1.633   7.958   2.092 -1.0987  0.1324 -2.1927
  493MOL0     H67993   1.861   8.016   2.324 -3.2637 -0.1763  0.3304
  493MOL0     H67994   1.919   8.103   2.176  2.9649 -4.1627 -0.9337
  493MOL0     H67995   1.833   7.950   2.166  1.6385  1.1733 -1.8854
  493MOL0     H67996   2.093   8.349   2.434  4.0562  0.4573  0.5822
  493MOL0     H67997   2.211   8.434   2.612  0.2728 -0.6355 -0.8634
  493MOL0     H67998   1.988   8.536   2.959 -0.8287 -0.2149 -2.2741
  493MOL0     H67999   2.033   8.386   3.047 -0.3863 -0.7924 -2.1606
  493MOL0     H68000   2.193   8.632   3.017 -0.9411  0.0825 -0.0927
  493MOL0     H68001   2.103   8.600   3.155 -1.6231 -1.5492  0.1069
  493MOL0     H68002   2.310   8.386   3.095  1.7632  0.6161  0.6827
  493MOL0     H68003   2.274   8.480   3.246 -0.7886 -0.1403 -0.6362
  493MOL0     H68004   2.394   8.654   3.178  1.1940 -0.1007  1.4399
  493MOL0     H68005   2.415   8.615   3.011  2.0598 -1.3192 -0.9838
  493MOL0     H68006   2.562   8.457   3.221  2.7128  0.5208 -0.5181
  493MOL0     H68007   2.549   8.419   3.053  2.2646  0.5267 -0.6149
  493MOL0     H68008   2.623   8.655   3.009  0.8151 -0.1158 -0.7292
  493MOL0     H68009   2.750   8.550   3.070  0.6042 -0.4272  2.2125
  493MOL0     H68010   2.696   8.641   3.309 -0.3291 -0.9813 -0.0685
  493MOL0     H68011   2.579   8.750   3.237  1.3864  1.9508  1.9807
  493MOL0     H68012   2.865   8.769   3.160  1.3674  2.9955 -0.1902
  493MOL0     H68013   2.769   8.891   3.252 -3.3825  2.4872 -3.5535
  493MOL0     H68014   1.901   8.278   2.878  0.9673 -4.6018  0.1595
  493MOL0     H68015   1.783   8.214   2.696 -1.3372  0.9292  0.2106
  493MOL0     H68016   1.525   8.397   2.297  0.7426  1.0817 -1.2816
  493MOL0     H68017   1.357   8.275   2.175  0.7605  1.5814  0.5016
  493MOL0     H68018   0.969   8.986   1.933 -0.2433  0.2413 -0.6546
  493MOL0     H68019   1.193   9.029   2.020 -0.0226 -0.0995 -0.7189
  493MOL0     H68020   1.461   9.046   2.597  2.1317 -0.3451  1.4226
  493MOL0     H68021   1.647   9.122   2.661  1.2179 -1.3991 -0.4913
  493MOL0     H68022   1.849   9.173   2.684 -0.1087  1.9646  0.8709
  493MOL0     H68023   1.964   9.114   2.569 -1.2776 -1.4287  2.0841
  493MOL0     H68024   1.950   9.406   2.666  1.0881  1.2642  0.0257
  493MOL0     H68025   2.076   9.342   2.561  0.3261  0.7795  0.7324
  493MOL0     H68026   2.026   9.251   2.847 -1.1527 -0.2341 -0.2484
  493MOL0     H68027   2.133   9.168   2.743 -1.1132 -1.3643  1.6347
  493MOL0     H68028   2.267   9.394   2.716  0.4912  0.6760  0.9503
  493MOL0     H68029   2.280   9.304   2.867 -1.7364 -0.1289  1.8503
  493MOL0     H68030   2.053   9.652   2.964  2.6434  0.7622  1.4791
  493MOL0     H68031   1.718   9.276   2.253  4.8256 -3.0110  0.9236
  493MOL0     H68032   1.397   9.299   2.189  0.0867  0.8350 -0.3369
  493MOL0     H68033   1.555   9.283   2.109 -1.8028  2.1863  0.9282
  493MOL0     H68034   1.453   9.140   2.104 -3.8477  1.2005 -0.7468
  494MOL0     O68035   2.908   3.379   3.606 -0.4997 -0.0808  0.1218
  494MOL0     C68036   2.989   3.314   3.674 -0.0810  0.5527 -0.2997
  494MOL0     O68037   2.998   3.176   3.685  0.3992 -0.9264  0.9907
  494MOL0     C68038   2.884   3.105   3.704  0.0674  0.3138  0.5417
  494MOL0     C68039   2.887   2.967   3.681 -0.2478 -0.1274 -0.2884
  494MOL0     C68040   2.782   2.884   3.702 -0.0581 -0.0073  0.1972
  494MOL0     C68041   2.657   2.940   3.747 -0.5437 -0.1483  0.2715
  494MOL0     O68042   2.546   2.862   3.758  0.0052  0.8679 -0.2156
  494MOL0     C68043   2.563   2.739   3.826  0.8736  0.3068  0.3356
  494MOL0     C68044   2.431   2.736   3.911 -0.2255  0.2625  0.6380
  494MOL0     C68045   2.322   2.705   3.806  1.2220  0.9544 -0.8175
  494MOL0     C68046   2.289   2.551   3.824  0.6547 -0.1173 -0.2626
  494MOL0     C68047   2.190   2.498   3.716  0.5626 -0.2233 -0.2826
  494MOL0     C68048   2.040   2.515   3.749  0.9767  0.1947 -0.9648
  494MOL0     C68049   2.001   2.415   3.855  0.0450 -0.4515  0.4837
  494MOL0     C68050   1.848   2.409   3.862 -0.3422  0.0501  0.6469
  494MOL0     N68051   1.810   2.279   3.911  0.3770  0.4994 -0.7899
  494MOL0     C68052   1.846   2.233   4.043 -0.0290  0.1224 -0.5327
  494MOL0     C68053   1.774   2.114   4.052 -0.5383  0.5297  0.8228
  494MOL0     C68054   1.786   2.007   4.159  0.2167 -0.3114  0.3120
  494MOL0     C68055   1.811   1.856   4.124 -0.4631 -0.4023  0.7840
  494MOL0     C68056   1.960   1.814   4.156  0.1853  0.1304  0.1896
  494MOL0     C68057   2.073   1.919   4.128  0.1540 -1.1234  0.5034
  494MOL0     O68058   2.205   1.857   4.140 -0.1718 -0.1539  0.3618
  494MOL0     C68059   2.317   1.942   4.148 -0.1857  0.4896  0.5085
  494MOL0     C68060   2.362   2.026   4.045 -0.0763  0.4140 -0.5705
  494MOL0     C68061   2.463   2.120   4.075 -0.5417  1.2761 -0.9407
  494MOL0     C68062   2.482   2.228   3.970 -0.0561 -0.0895  0.2293
  494MOL0     C68063   2.545   2.114   4.191  0.0080  0.3662  0.1377
  494MOL0     C68064   2.661   2.213   4.221 -0.0817 -0.0574 -0.2399
  494MOL0     O68065   2.720   2.177   4.340 -0.2862 -0.5464  0.4879
  494MOL0     C68066   2.824   2.254   4.370 -0.2542 -1.0900  0.1622
  494MOL0     C68067   2.824   2.353   4.464 -0.8088 -1.4236 -0.7027
  494MOL0     C68068   2.951   2.411   4.504 -0.3581  0.2907  0.2730
  494MOL0     C68069   3.063   2.386   4.441 -0.1339  0.9344  0.2640
  494MOL0     O68070   3.183   2.429   4.483 -0.1642  0.6500 -0.3809
  494MOL0     C68071   3.201   2.572   4.505  0.2642  0.2857 -0.0903
  494MOL0     C68072   3.351   2.609   4.525  0.5170  0.2170  0.2474
  494MOL0     C68073   3.460   2.528   4.458 -0.0616 -0.2606 -0.3826
  494MOL0     C68074   3.444   2.532   4.313  0.9018 -0.4040  0.1046
  494MOL0     C68075   3.569   2.464   4.247  0.9995 -0.0054  0.6554
  494MOL0     C68076   3.532   2.439   4.099 -0.1869  0.0293  0.2805
  494MOL0     C68077   3.650   2.399   4.017 -0.1918  0.3920 -0.0908
  494MOL0     C68078   3.606   2.395   3.867  0.8436 -0.1922 -0.7155
  494MOL0    Cl68079   3.737   2.428   3.750  0.2860  0.4048 -0.1847
  494MOL0     C68080   3.060   2.280   4.340  0.1034 -0.0719  0.1829
  494MOL0     C68081   2.945   2.221   4.310  0.1192  0.7380  0.8960
  494MOL0     O68082   2.676   2.323   4.165 -0.6120 -0.3465 -0.0250
  494MOL0     C68083   2.508   2.011   4.288  0.5178 -0.4075  0.3754
  494MOL0     C68084   2.399   1.926   4.266 -0.8190  0.2660  0.6553
  494MOL0     N68085   1.702   2.091   3.934 -0.7000  0.2155 -0.1756
  494MOL0     N68086   1.720   2.195   3.849  0.2092 -0.7756 -0.4176
  494MOL0     C68087   2.650   3.077   3.761  0.3337 -1.0793  0.0958
  494MOL0     C68088   2.765   3.154   3.753 -0.2845 -0.4123  0.4433
  494MOL0     C68089   3.069   3.386   3.770 -0.1738  0.8624  1.0676
  494MOL0     C68090   3.120   3.305   3.881 -0.7188  0.1190 -0.5893
  494MOL0     C68091   3.206   3.356   3.975  0.1496  0.3977  0.3026
  494MOL0     C68092   3.257   3.475   3.954 -0.0726 -1.7846 -0.1832
  494MOL0     O68093   3.360   3.533   4.020 -0.0955  0.3069  0.3210
  494MOL0     C68094   3.429   3.454   4.115 -0.2409  0.0738 -0.0856
  494MOL0     C68095   3.556   3.516   4.181  0.2089  0.3736 -0.0402
  494MOL0     C68096   3.677   3.530   4.070 -0.8202 -0.7471 -0.1109
  494MOL0     C68097   3.777   3.646   4.094  0.2477  0.3934  0.7461
  494MOL0     C68098   3.844   3.645   4.221  0.0380 -0.2641  0.5659
  494MOL0     C68099   3.918   3.632   4.316 -0.0728 -0.1588  0.1773
  494MOL0     C68100   3.195   3.562   3.863  0.1589  0.9699  0.3680
  494MOL0     C68101   3.099   3.519   3.765  0.0722  0.6140 -0.7133
  494MOL0     C68102   3.051   3.623   3.668  0.2568  0.3453  0.0855
  494MOL0     H68103   2.973   2.917   3.640 -0.4020 -0.0108 -0.7570
  494MOL0     H68104   2.790   2.777   3.681  1.3250  0.0084  0.5613
  494MOL0     H68105   2.653   2.719   3.884  0.9296 -0.6406 -0.0453
  494MOL0     H68106   2.562   2.652   3.759 -0.9010  1.0171 -0.6485
  494MOL0     H68107   2.432   2.674   4.001 -0.0431  0.9039  1.0870
  494MOL0     H68108   2.419   2.831   3.964 -3.3147 -0.9796  2.3911
  494MOL0     H68109   2.233   2.764   3.828  0.3449 -1.1721  2.0508
  494MOL0     H68110   2.356   2.734   3.706  0.0190  1.1709 -1.1782
  494MOL0     H68111   2.377   2.487   3.813  0.8275  0.2986 -1.4326
  494MOL0     H68112   2.248   2.543   3.925  0.3570 -2.1646 -0.4953
  494MOL0     H68113   2.199   2.391   3.691  1.7466  0.1567 -1.6132
  494MOL0     H68114   2.208   2.556   3.626 -1.2978  0.0374 -0.5113
  494MOL0     H68115   2.012   2.617   3.777  0.6440 -0.1810  0.1470
  494MOL0     H68116   2.000   2.490   3.651  0.6775 -2.3666 -0.2698
  494MOL0     H68117   2.046   2.445   3.950  1.1940 -3.2474  0.9336
  494MOL0     H68118   2.039   2.318   3.821  1.4513  0.6177 -1.1466
  494MOL0     H68119   1.819   2.491   3.929  0.5312  1.6733 -0.8785
  494MOL0     H68120   1.815   2.435   3.761 -0.2305  0.0728  0.6168
  494MOL0     H68121   1.900   2.288   4.119 -1.7166 -2.4175  2.7284
  494MOL0     H68122   1.687   2.000   4.206 -1.0333  0.0594 -2.1186
  494MOL0     H68123   1.852   2.048   4.236 -4.3281  3.3780  2.7738
  494MOL0     H68124   1.733   1.803   4.180 -0.0118  0.0855  1.9143
  494MOL0     H68125   1.799   1.833   4.018  1.8912  3.2139 -0.4199
  494MOL0     H68126   1.965   1.774   4.258 -3.4223  3.6728  2.0362
  494MOL0     H68127   1.972   1.728   4.091 -2.2874 -1.3137  1.4995
  494MOL0     H68128   2.046   1.967   4.033 -0.3618 -1.5772  0.4178
  494MOL0     H68129   2.071   1.996   4.206  0.6397 -0.0718 -0.4934
  494MOL0     H68130   2.312   2.028   3.949 -1.3267  0.2077  0.0677
  494MOL0     H68131   2.588   2.219   3.942  0.6354  4.5111  0.5098
  494MOL0     H68132   2.464   2.333   3.995  1.9095  0.6347 -1.1389
  494MOL0     H68133   2.412   2.215   3.888 -1.5751  0.8550  1.3322
  494MOL0     H68134   2.740   2.384   4.524 -1.1067  0.0738 -1.8216
  494MOL0     H68135   2.952   2.479   4.589 -0.7855 -0.6367  1.0424
  494MOL0     H68136   3.160   2.628   4.420  0.8295  1.5787  0.4566
  494MOL0     H68137   3.131   2.594   4.587  0.4195  0.8976 -0.1194
  494MOL0     H68138   3.364   2.717   4.515 -2.3001  0.4184 -3.0934
  494MOL0     H68139   3.372   2.592   4.631 -3.9036  0.1589  1.3123
  494MOL0     H68140   3.469   2.425   4.493  0.6133 -0.3946 -0.9458
  494MOL0     H68141   3.553   2.579   4.486 -1.7783  1.8616  1.9567
  494MOL0     H68142   3.438   2.639   4.290  3.0715  0.0270  1.2904
  494MOL0     H68143   3.355   2.471   4.294  0.7968 -0.8083  1.7972
  494MOL0     H68144   3.654   2.532   4.264 -0.2818  1.1896  2.7435
  494MOL0     H68145   3.598   2.366   4.284  3.3225  0.5901  0.5710
  494MOL0     H68146   3.496   2.535   4.058  1.5584  0.3824 -0.4960
  494MOL0     H68147   3.461   2.356   4.093 -2.7232  2.1422 -1.3905
  494MOL0     H68148   3.682   2.299   4.047 -2.7476  0.7748  4.7752
  494MOL0     H68149   3.735   2.467   4.023  0.4886 -0.4219 -0.2460
  494MOL0     H68150   3.536   2.478   3.858  2.2750  1.7878  3.6157
  494MOL0     H68151   3.535   2.313   3.848 -3.5579  3.2289 -0.6911
  494MOL0     H68152   3.150   2.249   4.288 -0.3024  1.4388 -1.5302
  494MOL0     H68153   2.956   2.138   4.242 -0.4966  0.7703  0.7499
  494MOL0     H68154   2.557   1.998   4.384 -1.1924 -1.3289  1.1554
  494MOL0     H68155   2.371   1.856   4.344 -1.6873  1.8758  1.8799
  494MOL0     H68156   2.553   3.115   3.791  0.9199  0.4181  0.1943
  494MOL0     H68157   2.762   3.255   3.795  0.2484  0.1442 -0.8106
  494MOL0     H68158   3.088   3.202   3.895 -3.8704  1.0156 -0.5550
  494MOL0     H68159   3.236   3.283   4.050 -1.5164 -0.6865 -0.0236
  494MOL0     H68160   3.364   3.439   4.201 -2.5403 -0.8494 -1.8616
  494MOL0     H68161   3.455   3.354   4.079  2.5698  0.8656 -0.5064
  494MOL0     H68162   3.595   3.454   4.262  0.2381  1.0577  0.4708
  494MOL0     H68163   3.526   3.614   4.218  1.9862  0.8476  0.2319
  494MOL0     H68164   3.738   3.439   4.073 -0.2080 -0.3351  0.1350
  494MOL0     H68165   3.636   3.547   3.970 -1.0455  0.1352  0.1172
  494MOL0     H68166   3.725   3.742   4.087  2.3975  1.7602  2.3307
  494MOL0     H68167   3.853   3.631   4.017 -0.1553 -2.1678  0.7562
  494MOL0     H68168   3.975   3.616   4.406  4.9321  4.4647 -1.5975
  494MOL0     H68169   3.235   3.663   3.860  0.2569  0.9096 -0.6284
  494MOL0     H68170   2.944   3.645   3.681  0.5500  0.6125  2.4445
  494MOL0     H68171   3.099   3.717   3.697  1.0997 -0.0378 -0.0453
  494MOL0     H68172   3.070   3.593   3.565  3.2652  2.5441 -0.1133
  495MOL0     O68173   5.656   2.346   1.493  0.5939 -0.6481  0.5618
  495MOL0     C68174   5.645   2.468   1.517 -0.9045 -0.0793 -0.1138
  495MOL0     O68175   5.735   2.564   1.492  0.3197  0.6971 -0.4320
  495MOL0     C68176   5.846   2.528   1.418  0.1916  0.2120  0.6140
  495MOL0     C68177   5.949   2.459   1.473  0.1554 -1.0506  0.1650
  495MOL0     C68178   6.064   2.427   1.397 -0.0187 -0.3518  0.0319
  495MOL0     C68179   6.066   2.463   1.256  0.6251 -0.0155  0.2991
  495MOL0     O68180   6.168   2.443   1.166  0.0413  0.1775  0.1815
  495MOL0     C68181   6.292   2.400   1.221 -0.6726  0.2690 -0.3346
  495MOL0     C68182   6.405   2.418   1.123 -0.1832  0.0199 -1.1441
  495MOL0     C68183   6.543   2.359   1.158 -0.8556 -0.5308  1.0500
  495MOL0     C68184   6.579   2.388   1.306 -0.4423 -0.8966  0.3423
  495MOL0     C68185   6.727   2.348   1.321 -1.3134 -0.8941 -0.0328
  495MOL0     C68186   6.771   2.344   1.467  0.1969 -0.1054  0.2899
  495MOL0     C68187   6.922   2.308   1.469 -0.7605 -0.0976 -0.9844
  495MOL0     C68188   6.965   2.361   1.612 -0.2717 -0.1290 -0.0742
  495MOL0     N68189   7.108   2.359   1.621  0.0654 -0.1195  0.6032
  495MOL0     C68190   7.177   2.443   1.698 -0.2185 -0.2939 -0.2751
  495MOL0     C68191   7.303   2.411   1.664  0.1822 -0.9572 -0.5013
  495MOL0     C68192   7.437   2.478   1.715 -0.9100 -0.1318  0.6849
  495MOL0     C68193   7.490   2.409   1.842  0.3353 -0.0163 -0.4154
  495MOL0     C68194   7.532   2.259   1.814  0.9371 -0.4790  0.2712
  495MOL0     C68195   7.573   2.183   1.941 -0.3051  0.2107 -0.5652
  495MOL0     O68196   7.608   2.054   1.900  0.1172 -0.2842  0.0881
  495MOL0     C68197   7.683   1.977   1.982  0.2726  0.4589 -0.8692
  495MOL0     C68198   7.749   1.875   1.924 -0.1667  0.1507 -0.8881
  495MOL0     C68199   7.832   1.790   1.990 -0.0498  0.5891  0.6697
  495MOL0     C68200   7.861   1.662   1.911 -0.5670  0.4130  0.1337
  495MOL0     C68201   7.864   1.810   2.123  0.2682 -0.0124  0.0167
  495MOL0     C68202   7.946   1.719   2.200  0.0163 -0.3882 -0.6111
  495MOL0     O68203   7.908   1.712   2.329  0.2046 -0.0331 -0.6754
  495MOL0     C68204   7.968   1.624   2.421  1.4110  1.1845  0.3118
  495MOL0     C68205   8.014   1.682   2.539 -0.3548 -0.0977  0.3730
  495MOL0     C68206   8.077   1.601   2.636  0.6478  0.0826  0.0521
  495MOL0     C68207   8.084   1.462   2.617  0.7082  0.5090  0.2765
  495MOL0     O68208   8.131   1.404   2.725  0.1109 -0.0686 -0.1964
  495MOL0     C68209   8.170   1.263   2.711 -0.0132  0.0367  0.2516
  495MOL0     C68210   8.261   1.216   2.824  0.3617 -0.8807 -1.2232
  495MOL0     C68211   8.188   1.231   2.961 -0.0239 -0.1499  0.1251
  495MOL0     C68212   8.286   1.199   3.068 -0.4163 -0.1254  0.0136
  495MOL0     C68213   8.405   1.306   3.086  0.3501  1.0302 -0.2061
  495MOL0     C68214   8.462   1.296   3.226  1.0623  0.6667  0.1849
  495MOL0     C68215   8.399   1.361   3.352  0.8759 -0.8727  0.0362
  495MOL0     C68216   8.452   1.501   3.360  0.0379 -0.5285  0.3457
  495MOL0    Cl68217   8.617   1.511   3.414 -0.1793 -0.1369 -0.4656
  495MOL0     C68218   8.032   1.403   2.499 -0.3931 -0.0272 -0.4597
  495MOL0     C68219   7.975   1.484   2.406  0.6345  0.0907  0.6415
  495MOL0     O68220   8.039   1.659   2.149  0.2039 -0.8002 -1.1874
  495MOL0     C68221   7.795   1.918   2.192  0.6407 -1.5104  0.2827
  495MOL0     C68222   7.713   1.992   2.116  0.0074 -0.3041 -0.6175
  495MOL0     N68223   7.303   2.301   1.576 -0.6296  0.2619 -0.1249
  495MOL0     N68224   7.183   2.276   1.548 -0.1499  0.2273 -0.2093
  495MOL0     C68225   5.965   2.545   1.212  0.4447 -0.0213 -0.1370
  495MOL0     C68226   5.857   2.578   1.291  0.4891  0.4769  0.8008
  495MOL0     C68227   5.501   2.503   1.566 -1.1768  0.0495 -0.0374
  495MOL0     C68228   5.395   2.430   1.513  0.0672 -0.0971  0.6603
  495MOL0     C68229   5.266   2.458   1.543  0.2985  0.2007  0.2306
  495MOL0     C68230   5.236   2.562   1.625  0.7751  0.7037 -0.4287
  495MOL0     O68231   5.099   2.567   1.644  1.1097 -0.1991 -0.0791
  495MOL0     C68232   5.018   2.669   1.692  0.7447  0.1565 -0.0064
  495MOL0     C68233   4.978   2.635   1.836  0.9012  0.1774 -0.2556
  495MOL0     C68234   4.877   2.741   1.888 -1.0470 -0.0279  0.2335
  495MOL0     C68235   4.945   2.875   1.919  0.4789 -0.1218  0.3677
  495MOL0     C68236   4.846   2.983   1.955 -0.2053 -0.3437  0.6442
  495MOL0     C68237   4.747   3.057   1.971 -0.0619 -0.8345 -0.3074
  495MOL0     C68238   5.332   2.648   1.665  0.9650  0.1595 -0.0655
  495MOL0     C68239   5.470   2.622   1.647  0.0509 -0.3607  0.3535
  495MOL0     C68240   5.567   2.710   1.700  0.5129 -0.5487  0.7815
  495MOL0     H68241   5.935   2.427   1.576 -1.0959 -0.3644  0.2236
  495MOL0     H68242   6.149   2.378   1.444  2.3042  2.8999 -0.4531
  495MOL0     H68243   6.281   2.294   1.246  0.9316  0.5350  1.8097
  495MOL0     H68244   6.313   2.453   1.315 -0.7866  0.5202 -0.4494
  495MOL0     H68245   6.373   2.364   1.033  0.3819 -3.0366  0.3796
  495MOL0     H68246   6.415   2.526   1.106 -0.7155 -0.0563 -2.0110
  495MOL0     H68247   6.544   2.253   1.131 -3.5294 -0.2137 -0.6746
  495MOL0     H68248   6.619   2.407   1.096 -2.3393  3.0728  1.7531
  495MOL0     H68249   6.561   2.491   1.337  0.2290 -1.4133  2.6789
  495MOL0     H68250   6.520   2.318   1.367  2.3972 -2.3661  1.6239
  495MOL0     H68251   6.788   2.422   1.268 -2.7068  1.5870  1.6318
  495MOL0     H68252   6.730   2.252   1.269 -0.6566 -0.0968 -1.5328
  495MOL0     H68253   6.753   2.442   1.514  2.4720  1.6305 -2.1852
  495MOL0     H68254   6.706   2.269   1.513 -2.2977  0.7271 -1.6351
  495MOL0     H68255   6.971   2.363   1.389 -2.1622  0.8075 -1.2569
  495MOL0     H68256   6.938   2.201   1.452  1.4547  0.0847 -0.3912
  495MOL0     H68257   6.930   2.460   1.643  0.1150 -0.3164  1.0173
  495MOL0     H68258   6.910   2.296   1.680 -1.0713  0.8851  0.2783
  495MOL0     H68259   7.138   2.516   1.769 -0.0423 -1.1876  0.7572
  495MOL0     H68260   7.421   2.584   1.738  0.5217  0.0360  0.9804
  495MOL0     H68261   7.515   2.467   1.639 -0.2221  3.5209  0.6701
  495MOL0     H68262   7.578   2.466   1.871  2.0920 -2.7404 -0.0701
  495MOL0     H68263   7.413   2.428   1.918  2.5950  2.2317  1.4619
  495MOL0     H68264   7.441   2.220   1.768  1.6684 -1.1220 -0.6807
  495MOL0     H68265   7.608   2.258   1.735  0.4419  2.1206 -0.3366
  495MOL0     H68266   7.670   2.219   1.976 -0.3163  0.3867 -0.7128
  495MOL0     H68267   7.491   2.192   2.013 -1.5906  1.9652 -2.1430
  495MOL0     H68268   7.732   1.858   1.818 -1.6595  0.7462 -0.7668
  495MOL0     H68269   7.784   1.585   1.926 -0.4536  0.3232  0.2577
  495MOL0     H68270   7.955   1.617   1.944 -0.5065  1.2182  1.0964
  495MOL0     H68271   7.860   1.684   1.804  1.1664 -2.3863 -0.5655
  495MOL0     H68272   8.013   1.790   2.554  1.6008 -0.2130  1.6907
  495MOL0     H68273   8.115   1.630   2.733  2.7238 -1.0497 -0.3612
  495MOL0     H68274   8.083   1.198   2.702  0.9498 -1.3727  0.7701
  495MOL0     H68275   8.233   1.249   2.622 -0.6306  1.7575 -0.4999
  495MOL0     H68276   8.302   1.116   2.814  1.8558 -0.5450  0.8340
  495MOL0     H68277   8.356   1.270   2.826 -0.6369  0.9438 -0.6807
  495MOL0     H68278   8.107   1.159   2.952 -1.7368  1.4738  1.7466
  495MOL0     H68279   8.157   1.335   2.977  3.2795  0.6285  2.7007
  495MOL0     H68280   8.331   1.103   3.042 -1.9391  0.1846 -4.7375
  495MOL0     H68281   8.234   1.187   3.163 -1.9611 -1.0081 -0.8962
  495MOL0     H68282   8.489   1.272   3.025  3.5148  1.1479  3.6508
  495MOL0     H68283   8.375   1.404   3.049 -0.5778  0.6133 -0.5871
  495MOL0     H68284   8.571   1.305   3.224  1.2485 -0.8665  1.5908
  495MOL0     H68285   8.450   1.190   3.252  1.5800  0.2042 -1.3130
  495MOL0     H68286   8.418   1.308   3.446 -1.5301 -1.9091 -0.0012
  495MOL0     H68287   8.292   1.366   3.333  1.2488 -1.5547 -2.6648
  495MOL0     H68288   8.407   1.561   3.440 -0.5047  0.6334 -0.8054
  495MOL0     H68289   8.439   1.558   3.268  3.5426 -1.8828 -1.1898
  495MOL0     H68290   8.033   1.295   2.483  0.6192  0.2265 -2.4432
  495MOL0     H68291   7.929   1.443   2.317 -3.2300 -0.0134  2.4609
  495MOL0     H68292   7.786   1.930   2.300  1.0144 -1.1710  0.2767
  495MOL0     H68293   7.653   2.071   2.161  0.1503  0.8541 -2.3697
  495MOL0     H68294   5.964   2.589   1.113  1.3578  0.9733  0.2848
  495MOL0     H68295   5.771   2.630   1.250 -0.9828  1.6517  4.9070
  495MOL0     H68296   5.406   2.350   1.440 -2.1285 -1.4202  1.6845
  495MOL0     H68297   5.179   2.399   1.516  1.3315 -1.7284  0.9062
  495MOL0     H68298   5.073   2.763   1.691 -1.2347  1.4348  2.1758
  495MOL0     H68299   4.923   2.681   1.639  0.1913 -1.5018  0.5427
  495MOL0     H68300   5.056   2.650   1.911 -1.5266  1.7615  2.1205
  495MOL0     H68301   4.933   2.535   1.834  0.3100  0.4214  0.5294
  495MOL0     H68302   4.801   2.763   1.812  0.0923  1.4500 -0.5404
  495MOL0     H68303   4.830   2.695   1.975 -1.0823 -1.1884 -0.3774
  495MOL0     H68304   5.000   2.910   1.832 -1.4254  0.8487 -0.5076
  495MOL0     H68305   5.012   2.854   2.003  2.8523  2.1306 -0.8447
  495MOL0     H68306   4.660   3.120   1.977  1.3829  1.2684 -0.5337
  495MOL0     H68307   5.296   2.734   1.720 -2.5448 -2.6496  2.4459
  495MOL0     H68308   5.636   2.739   1.620  0.8249 -2.7980  0.1409
  495MOL0     H68309   5.530   2.802   1.746  0.8845 -0.8395  1.6857
  495MOL0     H68310   5.618   2.660   1.784 -1.0152 -0.7510  1.6307
  496MOL0     O68311   2.845   0.776   5.130  0.7450 -0.0547 -0.0595
  496MOL0     C68312   2.796   0.821   5.025 -0.0062  1.0055 -0.3777
  496MOL0     O68313   2.833   0.929   4.956  0.2446 -0.3970  1.2670
  496MOL0     C68314   2.912   1.032   5.001 -0.6658  0.8491 -0.3238
  496MOL0     C68315   2.881   1.170   4.977  0.2202  0.4177 -0.3862
  496MOL0     C68316   2.958   1.274   5.035 -0.9737  0.5605 -0.3478
  496MOL0     C68317   3.049   1.240   5.133 -0.4616 -0.1091  0.5389
  496MOL0     O68318   3.145   1.333   5.180 -0.6542 -0.1952 -0.0392
  496MOL0     C68319   3.220   1.404   5.077  0.3668  0.8577  0.0316
  496MOL0     C68320   3.346   1.479   5.131  0.2724 -0.1512 -0.0658
  496MOL0     C68321   3.320   1.607   5.205  0.6734  0.2843  0.1126
  496MOL0     C68322   3.328   1.576   5.352 -0.2178 -0.0708 -0.1152
  496MOL0     C68323   3.474   1.561   5.393 -0.2986  0.3414 -0.1483
  496MOL0     C68324   3.492   1.521   5.536  0.2902  0.1644 -0.0439
  496MOL0     C68325   3.632   1.523   5.590 -0.7383  0.9507  0.0137
  496MOL0     C68326   3.641   1.509   5.742  0.0518  0.3984  0.8288
  496MOL0     N68327   3.785   1.519   5.774 -0.3866 -0.2038 -0.0052
  496MOL0     C68328   3.843   1.602   5.865 -0.5504  1.1854  1.4738
  496MOL0     C68329   3.973   1.563   5.866  0.5073  0.0270  0.3462
  496MOL0     C68330   4.088   1.626   5.929  0.3617 -0.4161  0.5121
  496MOL0     C68331   4.135   1.760   5.876  0.0988 -0.6666 -0.6429
  496MOL0     C68332   4.258   1.824   5.954 -0.2611 -0.4702 -0.5870
  496MOL0     C68333   4.363   1.734   6.010  0.1707  0.5234 -0.8544
  496MOL0     O68334   4.296   1.660   6.118  0.0142 -0.0389 -0.4386
  496MOL0     C68335   4.374   1.573   6.192  0.0043  0.3003  0.9771
  496MOL0     C68336   4.325   1.508   6.300 -0.4176 -0.6420 -0.5163
  496MOL0     C68337   4.411   1.419   6.383  0.6073 -0.5281 -0.0681
  496MOL0     C68338   4.358   1.347   6.504  0.0289  0.5023  0.4850
  496MOL0     C68339   4.542   1.389   6.343 -0.5961  0.4383 -0.2706
  496MOL0     C68340   4.648   1.301   6.403 -0.2067 -0.4467 -0.4800
  496MOL0     O68341   4.747   1.252   6.328 -0.1052  1.0702  0.1965
  496MOL0     C68342   4.835   1.171   6.384 -0.4997 -0.6703  0.1420
  496MOL0     C68343   4.967   1.218   6.407  0.1627  0.8655  0.1402
  496MOL0     C68344   5.056   1.144   6.487  0.8591 -0.7423  0.6752
  496MOL0     C68345   5.012   1.030   6.547  1.1541  0.7497 -0.1488
  496MOL0     O68346   5.081   0.941   6.634  0.5162  0.1118  0.2983
  496MOL0     C68347   5.186   1.000   6.704  0.6903  0.0874 -0.5749
  496MOL0     C68348   5.311   0.928   6.657 -0.2547 -0.1496  0.0986
  496MOL0     C68349   5.433   0.995   6.725  0.3247  0.1055 -0.9511
  496MOL0     C68350   5.557   0.902   6.692  0.1136 -0.2152 -0.6977
  496MOL0     C68351   5.685   0.965   6.752  0.8233  0.0242  0.5139
  496MOL0     C68352   5.799   0.874   6.711  0.7234 -0.5275  0.2266
  496MOL0     C68353   5.920   0.894   6.806 -0.1832 -0.3761  0.2650
  496MOL0     C68354   5.965   1.036   6.825  0.7009  0.1500 -0.0689
  496MOL0    Cl68355   6.004   1.128   6.677 -0.2392  0.5880  0.1258
  496MOL0     C68356   4.891   0.970   6.507 -1.4021 -0.1877  0.3436
  496MOL0     C68357   4.803   1.045   6.430  0.3074  0.1673  0.5643
  496MOL0     O68358   4.643   1.288   6.524 -0.1608  0.2736 -0.9898
  496MOL0     C68359   4.580   1.452   6.229  0.2548  0.3283  0.9896
  496MOL0     C68360   4.508   1.548   6.153  0.0649  0.4691  0.1292
  496MOL0     N68361   3.988   1.462   5.775 -0.7287  0.2355  0.4109
  496MOL0     N68362   3.876   1.423   5.741  0.3726  0.4137 -0.5526
  496MOL0     C68363   3.083   1.100   5.153  0.1431  0.0706 -0.3899
  496MOL0     C68364   3.013   1.006   5.091  0.2460  1.1639  0.4745
  496MOL0     C68365   2.688   0.739   4.960  0.8013 -0.1646 -0.1400
  496MOL0     C68366   2.696   0.735   4.820  0.1689 -0.6052  0.4264
  496MOL0     C68367   2.579   0.698   4.744 -0.5347  0.1671 -1.2502
  496MOL0     C68368   2.459   0.664   4.806  0.0385 -0.4821 -0.5282
  496MOL0     O68369   2.345   0.620   4.748  0.9086 -0.0711  0.5162
  496MOL0     C68370   2.360   0.597   4.611 -0.3208  0.0912 -0.1172
  496MOL0     C68371   2.230   0.527   4.567  0.3452 -0.3516  0.8560
  496MOL0     C68372   2.231   0.505   4.415 -0.2433  0.0429 -0.6877
  496MOL0     C68373   2.140   0.405   4.354 -0.8150 -0.1100  0.7392
  496MOL0     C68374   2.003   0.446   4.376 -0.7468  0.1919 -0.0593
  496MOL0     C68375   1.881   0.445   4.376 -0.7514 -0.0083  0.2330
  496MOL0     C68376   2.451   0.675   4.945  0.8560  0.4878  0.8879
  496MOL0     C68377   2.561   0.716   5.023  0.4684  0.7671  0.2710
  496MOL0     C68378   2.549   0.715   5.174  0.0586  0.0692  0.2264
  496MOL0     H68379   2.798   1.189   4.911  1.0398  0.6854 -1.3698
  496MOL0     H68380   2.928   1.375   5.006 -0.2858  1.0822  0.6833
  496MOL0     H68381   3.161   1.469   5.013 -1.0494 -0.0185  0.4078
  496MOL0     H68382   3.261   1.332   5.005  0.6222  0.4693  0.5534
  496MOL0     H68383   3.399   1.406   5.194  2.2380  2.2729  1.2595
  496MOL0     H68384   3.409   1.509   5.047  0.7751  1.4077  0.8474
  496MOL0     H68385   3.380   1.691   5.170 -1.6233  3.0596  2.3388
  496MOL0     H68386   3.214   1.626   5.185  0.2433 -1.4538  0.5706
  496MOL0     H68387   3.292   1.665   5.406 -2.2809  0.7216 -2.6045
  496MOL0     H68388   3.262   1.491   5.371 -0.8403  0.2350 -0.8276
  496MOL0     H68389   3.524   1.657   5.385 -1.5898  1.2345  1.7372
  496MOL0     H68390   3.524   1.488   5.328 -0.6725 -0.0059 -0.0526
  496MOL0     H68391   3.421   1.574   5.600  1.4659  3.0411 -0.9441
  496MOL0     H68392   3.463   1.419   5.562  0.0626  0.0012 -0.9032
  496MOL0     H68393   3.684   1.614   5.557  1.7332  0.5006  2.4106
  496MOL0     H68394   3.695   1.445   5.547  0.1850 -0.8255  4.1395
  496MOL0     H68395   3.578   1.588   5.784  0.1418  1.6595 -1.2581
  496MOL0     H68396   3.601   1.411   5.767  1.9635 -1.5119 -2.8094
  496MOL0     H68397   3.803   1.690   5.915 -3.3865  0.6724  0.3288
  496MOL0     H68398   4.170   1.555   5.913  1.2503  0.8263 -0.5898
  496MOL0     H68399   4.068   1.634   6.036 -0.0436 -0.0318  0.4096
  496MOL0     H68400   4.182   1.739   5.779 -0.0516  2.6381 -1.5732
  496MOL0     H68401   4.047   1.821   5.851 -1.5074 -2.6064  0.0368
  496MOL0     H68402   4.309   1.892   5.886  0.8752  0.8137  1.4363
  496MOL0     H68403   4.222   1.887   6.037 -0.8292 -1.5516  0.0113
  496MOL0     H68404   4.401   1.678   5.924  3.8621  2.3252 -0.5630
  496MOL0     H68405   4.441   1.792   6.058 -0.1524 -0.2437  0.6630
  496MOL0     H68406   4.228   1.529   6.344 -1.1035 -1.1371 -1.7512
  496MOL0     H68407   4.250   1.368   6.501  0.1073  0.9208  0.4497
  496MOL0     H68408   4.393   1.389   6.599 -1.8388  1.5889  0.7489
  496MOL0     H68409   4.375   1.239   6.502 -0.3577  0.2105  4.2022
  496MOL0     H68410   4.989   1.314   6.360  0.7078  0.2376 -0.9356
  496MOL0     H68411   5.157   1.177   6.509  1.0488 -0.9505  0.1298
  496MOL0     H68412   5.191   1.109   6.695  0.1889  0.0420 -1.5912
  496MOL0     H68413   5.159   0.990   6.810  1.9564  2.1512 -0.0019
  496MOL0     H68414   5.297   0.820   6.667 -1.2401  0.0991  1.9250
  496MOL0     H68415   5.311   0.955   6.551 -3.0837  2.1959  0.5486
  496MOL0     H68416   5.412   0.994   6.833 -0.5990 -0.2236 -1.1199
  496MOL0     H68417   5.445   1.097   6.690 -3.6859  0.2793 -2.3579
  496MOL0     H68418   5.570   0.911   6.584  1.6651  0.8991 -0.4382
  496MOL0     H68419   5.539   0.795   6.710 -2.5401  0.0794 -1.1142
  496MOL0     H68420   5.690   1.057   6.693  0.3999 -1.8301 -2.6488
  496MOL0     H68421   5.669   0.983   6.859 -0.4431 -1.4471  0.6013
  496MOL0     H68422   5.823   0.877   6.604 -0.7689 -5.1821 -0.4583
  496MOL0     H68423   5.766   0.771   6.726  1.9130 -1.0032 -0.2775
  496MOL0     H68424   6.006   0.832   6.781  2.2142  3.2466 -1.3290
  496MOL0     H68425   5.904   0.870   6.911  2.8429  1.1582  1.1840
  496MOL0     H68426   6.050   1.029   6.894 -0.6939 -2.7318  1.5717
  496MOL0     H68427   5.886   1.096   6.871  0.2810 -0.1631 -0.3676
  496MOL0     H68428   4.873   0.871   6.548 -0.4424  0.1550  1.6748
  496MOL0     H68429   4.700   1.011   6.424 -1.2253  3.9786  2.0803
  496MOL0     H68430   4.683   1.434   6.198 -0.6654 -7.0332  0.4684
  496MOL0     H68431   4.549   1.611   6.075 -0.3686  2.8116  1.6713
  496MOL0     H68432   3.161   1.055   5.214  1.4418 -2.9820 -3.9208
  496MOL0     H68433   3.040   0.902   5.104  2.6265  1.8579  1.5464
  496MOL0     H68434   2.785   0.769   4.767 -2.2520 -0.3403 -3.8991
  496MOL0     H68435   2.591   0.674   4.639 -3.3235 -0.8712 -1.4070
  496MOL0     H68436   2.393   0.688   4.561  2.5226 -0.2173  1.0318
  496MOL0     H68437   2.431   0.518   4.586 -0.6934 -0.1646 -0.3826
  496MOL0     H68438   2.145   0.590   4.594 -2.1654 -2.2096 -1.9900
  496MOL0     H68439   2.225   0.438   4.631  0.8862  0.1006  1.5352
  496MOL0     H68440   2.204   0.598   4.365 -0.8468  0.1354 -0.1945
  496MOL0     H68441   2.335   0.487   4.388  0.4012  3.5433 -0.9698
  496MOL0     H68442   2.171   0.302   4.371  3.8921  0.8624 -0.4509
  496MOL0     H68443   2.148   0.417   4.246 -0.0395 -1.9549  0.5665
  496MOL0     H68444   1.776   0.423   4.372 -0.0611 -4.3204  0.6269
  496MOL0     H68445   2.365   0.632   4.995 -0.1417  3.3928  1.8537
  496MOL0     H68446   2.446   0.736   5.206  0.4811  2.8531  0.0241
  496MOL0     H68447   2.576   0.620   5.222 -0.9954 -0.0295  0.6527
  496MOL0     H68448   2.603   0.794   5.226  0.6512 -0.8481  1.0395
  497MOL0     O68449   1.237   0.801   7.450 -0.9703 -1.0383 -0.4593
  497MOL0     C68450   1.245   0.770   7.565  1.0031 -1.0680 -0.8100
  497MOL0     O68451   1.154   0.822   7.654 -0.4051 -0.4489 -0.2730
  497MOL0     C68452   1.047   0.900   7.618  0.5963 -0.7136 -0.5428
  497MOL0     C68453   1.067   1.005   7.530  0.0192 -0.3679 -0.0156
  497MOL0     C68454   0.976   1.106   7.509  0.0520 -0.4737  0.6835
  497MOL0     C68455   0.854   1.102   7.574  0.1725  0.2267  0.3682
  497MOL0     O68456   0.774   1.211   7.548  0.0996 -0.0238  0.7655
  497MOL0     C68457   0.690   1.258   7.656 -0.2308 -0.2694 -0.7368
  497MOL0     C68458   0.678   1.418   7.660 -1.3628  0.2460  1.0534
  497MOL0     C68459   0.814   1.495   7.643 -0.7164 -0.2119 -0.1507
  497MOL0     C68460   0.809   1.651   7.635  0.1847  0.4597  0.3946
  497MOL0     C68461   0.935   1.711   7.587  0.3873  1.1625  0.0792
  497MOL0     C68462   1.044   1.698   7.702 -0.1284 -1.0267 -0.2755
  497MOL0     C68463   1.185   1.688   7.647  0.1124  0.1351  0.3612
  497MOL0     C68464   1.222   1.543   7.602 -0.3384  0.0362 -0.4142
  497MOL0     N68465   1.222   1.443   7.706  0.9574 -0.3386  0.0967
  497MOL0     C68466   1.230   1.322   7.659  0.3799  0.9731  0.1722
  497MOL0     C68467   1.262   1.256   7.772  0.9474  0.8746  0.5455
  497MOL0     C68468   1.300   1.103   7.772  0.3872 -0.8745  0.1093
  497MOL0     C68469   1.421   1.089   7.861  0.2167  0.5500 -0.6861
  497MOL0     C68470   1.464   0.949   7.871 -0.2224  0.5735 -1.0162
  497MOL0     C68471   1.584   0.922   7.960  0.7331  0.4461  0.6336
  497MOL0     O68472   1.633   0.789   7.943 -0.8602  0.6693 -0.8151
  497MOL0     C68473   1.757   0.753   7.997 -0.0314 -0.6435 -0.0969
  497MOL0     C68474   1.801   0.621   7.975 -0.6955 -0.2456 -0.0050
  497MOL0     C68475   1.938   0.593   8.015 -0.0979 -0.0517  0.3843
  497MOL0     C68476   1.968   0.451   7.994 -0.6727 -0.4256 -1.2840
  497MOL0     C68477   2.021   0.681   8.081 -0.3471 -1.2396 -1.0475
  497MOL0     C68478   2.150   0.652   8.132 -0.0970  0.0924 -0.5005
  497MOL0     O68479   2.198   0.721   8.246 -0.2387  1.3889  0.0099
  497MOL0     C68480   2.317   0.694   8.320 -0.3440  0.5205 -0.1224
  497MOL0     C68481   2.320   0.707   8.459 -0.3652  0.7572  1.2612
  497MOL0     C68482   2.435   0.693   8.531 -0.0876  0.6393  0.2574
  497MOL0     C68483   2.553   0.650   8.469  0.3911  0.0737  0.1152
  497MOL0     O68484   2.674   0.635   8.524 -0.5528  0.3705  0.4125
  497MOL0     C68485   2.672   0.618   8.665 -0.0556  0.5776 -1.1102
  497MOL0     C68486   2.812   0.592   8.717 -0.3319 -0.0089  1.4914
  497MOL0     C68487   2.924   0.683   8.670  0.9362 -0.7565 -0.3534
  497MOL0     C68488   2.995   0.659   8.533  0.1882  0.1997  0.0751
  497MOL0     C68489   3.117   0.743   8.504  0.4072  0.0947 -0.6079
  497MOL0     C68490   3.084   0.899   8.510  0.5924  0.1470 -0.0497
  497MOL0     C68491   3.194   0.980   8.439 -0.0949  0.4966 -0.1353
  497MOL0     C68492   3.174   1.133   8.444  0.3947  0.7793 -0.2227
  497MOL0    Cl68493   3.313   1.202   8.374  0.6661 -0.2963 -0.1106
  497MOL0     C68494   2.543   0.629   8.331 -0.0802 -0.3920 -0.3695
  497MOL0     C68495   2.433   0.653   8.249 -0.3527  0.6093 -0.1103
  497MOL0     O68496   2.223   0.575   8.068  0.1486  1.0026 -0.4067
  497MOL0     C68497   1.976   0.816   8.094  0.1002 -0.6195 -0.2197
  497MOL0     C68498   1.849   0.850   8.042 -0.2976 -0.7442  0.3346
  497MOL0     N68499   1.270   1.338   7.884  0.0754  0.0332  0.4086
  497MOL0     N68500   1.253   1.461   7.838 -0.0274  0.5843 -0.5897
  497MOL0     C68501   0.824   0.990   7.659 -0.3340 -1.1329 -0.8478
  497MOL0     C68502   0.925   0.899   7.688 -0.3288 -0.6107 -0.8691
  497MOL0     C68503   1.346   0.684   7.612 -1.1147  0.4453 -0.4103
  497MOL0     C68504   1.370   0.661   7.754  0.4451  0.7113  0.0718
  497MOL0     C68505   1.459   0.559   7.800 -0.3504 -0.2028 -1.5172
  497MOL0     C68506   1.523   0.479   7.709  0.3169 -0.2277 -0.0030
  497MOL0     O68507   1.596   0.375   7.759  0.3027  0.1087  0.4962
  497MOL0     C68508   1.564   0.249   7.712 -0.1660 -0.8228 -0.9642
  497MOL0     C68509   1.671   0.147   7.749  0.3094 -0.8297 -0.3010
  497MOL0     C68510   1.807   0.184   7.709 -0.0892 -0.2777  0.0623
  497MOL0     C68511   1.911   0.098   7.788  0.8439  0.0368  0.6193
  497MOL0     C68512   1.936   0.129   7.929  0.0176 -0.2914 -0.1897
  497MOL0     C68513   1.955   0.156   8.044 -0.1672 -0.1969  0.1392
  497MOL0     C68514   1.513   0.510   7.578  0.3144 -0.3943 -0.3931
  497MOL0     C68515   1.434   0.611   7.525  0.4419  0.7731  0.2426
  497MOL0     C68516   1.433   0.623   7.372 -0.1484 -0.2495  0.1060
  497MOL0     H68517   1.167   1.023   7.492 -0.8461  2.5307 -1.1549
  497MOL0     H68518   0.993   1.178   7.429  1.9604 -1.5749  0.0343
  497MOL0     H68519   0.739   1.246   7.753 -2.6302 -0.8786  0.4922
  497MOL0     H68520   0.594   1.206   7.666  0.7726 -2.0667  0.0760
  497MOL0     H68521   0.608   1.440   7.578 -0.6006 -2.6009 -0.4876
  497MOL0     H68522   0.630   1.457   7.750 -1.4401  0.0964  1.0769
  497MOL0     H68523   0.890   1.480   7.720  2.4139  4.6318 -1.8474
  497MOL0     H68524   0.875   1.456   7.561  0.7321 -0.5466  1.0339
  497MOL0     H68525   0.731   1.670   7.561  1.7451  1.5388 -1.0315
  497MOL0     H68526   0.793   1.679   7.740  0.4677 -0.3376  0.6566
  497MOL0     H68527   0.926   1.819   7.575  0.2624  1.2839  1.1772
  497MOL0     H68528   0.973   1.662   7.497 -0.1941  2.5993 -0.9740
  497MOL0     H68529   1.050   1.788   7.764  1.6210 -0.7470 -0.7984
  497MOL0     H68530   1.033   1.617   7.775 -1.9430  0.2250  0.9321
  497MOL0     H68531   1.257   1.713   7.726 -0.3701  0.9869  0.5487
  497MOL0     H68532   1.215   1.760   7.570 -1.0250 -0.9808 -1.1974
  497MOL0     H68533   1.157   1.521   7.517  0.5820  0.1126 -1.1497
  497MOL0     H68534   1.324   1.551   7.563 -0.2584  0.5138 -0.1145
  497MOL0     H68535   1.231   1.291   7.555 -1.5848  1.8409 -0.1414
  497MOL0     H68536   1.320   1.082   7.666 -1.2140 -0.1456 -0.3714
  497MOL0     H68537   1.216   1.042   7.805  2.5862 -4.0758  0.2817
  497MOL0     H68538   1.496   1.155   7.817  0.2041 -1.6250 -4.3967
  497MOL0     H68539   1.399   1.123   7.963 -1.7733  0.1182 -0.9206
  497MOL0     H68540   1.382   0.885   7.906  2.4911 -3.5629 -1.5487
  497MOL0     H68541   1.483   0.900   7.775 -2.5613 -0.5503 -0.9832
  497MOL0     H68542   1.669   0.984   7.929  2.6360 -2.9691 -1.7643
  497MOL0     H68543   1.556   0.932   8.065  0.6684 -1.2563  0.8018
  497MOL0     H68544   1.735   0.547   7.932 -3.0264 -0.8408  4.0929
  497MOL0     H68545   2.016   0.412   8.085 -0.1845 -0.6551 -1.6362
  497MOL0     H68546   2.044   0.439   7.916  1.1421  1.9358 -0.0118
  497MOL0     H68547   1.878   0.395   7.970  0.3760 -3.4219  1.0639
  497MOL0     H68548   2.222   0.717   8.504 -0.8481 -3.6857  1.6244
  497MOL0     H68549   2.437   0.708   8.638  0.4148  1.1182  0.1845
  497MOL0     H68550   2.644   0.715   8.707 -1.7915  0.2505 -1.4410
  497MOL0     H68551   2.603   0.539   8.696 -0.6934  1.5928  0.1547
  497MOL0     H68552   2.816   0.595   8.826 -2.6701  1.6533  1.5997
  497MOL0     H68553   2.848   0.493   8.686  0.7802  1.9050 -4.8031
  497MOL0     H68554   2.990   0.683   8.757  0.0348  2.2101  0.4741
  497MOL0     H68555   2.878   0.783   8.676  0.7957 -0.6732 -2.2759
  497MOL0     H68556   2.912   0.678   8.464  1.0492 -0.3660 -1.1464
  497MOL0     H68557   3.023   0.554   8.527 -2.0556 -0.6218  2.2389
  497MOL0     H68558   3.200   0.702   8.563 -0.5604 -0.4657  0.3946
  497MOL0     H68559   3.156   0.717   8.405  2.1745 -2.1060  0.5647
  497MOL0     H68560   3.072   0.935   8.613  1.0897  1.8081 -0.5487
  497MOL0     H68561   2.992   0.915   8.454 -0.2712 -0.1072  1.2702
  497MOL0     H68562   3.196   0.953   8.333 -2.7439 -0.5753 -0.0007
  497MOL0     H68563   3.291   0.957   8.484 -0.0164  0.9122 -0.0813
  497MOL0     H68564   3.143   1.166   8.544  1.2787 -0.1181  0.3721
  497MOL0     H68565   3.089   1.159   8.381  0.9614  1.6001 -0.6577
  497MOL0     H68566   2.639   0.590   8.300  1.1696  1.6645  0.7265
  497MOL0     H68567   2.440   0.645   8.141 -1.4664  2.1935 -0.3456
  497MOL0     H68568   2.033   0.892   8.146  0.4641 -1.6931  1.0016
  497MOL0     H68569   1.832   0.957   8.050 -2.1345 -1.0587  1.0805
  497MOL0     H68570   0.736   0.999   7.721 -1.0098  2.3633 -2.0939
  497MOL0     H68571   0.910   0.809   7.746 -6.2120  0.3962 -0.2091
  497MOL0     H68572   1.310   0.713   7.828  0.3717 -0.2032  0.6728
  497MOL0     H68573   1.490   0.550   7.904  0.9583  1.4580 -1.7264
  497MOL0     H68574   1.462   0.220   7.736  0.1376 -3.7824 -2.7259
  497MOL0     H68575   1.567   0.248   7.602 -1.2478 -0.3682 -1.0056
  497MOL0     H68576   1.642   0.053   7.702  1.8725 -1.1675 -0.6519
  497MOL0     H68577   1.660   0.130   7.856  0.0553 -2.5446 -0.5713
  497MOL0     H68578   1.829   0.174   7.603 -2.1354 -2.9478 -0.1975
  497MOL0     H68579   1.841   0.279   7.751 -1.1559 -0.1189  0.6212
  497MOL0     H68580   2.008   0.109   7.738  0.6328  1.4420  0.4961
  497MOL0     H68581   1.874  -0.005   7.778  2.4234 -0.4415 -0.9265
  497MOL0     H68582   1.984   0.167   8.147  0.5495 -0.6891 -0.0007
  497MOL0     H68583   1.554   0.431   7.515  2.0814 -1.2314  1.6540
  497MOL0     H68584   1.336   0.600   7.328 -0.9552  0.8871  1.2173
  497MOL0     H68585   1.468   0.722   7.342  1.2009 -0.7956 -0.2147
  497MOL0     H68586   1.512   0.555   7.338  1.0958 -0.0795  2.4038
  498MOL0     O68587   5.315   5.749   2.248 -0.4115  0.1298 -0.8124
  498MOL0     C68588   5.221   5.823   2.229  0.2172 -0.0467 -1.1668
  498MOL0     O68589   5.187   5.932   2.300 -0.1768  0.0687  0.2115
  498MOL0     C68590   5.275   5.971   2.398  0.2150 -1.2797  0.7552
  498MOL0     C68591   5.239   5.939   2.523  0.2188 -0.8362 -0.5054
  498MOL0     C68592   5.327   5.974   2.633 -0.9068 -0.3017 -0.0621
  498MOL0     C68593   5.447   6.044   2.609 -0.5213 -0.2542  0.4008
  498MOL0     O68594   5.543   6.085   2.698 -0.2032  0.1684 -0.4878
  498MOL0     C68595   5.557   6.017   2.827  0.0355 -0.2949 -0.0296
  498MOL0     C68596   5.579   6.129   2.924  0.5451 -0.2361  0.3729
  498MOL0     C68597   5.578   6.078   3.069 -0.7195  0.0332 -0.2540
  498MOL0     C68598   5.597   6.209   3.158  0.8436  0.6407 -0.0191
  498MOL0     C68599   5.615   6.181   3.306  0.0626  0.2036 -0.7588
  498MOL0     C68600   5.640   6.306   3.383  0.0898 -0.4560  0.7003
  498MOL0     C68601   5.641   6.297   3.528  0.0784  0.7357 -0.6080
  498MOL0     C68602   5.677   6.417   3.611 -0.1373 -0.2600 -0.0746
  498MOL0     N68603   5.589   6.531   3.596 -0.3848  0.1631  0.2629
  498MOL0     C68604   5.632   6.663   3.599 -0.6270  0.4797 -0.0189
  498MOL0     C68605   5.520   6.736   3.595  0.4439 -0.0196 -0.7309
  498MOL0     C68606   5.519   6.881   3.559  0.1696  0.0932  0.4078
  498MOL0     C68607   5.416   6.965   3.642 -0.1573  0.7644  0.8357
  498MOL0     C68608   5.439   7.120   3.621 -0.1255  0.2400  0.5964
  498MOL0     C68609   5.577   7.170   3.657 -0.1152  0.1031 -0.1576
  498MOL0     O68610   5.646   7.104   3.762  0.5507  0.2613  0.4874
  498MOL0     C68611   5.601   7.108   3.892 -0.7537 -1.1127 -0.1642
  498MOL0     C68612   5.509   7.206   3.935 -0.0263  0.3334 -0.7556
  498MOL0     C68613   5.436   7.202   4.055  0.6661 -0.1179 -0.1857
  498MOL0     C68614   5.329   7.313   4.069  0.4218  1.0685 -0.0020
  498MOL0     C68615   5.466   7.097   4.145 -0.8863  0.8288 -0.6233
  498MOL0     C68616   5.388   7.075   4.274 -0.5664  0.6858 -0.4275
  498MOL0     O68617   5.455   6.994   4.365 -0.1434  0.1868  0.2969
  498MOL0     C68618   5.377   6.961   4.474 -0.6136  1.2007 -0.8198
  498MOL0     C68619   5.303   6.846   4.478  0.7229  0.2121 -0.9651
  498MOL0     C68620   5.235   6.805   4.592 -0.1264  0.9418  0.1695
  498MOL0     C68621   5.213   6.900   4.692  0.6901  0.6663  0.2852
  498MOL0     O68622   5.141   6.862   4.799  0.4574  0.2965  0.1565
  498MOL0     C68623   5.041   6.957   4.852  0.0101 -0.1741 -0.9250
  498MOL0     C68624   4.900   6.938   4.791 -0.6505  0.0651 -0.1086
  498MOL0     C68625   4.795   7.037   4.857 -1.3214 -0.5051  0.4050
  498MOL0     C68626   4.684   7.065   4.746 -0.3316  0.1857 -0.2574
  498MOL0     C68627   4.734   7.186   4.659 -0.9200  0.6906 -1.1772
  498MOL0     C68628   4.691   7.144   4.520  0.5535 -0.1354  0.2988
  498MOL0     C68629   4.539   7.156   4.499  0.4219  0.3800 -0.7136
  498MOL0     C68630   4.481   7.299   4.530 -0.3441 -0.4177 -0.3786
  498MOL0    Cl68631   4.313   7.307   4.462  0.8603  0.2567  0.5175
  498MOL0     C68632   5.278   7.021   4.692 -0.4568  0.6263 -0.2409
  498MOL0     C68633   5.365   7.050   4.584 -0.0711  0.1233 -0.3594
  498MOL0     O68634   5.278   7.135   4.292 -0.1032  0.1766 -0.3347
  498MOL0     C68635   5.570   6.996   4.109  0.4029 -0.2899  0.3843
  498MOL0     C68636   5.639   7.011   3.986  0.5355  0.1009 -0.1843
  498MOL0     N68637   5.411   6.652   3.593  0.1197  0.2136 -0.2714
  498MOL0     N68638   5.453   6.530   3.587 -1.0281 -0.1777 -0.4035
  498MOL0     C68639   5.483   6.077   2.474 -0.0337 -0.8908 -0.5052
  498MOL0     C68640   5.404   6.036   2.367  0.5528 -0.5049  0.5927
  498MOL0     C68641   5.142   5.798   2.109 -0.0240 -0.0419  0.3323
  498MOL0     C68642   5.076   5.906   2.048  1.0504  1.0223  0.8374
  498MOL0     C68643   5.019   5.892   1.922  0.3645 -0.3363  0.2906
  498MOL0     C68644   5.007   5.766   1.859 -0.4512 -0.5332 -0.6015
  498MOL0     O68645   4.928   5.738   1.747 -0.4783  0.0839 -0.4437
  498MOL0     C68646   4.879   5.861   1.684 -0.1520 -0.5020 -0.1477
  498MOL0     C68647   4.788   5.815   1.566  0.1941  0.4516 -0.3414
  498MOL0     C68648   4.828   5.695   1.480 -0.7566  0.4488  0.3801
  498MOL0     C68649   4.722   5.653   1.386 -0.7058 -0.0737  0.0714
  498MOL0     C68650   4.778   5.572   1.276  0.4478  0.1497 -0.3193
  498MOL0     C68651   4.814   5.510   1.184 -1.2005 -0.1648  0.2507
  498MOL0     C68652   5.071   5.658   1.924 -0.3162  0.1991  0.3505
  498MOL0     C68653   5.143   5.670   2.044  0.2426  0.2520 -0.4886
  498MOL0     C68654   5.193   5.542   2.093 -0.1263 -0.3343 -0.7560
  498MOL0     H68655   5.152   5.877   2.543 -1.9392  0.8521 -3.8385
  498MOL0     H68656   5.295   5.943   2.732  2.0185  0.1477  1.1200
  498MOL0     H68657   5.641   5.948   2.834  1.3721  1.3897  1.1966
  498MOL0     H68658   5.466   5.960   2.851 -0.9812  1.5144  0.5900
  498MOL0     H68659   5.671   6.184   2.906  0.8959  0.1144  2.9812
  498MOL0     H68660   5.498   6.203   2.929 -0.6487 -1.3976 -0.7101
  498MOL0     H68661   5.484   6.026   3.092 -0.4333 -1.1246 -1.5715
  498MOL0     H68662   5.662   6.009   3.084 -0.4644  0.3979  0.0251
  498MOL0     H68663   5.667   6.280   3.113 -1.1675  2.9173  0.3070
  498MOL0     H68664   5.509   6.272   3.151 -0.3432 -0.8593  0.7822
  498MOL0     H68665   5.701   6.115   3.319 -0.6186 -0.2186  2.5047
  498MOL0     H68666   5.534   6.120   3.347  2.3819 -2.9560 -0.4483
  498MOL0     H68667   5.734   6.350   3.348 -1.0126 -1.4304 -4.0834
  498MOL0     H68668   5.558   6.376   3.365  1.4605  0.7627 -1.1088
  498MOL0     H68669   5.721   6.225   3.548  1.2657  2.5789  1.8944
  498MOL0     H68670   5.550   6.253   3.570  1.6982 -0.4247  1.9621
  498MOL0     H68671   5.671   6.374   3.711  0.6889 -0.5564 -0.1456
  498MOL0     H68672   5.780   6.442   3.582 -0.9744  0.2033 -2.9189
  498MOL0     H68673   5.737   6.690   3.588 -0.7744  0.9789 -0.2121
  498MOL0     H68674   5.492   6.891   3.454 -0.6034  0.2938  0.6174
  498MOL0     H68675   5.621   6.910   3.584  1.0936 -3.8282  1.9149
  498MOL0     H68676   5.313   6.933   3.623  0.3485  0.1099 -0.9940
  498MOL0     H68677   5.445   6.944   3.746  1.2058 -0.6079  0.2005
  498MOL0     H68678   5.415   7.140   3.516 -0.3241 -3.2325 -0.1320
  498MOL0     H68679   5.370   7.178   3.684  0.3199 -0.4298  1.7339
  498MOL0     H68680   5.637   7.167   3.566  0.9657 -0.7387  0.5513
  498MOL0     H68681   5.585   7.276   3.682  0.7624  0.0740 -0.2830
  498MOL0     H68682   5.480   7.284   3.865 -4.3650  0.1399  0.5829
  498MOL0     H68683   5.353   7.397   4.003  2.8055  2.0461  1.9146
  498MOL0     H68684   5.305   7.358   4.167 -1.3672  0.9856 -0.3732
  498MOL0     H68685   5.243   7.264   4.024  0.7921  0.0576  0.3761
  498MOL0     H68686   5.306   6.779   4.392 -2.3118 -1.2533 -0.0601
  498MOL0     H68687   5.179   6.713   4.598 -1.2357  1.4985 -1.0956
  498MOL0     H68688   5.042   6.945   4.961  1.8258 -0.0072 -0.8917
  498MOL0     H68689   5.073   7.061   4.843 -3.4241  1.0980  0.0105
  498MOL0     H68690   4.908   6.949   4.683 -3.8922  1.8317 -0.2886
  498MOL0     H68691   4.878   6.837   4.829  3.9944 -0.7571  1.0446
  498MOL0     H68692   4.839   7.129   4.897 -1.7445 -0.1532  0.0708
  498MOL0     H68693   4.749   6.978   4.936  2.6220 -3.4344  0.8124
  498MOL0     H68694   4.593   7.095   4.799 -0.8938 -1.6959 -0.1022
  498MOL0     H68695   4.667   6.975   4.686 -0.6985  0.3592 -0.4156
  498MOL0     H68696   4.689   7.282   4.688  0.4656  1.8033 -2.5420
  498MOL0     H68697   4.843   7.183   4.667 -1.0073 -4.2135  1.7240
  498MOL0     H68698   4.720   7.044   4.487  1.4130  0.2142 -0.0341
  498MOL0     H68699   4.736   7.220   4.455  0.1118  0.0679  0.2183
  498MOL0     H68700   4.471   7.083   4.544 -3.7027  3.6960 -0.9758
  498MOL0     H68701   4.531   7.130   4.394 -0.1029  1.0156 -0.8390
  498MOL0     H68702   4.551   7.377   4.501 -0.1283  0.1612  1.5572
  498MOL0     H68703   4.470   7.318   4.637 -2.0959 -3.3689  0.0730
  498MOL0     H68704   5.267   7.085   4.778  0.5542 -1.2859  1.3962
  498MOL0     H68705   5.441   7.126   4.588  1.1481 -1.0939  1.9958
  498MOL0     H68706   5.592   6.908   4.169 -0.9928 -3.8741 -3.7876
  498MOL0     H68707   5.711   6.934   3.963  1.9179  0.5055  2.3663
  498MOL0     H68708   5.578   6.129   2.460  2.3189 -4.2032  1.6430
  498MOL0     H68709   5.434   6.057   2.265 -0.6167  0.9340  0.5176
  498MOL0     H68710   5.091   6.006   2.089 -4.8463  2.7064 -0.2427
  498MOL0     H68711   4.983   5.988   1.885 -0.1782 -0.1030  1.3871
  498MOL0     H68712   4.820   5.926   1.750  1.1587  0.5489  0.0360
  498MOL0     H68713   4.960   5.924   1.647 -1.9653  2.5036  0.6431
  498MOL0     H68714   4.766   5.904   1.506 -1.7077  0.1425 -0.1571
  498MOL0     H68715   4.695   5.785   1.615 -0.9690  1.4674 -1.8249
  498MOL0     H68716   4.917   5.732   1.429  0.4484 -0.7278  1.5485
  498MOL0     H68717   4.852   5.607   1.540  1.4706  1.5778  1.2439
  498MOL0     H68718   4.664   5.740   1.352  1.1679  0.9832 -0.6157
  498MOL0     H68719   4.648   5.587   1.431 -1.5559 -0.1034 -1.3070
  498MOL0     H68720   4.830   5.457   1.093 -2.8106  1.1578 -0.8598
  498MOL0     H68721   5.064   5.560   1.878  0.1461  0.4067 -0.1699
  498MOL0     H68722   5.300   5.553   2.113 -0.6841 -0.5244  3.2989
  498MOL0     H68723   5.150   5.515   2.190  0.6241 -2.3196 -0.9299
  498MOL0     H68724   5.175   5.460   2.024  0.6375 -0.4901 -0.7787
  499MOL0     O68725   3.663   3.432   7.010  0.6534 -0.6018  0.2187
  499MOL0     C68726   3.719   3.397   6.916  0.1514  0.2776  0.2133
  499MOL0     O68727   3.860   3.383   6.905 -0.6479  0.0353 -0.5295
  499MOL0     C68728   3.946   3.458   6.981  0.0904 -0.1948  0.3134
  499MOL0     C68729   4.077   3.413   6.982  0.1225  0.3066 -0.6521
  499MOL0     C68730   4.182   3.463   7.065 -0.7434 -0.3171  0.2868
  499MOL0     C68731   4.149   3.557   7.158  0.7141 -0.1322 -0.3044
  499MOL0     O68732   4.240   3.604   7.244 -0.0776  0.4321 -0.3029
  499MOL0     C68733   4.206   3.684   7.366  0.1387  0.2702  0.4001
  499MOL0     C68734   4.323   3.675   7.467 -0.6005  0.7278  0.5416
  499MOL0     C68735   4.467   3.685   7.415  0.4818 -0.7221 -0.8900
  499MOL0     C68736   4.575   3.745   7.514  0.3192 -0.1951  0.2601
  499MOL0     C68737   4.719   3.727   7.480  0.2854 -0.3002  0.4209
  499MOL0     C68738   4.799   3.806   7.585  0.4487  0.0690 -0.2735
  499MOL0     C68739   4.943   3.759   7.595 -0.1154  0.0117  1.0142
  499MOL0     C68740   5.040   3.814   7.704 -0.0892 -0.4875 -0.4276
  499MOL0     N68741   5.184   3.771   7.686 -0.4402 -0.0433 -0.3998
  499MOL0     C68742   5.281   3.787   7.785  0.3018  0.5045 -0.1623
  499MOL0     C68743   5.375   3.691   7.760  1.2153 -0.3252 -0.3091
  499MOL0     C68744   5.504   3.669   7.834 -0.4400 -0.1588 -0.1035
  499MOL0     C68745   5.628   3.676   7.742  0.1607  0.5084  0.2043
  499MOL0     C68746   5.627   3.791   7.636 -0.1987 -0.2862  0.4921
  499MOL0     C68747   5.768   3.808   7.573  0.3499  0.7538  0.2064
  499MOL0     O68748   5.862   3.863   7.668  1.0426  0.7518 -0.5700
  499MOL0     C68749   5.996   3.865   7.624 -0.9921  0.0307 -0.1039
  499MOL0     C68750   6.082   3.930   7.721 -0.9126 -0.1859  0.1848
  499MOL0     C68751   6.214   3.947   7.700 -0.3706 -0.3657  0.8136
  499MOL0     C68752   6.292   4.045   7.787  1.0230  0.8195  1.0259
  499MOL0     C68753   6.282   3.879   7.596 -0.4347  0.0170 -0.0494
  499MOL0     C68754   6.432   3.880   7.569  0.3717 -0.6841  0.5614
  499MOL0     O68755   6.479   3.852   7.441  0.0744 -0.2730  0.0786
  499MOL0     C68756   6.613   3.826   7.432  0.1169  1.3078 -0.3108
  499MOL0     C68757   6.665   3.694   7.439  0.3380  0.6243 -0.4013
  499MOL0     C68758   6.793   3.668   7.452 -0.3396 -0.1565  0.5877
  499MOL0     C68759   6.882   3.778   7.467 -0.9574 -0.9289 -1.1635
  499MOL0     O68760   7.014   3.748   7.502  0.4626 -0.3782  0.6453
  499MOL0     C68761   7.065   3.808   7.621  0.5979 -0.3742 -0.4981
  499MOL0     C68762   7.082   3.693   7.726 -0.4897 -1.1683 -0.2133
  499MOL0     C68763   7.162   3.732   7.849 -0.4324 -0.2907 -0.0681
  499MOL0     C68764   7.205   3.618   7.940 -0.6652  0.6423 -0.6123
  499MOL0     C68765   7.277   3.660   8.079 -0.8344 -0.2299  0.5278
  499MOL0     C68766   7.311   3.540   8.179  0.5459  0.1577  0.2206
  499MOL0     C68767   7.185   3.451   8.215  0.1860  0.4764  0.1731
  499MOL0     C68768   7.184   3.371   8.344 -0.0951  0.4864  0.0712
  499MOL0    Cl68769   7.051   3.261   8.347  0.3560 -0.4813  0.2962
  499MOL0     C68770   6.841   3.908   7.455  0.3612 -0.9354  0.3915
  499MOL0     C68771   6.702   3.929   7.433  0.1563 -0.6338  0.6367
  499MOL0     O68772   6.506   3.897   7.668  0.3748  0.4079 -0.2653
  499MOL0     C68773   6.198   3.812   7.496 -0.0758 -0.3729 -0.7397
  499MOL0     C68774   6.058   3.806   7.516  0.2249  1.0072 -0.4231
  499MOL0     N68775   5.330   3.623   7.644 -0.0638  0.5236  0.2249
  499MOL0     N68776   5.220   3.674   7.600  0.4466 -0.6723 -0.0225
  499MOL0     C68777   4.015   3.609   7.157  0.2738  0.5062  0.1405
  499MOL0     C68778   3.915   3.555   7.078  0.0783  0.1036 -0.1404
  499MOL0     C68779   3.652   3.323   6.808  0.3195  0.6880 -0.7607
  499MOL0     C68780   3.734   3.259   6.712 -0.7749 -0.7193  0.8980
  499MOL0     C68781   3.671   3.177   6.602  0.6474 -0.4493 -0.7754
  499MOL0     C68782   3.532   3.166   6.593 -0.8064 -1.2671 -0.3842
  499MOL0     O68783   3.473   3.082   6.498 -0.4239  0.0250 -0.4273
  499MOL0     C68784   3.546   2.963   6.458 -0.1704 -0.1393 -1.1829
  499MOL0     C68785   3.441   2.866   6.399  0.2352 -0.3416 -0.6637
  499MOL0     C68786   3.333   2.823   6.496  0.2323 -0.3582  0.8579
  499MOL0     C68787   3.219   2.756   6.421  0.1679  0.3815  1.0329
  499MOL0     C68788   3.259   2.620   6.377 -0.2364 -0.6204 -0.1674
  499MOL0     C68789   3.301   2.505   6.351  1.0947 -0.0658  0.5959
  499MOL0     C68790   3.457   3.234   6.685  0.4551 -1.3424 -0.4214
  499MOL0     C68791   3.510   3.307   6.794 -0.0786 -0.3254  0.3860
  499MOL0     C68792   3.411   3.384   6.883  0.4351 -0.1312  1.3850
  499MOL0     H68793   4.090   3.327   6.916  0.1782 -0.8549  0.8252
  499MOL0     H68794   4.284   3.425   7.061  0.3356  2.4076 -0.9407
  499MOL0     H68795   4.114   3.642   7.409 -0.3113  1.1728  0.3382
  499MOL0     H68796   4.175   3.786   7.340 -1.2626  0.1965  1.6487
  499MOL0     H68797   4.316   3.760   7.536  2.2864  0.9383  0.7228
  499MOL0     H68798   4.305   3.584   7.524 -0.5420  0.8126  0.6979
  499MOL0     H68799   4.482   3.580   7.390 -1.3529 -0.2390 -4.7977
  499MOL0     H68800   4.468   3.755   7.331 -0.3695 -1.1212 -1.2468
  499MOL0     H68801   4.564   3.852   7.535  3.8706  0.3584 -0.0734
  499MOL0     H68802   4.563   3.690   7.607  0.2236 -2.7828 -1.1756
  499MOL0     H68803   4.747   3.766   7.382  1.0990  1.4728  1.3139
  499MOL0     H68804   4.728   3.618   7.474 -1.9799 -0.5957  1.2219
  499MOL0     H68805   4.790   3.913   7.565 -1.1716 -0.2359 -1.3243
  499MOL0     H68806   4.753   3.801   7.684 -0.2149  3.1081 -0.3320
  499MOL0     H68807   4.988   3.782   7.498  0.6631  1.0040  1.5944
  499MOL0     H68808   4.965   3.653   7.614  1.5946 -0.1486 -1.4162
  499MOL0     H68809   5.025   3.922   7.700 -4.5133 -0.9680 -1.8321
  499MOL0     H68810   5.013   3.777   7.803  2.2110  1.0516  0.8649
  499MOL0     H68811   5.281   3.870   7.855  0.3522  1.6029 -1.4117
  499MOL0     H68812   5.505   3.564   7.865 -4.7593  0.0694  1.4669
  499MOL0     H68813   5.508   3.731   7.924 -0.9397  2.5083 -1.7814
  499MOL0     H68814   5.714   3.682   7.810 -1.6281  1.1701  2.5606
  499MOL0     H68815   5.626   3.581   7.687 -1.8481  0.0991  0.8854
  499MOL0     H68816   5.561   3.762   7.554 -0.0752  1.7176 -0.3697
  499MOL0     H68817   5.590   3.884   7.680 -0.5442 -1.3937  2.7054
  499MOL0     H68818   5.805   3.709   7.545  0.1177  0.5965  0.4452
  499MOL0     H68819   5.762   3.864   7.480  2.6294  0.1152 -0.3955
  499MOL0     H68820   6.028   3.976   7.803 -1.6762  1.7876 -1.3367
  499MOL0     H68821   6.327   3.986   7.872 -2.6422 -1.3133  1.2665
  499MOL0     H68822   6.221   4.119   7.825 -1.6984  0.6873 -3.1189
  499MOL0     H68823   6.368   4.104   7.735 -1.0479  2.3034 -0.4575
  499MOL0     H68824   6.586   3.619   7.438 -0.4376  1.3275  1.8185
  499MOL0     H68825   6.821   3.564   7.467 -3.4756 -0.9127  2.1823
  499MOL0     H68826   7.155   3.857   7.582  2.1488 -0.4633  2.6078
  499MOL0     H68827   6.995   3.884   7.660  0.6467  0.5550 -2.1434
  499MOL0     H68828   6.981   3.657   7.746 -0.4771 -2.5944 -2.3585
  499MOL0     H68829   7.129   3.603   7.685 -1.9267 -2.9492  1.8378
  499MOL0     H68830   7.098   3.794   7.913 -2.6799 -1.9515 -0.5371
  499MOL0     H68831   7.248   3.787   7.811 -0.3236 -0.7455 -0.4986
  499MOL0     H68832   7.273   3.548   7.891  1.0279 -0.1939  2.6374
  499MOL0     H68833   7.119   3.559   7.972 -0.1308 -0.7703 -1.6563
  499MOL0     H68834   7.374   3.701   8.051 -1.2614  0.0566 -0.5851
  499MOL0     H68835   7.224   3.732   8.142 -1.0616 -1.9802  2.4307
  499MOL0     H68836   7.347   3.572   8.277 -3.4545  1.5281  1.4291
  499MOL0     H68837   7.392   3.474   8.146  0.0724 -0.3952  0.1379
  499MOL0     H68838   7.170   3.381   8.132  4.9320  0.1185 -0.6676
  499MOL0     H68839   7.108   3.528   8.221  2.0448  2.8072 -2.8763
  499MOL0     H68840   7.184   3.439   8.430 -0.7121 -0.8225  1.1291
  499MOL0     H68841   7.278   3.315   8.345 -0.2764  0.1837  0.2535
  499MOL0     H68842   6.909   3.992   7.458  0.2067 -0.2573 -4.9052
  499MOL0     H68843   6.670   4.033   7.431 -0.2462 -0.7679  0.0550
  499MOL0     H68844   6.245   3.769   7.409  2.2864 -0.2235  0.3688
  499MOL0     H68845   6.011   3.746   7.438  0.9032  1.1924 -0.9877
  499MOL0     H68846   3.995   3.692   7.224 -0.4774 -0.5391  1.2801
  499MOL0     H68847   3.820   3.608   7.075  0.1383  0.1667 -1.4155
  499MOL0     H68848   3.842   3.248   6.722 -0.8894 -1.0579  1.8763
  499MOL0     H68849   3.736   3.122   6.534 -0.2375  2.3105 -4.1271
  499MOL0     H68850   3.624   2.976   6.382  0.9097  1.6626  0.1726
  499MOL0     H68851   3.583   2.907   6.545 -1.1386  0.6616 -0.2445
  499MOL0     H68852   3.506   2.786   6.364  0.8156  0.8341 -2.4322
  499MOL0     H68853   3.399   2.913   6.309  3.7808 -2.4493 -3.6891
  499MOL0     H68854   3.378   2.750   6.565  1.2314 -0.9956 -0.4212
  499MOL0     H68855   3.297   2.909   6.552  1.5240  0.0871  1.0388
  499MOL0     H68856   3.177   2.822   6.345 -0.9533 -0.5031  0.8575
  499MOL0     H68857   3.144   2.730   6.496 -0.8613  1.4665  0.4144
  499MOL0     H68858   3.308   2.399   6.342  0.8244  0.0560 -1.7323
  499MOL0     H68859   3.349   3.237   6.677  0.4235 -3.2200 -1.0179
  499MOL0     H68860   3.422   3.359   6.989 -1.2391  0.9390  1.8736
  499MOL0     H68861   3.406   3.492   6.861  0.1371  0.0689  2.3888
  499MOL0     H68862   3.310   3.346   6.866 -0.2779  0.6900  3.4218
  500MOL0     O68863   5.381   2.796   3.541  0.5895 -0.6101 -0.4761
  500MOL0     C68864   5.333   2.911   3.531  0.6604 -0.0985  0.0098
  500MOL0     O68865   5.218   2.968   3.597 -0.6650  0.1512  0.5641
  500MOL0     C68866   5.136   2.891   3.669 -0.3125 -1.0635  0.3082
  500MOL0     C68867   5.127   2.917   3.808  0.1230 -0.2200  1.1364
  500MOL0     C68868   5.052   2.841   3.898  0.5432  0.4031  0.2202
  500MOL0     C68869   4.978   2.734   3.845 -0.0662 -0.5698  0.6106
  500MOL0     O68870   4.898   2.657   3.934 -0.1132 -0.0748  0.1343
  500MOL0     C68871   4.839   2.534   3.898  0.2493  0.0240  0.1198
  500MOL0     C68872   4.788   2.455   4.018  0.8403  0.0780 -0.1942
  500MOL0     C68873   4.650   2.518   4.058  0.7198 -0.2335  0.1296
  500MOL0     C68874   4.539   2.457   3.973  0.0800  1.3843  0.8143
  500MOL0     C68875   4.407   2.521   4.004 -0.0247 -0.2240 -0.8091
  500MOL0     C68876   4.295   2.457   3.921  0.9906  0.0075 -0.1921
  500MOL0     C68877   4.244   2.324   3.979 -1.0336  0.3533 -0.0320
  500MOL0     C68878   4.157   2.243   3.891 -0.3691 -0.1531 -1.0070
  500MOL0     N68879   4.078   2.139   3.964 -0.4991 -0.6302 -0.2513
  500MOL0     C68880   3.958   2.085   3.927  0.0516 -1.0839  0.6665
  500MOL0     C68881   3.916   2.005   4.023  0.8224  0.3567  0.0881
  500MOL0     C68882   3.779   1.940   4.015 -0.3684 -0.0194  0.5159
  500MOL0     C68883   3.759   1.860   3.887  0.0186 -0.1183 -0.2677
  500MOL0     C68884   3.848   1.754   3.849 -0.1103 -0.3401 -0.4718
  500MOL0     C68885   3.868   1.641   3.955 -0.0975  0.2272  0.2545
  500MOL0     O68886   3.959   1.544   3.907 -0.0516  0.1879  0.0371
  500MOL0     C68887   4.093   1.585   3.910 -0.3010 -0.4628  0.4582
  500MOL0     C68888   4.174   1.534   3.817 -0.3730  0.8968  0.2735
  500MOL0     C68889   4.313   1.577   3.801 -0.0077  0.2334 -0.2175
  500MOL0     C68890   4.385   1.507   3.683 -0.3128 -0.0976  0.6235
  500MOL0     C68891   4.367   1.669   3.895 -0.3239 -0.5087  0.6733
  500MOL0     C68892   4.500   1.735   3.875  1.2191 -0.6146 -0.8874
  500MOL0     O68893   4.594   1.663   3.815 -0.5814  0.0813 -0.1605
  500MOL0     C68894   4.719   1.714   3.813  0.1941 -0.3032  0.1793
  500MOL0     C68895   4.817   1.660   3.895  0.4272  0.2682 -0.0097
  500MOL0     C68896   4.949   1.701   3.883  0.4271 -0.3001  0.4805
  500MOL0     C68897   4.982   1.810   3.808 -0.1185 -0.0424  0.9691
  500MOL0     O68898   5.106   1.866   3.801 -1.5738 -0.2778 -0.4918
  500MOL0     C68899   5.163   1.919   3.925 -0.5128 -0.7671 -0.1497
  500MOL0     C68900   5.280   2.010   3.893  0.3483 -0.5411  0.8490
  500MOL0     C68901   5.225   2.156   3.893  0.7091  0.6122 -0.6669
  500MOL0     C68902   5.333   2.258   3.853 -0.2648  0.1997  0.8067
  500MOL0     C68903   5.262   2.397   3.865 -0.7529 -0.0752  0.8874
  500MOL0     C68904   5.354   2.511   3.813 -0.1774  0.1069  0.4256
  500MOL0     C68905   5.492   2.545   3.876  0.9406 -0.0610  0.8791
  500MOL0     C68906   5.579   2.613   3.767 -0.6638  0.2954  0.7435
  500MOL0    Cl68907   5.733   2.666   3.830 -0.4631  0.7540  0.2645
  500MOL0     C68908   4.879   1.871   3.733 -0.6416 -1.1879  0.4573
  500MOL0     C68909   4.752   1.822   3.734  0.6461 -0.6188  0.7829
  500MOL0     O68910   4.517   1.835   3.951 -0.0762 -0.0363 -0.1274
  500MOL0     C68911   4.271   1.722   3.989 -1.3841 -1.3375  0.0115
  500MOL0     C68912   4.146   1.683   3.999  0.8004  0.0248  0.1551
  500MOL0     N68913   4.024   1.994   4.111 -0.2026  0.0472 -0.1862
  500MOL0     N68914   4.119   2.077   4.080  0.0430  0.4619 -0.3604
  500MOL0     C68915   5.003   2.695   3.709  0.2676 -0.4814  0.2132
  500MOL0     C68916   5.078   2.776   3.621  0.0787  0.6325  0.7935
  500MOL0     C68917   5.396   3.013   3.451  0.0172  0.2144 -0.2924
  500MOL0     C68918   5.370   3.145   3.480  0.3561  0.1079  0.4694
  500MOL0     C68919   5.417   3.244   3.396 -0.5842 -0.4334  0.0583
  500MOL0     C68920   5.496   3.220   3.285 -1.1033 -0.6012  0.0706
  500MOL0     O68921   5.548   3.329   3.217 -0.1504 -0.2757  0.1651
  500MOL0     C68922   5.610   3.312   3.096 -0.0634  0.1884  1.1577
  500MOL0     C68923   5.527   3.271   2.972  0.9392 -0.5722 -0.3400
  500MOL0     C68924   5.440   3.380   2.910 -0.4415  0.0799  0.1754
  500MOL0     C68925   5.365   3.471   3.005 -0.0006 -0.6001 -0.7406
  500MOL0     C68926   5.284   3.561   2.921  0.1051  0.4780 -0.5042
  500MOL0     C68927   5.213   3.634   2.860  0.3282  0.6614  0.0082
  500MOL0     C68928   5.531   3.087   3.259 -0.2202  0.8669 -0.3967
  500MOL0     C68929   5.489   2.981   3.339  0.1000 -1.1975 -0.4137
  500MOL0     C68930   5.549   2.841   3.303 -0.5747  1.2549  0.8108
  500MOL0     H68931   5.169   3.010   3.847 -3.2320  1.2643  1.5421
  500MOL0     H68932   5.046   2.858   4.005 -0.5177 -0.6912  0.3565
  500MOL0     H68933   4.916   2.474   3.849 -0.9315 -0.6151 -1.0013
  500MOL0     H68934   4.767   2.565   3.822 -1.2848 -0.2702  1.4028
  500MOL0     H68935   4.777   2.347   4.005 -1.4907  0.2492 -0.1015
  500MOL0     H68936   4.859   2.466   4.101  0.1368  2.3509  0.1763
  500MOL0     H68937   4.626   2.511   4.164 -0.4288 -1.1855 -0.1716
  500MOL0     H68938   4.647   2.625   4.035  1.9462 -0.4043 -0.9682
  500MOL0     H68939   4.566   2.477   3.869  2.7172  0.8836  1.3302
  500MOL0     H68940   4.526   2.349   3.982  1.7568  0.9677 -0.9318
  500MOL0     H68941   4.408   2.628   3.981  0.9658 -0.6353 -2.9916
  500MOL0     H68942   4.386   2.511   4.111 -1.0514  0.6490 -0.9128
  500MOL0     H68943   4.214   2.530   3.933  2.9698  2.0067  2.0465
  500MOL0     H68944   4.328   2.448   3.818  0.5668  0.9248 -0.4189
  500MOL0     H68945   4.177   2.350   4.062 -1.2375  0.2057 -0.1482
  500MOL0     H68946   4.326   2.271   4.027 -1.3118 -0.9375 -0.9469
  500MOL0     H68947   4.100   2.307   3.823 -0.3903 -0.8653 -1.6617
  500MOL0     H68948   4.220   2.191   3.818  2.0894  3.3262 -1.6093
  500MOL0     H68949   3.898   2.121   3.844  0.2867 -0.4292  0.7764
  500MOL0     H68950   3.715   2.029   4.016  2.8566  2.5304  0.0856
  500MOL0     H68951   3.763   1.870   4.098 -1.2483 -1.3026 -0.6971
  500MOL0     H68952   3.653   1.831   3.890 -0.3581  0.7286 -2.7761
  500MOL0     H68953   3.755   1.936   3.808  2.9718 -0.3918 -0.7907
  500MOL0     H68954   3.803   1.709   3.760  1.1109 -2.3023 -0.1576
  500MOL0     H68955   3.945   1.792   3.818  1.3922 -2.6135  1.0953
  500MOL0     H68956   3.889   1.675   4.057 -0.3202 -1.7400  0.9925
  500MOL0     H68957   3.765   1.605   3.953 -1.8729  4.5791  1.2208
  500MOL0     H68958   4.124   1.460   3.755 -2.5588  3.2107 -0.8792
  500MOL0     H68959   4.348   1.546   3.588  0.3615 -2.6017 -0.7408
  500MOL0     H68960   4.367   1.400   3.687  0.3093 -0.2348 -0.1292
  500MOL0     H68961   4.491   1.531   3.673 -1.1945  3.9542 -1.6226
  500MOL0     H68962   4.787   1.575   3.955  1.0729  0.0775  0.0552
  500MOL0     H68963   5.033   1.647   3.924  2.8955  1.7918 -1.4757
  500MOL0     H68964   5.086   1.978   3.976  0.5853  1.6966 -1.1531
  500MOL0     H68965   5.189   1.837   3.993 -2.2994  0.5819  2.3524
  500MOL0     H68966   5.356   2.016   3.971  1.3884 -2.7412  0.0914
  500MOL0     H68967   5.320   1.976   3.797  3.0310  0.2638  1.5976
  500MOL0     H68968   5.177   2.184   3.987  0.7997  3.6834 -1.4366
  500MOL0     H68969   5.137   2.158   3.828 -0.4268  0.2207  0.8063
  500MOL0     H68970   5.371   2.248   3.751  3.5234  2.7185  1.7305
  500MOL0     H68971   5.425   2.252   3.912  1.8282  3.5192 -1.7253
  500MOL0     H68972   5.177   2.400   3.796  0.0968 -2.1721 -0.3463
  500MOL0     H68973   5.230   2.407   3.969  0.1317  1.2160  1.0596
  500MOL0     H68974   5.288   2.598   3.824 -2.2323 -0.6859 -3.5285
  500MOL0     H68975   5.362   2.486   3.706  1.6187 -3.3983  1.2310
  500MOL0     H68976   5.533   2.445   3.893  2.6510  0.4756  0.0774
  500MOL0     H68977   5.474   2.619   3.954 -0.5532  0.7848 -0.2055
  500MOL0     H68978   5.528   2.695   3.716 -1.0916  1.4802  2.9240
  500MOL0     H68979   5.612   2.534   3.699  0.7715 -0.6475  2.4329
  500MOL0     H68980   4.883   1.963   3.675  0.1164 -0.6925  1.2699
  500MOL0     H68981   4.665   1.866   3.686  0.9189  0.3082  1.1271
  500MOL0     H68982   4.308   1.812   4.036 -3.8533 -1.5916  2.7344
  500MOL0     H68983   4.103   1.737   4.082  0.9054  1.0095 -0.4190
  500MOL0     H68984   4.943   2.615   3.667  0.7033 -0.1278 -1.1265
  500MOL0     H68985   5.100   2.754   3.517  3.5233  3.1177  0.7878
  500MOL0     H68986   5.310   3.170   3.567 -2.2594 -2.3847 -0.4634
  500MOL0     H68987   5.389   3.346   3.420 -1.0959  0.0647 -2.3489
  500MOL0     H68988   5.642   3.409   3.060 -2.7381  1.8071  2.7755
  500MOL0     H68989   5.691   3.239   3.111  0.0028 -0.2431 -1.0586
  500MOL0     H68990   5.464   3.184   2.995 -0.0089  0.8153  3.0096
  500MOL0     H68991   5.598   3.225   2.903  2.8206 -0.0126  1.1115
  500MOL0     H68992   5.502   3.437   2.841  2.4093 -0.9385  1.7356
  500MOL0     H68993   5.370   3.323   2.847 -1.2072  0.8391  0.3269
  500MOL0     H68994   5.435   3.514   3.078  0.2243 -0.1534 -1.2082
  500MOL0     H68995   5.291   3.414   3.061 -0.8076  1.5056  0.4620
  500MOL0     H68996   5.143   3.685   2.797 -0.7368  1.5770  1.8471
  500MOL0     H68997   5.611   3.054   3.194 -0.9044  0.6660 -1.1424
  500MOL0     H68998   5.488   2.756   3.334 -1.2888  1.6217  0.4323
  500MOL0     H68999   5.580   2.829   3.199  0.1604  0.8553  1.0721
  500MOL0     H69000   5.636   2.839   3.370 -0.4087  0.6294  0.5825
  501MOL0     O69001  10.512   7.060   6.087 -0.0774 -0.2069  0.2906
  501MOL0     C69002  10.405   7.099   6.125 -0.2844  0.1956 -0.6959
  501MOL0     O69003  10.379   7.138   6.260 -0.4257  0.6472  0.5693
  501MOL0     C69004  10.489   7.156   6.347  0.4124  1.1092 -0.5708
  501MOL0     C69005  10.554   7.043   6.400 -0.3588 -0.5634  0.9937
  501MOL0     C69006  10.658   7.060   6.490 -0.1794 -0.1790 -0.4205
  501MOL0     C69007  10.705   7.185   6.526 -0.3247 -0.2849 -0.1837
  501MOL0     O69008  10.805   7.192   6.622 -0.2852 -0.1193 -0.2101
  501MOL0     C69009  10.824   7.305   6.710 -0.9123 -0.5943 -0.1810
  501MOL0     C69010  10.909   7.267   6.825 -0.1702  0.4180 -0.3662
  501MOL0     C69011  10.871   7.134   6.894 -0.2861 -0.1203 -0.5534
  501MOL0     C69012  10.752   7.158   6.987 -0.1656 -0.4423  0.9552
  501MOL0     C69013  10.700   7.031   7.070 -0.3051 -0.1176  0.6278
  501MOL0     C69014  10.673   6.901   6.990 -0.1227  0.2055 -0.1353
  501MOL0     C69015  10.621   6.794   7.095  0.3681 -0.3985 -0.5312
  501MOL0     C69016  10.710   6.752   7.205  0.0061  0.1294 -0.0766
  501MOL0     N69017  10.688   6.825   7.328  0.6652  0.5769  0.4184
  501MOL0     C69018  10.567   6.851   7.392  0.1120  0.0118  0.0649
  501MOL0     C69019  10.592   6.972   7.456  1.0248  0.0529 -0.7109
  501MOL0     C69020  10.488   7.052   7.530  0.8227 -0.5554 -0.7257
  501MOL0     C69021  10.449   7.181   7.460 -0.0496 -0.0319 -0.2320
  501MOL0     C69022  10.545   7.303   7.476 -0.3686 -0.2289  0.2541
  501MOL0     C69023  10.641   7.327   7.358 -0.1624  0.8471  0.1750
  501MOL0     O69024  10.694   7.459   7.350  0.6128  0.2270 -0.3884
  501MOL0     C69025  10.594   7.554   7.316 -1.0675 -0.0950  0.8988
  501MOL0     C69026  10.565   7.661   7.406 -0.2676  0.0499 -0.2488
  501MOL0     C69027  10.467   7.760   7.373  0.2794  0.0074  1.0146
  501MOL0     C69028  10.432   7.856   7.478  0.0138 -0.3136 -0.5911
  501MOL0     C69029  10.391   7.752   7.252  0.3848 -0.1099  0.6311
  501MOL0     C69030  10.283   7.843   7.208 -0.2299  0.5640  0.1343
  501MOL0     O69031  10.210   7.787   7.108 -0.1431 -0.6979 -0.7140
  501MOL0     C69032  10.116   7.880   7.069  0.1695 -0.6219  0.7283
  501MOL0     C69033  10.117   7.951   6.946 -0.2234  0.1785  0.4011
  501MOL0     C69034  10.009   8.031   6.910  1.0432  0.3609 -0.6276
  501MOL0     C69035   9.901   8.058   6.998  0.6871  0.4655 -0.4194
  501MOL0     O69036   9.796   8.137   6.967  0.1691  0.3355  0.6479
  501MOL0     C69037   9.690   8.062   6.912  0.8237  0.4934 -0.4906
  501MOL0     C69038   9.568   8.148   6.880 -0.5094  0.7039 -0.2211
  501MOL0     C69039   9.605   8.273   6.796 -0.4451  0.6236 -0.9499
  501MOL0     C69040   9.485   8.349   6.745  0.4651  0.4835  0.4761
  501MOL0     C69041   9.520   8.495   6.727 -0.2618 -1.2620 -0.4616
  501MOL0     C69042   9.423   8.562   6.621 -0.2664  0.9327 -0.0346
  501MOL0     C69043   9.461   8.704   6.596 -0.0853  0.2689  0.3403
  501MOL0     C69044   9.493   8.745   6.452 -0.2855  0.4238  0.6254
  501MOL0    Cl69045   9.572   8.902   6.447 -0.6983  0.5589 -0.5383
  501MOL0     C69046   9.913   8.003   7.123  0.5432 -0.6285  0.2358
  501MOL0     C69047  10.015   7.917   7.159  0.4785  0.3363  0.8053
  501MOL0     O69048  10.279   7.960   7.253 -0.2096 -0.4485 -0.4355
  501MOL0     C69049  10.434   7.652   7.165  0.2388  0.3192  0.0079
  501MOL0     C69050  10.527   7.550   7.203 -0.3612 -0.9671  0.7186
  501MOL0     N69051  10.731   7.001   7.442  0.1840  0.2906  1.0216
  501MOL0     N69052  10.789   6.916   7.368  1.0343  1.3629 -0.2672
  501MOL0     C69053  10.651   7.303   6.466  0.0527 -0.3946 -1.1329
  501MOL0     C69054  10.532   7.288   6.389 -0.5421 -0.8874  0.5495
  501MOL0     C69055  10.293   7.100   6.031 -0.0040 -0.6177  0.5625
  501MOL0     C69056  10.310   7.060   5.892 -0.2870  0.3157 -0.5441
  501MOL0     C69057  10.198   7.048   5.803 -1.2624 -0.4577 -0.9087
  501MOL0     C69058  10.074   7.093   5.849  0.8236  0.0495 -0.3493
  501MOL0     O69059   9.956   7.091   5.781  0.1106 -0.2144 -0.1291
  501MOL0     C69060   9.963   7.096   5.637  0.0548 -0.7090 -0.5616
  501MOL0     C69061   9.823   7.051   5.592  0.8810 -0.1620 -0.6461
  501MOL0     C69062   9.779   7.119   5.464  1.5579  0.2626  0.9316
  501MOL0     C69063   9.653   7.046   5.410 -0.2226  0.5673  0.1777
  501MOL0     C69064   9.598   7.115   5.290 -0.4775  0.1071 -0.3651
  501MOL0     C69065   9.535   7.166   5.200  0.1596  0.6330  0.6795
  501MOL0     C69066  10.062   7.138   5.976 -0.7941 -0.4012  0.5984
  501MOL0     C69067  10.165   7.149   6.072  0.0705  0.8392  0.0103
  501MOL0     C69068  10.120   7.221   6.196 -0.5810  0.6422 -0.6515
  501MOL0     H69069  10.515   6.943   6.383 -1.9612 -0.0343  1.3642
  501MOL0     H69070  10.712   6.973   6.525 -0.5684 -0.2163  0.1065
  501MOL0     H69071  10.724   7.324   6.749 -0.1643 -0.4187  1.7313
  501MOL0     H69072  10.852   7.397   6.658 -2.9157  1.5848  2.3550
  501MOL0     H69073  11.014   7.267   6.794 -0.4444  0.7899 -1.3187
  501MOL0     H69074  10.896   7.356   6.888  0.5067 -0.7853  1.5686
  501MOL0     H69075  10.834   7.049   6.836 -1.8641 -0.6611  1.1176
  501MOL0     H69076  10.956   7.103   6.955 -0.5392 -1.6241 -0.9206
  501MOL0     H69077  10.772   7.245   7.050  2.6069 -0.3231  0.0517
  501MOL0     H69078  10.677   7.193   6.916  1.4862 -0.2988 -0.7813
  501MOL0     H69079  10.618   7.058   7.137 -0.7096 -1.1145  0.5403
  501MOL0     H69080  10.789   7.009   7.130  0.5333 -1.7444 -1.1044
  501MOL0     H69081  10.606   6.917   6.905 -0.2396  2.1831  0.3025
  501MOL0     H69082  10.764   6.858   6.947 -0.7627 -0.2397 -1.0756
  501MOL0     H69083  10.612   6.705   7.032  0.2701 -0.6547 -0.1545
  501MOL0     H69084  10.520   6.827   7.123  0.2690  2.3221 -3.4961
  501MOL0     H69085  10.700   6.644   7.221  0.4761  0.3871  2.2604
  501MOL0     H69086  10.809   6.761   7.159  0.4010 -0.8550  0.5475
  501MOL0     H69087  10.483   6.783   7.382  0.7522 -0.6795 -0.8913
  501MOL0     H69088  10.532   7.077   7.627  0.9664  1.1563 -1.2046
  501MOL0     H69089  10.403   6.984   7.545  0.6722 -0.0053  1.1168
  501MOL0     H69090  10.441   7.171   7.351 -0.9401 -0.5462 -0.1235
  501MOL0     H69091  10.353   7.206   7.505 -0.9928 -1.4035 -1.3984
  501MOL0     H69092  10.474   7.384   7.499 -1.2622 -0.7509 -0.5991
  501MOL0     H69093  10.604   7.289   7.567  0.5952  1.8171  0.0017
  501MOL0     H69094  10.721   7.253   7.367 -0.6020  0.5161  1.5592
  501MOL0     H69095  10.587   7.306   7.265  1.6408  0.3154 -0.8009
  501MOL0     H69096  10.609   7.673   7.505 -2.0446  1.3642  0.4385
  501MOL0     H69097  10.323   7.850   7.481  0.0466 -0.7423  2.3195
  501MOL0     H69098  10.459   7.959   7.453  0.0879 -0.2175 -0.1254
  501MOL0     H69099  10.473   7.819   7.572  1.6854 -0.7071 -1.4311
  501MOL0     H69100  10.203   7.942   6.880  0.9982 -4.4624  2.2248
  501MOL0     H69101  10.021   8.077   6.812  1.3584  0.7020 -0.4310
  501MOL0     H69102   9.723   8.023   6.816 -1.8190 -0.3915 -1.1212
  501MOL0     H69103   9.664   7.974   6.972  0.5450 -0.0007 -1.3283
  501MOL0     H69104   9.501   8.088   6.818 -0.9284 -0.5862  1.3820
  501MOL0     H69105   9.509   8.168   6.970 -1.1921 -1.0841 -0.2169
  501MOL0     H69106   9.673   8.247   6.713  0.3103  1.3870 -0.5892
  501MOL0     H69107   9.659   8.339   6.864  1.8895  3.3161 -4.9813
  501MOL0     H69108   9.400   8.352   6.815 -2.0686 -0.0110 -2.3785
  501MOL0     H69109   9.442   8.308   6.654 -1.1191 -0.8846  1.7582
  501MOL0     H69110   9.509   8.546   6.823  0.7169 -0.2621 -0.8748
  501MOL0     H69111   9.624   8.508   6.696  0.4922 -1.6094  1.7195
  501MOL0     H69112   9.322   8.554   6.662 -1.8055 -0.3630 -3.6702
  501MOL0     H69113   9.419   8.505   6.528 -1.8541 -0.5472  0.8825
  501MOL0     H69114   9.556   8.724   6.648 -0.0509  1.3901 -0.1138
  501MOL0     H69115   9.380   8.773   6.620  2.4913  4.5909 -2.0288
  501MOL0     H69116   9.396   8.752   6.402 -0.7746 -2.5040  1.0035
  501MOL0     H69117   9.543   8.665   6.397  1.1133  0.8565  1.2304
  501MOL0     H69118   9.831   8.020   7.192  0.4659 -0.8271  0.1956
  501MOL0     H69119  10.019   7.876   7.260 -1.3453 -1.1009  0.3483
  501MOL0     H69120  10.403   7.641   7.062 -0.3125 -1.2428  0.3016
  501MOL0     H69121  10.551   7.473   7.130  0.7966  2.8428 -3.3840
  501MOL0     H69122  10.691   7.400   6.492 -0.5257 -0.1780 -1.0325
  501MOL0     H69123  10.464   7.366   6.356 -1.6489 -1.5295  1.2510
  501MOL0     H69124  10.412   7.041   5.861 -0.6164 -0.6299 -1.0907
  501MOL0     H69125  10.211   7.000   5.707 -3.6575  1.0652 -2.0815
  501MOL0     H69126  10.005   7.195   5.615  2.7102 -1.3486  1.1004
  501MOL0     H69127  10.040   7.036   5.587  2.0559  1.6408 -0.4689
  501MOL0     H69128   9.744   7.065   5.667 -0.1759 -1.9641 -1.3666
  501MOL0     H69129   9.817   6.944   5.572 -2.9725 -0.3679  0.8233
  501MOL0     H69130   9.754   7.223   5.483 -0.3022  0.3077 -1.2385
  501MOL0     H69131   9.862   7.111   5.393  2.1152 -2.2897  1.7498
  501MOL0     H69132   9.576   7.038   5.488  1.2431 -1.1474  1.5438
  501MOL0     H69133   9.686   6.946   5.381  0.5384  0.3657  1.6540
  501MOL0     H69134   9.487   7.212   5.117  0.5722 -0.8332 -0.4098
  501MOL0     H69135   9.958   7.155   6.002 -1.2795  0.2328 -1.5770
  501MOL0     H69136  10.124   7.155   6.284 -1.4965  0.4423 -0.7478
  501MOL0     H69137  10.183   7.309   6.213 -0.9379  0.4912  1.8667
  501MOL0     H69138  10.014   7.243   6.187 -0.8413 -0.7252 -1.2651
  502MOL0     O69139   0.316   3.234   0.049  0.3776  0.2870 -0.3073
  502MOL0     C69140   0.358   3.329   0.115 -0.2377  0.5272 -1.0467
  502MOL0     O69141   0.449   3.426   0.075  0.4692  0.4090  0.2868
  502MOL0     C69142   0.480   3.439  -0.059  0.4853  0.6617  0.5121
  502MOL0     C69143   0.546   3.333  -0.125  0.5502 -0.0926  1.0278
  502MOL0     C69144   0.583   3.345  -0.260 -0.5744  0.2573 -0.1466
  502MOL0     C69145   0.584   3.467  -0.324  0.0035 -0.5237 -0.4286
  502MOL0     O69146   0.635   3.482  -0.448 -0.4196  0.5398  0.2458
  502MOL0     C69147   0.763   3.552  -0.440 -0.5910  0.1651  0.4702
  502MOL0     C69148   0.826   3.527  -0.578 -0.0615 -0.0369  0.0510
  502MOL0     C69149   0.767   3.626  -0.681 -0.2081 -0.5485  0.1450
  502MOL0     C69150   0.799   3.585  -0.820 -0.6915 -0.1918 -0.0751
  502MOL0     C69151   0.803   3.702  -0.924 -0.4095 -1.0376 -0.0361
  502MOL0     C69152   0.820   3.647  -1.073  0.4635  0.0961 -0.2094
  502MOL0     C69153   0.848   3.758  -1.175  1.0497  0.1766  0.3288
  502MOL0     C69154   0.723   3.857  -1.196 -0.2454  0.0361 -1.0025
  502MOL0     N69155   0.749   3.955  -1.303 -0.1038 -0.7753 -0.3349
  502MOL0     C69156   0.776   3.932  -1.433  0.0688 -0.1696 -0.2097
  502MOL0     C69157   0.770   4.053  -1.486 -0.4633  0.3950  0.5869
  502MOL0     C69158   0.769   4.079  -1.640  0.9408 -0.1701 -0.4058
  502MOL0     C69159   0.912   4.100  -1.694 -0.1815  0.4161 -0.9898
  502MOL0     C69160   1.005   3.987  -1.665 -0.5077 -0.2238 -0.8220
  502MOL0     C69161   1.145   4.006  -1.716 -0.6404 -0.5578  0.6281
  502MOL0     O69162   1.197   4.122  -1.655 -0.2746 -0.2334 -1.0953
  502MOL0     C69163   1.233   4.238  -1.723  0.0379 -0.5727 -0.2569
  502MOL0     C69164   1.194   4.274  -1.856  0.4197  0.5275  0.4119
  502MOL0     C69165   1.253   4.376  -1.927  0.0015 -0.2230  0.1323
  502MOL0     C69166   1.206   4.393  -2.078 -0.3491 -0.7096 -0.6124
  502MOL0     C69167   1.346   4.457  -1.863  0.6726  0.9945 -1.2518
  502MOL0     C69168   1.410   4.574  -1.922 -0.9472  0.0375  0.3866
  502MOL0     O69169   1.482   4.654  -1.834 -0.2325  0.4225 -0.7038
  502MOL0     C69170   1.542   4.770  -1.874 -0.0507 -0.3895  0.5132
  502MOL0     C69171   1.659   4.811  -1.801 -0.5809  0.5873 -0.1261
  502MOL0     C69172   1.734   4.918  -1.851  0.3351  0.0291  0.0331
  502MOL0     C69173   1.680   5.011  -1.937 -0.7945  0.3638  0.0297
  502MOL0     O69174   1.748   5.127  -1.966 -0.2303 -0.9716  0.3330
  502MOL0     C69175   1.683   5.237  -2.035  0.0314 -0.4452  0.1889
  502MOL0     C69176   1.558   5.296  -1.965  0.0554 -1.0510  0.6367
  502MOL0     C69177   1.476   5.390  -2.060 -0.0091  0.4369  0.1432
  502MOL0     C69178   1.363   5.463  -1.992  0.3092  0.0228 -0.0626
  502MOL0     C69179   1.413   5.585  -1.916 -0.1297 -0.6417 -0.6264
  502MOL0     C69180   1.478   5.709  -1.987  0.5399  0.2093 -0.3761
  502MOL0     C69181   1.379   5.789  -2.071 -0.6686 -0.0421  0.7514
  502MOL0     C69182   1.364   5.733  -2.209 -0.5718  0.3483  0.5511
  502MOL0    Cl69183   1.285   5.847  -2.333  0.1912 -0.1368 -0.3653
  502MOL0     C69184   1.553   4.981  -1.989  0.0851 -0.2399 -0.7607
  502MOL0     C69185   1.496   4.855  -1.972 -0.0978 -0.4424 -0.4151
  502MOL0     O69186   1.404   4.600  -2.046  0.1998  0.1933 -0.6843
  502MOL0     C69187   1.372   4.438  -1.725 -0.6118 -0.0815  0.7387
  502MOL0     C69188   1.326   4.321  -1.656  1.0381 -0.4826  0.2169
  502MOL0     N69189   0.771   4.152  -1.392 -0.5262  0.4414  0.1622
  502MOL0     N69190   0.767   4.095  -1.276  0.6232  0.3948  0.1006
  502MOL0     C69191   0.521   3.576  -0.259  0.6224 -0.7015  0.3409
  502MOL0     C69192   0.475   3.557  -0.125 -0.1856 -0.3166 -0.9116
  502MOL0     C69193   0.311   3.350   0.253  0.1174 -0.1856 -0.1953
  502MOL0     C69194   0.372   3.445   0.342  0.1835 -0.2888 -0.2715
  502MOL0     C69195   0.333   3.470   0.478  0.9601 -0.1681  1.0003
  502MOL0     C69196   0.227   3.411   0.537 -0.5541 -0.0972 -0.4830
  502MOL0     O69197   0.209   3.438   0.668  0.1178  0.5213 -0.2754
  502MOL0     C69198   0.106   3.366   0.731  0.5115 -0.1178 -0.2237
  502MOL0     C69199  -0.019   3.445   0.721  1.4831  0.2042 -0.7325
  502MOL0     C69200  -0.117   3.405   0.837 -0.5800 -0.6711 -0.1087
  502MOL0     C69201  -0.255   3.465   0.818  0.1152  0.3569  0.1353
  502MOL0     C69202  -0.258   3.616   0.837  0.9774 -0.9000  0.4662
  502MOL0     C69203  -0.266   3.735   0.830 -0.8748 -0.8153  0.3822
  502MOL0     C69204   0.155   3.317   0.457 -0.4004  0.0744 -0.0564
  502MOL0     C69205   0.202   3.284   0.322 -0.2355 -0.0859  0.0436
  502MOL0     C69206   0.133   3.164   0.267  0.4389 -0.2532 -0.0888
  502MOL0     H69207   0.558   3.236  -0.077  0.7383 -1.0616 -0.8821
  502MOL0     H69208   0.622   3.252  -0.301  0.7059  1.7523 -2.5358
  502MOL0     H69209   0.826   3.500  -0.367 -2.7900 -1.3971  1.3861
  502MOL0     H69210   0.753   3.654  -0.403 -1.9196  0.5428 -0.8153
  502MOL0     H69211   0.935   3.532  -0.583  0.1245  0.0757  2.6314
  502MOL0     H69212   0.796   3.427  -0.611  0.3619  0.2201 -1.1519
  502MOL0     H69213   0.658   3.630  -0.671 -0.2954  0.5350 -1.0451
  502MOL0     H69214   0.816   3.724  -0.674 -0.2341 -0.4755 -0.6351
  502MOL0     H69215   0.899   3.542  -0.827  0.3940  1.6360  2.4835
  502MOL0     H69216   0.728   3.506  -0.846  0.7085 -1.6402  0.3943
  502MOL0     H69217   0.878   3.781  -0.911  0.8515 -0.8025 -5.9129
  502MOL0     H69218   0.704   3.750  -0.926 -0.7763 -1.8095 -1.1775
  502MOL0     H69219   0.900   3.572  -1.081 -1.0431 -1.4796 -1.2726
  502MOL0     H69220   0.728   3.599  -1.108  2.1494 -1.3961 -2.9015
  502MOL0     H69221   0.866   3.706  -1.270  0.3183 -0.5679  0.5809
  502MOL0     H69222   0.940   3.810  -1.147  1.3439 -0.6831  0.9893
  502MOL0     H69223   0.631   3.803  -1.221 -1.0034  1.1764 -0.7339
  502MOL0     H69224   0.712   3.911  -1.102 -0.5469  1.9870 -2.1034
  502MOL0     H69225   0.794   3.840  -1.488 -0.0581 -2.4307  3.1821
  502MOL0     H69226   0.718   4.172  -1.665  0.2729 -0.8008 -1.4695
  502MOL0     H69227   0.711   3.997  -1.684 -1.3997  0.4088  1.3928
  502MOL0     H69228   0.922   4.115  -1.802  3.8042  1.4449 -0.6299
  502MOL0     H69229   0.951   4.196  -1.658 -0.2607  0.9180 -2.1901
  502MOL0     H69230   1.011   3.972  -1.557 -0.6504 -2.9722 -1.1239
  502MOL0     H69231   0.966   3.897  -1.713  0.4144 -2.2575  1.9407
  502MOL0     H69232   1.218   3.926  -1.699 -0.5872  0.0710  4.1067
  502MOL0     H69233   1.138   4.016  -1.825  1.5228  3.8071  0.6969
  502MOL0     H69234   1.127   4.209  -1.911 -0.2423  3.2601 -2.3289
  502MOL0     H69235   1.284   4.364  -2.149  2.3242 -0.4309  2.0215
  502MOL0     H69236   1.192   4.499  -2.102 -1.5113 -1.0567 -1.5258
  502MOL0     H69237   1.109   4.351  -2.106 -1.9103  2.4831 -0.4650
  502MOL0     H69238   1.692   4.747  -1.719  0.8845  0.0675 -1.0863
  502MOL0     H69239   1.831   4.930  -1.803 -2.2179 -0.3633  6.2639
  502MOL0     H69240   1.750   5.324  -2.030  1.0714 -1.2938  4.4063
  502MOL0     H69241   1.677   5.202  -2.139 -1.5302 -1.0141  0.4483
  502MOL0     H69242   1.494   5.222  -1.915 -0.5668 -2.8721 -2.5588
  502MOL0     H69243   1.605   5.368  -1.897  0.3286  0.8901 -1.5215
  502MOL0     H69244   1.426   5.328  -2.135 -2.0427  0.4094  1.4611
  502MOL0     H69245   1.549   5.461  -2.100  1.8051 -1.6307 -0.4428
  502MOL0     H69246   1.310   5.393  -1.927 -1.2437  0.7965 -0.4419
  502MOL0     H69247   1.291   5.510  -2.060 -1.1255  2.4940  2.9494
  502MOL0     H69248   1.320   5.628  -1.878 -0.9132  0.1185 -3.2109
  502MOL0     H69249   1.477   5.556  -1.832 -0.4184 -2.2842 -0.9460
  502MOL0     H69250   1.580   5.687  -2.023  1.2739 -2.2676  2.7481
  502MOL0     H69251   1.501   5.770  -1.899 -1.0893 -2.3801  1.9972
  502MOL0     H69252   1.427   5.887  -2.084 -0.0257 -0.5995 -1.6433
  502MOL0     H69253   1.280   5.787  -2.025 -1.3557 -0.2891 -0.6903
  502MOL0     H69254   1.293   5.651  -2.203  2.2536 -2.1964  1.7360
  502MOL0     H69255   1.458   5.698  -2.253  0.3499 -0.2527  2.8552
  502MOL0     H69256   1.503   5.051  -2.055  0.8346  0.3771 -0.6864
  502MOL0     H69257   1.401   4.840  -2.023 -1.1162 -0.4465  1.3828
  502MOL0     H69258   1.443   4.492  -1.663  0.2042 -2.1118  1.6961
  502MOL0     H69259   1.354   4.305  -1.553  1.6691 -0.3800  0.0609
  502MOL0     H69260   0.514   3.671  -0.312  2.9442 -1.7716 -2.1088
  502MOL0     H69261   0.448   3.643  -0.065 -0.5028 -1.6364  0.9271
  502MOL0     H69262   0.451   3.505   0.299 -0.1724 -0.8961 -1.8544
  502MOL0     H69263   0.392   3.531   0.545  3.4849 -0.8182 -0.5017
  502MOL0     H69264   0.085   3.264   0.696 -0.0523 -1.5706  3.8039
  502MOL0     H69265   0.139   3.354   0.835 -0.1344  0.7398  0.0837
  502MOL0     H69266  -0.073   3.431   0.627  0.4108 -1.9938  0.1349
  502MOL0     H69267  -0.002   3.553   0.727 -0.2157  0.5399 -1.3514
  502MOL0     H69268  -0.128   3.296   0.829  0.2220 -0.8124  0.6066
  502MOL0     H69269  -0.065   3.441   0.926  0.6638 -1.2765 -0.5651
  502MOL0     H69270  -0.323   3.433   0.897  0.0403  0.3647  0.0732
  502MOL0     H69271  -0.300   3.451   0.720 -0.0601  2.1577 -0.0696
  502MOL0     H69272  -0.262   3.841   0.811  0.3308 -1.0538 -0.8413
  502MOL0     H69273   0.061   3.283   0.497 -0.6614  1.7854  0.8653
  502MOL0     H69274   0.201   3.080   0.256 -0.5229 -0.7585 -3.2499
  502MOL0     H69275   0.049   3.144   0.334  0.8708  1.6297  1.1077
  502MOL0     H69276   0.094   3.204   0.173 -0.7207  2.8124  1.5425
  503MOL0     O69277   3.330  10.653  10.807 -0.1427  0.2127  0.5187
  503MOL0     C69278   3.256  10.746  10.808  1.2340  0.2871  0.0481
  503MOL0     O69279   3.291  10.882  10.812  0.8155 -0.4078  0.7103
  503MOL0     C69280   3.417  10.914  10.829 -0.5582  0.8356  0.2895
  503MOL0     C69281   3.473  10.890  10.954  0.2736  0.0310  0.1381
  503MOL0     C69282   3.606  10.927  10.979 -0.5646 -0.4236 -0.1280
  503MOL0     C69283   3.684  10.996  10.877  1.2393  0.0902  0.3069
  503MOL0     O69284   3.807  11.052  10.904  0.2813  0.0069 -0.1977
  503MOL0     C69285   3.879  11.015  11.018  0.2621  0.2719 -0.7258
  503MOL0     C69286   4.027  11.050  10.999  0.0580 -0.6182 -0.7060
  503MOL0     C69287   4.115  11.027  11.123  0.1962  0.0433  0.3771
  503MOL0     C69288   4.256  11.068  11.105 -0.2716 -0.3196 -0.4416
  503MOL0     C69289   4.345  11.043  11.225  0.7358  0.3788  0.6415
  503MOL0     C69290   4.488  11.085  11.199 -0.6971  0.0964  0.6209
  503MOL0     C69291   4.582  11.025  11.307 -0.8921  0.0934  1.0304
  503MOL0     C69292   4.729  11.038  11.253 -0.5556 -0.5514  0.5392
  503MOL0     N69293   4.842  11.003  11.342  0.7385  0.0637 -0.3978
  503MOL0     C69294   4.849  11.067  11.459  0.5288  0.6987 -0.6777
  503MOL0     C69295   4.970  11.030  11.498  0.0683  0.2529 -0.2929
  503MOL0     C69296   5.037  11.067  11.636 -0.1268 -0.3652 -0.2083
  503MOL0     C69297   5.123  11.179  11.630  0.0150 -0.6160  0.1596
  503MOL0     C69298   5.212  11.174  11.756  0.1872  0.0844 -1.0938
  503MOL0     C69299   5.288  11.311  11.778 -0.4962 -0.1409  0.5674
  503MOL0     O69300   5.327  11.300  11.921 -0.3261 -0.1657 -0.0745
  503MOL0     C69301   5.451  11.257  11.946 -0.8809 -0.5470 -0.0077
  503MOL0     C69302   5.565  11.286  11.868 -0.9335 -0.5207  0.0803
  503MOL0     C69303   5.696  11.248  11.909 -0.6581 -0.2627 -1.3629
  503MOL0     C69304   5.815  11.281  11.821 -0.2668 -0.0040  0.2944
  503MOL0     C69305   5.711  11.171  12.024  0.2363  0.7922 -0.8825
  503MOL0     C69306   5.838  11.108  12.078 -0.2114 -0.3755 -0.9259
  503MOL0     O69307   5.817  11.015  12.177 -0.0048  0.4924 -0.3999
  503MOL0     C69308   5.926  10.960  12.234  0.2056  0.8437  0.4779
  503MOL0     C69309   5.989  11.036  12.333  0.4288 -0.2608 -0.2460
  503MOL0     C69310   6.111  10.986  12.392 -0.0412 -0.2865  0.2104
  503MOL0     C69311   6.164  10.857  12.354 -0.8405  0.6719 -0.3341
  503MOL0     O69312   6.287  10.818  12.397 -0.9232  0.3735 -0.2497
  503MOL0     C69313   6.398  10.901  12.397 -0.2688  0.3499 -0.2538
  503MOL0     C69314   6.512  10.815  12.456 -0.0366  0.7572 -0.0379
  503MOL0     C69315   6.630  10.906  12.494 -0.1962 -0.1635  0.3533
  503MOL0     C69316   6.736  10.919  12.382  0.4290  0.1979  0.2870
  503MOL0     C69317   6.864  10.969  12.445  0.3038  0.3470  0.3607
  503MOL0     C69318   6.977  11.008  12.343  0.3199  0.6405 -0.2204
  503MOL0     C69319   7.109  11.028  12.410 -0.5495  0.1097  0.9279
  503MOL0     C69320   7.210  11.109  12.322 -0.2059 -0.2130  0.3196
  503MOL0    Cl69321   7.371  11.160  12.407 -0.1619 -0.3923 -0.4848
  503MOL0     C69322   6.094  10.785  12.263 -0.3082  0.6106  0.0433
  503MOL0     C69323   5.980  10.837  12.201  0.5999 -0.1206  0.9200
  503MOL0     O69324   5.952  11.141  12.029  0.1303  0.2223 -0.2143
  503MOL0     C69325   5.596  11.151  12.105  0.3259  0.3697  0.0777
  503MOL0     C69326   5.469  11.194  12.064 -0.6318  0.0167  0.9045
  503MOL0     N69327   5.022  10.931  11.409 -0.2857 -0.8129 -0.0339
  503MOL0     N69328   4.936  10.908  11.321 -0.7566  0.2128  0.2599
  503MOL0     C69329   3.617  11.023  10.755  0.2874 -0.0392  0.9852
  503MOL0     C69330   3.490  10.984  10.725  0.7447  0.3173  0.6727
  503MOL0     C69331   3.104  10.736  10.805  0.1308 -0.0164  0.3926
  503MOL0     C69332   3.063  10.605  10.815  0.1142  0.2298 -0.2145
  503MOL0     C69333   2.933  10.572  10.801  0.3118  0.0887 -0.2571
  503MOL0     C69334   2.844  10.665  10.751  0.1816 -0.2917  1.0526
  503MOL0     O69335   2.713  10.626  10.743 -0.8230 -0.1864  0.3058
  503MOL0     C69336   2.609  10.717  10.688  0.0984 -0.0357 -0.2978
  503MOL0     C69337   2.481  10.645  10.665 -0.0672 -0.9255  1.3201
  503MOL0     C69338   2.424  10.570  10.788  0.6457 -0.1794  1.0730
  503MOL0     C69339   2.350  10.668  10.891  0.8434  0.0386  0.5134
  503MOL0     C69340   2.248  10.750  10.823 -0.3504 -0.2167 -0.4829
  503MOL0     C69341   2.158  10.802  10.760 -0.7059 -0.5419  0.0416
  503MOL0     C69342   2.884  10.798  10.724  0.6470 -0.1528 -0.0281
  503MOL0     C69343   3.015  10.836  10.753  0.0967 -0.2055 -0.2851
  503MOL0     C69344   3.046  10.986  10.737 -0.0689 -0.1943 -0.3542
  503MOL0     H69345   3.409  10.848  11.031  0.4039  3.1128  2.0897
  503MOL0     H69346   3.648  10.903  11.076 -0.2007  1.3179  0.1859
  503MOL0     H69347   3.865  10.907  11.026  1.7540  0.0512 -0.8529
  503MOL0     H69348   3.838  11.059  11.110 -1.4940 -4.6994  1.2243
  503MOL0     H69349   4.070  10.982  10.925  0.8268 -1.6921  0.6711
  503MOL0     H69350   4.045  11.148  10.954  1.4453 -0.4025  0.2419
  503MOL0     H69351   4.057  11.079  11.200 -2.2200 -0.9942 -0.6348
  503MOL0     H69352   4.120  10.920  11.143 -0.2705 -0.1981 -0.7272
  503MOL0     H69353   4.300  11.015  11.020  1.9791 -1.1456  1.1492
  503MOL0     H69354   4.249  11.175  11.084 -1.0279 -0.0200  1.1999
  503MOL0     H69355   4.338  10.938  11.253 -0.5571  0.4687  0.7151
  503MOL0     H69356   4.305  11.089  11.316  1.3720  0.9509  0.6403
  503MOL0     H69357   4.526  11.053  11.102  2.2578 -0.7627  1.9469
  503MOL0     H69358   4.493  11.193  11.213  1.0605  0.0368  0.6704
  503MOL0     H69359   4.559  10.920  11.328 -2.3056  0.7565  3.1136
  503MOL0     H69360   4.572  11.082  11.400  0.2801  0.9594  0.6523
  503MOL0     H69361   4.733  10.982  11.159 -0.3409 -0.3175  0.4058
  503MOL0     H69362   4.731  11.142  11.219  0.8930 -1.3519 -2.2161
  503MOL0     H69363   4.785  11.136  11.513  1.1173  0.3593  0.4755
  503MOL0     H69364   5.093  10.979  11.668 -0.6764 -0.1944  1.2741
  503MOL0     H69365   4.963  11.082  11.715 -0.1027 -0.6785 -0.1264
  503MOL0     H69366   5.184  11.189  11.539  0.7315  3.0425  0.8963
  503MOL0     H69367   5.056  11.265  11.635  3.6719  2.4679  0.4448
  503MOL0     H69368   5.138  11.162  11.835 -0.0555 -0.9918 -1.4677
  503MOL0     H69369   5.273  11.084  11.742 -0.6870 -0.8891  0.9798
  503MOL0     H69370   5.363  11.327  11.701 -0.3942 -1.3811  0.3821
  503MOL0     H69371   5.213  11.390  11.780  0.5089  0.8402  0.2175
  503MOL0     H69372   5.554  11.333  11.771 -2.8807 -0.4567  0.3066
  503MOL0     H69373   5.868  11.370  11.856 -1.0730  0.5700  0.0990
  503MOL0     H69374   5.769  11.305  11.724  1.3804 -3.1485 -1.3954
  503MOL0     H69375   5.884  11.199  11.801  0.7164  1.0526 -0.8518
  503MOL0     H69376   5.942  11.131  12.354  2.4539  0.8941 -0.6721
  503MOL0     H69377   6.165  11.054  12.458  0.7934 -0.8284  0.1119
  503MOL0     H69378   6.425  10.933  12.296 -0.4493  1.8523  0.1574
  503MOL0     H69379   6.386  10.992  12.455  0.1783  0.4871 -0.3736
  503MOL0     H69380   6.478  10.764  12.547 -0.1426 -1.5257 -1.2839
  503MOL0     H69381   6.533  10.731  12.389 -0.6112 -0.3554  1.1307
  503MOL0     H69382   6.671  10.861  12.584 -0.3110  0.5625  0.7707
  503MOL0     H69383   6.589  11.003  12.522  0.1506 -0.3344  1.4783
  503MOL0     H69384   6.688  10.987  12.311  0.9537 -1.1570 -1.4094
  503MOL0     H69385   6.755  10.824  12.332  0.4311 -0.0924  0.8293
  503MOL0     H69386   6.837  11.048  12.515  0.7401  0.3202  0.5652
  503MOL0     H69387   6.904  10.892  12.512 -0.9557 -1.0765 -0.4461
  503MOL0     H69388   6.952  11.103  12.295  0.2865  0.2376 -1.0143
  503MOL0     H69389   6.977  10.932  12.264  1.6769  2.4970 -2.1181
  503MOL0     H69390   7.152  10.928  12.423 -0.9526  0.0524  1.9509
  503MOL0     H69391   7.097  11.079  12.507 -2.0897  1.0846  0.2717
  503MOL0     H69392   7.171  11.205  12.287 -0.9055  0.5007  2.8371
  503MOL0     H69393   7.238  11.047  12.236 -0.5977 -0.8457  0.6449
  503MOL0     H69394   6.140  10.692  12.235  0.3570  1.7470 -3.0376
  503MOL0     H69395   5.920  10.792  12.122 -2.3435  1.3645  2.1237
  503MOL0     H69396   5.595  11.086  12.193 -0.0114  3.7977  2.8241
  503MOL0     H69397   5.386  11.172  12.130  1.2144 -1.3983  2.9102
  503MOL0     H69398   3.670  11.071  10.673 -1.5231  1.4443  0.6391
  503MOL0     H69399   3.437  11.006  10.633 -0.0548 -1.3520  0.6961
  503MOL0     H69400   3.133  10.532  10.856  0.1000  0.0409 -0.5274
  503MOL0     H69401   2.902  10.473  10.832 -0.8871  0.2823 -0.7615
  503MOL0     H69402   2.583  10.800  10.755 -0.2337 -0.0463 -0.4129
  503MOL0     H69403   2.652  10.762  10.597 -0.9516  4.6574  1.2446
  503MOL0     H69404   2.502  10.572  10.587  2.9878  0.6520  0.4748
  503MOL0     H69405   2.409  10.714  10.620  1.1584 -0.9700 -0.8123
  503MOL0     H69406   2.359  10.494  10.742  1.5651 -1.0553  1.1787
  503MOL0     H69407   2.505  10.519  10.840  3.4261  1.7230 -1.0980
  503MOL0     H69408   2.420  10.742  10.933  1.7808 -0.7760  0.4402
  503MOL0     H69409   2.304  10.619  10.977  0.0292 -0.6975 -0.3227
  503MOL0     H69410   2.074  10.856  10.719 -0.5769  0.9749  1.6641
  503MOL0     H69411   2.811  10.875  10.699  1.8645  1.6068  1.6105
  503MOL0     H69412   3.116  11.001  10.654  3.5340 -0.7879  2.3285
  503MOL0     H69413   2.962  11.050  10.707  1.7132  1.8360 -1.3265
  503MOL0     H69414   3.101  11.026  10.822  1.2421  0.1610 -1.3269
  504MOL0     O69415   4.461   5.718   2.248 -0.4364  0.0738 -0.2595
  504MOL0     C69416   4.536   5.815   2.232  0.0213 -0.3819 -0.3153
  504MOL0     O69417   4.562   5.870   2.109 -0.0474 -0.0254  0.1528
  504MOL0     C69418   4.510   5.801   2.003 -0.4277 -0.0261  1.2937
  504MOL0     C69419   4.382   5.822   1.958  0.6732 -0.2760 -0.4733
  504MOL0     C69420   4.337   5.755   1.842 -0.4750  0.4778  0.6116
  504MOL0     C69421   4.432   5.680   1.762 -0.0932 -0.6528  0.3945
  504MOL0     O69422   4.403   5.649   1.625 -0.6064  0.2926 -1.1722
  504MOL0     C69423   4.281   5.683   1.558 -0.8843  0.8175 -0.4363
  504MOL0     C69424   4.305   5.669   1.407 -0.1918  0.2304  0.1882
  504MOL0     C69425   4.173   5.694   1.328  0.0750  0.5903 -0.5607
  504MOL0     C69426   4.191   5.679   1.180  0.3275  0.2621  0.2193
  504MOL0     C69427   4.062   5.700   1.101  0.2134  0.0102  0.1722
  504MOL0     C69428   4.071   5.665   0.953 -0.5440  0.1117 -0.6429
  504MOL0     C69429   3.941   5.702   0.884  0.1125  0.2435  0.1328
  504MOL0     C69430   3.949   5.661   0.739 -0.3200  1.1223  0.3362
  504MOL0     N69431   3.828   5.655   0.666  0.3246  0.3088  0.1684
  504MOL0     C69432   3.798   5.542   0.595 -0.3017 -1.0593  0.4688
  504MOL0     C69433   3.678   5.569   0.555  0.3546  0.6046 -0.0517
  504MOL0     C69434   3.590   5.487   0.472  0.4426  0.3296 -0.7621
  504MOL0     C69435   3.517   5.373   0.550  0.1573  0.8334 -0.4104
  504MOL0     C69436   3.584   5.263   0.620 -0.3027 -0.8300  0.2874
  504MOL0     C69437   3.647   5.164   0.524 -0.5578 -0.4727 -0.6665
  504MOL0     O69438   3.773   5.216   0.470 -0.0042 -0.2958  0.4473
  504MOL0     C69439   3.844   5.137   0.386  0.2944 -1.0920 -1.2484
  504MOL0     C69440   3.951   5.187   0.335 -0.3971 -0.2490 -0.0013
  504MOL0     C69441   4.038   5.119   0.237  0.2513  0.2836  0.4337
  504MOL0     C69442   4.162   5.188   0.185 -0.0688  0.7153  1.0047
  504MOL0     C69443   3.991   4.991   0.197 -0.0258  0.3537 -0.1870
  504MOL0     C69444   4.067   4.905   0.100  0.6627  0.2128 -0.4716
  504MOL0     O69445   4.135   4.969   0.010  0.4868 -0.6026  1.2105
  504MOL0     C69446   4.235   4.903  -0.058  0.4354  0.0650  0.1158
  504MOL0     C69447   4.228   4.900  -0.200  0.0795 -0.6097 -0.7273
  504MOL0     C69448   4.339   4.858  -0.270 -0.1334  0.9471 -0.2276
  504MOL0     C69449   4.463   4.836  -0.200  0.4273  0.2517 -0.2465
  504MOL0     O69450   4.587   4.807  -0.244  0.0104  0.5042 -0.2920
  504MOL0     C69451   4.605   4.813  -0.384 -0.6688 -0.1815 -0.2150
  504MOL0     C69452   4.750   4.792  -0.417  0.0991 -0.8019  1.0254
  504MOL0     C69453   4.752   4.806  -0.576 -0.4195  0.3444 -0.3943
  504MOL0     C69454   4.894   4.796  -0.637 -0.5378  0.1929  0.4557
  504MOL0     C69455   4.986   4.922  -0.610 -0.1058  1.4472  0.4137
  504MOL0     C69456   4.916   5.051  -0.649  0.4129 -0.5506  0.6010
  504MOL0     C69457   5.008   5.178  -0.641  0.7671  0.0527 -0.1105
  504MOL0     C69458   4.923   5.293  -0.646  0.6353 -1.0960  0.9625
  504MOL0    Cl69459   4.925   5.359  -0.817  0.4876 -0.2745 -0.6313
  504MOL0     C69460   4.470   4.831  -0.063  0.2617 -0.0114  0.0115
  504MOL0     C69461   4.352   4.862   0.011 -0.1612  0.7050  0.3689
  504MOL0     O69462   4.047   4.786   0.098 -0.2571 -0.4773  0.0206
  504MOL0     C69463   3.884   4.931   0.256 -0.1574 -0.5449 -0.3682
  504MOL0     C69464   3.810   5.003   0.356 -0.8392 -0.1787 -0.2575
  504MOL0     N69465   3.619   5.676   0.613  0.3737  0.6889  0.6850
  504MOL0     N69466   3.713   5.736   0.673  0.1148  0.8272 -0.0949
  504MOL0     C69467   4.568   5.660   1.805  0.2723 -0.2001 -0.1862
  504MOL0     C69468   4.601   5.718   1.929 -0.7895 -0.0446 -0.1513
  504MOL0     C69469   4.613   5.869   2.346 -0.4572  0.0600 -0.4332
  504MOL0     C69470   4.747   5.900   2.327 -0.0026  0.2360 -0.1801
  504MOL0     C69471   4.839   5.926   2.435  0.4800  0.6516 -0.0990
  504MOL0     C69472   4.793   5.909   2.567  0.0203 -0.2361 -0.2968
  504MOL0     O69473   4.883   5.935   2.660 -0.4130 -0.8325 -0.4804
  504MOL0     C69474   4.849   5.952   2.796  0.0343 -0.2512 -0.6651
  504MOL0     C69475   4.982   5.978   2.872 -0.0115  0.3088  0.5921
  504MOL0     C69476   4.997   6.134   2.854  0.7885 -0.0622 -0.2667
  504MOL0     C69477   5.139   6.184   2.885  0.3960 -0.1118  0.4568
  504MOL0     C69478   5.165   6.184   3.025  0.4955 -0.0213 -0.0914
  504MOL0     C69479   5.198   6.182   3.139  0.2977  0.2523 -0.1566
  504MOL0     C69480   4.657   5.875   2.589 -0.7188  0.1907 -0.2580
  504MOL0     C69481   4.565   5.865   2.486 -0.0605  0.1066  0.0703
  504MOL0     C69482   4.423   5.834   2.520  0.1926 -0.7191  0.1685
  504MOL0     H69483   4.317   5.881   2.021 -0.8402 -1.7752 -0.5666
  504MOL0     H69484   4.237   5.763   1.802 -0.7890  0.8213  1.4356
  504MOL0     H69485   4.240   5.781   1.587 -2.5779 -0.5968  2.4438
  504MOL0     H69486   4.208   5.607   1.587  2.0094 -2.7962 -1.9545
  504MOL0     H69487   4.391   5.724   1.368  0.5657 -1.6961 -0.9668
  504MOL0     H69488   4.337   5.566   1.388 -0.2878  0.3183 -0.4383
  504MOL0     H69489   4.086   5.635   1.359  0.1993  1.4065  1.5205
  504MOL0     H69490   4.147   5.798   1.350 -1.4028  0.1537 -0.1857
  504MOL0     H69491   4.276   5.740   1.149  0.2703  0.3685  0.2711
  504MOL0     H69492   4.230   5.579   1.161  1.0396  0.7052 -0.6923
  504MOL0     H69493   4.035   5.805   1.114 -1.8654 -0.2126 -1.6064
  504MOL0     H69494   3.993   5.626   1.144 -0.6922  0.5661 -0.2802
  504MOL0     H69495   4.156   5.721   0.914  0.9840 -1.2847  0.5604
  504MOL0     H69496   4.094   5.558   0.946 -1.5717 -0.0611 -2.0108
  504MOL0     H69497   3.926   5.810   0.893  0.7164  0.1933  2.1045
  504MOL0     H69498   3.859   5.647   0.931  0.3416  0.1998  0.4851
  504MOL0     H69499   4.029   5.719   0.693  3.0129  1.8660  6.1140
  504MOL0     H69500   3.999   5.564   0.742 -0.2697  1.0194 -1.9401
  504MOL0     H69501   3.860   5.459   0.563 -0.2660  0.3571 -3.8652
  504MOL0     H69502   3.650   5.440   0.393  0.1549 -3.6773  1.1484
  504MOL0     H69503   3.512   5.544   0.421 -2.8417 -2.8050  0.3498
  504MOL0     H69504   3.460   5.429   0.624 -0.1573 -0.8409  0.6667
  504MOL0     H69505   3.447   5.328   0.478 -0.4507 -0.4448  0.9351
  504MOL0     H69506   3.667   5.309   0.673 -1.0552  3.2332 -1.6750
  504MOL0     H69507   3.509   5.209   0.678 -2.3359  2.4756  0.9809
  504MOL0     H69508   3.676   5.073   0.577  0.9666  0.0288 -0.5902
  504MOL0     H69509   3.574   5.144   0.445 -1.2524  3.0159 -1.0730
  504MOL0     H69510   3.961   5.290   0.368  1.0711 -0.3451 -0.0998
  504MOL0     H69511   4.221   5.234   0.266  2.3974 -1.8069  0.7882
  504MOL0     H69512   4.129   5.259   0.108  1.0546  1.4669  1.1856
  504MOL0     H69513   4.236   5.117   0.146 -0.5327  0.5885  0.3371
  504MOL0     H69514   4.134   4.924  -0.247  0.4300  0.3766 -0.9398
  504MOL0     H69515   4.336   4.851  -0.378 -1.4946  1.3154 -0.2388
  504MOL0     H69516   4.533   4.755  -0.442 -1.9792  3.1444 -2.2014
  504MOL0     H69517   4.595   4.917  -0.418 -0.5987 -1.0044 -2.9675
  504MOL0     H69518   4.821   4.856  -0.364 -1.7411  0.4428  2.0953
  504MOL0     H69519   4.784   4.688  -0.407  1.8046 -0.5001 -0.9702
  504MOL0     H69520   4.713   4.907  -0.586  0.9190  0.9557  0.3575
  504MOL0     H69521   4.681   4.736  -0.622  2.7262 -2.1546 -1.8791
  504MOL0     H69522   4.883   4.772  -0.744 -0.8459  1.7527  0.1232
  504MOL0     H69523   4.947   4.708  -0.599  2.0257  1.2173 -0.5547
  504MOL0     H69524   5.012   4.927  -0.504 -0.1345 -1.8672  0.6896
  504MOL0     H69525   5.076   4.890  -0.663 -1.9414 -4.8703  0.2551
  504MOL0     H69526   4.829   5.075  -0.588 -0.5547  0.7011 -1.1709
  504MOL0     H69527   4.872   5.039  -0.749 -2.6904  0.6329  1.6909
  504MOL0     H69528   5.085   5.176  -0.719  1.6318 -2.0826  0.7337
  504MOL0     H69529   5.057   5.188  -0.544 -1.3040 -0.7898  1.0858
  504MOL0     H69530   4.968   5.378  -0.594 -2.6197  1.9239 -0.7341
  504MOL0     H69531   4.823   5.268  -0.610 -0.0645 -1.6004 -1.2002
  504MOL0     H69532   4.568   4.830  -0.017  1.5363 -1.5683 -2.5063
  504MOL0     H69533   4.358   4.868   0.119  1.2345 -0.8940  0.4121
  504MOL0     H69534   3.849   4.837   0.217 -0.2784 -0.2171 -1.0619
  504MOL0     H69535   3.735   4.945   0.407  0.9497 -0.9713  1.6283
  504MOL0     H69536   4.639   5.616   1.736  1.5223  0.3489  0.7011
  504MOL0     H69537   4.705   5.713   1.960  0.1442  0.0423 -3.0030
  504MOL0     H69538   4.782   5.911   2.225 -0.8096  0.8643 -0.4002
  504MOL0     H69539   4.944   5.947   2.417  1.2826 -3.2472 -0.7596
  504MOL0     H69540   4.772   6.030   2.801 -0.4799 -0.8251  1.8195
  504MOL0     H69541   4.793   5.864   2.831  0.1281 -0.2414 -0.4887
  504MOL0     H69542   5.070   5.924   2.836 -0.0263 -0.0901  1.1342
  504MOL0     H69543   4.964   5.942   2.974  0.3901  1.0227  0.9267
  504MOL0     H69544   4.967   6.166   2.754  0.4382  0.4211 -0.0111
  504MOL0     H69545   4.931   6.183   2.926 -1.4533 -2.6111 -0.4201
  504MOL0     H69546   5.154   6.274   2.825 -2.0174  0.1859  0.2222
  504MOL0     H69547   5.203   6.106   2.842 -1.5588 -2.6681  1.9121
  504MOL0     H69548   5.228   6.174   3.242 -0.0206  0.7127 -0.0175
  504MOL0     H69549   4.626   5.863   2.692  0.6665 -5.7824 -0.1695
  504MOL0     H69550   4.355   5.812   2.438  1.6666 -3.3498 -0.4698
  504MOL0     H69551   4.419   5.748   2.587  0.6388 -2.3334 -1.7595
  504MOL0     H69552   4.392   5.927   2.568  1.3203  0.1726 -0.7554
  505MOL0     O69553   9.341   0.713   6.794  0.2191 -0.6830  0.0199
  505MOL0     C69554   9.316   0.833   6.796 -1.1723  0.6581  0.5725
  505MOL0     O69555   9.220   0.888   6.864 -0.1848  0.3475 -0.0035
  505MOL0     C69556   9.122   0.806   6.926  0.2458 -0.5898 -0.7165
  505MOL0     C69557   9.043   0.709   6.861  0.4144 -0.5265 -0.5802
  505MOL0     C69558   8.952   0.634   6.941 -0.3842 -0.0237  0.7548
  505MOL0     C69559   8.932   0.657   7.079  0.4502 -0.3453  0.8053
  505MOL0     O69560   8.851   0.571   7.154 -0.5515  0.5913 -0.1045
  505MOL0     C69561   8.745   0.496   7.092 -0.0670  1.0853 -0.4765
  505MOL0     C69562   8.626   0.481   7.189 -0.2997  0.1904 -0.1085
  505MOL0     C69563   8.553   0.606   7.237  0.0213  0.3166  0.0743
  505MOL0     C69564   8.446   0.558   7.338 -0.3494  0.2911 -0.4255
  505MOL0     C69565   8.347   0.669   7.377 -0.7567  0.2477 -0.2230
  505MOL0     C69566   8.247   0.600   7.477 -0.1122 -0.4414  0.1061
  505MOL0     C69567   8.158   0.706   7.527  0.5046  0.2054 -0.5062
  505MOL0     C69568   8.073   0.664   7.650  0.0293 -0.0459 -0.4142
  505MOL0     N69569   7.964   0.578   7.607 -0.0625  0.4599 -0.0574
  505MOL0     C69570   7.959   0.442   7.608 -0.6218 -0.2608  0.0635
  505MOL0     C69571   7.838   0.412   7.552  0.2377 -0.1453  0.6695
  505MOL0     C69572   7.794   0.274   7.520 -0.4007 -0.3496  0.8034
  505MOL0     C69573   7.716   0.212   7.632 -0.6444 -0.1392 -0.4023
  505MOL0     C69574   7.575   0.277   7.656 -0.5359  0.1498 -0.3996
  505MOL0     C69575   7.485   0.302   7.536  0.2519  0.2034  0.8635
  505MOL0     O69576   7.365   0.375   7.577 -0.2659  0.8025 -0.0212
  505MOL0     C69577   7.240   0.359   7.520 -0.0876  0.3218  1.1076
  505MOL0     C69578   7.133   0.415   7.587 -0.2831  0.6599 -0.1208
  505MOL0     C69579   6.998   0.399   7.553 -0.2275  0.0176  0.6648
  505MOL0     C69580   6.883   0.460   7.637  0.2527 -0.4475  0.1262
  505MOL0     C69581   6.964   0.304   7.455  0.4122 -0.0192 -0.0643
  505MOL0     C69582   6.821   0.269   7.415  0.1997 -0.0965 -0.0204
  505MOL0     O69583   6.808   0.261   7.275  0.0424  0.5786 -0.1904
  505MOL0     C69584   6.679   0.219   7.234 -0.7281  0.3515  0.1073
  505MOL0     C69585   6.608   0.108   7.284 -0.0286 -0.6875 -0.6417
  505MOL0     C69586   6.480   0.066   7.226 -0.6493 -0.4663  0.0471
  505MOL0     C69587   6.435   0.135   7.108 -0.3621 -0.3325 -0.6142
  505MOL0     O69588   6.309   0.096   7.069 -0.0136  0.2222 -0.3612
  505MOL0     C69589   6.283   0.121   6.925  0.5565  0.5203  0.4207
  505MOL0     C69590   6.149   0.068   6.881  0.9243  0.5622 -0.0009
  505MOL0     C69591   6.105   0.118   6.748 -0.5334  0.2669 -0.3126
  505MOL0     C69592   5.979   0.036   6.699  0.1117  0.7165  0.7917
  505MOL0     C69593   5.939   0.085   6.554 -0.6427 -0.2612 -0.4776
  505MOL0     C69594   5.811   0.017   6.504 -0.1068  0.1058  0.2334
  505MOL0     C69595   5.833  -0.129   6.475  0.2850 -0.3531 -0.4803
  505MOL0     C69596   5.712  -0.220   6.453  0.1251  0.2446  0.3779
  505MOL0    Cl69597   5.617  -0.231   6.603  0.1831  0.3686 -0.0510
  505MOL0     C69598   6.522   0.229   7.056  0.3292 -0.1226 -0.3362
  505MOL0     C69599   6.634   0.277   7.113 -0.1678  0.8164  0.6059
  505MOL0     O69600   6.734   0.251   7.502  0.5406 -0.4466  0.4069
  505MOL0     C69601   7.072   0.253   7.381  0.0391 -0.6401 -0.2215
  505MOL0     C69602   7.209   0.274   7.416 -0.2372 -0.5040  0.1502
  505MOL0     N69603   7.775   0.533   7.517  0.6321  0.9724  0.3907
  505MOL0     N69604   7.844   0.621   7.574 -0.4171 -0.6472  0.2503
  505MOL0     C69605   9.006   0.759   7.138 -0.0926  0.0848  0.4116
  505MOL0     C69606   9.091   0.837   7.064 -0.8911  0.0850 -0.3274
  505MOL0     C69607   9.386   0.925   6.704  0.3638 -0.0262  0.5663
  505MOL0     C69608   9.372   1.066   6.717 -0.4203  0.4885 -0.6407
  505MOL0     C69609   9.449   1.159   6.649 -0.3069 -0.6590 -1.4552
  505MOL0     C69610   9.521   1.115   6.544 -0.5709 -0.1894  0.5336
  505MOL0     O69611   9.593   1.208   6.471  0.9833  0.2533  0.2873
  505MOL0     C69612   9.530   1.278   6.358 -0.5181 -0.0703  0.0703
  505MOL0     C69613   9.531   1.437   6.368  0.1699 -0.9132 -0.8264
  505MOL0     C69614   9.474   1.483   6.234 -0.0968 -0.5276  0.5475
  505MOL0     C69615   9.334   1.436   6.188  0.0220  0.5073 -0.8455
  505MOL0     C69616   9.236   1.460   6.299 -0.4475  0.3759  0.2661
  505MOL0     C69617   9.161   1.475   6.391  0.4002 -0.1383  0.4280
  505MOL0     C69618   9.541   0.982   6.522 -0.2178 -0.0221 -0.8273
  505MOL0     C69619   9.475   0.885   6.604 -0.3335  0.3750 -0.7476
  505MOL0     C69620   9.497   0.740   6.558  0.1101  0.1011 -0.0359
  505MOL0     H69621   9.057   0.690   6.755  1.4305 -0.6441 -0.4362
  505MOL0     H69622   8.902   0.550   6.893 -1.5947 -0.4357  2.6453
  505MOL0     H69623   8.767   0.390   7.076  0.8974  1.4079 -1.4163
  505MOL0     H69624   8.708   0.546   7.001  2.1142 -1.0311 -2.6800
  505MOL0     H69625   8.569   0.403   7.138  0.4468  0.1678 -0.9340
  505MOL0     H69626   8.661   0.434   7.281 -1.1921 -0.8968 -0.2968
  505MOL0     H69627   8.626   0.675   7.281  0.6796 -0.5003  0.2907
  505MOL0     H69628   8.512   0.665   7.154  1.0790  1.7155  0.4996
  505MOL0     H69629   8.399   0.476   7.283 -0.2034 -0.8887  1.1471
  505MOL0     H69630   8.492   0.512   7.426 -1.8446  0.4770  0.4797
  505MOL0     H69631   8.295   0.701   7.287  0.8614 -1.4674 -1.8816
  505MOL0     H69632   8.400   0.751   7.426 -3.1163  1.1110  1.0378
  505MOL0     H69633   8.180   0.531   7.425 -2.7126  2.2555 -0.4292
  505MOL0     H69634   8.291   0.548   7.563  0.7711  1.4558  0.8491
  505MOL0     H69635   8.079   0.738   7.458  0.0563  0.4158  0.0931
  505MOL0     H69636   8.222   0.791   7.552  0.0192  0.3299  0.3379
  505MOL0     H69637   8.142   0.613   7.718 -1.0808  0.0508  0.8378
  505MOL0     H69638   8.018   0.747   7.694  2.3980  0.8028  1.1815
  505MOL0     H69639   8.034   0.368   7.634  0.9975  2.1769  2.8457
  505MOL0     H69640   7.883   0.213   7.505  1.3374  1.7127  2.1057
  505MOL0     H69641   7.733   0.277   7.429  0.9610  2.0635 -0.1070
  505MOL0     H69642   7.692   0.107   7.615 -0.3342  0.0084 -1.8657
  505MOL0     H69643   7.784   0.204   7.717  0.1654  0.2592 -1.0101
  505MOL0     H69644   7.522   0.206   7.721 -0.8497  0.9132  0.1886
  505MOL0     H69645   7.584   0.375   7.703 -0.9768  0.2823 -0.5787
  505MOL0     H69646   7.542   0.361   7.464  0.1739  1.7142  2.0047
  505MOL0     H69647   7.454   0.208   7.488 -0.2602  0.8614 -0.1224
  505MOL0     H69648   7.152   0.478   7.673 -2.3599  0.4052  0.5760
  505MOL0     H69649   6.929   0.508   7.724 -1.3945 -1.5607  1.7000
  505MOL0     H69650   6.821   0.377   7.672  0.2732 -0.2761  0.5810
  505MOL0     H69651   6.832   0.533   7.573  0.4713  0.9987  1.5246
  505MOL0     H69652   6.640   0.060   7.376  0.3295  1.2623  0.3098
  505MOL0     H69653   6.424  -0.008   7.282 -1.2497  1.1740  1.7119
  505MOL0     H69654   6.293   0.227   6.900 -1.2046  1.0274  1.6593
  505MOL0     H69655   6.350   0.060   6.863  0.7545 -0.0683  1.1915
  505MOL0     H69656   6.156  -0.042   6.882  0.0781  0.5055  0.3427
  505MOL0     H69657   6.070   0.103   6.949 -2.4857 -0.2816 -3.1732
  505MOL0     H69658   6.188   0.127   6.677  0.8266  1.8829  1.3925
  505MOL0     H69659   6.083   0.225   6.757 -1.2785  0.0466  0.6235
  505MOL0     H69660   5.893   0.038   6.767 -0.9731 -3.4751 -0.1760
  505MOL0     H69661   6.019  -0.065   6.693  2.1223  1.4133  1.6564
  505MOL0     H69662   5.922   0.193   6.565  0.5266  0.1637 -2.3755
  505MOL0     H69663   6.026   0.093   6.488  0.0205 -0.1188  0.3866
  505MOL0     H69664   5.775   0.068   6.414  1.0583  1.7540  0.6413
  505MOL0     H69665   5.726   0.018   6.573 -1.1115 -0.6637 -0.9477
  505MOL0     H69666   5.883  -0.167   6.565 -2.0839  0.9264  1.4881
  505MOL0     H69667   5.901  -0.138   6.390 -0.1884 -2.5463 -0.6865
  505MOL0     H69668   5.753  -0.319   6.433 -1.3904 -0.0706 -1.4183
  505MOL0     H69669   5.649  -0.200   6.366  2.1314  2.4983 -0.6551
  505MOL0     H69670   6.481   0.291   6.977  0.1249  0.1343 -0.0312
  505MOL0     H69671   6.692   0.359   7.071  1.6897 -1.0188 -0.6654
  505MOL0     H69672   7.045   0.196   7.292  1.1475 -2.2938  0.4374
  505MOL0     H69673   7.279   0.246   7.338 -0.9117  2.0126 -1.4881
  505MOL0     H69674   8.994   0.790   7.241  0.1493  1.7019 -0.0285
  505MOL0     H69675   9.153   0.915   7.108 -2.1287  1.9067 -1.6515
  505MOL0     H69676   9.290   1.097   6.781  0.7204  0.5029  0.8770
  505MOL0     H69677   9.446   1.264   6.680 -2.1473 -1.9702  3.8943
  505MOL0     H69678   9.581   1.252   6.265 -0.2938  3.4460 -0.9230
  505MOL0     H69679   9.428   1.247   6.336 -1.6904  1.9657  2.1219
  505MOL0     H69680   9.634   1.471   6.384 -0.0167 -0.8763  0.3417
  505MOL0     H69681   9.464   1.472   6.447  1.0650  1.6539 -1.1030
  505MOL0     H69682   9.474   1.593   6.237  3.5452 -0.3833  0.1421
  505MOL0     H69683   9.551   1.455   6.161  1.7821  3.8418  0.5375
  505MOL0     H69684   9.332   1.328   6.170 -0.7330 -0.1680  2.5148
  505MOL0     H69685   9.305   1.497   6.102 -4.0476  2.1672  1.3989
  505MOL0     H69686   9.093   1.507   6.468 -2.6263  1.3722 -2.5926
  505MOL0     H69687   9.616   0.947   6.451 -1.5996 -0.9772 -1.8870
  505MOL0     H69688   9.544   0.728   6.460  4.1801 -4.6120  2.0404
  505MOL0     H69689   9.563   0.690   6.629  1.0375 -0.0306 -0.9634
  505MOL0     H69690   9.401   0.687   6.549  0.9247 -2.2057  3.1345
  506MOL0     O69691   2.276  10.706   8.440 -0.0999 -0.5626  0.7986
  506MOL0     C69692   2.222  10.707   8.550  0.2765  0.3228  0.2401
  506MOL0     O69693   2.275  10.755   8.666  0.3943 -0.5611  0.4786
  506MOL0     C69694   2.408  10.764   8.685  0.3955 -0.4588  0.6373
  506MOL0     C69695   2.515  10.693   8.627 -0.7636 -0.1986 -0.1441
  506MOL0     C69696   2.650  10.725   8.661 -0.7921 -0.1592  0.3190
  506MOL0     C69697   2.678  10.826   8.755  0.5038  0.5406 -0.2979
  506MOL0     O69698   2.810  10.832   8.785  0.5176  0.0747  0.0876
  506MOL0     C69699   2.859  10.955   8.854  0.3547  1.1458  0.2460
  506MOL0     C69700   3.009  10.957   8.831  0.0130 -0.6341  0.2151
  506MOL0     C69701   3.047  10.954   8.674 -0.4560 -0.6286 -0.7219
  506MOL0     C69702   3.198  10.965   8.656 -0.6823 -0.7174  0.2335
  506MOL0     C69703   3.242  10.945   8.508 -0.1015 -0.3964 -0.0662
  506MOL0     C69704   3.222  11.073   8.426 -0.0810  0.5398  0.2335
  506MOL0     C69705   3.255  11.044   8.278 -0.1810 -1.4112  0.7219
  506MOL0     C69706   3.228  11.168   8.186  0.4075  0.5630  0.1313
  506MOL0     N69707   3.322  11.283   8.202 -0.5985  0.3781  0.2574
  506MOL0     C69708   3.463  11.280   8.207  0.0575  0.0260  0.2919
  506MOL0     C69709   3.499  11.412   8.207  0.2235 -0.5274  0.8534
  506MOL0     C69710   3.635  11.468   8.227  0.3825  0.1691 -0.5543
  506MOL0     C69711   3.720  11.481   8.100 -0.1438 -0.3502 -0.0574
  506MOL0     C69712   3.860  11.551   8.127 -0.7514  0.1318 -0.7949
  506MOL0     C69713   3.936  11.481   8.238 -0.6066 -1.1243  0.0347
  506MOL0     O69714   4.058  11.559   8.262 -0.2957 -0.0917  0.0011
  506MOL0     C69715   4.173  11.500   8.306 -0.9585 -0.1350  0.5917
  506MOL0     C69716   4.170  11.395   8.397  0.4333 -0.3381 -0.0635
  506MOL0     C69717   4.286  11.329   8.447 -0.8380 -0.7756  0.9039
  506MOL0     C69718   4.266  11.211   8.546 -0.1744 -0.5923  0.3746
  506MOL0     C69719   4.412  11.382   8.405  0.4367  0.3916  0.2087
  506MOL0     C69720   4.542  11.313   8.440 -0.5689  0.5728  0.2510
  506MOL0     O69721   4.646  11.335   8.351 -0.5153  0.0249  0.4074
  506MOL0     C69722   4.773  11.308   8.401  0.5221 -0.2306 -0.1652
  506MOL0     C69723   4.842  11.403   8.478  0.5785 -0.3971  0.7048
  506MOL0     C69724   4.969  11.375   8.530  0.5421 -0.6214  0.1965
  506MOL0     C69725   5.036  11.261   8.497 -0.0624  1.1591 -0.3324
  506MOL0     O69726   5.156  11.230   8.551  0.5082 -0.0496  0.5320
  506MOL0     C69727   5.178  11.270   8.689  0.0336 -0.9811  0.0005
  506MOL0     C69728   5.291  11.190   8.754 -0.6630 -0.0834  1.0221
  506MOL0     C69729   5.339  11.255   8.889  0.1684  0.7531 -0.4908
  506MOL0     C69730   5.459  11.170   8.928  0.7383  0.1716 -0.5635
  506MOL0     C69731   5.556  11.225   9.031 -0.7130 -0.2833  0.0178
  506MOL0     C69732   5.617  11.354   8.988  0.7632  0.1101  1.6688
  506MOL0     C69733   5.733  11.390   9.084 -0.6114 -0.3263  0.8210
  506MOL0     C69734   5.781  11.534   9.059  0.1055 -0.1934 -0.0453
  506MOL0    Cl69735   5.685  11.648   9.160 -0.0941 -0.1463  0.6643
  506MOL0     C69736   4.958  11.159   8.429 -0.2597  0.1463  0.1139
  506MOL0     C69737   4.830  11.184   8.377 -0.4861  0.2571  0.0501
  506MOL0     O69738   4.551  11.259   8.545 -0.4198  0.9081 -0.8597
  506MOL0     C69739   4.413  11.482   8.305 -0.4124 -0.0721  0.5671
  506MOL0     C69740   4.296  11.549   8.264 -0.9937 -0.4287 -0.0162
  506MOL0     N69741   3.389  11.493   8.224 -0.8987  0.6881  0.6121
  506MOL0     N69742   3.280  11.413   8.215  0.1136 -0.7028 -0.8443
  506MOL0     C69743   2.569  10.901   8.807 -0.2675 -0.2230  0.1804
  506MOL0     C69744   2.440  10.864   8.780 -0.4042 -0.9513 -0.5245
  506MOL0     C69745   2.099  10.628   8.557 -0.5937  0.3575 -0.0037
  506MOL0     C69746   2.082  10.526   8.654 -0.3740 -0.2019 -0.2061
  506MOL0     C69747   1.965  10.448   8.666  0.2786  0.3112 -0.0912
  506MOL0     C69748   1.867  10.455   8.575  0.6163  0.2489 -0.5206
  506MOL0     O69749   1.745  10.393   8.597  0.2735  0.1510  1.3724
  506MOL0     C69750   1.682  10.402   8.730  0.3668 -0.9260 -0.7061
  506MOL0     C69751   1.547  10.335   8.741  0.1568 -0.9685 -0.4679
  506MOL0     C69752   1.470  10.353   8.879  0.2119  0.7300 -0.5472
  506MOL0     C69753   1.361  10.257   8.881 -0.3953  0.7038  0.1248
  506MOL0     C69754   1.296  10.265   9.007 -0.0136 -0.4207  0.8182
  506MOL0     C69755   1.238  10.271   9.114  0.9537 -0.3787 -0.1694
  506MOL0     C69756   1.876  10.547   8.476 -0.6380  0.1817  0.4275
  506MOL0     C69757   1.990  10.638   8.467  0.5470 -0.1295  0.2209
  506MOL0     C69758   1.986  10.739   8.350  0.5769  0.7959  0.1025
  506MOL0     H69759   2.511  10.609   8.559  0.1422 -0.2925 -0.0888
  506MOL0     H69760   2.736  10.674   8.621 -1.6785 -0.4976 -1.2341
  506MOL0     H69761   2.827  10.959   8.958 -1.0597 -0.7781 -0.0488
  506MOL0     H69762   2.811  11.037   8.799  0.6044  0.6854 -0.6886
  506MOL0     H69763   3.051  11.047   8.876  1.9076 -0.5036 -1.6718
  506MOL0     H69764   3.060  10.869   8.872  1.7693  0.2732  0.0714
  506MOL0     H69765   3.012  10.858   8.635  0.2910 -1.3304  0.3024
  506MOL0     H69766   3.004  11.039   8.620  2.5517  1.8063  0.4723
  506MOL0     H69767   3.235  11.062   8.692  0.3541 -0.2226 -2.0198
  506MOL0     H69768   3.246  10.886   8.715 -1.4129  0.8419  3.1408
  506MOL0     H69769   3.186  10.857   8.477  0.6632 -0.4883 -1.2962
  506MOL0     H69770   3.350  10.930   8.499 -0.0612 -0.1496 -0.0109
  506MOL0     H69771   3.120  11.112   8.435 -0.6397 -0.6423 -0.7230
  506MOL0     H69772   3.278  11.156   8.470 -1.9571  1.2929  1.3397
  506MOL0     H69773   3.197  10.964   8.232 -0.7886 -0.7417  0.3072
  506MOL0     H69774   3.362  11.020   8.270  0.2440  0.6200 -0.4853
  506MOL0     H69775   3.239  11.140   8.080  1.1906 -0.7929  0.5469
  506MOL0     H69776   3.128  11.203   8.214 -0.9478 -2.0576 -1.1193
  506MOL0     H69777   3.533  11.197   8.204  1.8479  1.4876 -2.4248
  506MOL0     H69778   3.687  11.401   8.296 -2.1545  1.6535  3.1422
  506MOL0     H69779   3.624  11.569   8.269  0.4815  1.6337 -3.7026
  506MOL0     H69780   3.729  11.385   8.048 -0.4714  0.1803 -1.1230
  506MOL0     H69781   3.671  11.539   8.021 -0.2444 -1.3702 -0.7701
  506MOL0     H69782   3.927  11.546   8.041  1.3635  2.8855  0.5556
  506MOL0     H69783   3.847  11.654   8.162 -2.3281 -0.8321  1.7665
  506MOL0     H69784   3.879  11.466   8.330  1.7805 -4.2657  1.2241
  506MOL0     H69785   3.972  11.379   8.220  0.8096 -1.1663  2.6231
  506MOL0     H69786   4.072  11.368   8.435  1.2284 -0.4130  2.0570
  506MOL0     H69787   4.161  11.198   8.573  0.0440 -0.5407  1.2658
  506MOL0     H69788   4.327  11.228   8.635 -0.0368  1.3209 -0.0332
  506MOL0     H69789   4.307  11.123   8.494  1.7859 -0.7293  2.0106
  506MOL0     H69790   4.796  11.496   8.510  0.9141  0.3640 -0.9280
  506MOL0     H69791   5.020  11.451   8.590  0.0533 -0.0616 -0.0911
  506MOL0     H69792   5.196  11.378   8.679 -0.9260 -0.6519  1.4567
  506MOL0     H69793   5.084  11.247   8.741 -1.6877 -0.3587 -2.6078
  506MOL0     H69794   5.262  11.085   8.751  2.5205 -1.0273 -0.7926
  506MOL0     H69795   5.378  11.190   8.688 -1.8868  1.0634 -0.6794
  506MOL0     H69796   5.264  11.247   8.968 -1.0923  1.0569 -1.6251
  506MOL0     H69797   5.369  11.353   8.850  1.0372 -0.2847 -2.6035
  506MOL0     H69798   5.522  11.142   8.843 -0.0075 -2.9098 -0.2281
  506MOL0     H69799   5.414  11.080   8.970  1.7188 -0.3986 -0.7032
  506MOL0     H69800   5.528  11.229   9.136  1.6651 -4.3371  1.0367
  506MOL0     H69801   5.629  11.143   9.039 -1.3263 -1.2012 -2.6933
  506MOL0     H69802   5.547  11.438   8.990  0.6107 -0.0266  3.0649
  506MOL0     H69803   5.642  11.345   8.882 -1.9823  1.2402  0.8292
  506MOL0     H69804   5.815  11.323   9.058  0.5253  1.0997  0.5768
  506MOL0     H69805   5.712  11.376   9.191  2.2709  1.0413  1.6748
  506MOL0     H69806   5.764  11.549   8.952 -3.2676 -3.3890 -0.1609
  506MOL0     H69807   5.888  11.541   9.084  0.8926  0.7108 -3.1424
  506MOL0     H69808   5.011  11.066   8.412  0.6488  0.6915 -0.0786
  506MOL0     H69809   4.777  11.107   8.322  0.6259  0.1438 -0.8871
  506MOL0     H69810   4.516  11.503   8.276  0.1064 -1.3396  1.3714
  506MOL0     H69811   4.305  11.636   8.200 -1.1804  1.3332  2.2380
  506MOL0     H69812   2.588  10.967   8.891 -1.6788 -0.3300  0.6080
  506MOL0     H69813   2.359  10.914   8.832  0.0619 -0.1488 -0.5643
  506MOL0     H69814   2.163  10.516   8.725  1.3749 -2.8045 -2.3879
  506MOL0     H69815   1.959  10.365   8.736 -0.6754 -2.1440 -2.8871
  506MOL0     H69816   1.748  10.355   8.803  0.9884  2.4311  1.0760
  506MOL0     H69817   1.670  10.507   8.758 -1.6217 -1.4119  0.4353
  506MOL0     H69818   1.556  10.229   8.717 -0.5023 -1.3160  0.7091
  506MOL0     H69819   1.490  10.385   8.662  1.7071  1.1911 -0.3189
  506MOL0     H69820   1.544  10.330   8.957  0.7183  1.6926 -0.7345
  506MOL0     H69821   1.435  10.456   8.891 -1.0616 -0.0014  3.5331
  506MOL0     H69822   1.395  10.155   8.860 -0.3626  1.0682 -1.7190
  506MOL0     H69823   1.297  10.296   8.801  0.1274  1.7412  0.1952
  506MOL0     H69824   1.197  10.291   9.211  2.4407 -2.0006  0.8698
  506MOL0     H69825   1.789  10.578   8.420 -2.3718 -1.1890  2.2123
  506MOL0     H69826   2.060  10.819   8.350  1.5495  0.0042  2.9098
  506MOL0     H69827   1.998  10.691   8.252 -2.1389  1.7815 -0.8383
  506MOL0     H69828   1.885  10.781   8.348  0.1775  0.1290  2.5896
  507MOL0     O69829   7.556   7.771   3.502  0.3670 -0.5301  0.1823
  507MOL0     C69830   7.450   7.772   3.442 -0.0752  0.4743 -0.0209
  507MOL0     O69831   7.439   7.802   3.314  1.0062 -0.0827  0.2669
  507MOL0     C69832   7.547   7.865   3.264  0.1795 -0.4572 -0.0963
  507MOL0     C69833   7.627   7.804   3.168  0.7565 -0.1959 -0.0716
  507MOL0     C69834   7.724   7.870   3.108 -0.7328  0.8294  0.4594
  507MOL0     C69835   7.768   8.000   3.142  0.5753  0.1484  0.2659
  507MOL0     O69836   7.877   8.047   3.072 -0.1867 -0.4830 -0.6957
  507MOL0     C69837   7.932   8.170   3.128  0.4777  0.7749  0.6772
  507MOL0     C69838   8.065   8.195   3.053  0.4041 -0.1192  0.5286
  507MOL0     C69839   8.169   8.083   3.073 -0.8828  0.2011  0.0502
  507MOL0     C69840   8.308   8.132   3.026  0.4751  0.4282  0.3513
  507MOL0     C69841   8.411   8.028   3.053 -0.3926  0.5975 -0.1362
  507MOL0     C69842   8.550   8.079   3.095  0.0989 -0.2814  0.7152
  507MOL0     C69843   8.651   7.967   3.099  0.3498  0.8963 -1.2323
  507MOL0     C69844   8.782   8.025   3.168  0.7266  0.8884 -0.1579
  507MOL0     N69845   8.901   7.964   3.112  0.1133  0.5988  0.2059
  507MOL0     C69846   8.977   7.863   3.160 -1.0969 -0.0715 -0.3586
  507MOL0     C69847   9.054   7.816   3.059 -0.1270 -0.8591  0.1704
  507MOL0     C69848   9.169   7.717   3.090  0.2933 -1.3345 -0.1050
  507MOL0     C69849   9.287   7.798   3.136 -0.3514 -0.7454  0.5092
  507MOL0     C69850   9.408   7.715   3.195  0.5413 -0.1955  0.5652
  507MOL0     C69851   9.543   7.790   3.179 -0.5626 -0.9284 -1.1804
  507MOL0     O69852   9.555   7.892   3.278 -0.3760 -0.1272  0.0090
  507MOL0     C69853   9.681   7.933   3.318  0.5125 -0.6543  0.3216
  507MOL0     C69854   9.690   8.018   3.426  0.6645  0.2253 -0.2356
  507MOL0     C69855   9.809   8.057   3.485  0.4146 -0.6688 -0.4549
  507MOL0     C69856   9.799   8.168   3.587  0.3952 -0.0082 -0.1356
  507MOL0     C69857   9.930   7.992   3.451 -0.0476  1.2118 -0.0553
  507MOL0     C69858  10.062   8.010   3.510  0.8507 -0.5626 -0.0214
  507MOL0     O69859  10.166   7.945   3.459  0.2828 -0.0883 -0.0765
  507MOL0     C69860  10.282   7.949   3.535  0.5494 -0.7870  0.6303
  507MOL0     C69861  10.399   7.983   3.466  0.6313 -0.4071  0.2142
  507MOL0     C69862  10.518   7.983   3.536  1.2939 -0.1712 -0.0271
  507MOL0     C69863  10.531   7.949   3.661 -0.1610 -0.4622  0.2962
  507MOL0     O69864  10.665   7.962   3.704 -0.3869 -0.2422 -0.3599
  507MOL0     C69865  10.711   7.914   3.836  0.3585  0.0957  0.5765
  507MOL0     C69866  10.723   7.765   3.843  0.2309  0.6170  0.2375
  507MOL0     C69867  10.850   7.706   3.767  0.4680  0.0440  0.9369
  507MOL0     C69868  10.808   7.580   3.680  0.4095  0.1190 -0.2671
  507MOL0     C69869  10.934   7.503   3.644  0.4701 -0.2667  0.1942
  507MOL0     C69870  11.016   7.596   3.544 -0.5659  0.0204  0.2391
  507MOL0     C69871  11.120   7.516   3.467 -0.4236  0.1018 -0.5724
  507MOL0     C69872  11.216   7.599   3.371 -0.2032  0.2779  0.3040
  507MOL0    Cl69873  11.317   7.733   3.433 -0.2519  0.1470 -0.2683
  507MOL0     C69874  10.417   7.918   3.737 -0.5390 -0.3283 -0.3541
  507MOL0     C69875  10.294   7.913   3.673  1.0192  0.4587  0.3350
  507MOL0     O69876  10.071   8.093   3.604 -0.6212  0.7922  0.0087
  507MOL0     C69877   9.919   7.897   3.344 -0.3331 -0.3702 -0.5837
  507MOL0     C69878   9.798   7.874   3.279  0.2706  0.5228 -0.3654
  507MOL0     N69879   9.035   7.894   2.943 -0.8231  1.0248 -0.9459
  507MOL0     N69880   8.944   7.986   2.978 -0.3485  0.0877 -0.0884
  507MOL0     C69881   7.677   8.064   3.237 -1.6385 -0.4766 -0.7862
  507MOL0     C69882   7.570   7.998   3.285 -0.2828  0.7396  0.6884
  507MOL0     C69883   7.335   7.707   3.506 -0.0515  0.7286 -0.0537
  507MOL0     C69884   7.346   7.674   3.642 -0.8286  0.6928  0.1697
  507MOL0     C69885   7.246   7.618   3.711  0.8002  0.1302  0.3191
  507MOL0     C69886   7.120   7.598   3.656 -0.2248 -0.7997  0.8671
  507MOL0     O69887   7.007   7.554   3.724  0.1651 -0.0467  0.0872
  507MOL0     C69888   7.017   7.535   3.871 -0.9326 -0.6427 -0.1224
  507MOL0     C69889   6.887   7.484   3.913 -0.1366  0.9953  0.1426
  507MOL0     C69890   6.764   7.576   3.912 -0.1148 -0.9515 -0.2297
  507MOL0     C69891   6.754   7.662   4.041  0.0666  0.3064  0.4869
  507MOL0     C69892   6.861   7.768   4.050 -0.3119 -1.0727 -0.3528
  507MOL0     C69893   6.924   7.874   4.057  0.5246 -0.9602 -0.8303
  507MOL0     C69894   7.095   7.644   3.523 -0.7915 -0.3722 -0.3000
  507MOL0     C69895   7.200   7.703   3.450 -1.2307 -0.1870 -0.5137
  507MOL0     C69896   7.164   7.765   3.316  1.0330  0.4186  0.1483
  507MOL0     H69897   7.611   7.699   3.144 -2.3497  0.4555 -1.2122
  507MOL0     H69898   7.780   7.810   3.036 -0.2956  1.3596  0.3499
  507MOL0     H69899   7.957   8.162   3.234 -1.3629 -1.5491  1.0173
  507MOL0     H69900   7.868   8.257   3.106  0.8228  0.7925 -0.3118
  507MOL0     H69901   8.044   8.210   2.946  0.9608  1.1861  0.5762
  507MOL0     H69902   8.106   8.292   3.084  0.3918  0.6601 -1.6852
  507MOL0     H69903   8.177   8.056   3.178 -1.2952 -0.6247 -0.1216
  507MOL0     H69904   8.142   7.990   3.022  1.8391 -0.6173 -0.0721
  507MOL0     H69905   8.310   8.135   2.917 -3.4072 -0.0150  0.1268
  507MOL0     H69906   8.340   8.230   3.062 -1.6689  1.4145 -0.2038
  507MOL0     H69907   8.431   7.982   2.956  2.1003  2.1239 -0.4593
  507MOL0     H69908   8.363   7.950   3.113  2.9190  0.2143  2.3594
  507MOL0     H69909   8.573   8.151   3.017 -5.6944 -1.7583 -2.9943
  507MOL0     H69910   8.545   8.135   3.189  4.4717  1.6880  0.0436
  507MOL0     H69911   8.678   7.926   3.002 -1.1798  1.6166 -1.9865
  507MOL0     H69912   8.617   7.885   3.163  0.7625  2.1787  0.7249
  507MOL0     H69913   8.783   8.131   3.142  0.1203  1.0192  0.3170
  507MOL0     H69914   8.769   8.018   3.277  1.4603  1.5660 -0.0141
  507MOL0     H69915   8.988   7.836   3.265  1.1413 -2.4807 -1.0818
  507MOL0     H69916   9.190   7.655   3.003  2.5955 -1.3503  0.4030
  507MOL0     H69917   9.137   7.655   3.173  0.7905 -0.8719  0.4426
  507MOL0     H69918   9.327   7.855   3.052 -0.6966 -2.7635 -1.0887
  507MOL0     H69919   9.242   7.866   3.209  0.1902 -1.0891  1.1771
  507MOL0     H69920   9.381   7.701   3.300 -2.6214  0.3587 -0.0657
  507MOL0     H69921   9.403   7.618   3.145 -0.0478  0.1233 -0.0056
  507MOL0     H69922   9.612   7.706   3.190  0.6342  0.1977  0.2767
  507MOL0     H69923   9.551   7.832   3.078 -1.8642 -1.5192 -1.5542
  507MOL0     H69924   9.601   8.078   3.447  0.4378  0.4110 -1.6459
  507MOL0     H69925   9.882   8.239   3.581  2.6757 -2.2122  2.4940
  507MOL0     H69926   9.819   8.125   3.685  2.4684  0.2460 -0.4029
  507MOL0     H69927   9.704   8.220   3.597  1.4005  1.7167  0.7623
  507MOL0     H69928  10.402   8.013   3.362  1.9151 -1.0372  0.0499
  507MOL0     H69929  10.609   8.016   3.486  1.9469  0.5181  1.5618
  507MOL0     H69930  10.807   7.964   3.852  1.5830 -0.9866 -2.5429
  507MOL0     H69931  10.634   7.936   3.911 -1.0261 -1.5074 -0.3034
  507MOL0     H69932  10.729   7.730   3.947  2.7053  1.3378  0.4171
  507MOL0     H69933  10.627   7.731   3.804  0.9227 -0.9612 -0.1690
  507MOL0     H69934  10.925   7.686   3.843  0.7155 -0.5123  0.5582
  507MOL0     H69935  10.900   7.780   3.704  3.0951  0.2119  3.0552
  507MOL0     H69936  10.756   7.605   3.588 -2.2946 -1.3692  0.7393
  507MOL0     H69937  10.750   7.519   3.750  1.0312 -0.6339 -0.3767
  507MOL0     H69938  10.988   7.462   3.730 -0.5559  0.9950  1.4867
  507MOL0     H69939  10.906   7.417   3.582 -1.8087  1.3933 -1.2452
  507MOL0     H69940  11.056   7.684   3.595 -1.0247  1.0354 -1.0899
  507MOL0     H69941  10.952   7.641   3.467  2.5478 -0.3039 -2.7788
  507MOL0     H69942  11.069   7.447   3.399 -2.2465  2.1621 -1.4226
  507MOL0     H69943  11.170   7.442   3.530 -0.2973 -0.5539 -1.4115
  507MOL0     H69944  11.155   7.649   3.295 -3.5862  1.7637  3.6556
  507MOL0     H69945  11.287   7.531   3.324  2.0773  2.7952 -0.1405
  507MOL0     H69946  10.423   7.904   3.845 -2.1365  3.4838  0.3779
  507MOL0     H69947  10.204   7.901   3.732  1.0868  3.4469  1.1940
  507MOL0     H69948  10.009   7.848   3.310  0.7668  1.9736 -1.2513
  507MOL0     H69949   9.803   7.791   3.209  0.3249 -2.6053  3.0491
  507MOL0     H69950   7.700   8.167   3.260 -2.8682 -0.2600 -0.4403
  507MOL0     H69951   7.530   8.058   3.367 -0.1516  1.1972  0.4236
  507MOL0     H69952   7.435   7.686   3.704 -0.4025  1.1127 -0.5091
  507MOL0     H69953   7.266   7.603   3.817  1.5695  3.8745  0.8623
  507MOL0     H69954   7.092   7.458   3.889 -0.2384  0.6264  3.1659
  507MOL0     H69955   7.050   7.621   3.930 -0.6210 -0.8966  0.0719
  507MOL0     H69956   6.901   7.446   4.014 -0.6212  4.4954  1.6647
  507MOL0     H69957   6.855   7.395   3.856  0.1532 -0.1527  1.7047
  507MOL0     H69958   6.762   7.633   3.819 -0.8015  0.5515  0.6684
  507MOL0     H69959   6.671   7.518   3.913 -1.6525  1.3505  1.5402
  507MOL0     H69960   6.758   7.604   4.134  1.5480 -2.1429 -0.9934
  507MOL0     H69961   6.662   7.719   4.030 -0.7252 -0.9604  0.3854
  507MOL0     H69962   6.978   7.964   4.036 -0.2241 -0.6854 -1.6240
  507MOL0     H69963   6.993   7.635   3.488 -0.5830  3.6987 -2.5705
  507MOL0     H69964   7.181   7.874   3.318 -1.6780  0.9640 -1.5657
  507MOL0     H69965   7.219   7.726   3.230  0.1781 -0.5452  0.0244
  507MOL0     H69966   7.055   7.764   3.307  0.9845  0.3202  0.7030
  508MOL0     O69967   0.498   9.951  10.953 -0.4155  0.2953 -0.0207
  508MOL0     C69968   0.483   9.959  11.076 -0.4777  0.8966 -0.5987
  508MOL0     O69969   0.587   9.961  11.170 -0.2018 -0.1657 -0.0957
  508MOL0     C69970   0.704  10.008  11.120  0.6294  0.5456 -0.7365
  508MOL0     C69971   0.779   9.924  11.039  0.1790 -0.2977 -0.6916
  508MOL0     C69972   0.885   9.978  10.978  0.3866 -0.5795 -0.6385
  508MOL0     C69973   0.937  10.108  10.995  0.0183 -0.0948 -0.1708
  508MOL0     O69974   1.036  10.135  10.914 -0.4801  0.3024  1.0405
  508MOL0     C69975   1.115  10.240  10.957 -0.1125  0.1005  0.2033
  508MOL0     C69976   1.237  10.270  10.865  0.9619  0.1915  0.2949
  508MOL0     C69977   1.335  10.368  10.939  0.7671 -0.4249  0.6798
  508MOL0     C69978   1.443  10.304  11.030  0.4223  0.7728  0.6263
  508MOL0     C69979   1.548  10.411  11.068 -0.1200 -0.1924  0.2716
  508MOL0     C69980   1.637  10.475  10.959 -0.5885 -0.3210  0.3569
  508MOL0     C69981   1.726  10.357  10.904 -0.5168 -0.5441 -0.7507
  508MOL0     C69982   1.842  10.414  10.827 -0.1660  0.2067  0.5383
  508MOL0     N69983   1.968  10.362  10.885 -0.4696  0.0442 -0.8260
  508MOL0     C69984   2.022  10.231  10.884  0.5956 -0.3067 -0.6477
  508MOL0     C69985   2.153  10.238  10.897  0.8945 -0.0141 -0.2125
  508MOL0     C69986   2.248  10.119  10.893  1.2355 -0.0820  0.2384
  508MOL0     C69987   2.338  10.134  11.016 -0.0953 -0.4796  0.1638
  508MOL0     C69988   2.404   9.998  11.072 -0.2675  0.0384  0.3611
  508MOL0     C69989   2.494   9.925  10.961 -0.1607 -0.6230  0.7218
  508MOL0     O69990   2.575  10.017  10.884 -0.9846  0.3600 -0.1842
  508MOL0     C69991   2.559  10.017  10.747  0.1674 -0.9333  0.0381
  508MOL0     C69992   2.577  10.138  10.686 -0.7095 -1.4104  0.3385
  508MOL0     C69993   2.550  10.166  10.554 -0.3695  0.0970  0.1060
  508MOL0     C69994   2.629  10.289  10.506  0.7943 -1.3765 -0.6045
  508MOL0     C69995   2.484  10.072  10.469 -0.6005  0.3024 -0.1653
  508MOL0     C69996   2.456  10.090  10.332 -0.3938  1.0557 -0.3227
  508MOL0     O69997   2.412   9.986  10.262 -0.0651  0.5818  0.3293
  508MOL0     C69998   2.415  10.009  10.119 -0.0731 -0.1160 -0.3901
  508MOL0     C69999   2.293   9.992  10.048 -0.4420 -0.0143 -0.0880
  508MOL0     C70000   2.297   9.982   9.907 -0.1313 -0.2856 -0.6766
  508MOL0     C70001   2.422  10.006   9.831  0.2716 -0.4520  0.1433
  508MOL0     O70002   2.427   9.998   9.697 -1.0213 -1.0046 -0.0407
  508MOL0     C70003   2.333  10.048   9.606  0.1274 -0.5799  0.3474
  508MOL0     C70004   2.384  10.178   9.531 -0.2238  0.4399 -0.5945
  508MOL0     C70005   2.485  10.139   9.424 -0.0882  0.1796  0.2483
  508MOL0     C70006   2.545  10.276   9.375  0.0538  0.3618  0.1661
  508MOL0     C70007   2.660  10.266   9.290 -0.7857  0.4871  0.4697
  508MOL0     C70008   2.647  10.161   9.180  0.2686  0.4824 -0.3506
  508MOL0     C70009   2.761  10.181   9.073 -0.0200 -0.7987  0.8302
  508MOL0     C70010   2.718  10.301   8.993 -1.2454 -0.0442 -0.6254
  508MOL0    Cl70011   2.838  10.333   8.871  0.4598  0.0505 -0.0296
  508MOL0     C70012   2.534  10.035   9.898 -0.0765  0.2816 -1.2576
  508MOL0     C70013   2.531  10.032  10.044 -0.0559 -0.4065 -0.2721
  508MOL0     O70014   2.464  10.202  10.280 -0.3490  0.1631 -0.0384
  508MOL0     C70015   2.448   9.947  10.531 -0.5806  0.8195 -0.3974
  508MOL0     C70016   2.489   9.924  10.667 -1.2987  0.3748  0.3776
  508MOL0     N70017   2.191  10.366  10.884  0.7789 -0.3574 -0.0916
  508MOL0     N70018   2.082  10.438  10.878  0.4917 -0.1273 -0.2885
  508MOL0     C70019   0.864  10.189  11.086 -0.8185 -0.2426  0.2932
  508MOL0     C70020   0.747  10.141  11.144 -0.5214  0.4845 -0.2926
  508MOL0     C70021   0.350   9.948  11.143 -0.2338 -0.0479 -0.0679
  508MOL0     C70022   0.347   9.948  11.287 -0.6309  0.8475 -0.4708
  508MOL0     C70023   0.236   9.938  11.361  1.3621 -0.5058 -0.0382
  508MOL0     C70024   0.112   9.931  11.290  0.3371  0.1468 -0.6732
  508MOL0     O70025  -0.004   9.927  11.353  0.3051  0.4617 -0.3142
  508MOL0     C70026  -0.048   9.794  11.391  0.0458  0.4255 -0.0846
  508MOL0     C70027  -0.191   9.806  11.452 -0.2393  0.1879 -0.6812
  508MOL0     C70028  -0.297   9.859  11.350 -0.0682  0.0201 -0.1621
  508MOL0     C70029  -0.420   9.923  11.430  0.0765 -0.7906  0.4739
  508MOL0     C70030  -0.468   9.822  11.527 -0.3783 -0.3250 -0.7669
  508MOL0     C70031  -0.506   9.732  11.605  1.2186 -0.6173 -0.0217
  508MOL0     C70032   0.106   9.938  11.149 -0.5425  0.4391  0.1021
  508MOL0     C70033   0.224   9.948  11.072  0.0689  0.7254 -1.0537
  508MOL0     C70034   0.206   9.960  10.926 -0.4859 -0.1208  0.3984
  508MOL0     H70035   0.754   9.823  11.010 -2.0971  0.3962 -1.3016
  508MOL0     H70036   0.947   9.918  10.911  2.2783  1.3654 -0.7429
  508MOL0     H70037   1.154  10.219  11.057 -2.1208  0.7149  1.1696
  508MOL0     H70038   1.065  10.337  10.955 -1.3543 -0.5453 -0.6420
  508MOL0     H70039   1.277  10.171  10.840  3.2713  1.1993 -0.2780
  508MOL0     H70040   1.218  10.312  10.766  2.8227 -0.0699 -0.1990
  508MOL0     H70041   1.386  10.431  10.865  1.0488  0.1048  1.3146
  508MOL0     H70042   1.276  10.427  11.011  3.4652  1.6942  1.3205
  508MOL0     H70043   1.382  10.255  11.107 -3.0739 -2.0072 -3.4067
  508MOL0     H70044   1.486  10.222  10.972 -0.3809  0.4673  0.4480
  508MOL0     H70045   1.612  10.365  11.144 -1.7681 -0.9919  1.2112
  508MOL0     H70046   1.496  10.501  11.104  2.5334  1.0882  1.2057
  508MOL0     H70047   1.578  10.524  10.882 -0.3440 -0.4331  0.0937
  508MOL0     H70048   1.710  10.544  11.003 -0.4593 -0.8839  1.0459
  508MOL0     H70049   1.664  10.299  10.835 -1.3791  0.6794 -1.0116
  508MOL0     H70050   1.762  10.295  10.987  3.5891  1.4080 -0.8047
  508MOL0     H70051   1.828  10.389  10.722  1.1954  3.5811 -0.5656
  508MOL0     H70052   1.838  10.522  10.816  2.6588  0.2361 -1.3363
  508MOL0     H70053   1.966  10.139  10.874  2.1969 -1.4154  0.2466
  508MOL0     H70054   2.319  10.131  10.811  3.6365  0.6442  2.2930
  508MOL0     H70055   2.194  10.024  10.895  0.8518  0.1332  0.1939
  508MOL0     H70056   2.410  10.213  10.995 -1.1840  0.1831 -1.2173
  508MOL0     H70057   2.271  10.167  11.096  2.0592 -0.1989  1.9401
  508MOL0     H70058   2.455  10.028  11.164  1.4821  1.2833 -0.9584
  508MOL0     H70059   2.337   9.916  11.101  0.0619 -0.2747  0.2461
  508MOL0     H70060   2.555   9.852  11.014 -1.7020 -2.7987 -0.3340
  508MOL0     H70061   2.426   9.859  10.905 -0.1225 -0.1053  0.0488
  508MOL0     H70062   2.627  10.208  10.752 -0.1948 -2.3940  1.0184
  508MOL0     H70063   2.558  10.355  10.457  0.3196 -2.0717 -0.8708
  508MOL0     H70064   2.715  10.270  10.441  0.8584  2.1301 -1.7679
  508MOL0     H70065   2.679  10.348  10.584 -2.3086  1.0412 -0.2261
  508MOL0     H70066   2.199   9.968  10.097 -0.4194  4.1889  2.5146
  508MOL0     H70067   2.212   9.942   9.852 -0.3938 -1.2308  0.3690
  508MOL0     H70068   2.310   9.963   9.542  3.0642 -1.3145  0.1190
  508MOL0     H70069   2.248  10.072   9.671  2.4013  2.1508  2.5824
  508MOL0     H70070   2.299  10.222   9.478  1.2069  0.4050 -3.0413
  508MOL0     H70071   2.423  10.244   9.609 -1.5166  0.7851 -0.2158
  508MOL0     H70072   2.438  10.084   9.342 -3.0670 -1.3860  2.8012
  508MOL0     H70073   2.563  10.079   9.471  1.9156  1.7504 -0.8974
  508MOL0     H70074   2.579  10.330   9.464  0.4694  0.3507  0.0136
  508MOL0     H70075   2.468  10.328   9.316 -0.4426 -1.6455 -1.0408
  508MOL0     H70076   2.679  10.369   9.257 -1.5173  0.6593  0.5667
  508MOL0     H70077   2.752  10.245   9.345 -0.2150 -1.0669 -0.9962
  508MOL0     H70078   2.543  10.173   9.148 -0.4612  1.3945  2.0763
  508MOL0     H70079   2.658  10.062   9.224  1.6720  2.5424  4.7327
  508MOL0     H70080   2.779  10.093   9.011  2.1284  1.0887 -1.4386
  508MOL0     H70081   2.863  10.196   9.108  2.0567 -0.1891 -4.4705
  508MOL0     H70082   2.706  10.388   9.058  0.0887  0.6316 -1.2594
  508MOL0     H70083   2.621  10.287   8.943 -0.8569  0.2892 -1.4925
  508MOL0     H70084   2.628  10.058   9.850  0.1800  0.9806 -0.4260
  508MOL0     H70085   2.624  10.056  10.094 -0.3704 -3.9304  2.4363
  508MOL0     H70086   2.420   9.864  10.467  2.1970 -1.6453  1.3509
  508MOL0     H70087   2.489   9.822  10.704  1.0840 -1.2374 -3.4057
  508MOL0     H70088   0.903  10.290  11.092 -0.8584 -0.2441  0.5590
  508MOL0     H70089   0.688  10.196  11.217  0.1614  2.8058 -1.3895
  508MOL0     H70090   0.437   9.941  11.348 -2.0675  0.3122  1.7363
  508MOL0     H70091   0.233   9.936  11.469 -0.3462 -0.1138 -0.0617
  508MOL0     H70092  -0.060   9.730  11.303 -2.3579 -1.6920  1.6121
  508MOL0     H70093   0.022   9.742  11.456 -0.9943  0.1212  0.8116
  508MOL0     H70094  -0.172   9.872  11.537 -0.9787  0.8520 -1.0127
  508MOL0     H70095  -0.215   9.707  11.492 -2.8188  0.5315 -1.2074
  508MOL0     H70096  -0.257   9.939  11.287 -1.5983  1.0166  0.0891
  508MOL0     H70097  -0.336   9.781  11.284 -2.0080  1.4056 -0.7248
  508MOL0     H70098  -0.495   9.951  11.355 -0.5958 -0.3499  1.2926
  508MOL0     H70099  -0.389  10.012  11.485 -0.6511 -1.3214  1.8027
  508MOL0     H70100  -0.540   9.656  11.673 -1.4879 -1.1431 -1.7982
  508MOL0     H70101   0.003   9.935  11.114 -0.1200  2.9717 -1.6636
  508MOL0     H70102   0.243   9.866  10.883 -0.3319  0.6222 -1.1680
  508MOL0     H70103   0.102   9.974  10.896 -1.0557  0.0036  2.2791
  508MOL0     H70104   0.258  10.040  10.872 -0.5796 -0.5763 -0.3784
  509MOL0     O70105   7.307  11.285   0.104  0.4548  0.1577  0.6454
  509MOL0     C70106   7.333  11.209   0.197  0.0823 -0.2613  0.2345
  509MOL0     O70107   7.450  11.190   0.249 -0.6852 -0.2018 -0.1069
  509MOL0     C70108   7.553  11.268   0.191 -0.4573  0.4746  0.1436
  509MOL0     C70109   7.661  11.188   0.135 -0.2652 -0.1247 -0.2890
  509MOL0     C70110   7.766  11.245   0.072 -0.3116 -0.3468 -0.0006
  509MOL0     C70111   7.777  11.387   0.063 -1.2050  1.3632 -0.0204
  509MOL0     O70112   7.892  11.426  -0.004  0.4539  0.3203 -0.6668
  509MOL0     C70113   7.868  11.560  -0.039 -0.7428 -0.7511  0.8257
  509MOL0     C70114   8.001  11.626  -0.095 -0.0765 -0.4147 -0.1633
  509MOL0     C70115   8.055  11.536  -0.206 -0.1234  0.0577  0.5298
  509MOL0     C70116   8.159  11.440  -0.150 -0.3193 -0.2833 -0.4721
  509MOL0     C70117   8.190  11.334  -0.259 -0.5580  0.3311  0.4615
  509MOL0     C70118   8.072  11.246  -0.297  0.4026  0.3712  0.0070
  509MOL0     C70119   8.116  11.129  -0.387 -0.7777 -0.2273 -0.2011
  509MOL0     C70120   7.994  11.060  -0.449 -0.5869  0.2083  0.1031
  509MOL0     N70121   8.013  10.929  -0.516 -0.2627 -0.7723 -0.1002
  509MOL0     C70122   8.123  10.882  -0.572  0.3658  0.0014  0.7962
  509MOL0     C70123   8.095  10.756  -0.606 -0.6210  0.2712 -0.0930
  509MOL0     C70124   8.187  10.674  -0.688  0.1498  0.7349 -0.3176
  509MOL0     C70125   8.143  10.654  -0.831  0.3667  0.4624 -0.2213
  509MOL0     C70126   8.018  10.558  -0.833 -0.5319 -0.1639  0.1661
  509MOL0     C70127   7.994  10.473  -0.951 -0.7440  1.1880 -0.9891
  509MOL0     O70128   7.871  10.407  -0.920  0.0159 -0.9379  0.1646
  509MOL0     C70129   7.807  10.314  -1.000 -0.2016 -1.1576 -0.1027
  509MOL0     C70130   7.873  10.249  -1.107 -0.5524  0.2854  0.4815
  509MOL0     C70131   7.818  10.134  -1.176  0.2896  0.1515 -0.5631
  509MOL0     C70132   7.887  10.080  -1.304  0.0505  0.4620  0.2926
  509MOL0     C70133   7.686  10.094  -1.135 -0.3691 -0.8436 -0.1805
  509MOL0     C70134   7.607   9.987  -1.196  1.2647  0.7477  0.5057
  509MOL0     O70135   7.582   9.998  -1.333  0.3922  0.2345 -0.3107
  509MOL0     C70136   7.534   9.892  -1.407  0.1710 -0.1890  0.3833
  509MOL0     C70137   7.608   9.846  -1.513  0.2344 -0.4021 -0.0895
  509MOL0     C70138   7.560   9.749  -1.603 -0.4851 -0.8541 -0.2615
  509MOL0     C70139   7.434   9.689  -1.579  0.4381  0.4936  1.2063
  509MOL0     O70140   7.390   9.599  -1.677 -0.2536 -0.0867 -0.5023
  509MOL0     C70141   7.257   9.554  -1.682  0.4088  0.5692 -0.0767
  509MOL0     C70142   7.239   9.522  -1.829 -0.4285  0.3813  1.8435
  509MOL0     C70143   7.208   9.648  -1.905 -0.1943  0.0552 -0.2741
  509MOL0     C70144   7.137   9.621  -2.037  1.4589  0.1529 -0.4823
  509MOL0     C70145   7.103   9.725  -2.142 -0.2027 -0.3755  0.7510
  509MOL0     C70146   7.043   9.852  -2.082  0.4445 -0.6630 -0.5264
  509MOL0     C70147   6.902   9.823  -2.015 -0.2746  0.4358 -0.4516
  509MOL0     C70148   6.856   9.960  -1.952 -0.0038  0.0355  0.6395
  509MOL0    Cl70149   6.682   9.954  -1.932 -0.1352 -0.0890 -0.5751
  509MOL0     C70150   7.367   9.726  -1.461  1.1937  1.0010  0.2253
  509MOL0     C70151   7.418   9.820  -1.374  0.1930 -0.9547 -0.3163
  509MOL0     O70152   7.564   9.899  -1.119 -0.2609 -0.5654 -0.3088
  509MOL0     C70153   7.627  10.151  -1.022 -0.1986 -0.9861  0.0784
  509MOL0     C70154   7.686  10.268  -0.960  1.0966 -0.2026 -0.2899
  509MOL0     N70155   7.969  10.719  -0.559 -0.5260 -0.0344  0.0804
  509MOL0     N70156   7.926  10.826  -0.501 -0.2330 -1.1514  0.0071
  509MOL0     C70157   7.681  11.471   0.136  1.0427  0.4827 -0.0655
  509MOL0     C70158   7.564  11.408   0.194 -0.8076  0.2584  0.0972
  509MOL0     C70159   7.215  11.153   0.270 -0.2362 -0.0685  0.0472
  509MOL0     C70160   7.081  11.184   0.216 -0.6291 -0.3591  0.2131
  509MOL0     C70161   6.967  11.127   0.270  0.3671 -0.1945 -0.5233
  509MOL0     C70162   6.975  11.058   0.391  0.5916  0.0716  0.4764
  509MOL0     O70163   6.869  11.032   0.469 -0.0335  0.0142  0.2376
  509MOL0     C70164   6.813  10.897   0.478  0.3569  0.0418  0.4642
  509MOL0     C70165   6.661  10.901   0.485  0.6619 -0.1832  0.6356
  509MOL0     C70166   6.606  10.757   0.492  0.4320 -0.0666 -0.2788
  509MOL0     C70167   6.452  10.751   0.482 -0.3761 -0.5215 -0.6275
  509MOL0     C70168   6.427  10.779   0.340 -0.6172  0.9118 -0.3700
  509MOL0     C70169   6.408  10.792   0.220 -0.0957  1.0674 -0.0364
  509MOL0     C70170   7.100  11.026   0.447  1.0073 -0.8110  0.3254
  509MOL0     C70171   7.218  11.072   0.392  0.2532  1.2946  0.5669
  509MOL0     C70172   7.349  11.046   0.459 -0.5193 -0.0337 -0.0037
  509MOL0     H70173   7.673  11.080   0.138  1.8674  0.0759  2.4014
  509MOL0     H70174   7.837  11.187   0.015  1.4946 -0.0621  1.8083
  509MOL0     H70175   7.836  11.629   0.040 -4.3562 -2.2353  0.8541
  509MOL0     H70176   7.783  11.558  -0.108 -2.1342  1.5324  2.3141
  509MOL0     H70177   7.968  11.720  -0.139 -1.8785 -0.2114  1.4896
  509MOL0     H70178   8.075  11.655  -0.020  0.9201  1.7682 -1.8747
  509MOL0     H70179   7.974  11.484  -0.256  0.2571 -1.5087  1.4762
  509MOL0     H70180   8.105  11.593  -0.285 -0.3990  2.2989  1.8771
  509MOL0     H70181   8.246  11.500  -0.123 -1.0509  1.2136 -1.2738
  509MOL0     H70182   8.123  11.393  -0.058  0.6095  1.2944  0.7462
  509MOL0     H70183   8.273  11.270  -0.227 -1.0503 -0.3749  0.3528
  509MOL0     H70184   8.231  11.391  -0.343 -0.5707  0.9626  0.8837
  509MOL0     H70185   8.031  11.204  -0.205  0.8741  0.7047  0.3772
  509MOL0     H70186   7.988  11.299  -0.343 -2.0958 -2.3492  1.1435
  509MOL0     H70187   8.165  11.048  -0.332 -0.8156 -0.5861 -0.6840
  509MOL0     H70188   8.182  11.166  -0.467  0.4519  0.1173  0.9351
  509MOL0     H70189   7.902  11.055  -0.389 -1.0956 -0.0163 -0.6805
  509MOL0     H70190   7.959  11.132  -0.523  2.2077 -0.0374 -1.5948
  509MOL0     H70191   8.216  10.932  -0.594  2.0702 -2.9845  0.6970
  509MOL0     H70192   8.209  10.581  -0.635 -1.6676 -0.1607 -1.0554
  509MOL0     H70193   8.286  10.719  -0.689  0.8785 -0.7122  1.2950
  509MOL0     H70194   8.112  10.752  -0.868  1.7835  0.3278 -1.9124
  509MOL0     H70195   8.228  10.623  -0.892  0.4969  2.8686 -1.3787
  509MOL0     H70196   8.030  10.487  -0.750  0.2082  0.9834  1.0813
  509MOL0     H70197   7.933  10.622  -0.808 -0.1795  1.0977 -1.6661
  509MOL0     H70198   7.993  10.527  -1.046 -3.7297 -0.7106 -2.1535
  509MOL0     H70199   8.071  10.398  -0.969  0.1200  1.6243  0.7016
  509MOL0     H70200   7.969  10.283  -1.143 -0.5642 -0.6972 -0.5492
  509MOL0     H70201   7.943  10.160  -1.354 -0.9298  1.1889  0.3488
  509MOL0     H70202   7.825  10.022  -1.373  0.1001 -1.1747  1.5680
  509MOL0     H70203   7.959  10.004  -1.270 -0.1173  0.3663  0.4328
  509MOL0     H70204   7.696   9.905  -1.536 -1.0024  1.0490 -1.3049
  509MOL0     H70205   7.612   9.727  -1.695 -1.4900 -0.9681 -0.8162
  509MOL0     H70206   7.241   9.459  -1.630  0.4117  0.3156 -0.5307
  509MOL0     H70207   7.171   9.615  -1.653  0.5592  0.8668 -0.2568
  509MOL0     H70208   7.317   9.454  -1.865 -2.8428 -1.3312 -0.5730
  509MOL0     H70209   7.148   9.461  -1.835  0.4198 -0.9592  1.9980
  509MOL0     H70210   7.305   9.691  -1.932 -0.0395 -0.5883 -0.7923
  509MOL0     H70211   7.160   9.719  -1.837 -1.5927  0.7764 -1.9351
  509MOL0     H70212   7.047   9.562  -2.017  1.4175  0.1914 -0.5522
  509MOL0     H70213   7.198   9.546  -2.090 -0.5335 -0.0245 -2.7028
  509MOL0     H70214   7.197   9.754  -2.191 -0.3158 -0.6870  0.3454
  509MOL0     H70215   7.033   9.691  -2.218  1.3155 -2.1399  0.0588
  509MOL0     H70216   7.025   9.938  -2.148  3.3407 -0.2313 -0.8670
  509MOL0     H70217   7.107   9.895  -2.005 -3.4487  2.1764  1.5136
  509MOL0     H70218   6.905   9.741  -1.942 -0.6395 -0.9940 -1.9776
  509MOL0     H70219   6.824   9.795  -2.086 -0.4272 -1.9852  0.5751
  509MOL0     H70220   6.880  10.036  -2.026  1.3984  1.1286  2.1382
  509MOL0     H70221   6.895   9.986  -1.853 -2.3441  1.3275  1.2802
  509MOL0     H70222   7.269   9.688  -1.433  1.5038  2.1988  3.3997
  509MOL0     H70223   7.359   9.846  -1.287  0.6825  0.9246 -0.5114
  509MOL0     H70224   7.525  10.131  -0.990 -0.7594  2.0082  0.5084
  509MOL0     H70225   7.642  10.324  -0.878 -2.2466  0.6009 -2.4660
  509MOL0     H70226   7.663  11.578   0.132 -0.3239  0.2450 -0.8549
  509MOL0     H70227   7.496  11.473   0.247  0.1685 -0.1584  1.9613
  509MOL0     H70228   7.071  11.248   0.128 -2.4735 -3.8304 -2.3696
  509MOL0     H70229   6.871  11.170   0.243  0.1410  0.0932  0.6913
  509MOL0     H70230   6.837  10.837   0.390 -0.6304  0.2949  0.0060
  509MOL0     H70231   6.856  10.839   0.561 -1.0349 -1.1245  0.4185
  509MOL0     H70232   6.621  10.954   0.398 -3.3993 -1.2178  1.6830
  509MOL0     H70233   6.630  10.953   0.576 -3.2008 -2.3891  0.8102
  509MOL0     H70234   6.658  10.704   0.412  0.3066  0.3016 -0.6130
  509MOL0     H70235   6.643  10.705   0.581 -2.0650  0.5949  1.2330
  509MOL0     H70236   6.396  10.821   0.546 -0.6306  1.7338 -3.1397
  509MOL0     H70237   6.423  10.647   0.501  1.3152 -0.7296  1.1984
  509MOL0     H70238   6.392  10.785   0.115  0.8737 -1.8330 -0.0801
  509MOL0     H70239   7.097  10.973   0.542  1.2857  1.1518  1.4729
  509MOL0     H70240   7.401  11.126   0.511 -0.1520 -0.9513  1.0934
  509MOL0     H70241   7.328  10.988   0.550  0.7918 -0.2995  0.1492
  509MOL0     H70242   7.417  10.990   0.394 -0.0440 -3.7537  3.3251
  510MOL0     O70243   3.117   8.910   1.987 -0.5735 -0.2939 -0.0464
  510MOL0     C70244   3.142   9.003   2.064 -1.1482 -0.4321 -0.1425
  510MOL0     O70245   3.051   9.063   2.148 -0.2055 -0.2801  0.5476
  510MOL0     C70246   2.914   9.039   2.144  0.5791  0.2755 -0.0676
  510MOL0     C70247   2.842   9.016   2.026 -0.5092  0.2383  0.4363
  510MOL0     C70248   2.702   8.996   2.037  0.1603  0.5388 -0.4218
  510MOL0     C70249   2.644   8.965   2.160 -0.2040 -0.0636  0.1474
  510MOL0     O70250   2.516   8.920   2.173  0.3852  0.4804  0.7072
  510MOL0     C70251   2.468   8.813   2.087 -0.4604 -0.6076  1.2456
  510MOL0     C70252   2.317   8.806   2.112  0.0589  1.1339 -1.1563
  510MOL0     C70253   2.264   8.685   2.038 -0.5447  0.0650 -0.6810
  510MOL0     C70254   2.117   8.666   2.053  0.6587  0.2432 -0.3786
  510MOL0     C70255   2.087   8.531   1.990 -0.1998  0.3904  0.1681
  510MOL0     C70256   1.946   8.485   2.011 -0.1673  0.3073 -0.8706
  510MOL0     C70257   1.932   8.339   1.981  0.2870  0.7151  0.0428
  510MOL0     C70258   1.946   8.280   1.832 -0.1455 -0.7452 -0.3328
  510MOL0     N70259   1.927   8.135   1.822 -0.0959  0.3560  0.0686
  510MOL0     C70260   2.016   8.042   1.787  0.2618  0.2810  0.5882
  510MOL0     C70261   1.944   7.927   1.770  0.4669 -0.1898 -0.2597
  510MOL0     C70262   2.006   7.799   1.725  0.3549 -0.1893  0.4458
  510MOL0     C70263   2.013   7.706   1.849  0.4207  0.5585  0.1724
  510MOL0     C70264   2.132   7.747   1.927 -0.2525 -0.1499  1.4282
  510MOL0     C70265   2.119   7.711   2.079 -0.1167 -0.1850  0.5550
  510MOL0     O70266   2.054   7.588   2.115 -0.0919 -0.0898 -0.0098
  510MOL0     C70267   2.118   7.522   2.221  0.6314  0.2043 -0.1958
  510MOL0     C70268   2.123   7.580   2.349 -0.9150 -0.4383 -0.0916
  510MOL0     C70269   2.177   7.516   2.463 -0.8451 -0.9404 -0.1405
  510MOL0     C70270   2.166   7.585   2.598  0.0405 -0.0143  0.6156
  510MOL0     C70271   2.227   7.388   2.439 -0.6097  0.4148  0.3574
  510MOL0     C70272   2.270   7.296   2.551 -0.0709  0.3123  0.2381
  510MOL0     O70273   2.347   7.193   2.521 -0.1411  0.4427  1.0561
  510MOL0     C70274   2.383   7.107   2.620  0.0144 -0.9744 -0.2472
  510MOL0     C70275   2.284   7.028   2.693 -0.2773  0.3118  0.0404
  510MOL0     C70276   2.332   6.933   2.784 -0.8159 -0.5701 -0.3199
  510MOL0     C70277   2.473   6.915   2.812 -0.1040  0.3970 -0.3143
  510MOL0     O70278   2.487   6.819   2.912 -0.4788  0.1338 -0.1316
  510MOL0     C70279   2.613   6.750   2.920 -0.7211  0.6471  0.0005
  510MOL0     C70280   2.667   6.754   3.068 -0.1060 -0.0083 -0.4861
  510MOL0     C70281   2.812   6.701   3.075  0.5482  0.5905  0.0591
  510MOL0     C70282   2.855   6.657   3.210 -0.1124 -0.7783  0.3848
  510MOL0     C70283   2.999   6.602   3.197 -0.0597 -0.0981  0.3295
  510MOL0     C70284   3.014   6.452   3.147 -0.1731 -0.0930  0.8830
  510MOL0     C70285   2.906   6.356   3.204 -0.9817  0.4033 -0.0482
  510MOL0     C70286   2.940   6.210   3.169  0.6719  0.6796 -1.0008
  510MOL0    Cl70287   2.944   6.171   2.991  0.2336 -0.5075 -0.3657
  510MOL0     C70288   2.566   7.007   2.743  0.6515  0.4480 -0.4810
  510MOL0     C70289   2.522   7.104   2.654 -0.8617 -0.2239 -0.0733
  510MOL0     O70290   2.250   7.325   2.671  0.4770 -0.8085  0.0949
  510MOL0     C70291   2.229   7.331   2.306  0.8976 -0.1790 -1.1656
  510MOL0     C70292   2.171   7.405   2.204 -0.5959 -1.1960  0.3382
  510MOL0     N70293   1.812   7.949   1.807  0.4462  0.1535 -0.1631
  510MOL0     N70294   1.803   8.074   1.822 -0.5157 -0.0310 -0.0150
  510MOL0     C70295   2.723   8.973   2.277  0.2677  0.7721 -0.1757
  510MOL0     C70296   2.858   9.013   2.272  0.2113  0.3576 -0.1907
  510MOL0     C70297   3.276   9.060   2.071 -0.3286 -0.6728  0.0419
  510MOL0     C70298   3.390   8.968   2.072  0.0237 -0.2338 -0.3010
  510MOL0     C70299   3.525   9.013   2.066  1.1977  0.7009  0.3548
  510MOL0     C70300   3.549   9.149   2.056 -0.3001 -0.9541  0.7821
  510MOL0     O70301   3.673   9.193   2.058 -0.5433  0.1346 -0.6962
  510MOL0     C70302   3.761   9.140   1.957  0.5765 -0.2392  0.8716
  510MOL0     C70303   3.891   9.207   1.949  0.6370 -0.9181  0.5884
  510MOL0     C70304   3.877   9.356   1.902  0.2815  0.2990 -0.2608
  510MOL0     C70305   3.833   9.369   1.756 -0.0668 -0.2808  0.0388
  510MOL0     C70306   3.853   9.507   1.713 -0.7501  0.2218 -0.4396
  510MOL0     C70307   3.855   9.624   1.688 -0.5808 -0.2462  0.4072
  510MOL0     C70308   3.444   9.232   2.045 -0.8010  0.0681 -0.2283
  510MOL0     C70309   3.310   9.196   2.052  0.2315 -0.3245  0.2086
  510MOL0     C70310   3.200   9.304   2.027 -1.0443  0.3758  0.0977
  510MOL0     H70311   2.873   9.039   1.924  0.4571  1.5785  1.0013
  510MOL0     H70312   2.654   8.997   1.940  1.1343 -2.4949 -1.0521
  510MOL0     H70313   2.514   8.716   2.110  2.3882 -0.3327 -2.3487
  510MOL0     H70314   2.486   8.831   1.980 -0.5742 -4.5917  0.3974
  510MOL0     H70315   2.303   8.801   2.220  0.3831 -2.0017 -1.1740
  510MOL0     H70316   2.255   8.889   2.075 -4.9441 -2.3572 -1.6834
  510MOL0     H70317   2.299   8.672   1.935  2.2581 -4.8672  0.5307
  510MOL0     H70318   2.305   8.597   2.089 -0.4907  0.5735  0.1608
  510MOL0     H70319   2.096   8.662   2.160  1.4877 -0.3073 -0.2266
  510MOL0     H70320   2.049   8.742   2.013 -1.1678 -0.9561  0.3110
  510MOL0     H70321   2.160   8.460   2.031 -0.0924 -0.5461 -1.5537
  510MOL0     H70322   2.106   8.550   1.884 -0.8996 -0.7114 -0.1714
  510MOL0     H70323   1.920   8.487   2.118 -3.4286 -0.6025 -1.5164
  510MOL0     H70324   1.870   8.542   1.956 -0.7981 -0.6286 -1.0081
  510MOL0     H70325   1.836   8.298   2.013  1.4756 -1.7240  0.7484
  510MOL0     H70326   2.016   8.288   2.030  1.8643  1.4573 -1.7388
  510MOL0     H70327   1.874   8.331   1.768  0.3505 -2.9946 -2.8664
  510MOL0     H70328   2.045   8.311   1.795 -0.2209 -2.0202 -1.6776
  510MOL0     H70329   2.124   8.060   1.783  1.0660 -3.4762  1.9601
  510MOL0     H70330   2.107   7.817   1.689  1.1301 -1.3099  1.9548
  510MOL0     H70331   1.947   7.747   1.649  0.6416 -3.7513  2.4517
  510MOL0     H70332   1.921   7.723   1.905 -0.2857 -1.1640 -0.3735
  510MOL0     H70333   2.017   7.600   1.820 -1.4019  0.4698  0.1448
  510MOL0     H70334   2.224   7.711   1.882 -0.3208 -0.3647  1.4588
  510MOL0     H70335   2.140   7.856   1.929 -0.3704 -0.1483  2.6526
  510MOL0     H70336   2.219   7.729   2.120 -0.2508  0.5670  0.5625
  510MOL0     H70337   2.044   7.776   2.122 -2.8533 -2.2280 -0.8244
  510MOL0     H70338   2.088   7.683   2.346  1.9532  0.7023 -4.6914
  510MOL0     H70339   2.124   7.685   2.587  1.0200  0.5990  2.0496
  510MOL0     H70340   2.267   7.602   2.637 -0.0750  2.8295 -0.0943
  510MOL0     H70341   2.106   7.528   2.669 -0.5939  1.6773  1.4896
  510MOL0     H70342   2.177   7.033   2.673  0.0002 -1.3654 -2.3286
  510MOL0     H70343   2.269   6.859   2.831  1.5394 -0.7792  2.7539
  510MOL0     H70344   2.595   6.644   2.903  0.4511  0.7240 -1.9156
  510MOL0     H70345   2.696   6.788   2.860 -0.9171 -1.7692 -1.9581
  510MOL0     H70346   2.657   6.858   3.102 -3.4000 -0.7838  1.3725
  510MOL0     H70347   2.599   6.696   3.131 -0.2278  0.9053  0.2561
  510MOL0     H70348   2.885   6.775   3.039 -0.6238  2.4550  1.3607
  510MOL0     H70349   2.812   6.624   2.997 -1.3279  1.4652 -0.8769
  510MOL0     H70350   2.795   6.576   3.252 -2.7626 -0.3663 -2.2346
  510MOL0     H70351   2.851   6.747   3.272 -3.9259 -1.2545  1.0854
  510MOL0     H70352   3.066   6.674   3.148 -2.5745  2.9050  0.9659
  510MOL0     H70353   3.036   6.611   3.299  2.7931  2.1968 -0.7682
  510MOL0     H70354   3.115   6.422   3.173  0.4289  1.1062  0.0435
  510MOL0     H70355   2.990   6.453   3.041  0.1828  3.2643  0.7051
  510MOL0     H70356   2.810   6.381   3.159  0.1029  0.9318 -2.2307
  510MOL0     H70357   2.897   6.359   3.313 -0.1524 -3.3668  0.2610
  510MOL0     H70358   2.869   6.142   3.216 -0.1092  0.6500 -2.1809
  510MOL0     H70359   3.031   6.181   3.223 -0.8429 -4.7589 -0.7814
  510MOL0     H70360   2.672   7.005   2.766  0.7677  2.2362 -0.6839
  510MOL0     H70361   2.600   7.168   2.615  0.4017 -1.6080  0.0672
  510MOL0     H70362   2.264   7.229   2.289  0.4373 -0.6528  0.5858
  510MOL0     H70363   2.161   7.355   2.108 -1.6188  0.7966 -0.6669
  510MOL0     H70364   2.675   8.951   2.371  0.2462 -1.4449 -0.6446
  510MOL0     H70365   2.918   9.019   2.362 -3.1102 -0.1125  2.2080
  510MOL0     H70366   3.367   8.865   2.098 -1.9576  0.9271  3.1556
  510MOL0     H70367   3.604   8.943   2.088  2.0376  1.9167  1.3792
  510MOL0     H70368   3.789   9.035   1.970 -0.8887 -0.2670  4.8715
  510MOL0     H70369   3.710   9.147   1.861 -2.0254  1.0119  2.2658
  510MOL0     H70370   3.957   9.154   1.881  1.7132 -0.5257  1.2956
  510MOL0     H70371   3.944   9.198   2.044 -0.3658 -0.4535  1.2188
  510MOL0     H70372   3.803   9.401   1.969  0.8488  1.9051 -0.6537
  510MOL0     H70373   3.975   9.403   1.916  1.1442 -1.7470  1.0370
  510MOL0     H70374   3.729   9.340   1.744  0.5219 -2.1551 -0.8342
  510MOL0     H70375   3.884   9.301   1.687  0.0711 -0.5988  0.4503
  510MOL0     H70376   3.859   9.729   1.667 -1.4308  0.3850  3.0732
  510MOL0     H70377   3.470   9.338   2.040  2.6645 -0.5508  1.4916
  510MOL0     H70378   3.107   9.276   2.079 -0.2192 -1.0489  0.8462
  510MOL0     H70379   3.239   9.399   2.063  0.3355  0.2250 -0.9333
  510MOL0     H70380   3.169   9.311   1.922 -1.3713 -1.0904  0.0820
  511MOL0     O70381   0.161   1.027   7.056 -0.0341  0.2897  0.0448
  511MOL0     C70382   0.050   0.988   7.017 -0.2410  0.9693  0.1729
  511MOL0     O70383  -0.073   1.016   7.076  0.2213  0.6455 -0.1734
  511MOL0     C70384  -0.084   1.104   7.170 -0.3889 -0.1538  0.8162
  511MOL0     C70385  -0.081   1.240   7.145  0.1704  0.7147 -0.5040
  511MOL0     C70386  -0.107   1.338   7.237 -0.6961 -0.7621 -0.2288
  511MOL0     C70387  -0.143   1.303   7.371  0.0993 -0.8283  0.6491
  511MOL0     O70388  -0.160   1.392   7.475 -0.3150 -1.1626  0.3079
  511MOL0     C70389  -0.220   1.513   7.433  0.1763  0.6795  0.2923
  511MOL0     C70390  -0.318   1.580   7.535 -0.6544 -0.1921 -0.1098
  511MOL0     C70391  -0.247   1.593   7.673 -0.6540 -0.0666  0.1483
  511MOL0     C70392  -0.152   1.719   7.678  0.4308 -0.0189  0.9325
  511MOL0     C70393  -0.080   1.724   7.803  0.1299 -0.1356  0.0960
  511MOL0     C70394   0.053   1.653   7.797 -0.0062 -0.3576  0.5906
  511MOL0     C70395   0.130   1.671   7.931 -0.6930 -0.3261 -0.4541
  511MOL0     C70396   0.271   1.609   7.917 -1.0129  0.2886 -0.1238
  511MOL0     N70397   0.363   1.681   7.813  0.2389  0.9798  0.4808
  511MOL0     C70398   0.367   1.815   7.803  0.2872 -0.4314 -0.0157
  511MOL0     C70399   0.467   1.834   7.714  0.0648  0.8253 -0.4726
  511MOL0     C70400   0.513   1.973   7.679 -0.1526  0.3625  0.3099
  511MOL0     C70401   0.645   2.033   7.742  1.0111  0.1200  0.2400
  511MOL0     C70402   0.671   2.179   7.685 -0.0014  0.2986 -0.0350
  511MOL0     C70403   0.798   2.244   7.738 -0.3050 -0.4437  1.3498
  511MOL0     O70404   0.909   2.188   7.663  0.1229 -0.0709 -0.9747
  511MOL0     C70405   1.030   2.221   7.717 -0.6974 -0.6157 -0.1176
  511MOL0     C70406   1.102   2.340   7.708  0.2638  0.1982 -0.1049
  511MOL0     C70407   1.234   2.359   7.740  1.0517  0.4041  0.8247
  511MOL0     C70408   1.295   2.495   7.710 -0.5683  0.4141 -0.2444
  511MOL0     C70409   1.307   2.246   7.783 -0.2427 -0.0738  0.1646
  511MOL0     C70410   1.447   2.244   7.829 -0.1658 -0.3125 -0.0754
  511MOL0     O70411   1.512   2.132   7.832  0.2978 -0.1730 -0.3404
  511MOL0     C70412   1.626   2.117   7.903  0.4059 -0.2786 -0.7785
  511MOL0     C70413   1.632   2.119   8.050  0.3551 -0.6415 -0.3378
  511MOL0     C70414   1.755   2.104   8.121  0.3695  0.0869  0.4422
  511MOL0     C70415   1.874   2.082   8.046  0.7952 -0.0445 -0.7333
  511MOL0     O70416   1.992   2.080   8.113  0.2815  0.0805 -0.3866
  511MOL0     C70417   2.066   2.207   8.105  1.0599 -0.0836 -0.7094
  511MOL0     C70418   2.161   2.202   8.221  0.7417 -0.1041 -0.4023
  511MOL0     C70419   2.266   2.093   8.207 -0.1782  0.7323  0.0404
  511MOL0     C70420   2.406   2.142   8.229 -0.2540 -0.0369 -0.1940
  511MOL0     C70421   2.456   2.220   8.113 -0.5651 -0.4089 -0.4917
  511MOL0     C70422   2.615   2.240   8.119 -0.0243  0.4813  0.7301
  511MOL0     C70423   2.648   2.363   8.201  0.6404  0.4139  0.1963
  511MOL0     C70424   2.796   2.380   8.230 -0.5636 -0.1640  0.1178
  511MOL0    Cl70425   2.827   2.528   8.336  0.1426  0.3272 -0.1218
  511MOL0     C70426   1.863   2.077   7.904 -0.0540  1.1922 -0.5165
  511MOL0     C70427   1.744   2.102   7.840 -0.1508 -0.5908  0.2530
  511MOL0     O70428   1.498   2.353   7.866  0.4370  0.0060 -0.6753
  511MOL0     C70429   1.245   2.123   7.785  0.1797 -0.2413  0.7528
  511MOL0     C70430   1.109   2.110   7.746  0.0701  0.5309  0.1052
  511MOL0     N70431   0.514   1.712   7.661 -0.9113 -0.0042  0.1279
  511MOL0     N70432   0.443   1.622   7.719 -0.7643 -0.7308  0.5281
  511MOL0     C70433  -0.153   1.170   7.398 -0.0861  0.2767  0.3465
  511MOL0     C70434  -0.127   1.073   7.294 -0.3849  0.0565 -0.1861
  511MOL0     C70435   0.056   0.888   6.905 -0.3856  0.1515 -0.1115
  511MOL0     C70436  -0.069   0.853   6.850  0.7524  0.0371 -0.3450
  511MOL0     C70437  -0.088   0.764   6.739 -0.9160  0.0179  0.0191
  511MOL0     C70438   0.024   0.708   6.687  0.1013  0.2273  1.0669
  511MOL0     O70439   0.030   0.634   6.568  0.1414 -0.3962  0.0807
  511MOL0     C70440  -0.038   0.509   6.572  0.9017 -0.4825 -0.5399
  511MOL0     C70441   0.063   0.409   6.508  0.6862  0.2904  0.3214
  511MOL0     C70442   0.214   0.466   6.492 -1.0569  0.2844  0.3643
  511MOL0     C70443   0.301   0.342   6.476 -0.0576  0.2097 -0.4282
  511MOL0     C70444   0.300   0.284   6.338 -0.1990  0.6001 -0.2772
  511MOL0     C70445   0.296   0.229   6.237 -0.8095  1.2339 -0.0357
  511MOL0     C70446   0.151   0.742   6.737 -0.4661  0.0735  0.0188
  511MOL0     C70447   0.173   0.828   6.849  0.1214 -0.0568 -0.1357
  511MOL0     C70448   0.318   0.861   6.878  0.6479  0.7369 -0.5776
  511MOL0     H70449  -0.050   1.281   7.049  0.1407  0.4502 -0.6292
  511MOL0     H70450  -0.082   1.441   7.212 -3.3529  0.5368  1.9175
  511MOL0     H70451  -0.274   1.495   7.340 -0.7111 -1.6981  1.1871
  511MOL0     H70452  -0.133   1.575   7.411  0.5499 -0.4095 -1.4776
  511MOL0     H70453  -0.347   1.682   7.508  0.3096 -0.7051 -3.4948
  511MOL0     H70454  -0.411   1.522   7.538 -2.2094  2.1571  0.4773
  511MOL0     H70455  -0.324   1.599   7.750 -1.1966  0.6817 -0.4277
  511MOL0     H70456  -0.182   1.510   7.701  1.4901  0.5496 -2.5526
  511MOL0     H70457  -0.082   1.732   7.595 -0.1487 -2.0395  0.0733
  511MOL0     H70458  -0.220   1.805   7.671  1.6052  0.8068 -3.5545
  511MOL0     H70459  -0.142   1.685   7.885 -0.1321 -0.5498 -0.2959
  511MOL0     H70460  -0.060   1.829   7.825 -0.9501  0.2431 -0.6365
  511MOL0     H70461   0.040   1.548   7.772  1.9660 -0.1135 -1.9025
  511MOL0     H70462   0.113   1.705   7.722  3.4758 -3.4563  0.9942
  511MOL0     H70463   0.076   1.614   8.008  0.0402 -0.9701 -0.4093
  511MOL0     H70464   0.140   1.777   7.957  0.3194 -0.1346 -1.5875
  511MOL0     H70465   0.330   1.593   8.008  0.2906  1.2445 -0.7682
  511MOL0     H70466   0.256   1.507   7.880 -0.2712  0.7835 -1.8783
  511MOL0     H70467   0.315   1.889   7.864 -0.7350 -1.1893  0.0437
  511MOL0     H70468   0.436   2.042   7.713  1.8210  2.4261  0.8709
  511MOL0     H70469   0.517   1.984   7.570  2.3222 -0.8446  0.2090
  511MOL0     H70470   0.632   2.040   7.850 -0.0964 -0.3832  0.1489
  511MOL0     H70471   0.727   1.966   7.715 -1.0782 -1.8849 -1.5132
  511MOL0     H70472   0.689   2.179   7.577 -1.9437  0.4385 -0.3930
  511MOL0     H70473   0.585   2.237   7.718  0.9046  1.2978  0.6170
  511MOL0     H70474   0.802   2.352   7.722 -0.1646 -0.4606  1.2724
  511MOL0     H70475   0.803   2.225   7.846 -2.0566 -0.3889  1.4693
  511MOL0     H70476   1.046   2.428   7.679 -0.2456 -0.5549 -1.4995
  511MOL0     H70477   1.324   2.554   7.797  2.1791  2.0767 -2.1495
  511MOL0     H70478   1.235   2.559   7.645  2.5637  2.5411 -1.2654
  511MOL0     H70479   1.392   2.478   7.663  0.4282  0.8995  1.5345
  511MOL0     H70480   1.540   2.153   8.097  1.2403  0.0758  0.9670
  511MOL0     H70481   1.768   2.101   8.229 -0.1230 -0.6912  0.4891
  511MOL0     H70482   2.117   2.214   8.008  0.8465 -0.3144 -0.8400
  511MOL0     H70483   1.999   2.293   8.111 -0.1590 -1.1242  2.6927
  511MOL0     H70484   2.208   2.300   8.235  1.5985 -0.1621 -2.5794
  511MOL0     H70485   2.107   2.193   8.316  2.9318 -0.2306  0.9182
  511MOL0     H70486   2.271   2.067   8.101  1.0495 -0.3807  0.3415
  511MOL0     H70487   2.238   2.009   8.271  0.1064 -0.1665 -0.9950
  511MOL0     H70488   2.465   2.050   8.241 -0.9669 -0.3114  1.6585
  511MOL0     H70489   2.421   2.207   8.316 -1.3205 -1.2465  0.9322
  511MOL0     H70490   2.434   2.160   8.023  1.9861  2.3944 -3.2324
  511MOL0     H70491   2.397   2.312   8.102 -2.2542 -1.6614 -2.9961
  511MOL0     H70492   2.642   2.253   8.014  1.1399  0.5359  1.0166
  511MOL0     H70493   2.666   2.147   8.144 -0.6946 -0.4314 -1.1519
  511MOL0     H70494   2.596   2.375   8.297  0.4769 -0.5472  0.2358
  511MOL0     H70495   2.609   2.449   8.146  0.7953 -0.2449 -0.9698
  511MOL0     H70496   2.851   2.395   8.136 -0.8723  0.8891  0.0953
  511MOL0     H70497   2.843   2.295   8.279  1.8513 -1.2362 -3.6088
  511MOL0     H70498   1.955   2.077   7.846  0.9374  1.9541  0.9545
  511MOL0     H70499   1.740   2.099   7.731 -2.2339 -3.9062  0.2937
  511MOL0     H70500   1.304   2.041   7.824 -0.0535 -1.6961 -1.7517
  511MOL0     H70501   1.061   2.013   7.742 -0.8093  0.9670 -0.3151
  511MOL0     H70502  -0.209   1.162   7.490 -2.0602 -1.3301 -0.9228
  511MOL0     H70503  -0.154   0.973   7.329  1.3637  0.0106  1.1525
  511MOL0     H70504  -0.157   0.903   6.889 -0.7623 -0.4588 -2.8917
  511MOL0     H70505  -0.182   0.717   6.712 -0.1745 -1.3900 -0.2016
  511MOL0     H70506  -0.062   0.478   6.674  3.7101  2.1213  1.0788
  511MOL0     H70507  -0.129   0.503   6.512 -0.4346  0.4338  1.3147
  511MOL0     H70508   0.037   0.393   6.403  0.0983 -0.5220  0.5775
  511MOL0     H70509   0.058   0.315   6.563  0.2674 -0.6355 -1.2335
  511MOL0     H70510   0.219   0.533   6.406  0.4663 -0.0106  0.2032
  511MOL0     H70511   0.250   0.521   6.580  1.5855 -0.4827 -0.1571
  511MOL0     H70512   0.267   0.263   6.544 -0.6254 -2.2278 -3.3639
  511MOL0     H70513   0.405   0.371   6.497 -0.7107  2.9381 -0.5613
  511MOL0     H70514   0.301   0.156   6.158 -0.6707  2.3691 -1.1063
  511MOL0     H70515   0.236   0.686   6.699  0.4818  1.7427 -0.4323
  511MOL0     H70516   0.345   0.846   6.983  0.2588  0.9158 -0.4483
  511MOL0     H70517   0.391   0.806   6.818 -0.7889 -0.4241 -1.3055
  511MOL0     H70518   0.344   0.966   6.859 -0.8061  1.0371 -1.0153
  512MOL0     O70519  10.151   7.187   1.157 -0.2408 -0.1845 -0.3633
  512MOL0     C70520  10.235   7.266   1.119  0.2042 -0.1109  0.1145
  512MOL0     O70521  10.245   7.397   1.155  0.2431 -0.2870 -0.4329
  512MOL0     C70522  10.151   7.462   1.238 -0.7994  0.0991 -0.0577
  512MOL0     C70523  10.203   7.577   1.299 -0.7723 -0.9590 -0.9117
  512MOL0     C70524  10.132   7.646   1.397  0.6495  0.4264  0.1527
  512MOL0     C70525  10.008   7.599   1.441 -0.1888  0.0758 -0.1124
  512MOL0     O70526   9.938   7.689   1.519 -0.6412 -0.1216  0.0746
  512MOL0     C70527   9.808   7.651   1.559  0.0253 -0.3605  0.1383
  512MOL0     C70528   9.758   7.742   1.672 -0.5441 -0.2765  0.2310
  512MOL0     C70529   9.623   7.699   1.711  0.5626 -0.3125  0.2677
  512MOL0     C70530   9.568   7.793   1.814 -0.1425 -0.1660  0.3057
  512MOL0     C70531   9.431   7.738   1.859 -0.4525  0.2172 -0.4711
  512MOL0     C70532   9.369   7.801   1.991 -0.0299  0.4793  0.0552
  512MOL0     C70533   9.215   7.794   1.986  0.2056  0.1266 -0.1887
  512MOL0     C70534   9.146   7.838   2.123  0.0186  0.1633 -0.3616
  512MOL0     N70535   8.997   7.831   2.127  0.1745 -1.1104  0.3784
  512MOL0     C70536   8.923   7.881   2.232 -0.3281 -0.4074 -0.3074
  512MOL0     C70537   8.796   7.850   2.199 -0.3658 -0.3568 -0.4146
  512MOL0     C70538   8.668   7.917   2.267 -0.4410 -0.5553  0.2604
  512MOL0     C70539   8.536   7.853   2.229  0.0103 -0.0264 -0.3020
  512MOL0     C70540   8.435   7.921   2.304  0.7316  0.2267  0.5946
  512MOL0     C70541   8.290   7.874   2.273  0.2311 -0.5387 -0.0687
  512MOL0     O70542   8.295   7.731   2.308 -0.0303 -1.0009 -0.0765
  512MOL0     C70543   8.179   7.661   2.318 -0.2990  1.3506  0.3988
  512MOL0     C70544   8.057   7.711   2.261  0.7651  0.2455 -0.4873
  512MOL0     C70545   7.929   7.650   2.302 -1.0125 -1.2183 -0.5952
  512MOL0     C70546   7.799   7.701   2.242  0.0818  0.5484  0.2975
  512MOL0     C70547   7.940   7.539   2.394  0.0260 -0.0117  1.2203
  512MOL0     C70548   7.819   7.471   2.458 -0.0763  0.3123  1.5604
  512MOL0     O70549   7.696   7.515   2.435 -0.1770 -0.5582 -0.1058
  512MOL0     C70550   7.593   7.438   2.484  0.0648  0.4526 -0.5887
  512MOL0     C70551   7.573   7.423   2.623 -1.0564  0.4142 -0.0528
  512MOL0     C70552   7.489   7.337   2.675  0.5983  0.1658 -0.2842
  512MOL0     C70553   7.425   7.248   2.587 -0.8087 -0.0988 -0.1120
  512MOL0     O70554   7.328   7.146   2.621 -0.2330 -0.3270 -0.0754
  512MOL0     C70555   7.288   7.155   2.758  0.6147  0.0360 -0.1800
  512MOL0     C70556   7.182   7.053   2.785 -0.2250  0.3427  0.0573
  512MOL0     C70557   7.034   7.098   2.747 -0.2220  0.5140 -0.5132
  512MOL0     C70558   6.925   7.015   2.815  1.0876  0.5456 -0.2442
  512MOL0     C70559   6.783   7.085   2.794  0.2675 -0.2276  0.3026
  512MOL0     C70560   6.667   7.019   2.871 -0.3166 -1.1597  0.0373
  512MOL0     C70561   6.534   7.090   2.844  0.5343 -0.7717  0.6677
  512MOL0     C70562   6.412   7.018   2.891 -0.7826  1.0948  0.7487
  512MOL0    Cl70563   6.342   7.099   3.025 -0.0558 -0.3365 -0.0391
  512MOL0     C70564   7.437   7.260   2.452 -0.4014 -0.0009  0.4741
  512MOL0     C70565   7.526   7.350   2.397  0.3306  0.5225 -0.4348
  512MOL0     O70566   7.847   7.370   2.529  0.3848 -0.4263 -0.0507
  512MOL0     C70567   8.066   7.490   2.434 -0.7174 -0.3164 -0.3211
  512MOL0     C70568   8.179   7.541   2.391 -1.0575  0.4309  0.0153
  512MOL0     N70569   8.795   7.785   2.078 -0.4797 -0.0580  0.2215
  512MOL0     N70570   8.916   7.776   2.035  0.1122  0.9003  0.3553
  512MOL0     C70571   9.957   7.489   1.379  0.2233  0.1231  0.0029
  512MOL0     C70572  10.029   7.416   1.280  0.1757 -0.4963  0.0637
  512MOL0     C70573  10.339   7.219   1.022 -0.7534  0.7331 -0.8671
  512MOL0     C70574  10.427   7.320   0.961  0.4618 -0.4240 -1.0199
  512MOL0     C70575  10.532   7.298   0.873 -0.8207 -0.0615  0.1597
  512MOL0     C70576  10.566   7.165   0.843 -0.2602  0.2292 -0.2106
  512MOL0     O70577  10.670   7.136   0.763  0.2701  0.3005 -0.2415
  512MOL0     C70578  10.788   7.174   0.825  0.0083 -0.3143 -0.5666
  512MOL0     C70579  10.899   7.108   0.752 -0.8951  0.7002  0.8683
  512MOL0     C70580  10.906   6.956   0.767  0.0728 -0.0497  0.2512
  512MOL0     C70581  11.034   6.897   0.698 -0.2868 -0.7646  0.0618
  512MOL0     C70582  11.035   6.891   0.553  0.2049 -1.4751 -0.1414
  512MOL0     C70583  11.031   6.882   0.437 -0.3560  0.4900  0.3584
  512MOL0     C70584  10.487   7.068   0.909 -0.0885 -0.5164 -0.7766
  512MOL0     C70585  10.379   7.092   0.998 -0.4003  0.5256  0.1640
  512MOL0     C70586  10.312   6.967   1.067  0.7401 -0.5332  0.2257
  512MOL0     H70587  10.308   7.601   1.290 -1.3153  2.9392  0.8712
  512MOL0     H70588  10.185   7.723   1.453  3.0307 -0.6839 -0.4253
  512MOL0     H70589   9.824   7.551   1.600  1.9619  0.2655  1.0114
  512MOL0     H70590   9.737   7.660   1.476 -1.1091  0.6910  1.1690
  512MOL0     H70591   9.828   7.735   1.756 -0.0545 -0.1825 -0.1693
  512MOL0     H70592   9.774   7.843   1.635 -0.0996 -0.6856 -0.7272
  512MOL0     H70593   9.558   7.707   1.623  1.4672  0.7423 -0.3417
  512MOL0     H70594   9.631   7.597   1.749 -0.7863 -0.0927  1.2307
  512MOL0     H70595   9.630   7.799   1.904 -2.7222 -0.2208  2.1941
  512MOL0     H70596   9.558   7.890   1.764 -1.1353 -0.4233 -0.0167
  512MOL0     H70597   9.437   7.630   1.877 -4.0707  0.4579  3.6020
  512MOL0     H70598   9.372   7.755   1.768  2.0533  1.7023 -1.9260
  512MOL0     H70599   9.412   7.747   2.076 -0.9101  1.3991  1.1065
  512MOL0     H70600   9.405   7.902   2.011  1.7709 -0.7525  3.9163
  512MOL0     H70601   9.196   7.692   1.950  0.6860  0.7112 -2.2296
  512MOL0     H70602   9.167   7.864   1.917 -0.3849  0.1695  0.2592
  512MOL0     H70603   9.180   7.767   2.200  0.4204  0.5484 -0.1828
  512MOL0     H70604   9.173   7.940   2.151 -0.7941  0.9864 -2.4504
  512MOL0     H70605   8.964   7.931   2.320  0.4998 -2.1135  0.3220
  512MOL0     H70606   8.666   8.022   2.233 -2.1433 -1.0745 -1.4704
  512MOL0     H70607   8.676   7.891   2.372  0.6002 -2.9831 -0.3554
  512MOL0     H70608   8.526   7.861   2.121  1.5765  0.2527 -0.4432
  512MOL0     H70609   8.529   7.746   2.252  1.7704 -0.1389 -0.1269
  512MOL0     H70610   8.456   7.930   2.411  1.0835  0.6968  0.4895
  512MOL0     H70611   8.443   8.021   2.260  0.2767 -0.0958 -0.2417
  512MOL0     H70612   8.211   7.930   2.323  2.1706 -1.7013  4.8304
  512MOL0     H70613   8.276   7.886   2.165  1.7898 -1.3758 -0.3878
  512MOL0     H70614   8.059   7.789   2.185  0.4807 -0.2028 -0.9630
  512MOL0     H70615   7.723   7.625   2.222  1.5357 -0.5542 -1.3952
  512MOL0     H70616   7.821   7.758   2.152  0.6236  1.1174  0.7758
  512MOL0     H70617   7.750   7.767   2.315 -1.9516 -2.8741  2.3327
  512MOL0     H70618   7.617   7.493   2.693 -0.2389  0.4214 -0.5570
  512MOL0     H70619   7.472   7.330   2.782  2.5856  0.0357  0.0635
  512MOL0     H70620   7.377   7.140   2.819  0.9645 -2.0119 -1.1097
  512MOL0     H70621   7.242   7.251   2.781 -2.1563 -1.0660 -0.7423
  512MOL0     H70622   7.207   6.957   2.739 -0.2867  0.1258  0.4708
  512MOL0     H70623   7.181   7.049   2.895 -1.0871  0.2965  0.0601
  512MOL0     H70624   7.014   7.080   2.641  1.9213  1.9424 -1.2249
  512MOL0     H70625   7.014   7.204   2.764  1.9380  1.2445 -2.0133
  512MOL0     H70626   6.953   7.013   2.921 -0.5089  2.5949  0.2912
  512MOL0     H70627   6.924   6.918   2.765  0.7123  0.5077 -0.1661
  512MOL0     H70628   6.781   7.193   2.812 -0.3168  0.1259 -1.6728
  512MOL0     H70629   6.757   7.069   2.689 -1.7895  3.1939  0.1588
  512MOL0     H70630   6.681   7.023   2.980 -0.2233 -1.8382  0.0565
  512MOL0     H70631   6.659   6.918   2.831  4.0139 -1.5741 -0.2491
  512MOL0     H70632   6.530   7.105   2.736 -0.3884 -3.0422  0.3236
  512MOL0     H70633   6.544   7.190   2.885  1.1564  0.9577 -3.2378
  512MOL0     H70634   6.432   6.914   2.916  3.7627  1.9487  1.4445
  512MOL0     H70635   6.344   7.022   2.806 -1.6785  0.8885  1.4388
  512MOL0     H70636   7.379   7.188   2.395 -3.6735  2.2847  0.7071
  512MOL0     H70637   7.535   7.367   2.291 -1.1568  0.7619 -0.5437
  512MOL0     H70638   8.068   7.400   2.494  0.8710 -0.8134 -1.0701
  512MOL0     H70639   8.274   7.501   2.423 -1.5475 -0.8137 -0.0357
  512MOL0     H70640   9.856   7.453   1.399  1.2523 -2.2081  1.3691
  512MOL0     H70641   9.990   7.340   1.213 -0.5495 -0.5728  0.5532
  512MOL0     H70642  10.408   7.423   0.986  0.0936 -1.3583  3.4700
  512MOL0     H70643  10.593   7.382   0.842  1.0557 -0.7530  1.7879
  512MOL0     H70644  10.805   7.281   0.840 -1.2452 -0.3658  1.6552
  512MOL0     H70645  10.787   7.129   0.925 -2.6638  3.4307  1.3386
  512MOL0     H70646  10.997   7.146   0.782  0.4474 -1.5474 -0.3707
  512MOL0     H70647  10.886   7.128   0.645 -2.6771  1.6624  1.2324
  512MOL0     H70648  10.929   6.926   0.870 -1.5316 -1.4111  0.2521
  512MOL0     H70649  10.809   6.912   0.742 -0.9774  1.4357  1.5091
  512MOL0     H70650  11.045   6.794   0.733 -0.4706  0.2116  3.2213
  512MOL0     H70651  11.128   6.952   0.707 -0.5906 -0.1024 -0.6643
  512MOL0     H70652  11.036   6.865   0.331  0.5568 -0.2676  0.5167
  512MOL0     H70653  10.497   6.962   0.888 -0.5694 -0.2305 -2.6155
  512MOL0     H70654  10.383   6.885   1.081  0.2808 -0.8070  1.0050
  512MOL0     H70655  10.272   6.984   1.168  2.5335  0.0760  0.8718
  512MOL0     H70656  10.224   6.946   1.006  0.0154 -0.8149  1.3452
  513MOL0     O70657   7.065   7.286   6.470  0.1451 -0.2197  0.2590
  513MOL0     C70658   6.976   7.346   6.417  0.4672 -0.1646  0.5611
  513MOL0     O70659   6.994   7.459   6.345 -0.2695 -0.3209 -0.1191
  513MOL0     C70660   7.119   7.513   6.323 -0.4243 -0.4494 -0.6755
  513MOL0     C70661   7.168   7.522   6.196 -0.1374 -0.5059  0.2727
  513MOL0     C70662   7.293   7.573   6.162 -0.7036  0.6723 -0.0433
  513MOL0     C70663   7.383   7.587   6.271 -0.1473 -0.7067 -0.2240
  513MOL0     O70664   7.518   7.595   6.241 -0.4142 -0.2027  0.1900
  513MOL0     C70665   7.611   7.623   6.339 -1.3585  0.8643  0.2758
  513MOL0     C70666   7.649   7.495   6.409 -0.1510 -0.4767  0.2766
  513MOL0     C70667   7.751   7.534   6.512 -0.2599 -0.1180 -0.0168
  513MOL0     C70668   7.889   7.535   6.460 -0.4817  0.1406 -0.1702
  513MOL0     C70669   7.997   7.560   6.571  0.6094 -0.7366 -0.7273
  513MOL0     C70670   8.141   7.588   6.526  0.6025  1.0300  0.5958
  513MOL0     C70671   8.202   7.454   6.488  0.6239  0.3013  0.7208
  513MOL0     C70672   8.350   7.458   6.485  0.0869  0.2699 -0.9782
  513MOL0     N70673   8.413   7.493   6.612 -0.0859 -0.1058 -0.3031
  513MOL0     C70674   8.362   7.510   6.738  0.8509 -0.1132  0.6364
  513MOL0     C70675   8.450   7.587   6.806  0.5066  0.0530 -0.3672
  513MOL0     C70676   8.447   7.617   6.952  0.0511  0.1496  0.2526
  513MOL0     C70677   8.488   7.764   6.982  0.8543 -0.1167  0.1633
  513MOL0     C70678   8.369   7.856   6.979 -0.8145  0.0206 -0.0791
  513MOL0     C70679   8.415   8.006   7.003  0.0124 -0.7162  0.3689
  513MOL0     O70680   8.465   8.031   7.129  0.1600 -0.2982  0.3344
  513MOL0     C70681   8.438   8.153   7.188  0.4102  0.6021  0.3073
  513MOL0     C70682   8.425   8.164   7.331  0.7633 -0.2252  0.7685
  513MOL0     C70683   8.420   8.284   7.406  0.6623  0.2639 -0.0595
  513MOL0     C70684   8.382   8.266   7.547  0.2340 -0.2548  0.2371
  513MOL0     C70685   8.424   8.410   7.333  0.6692 -0.3284  0.3913
  513MOL0     C70686   8.426   8.540   7.391  0.3097 -0.5539 -0.2861
  513MOL0     O70687   8.401   8.646   7.301  0.3064  0.8106  0.0537
  513MOL0     C70688   8.449   8.772   7.331  0.0967 -0.1757  0.5101
  513MOL0     C70689   8.392   8.841   7.438  0.2793 -0.1831  0.2148
  513MOL0     C70690   8.447   8.965   7.481 -0.7460 -0.3960 -1.1280
  513MOL0     C70691   8.566   9.013   7.422  0.1925 -1.1231 -0.2782
  513MOL0     O70692   8.626   9.125   7.468 -0.5572  0.6373  0.2615
  513MOL0     C70693   8.655   9.122   7.612 -0.0672  0.2075  0.3046
  513MOL0     C70694   8.697   9.266   7.655  0.0998 -0.1083 -0.3838
  513MOL0     C70695   8.736   9.285   7.807  0.1052  0.2374 -0.2214
  513MOL0     C70696   8.736   9.160   7.894  1.0732 -0.3749 -0.4838
  513MOL0     C70697   8.781   9.210   8.031 -0.1251 -0.0015  0.1127
  513MOL0     C70698   8.802   9.096   8.137  0.0649 -0.4533  0.5232
  513MOL0     C70699   8.916   8.990   8.103 -0.1014 -0.6137  0.5192
  513MOL0     C70700   8.929   8.896   8.225  0.0825  0.4235 -0.1876
  513MOL0    Cl70701   9.006   8.741   8.213  0.1091 -0.0832 -0.6216
  513MOL0     C70702   8.621   8.947   7.308  0.5550 -0.0614 -0.5687
  513MOL0     C70703   8.558   8.832   7.261  0.7691  0.7956 -0.5710
  513MOL0     O70704   8.435   8.556   7.514 -0.3829 -0.0322  0.1854
  513MOL0     C70705   8.420   8.393   7.192  0.1045 -1.1004  0.6159
  513MOL0     C70706   8.423   8.272   7.121 -0.3889 -0.0698  0.1639
  513MOL0     N70707   8.548   7.628   6.718 -0.2460 -0.3160 -0.6949
  513MOL0     N70708   8.523   7.572   6.601 -0.2593 -0.1100 -0.4555
  513MOL0     C70709   7.336   7.583   6.404 -0.9362 -0.6543 -0.3491
  513MOL0     C70710   7.194   7.551   6.433  0.0972 -0.8159 -1.1561
  513MOL0     C70711   6.843   7.285   6.414  0.6695  0.9628 -0.7369
  513MOL0     C70712   6.757   7.333   6.317  0.4548  0.3003 -0.0858
  513MOL0     C70713   6.631   7.280   6.305 -0.2108 -0.2670 -0.0175
  513MOL0     C70714   6.575   7.186   6.388  0.2796 -0.3348 -0.0439
  513MOL0     O70715   6.440   7.153   6.379  0.5265 -0.2249 -0.3021
  513MOL0     C70716   6.386   7.056   6.465  0.3494  0.1098  0.1551
  513MOL0     C70717   6.409   6.912   6.420  0.4736 -1.6435  0.2014
  513MOL0     C70718   6.368   6.795   6.516  0.8983  0.1836  0.1949
  513MOL0     C70719   6.217   6.775   6.511  0.1946 -0.3610 -0.0992
  513MOL0     C70720   6.142   6.857   6.612 -0.1784  0.0026  0.9856
  513MOL0     C70721   6.077   6.935   6.677  0.2591 -0.0558  0.2562
  513MOL0     C70722   6.669   7.128   6.483 -0.6445  0.1668 -0.0292
  513MOL0     C70723   6.804   7.172   6.495  0.0395  0.3544 -0.6593
  513MOL0     C70724   6.889   7.105   6.603 -1.4052 -0.6210 -0.1875
  513MOL0     H70725   7.103   7.491   6.115 -4.3762  1.4473  2.5824
  513MOL0     H70726   7.317   7.565   6.056  1.4621 -0.8283  0.4798
  513MOL0     H70727   7.579   7.697   6.412  2.3548  1.8672  1.1172
  513MOL0     H70728   7.700   7.653   6.283 -1.6239 -0.2975 -0.8110
  513MOL0     H70729   7.563   7.436   6.444 -1.6052  1.6353  0.4473
  513MOL0     H70730   7.699   7.421   6.346 -1.1549 -1.1478  0.2518
  513MOL0     H70731   7.733   7.630   6.560  1.5644 -0.1538  0.8171
  513MOL0     H70732   7.739   7.466   6.597 -1.8560  2.6847  2.1695
  513MOL0     H70733   7.910   7.439   6.411  0.8050 -1.0001  2.4524
  513MOL0     H70734   7.905   7.615   6.386 -0.6348 -1.0671 -1.5601
  513MOL0     H70735   7.999   7.482   6.647 -0.5365  0.7100  0.8657
  513MOL0     H70736   7.967   7.651   6.624 -2.3998  0.1039 -3.5289
  513MOL0     H70737   8.133   7.652   6.437 -3.4003  1.9316  1.4237
  513MOL0     H70738   8.200   7.639   6.603 -0.1501 -0.2202  2.0510
  513MOL0     H70739   8.167   7.435   6.386 -1.1330  1.8362  0.9976
  513MOL0     H70740   8.173   7.376   6.559  0.0731 -0.7953 -0.6592
  513MOL0     H70741   8.383   7.356   6.460  2.2200  1.4447 -3.3547
  513MOL0     H70742   8.390   7.521   6.405 -0.6732  1.7906 -0.2072
  513MOL0     H70743   8.265   7.471   6.768  1.3832 -3.3620 -1.3502
  513MOL0     H70744   8.513   7.542   6.996 -0.9454 -2.1171 -1.8592
  513MOL0     H70745   8.347   7.591   6.990 -0.1452  0.8708  0.2314
  513MOL0     H70746   8.533   7.760   7.082  0.5272 -3.3216  0.3006
  513MOL0     H70747   8.562   7.797   6.909 -0.5137  0.1045 -1.1752
  513MOL0     H70748   8.313   7.840   6.887 -1.9361 -1.5870  0.8318
  513MOL0     H70749   8.310   7.826   7.066  0.7995  0.3408  1.1794
  513MOL0     H70750   8.485   8.051   6.931  1.9259  0.8472  3.0443
  513MOL0     H70751   8.329   8.074   6.994  1.2430  0.8375 -0.1358
  513MOL0     H70752   8.420   8.072   7.388  1.1684  1.4757  3.7237
  513MOL0     H70753   8.468   8.269   7.613  1.3946  0.5489 -1.2673
  513MOL0     H70754   8.337   8.170   7.573  0.3882 -0.6109 -0.7483
  513MOL0     H70755   8.314   8.346   7.576  1.9941  0.7883  1.6593
  513MOL0     H70756   8.303   8.795   7.479 -0.4497 -1.6689 -2.7587
  513MOL0     H70757   8.398   9.025   7.557  4.3371  1.6660  0.9817
  513MOL0     H70758   8.573   9.085   7.674 -1.6478  1.2470 -1.0520
  513MOL0     H70759   8.746   9.063   7.627  1.2485  2.0974  0.2062
  513MOL0     H70760   8.783   9.301   7.597  0.6152 -1.3580 -0.4091
  513MOL0     H70761   8.625   9.346   7.638  0.5156  0.8297  1.8830
  513MOL0     H70762   8.667   9.354   7.858 -1.9288 -1.3158 -0.7278
  513MOL0     H70763   8.839   9.320   7.807  0.2446 -0.1286  1.3996
  513MOL0     H70764   8.793   9.072   7.863  0.1685 -0.8256 -0.8959
  513MOL0     H70765   8.630   9.132   7.901  0.8176 -0.1432 -2.5999
  513MOL0     H70766   8.874   9.264   8.015 -2.0224  3.8996  1.1040
  513MOL0     H70767   8.708   9.275   8.079  0.0545  0.2128  0.0976
  513MOL0     H70768   8.706   9.048   8.158 -0.5272  0.2371 -0.4958
  513MOL0     H70769   8.832   9.148   8.228  0.0797 -0.3815  0.4775
  513MOL0     H70770   9.010   9.037   8.074 -1.7645  2.1607 -0.7178
  513MOL0     H70771   8.882   8.926   8.021 -0.8157  2.8395 -2.1232
  513MOL0     H70772   8.827   8.882   8.263  0.0452 -0.1681 -0.4995
  513MOL0     H70773   8.998   8.940   8.298  2.5597 -0.8929 -1.5775
  513MOL0     H70774   8.707   8.983   7.252 -0.4831 -1.3248 -3.1039
  513MOL0     H70775   8.578   8.780   7.168 -2.5236 -2.8023  0.4747
  513MOL0     H70776   8.410   8.482   7.132 -0.2303 -0.7129  1.2426
  513MOL0     H70777   8.461   8.262   7.020 -0.0278  0.4063  0.2456
  513MOL0     H70778   7.400   7.595   6.492 -1.3733  1.5103 -0.2665
  513MOL0     H70779   7.148   7.544   6.532  2.5904 -2.0617  0.0023
  513MOL0     H70780   6.797   7.412   6.254  0.3017  0.7439  0.3703
  513MOL0     H70781   6.556   7.313   6.234 -1.6221 -0.3934  1.3367
  513MOL0     H70782   6.433   7.067   6.563 -1.6700 -1.4708  1.3948
  513MOL0     H70783   6.279   7.075   6.482  0.2722  2.3081 -2.1876
  513MOL0     H70784   6.518   6.905   6.406  0.9844  2.0175  1.2107
  513MOL0     H70785   6.367   6.890   6.321  3.0692 -2.7853 -0.7435
  513MOL0     H70786   6.422   6.705   6.488 -0.0324 -1.4102  3.0386
  513MOL0     H70787   6.396   6.829   6.617 -2.1112  2.1187  0.5184
  513MOL0     H70788   6.207   6.673   6.550 -0.9446  0.4729  1.9846
  513MOL0     H70789   6.176   6.776   6.410  0.4265  1.8392 -0.2282
  513MOL0     H70790   6.012   7.001   6.730 -0.1243 -0.9788  0.9525
  513MOL0     H70791   6.644   7.042   6.544  1.8715  0.1110  1.0163
  513MOL0     H70792   6.933   7.188   6.660 -1.8340 -0.8884  0.5465
  513MOL0     H70793   6.831   7.046   6.675  1.5050 -1.8189  1.3170
  513MOL0     H70794   6.965   7.039   6.561 -0.3475  1.3564 -1.5477
  514MOL0     O70795   9.488   3.764   9.203 -0.5068 -0.4879 -0.2835
  514MOL0     C70796   9.547   3.859   9.252 -0.2613  0.1938 -0.0078
  514MOL0     O70797   9.643   3.927   9.184 -0.3212 -0.7833 -0.2445
  514MOL0     C70798   9.681   3.888   9.051  0.2079 -0.8593 -0.7665
  514MOL0     C70799   9.676   3.974   8.938  0.5521  0.6309 -1.0289
  514MOL0     C70800   9.723   3.930   8.818  0.0528 -0.6391  0.1368
  514MOL0     C70801   9.802   3.808   8.804 -0.2791  0.0683 -0.9235
  514MOL0     O70802   9.840   3.762   8.684 -0.2354 -0.1760 -0.1388
  514MOL0     C70803   9.890   3.849   8.594 -0.1478  0.0448  0.5423
  514MOL0     C70804   9.994   3.795   8.505 -0.3451  0.5142  0.2695
  514MOL0     C70805  10.046   3.891   8.396 -0.3275 -0.3212  0.3302
  514MOL0     C70806   9.934   3.941   8.297 -0.1512 -0.3694  1.1457
  514MOL0     C70807   9.969   4.081   8.252 -0.1766 -0.0485  0.4940
  514MOL0     C70808   9.858   4.150   8.170  0.3826 -0.0538  0.4134
  514MOL0     C70809   9.889   4.305   8.176  0.3419  1.3015 -0.1381
  514MOL0     C70810  10.020   4.339   8.107 -0.7266 -0.3170 -0.1322
  514MOL0     N70811  10.009   4.308   7.961 -0.2820  0.1393  1.0777
  514MOL0     C70812   9.896   4.324   7.867 -0.2310 -0.2394 -1.0914
  514MOL0     C70813   9.941   4.259   7.758  0.4642 -0.2519 -0.8850
  514MOL0     C70814   9.870   4.257   7.625 -0.4874 -0.0924  0.1115
  514MOL0     C70815   9.934   4.347   7.515 -0.8684  0.3415  0.8040
  514MOL0     C70816   9.838   4.344   7.390 -0.6019 -0.0158  0.1781
  514MOL0     C70817   9.894   4.439   7.284  0.1398  0.2373 -0.3520
  514MOL0     O70818   9.796   4.504   7.207 -0.8149 -0.6291 -0.8378
  514MOL0     C70819   9.837   4.588   7.099 -0.2731  1.0687 -0.5530
  514MOL0     C70820   9.733   4.644   7.022 -0.6838 -0.6546 -0.7242
  514MOL0     C70821   9.766   4.731   6.913  0.1044 -0.3901  0.8866
  514MOL0     C70822   9.643   4.794   6.860 -0.2246  0.2328  0.5769
  514MOL0     C70823   9.899   4.765   6.882  0.0695 -0.1007  0.3768
  514MOL0     C70824   9.928   4.862   6.771 -0.1343  1.3051  0.1036
  514MOL0     O70825  10.050   4.843   6.710  0.1319 -0.0367 -0.1018
  514MOL0     C70826  10.075   4.924   6.607  0.2305  0.1767  0.0345
  514MOL0     C70827  10.117   5.058   6.627  0.1498 -0.0486  0.8428
  514MOL0     C70828  10.146   5.129   6.522  0.2136 -0.1862 -0.0940
  514MOL0     C70829  10.134   5.085   6.396  0.0924 -0.0095 -0.0959
  514MOL0     O70830  10.203   5.161   6.302  0.0976  0.2128  0.0545
  514MOL0     C70831  10.169   5.161   6.160 -0.2038 -0.2571 -0.3369
  514MOL0     C70832  10.021   5.210   6.132 -0.3501  0.2075 -0.0649
  514MOL0     C70833   9.985   5.145   5.997  0.2711  0.6598  1.0008
  514MOL0     C70834   9.859   5.201   5.945 -0.7332  0.4065 -0.1128
  514MOL0     C70835   9.799   5.129   5.828 -0.0421 -0.8306 -0.7442
  514MOL0     C70836   9.654   5.195   5.806 -0.2646 -0.1436 -1.2669
  514MOL0     C70837   9.602   5.145   5.675 -1.0289  0.1154 -0.7272
  514MOL0     C70838   9.471   5.202   5.631 -0.2149  0.5186  0.2152
  514MOL0    Cl70839   9.457   5.385   5.644  0.0305 -0.3954  0.0366
  514MOL0     C70840  10.078   4.959   6.366 -0.0687  0.6465  0.7396
  514MOL0     C70841  10.051   4.878   6.474 -0.2414 -0.1611 -0.2166
  514MOL0     O70842   9.848   4.954   6.747 -0.3699 -0.0742 -0.0221
  514MOL0     C70843  10.003   4.702   6.956 -0.5029 -0.4391  0.3530
  514MOL0     C70844   9.970   4.626   7.061 -0.1747 -0.0484  0.1701
  514MOL0     N70845  10.068   4.198   7.780  0.4405 -0.6758 -0.0284
  514MOL0     N70846  10.108   4.241   7.895 -0.5941 -0.3659 -0.0013
  514MOL0     C70847   9.817   3.733   8.924 -0.0836 -0.1485  0.5235
  514MOL0     C70848   9.762   3.768   9.049  1.2514  0.4369  0.3488
  514MOL0     C70849   9.515   3.917   9.380  1.1627 -0.2974  0.0570
  514MOL0     C70850   9.499   3.828   9.489 -0.3244 -0.7186 -0.5122
  514MOL0     C70851   9.444   3.872   9.611  0.7872  0.2467 -0.1869
  514MOL0     C70852   9.417   4.008   9.625 -0.2889 -0.3474  0.1718
  514MOL0     O70853   9.362   4.043   9.747 -0.0884  0.8461  0.0675
  514MOL0     C70854   9.440   4.063   9.861  0.1276  0.1891 -0.7017
  514MOL0     C70855   9.476   3.934   9.933 -0.2030  1.1816 -0.4064
  514MOL0     C70856   9.521   3.950  10.081  0.5213 -0.8484  1.0819
  514MOL0     C70857   9.431   3.881  10.184 -0.4374 -0.8244  0.2504
  514MOL0     C70858   9.485   3.877  10.321  0.1023  0.6480  0.3018
  514MOL0     C70859   9.521   3.875  10.435 -0.2144 -0.2405  0.0795
  514MOL0     C70860   9.437   4.101   9.522  0.2649  0.0490 -0.4197
  514MOL0     C70861   9.482   4.055   9.396 -0.3002  0.0018 -0.0571
  514MOL0     C70862   9.507   4.162   9.301  0.2698 -0.6250  0.1825
  514MOL0     H70863   9.623   4.068   8.952  0.0646  0.2269 -0.1297
  514MOL0     H70864   9.711   3.990   8.728 -0.1345  2.6532  2.1856
  514MOL0     H70865   9.920   3.946   8.636 -0.8847  0.5261 -0.0198
  514MOL0     H70866   9.800   3.875   8.537 -0.2639 -0.3339  0.5483
  514MOL0     H70867  10.080   3.773   8.569  1.5048 -1.2858 -2.5928
  514MOL0     H70868   9.956   3.701   8.464  0.8459  0.2414 -0.2649
  514MOL0     H70869  10.075   3.982   8.450  1.2501 -0.4304 -0.3024
  514MOL0     H70870  10.126   3.856   8.331 -2.1013 -2.5929 -0.8060
  514MOL0     H70871   9.922   3.883   8.205 -1.0950  1.5234  0.0082
  514MOL0     H70872   9.831   3.935   8.335 -0.2895 -0.7473  0.7313
  514MOL0     H70873  10.052   4.081   8.180  0.4120  1.8116  1.1139
  514MOL0     H70874   9.990   4.146   8.337 -1.4918  2.4738 -1.0018
  514MOL0     H70875   9.853   4.106   8.070 -0.8077 -0.5835  0.6963
  514MOL0     H70876   9.758   4.133   8.210  0.0927 -0.7277 -0.5498
  514MOL0     H70877   9.890   4.340   8.279  3.7859  2.6914 -0.5030
  514MOL0     H70878   9.810   4.353   8.116 -0.1857 -2.2876 -2.6194
  514MOL0     H70879  10.062   4.439   8.121  0.4776 -0.6872 -0.8797
  514MOL0     H70880  10.103   4.272   8.134  1.5460  2.7901  1.2206
  514MOL0     H70881   9.801   4.372   7.890  0.7922  0.2846  2.7213
  514MOL0     H70882   9.767   4.290   7.638 -0.3076  1.0412 -1.1565
  514MOL0     H70883   9.867   4.153   7.590 -0.1970  0.2496 -0.9632
  514MOL0     H70884   9.937   4.450   7.554 -2.8961  0.8490 -0.2216
  514MOL0     H70885  10.034   4.310   7.490 -0.8014  0.0976  1.4283
  514MOL0     H70886   9.827   4.243   7.349  2.1661 -0.4432  0.3268
  514MOL0     H70887   9.738   4.375   7.424 -1.2432 -1.9349  0.1342
  514MOL0     H70888   9.952   4.520   7.330 -0.1162 -0.5503  1.4644
  514MOL0     H70889   9.957   4.373   7.224  0.8436  1.0887 -0.5847
  514MOL0     H70890   9.635   4.611   7.055 -1.1671  0.8856 -0.5524
  514MOL0     H70891   9.643   4.806   6.751  1.1452  0.1092  0.5533
  514MOL0     H70892   9.618   4.888   6.909 -0.6233 -1.4071  3.8039
  514MOL0     H70893   9.558   4.727   6.880 -0.3785 -0.4076 -1.8837
  514MOL0     H70894  10.127   5.107   6.723  0.1726  0.9344  0.3526
  514MOL0     H70895  10.181   5.231   6.535 -1.3023  0.4262 -0.6062
  514MOL0     H70896  10.240   5.233   6.119 -0.1079 -0.1773 -0.0371
  514MOL0     H70897  10.199   5.063   6.121  1.6944 -0.8553  2.3553
  514MOL0     H70898   9.944   5.181   6.203 -1.1548  0.1260 -0.9500
  514MOL0     H70899  10.027   5.318   6.122 -1.7864  0.1760 -1.8897
  514MOL0     H70900   9.973   5.037   6.004  0.3824  0.3521 -2.2037
  514MOL0     H70901  10.066   5.172   5.929 -0.3216  0.7324  0.3084
  514MOL0     H70902   9.871   5.307   5.920  2.1968  0.5384  1.4288
  514MOL0     H70903   9.787   5.189   6.026  0.4462 -3.4586  0.5767
  514MOL0     H70904   9.869   5.145   5.746 -1.8206  1.9396 -1.8810
  514MOL0     H70905   9.788   5.022   5.851  0.1309 -0.5297  0.8542
  514MOL0     H70906   9.655   5.304   5.812 -1.3676 -0.1628 -0.3910
  514MOL0     H70907   9.574   5.177   5.879  0.6494  0.1119 -0.1680
  514MOL0     H70908   9.612   5.036   5.670 -0.1517  0.0957  0.7619
  514MOL0     H70909   9.678   5.173   5.602 -0.1091 -0.3545  0.0163
  514MOL0     H70910   9.387   5.165   5.690 -1.2089 -0.3764 -1.6656
  514MOL0     H70911   9.466   5.158   5.531  2.5128 -5.3110  2.1522
  514MOL0     H70912  10.062   4.922   6.266  2.4637  0.3244  0.3870
  514MOL0     H70913  10.010   4.777   6.470  0.8461 -0.6013 -0.7701
  514MOL0     H70914  10.107   4.727   6.935  0.4739 -1.5850  3.2725
  514MOL0     H70915  10.044   4.586   7.131 -1.3118  0.3777  1.6630
  514MOL0     H70916   9.878   3.645   8.908 -2.4896 -1.7719 -0.2819
  514MOL0     H70917   9.774   3.701   9.135  1.5636 -0.1026 -0.1067
  514MOL0     H70918   9.511   3.722   9.468  0.8644 -1.0045  1.3263
  514MOL0     H70919   9.425   3.800   9.690 -0.0459  1.1090  0.4209
  514MOL0     H70920   9.531   4.103   9.816  0.8209  2.3272  2.2923
  514MOL0     H70921   9.401   4.143   9.925 -2.8024  1.7455 -4.0791
  514MOL0     H70922   9.560   3.893   9.876 -0.8381  1.4725 -1.5876
  514MOL0     H70923   9.400   3.856   9.926 -0.4722  1.3905  0.1330
  514MOL0     H70924   9.627   3.924  10.088  0.4857 -2.0908 -1.6796
  514MOL0     H70925   9.522   4.055  10.109  5.9664  0.2928 -1.8850
  514MOL0     H70926   9.422   3.777  10.153  0.6116 -0.1303 -2.8468
  514MOL0     H70927   9.336   3.935  10.186  0.8094  1.5508 -0.2250
  514MOL0     H70928   9.554   3.881  10.537  1.0264  0.2581 -0.3436
  514MOL0     H70929   9.410   4.206   9.527 -1.4961 -0.2521 -2.3609
  514MOL0     H70930   9.456   4.254   9.332  0.3558 -0.3762 -0.3932
  514MOL0     H70931   9.615   4.181   9.302  0.2846 -0.0364 -2.7190
  514MOL0     H70932   9.484   4.127   9.200 -1.9685 -1.3103  0.8714
  515MOL0     O70933   3.704   3.238   8.143  0.2134 -0.5858 -0.0418
  515MOL0     C70934   3.781   3.318   8.192 -0.2096 -0.3640  0.3309
  515MOL0     O70935   3.877   3.295   8.283 -0.4041  0.3585  0.1156
  515MOL0     C70936   3.870   3.172   8.346  0.2167  0.9833 -0.2720
  515MOL0     C70937   3.783   3.147   8.450  0.3180  0.3368  0.0246
  515MOL0     C70938   3.777   3.016   8.507 -0.2598  0.1524 -0.8180
  515MOL0     C70939   3.859   2.908   8.466 -0.3423  0.5508  1.0974
  515MOL0     O70940   3.853   2.778   8.518  0.2955 -0.1579 -0.3422
  515MOL0     C70941   3.727   2.706   8.522  0.1266  0.0579 -0.3718
  515MOL0     C70942   3.664   2.667   8.390 -0.1931 -0.6648 -0.1795
  515MOL0     C70943   3.608   2.794   8.323 -0.6040 -0.5479 -1.0699
  515MOL0     C70944   3.488   2.779   8.237 -0.3053  0.0800  0.4053
  515MOL0     C70945   3.460   2.905   8.163 -0.2218 -0.7025 -0.5233
  515MOL0     C70946   3.322   2.893   8.090 -0.5387  0.0719  0.2723
  515MOL0     C70947   3.252   3.028   8.045 -0.2910 -0.9478 -0.2913
  515MOL0     C70948   3.315   3.064   7.905  0.1426 -0.3120  0.1367
  515MOL0     N70949   3.269   3.193   7.859  0.4808  0.3874 -0.3208
  515MOL0     C70950   3.135   3.223   7.850 -0.3889 -0.0797  1.3054
  515MOL0     C70951   3.126   3.343   7.789  0.0924 -0.0426  0.4453
  515MOL0     C70952   3.001   3.399   7.745 -0.3274 -1.1294  0.2448
  515MOL0     C70953   2.965   3.529   7.821 -0.0606  0.2157  0.9077
  515MOL0     C70954   2.849   3.599   7.753 -0.3855  0.0314 -0.5655
  515MOL0     C70955   2.902   3.709   7.654  0.2803 -0.1705  0.1170
  515MOL0     O70956   2.991   3.660   7.558 -0.3104 -0.3213 -0.5028
  515MOL0     C70957   2.937   3.597   7.443  0.1427  0.0636 -0.0967
  515MOL0     C70958   2.801   3.571   7.408 -0.0370 -0.0868  0.5433
  515MOL0     C70959   2.768   3.511   7.285 -0.2534 -1.2718 -0.6733
  515MOL0     C70960   2.621   3.497   7.250  0.2110 -1.3215  0.3619
  515MOL0     C70961   2.871   3.478   7.200  1.1344  0.2353  0.2913
  515MOL0     C70962   2.840   3.442   7.062 -1.1633 -0.1230  0.1223
  515MOL0     O70963   2.914   3.507   6.959  0.1467  0.0292 -0.1768
  515MOL0     C70964   2.852   3.629   6.930 -0.2892  0.4772 -0.6413
  515MOL0     C70965   2.945   3.710   6.864 -0.6390 -0.1566 -0.2573
  515MOL0     C70966   2.900   3.840   6.826 -0.4480 -0.0958  0.4269
  515MOL0     C70967   2.760   3.885   6.844 -0.6969  0.2251  0.1229
  515MOL0     O70968   2.718   4.005   6.790 -0.2053  0.0999 -0.3061
  515MOL0     C70969   2.610   4.081   6.843 -0.2088  0.6547  0.6743
  515MOL0     C70970   2.619   4.225   6.792 -0.1876  0.2456 -0.6466
  515MOL0     C70971   2.522   4.314   6.880  0.1735  0.3659 -0.0893
  515MOL0     C70972   2.597   4.353   7.007  0.5262 -0.6323  0.7524
  515MOL0     C70973   2.497   4.429   7.094 -0.2428  0.7101 -0.4811
  515MOL0     C70974   2.550   4.494   7.215  0.0285  0.4945  0.4695
  515MOL0     C70975   2.467   4.601   7.266 -0.2900  0.2734  0.2772
  515MOL0     C70976   2.323   4.566   7.306 -0.8071  0.5037  0.3072
  515MOL0    Cl70977   2.320   4.426   7.426  0.8162  0.2018 -0.2427
  515MOL0     C70978   2.674   3.794   6.898 -0.6360  0.2429 -0.0164
  515MOL0     C70979   2.715   3.662   6.935  0.5364 -0.1066  0.8032
  515MOL0     O70980   2.772   3.338   7.043  0.2629 -0.7634  0.2036
  515MOL0     C70981   3.005   3.512   7.238 -0.3170 -0.0663  1.0556
  515MOL0     C70982   3.041   3.567   7.356  0.4451 -0.1254  0.3143
  515MOL0     N70983   3.251   3.403   7.804 -0.3858 -0.7863 -0.1674
  515MOL0     N70984   3.337   3.311   7.826 -0.4895  0.1938 -0.2822
  515MOL0     C70985   3.945   2.942   8.352  0.5092 -0.2303  0.5252
  515MOL0     C70986   3.959   3.068   8.303  0.2722 -1.0940  0.0744
  515MOL0     C70987   3.767   3.461   8.150  0.6510  0.8344  0.8997
  515MOL0     C70988   3.853   3.561   8.212 -0.4572  0.3520 -0.8464
  515MOL0     C70989   3.845   3.697   8.173 -0.3188  0.4877 -0.1141
  515MOL0     C70990   3.752   3.735   8.076 -0.1106  0.0468  0.9557
  515MOL0     O70991   3.738   3.864   8.032 -0.0319 -0.0289 -0.0771
  515MOL0     C70992   3.864   3.934   8.018  0.1670 -0.3680  0.1989
  515MOL0     C70993   3.834   4.076   7.953 -0.4752 -0.1706 -0.2266
  515MOL0     C70994   3.977   4.145   7.933  0.0840  0.4217  0.0572
  515MOL0     C70995   4.033   4.214   8.064  0.2481 -0.1709  0.2523
  515MOL0     C70996   4.154   4.279   8.020 -0.6187 -0.0463 -0.1083
  515MOL0     C70997   4.236   4.362   7.979  0.3248  0.1211  1.3299
  515MOL0     C70998   3.662   3.638   8.025 -0.2998 -0.6145  0.2261
  515MOL0     C70999   3.662   3.510   8.060  0.7717 -0.0975 -0.0466
  515MOL0     C71000   3.560   3.435   7.985 -0.0124  0.1370  0.4156
  515MOL0     H71001   3.714   3.226   8.477  0.2194  0.5132 -0.7187
  515MOL0     H71002   3.704   2.994   8.584  1.6805 -0.2881  0.9972
  515MOL0     H71003   3.662   2.764   8.588 -1.2459 -3.5684  1.7555
  515MOL0     H71004   3.735   2.605   8.563 -1.5925  0.2563  0.5381
  515MOL0     H71005   3.736   2.622   8.320 -2.5812 -1.6097 -2.1816
  515MOL0     H71006   3.579   2.599   8.402  0.6774 -1.4235  2.4837
  515MOL0     H71007   3.584   2.874   8.393  0.9841  1.4541 -2.7073
  515MOL0     H71008   3.677   2.854   8.263 -2.7064  1.9373 -1.1544
  515MOL0     H71009   3.492   2.693   8.169 -1.1056  1.3680 -1.3609
  515MOL0     H71010   3.407   2.748   8.304 -0.4864  0.3686  0.3189
  515MOL0     H71011   3.532   2.935   8.087  1.0666 -2.0369  0.1306
  515MOL0     H71012   3.452   2.979   8.243 -3.5442 -1.1055 -0.3159
  515MOL0     H71013   3.341   2.830   8.003  2.6347  0.9589  0.1942
  515MOL0     H71014   3.249   2.837   8.148 -0.1527 -1.5012 -0.7043
  515MOL0     H71015   3.275   3.111   8.113 -2.6959  1.5185 -2.2610
  515MOL0     H71016   3.144   3.016   8.042 -0.4211 -0.1742  0.6666
  515MOL0     H71017   3.424   3.071   7.912  0.0568  2.6225 -0.3599
  515MOL0     H71018   3.302   2.981   7.834  2.2924 -0.5173 -0.0963
  515MOL0     H71019   3.054   3.153   7.867  0.3632 -2.7671 -4.1513
  515MOL0     H71020   2.922   3.326   7.766 -1.5811  0.4803  1.4633
  515MOL0     H71021   2.998   3.416   7.637 -2.0441 -2.3381  0.0557
  515MOL0     H71022   2.940   3.514   7.926 -0.3857  2.6662  1.2471
  515MOL0     H71023   3.051   3.597   7.820  0.9000 -0.9195  2.5446
  515MOL0     H71024   2.795   3.525   7.694  0.6671  0.4999 -2.1717
  515MOL0     H71025   2.786   3.649   7.828  0.8660  0.8222 -0.0119
  515MOL0     H71026   2.812   3.744   7.603 -2.4812 -3.3336  2.4046
  515MOL0     H71027   2.938   3.795   7.712 -1.0520  0.8947 -0.5723
  515MOL0     H71028   2.729   3.570   7.489  2.4021 -3.6997  2.9621
  515MOL0     H71029   2.595   3.392   7.232 -0.5689 -1.5693  2.6706
  515MOL0     H71030   2.592   3.564   7.168 -2.1144 -1.8861  0.6284
  515MOL0     H71031   2.557   3.534   7.330  1.6725  3.0391 -0.2486
  515MOL0     H71032   3.044   3.674   6.837 -0.3119  1.2599 -1.0769
  515MOL0     H71033   2.970   3.900   6.770 -1.3242 -0.6773 -1.3542
  515MOL0     H71034   2.510   4.040   6.824 -0.0979  0.0361  1.3644
  515MOL0     H71035   2.613   4.085   6.952 -3.8791 -2.1965  1.0819
  515MOL0     H71036   2.723   4.260   6.791  0.5039 -1.5861  0.7656
  515MOL0     H71037   2.579   4.234   6.691 -0.5036 -0.4786 -0.5911
  515MOL0     H71038   2.422   4.270   6.885 -0.5917  1.5923 -2.9104
  515MOL0     H71039   2.479   4.402   6.833 -2.0080  0.2620  1.5691
  515MOL0     H71040   2.689   4.409   6.991  0.5799 -1.1315 -0.7677
  515MOL0     H71041   2.625   4.261   7.060  2.3653  0.3286  1.5391
  515MOL0     H71042   2.456   4.513   7.036  0.5077  0.4806 -1.3552
  515MOL0     H71043   2.411   4.365   7.113  0.9990 -0.8480  0.0300
  515MOL0     H71044   2.642   4.536   7.175 -0.8759  1.5628 -0.5917
  515MOL0     H71045   2.569   4.411   7.283  2.0496  0.3706 -0.1971
  515MOL0     H71046   2.489   4.689   7.204 -0.1882  1.6010  2.0999
  515MOL0     H71047   2.512   4.617   7.364 -1.0523 -0.5544  0.7768
  515MOL0     H71048   2.268   4.543   7.214 -0.7122  2.2091 -0.2021
  515MOL0     H71049   2.266   4.648   7.351 -0.3480  0.8314  0.2951
  515MOL0     H71050   2.567   3.815   6.901 -0.7314 -0.3125  1.0817
  515MOL0     H71051   2.641   3.599   6.984  1.4999 -0.2384  2.1574
  515MOL0     H71052   3.088   3.512   7.168 -0.0250 -1.6560  1.3524
  515MOL0     H71053   3.137   3.614   7.374 -0.1141  1.0466  0.2769
  515MOL0     H71054   4.011   2.862   8.320  1.3656  0.7363 -0.1570
  515MOL0     H71055   4.027   3.099   8.223 -0.0044  0.0577  0.2651
  515MOL0     H71056   3.917   3.536   8.296 -0.7674  0.7821 -0.4812
  515MOL0     H71057   3.908   3.766   8.228  0.0343 -0.4085  0.6218
  515MOL0     H71058   3.909   3.951   8.116 -1.7437 -2.7696  1.5833
  515MOL0     H71059   3.939   3.881   7.957 -0.7193  0.6190 -1.8418
  515MOL0     H71060   3.777   4.137   8.024  1.6572  1.2842  0.3408
  515MOL0     H71061   3.787   4.065   7.855  0.0194 -1.4545 -0.3438
  515MOL0     H71062   4.048   4.071   7.896  0.3936  1.0338 -0.5941
  515MOL0     H71063   3.974   4.230   7.865 -0.0038  0.4387  0.0823
  515MOL0     H71064   4.046   4.134   8.137  2.0991 -1.1819 -1.0988
  515MOL0     H71065   3.968   4.295   8.098 -0.2911 -0.5565  0.1583
  515MOL0     H71066   4.298   4.444   7.949 -1.1267  0.0947 -2.2698
  515MOL0     H71067   3.585   3.678   7.960 -1.3370 -0.2749  1.6314
  515MOL0     H71068   3.492   3.396   8.061  0.0144  0.7471  0.7590
  515MOL0     H71069   3.498   3.490   7.913  1.0034  1.8688  0.8174
  515MOL0     H71070   3.613   3.354   7.934 -2.2003 -1.2043  0.1152
  516MOL0     O71071   3.527   4.602   4.845  0.1001  0.1589 -0.0409
  516MOL0     C71072   3.409   4.629   4.838  0.4296 -0.4041 -0.8824
  516MOL0     O71073   3.312   4.543   4.828 -0.1082 -0.2696 -0.1178
  516MOL0     C71074   3.342   4.408   4.820 -0.2961  0.5822  0.1154
  516MOL0     C71075   3.384   4.351   4.697  0.7472 -0.3617  0.8173
  516MOL0     C71076   3.404   4.204   4.683  0.2367 -0.2336  0.7243
  516MOL0     C71077   3.378   4.119   4.791  0.0338  0.2406 -0.4858
  516MOL0     O71078   3.377   3.983   4.786  0.1973 -0.8115  0.2719
  516MOL0     C71079   3.324   3.915   4.671  0.2949  0.3979  0.2650
  516MOL0     C71080   3.333   3.760   4.660 -0.2655 -0.2677 -0.0341
  516MOL0     C71081   3.411   3.684   4.765  0.6143 -0.1395 -0.2075
  516MOL0     C71082   3.408   3.527   4.744  0.5087  0.3352  1.0392
  516MOL0     C71083   3.519   3.449   4.829 -0.2034 -0.2148 -0.2804
  516MOL0     C71084   3.493   3.471   4.981  0.5896  0.2171  0.4727
  516MOL0     C71085   3.589   3.376   5.043 -0.6420  0.8141 -0.4846
  516MOL0     C71086   3.598   3.395   5.200 -0.8911  0.6172  0.2665
  516MOL0     N71087   3.685   3.300   5.267  0.1686  0.1702  0.1586
  516MOL0     C71088   3.819   3.291   5.249  0.5114 -0.3648  1.6428
  516MOL0     C71089   3.844   3.168   5.300 -1.5292 -0.7363 -0.6842
  516MOL0     C71090   3.987   3.114   5.322  0.3896  0.2032  0.0583
  516MOL0     C71091   4.094   3.220   5.352 -0.0396  0.5677  0.2244
  516MOL0     C71092   4.232   3.159   5.389 -0.3650  0.8279 -1.0132
  516MOL0     C71093   4.307   3.252   5.492 -0.5363  1.2960  0.6532
  516MOL0     O71094   4.362   3.357   5.416  0.5802  0.1219  0.1762
  516MOL0     C71095   4.451   3.434   5.479  0.2798  0.6289 -1.0543
  516MOL0     C71096   4.420   3.504   5.597  0.2390 -0.5354  0.2888
  516MOL0     C71097   4.526   3.574   5.660  0.0665  1.0482  0.5157
  516MOL0     C71098   4.490   3.623   5.799 -0.2036  1.0074  0.4374
  516MOL0     C71099   4.657   3.588   5.611 -0.0494 -0.0248  0.2971
  516MOL0     C71100   4.766   3.666   5.677  0.0262 -0.5615  0.7424
  516MOL0     O71101   4.858   3.729   5.602  0.2080 -0.0460  0.6218
  516MOL0     C71102   4.931   3.826   5.665  0.0634 -0.9320  0.4216
  516MOL0     C71103   5.069   3.836   5.633  0.9950  0.3165 -0.3525
  516MOL0     C71104   5.155   3.937   5.674  1.1921  0.4254  0.0796
  516MOL0     C71105   5.097   4.041   5.750 -0.1896 -0.2271 -0.1532
  516MOL0     O71106   5.180   4.141   5.803 -0.5837 -0.0299  0.3088
  516MOL0     C71107   5.184   4.111   5.944 -0.4713 -0.8594 -1.0336
  516MOL0     C71108   5.228   4.238   6.030 -0.0741  0.5803  0.7495
  516MOL0     C71109   5.379   4.276   5.990 -0.0914 -0.1556  0.4080
  516MOL0     C71110   5.471   4.217   6.101  0.7968 -0.0015  1.3840
  516MOL0     C71111   5.619   4.231   6.079  0.6337 -0.4588  0.4561
  516MOL0     C71112   5.662   4.285   5.945 -0.0013  1.0293  1.3958
  516MOL0     C71113   5.810   4.278   5.934  0.1656 -0.9950 -0.6844
  516MOL0     C71114   5.858   4.340   5.800 -1.2610  0.4108 -0.2436
  516MOL0    Cl71115   6.037   4.352   5.782 -0.2566  0.3185  0.3893
  516MOL0     C71116   4.961   4.035   5.780 -0.0048 -0.1673 -0.2115
  516MOL0     C71117   4.886   3.928   5.749  0.0175  0.1931 -0.2512
  516MOL0     O71118   4.774   3.647   5.798 -0.3220 -0.6927  0.3771
  516MOL0     C71119   4.680   3.517   5.484 -0.2247  0.3719 -0.3908
  516MOL0     C71120   4.579   3.443   5.417 -0.4787  0.0025 -0.2519
  516MOL0     N71121   3.728   3.103   5.337  0.0282 -0.2888 -0.0665
  516MOL0     N71122   3.633   3.184   5.313 -0.0617 -0.9122 -0.5455
  516MOL0     C71123   3.344   4.180   4.912  0.4258  0.1271  0.2737
  516MOL0     C71124   3.324   4.321   4.925 -0.5193 -0.0615 -0.1927
  516MOL0     C71125   3.364   4.767   4.831 -0.5279  0.6478  0.3452
  516MOL0     C71126   3.230   4.807   4.854 -0.6853 -0.3638 -0.3692
  516MOL0     C71127   3.186   4.944   4.847  0.7837  0.2666  0.3224
  516MOL0     C71128   3.278   5.047   4.828 -1.1278  0.6820  0.0691
  516MOL0     O71129   3.263   5.179   4.847 -0.5205 -0.5760 -0.2950
  516MOL0     C71130   3.127   5.225   4.824 -1.1044  0.0544  0.2319
  516MOL0     C71131   3.080   5.199   4.683  0.1045  1.0125  0.4516
  516MOL0     C71132   3.158   5.280   4.586 -0.8228  0.3742 -0.6515
  516MOL0     C71133   3.082   5.302   4.451  0.2531  0.2553  0.1004
  516MOL0     C71134   3.040   5.170   4.382 -0.2695  0.5676  0.6350
  516MOL0     C71135   3.013   5.060   4.342 -0.0637  0.2787  0.3293
  516MOL0     C71136   3.416   5.008   4.816  0.4031 -1.0616 -0.3012
  516MOL0     C71137   3.458   4.876   4.810  0.1988 -0.4650  1.0340
  516MOL0     C71138   3.611   4.862   4.799 -0.0182 -0.2061  0.3897
  516MOL0     H71139   3.399   4.417   4.613  0.1957 -1.6450 -0.3372
  516MOL0     H71140   3.421   4.147   4.592 -2.3156 -2.2792  1.4210
  516MOL0     H71141   3.357   3.956   4.576  0.0414 -4.3000 -2.1442
  516MOL0     H71142   3.216   3.931   4.668  0.1405 -0.7845 -1.4477
  516MOL0     H71143   3.231   3.722   4.669 -0.2425 -0.6786 -1.2791
  516MOL0     H71144   3.375   3.743   4.560 -1.2460  0.7870 -0.6515
  516MOL0     H71145   3.515   3.719   4.760  1.1530 -1.8085 -1.7299
  516MOL0     H71146   3.370   3.704   4.864 -0.9266 -0.9168 -0.6591
  516MOL0     H71147   3.311   3.481   4.767  2.2283 -3.5165  1.4247
  516MOL0     H71148   3.438   3.510   4.640  0.2700  1.6884  0.7379
  516MOL0     H71149   3.616   3.487   4.795 -0.4782 -0.2937 -1.1694
  516MOL0     H71150   3.512   3.344   4.798  0.6140 -0.8660  1.5878
  516MOL0     H71151   3.501   3.573   5.022 -2.5166  0.9290 -0.4668
  516MOL0     H71152   3.392   3.435   4.998  1.0754 -0.1541  3.0755
  516MOL0     H71153   3.688   3.389   4.998 -0.3721 -1.0474 -0.4897
  516MOL0     H71154   3.560   3.272   5.029  2.4457 -0.0410 -1.4588
  516MOL0     H71155   3.617   3.499   5.229  0.6976  0.1541  1.0204
  516MOL0     H71156   3.500   3.372   5.242 -0.6584  0.2045  0.5974
  516MOL0     H71157   3.885   3.368   5.209 -0.3443  0.0244  0.9679
  516MOL0     H71158   4.015   3.076   5.223  0.8784  2.1769 -0.6204
  516MOL0     H71159   3.986   3.034   5.396  0.1566 -1.7370 -1.9306
  516MOL0     H71160   4.112   3.289   5.269  3.5694  1.3025  1.4351
  516MOL0     H71161   4.050   3.285   5.429 -1.9718  0.0912 -0.4357
  516MOL0     H71162   4.216   3.062   5.438  3.0360  1.5127  1.9418
  516MOL0     H71163   4.292   3.133   5.301 -1.4540 -0.8517 -1.3116
  516MOL0     H71164   4.243   3.289   5.573 -1.1054 -0.5456  1.0949
  516MOL0     H71165   4.386   3.189   5.534 -0.0106  1.9504  0.6592
  516MOL0     H71166   4.322   3.502   5.645 -0.6040  3.4418 -0.9015
  516MOL0     H71167   4.567   3.597   5.872  0.5752  1.6238 -0.1574
  516MOL0     H71168   4.395   3.575   5.825 -2.1852  3.1461 -2.2937
  516MOL0     H71169   4.475   3.731   5.794 -3.1693  0.5990 -2.3828
  516MOL0     H71170   5.105   3.757   5.567 -1.3581 -0.9124 -0.2717
  516MOL0     H71171   5.263   3.933   5.675  1.1870 -2.1931 -1.5879
  516MOL0     H71172   5.084   4.083   5.979 -0.4008  1.0163  0.8232
  516MOL0     H71173   5.251   4.026   5.960  1.7407  1.0027  0.2734
  516MOL0     H71174   5.168   4.324   6.000 -2.0609 -0.5477  1.3232
  516MOL0     H71175   5.224   4.225   6.139  1.3136  1.1043  0.8899
  516MOL0     H71176   5.398   4.383   5.975 -0.0755 -0.5607 -3.5665
  516MOL0     H71177   5.388   4.244   5.886  2.6545  2.0613 -0.1813
  516MOL0     H71178   5.446   4.110   6.101 -0.4664  0.1008 -2.9251
  516MOL0     H71179   5.448   4.278   6.188  1.2736  2.2864 -0.0278
  516MOL0     H71180   5.660   4.302   6.151  0.0680  0.9628 -0.5683
  516MOL0     H71181   5.654   4.130   6.101  1.0189 -0.5134 -0.3672
  516MOL0     H71182   5.635   4.391   5.940 -0.2427  0.9513  1.0702
  516MOL0     H71183   5.609   4.246   5.858 -0.5780 -0.9425  2.5546
  516MOL0     H71184   5.846   4.176   5.953  1.9171 -0.5279 -1.2957
  516MOL0     H71185   5.861   4.342   6.007 -1.8221  1.6009 -1.4023
  516MOL0     H71186   5.822   4.443   5.799  1.4468  1.4553  0.8883
  516MOL0     H71187   5.815   4.286   5.715 -0.8743 -3.3111  1.7341
  516MOL0     H71188   4.924   4.124   5.830  0.2941  0.9433 -1.8713
  516MOL0     H71189   4.785   3.919   5.789  0.1213 -0.7984 -0.2047
  516MOL0     H71190   4.778   3.506   5.438 -0.9607  1.5174 -2.4093
  516MOL0     H71191   4.599   3.395   5.321  2.7730 -0.4981  0.5353
  516MOL0     H71192   3.335   4.122   5.003  0.9564 -4.1292 -2.1531
  516MOL0     H71193   3.289   4.380   5.009 -2.0441  0.4755 -1.1680
  516MOL0     H71194   3.161   4.726   4.873  3.2327 -4.0216 -0.3216
  516MOL0     H71195   3.078   4.953   4.862  0.3410 -1.4234 -1.4191
  516MOL0     H71196   3.047   5.187   4.889 -1.6755  1.6247  0.4804
  516MOL0     H71197   3.109   5.330   4.847 -1.7109 -0.4653  2.3036
  516MOL0     H71198   2.973   5.221   4.679 -0.0067  0.6270  1.2623
  516MOL0     H71199   3.095   5.096   4.651 -0.5725  0.0092  3.1682
  516MOL0     H71200   3.167   5.383   4.622 -3.1935  1.1465 -2.0410
  516MOL0     H71201   3.257   5.236   4.569  0.1434  2.2495 -0.1579
  516MOL0     H71202   3.158   5.347   4.387 -1.3370  0.3679 -1.8125
  516MOL0     H71203   2.996   5.369   4.463 -1.4653 -1.5343 -1.5270
  516MOL0     H71204   2.993   4.963   4.299 -0.4376  1.2866 -1.9253
  516MOL0     H71205   3.487   5.090   4.813  1.1685 -1.7255 -1.1540
  516MOL0     H71206   3.634   4.783   4.727 -2.1109  1.3216 -2.1705
  516MOL0     H71207   3.660   4.953   4.763  0.7114 -1.1303 -1.0224
  516MOL0     H71208   3.644   4.839   4.900 -0.4377  1.5779  0.9752
  517MOL0     O71209   7.557   3.549   0.246  0.3585  1.2629 -0.5725
  517MOL0     C71210   7.614   3.537   0.354 -1.2307 -0.0979 -0.5280
  517MOL0     O71211   7.649   3.635   0.442  0.4281  0.1897  0.8431
  517MOL0     C71212   7.662   3.766   0.411 -0.0539 -0.7364  0.9223
  517MOL0     C71213   7.622   3.829   0.293 -0.5147 -0.1958 -0.6960
  517MOL0     C71214   7.633   3.966   0.273 -0.1529 -0.2735 -0.1754
  517MOL0     C71215   7.688   4.049   0.368 -0.2221  0.6182  0.2757
  517MOL0     O71216   7.694   4.180   0.329  0.0370 -0.8352 -0.2489
  517MOL0     C71217   7.796   4.266   0.381  0.0227  0.3174 -0.5157
  517MOL0     C71218   7.798   4.403   0.330  0.3687  0.1741 -0.1686
  517MOL0     C71219   7.827   4.409   0.180 -0.2227 -0.7954  0.3585
  517MOL0     C71220   7.967   4.396   0.136 -0.2910 -0.4739 -0.5603
  517MOL0     C71221   7.980   4.367  -0.013  0.1191 -0.4216 -0.3688
  517MOL0     C71222   8.126   4.385  -0.069  0.3618 -1.0531  0.9712
  517MOL0     C71223   8.252   4.372   0.023 -0.1674  0.3094 -0.7268
  517MOL0     C71224   8.384   4.357  -0.060 -0.1931  0.7295 -0.3039
  517MOL0     N71225   8.417   4.479  -0.131  0.0880 -0.4711 -0.4270
  517MOL0     C71226   8.481   4.584  -0.066  0.5924  0.7868 -0.3513
  517MOL0     C71227   8.446   4.684  -0.153  0.6924 -1.6028  0.1992
  517MOL0     C71228   8.470   4.828  -0.135 -0.7160 -0.4023 -0.4693
  517MOL0     C71229   8.563   4.875  -0.243 -0.4470  0.6869 -0.1535
  517MOL0     C71230   8.593   5.027  -0.235  0.8694 -0.8344 -0.1949
  517MOL0     C71231   8.680   5.075  -0.346  0.4790  0.1572  0.0597
  517MOL0     O71232   8.702   5.212  -0.337 -0.4015 -0.5363  0.3119
  517MOL0     C71233   8.833   5.245  -0.337  0.5646  0.2897  0.0349
  517MOL0     C71234   8.873   5.342  -0.426 -0.9139 -0.2922 -0.1517
  517MOL0     C71235   9.005   5.400  -0.420 -0.0864 -0.3397 -0.7374
  517MOL0     C71236   9.028   5.523  -0.503  0.0252  0.5382 -0.3402
  517MOL0     C71237   9.096   5.357  -0.322  0.6289  0.1404 -0.1830
  517MOL0     C71238   9.241   5.399  -0.318 -0.4430 -0.2681 -0.3169
  517MOL0     O71239   9.293   5.489  -0.409  0.6214 -0.4778  0.8953
  517MOL0     C71240   9.428   5.506  -0.411  0.9364  0.4027 -0.7018
  517MOL0     C71241   9.518   5.532  -0.305 -0.0925  0.9458 -0.2356
  517MOL0     C71242   9.653   5.542  -0.328 -0.6209  0.1906 -0.0706
  517MOL0     C71243   9.704   5.511  -0.453  0.2538 -0.5273 -0.3249
  517MOL0     O71244   9.842   5.529  -0.463  0.4069 -0.0274  0.4461
  517MOL0     C71245   9.910   5.543  -0.593  0.2405 -0.0996  0.2035
  517MOL0     C71246  10.055   5.602  -0.583  0.2157  0.3302  0.9487
  517MOL0     C71247  10.153   5.522  -0.500 -0.7017  0.5278 -1.3064
  517MOL0     C71248  10.299   5.566  -0.532 -0.2836  0.5833  0.3470
  517MOL0     C71249  10.409   5.485  -0.459 -0.4678 -0.0739  0.4681
  517MOL0     C71250  10.429   5.517  -0.313 -0.3151  0.2322 -0.2998
  517MOL0     C71251  10.572   5.492  -0.259  0.1760 -0.4589  0.7186
  517MOL0     C71252  10.588   5.557  -0.117  0.3700  0.6592  0.3384
  517MOL0    Cl71253  10.564   5.734  -0.122 -0.0894  0.4476 -0.0608
  517MOL0     C71254   9.615   5.486  -0.559 -0.3529  0.7651 -0.2831
  517MOL0     C71255   9.478   5.486  -0.540 -0.5954  0.3220 -0.6248
  517MOL0     O71256   9.310   5.343  -0.234  0.0156  0.7939  0.0206
  517MOL0     C71257   9.051   5.257  -0.230 -1.2202  0.1317 -0.4735
  517MOL0     C71258   8.926   5.196  -0.242 -0.2180 -0.3937 -0.3640
  517MOL0     N71259   8.375   4.638  -0.264 -0.4170 -0.3802  0.0562
  517MOL0     N71260   8.352   4.519  -0.241  0.6220  0.0990 -0.8100
  517MOL0     C71261   7.726   3.992   0.488 -0.1275  0.1203  0.3125
  517MOL0     C71262   7.720   3.849   0.499  0.3713  0.5754 -0.4355
  517MOL0     C71263   7.639   3.401   0.409  0.5120 -0.2693  0.1883
  517MOL0     C71264   7.557   3.301   0.345  0.5341 -0.0890  0.2315
  517MOL0     C71265   7.562   3.169   0.385  0.2769  0.6662  0.3568
  517MOL0     C71266   7.660   3.118   0.474  0.9638 -0.1356  0.2418
  517MOL0     O71267   7.657   2.987   0.508 -0.4079 -0.1248  0.1181
  517MOL0     C71268   7.675   2.885   0.402  0.4841 -0.1657 -2.4689
  517MOL0     C71269   7.778   2.778   0.436  0.5248 -1.1684 -0.9494
  517MOL0     C71270   7.713   2.647   0.397  0.0920  0.2565  0.1782
  517MOL0     C71271   7.685   2.560   0.529 -0.1216 -0.3315  0.7091
  517MOL0     C71272   7.581   2.619   0.623 -0.4821 -0.4872  1.0344
  517MOL0     C71273   7.524   2.670   0.716  0.4261  0.2976 -0.2247
  517MOL0     C71274   7.740   3.218   0.538 -0.3668 -0.3251 -0.8145
  517MOL0     C71275   7.729   3.357   0.508 -0.4476  0.1774  0.5681
  517MOL0     C71276   7.816   3.456   0.584 -0.2590  0.1933 -0.7763
  517MOL0     H71277   7.579   3.770   0.213 -2.3686 -1.4128  1.0820
  517MOL0     H71278   7.611   4.012   0.177 -0.4037  0.1932  0.1033
  517MOL0     H71279   7.893   4.216   0.372 -0.2974 -0.1502 -1.5015
  517MOL0     H71280   7.780   4.269   0.490  2.8271  1.9797 -0.0646
  517MOL0     H71281   7.700   4.448   0.345  0.3155  0.3368 -0.9475
  517MOL0     H71282   7.877   4.453   0.386  0.4894 -0.7519  0.5078
  517MOL0     H71283   7.768   4.329   0.136  0.6451 -1.0711 -0.3190
  517MOL0     H71284   7.783   4.502   0.141  0.8474 -0.7179 -0.7582
  517MOL0     H71285   8.025   4.486   0.158 -0.1980  0.4158 -3.8778
  517MOL0     H71286   8.004   4.305   0.184  0.9964  1.0165  1.4065
  517MOL0     H71287   7.914   4.438  -0.063  0.0002 -1.7574 -2.2086
  517MOL0     H71288   7.946   4.266  -0.038 -0.3449 -0.1737 -0.7453
  517MOL0     H71289   8.129   4.311  -0.149 -3.6931  0.3465 -0.7561
  517MOL0     H71290   8.127   4.483  -0.118  0.1324 -0.7231  1.6152
  517MOL0     H71291   8.241   4.284   0.087 -0.6712  0.5090 -0.5360
  517MOL0     H71292   8.263   4.457   0.091 -1.2890  0.5593 -0.8439
  517MOL0     H71293   8.461   4.324   0.010 -0.3996  0.9026  0.0098
  517MOL0     H71294   8.389   4.272  -0.128  1.6904 -1.0981  1.9280
  517MOL0     H71295   8.527   4.597   0.031  0.3188 -1.5691  0.1595
  517MOL0     H71296   8.515   4.848  -0.037  0.0467 -2.0371 -0.4581
  517MOL0     H71297   8.373   4.878  -0.132 -0.2543  0.4796  1.3047
  517MOL0     H71298   8.658   4.821  -0.245 -0.2093  1.1120 -1.2083
  517MOL0     H71299   8.517   4.856  -0.341  0.7088  1.9985 -1.0043
  517MOL0     H71300   8.499   5.083  -0.236  2.3795  1.8982 -0.9553
  517MOL0     H71301   8.637   5.045  -0.136 -0.7882 -1.0927  0.6237
  517MOL0     H71302   8.768   5.011  -0.356  1.0617  0.7653  1.1405
  517MOL0     H71303   8.619   5.054  -0.435 -0.6159  0.0617  0.8128
  517MOL0     H71304   8.809   5.375  -0.507 -2.0622  1.7332  1.4744
  517MOL0     H71305   9.057   5.602  -0.432 -2.7772 -0.1064  1.6726
  517MOL0     H71306   8.930   5.555  -0.538 -0.4723  0.4641  0.9221
  517MOL0     H71307   9.102   5.513  -0.583 -1.6412 -1.9941 -1.6808
  517MOL0     H71308   9.474   5.551  -0.207  1.5388 -0.6301  0.8729
  517MOL0     H71309   9.728   5.566  -0.254  0.2118  2.5144 -1.5496
  517MOL0     H71310   9.907   5.448  -0.648 -1.2742 -0.4211  0.7800
  517MOL0     H71311   9.848   5.610  -0.653  2.4597  3.7452  1.8015
  517MOL0     H71312  10.100   5.605  -0.682 -1.5498 -0.7539  0.0641
  517MOL0     H71313  10.039   5.702  -0.540  0.1595 -0.8125  3.8279
  517MOL0     H71314  10.148   5.413  -0.513 -0.8144  0.2594  0.6751
  517MOL0     H71315  10.135   5.548  -0.396  0.8655 -0.2743 -0.7977
  517MOL0     H71316  10.323   5.672  -0.519  0.2255  0.9038 -2.4617
  517MOL0     H71317  10.310   5.559  -0.641  3.1816 -0.9963  0.6604
  517MOL0     H71318  10.379   5.380  -0.459  4.0831 -1.5771  0.0293
  517MOL0     H71319  10.501   5.497  -0.517 -0.7871  0.6280  0.0980
  517MOL0     H71320  10.357   5.455  -0.259  0.5250 -1.5626 -1.1604
  517MOL0     H71321  10.413   5.624  -0.294 -0.9649  0.3410 -1.3820
  517MOL0     H71322  10.647   5.540  -0.323 -1.3779  4.1776  1.9457
  517MOL0     H71323  10.595   5.385  -0.254  2.1325 -0.0753  0.6414
  517MOL0     H71324  10.685   5.537  -0.069 -0.2133 -2.3735  0.4176
  517MOL0     H71325  10.513   5.514  -0.050 -1.1028  0.9932 -1.0396
  517MOL0     H71326   9.648   5.470  -0.661 -3.6343  1.7651 -1.6289
  517MOL0     H71327   9.410   5.470  -0.623 -1.1763 -0.4247 -0.0240
  517MOL0     H71328   9.105   5.221  -0.142 -1.4300  4.5321  1.7188
  517MOL0     H71329   8.905   5.116  -0.171 -1.9709  1.2776  1.1093
  517MOL0     H71330   7.766   4.051   0.569 -0.9902 -1.6283  2.0953
  517MOL0     H71331   7.755   3.810   0.594  1.1180  0.8121 -0.6112
  517MOL0     H71332   7.485   3.333   0.270 -0.7362 -1.3601  0.8713
  517MOL0     H71333   7.491   3.098   0.343 -0.0313  1.1869 -0.0133
  517MOL0     H71334   7.571   2.851   0.396 -1.4562  4.0124  1.5911
  517MOL0     H71335   7.706   2.928   0.307 -0.2668  2.6148 -1.5753
  517MOL0     H71336   7.788   2.783   0.545 -1.3735 -0.8829 -0.7586
  517MOL0     H71337   7.877   2.799   0.396  0.8159  2.3371  1.1519
  517MOL0     H71338   7.620   2.659   0.340  0.1036  0.2892  0.1663
  517MOL0     H71339   7.777   2.585   0.333 -0.2921  0.7357 -0.6925
  517MOL0     H71340   7.776   2.571   0.588 -0.2673  3.0004  0.4806
  517MOL0     H71341   7.677   2.452   0.513  3.2989 -0.8536  1.7687
  517MOL0     H71342   7.473   2.705   0.803 -2.8471  2.5726 -2.8046
  517MOL0     H71343   7.817   3.185   0.608 -0.3023  3.6184  1.2727
  517MOL0     H71344   7.764   3.514   0.660  0.5291  2.3292 -1.8088
  517MOL0     H71345   7.895   3.404   0.639  0.6443  1.1359 -1.1633
  517MOL0     H71346   7.863   3.534   0.524 -1.7607  2.0907  0.3728
  518MOL0     O71347   4.261   5.286   1.498 -0.4855  1.0094  0.1374
  518MOL0     C71348   4.289   5.282   1.617 -0.8694  0.0860  0.4517
  518MOL0     O71349   4.395   5.208   1.668  0.0797 -0.1121 -0.6838
  518MOL0     C71350   4.508   5.205   1.588  0.1670 -0.0371 -0.8319
  518MOL0     C71351   4.600   5.105   1.611 -0.1437  0.1199  0.1885
  518MOL0     C71352   4.720   5.089   1.533 -0.5058 -0.0654  0.4728
  518MOL0     C71353   4.741   5.179   1.425 -0.8176  0.7905 -0.3306
  518MOL0     O71354   4.849   5.177   1.337  0.7196 -0.3010 -0.2835
  518MOL0     C71355   4.962   5.100   1.381  0.2183  0.5984 -0.6602
  518MOL0     C71356   5.065   5.102   1.265 -0.0601 -0.3978  1.3367
  518MOL0     C71357   5.058   4.982   1.170  0.7134  0.0691  0.5811
  518MOL0     C71358   5.186   4.966   1.104 -0.7607 -0.9962 -0.0725
  518MOL0     C71359   5.178   4.879   0.977  0.7351 -0.0621 -0.2449
  518MOL0     C71360   5.240   4.741   0.995 -0.1615  0.0727 -0.4767
  518MOL0     C71361   5.255   4.659   0.863 -0.3652  0.0781 -0.0529
  518MOL0     C71362   5.389   4.710   0.804 -0.2149 -0.2703  0.1445
  518MOL0     N71363   5.418   4.646   0.673 -0.5613  0.4340  0.1717
  518MOL0     C71364   5.368   4.676   0.553  0.3620 -1.0645 -0.0582
  518MOL0     C71365   5.417   4.578   0.473 -0.0269 -0.8470  0.0662
  518MOL0     C71366   5.379   4.551   0.322  0.6383  0.0514 -1.0083
  518MOL0     C71367   5.457   4.430   0.251 -0.2913  0.0416  0.4891
  518MOL0     C71368   5.416   4.404   0.103 -0.4188  0.2556  1.2050
  518MOL0     C71369   5.503   4.301   0.032  0.4540  0.8605  0.1187
  518MOL0     O71370   5.494   4.178   0.099  0.2179  0.4145 -0.3194
  518MOL0     C71371   5.394   4.083   0.061 -0.1229  0.0721  0.4220
  518MOL0     C71372   5.412   3.954   0.104 -0.8142 -0.3929  0.1420
  518MOL0     C71373   5.321   3.850   0.083 -0.0759 -0.2441 -0.9775
  518MOL0     C71374   5.364   3.711   0.123  0.3133 -1.0749 -0.0842
  518MOL0     C71375   5.198   3.880   0.033 -0.2130  0.3901  0.3400
  518MOL0     C71376   5.086   3.784   0.011  0.2587 -0.2234 -0.0899
  518MOL0     O71377   4.987   3.834  -0.071  0.3961 -0.8464 -0.7502
  518MOL0     C71378   4.879   3.749  -0.097  0.3498 -0.0087  0.2951
  518MOL0     C71379   4.786   3.724  -0.001  0.2967  0.2742 -0.8353
  518MOL0     C71380   4.673   3.645  -0.034  0.3081 -1.0154  0.7963
  518MOL0     C71381   4.679   3.569  -0.151 -0.0289  0.5816  0.2351
  518MOL0     O71382   4.591   3.464  -0.168  1.6689  0.6046 -0.5365
  518MOL0     C71383   4.450   3.492  -0.196  0.5386 -0.1468  0.2501
  518MOL0     C71384   4.377   3.488  -0.058  0.5184 -0.3897  0.1158
  518MOL0     C71385   4.226   3.539  -0.078  0.0121 -0.1885 -0.3876
  518MOL0     C71386   4.143   3.538   0.057 -1.0792  0.2317  0.4149
  518MOL0     C71387   3.992   3.578   0.038 -0.7308 -1.0219 -0.5518
  518MOL0     C71388   3.884   3.490   0.111 -0.1990  0.0169 -0.2572
  518MOL0     C71389   3.755   3.566   0.082  0.8313  0.6617 -0.7418
  518MOL0     C71390   3.640   3.475   0.153  0.7144  0.0269  1.1620
  518MOL0    Cl71391   3.483   3.568   0.147 -0.1826  0.0255 -0.0060
  518MOL0     C71392   4.772   3.593  -0.252 -0.0028 -0.0631 -0.8197
  518MOL0     C71393   4.865   3.696  -0.228  0.5560  1.0342 -0.2962
  518MOL0     O71394   5.095   3.668   0.052 -0.4823  0.2222 -0.2193
  518MOL0     C71395   5.193   4.009  -0.035  0.3579 -0.0359  0.5350
  518MOL0     C71396   5.286   4.108  -0.018 -0.0421 -0.1591  0.4030
  518MOL0     N71397   5.488   4.490   0.541  0.0123 -0.0297  0.2912
  518MOL0     N71398   5.484   4.526   0.663 -0.6598 -0.0967 -0.2976
  518MOL0     C71399   4.650   5.276   1.401  0.0471 -0.2014  0.0019
  518MOL0     C71400   4.539   5.289   1.480  0.4452 -0.1860 -0.9492
  518MOL0     C71401   4.191   5.337   1.720  0.0060  0.8020 -0.3945
  518MOL0     C71402   4.240   5.358   1.850 -0.8135 -0.0257 -0.9991
  518MOL0     C71403   4.166   5.418   1.952  0.4941  0.3733  0.2385
  518MOL0     C71404   4.037   5.460   1.933  0.4671 -0.8359  0.8067
  518MOL0     O71405   3.948   5.520   2.024  0.4886 -0.1005 -0.0023
  518MOL0     C71406   4.006   5.588   2.138 -0.6114 -0.4603 -0.0484
  518MOL0     C71407   3.996   5.494   2.260 -0.0627  0.1879 -0.7219
  518MOL0     C71408   4.056   5.563   2.381  0.1618  0.3082 -0.4014
  518MOL0     C71409   4.047   5.472   2.510  0.4774  0.2566  0.0439
  518MOL0     C71410   4.084   5.555   2.625 -0.1207 -0.3549 -0.0135
  518MOL0     C71411   4.107   5.624   2.725  0.2597  0.0185  0.7660
  518MOL0     C71412   3.973   5.433   1.811 -0.2208 -0.2496  0.3192
  518MOL0     C71413   4.057   5.383   1.705  0.3105 -0.1597 -0.1770
  518MOL0     C71414   3.999   5.387   1.568  0.1347 -0.9230 -0.0725
  518MOL0     H71415   4.590   5.039   1.696  0.1233  0.9995  0.9120
  518MOL0     H71416   4.786   5.008   1.560 -1.9299 -0.3055  3.6959
  518MOL0     H71417   4.942   4.993   1.395 -3.6222  0.9177 -2.5601
  518MOL0     H71418   5.007   5.142   1.471  2.2233  1.3326 -1.9163
  518MOL0     H71419   5.059   5.196   1.211 -2.0537 -0.8548  0.6736
  518MOL0     H71420   5.164   5.101   1.311 -0.1388  2.1274  1.6610
  518MOL0     H71421   5.024   4.889   1.216 -1.4785 -0.4849 -1.8684
  518MOL0     H71422   4.978   4.997   1.096  2.1663 -2.9627 -1.8556
  518MOL0     H71423   5.220   5.062   1.065  1.4323 -0.5061  2.7582
  518MOL0     H71424   5.263   4.926   1.170 -1.5886 -3.0629 -0.2629
  518MOL0     H71425   5.218   4.926   0.887  1.1058 -0.4163 -0.2708
  518MOL0     H71426   5.075   4.858   0.947  0.4605 -0.8162  1.1426
  518MOL0     H71427   5.335   4.746   1.049 -0.9897 -2.1724  1.3285
  518MOL0     H71428   5.172   4.686   1.060  1.1378  1.5599  2.3054
  518MOL0     H71429   5.169   4.659   0.795  0.1550 -3.1640 -0.8726
  518MOL0     H71430   5.269   4.552   0.880 -2.0724  0.0300  1.4439
  518MOL0     H71431   5.383   4.817   0.784  2.1390 -0.1362 -0.0886
  518MOL0     H71432   5.473   4.702   0.873  1.1111 -2.2079 -1.5775
  518MOL0     H71433   5.307   4.762   0.526  0.6838 -0.2564  1.6099
  518MOL0     H71434   5.384   4.637   0.255 -0.7019 -0.7950 -2.2541
  518MOL0     H71435   5.274   4.521   0.333  0.9866 -0.3273  2.3432
  518MOL0     H71436   5.565   4.446   0.246 -0.1155 -1.1668 -0.0624
  518MOL0     H71437   5.448   4.341   0.315  1.7293  0.1957  1.0602
  518MOL0     H71438   5.313   4.368   0.090  0.0535 -0.0345 -3.6967
  518MOL0     H71439   5.431   4.493   0.041  0.8046 -1.6951 -1.5125
  518MOL0     H71440   5.473   4.288  -0.072  0.2275 -1.4888  0.4360
  518MOL0     H71441   5.611   4.320   0.027  0.7413 -0.5654  0.6113
  518MOL0     H71442   5.512   3.938   0.143  1.3892  2.6668 -3.5615
  518MOL0     H71443   5.344   3.644   0.038 -0.9755 -1.4963  0.5161
  518MOL0     H71444   5.309   3.688   0.215 -2.1642  0.1803 -1.1523
  518MOL0     H71445   5.471   3.712   0.144  0.5093  2.0029 -0.8385
  518MOL0     H71446   4.786   3.758   0.102  0.9459 -1.0769 -0.3683
  518MOL0     H71447   4.597   3.630   0.042  0.0371 -0.9871  0.5316
  518MOL0     H71448   4.423   3.585  -0.246 -1.7196 -1.9765 -2.2255
  518MOL0     H71449   4.414   3.406  -0.254 -0.4882  0.1557  0.4051
  518MOL0     H71450   4.376   3.385  -0.024  1.8164 -0.0923  1.1497
  518MOL0     H71451   4.426   3.546   0.021 -0.2607  0.7801 -0.2221
  518MOL0     H71452   4.178   3.484  -0.160  0.7182 -1.9507  0.3364
  518MOL0     H71453   4.225   3.645  -0.108 -2.6728 -0.7151 -2.5874
  518MOL0     H71454   4.192   3.590   0.139  0.9297 -1.8741  0.6464
  518MOL0     H71455   4.147   3.433   0.086 -1.8886 -0.4394 -1.6673
  518MOL0     H71456   3.993   3.682   0.072  2.5446 -1.1596  0.0701
  518MOL0     H71457   3.965   3.570  -0.068  0.8751  1.3542 -1.2332
  518MOL0     H71458   3.905   3.482   0.218  1.1407 -1.0178 -0.5797
  518MOL0     H71459   3.885   3.388   0.073 -2.4851 -1.5835  3.4153
  518MOL0     H71460   3.717   3.578  -0.020 -4.5458 -1.5320  0.6254
  518MOL0     H71461   3.750   3.669   0.120 -1.1144  1.5364 -3.1340
  518MOL0     H71462   3.665   3.455   0.257 -1.2630 -0.4950  1.5722
  518MOL0     H71463   3.633   3.386   0.090 -0.7288  1.7295 -1.3016
  518MOL0     H71464   4.768   3.549  -0.351 -2.8887  0.7374 -1.1668
  518MOL0     H71465   4.934   3.732  -0.303 -1.5513  3.4170 -1.2489
  518MOL0     H71466   5.095   4.029  -0.077 -0.6194 -1.6233  1.9434
  518MOL0     H71467   5.270   4.209  -0.052 -2.8516 -1.7829 -4.0224
  518MOL0     H71468   4.658   5.341   1.314  1.9073  1.0720  1.0401
  518MOL0     H71469   4.466   5.366   1.455 -1.3478 -1.1213  1.0570
  518MOL0     H71470   4.345   5.341   1.873 -1.3090 -0.8028  0.9141
  518MOL0     H71471   4.229   5.447   2.036 -0.4235  2.7843  0.1832
  518MOL0     H71472   4.101   5.638   2.120 -1.7294  1.3067 -1.4187
  518MOL0     H71473   3.938   5.670   2.166 -1.3525 -1.2189  0.4213
  518MOL0     H71474   4.050   5.400   2.244  0.7431  0.1308  1.8904
  518MOL0     H71475   3.893   5.460   2.275  1.2625 -3.3066  1.6604
  518MOL0     H71476   4.161   5.582   2.357  0.3372  1.5796  1.2147
  518MOL0     H71477   4.017   5.663   2.399 -2.2903 -0.5811 -0.4357
  518MOL0     H71478   4.104   5.379   2.503  2.0036  1.2233 -1.2015
  518MOL0     H71479   3.941   5.448   2.524  0.6837 -1.6805 -1.3422
  518MOL0     H71480   4.113   5.681   2.815 -1.6578  2.8647 -0.7564
  518MOL0     H71481   3.870   5.458   1.787 -0.2681 -1.2493 -0.6310
  518MOL0     H71482   4.002   5.287   1.523 -1.6436 -0.6689 -0.8709
  518MOL0     H71483   3.892   5.411   1.560  0.3167  0.3114  0.8824
  518MOL0     H71484   4.057   5.471   1.528  0.8151  0.1335  2.9004
  519MOL0     O71485   7.340   9.842   5.082 -0.0636 -0.3491  0.0442
  519MOL0     C71486   7.377   9.762   5.170 -0.2900 -0.2426 -0.0433
  519MOL0     O71487   7.295   9.698   5.267 -0.1442  0.3560 -0.0074
  519MOL0     C71488   7.165   9.745   5.309  0.1684  0.1760  0.7012
  519MOL0     C71489   7.112   9.876   5.301 -0.0750  0.6640  0.7311
  519MOL0     C71490   6.982   9.912   5.353  0.0681  0.5467 -0.3092
  519MOL0     C71491   6.900   9.819   5.417  0.8061 -0.6673 -1.7820
  519MOL0     O71492   6.778   9.859   5.471  0.9515 -0.2887  0.5089
  519MOL0     C71493   6.681   9.752   5.479  0.4754  0.2013 -0.7945
  519MOL0     C71494   6.686   9.698   5.627  0.7939  0.0160  0.0565
  519MOL0     C71495   6.682   9.793   5.752  0.3273  0.2093 -0.5728
  519MOL0     C71496   6.538   9.856   5.757  0.1284 -1.0081  0.6583
  519MOL0     C71497   6.539   9.945   5.878 -0.2298  0.1578  0.4812
  519MOL0     C71498   6.410  10.015   5.898  0.9022 -0.6685  0.5632
  519MOL0     C71499   6.413  10.132   5.991  0.3961 -0.1493  0.3778
  519MOL0     C71500   6.291  10.150   6.075  0.2928 -0.6056  1.0873
  519MOL0     N71501   6.291  10.037   6.166 -0.1413 -1.0519 -0.4129
  519MOL0     C71502   6.370  10.033   6.275  0.9155 -0.1181  0.4210
  519MOL0     C71503   6.329   9.926   6.340 -0.5608  0.4560  0.5754
  519MOL0     C71504   6.359   9.896   6.484  0.5849 -0.3738 -0.1629
  519MOL0     C71505   6.295   9.996   6.585 -1.0972 -0.3387  0.9761
  519MOL0     C71506   6.139  10.014   6.570 -0.1524  0.5611  0.5370
  519MOL0     C71507   6.072  10.033   6.701  0.0984  0.0109  0.2899
  519MOL0     O71508   6.111  10.156   6.756 -0.1546 -0.3118 -0.2769
  519MOL0     C71509   6.043  10.186   6.874  0.3930 -0.8340 -0.2332
  519MOL0     C71510   6.125  10.195   6.986 -0.6491  0.3933 -0.1324
  519MOL0     C71511   6.071  10.242   7.112 -0.2385  0.3442 -0.6881
  519MOL0     C71512   6.158  10.258   7.243 -0.6741 -0.3319  0.4379
  519MOL0     C71513   5.930  10.254   7.121  0.0659  0.2774 -0.4848
  519MOL0     C71514   5.856  10.288   7.244  0.7868  0.0352  0.0119
  519MOL0     O71515   5.885  10.407   7.306 -0.7959  0.3435 -0.6400
  519MOL0     C71516   5.795  10.451   7.404  0.5800 -0.3635  0.0032
  519MOL0     C71517   5.826  10.437   7.537  0.5932  0.4831 -0.0558
  519MOL0     C71518   5.739  10.480   7.630  0.1789  0.2554  0.3491
  519MOL0     C71519   5.611  10.529   7.601  0.4558 -0.4073  0.0284
  519MOL0     O71520   5.533  10.588   7.697 -0.5501  1.1803 -0.3434
  519MOL0     C71521   5.493  10.492   7.798  0.1903 -1.1437 -0.4633
  519MOL0     C71522   5.374  10.411   7.738 -0.4292  0.2742  0.4730
  519MOL0     C71523   5.278  10.331   7.825  0.5984  0.4054  0.1458
  519MOL0     C71524   5.181  10.426   7.890 -0.0499 -0.9581 -0.3056
  519MOL0     C71525   5.113  10.353   8.010  0.2980 -0.4409  0.1914
  519MOL0     C71526   5.021  10.241   7.960 -0.3437 -1.1150 -0.0070
  519MOL0     C71527   4.924  10.202   8.071  0.0641  0.3506 -0.4329
  519MOL0     C71528   4.807  10.299   8.063  1.0078 -0.1180 -0.0211
  519MOL0    Cl71529   4.662  10.254   8.171  0.1748  0.1487  0.1536
  519MOL0     C71530   5.573  10.525   7.466 -0.3166 -0.2699 -0.8166
  519MOL0     C71531   5.664  10.481   7.368 -0.1892 -1.1269  0.9209
  519MOL0     O71532   5.782  10.203   7.284  0.4742  0.2950 -0.5678
  519MOL0     C71533   5.846  10.240   7.010 -0.0033  0.4361  0.2889
  519MOL0     C71534   5.905  10.209   6.881 -0.1170  0.4436  0.7600
  519MOL0     N71535   6.241   9.852   6.267  0.4158 -0.6071 -0.5233
  519MOL0     N71536   6.213   9.924   6.158 -0.0761 -0.1621 -0.4832
  519MOL0     C71537   6.956   9.686   5.427 -0.2058 -0.1382  1.0216
  519MOL0     C71538   7.085   9.655   5.375 -0.2355 -0.4031 -0.9533
  519MOL0     C71539   7.511   9.708   5.143  0.6910  0.3170 -0.5119
  519MOL0     C71540   7.529   9.568   5.136 -0.4490  0.8243 -0.2675
  519MOL0     C71541   7.651   9.518   5.092  0.9341  0.7578 -0.2587
  519MOL0     C71542   7.760   9.598   5.060 -0.7194 -0.0524  0.1478
  519MOL0     O71543   7.881   9.560   4.995  0.4977  0.0315 -0.2832
  519MOL0     C71544   7.901   9.420   4.965  0.3339 -0.0269  0.2854
  519MOL0     C71545   8.024   9.410   4.876 -0.2022  0.4147 -0.2605
  519MOL0     C71546   8.008   9.473   4.743  0.3625  0.6920 -0.2807
  519MOL0     C71547   8.131   9.484   4.653  0.5314  0.4035  0.1871
  519MOL0     C71548   8.087   9.492   4.508 -0.1026 -0.5434  0.1995
  519MOL0     C71549   8.055   9.496   4.392  0.8814  0.4016 -0.6151
  519MOL0     C71550   7.740   9.740   5.076  1.0696  0.9446  0.4235
  519MOL0     C71551   7.620   9.794   5.108  0.2078  0.4081 -0.7499
  519MOL0     C71552   7.607   9.941   5.099  0.5161  0.0727  0.0779
  519MOL0     H71553   7.160   9.961   5.255 -1.4502  1.0903  0.0363
  519MOL0     H71554   6.949  10.015   5.357  0.7494  0.7328  1.0778
  519MOL0     H71555   6.707   9.660   5.427 -0.6190 -0.5465 -0.0601
  519MOL0     H71556   6.583   9.788   5.447  0.7537  0.4546 -1.3799
  519MOL0     H71557   6.596   9.637   5.637  0.8764 -0.3017 -0.9743
  519MOL0     H71558   6.777   9.637   5.634 -0.2661 -1.5007  1.2486
  519MOL0     H71559   6.694   9.728   5.839 -1.1817 -0.8267 -1.0961
  519MOL0     H71560   6.759   9.870   5.744  0.0526  0.6052  0.4504
  519MOL0     H71561   6.516   9.915   5.668  1.5301  1.3810  1.7924
  519MOL0     H71562   6.456   9.785   5.770 -1.2920  1.1056  6.3368
  519MOL0     H71563   6.618  10.013   5.846  0.0911 -0.4098  0.0440
  519MOL0     H71564   6.558   9.887   5.968 -2.7131 -0.8728  0.4164
  519MOL0     H71565   6.364  10.047   5.804 -1.4772 -3.1445  0.7626
  519MOL0     H71566   6.330   9.946   5.927 -1.1361  0.8356 -1.1155
  519MOL0     H71567   6.427  10.231   5.945 -2.5719 -0.2912 -1.0144
  519MOL0     H71568   6.494  10.122   6.065  0.2250 -0.3884  0.5352
  519MOL0     H71569   6.290  10.245   6.129  2.6928  1.6269 -2.4001
  519MOL0     H71570   6.205  10.147   6.008  0.4932  2.3234  0.5949
  519MOL0     H71571   6.422  10.121   6.312 -1.6559  2.6305 -1.9672
  519MOL0     H71572   6.468   9.897   6.489  0.7613 -0.8757 -2.5912
  519MOL0     H71573   6.317   9.796   6.502  0.7331 -0.5800 -0.9416
  519MOL0     H71574   6.328   9.965   6.685  2.7847 -1.0446 -0.3433
  519MOL0     H71575   6.343  10.094   6.574  0.0624 -0.8200  1.6030
  519MOL0     H71576   6.130  10.103   6.506  2.3774  0.8368  0.4486
  519MOL0     H71577   6.095   9.928   6.517  2.4724 -1.2501  1.0954
  519MOL0     H71578   5.963  10.024   6.705 -0.2829  3.5492  1.4717
  519MOL0     H71579   6.111   9.950   6.761  2.2021  1.5364  1.1424
  519MOL0     H71580   6.233  10.192   6.972 -0.8637  1.1857 -2.1888
  519MOL0     H71581   6.243  10.324   7.226 -1.7618  0.5403 -1.9226
  519MOL0     H71582   6.195  10.159   7.271 -0.8287 -1.0039 -1.5778
  519MOL0     H71583   6.103  10.288   7.333  0.6708  0.2139  1.1099
  519MOL0     H71584   5.924  10.408   7.573  0.6999  0.5341 -0.3075
  519MOL0     H71585   5.780  10.476   7.730  0.7951  0.9988  0.1373
  519MOL0     H71586   5.570  10.426   7.838  1.1878  0.4952  0.4100
  519MOL0     H71587   5.455  10.556   7.878  0.7873  2.2913 -2.7029
  519MOL0     H71588   5.325  10.475   7.665 -0.8687  0.5919  1.0478
  519MOL0     H71589   5.416  10.334   7.672 -0.5735  0.5116  0.0987
  519MOL0     H71590   5.332  10.268   7.895 -0.3824  0.9140  1.3892
  519MOL0     H71591   5.212  10.271   7.761  1.9803 -1.4574  0.3912
  519MOL0     H71592   5.109  10.477   7.825  1.7785  0.0391 -1.6524
  519MOL0     H71593   5.244  10.506   7.930 -0.7804  1.0986 -2.9722
  519MOL0     H71594   5.187  10.317   8.082  1.4095  3.5461  1.3327
  519MOL0     H71595   5.064  10.428   8.073 -0.9260 -0.4317 -0.7338
  519MOL0     H71596   5.071  10.151   7.921 -1.1816 -1.1126 -1.1387
  519MOL0     H71597   4.971  10.280   7.871  0.6937 -2.2134 -1.1074
  519MOL0     H71598   4.973  10.195   8.169  0.2708  1.2168 -0.4692
  519MOL0     H71599   4.884  10.103   8.048 -1.0379 -0.4846  4.0085
  519MOL0     H71600   4.768  10.292   7.961 -0.0814  3.8668 -0.0533
  519MOL0     H71601   4.830  10.404   8.081  1.9146 -0.2080 -0.6155
  519MOL0     H71602   5.477  10.566   7.437  0.7118  2.5059 -0.6486
  519MOL0     H71603   5.640  10.500   7.264  0.3116 -1.5253  0.7240
  519MOL0     H71604   5.738  10.253   7.007 -0.2894 -1.6210 -2.0084
  519MOL0     H71605   5.843  10.198   6.792  1.7270  2.9168 -1.0126
  519MOL0     H71606   6.916   9.601   5.482  0.3473 -0.1402  1.4320
  519MOL0     H71607   7.123   9.555   5.388  0.4840 -0.0146  0.0427
  519MOL0     H71608   7.436   9.519   5.160 -0.0390  1.4167  3.0492
  519MOL0     H71609   7.666   9.410   5.092 -2.0608  0.2589  0.6122
  519MOL0     H71610   7.922   9.365   5.057  0.5654  2.0109  1.5053
  519MOL0     H71611   7.812   9.377   4.918  0.0398 -1.6783  2.2461
  519MOL0     H71612   8.061   9.307   4.870 -0.0262  0.3218  1.9104
  519MOL0     H71613   8.107   9.463   4.923 -0.8119  0.5176  0.7148
  519MOL0     H71614   7.928   9.419   4.692  3.3072 -4.5841  0.0050
  519MOL0     H71615   7.980   9.578   4.753 -0.6738  0.3141  1.1460
  519MOL0     H71616   8.171   9.382   4.656 -0.9041 -0.2703 -1.7057
  519MOL0     H71617   8.205   9.559   4.682  0.2078  0.7314  0.1697
  519MOL0     H71618   8.033   9.483   4.288 -0.0953  0.1645 -0.3876
  519MOL0     H71619   7.817   9.795   5.024  1.0173 -0.1437 -0.8604
  519MOL0     H71620   7.548   9.989   5.177  0.6445  0.9405 -0.3509
  519MOL0     H71621   7.704   9.991   5.109  0.2273  1.3798 -2.7823
  519MOL0     H71622   7.573   9.968   4.999  0.9173  2.3886  0.5054
  520MOL0     O71623  11.201   9.869   6.558  0.4947  0.1902  0.1136
  520MOL0     C71624  11.176   9.983   6.527 -1.3601  0.2914 -0.0288
  520MOL0     O71625  11.266  10.081   6.532  0.6948  0.1660 -0.2297
  520MOL0     C71626  11.372  10.080   6.621  0.3570 -1.2342 -0.3778
  520MOL0     C71627  11.494  10.037   6.568 -0.9586 -0.1305  0.7703
  520MOL0     C71628  11.609  10.028   6.651 -0.6901 -0.5584 -0.6818
  520MOL0     C71629  11.601  10.083   6.775 -1.5978  0.4805 -0.7602
  520MOL0     O71630  11.711  10.071   6.854  0.1051  0.3159 -0.1690
  520MOL0     C71631  11.754  10.190   6.915  0.5480 -0.0727  0.3889
  520MOL0     C71632  11.844  10.257   6.809  0.3177  0.6646 -0.3485
  520MOL0     C71633  11.889  10.389   6.864 -0.8587 -0.2620  0.3305
  520MOL0     C71634  11.925  10.496   6.750 -0.4492  0.4768 -0.2294
  520MOL0     C71635  11.951  10.639   6.798  0.3514  0.5157  0.3910
  520MOL0     C71636  11.982  10.737   6.670 -0.0648  0.3176 -0.0846
  520MOL0     C71637  12.027  10.869   6.719 -0.5148 -0.4232 -0.5131
  520MOL0     C71638  12.087  10.951   6.604  0.1559  0.1184  1.0066
  520MOL0     N71639  12.223  10.907   6.563 -0.2151 -0.4296 -0.7514
  520MOL0     C71640  12.331  10.899   6.658 -0.2648 -0.3243  0.1543
  520MOL0     C71641  12.423  10.823   6.590  0.4317 -0.2425  0.3503
  520MOL0     C71642  12.559  10.796   6.648  0.5634  0.6891  0.1728
  520MOL0     C71643  12.551  10.681   6.759  0.4385  0.4149 -0.0567
  520MOL0     C71644  12.645  10.557   6.721 -0.0410  0.3487  0.2262
  520MOL0     C71645  12.784  10.612   6.680 -0.4814  0.4455 -0.1312
  520MOL0     O71646  12.825  10.711   6.778 -0.4244  0.2147  0.2441
  520MOL0     C71647  12.953  10.759   6.766 -0.0863 -0.0629 -0.7565
  520MOL0     C71648  13.011  10.814   6.878 -0.2451  0.0731  0.3388
  520MOL0     C71649  13.133  10.874   6.881 -0.7757 -0.0897 -0.3086
  520MOL0     C71650  13.172  10.949   7.014  0.8438  0.1160 -0.4002
  520MOL0     C71651  13.214  10.873   6.770 -0.6098  0.6348  0.8982
  520MOL0     C71652  13.348  10.934   6.763 -0.9565 -0.2259 -0.4722
  520MOL0     O71653  13.419  10.948   6.643  0.6744 -0.8007 -0.0007
  520MOL0     C71654  13.548  10.993   6.657  0.6673  0.1071  0.0219
  520MOL0     C71655  13.646  10.911   6.714 -0.1790 -1.4781  0.4841
  520MOL0     C71656  13.774  10.955   6.752  0.1414 -0.2564  0.6452
  520MOL0     C71657  13.804  11.097   6.739  0.1917  0.4076  0.9127
  520MOL0     O71658  13.934  11.132   6.770 -0.1036  0.4569 -0.4999
  520MOL0     C71659  13.964  11.270   6.798 -0.1347  0.0753  0.4949
  520MOL0     C71660  14.102  11.297   6.845  0.0350  0.1223 -0.8436
  520MOL0     C71661  14.150  11.239   6.975 -0.0678 -0.1587  0.3991
  520MOL0     C71662  14.290  11.159   6.969  0.6664 -0.6575  0.4060
  520MOL0     C71663  14.339  11.107   7.099  0.0138  0.0463 -0.2205
  520MOL0     C71664  14.225  11.028   7.175 -0.3121 -0.4975 -0.3686
  520MOL0     C71665  14.274  10.951   7.295 -0.5794  0.0033  0.1237
  520MOL0     C71666  14.339  11.028   7.413  0.2228 -0.4990  1.0535
  520MOL0    Cl71667  14.351  10.929   7.554 -0.3193 -0.1777 -0.2394
  520MOL0     C71668  13.704  11.176   6.693 -0.6648 -0.2260 -0.3095
  520MOL0     C71669  13.576  11.127   6.653  0.2957 -0.4230 -0.1696
  520MOL0     O71670  13.406  10.956   6.871  0.2634  0.1411  0.2752
  520MOL0     C71671  13.147  10.829   6.648 -0.4604 -0.7788 -0.6498
  520MOL0     C71672  13.025  10.770   6.649  0.0776 -0.8564  0.1425
  520MOL0     N71673  12.380  10.806   6.461  0.6626 -0.4008  0.0266
  520MOL0     N71674  12.258  10.854   6.443  0.8078 -0.0314 -0.1595
  520MOL0     C71675  11.483  10.139   6.828  1.0117 -0.0790  0.3359
  520MOL0     C71676  11.363  10.134   6.747 -1.0840 -1.1611 -0.1044
  520MOL0     C71677  11.043  10.019   6.482  0.3673 -0.8215  0.0155
  520MOL0     C71678  11.014  10.157   6.447  0.9049  0.6008 -0.7142
  520MOL0     C71679  10.892  10.190   6.415 -0.3994  0.0687 -0.1487
  520MOL0     C71680  10.793  10.100   6.397  0.5681  0.7547 -0.3992
  520MOL0     O71681  10.664  10.126   6.356 -0.2215  0.5744  0.3146
  520MOL0     C71682  10.633  10.253   6.291  0.2961 -1.1687 -0.5450
  520MOL0     C71683  10.527  10.221   6.184  0.5217  0.0706  0.5683
  520MOL0     C71684  10.507  10.324   6.067 -0.1658  0.0337  0.0585
  520MOL0     C71685  10.576  10.266   5.942  0.6772 -0.4284 -0.7830
  520MOL0     C71686  10.723  10.258   5.958 -0.4198  0.4418 -0.8982
  520MOL0     C71687  10.849  10.253   5.948  0.1462  0.7923 -0.1304
  520MOL0     C71688  10.817   9.964   6.424  0.3096 -0.3263 -0.6748
  520MOL0     C71689  10.944   9.920   6.462  0.3627  1.2358  0.4994
  520MOL0     C71690  10.949   9.765   6.483  0.3895 -0.2337  1.1770
  520MOL0     H71691  11.498   9.999   6.467  0.5380 -1.3382  1.2419
  520MOL0     H71692  11.703   9.987   6.614  1.3257  0.6401  2.6583
  520MOL0     H71693  11.812  10.164   7.005 -1.3748  0.0766  1.7429
  520MOL0     H71694  11.674  10.257   6.949  2.0479  0.0643  4.2427
  520MOL0     H71695  11.928  10.196   6.775 -0.5966  0.4945 -2.4083
  520MOL0     H71696  11.781  10.282   6.723  0.4242  4.0510  0.3785
  520MOL0     H71697  11.812  10.437   6.926  1.0985  1.7579  1.3753
  520MOL0     H71698  11.976  10.377   6.930 -1.2900  1.8210  1.3737
  520MOL0     H71699  12.016  10.469   6.696  1.8470 -0.9574  3.8790
  520MOL0     H71700  11.841  10.504   6.681  0.1625 -0.2793 -1.0931
  520MOL0     H71701  12.032  10.638   6.872 -1.9946  2.5840  3.2421
  520MOL0     H71702  11.866  10.669   6.859 -0.1702 -1.1394  0.5153
  520MOL0     H71703  12.076  10.694   6.633 -1.0767 -1.0751 -1.1290
  520MOL0     H71704  11.898  10.734   6.600 -1.6326  1.1111  1.6784
  520MOL0     H71705  12.110  10.858   6.789 -1.0711  0.2586  0.2727
  520MOL0     H71706  11.945  10.925   6.764 -1.3915 -2.4079  0.4666
  520MOL0     H71707  12.006  10.951   6.530  1.4024 -0.0023 -0.4106
  520MOL0     H71708  12.100  11.057   6.630  0.9744  0.2240  0.2103
  520MOL0     H71709  12.342  10.938   6.759 -1.2816  0.6882 -0.1049
  520MOL0     H71710  12.590  10.883   6.707  1.1573 -0.2537  1.3109
  520MOL0     H71711  12.631  10.782   6.566  1.2047 -0.6360  0.9197
  520MOL0     H71712  12.590  10.726   6.850 -2.4679 -1.1974  2.1708
  520MOL0     H71713  12.449  10.657   6.790  1.4995  0.3111  3.8155
  520MOL0     H71714  12.658  10.495   6.810 -0.4099  2.3574  1.7580
  520MOL0     H71715  12.599  10.493   6.645  0.0809 -0.7541  1.0549
  520MOL0     H71716  12.858  10.532   6.690 -0.8874 -0.1126 -1.4384
  520MOL0     H71717  12.779  10.648   6.577 -2.0202 -1.8781 -0.9615
  520MOL0     H71718  12.945  10.820   6.964  0.6033  1.3862  0.9295
  520MOL0     H71719  13.173  11.058   7.003  0.5516  0.3659  1.7193
  520MOL0     H71720  13.267  10.913   7.055  0.2179  0.6817  1.6384
  520MOL0     H71721  13.101  10.924   7.093  1.4873  1.7950  0.7485
  520MOL0     H71722  13.627  10.804   6.721 -3.0684 -1.1807 -1.4252
  520MOL0     H71723  13.854  10.882   6.764  0.6116  0.4472  2.1206
  520MOL0     H71724  13.943  11.331   6.709  2.8515  1.6455  0.7559
  520MOL0     H71725  13.892  11.298   6.876  2.1991  1.0677  2.3973
  520MOL0     H71726  14.175  11.269   6.769 -0.7008 -0.6949 -1.2650
  520MOL0     H71727  14.120  11.405   6.852  2.0377 -0.2334  0.1126
  520MOL0     H71728  14.076  11.168   7.012  0.5160  1.0915  4.3547
  520MOL0     H71729  14.154  11.315   7.053  2.9751 -1.6566  1.8723
  520MOL0     H71730  14.365  11.227   6.927  1.3717 -1.6432  0.0285
  520MOL0     H71731  14.271  11.079   6.897  0.9347 -0.1172 -0.2837
  520MOL0     H71732  14.420  11.034   7.086 -2.0755 -3.0735  2.5789
  520MOL0     H71733  14.370  11.193   7.159  4.8513  0.8008 -3.2529
  520MOL0     H71734  14.188  10.961   7.096 -0.8295 -2.7297  1.6502
  520MOL0     H71735  14.145  11.095   7.207  1.2114  1.6464 -0.8490
  520MOL0     H71736  14.340  10.867   7.269  1.3149  0.8867  1.8222
  520MOL0     H71737  14.192  10.894   7.340 -1.0250 -1.9474 -2.8891
  520MOL0     H71738  14.270  11.107   7.442  0.1701  0.1074 -0.6225
  520MOL0     H71739  14.436  11.067   7.380 -0.1956 -1.3553 -1.4331
  520MOL0     H71740  13.714  11.284   6.696 -3.2965  0.0579  0.5232
  520MOL0     H71741  13.495  11.198   6.642  1.1508  0.7873  1.1004
  520MOL0     H71742  13.193  10.817   6.550  0.9346  0.8969 -0.2504
  520MOL0     H71743  12.978  10.733   6.558 -1.2901  0.9252  0.0578
  520MOL0     H71744  11.473  10.172   6.931 -3.0255  2.5505 -0.6846
  520MOL0     H71745  11.271  10.175   6.786 -1.5755 -3.6249  1.5156
  520MOL0     H71746  11.096  10.227   6.452  3.4047 -2.1216 -1.0796
  520MOL0     H71747  10.861  10.293   6.405 -1.4775  0.1736  2.9080
  520MOL0     H71748  10.587  10.328   6.357  0.4913 -0.1232 -1.5649
  520MOL0     H71749  10.718  10.310   6.250 -0.4492 -0.6048 -1.3385
  520MOL0     H71750  10.429  10.200   6.229 -1.4446  1.0702 -2.8730
  520MOL0     H71751  10.550  10.124   6.141  0.6793  0.6072 -0.5898
  520MOL0     H71752  10.403  10.344   6.042 -0.1108 -0.3947 -0.5435
  520MOL0     H71753  10.555  10.420   6.089 -1.0658 -0.0511  2.8312
  520MOL0     H71754  10.564  10.338   5.860  0.8383 -0.7615 -1.0982
  520MOL0     H71755  10.539  10.166   5.920  0.0677 -0.5157  0.5012
  520MOL0     H71756  10.954  10.240   5.932  0.1195 -1.1856  0.9647
  520MOL0     H71757  10.731   9.898   6.422 -0.1410 -0.3509  4.7813
  520MOL0     H71758  10.856   9.708   6.478 -0.5847  1.3611  0.1172
  520MOL0     H71759  11.011   9.726   6.401 -1.1352 -1.5698  0.6239
  520MOL0     H71760  10.997   9.750   6.579  1.6307 -1.2609  0.4239
  521MOL0     O71761   5.698  10.549   8.048 -0.1640  0.4980 -0.5335
  521MOL0     C71762   5.717  10.636   8.132 -0.0040  0.2996 -0.0040
  521MOL0     O71763   5.745  10.761   8.112 -0.2793  0.3721 -0.7533
  521MOL0     C71764   5.786  10.812   7.993 -1.3501  0.3544 -0.5723
  521MOL0     C71765   5.704  10.797   7.880  0.2652  0.3574 -0.4648
  521MOL0     C71766   5.734  10.863   7.761 -0.0206  1.2901 -0.9753
  521MOL0     C71767   5.843  10.942   7.749 -0.4152  0.0977 -0.8691
  521MOL0     O71768   5.866  11.006   7.634 -0.3996 -0.0387 -0.7996
  521MOL0     C71769   5.898  10.922   7.527 -0.5910  0.2688  1.0086
  521MOL0     C71770   5.891  10.995   7.401  0.3202  0.2298 -0.7011
  521MOL0     C71771   5.885  10.910   7.280  0.0644  0.3179 -0.9040
  521MOL0     C71772   6.006  10.825   7.244 -0.5330 -0.4286 -0.1065
  521MOL0     C71773   5.969  10.741   7.119 -0.7478 -0.0363 -0.4086
  521MOL0     C71774   6.092  10.672   7.059 -0.3920 -0.2705  0.4160
  521MOL0     C71775   6.055  10.595   6.930 -0.0721  0.3207  0.0846
  521MOL0     C71776   6.159  10.610   6.822  0.4158 -0.3395 -0.4595
  521MOL0     N71777   6.292  10.556   6.849 -0.6843 -0.1085  0.3633
  521MOL0     C71778   6.324  10.424   6.820  0.0289  0.7645 -0.6008
  521MOL0     C71779   6.455  10.418   6.855  0.2334  0.4546  0.8885
  521MOL0     C71780   6.532  10.291   6.878 -0.1748 -0.0673  0.0358
  521MOL0     C71781   6.637  10.255   6.779 -0.1423 -0.2730  0.0267
  521MOL0     C71782   6.588  10.207   6.640 -0.3106  0.0008 -0.5333
  521MOL0     C71783   6.700  10.205   6.534 -0.7837 -0.4452 -0.4823
  521MOL0     O71784   6.654  10.159   6.409  0.5945 -0.1758  0.6413
  521MOL0     C71785   6.730  10.062   6.351 -0.5794 -1.2865 -0.0679
  521MOL0     C71786   6.863  10.094   6.334 -0.0423 -0.2647  0.1222
  521MOL0     C71787   6.955  10.012   6.264  1.0482  0.0225 -1.0089
  521MOL0     C71788   7.098  10.059   6.273  0.7664 -0.1907 -0.2052
  521MOL0     C71789   6.904   9.892   6.207 -0.2872 -0.3434 -0.3264
  521MOL0     C71790   6.981   9.818   6.100 -0.1464  0.1349 -0.1729
  521MOL0     O71791   6.906   9.736   6.012  0.3624 -0.8378 -0.2653
  521MOL0     C71792   6.970   9.627   5.961  0.5382 -0.3741 -0.2455
  521MOL0     C71793   6.986   9.519   6.049 -0.3849 -0.3763 -0.4351
  521MOL0     C71794   7.063   9.406   6.005 -0.5084  0.1528  0.8139
  521MOL0     C71795   7.121   9.397   5.876 -0.1071  0.4703  0.6547
  521MOL0     O71796   7.193   9.299   5.814 -0.4315 -0.3534 -0.0088
  521MOL0     C71797   7.210   9.176   5.886  0.5296 -0.8729 -0.7968
  521MOL0     C71798   7.312   9.091   5.807  0.3252 -0.4119  0.2229
  521MOL0     C71799   7.452   9.143   5.821 -0.2802  0.6736  1.3089
  521MOL0     C71800   7.550   9.035   5.765 -0.0755  0.4187  0.3143
  521MOL0     C71801   7.695   9.088   5.729  0.1393 -0.6840 -0.5579
  521MOL0     C71802   7.793   9.116   5.853 -0.1516  0.4912  0.7948
  521MOL0     C71803   7.780   9.258   5.901 -0.1125 -0.0802  0.2892
  521MOL0     C71804   7.889   9.291   6.005  0.1023  0.3032 -0.2250
  521MOL0    Cl71805   7.912   9.157   6.129  0.4435  0.3007 -0.1201
  521MOL0     C71806   7.108   9.510   5.799  0.2885  0.2724  0.0137
  521MOL0     C71807   7.032   9.625   5.833  0.1297  1.0574 -0.0557
  521MOL0     O71808   7.107   9.802   6.120  0.2071  1.0020 -0.2797
  521MOL0     C71809   6.778   9.857   6.232 -0.1937  0.4075  0.3011
  521MOL0     C71810   6.693   9.936   6.315 -0.0119  0.1159  0.4943
  521MOL0     N71811   6.504  10.542   6.875 -0.2944 -0.0596 -0.2176
  521MOL0     N71812   6.409  10.621   6.881  0.3175 -0.1911 -0.4951
  521MOL0     C71813   5.923  10.970   7.871  0.0641 -0.5617 -0.2414
  521MOL0     C71814   5.891  10.904   7.991 -0.9083 -0.0532 -0.0620
  521MOL0     C71815   5.716  10.598   8.276  0.1568  0.0187 -0.2091
  521MOL0     C71816   5.815  10.662   8.346 -0.0736  1.2416 -0.2081
  521MOL0     C71817   5.831  10.635   8.489 -0.2460 -0.3301  0.1819
  521MOL0     C71818   5.737  10.560   8.559 -0.3206 -0.2072 -0.8412
  521MOL0     O71819   5.754  10.551   8.698 -0.4354  0.0918 -0.0762
  521MOL0     C71820   5.665  10.474   8.781  0.0937 -0.7225 -0.1050
  521MOL0     C71821   5.693  10.321   8.776 -0.2824 -0.0147 -0.6684
  521MOL0     C71822   5.584  10.250   8.855 -0.0797  0.7512  0.1185
  521MOL0     C71823   5.627  10.114   8.921 -0.1610  0.5297 -0.2646
  521MOL0     C71824   5.700  10.134   9.055 -0.4131 -0.2418 -0.4742
  521MOL0     C71825   5.746  10.164   9.168  0.3785 -0.4688  0.1202
  521MOL0     C71826   5.645  10.489   8.482 -0.6425  0.0306  0.4035
  521MOL0     C71827   5.633  10.503   8.340  0.5193 -0.9759 -0.2426
  521MOL0     C71828   5.525  10.412   8.266 -0.3133 -0.0072  0.2805
  521MOL0     H71829   5.618  10.731   7.889 -0.3981  0.9525 -2.0383
  521MOL0     H71830   5.658  10.837   7.688  0.5246 -0.1433 -1.0706
  521MOL0     H71831   5.829  10.837   7.527 -1.1136  0.6899  1.2950
  521MOL0     H71832   5.993  10.868   7.536  0.7979  1.4562 -3.7213
  521MOL0     H71833   5.806  11.063   7.396 -0.0818 -0.3738 -2.8666
  521MOL0     H71834   5.986  11.050   7.398  0.3846  0.2915  1.1303
  521MOL0     H71835   5.807  10.836   7.300  2.3646 -1.0255  6.3214
  521MOL0     H71836   5.857  10.980   7.201 -0.7336 -0.5172 -1.3804
  521MOL0     H71837   6.093  10.892   7.234  0.4378 -1.0743  3.0613
  521MOL0     H71838   6.017  10.758   7.329 -0.0147  2.0299  1.8666
  521MOL0     H71839   5.944  10.825   7.053 -0.7973 -0.0048 -0.3488
  521MOL0     H71840   5.889  10.671   7.148  1.6405 -1.3600  3.7126
  521MOL0     H71841   6.165  10.750   7.038 -0.3163 -0.2340  0.8134
  521MOL0     H71842   6.130  10.601   7.132 -1.9654 -0.2289  1.3213
  521MOL0     H71843   5.951  10.618   6.906 -0.1385  0.4118  0.4436
  521MOL0     H71844   6.053  10.492   6.966 -0.4284 -0.5931 -2.3719
  521MOL0     H71845   6.122  10.567   6.729 -3.6278 -1.7727  1.5830
  521MOL0     H71846   6.160  10.718   6.802 -2.4117 -0.2551 -0.5105
  521MOL0     H71847   6.243  10.356   6.794 -2.2349  3.0151  0.1382
  521MOL0     H71848   6.460  10.209   6.867  1.6924 -1.8203  0.2570
  521MOL0     H71849   6.571  10.292   6.981  0.7927  4.4072 -0.1711
  521MOL0     H71850   6.710  10.336   6.769  2.4733 -2.2742  1.5533
  521MOL0     H71851   6.683  10.167   6.824 -1.6639 -0.9528  0.2977
  521MOL0     H71852   6.544  10.107   6.648 -1.2897  0.4441 -0.1440
  521MOL0     H71853   6.508  10.274   6.608 -0.7599 -0.7568 -1.0405
  521MOL0     H71854   6.744  10.305   6.528  1.7025 -1.4618 -0.3495
  521MOL0     H71855   6.780  10.140   6.570 -0.2124 -0.7414 -2.1807
  521MOL0     H71856   6.893  10.189   6.379 -1.1726 -1.3919  3.5580
  521MOL0     H71857   7.126  10.072   6.378 -2.1923 -0.3400  0.6994
  521MOL0     H71858   7.098  10.161   6.233 -0.8715  0.8198  2.1357
  521MOL0     H71859   7.167   9.991   6.223 -1.2341 -3.5156  1.2229
  521MOL0     H71860   6.966   9.524   6.156  1.5503  3.1473 -0.0659
  521MOL0     H71861   7.097   9.326   6.071  0.4230  0.6023  0.8946
  521MOL0     H71862   7.249   9.183   5.987  1.5482 -0.8677 -1.1771
  521MOL0     H71863   7.110   9.130   5.883 -1.9954  4.0436 -1.0990
  521MOL0     H71864   7.297   8.994   5.854 -1.4605 -0.2654  0.0496
  521MOL0     H71865   7.286   9.093   5.700  0.3578 -0.6927  0.2111
  521MOL0     H71866   7.478   9.149   5.927  3.1218 -2.8493  0.9539
  521MOL0     H71867   7.453   9.234   5.761 -2.6415 -2.2114 -3.8938
  521MOL0     H71868   7.510   8.990   5.674 -3.2498  1.5532  1.0392
  521MOL0     H71869   7.572   8.955   5.837 -0.7910  1.8932  2.2447
  521MOL0     H71870   7.736   9.004   5.671 -3.6896 -0.7893 -3.5179
  521MOL0     H71871   7.699   9.177   5.666  0.6697  1.0666  1.7919
  521MOL0     H71872   7.895   9.099   5.818  0.0037 -0.5169  1.6719
  521MOL0     H71873   7.766   9.052   5.938 -2.8910 -0.1105 -0.3960
  521MOL0     H71874   7.688   9.275   5.958 -0.2967  0.7665 -0.2427
  521MOL0     H71875   7.791   9.330   5.819  0.1726 -0.3528  0.0887
  521MOL0     H71876   7.864   9.380   6.064  1.2359  0.6220 -0.2175
  521MOL0     H71877   7.984   9.321   5.962  0.5052  1.4918  1.3802
  521MOL0     H71878   7.165   9.510   5.707  0.5069 -2.5229  0.0503
  521MOL0     H71879   7.034   9.700   5.754 -1.1783 -2.8765 -4.3356
  521MOL0     H71880   6.738   9.766   6.189  1.0490  1.6038 -3.8338
  521MOL0     H71881   6.593   9.895   6.323  0.4551 -1.7336 -1.8307
  521MOL0     H71882   6.002  11.043   7.863 -0.4293 -0.0490 -0.4693
  521MOL0     H71883   5.938  10.917   8.088 -0.1200  1.2670 -0.6060
  521MOL0     H71884   5.885  10.736   8.309 -0.8338  1.9757 -0.1982
  521MOL0     H71885   5.926  10.673   8.526  1.6290 -2.6429 -1.8928
  521MOL0     H71886   5.687  10.493   8.886  0.1596 -1.2116 -0.0258
  521MOL0     H71887   5.558  10.494   8.775 -0.1100 -1.5277  0.6482
  521MOL0     H71888   5.782  10.306   8.837 -3.1519 -2.1428  3.4810
  521MOL0     H71889   5.707  10.291   8.671  1.5471  1.8863 -1.0395
  521MOL0     H71890   5.539  10.320   8.925  0.5238  0.9491  0.3208
  521MOL0     H71891   5.506  10.231   8.781 -0.8601 -0.4138  1.1950
  521MOL0     H71892   5.699  10.063   8.856 -0.6253  0.3185 -0.6165
  521MOL0     H71893   5.540  10.049   8.933 -0.3187  0.3664 -2.1124
  521MOL0     H71894   5.780  10.205   9.261  0.9619 -2.7293  0.9592
  521MOL0     H71895   5.584  10.406   8.517 -0.4221 -0.6607 -0.8073
  521MOL0     H71896   5.571  10.364   8.179  1.2999 -0.2797  1.2301
  521MOL0     H71897   5.477  10.338   8.331 -0.6316 -0.2908 -0.2707
  521MOL0     H71898   5.456  10.485   8.223  3.1700  3.3679 -0.1652
  522MOL0     O71899   6.405   2.224   8.580 -0.7847  0.9248  0.0014
  522MOL0     C71900   6.398   2.112   8.531 -0.1877 -0.4617  0.1220
  522MOL0     O71901   6.291   2.057   8.472 -0.0656 -0.1504  0.0953
  522MOL0     C71902   6.171   2.107   8.469 -0.6835 -0.2556 -1.1414
  522MOL0     C71903   6.081   2.049   8.378 -0.0167  0.3826 -0.1828
  522MOL0     C71904   5.949   2.086   8.352  0.3976  0.3674 -0.4622
  522MOL0     C71905   5.915   2.209   8.409 -0.2472  0.0035 -0.3567
  522MOL0     O71906   5.798   2.276   8.370 -0.7521 -0.5139 -0.0189
  522MOL0     C71907   5.797   2.417   8.335 -0.0055  0.5763 -1.0236
  522MOL0     C71908   5.688   2.443   8.224  0.5037 -0.4548 -0.4880
  522MOL0     C71909   5.543   2.395   8.245 -0.2980 -0.0887  0.3301
  522MOL0     C71910   5.448   2.440   8.126 -0.0826  0.0899 -1.7331
  522MOL0     C71911   5.391   2.580   8.153  0.7142 -0.0001  0.1966
  522MOL0     C71912   5.267   2.607   8.071 -0.3194  0.7417  1.1174
  522MOL0     C71913   5.180   2.718   8.130  0.3509 -0.4446 -0.4429
  522MOL0     C71914   5.115   2.791   8.010  0.5610  0.5085 -0.5669
  522MOL0     N71915   5.010   2.891   8.047 -0.3770  0.2913  0.0137
  522MOL0     C71916   4.867   2.878   8.056 -0.7929  0.6672 -0.1524
  522MOL0     C71917   4.819   2.999   8.091  0.1631 -0.2086  0.3886
  522MOL0     C71918   4.676   3.024   8.133 -0.0246 -0.0816  0.7526
  522MOL0     C71919   4.640   2.989   8.282 -0.4130  0.2039 -0.5172
  522MOL0     C71920   4.756   3.011   8.386  0.6531 -0.3966 -0.2686
  522MOL0     C71921   4.760   3.157   8.424  0.2186 -0.2411  0.7724
  522MOL0     O71922   4.821   3.181   8.550  0.5950 -0.8885 -0.2003
  522MOL0     C71923   4.953   3.171   8.563 -0.1327  0.0864 -0.0751
  522MOL0     C71924   5.046   3.180   8.461 -0.6684 -0.4516 -0.5104
  522MOL0     C71925   5.184   3.180   8.475 -0.0180 -0.1837 -1.0021
  522MOL0     C71926   5.273   3.200   8.356  0.0546 -0.2188 -0.2427
  522MOL0     C71927   5.234   3.141   8.603 -1.1907 -0.1335 -0.2343
  522MOL0     C71928   5.376   3.120   8.642 -0.5647  0.2075  0.3878
  522MOL0     O71929   5.477   3.113   8.546  0.1251  0.3947  0.2042
  522MOL0     C71930   5.609   3.115   8.580  0.7267  0.0714 -0.2909
  522MOL0     C71931   5.667   3.034   8.680 -1.0865  0.0661 -0.4837
  522MOL0     C71932   5.794   3.063   8.727 -0.5514  0.4206  0.0969
  522MOL0     C71933   5.873   3.165   8.666 -0.4076 -0.5843  0.6039
  522MOL0     O71934   6.001   3.180   8.712 -0.0334  0.0907  0.6937
  522MOL0     C71935   6.089   3.281   8.671  0.0689  0.0622 -0.9741
  522MOL0     C71936   6.212   3.289   8.761  0.3035 -0.7633 -0.3262
  522MOL0     C71937   6.283   3.425   8.758 -0.3455  0.4591 -0.1597
  522MOL0     C71938   6.392   3.443   8.647 -0.4168  0.5022  1.1239
  522MOL0     C71939   6.493   3.328   8.627  0.1881 -1.6871  0.2622
  522MOL0     C71940   6.588   3.386   8.518  0.2725  0.1123  1.0293
  522MOL0     C71941   6.707   3.295   8.497  1.1235 -0.1305 -1.2456
  522MOL0     C71942   6.790   3.256   8.623 -0.5404 -0.5284 -1.0279
  522MOL0    Cl71943   6.862   3.409   8.710  0.0156 -0.3788 -0.1569
  522MOL0     C71944   5.822   3.224   8.549  0.3642  0.6758 -0.5036
  522MOL0     C71945   5.695   3.195   8.507 -0.2606  0.0991  0.1068
  522MOL0     O71946   5.392   3.111   8.765  0.5485 -0.1383  0.9596
  522MOL0     C71947   5.133   3.115   8.704  0.6767 -0.3541 -0.3404
  522MOL0     C71948   4.998   3.129   8.686  0.1918  0.8506 -0.6556
  522MOL0     N71949   4.931   3.083   8.114  0.4778  0.7352  1.1549
  522MOL0     N71950   5.037   3.023   8.078 -0.2677  0.3558  0.4771
  522MOL0     C71951   5.997   2.278   8.500  0.2238 -0.2805  0.0914
  522MOL0     C71952   6.127   2.227   8.527  0.1616  0.2153 -0.0717
  522MOL0     C71953   6.521   2.036   8.521  0.1759  0.6444 -0.0737
  522MOL0     C71954   6.558   1.987   8.396 -0.6136 -0.6569  0.0990
  522MOL0     C71955   6.670   1.901   8.375  0.2417 -0.4457  0.5133
  522MOL0     C71956   6.756   1.869   8.480  0.6191  0.3955  0.2744
  522MOL0     O71957   6.860   1.778   8.461 -0.6775 -0.5380 -0.5407
  522MOL0     C71958   6.984   1.824   8.410  0.6050  0.2043  0.4749
  522MOL0     C71959   7.030   1.941   8.496  0.4793  0.0467  0.4427
  522MOL0     C71960   7.170   1.985   8.458 -0.4200  0.5574 -0.5217
  522MOL0     C71961   7.246   2.057   8.569  0.1804 -0.0929 -0.3425
  522MOL0     C71962   7.197   2.198   8.587 -0.0290  0.4923 -0.7372
  522MOL0     C71963   7.143   2.300   8.613  0.5448  0.2073 -0.8386
  522MOL0     C71964   6.726   1.925   8.608 -0.3092 -0.5371  0.1668
  522MOL0     C71965   6.608   2.003   8.624 -1.0573  0.0534  0.7028
  522MOL0     C71966   6.585   2.040   8.760  1.5684  0.3103 -0.3343
  522MOL0     H71967   6.117   1.960   8.328  0.6432  1.8930 -2.5694
  522MOL0     H71968   5.898   2.038   8.270  1.9668 -0.2998 -1.0942
  522MOL0     H71969   5.892   2.456   8.300 -0.4180  0.6689 -2.0729
  522MOL0     H71970   5.761   2.472   8.422 -2.2051 -1.7372 -0.3425
  522MOL0     H71971   5.695   2.551   8.205  2.1389 -0.4527 -0.0581
  522MOL0     H71972   5.721   2.396   8.130 -1.1412 -2.5492 -0.0813
  522MOL0     H71973   5.546   2.286   8.238  1.3785  0.0105 -0.9297
  522MOL0     H71974   5.499   2.416   8.343 -1.3992 -2.6624  0.4665
  522MOL0     H71975   5.496   2.444   8.028  1.5941  2.1628 -0.9004
  522MOL0     H71976   5.361   2.373   8.117 -0.0040  0.0046 -1.8593
  522MOL0     H71977   5.459   2.662   8.128  0.7313  0.4582  1.6367
  522MOL0     H71978   5.366   2.581   8.260  0.1120 -2.2500  0.1287
  522MOL0     H71979   5.296   2.617   7.966  0.4834 -1.4222  1.0753
  522MOL0     H71980   5.205   2.517   8.070 -1.8004  1.7077  1.8814
  522MOL0     H71981   5.239   2.785   8.192 -1.8707  0.8086  0.4498
  522MOL0     H71982   5.112   2.677   8.206  3.1532 -0.6525  2.0990
  522MOL0     H71983   5.192   2.834   7.947  2.6500 -3.1348 -0.8081
  522MOL0     H71984   5.058   2.725   7.944 -2.2064  2.4748 -0.3070
  522MOL0     H71985   4.821   2.780   8.045  2.5962 -1.0379 -0.5990
  522MOL0     H71986   4.602   2.981   8.064  0.9491 -0.2558 -0.2068
  522MOL0     H71987   4.657   3.131   8.122  0.8533 -0.0002 -0.1114
  522MOL0     H71988   4.550   3.034   8.327  1.3010  2.8011  0.5397
  522MOL0     H71989   4.623   2.881   8.287  1.7353 -0.1079  1.6903
  522MOL0     H71990   4.719   2.955   8.473 -3.7329  1.4697 -0.6812
  522MOL0     H71991   4.855   2.974   8.356  0.1875  0.8505 -3.7054
  522MOL0     H71992   4.814   3.226   8.358 -1.3340  2.8945  2.5229
  522MOL0     H71993   4.659   3.199   8.417  0.2657 -0.4320 -1.8092
  522MOL0     H71994   5.017   3.191   8.356  0.0226 -0.4834 -0.7083
  522MOL0     H71995   5.353   3.272   8.375  0.0998 -0.3091 -0.0861
  522MOL0     H71996   5.215   3.248   8.276 -0.9103 -2.1105 -0.7430
  522MOL0     H71997   5.303   3.099   8.326  1.0189 -0.2094  0.6507
  522MOL0     H71998   5.603   2.963   8.732  1.3654 -1.6433  0.3508
  522MOL0     H71999   5.841   3.006   8.806 -1.2297 -1.4096 -0.7585
  522MOL0     H72000   6.123   3.255   8.571 -1.5771  0.7057 -1.7389
  522MOL0     H72001   6.029   3.372   8.678 -0.4792 -0.3869  0.6072
  522MOL0     H72002   6.184   3.269   8.865  1.0282 -0.8833 -0.1454
  522MOL0     H72003   6.285   3.210   8.737  1.9525  0.4833  0.3612
  522MOL0     H72004   6.329   3.426   8.857 -2.4205  1.1866  0.8783
  522MOL0     H72005   6.210   3.507   8.755  0.9328  1.7268  1.4386
  522MOL0     H72006   6.449   3.531   8.679  1.7840 -1.1872  2.0455
  522MOL0     H72007   6.338   3.471   8.556  0.0381 -1.7510  0.0896
  522MOL0     H72008   6.538   3.310   8.725  0.7033  2.0414  0.8577
  522MOL0     H72009   6.453   3.231   8.594 -1.3576 -1.0364  0.1319
  522MOL0     H72010   6.631   3.479   8.555  1.4820  0.6475 -1.5207
  522MOL0     H72011   6.530   3.401   8.427  2.0185  1.3720  0.0663
  522MOL0     H72012   6.760   3.338   8.411  1.8832 -1.2492 -1.3558
  522MOL0     H72013   6.681   3.200   8.449  0.6976 -0.0119 -1.2584
  522MOL0     H72014   6.862   3.186   8.579 -4.0626 -3.3742 -2.8098
  522MOL0     H72015   6.735   3.199   8.698 -1.7708  1.8828  0.0332
  522MOL0     H72016   5.874   3.286   8.476 -0.8298 -1.4857 -3.4028
  522MOL0     H72017   5.645   3.251   8.429 -1.1967  1.0669  1.3492
  522MOL0     H72018   5.151   3.075   8.803  0.6572 -0.7861 -0.5095
  522MOL0     H72019   4.925   3.122   8.766  0.1105  4.7854 -0.1668
  522MOL0     H72020   5.964   2.368   8.549 -1.3085 -0.3231 -0.8188
  522MOL0     H72021   6.173   2.279   8.611  0.7754 -2.7528  1.5491
  522MOL0     H72022   6.509   2.022   8.306 -1.8359  3.9882  2.2361
  522MOL0     H72023   6.691   1.867   8.274  0.0811 -3.8930  1.5209
  522MOL0     H72024   7.047   1.738   8.434  1.5131  1.3205  2.4388
  522MOL0     H72025   6.994   1.836   8.302 -0.1575 -1.5509  0.1858
  522MOL0     H72026   7.038   1.894   8.595  2.3829 -1.3390 -0.3001
  522MOL0     H72027   6.956   2.021   8.488 -1.5204 -1.4419  2.6747
  522MOL0     H72028   7.222   1.891   8.438  0.5450  1.0183 -0.2791
  522MOL0     H72029   7.163   2.052   8.372 -1.5423  0.5542 -0.4393
  522MOL0     H72030   7.352   2.063   8.540 -0.2206 -0.2724 -1.9288
  522MOL0     H72031   7.246   2.006   8.666 -2.7459  3.9232  2.0811
  522MOL0     H72032   7.087   2.391   8.621 -1.5749 -1.1073  0.3125
  522MOL0     H72033   6.796   1.925   8.691  0.1507 -3.9900 -0.1011
  522MOL0     H72034   6.623   1.960   8.824 -0.5439  0.1159  0.7824
  522MOL0     H72035   6.627   2.137   8.788  0.5905  0.7283 -0.2717
  522MOL0     H72036   6.479   2.044   8.786  1.3866 -1.5853 -0.6665
  523MOL0     O72037   9.317   9.122   7.772  0.7092 -0.1424 -0.3247
  523MOL0     C72038   9.306   9.006   7.811  0.2877  0.1993 -1.0186
  523MOL0     O72039   9.400   8.942   7.893 -0.0189 -1.0270 -0.0643
  523MOL0     C72040   9.500   9.022   7.939 -0.0401  0.5647 -0.1236
  523MOL0     C72041   9.625   9.019   7.897  0.3783  0.1812 -0.4707
  523MOL0     C72042   9.727   9.105   7.950  0.2852 -0.8057  0.8091
  523MOL0     C72043   9.696   9.181   8.064  0.8083  0.8814  0.1343
  523MOL0     O72044   9.783   9.260   8.136 -1.1795 -0.5903  0.0247
  523MOL0     C72045   9.925   9.233   8.119 -0.1153  0.3948 -1.4327
  523MOL0     C72046  10.001   9.360   8.158  0.4352  0.1130  0.7792
  523MOL0     C72047  10.005   9.364   8.308 -0.6999 -0.2091 -1.0070
  523MOL0     C72048  10.138   9.418   8.359  0.3421  0.0191 -0.0945
  523MOL0     C72049  10.265   9.340   8.340  0.3817  0.4519  0.4551
  523MOL0     C72050  10.373   9.397   8.425 -0.2002 -0.5284  0.3618
  523MOL0     C72051  10.509   9.317   8.411  0.4300 -0.3894  0.9933
  523MOL0     C72052  10.616   9.404   8.486  0.1291 -0.0094  0.4160
  523MOL0     N72053  10.652   9.336   8.610  0.7529 -0.3663 -0.5288
  523MOL0     C72054  10.706   9.210   8.627  0.6847  0.9723 -0.6433
  523MOL0     C72055  10.722   9.209   8.762  0.0885 -0.3990 -0.6838
  523MOL0     C72056  10.806   9.107   8.834 -0.2988  0.3517  0.3838
  523MOL0     C72057  10.943   9.081   8.770  1.0834 -0.1302 -1.1104
  523MOL0     C72058  11.026   8.988   8.862  0.6616  0.7779 -0.0178
  523MOL0     C72059  11.155   8.946   8.785  0.2907 -0.0814  0.0822
  523MOL0     O72060  11.252   9.046   8.764 -0.2733 -0.1054  0.0664
  523MOL0     C72061  11.365   9.014   8.695  0.7123  0.6502  0.1439
  523MOL0     C72062  11.483   9.064   8.741 -0.3626  0.4597  0.4043
  523MOL0     C72063  11.609   9.046   8.682 -1.2358  0.4559  0.7057
  523MOL0     C72064  11.733   9.102   8.740 -0.0171  0.6003 -0.1163
  523MOL0     C72065  11.615   8.962   8.562  0.1840  0.0944  0.1039
  523MOL0     C72066  11.731   8.922   8.480 -1.0673  0.4911  0.1065
  523MOL0     O72067  11.720   8.807   8.402  0.7627  0.1573 -0.4603
  523MOL0     C72068  11.828   8.770   8.318  0.6496 -0.1636 -0.2009
  523MOL0     C72069  11.890   8.653   8.344 -0.4430  0.9491  0.9760
  523MOL0     C72070  11.966   8.599   8.237 -0.6713 -0.3392  0.5947
  523MOL0     C72071  11.990   8.663   8.113 -0.4694  0.3722 -0.2665
  523MOL0     O72072  12.064   8.610   8.008 -0.0114  0.0365  0.6455
  523MOL0     C72073  12.162   8.506   8.037  0.0089  1.2989 -0.0953
  523MOL0     C72074  12.280   8.557   8.109 -0.9599  0.3037  0.1375
  523MOL0     C72075  12.371   8.645   8.015 -0.5162 -0.0688 -0.3091
  523MOL0     C72076  12.487   8.664   8.100  0.0882 -0.0084 -0.2723
  523MOL0     C72077  12.595   8.759   8.046 -0.5915  0.6983  0.3863
  523MOL0     C72078  12.571   8.905   8.101  0.1229 -0.9135  0.1156
  523MOL0     C72079  12.705   8.976   8.098 -0.7643  0.2888  0.3007
  523MOL0     C72080  12.711   9.128   8.116 -0.4830  0.3982  0.2054
  523MOL0    Cl72081  12.879   9.199   8.109 -0.0605 -0.0853  0.3774
  523MOL0     C72082  11.928   8.789   8.097 -0.3779 -0.5383  0.3989
  523MOL0     C72083  11.841   8.833   8.198  0.6218 -0.5645 -0.7468
  523MOL0     O72084  11.826   9.000   8.468 -0.4533  0.0853  0.4115
  523MOL0     C72085  11.489   8.909   8.523  0.4336  0.3958  0.2389
  523MOL0     C72086  11.367   8.931   8.580  0.7894 -0.0344 -0.4347
  523MOL0     N72087  10.694   9.336   8.819 -0.5952 -0.2789 -0.5921
  523MOL0     N72088  10.649   9.409   8.726 -0.1294  0.9552 -0.4875
  523MOL0     C72089   9.582   9.162   8.121  0.8792  0.8512 -0.2493
  523MOL0     C72090   9.478   9.087   8.062  0.1561 -0.0731  0.3993
  523MOL0     C72091   9.186   8.922   7.772 -0.7970  0.8271  0.0808
  523MOL0     C72092   9.173   8.802   7.840 -0.4118 -0.3397 -0.6304
  523MOL0     C72093   9.072   8.705   7.809 -0.9889 -0.0161  0.9098
  523MOL0     C72094   8.971   8.728   7.716  0.1619  0.1417  0.2662
  523MOL0     O72095   8.870   8.635   7.704 -0.0277  0.0417 -0.6603
  523MOL0     C72096   8.739   8.669   7.652  0.2299  0.6526 -0.0624
  523MOL0     C72097   8.658   8.783   7.721 -0.8935  0.0542 -0.4656
  523MOL0     C72098   8.638   8.743   7.868 -0.5958 -1.7737 -0.0739
  523MOL0     C72099   8.527   8.835   7.926  0.9114  0.0746 -0.0156
  523MOL0     C72100   8.397   8.797   7.863  0.2355 -0.3790  0.2268
  523MOL0     C72101   8.280   8.774   7.828 -1.3806  0.1699  0.2289
  523MOL0     C72102   8.983   8.854   7.647  0.5732  0.1235  0.5179
  523MOL0     C72103   9.096   8.944   7.672 -0.5083 -0.0311  0.0114
  523MOL0     C72104   9.112   9.060   7.565  0.2332 -0.3068 -0.3637
  523MOL0     H72105   9.644   8.964   7.805 -2.9177 -0.0138 -1.1518
  523MOL0     H72106   9.822   9.106   7.897 -0.7246  0.9118 -1.0727
  523MOL0     H72107   9.952   9.210   8.016  3.9611 -2.4964  0.0665
  523MOL0     H72108   9.946   9.141   8.175 -1.5451  0.6045 -0.4732
  523MOL0     H72109  10.104   9.346   8.124  0.8800  1.8921  1.2832
  523MOL0     H72110   9.961   9.452   8.116 -0.3718  0.2945  1.8940
  523MOL0     H72111   9.921   9.421   8.346  0.3017  1.4388 -1.1561
  523MOL0     H72112  10.001   9.260   8.342 -0.1171  0.4000  1.0925
  523MOL0     H72113  10.155   9.519   8.320  0.9001 -0.3602 -0.8537
  523MOL0     H72114  10.129   9.437   8.467 -0.4567 -1.5904  0.1519
  523MOL0     H72115  10.291   9.333   8.234  1.2228  0.1416  0.6710
  523MOL0     H72116  10.241   9.237   8.368 -1.1288  0.9901  1.2720
  523MOL0     H72117  10.383   9.503   8.398 -0.2210  0.0129  2.3492
  523MOL0     H72118  10.343   9.402   8.529 -0.7315 -3.3627  0.4243
  523MOL0     H72119  10.525   9.313   8.303 -1.0793  3.6497  0.4539
  523MOL0     H72120  10.497   9.219   8.457 -0.2336  0.5904  3.0341
  523MOL0     H72121  10.705   9.418   8.424  2.2248 -0.4101  3.0901
  523MOL0     H72122  10.581   9.505   8.508  1.4199  0.8116 -1.0627
  523MOL0     H72123  10.744   9.130   8.565  0.4789  0.4312 -0.0751
  523MOL0     H72124  10.752   9.013   8.848  0.9464 -0.8665 -2.3685
  523MOL0     H72125  10.819   9.158   8.930  0.7501  3.2977 -1.1938
  523MOL0     H72126  10.923   9.031   8.675 -0.2815  1.4776 -1.7223
  523MOL0     H72127  10.993   9.177   8.756 -0.2764  0.5861 -1.2566
  523MOL0     H72128  11.043   9.032   8.961 -1.3419  2.6587 -0.4090
  523MOL0     H72129  10.968   8.896   8.870 -0.8680  1.5969 -1.0289
  523MOL0     H72130  11.195   8.851   8.822 -0.3874 -1.8690 -3.4004
  523MOL0     H72131  11.135   8.916   8.682  3.7361  0.2235 -0.8154
  523MOL0     H72132  11.476   9.124   8.831 -2.3905 -2.3485  2.2657
  523MOL0     H72133  11.800   9.151   8.669 -0.0540 -1.1480 -1.4337
  523MOL0     H72134  11.790   9.029   8.799  0.9234  0.5883 -1.0133
  523MOL0     H72135  11.708   9.168   8.823 -1.5546 -0.7106  0.5193
  523MOL0     H72136  11.879   8.586   8.429  0.5810 -0.3206  0.1241
  523MOL0     H72137  11.998   8.495   8.243  0.8719 -0.0806 -1.7476
  523MOL0     H72138  12.111   8.418   8.076 -2.3500  1.0545 -3.3172
  523MOL0     H72139  12.196   8.467   7.941 -2.1566 -1.1552  0.0454
  523MOL0     H72140  12.249   8.606   8.201  2.1810  0.4373  1.2376
  523MOL0     H72141  12.345   8.473   8.137  0.2614  1.6202  1.4650
  523MOL0     H72142  12.321   8.740   7.992 -2.8766 -0.9817  0.7828
  523MOL0     H72143  12.405   8.594   7.925 -2.5559  2.4676 -2.6975
  523MOL0     H72144  12.534   8.567   8.115 -0.4328 -0.3453 -0.7754
  523MOL0     H72145  12.454   8.700   8.198 -1.4081 -2.2486  0.1079
  523MOL0     H72146  12.690   8.727   8.089 -0.3323  0.7329 -0.1517
  523MOL0     H72147  12.596   8.752   7.937 -3.6283  0.2351  0.2849
  523MOL0     H72148  12.537   8.912   8.205  2.0894  2.5691  0.6745
  523MOL0     H72149  12.498   8.958   8.039 -1.0445 -2.2615  0.3043
  523MOL0     H72150  12.751   8.955   8.001  0.8582  1.5162  0.7473
  523MOL0     H72151  12.764   8.931   8.178  0.6667 -1.5616 -1.6738
  523MOL0     H72152  12.666   9.141   8.215 -0.0444  1.8741  0.2466
  523MOL0     H72153  12.638   9.162   8.042 -0.6919 -3.5751 -1.6534
  523MOL0     H72154  11.914   8.838   8.001 -2.0023  0.5865  1.1727
  523MOL0     H72155  11.782   8.919   8.168 -2.5926 -1.0524  3.3109
  523MOL0     H72156  11.487   8.835   8.444  0.1291 -3.2158  3.3400
  523MOL0     H72157  11.273   8.902   8.534  1.4402 -1.2666 -1.0474
  523MOL0     H72158   9.570   9.213   8.216  0.2961  0.5595 -0.1595
  523MOL0     H72159   9.391   9.060   8.121  0.5029  0.1878  1.0370
  523MOL0     H72160   9.220   8.781   7.935 -4.1211  0.7760  1.6727
  523MOL0     H72161   9.072   8.617   7.873  1.6378 -1.1335 -0.4872
  523MOL0     H72162   8.743   8.706   7.550  2.2046  1.9537  0.4167
  523MOL0     H72163   8.680   8.580   7.628  1.3810 -0.2404  0.2917
  523MOL0     H72164   8.565   8.793   7.663 -0.2184  1.2246 -1.4040
  523MOL0     H72165   8.718   8.874   7.713  0.4103 -0.8640 -2.0420
  523MOL0     H72166   8.604   8.641   7.882  1.9247 -2.4012  2.4305
  523MOL0     H72167   8.728   8.758   7.928 -0.4762  1.1132 -0.8076
  523MOL0     H72168   8.550   8.935   7.889  0.9476 -0.0723 -0.3983
  523MOL0     H72169   8.521   8.833   8.035 -2.2669 -0.0701 -0.1088
  523MOL0     H72170   8.189   8.759   7.774 -1.3426  2.5352 -0.6085
  523MOL0     H72171   8.904   8.886   7.580 -1.7996 -0.2457  2.9378
  523MOL0     H72172   9.083   9.020   7.467 -4.7170  1.7065 -0.0440
  523MOL0     H72173   9.043   9.141   7.592 -0.3364 -1.0302  0.4189
  523MOL0     H72174   9.210   9.107   7.567  0.2455 -0.2805 -1.2885
  524MOL0     O72175   1.712   9.926   7.645  0.3296 -0.1404  0.4069
  524MOL0     C72176   1.709   9.807   7.596  0.3009 -0.4918 -0.3492
  524MOL0     O72177   1.802   9.713   7.616 -0.2772 -0.4052 -0.4137
  524MOL0     C72178   1.865   9.707   7.738 -0.6270 -0.6611 -0.5679
  524MOL0     C72179   1.983   9.641   7.740  0.2017 -0.3124 -0.5503
  524MOL0     C72180   2.056   9.625   7.860  0.2972  0.1296 -0.3001
  524MOL0     C72181   2.012   9.668   7.982  0.1919  0.3483 -0.1435
  524MOL0     O72182   2.080   9.656   8.099  0.7902 -0.1561 -0.0160
  524MOL0     C72183   2.220   9.645   8.089 -1.2204 -0.7887 -0.0287
  524MOL0     C72184   2.248   9.493   8.109  0.8492  0.3888  0.3732
  524MOL0     C72185   2.397   9.463   8.115  0.1543 -0.1062 -0.2593
  524MOL0     C72186   2.437   9.362   8.220 -0.1215  0.6714  0.2627
  524MOL0     C72187   2.379   9.224   8.218  0.5163 -0.3027  0.4319
  524MOL0     C72188   2.440   9.142   8.105 -0.7138 -0.0424  0.6699
  524MOL0     C72189   2.365   9.008   8.092 -0.2915 -0.3354  0.1801
  524MOL0     C72190   2.365   8.947   7.952 -0.3546  0.1383 -1.0966
  524MOL0     N72191   2.278   8.830   7.941 -0.1482  0.7833  0.7409
  524MOL0     C72192   2.237   8.746   8.043  0.0407 -0.2581 -0.0318
  524MOL0     C72193   2.182   8.646   7.967  0.4659  0.6343  0.2206
  524MOL0     C72194   2.110   8.524   8.036 -0.4219 -0.2432  0.6599
  524MOL0     C72195   2.015   8.460   7.935  0.4151 -0.5332 -0.6312
  524MOL0     C72196   1.965   8.326   8.003  0.0261  0.2866  0.3923
  524MOL0     C72197   2.059   8.210   7.987  0.8638  0.7113 -0.1584
  524MOL0     O72198   2.116   8.184   7.856  0.2685  0.0090  0.7016
  524MOL0     C72199   2.027   8.158   7.759  0.1209  0.6099 -0.1930
  524MOL0     C72200   1.956   8.041   7.764 -0.7430  0.1623  0.4700
  524MOL0     C72201   1.869   7.995   7.660  0.3484  0.0295 -0.0367
  524MOL0     C72202   1.799   7.866   7.675 -1.0315 -0.0426  0.8687
  524MOL0     C72203   1.849   8.075   7.540 -0.3932 -0.4623 -0.5714
  524MOL0     C72204   1.750   8.036   7.438 -0.4925  0.3226  0.0884
  524MOL0     O72205   1.811   8.000   7.320  0.3576  0.0686 -0.2793
  524MOL0     C72206   1.722   7.951   7.228  1.2284  0.0465  0.4562
  524MOL0     C72207   1.699   8.016   7.102  0.9233 -0.2512  0.5058
  524MOL0     C72208   1.598   7.959   7.016 -1.3103  0.0293 -0.3881
  524MOL0     C72209   1.545   7.827   7.025  0.3384 -0.2227 -0.0538
  524MOL0     O72210   1.458   7.769   6.935  0.2503  1.0165 -1.2034
  524MOL0     C72211   1.396   7.867   6.851 -0.5991 -0.1771 -0.0865
  524MOL0     C72212   1.281   7.822   6.757  0.4609  0.0279  0.1368
  524MOL0     C72213   1.162   7.780   6.845 -0.5663  0.1367 -0.2742
  524MOL0     C72214   1.073   7.893   6.898 -0.5126 -0.2767 -0.1522
  524MOL0     C72215   1.026   8.000   6.795 -0.4924 -0.1248 -0.1837
  524MOL0     C72216   0.914   8.079   6.857  0.4180 -0.4128  0.1427
  524MOL0     C72217   0.969   8.193   6.949  0.2413  0.0255 -0.3496
  524MOL0     C72218   0.920   8.334   6.928 -0.6208  0.2904 -0.0268
  524MOL0    Cl72219   0.739   8.357   6.919 -0.0163  0.5701  0.2369
  524MOL0     C72220   1.579   7.758   7.143 -0.3501  0.6676  0.4577
  524MOL0     C72221   1.662   7.824   7.244 -0.4130  0.6154  0.5025
  524MOL0     O72222   1.630   8.045   7.465  1.2195  0.0468  0.5941
  524MOL0     C72223   1.924   8.196   7.538  0.1541 -0.0071 -0.2214
  524MOL0     C72224   2.007   8.235   7.647  0.7867  0.6286  0.7132
  524MOL0     N72225   2.175   8.679   7.835 -0.1168  0.0750 -0.0159
  524MOL0     N72226   2.236   8.793   7.822  0.1985 -0.4918  0.5961
  524MOL0     C72227   1.878   9.726   7.987 -0.6297 -0.6049  1.3355
  524MOL0     C72228   1.808   9.748   7.868 -0.5049 -0.6063  1.5370
  524MOL0     C72229   1.594   9.767   7.504  0.0360 -0.5714 -0.1133
  524MOL0     C72230   1.613   9.645   7.425  0.3648 -0.5861  0.1254
  524MOL0     C72231   1.521   9.604   7.330  0.0512 -0.0083 -0.1885
  524MOL0     C72232   1.401   9.673   7.318 -0.3783 -0.1731 -0.2653
  524MOL0     O72233   1.304   9.627   7.234  0.4746  0.0663 -0.1199
  524MOL0     C72234   1.318   9.691   7.107  0.1069  0.9451 -0.1753
  524MOL0     C72235   1.250   9.831   7.095 -0.0153  0.8874 -0.0068
  524MOL0     C72236   1.093   9.814   7.132  0.5935 -0.2411  0.2771
  524MOL0     C72237   1.023   9.866   7.004  0.2903  0.1366  0.1655
  524MOL0     C72238   1.035   9.772   6.881 -0.6727 -0.8293  0.5786
  524MOL0     C72239   1.054   9.692   6.795 -0.2097  0.4122  0.2827
  524MOL0     C72240   1.374   9.778   7.404 -0.8400 -0.4042  0.4519
  524MOL0     C72241   1.473   9.834   7.483  1.1824  0.7977  0.4925
  524MOL0     C72242   1.427   9.945   7.570 -0.1832 -0.0033 -0.4217
  524MOL0     H72243   2.021   9.591   7.651  3.3346 -1.4563  1.2513
  524MOL0     H72244   2.152   9.575   7.858  2.0948  3.2975 -0.4577
  524MOL0     H72245   2.262   9.710   8.166 -0.1349 -1.1722 -0.2885
  524MOL0     H72246   2.265   9.682   7.997 -1.6392  2.1399  0.8547
  524MOL0     H72247   2.198   9.468   8.203 -0.8955 -5.1213 -1.6201
  524MOL0     H72248   2.193   9.440   8.031 -1.4987 -1.1409  2.9015
  524MOL0     H72249   2.429   9.425   8.018 -2.0435  2.2897 -2.0710
  524MOL0     H72250   2.449   9.558   8.127  1.8509 -1.2056  1.7297
  524MOL0     H72251   2.546   9.357   8.206 -0.1685 -2.3500  0.3176
  524MOL0     H72252   2.433   9.402   8.322 -0.0256  0.7796  0.2248
  524MOL0     H72253   2.270   9.236   8.218  0.5377  0.4225 -1.7571
  524MOL0     H72254   2.405   9.175   8.312  5.3356  1.5320  0.3436
  524MOL0     H72255   2.439   9.192   8.007 -1.4164 -0.1363  0.6249
  524MOL0     H72256   2.544   9.119   8.130 -0.8234  0.6012  1.7812
  524MOL0     H72257   2.261   9.027   8.121 -0.6576 -2.4180  0.4166
  524MOL0     H72258   2.412   8.935   8.158  5.5273  0.3501 -2.5905
  524MOL0     H72259   2.330   9.025   7.884 -1.5450 -0.3652 -1.0879
  524MOL0     H72260   2.463   8.909   7.922  0.8226  0.0043  2.4943
  524MOL0     H72261   2.245   8.757   8.151  2.7723 -3.1314  0.2034
  524MOL0     H72262   2.053   8.552   8.125 -2.0173  1.2052 -0.7332
  524MOL0     H72263   2.187   8.452   8.066  0.7102  0.5426 -0.2716
  524MOL0     H72264   1.934   8.533   7.932  1.7106  0.9610 -3.6360
  524MOL0     H72265   2.058   8.441   7.836 -1.0210  1.9771 -1.8089
  524MOL0     H72266   1.931   8.342   8.106 -2.6672 -1.0725 -0.1990
  524MOL0     H72267   1.870   8.306   7.953  1.7314  1.2427 -3.6154
  524MOL0     H72268   2.137   8.232   8.061  2.7293 -2.0126 -1.1469
  524MOL0     H72269   2.008   8.122   8.027 -2.3776  3.4244  2.2736
  524MOL0     H72270   1.969   7.970   7.845 -2.4896 -1.3798 -0.5170
  524MOL0     H72271   1.822   7.794   7.597 -0.9275 -0.7569  1.5406
  524MOL0     H72272   1.691   7.885   7.673 -0.7624  1.5759 -0.0399
  524MOL0     H72273   1.821   7.816   7.770 -1.9376 -0.8470  0.6741
  524MOL0     H72274   1.730   8.119   7.085 -4.5356  1.6998  0.5180
  524MOL0     H72275   1.583   8.022   6.929  3.3066 -0.6890 -1.9790
  524MOL0     H72276   1.358   7.952   6.909  0.0403 -1.1076  1.7575
  524MOL0     H72277   1.473   7.907   6.784  0.9445 -0.9829  1.1484
  524MOL0     H72278   1.248   7.895   6.683 -0.3532  0.3795  0.8355
  524MOL0     H72279   1.319   7.734   6.702 -0.4621  0.2878 -0.9426
  524MOL0     H72280   1.203   7.729   6.933 -3.9986  0.6777  1.8031
  524MOL0     H72281   1.103   7.716   6.779 -0.1822  0.5127 -0.9963
  524MOL0     H72282   1.113   7.931   6.993 -2.4578 -2.7221  1.8144
  524MOL0     H72283   0.989   7.834   6.936  0.7198 -1.2989  1.0905
  524MOL0     H72284   1.116   8.058   6.771 -0.5098 -0.3729 -0.8590
  524MOL0     H72285   1.003   7.955   6.699 -0.9913 -1.2734  0.4583
  524MOL0     H72286   0.846   8.016   6.914 -0.4552  0.4293  0.0598
  524MOL0     H72287   0.847   8.119   6.780  1.5579  0.3381 -0.5044
  524MOL0     H72288   1.077   8.188   6.940  0.2292 -1.0412 -0.0327
  524MOL0     H72289   0.951   8.155   7.050  3.3438 -0.0719  0.2469
  524MOL0     H72290   0.953   8.361   6.827 -0.9373  2.1489  0.3312
  524MOL0     H72291   0.970   8.395   7.004  2.1058 -1.7346 -0.0737
  524MOL0     H72292   1.540   7.657   7.144 -0.8580  0.6206 -3.9957
  524MOL0     H72293   1.686   7.780   7.341 -2.3680 -1.9187 -0.0629
  524MOL0     H72294   1.907   8.264   7.455  1.0143  0.6506  0.1367
  524MOL0     H72295   2.052   8.334   7.638 -1.2468  1.4806 -1.0701
  524MOL0     H72296   1.836   9.749   8.084  0.6357  1.6113  1.4015
  524MOL0     H72297   1.711   9.794   7.883  0.3928  1.2522  1.9813
  524MOL0     H72298   1.702   9.587   7.447  0.7076 -0.3337 -0.5747
  524MOL0     H72299   1.553   9.526   7.262  2.5211  0.5053  0.2722
  524MOL0     H72300   1.422   9.691   7.075  0.3829 -2.4543  0.3963
  524MOL0     H72301   1.268   9.633   7.028  4.1175  0.0400 -2.2891
  524MOL0     H72302   1.257   9.860   6.990 -1.9416  0.7819 -0.1919
  524MOL0     H72303   1.292   9.905   7.163  2.2308 -1.0411  0.8417
  524MOL0     H72304   1.067   9.720   7.181 -1.2618 -0.6634 -1.4056
  524MOL0     H72305   1.077   9.891   7.208 -1.6338 -1.0429  0.6824
  524MOL0     H72306   1.043   9.973   6.991 -1.1004  0.4575  0.4480
  524MOL0     H72307   0.915   9.863   7.022  0.3309 -0.2446  0.3436
  524MOL0     H72308   1.056   9.625   6.711 -1.6641 -1.3649  1.5873
  524MOL0     H72309   1.273   9.816   7.391  0.3628  3.2645  0.4709
  524MOL0     H72310   1.488  10.035   7.575 -0.2708  0.0081  0.9529
  524MOL0     H72311   1.342   9.996   7.524  0.0446 -0.2736 -1.1453
  524MOL0     H72312   1.400   9.918   7.673 -1.0222  2.8179  0.1963
  525MOL0     O72313   7.551   9.772   3.118 -0.1156  0.1642  0.4214
  525MOL0     C72314   7.628   9.678   3.103 -0.9787 -0.0822 -0.4198
  525MOL0     O72315   7.770   9.684   3.075 -0.2866 -0.1245 -0.1440
  525MOL0     C72316   7.811   9.812   3.075  0.4456 -0.2523  0.0492
  525MOL0     C72317   7.794   9.887   2.962 -0.1942 -0.8470  0.6359
  525MOL0     C72318   7.830  10.017   2.959 -0.9958 -0.7256  0.6074
  525MOL0     C72319   7.898  10.076   3.072 -0.2884  0.6224  0.2350
  525MOL0     O72320   7.937  10.205   3.085 -0.0163 -1.0959  0.0774
  525MOL0     C72321   7.946  10.295   2.970  0.5095 -0.2932  0.6561
  525MOL0     C72322   7.809  10.363   2.945  0.7777 -0.0271 -0.0936
  525MOL0     C72323   7.769  10.482   3.031 -0.7790  0.1259  0.4943
  525MOL0     C72324   7.806  10.487   3.178 -0.6739  0.4683  1.0604
  525MOL0     C72325   7.730  10.579   3.262 -0.3470  0.0516 -0.6715
  525MOL0     C72326   7.726  10.726   3.205 -1.0754  0.0279  0.5810
  525MOL0     C72327   7.872  10.798   3.208  0.4307  0.7846 -0.1844
  525MOL0     C72328   7.862  10.947   3.187  0.1085  0.3309  0.2881
  525MOL0     N72329   7.984  11.023   3.178  0.4894  0.0183  0.0379
  525MOL0     C72330   8.063  11.071   3.280 -0.6308 -0.8738 -0.2875
  525MOL0     C72331   8.167  11.144   3.230  0.1668 -0.6480  0.2055
  525MOL0     C72332   8.273  11.230   3.304 -0.0292  0.7055 -0.5366
  525MOL0     C72333   8.240  11.380   3.300 -0.3929  0.0029  0.5968
  525MOL0     C72334   8.351  11.457   3.364 -0.5712 -0.1779  0.5601
  525MOL0     C72335   8.300  11.599   3.402 -0.1469  0.5642  0.1659
  525MOL0     O72336   8.265  11.673   3.280  0.7129 -0.3822 -0.3088
  525MOL0     C72337   8.231  11.806   3.296  0.2857  0.2579  0.7428
  525MOL0     C72338   8.213  11.869   3.416 -0.3041  0.7348 -0.2120
  525MOL0     C72339   8.176  12.008   3.414 -0.4999  0.7112 -0.7328
  525MOL0     C72340   8.152  12.068   3.548  0.2136  0.0697  1.2210
  525MOL0     C72341   8.143  12.075   3.294 -0.3523 -0.2589 -0.1337
  525MOL0     C72342   8.084  12.217   3.280 -0.2550 -0.1939 -0.2981
  525MOL0     O72343   8.031  12.239   3.149  0.0027 -0.0228 -0.3363
  525MOL0     C72344   7.950  12.357   3.135 -0.4528 -0.4778 -0.4903
  525MOL0     C72345   7.832  12.353   3.063 -0.1598  0.2723 -0.4463
  525MOL0     C72346   7.745  12.467   3.038  0.2684 -0.7841  0.1975
  525MOL0     C72347   7.795  12.589   3.084 -0.4658  0.6446 -0.4043
  525MOL0     O72348   7.731  12.710   3.057  0.4062 -0.2716 -0.5278
  525MOL0     C72349   7.714  12.745   2.924  0.5666 -0.1428  0.5540
  525MOL0     C72350   7.682  12.893   2.910 -0.0443 -0.2596 -1.1108
  525MOL0     C72351   7.710  12.944   2.762  0.5733  0.0178  0.2865
  525MOL0     C72352   7.642  12.844   2.652  0.1895 -0.8151 -0.0037
  525MOL0     C72353   7.626  12.933   2.524 -0.6523 -0.5245  0.7986
  525MOL0     C72354   7.505  13.024   2.534 -0.2336  0.1924 -0.0540
  525MOL0     C72355   7.492  13.122   2.412  0.1921 -0.2898 -0.1952
  525MOL0     C72356   7.372  13.214   2.428  0.8753 -0.1055 -0.1476
  525MOL0    Cl72357   7.379  13.343   2.301  0.3852 -0.0472 -0.2747
  525MOL0     C72358   7.920  12.603   3.155 -0.3832 -0.0955  0.2209
  525MOL0     C72359   7.991  12.488   3.183  0.3438  0.5760  0.1976
  525MOL0     O72360   8.073  12.295   3.377 -0.5034 -0.3963 -0.0256
  525MOL0     C72361   8.162  12.004   3.171  0.0765 -0.1980  0.6837
  525MOL0     C72362   8.205  11.871   3.171  0.0497 -0.6500  0.2094
  525MOL0     N72363   8.172  11.109   3.100  0.3421 -0.5838 -0.0930
  525MOL0     N72364   8.058  11.050   3.057  1.1941 -0.5531 -0.2759
  525MOL0     C72365   7.935   9.995   3.184  0.0567 -0.6679  0.0667
  525MOL0     C72366   7.887   9.861   3.186  0.7554 -0.3053 -0.1686
  525MOL0     C72367   7.571   9.542   3.108 -0.0092  0.2222  0.8894
  525MOL0     C72368   7.655   9.436   3.082 -0.4580 -0.5112  0.6994
  525MOL0     C72369   7.615   9.306   3.066  0.3310 -0.2009  0.7453
  525MOL0     C72370   7.482   9.271   3.102 -0.8864 -0.1672 -0.1144
  525MOL0     O72371   7.444   9.142   3.092 -0.3309  0.4510 -0.5157
  525MOL0     C72372   7.391   9.078   3.208 -0.3953 -0.1872  0.7281
  525MOL0     C72373   7.268   8.997   3.171 -0.2005  1.6448  0.0436
  525MOL0     C72374   7.138   9.075   3.139  0.5201 -0.2600  0.3512
  525MOL0     C72375   7.102   9.050   2.989  0.5334  0.3521  1.3569
  525MOL0     C72376   7.198   9.111   2.893  0.4398  0.7808  0.2033
  525MOL0     C72377   7.264   9.159   2.806 -1.1435 -0.3672 -0.1970
  525MOL0     C72378   7.407   9.376   3.164 -0.8884 -0.1003 -0.1346
  525MOL0     C72379   7.433   9.511   3.162 -0.3585  0.2072  0.8443
  525MOL0     C72380   7.330   9.613   3.203 -0.8834  0.0085  0.6262
  525MOL0     H72381   7.738   9.836   2.885 -1.0758 -2.3288  2.2036
  525MOL0     H72382   7.820  10.077   2.869 -1.9201  0.5525  1.5245
  525MOL0     H72383   7.981  10.237   2.884 -0.7785 -2.0270  1.2344
  525MOL0     H72384   8.009  10.380   2.996 -1.3557  0.8643  1.6097
  525MOL0     H72385   7.816  10.413   2.848 -1.1653  0.7107  0.1086
  525MOL0     H72386   7.738  10.280   2.942  2.6114 -1.7077 -4.1399
  525MOL0     H72387   7.807  10.570   2.978 -0.6556  0.2572  0.7986
  525MOL0     H72388   7.662  10.481   3.012 -0.2632 -0.6196 -3.1962
  525MOL0     H72389   7.788  10.385   3.214  0.4331 -0.0771  0.1195
  525MOL0     H72390   7.911  10.517   3.180 -0.2150 -0.1020 -3.9715
  525MOL0     H72391   7.761  10.583   3.367  1.5615  1.5999 -1.2360
  525MOL0     H72392   7.625  10.549   3.270 -0.6389  1.4160  1.6611
  525MOL0     H72393   7.693  10.736   3.101  3.1040  1.2480 -0.8649
  525MOL0     H72394   7.655  10.781   3.267 -0.2583  0.4090  1.2017
  525MOL0     H72395   7.939  10.753   3.134 -0.1168  0.2243 -0.3472
  525MOL0     H72396   7.896  10.778   3.313  2.0407 -3.4950 -1.1825
  525MOL0     H72397   7.805  10.964   3.095  1.7928 -0.6661 -1.0033
  525MOL0     H72398   7.802  10.992   3.266  0.4126 -1.0864  1.3455
  525MOL0     H72399   8.040  11.062   3.386 -2.5118  2.4092 -0.3093
  525MOL0     H72400   8.370  11.216   3.255  0.4370  2.1382 -0.0614
  525MOL0     H72401   8.284  11.197   3.407 -1.5193 -1.4132 -0.9979
  525MOL0     H72402   8.238  11.416   3.197 -2.7054 -2.2588 -0.2484
  525MOL0     H72403   8.146  11.396   3.353 -1.7869 -1.7295 -1.1841
  525MOL0     H72404   8.386  11.408   3.455 -3.3449  0.8951  2.3438
  525MOL0     H72405   8.424  11.482   3.286  2.5925 -0.1025  3.3458
  525MOL0     H72406   8.215  11.590   3.469  0.4893  2.4005  1.2832
  525MOL0     H72407   8.387  11.655   3.438  0.6972  0.0382 -0.9989
  525MOL0     H72408   8.221  11.808   3.506  1.3224  1.5286  0.2245
  525MOL0     H72409   8.211  12.015   3.623  0.1881  0.4980  1.5446
  525MOL0     H72410   8.049  12.073   3.582 -0.2554  3.0533 -0.2842
  525MOL0     H72411   8.205  12.164   3.539  4.0767 -2.0315 -1.1775
  525MOL0     H72412   7.803  12.259   3.016 -2.2545  1.4375 -1.6446
  525MOL0     H72413   7.653  12.462   2.981  0.7401 -2.4742 -0.4813
  525MOL0     H72414   7.812  12.727   2.878  1.1392  1.0589  1.2492
  525MOL0     H72415   7.642  12.687   2.865  1.7365 -1.3621  0.2855
  525MOL0     H72416   7.580  12.917   2.941 -0.0964 -2.6104  0.8670
  525MOL0     H72417   7.757  12.935   2.978  2.3416 -4.1760 -0.9735
  525MOL0     H72418   7.816  12.965   2.746  0.6096  0.3166  0.8878
  525MOL0     H72419   7.657  13.039   2.767 -1.5849 -1.1752  1.4846
  525MOL0     H72420   7.550  12.815   2.702 -1.1160  3.8748  0.8580
  525MOL0     H72421   7.693  12.748   2.636  0.3423 -0.8250  0.5195
  525MOL0     H72422   7.719  12.987   2.506 -1.6038  1.4066  1.4471
  525MOL0     H72423   7.607  12.863   2.441 -0.6199  0.5199 -0.1109
  525MOL0     H72424   7.515  13.085   2.625  0.1133 -1.6237  1.1905
  525MOL0     H72425   7.408  12.974   2.541 -0.3746  0.4654 -0.0607
  525MOL0     H72426   7.479  13.061   2.322  0.2799  0.0188 -0.4184
  525MOL0     H72427   7.582  13.185   2.411  0.5525 -0.7810  0.4848
  525MOL0     H72428   7.375  13.265   2.525  1.4424 -2.1477  0.9541
  525MOL0     H72429   7.282  13.152   2.428  0.7203  0.0332 -2.5332
  525MOL0     H72430   7.951  12.701   3.190  1.3629 -0.0374 -1.3316
  525MOL0     H72431   8.082  12.500   3.241 -0.1125 -1.0217  1.3009
  525MOL0     H72432   8.150  12.042   3.070  1.1340 -1.1270  0.1786
  525MOL0     H72433   8.211  11.817   3.077 -1.2858  3.2320 -2.3434
  525MOL0     H72434   7.998  10.039   3.260  0.2709 -1.8362  0.5869
  525MOL0     H72435   7.915   9.800   3.271  1.8831  1.6628  0.9455
  525MOL0     H72436   7.759   9.457   3.063 -0.3837 -0.8520  0.7122
  525MOL0     H72437   7.676   9.230   3.020 -0.2093  0.2465 -0.7636
  525MOL0     H72438   7.464   9.015   3.260 -1.8014  1.1940  4.7458
  525MOL0     H72439   7.359   9.154   3.279 -3.4327 -0.2169 -0.4681
  525MOL0     H72440   7.259   8.939   3.263  2.5405  1.7686  0.4825
  525MOL0     H72441   7.290   8.924   3.092 -0.0308 -0.2754  1.7806
  525MOL0     H72442   7.056   9.042   3.205  0.3870  0.8217  0.7388
  525MOL0     H72443   7.164   9.180   3.154  3.4369 -0.7293 -0.8300
  525MOL0     H72444   7.002   9.086   2.967  0.2042 -1.1869  0.2061
  525MOL0     H72445   7.112   8.945   2.962 -1.0631  1.2094 -3.3911
  525MOL0     H72446   7.332   9.211   2.742 -2.5698 -0.6518 -2.0182
  525MOL0     H72447   7.310   9.349   3.206 -2.2737  3.6612 -0.5322
  525MOL0     H72448   7.244   9.566   3.254 -0.6306 -2.7183 -1.2602
  525MOL0     H72449   7.363   9.700   3.261 -0.9119  0.7742 -0.4758
  525MOL0     H72450   7.290   9.645   3.107  1.8921  1.6518 -0.0910
  526MOL0     O72451   4.214   6.066   3.258  0.0974 -1.1159  0.5439
  526MOL0     C72452   4.240   6.042   3.146 -0.2733  0.3406 -0.0884
  526MOL0     O72453   4.200   5.925   3.082 -0.2458  0.5836 -0.2835
  526MOL0     C72454   4.153   5.814   3.144 -0.0860 -1.4007 -0.0541
  526MOL0     C72455   4.209   5.754   3.250 -0.0426 -0.3020  0.0855
  526MOL0     C72456   4.153   5.629   3.300  0.2238 -0.6981 -1.1514
  526MOL0     C72457   4.042   5.574   3.237 -0.6445 -0.7265 -0.3606
  526MOL0     O72458   3.973   5.464   3.270 -0.5214  0.3335  0.3180
  526MOL0     C72459   4.027   5.343   3.331 -0.6888 -0.7324 -0.1421
  526MOL0     C72460   3.923   5.232   3.345  0.3712 -0.7756 -0.2582
  526MOL0     C72461   3.900   5.172   3.201 -0.1137  0.8465  0.0069
  526MOL0     C72462   3.809   5.051   3.190  0.1685  0.4197  0.4912
  526MOL0     C72463   3.840   4.982   3.054 -0.4610 -0.1953 -0.0426
  526MOL0     C72464   3.971   4.892   3.055  0.0314 -0.3853  0.8771
  526MOL0     C72465   3.955   4.775   3.147  0.0259  0.5569 -0.4905
  526MOL0     C72466   3.912   4.642   3.077  0.1373  0.1950  0.1335
  526MOL0     N72467   3.897   4.537   3.178  0.4711  0.3688  0.4715
  526MOL0     C72468   4.004   4.471   3.240  0.3549 -1.1728  0.1087
  526MOL0     C72469   3.947   4.364   3.308 -0.4874  0.4970 -0.4564
  526MOL0     C72470   4.028   4.282   3.392 -0.1575  0.0331 -0.1477
  526MOL0     C72471   4.051   4.161   3.298 -0.7337 -0.6821  0.0997
  526MOL0     C72472   4.146   4.050   3.346  0.2591 -0.2411 -0.2567
  526MOL0     C72473   4.294   4.076   3.338 -0.0440 -0.1399  0.2919
  526MOL0     O72474   4.318   4.137   3.212  0.4082  0.3774 -0.4127
  526MOL0     C72475   4.327   4.060   3.101  0.4198  1.5678  0.2041
  526MOL0     C72476   4.280   4.117   2.984  0.7268  0.4764  0.4586
  526MOL0     C72477   4.289   4.041   2.870  0.0943  0.3079 -0.6579
  526MOL0     C72478   4.252   4.119   2.739 -0.6038 -0.0781  0.5232
  526MOL0     C72479   4.335   3.905   2.872 -0.2801  0.3923 -0.1932
  526MOL0     C72480   4.349   3.823   2.747 -0.6909  0.2750 -0.4087
  526MOL0     O72481   4.414   3.705   2.763  0.5416 -0.3425  0.2617
  526MOL0     C72482   4.441   3.616   2.658  0.0900 -0.5098 -0.0585
  526MOL0     C72483   4.467   3.488   2.701 -0.9697 -0.2003  0.4195
  526MOL0     C72484   4.509   3.387   2.617 -0.5180 -0.3698 -0.1564
  526MOL0     C72485   4.519   3.406   2.476 -0.5204 -0.3380 -0.4580
  526MOL0     O72486   4.550   3.317   2.380 -0.5376  1.2786  0.1699
  526MOL0     C72487   4.538   3.176   2.416  0.2606 -0.3752 -1.3003
  526MOL0     C72488   4.543   3.087   2.297 -0.4754  0.2395  0.0801
  526MOL0     C72489   4.507   2.940   2.335 -0.2453  0.3872 -0.8255
  526MOL0     C72490   4.505   2.839   2.215 -0.1350  0.2312 -1.0879
  526MOL0     C72491   4.489   2.690   2.256  0.8888 -0.5995 -0.5143
  526MOL0     C72492   4.531   2.588   2.150  0.7984 -0.0032 -0.7260
  526MOL0     C72493   4.457   2.618   2.015  0.4220 -0.0279  0.3699
  526MOL0     C72494   4.462   2.488   1.935  0.5768  0.0870 -0.7863
  526MOL0    Cl72495   4.638   2.424   1.925  0.2554  0.3139 -0.0806
  526MOL0     C72496   4.494   3.534   2.426 -0.5961 -0.9005 -0.9747
  526MOL0     C72497   4.456   3.640   2.520 -0.6194 -0.5284  0.4201
  526MOL0     O72498   4.296   3.858   2.642 -0.6275  0.5295  0.2031
  526MOL0     C72499   4.372   3.852   2.988 -0.5186 -0.9144 -1.0984
  526MOL0     C72500   4.367   3.921   3.107  0.1386  0.0856 -0.4680
  526MOL0     N72501   3.811   4.382   3.304  0.3617 -0.0199  0.0376
  526MOL0     N72502   3.784   4.480   3.220  1.2577  0.6610  0.4025
  526MOL0     C72503   3.993   5.650   3.133 -1.1614  0.8521 -0.4062
  526MOL0     C72504   4.047   5.761   3.079  0.3429  0.3406 -0.7945
  526MOL0     C72505   4.318   6.141   3.059 -0.0320 -0.2463  0.8875
  526MOL0     C72506   4.360   6.101   2.926 -0.5132 -0.1644 -0.8220
  526MOL0     C72507   4.451   6.182   2.854  1.1606 -1.0987  0.6125
  526MOL0     C72508   4.488   6.309   2.898  0.3246  0.1426 -0.0179
  526MOL0     O72509   4.566   6.391   2.822  0.0573 -0.0192 -0.0247
  526MOL0     C72510   4.702   6.374   2.854  0.4469 -0.3854 -0.3961
  526MOL0     C72511   4.800   6.441   2.756 -0.4676 -0.2031 -0.2571
  526MOL0     C72512   4.779   6.399   2.610  0.5847 -0.2105 -1.0233
  526MOL0     C72513   4.866   6.469   2.498 -0.1824 -0.0020 -0.0497
  526MOL0     C72514   5.009   6.445   2.525 -0.7007 -0.3179  0.3126
  526MOL0     C72515   5.128   6.410   2.548 -0.3022  0.6653  0.0461
  526MOL0     C72516   4.438   6.350   3.027  0.5203  0.7474  0.2318
  526MOL0     C72517   4.352   6.269   3.104 -0.1239  0.4060 -0.0214
  526MOL0     C72518   4.334   6.323   3.241 -0.0133  0.1411  0.1302
  526MOL0     H72519   4.291   5.815   3.286 -0.7052  1.5319 -1.3124
  526MOL0     H72520   4.204   5.589   3.387  1.5189  1.7869 -0.6843
  526MOL0     H72521   4.064   5.371   3.429  3.5523 -4.1962 -0.4687
  526MOL0     H72522   4.117   5.305   3.281  2.5429  0.8528  3.9320
  526MOL0     H72523   3.938   5.163   3.429 -1.0312  0.8650  1.4200
  526MOL0     H72524   3.829   5.282   3.371  0.9641  1.0258 -1.4094
  526MOL0     H72525   3.859   5.248   3.134 -4.0030 -0.7868  0.3072
  526MOL0     H72526   3.997   5.148   3.155 -0.4170 -1.5663  0.4998
  526MOL0     H72527   3.830   4.983   3.273  1.2078 -1.4555 -1.2292
  526MOL0     H72528   3.705   5.085   3.197  0.1419  0.6786 -0.9386
  526MOL0     H72529   3.847   5.058   2.976  2.2867 -1.0704 -0.7425
  526MOL0     H72530   3.760   4.914   3.021 -1.0867  0.2423  0.5643
  526MOL0     H72531   3.973   4.850   2.953  1.3471  0.6293  0.4617
  526MOL0     H72532   4.064   4.946   3.073 -0.6916  0.5352  1.9888
  526MOL0     H72533   3.884   4.795   3.227  1.0161 -0.0636  0.5734
  526MOL0     H72534   4.050   4.754   3.197  1.2224  1.7173 -2.1498
  526MOL0     H72535   3.821   4.642   3.016  0.5530 -2.3546 -0.6248
  526MOL0     H72536   3.996   4.605   3.016 -0.4574 -1.4326  0.2627
  526MOL0     H72537   4.109   4.495   3.226  0.0867  0.2462  0.4120
  526MOL0     H72538   3.983   4.260   3.489  1.0742 -4.2969 -0.3253
  526MOL0     H72539   4.125   4.323   3.422  1.2834 -2.2474 -1.4026
  526MOL0     H72540   3.954   4.112   3.296 -1.7436  1.1698  1.3441
  526MOL0     H72541   4.095   4.200   3.205  2.1565 -1.1549  1.1460
  526MOL0     H72542   4.123   4.036   3.452 -1.3992  3.4053  0.0162
  526MOL0     H72543   4.129   3.954   3.296 -2.5890 -1.7815  3.2509
  526MOL0     H72544   4.324   4.149   3.413  0.9723 -1.3057  1.0809
  526MOL0     H72545   4.351   3.986   3.366 -1.9866 -1.4619  0.2132
  526MOL0     H72546   4.245   4.219   2.993 -0.9530 -0.2397  3.3158
  526MOL0     H72547   4.233   4.226   2.740 -2.4680 -0.3585  0.4980
  526MOL0     H72548   4.163   4.072   2.696 -1.0548  1.6546 -0.5311
  526MOL0     H72549   4.332   4.104   2.666 -0.2653 -0.6619  0.9966
  526MOL0     H72550   4.455   3.476   2.808 -2.2115  0.1323  0.3249
  526MOL0     H72551   4.541   3.295   2.664  0.6990 -0.3726 -0.9428
  526MOL0     H72552   4.623   3.141   2.475  0.9358 -1.2696 -2.7353
  526MOL0     H72553   4.444   3.170   2.470  0.4508 -0.4803 -0.9788
  526MOL0     H72554   4.478   3.124   2.217 -1.7082  0.1630  1.0130
  526MOL0     H72555   4.641   3.068   2.253 -0.4274  1.8655 -0.5905
  526MOL0     H72556   4.412   2.948   2.389 -0.4761  1.4495 -1.3544
  526MOL0     H72557   4.580   2.907   2.409  0.0642  0.0835 -1.2602
  526MOL0     H72558   4.596   2.835   2.154 -0.0507 -0.8655 -0.9057
  526MOL0     H72559   4.425   2.881   2.153  0.3053  3.1690  0.1463
  526MOL0     H72560   4.530   2.672   2.356  0.5123  2.0472  0.1921
  526MOL0     H72561   4.381   2.682   2.271  0.8629  1.4363  0.8937
  526MOL0     H72562   4.513   2.487   2.187  2.3042  0.1498  0.4928
  526MOL0     H72563   4.638   2.586   2.130  1.5807  1.6784  2.6695
  526MOL0     H72564   4.506   2.697   1.957 -0.9981  0.5502 -0.0935
  526MOL0     H72565   4.354   2.652   2.022 -0.5697 -2.1161 -2.3156
  526MOL0     H72566   4.419   2.506   1.836 -1.4109 -1.8339 -0.3726
  526MOL0     H72567   4.412   2.405   1.985  0.0094 -0.5535 -2.3547
  526MOL0     H72568   4.504   3.542   2.318 -0.1193  1.9183 -0.7898
  526MOL0     H72569   4.435   3.738   2.478 -1.6207 -0.6181  0.6940
  526MOL0     H72570   4.403   3.748   3.000 -0.9678 -1.0855 -1.4067
  526MOL0     H72571   4.394   3.863   3.195  0.3566  4.2632  2.5397
  526MOL0     H72572   3.914   5.602   3.077 -2.0929  0.7768  0.9191
  526MOL0     H72573   4.023   5.798   2.980 -0.0192 -1.0342 -1.2360
  526MOL0     H72574   4.340   6.004   2.881  1.8490 -1.6245  1.0259
  526MOL0     H72575   4.466   6.156   2.749  1.5032  1.0858  0.0685
  526MOL0     H72576   4.709   6.433   2.946  2.2055 -0.5210 -0.4050
  526MOL0     H72577   4.731   6.269   2.865  2.6563  0.0661 -1.4141
  526MOL0     H72578   4.904   6.426   2.788 -0.5307  0.0756  0.0921
  526MOL0     H72579   4.778   6.548   2.761  0.0712 -0.1040  0.1173
  526MOL0     H72580   4.786   6.290   2.604 -2.1896 -0.5009 -0.2400
  526MOL0     H72581   4.680   6.424   2.571  0.6928 -0.1638 -1.2720
  526MOL0     H72582   4.837   6.574   2.491 -1.2419 -0.3574 -1.6529
  526MOL0     H72583   4.842   6.415   2.405 -1.1492  0.5731 -0.1454
  526MOL0     H72584   5.226   6.368   2.555  0.9778  3.7040  2.7053
  526MOL0     H72585   4.476   6.445   3.063  3.1427 -0.3656  0.6028
  526MOL0     H72586   4.366   6.253   3.319 -0.9087 -0.3351  0.0838
  526MOL0     H72587   4.394   6.412   3.260 -0.8732  0.6424  0.5070
  526MOL0     H72588   4.229   6.339   3.264 -1.4389 -4.9510 -1.4213
  527MOL0     O72589   8.970   1.982   8.291 -0.1893  0.9319  0.7286
  527MOL0     C72590   8.949   1.936   8.177  0.6144  1.0395  0.4537
  527MOL0     O72591   9.032   1.843   8.112  0.1317  0.3358  0.3477
  527MOL0     C72592   9.139   1.780   8.172  0.5422 -0.5904 -0.0496
  527MOL0     C72593   9.140   1.642   8.194  0.4115  0.8400  0.4467
  527MOL0     C72594   9.267   1.575   8.222  0.3737  0.3800 -0.3339
  527MOL0     C72595   9.384   1.647   8.238 -0.6318 -0.4841 -0.0728
  527MOL0     O72596   9.505   1.588   8.268  0.6746  0.5043 -0.2568
  527MOL0     C72597   9.625   1.648   8.221 -0.6635  0.4289  0.2008
  527MOL0     C72598   9.732   1.632   8.341 -0.3089  0.3221 -1.3047
  527MOL0     C72599   9.723   1.729   8.452 -0.0237 -0.1945 -0.2490
  527MOL0     C72600   9.782   1.866   8.410  0.4380 -0.1101 -1.3754
  527MOL0     C72601   9.796   1.959   8.536 -0.0034  0.2302  0.6362
  527MOL0     C72602   9.790   2.111   8.509  0.0935 -0.2976 -0.1704
  527MOL0     C72603   9.831   2.212   8.617 -0.7148 -0.4198 -1.3640
  527MOL0     C72604   9.736   2.199   8.738 -0.0569 -0.7534  0.4929
  527MOL0     N72605   9.796   2.272   8.846 -0.4856  0.2331  0.3936
  527MOL0     C72606   9.747   2.376   8.915  0.0092 -0.1679  0.8917
  527MOL0     C72607   9.818   2.374   9.028  0.3070  0.8326 -0.8714
  527MOL0     C72608   9.796   2.474   9.138  0.1603  0.0914  0.7536
  527MOL0     C72609   9.912   2.480   9.238  0.1515 -0.4347  0.1141
  527MOL0     C72610  10.047   2.527   9.166  0.2258 -0.2998  1.0559
  527MOL0     C72611  10.164   2.421   9.166 -0.1243 -0.7270 -0.7058
  527MOL0     O72612  10.228   2.414   9.297 -0.8255 -0.0571  0.3066
  527MOL0     C72613  10.253   2.531   9.365 -0.7387  0.6494  0.6853
  527MOL0     C72614  10.357   2.616   9.315  0.1447 -0.4482 -0.2508
  527MOL0     C72615  10.395   2.731   9.391  1.0894 -0.3003  0.3001
  527MOL0     C72616  10.497   2.819   9.321  0.6397 -0.0956  0.0850
  527MOL0     C72617  10.340   2.752   9.516 -0.5902  0.3008  0.1370
  527MOL0     C72618  10.357   2.868   9.601 -0.1617 -0.7354 -0.9964
  527MOL0     O72619  10.464   2.946   9.570 -0.6870  1.4773 -0.5115
  527MOL0     C72620  10.491   3.052   9.646  1.8036  0.1738  0.0404
  527MOL0     C72621  10.394   3.152   9.677 -0.5166 -0.2622 -0.2321
  527MOL0     C72622  10.438   3.262   9.755  0.4243 -0.5412 -0.4245
  527MOL0     C72623  10.569   3.273   9.800 -0.2145 -0.5262 -0.1890
  527MOL0     O72624  10.613   3.376   9.887  0.4696  0.4726  0.3045
  527MOL0     C72625  10.531   3.491   9.917  0.6688  0.4187 -0.8015
  527MOL0     C72626  10.559   3.557  10.053 -0.2604  0.5709 -0.2530
  527MOL0     C72627  10.530   3.476  10.190 -0.5104 -0.3476  0.6894
  527MOL0     C72628  10.571   3.326  10.189 -0.4159 -0.2479 -0.2499
  527MOL0     C72629  10.527   3.249  10.312  0.8853 -0.2470 -0.0531
  527MOL0     C72630  10.610   3.122  10.340 -0.1421 -0.3487  0.4473
  527MOL0     C72631  10.580   3.053  10.481 -0.5230 -0.1434 -0.8632
  527MOL0     C72632  10.468   2.939  10.480 -0.1409  0.1274  0.8339
  527MOL0    Cl72633  10.453   2.874  10.636 -0.1171 -0.1755 -0.3681
  527MOL0     C72634  10.657   3.186   9.750  0.1214  0.7083  0.3934
  527MOL0     C72635  10.621   3.076   9.674  0.3535  0.2009  0.0279
  527MOL0     O72636  10.287   2.882   9.704  0.0051 -0.0313  0.2301
  527MOL0     C72637  10.245   2.656   9.563  0.0954 -0.0890  0.1373
  527MOL0     C72638  10.213   2.545   9.488  0.0567  0.0268 -0.3582
  527MOL0     N72639   9.911   2.273   9.017 -0.0210  0.1336 -0.0981
  527MOL0     N72640   9.903   2.216   8.905  0.5057 -0.5648  0.5515
  527MOL0     C72641   9.371   1.793   8.232 -0.2699  0.3152 -0.6778
  527MOL0     C72642   9.252   1.858   8.209  0.0892 -0.3673  0.8870
  527MOL0     C72643   8.838   1.988   8.099  0.5529  0.7014 -0.6350
  527MOL0     C72644   8.766   1.901   8.027 -0.0591  0.4465 -0.5210
  527MOL0     C72645   8.665   1.943   7.938 -0.4545 -0.9674 -0.1446
  527MOL0     C72646   8.616   2.075   7.936 -0.9237 -0.5532 -0.3448
  527MOL0     O72647   8.527   2.136   7.851 -0.6083 -0.0720  0.1456
  527MOL0     C72648   8.472   2.059   7.750  0.1284 -0.0799  0.6247
  527MOL0     C72649   8.354   2.130   7.681 -0.1471  0.0784  0.3199
  527MOL0     C72650   8.422   2.219   7.575  0.0186  0.0762  0.4003
  527MOL0     C72651   8.310   2.296   7.495  0.0248  0.0370  0.3404
  527MOL0     C72652   8.355   2.418   7.449 -0.1989 -0.1313 -0.2275
  527MOL0     C72653   8.397   2.528   7.404  0.8608  0.2869  0.2776
  527MOL0     C72654   8.693   2.168   8.014  1.2020  0.3575  0.7382
  527MOL0     C72655   8.804   2.131   8.091  1.0253 -0.1921  0.3125
  527MOL0     C72656   8.892   2.239   8.159  0.3018  0.0514 -0.2304
  527MOL0     H72657   9.055   1.582   8.164  1.0787 -1.1692  2.2474
  527MOL0     H72658   9.263   1.468   8.237  4.7714  0.3202  1.9618
  527MOL0     H72659   9.633   1.746   8.172  1.9468  0.3410  0.2999
  527MOL0     H72660   9.667   1.589   8.139 -0.9026 -0.4013  0.6648
  527MOL0     H72661   9.702   1.538   8.388  3.4087 -0.3263  0.0607
  527MOL0     H72662   9.832   1.628   8.297  0.6008 -0.0379  0.7093
  527MOL0     H72663   9.623   1.737   8.496 -1.5739 -1.0795 -3.2892
  527MOL0     H72664   9.794   1.690   8.525  2.1292  3.4612 -0.1938
  527MOL0     H72665   9.866   1.859   8.341  1.7812  3.4442 -0.3107
  527MOL0     H72666   9.701   1.910   8.352 -0.4892 -1.4908 -1.1870
  527MOL0     H72667   9.894   1.933   8.578  0.7614 -0.1740 -1.3111
  527MOL0     H72668   9.720   1.944   8.614  0.5979  1.7091  1.5464
  527MOL0     H72669   9.865   2.129   8.431  0.3811  1.1635  0.4214
  527MOL0     H72670   9.689   2.134   8.476 -0.7010 -0.3256  2.0611
  527MOL0     H72671   9.828   2.311   8.571  1.5970  0.1943 -0.3417
  527MOL0     H72672   9.932   2.186   8.649 -0.8820  0.1753 -0.3154
  527MOL0     H72673   9.637   2.236   8.710  0.4678 -0.0167 -0.4440
  527MOL0     H72674   9.711   2.096   8.765 -0.7837 -0.8086 -0.3429
  527MOL0     H72675   9.667   2.445   8.891 -1.1853 -1.6227  0.5461
  527MOL0     H72676   9.704   2.449   9.190 -2.5326 -0.9100 -3.8719
  527MOL0     H72677   9.790   2.568   9.082 -0.4404 -1.9566 -2.9829
  527MOL0     H72678   9.886   2.559   9.308  1.0516 -0.2596  0.2601
  527MOL0     H72679   9.921   2.383   9.287  1.3562 -1.8156 -2.6048
  527MOL0     H72680  10.017   2.555   9.065 -0.0203  0.9094  1.4482
  527MOL0     H72681  10.069   2.628   9.201  1.8604  0.0738 -0.8835
  527MOL0     H72682  10.128   2.322   9.138 -2.4356  0.2188 -1.3530
  527MOL0     H72683  10.243   2.444   9.094  0.9098  0.6439  0.7924
  527MOL0     H72684  10.400   2.594   9.217 -1.2079  0.0085 -0.9789
  527MOL0     H72685  10.523   2.774   9.225  3.3737 -2.4325  1.7620
  527MOL0     H72686  10.594   2.829   9.369  1.4848 -1.9390 -1.1366
  527MOL0     H72687  10.453   2.915   9.291  0.7884 -0.2810 -0.7430
  527MOL0     H72688  10.293   3.143   9.639  0.1923  1.4654 -2.7579
  527MOL0     H72689  10.358   3.332   9.773  1.5102  0.7279 -0.4124
  527MOL0     H72690  10.553   3.565   9.839 -0.5119 -0.1744 -1.7303
  527MOL0     H72691  10.426   3.461   9.921 -0.1467  3.1865  1.7735
  527MOL0     H72692  10.665   3.587  10.051 -0.6781  2.1630 -0.1840
  527MOL0     H72693  10.499   3.648  10.059 -2.6237 -0.9785  1.0082
  527MOL0     H72694  10.424   3.498  10.205 -0.2635  1.5431 -0.1334
  527MOL0     H72695  10.576   3.520  10.279 -0.0282  0.5572  0.0053
  527MOL0     H72696  10.678   3.314  10.168 -0.3459  0.3825 -0.2741
  527MOL0     H72697  10.520   3.282  10.103 -0.7608 -0.6313  0.1459
  527MOL0     H72698  10.521   3.320  10.395  0.7239  0.2449 -0.4830
  527MOL0     H72699  10.423   3.216  10.303  0.1219  1.9693  0.0929
  527MOL0     H72700  10.715   3.153  10.349  0.3378 -2.0173  0.9361
  527MOL0     H72701  10.598   3.063  10.249  4.1356 -0.5758 -0.1866
  527MOL0     H72702  10.561   3.128  10.559 -0.7924 -0.7533 -0.3321
  527MOL0     H72703  10.674   3.014  10.520 -0.3008  3.3731  2.7958
  527MOL0     H72704  10.494   2.867  10.401  3.9692  1.2187  0.9896
  527MOL0     H72705  10.375   2.991  10.456 -0.1488  0.1052  0.8171
  527MOL0     H72706  10.761   3.182   9.780  0.0585  0.4371  0.5760
  527MOL0     H72707  10.694   2.998   9.652  0.0581 -0.4414  1.2566
  527MOL0     H72708  10.218   2.664   9.668 -0.7047  0.0074 -0.0709
  527MOL0     H72709  10.156   2.462   9.527  1.0917 -0.7667 -0.4889
  527MOL0     H72710   9.451   1.862   8.257 -0.1308 -0.6229  1.7312
  527MOL0     H72711   9.250   1.967   8.208 -5.9693  0.0401  4.3722
  527MOL0     H72712   8.801   1.798   8.022  0.5803  0.6337 -0.0638
  527MOL0     H72713   8.628   1.874   7.863  2.7163  0.0214 -2.8795
  527MOL0     H72714   8.552   2.036   7.678 -1.6655 -1.6126 -1.0099
  527MOL0     H72715   8.449   1.964   7.799  2.8494 -1.7896 -1.0882
  527MOL0     H72716   8.295   2.180   7.759  2.8937 -1.7773  4.1354
  527MOL0     H72717   8.300   2.052   7.626  1.3213  0.5772 -1.9479
  527MOL0     H72718   8.489   2.283   7.634 -1.2507  2.1544 -0.2814
  527MOL0     H72719   8.478   2.162   7.500 -0.1155 -0.1112  0.4432
  527MOL0     H72720   8.234   2.320   7.571  3.0873  6.2887  2.1287
  527MOL0     H72721   8.272   2.235   7.413  2.6879 -0.0190 -0.9295
  527MOL0     H72722   8.416   2.624   7.361 -3.4326  0.0672 -2.7212
  527MOL0     H72723   8.662   2.272   8.007 -4.0882 -0.9656 -0.9153
  527MOL0     H72724   8.837   2.333   8.153  1.7732  1.0040  0.7403
  527MOL0     H72725   8.911   2.222   8.265  2.6369 -0.4070 -0.6568
  527MOL0     H72726   8.985   2.250   8.102 -0.1934 -1.1318 -1.3510
  528MOL0     O72727   8.207   8.384  11.351  0.5775  0.1495 -0.1271
  528MOL0     C72728   8.191   8.446  11.249  0.4646  0.5354 -0.1751
  528MOL0     O72729   8.098   8.417  11.159 -0.6597 -0.4736  0.4293
  528MOL0     C72730   7.997   8.331  11.177 -0.9917  0.1721 -0.4072
  528MOL0     C72731   8.011   8.205  11.125  0.9631  0.3392 -0.4463
  528MOL0     C72732   7.924   8.100  11.142  0.7690  0.1679 -0.4257
  528MOL0     C72733   7.813   8.133  11.216 -0.2694  0.0062 -0.0873
  528MOL0     O72734   7.707   8.044  11.247 -0.9459 -0.2747  0.2277
  528MOL0     C72735   7.722   7.908  11.225 -1.2807  0.3368 -0.0402
  528MOL0     C72736   7.617   7.820  11.278  0.1052  0.9248 -0.3222
  528MOL0     C72737   7.495   7.839  11.192  0.1166 -0.7452  0.3644
  528MOL0     C72738   7.380   7.743  11.240  0.4588  0.1529  0.7457
  528MOL0     C72739   7.287   7.734  11.124  0.4016  0.2690 -0.0683
  528MOL0     C72740   7.152   7.657  11.165  0.0356  0.9089  0.5825
  528MOL0     C72741   7.039   7.664  11.064  0.0241  0.0238 -0.2141
  528MOL0     C72742   7.075   7.613  10.922 -0.2770  0.0613 -1.0155
  528MOL0     N72743   6.960   7.581  10.847 -0.5412 -0.3585 -1.1145
  528MOL0     C72744   6.914   7.457  10.826 -0.8173  0.2306 -0.6333
  528MOL0     C72745   6.790   7.468  10.788  0.9816  0.9474 -0.8909
  528MOL0     C72746   6.696   7.344  10.765  0.8168 -0.4847 -0.6127
  528MOL0     C72747   6.750   7.233  10.675  0.0177 -0.0793 -0.0562
  528MOL0     C72748   6.776   7.273  10.534 -0.2998 -0.9561  0.0570
  528MOL0     C72749   6.833   7.161  10.442 -0.3471 -0.1129 -0.5343
  528MOL0     O72750   6.962   7.133  10.498 -0.4023  0.2315  0.8102
  528MOL0     C72751   7.034   7.027  10.428  0.2853 -0.5595 -0.3195
  528MOL0     C72752   6.996   6.949  10.319  0.8417  0.7344  0.0833
  528MOL0     C72753   7.083   6.857  10.262 -0.2395 -0.4294  0.3717
  528MOL0     C72754   7.036   6.789  10.135  0.3153  0.5126  0.0166
  528MOL0     C72755   7.216   6.843  10.305  0.0418  0.0572 -1.2505
  528MOL0     C72756   7.327   6.751  10.255  0.1387 -0.3570  0.8116
  528MOL0     O72757   7.427   6.714  10.339  0.4613 -0.7621  0.1020
  528MOL0     C72758   7.526   6.634  10.283 -0.1790 -0.1853 -0.2655
  528MOL0     C72759   7.642   6.697  10.256 -0.3798 -0.1632  0.2144
  528MOL0     C72760   7.761   6.622  10.240  0.1839  0.0711 -0.4802
  528MOL0     C72761   7.751   6.485  10.230  0.7416 -0.2288  0.0332
  528MOL0     O72762   7.870   6.416  10.208  0.5493  0.0316  0.2683
  528MOL0     C72763   7.997   6.484  10.178  0.9490 -0.0316  0.0283
  528MOL0     C72764   8.090   6.370  10.152  0.7113 -0.0761  0.2508
  528MOL0     C72765   8.230   6.426  10.126 -0.4122  0.5332 -0.0146
  528MOL0     C72766   8.335   6.319  10.095  0.0119 -0.9444  0.3329
  528MOL0     C72767   8.467   6.396  10.103  0.1610  0.0310  0.0278
  528MOL0     C72768   8.578   6.318  10.033 -0.8045  0.1084 -0.3555
  528MOL0     C72769   8.569   6.167  10.034 -0.3330  1.0595  0.5025
  528MOL0     C72770   8.690   6.107   9.968 -0.4190  0.0520 -0.1307
  528MOL0    Cl72771   8.660   5.917   9.959 -0.3158  0.2147  0.1933
  528MOL0     C72772   7.624   6.420  10.246 -0.0096  0.8435 -0.3722
  528MOL0     C72773   7.509   6.489  10.275  0.4091 -0.6262  0.2130
  528MOL0     O72774   7.321   6.721  10.132 -0.0810  0.4930  0.1883
  528MOL0     C72775   7.254   6.920  10.417 -0.9911  0.7289 -0.4959
  528MOL0     C72776   7.164   7.012  10.474 -0.3430  0.7281  0.9026
  528MOL0     N72777   6.754   7.601  10.783 -0.1751 -0.2434 -0.9272
  528MOL0     N72778   6.855   7.673  10.819  0.0222  0.8400  0.1265
  528MOL0     C72779   7.779   8.264  11.258 -0.1316 -0.7062  0.3717
  528MOL0     C72780   7.875   8.365  11.237 -0.2057 -0.2802  0.2030
  528MOL0     C72781   8.262   8.570  11.221 -0.0286 -0.0857 -0.3747
  528MOL0     C72782   8.282   8.612  11.089 -0.8757 -0.1810 -0.0581
  528MOL0     C72783   8.359   8.724  11.061  0.2311 -1.0886 -0.0009
  528MOL0     C72784   8.424   8.795  11.164 -0.3737 -0.1505 -0.2075
  528MOL0     O72785   8.501   8.908  11.143  0.4308  1.3080  0.3492
  528MOL0     C72786   8.431   9.021  11.090 -0.0662 -0.0187 -0.9514
  528MOL0     C72787   8.520   9.144  11.129  0.1332  0.3334  0.1478
  528MOL0     C72788   8.449   9.274  11.089 -0.0140 -0.7212 -0.5557
  528MOL0     C72789   8.520   9.404  11.132  0.3138  0.1512  0.9378
  528MOL0     C72790   8.521   9.425  11.281  0.3842  0.3205  0.4694
  528MOL0     C72791   8.517   9.454  11.397  0.5187  0.1476 -0.0206
  528MOL0     C72792   8.412   8.749  11.291  0.8635 -0.4216  0.7360
  528MOL0     C72793   8.338   8.634  11.323  0.2165 -0.6656 -0.2115
  528MOL0     C72794   8.318   8.604  11.462  0.6440 -0.0837 -0.7918
  528MOL0     H72795   8.106   8.194  11.074  1.9426  3.7615  0.4029
  528MOL0     H72796   7.949   8.004  11.099 -1.5938 -0.7400  0.1203
  528MOL0     H72797   7.818   7.882  11.273  0.2734 -0.2326 -3.2194
  528MOL0     H72798   7.741   7.896  11.118  2.9135 -1.4611  0.6793
  528MOL0     H72799   7.640   7.714  11.265 -1.8808  0.6660 -2.1301
  528MOL0     H72800   7.583   7.852  11.377  0.1340  0.6391 -0.2213
  528MOL0     H72801   7.454   7.941  11.193 -4.2625 -2.2781 -0.4152
  528MOL0     H72802   7.509   7.827  11.084 -0.3280  4.1427 -0.4841
  528MOL0     H72803   7.418   7.644  11.270 -0.9428 -0.7084 -0.2096
  528MOL0     H72804   7.338   7.788  11.330 -3.1055  2.5581 -1.8464
  528MOL0     H72805   7.333   7.679  11.042 -0.7383 -0.3571 -0.3146
  528MOL0     H72806   7.272   7.836  11.086  1.6290  0.1545 -0.9015
  528MOL0     H72807   7.171   7.551  11.183 -0.4405  0.3398 -1.8500
  528MOL0     H72808   7.118   7.713  11.253  0.9582  2.3993  0.0315
  528MOL0     H72809   6.992   7.762  11.065 -2.4303 -1.0931  0.7088
  528MOL0     H72810   6.960   7.598  11.101  0.3283 -0.2259  0.0042
  528MOL0     H72811   7.134   7.689  10.869 -0.6609 -0.2022 -1.8336
  528MOL0     H72812   7.139   7.526  10.937  0.9334  0.8577 -1.3369
  528MOL0     H72813   6.967   7.363  10.821  0.4084  0.7962  1.1554
  528MOL0     H72814   6.599   7.373  10.724  1.2804 -2.1090 -3.0735
  528MOL0     H72815   6.663   7.310  10.863  1.5677  4.2448  1.5537
  528MOL0     H72816   6.847   7.198  10.709 -0.2034 -1.3982 -0.7087
  528MOL0     H72817   6.678   7.150  10.680  1.0121 -0.9269  0.4588
  528MOL0     H72818   6.688   7.319  10.489  0.1065 -1.7441 -1.6052
  528MOL0     H72819   6.851   7.351  10.551 -1.6925  0.5161 -0.2475
  528MOL0     H72820   6.772   7.070  10.442 -0.0237 -0.4665 -3.9880
  528MOL0     H72821   6.849   7.181  10.335  1.8402 -0.1833 -0.2692
  528MOL0     H72822   6.902   6.964  10.267  0.8905  0.3232 -0.1288
  528MOL0     H72823   6.927   6.781  10.135  0.4586 -2.2780 -1.1792
  528MOL0     H72824   7.071   6.686  10.133 -0.3306  0.1170  3.2924
  528MOL0     H72825   7.078   6.845  10.051 -1.8459  1.2669 -0.6216
  528MOL0     H72826   7.641   6.805  10.244 -2.1755 -0.0281  1.2119
  528MOL0     H72827   7.852   6.681  10.229  0.7326 -0.3861  1.2172
  528MOL0     H72828   8.001   6.549  10.091  0.3115 -1.6510 -1.2631
  528MOL0     H72829   8.033   6.538  10.266  1.4587 -0.8208  0.3184
  528MOL0     H72830   8.091   6.289  10.226  2.4884  0.1769  0.5531
  528MOL0     H72831   8.056   6.307  10.068 -1.1822 -1.0634  1.6726
  528MOL0     H72832   8.253   6.466  10.226 -2.9246  1.5773  0.2075
  528MOL0     H72833   8.223   6.505  10.052  1.0622 -0.6603 -1.5010
  528MOL0     H72834   8.305   6.282   9.997 -0.9587  0.2810  0.1545
  528MOL0     H72835   8.331   6.239  10.170  0.9216 -0.4535  0.9298
  528MOL0     H72836   8.462   6.497  10.061 -2.7153  0.3895  0.9885
  528MOL0     H72837   8.479   6.396  10.212 -2.2766 -0.7717  0.3757
  528MOL0     H72838   8.678   6.352  10.062 -0.5607  1.0575 -2.1915
  528MOL0     H72839   8.580   6.359   9.932  1.6690  2.7637  0.6265
  528MOL0     H72840   8.475   6.143   9.983 -2.5248  4.7736  2.3347
  528MOL0     H72841   8.561   6.124  10.134 -0.5059  1.1548  0.5293
  528MOL0     H72842   8.782   6.124  10.026  0.6497 -1.1119 -1.3809
  528MOL0     H72843   8.701   6.137   9.864 -0.3740  2.9608  0.6281
  528MOL0     H72844   7.610   6.312  10.245  2.3146  0.3284  3.3087
  528MOL0     H72845   7.412   6.449  10.302 -1.1128  3.1870  1.2038
  528MOL0     H72846   7.346   6.911  10.474 -3.0911  2.7677  3.6080
  528MOL0     H72847   7.208   7.085  10.542  0.0048 -0.3920  1.9100
  528MOL0     H72848   7.682   8.288  11.302  0.0199  0.0396  0.3169
  528MOL0     H72849   7.849   8.465  11.269 -1.8555 -1.1111  1.6304
  528MOL0     H72850   8.247   8.560  11.001 -0.1557  2.0251 -1.7419
  528MOL0     H72851   8.361   8.769  10.963 -0.9049 -0.4971  0.2275
  528MOL0     H72852   8.415   9.018  10.982  0.8445  0.5839 -1.1156
  528MOL0     H72853   8.330   9.026  11.131 -0.0038 -0.4602 -0.7385
  528MOL0     H72854   8.604   9.150  11.058  0.6002  0.8444  0.7322
  528MOL0     H72855   8.561   9.145  11.230  2.3425  2.5674 -0.6436
  528MOL0     H72856   8.442   9.282  10.980  3.0699 -3.0489 -1.0544
  528MOL0     H72857   8.349   9.265  11.133  0.6768 -2.7400  0.7167
  528MOL0     H72858   8.477   9.485  11.073 -0.4764 -1.3964 -0.7111
  528MOL0     H72859   8.617   9.390  11.083  0.0080  1.6733 -0.1775
  528MOL0     H72860   8.501   9.468  11.502  2.9383 -0.5115  0.5075
  528MOL0     H72861   8.461   8.794  11.377  0.1436  2.5466 -0.3089
  528MOL0     H72862   8.340   8.501  11.494  0.1222  0.1041  0.2234
  528MOL0     H72863   8.385   8.664  11.525  1.8626 -0.5142 -1.6299
  528MOL0     H72864   8.212   8.618  11.482  0.4578 -0.6650 -1.3477
  529MOL0     O72865   7.003   3.465  10.869 -1.0101 -0.1828 -0.0163
  529MOL0     C72866   7.053   3.579  10.875  0.4704 -0.5531 -0.1530
  529MOL0     O72867   7.029   3.677  10.786  0.1511 -0.0433 -0.3884
  529MOL0     C72868   6.995   3.646  10.654  1.0999 -0.8696  0.2771
  529MOL0     C72869   6.912   3.539  10.610 -0.4290 -0.6497 -0.5607
  529MOL0     C72870   6.892   3.499  10.480  0.1307  0.1534 -1.4593
  529MOL0     C72871   6.938   3.583  10.370  0.0714 -0.2316 -0.4163
  529MOL0     O72872   6.899   3.565  10.235  0.8114  0.2197 -0.5126
  529MOL0     C72873   6.813   3.455  10.196 -0.4903  0.4799  0.9550
  529MOL0     C72874   6.902   3.341  10.190 -0.0383  0.0797  0.1084
  529MOL0     C72875   6.812   3.226  10.140  0.8369 -0.2990  0.0331
  529MOL0     C72876   6.877   3.090  10.118  0.2526  0.3055  1.3673
  529MOL0     C72877   6.767   2.975  10.096  0.1746 -0.4829  0.0073
  529MOL0     C72878   6.738   2.911  10.235 -0.2948 -0.2674  0.4351
  529MOL0     C72879   6.649   2.784  10.207 -0.3868  0.1313  0.6542
  529MOL0     C72880   6.660   2.682  10.317 -0.5030 -0.2456 -0.1411
  529MOL0     N72881   6.791   2.622  10.331  0.3979  0.6399 -0.3259
  529MOL0     C72882   6.848   2.534  10.241  1.0659  0.3317 -0.4092
  529MOL0     C72883   6.951   2.493  10.317 -0.0062 -0.0816  0.6095
  529MOL0     C72884   7.062   2.387  10.284  0.5852  0.5656 -0.5690
  529MOL0     C72885   7.018   2.249  10.316 -0.6549  0.2225 -0.8045
  529MOL0     C72886   6.914   2.172  10.233 -0.1738 -0.0102 -0.3677
  529MOL0     C72887   6.944   2.159  10.088 -0.6566  0.2329  0.8560
  529MOL0     O72888   7.043   2.060  10.052 -0.4276  0.5407  0.8193
  529MOL0     C72889   7.051   2.027   9.918 -0.0156  0.9480 -0.2456
  529MOL0     C72890   6.993   2.100   9.810  0.4284 -0.7492  1.1990
  529MOL0     C72891   7.016   2.067   9.672  0.3020 -1.8292  0.0239
  529MOL0     C72892   6.987   2.176   9.567  0.2299  0.2795  0.4153
  529MOL0     C72893   7.067   1.935   9.639  0.0389 -0.1548  0.1225
  529MOL0     C72894   7.072   1.895   9.492 -1.3001 -0.0723 -0.1898
  529MOL0     O72895   7.159   1.794   9.469  0.3507  0.5696 -0.7070
  529MOL0     C72896   7.175   1.753   9.338 -0.6041 -0.1992  0.2344
  529MOL0     C72897   7.287   1.796   9.267  0.5453 -0.2752  0.1767
  529MOL0     C72898   7.319   1.743   9.139 -0.8010  0.0521 -0.3177
  529MOL0     C72899   7.238   1.647   9.089  0.6720  0.3728 -0.1518
  529MOL0     O72900   7.272   1.595   8.967 -0.7148 -1.1883 -0.1584
  529MOL0     C72901   7.260   1.678   8.853 -0.3669  0.2529  0.5315
  529MOL0     C72902   7.260   1.604   8.719 -0.9823  1.0230  1.5951
  529MOL0     C72903   7.413   1.562   8.672  0.0413 -0.5981 -0.2459
  529MOL0     C72904   7.408   1.504   8.527 -0.4594 -0.0691 -0.7696
  529MOL0     C72905   7.536   1.534   8.449 -0.3147 -0.1312 -0.2151
  529MOL0     C72906   7.551   1.686   8.399 -0.1686  0.2875 -0.0478
  529MOL0     C72907   7.461   1.723   8.277  0.7103 -0.1552 -0.0905
  529MOL0     C72908   7.497   1.863   8.204  0.1759 -0.0131  0.5282
  529MOL0    Cl72909   7.477   2.008   8.313 -0.1055 -0.2375 -0.3243
  529MOL0     C72910   7.128   1.595   9.164  0.9781  0.2112 -0.0599
  529MOL0     C72911   7.104   1.647   9.290  0.1134  0.0529  0.2720
  529MOL0     O72912   7.009   1.957   9.407  0.7231 -0.6719 -0.4965
  529MOL0     C72913   7.109   1.861   9.745 -0.0059 -0.1630 -0.2351
  529MOL0     C72914   7.106   1.903   9.877 -0.4116 -0.4623 -0.3113
  529MOL0     N72915   6.963   2.562  10.436  0.6857 -0.4994 -0.0378
  529MOL0     N72916   6.865   2.644  10.442 -0.7326  0.4002  0.0029
  529MOL0     C72917   7.009   3.692  10.415 -0.2300 -0.1491 -0.0616
  529MOL0     C72918   7.045   3.713  10.550  0.1704  0.1261 -0.8366
  529MOL0     C72919   7.146   3.611  10.980 -0.4379 -0.0869 -0.2818
  529MOL0     C72920   7.251   3.705  10.946 -0.7407  1.0598  0.3575
  529MOL0     C72921   7.341   3.735  11.043  0.0910 -0.4680  0.3957
  529MOL0     C72922   7.321   3.710  11.181 -0.2221  0.1206  0.3114
  529MOL0     O72923   7.422   3.767  11.254 -0.0402 -0.0521  0.6934
  529MOL0     C72924   7.365   3.836  11.364  0.0244  0.3874 -0.1904
  529MOL0     C72925   7.464   3.923  11.427  0.2987  0.7894 -0.3198
  529MOL0     C72926   7.518   4.027  11.323  0.5802  1.0098 -0.3100
  529MOL0     C72927   7.616   4.118  11.396  1.1937  0.1048  0.1513
  529MOL0     C72928   7.749   4.059  11.415  0.4107  0.3841  0.8283
  529MOL0     C72929   7.855   4.000  11.426  0.4509 -0.5408 -0.0754
  529MOL0     C72930   7.214   3.621  11.215  0.2949 -0.1173 -0.4241
  529MOL0     C72931   7.128   3.562  11.117 -0.3240  0.3493 -0.1431
  529MOL0     C72932   7.021   3.477  11.173  0.3247 -0.4508  0.5007
  529MOL0     H72933   6.861   3.496  10.695  0.3096  0.1728  0.3267
  529MOL0     H72934   6.830   3.415  10.451  1.3828 -0.9099 -1.1090
  529MOL0     H72935   6.775   3.477  10.096 -1.9678 -2.9305  0.6428
  529MOL0     H72936   6.728   3.433  10.261 -0.5990 -2.3596 -0.0496
  529MOL0     H72937   6.977   3.361  10.112 -0.1203 -1.1432 -0.3207
  529MOL0     H72938   6.947   3.317  10.286 -1.3477  2.7661  1.4864
  529MOL0     H72939   6.741   3.200  10.219  0.6832 -0.6814 -0.2278
  529MOL0     H72940   6.757   3.264  10.054  2.8746  2.2483 -0.2951
  529MOL0     H72941   6.931   3.089  10.023 -1.0749 -2.9853  0.5108
  529MOL0     H72942   6.948   3.060  10.196 -1.0219 -1.0225  2.0752
  529MOL0     H72943   6.817   2.902  10.032  1.4465 -0.8002  1.3337
  529MOL0     H72944   6.672   3.010  10.052 -0.3072  0.5906  1.8099
  529MOL0     H72945   6.835   2.880  10.275  1.4816  1.6096 -2.1039
  529MOL0     H72946   6.692   2.989  10.297  0.3015  0.4755 -0.0355
  529MOL0     H72947   6.670   2.731  10.114  0.1667 -0.3851  1.0695
  529MOL0     H72948   6.548   2.826  10.198  0.4336  1.7331 -2.3933
  529MOL0     H72949   6.641   2.729  10.414  1.5163 -1.4533  0.8920
  529MOL0     H72950   6.589   2.600  10.297 -1.2354  0.1455  0.7532
  529MOL0     H72951   6.819   2.492  10.146  0.6729 -1.9188  0.6403
  529MOL0     H72952   7.156   2.411  10.334  0.8756  0.8357 -1.2291
  529MOL0     H72953   7.085   2.396  10.178 -2.9830  0.1695 -1.5069
  529MOL0     H72954   7.106   2.184  10.310 -1.1706 -1.1703  3.4004
  529MOL0     H72955   7.003   2.235  10.424  1.7230  0.1372 -0.4297
  529MOL0     H72956   6.917   2.073  10.279  0.1340 -0.2511 -0.8968
  529MOL0     H72957   6.819   2.225  10.250  1.1011  2.0342  0.7784
  529MOL0     H72958   6.853   2.141  10.030 -0.3581  1.3212  0.0211
  529MOL0     H72959   6.978   2.256  10.050  0.8876 -0.1524  1.1733
  529MOL0     H72960   6.936   2.190   9.831  0.8611 -0.2954  0.4998
  529MOL0     H72961   7.071   2.192   9.499 -0.7958  2.0734 -0.5076
  529MOL0     H72962   6.967   2.275   9.610 -0.9600  0.3305 -0.2057
  529MOL0     H72963   6.889   2.161   9.520  0.1320  2.7737 -0.3273
  529MOL0     H72964   7.349   1.875   9.308  0.0411  1.7926 -2.7660
  529MOL0     H72965   7.410   1.766   9.085 -0.5781  1.9051  0.7448
  529MOL0     H72966   7.177   1.749   8.859  0.8531  1.8912 -1.0619
  529MOL0     H72967   7.351   1.739   8.855 -2.0151  2.8582  1.7130
  529MOL0     H72968   7.214   1.505   8.717  1.4601 -0.2415 -2.1146
  529MOL0     H72969   7.205   1.667   8.648 -1.6821 -0.9280  0.3070
  529MOL0     H72970   7.455   1.495   8.748 -2.0722 -0.3359  1.2320
  529MOL0     H72971   7.483   1.645   8.673  2.0288 -2.1930  0.1649
  529MOL0     H72972   7.328   1.560   8.479  2.2310  1.8302 -3.4081
  529MOL0     H72973   7.380   1.398   8.517 -2.7268  0.4754 -0.6580
  529MOL0     H72974   7.628   1.497   8.496  0.4354  1.4305 -0.4059
  529MOL0     H72975   7.534   1.467   8.362 -1.2044 -0.1987 -0.1434
  529MOL0     H72976   7.655   1.687   8.364 -0.9659 -0.6747 -2.6531
  529MOL0     H72977   7.536   1.747   8.489  1.4205 -1.5051  1.5499
  529MOL0     H72978   7.354   1.716   8.299  0.5019 -2.6867 -1.4693
  529MOL0     H72979   7.476   1.645   8.201 -0.8838  1.3658 -2.0706
  529MOL0     H72980   7.424   1.865   8.122 -0.6986 -0.1425  1.2907
  529MOL0     H72981   7.601   1.865   8.170  0.2218 -0.9568  0.5732
  529MOL0     H72982   7.066   1.512   9.134  0.3682  0.7065 -0.1736
  529MOL0     H72983   7.020   1.599   9.339  1.1686 -2.4384 -0.2444
  529MOL0     H72984   7.161   1.767   9.735  1.5074  0.2889  2.3446
  529MOL0     H72985   7.150   1.846   9.958 -0.6732 -1.0597 -0.5806
  529MOL0     H72986   7.057   3.746  10.334  0.0221 -0.5926 -0.2127
  529MOL0     H72987   7.107   3.801  10.560 -3.4373  2.7222  1.2522
  529MOL0     H72988   7.257   3.746  10.845 -1.5197 -3.6892 -1.9154
  529MOL0     H72989   7.423   3.802  11.016  0.0758  0.6245  2.7836
  529MOL0     H72990   7.282   3.892  11.321  0.7695  0.7921 -1.1608
  529MOL0     H72991   7.319   3.775  11.442  0.1217  1.8955  1.1132
  529MOL0     H72992   7.549   3.864  11.461 -1.3071 -1.1562  0.4743
  529MOL0     H72993   7.425   3.975  11.515  0.8335  0.9870 -0.1955
  529MOL0     H72994   7.571   3.972  11.244 -0.2768 -0.9849  0.4540
  529MOL0     H72995   7.438   4.081  11.272 -2.8322 -2.3367  1.0441
  529MOL0     H72996   7.584   4.167  11.488  1.2841  1.9257 -0.7487
  529MOL0     H72997   7.643   4.196  11.324 -1.2419  2.1965  1.3751
  529MOL0     H72998   7.944   3.942  11.441  1.2707  1.0895  1.7629
  529MOL0     H72999   7.200   3.588  11.318 -0.8076  2.8674  0.4863
  529MOL0     H73000   6.985   3.515  11.269 -1.1083  3.4053 -1.3876
  529MOL0     H73001   6.932   3.492  11.113 -0.1028  1.1110  1.4541
  529MOL0     H73002   7.047   3.371  11.170  1.2884 -0.2193  0.3580
  530MOL0     O73003   1.096   9.908   2.126 -0.7721 -0.5030  0.0141
  530MOL0     C73004   0.997   9.942   2.072  0.2800  0.5098  0.3774
  530MOL0     O73005   0.896  10.013   2.132  0.7099  0.3354 -0.3843
  530MOL0     C73006   0.916  10.051   2.267  0.2158 -0.1824 -0.1413
  530MOL0     C73007   0.823  10.020   2.366  0.0503  0.2280  0.2622
  530MOL0     C73008   0.850  10.074   2.494 -0.0252 -0.8183  0.2170
  530MOL0     C73009   0.953  10.167   2.523 -0.1675  0.4871  0.1386
  530MOL0     O73010   0.974  10.224   2.653 -0.8737  0.0661  0.1586
  530MOL0     C73011   1.111  10.203   2.689 -0.1495  0.0197  0.6512
  530MOL0     C73012   1.142  10.240   2.836 -0.8246 -0.1702  0.3068
  530MOL0     C73013   1.266  10.194   2.905 -0.4166  0.5989  0.0453
  530MOL0     C73014   1.394  10.258   2.859  0.8281 -0.6114  0.2136
  530MOL0     C73015   1.516  10.202   2.941 -0.3322 -0.2536  0.2146
  530MOL0     C73016   1.640  10.288   2.925  0.6975  0.3368 -0.2082
  530MOL0     C73017   1.753  10.200   2.968 -0.1457  0.2908  0.3153
  530MOL0     C73018   1.876  10.286   3.002  0.4652 -0.3207  0.1393
  530MOL0     N73019   2.004  10.215   2.997 -0.2259 -0.5657  0.1832
  530MOL0     C73020   2.049  10.124   3.091 -0.6713 -0.6334 -0.6530
  530MOL0     C73021   2.173  10.091   3.045 -0.4718 -0.0310  0.5629
  530MOL0     C73022   2.286  10.003   3.098  0.0623  0.1640  0.8290
  530MOL0     C73023   2.365  10.098   3.189  0.0420 -0.4191 -0.4426
  530MOL0     C73024   2.512  10.053   3.204 -0.2308  0.0928 -0.2458
  530MOL0     C73025   2.530   9.922   3.283 -0.9047  0.3873 -0.9992
  530MOL0     O73026   2.649   9.843   3.253  0.2006  1.1408 -0.5529
  530MOL0     C73027   2.761   9.854   3.332 -0.3063  0.1173 -0.9684
  530MOL0     C73028   2.841   9.740   3.350 -0.4224 -0.0356  0.5879
  530MOL0     C73029   2.960   9.727   3.423 -0.1641  0.2550  0.6036
  530MOL0     C73030   3.019   9.596   3.420 -0.1689  0.6519  0.4239
  530MOL0     C73031   3.001   9.853   3.488 -0.4795  0.4370  0.2195
  530MOL0     C73032   3.119   9.860   3.571  0.6968 -0.3033 -0.1167
  530MOL0     O73033   3.140   9.978   3.626 -0.8946 -0.0460 -0.3327
  530MOL0     C73034   3.242   9.992   3.718  0.2324  0.4825 -0.5627
  530MOL0     C73035   3.368  10.039   3.662  1.2874  0.7681  0.6273
  530MOL0     C73036   3.482  10.052   3.742  0.1558 -1.0293  0.0375
  530MOL0     C73037   3.476  10.014   3.883 -0.4735 -0.9740  0.5386
  530MOL0     O73038   3.571  10.016   3.981 -1.0164  0.0980 -0.0090
  530MOL0     C73039   3.711  10.025   3.935  0.1402 -0.3991  0.6100
  530MOL0     C73040   3.765  10.165   3.893  0.9638 -0.4444  0.6189
  530MOL0     C73041   3.902  10.156   3.836  0.0496  1.3154 -0.4158
  530MOL0     C73042   3.970  10.284   3.804  0.1133  0.0979 -0.0105
  530MOL0     C73043   4.123  10.260   3.778 -0.0252  0.4185  0.2823
  530MOL0     C73044   4.195  10.397   3.761 -0.5121  0.3035 -0.4313
  530MOL0     C73045   4.340  10.393   3.719 -0.2267  0.0438  0.1051
  530MOL0     C73046   4.340  10.371   3.568  0.2733  0.2138  0.9925
  530MOL0    Cl73047   4.501  10.414   3.497 -0.0762  0.1701  0.3005
  530MOL0     C73048   3.353   9.973   3.928 -0.1016  0.6201  1.2398
  530MOL0     C73049   3.233   9.969   3.855  0.0887  0.1554  0.3506
  530MOL0     O73050   3.178   9.756   3.602 -0.3920  0.1560 -0.1334
  530MOL0     C73051   2.928   9.968   3.469 -0.1626 -0.1227  0.0541
  530MOL0     C73052   2.811   9.967   3.394 -0.0358 -0.9039 -0.2684
  530MOL0     N73053   2.195  10.168   2.933 -0.1035 -0.0298  0.3008
  530MOL0     N73054   2.096  10.239   2.898  0.4200  0.0317 -0.1049
  530MOL0     C73055   1.036  10.208   2.416  0.4562  0.3247 -0.7099
  530MOL0     C73056   1.018  10.143   2.293 -0.1072  0.5048 -0.2659
  530MOL0     C73057   0.981   9.894   1.934 -0.1259  0.2897  0.6087
  530MOL0     C73058   0.933  10.000   1.859  0.4949  0.1708  0.3153
  530MOL0     C73059   0.915   9.981   1.716  0.3782 -0.2771  0.3092
  530MOL0     C73060   0.951   9.862   1.652  0.0098 -0.2008 -0.2493
  530MOL0     O73061   0.943   9.840   1.517  0.2380 -0.1159  0.0667
  530MOL0     C73062   0.983   9.943   1.422 -0.2076  0.1174  1.2299
  530MOL0     C73063   1.135   9.950   1.424 -0.0766  0.3993 -0.3993
  530MOL0     C73064   1.197  10.052   1.323 -0.2412 -0.4814 -0.1945
  530MOL0     C73065   1.349  10.059   1.332 -0.2158  0.0047 -0.4060
  530MOL0     C73066   1.412  10.157   1.237  0.1228  0.0171  0.0698
  530MOL0     C73067   1.472  10.241   1.178 -0.1990  0.6820  0.0519
  530MOL0     C73068   0.984   9.759   1.733  0.4025  0.3570 -0.5175
  530MOL0     C73069   1.004   9.774   1.875  0.0710 -0.5011  0.1568
  530MOL0     C73070   1.031   9.651   1.964  0.0012  1.0262 -0.2118
  530MOL0     H73071   0.739   9.954   2.345  0.8391 -0.6474 -0.1935
  530MOL0     H73072   0.788  10.048   2.580 -0.0208 -0.5422  0.3061
  530MOL0     H73073   1.172  10.270   2.627 -0.2404  2.1958  2.7508
  530MOL0     H73074   1.154  10.110   2.653  3.7009  2.2937 -1.3489
  530MOL0     H73075   1.132  10.349   2.847  1.8633  0.4253 -2.0115
  530MOL0     H73076   1.054  10.195   2.883 -2.6984  0.0936 -2.6806
  530MOL0     H73077   1.241  10.221   3.008 -2.3442  0.0652 -0.2380
  530MOL0     H73078   1.265  10.084   2.902 -0.7418  0.5322  1.6143
  530MOL0     H73079   1.421  10.235   2.755 -0.9598  2.4261 -1.0533
  530MOL0     H73080   1.378  10.365   2.872  1.1929 -0.4353 -0.6836
  530MOL0     H73081   1.530  10.100   2.906 -1.3993  0.0039 -1.0211
  530MOL0     H73082   1.495  10.202   3.048 -1.2522  1.0488  0.0628
  530MOL0     H73083   1.656  10.314   2.820 -2.5750 -0.8226 -1.1254
  530MOL0     H73084   1.637  10.386   2.972 -0.1852  0.1303  0.1769
  530MOL0     H73085   1.768  10.136   2.880 -1.6195  4.3216 -3.2609
  530MOL0     H73086   1.733  10.150   3.063  1.7610 -1.1743  0.0045
  530MOL0     H73087   1.888  10.376   2.942  2.8972  1.0993  2.5601
  530MOL0     H73088   1.852  10.321   3.103 -1.2675  1.3912 -0.7933
  530MOL0     H73089   2.005  10.101   3.188  1.4852  0.0843  0.5516
  530MOL0     H73090   2.349   9.977   3.012  0.3552  0.4312  0.9612
  530MOL0     H73091   2.252   9.908   3.140  0.4176 -1.9011 -3.0141
  530MOL0     H73092   2.374  10.197   3.144 -1.4733  0.4585  1.0859
  530MOL0     H73093   2.323  10.107   3.290  1.4729 -0.0987  0.1523
  530MOL0     H73094   2.568  10.038   3.111 -0.4309 -1.0266 -0.2052
  530MOL0     H73095   2.579  10.121   3.256  2.1223  0.7313 -3.7650
  530MOL0     H73096   2.533   9.935   3.392 -1.4326 -0.0418 -0.9270
  530MOL0     H73097   2.441   9.861   3.266 -2.5413  1.9865  1.2740
  530MOL0     H73098   2.809   9.654   3.292  2.1855 -0.8792  0.2704
  530MOL0     H73099   3.086   9.584   3.334  2.7952 -2.3200  2.8759
  530MOL0     H73100   2.947   9.516   3.400 -0.0695  0.8496 -0.7953
  530MOL0     H73101   3.078   9.564   3.506  1.4994  1.3643 -0.4013
  530MOL0     H73102   3.375  10.061   3.556 -2.4536  0.4470  0.1774
  530MOL0     H73103   3.573  10.075   3.688  0.4992 -1.6619  0.3416
  530MOL0     H73104   3.776   9.978   4.009 -3.1139 -2.0462  2.6530
  530MOL0     H73105   3.723   9.963   3.846 -0.4533  2.2659 -1.4599
  530MOL0     H73106   3.693  10.205   3.821  1.9295 -0.3504 -0.3272
  530MOL0     H73107   3.770  10.238   3.974 -0.7979  0.1260  0.2561
  530MOL0     H73108   3.900  10.113   3.735  0.3564  1.3087 -0.4196
  530MOL0     H73109   3.954  10.090   3.906 -3.9903 -0.4623  1.2451
  530MOL0     H73110   3.959  10.354   3.888 -3.8680  0.9154 -0.9973
  530MOL0     H73111   3.925  10.334   3.718  1.7624  0.9192 -0.4358
  530MOL0     H73112   4.164  10.210   3.866 -0.7845  1.7132  1.4133
  530MOL0     H73113   4.144  10.194   3.694  0.8601  0.0823  0.7515
  530MOL0     H73114   4.180  10.441   3.860 -0.4158 -1.5063  0.4249
  530MOL0     H73115   4.141  10.453   3.684 -1.6296  0.4882  0.4439
  530MOL0     H73116   4.400  10.321   3.775  3.3173  3.8348  1.7387
  530MOL0     H73117   4.376  10.496   3.732 -4.3974  1.6306  0.4718
  530MOL0     H73118   4.272  10.437   3.514  1.0647  0.2747  0.0372
  530MOL0     H73119   4.320  10.267   3.541 -0.1138  0.5265  0.0352
  530MOL0     H73120   3.343   9.935   4.030  0.6811 -3.3784 -0.0039
  530MOL0     H73121   3.137   9.938   3.895 -0.3629 -1.1246 -1.5381
  530MOL0     H73122   2.951  10.060   3.521  0.3674  0.1741 -0.6949
  530MOL0     H73123   2.756  10.061   3.392 -1.5397 -1.7680 -0.4802
  530MOL0     H73124   1.114  10.282   2.427  0.0169  0.4995  1.6122
  530MOL0     H73125   1.089  10.165   2.214 -1.6304 -1.3322 -2.2824
  530MOL0     H73126   0.897  10.091   1.906 -1.9168 -0.8985  0.6445
  530MOL0     H73127   0.884  10.064   1.652  3.1813  0.0414 -0.7739
  530MOL0     H73128   0.953   9.919   1.319  2.0538 -0.4207  0.6439
  530MOL0     H73129   0.951  10.046   1.438  1.3466  0.6446  1.1083
  530MOL0     H73130   1.178   9.851   1.405 -0.9746 -0.0180 -0.3232
  530MOL0     H73131   1.161   9.967   1.529 -1.3211  0.4566 -0.0760
  530MOL0     H73132   1.180  10.015   1.222 -0.2384 -1.8502  0.2878
  530MOL0     H73133   1.150  10.149   1.346 -0.4938 -0.7609  0.5162
  530MOL0     H73134   1.388   9.958   1.320 -2.6272 -1.1522  0.7091
  530MOL0     H73135   1.387  10.077   1.433  0.8550 -2.7788 -0.2340
  530MOL0     H73136   1.538  10.313   1.134 -1.0626  2.0828  0.9610
  530MOL0     H73137   1.009   9.663   1.689  4.3326  0.7109  0.5455
  530MOL0     H73138   0.971   9.647   2.055 -1.1256 -1.1067 -0.9684
  530MOL0     H73139   1.017   9.549   1.926  0.7409  1.0463 -0.5536
  530MOL0     H73140   1.134   9.666   1.996  0.6128 -0.9498 -1.0867
  531MOL0     O73141   0.900   1.964   7.941  0.4859  0.4338 -0.1590
  531MOL0     C73142   0.872   1.982   8.064  0.5198  0.3080 -0.8272
  531MOL0     O73143   0.966   1.997   8.163 -0.4832 -0.1760 -0.1555
  531MOL0     C73144   1.095   1.956   8.132  0.7393 -0.5292  0.6591
  531MOL0     C73145   1.123   1.837   8.079 -0.6140  0.0129 -1.0374
  531MOL0     C73146   1.247   1.782   8.067 -0.5727 -0.2017  0.4715
  531MOL0     C73147   1.360   1.859   8.112  0.2633  0.2837 -0.3033
  531MOL0     O73148   1.492   1.828   8.100 -1.0267  0.3305 -0.6604
  531MOL0     C73149   1.519   1.713   8.030 -0.6603 -0.4384  0.5355
  531MOL0     C73150   1.663   1.691   8.042 -0.1250  0.7960 -0.6756
  531MOL0     C73151   1.696   1.638   8.186  0.9235  0.1141 -0.3751
  531MOL0     C73152   1.845   1.627   8.201 -0.6410 -1.1281 -0.0424
  531MOL0     C73153   1.884   1.600   8.346 -0.3259  0.3137 -0.1589
  531MOL0     C73154   2.032   1.633   8.365 -0.2048 -0.1438  0.4995
  531MOL0     C73155   2.091   1.584   8.499 -0.1397 -0.3660  0.2351
  531MOL0     C73156   2.250   1.598   8.494 -0.4261  0.0284 -1.2521
  531MOL0     N73157   2.304   1.586   8.625 -0.7774 -0.1988 -0.1651
  531MOL0     C73158   2.429   1.630   8.668  0.2633  0.0434  0.5183
  531MOL0     C73159   2.458   1.569   8.783  1.2210 -0.5769 -0.2381
  531MOL0     C73160   2.582   1.600   8.864 -0.1514 -0.4432  0.3601
  531MOL0     C73161   2.600   1.514   8.985 -0.7162 -0.2928 -0.6933
  531MOL0     C73162   2.725   1.554   9.069  0.1451  0.0358 -0.7836
  531MOL0     C73163   2.853   1.503   9.000 -0.2633  0.4457 -0.7861
  531MOL0     O73164   2.841   1.363   8.977 -0.2005  0.1391  0.3160
  531MOL0     C73165   2.949   1.299   8.924 -0.2454  0.9147 -0.0774
  531MOL0     C73166   3.079   1.354   8.894  0.5049  0.2750 -0.4123
  531MOL0     C73167   3.185   1.270   8.868  0.4626  0.7322  1.0732
  531MOL0     C73168   3.310   1.342   8.835 -0.5407  0.6496  0.2088
  531MOL0     C73169   3.161   1.129   8.847  0.6585 -0.5891 -0.4247
  531MOL0     C73170   3.268   1.024   8.815 -0.4844  0.7298  0.0780
  531MOL0     O73171   3.252   0.898   8.887 -1.5602  0.1031 -0.9413
  531MOL0     C73172   3.355   0.813   8.901 -0.2033  0.5988 -0.1085
  531MOL0     C73173   3.368   0.747   9.023  0.6659  0.1755  0.9597
  531MOL0     C73174   3.453   0.641   9.046 -0.0938 -0.3065 -0.9469
  531MOL0     C73175   3.529   0.595   8.939  0.4291  0.3707 -0.1152
  531MOL0     O73176   3.615   0.491   8.956  0.4251 -0.0633 -0.1082
  531MOL0     C73177   3.620   0.397   8.848 -0.9037 -0.0420 -0.0808
  531MOL0     C73178   3.681   0.256   8.885  0.1493  0.0941 -0.1090
  531MOL0     C73179   3.579   0.187   8.980 -0.0837  0.0680 -1.7465
  531MOL0     C73180   3.636   0.061   9.051  1.3506 -0.6168  0.0973
  531MOL0     C73181   3.552   0.011   9.168  0.9403  0.8639 -0.5307
  531MOL0     C73182   3.622  -0.072   9.279  0.3545 -0.4562  0.6410
  531MOL0     C73183   3.531  -0.169   9.370  0.8740  0.1807  0.0538
  531MOL0     C73184   3.604  -0.272   9.450 -0.1160  1.0290 -1.0156
  531MOL0    Cl73185   3.707  -0.214   9.583 -0.5440 -0.0957  0.3657
  531MOL0     C73186   3.527   0.664   8.818 -0.2574  0.7033 -0.2593
  531MOL0     C73187   3.444   0.771   8.794 -0.2969 -0.0925  0.2247
  531MOL0     O73188   3.368   1.067   8.754  0.2792  0.8102 -0.6675
  531MOL0     C73189   3.030   1.078   8.859  0.3596  0.3863  0.5738
  531MOL0     C73190   2.938   1.161   8.907  0.0985 -0.1154  0.4926
  531MOL0     N73191   2.354   1.477   8.799  0.4543 -0.0735 -0.7008
  531MOL0     N73192   2.253   1.497   8.709 -0.9574 -0.4864 -0.0516
  531MOL0     C73193   1.337   1.978   8.168 -0.2275  0.1251 -0.5933
  531MOL0     C73194   1.205   2.036   8.169 -0.7730 -0.1987  0.3376
  531MOL0     C73195   0.739   2.001   8.118  0.9837 -0.0910  0.3052
  531MOL0     C73196   0.718   2.107   8.207  0.6764 -0.5069 -1.0688
  531MOL0     C73197   0.588   2.135   8.256  0.0085  0.0344 -0.2673
  531MOL0     C73198   0.491   2.031   8.237 -0.0607  0.1757 -0.1742
  531MOL0     O73199   0.366   2.032   8.291 -0.2652 -0.3264 -0.5713
  531MOL0     C73200   0.326   2.131   8.383 -0.6125 -0.4194  0.2843
  531MOL0     C73201   0.186   2.100   8.447 -0.6674 -0.4464  0.3415
  531MOL0     C73202   0.188   2.144   8.594  0.7466  0.4732 -0.0614
  531MOL0     C73203   0.048   2.120   8.656 -0.0663  0.1389  0.6652
  531MOL0     C73204  -0.035   2.237   8.619 -0.4942 -0.2276 -0.5735
  531MOL0     C73205  -0.103   2.338   8.596  0.4564  0.4262  1.1854
  531MOL0     C73206   0.513   1.918   8.157  0.0197 -0.9627  0.4864
  531MOL0     C73207   0.634   1.905   8.094  0.6831  0.3530  0.2820
  531MOL0     C73208   0.653   1.777   8.009 -0.1542  0.3229 -1.1283
  531MOL0     H73209   1.038   1.779   8.045 -1.1956  1.4369 -2.0933
  531MOL0     H73210   1.261   1.685   8.021  1.2135  1.5040 -3.0053
  531MOL0     H73211   1.494   1.718   7.923  2.1976 -1.4702 -0.2625
  531MOL0     H73212   1.467   1.630   8.078  0.4473 -0.7130  1.2882
  531MOL0     H73213   1.685   1.614   7.967  0.0649  1.4003 -1.2475
  531MOL0     H73214   1.715   1.784   8.019  1.9840 -0.9853 -3.8690
  531MOL0     H73215   1.653   1.695   8.269 -0.0177  0.9203 -1.3950
  531MOL0     H73216   1.664   1.534   8.196 -0.1487  0.5123  0.5961
  531MOL0     H73217   1.884   1.547   8.139  1.8199 -1.8801  2.2761
  531MOL0     H73218   1.883   1.725   8.172  0.2045 -1.5166 -0.2562
  531MOL0     H73219   1.862   1.496   8.370 -1.0367  0.1581 -1.3960
  531MOL0     H73220   1.838   1.656   8.428  1.5633  0.0685  1.1548
  531MOL0     H73221   2.096   1.598   8.283 -1.0104  1.3501 -0.8370
  531MOL0     H73222   2.047   1.741   8.376 -2.0893  0.2773 -0.6430
  531MOL0     H73223   2.048   1.489   8.531  0.4664 -0.2297  1.5409
  531MOL0     H73224   2.057   1.662   8.568 -0.7937  1.8091 -2.3300
  531MOL0     H73225   2.289   1.531   8.417  0.4910 -0.5890 -0.2818
  531MOL0     H73226   2.282   1.696   8.459  0.3407  0.7928  1.3720
  531MOL0     H73227   2.488   1.709   8.622 -1.0706 -0.0193 -1.4272
  531MOL0     H73228   2.588   1.708   8.881 -1.0498 -0.0372 -1.6211
  531MOL0     H73229   2.670   1.583   8.802 -0.5231 -0.0498 -0.2802
  531MOL0     H73230   2.510   1.517   9.048  1.5339  2.6404  2.8200
  531MOL0     H73231   2.604   1.412   8.945 -3.0445  0.2024 -2.3887
  531MOL0     H73232   2.725   1.660   9.095 -1.8737 -0.5021  1.8998
  531MOL0     H73233   2.706   1.500   9.162  2.1228  1.5420  0.5801
  531MOL0     H73234   2.879   1.561   8.911  1.7011  3.6682  1.6079
  531MOL0     H73235   2.935   1.526   9.070  0.5317 -1.8888 -0.8497
  531MOL0     H73236   3.104   1.455   8.924  3.2618 -0.6031  0.5911
  531MOL0     H73237   3.305   1.449   8.855  2.3726  1.1235 -1.0738
  531MOL0     H73238   3.346   1.334   8.732 -2.5159 -1.4203 -0.4151
  531MOL0     H73239   3.387   1.303   8.903  0.5532  1.8869 -0.2770
  531MOL0     H73240   3.299   0.770   9.103  0.0094  4.0345 -0.4899
  531MOL0     H73241   3.454   0.582   9.137  0.8433 -0.9381 -1.3582
  531MOL0     H73242   3.516   0.393   8.814 -0.4293  0.5662 -1.6654
  531MOL0     H73243   3.680   0.441   8.768  2.1160 -0.9458  1.5484
  531MOL0     H73244   3.686   0.186   8.801  0.0035 -1.2746  0.9929
  531MOL0     H73245   3.777   0.268   8.935  1.3920  0.9889 -2.5252
  531MOL0     H73246   3.487   0.146   8.937 -2.4543  0.9658  2.0160
  531MOL0     H73247   3.547   0.260   9.055  0.0861  0.7032 -2.2837
  531MOL0     H73248   3.736   0.088   9.088  1.0002  3.6994 -1.4427
  531MOL0     H73249   3.659  -0.022   8.985 -1.8346 -2.3825  0.9976
  531MOL0     H73250   3.494   0.088   9.221 -0.2708 -1.0593  1.1025
  531MOL0     H73251   3.473  -0.046   9.118 -0.6209  1.8621  0.6713
  531MOL0     H73252   3.678  -0.007   9.347 -1.0099  0.6362  0.7640
  531MOL0     H73253   3.698  -0.136   9.232  0.6928  0.0515  0.4878
  531MOL0     H73254   3.467  -0.211   9.292  0.9428  1.7874 -0.9218
  531MOL0     H73255   3.470  -0.106   9.435 -1.4759  0.7460 -2.5355
  531MOL0     H73256   3.664  -0.334   9.383  0.2769 -2.0310  1.9160
  531MOL0     H73257   3.523  -0.341   9.476 -0.6422  2.1341  0.4071
  531MOL0     H73258   3.591   0.623   8.740 -0.4041  0.6074 -0.3295
  531MOL0     H73259   3.452   0.828   8.702  0.0414  1.3161  1.0820
  531MOL0     H73260   2.997   0.975   8.859  0.1605  0.3855  2.9384
  531MOL0     H73261   2.841   1.118   8.928  0.3813 -0.9798  0.0710
  531MOL0     H73262   1.415   2.034   8.218 -3.3520  2.7898  1.7371
  531MOL0     H73263   1.175   2.125   8.224 -2.8516 -0.0742 -0.8880
  531MOL0     H73264   0.797   2.177   8.234  2.7201 -2.0054 -2.7992
  531MOL0     H73265   0.570   2.220   8.321  0.0290  0.0738 -0.3129
  531MOL0     H73266   0.399   2.141   8.464  0.3325 -2.1591 -0.2971
  531MOL0     H73267   0.324   2.232   8.340 -1.5656  1.1437  3.6183
  531MOL0     H73268   0.161   1.995   8.431  1.0002 -0.5386 -2.1076
  531MOL0     H73269   0.114   2.164   8.396  0.8246  0.2136 -1.0118
  531MOL0     H73270   0.256   2.087   8.657  0.6452 -1.6753 -1.7600
  531MOL0     H73271   0.218   2.249   8.602  0.3068  0.4711  1.9952
  531MOL0     H73272   0.061   2.106   8.764  1.8543 -1.1427  0.3155
  531MOL0     H73273   0.002   2.029   8.616 -0.5692  1.3940 -1.8344
  531MOL0     H73274  -0.163   2.425   8.580 -1.3608 -0.9788 -0.0708
  531MOL0     H73275   0.433   1.844   8.150 -0.7779 -0.4335  2.9887
  531MOL0     H73276   0.654   1.795   7.901 -1.3605  0.1508 -1.1858
  531MOL0     H73277   0.750   1.733   8.033 -0.9138 -0.1150  1.4786
  531MOL0     H73278   0.578   1.703   8.039  0.4560  0.4892  0.9630
  532MOL0     O73279   9.842   0.793   2.832 -0.5526  0.7523  0.5234
  532MOL0     C73280   9.801   0.906   2.814  0.2926 -0.4510 -0.7940
  532MOL0     O73281   9.794   1.004   2.911 -0.0229 -1.0427  0.5622
  532MOL0     C73282   9.823   0.989   3.048  0.0742  0.3341  0.0558
  532MOL0     C73283   9.830   0.865   3.114  0.3093 -0.1458  0.6205
  532MOL0     C73284   9.844   0.855   3.253  0.4284 -0.5155 -0.0310
  532MOL0     C73285   9.864   0.974   3.325 -1.2913 -0.3643  0.6447
  532MOL0     O73286   9.889   0.978   3.463 -0.2003  0.6548 -0.1371
  532MOL0     C73287   9.965   0.869   3.523  0.1443  0.4663 -0.9530
  532MOL0     C73288  10.013   0.909   3.664  0.5496  0.5793  0.4380
  532MOL0     C73289  10.140   1.001   3.667  0.0439  0.2984  0.9389
  532MOL0     C73290  10.267   0.922   3.627 -0.5766  0.1342  0.7563
  532MOL0     C73291  10.294   0.813   3.735 -0.8231  0.3049  1.0940
  532MOL0     C73292  10.423   0.740   3.684  0.9202 -0.2180  0.1749
  532MOL0     C73293  10.474   0.662   3.806 -0.2015  0.0650 -0.4620
  532MOL0     C73294  10.521   0.516   3.778  0.3611 -0.4739  0.2300
  532MOL0     N73295  10.628   0.515   3.679  0.0839  1.0420  0.2032
  532MOL0     C73296  10.764   0.517   3.710 -0.8048  0.6154 -0.1934
  532MOL0     C73297  10.835   0.478   3.595  0.1369 -0.0939 -0.0337
  532MOL0     C73298  10.981   0.461   3.571 -0.8539 -0.5988 -1.0422
  532MOL0     C73299  11.023   0.556   3.467 -0.1680 -0.1953  0.4535
  532MOL0     C73300  11.177   0.574   3.464 -0.0348 -0.0084 -0.5306
  532MOL0     C73301  11.211   0.686   3.559 -1.5293  0.1119  0.1785
  532MOL0     O73302  11.346   0.670   3.609  0.6315  0.7790  0.1759
  532MOL0     C73303  11.456   0.699   3.539 -0.5306 -0.7084  0.5065
  532MOL0     C73304  11.459   0.808   3.460 -0.0395 -0.2508  0.4756
  532MOL0     C73305  11.563   0.839   3.375  0.0384 -0.3341 -1.0393
  532MOL0     C73306  11.554   0.965   3.298 -0.2553  0.0686  0.0763
  532MOL0     C73307  11.673   0.744   3.377  0.3673 -0.3922 -0.5696
  532MOL0     C73308  11.778   0.740   3.276 -0.0830 -0.0673  0.5755
  532MOL0     O73309  11.756   0.830   3.171 -0.5214  0.4354 -0.0636
  532MOL0     C73310  11.846   0.873   3.073  0.6617 -1.1932 -0.1864
  532MOL0     C73311  11.974   0.844   3.072 -0.0346  1.2652  0.5404
  532MOL0     C73312  12.066   0.876   2.973 -0.9627 -0.0158  0.9063
  532MOL0     C73313  12.019   0.943   2.862 -0.2835 -0.5193  0.4838
  532MOL0     O73314  12.108   0.958   2.749 -0.4919 -0.5651  0.1259
  532MOL0     C73315  12.052   1.023   2.629 -0.4627  0.3275 -0.4160
  532MOL0     C73316  12.157   1.024   2.523  0.9923  0.0653  0.6973
  532MOL0     C73317  12.202   0.882   2.499 -0.3069  0.4282  0.0136
  532MOL0     C73318  12.287   0.870   2.366 -0.3027  0.0485 -0.0612
  532MOL0     C73319  12.364   0.745   2.360 -0.3479 -0.0625 -0.6413
  532MOL0     C73320  12.460   0.734   2.239 -0.2445 -0.1597  0.2396
  532MOL0     C73321  12.570   0.627   2.271 -0.2213  0.1988 -0.0913
  532MOL0     C73322  12.688   0.637   2.172 -0.2255 -0.9088  0.2876
  532MOL0    Cl73323  12.791   0.774   2.221  0.0174  1.1177  0.1536
  532MOL0     C73324  11.883   0.988   2.862  0.3535 -0.0035 -0.9999
  532MOL0     C73325  11.802   0.951   2.972  1.2025 -0.0762  0.0295
  532MOL0     O73326  11.865   0.662   3.278 -0.8682 -0.1597  0.1480
  532MOL0     C73327  11.672   0.640   3.468  0.0377 -0.1190 -0.0436
  532MOL0     C73328  11.568   0.623   3.558 -0.7055  0.8616 -0.6690
  532MOL0     N73329  10.732   0.462   3.504  0.0299  0.0330 -0.8600
  532MOL0     N73330  10.612   0.485   3.547 -0.1436  0.1070 -0.5184
  532MOL0     C73331   9.848   1.099   3.263  0.2112 -0.0223  0.0537
  532MOL0     C73332   9.823   1.105   3.128  0.1757 -0.5181  0.2264
  532MOL0     C73333   9.755   0.942   2.671 -0.4977 -0.4978 -0.5817
  532MOL0     C73334   9.674   1.061   2.657  1.1698 -0.3870  0.6238
  532MOL0     C73335   9.615   1.084   2.529 -0.0629 -0.5646 -0.8804
  532MOL0     C73336   9.625   1.002   2.427  0.1834  0.2654  0.4252
  532MOL0     O73337   9.557   1.014   2.310  0.2912  0.1336  0.0155
  532MOL0     C73338   9.463   1.117   2.285 -0.4711  0.7307 -0.4147
  532MOL0     C73339   9.324   1.059   2.324  0.2700 -0.7470  0.3055
  532MOL0     C73340   9.300   0.995   2.457  0.6205 -0.7228  0.2756
  532MOL0     C73341   9.152   0.952   2.467  0.3429  0.0786 -0.3301
  532MOL0     C73342   9.111   0.831   2.397 -0.5300  0.4782  0.1953
  532MOL0     C73343   9.088   0.721   2.344 -0.2320 -0.1939  0.0331
  532MOL0     C73344   9.707   0.890   2.433  0.4812  0.5656  0.1759
  532MOL0     C73345   9.765   0.855   2.554 -0.1902  0.3408 -0.0267
  532MOL0     C73346   9.844   0.718   2.560 -0.1488  0.1507 -0.5974
  532MOL0     H73347   9.822   0.773   3.057  0.5339  1.0490 -1.4260
  532MOL0     H73348   9.837   0.760   3.306 -0.3721  1.8388  4.6098
  532MOL0     H73349  10.049   0.843   3.459 -0.5635 -2.2382 -0.8828
  532MOL0     H73350   9.896   0.786   3.540 -2.3360  2.7074  0.8499
  532MOL0     H73351   9.939   0.965   3.722  1.0660  0.0999  1.5914
  532MOL0     H73352  10.029   0.828   3.735 -3.2022  1.1313  2.1838
  532MOL0     H73353  10.128   1.095   3.614 -2.2758  0.0867  1.0000
  532MOL0     H73354  10.158   1.019   3.774  2.0905 -2.2803  1.1551
  532MOL0     H73355  10.238   0.878   3.532 -0.5969  3.4653 -0.9082
  532MOL0     H73356  10.349   0.987   3.598  1.5131 -2.2393  0.9432
  532MOL0     H73357  10.219   0.734   3.741  0.6957 -1.1545  1.5694
  532MOL0     H73358  10.310   0.872   3.826 -0.6594  0.1481  1.1686
  532MOL0     H73359  10.382   0.680   3.602  1.0866  0.3629 -0.3412
  532MOL0     H73360  10.500   0.809   3.646 -0.2186  0.7615 -0.4401
  532MOL0     H73361  10.396   0.639   3.879 -1.4373  0.9754 -1.4674
  532MOL0     H73362  10.560   0.717   3.843  0.3893  1.2925 -3.3903
  532MOL0     H73363  10.545   0.460   3.869 -0.6740 -2.8620 -0.8873
  532MOL0     H73364  10.428   0.471   3.743 -0.5429 -1.4626  3.5297
  532MOL0     H73365  10.815   0.552   3.799 -1.0386  3.7028 -1.1661
  532MOL0     H73366  10.989   0.354   3.553  2.7739 -0.4973 -0.7023
  532MOL0     H73367  11.033   0.479   3.666  0.8215  0.1362 -2.0655
  532MOL0     H73368  10.991   0.512   3.372 -1.2092  0.7083  0.3685
  532MOL0     H73369  10.974   0.651   3.489  0.3259 -0.6551  4.1491
  532MOL0     H73370  11.222   0.486   3.511  1.8500  2.2774  2.2738
  532MOL0     H73371  11.212   0.596   3.363 -2.7898  2.6319 -1.0491
  532MOL0     H73372  11.195   0.784   3.515 -1.7221 -1.2139 -3.0038
  532MOL0     H73373  11.149   0.686   3.650 -4.0412 -0.1835 -1.4247
  532MOL0     H73374  11.374   0.876   3.454  0.2215  0.0955  0.6091
  532MOL0     H73375  11.467   1.030   3.316  0.4664  1.0194  0.2132
  532MOL0     H73376  11.546   0.943   3.191  1.1273  1.9143 -0.4474
  532MOL0     H73377  11.648   1.020   3.305  1.4677 -2.2489 -2.6559
  532MOL0     H73378  12.020   0.780   3.148 -1.9897 -1.1942 -0.2222
  532MOL0     H73379  12.167   0.838   2.975 -1.2125 -1.6411 -3.9829
  532MOL0     H73380  11.977   0.949   2.600  0.4170 -1.5918  1.8925
  532MOL0     H73381  12.014   1.123   2.649  1.1859  1.0482 -0.7024
  532MOL0     H73382  12.139   1.068   2.424  3.1514 -0.0568  0.1854
  532MOL0     H73383  12.242   1.080   2.562  2.0979 -1.9648  1.3790
  532MOL0     H73384  12.116   0.816   2.484 -1.0133  1.3229  0.0497
  532MOL0     H73385  12.258   0.840   2.583  2.4063  0.5782 -1.5912
  532MOL0     H73386  12.365   0.947   2.360  0.0358 -0.3959 -2.0821
  532MOL0     H73387  12.226   0.888   2.277 -2.1051 -0.8527  0.9443
  532MOL0     H73388  12.439   0.751   2.439  0.3241 -1.7866 -1.0945
  532MOL0     H73389  12.302   0.656   2.373  0.0412 -0.6999 -2.6900
  532MOL0     H73390  12.515   0.822   2.205  2.0424 -1.2508  0.9348
  532MOL0     H73391  12.396   0.694   2.160  3.2011  0.2250 -2.9933
  532MOL0     H73392  12.527   0.527   2.276 -0.0283  0.0852 -0.6490
  532MOL0     H73393  12.610   0.650   2.370 -0.1667  0.9038 -0.2662
  532MOL0     H73394  12.658   0.663   2.071 -0.8685  0.5777  0.8276
  532MOL0     H73395  12.748   0.546   2.175  0.6139 -0.4084  3.7808
  532MOL0     H73396  11.823   1.031   2.783 -0.9614  1.8408  0.8685
  532MOL0     H73397  11.697   0.978   2.968  0.8818 -1.0075  1.3832
  532MOL0     H73398  11.752   0.569   3.486 -1.4492 -2.6118 -2.5351
  532MOL0     H73399  11.563   0.550   3.638 -0.3924  1.6353  0.0830
  532MOL0     H73400   9.857   1.190   3.321 -0.7280 -0.7144  1.3507
  532MOL0     H73401   9.818   1.193   3.065  0.3440 -0.9192 -0.3546
  532MOL0     H73402   9.656   1.137   2.732 -1.2953 -1.4250  1.2058
  532MOL0     H73403   9.559   1.176   2.519  1.9497  0.6133 -2.2159
  532MOL0     H73404   9.476   1.205   2.349  1.6992  1.1330 -1.3269
  532MOL0     H73405   9.469   1.149   2.181  0.4830 -2.0016 -1.2975
  532MOL0     H73406   9.305   0.980   2.251  1.3344 -0.3161 -0.4636
  532MOL0     H73407   9.247   1.131   2.298  2.5952  1.4866 -0.8962
  532MOL0     H73408   9.364   0.906   2.464  2.4166  0.5930  1.5668
  532MOL0     H73409   9.324   1.060   2.542 -0.3342 -1.7687  1.3837
  532MOL0     H73410   9.085   1.032   2.437 -1.4629 -1.6969 -1.2419
  532MOL0     H73411   9.143   0.926   2.573  1.4208  0.1404 -0.2123
  532MOL0     H73412   9.082   0.618   2.315  1.0710 -0.4268  0.5077
  532MOL0     H73413   9.726   0.821   2.352  2.5890 -0.8725  1.7743
  532MOL0     H73414   9.863   0.678   2.460  2.7472 -1.5915  0.4926
  532MOL0     H73415   9.940   0.740   2.608 -0.0735 -0.9268 -0.2153
  532MOL0     H73416   9.801   0.647   2.632  2.4701 -0.1448  0.7981
  533MOL0     O73417   2.959   8.461   4.057  0.2135 -0.1364 -0.0475
  533MOL0     C73418   3.048   8.381   4.040  0.6483 -0.1693 -0.4156
  533MOL0     O73419   3.049   8.255   4.079 -0.1560  0.3608  0.3786
  533MOL0     C73420   2.942   8.170   4.118  0.1402 -0.5652 -0.0605
  533MOL0     C73421   2.971   8.054   4.202  0.6826 -0.1492  0.4163
  533MOL0     C73422   2.876   7.970   4.249 -1.2175 -0.7404  0.4951
  533MOL0     C73423   2.743   8.001   4.220 -0.2468 -0.1475  0.5915
  533MOL0     O73424   2.654   7.924   4.297  0.1959  0.2065 -0.3256
  533MOL0     C73425   2.520   7.958   4.281 -0.5487 -0.2150 -0.8047
  533MOL0     C73426   2.431   7.861   4.354  0.0120  1.0923 -0.6849
  533MOL0     C73427   2.414   7.888   4.502  0.1561  0.2101 -0.7347
  533MOL0     C73428   2.543   7.864   4.583 -0.3792 -0.7461 -0.3787
  533MOL0     C73429   2.511   7.869   4.732 -0.0651  0.5938  0.0478
  533MOL0     C73430   2.629   7.892   4.827 -0.1564  0.1282  0.4283
  533MOL0     C73431   2.593   7.986   4.938  0.0203  0.0917 -0.4464
  533MOL0     C73432   2.711   8.012   5.036 -0.1846 -0.4116  0.3120
  533MOL0     N73433   2.809   8.116   4.979 -0.1566 -0.6188 -0.4313
  533MOL0     C73434   2.936   8.089   4.949  0.3257 -0.3084 -0.3308
  533MOL0     C73435   2.985   8.206   4.894  0.0572  0.3560 -0.6575
  533MOL0     C73436   3.130   8.232   4.867 -0.7478 -0.5938  0.5302
  533MOL0     C73437   3.237   8.141   4.930 -0.8547  0.6781 -0.4576
  533MOL0     C73438   3.382   8.170   4.898 -0.4323 -0.6382 -0.3641
  533MOL0     C73439   3.416   8.168   4.754 -0.3772  0.1881  0.2520
  533MOL0     O73440   3.563   8.183   4.734  0.2914 -0.2545  0.0818
  533MOL0     C73441   3.629   8.299   4.737 -0.4251  0.3782  0.0800
  533MOL0     C73442   3.758   8.301   4.696  0.1774  0.3656 -0.5998
  533MOL0     C73443   3.834   8.415   4.686  0.0491 -0.1813 -0.7350
  533MOL0     C73444   3.980   8.403   4.645  0.1383  0.1278 -0.1357
  533MOL0     C73445   3.771   8.540   4.716 -0.3129 -0.2589  0.3094
  533MOL0     C73446   3.842   8.665   4.725  0.3894 -0.2917 -0.0930
  533MOL0     O73447   3.811   8.750   4.831 -0.5645 -0.1463 -0.1827
  533MOL0     C73448   3.858   8.877   4.840  0.4623 -0.2722  0.1630
  533MOL0     C73449   3.809   8.945   4.951  0.7579  0.0416 -1.0191
  533MOL0     C73450   3.872   9.069   4.999  0.4577  0.3843  0.5075
  533MOL0     C73451   3.963   9.126   4.919 -0.2249  0.2384 -0.3352
  533MOL0     O73452   3.995   9.250   4.964 -0.3884 -0.5864  0.0979
  533MOL0     C73453   4.021   9.358   4.868 -0.3433  0.1512 -0.0047
  533MOL0     C73454   4.150   9.442   4.893  0.2686  0.2323 -0.0406
  533MOL0     C73455   4.148   9.505   5.032 -0.1951 -0.2857  0.2154
  533MOL0     C73456   4.278   9.572   5.086  0.1098 -0.0189  0.5568
  533MOL0     C73457   4.256   9.650   5.219 -0.1694 -0.2813  0.0026
  533MOL0     C73458   4.394   9.695   5.258  0.0013  0.0593 -0.1012
  533MOL0     C73459   4.388   9.782   5.385 -0.7635  0.3327 -0.2000
  533MOL0     C73460   4.525   9.812   5.440 -0.1352  0.5255 -0.2777
  533MOL0    Cl73461   4.607   9.667   5.498 -0.6040 -0.3207 -0.3415
  533MOL0     C73462   4.004   9.073   4.793  0.1314  1.0116  0.3770
  533MOL0     C73463   3.951   8.944   4.761 -0.5091  0.6656 -0.1987
  533MOL0     O73464   3.919   8.687   4.629 -0.2050 -0.5336 -0.0734
  533MOL0     C73465   3.637   8.540   4.753  0.1951  0.4951  0.7499
  533MOL0     C73466   3.567   8.420   4.756  0.1549 -0.9973 -0.3084
  533MOL0     N73467   2.887   8.302   4.893 -0.3602 -0.1276  0.3581
  533MOL0     N73468   2.784   8.249   4.944  0.3584 -0.2271 -0.1375
  533MOL0     C73469   2.713   8.106   4.124 -0.0204 -1.1459  0.2933
  533MOL0     C73470   2.814   8.189   4.071 -1.1806  0.0316 -0.3514
  533MOL0     C73471   3.168   8.445   3.986  0.1091 -0.0992 -0.4112
  533MOL0     C73472   3.260   8.360   3.906 -0.2008  0.2240  0.3014
  533MOL0     C73473   3.375   8.409   3.849 -0.0224  0.3190  0.2104
  533MOL0     C73474   3.397   8.549   3.847 -0.3852  0.8840 -0.0206
  533MOL0     O73475   3.502   8.611   3.775 -0.2592 -0.8889 -0.7827
  533MOL0     C73476   3.592   8.537   3.696  0.6065 -0.9128  0.8594
  533MOL0     C73477   3.531   8.504   3.559 -0.0002 -0.7943 -0.2156
  533MOL0     C73478   3.635   8.430   3.473  1.0466  0.3961 -0.3719
  533MOL0     C73479   3.628   8.271   3.481 -0.3877 -0.5661  0.2810
  533MOL0     C73480   3.692   8.206   3.365 -0.0521 -0.2248  0.4392
  533MOL0     C73481   3.726   8.140   3.266 -0.1101 -1.0934  0.1839
  533MOL0     C73482   3.304   8.635   3.913 -0.2200  0.0932  0.1354
  533MOL0     C73483   3.199   8.586   3.998 -0.2860 -0.9016  0.3103
  533MOL0     C73484   3.122   8.680   4.094 -0.3302 -0.0181  0.4065
  533MOL0     H73485   3.075   8.058   4.234  1.6486  3.9485 -2.2958
  533MOL0     H73486   2.899   7.902   4.331  0.6214  1.4870  1.9589
  533MOL0     H73487   2.485   7.959   4.178  0.0754  0.1352 -1.0221
  533MOL0     H73488   2.495   8.059   4.315 -3.5604 -2.1838  3.8762
  533MOL0     H73489   2.339   7.866   4.294  0.9564 -1.2226 -2.5292
  533MOL0     H73490   2.470   7.760   4.339 -2.0899 -0.1519  1.5456
  533MOL0     H73491   2.367   7.985   4.517 -1.3174 -0.6958  0.8822
  533MOL0     H73492   2.345   7.814   4.545  2.5103 -1.5190  0.3206
  533MOL0     H73493   2.586   7.769   4.549  0.3698 -1.0873  1.4302
  533MOL0     H73494   2.617   7.941   4.559  0.2307 -0.5078  2.0443
  533MOL0     H73495   2.473   7.770   4.758 -3.7479  0.8457 -3.3034
  533MOL0     H73496   2.429   7.937   4.757 -2.0518 -2.2554  1.8435
  533MOL0     H73497   2.657   7.797   4.875  0.7968  1.3205  2.3728
  533MOL0     H73498   2.711   7.940   4.773  1.5301 -2.3072  0.6361
  533MOL0     H73499   2.510   7.940   4.993  1.5615 -1.7534  0.4817
  533MOL0     H73500   2.564   8.082   4.897  1.8387  2.4391  3.2055
  533MOL0     H73501   2.672   8.050   5.131 -2.0712 -1.1962 -0.0983
  533MOL0     H73502   2.756   7.914   5.058 -1.4803 -1.9119 -3.1465
  533MOL0     H73503   2.976   7.989   4.957  1.6055  0.2138 -0.0029
  533MOL0     H73504   3.146   8.338   4.888 -4.9214  0.3594 -0.2195
  533MOL0     H73505   3.141   8.220   4.758  0.8010 -3.1124  0.8852
  533MOL0     H73506   3.229   8.144   5.039  1.6943 -2.8664 -0.0040
  533MOL0     H73507   3.222   8.038   4.897 -2.0454  0.7720 -0.2406
  533MOL0     H73508   3.407   8.262   4.952 -1.7266 -1.5230  1.8985
  533MOL0     H73509   3.430   8.086   4.950 -2.5525 -1.9088 -0.3629
  533MOL0     H73510   3.388   8.069   4.715  0.3476 -0.1545  0.5765
  533MOL0     H73511   3.358   8.248   4.707  0.0743  0.0689 -0.5162
  533MOL0     H73512   3.806   8.205   4.680 -2.0203 -1.0763  0.8381
  533MOL0     H73513   4.048   8.472   4.697  0.9041  2.9734 -4.4211
  533MOL0     H73514   3.981   8.445   4.544 -4.6257  1.8484  0.2919
  533MOL0     H73515   4.016   8.300   4.650  1.1823  0.5390  2.7981
  533MOL0     H73516   3.726   8.900   5.004  2.0476 -0.5953  0.5525
  533MOL0     H73517   3.850   9.123   5.090  2.4872 -0.1355  1.3645
  533MOL0     H73518   4.016   9.322   4.764 -0.2416 -0.1029  0.0766
  533MOL0     H73519   3.936   9.427   4.863  0.2902  0.9212 -0.3907
  533MOL0     H73520   4.233   9.372   4.878  0.4472 -0.1534  2.4374
  533MOL0     H73521   4.166   9.518   4.815 -0.5051 -1.0082 -1.4705
  533MOL0     H73522   4.122   9.421   5.097 -1.7241 -1.0011 -1.2274
  533MOL0     H73523   4.061   9.572   5.026  1.6875  2.1824 -1.3466
  533MOL0     H73524   4.309   9.642   5.009 -1.7949 -1.5291 -1.7452
  533MOL0     H73525   4.354   9.496   5.106  0.5803 -0.1555 -1.5054
  533MOL0     H73526   4.187   9.735   5.217 -0.8952 -0.8582  0.0359
  533MOL0     H73527   4.213   9.583   5.294  0.2886 -0.5560  0.0292
  533MOL0     H73528   4.436   9.756   5.178  0.0359  0.6803  0.3832
  533MOL0     H73529   4.458   9.607   5.272 -0.0284 -0.4189 -2.4971
  533MOL0     H73530   4.330   9.719   5.454 -0.3356 -4.3027 -3.6160
  533MOL0     H73531   4.325   9.871   5.378 -1.0539  0.0517 -1.3498
  533MOL0     H73532   4.522   9.895   5.512  0.9960 -0.3652  0.8328
  533MOL0     H73533   4.588   9.851   5.359 -0.0665  1.9680  0.4411
  533MOL0     H73534   4.067   9.122   4.719 -1.9606  1.3781 -1.2398
  533MOL0     H73535   3.986   8.907   4.665  1.8380  0.9735  0.4779
  533MOL0     H73536   3.587   8.634   4.773  0.6746  0.8359  0.3751
  533MOL0     H73537   3.465   8.432   4.792 -0.2629  0.5879 -1.9228
  533MOL0     H73538   2.614   8.118   4.081 -0.3976 -1.1906  1.1268
  533MOL0     H73539   2.785   8.271   4.007  0.9076  2.0382  1.0843
  533MOL0     H73540   3.237   8.254   3.907  0.7555 -0.0771  3.5516
  533MOL0     H73541   3.439   8.341   3.795 -3.0790  0.2506 -3.8502
  533MOL0     H73542   3.684   8.596   3.681  0.1691  0.0138  1.7027
  533MOL0     H73543   3.619   8.440   3.739 -3.1494 -1.8223  1.4516
  533MOL0     H73544   3.498   8.600   3.519 -2.5288  0.8502  4.8435
  533MOL0     H73545   3.427   8.469   3.562 -1.4485  2.6208 -3.0356
  533MOL0     H73546   3.615   8.452   3.368  0.2337  0.2735 -0.2467
  533MOL0     H73547   3.731   8.473   3.502  0.8128  2.3536 -2.2548
  533MOL0     H73548   3.534   8.229   3.517  0.0675 -2.7146 -0.8461
  533MOL0     H73549   3.698   8.241   3.560  0.1934  0.5729  0.2159
  533MOL0     H73550   3.758   8.080   3.183 -2.6472 -1.5797 -0.5486
  533MOL0     H73551   3.303   8.743   3.923  0.4277 -0.1011  3.2714
  533MOL0     H73552   3.096   8.624   4.184  0.0143  1.8111  1.7015
  533MOL0     H73553   3.189   8.759   4.129  1.8015  0.0009 -3.2461
  533MOL0     H73554   3.030   8.719   4.050 -0.5347 -1.5094 -0.5493
  534MOL0     O73555   3.946   3.941   8.717 -0.0295 -0.1041  0.7704
  534MOL0     C73556   3.898   3.919   8.603 -0.5229  1.2015  0.6062
  534MOL0     O73557   3.877   3.796   8.547 -0.6404 -0.2014 -0.2159
  534MOL0     C73558   3.928   3.684   8.610 -0.2489  0.4455  0.2609
  534MOL0     C73559   3.850   3.566   8.597 -0.5134  0.6165  0.1283
  534MOL0     C73560   3.891   3.438   8.648 -0.1925  0.4276 -0.0155
  534MOL0     C73561   4.010   3.441   8.721 -0.7011 -0.2843 -0.2394
  534MOL0     O73562   4.068   3.328   8.771 -0.6461  0.5071 -0.0544
  534MOL0     C73563   4.161   3.259   8.692 -0.4179 -0.1215  0.0584
  534MOL0     C73564   4.165   3.118   8.749  0.0251  0.1727 -0.4397
  534MOL0     C73565   4.034   3.057   8.798  0.2571 -0.2248 -0.1486
  534MOL0     C73566   4.068   2.923   8.868  1.0964  0.4487  0.1159
  534MOL0     C73567   3.944   2.831   8.878 -0.9716 -0.0608 -0.6010
  534MOL0     C73568   3.826   2.900   8.949  0.3632  0.6673  0.2230
  534MOL0     C73569   3.856   2.955   9.081 -0.2738 -0.4324  0.0963
  534MOL0     C73570   3.740   2.971   9.170  0.0668  0.1562  0.1295
  534MOL0     N73571   3.623   3.033   9.104 -0.5528  0.6810 -0.3582
  534MOL0     C73572   3.586   3.163   9.107  0.1703 -0.1903  0.1898
  534MOL0     C73573   3.461   3.182   9.052 -1.4845 -0.1147 -0.6421
  534MOL0     C73574   3.380   3.306   9.043 -0.0475 -0.1558  0.0764
  534MOL0     C73575   3.299   3.316   8.916  0.3753 -0.4895 -0.9854
  534MOL0     C73576   3.370   3.289   8.780  0.1987 -0.1075  0.7860
  534MOL0     C73577   3.504   3.372   8.759  1.2231 -0.7655 -0.3446
  534MOL0     O73578   3.542   3.375   8.625 -0.4388 -0.1871 -0.3029
  534MOL0     C73579   3.501   3.482   8.555  0.0180  0.1510 -0.2217
  534MOL0     C73580   3.511   3.617   8.602  0.5292  0.2930  0.5263
  534MOL0     C73581   3.465   3.722   8.519 -0.1963 -0.0306  0.6281
  534MOL0     C73582   3.467   3.861   8.574 -0.8574  0.1882 -0.5967
  534MOL0     C73583   3.432   3.697   8.382 -0.0556  0.1046  1.0109
  534MOL0     C73584   3.415   3.801   8.280  0.1896  0.2311  0.5054
  534MOL0     O73585   3.397   3.751   8.155 -0.1526 -0.1995  0.0993
  534MOL0     C73586   3.373   3.837   8.048  0.3835  0.7731 -0.4352
  534MOL0     C73587   3.275   3.798   7.956  0.3749 -1.4285 -0.5246
  534MOL0     C73588   3.242   3.887   7.847  0.4710  0.6173  0.4262
  534MOL0     C73589   3.326   3.994   7.813  0.3816 -0.5492  1.1324
  534MOL0     O73590   3.303   4.074   7.707  0.9469 -0.1687  0.5920
  534MOL0     C73591   3.246   4.003   7.593  0.4431 -0.0977  0.8132
  534MOL0     C73592   3.269   4.072   7.462  0.3346 -0.0832 -0.5855
  534MOL0     C73593   3.252   4.223   7.478 -0.5526 -0.5989  0.9672
  534MOL0     C73594   3.100   4.266   7.479 -0.1185  0.1525  0.1161
  534MOL0     C73595   3.069   4.418   7.494 -0.4083  0.7730 -0.3193
  534MOL0     C73596   3.141   4.502   7.390  0.1502  0.1405  0.5738
  534MOL0     C73597   3.065   4.525   7.260 -0.0830 -0.1146 -0.3467
  534MOL0     C73598   2.926   4.598   7.268 -0.1706  0.7786  0.3148
  534MOL0    Cl73599   2.868   4.632   7.100 -0.1004 -1.0072  0.3225
  534MOL0     C73600   3.419   4.036   7.903  0.0873  0.2068 -0.7438
  534MOL0     C73601   3.441   3.958   8.016  0.1758  0.1466 -0.0731
  534MOL0     O73602   3.408   3.920   8.310  0.0474  0.3013  0.3371
  534MOL0     C73603   3.438   3.565   8.339  0.4730 -0.1219  0.2809
  534MOL0     C73604   3.466   3.462   8.424 -0.7559  0.0307 -0.6348
  534MOL0     N73605   3.420   3.053   9.021  0.2209  0.2770 -0.4439
  534MOL0     N73606   3.518   2.970   9.045  0.3684 -0.1717 -0.6354
  534MOL0     C73607   4.096   3.557   8.729  0.0442  0.1360 -0.2586
  534MOL0     C73608   4.058   3.685   8.673 -0.3617  0.1566 -0.0177
  534MOL0     C73609   3.848   4.032   8.511 -0.8546  0.2093 -0.8682
  534MOL0     C73610   3.772   4.000   8.395  0.1350 -0.2238 -1.3701
  534MOL0     C73611   3.698   4.096   8.329 -0.3349  0.1787 -0.0540
  534MOL0     C73612   3.722   4.228   8.360  0.1089  1.0310 -0.0061
  534MOL0     O73613   3.668   4.316   8.272  0.1425 -0.0091  0.2373
  534MOL0     C73614   3.698   4.457   8.294 -0.4219  0.3794  0.3699
  534MOL0     C73615   3.688   4.534   8.167  0.1288 -0.1306  0.9439
  534MOL0     C73616   3.542   4.525   8.112 -0.1943 -0.2338 -0.3025
  534MOL0     C73617   3.442   4.582   8.204  0.6122  0.7117 -0.4888
  534MOL0     C73618   3.461   4.724   8.228  0.8467  0.2288  0.3920
  534MOL0     C73619   3.461   4.840   8.248 -0.5274 -0.6265  0.4087
  534MOL0     C73620   3.814   4.263   8.465  0.8426 -0.3910 -0.3324
  534MOL0     C73621   3.865   4.164   8.548  0.4361 -0.9490 -0.0997
  534MOL0     C73622   3.966   4.208   8.648 -0.4870 -0.0680  0.6913
  534MOL0     H73623   3.768   3.577   8.528  1.5619 -0.7949 -2.8080
  534MOL0     H73624   3.836   3.348   8.624 -0.2703  0.9669 -2.0921
  534MOL0     H73625   4.258   3.304   8.670  0.1634 -1.7681 -0.8356
  534MOL0     H73626   4.115   3.260   8.592  0.4105  1.4496 -0.3483
  534MOL0     H73627   4.221   3.045   8.689  0.7915  1.2493 -1.0658
  534MOL0     H73628   4.231   3.117   8.836  1.3773  1.2198 -1.4065
  534MOL0     H73629   3.984   3.119   8.872  0.0408 -1.1886  0.5403
  534MOL0     H73630   3.970   3.038   8.711 -0.6435  1.2764  0.1535
  534MOL0     H73631   4.136   2.864   8.805 -0.2468 -0.4513 -0.5315
  534MOL0     H73632   4.117   2.939   8.965  3.9792  0.1735 -1.1867
  534MOL0     H73633   3.977   2.743   8.934 -3.6925 -0.6652  0.2120
  534MOL0     H73634   3.928   2.779   8.783  3.3571 -0.3822 -1.3875
  534MOL0     H73635   3.783   2.979   8.888 -1.1486  0.3774  0.8483
  534MOL0     H73636   3.742   2.831   8.961  0.7827  0.5877  3.4829
  534MOL0     H73637   3.912   3.049   9.070 -0.9607  0.1089  1.1121
  534MOL0     H73638   3.915   2.878   9.131 -0.0129  0.7440  1.7135
  534MOL0     H73639   3.715   2.873   9.211 -2.3317  0.8776  0.5891
  534MOL0     H73640   3.766   3.041   9.251 -0.4881 -1.2072  1.5381
  534MOL0     H73641   3.637   3.243   9.160 -1.8884  1.3652 -0.1018
  534MOL0     H73642   3.457   3.384   9.043  1.0504 -1.1914 -1.3369
  534MOL0     H73643   3.319   3.315   9.133  0.7801 -1.8967  0.8575
  534MOL0     H73644   3.207   3.261   8.936 -2.1617  4.1355  1.8346
  534MOL0     H73645   3.249   3.413   8.915 -2.4479 -1.8667 -1.1115
  534MOL0     H73646   3.387   3.181   8.769 -0.5306 -0.0282 -1.7412
  534MOL0     H73647   3.297   3.313   8.701 -1.8391 -4.3773  1.0844
  534MOL0     H73648   3.490   3.469   8.807  0.6717 -0.3441 -1.3402
  534MOL0     H73649   3.577   3.315   8.818 -0.1321 -1.2455  0.9453
  534MOL0     H73650   3.562   3.630   8.696 -2.7186  4.6097  2.0074
  534MOL0     H73651   3.549   3.926   8.545 -1.0991  1.6251  1.6612
  534MOL0     H73652   3.474   3.853   8.683 -0.2857 -2.6495 -0.7564
  534MOL0     H73653   3.375   3.915   8.549 -1.5687 -0.7430 -0.0819
  534MOL0     H73654   3.225   3.702   7.967  1.0390 -1.7124  0.1178
  534MOL0     H73655   3.165   3.857   7.777  1.5662  1.5006 -1.2099
  534MOL0     H73656   3.279   3.899   7.602  0.5493  0.0676  2.6826
  534MOL0     H73657   3.136   4.006   7.593  0.3876 -1.3909  0.8511
  534MOL0     H73658   3.371   4.050   7.428  1.0923 -0.2649  1.6300
  534MOL0     H73659   3.196   4.041   7.387  1.2668 -2.3699 -0.6277
  534MOL0     H73660   3.284   4.277   7.388 -1.2710  0.7148  1.4765
  534MOL0     H73661   3.300   4.274   7.562  0.2376  1.0768 -0.4420
  534MOL0     H73662   3.048   4.215   7.561  0.4249 -1.6532 -0.6096
  534MOL0     H73663   3.057   4.227   7.385  0.6300 -1.3856  0.3730
  534MOL0     H73664   2.961   4.430   7.490 -0.6889 -1.1763  0.5270
  534MOL0     H73665   3.091   4.451   7.596 -3.2726  1.6675  0.1015
  534MOL0     H73666   3.237   4.458   7.360 -0.5058  0.1806 -1.7885
  534MOL0     H73667   3.161   4.604   7.424  4.0033 -0.1691 -0.2604
  534MOL0     H73668   3.063   4.440   7.191 -0.0948  0.5775 -1.2148
  534MOL0     H73669   3.136   4.590   7.209  3.9729 -1.8674  2.5658
  534MOL0     H73670   2.930   4.697   7.314 -1.4152  1.5328 -1.1144
  534MOL0     H73671   2.847   4.540   7.317  0.0500  0.2850  0.0980
  534MOL0     H73672   3.474   4.129   7.895 -0.1659  0.4581  0.2131
  534MOL0     H73673   3.521   3.988   8.082 -0.6389  0.6520  0.7060
  534MOL0     H73674   3.402   3.528   8.243 -2.3001  0.9838  0.7928
  534MOL0     H73675   3.486   3.364   8.382  0.9136  0.8845 -1.9825
  534MOL0     H73676   4.197   3.538   8.763  0.4089  1.5913 -0.4750
  534MOL0     H73677   4.123   3.772   8.672 -2.0140  1.4611  0.9134
  534MOL0     H73678   3.763   3.895   8.368 -1.7134 -0.4958  0.0960
  534MOL0     H73679   3.630   4.061   8.252 -1.1916 -0.4945  0.9828
  534MOL0     H73680   3.641   4.499   8.377  0.8672  0.9195  1.0148
  534MOL0     H73681   3.803   4.469   8.324 -0.7556  1.1330  1.2722
  534MOL0     H73682   3.754   4.498   8.087 -0.9960  3.1672 -1.6697
  534MOL0     H73683   3.714   4.638   8.184  2.4097 -0.5234  0.2245
  534MOL0     H73684   3.534   4.572   8.013 -0.2768  0.8533  0.2093
  534MOL0     H73685   3.530   4.418   8.092  1.4308 -0.1356 -2.1069
  534MOL0     H73686   3.440   4.533   8.302 -1.6106  0.5770 -0.5358
  534MOL0     H73687   3.342   4.561   8.164  2.0374 -2.1296 -2.9758
  534MOL0     H73688   3.454   4.943   8.279 -1.2365 -1.4951  3.4594
  534MOL0     H73689   3.843   4.366   8.481 -0.7330  0.4694 -2.4375
  534MOL0     H73690   4.068   4.180   8.621  0.1168  2.0300  0.6198
  534MOL0     H73691   3.967   4.317   8.660  3.4360  0.2455 -0.8582
  534MOL0     H73692   3.949   4.178   8.752  2.8345  0.3820  1.4885
  535MOL0     O73693   4.710  10.177   1.975  0.2802 -0.0556 -0.0256
  535MOL0     C73694   4.669  10.103   1.884 -0.6620 -0.7083  0.1515
  535MOL0     O73695   4.714   9.980   1.853  0.8674  0.1670 -0.5313
  535MOL0     C73696   4.843   9.937   1.895  0.2125  0.1178  0.4268
  535MOL0     C73697   4.954  10.011   1.913 -0.2625  0.4397  0.8705
  535MOL0     C73698   5.069   9.945   1.965 -0.7982 -1.1672  0.3142
  535MOL0     C73699   5.076   9.809   1.980 -0.7732 -0.1507  0.4175
  535MOL0     O73700   5.194   9.754   2.039 -0.1550  0.0249 -0.5973
  535MOL0     C73701   5.269   9.683   1.938  0.0502  0.2846 -0.1087
  535MOL0     C73702   5.397   9.770   1.896  0.3982  0.0856 -1.1257
  535MOL0     C73703   5.508   9.675   1.857  0.0083  0.0263  0.0155
  535MOL0     C73704   5.641   9.749   1.818 -0.1080 -0.3333 -0.4938
  535MOL0     C73705   5.724   9.683   1.709  0.2361  0.1531 -0.0357
  535MOL0     C73706   5.838   9.771   1.665  0.1427  0.6695  0.4862
  535MOL0     C73707   5.939   9.830   1.774  0.6202  0.0794 -1.0265
  535MOL0     C73708   5.977   9.718   1.881 -0.8940 -0.5791  0.0233
  535MOL0     N73709   6.042   9.607   1.812  0.1079 -0.8504 -0.1150
  535MOL0     C73710   6.138   9.618   1.710  1.2106  1.2014  0.2874
  535MOL0     C73711   6.170   9.484   1.689  0.6071 -0.0605 -0.6459
  535MOL0     C73712   6.270   9.422   1.604  0.3887  0.0613  0.8891
  535MOL0     C73713   6.223   9.399   1.452  0.8469 -0.0043 -0.2060
  535MOL0     C73714   6.336   9.324   1.373 -1.1184 -0.0392  0.0004
  535MOL0     C73715   6.467   9.404   1.370 -0.2541  0.1856 -0.2285
  535MOL0     O73716   6.557   9.353   1.276  1.2634 -0.2376  0.1249
  535MOL0     C73717   6.687   9.400   1.275 -0.1863 -0.9803 -0.2038
  535MOL0     C73718   6.734   9.502   1.355  0.7222  0.2439  0.7130
  535MOL0     C73719   6.858   9.568   1.323 -0.9184 -0.2370 -0.3863
  535MOL0     C73720   6.893   9.691   1.392  0.3028 -0.6796 -0.1844
  535MOL0     C73721   6.946   9.515   1.222  0.3294 -0.3194  1.3245
  535MOL0     C73722   7.082   9.573   1.182 -0.7486  0.5069  0.1155
  535MOL0     O73723   7.139   9.514   1.072 -0.4495  0.3366 -0.0802
  535MOL0     C73724   7.263   9.550   1.050 -0.1819  0.4633  0.5292
  535MOL0     C73725   7.301   9.671   0.981 -0.0025 -0.7519 -0.3449
  535MOL0     C73726   7.434   9.707   0.955  0.5741 -0.1325  0.6042
  535MOL0     C73727   7.539   9.624   0.996  0.3680 -0.3827 -0.0069
  535MOL0     O73728   7.669   9.668   0.990  0.5187 -0.1666 -0.1748
  535MOL0     C73729   7.749   9.642   0.867  1.1916 -1.4642 -0.0584
  535MOL0     C73730   7.838   9.518   0.882 -0.5248 -0.5866 -0.2613
  535MOL0     C73731   7.776   9.381   0.851 -0.6211  0.7758 -0.0402
  535MOL0     C73732   7.808   9.282   0.975 -0.6189 -0.2159  0.1941
  535MOL0     C73733   7.765   9.137   0.943  0.4479  0.1877  0.3437
  535MOL0     C73734   7.885   9.059   0.888 -0.2632  0.6679 -0.1730
  535MOL0     C73735   7.851   8.912   0.863 -0.2888  0.2428 -0.3924
  535MOL0     C73736   7.932   8.867   0.736  0.0376  0.2335 -0.1202
  535MOL0    Cl73737   8.088   8.810   0.772  0.1226 -0.3072  0.2261
  535MOL0     C73738   7.507   9.507   1.067 -0.0555  0.3408  0.0771
  535MOL0     C73739   7.368   9.468   1.093  0.0947  0.4842 -0.3453
  535MOL0     O73740   7.127   9.665   1.248 -0.5465 -0.8390  0.0318
  535MOL0     C73741   6.897   9.402   1.144 -0.2014 -0.4031  0.2807
  535MOL0     C73742   6.767   9.353   1.174 -0.9210 -0.1649  1.2819
  535MOL0     N73743   6.102   9.402   1.777 -1.0796  0.8699  0.7363
  535MOL0     N73744   6.016   9.476   1.836 -0.0767  0.6591  0.3616
  535MOL0     C73745   4.961   9.731   1.969  0.0424 -0.8794  0.8956
  535MOL0     C73746   4.839   9.801   1.929  0.3684  0.0039 -0.0206
  535MOL0     C73747   4.555  10.153   1.818  0.2719 -0.5132 -0.0216
  535MOL0     C73748   4.470  10.226   1.905  0.5552 -0.1598 -1.1115
  535MOL0     C73749   4.356  10.288   1.850 -0.2366  0.0377  0.0141
  535MOL0     C73750   4.322  10.273   1.715 -0.9879 -0.8697  1.0522
  535MOL0     O73751   4.215  10.321   1.645  0.1005  0.3802 -0.5034
  535MOL0     C73752   4.116  10.399   1.716  0.0761  0.4631  1.0276
  535MOL0     C73753   4.027  10.478   1.631  0.5713  1.3696 -0.8537
  535MOL0     C73754   3.896  10.410   1.569 -0.3129 -0.9900 -0.0811
  535MOL0     C73755   3.823  10.521   1.510 -0.8072  0.6058 -0.4543
  535MOL0     C73756   3.725  10.462   1.416  0.1262  1.0267 -0.5737
  535MOL0     C73757   3.655  10.425   1.322  0.1002 -0.4070  0.2675
  535MOL0     C73758   4.410  10.193   1.643  0.2620  0.4277 -0.7226
  535MOL0     C73759   4.524  10.136   1.690 -1.5367  0.0079  0.5211
  535MOL0     C73760   4.605  10.050   1.596 -1.1394  0.9890 -0.1820
  535MOL0     H73761   4.954  10.117   1.894  1.3339  0.1044 -1.3206
  535MOL0     H73762   5.153  10.007   1.992  0.4443 -1.8975 -1.6113
  535MOL0     H73763   5.201   9.665   1.854 -2.3942 -0.8137  1.9691
  535MOL0     H73764   5.308   9.588   1.977  3.0365  1.7197  0.7089
  535MOL0     H73765   5.374   9.851   1.826  3.6816  1.1522 -1.1177
  535MOL0     H73766   5.422   9.832   1.983  0.2710  0.1758 -1.1520
  535MOL0     H73767   5.520   9.586   1.919  2.0835 -0.6216 -1.1778
  535MOL0     H73768   5.484   9.624   1.763 -1.1325  0.0331  0.2944
  535MOL0     H73769   5.624   9.848   1.775 -0.9059  0.9314  2.4721
  535MOL0     H73770   5.708   9.751   1.904  0.1407  0.7555 -0.7077
  535MOL0     H73771   5.662   9.660   1.621  1.0643 -2.9882  0.0707
  535MOL0     H73772   5.770   9.589   1.740 -1.5326 -0.4388  0.9810
  535MOL0     H73773   5.885   9.716   1.583 -3.1126 -1.9018  0.1389
  535MOL0     H73774   5.795   9.862   1.621  2.5182  0.6717 -2.0854
  535MOL0     H73775   5.885   9.909   1.828  0.1878 -0.9787  0.1534
  535MOL0     H73776   6.027   9.882   1.737  1.8499 -0.8156  0.5233
  535MOL0     H73777   6.038   9.755   1.964  0.4277 -0.4231 -0.9850
  535MOL0     H73778   5.882   9.686   1.926 -2.8026  0.9688 -2.5887
  535MOL0     H73779   6.174   9.708   1.662  1.1211 -0.1673 -2.5167
  535MOL0     H73780   6.298   9.323   1.641 -0.3452  0.0371  1.3967
  535MOL0     H73781   6.368   9.472   1.605  0.0187  0.9023 -0.7150
  535MOL0     H73782   6.131   9.340   1.453  0.3801  0.7123  0.7238
  535MOL0     H73783   6.202   9.501   1.418 -0.9435  0.2445  1.4990
  535MOL0     H73784   6.350   9.220   1.404  0.1447  0.4024  1.0127
  535MOL0     H73785   6.312   9.295   1.270  0.7793 -2.4028  0.1163
  535MOL0     H73786   6.443   9.509   1.352 -3.0264 -0.0788  1.2601
  535MOL0     H73787   6.521   9.403   1.465  0.6448  1.4700 -0.6921
  535MOL0     H73788   6.675   9.550   1.432  3.2645 -0.4763  3.2819
  535MOL0     H73789   6.802   9.739   1.428  0.6895  0.0154 -0.1347
  535MOL0     H73790   6.930   9.769   1.326 -1.9670  1.5969  1.0478
  535MOL0     H73791   6.967   9.677   1.471  2.1128  2.0221 -1.2502
  535MOL0     H73792   7.224   9.742   0.953  1.2118  0.9344  0.4220
  535MOL0     H73793   7.447   9.801   0.902  1.9583 -0.1002  0.9662
  535MOL0     H73794   7.692   9.626   0.775  0.8959 -3.8038  0.4707
  535MOL0     H73795   7.805   9.734   0.847  0.2568 -1.3537 -2.5133
  535MOL0     H73796   7.916   9.525   0.806  0.7487  1.6859  1.1544
  535MOL0     H73797   7.881   9.520   0.982  1.9635 -0.2280 -1.2683
  535MOL0     H73798   7.814   9.332   0.760 -0.2417  1.1219 -0.0719
  535MOL0     H73799   7.669   9.397   0.836 -0.5709  0.5164 -0.7231
  535MOL0     H73800   7.751   9.317   1.061 -0.6039 -1.1201  0.5870
  535MOL0     H73801   7.913   9.297   1.003 -1.4628  3.2317  2.0968
  535MOL0     H73802   7.742   9.088   1.038  2.7285  0.6971  1.2426
  535MOL0     H73803   7.677   9.138   0.879 -0.7017 -0.9920  1.8261
  535MOL0     H73804   7.966   9.078   0.959 -1.7988 -2.1398  2.5535
  535MOL0     H73805   7.910   9.116   0.798 -1.5845  1.0190 -0.3460
  535MOL0     H73806   7.745   8.890   0.846 -0.2300  0.3838 -0.9439
  535MOL0     H73807   7.875   8.839   0.942 -0.7744  2.5578  2.0429
  535MOL0     H73808   7.947   8.955   0.673  2.1820 -0.1557 -0.2460
  535MOL0     H73809   7.874   8.786   0.691 -0.1568 -1.9934  3.7130
  535MOL0     H73810   7.580   9.441   1.111 -0.4695  0.4487  0.9475
  535MOL0     H73811   7.343   9.378   1.148  0.8579  0.1406 -0.5358
  535MOL0     H73812   6.947   9.354   1.061 -0.9298  0.9768 -1.0120
  535MOL0     H73813   6.743   9.273   1.105  2.0439  1.3479 -1.8422
  535MOL0     H73814   4.963   9.631   2.010 -0.9561 -0.8085  1.1648
  535MOL0     H73815   4.745   9.747   1.933  1.2514 -1.7037 -1.1426
  535MOL0     H73816   4.492  10.221   2.011  5.0468 -2.6614 -1.8919
  535MOL0     H73817   4.291  10.338   1.921 -0.4087 -0.7532  0.4313
  535MOL0     H73818   4.048  10.331   1.769  0.6084 -1.0317 -0.1145
  535MOL0     H73819   4.169  10.467   1.783  2.9792 -1.0452  0.4317
  535MOL0     H73820   4.079  10.491   1.536  1.8676 -2.2791 -0.7791
  535MOL0     H73821   3.997  10.574   1.675 -1.1975  1.6062 -2.4507
  535MOL0     H73822   3.934  10.340   1.494  3.7413 -3.3994  3.7461
  535MOL0     H73823   3.840  10.363   1.650  0.0683  1.2080  1.5754
  535MOL0     H73824   3.899  10.582   1.460  0.2648 -1.8144 -1.9807
  535MOL0     H73825   3.770  10.572   1.591 -1.8140 -0.7311 -0.2306
  535MOL0     H73826   3.597  10.394   1.238  0.5545  1.1297 -0.6671
  535MOL0     H73827   4.380  10.171   1.541  0.5143 -1.8220 -0.3639
  535MOL0     H73828   4.568  10.064   1.494 -1.3838  0.6903 -0.1357
  535MOL0     H73829   4.708  10.088   1.588 -0.6595 -0.2948 -0.3253
  535MOL0     H73830   4.598   9.944   1.624  1.5743  0.8840  0.4316
  536MOL0     O73831   7.014   1.452   5.372 -0.0753  0.1174 -0.1177
  536MOL0     C73832   6.942   1.399   5.298  0.8439 -0.0534  0.1816
  536MOL0     O73833   6.959   1.372   5.166 -0.8813  0.2604 -0.1852
  536MOL0     C73834   7.057   1.434   5.088  0.1069  0.6222 -0.0781
  536MOL0     C73835   7.041   1.400   4.956  0.5334 -0.1730  0.9812
  536MOL0     C73836   7.124   1.449   4.850 -0.5751  0.7579 -1.0430
  536MOL0     C73837   7.225   1.543   4.881  1.6903 -0.1747  0.4640
  536MOL0     O73838   7.312   1.605   4.791  0.2856  0.0211 -0.2925
  536MOL0     C73839   7.319   1.575   4.649 -0.4215 -0.8248 -0.7601
  536MOL0     C73840   7.240   1.678   4.573 -0.2847 -0.3273 -0.2548
  536MOL0     C73841   7.219   1.643   4.428  0.2723 -0.5005  0.8810
  536MOL0     C73842   7.187   1.758   4.328  0.2262  0.5663  0.4417
  536MOL0     C73843   7.176   1.715   4.183  0.4479  0.4668 -0.1822
  536MOL0     C73844   7.151   1.840   4.097 -0.6161 -0.5166  0.2538
  536MOL0     C73845   7.172   1.840   3.949 -0.4649  0.6132  0.2951
  536MOL0     C73846   7.311   1.779   3.893 -0.5382  0.1626 -0.0223
  536MOL0     N73847   7.427   1.867   3.905 -1.0436  0.8995 -1.0837
  536MOL0     C73848   7.449   1.976   3.821  0.3169  0.4458 -0.1856
  536MOL0     C73849   7.560   2.039   3.865 -0.0795 -0.6371 -0.3406
  536MOL0     C73850   7.596   2.174   3.810  0.3127 -0.5498 -0.3980
  536MOL0     C73851   7.594   2.292   3.917 -0.3560  0.1758 -0.2283
  536MOL0     C73852   7.595   2.421   3.854  0.0996  0.1214  0.5714
  536MOL0     C73853   7.721   2.448   3.771 -0.0131  0.4859 -0.0460
  536MOL0     O73854   7.713   2.572   3.710 -0.5331  0.2587 -0.1757
  536MOL0     C73855   7.821   2.618   3.628  0.7211  0.1271  0.8334
  536MOL0     C73856   7.817   2.752   3.582 -0.5454  0.2224 -0.1973
  536MOL0     C73857   7.912   2.800   3.492 -0.4957 -0.6995  0.8778
  536MOL0     C73858   7.899   2.941   3.451  0.0244 -0.0101 -0.5426
  536MOL0     C73859   8.004   2.704   3.441 -1.0874 -0.5086  0.9149
  536MOL0     C73860   8.108   2.751   3.339 -0.3880 -0.7396 -0.0035
  536MOL0     O73861   8.160   2.651   3.260 -0.6143 -0.3863  0.1094
  536MOL0     C73862   8.206   2.681   3.136  0.2762 -0.2867  0.2516
  536MOL0     C73863   8.118   2.681   3.022 -0.2134 -0.1064 -0.2343
  536MOL0     C73864   8.174   2.697   2.902 -0.5952 -0.0228  0.0489
  536MOL0     C73865   8.303   2.744   2.886  0.8049 -0.2990 -1.0450
  536MOL0     O73866   8.352   2.757   2.768 -0.1334 -0.6783  0.3536
  536MOL0     C73867   8.484   2.815   2.740 -0.0278 -0.0603 -0.2250
  536MOL0     C73868   8.493   2.822   2.582  0.5653  0.3283 -0.8223
  536MOL0     C73869   8.496   2.686   2.515 -0.2244  0.5870 -0.2405
  536MOL0     C73870   8.638   2.626   2.518 -0.5656 -0.1360  0.6029
  536MOL0     C73871   8.654   2.483   2.468  0.6676  0.2405  0.2305
  536MOL0     C73872   8.806   2.442   2.458  0.6687  0.4057  0.2124
  536MOL0     C73873   8.893   2.515   2.358  0.4801 -0.1360 -0.0586
  536MOL0     C73874   8.830   2.554   2.225  0.9342 -0.1750  0.5515
  536MOL0    Cl73875   8.958   2.579   2.092  0.0014 -0.0862 -0.7267
  536MOL0     C73876   8.383   2.743   2.999  0.0182  0.3320 -0.0902
  536MOL0     C73877   8.337   2.698   3.119 -0.3340 -0.3106  0.1878
  536MOL0     O73878   8.142   2.872   3.341 -0.4147  0.6783  0.3345
  536MOL0     C73879   8.015   2.573   3.491 -0.1473 -0.0583  0.4091
  536MOL0     C73880   7.918   2.524   3.584  0.3681  0.0615  2.4987
  536MOL0     N73881   7.612   1.971   3.975  0.0685 -0.0901 -0.9725
  536MOL0     N73882   7.531   1.874   4.005  0.5661 -1.0619  0.6067
  536MOL0     C73883   7.232   1.582   5.010  0.3479 -0.5651  0.2391
  536MOL0     C73884   7.153   1.534   5.116  0.2620  0.5953 -0.1405
  536MOL0     C73885   6.805   1.357   5.362 -0.2911  0.3757  0.3159
  536MOL0     C73886   6.771   1.403   5.490 -0.1915 -0.4884 -0.6095
  536MOL0     C73887   6.650   1.379   5.550 -0.1397 -0.7738 -0.3008
  536MOL0     C73888   6.568   1.282   5.491 -0.8931 -1.2900  0.0822
  536MOL0     O73889   6.455   1.234   5.560  0.2788  0.4162  0.0209
  536MOL0     C73890   6.394   1.325   5.651  0.3915  0.1787  0.7398
  536MOL0     C73891   6.256   1.257   5.693 -1.2936 -0.1374  0.9612
  536MOL0     C73892   6.170   1.360   5.773 -0.2332  0.7035  1.5149
  536MOL0     C73893   6.063   1.282   5.846 -0.8454  0.5709 -0.0074
  536MOL0     C73894   5.959   1.360   5.898  0.1932 -0.3585  0.2626
  536MOL0     C73895   5.864   1.408   5.953 -0.7966  0.0562  0.0577
  536MOL0     C73896   6.596   1.237   5.363 -1.2065  0.3814  0.2913
  536MOL0     C73897   6.714   1.265   5.304 -0.4751 -0.9570 -0.0452
  536MOL0     C73898   6.744   1.184   5.179 -0.1718  0.7286  0.0563
  536MOL0     H73899   6.969   1.321   4.939 -1.5742  0.6042  5.1306
  536MOL0     H73900   7.105   1.411   4.750  0.5700 -1.5390 -0.4505
  536MOL0     H73901   7.279   1.481   4.610  1.1037 -1.1463 -1.6009
  536MOL0     H73902   7.421   1.576   4.612 -0.5167  1.2329 -1.0686
  536MOL0     H73903   7.141   1.690   4.617 -0.9134 -2.5679 -0.9084
  536MOL0     H73904   7.304   1.767   4.575  0.5853 -0.8344  3.7668
  536MOL0     H73905   7.303   1.581   4.394  0.3093 -0.9397  1.7374
  536MOL0     H73906   7.130   1.579   4.433 -2.0423  2.4842  0.6896
  536MOL0     H73907   7.092   1.807   4.350 -0.5021 -0.2299 -0.8426
  536MOL0     H73908   7.266   1.833   4.339  2.5291 -1.9609  2.9431
  536MOL0     H73909   7.092   1.644   4.178  1.3259 -0.6018 -0.3310
  536MOL0     H73910   7.266   1.659   4.154  0.9389  1.3549 -0.4005
  536MOL0     H73911   7.047   1.870   4.110 -0.7900 -0.0999 -1.6983
  536MOL0     H73912   7.217   1.916   4.140 -0.2878  0.0081 -1.1192
  536MOL0     H73913   7.172   1.942   3.910 -0.0206  0.1586 -0.9410
  536MOL0     H73914   7.097   1.792   3.886  2.3041 -2.9064 -0.6625
  536MOL0     H73915   7.322   1.684   3.946  1.7051  0.6020  0.4017
  536MOL0     H73916   7.299   1.764   3.786 -1.9349  1.5044 -0.0945
  536MOL0     H73917   7.387   2.004   3.737 -1.4469 -1.9246  0.2269
  536MOL0     H73918   7.533   2.205   3.727  2.3911  0.2769 -1.7530
  536MOL0     H73919   7.698   2.179   3.771 -0.4637  0.3603 -2.4490
  536MOL0     H73920   7.497   2.282   3.967 -0.4871  0.4682 -0.4242
  536MOL0     H73921   7.675   2.276   3.988 -0.7940 -1.6202 -0.0716
  536MOL0     H73922   7.513   2.441   3.784  0.8538  0.5944 -0.1909
  536MOL0     H73923   7.595   2.492   3.936 -1.8239 -0.5625  1.2202
  536MOL0     H73924   7.812   2.436   3.830  1.1546  2.4261 -1.3404
  536MOL0     H73925   7.728   2.383   3.683  1.0795 -0.5181  0.7523
  536MOL0     H73926   7.740   2.820   3.619 -1.2269  0.1424 -1.4145
  536MOL0     H73927   7.799   2.973   3.480 -0.3008 -2.2589  1.0450
  536MOL0     H73928   7.906   2.951   3.342 -2.0289  2.1657 -0.5567
  536MOL0     H73929   7.968   3.009   3.502  0.2017 -0.2762 -0.4296
  536MOL0     H73930   8.013   2.654   3.032  0.5152 -3.0165  0.5872
  536MOL0     H73931   8.119   2.706   2.809  2.2202 -0.7898 -1.8251
  536MOL0     H73932   8.494   2.918   2.775  2.3038  0.6618 -2.6409
  536MOL0     H73933   8.562   2.742   2.765  0.3889 -0.4297 -2.4318
  536MOL0     H73934   8.399   2.870   2.556 -0.7042 -1.8913 -0.5915
  536MOL0     H73935   8.572   2.887   2.544 -1.4955  2.5397 -1.6081
  536MOL0     H73936   8.481   2.701   2.408  0.5863 -0.8861 -0.5856
  536MOL0     H73937   8.420   2.617   2.553  1.8794 -0.4759  2.4204
  536MOL0     H73938   8.674   2.637   2.620  0.5593  0.5381  0.1448
  536MOL0     H73939   8.702   2.697   2.465 -0.7181 -1.0536 -0.8794
  536MOL0     H73940   8.602   2.418   2.539 -0.3181  0.9502  0.1789
  536MOL0     H73941   8.602   2.463   2.374  1.9753  1.1739 -0.7314
  536MOL0     H73942   8.804   2.338   2.423  0.2830  0.7191 -0.7186
  536MOL0     H73943   8.843   2.446   2.561  2.0370 -3.4598  0.0407
  536MOL0     H73944   8.992   2.470   2.349 -0.1272 -1.9218  1.7707
  536MOL0     H73945   8.914   2.598   2.426 -0.2907 -1.2485  1.5959
  536MOL0     H73946   8.780   2.651   2.235 -0.9985 -0.7720 -2.2207
  536MOL0     H73947   8.758   2.475   2.202  0.0962  0.6056  0.4553
  536MOL0     H73948   8.484   2.779   2.982  0.0989 -0.3543 -1.1866
  536MOL0     H73949   8.403   2.690   3.205  0.3787 -1.2593 -0.4271
  536MOL0     H73950   8.099   2.509   3.466 -1.7024 -3.8897  3.8178
  536MOL0     H73951   7.936   2.420   3.610  1.5447 -1.0455 -1.8337
  536MOL0     H73952   7.301   1.665   5.025 -0.3105 -0.2818  1.8626
  536MOL0     H73953   7.171   1.567   5.218  2.8629  1.2120 -0.7354
  536MOL0     H73954   6.835   1.473   5.543 -0.6420  0.1148 -0.8414
  536MOL0     H73955   6.619   1.421   5.645 -1.5724 -2.1183 -0.1310
  536MOL0     H73956   6.450   1.344   5.743 -1.1048  1.1851  1.4887
  536MOL0     H73957   6.380   1.417   5.594  0.7634  0.7566  1.5573
  536MOL0     H73958   6.283   1.170   5.754  3.2669  0.2260 -0.2127
  536MOL0     H73959   6.209   1.222   5.601 -0.2201 -1.5225  0.9064
  536MOL0     H73960   6.228   1.429   5.835  0.1788  0.9767  0.8458
  536MOL0     H73961   6.131   1.418   5.689 -3.8016 -3.6697 -0.2797
  536MOL0     H73962   6.104   1.225   5.929  0.3231 -1.6957 -1.9981
  536MOL0     H73963   6.003   1.216   5.782 -1.0754  2.0641 -1.3920
  536MOL0     H73964   5.786   1.448   6.014 -0.4433 -2.9488  2.7727
  536MOL0     H73965   6.519   1.171   5.326 -0.6964 -1.6444  2.6377
  536MOL0     H73966   6.842   1.136   5.187 -1.2203 -1.4203  0.7409
  536MOL0     H73967   6.667   1.110   5.157  1.5864 -0.1444 -4.1943
  536MOL0     H73968   6.749   1.239   5.085 -2.3500  0.6663 -0.1405
  537MOL0     O73969   4.179   2.846   1.944 -0.0260 -0.6198 -0.2247
  537MOL0     C73970   4.138   2.864   2.065 -0.5681 -0.7891  0.0622
  537MOL0     O73971   4.145   2.986   2.133  0.7133  0.3945 -0.0721
  537MOL0     C73972   4.209   3.094   2.097  0.2923  0.1215  0.4334
  537MOL0     C73973   4.158   3.209   2.150  0.0268  0.0060 -0.3773
  537MOL0     C73974   4.216   3.338   2.130 -0.7107  0.5207  0.5931
  537MOL0     C73975   4.330   3.349   2.051  0.3383 -0.1757  0.7200
  537MOL0     O73976   4.405   3.465   2.028 -0.0621 -0.1602 -0.2459
  537MOL0     C73977   4.326   3.582   1.998  0.8117 -0.1082  0.1431
  537MOL0     C73978   4.402   3.704   2.049  0.2841  0.0115 -1.3450
  537MOL0     C73979   4.557   3.684   2.024 -0.2779  0.6347  0.1885
  537MOL0     C73980   4.641   3.823   2.039 -0.2614  0.4279  0.1818
  537MOL0     C73981   4.791   3.786   2.022  0.2134  0.1373 -0.0176
  537MOL0     C73982   4.884   3.903   2.069  0.1605 -0.2189  0.4195
  537MOL0     C73983   5.029   3.877   2.039  0.6725 -0.0742 -0.4840
  537MOL0     C73984   5.100   3.775   2.127 -1.3842  0.8696  0.1207
  537MOL0     N73985   5.090   3.808   2.272  0.4055  0.7928  0.8791
  537MOL0     C73986   5.186   3.871   2.349 -0.0552  0.1283 -0.0510
  537MOL0     C73987   5.131   3.866   2.468 -0.7585  0.1095 -0.3887
  537MOL0     C73988   5.196   3.902   2.592 -0.6891  0.3254 -0.3973
  537MOL0     C73989   5.098   3.951   2.696  0.6922  0.3129 -0.4526
  537MOL0     C73990   5.172   4.015   2.817  0.0700  0.0302 -0.2687
  537MOL0     C73991   5.077   4.045   2.933 -0.4010  0.5591 -0.0861
  537MOL0     O73992   5.037   3.923   3.007 -0.2896 -0.5467 -0.4445
  537MOL0     C73993   4.946   3.928   3.108  0.1373  0.2122  0.3239
  537MOL0     C73994   4.857   4.033   3.129 -0.0517 -0.0960  0.3606
  537MOL0     C73995   4.760   4.032   3.225  0.9614 -0.6652 -0.5308
  537MOL0     C73996   4.677   4.157   3.238  0.0132 -0.0228 -0.6445
  537MOL0     C73997   4.744   3.926   3.311  0.0924  0.5924  0.6546
  537MOL0     C73998   4.656   3.929   3.431 -0.3142 -0.4839 -0.4778
  537MOL0     O73999   4.667   4.030   3.517 -0.1786  0.1473  0.2719
  537MOL0     C74000   4.592   4.029   3.633  0.4052  0.7249  0.0537
  537MOL0     C74001   4.519   4.146   3.661 -1.0208 -0.0380  0.1057
  537MOL0     C74002   4.443   4.168   3.769  0.7621 -0.1894 -0.9736
  537MOL0     C74003   4.456   4.075   3.874  0.0825  0.1395 -0.6061
  537MOL0     O74004   4.402   4.093   3.999 -0.0052 -0.7164 -0.2581
  537MOL0     C74005   4.267   4.146   4.002 -0.2627 -0.0962  0.0061
  537MOL0     C74006   4.213   4.121   4.138 -0.1238 -0.0141  0.1651
  537MOL0     C74007   4.066   4.079   4.140 -0.2666 -0.4181 -0.7140
  537MOL0     C74008   4.016   4.082   4.287 -0.2442 -0.1106  0.3589
  537MOL0     C74009   3.870   4.038   4.286  0.9119 -0.9220  0.9069
  537MOL0     C74010   3.768   4.144   4.225 -0.7731  0.3102  0.4639
  537MOL0     C74011   3.628   4.091   4.226 -0.7065 -0.6237 -0.0609
  537MOL0     C74012   3.533   4.202   4.179 -0.5870  0.8556  0.0144
  537MOL0    Cl74013   3.363   4.147   4.165 -0.1406 -0.0482  0.1431
  537MOL0     C74014   4.530   3.954   3.851  0.5551 -0.0381 -1.0807
  537MOL0     C74015   4.593   3.921   3.735 -0.3781 -0.6276  0.0008
  537MOL0     O74016   4.565   3.846   3.431 -0.2333 -0.4167  0.4783
  537MOL0     C74017   4.836   3.817   3.293  0.3792  0.4950  0.2407
  537MOL0     C74018   4.930   3.819   3.194 -0.7053  0.0470  0.5406
  537MOL0     N74019   5.018   3.795   2.456  0.8608  0.4526 -0.1278
  537MOL0     N74020   4.986   3.764   2.340  0.9564  0.0770 -0.1771
  537MOL0     C74021   4.375   3.237   1.983 -0.2382  0.2103 -0.1316
  537MOL0     C74022   4.317   3.111   2.002  0.3052  0.5312 -0.5372
  537MOL0     C74023   4.075   2.741   2.134 -0.4532  0.4997 -0.7084
  537MOL0     C74024   4.082   2.608   2.068  0.2702 -0.6558  0.3135
  537MOL0     C74025   4.027   2.496   2.121 -0.6862  0.7118 -1.5646
  537MOL0     C74026   3.976   2.495   2.255  0.1881 -0.2641 -0.2479
  537MOL0     O74027   3.911   2.385   2.312 -0.1680  0.4848 -0.2771
  537MOL0     C74028   3.982   2.261   2.297  0.2787  0.0028  0.6342
  537MOL0     C74029   3.920   2.136   2.349 -0.1702  0.1978 -0.4229
  537MOL0     C74030   3.780   2.104   2.280  0.5075  0.2521 -0.0224
  537MOL0     C74031   3.803   2.051   2.139 -0.1572 -0.2684  0.0647
  537MOL0     C74032   3.876   1.922   2.139 -0.0579  0.4177 -0.3634
  537MOL0     C74033   3.929   1.817   2.147  0.3679  0.6633  0.6658
  537MOL0     C74034   3.966   2.623   2.323  0.4208 -0.5087  0.1104
  537MOL0     C74035   4.018   2.740   2.268 -0.3561 -0.1977  0.6543
  537MOL0     C74036   4.010   2.865   2.357 -0.2676 -0.2219 -0.7431
  537MOL0     H74037   4.073   3.220   2.218  1.7329  0.3957  1.7949
  537MOL0     H74038   4.184   3.434   2.169  3.0996  1.3422  2.0963
  537MOL0     H74039   4.224   3.573   2.035  0.0680 -0.5255 -1.8917
  537MOL0     H74040   4.334   3.586   1.889  0.7010  1.7991  0.1718
  537MOL0     H74041   4.370   3.793   1.995  1.3463  2.9595  2.4210
  537MOL0     H74042   4.384   3.724   2.155  2.2176  0.1294 -0.9983
  537MOL0     H74043   4.604   3.611   2.090  1.5421  1.3168 -0.3037
  537MOL0     H74044   4.569   3.660   1.918 -3.9301 -1.2817  0.0572
  537MOL0     H74045   4.600   3.896   1.969  0.4942  1.2639  0.5887
  537MOL0     H74046   4.621   3.858   2.141 -0.9105 -2.7564  1.2891
  537MOL0     H74047   4.808   3.758   1.918  2.2083 -0.6938  0.4736
  537MOL0     H74048   4.813   3.694   2.078  1.2756 -2.0336 -3.6735
  537MOL0     H74049   4.863   3.990   2.006 -1.9305 -0.5363  0.6112
  537MOL0     H74050   4.861   3.931   2.172  0.3622  1.9570 -0.0774
  537MOL0     H74051   5.078   3.974   2.045  1.2625 -0.4048  0.2539
  537MOL0     H74052   5.042   3.847   1.935  0.0450 -1.4734 -0.1902
  537MOL0     H74053   5.070   3.673   2.100  1.5790 -0.1550  0.3392
  537MOL0     H74054   5.206   3.783   2.101 -1.2090  0.9664  0.8339
  537MOL0     H74055   5.290   3.895   2.327  0.8545 -1.7852  1.8503
  537MOL0     H74056   5.276   3.974   2.573  2.3964 -2.4028  1.1602
  537MOL0     H74057   5.245   3.810   2.625  0.8262  0.8060 -1.2371
  537MOL0     H74058   5.024   4.017   2.649 -1.1727 -0.8753  0.7030
  537MOL0     H74059   5.047   3.859   2.725  0.3473 -0.4544 -3.2529
  537MOL0     H74060   5.249   3.946   2.855  1.2432  0.2377 -2.1702
  537MOL0     H74061   5.223   4.105   2.783  0.3414  0.1406  0.4045
  537MOL0     H74062   5.136   4.105   3.003  0.9969  1.5175 -1.9614
  537MOL0     H74063   4.997   4.112   2.898  0.2612  0.8098 -1.1675
  537MOL0     H74064   4.858   4.123   3.068 -4.9346  2.7066  3.7167
  537MOL0     H74065   4.742   4.234   3.282 -0.9255  0.1050  0.5825
  537MOL0     H74066   4.587   4.142   3.299  0.3826 -0.2197 -0.1477
  537MOL0     H74067   4.641   4.192   3.141 -2.0880 -0.3696 -0.0345
  537MOL0     H74068   4.522   4.217   3.578  3.7878  1.2729  1.0760
  537MOL0     H74069   4.369   4.248   3.765  1.2366  0.3352  0.2158
  537MOL0     H74070   4.265   4.252   3.976 -3.5337 -0.7014 -2.9586
  537MOL0     H74071   4.202   4.087   3.936 -1.1099 -0.1764  0.9004
  537MOL0     H74072   4.276   4.045   4.185 -1.2012 -1.4188 -0.5668
  537MOL0     H74073   4.225   4.209   4.201 -1.1194 -2.2188  3.7236
  537MOL0     H74074   4.056   3.980   4.097 -0.0489 -1.8773  2.3026
  537MOL0     H74075   4.007   4.147   4.078 -1.6039 -1.8140 -1.0313
  537MOL0     H74076   4.015   4.183   4.329 -0.4152 -0.9687  2.5491
  537MOL0     H74077   4.072   4.021   4.360 -1.2104 -3.6625 -1.6374
  537MOL0     H74078   3.860   3.939   4.240  0.4206 -0.6978  0.5188
  537MOL0     H74079   3.851   4.033   4.393 -2.9588 -0.2869  0.3959
  537MOL0     H74080   3.790   4.166   4.120 -4.9381  0.2290 -0.6328
  537MOL0     H74081   3.787   4.237   4.279  3.9247  0.1291 -0.4889
  537MOL0     H74082   3.593   4.053   4.322  0.0540 -0.5726  0.2427
  537MOL0     H74083   3.622   4.006   4.157 -0.4313 -0.8694  0.2119
  537MOL0     H74084   3.561   4.234   4.079 -1.5591  1.7567  0.0141
  537MOL0     H74085   3.538   4.282   4.253 -0.8836  0.3774  0.5606
  537MOL0     H74086   4.544   3.892   3.939  2.0236  0.7711 -0.7012
  537MOL0     H74087   4.652   3.830   3.725  2.1721  1.0717 -1.5907
  537MOL0     H74088   4.829   3.737   3.366  0.5093  1.1302  0.9607
  537MOL0     H74089   5.000   3.737   3.179  0.8762  1.3663  0.4203
  537MOL0     H74090   4.470   3.247   1.933  1.5157  2.7817  3.2911
  537MOL0     H74091   4.356   3.029   1.943  2.8822  1.1112  0.2394
  537MOL0     H74092   4.104   2.611   1.961 -2.8826  0.8294 -0.4086
  537MOL0     H74093   4.034   2.406   2.062 -1.9051 -1.7892  1.7914
  537MOL0     H74094   3.991   2.242   2.190  1.3620 -2.6510  1.1310
  537MOL0     H74095   4.085   2.278   2.330  1.0597 -0.7782 -1.2594
  537MOL0     H74096   3.900   2.155   2.454  1.3341  0.1126 -0.0941
  537MOL0     H74097   3.999   2.060   2.350 -1.0324 -0.7058  0.8749
  537MOL0     H74098   3.720   2.032   2.336  3.2471 -0.3318  2.4291
  537MOL0     H74099   3.712   2.188   2.267  0.4361  0.0716 -0.8909
  537MOL0     H74100   3.856   2.126   2.081 -0.2804  1.1892  1.7374
  537MOL0     H74101   3.704   2.037   2.095 -0.0115  0.8727 -0.6466
  537MOL0     H74102   3.972   1.719   2.152 -1.1794 -0.0019  2.0112
  537MOL0     H74103   3.910   2.623   2.415  0.1526 -0.9323 -0.0468
  537MOL0     H74104   4.098   2.857   2.422 -0.2610  1.5925 -0.4739
  537MOL0     H74105   3.998   2.955   2.295  0.3416 -0.9684 -1.9851
  537MOL0     H74106   3.919   2.864   2.417 -1.1076 -0.5382 -1.9951
  538MOL0     O74107   2.607   4.393   3.531  0.5097 -0.2877  0.2185
  538MOL0     C74108   2.503   4.350   3.492 -0.0631  0.3863  0.2689
  538MOL0     O74109   2.400   4.316   3.575 -0.4321 -0.2024 -0.3064
  538MOL0     C74110   2.404   4.344   3.710 -0.4450 -0.5456  0.8099
  538MOL0     C74111   2.438   4.470   3.757  0.2193 -0.4297  0.4206
  538MOL0     C74112   2.425   4.507   3.889  0.1351 -0.7702 -0.0702
  538MOL0     C74113   2.379   4.417   3.986  0.9814 -0.0305  0.6119
  538MOL0     O74114   2.386   4.451   4.121  0.0800 -0.0326  0.6803
  538MOL0     C74115   2.374   4.349   4.219  0.0838 -0.9870  0.5829
  538MOL0     C74116   2.416   4.395   4.362 -0.7195  0.1451 -0.2449
  538MOL0     C74117   2.493   4.292   4.450 -0.6515 -0.7991  0.7178
  538MOL0     C74118   2.550   4.356   4.571  0.3319 -0.1344  0.8253
  538MOL0     C74119   2.631   4.251   4.648  0.9534  0.6997  0.0835
  538MOL0     C74120   2.536   4.146   4.703  0.6106  0.4786  0.9621
  538MOL0     C74121   2.616   4.064   4.800 -0.3596  0.5150  0.1155
  538MOL0     C74122   2.539   3.949   4.858 -0.8035  0.3979  0.5049
  538MOL0     N74123   2.479   3.862   4.760 -0.1004  0.2547  0.4263
  538MOL0     C74124   2.345   3.839   4.745  0.8330 -0.3756 -0.1786
  538MOL0     C74125   2.337   3.734   4.656 -0.6056 -0.0773  0.8598
  538MOL0     C74126   2.224   3.663   4.600  0.6247  0.4765  0.4101
  538MOL0     C74127   2.094   3.661   4.672 -0.9825  0.0831  0.3071
  538MOL0     C74128   2.015   3.780   4.634  0.4394 -0.1293  0.1618
  538MOL0     C74129   1.869   3.746   4.661  0.1228 -0.8283  0.8305
  538MOL0     O74130   1.848   3.686   4.793  0.6701 -0.1338  0.0441
  538MOL0     C74131   1.753   3.590   4.799 -0.2927 -0.1356 -0.3157
  538MOL0     C74132   1.704   3.509   4.692  0.1767  0.2360 -0.5119
  538MOL0     C74133   1.607   3.409   4.711  0.0089  1.0389  0.4059
  538MOL0     C74134   1.582   3.326   4.583 -0.2124 -1.3009  0.4707
  538MOL0     C74135   1.550   3.385   4.840  0.4754  0.4521  0.2813
  538MOL0     C74136   1.451   3.277   4.863  0.0897 -0.0145 -0.4389
  538MOL0     O74137   1.414   3.260   4.989 -0.3108  0.3168  0.1013
  538MOL0     C74138   1.331   3.161   5.016  0.3266  0.2670 -0.2925
  538MOL0     C74139   1.382   3.035   5.052 -0.1210 -0.8820 -0.2118
  538MOL0     C74140   1.301   2.930   5.085 -0.4795  0.0589 -0.0013
  538MOL0     C74141   1.161   2.938   5.087 -0.0905  0.3028  0.8414
  538MOL0     O74142   1.089   2.822   5.105 -0.4990  0.1506  0.0884
  538MOL0     C74143   0.978   2.797   5.022  0.2407 -0.0801 -0.2934
  538MOL0     C74144   0.895   2.667   5.064 -1.0134 -0.5368 -0.3212
  538MOL0     C74145   0.832   2.696   5.204  0.3743  0.7546 -0.2036
  538MOL0     C74146   0.715   2.784   5.215  0.3919 -0.3044 -0.3981
  538MOL0     C74147   0.669   2.788   5.357  0.0168 -0.2724  0.2414
  538MOL0     C74148   0.525   2.838   5.367 -0.5055  0.9468  0.4295
  538MOL0     C74149   0.429   2.772   5.472 -0.0815 -0.1474 -0.1448
  538MOL0     C74150   0.477   2.768   5.623 -0.3832 -0.1514  0.4204
  538MOL0    Cl74151   0.451   2.916   5.705  0.0307  0.0033 -0.3018
  538MOL0     C74152   1.100   3.061   5.059 -0.1525 -0.6900 -0.0746
  538MOL0     C74153   1.191   3.175   5.023 -0.0796  0.1528 -0.7043
  538MOL0     O74154   1.412   3.206   4.769 -0.4661 -0.1293  0.9608
  538MOL0     C74155   1.589   3.470   4.940 -0.1953 -0.7294  0.3730
  538MOL0     C74156   1.682   3.573   4.918  0.4709  0.9289 -1.2091
  538MOL0     N74157   2.471   3.701   4.615  0.3531 -0.0563  0.0707
  538MOL0     N74158   2.548   3.780   4.671  0.2508 -0.2606 -0.3457
  538MOL0     C74159   2.355   4.283   3.941  0.3412  0.2565 -0.0749
  538MOL0     C74160   2.358   4.246   3.801 -0.2226 -0.1863  1.1751
  538MOL0     C74161   2.494   4.316   3.342 -0.6416  0.4854  0.9833
  538MOL0     C74162   2.407   4.211   3.296  0.7867  0.4535 -0.0372
  538MOL0     C74163   2.388   4.186   3.162  0.3948 -0.6950 -0.5081
  538MOL0     C74164   2.452   4.256   3.065  0.1174 -0.3633  0.5695
  538MOL0     O74165   2.428   4.232   2.930 -0.0188 -0.3354 -1.1310
  538MOL0     C74166   2.372   4.100   2.897  0.3426  0.8896 -0.3002
  538MOL0     C74167   2.350   4.098   2.749  0.2648  0.7352  0.6574
  538MOL0     C74168   2.299   3.958   2.706  0.6560  0.6567  0.0103
  538MOL0     C74169   2.331   3.919   2.555  0.0323  0.0081 -0.1462
  538MOL0     C74170   2.237   3.818   2.502  0.1581  0.2634  0.6608
  538MOL0     C74171   2.163   3.726   2.465  0.0441  0.2922 -0.1392
  538MOL0     C74172   2.516   4.373   3.101 -0.7109 -0.1313 -0.3328
  538MOL0     C74173   2.550   4.401   3.240  0.5330 -0.6468  0.3402
  538MOL0     C74174   2.639   4.521   3.262 -0.4756 -0.2186 -0.3287
  538MOL0     H74175   2.462   4.547   3.685  0.5324 -0.7421  0.1860
  538MOL0     H74176   2.449   4.606   3.927 -0.4467 -1.0506  1.0741
  538MOL0     H74177   2.437   4.265   4.187 -0.8365 -0.2638 -3.7232
  538MOL0     H74178   2.266   4.332   4.221 -0.1719  0.3282  3.7354
  538MOL0     H74179   2.483   4.481   4.354 -1.3979  0.4927 -3.5812
  538MOL0     H74180   2.324   4.420   4.416 -0.6580 -0.5951  0.2128
  538MOL0     H74181   2.420   4.215   4.474 -4.0446  1.5422 -1.2140
  538MOL0     H74182   2.566   4.230   4.397 -0.4056 -1.1915  1.5018
  538MOL0     H74183   2.605   4.449   4.553 -0.3369  0.3393  1.2061
  538MOL0     H74184   2.467   4.393   4.631  1.5043  0.3638  2.2157
  538MOL0     H74185   2.682   4.298   4.733  2.9284 -1.9199  0.4651
  538MOL0     H74186   2.706   4.199   4.588  1.1699 -0.5163  1.3482
  538MOL0     H74187   2.453   4.196   4.753  0.5139 -1.5065  2.9350
  538MOL0     H74188   2.493   4.081   4.626 -1.4295  3.2615 -0.4128
  538MOL0     H74189   2.639   4.119   4.892 -2.6409  1.6184  0.0914
  538MOL0     H74190   2.699   4.019   4.744 -0.4376 -1.6413  1.6283
  538MOL0     H74191   2.611   3.886   4.911 -0.8924  0.1632  0.3448
  538MOL0     H74192   2.476   3.988   4.939  0.3263 -0.3208  1.7799
  538MOL0     H74193   2.264   3.890   4.795 -0.6208 -2.2374 -0.5069
  538MOL0     H74194   2.256   3.558   4.597  0.6821  0.5147 -0.5448
  538MOL0     H74195   2.204   3.694   4.497  1.7965  0.8334  0.2792
  538MOL0     H74196   2.046   3.567   4.647  0.5944 -1.1491  1.6705
  538MOL0     H74197   2.110   3.668   4.781 -1.0119  2.3095  0.2330
  538MOL0     H74198   2.055   3.855   4.703  2.2377  0.1582 -1.1126
  538MOL0     H74199   2.039   3.818   4.534  3.1558 -4.4268 -1.0659
  538MOL0     H74200   1.820   3.843   4.670  0.9547 -0.2234 -0.8714
  538MOL0     H74201   1.826   3.701   4.571  0.4522  2.2733 -1.0069
  538MOL0     H74202   1.747   3.515   4.592  1.0628 -2.5710 -0.3717
  538MOL0     H74203   1.569   3.218   4.597 -1.2205 -1.3121 -0.4605
  538MOL0     H74204   1.652   3.346   4.502  1.7944 -0.8443  2.2296
  538MOL0     H74205   1.490   3.368   4.543  0.8419  1.5426  0.8424
  538MOL0     H74206   1.490   3.026   5.039  0.0057  1.6457 -1.4334
  538MOL0     H74207   1.350   2.840   5.121 -1.2274  0.7516  3.0256
  538MOL0     H74208   0.914   2.885   5.029  1.7553  1.0442 -0.1287
  538MOL0     H74209   1.008   2.788   4.917 -0.3111  1.9552 -0.6662
  538MOL0     H74210   0.820   2.647   4.986 -0.5286 -1.8707 -0.4753
  538MOL0     H74211   0.971   2.588   5.073  1.4394  1.3405 -2.7787
  538MOL0     H74212   0.900   2.744   5.275 -0.6811  3.8986 -1.1067
  538MOL0     H74213   0.802   2.597   5.240 -3.2301  1.1470 -1.6734
  538MOL0     H74214   0.644   2.732   5.151  0.5275  0.1497 -0.9284
  538MOL0     H74215   0.741   2.884   5.177  3.5945  0.0184  2.1610
  538MOL0     H74216   0.674   2.688   5.400  1.3039  1.0818  3.5286
  538MOL0     H74217   0.744   2.849   5.408  2.2217 -1.1067 -1.8028
  538MOL0     H74218   0.479   2.848   5.269  4.3917  2.0837 -2.0802
  538MOL0     H74219   0.532   2.944   5.392 -2.2193  1.9840 -2.9195
  538MOL0     H74220   0.401   2.666   5.460  1.0441 -0.5479  0.6372
  538MOL0     H74221   0.338   2.828   5.448 -1.5619 -2.7225 -0.9091
  538MOL0     H74222   0.585   2.752   5.631 -0.4081 -0.0110  1.0652
  538MOL0     H74223   0.430   2.689   5.683 -1.1464 -0.1340 -0.1453
  538MOL0     H74224   0.994   3.082   5.069  0.2773  1.6308  0.2341
  538MOL0     H74225   1.149   3.273   5.004  0.6549  0.1660 -2.3770
  538MOL0     H74226   1.541   3.466   5.037 -0.8671 -1.9399  0.0216
  538MOL0     H74227   1.690   3.643   5.000 -1.0660  0.2353 -0.4383
  538MOL0     H74228   2.319   4.207   4.009  2.6325  0.1027  1.0519
  538MOL0     H74229   2.323   4.149   3.769 -1.6040  0.6370  0.0561
  538MOL0     H74230   2.350   4.147   3.362 -1.7294  0.1912 -2.2961
  538MOL0     H74231   2.311   4.109   3.157 -2.6614  2.0190  1.1847
  538MOL0     H74232   2.445   4.024   2.928 -1.2946 -1.1517 -1.2301
  538MOL0     H74233   2.278   4.079   2.949  0.2639  1.9578  0.0114
  538MOL0     H74234   2.438   4.124   2.689 -1.0460  1.6013 -1.0031
  538MOL0     H74235   2.274   4.169   2.714  0.3366  0.2089 -0.6524
  538MOL0     H74236   2.335   3.878   2.772 -0.1452 -1.1750 -1.6456
  538MOL0     H74237   2.190   3.960   2.719  0.7391  1.5720  0.6409
  538MOL0     H74238   2.435   3.887   2.544  0.9929  2.4008  1.1690
  538MOL0     H74239   2.313   4.013   2.503  4.0064  0.6757 -0.6247
  538MOL0     H74240   2.114   3.640   2.423  1.2785  0.5920 -2.3119
  538MOL0     H74241   2.567   4.428   3.023  0.8752 -0.6865  0.2660
  538MOL0     H74242   2.620   4.588   3.177  0.9572 -0.4955 -0.8887
  538MOL0     H74243   2.615   4.560   3.362 -1.2216 -3.7435  1.0018
  538MOL0     H74244   2.747   4.506   3.260 -0.5255 -0.6663  0.1286
  539MOL0     O74245   6.740   7.571   8.170 -0.3464  0.6083  0.2293
  539MOL0     C74246   6.800   7.535   8.269  0.2440  1.0812 -0.5848
  539MOL0     O74247   6.783   7.601   8.395 -0.3290 -0.6424 -0.3376
  539MOL0     C74248   6.721   7.728   8.400 -0.2557 -0.4597 -0.2388
  539MOL0     C74249   6.618   7.752   8.493  0.1447  0.1335 -0.4349
  539MOL0     C74250   6.560   7.884   8.507 -0.2407  0.6358 -1.0585
  539MOL0     C74251   6.611   7.988   8.432  0.2632 -0.6621 -0.8613
  539MOL0     O74252   6.574   8.120   8.439  0.3890  1.2617 -0.2784
  539MOL0     C74253   6.438   8.150   8.486 -0.6940 -0.0098  0.1712
  539MOL0     C74254   6.381   8.273   8.417 -0.3858  0.1346  0.8060
  539MOL0     C74255   6.353   8.249   8.266  0.1457 -0.5280  0.4475
  539MOL0     C74256   6.316   8.378   8.197 -0.1875 -0.8918  0.2478
  539MOL0     C74257   6.287   8.372   8.043 -0.1037  0.0876 -0.1179
  539MOL0     C74258   6.322   8.492   7.951  0.1422  0.8473  0.0011
  539MOL0     C74259   6.254   8.628   7.977  0.3712  0.5488  0.0420
  539MOL0     C74260   6.338   8.740   7.909 -0.3743  0.8793 -0.4124
  539MOL0     N74261   6.266   8.777   7.788 -0.2228  0.4486  0.2500
  539MOL0     C74262   6.288   8.903   7.722 -0.2410 -0.7709  0.3718
  539MOL0     C74263   6.243   8.881   7.598 -0.2947  0.4717 -0.0502
  539MOL0     C74264   6.271   8.971   7.473  0.2064 -0.8708 -0.3107
  539MOL0     C74265   6.169   9.085   7.477  0.7982  0.1335  0.0762
  539MOL0     C74266   6.207   9.200   7.569  0.6517  0.1511 -0.3226
  539MOL0     C74267   6.326   9.283   7.519 -0.0657  0.1641 -0.8943
  539MOL0     O74268   6.303   9.420   7.569 -0.4601 -0.7796  0.4902
  539MOL0     C74269   6.407   9.502   7.570 -0.3844 -0.4974 -0.8186
  539MOL0     C74270   6.525   9.501   7.500 -0.0897  0.1500  0.8314
  539MOL0     C74271   6.623   9.597   7.502 -0.0539 -0.0978 -0.6939
  539MOL0     C74272   6.741   9.578   7.410  0.0303  0.2594  0.4655
  539MOL0     C74273   6.603   9.704   7.594  0.6400  0.1690 -0.2873
  539MOL0     C74274   6.698   9.823   7.596  1.0920 -0.7511  0.0716
  539MOL0     O74275   6.653   9.913   7.687 -0.4741 -0.2025  0.3349
  539MOL0     C74276   6.742  10.016   7.717  0.3448  0.1573 -1.1329
  539MOL0     C74277   6.751  10.138   7.652 -0.3049  0.8412 -0.6611
  539MOL0     C74278   6.855  10.231   7.683  0.9385 -1.4356  0.1742
  539MOL0     C74279   6.954  10.202   7.777  0.2079  0.4747 -0.7337
  539MOL0     O74280   7.054  10.295   7.815  0.5199 -0.4775  0.0531
  539MOL0     C74281   7.024  10.427   7.865 -0.4597  0.2756  0.3840
  539MOL0     C74282   6.917  10.437   7.974  0.6254 -0.3488  0.2455
  539MOL0     C74283   6.955  10.440   8.127  0.6054  0.5053 -0.1502
  539MOL0     C74284   6.842  10.499   8.218  0.8147  0.0607 -0.2270
  539MOL0     C74285   6.696  10.440   8.190  1.2814 -0.3333  0.1856
  539MOL0     C74286   6.687  10.287   8.201  0.2102  0.6143  0.4301
  539MOL0     C74287   6.549  10.231   8.179 -0.7328 -0.1133 -0.9471
  539MOL0     C74288   6.543  10.080   8.226  1.1845  0.0900  0.1959
  539MOL0    Cl74289   6.658   9.998   8.130  0.1640  0.1857 -0.3264
  539MOL0     C74290   6.955  10.070   7.834  1.1845 -0.0938 -0.2662
  539MOL0     C74291   6.845   9.986   7.809  0.4608 -1.0059  0.0617
  539MOL0     O74292   6.799   9.827   7.529 -0.3644  0.0489  0.1011
  539MOL0     C74293   6.481   9.709   7.666  0.5493 -0.6113  0.4571
  539MOL0     C74294   6.391   9.610   7.653  0.4050 -0.2563  1.0254
  539MOL0     N74295   6.186   8.754   7.599  0.5245  0.3453 -0.4489
  539MOL0     N74296   6.188   8.697   7.712 -0.8726 -0.3313 -0.0781
  539MOL0     C74297   6.724   7.969   8.347 -0.0405 -0.9569  0.1088
  539MOL0     C74298   6.780   7.840   8.338  0.5936  1.0692  0.3212
  539MOL0     C74299   6.874   7.406   8.257  0.0177 -0.2250 -1.2164
  539MOL0     C74300   6.837   7.325   8.147 -1.1438 -0.3058  0.0138
  539MOL0     C74301   6.928   7.226   8.116  0.1612 -0.6227  0.4113
  539MOL0     C74302   7.048   7.197   8.189  0.3854 -0.1618  0.5858
  539MOL0     O74303   7.119   7.080   8.177 -0.4315 -0.7134 -0.2503
  539MOL0     C74304   7.074   6.966   8.110 -0.5676  0.8829 -0.1712
  539MOL0     C74305   7.169   6.854   8.139 -0.6355 -0.8931 -0.8131
  539MOL0     C74306   7.137   6.749   8.035  0.0726 -0.2022  0.0470
  539MOL0     C74307   7.235   6.623   8.041 -0.9359 -0.3523  1.1136
  539MOL0     C74308   7.191   6.534   8.149  1.0911 -0.7639 -0.6859
  539MOL0     C74309   7.149   6.455   8.224 -1.4829 -0.5010 -0.4700
  539MOL0     C74310   7.072   7.277   8.296  0.1254  0.0881  0.0755
  539MOL0     C74311   6.992   7.385   8.327 -0.7273  0.1343 -0.1874
  539MOL0     C74312   7.037   7.467   8.451 -0.8226 -0.0454 -0.2814
  539MOL0     H74313   6.574   7.677   8.558  2.6607 -1.2095 -0.1417
  539MOL0     H74314   6.489   7.905   8.586  0.6690  2.7450 -0.7381
  539MOL0     H74315   6.447   8.167   8.594 -1.7304  2.8054 -0.0974
  539MOL0     H74316   6.367   8.068   8.467  0.1289 -0.6298 -0.2686
  539MOL0     H74317   6.293   8.315   8.467  0.7547  3.2769  0.3965
  539MOL0     H74318   6.459   8.349   8.407 -0.9228  0.3638 -3.1673
  539MOL0     H74319   6.443   8.215   8.214 -2.1865 -0.9728 -3.6761
  539MOL0     H74320   6.272   8.176   8.271 -0.4349 -0.0479 -1.4202
  539MOL0     H74321   6.225   8.417   8.243  0.8930 -0.8917  2.4945
  539MOL0     H74322   6.389   8.457   8.218 -3.8855  2.9081  0.2146
  539MOL0     H74323   6.181   8.360   8.016  0.7070 -1.6992 -2.9383
  539MOL0     H74324   6.353   8.290   8.014  0.0990 -0.9570  2.9579
  539MOL0     H74325   6.430   8.506   7.961  0.3547  1.1993 -2.1948
  539MOL0     H74326   6.306   8.470   7.845  0.7094  1.4649 -0.2179
  539MOL0     H74327   6.260   8.654   8.083 -2.2334 -0.1417  0.4291
  539MOL0     H74328   6.151   8.626   7.940  0.7742  0.9338 -1.1505
  539MOL0     H74329   6.350   8.822   7.981 -0.1650  2.5409 -2.2771
  539MOL0     H74330   6.445   8.720   7.896 -0.3238  0.7918  0.1142
  539MOL0     H74331   6.344   8.988   7.761 -1.6227  0.0230  0.6921
  539MOL0     H74332   6.241   8.916   7.384 -1.0498 -1.8487  0.6902
  539MOL0     H74333   6.374   9.004   7.456 -0.3620  0.9280 -0.4919
  539MOL0     H74334   6.150   9.121   7.376 -1.0484 -2.1207 -0.4627
  539MOL0     H74335   6.072   9.043   7.505  0.8018  0.2451  0.2499
  539MOL0     H74336   6.115   9.256   7.586  0.8702  0.9063 -1.5391
  539MOL0     H74337   6.239   9.166   7.668  0.6162  0.9776 -0.0219
  539MOL0     H74338   6.422   9.241   7.550 -0.2813  1.1431  1.2988
  539MOL0     H74339   6.321   9.289   7.410  3.2522  1.7611 -1.0591
  539MOL0     H74340   6.540   9.422   7.427 -0.4615  1.6228 -0.9028
  539MOL0     H74341   6.824   9.572   7.480 -0.5042 -0.5259  1.0402
  539MOL0     H74342   6.745   9.651   7.328  0.9086 -0.3838 -0.0728
  539MOL0     H74343   6.732   9.481   7.361 -0.9589  0.2759  0.5970
  539MOL0     H74344   6.676  10.157   7.576 -0.3549 -0.1949 -0.8826
  539MOL0     H74345   6.852  10.327   7.632 -0.0472 -0.7635  1.4381
  539MOL0     H74346   7.118  10.477   7.888 -0.6149  1.4949 -1.4087
  539MOL0     H74347   6.979  10.476   7.777 -0.2856  0.0320  0.1578
  539MOL0     H74348   6.873  10.535   7.956  2.5247  0.1799 -2.0784
  539MOL0     H74349   6.842  10.364   7.943  1.1360 -0.5088 -0.6462
  539MOL0     H74350   7.049  10.496   8.131  1.8505 -1.4088 -1.1318
  539MOL0     H74351   6.961  10.339   8.168  0.0573 -0.1884 -1.6903
  539MOL0     H74352   6.838  10.609   8.222 -0.7190  0.0196 -0.0835
  539MOL0     H74353   6.870  10.464   8.318 -0.6431 -1.0124 -0.1609
  539MOL0     H74354   6.633  10.491   8.264  1.8005  3.1909 -1.5653
  539MOL0     H74355   6.667  10.482   8.094 -2.4663  0.5445  1.5205
  539MOL0     H74356   6.713  10.244   8.299 -3.6066 -1.2017  0.8293
  539MOL0     H74357   6.757  10.234   8.135  1.3092 -0.8008  2.5863
  539MOL0     H74358   6.521  10.239   8.073 -1.2066  0.2917 -0.7926
  539MOL0     H74359   6.470  10.293   8.220 -0.9284 -0.7641 -0.3079
  539MOL0     H74360   6.441  10.043   8.214  1.4101 -0.5177  0.1242
  539MOL0     H74361   6.575  10.075   8.330  2.7083 -3.3417 -0.3136
  539MOL0     H74362   7.035  10.037   7.900  1.8369 -0.0979 -1.0464
  539MOL0     H74363   6.854   9.894   7.865  3.8085  0.0190  1.4653
  539MOL0     H74364   6.453   9.793   7.729  0.4499 -1.8778  2.1841
  539MOL0     H74365   6.294   9.622   7.701  0.2198 -1.9281  1.1122
  539MOL0     H74366   6.763   8.053   8.291 -1.7835  0.6751  1.2105
  539MOL0     H74367   6.863   7.829   8.268 -1.4154  2.2660 -2.4608
  539MOL0     H74368   6.754   7.346   8.080 -0.6900 -1.3549 -0.9143
  539MOL0     H74369   6.905   7.168   8.027  1.9049  1.1656 -1.3145
  539MOL0     H74370   6.972   6.932   8.131 -0.5107  2.4514  3.5311
  539MOL0     H74371   7.088   6.995   8.006  2.7304  1.5965  0.3643
  539MOL0     H74372   7.167   6.815   8.241 -0.3496  0.5633 -0.2269
  539MOL0     H74373   7.273   6.889   8.135 -1.5704  2.4303  0.9192
  539MOL0     H74374   7.034   6.711   8.037 -0.6334  1.4493 -1.6493
  539MOL0     H74375   7.145   6.793   7.935  2.3757  1.3327  0.8296
  539MOL0     H74376   7.342   6.644   8.047 -0.7218 -1.0310  0.0355
  539MOL0     H74377   7.221   6.571   7.946 -1.2202 -1.7970  1.9157
  539MOL0     H74378   7.117   6.378   8.291 -0.1204 -0.8527 -0.2122
  539MOL0     H74379   7.155   7.255   8.361  2.0579  0.6214 -2.0681
  539MOL0     H74380   7.072   7.564   8.415 -1.3350 -0.8626 -3.2236
  539MOL0     H74381   6.958   7.488   8.524  0.7433  4.9453  0.3528
  539MOL0     H74382   7.119   7.417   8.503 -0.0774  1.4484  0.0383
  540MOL0     O74383  10.600   0.837   7.074  0.0122  0.6160 -0.0623
  540MOL0     C74384  10.545   0.730   7.093 -0.6081  0.3806  1.0514
  540MOL0     O74385  10.581   0.611   7.029 -0.9084 -0.7254 -0.5864
  540MOL0     C74386  10.505   0.500   7.016 -0.6561 -0.7715 -0.3536
  540MOL0     C74387  10.569   0.376   7.007 -0.1346  0.3344 -0.0819
  540MOL0     C74388  10.506   0.251   6.976 -0.2944  0.2006 -0.2812
  540MOL0     C74389  10.372   0.250   6.974  0.4853  0.3568  0.5975
  540MOL0     O74390  10.302   0.136   6.957 -0.5369 -0.4509 -0.3979
  540MOL0     C74391  10.361   0.009   6.995 -1.3200 -0.2496 -0.6691
  540MOL0     C74392  10.261  -0.085   7.029  0.9956  0.9654  0.0356
  540MOL0     C74393  10.169  -0.126   6.910 -1.0769  0.3220  0.5385
  540MOL0     C74394  10.075  -0.235   6.964  1.0798 -0.9087  0.4334
  540MOL0     C74395  10.000  -0.301   6.848  0.6763  0.0368  0.0824
  540MOL0     C74396   9.909  -0.204   6.764 -0.8678 -0.7951 -0.0017
  540MOL0     C74397   9.862  -0.282   6.636 -0.0019 -0.5188 -0.2516
  540MOL0     C74398   9.738  -0.239   6.551  0.3315  0.7148  0.2172
  540MOL0     N74399   9.709  -0.093   6.565  0.6872 -0.3803 -0.0376
  540MOL0     C74400   9.785   0.004   6.509  0.3098 -0.1199  0.3393
  540MOL0     C74401   9.719   0.120   6.533  0.2471 -0.3931  0.5041
  540MOL0     C74402   9.757   0.252   6.485 -0.4067 -0.4996 -0.2932
  540MOL0     C74403   9.752   0.274   6.336  1.3669  0.1676 -0.9897
  540MOL0     C74404   9.811   0.413   6.303  0.0840  0.6570  0.5941
  540MOL0     C74405   9.956   0.444   6.347  0.7494  0.5907  0.8332
  540MOL0     O74406  10.043   0.373   6.253 -0.6454  0.1891 -0.3128
  540MOL0     C74407  10.171   0.411   6.250 -1.1061  0.4954  0.2792
  540MOL0     C74408  10.253   0.329   6.184 -0.6423  0.8361 -0.0982
  540MOL0     C74409  10.394   0.329   6.193 -0.1799 -0.7643  0.5169
  540MOL0     C74410  10.461   0.241   6.106  0.0139  0.4423  0.1026
  540MOL0     C74411  10.454   0.440   6.262  0.4719 -0.0025 -0.3327
  540MOL0     C74412  10.601   0.462   6.287 -0.3379 -0.7066 -0.6205
  540MOL0     O74413  10.639   0.586   6.358 -0.6457  0.0489 -0.6695
  540MOL0     C74414  10.772   0.622   6.353  0.4163  0.4001  1.1195
  540MOL0     C74415  10.853   0.615   6.238 -0.6388  0.5387  0.1579
  540MOL0     C74416  10.987   0.657   6.246  0.6122  0.5021 -0.0548
  540MOL0     C74417  11.041   0.716   6.357  0.1163  0.1247  0.4032
  540MOL0     O74418  11.173   0.752   6.377  0.1184  0.6547  0.6158
  540MOL0     C74419  11.255   0.731   6.263 -0.3716 -0.2162  0.2997
  540MOL0     C74420  11.394   0.769   6.287 -0.5929 -0.0339  0.8065
  540MOL0     C74421  11.488   0.674   6.202 -0.0041 -0.1162  0.7018
  540MOL0     C74422  11.445   0.679   6.051  0.1773  0.0338  0.4506
  540MOL0     C74423  11.435   0.818   5.985  0.1673 -1.0049  0.7498
  540MOL0     C74424  11.558   0.913   5.997 -0.3218 -0.3551 -0.8575
  540MOL0     C74425  11.523   1.045   5.934 -0.2552  0.3895  0.3419
  540MOL0     C74426  11.651   1.119   5.917  0.2552 -1.0757  0.6068
  540MOL0    Cl74427  11.779   1.043   5.813  0.1385  0.4135 -0.0448
  540MOL0     C74428  10.960   0.721   6.473  1.0814 -0.0619 -0.6383
  540MOL0     C74429  10.822   0.686   6.462 -0.0509  0.9108  0.4465
  540MOL0     O74430  10.679   0.375   6.237 -0.0026 -0.6142 -0.2420
  540MOL0     C74431  10.371   0.539   6.324  0.3483  0.2430  0.3226
  540MOL0     C74432  10.236   0.521   6.313  0.6232 -0.7111  0.1911
  540MOL0     N74433   9.607   0.097   6.600  0.5463 -0.4308  1.3378
  540MOL0     N74434   9.604  -0.026   6.627 -1.2902 -0.8108  0.0906
  540MOL0     C74435  10.293   0.367   6.988  0.2863 -0.0648  1.0630
  540MOL0     C74436  10.358   0.495   7.012 -0.3420 -0.4648  0.1218
  540MOL0     C74437  10.434   0.730   7.180  0.4234  0.2666 -1.0529
  540MOL0     C74438  10.435   0.653   7.297 -0.8355 -0.0984 -0.4592
  540MOL0     C74439  10.331   0.668   7.389  0.0169  0.4646  0.0396
  540MOL0     C74440  10.216   0.741   7.375  0.3992 -0.0437 -0.0956
  540MOL0     O74441  10.130   0.720   7.479  0.6231 -0.3187  0.2629
  540MOL0     C74442   9.991   0.777   7.468 -0.0595  0.6837  0.3424
  540MOL0     C74443   9.946   0.873   7.584  0.2293  0.0518  0.8860
  540MOL0     C74444   9.793   0.913   7.559 -0.0379 -0.5241  0.1529
  540MOL0     C74445   9.778   1.009   7.437  1.0548 -0.0134 -0.3070
  540MOL0     C74446   9.890   1.090   7.409 -0.0358 -0.7740 -0.4515
  540MOL0     C74447   9.983   1.156   7.378 -0.0068  0.3811  0.5142
  540MOL0     C74448  10.211   0.818   7.254  0.3719  0.3391 -0.7857
  540MOL0     C74449  10.317   0.811   7.158  0.9677  0.3385 -0.6072
  540MOL0     C74450  10.289   0.876   7.026  0.0194 -0.0938  0.1698
  540MOL0     H74451  10.677   0.363   7.009 -0.2673 -0.8176  2.2577
  540MOL0     H74452  10.575   0.168   6.967  0.0981  0.4290  0.4975
  540MOL0     H74453  10.423   0.015   7.085 -0.8222  0.2175 -1.0410
  540MOL0     H74454  10.420  -0.038   6.916 -1.2776  0.6294 -1.1737
  540MOL0     H74455  10.315  -0.177   7.052  4.5697  2.7036 -0.6678
  540MOL0     H74456  10.206  -0.054   7.118 -1.2223  2.0572 -1.6147
  540MOL0     H74457  10.106  -0.041   6.884  2.0847  2.8514  0.4669
  540MOL0     H74458  10.243  -0.148   6.833  1.6873 -3.3957  3.7989
  540MOL0     H74459  10.132  -0.314   7.014  3.8010 -0.9650 -2.4802
  540MOL0     H74460  10.001  -0.186   7.028  0.9695  1.1126 -1.1542
  540MOL0     H74461   9.936  -0.383   6.882 -0.0993  1.2206  1.6171
  540MOL0     H74462  10.063  -0.349   6.773 -2.5528 -1.8731 -1.6373
  540MOL0     H74463   9.823  -0.175   6.825 -2.0812 -0.2929 -1.8832
  540MOL0     H74464   9.972  -0.124   6.724 -0.8723 -1.2681 -0.9958
  540MOL0     H74465   9.850  -0.385   6.671 -1.0819  0.2381  1.7996
  540MOL0     H74466   9.950  -0.272   6.572  1.8290  3.2099  2.4467
  540MOL0     H74467   9.734  -0.252   6.443  0.2991  0.5977  0.2307
  540MOL0     H74468   9.644  -0.293   6.566  0.9212 -0.6796 -0.8649
  540MOL0     H74469   9.872  -0.008   6.446  0.4047 -0.4613  0.5283
  540MOL0     H74470   9.860   0.261   6.522  0.3849  0.5045 -2.5663
  540MOL0     H74471   9.704   0.333   6.537 -2.3259 -2.1716  0.4930
  540MOL0     H74472   9.800   0.193   6.280 -1.0814 -1.8205 -0.3993
  540MOL0     H74473   9.645   0.279   6.315  1.0343 -0.6002  0.3737
  540MOL0     H74474   9.805   0.419   6.194 -0.0951 -1.2608  0.4657
  540MOL0     H74475   9.736   0.479   6.348 -3.5414 -2.8793  0.3154
  540MOL0     H74476   9.979   0.551   6.341  3.6065  0.0317  0.6883
  540MOL0     H74477   9.982   0.414   6.449 -3.7563 -1.2720  1.6842
  540MOL0     H74478  10.196   0.258   6.124  0.0801  0.9731 -0.9645
  540MOL0     H74479  10.393   0.195   6.034 -0.4632  1.7990 -0.3292
  540MOL0     H74480  10.506   0.155   6.158 -0.4377  1.0323  1.5302
  540MOL0     H74481  10.537   0.293   6.046 -1.3735 -0.1082 -2.2326
  540MOL0     H74482  10.801   0.570   6.153  0.5505 -0.9276  0.1678
  540MOL0     H74483  11.046   0.624   6.161 -2.1261  0.6241 -2.1478
  540MOL0     H74484  11.258   0.622   6.252 -0.0989 -0.1206 -0.6769
  540MOL0     H74485  11.217   0.764   6.166 -0.7829 -1.5758 -0.0299
  540MOL0     H74486  11.403   0.877   6.272 -1.6220  0.0080  0.4295
  540MOL0     H74487  11.420   0.756   6.392  0.0838  0.0630  0.6564
  540MOL0     H74488  11.474   0.572   6.237 -3.6691  0.3583  0.9440
  540MOL0     H74489  11.596   0.691   6.210  0.7200 -3.0078 -1.3302
  540MOL0     H74490  11.354   0.620   6.037  0.3191  0.0145 -0.5087
  540MOL0     H74491  11.522   0.641   5.983  0.4871  1.9554 -0.3659
  540MOL0     H74492  11.426   0.813   5.876 -1.0281  1.1429  0.6966
  540MOL0     H74493  11.352   0.877   6.026  3.3214  3.4602  1.4070
  540MOL0     H74494  11.633   0.866   5.933 -0.4383 -1.0916 -0.4707
  540MOL0     H74495  11.596   0.927   6.098 -3.8509 -0.8998  0.7018
  540MOL0     H74496  11.445   1.098   5.990 -0.0739  0.1599  0.8212
  540MOL0     H74497  11.499   1.030   5.829 -0.2958 -1.7428  0.5941
  540MOL0     H74498  11.700   1.131   6.014  1.4013  3.8619 -0.3002
  540MOL0     H74499  11.632   1.221   5.880  5.0234 -0.3125 -0.3538
  540MOL0     H74500  11.013   0.751   6.563 -1.1442 -0.2650  0.8209
  540MOL0     H74501  10.753   0.689   6.546 -0.1198  0.5856  0.4039
  540MOL0     H74502  10.411   0.624   6.379  1.0092 -0.4929  1.0119
  540MOL0     H74503  10.180   0.597   6.367  2.0176 -0.7326  1.7445
  540MOL0     H74504  10.185   0.358   6.981 -0.2438 -0.0945  5.9131
  540MOL0     H74505  10.292   0.581   7.017  2.1480  1.6681 -1.4690
  540MOL0     H74506  10.520   0.587   7.314 -0.9120 -0.0225  0.2280
  540MOL0     H74507  10.330   0.600   7.473  2.2375 -0.7992 -0.8791
  540MOL0     H74508   9.983   0.828   7.372  4.1121 -0.8495 -1.0603
  540MOL0     H74509   9.932   0.685   7.461 -1.3864  1.5719 -0.6621
  540MOL0     H74510  10.006   0.963   7.597 -1.0800  0.8750  1.4792
  540MOL0     H74511   9.953   0.809   7.672  3.4832 -2.1805 -0.7808
  540MOL0     H74512   9.736   0.820   7.550 -1.0001  0.0924 -0.2504
  540MOL0     H74513   9.746   0.958   7.647 -1.0067 -0.7699 -0.2241
  540MOL0     H74514   9.693   1.075   7.455  2.2189  1.7937 -1.1384
  540MOL0     H74515   9.755   0.946   7.351 -3.5811  0.6036  0.2493
  540MOL0     H74516  10.067   1.216   7.351  0.1140 -0.9922 -2.6164
  540MOL0     H74517  10.118   0.866   7.224  1.3952  2.4027 -0.8662
  540MOL0     H74518  10.375   0.893   6.962 -0.2436  0.1928 -0.1122
  540MOL0     H74519  10.211   0.821   6.972 -3.2634  1.1457  3.1899
  540MOL0     H74520  10.255   0.980   7.038  0.7241  0.2012 -0.3668
  541MOL0     O74521   6.762   1.126   6.469  0.7713 -0.2132  0.3980
  541MOL0     C74522   6.849   1.211   6.475 -0.8011  1.0399 -0.7173
  541MOL0     O74523   6.828   1.340   6.462  0.1951 -0.5676  0.2924
  541MOL0     C74524   6.699   1.376   6.439  0.2152  0.0709 -0.0423
  541MOL0     C74525   6.646   1.358   6.309 -0.1829  0.0796 -0.0115
  541MOL0     C74526   6.515   1.391   6.284 -0.1212  0.1793 -0.7719
  541MOL0     C74527   6.431   1.444   6.392  0.7551  0.1624  0.5043
  541MOL0     O74528   6.298   1.470   6.375 -0.8098  0.1225 -0.4313
  541MOL0     C74529   6.264   1.550   6.262  0.2622 -1.0855 -0.2059
  541MOL0     C74530   6.173   1.458   6.170 -0.7059 -1.1298 -0.2035
  541MOL0     C74531   6.065   1.371   6.248 -0.0571  0.9754 -0.2599
  541MOL0     C74532   5.956   1.457   6.305  0.0728  0.2966 -0.1137
  541MOL0     C74533   5.831   1.361   6.345  0.4354 -0.1276  0.3842
  541MOL0     C74534   5.709   1.429   6.412  0.3427  0.9171 -0.8816
  541MOL0     C74535   5.607   1.328   6.457  0.5102 -0.0249  0.1184
  541MOL0     C74536   5.536   1.249   6.352 -0.2197 -0.2500  0.5895
  541MOL0     N74537   5.480   1.337   6.246  0.2278 -0.4957  0.7437
  541MOL0     C74538   5.374   1.426   6.249  0.5056 -0.4786 -0.2198
  541MOL0     C74539   5.380   1.504   6.140 -0.4665 -0.5377  0.6030
  541MOL0     C74540   5.306   1.626   6.125 -0.0377  0.9831  0.2151
  541MOL0     C74541   5.398   1.738   6.170  0.1433  0.0642  0.4174
  541MOL0     C74542   5.333   1.885   6.171 -0.8638  0.4819 -0.4624
  541MOL0     C74543   5.444   1.978   6.211  0.7600  0.0690  0.9357
  541MOL0     O74544   5.391   2.118   6.216 -0.2182 -0.6844  0.1266
  541MOL0     C74545   5.488   2.207   6.162  1.2545  0.1384 -0.4742
  541MOL0     C74546   5.582   2.272   6.245  0.0567 -0.1167 -0.0492
  541MOL0     C74547   5.680   2.365   6.204 -0.2119  0.2260 -0.3496
  541MOL0     C74548   5.761   2.424   6.310 -0.3485 -0.4555  0.1489
  541MOL0     C74549   5.687   2.389   6.058 -0.4362  0.2711 -0.5558
  541MOL0     C74550   5.780   2.489   5.996  0.4203 -0.4216 -0.2975
  541MOL0     O74551   5.782   2.493   5.859 -0.5555  0.3132  0.4254
  541MOL0     C74552   5.846   2.602   5.799 -0.4290 -0.1878  0.0323
  541MOL0     C74553   5.775   2.657   5.692  0.4488  0.2324 -0.5708
  541MOL0     C74554   5.820   2.776   5.629 -0.4727 -0.1742 -0.7923
  541MOL0     C74555   5.956   2.831   5.666  0.0317  0.0109  0.4130
  541MOL0     O74556   6.006   2.947   5.603  0.4290 -0.4245  0.1310
  541MOL0     C74557   5.967   2.964   5.464 -0.3881 -0.3825 -0.1261
  541MOL0     C74558   6.075   3.067   5.393  0.5525  0.2704  0.0903
  541MOL0     C74559   6.202   2.990   5.372 -0.0042  0.4961  0.6162
  541MOL0     C74560   6.308   3.089   5.315  0.7249 -0.5536  1.0653
  541MOL0     C74561   6.461   3.059   5.323 -0.3227  0.1460 -0.7727
  541MOL0     C74562   6.511   2.954   5.427 -0.3222  0.7341  0.8207
  541MOL0     C74563   6.667   2.956   5.420 -0.7603 -0.6766 -0.1875
  541MOL0     C74564   6.736   2.908   5.549 -0.0606  0.5747 -0.8000
  541MOL0    Cl74565   6.698   2.733   5.572  0.0096  0.2043 -0.1054
  541MOL0     C74566   6.030   2.774   5.761  0.3861  0.5917 -0.1725
  541MOL0     C74567   5.979   2.655   5.830 -0.2676  0.0466  0.4166
  541MOL0     O74568   5.836   2.569   6.076  0.4195  0.4534  0.0556
  541MOL0     C74569   5.597   2.313   5.978  0.3278  0.7814 -0.5290
  541MOL0     C74570   5.497   2.230   6.027 -0.1251  1.1333  0.2710
  541MOL0     N74571   5.477   1.440   6.056  0.3154 -0.7949 -0.6495
  541MOL0     N74572   5.545   1.353   6.128 -0.3370  0.1357 -0.1665
  541MOL0     C74573   6.489   1.471   6.518 -0.0230 -0.5973  0.2098
  541MOL0     C74574   6.624   1.436   6.539 -0.2698 -0.7411  0.5962
  541MOL0     C74575   6.982   1.164   6.496 -0.3777  1.0644  0.8184
  541MOL0     C74576   7.007   1.088   6.610 -0.7959 -0.4755  0.5535
  541MOL0     C74577   7.133   1.035   6.640  0.5577 -0.3741  0.3747
  541MOL0     C74578   7.244   1.069   6.560 -0.0224 -0.2338  0.2250
  541MOL0     O74579   7.374   1.018   6.557  0.7299 -0.8527  0.1602
  541MOL0     C74580   7.412   0.952   6.678  0.0777  0.0668  0.1566
  541MOL0     C74581   7.563   0.947   6.676  0.1443 -0.8919  0.2200
  541MOL0     C74582   7.597   0.838   6.571  0.7514  0.2000  0.1878
  541MOL0     C74583   7.749   0.832   6.547  0.4806 -0.5989  0.5925
  541MOL0     C74584   7.822   0.832   6.678 -0.0960 -0.1550 -0.6605
  541MOL0     C74585   7.898   0.816   6.772  0.5009  0.5098  0.8236
  541MOL0     C74586   7.219   1.155   6.451 -0.6960 -0.2989  0.2300
  541MOL0     C74587   7.093   1.201   6.415  0.3229 -0.6014  0.2020
  541MOL0     C74588   7.063   1.259   6.272  0.2076  0.0665 -0.6842
  541MOL0     H74589   6.695   1.306   6.227  1.9586  0.4102  1.0042
  541MOL0     H74590   6.470   1.374   6.187 -0.5028  0.2867 -0.6199
  541MOL0     H74591   6.352   1.582   6.205 -0.4256 -1.0009 -1.2319
  541MOL0     H74592   6.210   1.640   6.290  1.9778  0.4991 -1.6774
  541MOL0     H74593   6.116   1.524   6.103 -0.1053  1.0693  1.3602
  541MOL0     H74594   6.240   1.396   6.110 -2.8731 -1.1595 -2.8064
  541MOL0     H74595   6.019   1.297   6.182  0.5406 -0.0601  0.4764
  541MOL0     H74596   6.109   1.307   6.325  1.8954  0.8842 -1.3803
  541MOL0     H74597   5.994   1.520   6.385 -0.1570  3.8794 -2.5910
  541MOL0     H74598   5.908   1.517   6.227  1.8674 -1.4737 -2.7860
  541MOL0     H74599   5.869   1.283   6.411  1.8908  0.2267  0.0013
  541MOL0     H74600   5.793   1.319   6.251  1.2257  1.0905 -0.5095
  541MOL0     H74601   5.739   1.476   6.507 -2.6706  0.9010  0.1770
  541MOL0     H74602   5.662   1.501   6.346  0.8124 -1.3545 -3.8985
  541MOL0     H74603   5.532   1.378   6.520 -0.2379  0.2241 -0.9424
  541MOL0     H74604   5.652   1.260   6.530 -0.0312 -1.9595 -1.2763
  541MOL0     H74605   5.609   1.177   6.313 -1.2922 -0.7220 -0.6279
  541MOL0     H74606   5.454   1.190   6.394 -3.7119  2.2903 -1.9514
  541MOL0     H74607   5.314   1.440   6.338  0.3322 -0.4371 -0.3416
  541MOL0     H74608   5.212   1.623   6.181  0.7977  0.7470  1.6507
  541MOL0     H74609   5.282   1.637   6.019  0.6332 -1.0145 -0.1886
  541MOL0     H74610   5.424   1.716   6.273  0.2140  0.2828  0.4478
  541MOL0     H74611   5.490   1.733   6.110  0.1617  1.8297  0.2475
  541MOL0     H74612   5.291   1.905   6.072  1.3700 -0.2580 -1.6073
  541MOL0     H74613   5.253   1.884   6.246  0.2811 -0.2319  0.7951
  541MOL0     H74614   5.483   1.953   6.310 -1.3552 -0.7048  1.6239
  541MOL0     H74615   5.517   1.962   6.131  0.5691  1.9535  0.3157
  541MOL0     H74616   5.562   2.262   6.352  0.1499 -2.5007 -0.1963
  541MOL0     H74617   5.750   2.533   6.303 -0.3844 -0.3445  1.6464
  541MOL0     H74618   5.864   2.392   6.288  0.6310  1.4295  1.5995
  541MOL0     H74619   5.736   2.400   6.414 -1.1114  0.5572  0.2163
  541MOL0     H74620   5.679   2.619   5.657 -1.1517 -1.3498  4.6682
  541MOL0     H74621   5.751   2.835   5.569  0.9734  1.4327 -0.9653
  541MOL0     H74622   5.957   2.875   5.401 -2.1456 -0.0457 -0.3570
  541MOL0     H74623   5.872   3.018   5.457 -0.1913  0.0086  0.1919
  541MOL0     H74624   6.037   3.093   5.294 -1.9690 -0.3034  0.8332
  541MOL0     H74625   6.083   3.158   5.453 -3.9251  2.7582 -2.4989
  541MOL0     H74626   6.180   2.909   5.302 -3.3020  1.3215  0.5761
  541MOL0     H74627   6.236   2.948   5.467 -0.1239  1.4743  1.1088
  541MOL0     H74628   6.292   3.180   5.373  1.3078 -0.3149  0.8625
  541MOL0     H74629   6.284   3.106   5.210  0.4763  0.9074  1.3427
  541MOL0     H74630   6.490   3.018   5.226 -4.1598 -1.1150 -1.5546
  541MOL0     H74631   6.513   3.154   5.335 -1.0738  0.5232 -0.4050
  541MOL0     H74632   6.467   2.856   5.408  0.1175  0.4820  1.0881
  541MOL0     H74633   6.472   2.973   5.528  2.7363 -1.5795  2.5891
  541MOL0     H74634   6.707   3.056   5.405 -0.8370 -0.1742  2.5540
  541MOL0     H74635   6.704   2.890   5.340  1.7660  0.0422  0.3213
  541MOL0     H74636   6.692   2.960   5.635 -0.2322 -1.7309  0.5869
  541MOL0     H74637   6.844   2.927   5.551  0.4366 -1.7617 -1.9914
  541MOL0     H74638   6.127   2.814   5.787  0.4090  0.2423  0.3091
  541MOL0     H74639   6.037   2.612   5.911 -0.3983  1.6372  1.3901
  541MOL0     H74640   5.589   2.340   5.873  2.6675  3.9320 -0.0732
  541MOL0     H74641   5.422   2.188   5.960  1.3135  1.3126 -1.5336
  541MOL0     H74642   6.428   1.515   6.596 -2.5202  1.4153 -2.6245
  541MOL0     H74643   6.681   1.463   6.627  0.1532  1.3405 -0.2631
  541MOL0     H74644   6.919   1.058   6.665 -0.3079  1.4088  2.4645
  541MOL0     H74645   7.149   0.974   6.728  2.6677  0.7399  0.8335
  541MOL0     H74646   7.385   1.007   6.768 -0.7018  0.4255 -0.2921
  541MOL0     H74647   7.369   0.851   6.680  1.4022 -0.6857 -2.7374
  541MOL0     H74648   7.607   0.904   6.767  3.1252  1.4074  0.0059
  541MOL0     H74649   7.610   1.041   6.647  1.4360 -2.3779 -3.0872
  541MOL0     H74650   7.556   0.740   6.595 -1.7020  1.4258  1.3362
  541MOL0     H74651   7.549   0.865   6.477  0.2627  1.3555  0.7623
  541MOL0     H74652   7.789   0.924   6.505  2.9900 -2.0597 -0.4346
  541MOL0     H74653   7.773   0.741   6.492 -2.5999 -0.2378 -1.5954
  541MOL0     H74654   7.960   0.801   6.858  1.3730  0.7469  0.2474
  541MOL0     H74655   7.302   1.175   6.385  1.3021  2.2100  3.2389
  541MOL0     H74656   7.144   1.329   6.248  0.6152  0.9480  2.7203
  541MOL0     H74657   7.075   1.174   6.204  0.7590 -0.1389 -0.3306
  541MOL0     H74658   6.965   1.307   6.260  1.0156  1.9524 -0.1214
  542MOL0     O74659   8.149   0.563   8.537  0.7323 -0.4868  0.1319
  542MOL0     C74660   8.124   0.441   8.528  0.4126  0.0773 -0.5418
  542MOL0     O74661   8.045   0.367   8.615  0.0345 -0.1797 -0.0852
  542MOL0     C74662   7.981   0.430   8.717  0.7114  0.0258  0.2354
  542MOL0     C74663   8.044   0.503   8.817 -0.3189  0.3956  0.4759
  542MOL0     C74664   7.972   0.564   8.919 -0.7575 -0.4875  0.4563
  542MOL0     C74665   7.827   0.557   8.909 -0.3233 -0.0368  0.0264
  542MOL0     O74666   7.752   0.632   8.992  0.6482 -0.1466 -0.2114
  542MOL0     C74667   7.672   0.562   9.094 -0.5971 -0.2411  0.8808
  542MOL0     C74668   7.605   0.664   9.183  0.1987 -0.0151  1.3426
  542MOL0     C74669   7.518   0.764   9.104  0.2597 -0.6731 -0.5073
  542MOL0     C74670   7.432   0.852   9.200 -0.2747 -0.1934 -0.5232
  542MOL0     C74671   7.343   0.938   9.112 -0.1921  0.1412  0.3318
  542MOL0     C74672   7.280   1.059   9.170 -0.0222  0.8252 -0.3001
  542MOL0     C74673   7.377   1.166   9.235 -0.3943 -0.1602 -0.5058
  542MOL0     C74674   7.314   1.314   9.224  0.3122  0.1715  0.0212
  542MOL0     N74675   7.405   1.414   9.287 -0.2339  0.2944  0.0408
  542MOL0     C74676   7.400   1.451   9.418  0.7605 -0.0361  0.8942
  542MOL0     C74677   7.509   1.527   9.437 -0.0697 -0.1337 -0.1675
  542MOL0     C74678   7.554   1.596   9.566  0.6303  1.0382 -0.4442
  542MOL0     C74679   7.492   1.733   9.580 -0.1922  0.5287 -0.3835
  542MOL0     C74680   7.570   1.817   9.675 -0.5345  0.8851 -1.1131
  542MOL0     C74681   7.524   1.966   9.671  0.0223  0.1754 -0.3612
  542MOL0     O74682   7.620   2.042   9.757  0.5785  0.2129  0.3516
  542MOL0     C74683   7.608   2.177   9.784 -0.0772 -0.4468 -0.2023
  542MOL0     C74684   7.519   2.260   9.714  0.2987  0.5855  0.0051
  542MOL0     C74685   7.504   2.397   9.716 -0.1549 -0.0911 -0.4147
  542MOL0     C74686   7.405   2.462   9.619  0.1504 -1.4788  0.1297
  542MOL0     C74687   7.578   2.464   9.821 -0.9715  0.0744 -0.6688
  542MOL0     C74688   7.557   2.607   9.857 -0.8241 -0.7689  0.3761
  542MOL0     O74689   7.632   2.657   9.956 -0.3160 -1.0879 -0.2031
  542MOL0     C74690   7.624   2.800   9.978 -0.3681  0.0233 -0.0096
  542MOL0     C74691   7.622   2.838  10.121 -0.6827  0.2023 -0.0943
  542MOL0     C74692   7.601   2.973  10.161 -0.1458 -1.0548 -0.1503
  542MOL0     C74693   7.587   3.071  10.066 -0.5024 -0.0615  0.1194
  542MOL0     O74694   7.562   3.195  10.117 -0.5437  0.2911 -0.1768
  542MOL0     C74695   7.555   3.309  10.031 -0.4649 -0.1596 -1.4810
  542MOL0     C74696   7.535   3.439  10.113 -0.6583 -1.1719 -0.9713
  542MOL0     C74697   7.569   3.566  10.035  0.1487  0.2325 -0.0816
  542MOL0     C74698   7.534   3.696  10.118  0.0953 -0.9784 -0.0931
  542MOL0     C74699   7.550   3.810  10.015  0.6032 -0.8551 -0.4064
  542MOL0     C74700   7.578   3.941  10.085 -0.1889 -0.3635  0.0372
  542MOL0     C74701   7.520   3.967  10.228  0.1455  0.3572  0.6395
  542MOL0     C74702   7.367   3.962  10.224 -0.5060  1.0030 -0.0137
  542MOL0    Cl74703   7.288   3.974  10.382  0.0673  0.7812 -0.2548
  542MOL0     C74704   7.597   3.037   9.928 -1.5294 -0.8449 -0.4697
  542MOL0     C74705   7.623   2.905   9.881  0.2533  0.0805  0.3852
  542MOL0     O74706   7.485   2.669   9.788 -0.7932 -0.1023 -0.1179
  542MOL0     C74707   7.673   2.379   9.891  0.3173  0.3673  0.0293
  542MOL0     C74708   7.696   2.248   9.866  0.3535 -0.1975 -0.3195
  542MOL0     N74709   7.577   1.540   9.324  0.2532  0.3429  0.1330
  542MOL0     N74710   7.513   1.479   9.230 -0.1783  0.1089  0.0689
  542MOL0     C74711   7.767   0.470   8.810  0.3628  0.0470  0.1997
  542MOL0     C74712   7.841   0.410   8.715  0.5292  0.6495 -0.2096
  542MOL0     C74713   8.203   0.367   8.427  0.0787  0.1654 -1.0124
  542MOL0     C74714   8.340   0.379   8.432 -0.5658 -0.3964 -0.1122
  542MOL0     C74715   8.425   0.326   8.339 -0.2776 -0.0668  0.2012
  542MOL0     C74716   8.372   0.245   8.242 -0.6326  0.1939  0.1237
  542MOL0     O74717   8.463   0.181   8.158 -0.0709  0.3066 -0.1832
  542MOL0     C74718   8.436   0.043   8.104 -0.7563 -0.7688  0.0124
  542MOL0     C74719   8.561  -0.001   8.025 -0.7283  0.2013  0.2942
  542MOL0     C74720   8.689  -0.033   8.106 -0.0903 -0.8010 -0.3584
  542MOL0     C74721   8.682  -0.174   8.167  0.6401 -0.1583 -0.0913
  542MOL0     C74722   8.812  -0.213   8.223 -0.2576  0.2979  0.6168
  542MOL0     C74723   8.913  -0.262   8.261 -0.0994 -0.5922 -0.1665
  542MOL0     C74724   8.230   0.225   8.234  0.8330 -0.2603 -0.2641
  542MOL0     C74725   8.148   0.282   8.327  0.2918 -0.0060 -0.3298
  542MOL0     C74726   7.998   0.235   8.329 -1.2859 -0.7765 -0.2487
  542MOL0     H74727   8.145   0.533   8.792 -0.2642 -0.1970 -0.0538
  542MOL0     H74728   8.032   0.631   8.979  1.0723 -1.3452 -0.3256
  542MOL0     H74729   7.743   0.495   9.143  1.2802  1.1734  0.1828
  542MOL0     H74730   7.589   0.510   9.044  1.7740 -0.8962 -2.7621
  542MOL0     H74731   7.546   0.606   9.254 -1.4910  0.7148  0.5709
  542MOL0     H74732   7.686   0.710   9.240  0.5217  1.1879 -0.0501
  542MOL0     H74733   7.588   0.821   9.043  3.0593 -1.3333  1.8544
  542MOL0     H74734   7.453   0.714   9.031 -0.3294 -0.2178 -0.3053
  542MOL0     H74735   7.377   0.789   9.270 -0.9674 -0.0633 -0.9513
  542MOL0     H74736   7.507   0.906   9.260  2.4127 -1.3365 -2.6191
  542MOL0     H74737   7.262   0.870   9.080  0.3554 -0.8182  0.9395
  542MOL0     H74738   7.406   0.968   9.028  1.8204 -1.5184  1.1747
  542MOL0     H74739   7.233   1.109   9.085 -1.2681  1.0379  0.5063
  542MOL0     H74740   7.205   1.019   9.238  0.9253 -1.5646 -0.5349
  542MOL0     H74741   7.475   1.167   9.187 -0.2245  2.0749 -0.2266
  542MOL0     H74742   7.391   1.155   9.343  0.7634  1.4723 -0.4548
  542MOL0     H74743   7.290   1.341   9.120 -0.4078 -0.5862 -0.0147
  542MOL0     H74744   7.225   1.320   9.287  0.2287 -0.2839 -0.0543
  542MOL0     H74745   7.318   1.432   9.486  0.4330 -1.9525  0.0094
  542MOL0     H74746   7.661   1.615   9.562  0.8751 -0.1959 -0.1084
  542MOL0     H74747   7.526   1.534   9.652 -1.2156 -0.3056 -1.9125
  542MOL0     H74748   7.488   1.790   9.487 -2.8356  3.4493  1.3400
  542MOL0     H74749   7.386   1.723   9.607  0.4680 -0.5122  2.1152
  542MOL0     H74750   7.570   1.768   9.772  1.5843 -1.8560 -2.3441
  542MOL0     H74751   7.677   1.819   9.649 -0.3156 -0.5197 -0.4159
  542MOL0     H74752   7.530   1.999   9.567 -1.4422  0.0856 -0.5036
  542MOL0     H74753   7.424   1.986   9.711  0.3315  4.2548 -1.1362
  542MOL0     H74754   7.465   2.210   9.634 -0.4572 -1.2468  1.6103
  542MOL0     H74755   7.346   2.385   9.568 -0.9513 -1.5306  1.4092
  542MOL0     H74756   7.452   2.537   9.554 -1.1879  0.2794  1.0732
  542MOL0     H74757   7.333   2.520   9.678  0.8615  0.2184 -0.6049
  542MOL0     H74758   7.638   2.757  10.192 -1.5873  0.7245  0.7198
  542MOL0     H74759   7.591   3.003  10.265  0.1487  0.4934 -0.5504
  542MOL0     H74760   7.654   3.317   9.986 -1.0370 -1.0344 -2.9814
  542MOL0     H74761   7.493   3.297   9.942 -1.3193 -1.5212 -0.7492
  542MOL0     H74762   7.436   3.451  10.157  0.9311 -0.3771  2.6709
  542MOL0     H74763   7.599   3.433  10.201 -1.6405 -0.0818 -0.1616
  542MOL0     H74764   7.507   3.562   9.944 -0.1998 -0.3004  0.1753
  542MOL0     H74765   7.675   3.576  10.011  0.3912  0.1553  0.9087
  542MOL0     H74766   7.599   3.701  10.205  1.9125 -1.3826 -1.3657
  542MOL0     H74767   7.436   3.688  10.166  1.1965  0.3607  2.5901
  542MOL0     H74768   7.620   3.796   9.932  0.1609  1.2984 -1.2239
  542MOL0     H74769   7.460   3.828   9.954  1.9729  0.7909 -2.0745
  542MOL0     H74770   7.538   4.016  10.016 -0.2909  0.9033  1.4304
  542MOL0     H74771   7.686   3.951  10.101 -0.2007 -0.0080 -0.1102
  542MOL0     H74772   7.548   4.068  10.260 -1.9793  0.9745  0.7536
  542MOL0     H74773   7.550   3.893  10.303 -3.2903 -0.0934  1.7842
  542MOL0     H74774   7.334   3.864  10.189 -0.7035 -0.3223  3.5725
  542MOL0     H74775   7.342   4.049  10.162  2.0524 -0.0467 -2.7621
  542MOL0     H74776   7.574   3.116   9.857 -1.8405 -1.3346 -0.9164
  542MOL0     H74777   7.647   2.892   9.776 -2.0360 -0.0036 -0.1766
  542MOL0     H74778   7.722   2.431   9.972 -2.6490  0.7341  1.7462
  542MOL0     H74779   7.763   2.189   9.927 -0.2828 -0.9209 -0.2985
  542MOL0     H74780   7.660   0.467   8.790  0.7584 -0.0760 -2.2632
  542MOL0     H74781   7.784   0.351   8.643  0.9564 -0.7441  0.5510
  542MOL0     H74782   8.394   0.445   8.499  0.0374 -0.6454 -0.3515
  542MOL0     H74783   8.531   0.349   8.349  0.9684 -3.6109 -2.5495
  542MOL0     H74784   8.396  -0.022   8.182 -4.2552 -0.1322 -1.0681
  542MOL0     H74785   8.366   0.048   8.019 -0.5688 -0.9228 -0.1515
  542MOL0     H74786   8.597   0.081   7.963 -0.2301  1.9186  2.7088
  542MOL0     H74787   8.531  -0.091   7.970 -1.1076 -0.3435  1.3587
  542MOL0     H74788   8.777  -0.016   8.044 -1.2946 -2.1809 -2.5681
  542MOL0     H74789   8.687   0.039   8.189 -1.9896 -2.3653  1.0567
  542MOL0     H74790   8.662  -0.246   8.087  0.2505 -0.7594  0.5344
  542MOL0     H74791   8.603  -0.171   8.242  1.2609 -0.9284  0.6155
  542MOL0     H74792   9.013  -0.296   8.280  0.4729  0.5116 -1.1236
  542MOL0     H74793   8.192   0.143   8.174  2.8997 -1.7256  0.3032
  542MOL0     H74794   7.987   0.179   8.235 -0.9788 -1.6833  0.2496
  542MOL0     H74795   7.980   0.165   8.411 -0.3528  3.0299  3.5798
  542MOL0     H74796   7.925   0.317   8.334 -1.7180 -1.0281 -1.8618
  543MOL0     O74797   3.770   1.190   1.542  0.2251  0.2289 -0.5585
  543MOL0     C74798   3.747   1.256   1.438 -0.0671  0.4464 -0.0518
  543MOL0     O74799   3.690   1.377   1.435 -0.3987  0.4901  0.1625
  543MOL0     C74800   3.656   1.434   1.551 -0.2320 -0.0169  0.9079
  543MOL0     C74801   3.735   1.541   1.597  0.4754 -0.5107  0.2747
  543MOL0     C74802   3.710   1.613   1.717  0.0093 -0.7362  0.3405
  543MOL0     C74803   3.594   1.585   1.787  1.5101  0.1044  0.0972
  543MOL0     O74804   3.539   1.666   1.889 -0.2185  0.3245  0.6615
  543MOL0     C74805   3.634   1.716   1.985  0.6702  0.0621  0.2664
  543MOL0     C74806   3.547   1.773   2.087  0.7498 -0.5906  0.2781
  543MOL0     C74807   3.476   1.681   2.187 -1.7276 -0.3488 -0.0015
  543MOL0     C74808   3.402   1.746   2.310  0.5293 -0.5078 -0.9821
  543MOL0     C74809   3.493   1.835   2.394 -0.2864  0.1489  0.3173
  543MOL0     C74810   3.608   1.755   2.460  0.2462  0.9638 -0.6920
  543MOL0     C74811   3.559   1.670   2.571 -0.7505  0.1122 -0.5262
  543MOL0     C74812   3.671   1.616   2.663 -0.1694  0.6983 -0.1016
  543MOL0     N74813   3.707   1.708   2.773 -0.3360  0.0864  0.5671
  543MOL0     C74814   3.729   1.844   2.765 -0.8198  0.3731 -0.4013
  543MOL0     C74815   3.760   1.879   2.892 -0.6445  0.0080 -0.1610
  543MOL0     C74816   3.776   2.019   2.947  0.6744  0.5190 -0.5737
  543MOL0     C74817   3.821   2.020   3.104  0.3789  0.9310  0.4214
  543MOL0     C74818   3.706   2.000   3.198 -0.4761 -0.6846 -0.1595
  543MOL0     C74819   3.770   1.989   3.333  0.2767 -0.8561 -0.0916
  543MOL0     O74820   3.840   2.110   3.374  0.7095 -0.7219  0.2699
  543MOL0     C74821   3.963   2.112   3.443  0.4788  0.2812 -1.0903
  543MOL0     C74822   4.008   2.006   3.514  0.4407 -0.6026  0.3976
  543MOL0     C74823   4.149   2.005   3.556  0.3150  0.5015 -0.7705
  543MOL0     C74824   4.207   1.876   3.604  0.9381 -0.6430 -0.0877
  543MOL0     C74825   4.225   2.117   3.533  0.9756 -0.2234  0.0799
  543MOL0     C74826   4.373   2.124   3.564 -0.6658 -0.7370 -0.4033
  543MOL0     O74827   4.417   2.256   3.587 -0.1881  0.2841 -0.3908
  543MOL0     C74828   4.552   2.272   3.594  0.5612  0.0370 -0.3477
  543MOL0     C74829   4.612   2.356   3.495 -0.2421 -0.2079 -0.1736
  543MOL0     C74830   4.745   2.391   3.503  0.8394  1.0555  0.4135
  543MOL0     C74831   4.827   2.331   3.598  0.4169 -0.1620  0.5143
  543MOL0     O74832   4.962   2.352   3.610 -0.0821 -0.7518 -0.1367
  543MOL0     C74833   5.047   2.354   3.489  0.5980  0.6981 -0.2756
  543MOL0     C74834   5.071   2.216   3.428  1.1043  0.4300  0.1309
  543MOL0     C74835   5.151   2.132   3.524 -0.0577  0.6222 -0.4901
  543MOL0     C74836   5.182   1.992   3.464 -1.4461 -0.1250 -0.6553
  543MOL0     C74837   5.314   1.998   3.382  0.1476 -0.7029  0.3714
  543MOL0     C74838   5.438   2.008   3.458 -1.0176  0.1237 -0.8058
  543MOL0     C74839   5.560   1.950   3.381 -0.1861  0.8094  0.0250
  543MOL0     C74840   5.588   2.035   3.252 -0.2056  0.0472 -0.4809
  543MOL0    Cl74841   5.631   2.205   3.293  0.0454 -0.3227 -0.0093
  543MOL0     C74842   4.764   2.258   3.701  0.5468 -0.7408 -0.4231
  543MOL0     C74843   4.630   2.234   3.697 -0.2592  0.4421 -0.2233
  543MOL0     O74844   4.444   2.022   3.552 -0.2576 -0.5273  0.4251
  543MOL0     C74845   4.166   2.234   3.478  0.0588 -0.5248 -0.3241
  543MOL0     C74846   4.039   2.229   3.430  1.0303 -0.7230 -0.7448
  543MOL0     N74847   3.772   1.761   2.968 -0.4895 -0.6668 -0.4934
  543MOL0     N74848   3.751   1.666   2.896  0.0264  0.2019 -0.4331
  543MOL0     C74849   3.520   1.474   1.743  0.2862 -0.3245  0.3263
  543MOL0     C74850   3.552   1.384   1.636 -0.0047 -0.8866 -0.3987
  543MOL0     C74851   3.799   1.189   1.316 -0.2216  0.0752  0.2894
  543MOL0     C74852   3.703   1.174   1.218 -0.6883 -0.0781  0.1348
  543MOL0     C74853   3.734   1.094   1.105 -1.1616 -1.4257 -0.1508
  543MOL0     C74854   3.862   1.033   1.085  0.1188  0.1102 -1.3879
  543MOL0     O74855   3.875   0.944   0.980  0.1322  0.3698  0.3929
  543MOL0     C74856   3.996   0.866   0.960  0.3110 -0.0685 -0.3729
  543MOL0     C74857   3.972   0.732   1.041 -0.3150  1.0525 -0.1115
  543MOL0     C74858   3.835   0.654   1.008  0.1064 -0.1692  0.2298
  543MOL0     C74859   3.835   0.506   1.049 -0.5581  0.2968 -0.7222
  543MOL0     C74860   3.746   0.421   0.968  0.7814  0.0770  0.4199
  543MOL0     C74861   3.681   0.347   0.893 -0.6672 -0.4296 -0.3241
  543MOL0     C74862   3.959   1.043   1.192 -0.0336  1.2856  0.8389
  543MOL0     C74863   3.925   1.115   1.303  0.0403 -0.5388 -0.2946
  543MOL0     C74864   4.035   1.131   1.401  0.4102 -0.0704  0.0685
  543MOL0     H74865   3.827   1.567   1.547 -0.8770  5.6846  0.2098
  543MOL0     H74866   3.769   1.700   1.744 -1.8545  0.1823  1.7092
  543MOL0     H74867   3.678   1.796   1.925  0.7978 -1.8575 -2.4159
  543MOL0     H74868   3.697   1.634   2.022  0.2213  0.6443  2.4671
  543MOL0     H74869   3.611   1.835   2.149 -0.1922 -0.8486  1.5457
  543MOL0     H74870   3.474   1.842   2.043 -1.0662 -3.1498 -1.0300
  543MOL0     H74871   3.398   1.622   2.137 -3.6271  3.0202 -1.3920
  543MOL0     H74872   3.560   1.623   2.226 -2.0681 -0.7963  0.0683
  543MOL0     H74873   3.322   1.812   2.275 -1.5155 -1.7653  1.1216
  543MOL0     H74874   3.359   1.669   2.374  2.1622  1.0931  2.2563
  543MOL0     H74875   3.439   1.887   2.473  0.2626  0.6085  0.4022
  543MOL0     H74876   3.527   1.918   2.332 -3.4862  0.9073 -0.6113
  543MOL0     H74877   3.667   1.699   2.387 -1.5887  0.7150 -2.0511
  543MOL0     H74878   3.676   1.829   2.504 -1.3079  0.5344  2.7958
  543MOL0     H74879   3.521   1.579   2.523 -0.1326  0.0502 -0.9085
  543MOL0     H74880   3.477   1.718   2.626  0.2846 -1.4899  2.6536
  543MOL0     H74881   3.635   1.522   2.706  1.4583 -0.0773 -0.3620
  543MOL0     H74882   3.756   1.594   2.598 -2.4807 -0.2601 -2.9913
  543MOL0     H74883   3.698   1.907   2.683  2.1664  0.4249 -1.5963
  543MOL0     H74884   3.683   2.074   2.934 -1.7101 -2.7788  1.0780
  543MOL0     H74885   3.862   2.062   2.894  0.0521  1.9282 -0.4642
  543MOL0     H74886   3.891   1.936   3.102  0.5839  1.0940  0.7094
  543MOL0     H74887   3.873   2.111   3.135  2.9954 -0.0362 -0.7767
  543MOL0     H74888   3.633   2.081   3.201 -0.9663 -1.1132 -0.3639
  543MOL0     H74889   3.645   1.910   3.184 -1.4548 -0.0595 -0.0104
  543MOL0     H74890   3.697   1.970   3.412  1.4342  2.0667  1.8600
  543MOL0     H74891   3.837   1.903   3.323  0.1355 -0.7120 -2.9146
  543MOL0     H74892   3.952   1.914   3.522 -1.6389  0.4119 -1.3055
  543MOL0     H74893   4.125   1.816   3.645  0.1460  0.4978  0.0250
  543MOL0     H74894   4.268   1.890   3.694  4.0201 -1.9622 -1.7896
  543MOL0     H74895   4.266   1.822   3.529  1.9346  1.5980 -1.0170
  543MOL0     H74896   4.542   2.395   3.423 -1.4648 -2.0507 -0.0543
  543MOL0     H74897   4.796   2.458   3.434  0.5410  0.5932 -0.2715
  543MOL0     H74898   5.010   2.417   3.407  2.6895  0.4459 -1.4922
  543MOL0     H74899   5.139   2.402   3.526  0.8729 -1.6660  2.4018
  543MOL0     H74900   4.979   2.158   3.415  0.1090  1.3299  2.6619
  543MOL0     H74901   5.123   2.223   3.332  0.1184  1.2976 -0.3687
  543MOL0     H74902   5.087   2.126   3.612 -0.2535  0.6574 -0.6288
  543MOL0     H74903   5.244   2.179   3.556  0.3586  1.2298 -2.4614
  543MOL0     H74904   5.110   1.953   3.392 -0.0036 -1.1533 -1.5883
  543MOL0     H74905   5.195   1.912   3.537  2.2883  0.7552 -0.1871
  543MOL0     H74906   5.327   1.901   3.333  0.8872 -0.5272  0.2089
  543MOL0     H74907   5.307   2.081   3.310  1.4424  1.0199  2.1201
  543MOL0     H74908   5.442   1.948   3.549  3.6226 -1.1035 -1.5718
  543MOL0     H74909   5.464   2.112   3.480 -0.5566  0.5831 -3.1939
  543MOL0     H74910   5.536   1.845   3.360 -1.3262  0.5134  2.4949
  543MOL0     H74911   5.649   1.954   3.445 -1.1922 -0.7912  1.6137
  543MOL0     H74912   5.510   2.035   3.175  0.4356  3.4471 -1.2831
  543MOL0     H74913   5.677   1.992   3.205  1.2797  0.9852  1.3263
  543MOL0     H74914   4.827   2.204   3.771 -0.8586 -0.4003  1.1709
  543MOL0     H74915   4.585   2.182   3.781 -1.7428  1.6016 -0.2583
  543MOL0     H74916   4.219   2.328   3.468 -1.6402  0.6601  1.0709
  543MOL0     H74917   3.994   2.318   3.388 -3.6580 -0.6601  3.5061
  543MOL0     H74918   3.432   1.455   1.803 -1.7893  1.8233 -1.7975
  543MOL0     H74919   3.491   1.296   1.616  0.8563 -2.4498  3.1046
  543MOL0     H74920   3.606   1.221   1.225 -1.8628 -2.0352 -1.6306
  543MOL0     H74921   3.660   1.094   1.024 -0.8575  0.5228 -0.4758
  543MOL0     H74922   3.989   0.827   0.857 -0.8526  0.9507 -0.7097
  543MOL0     H74923   4.091   0.914   0.984  0.4638 -0.5323 -0.0447
  543MOL0     H74924   3.975   0.746   1.150  4.3307  2.8536 -0.2379
  543MOL0     H74925   4.063   0.674   1.018  0.7672  1.7285  2.1514
  543MOL0     H74926   3.752   0.708   1.055  2.3650  3.6757  0.2033
  543MOL0     H74927   3.825   0.660   0.899 -2.0406 -0.9459  0.3265
  543MOL0     H74928   3.801   0.501   1.153  3.2585  1.9698  0.7793
  543MOL0     H74929   3.930   0.453   1.043 -0.1470  0.9751 -0.2013
  543MOL0     H74930   3.604   0.288   0.848 -2.0304  2.9155 -2.8211
  543MOL0     H74931   4.048   0.983   1.180  0.0736  1.7981 -1.3952
  543MOL0     H74932   4.134   1.099   1.367  0.8608  0.3303  0.9673
  543MOL0     H74933   4.040   1.240   1.414 -1.5950  0.0341  0.2610
  543MOL0     H74934   4.008   1.092   1.500 -3.0153  3.0409  0.5907
  544MOL0     O74935   0.784   5.603   8.328  0.1280  0.1362  0.4752
  544MOL0     C74936   0.820   5.702   8.387 -0.0618 -0.5595  1.0096
  544MOL0     O74937   0.753   5.821   8.375 -0.7547  0.3734 -0.4942
  544MOL0     C74938   0.636   5.834   8.296  0.4054 -0.6895  0.1458
  544MOL0     C74939   0.637   5.917   8.180 -0.4653  0.6452 -0.3374
  544MOL0     C74940   0.528   5.923   8.100 -0.5338  0.4580  0.1285
  544MOL0     C74941   0.411   5.856   8.130  0.3664  0.8620 -0.6045
  544MOL0     O74942   0.309   5.860   8.042 -0.2191  0.0139  0.7476
  544MOL0     C74943   0.171   5.866   8.098 -0.8223 -0.5980  0.6467
  544MOL0     C74944   0.072   5.857   7.988  0.2396  0.1007  0.3556
  544MOL0     C74945  -0.068   5.839   8.047  0.1679  0.8184  0.3945
  544MOL0     C74946  -0.088   5.695   8.089  0.3163 -0.2648  0.8544
  544MOL0     C74947  -0.221   5.695   8.180 -0.0790 -0.6123  0.1461
  544MOL0     C74948  -0.268   5.553   8.205 -0.1889  0.1833  0.9490
  544MOL0     C74949  -0.407   5.576   8.277  0.3562  0.1620 -0.4210
  544MOL0     C74950  -0.480   5.445   8.301  0.0805  0.4241 -0.5427
  544MOL0     N74951  -0.410   5.355   8.395  0.5518 -0.6282 -0.1219
  544MOL0     C74952  -0.377   5.391   8.525  0.1089  0.1141  0.6376
  544MOL0     C74953  -0.293   5.289   8.570 -0.4298  1.1694  0.2481
  544MOL0     C74954  -0.215   5.285   8.698  0.1185 -0.1885 -0.5797
  544MOL0     C74955  -0.133   5.416   8.706 -0.7560  0.1488  0.8741
  544MOL0     C74956  -0.070   5.420   8.847  0.0180  0.6101  0.0690
  544MOL0     C74957   0.048   5.524   8.868  0.3281  1.3010  0.5051
  544MOL0     O74958   0.094   5.506   9.007  0.9515 -0.5315 -0.9277
  544MOL0     C74959   0.062   5.611   9.089  0.3959 -0.0020  0.6865
  544MOL0     C74960   0.146   5.635   9.190 -0.8977  0.2097  0.4761
  544MOL0     C74961   0.126   5.725   9.298  0.2010  0.1644  0.2661
  544MOL0     C74962   0.249   5.754   9.377 -0.1654  0.2880  0.3924
  544MOL0     C74963  -0.002   5.791   9.305  0.4164 -0.2526 -0.4781
  544MOL0     C74964  -0.044   5.888   9.410  0.2374  0.0312  0.0621
  544MOL0     O74965   0.023   5.900   9.529 -0.1322 -0.0185  0.1250
  544MOL0     C74966  -0.016   5.986   9.630  0.1992  0.6559 -0.9954
  544MOL0     C74967  -0.152   6.032   9.648 -0.4619 -0.1502  0.6501
  544MOL0     C74968  -0.182   6.102   9.766  0.8106  0.2500 -0.3100
  544MOL0     C74969  -0.085   6.154   9.855 -0.4292  0.0686  0.1555
  544MOL0     O74970  -0.125   6.242   9.959  0.0528 -1.3394  0.1011
  544MOL0     C74971  -0.022   6.288  10.053  0.6322  0.5962 -0.2567
  544MOL0     C74972  -0.074   6.422  10.125  0.2840 -1.0094  0.2437
  544MOL0     C74973  -0.220   6.420  10.161  0.6390  1.1906 -0.1114
  544MOL0     C74974  -0.256   6.531  10.252 -0.7866  0.4812  0.9446
  544MOL0     C74975  -0.408   6.526  10.280 -0.0504 -0.1559 -0.4022
  544MOL0     C74976  -0.447   6.410  10.377 -0.0147 -0.7070 -0.3248
  544MOL0     C74977  -0.581   6.432  10.427  0.1100  0.6277  0.4027
  544MOL0     C74978  -0.619   6.304  10.516  0.0554 -0.6062 -0.1449
  544MOL0    Cl74979  -0.576   6.332  10.696  0.0420 -0.2186  0.0189
  544MOL0     C74980   0.039   6.102   9.836 -0.3134 -0.6638 -0.6700
  544MOL0     C74981   0.075   6.025   9.727  0.0963  0.2443  0.5291
  544MOL0     O74982  -0.125   5.977   9.372 -0.2836  0.2981 -0.2085
  544MOL0     C74983  -0.091   5.766   9.197  0.4002 -0.0302 -0.4792
  544MOL0     C74984  -0.061   5.680   9.094  0.3831  0.0984  0.2935
  544MOL0     N74985  -0.294   5.187   8.472 -0.4552  0.7647 -0.2901
  544MOL0     N74986  -0.365   5.227   8.374  1.6085  0.7738 -0.3439
  544MOL0     C74987   0.411   5.776   8.239 -0.3094 -0.1898  0.0459
  544MOL0     C74988   0.518   5.768   8.325  0.5973 -0.0954 -0.3555
  544MOL0     C74989   0.949   5.704   8.452  0.4679  0.5988  0.3087
  544MOL0     C74990   0.999   5.828   8.498  0.0638  0.1219 -0.4598
  544MOL0     C74991   1.123   5.839   8.558 -0.1114 -0.7537 -0.3318
  544MOL0     C74992   1.212   5.740   8.568  0.0615 -0.4196  0.2730
  544MOL0     O74993   1.335   5.769   8.612  0.1048 -0.1121 -0.0157
  544MOL0     C74994   1.403   5.673   8.695 -1.2128 -0.2216 -0.4913
  544MOL0     C74995   1.501   5.594   8.612  0.1793 -0.0217  0.8048
  544MOL0     C74996   1.539   5.455   8.672 -0.1917  0.2439 -0.1261
  544MOL0     C74997   1.691   5.415   8.674  0.3772 -0.0622 -0.1325
  544MOL0     C74998   1.764   5.482   8.780  0.0309  0.0845 -0.4402
  544MOL0     C74999   1.835   5.526   8.868  0.2028  0.9311  0.8143
  544MOL0     C75000   1.167   5.616   8.524 -0.0743  0.2198 -0.2363
  544MOL0     C75001   1.035   5.596   8.472  0.1835 -1.1345  0.4061
  544MOL0     C75002   1.003   5.462   8.413 -0.4244 -0.3793  0.3732
  544MOL0     H75003   0.727   5.953   8.131  0.0855 -1.5181 -0.9961
  544MOL0     H75004   0.525   5.976   8.005  1.8526  0.5894  0.0764
  544MOL0     H75005   0.155   5.966   8.138  1.5256  0.1181 -0.0505
  544MOL0     H75006   0.168   5.784   8.171  0.8470 -0.6311  0.7109
  544MOL0     H75007   0.063   5.948   7.928 -0.1110  1.2826  2.1000
  544MOL0     H75008   0.103   5.772   7.927  0.9357  1.6426 -1.5583
  544MOL0     H75009  -0.079   5.903   8.136 -1.3925  1.7365 -0.4309
  544MOL0     H75010  -0.139   5.860   7.967 -0.6872 -0.3563  0.8131
  544MOL0     H75011  -0.110   5.634   8.000  0.6971  3.3543 -1.9725
  544MOL0     H75012  -0.011   5.643   8.146  2.0238 -1.2499 -2.1062
  544MOL0     H75013  -0.298   5.762   8.142  0.4671 -1.2642 -2.3383
  544MOL0     H75014  -0.194   5.737   8.278  0.9629  0.3589 -0.5262
  544MOL0     H75015  -0.284   5.501   8.110 -1.8388  0.4193  1.0762
  544MOL0     H75016  -0.194   5.489   8.255  0.5592 -0.7276 -1.1758
  544MOL0     H75017  -0.470   5.630   8.206  0.0186 -0.1999 -0.3949
  544MOL0     H75018  -0.394   5.630   8.372  2.4732 -2.1148  0.6886
  544MOL0     H75019  -0.575   5.465   8.352  1.3750  1.7172  1.5381
  544MOL0     H75020  -0.491   5.377   8.216 -0.2621  0.6503 -0.6795
  544MOL0     H75021  -0.406   5.474   8.589 -0.7433 -0.9596  1.6718
  544MOL0     H75022  -0.160   5.191   8.698 -0.7856 -0.7319 -0.9284
  544MOL0     H75023  -0.283   5.272   8.783  0.3066  0.7808 -0.2628
  544MOL0     H75024  -0.051   5.404   8.635 -1.8473 -0.5052 -0.3101
  544MOL0     H75025  -0.185   5.507   8.676  2.7798  2.0190 -0.1142
  544MOL0     H75026  -0.147   5.440   8.922  1.1669  0.6588  1.2758
  544MOL0     H75027  -0.027   5.323   8.875 -2.4277 -0.9029 -1.1441
  544MOL0     H75028   0.129   5.502   8.798  1.0787  0.9321  1.4657
  544MOL0     H75029   0.020   5.625   8.837  1.5090  0.6172 -3.3919
  544MOL0     H75030   0.243   5.587   9.184 -0.3315  1.3044  0.6359
  544MOL0     H75031   0.284   5.856   9.361 -0.9263  0.2595 -1.8996
  544MOL0     H75032   0.325   5.684   9.341 -1.0624  0.1663 -1.3742
  544MOL0     H75033   0.231   5.741   9.484  1.4768 -0.6425  0.5902
  544MOL0     H75034  -0.234   6.002   9.584  2.1437 -0.3296 -2.8650
  544MOL0     H75035  -0.286   6.131   9.775  0.1281 -1.5068 -1.8622
  544MOL0     H75036  -0.007   6.212  10.131 -1.2673 -2.2217 -2.4327
  544MOL0     H75037   0.072   6.304   9.998  1.9332 -2.2122  0.9519
  544MOL0     H75038  -0.013   6.440  10.214 -1.3112 -0.3860  1.2484
  544MOL0     H75039  -0.064   6.509  10.061 -3.2643 -1.1893 -0.7622
  544MOL0     H75040  -0.246   6.323  10.204  1.9239  0.5418 -0.7412
  544MOL0     H75041  -0.269   6.432  10.064  0.6059 -0.2789 -0.3013
  544MOL0     H75042  -0.224   6.623  10.204  0.9060 -0.7658 -0.4402
  544MOL0     H75043  -0.199   6.530  10.346  3.1620 -0.2228 -1.2096
  544MOL0     H75044  -0.428   6.623  10.326  0.4165 -0.4345  0.4294
  544MOL0     H75045  -0.475   6.535  10.194  0.0809 -0.0081 -0.4894
  544MOL0     H75046  -0.371   6.391  10.453  0.8114 -0.4332 -1.0762
  544MOL0     H75047  -0.440   6.312  10.328  1.8460 -2.1980  2.6052
  544MOL0     H75048  -0.642   6.438  10.337 -0.1962  1.7658  0.6713
  544MOL0     H75049  -0.577   6.525  10.484 -0.7836  1.9492 -1.5910
  544MOL0     H75050  -0.560   6.218  10.482  4.1891  0.1008  4.1750
  544MOL0     H75051  -0.726   6.284  10.509 -0.4446  1.9081 -0.8805
  544MOL0     H75052   0.112   6.136   9.908 -2.3046  4.0577 -0.5209
  544MOL0     H75053   0.177   5.988   9.728  0.3174  0.8440  1.5860
  544MOL0     H75054  -0.192   5.807   9.198  0.1445 -0.6598  0.2609
  544MOL0     H75055  -0.139   5.653   9.023  0.0020  0.5610  0.5364
  544MOL0     H75056   0.331   5.705   8.255  0.4610 -0.3796  4.0479
  544MOL0     H75057   0.531   5.688   8.396 -0.0085 -1.0566 -1.2918
  544MOL0     H75058   0.925   5.907   8.489 -2.8407 -2.4650 -1.0632
  544MOL0     H75059   1.164   5.933   8.595 -2.2633 -0.4833  1.6113
  544MOL0     H75060   1.455   5.728   8.774 -0.6654  2.8370 -2.8027
  544MOL0     H75061   1.337   5.607   8.752 -0.1904  0.3433  1.4652
  544MOL0     H75062   1.593   5.650   8.591 -0.2301  0.7611  1.0715
  544MOL0     H75063   1.463   5.576   8.511  0.1789 -2.5229  1.1725
  544MOL0     H75064   1.495   5.451   8.772  0.2747  0.8571  0.1035
  544MOL0     H75065   1.490   5.384   8.604  3.8616 -0.9746 -2.1042
  544MOL0     H75066   1.746   5.450   8.586 -1.0598 -1.7545 -1.7871
  544MOL0     H75067   1.706   5.308   8.690  1.4187 -0.0127 -0.6801
  544MOL0     H75068   1.893   5.573   8.945 -0.0057  1.4264  0.6730
  544MOL0     H75069   1.224   5.526   8.547 -1.3667  0.3422  4.3139
  544MOL0     H75070   1.079   5.386   8.435 -1.5241 -2.0354 -1.2630
  544MOL0     H75071   0.906   5.429   8.451  0.1262 -0.5974  1.6427
  544MOL0     H75072   1.000   5.458   8.304 -1.7123  1.4644  0.2898
  545MOL0     O75073   4.097   2.602   3.503  0.1697  0.2729 -0.2800
  545MOL0     C75074   4.098   2.698   3.432 -0.8309 -0.5450 -0.4841
  545MOL0     O75075   4.125   2.699   3.298 -0.1757  0.2807  0.3707
  545MOL0     C75076   4.165   2.576   3.248 -0.5728 -0.7601 -1.0301
  545MOL0     C75077   4.298   2.546   3.247 -0.2434  0.2042 -0.1566
  545MOL0     C75078   4.337   2.419   3.202 -0.1574  0.4155 -0.5469
  545MOL0     C75079   4.243   2.334   3.144  0.1688  0.1477 -0.0942
  545MOL0     O75080   4.285   2.211   3.097 -0.7983  0.2171 -0.1616
  545MOL0     C75081   4.368   2.124   3.178  0.3582 -0.0559  0.8155
  545MOL0     C75082   4.296   1.985   3.189 -0.0818  0.1085  0.0882
  545MOL0     C75083   4.266   1.937   3.046  0.9660 -0.0865 -0.3872
  545MOL0     C75084   4.189   1.805   3.041 -0.6915  0.4582 -0.4195
  545MOL0     C75085   4.185   1.734   2.905  0.0277  0.5482  1.1199
  545MOL0     C75086   4.124   1.596   2.935  0.8162 -0.8487 -0.5326
  545MOL0     C75087   4.119   1.524   2.800  0.3284  0.7689 -0.0842
  545MOL0     C75088   4.036   1.400   2.817  0.3985  0.6952 -0.6689
  545MOL0     N75089   4.098   1.317   2.921 -0.3509  0.2579  0.2104
  545MOL0     C75090   4.060   1.306   3.050  0.9988 -0.7728 -0.0756
  545MOL0     C75091   4.139   1.208   3.110 -0.7156  0.3920 -0.1493
  545MOL0     C75092   4.117   1.167   3.250  0.4400 -0.1709 -0.1740
  545MOL0     C75093   4.170   1.285   3.331  1.0227  0.1687 -0.7598
  545MOL0     C75094   4.322   1.259   3.369  0.3374 -0.1587  0.7962
  545MOL0     C75095   4.416   1.266   3.250  0.5537  0.4347  0.2949
  545MOL0     O75096   4.549   1.292   3.293  0.0178 -0.5445  0.4649
  545MOL0     C75097   4.626   1.190   3.352  0.2383 -0.0990 -0.5679
  545MOL0     C75098   4.584   1.064   3.378  0.5710 -0.0376  0.4533
  545MOL0     C75099   4.670   0.972   3.432 -0.2944 -0.1664 -0.6038
  545MOL0     C75100   4.626   0.828   3.435  0.1310  0.3947 -0.1424
  545MOL0     C75101   4.805   1.006   3.461  0.4020  0.3227  0.0503
  545MOL0     C75102   4.919   0.923   3.516  0.4949 -0.4271  0.8238
  545MOL0     O75103   5.031   0.991   3.561  0.2670  0.7177 -0.5422
  545MOL0     C75104   5.136   0.917   3.598  0.9278 -0.3479  0.9047
  545MOL0     C75105   5.160   0.899   3.733  0.2452 -0.1693  0.0308
  545MOL0     C75106   5.276   0.843   3.779 -0.0843 -0.2212  0.4437
  545MOL0     C75107   5.371   0.805   3.686  0.5224  0.4805  0.4339
  545MOL0     O75108   5.498   0.765   3.719 -0.4859  0.5192  0.9561
  545MOL0     C75109   5.576   0.825   3.828  0.0329  0.1203  0.7467
  545MOL0     C75110   5.654   0.948   3.766  0.6489  0.1462  0.2252
  545MOL0     C75111   5.753   0.911   3.646 -0.0356  0.3967 -0.2912
  545MOL0     C75112   5.809   1.038   3.567  0.1167  0.2661 -1.0230
  545MOL0     C75113   5.896   0.983   3.445  0.4184  0.1139 -0.5202
  545MOL0     C75114   6.009   0.886   3.477  0.5717 -0.4785  0.1027
  545MOL0     C75115   6.135   0.955   3.546  0.6716 -0.0805 -0.1172
  545MOL0     C75116   6.223   0.862   3.631 -0.4333 -0.1316  0.3352
  545MOL0    Cl75117   6.126   0.843   3.784  0.2142 -0.5950 -0.2822
  545MOL0     C75118   5.340   0.803   3.537  0.4307 -0.0811  0.3299
  545MOL0     C75119   5.224   0.874   3.504 -0.8627  0.4773  0.7850
  545MOL0     O75120   4.904   0.803   3.512  0.1039 -0.0686  0.1311
  545MOL0     C75121   4.847   1.139   3.436 -0.2585 -0.5322  0.3191
  545MOL0     C75122   4.758   1.236   3.388  0.1563 -0.1406  0.3903
  545MOL0     N75123   4.231   1.168   3.020 -0.0902  0.3133  0.1196
  545MOL0     N75124   4.214   1.243   2.909  0.6735  0.2272 -0.7061
  545MOL0     C75125   4.112   2.367   3.148  0.3698  0.3416  0.2711
  545MOL0     C75126   4.071   2.492   3.205  0.2026 -0.1263 -0.4442
  545MOL0     C75127   4.064   2.821   3.498 -0.5004 -0.0429 -0.2937
  545MOL0     C75128   3.962   2.817   3.595 -0.3253 -0.4789 -0.1542
  545MOL0     C75129   3.916   2.938   3.646  0.5338  0.3044 -0.8225
  545MOL0     C75130   3.976   3.062   3.622  0.4316 -0.2400  0.5603
  545MOL0     O75131   3.914   3.171   3.684  0.6435  0.2889 -0.6135
  545MOL0     C75132   3.974   3.305   3.670 -0.6359  1.2153 -0.6266
  545MOL0     C75133   4.093   3.318   3.770 -0.4262 -1.0424 -0.9943
  545MOL0     C75134   4.191   3.432   3.743 -0.2308  0.2118  0.3750
  545MOL0     C75135   4.127   3.568   3.777 -0.8594  0.0299 -0.3027
  545MOL0     C75136   4.213   3.685   3.737  0.5488  0.2838  1.0311
  545MOL0     C75137   4.274   3.778   3.692  1.2422 -0.3128  0.3440
  545MOL0     C75138   4.076   3.065   3.525 -0.4867  0.5539 -0.3142
  545MOL0     C75139   4.119   2.949   3.467 -0.8363  0.6476 -0.6795
  545MOL0     C75140   4.225   2.962   3.365  0.1270 -0.5160 -0.1935
  545MOL0     H75141   4.370   2.618   3.286 -1.0690  0.2117  1.4286
  545MOL0     H75142   4.442   2.393   3.196 -0.7049 -2.3892  0.4836
  545MOL0     H75143   4.370   2.159   3.282  1.1802  2.2717  0.0895
  545MOL0     H75144   4.471   2.113   3.145  0.7286  3.5627  0.3577
  545MOL0     H75145   4.373   1.922   3.234  0.5246 -3.0452 -4.6140
  545MOL0     H75146   4.207   1.998   3.251 -1.6807  1.3042 -2.2822
  545MOL0     H75147   4.184   2.000   3.011  0.3881  0.6248  2.0349
  545MOL0     H75148   4.349   1.926   2.976  0.7650  0.7962 -0.7747
  545MOL0     H75149   4.230   1.744   3.122 -3.3533 -0.8713  0.0196
  545MOL0     H75150   4.084   1.829   3.061 -1.1831 -1.3934 -0.5768
  545MOL0     H75151   4.286   1.714   2.866  0.8851  0.8409  3.0782
  545MOL0     H75152   4.130   1.784   2.825  0.2460 -1.2451 -0.2298
  545MOL0     H75153   4.193   1.544   3.003  2.7716 -1.1006 -2.5886
  545MOL0     H75154   4.023   1.606   2.974  1.3679  3.0979  0.3821
  545MOL0     H75155   4.215   1.507   2.751 -1.3693 -2.5666 -2.7019
  545MOL0     H75156   4.068   1.604   2.744 -2.1138  0.6059  1.7551
  545MOL0     H75157   3.938   1.430   2.853  1.5475  1.7796  1.7627
  545MOL0     H75158   4.018   1.339   2.728 -0.9456 -0.3380  0.2767
  545MOL0     H75159   3.982   1.362   3.100  1.4984 -0.9546  0.9316
  545MOL0     H75160   4.159   1.069   3.271 -1.3053 -0.6969  1.1623
  545MOL0     H75161   4.010   1.160   3.272  0.8549  1.4335  2.8786
  545MOL0     H75162   4.152   1.387   3.297 -1.4467 -0.7795 -2.6309
  545MOL0     H75163   4.107   1.277   3.421 -2.0050 -0.4330 -2.7806
  545MOL0     H75164   4.352   1.329   3.447 -1.8997  0.2606  1.3654
  545MOL0     H75165   4.311   1.164   3.422 -4.3527 -0.6531 -0.5550
  545MOL0     H75166   4.429   1.173   3.193  1.3392  0.7944 -0.1352
  545MOL0     H75167   4.373   1.334   3.176  0.9491  1.9982  1.4426
  545MOL0     H75168   4.482   1.036   3.350  1.7052 -1.6081 -2.6453
  545MOL0     H75169   4.654   0.768   3.348  2.1972  0.9033  0.1204
  545MOL0     H75170   4.517   0.826   3.437  0.1481 -1.5193  0.7985
  545MOL0     H75171   4.657   0.778   3.528  2.7575  2.4232  0.1939
  545MOL0     H75172   5.082   0.936   3.798 -0.5555 -0.0933 -0.9428
  545MOL0     H75173   5.284   0.829   3.886  0.3079 -0.9712  0.3235
  545MOL0     H75174   5.507   0.851   3.908 -0.0556 -1.4048  1.1796
  545MOL0     H75175   5.652   0.763   3.876 -0.8652 -0.7674  1.0467
  545MOL0     H75176   5.582   1.022   3.730  3.0645  3.3582  1.5229
  545MOL0     H75177   5.708   1.012   3.837 -1.4729  1.6407  0.5790
  545MOL0     H75178   5.702   0.842   3.579 -0.0676  0.4706 -0.3440
  545MOL0     H75179   5.832   0.862   3.702 -0.3354  0.1420 -0.0903
  545MOL0     H75180   5.858   1.103   3.640  0.3881 -1.2648  0.2076
  545MOL0     H75181   5.727   1.094   3.520 -0.3567 -0.1547 -0.7094
  545MOL0     H75182   5.837   0.937   3.365  0.8631 -0.4685 -0.5223
  545MOL0     H75183   5.941   1.073   3.401 -0.7530  1.7488  1.4089
  545MOL0     H75184   6.042   0.862   3.376  2.2751 -1.0426  0.7572
  545MOL0     H75185   5.974   0.797   3.530  0.3961 -0.6335 -0.2714
  545MOL0     H75186   6.096   1.031   3.613  1.4251 -1.4358  1.9598
  545MOL0     H75187   6.201   1.002   3.472  2.5660 -3.4684 -0.8117
  545MOL0     H75188   6.316   0.911   3.662 -0.2640 -0.2306 -0.0142
  545MOL0     H75189   6.261   0.771   3.584  0.7518  0.5180  0.0179
  545MOL0     H75190   5.413   0.778   3.460 -0.0204 -1.6443  0.3808
  545MOL0     H75191   5.215   0.910   3.402 -1.1669  0.0699  0.6644
  545MOL0     H75192   4.951   1.168   3.440 -1.0129  2.5516  0.8947
  545MOL0     H75193   4.776   1.340   3.366 -1.9467  0.7502  2.3802
  545MOL0     H75194   4.041   2.293   3.112  1.8973 -1.2999  0.4945
  545MOL0     H75195   3.972   2.536   3.210 -0.0134 -0.5071 -1.2810
  545MOL0     H75196   3.908   2.731   3.634 -1.4928  0.2553 -0.0761
  545MOL0     H75197   3.838   2.934   3.722 -0.0217  0.5629 -1.3726
  545MOL0     H75198   4.006   3.319   3.566  2.3580  0.6902  0.1237
  545MOL0     H75199   3.893   3.369   3.707 -2.9827 -0.7177 -2.1163
  545MOL0     H75200   4.146   3.222   3.767  1.4929 -0.2549  2.4741
  545MOL0     H75201   4.065   3.319   3.875  2.9924 -1.7238  0.0518
  545MOL0     H75202   4.279   3.410   3.804 -1.1377 -0.8413  1.3398
  545MOL0     H75203   4.229   3.439   3.640  1.5865  1.9318  1.1176
  545MOL0     H75204   4.102   3.585   3.882 -1.4200 -1.9089 -0.0860
  545MOL0     H75205   4.033   3.570   3.721 -1.0427  0.0425  0.0044
  545MOL0     H75206   4.323   3.868   3.661 -1.5688  1.3187  0.2751
  545MOL0     H75207   4.122   3.157   3.489  0.4213 -0.9438 -3.2993
  545MOL0     H75208   4.293   2.877   3.358  2.7697  1.5678 -2.2752
  545MOL0     H75209   4.182   2.989   3.268 -2.6956 -1.5012  0.7010
  545MOL0     H75210   4.298   3.037   3.399 -1.0018  0.2956  0.5122
  546MOL0     O75211   7.988   2.959   9.349 -0.1514  0.3359 -0.3368
  546MOL0     C75212   7.891   2.893   9.304 -0.1030  0.7702  0.3158
  546MOL0     O75213   7.911   2.787   9.215  0.1055 -0.2868  0.1455
  546MOL0     C75214   8.036   2.734   9.179  0.0089 -0.3271 -0.1831
  546MOL0     C75215   8.132   2.697   9.269 -0.3374  0.3796  0.0516
  546MOL0     C75216   8.252   2.645   9.217  0.0273 -0.5946 -0.4331
  546MOL0     C75217   8.271   2.613   9.088 -0.8020 -0.2339 -0.2175
  546MOL0     O75218   8.381   2.534   9.060 -0.0800  0.2346  0.0506
  546MOL0     C75219   8.450   2.552   8.937 -0.1937 -0.2612 -0.2969
  546MOL0     C75220   8.519   2.429   8.882 -0.0229 -0.8712 -0.1980
  546MOL0     C75221   8.422   2.313   8.855  0.1886  0.2961 -0.2861
  546MOL0     C75222   8.509   2.189   8.831  0.4087 -0.1015  0.1207
  546MOL0     C75223   8.434   2.084   8.757  0.7222 -0.1630 -0.0563
  546MOL0     C75224   8.304   2.033   8.829 -0.8466 -0.5389 -0.4396
  546MOL0     C75225   8.244   1.932   8.744  0.1606 -0.1978 -0.0406
  546MOL0     C75226   8.145   1.841   8.815 -0.2541 -0.6877  0.3559
  546MOL0     N75227   8.207   1.719   8.874  0.5424  0.7775 -0.0148
  546MOL0     C75228   8.218   1.690   9.007  0.0385  0.4257 -0.0488
  546MOL0     C75229   8.265   1.558   9.002 -0.9308  0.2616 -0.9060
  546MOL0     C75230   8.292   1.461   9.112  1.1245  0.2502  1.2228
  546MOL0     C75231   8.412   1.362   9.061 -0.0948 -0.1822  0.1742
  546MOL0     C75232   8.456   1.271   9.178  0.3243  0.2347 -1.3702
  546MOL0     C75233   8.342   1.180   9.232 -0.1471  0.0650 -0.9117
  546MOL0     O75234   8.411   1.069   9.280  0.6754  0.6254  0.2914
  546MOL0     C75235   8.427   0.967   9.191  0.5694  0.8151 -0.7380
  546MOL0     C75236   8.430   0.841   9.255 -0.0663 -0.3178  0.0367
  546MOL0     C75237   8.449   0.725   9.182 -0.8273  0.7189 -1.3347
  546MOL0     C75238   8.441   0.590   9.260  0.1439 -0.1315 -0.4019
  546MOL0     C75239   8.467   0.735   9.039  0.6540 -0.2695 -0.1786
  546MOL0     C75240   8.493   0.610   8.956 -0.0640  0.4209 -1.2933
  546MOL0     O75241   8.433   0.601   8.836  0.3053  0.4812  0.0597
  546MOL0     C75242   8.480   0.500   8.751 -0.6727  0.1549 -1.0954
  546MOL0     C75243   8.442   0.366   8.761  0.0431  0.4109  0.4421
  546MOL0     C75244   8.499   0.266   8.680 -0.5345  0.2424  0.1954
  546MOL0     C75245   8.621   0.283   8.616  0.4537 -0.5170 -0.2082
  546MOL0     O75246   8.692   0.172   8.576  0.6600  0.4907  0.4940
  546MOL0     C75247   8.806   0.183   8.485  0.5105 -0.2194 -0.0087
  546MOL0     C75248   8.891   0.058   8.489  0.3835  0.3841 -0.3503
  546MOL0     C75249   8.927   0.028   8.636 -0.5834  0.4605  0.0876
  546MOL0     C75250   9.065   0.091   8.670  0.2304  0.0528 -0.1346
  546MOL0     C75251   9.107   0.048   8.810  0.1511 -0.4559  0.3655
  546MOL0     C75252   9.177   0.173   8.878 -0.7147 -0.4823  1.2148
  546MOL0     C75253   9.202   0.147   9.037 -0.5517  0.0858 -0.2710
  546MOL0     C75254   9.325   0.060   9.048  0.1842 -0.1643  0.2955
  546MOL0    Cl75255   9.365   0.017   9.223  0.2750  0.4206  0.3867
  546MOL0     C75256   8.664   0.420   8.615 -0.7193 -0.1672  0.1174
  546MOL0     C75257   8.598   0.532   8.679 -0.3803  0.5928  0.4539
  546MOL0     O75258   8.574   0.522   9.002  0.4123  0.0849 -0.1050
  546MOL0     C75259   8.443   0.858   8.975 -0.3367  0.2868 -0.0589
  546MOL0     C75260   8.427   0.971   9.052 -0.6054 -0.0945  0.0006
  546MOL0     N75261   8.289   1.514   8.873  0.6074 -0.2567 -1.2096
  546MOL0     N75262   8.251   1.609   8.791  0.2254  0.2554 -0.1109
  546MOL0     C75263   8.166   2.640   8.998 -0.2207  0.9684  0.4157
  546MOL0     C75264   8.049   2.701   9.042  0.0944 -0.4364  0.2365
  546MOL0     C75265   7.751   2.913   9.343  0.1465  0.6668 -0.3072
  546MOL0     C75266   7.644   2.843   9.270  0.9632  0.4130 -0.8298
  546MOL0     C75267   7.510   2.839   9.322 -0.7559 -0.0136 -0.0956
  546MOL0     C75268   7.482   2.919   9.433  0.7794  0.7229  0.1716
  546MOL0     O75269   7.354   2.948   9.468 -0.2403 -0.2391 -0.7082
  546MOL0     C75270   7.286   3.023   9.368 -0.5308  0.3755 -0.0861
  546MOL0     C75271   7.191   3.122   9.442 -0.4850  0.1675  0.3635
  546MOL0     C75272   7.072   3.164   9.347 -1.2477  0.9534 -1.0276
  546MOL0     C75273   6.983   3.261   9.410 -0.6209  0.3249  0.1300
  546MOL0     C75274   7.007   3.392   9.356 -0.6391 -0.2357  0.5449
  546MOL0     C75275   7.038   3.499   9.310  0.8519 -0.1589 -0.3063
  546MOL0     C75276   7.578   2.984   9.499 -0.8324 -0.8007  0.0528
  546MOL0     C75277   7.711   2.993   9.448 -0.5990  0.1352 -0.5719
  546MOL0     C75278   7.797   3.087   9.536  0.1007 -0.6662 -0.2441
  546MOL0     H75279   8.120   2.709   9.376  0.4454 -0.3000  0.2186
  546MOL0     H75280   8.321   2.604   9.290 -2.4351 -0.6965  1.9873
  546MOL0     H75281   8.521   2.635   8.941 -2.6103  1.8750  1.8419
  546MOL0     H75282   8.371   2.579   8.865 -1.4570  0.8731  1.4290
  546MOL0     H75283   8.556   2.457   8.783 -1.2633 -0.8239 -0.6711
  546MOL0     H75284   8.604   2.397   8.943  2.3433  1.8847 -1.7627
  546MOL0     H75285   8.368   2.299   8.950 -1.3502 -0.4071 -1.2272
  546MOL0     H75286   8.357   2.350   8.776  0.6238  0.0982 -0.7392
  546MOL0     H75287   8.613   2.203   8.801  0.2731  0.4918 -0.0863
  546MOL0     H75288   8.522   2.136   8.925  0.8698 -1.0436 -0.4542
  546MOL0     H75289   8.500   1.998   8.739 -0.6888 -0.8530 -2.3047
  546MOL0     H75290   8.400   2.122   8.661  0.2732 -1.4771 -0.4416
  546MOL0     H75291   8.324   1.985   8.926  0.8866  0.5256 -0.2265
  546MOL0     H75292   8.238   2.114   8.862  1.8072  1.3589  0.5741
  546MOL0     H75293   8.317   1.863   8.702  1.9367  2.0741 -0.9058
  546MOL0     H75294   8.187   1.974   8.661  0.1622 -0.2660 -0.0761
  546MOL0     H75295   8.085   1.901   8.885 -1.8682 -1.0289 -0.6666
  546MOL0     H75296   8.071   1.800   8.746 -1.9086  1.7035  0.5770
  546MOL0     H75297   8.173   1.733   9.096  1.2302 -0.3111  0.9437
  546MOL0     H75298   8.193   1.415   9.120 -0.6669  2.9585 -2.4980
  546MOL0     H75299   8.318   1.513   9.205  0.4824  0.8806  1.0507
  546MOL0     H75300   8.389   1.304   8.972 -1.0044  1.1160 -0.4573
  546MOL0     H75301   8.498   1.425   9.035 -0.2110  0.0543  0.3679
  546MOL0     H75302   8.543   1.214   9.144  0.9127 -1.1234  1.9504
  546MOL0     H75303   8.493   1.331   9.261  1.4791 -0.5197 -1.3188
  546MOL0     H75304   8.294   1.219   9.322  0.0207 -3.1727  0.7465
  546MOL0     H75305   8.261   1.144   9.168 -0.7370 -2.0348  0.8756
  546MOL0     H75306   8.421   0.837   9.363 -3.5517 -1.8041 -0.1775
  546MOL0     H75307   8.401   0.620   9.357  0.1918  2.6540 -1.1512
  546MOL0     H75308   8.539   0.546   9.275  0.3679  1.2531  3.2906
  546MOL0     H75309   8.374   0.517   9.215 -3.6860  3.5069 -1.3013
  546MOL0     H75310   8.352   0.342   8.818 -0.9356 -2.4812 -2.0416
  546MOL0     H75311   8.458   0.166   8.667 -3.9510  1.4908  0.1401
  546MOL0     H75312   8.772   0.198   8.382  2.6829 -4.6291 -1.6046
  546MOL0     H75313   8.870   0.268   8.511  2.3296 -0.8158 -2.2084
  546MOL0     H75314   8.822  -0.017   8.451  0.4831 -0.1599  0.5182
  546MOL0     H75315   8.976   0.053   8.420  1.3730 -0.6727  0.8915
  546MOL0     H75316   8.931  -0.081   8.649 -0.1257  0.4494 -0.1271
  546MOL0     H75317   8.847   0.058   8.704  1.2394  0.0588  2.5598
  546MOL0     H75318   9.056   0.200   8.663 -1.1212 -0.0064  0.4298
  546MOL0     H75319   9.139   0.057   8.597 -0.6890  1.4627 -1.8052
  546MOL0     H75320   9.018   0.025   8.870 -0.9573  1.2660 -0.5356
  546MOL0     H75321   9.179  -0.034   8.811  1.2202  0.4719  0.6897
  546MOL0     H75322   9.106   0.255   8.871  1.5454  1.4238 -2.7688
  546MOL0     H75323   9.255   0.221   8.819 -1.9389 -1.5337 -1.4034
  546MOL0     H75324   9.122   0.084   9.077  1.3275 -1.1621  1.7411
  546MOL0     H75325   9.219   0.237   9.097 -0.9537  0.4578 -0.7028
  546MOL0     H75326   9.409   0.091   8.985 -0.7393  2.0775  0.0839
  546MOL0     H75327   9.287  -0.031   9.001  1.3402  0.8865 -2.9411
  546MOL0     H75328   8.761   0.433   8.568 -1.4560 -1.1164 -1.7949
  546MOL0     H75329   8.646   0.629   8.682 -0.1148  0.5014 -0.4522
  546MOL0     H75330   8.429   0.873   8.869 -0.1850 -1.9106 -0.4442
  546MOL0     H75331   8.414   1.066   9.001  0.3723  0.6481  1.0791
  546MOL0     H75332   8.175   2.610   8.894  0.5719  2.5397  0.0066
  546MOL0     H75333   7.973   2.734   8.971  2.5445  1.9236 -1.4763
  546MOL0     H75334   7.659   2.781   9.182  0.7861 -1.1349  0.1974
  546MOL0     H75335   7.428   2.790   9.271 -0.1282  0.2731 -1.4250
  546MOL0     H75336   7.346   3.074   9.292  0.9269 -0.7687  0.2550
  546MOL0     H75337   7.232   2.942   9.318  0.2756  0.8449 -1.7941
  546MOL0     H75338   7.253   3.208   9.470  2.7743 -0.1407 -4.5347
  546MOL0     H75339   7.160   3.068   9.532  0.8362 -0.1458  0.6635
  546MOL0     H75340   7.117   3.198   9.253  0.2458  1.6292 -0.1113
  546MOL0     H75341   7.003   3.086   9.315  0.8506  0.3684 -4.7425
  546MOL0     H75342   6.999   3.255   9.518  1.7059 -2.8558 -0.2212
  546MOL0     H75343   6.880   3.230   9.391 -1.3736  0.6614  3.0990
  546MOL0     H75344   7.066   3.587   9.256  1.1317 -1.1728 -1.8797
  546MOL0     H75345   7.562   3.052   9.582  0.6385  1.6214 -1.5347
  546MOL0     H75346   7.745   3.151   9.607  1.9190 -0.1313  0.6745
  546MOL0     H75347   7.873   3.027   9.586  2.1184  1.7710 -0.1767
  546MOL0     H75348   7.858   3.153   9.473  1.3060 -1.7654 -0.2791
  547MOL0     O75349   8.079   9.719   5.445  0.7272 -0.0112  0.2867
  547MOL0     C75350   8.149   9.722   5.341  0.6510 -0.3369  0.2319
  547MOL0     O75351   8.200   9.836   5.288 -0.0509 -0.2807 -0.1565
  547MOL0     C75352   8.137   9.952   5.318 -0.2545 -0.5013 -0.7957
  547MOL0     C75353   8.227  10.060   5.333  0.1385  0.2504  0.0315
  547MOL0     C75354   8.174  10.185   5.360  0.6251 -0.1728 -0.1874
  547MOL0     C75355   8.031  10.205   5.372  0.3574 -0.9546  0.5985
  547MOL0     O75356   7.985  10.330   5.405  0.2136  0.0759  0.4826
  547MOL0     C75357   7.860  10.381   5.345 -0.1215  0.1726 -0.2876
  547MOL0     C75358   7.843  10.533   5.343 -0.1284 -0.2226 -0.0931
  547MOL0     C75359   7.856  10.588   5.485  0.0298 -0.5718  0.3878
  547MOL0     C75360   7.851  10.742   5.497 -0.1558 -0.0574  0.2667
  547MOL0     C75361   7.891  10.788   5.645 -0.2541 -0.2184 -0.4888
  547MOL0     C75362   7.860  10.937   5.675 -0.4929  0.7417  0.2407
  547MOL0     C75363   7.755  10.966   5.779 -0.3526  0.1979 -0.1636
  547MOL0     C75364   7.620  10.930   5.726 -0.2979  0.6809  0.1710
  547MOL0     N75365   7.522  10.963   5.836 -0.3432 -0.3547  0.4445
  547MOL0     C75366   7.479  11.095   5.863 -0.1413 -0.2551 -0.3342
  547MOL0     C75367   7.402  11.086   5.971  0.8374  0.0378 -0.0813
  547MOL0     C75368   7.331  11.196   6.035 -0.2236  0.2054  0.1587
  547MOL0     C75369   7.414  11.315   6.076 -0.6644  0.7098  0.0936
  547MOL0     C75370   7.507  11.273   6.197 -0.0320 -0.2165  0.3820
  547MOL0     C75371   7.616  11.383   6.214 -0.2618  0.7320 -0.3775
  547MOL0     O75372   7.682  11.377   6.340  0.1855 -0.1715 -0.2357
  547MOL0     C75373   7.797  11.295   6.347 -0.6400  0.0587  0.1365
  547MOL0     C75374   7.837  11.206   6.247 -1.2633 -0.6855  1.1745
  547MOL0     C75375   7.951  11.119   6.253  0.2983 -1.1411 -0.5941
  547MOL0     C75376   7.980  11.031   6.134 -0.9500  0.7304 -0.7512
  547MOL0     C75377   8.023  11.128   6.375  0.4021 -0.2689 -0.6692
  547MOL0     C75378   8.138  11.043   6.404 -0.1663  0.2424  0.3745
  547MOL0     O75379   8.167  11.024   6.540  0.3008  0.4295 -0.3966
  547MOL0     C75380   8.289  10.963   6.574 -0.7074  0.1951  0.2488
  547MOL0     C75381   8.414  10.984   6.521  0.0853 -0.0293 -0.3897
  547MOL0     C75382   8.526  10.907   6.560 -0.6911 -0.6097  0.2973
  547MOL0     C75383   8.514  10.810   6.659  0.7077 -0.3956 -0.3036
  547MOL0     O75384   8.632  10.749   6.706  0.1445  0.1083  0.6264
  547MOL0     C75385   8.635  10.706   6.842 -0.4747 -0.1712  0.4088
  547MOL0     C75386   8.781  10.699   6.889  0.5756 -0.7433  0.3017
  547MOL0     C75387   8.792  10.675   7.038  0.0244 -0.1593 -0.2476
  547MOL0     C75388   8.844  10.528   7.067 -0.7989 -0.0107 -0.1494
  547MOL0     C75389   8.842  10.491   7.229 -0.3918  0.2930 -0.1053
  547MOL0     C75390   8.847  10.341   7.248 -0.8850 -0.3228 -0.5945
  547MOL0     C75391   8.995  10.297   7.224 -0.3790 -0.2789 -0.9866
  547MOL0     C75392   9.072  10.321   7.360 -0.2108  0.1088  1.0910
  547MOL0    Cl75393   9.005  10.213   7.490  0.4403  0.5425 -0.1196
  547MOL0     C75394   8.386  10.783   6.709  0.2514 -0.2975  0.2893
  547MOL0     C75395   8.275  10.848   6.652 -0.3038 -0.2150 -0.9507
  547MOL0     O75396   8.201  10.993   6.312 -0.1183  0.2590 -0.4305
  547MOL0     C75397   7.990  11.217   6.477 -0.0545 -0.6912 -0.6409
  547MOL0     C75398   7.883  11.295   6.464 -0.1867  0.0389 -0.5035
  547MOL0     N75399   7.391  10.955   6.003 -0.1600 -0.4535  0.3004
  547MOL0     N75400   7.472  10.884   5.929  0.2357  0.2999  0.4186
  547MOL0     C75401   7.944  10.094   5.343 -0.0462  0.8390 -0.0936
  547MOL0     C75402   7.994   9.965   5.325  0.3661  0.4426  0.2213
  547MOL0     C75403   8.226   9.606   5.295 -0.2929 -0.6606  0.0696
  547MOL0     C75404   8.266   9.509   5.387  0.2501 -0.5101  0.5519
  547MOL0     C75405   8.335   9.395   5.347  0.3726  0.4456 -0.6868
  547MOL0     C75406   8.372   9.375   5.219  0.3092  0.0792 -0.1839
  547MOL0     O75407   8.431   9.260   5.185 -0.7144 -0.4433 -0.7291
  547MOL0     C75408   8.348   9.172   5.103  0.8802 -0.1931  0.3442
  547MOL0     C75409   8.409   9.169   4.958 -0.6317  0.1420 -0.2551
  547MOL0     C75410   8.318   9.081   4.871  0.5396 -0.7765 -0.2655
  547MOL0     C75411   8.326   8.925   4.885  0.3954 -0.6561  0.3286
  547MOL0     C75412   8.257   8.870   5.005  0.0477  0.0422 -1.2035
  547MOL0     C75413   8.222   8.819   5.113 -0.1137  0.0057  0.2765
  547MOL0     C75414   8.333   9.464   5.122  0.6679 -1.0227 -0.2842
  547MOL0     C75415   8.260   9.579   5.154  0.2851 -0.2865 -0.0571
  547MOL0     C75416   8.238   9.679   5.045 -0.3475 -0.0591  0.0763
  547MOL0     H75417   8.333  10.052   5.316  0.1580 -1.2437  0.6612
  547MOL0     H75418   8.230  10.274   5.385 -0.9183  0.8298 -0.1881
  547MOL0     H75419   7.773  10.341   5.398 -0.5536  0.6170 -0.6449
  547MOL0     H75420   7.863  10.329   5.248  0.4367 -0.6874  0.1781
  547MOL0     H75421   7.925  10.581   5.288 -1.0106  3.1263  1.2861
  547MOL0     H75422   7.742  10.563   5.313 -0.6025 -1.1153  0.5401
  547MOL0     H75423   7.779  10.548   5.551 -2.8009  1.1992 -1.6131
  547MOL0     H75424   7.960  10.573   5.514  0.5671  2.4840  0.4328
  547MOL0     H75425   7.926  10.776   5.426  1.3176 -0.5265  1.5500
  547MOL0     H75426   7.754  10.784   5.468 -0.8306 -1.9452 -0.4265
  547MOL0     H75427   8.000  10.781   5.638 -0.2904 -0.0523 -1.3393
  547MOL0     H75428   7.844  10.719   5.715 -2.1528  1.0250 -0.4703
  547MOL0     H75429   7.951  10.982   5.714  0.2284  0.5334 -1.1502
  547MOL0     H75430   7.837  10.984   5.579 -0.7672  1.1961  0.5244
  547MOL0     H75431   7.748  11.075   5.783 -1.6009  0.1084  0.7536
  547MOL0     H75432   7.762  10.914   5.875 -5.3690  0.8540  0.8410
  547MOL0     H75433   7.595  10.997   5.643 -0.2794  1.8188  1.0431
  547MOL0     H75434   7.608  10.824   5.706  0.8765  0.8754 -1.9074
  547MOL0     H75435   7.498  11.192   5.818 -0.3125 -0.1661 -0.2170
  547MOL0     H75436   7.276  11.152   6.118  1.1304  0.3324  1.1580
  547MOL0     H75437   7.267  11.225   5.951 -0.9268 -0.2297  0.5388
  547MOL0     H75438   7.474  11.361   5.996  1.1067  1.1061  1.5911
  547MOL0     H75439   7.353  11.402   6.100 -1.8928  0.1338 -0.8069
  547MOL0     H75440   7.444  11.261   6.286  0.0437 -3.0032  0.1683
  547MOL0     H75441   7.547  11.173   6.175 -0.5615 -0.1190 -1.1101
  547MOL0     H75442   7.677  11.390   6.123 -0.2234 -0.0217 -0.4153
  547MOL0     H75443   7.569  11.481   6.224  0.0824  1.0268 -1.4458
  547MOL0     H75444   7.781  11.210   6.154  1.0929  2.3039 -0.3130
  547MOL0     H75445   7.896  11.055   6.068 -0.8248  0.4390 -1.0165
  547MOL0     H75446   7.986  10.926   6.163  3.4862  0.5619 -1.5941
  547MOL0     H75447   8.074  11.056   6.084  1.0677 -1.1439  1.8080
  547MOL0     H75448   8.426  11.053   6.438 -4.0763  2.2830  0.6157
  547MOL0     H75449   8.624  10.916   6.513 -1.4651  0.2937 -1.2432
  547MOL0     H75450   8.587  10.771   6.916 -1.2153 -0.5953  0.3154
  547MOL0     H75451   8.581  10.612   6.858 -1.6806  0.7331  1.9709
  547MOL0     H75452   8.832  10.616   6.839  1.6405  0.6831 -1.0729
  547MOL0     H75453   8.824  10.799   6.881 -3.9150  1.8574  3.8546
  547MOL0     H75454   8.700  10.689   7.096  1.0140  1.0238  1.1013
  547MOL0     H75455   8.853  10.755   7.080  1.4661 -0.1953 -2.1170
  547MOL0     H75456   8.946  10.513   7.029 -0.5895 -1.9202  1.0350
  547MOL0     H75457   8.773  10.463   7.015 -2.3553  0.5674  1.1747
  547MOL0     H75458   8.927  10.537   7.279 -0.3049 -0.9459  0.9229
  547MOL0     H75459   8.750  10.532   7.272 -2.2342 -1.8946 -1.7000
  547MOL0     H75460   8.774  10.297   7.179 -1.7341 -0.5679  0.4378
  547MOL0     H75461   8.806  10.315   7.346  1.2654  1.1969  0.8010
  547MOL0     H75462   9.038  10.354   7.140  1.8233 -0.0805  0.1925
  547MOL0     H75463   8.998  10.191   7.197  0.3495 -0.3802 -0.5491
  547MOL0     H75464   9.074  10.426   7.392  0.5655  1.1455 -2.0184
  547MOL0     H75465   9.180  10.299   7.360 -0.1365  0.4070 -0.2820
  547MOL0     H75466   8.376  10.709   6.787 -0.8748 -0.8069 -0.3109
  547MOL0     H75467   8.182  10.825   6.703  0.3359  1.3871  1.0261
  547MOL0     H75468   8.060  11.232   6.559  1.1528 -0.0823 -1.7397
  547MOL0     H75469   7.850  11.347   6.554  3.8806  1.1955  0.4986
  547MOL0     H75470   7.837  10.113   5.339 -0.7259 -1.7497  2.4575
  547MOL0     H75471   7.931   9.880   5.300 -0.9937  1.3459  0.4666
  547MOL0     H75472   8.255   9.524   5.494  2.8659  2.3627  0.5722
  547MOL0     H75473   8.362   9.324   5.424 -0.1299  4.7567  3.9577
  547MOL0     H75474   8.354   9.076   5.154 -2.6676  0.2889  1.9194
  547MOL0     H75475   8.243   9.200   5.097 -0.0163 -3.2779  0.1547
  547MOL0     H75476   8.513   9.137   4.967 -0.6971  0.4287  2.7074
  547MOL0     H75477   8.412   9.273   4.926 -0.2199  0.3518  0.4397
  547MOL0     H75478   8.214   9.107   4.892  0.2340 -0.4708 -2.0768
  547MOL0     H75479   8.326   9.106   4.765  1.0048 -0.2029 -0.0952
  547MOL0     H75480   8.432   8.900   4.891  0.3316 -0.9103  0.3952
  547MOL0     H75481   8.297   8.878   4.791  2.2844 -3.2463  0.9472
  547MOL0     H75482   8.197   8.776   5.208  4.1057 -2.7690  0.3803
  547MOL0     H75483   8.368   9.448   5.021 -0.0128  0.2493 -0.7442
  547MOL0     H75484   8.131   9.696   5.049 -0.2107  1.3745 -1.5762
  547MOL0     H75485   8.289   9.773   5.068 -3.9542  2.7973 -2.5032
  547MOL0     H75486   8.270   9.634   4.950 -1.6588  0.9583 -0.8644
  548MOL0     O75487   9.395  11.204   3.844  0.1093  0.3593 -0.7249
  548MOL0     C75488   9.341  11.311   3.801 -1.0689  0.1450 -0.5495
  548MOL0     O75489   9.392  11.433   3.824  0.0899 -0.0813  0.7164
  548MOL0     C75490   9.521  11.430   3.870  0.8932 -0.2426 -0.0772
  548MOL0     C75491   9.546  11.516   3.970  0.6284 -0.0102 -0.8333
  548MOL0     C75492   9.676  11.551   4.007  0.0232  0.2863  0.7481
  548MOL0     C75493   9.791  11.500   3.939  0.2624  0.1518 -0.0932
  548MOL0     O75494   9.918  11.534   3.964 -0.5471 -0.4205  0.2401
  548MOL0     C75495   9.967  11.490   4.092 -0.4585  0.0100  0.4864
  548MOL0     C75496  10.098  11.565   4.134  0.3532 -0.6647 -0.1771
  548MOL0     C75497  10.220  11.534   4.051 -0.5666 -0.5655  0.0423
  548MOL0     C75498  10.348  11.601   4.125  0.0256  0.6231  0.5921
  548MOL0     C75499  10.484  11.555   4.075  0.0139  0.8978  0.5795
  548MOL0     C75500  10.603  11.618   4.147 -0.6062 -0.2403 -0.1037
  548MOL0     C75501  10.726  11.548   4.097  0.2772 -0.9855  0.7355
  548MOL0     C75502  10.857  11.603   4.157  0.3765  0.3055 -0.3830
  548MOL0     N75503  10.908  11.718   4.087 -0.0458 -0.1796  0.1687
  548MOL0     C75504  11.036  11.741   4.045  0.2906 -0.0152  0.0978
  548MOL0     C75505  11.045  11.869   4.000  0.3047  0.5587  0.2905
  548MOL0     C75506  11.155  11.948   3.927  0.1786  0.1036 -0.3458
  548MOL0     C75507  11.269  12.002   4.015  0.5082  0.1952  0.7170
  548MOL0     C75508  11.380  12.084   3.939  0.1284  0.6679 -0.6867
  548MOL0     C75509  11.497  12.133   4.033 -0.1877 -0.2035 -0.5511
  548MOL0     O75510  11.597  12.215   3.974  0.9517  0.7128  0.5807
  548MOL0     C75511  11.713  12.248   4.033  0.4854  0.8306  0.1049
  548MOL0     C75512  11.750  12.216   4.164 -0.3437  0.3017 -0.3486
  548MOL0     C75513  11.879  12.248   4.215  0.1489 -0.1262  0.7635
  548MOL0     C75514  11.901  12.202   4.359 -0.5824 -0.4140  0.0072
  548MOL0     C75515  11.969  12.318   4.136 -0.7716 -0.0375 -0.2524
  548MOL0     C75516  12.101  12.372   4.180  0.2131  0.0054 -0.5488
  548MOL0     O75517  12.139  12.348   4.300  0.1761 -0.3711 -0.5192
  548MOL0     C75518  12.263  12.379   4.350 -0.0215  0.0557 -0.3424
  548MOL0     C75519  12.266  12.387   4.489 -0.1147  0.4055 -0.1087
  548MOL0     C75520  12.374  12.443   4.556 -0.3163  0.3548  0.2743
  548MOL0     C75521  12.482  12.503   4.486  0.0013 -0.1146 -0.7055
  548MOL0     O75522  12.582  12.558   4.567 -0.1430  0.2120  0.2940
  548MOL0     C75523  12.537  12.675   4.632 -0.3147 -0.6531 -0.1061
  548MOL0     C75524  12.661  12.763   4.671 -1.0052  0.8041  0.2260
  548MOL0     C75525  12.637  12.887   4.756 -0.3573 -0.3677 -0.3479
  548MOL0     C75526  12.750  13.002   4.749  0.0473  0.1197  0.4756
  548MOL0     C75527  12.717  13.139   4.813  0.3691 -0.0310  0.2858
  548MOL0     C75528  12.833  13.242   4.809  0.8839 -0.8644 -0.2328
  548MOL0     C75529  12.822  13.380   4.871 -0.3550 -0.3613  0.5070
  548MOL0     C75530  12.954  13.456   4.849  0.1956 -0.7796  0.4215
  548MOL0    Cl75531  12.948  13.606   4.957  0.0513  0.1229  0.0919
  548MOL0     C75532  12.495  12.484   4.351  0.0524 -0.3540  0.1276
  548MOL0     C75533  12.386  12.430   4.279  0.3671  1.2519 -0.8702
  548MOL0     O75534  12.163  12.435   4.100 -0.1759  0.6233 -0.0246
  548MOL0     C75535  11.925  12.355   4.005  0.6744  0.7188  0.1102
  548MOL0     C75536  11.800  12.317   3.952  0.3514  0.0981 -0.2596
  548MOL0     N75537  10.923  11.931   4.022  0.9499 -0.4573 -0.8036
  548MOL0     N75538  10.844  11.843   4.082 -0.1318  0.4707 -0.1039
  548MOL0     C75539   9.767  11.415   3.832 -0.9463  0.4344  0.0853
  548MOL0     C75540   9.632  11.380   3.800  0.0429  0.2468 -0.4088
  548MOL0     C75541   9.206  11.291   3.750  0.6470  0.3251 -0.1936
  548MOL0     C75542   9.136  11.168   3.785 -0.0860  0.1370  0.6089
  548MOL0     C75543   9.006  11.149   3.754 -0.7961 -0.3861  0.3342
  548MOL0     C75544   8.941  11.247   3.682 -0.3055 -1.1496  0.4220
  548MOL0     O75545   8.815  11.219   3.640  0.3642  0.1868  0.5200
  548MOL0     C75546   8.750  11.309   3.552 -0.2125 -0.1093 -0.3732
  548MOL0     C75547   8.643  11.222   3.481  0.5569 -0.4414  0.6282
  548MOL0     C75548   8.707  11.110   3.398  0.1870 -0.1385 -0.2205
  548MOL0     C75549   8.616  11.018   3.327  0.6931  0.1881  0.1167
  548MOL0     C75550   8.525  10.933   3.408 -0.1348  0.1979 -0.7297
  548MOL0     C75551   8.449  10.865   3.470 -0.8042  0.2337  1.1941
  548MOL0     C75552   8.999  11.373   3.659 -0.5197 -0.3817 -0.1323
  548MOL0     C75553   9.133  11.385   3.674 -0.1441 -0.6176  0.0541
  548MOL0     C75554   9.199  11.510   3.621 -0.0298 -0.7268 -0.0100
  548MOL0     H75555   9.460  11.552   4.026  1.5391 -1.5026  1.6996
  548MOL0     H75556   9.695  11.626   4.083  0.4136 -1.3268  2.3100
  548MOL0     H75557   9.990  11.383   4.093  1.8186  0.3887 -1.9006
  548MOL0     H75558   9.898  11.516   4.173  1.5883  0.7604  2.0620
  548MOL0     H75559  10.083  11.673   4.141 -2.5654 -1.0432  0.9952
  548MOL0     H75560  10.128  11.522   4.230  3.2508 -0.2973 -0.8367
  548MOL0     H75561  10.223  11.426   4.036  0.8487 -0.4166 -0.9754
  548MOL0     H75562  10.205  11.579   3.952  0.6369  2.9438  1.2689
  548MOL0     H75563  10.348  11.710   4.114  1.5151  0.4318 -2.2176
  548MOL0     H75564  10.340  11.573   4.231 -4.1809 -3.1223 -0.4325
  548MOL0     H75565  10.493  11.569   3.967  2.0607  0.9676  0.7091
  548MOL0     H75566  10.488  11.448   4.095 -1.4866  0.6287 -0.4295
  548MOL0     H75567  10.616  11.725   4.128  1.2958 -0.6977 -1.7194
  548MOL0     H75568  10.592  11.599   4.255 -2.6892 -0.0467 -0.2417
  548MOL0     H75569  10.736  11.570   3.990  1.9304  2.5818  1.4801
  548MOL0     H75570  10.717  11.443   4.126  1.9143 -0.9444  1.4774
  548MOL0     H75571  10.842  11.626   4.263  0.2169  3.6711 -1.0175
  548MOL0     H75572  10.931  11.523   4.160  0.2813  0.2439  0.9648
  548MOL0     H75573  11.116  11.667   4.055  0.0658 -0.2923 -0.1302
  548MOL0     H75574  11.103  12.023   3.868  2.6174  0.4723 -2.1538
  548MOL0     H75575  11.195  11.888   3.844 -1.2416 -1.1922 -0.1528
  548MOL0     H75576  11.228  12.069   4.092 -1.8280 -0.0619 -0.2319
  548MOL0     H75577  11.322  11.919   4.064  0.5707 -0.5105 -0.5236
  548MOL0     H75578  11.423  12.015   3.865 -1.6104  0.6215 -1.6950
  548MOL0     H75579  11.332  12.175   3.902 -0.1243  1.7175  2.0233
  548MOL0     H75580  11.432  12.175   4.109 -1.1184 -0.7930 -0.9936
  548MOL0     H75581  11.538  12.040   4.074 -1.9491 -0.2811  1.1816
  548MOL0     H75582  11.671  12.168   4.221 -0.9313 -0.2668 -1.6015
  548MOL0     H75583  11.964  12.113   4.368 -2.2383 -1.7696 -1.1778
  548MOL0     H75584  11.803  12.176   4.401 -1.1109 -2.0603 -2.0641
  548MOL0     H75585  11.936  12.287   4.418 -1.6039  1.1788 -1.5965
  548MOL0     H75586  12.181  12.340   4.537  0.9027 -1.3762  0.0611
  548MOL0     H75587  12.368  12.435   4.664 -3.8890 -0.5009  0.1258
  548MOL0     H75588  12.470  12.732   4.566 -0.3424 -1.3676 -0.7004
  548MOL0     H75589  12.489  12.654   4.728 -0.8331  0.7383 -0.0305
  548MOL0     H75590  12.720  12.694   4.732  1.0403  1.3939 -0.9834
  548MOL0     H75591  12.713  12.789   4.579 -1.5139  1.0966  0.0166
  548MOL0     H75592  12.626  12.855   4.860  1.5461 -0.2808 -0.0933
  548MOL0     H75593  12.546  12.936   4.720 -1.0021  1.2256  3.0329
  548MOL0     H75594  12.782  13.013   4.645 -0.7773  2.4520  0.4115
  548MOL0     H75595  12.840  12.959   4.794  0.6322  0.2403 -0.5503
  548MOL0     H75596  12.632  13.185   4.762  1.1269 -1.6590 -2.6190
  548MOL0     H75597  12.700  13.125   4.920 -0.1563  0.8014  0.3182
  548MOL0     H75598  12.868  13.253   4.707  0.5350 -3.3843 -0.6946
  548MOL0     H75599  12.917  13.198   4.864  1.4987 -0.0613 -0.5121
  548MOL0     H75600  12.803  13.369   4.978 -1.9286 -2.6951  0.0596
  548MOL0     H75601  12.737  13.441   4.840  1.1849  2.5536  1.5897
  548MOL0     H75602  12.966  13.482   4.743 -2.4994  0.5951  0.3680
  548MOL0     H75603  13.041  13.400   4.885  2.2038  1.4426 -0.6229
  548MOL0     H75604  12.589  12.514   4.306  0.5648 -2.5222 -0.3572
  548MOL0     H75605  12.394  12.416   4.171  2.4804 -0.8016 -0.5119
  548MOL0     H75606  11.986  12.412   3.935  1.8528 -0.3351  0.2546
  548MOL0     H75607  11.770  12.342   3.851 -1.0378  4.0065  0.9654
  548MOL0     H75608   9.845  11.378   3.767 -1.2122  0.1842 -0.0973
  548MOL0     H75609   9.630  11.313   3.715 -2.1860 -1.0056  0.5419
  548MOL0     H75610   9.189  11.085   3.831 -0.9136  0.9572  3.2584
  548MOL0     H75611   8.952  11.056   3.766  1.5585 -2.2555 -2.4306
  548MOL0     H75612   8.717  11.401   3.601  0.9743 -1.0016  2.2716
  548MOL0     H75613   8.823  11.337   3.475 -1.1243 -0.5292 -1.4098
  548MOL0     H75614   8.577  11.276   3.412 -0.3276 -1.2499  0.8204
  548MOL0     H75615   8.576  11.177   3.555 -0.0619 -2.6912 -1.1539
  548MOL0     H75616   8.761  11.160   3.317 -0.8136 -0.2564 -0.9789
  548MOL0     H75617   8.781  11.051   3.452  0.3374  0.3941  0.1684
  548MOL0     H75618   8.677  10.950   3.266 -0.6248 -0.1140 -0.9145
  548MOL0     H75619   8.560  11.077   3.254  1.9057  0.6206 -0.4956
  548MOL0     H75620   8.374  10.811   3.524  1.0340 -3.0457  0.7361
  548MOL0     H75621   8.951  11.455   3.607 -0.8333 -0.4107  0.1132
  548MOL0     H75622   9.296  11.483   3.580  0.1964 -1.5331  1.0488
  548MOL0     H75623   9.137  11.554   3.541  1.1379 -1.7863 -1.5515
  548MOL0     H75624   9.228  11.586   3.694  1.2882  1.3769 -2.5495
  549MOL0     O75625   8.582   0.288   0.307  0.0162  0.7279 -0.0038
  549MOL0     C75626   8.529   0.223   0.395  0.1363 -0.1216  0.4828
  549MOL0     O75627   8.588   0.153   0.497 -0.1263  0.0849  0.2412
  549MOL0     C75628   8.723   0.160   0.516  0.1060 -0.0625 -0.7391
  549MOL0     C75629   8.790   0.041   0.504  0.2402 -0.2086 -0.1292
  549MOL0     C75630   8.926   0.030   0.491 -0.9309  0.0666 -0.0656
  549MOL0     C75631   9.003   0.144   0.506  0.0114  0.1181  0.3550
  549MOL0     O75632   9.139   0.119   0.498  0.9184  0.7931  0.2846
  549MOL0     C75633   9.221   0.226   0.446  0.1383 -0.8768  0.3425
  549MOL0     C75634   9.373   0.181   0.440 -1.0266  0.7677 -0.6865
  549MOL0     C75635   9.431   0.167   0.580  0.4248  0.0211  0.7182
  549MOL0     C75636   9.578   0.133   0.567 -0.2615 -1.0889  0.1282
  549MOL0     C75637   9.640   0.152   0.705 -0.0983 -0.7800 -0.0301
  549MOL0     C75638   9.792   0.121   0.715 -0.2072 -0.4432 -0.5354
  549MOL0     C75639   9.870   0.182   0.839 -0.5435 -0.1977 -0.2729
  549MOL0     C75640  10.024   0.190   0.824  0.0913 -0.3077 -0.0402
  549MOL0     N75641  10.087   0.053   0.815  0.7805 -0.2481 -0.3062
  549MOL0     C75642  10.118   0.006   0.689 -0.6323 -0.7939 -0.3786
  549MOL0     C75643  10.154  -0.120   0.712  0.3533 -0.1197 -0.2545
  549MOL0     C75644  10.191  -0.212   0.608 -0.0613  0.2011  0.0079
  549MOL0     C75645  10.345  -0.214   0.578 -0.7843 -0.1386 -0.9029
  549MOL0     C75646  10.372  -0.296   0.455 -0.0025  0.4261  0.0447
  549MOL0     C75647  10.515  -0.294   0.407  0.1996  0.1588 -0.7966
  549MOL0     O75648  10.551  -0.157   0.387 -0.9088  0.1793  0.3304
  549MOL0     C75649  10.667  -0.107   0.449  0.1215 -0.1490 -1.0667
  549MOL0     C75650  10.780  -0.053   0.376  0.5636  0.6825  0.1444
  549MOL0     C75651  10.896  -0.013   0.446 -0.7788  0.4035  0.0400
  549MOL0     C75652  10.996   0.070   0.362 -0.3808 -0.1417  0.3476
  549MOL0     C75653  10.907  -0.043   0.588 -0.1247 -1.0849  0.6235
  549MOL0     C75654  11.035  -0.023   0.661 -0.0819 -0.2455 -0.8047
  549MOL0     O75655  11.160   0.008   0.602  0.7331 -0.0477 -0.4656
  549MOL0     C75656  11.281   0.028   0.665  0.3102 -0.2502  0.9216
  549MOL0     C75657  11.325  -0.042   0.777 -0.7576 -0.7281  0.0081
  549MOL0     C75658  11.453  -0.026   0.819 -1.1305  0.0380  0.4878
  549MOL0     C75659  11.540   0.064   0.770 -0.5136 -0.9659 -0.1223
  549MOL0     O75660  11.668   0.076   0.821 -0.7849  0.2529 -0.3513
  549MOL0     C75661  11.781   0.126   0.745  0.9976 -0.2077 -0.0996
  549MOL0     C75662  11.894   0.129   0.843  0.4200  0.5357 -0.0603
  549MOL0     C75663  12.003   0.225   0.806 -0.3863 -0.2934  0.1829
  549MOL0     C75664  12.069   0.177   0.677  0.6300 -0.2571 -0.7505
  549MOL0     C75665  12.217   0.196   0.675 -0.9707 -0.8838  0.1986
  549MOL0     C75666  12.267   0.210   0.526  0.2535 -0.3905  0.6410
  549MOL0     C75667  12.421   0.193   0.518 -0.4032  0.7816 -0.1394
  549MOL0     C75668  12.475   0.165   0.378 -0.8093  0.1920 -0.8581
  549MOL0    Cl75669  12.422  -0.002   0.341  0.0469  0.0368  0.3515
  549MOL0     C75670  11.506   0.145   0.657 -0.1863 -0.4606  0.2159
  549MOL0     C75671  11.376   0.124   0.602  0.7701  0.8889 -0.4948
  549MOL0     O75672  11.023  -0.021   0.784 -0.4030  0.2858 -0.1140
  549MOL0     C75673  10.792  -0.090   0.657  0.6822 -0.7589  0.3461
  549MOL0     C75674  10.680  -0.127   0.588 -0.5221 -0.4809 -0.4530
  549MOL0     N75675  10.154  -0.143   0.845  0.0945  0.8669  0.0912
  549MOL0     N75676  10.103  -0.044   0.906 -0.2320 -0.5540 -0.1854
  549MOL0     C75677   8.943   0.271   0.529  0.0922 -0.2723 -0.6995
  549MOL0     C75678   8.799   0.274   0.542  0.7217 -0.3454 -0.3719
  549MOL0     C75679   8.385   0.213   0.382 -0.2162  0.1040 -0.2255
  549MOL0     C75680   8.317   0.161   0.498 -0.0510 -0.7058 -0.3079
  549MOL0     C75681   8.182   0.123   0.505  0.1765 -0.0408  0.0110
  549MOL0     C75682   8.102   0.134   0.388 -0.6320  0.5831 -0.1471
  549MOL0     O75683   7.971   0.095   0.386  0.0467 -0.2071  0.1771
  549MOL0     C75684   7.944  -0.010   0.478 -0.0563  0.4183 -0.1244
  549MOL0     C75685   7.797  -0.059   0.464  0.0827 -0.4783 -0.4985
  549MOL0     C75686   7.765  -0.192   0.534 -0.1110 -0.1108 -0.5318
  549MOL0     C75687   7.783  -0.197   0.695 -0.0829 -0.6105  0.6532
  549MOL0     C75688   7.921  -0.182   0.743 -0.2806  0.8260 -0.1793
  549MOL0     C75689   8.036  -0.191   0.789  0.3277 -0.0044 -0.0302
  549MOL0     C75690   8.163   0.193   0.276 -0.2995 -0.0790 -0.5587
  549MOL0     C75691   8.299   0.240   0.277  0.4655  0.3130 -0.2525
  549MOL0     C75692   8.338   0.322   0.155 -0.3920 -0.5824  0.7330
  549MOL0     H75693   8.735  -0.049   0.478 -0.8145  0.2828  0.3536
  549MOL0     H75694   8.985  -0.060   0.476  2.2429  2.1291 -0.9492
  549MOL0     H75695   9.217   0.302   0.525 -3.5121 -0.6881  0.1364
  549MOL0     H75696   9.179   0.281   0.362 -0.9435  1.0238  2.0350
  549MOL0     H75697   9.395   0.093   0.379  1.2349  0.2798  0.6847
  549MOL0     H75698   9.419   0.273   0.403 -1.6730  2.1609  1.7661
  549MOL0     H75699   9.406   0.238   0.659 -1.7741 -1.4286  1.4172
  549MOL0     H75700   9.382   0.078   0.621 -0.3137  0.8187  1.6155
  549MOL0     H75701   9.599   0.030   0.538 -0.9468 -0.8335 -1.3653
  549MOL0     H75702   9.628   0.195   0.492  2.0907 -2.8318  0.1403
  549MOL0     H75703   9.581   0.096   0.778 -0.4436 -0.3845  0.0046
  549MOL0     H75704   9.623   0.258   0.726 -0.2148 -1.2699  2.6797
  549MOL0     H75705   9.810   0.014   0.703 -1.9325 -0.5866 -2.3767
  549MOL0     H75706   9.836   0.172   0.629 -3.8976  0.2522 -2.2071
  549MOL0     H75707   9.844   0.119   0.925  2.1800 -2.4324 -0.9486
  549MOL0     H75708   9.837   0.286   0.846  1.2623  0.5293 -1.6991
  549MOL0     H75709  10.032   0.243   0.729 -2.1821  2.9211  1.3902
  549MOL0     H75710  10.076   0.246   0.902  1.5269 -0.7666 -0.6443
  549MOL0     H75711  10.098   0.052   0.593  0.1701 -1.4087 -0.8529
  549MOL0     H75712  10.137  -0.184   0.517 -0.2093 -2.8877 -0.9671
  549MOL0     H75713  10.149  -0.306   0.644 -2.6719  1.4882  0.5848
  549MOL0     H75714  10.374  -0.110   0.558 -3.0791  0.3896 -1.7719
  549MOL0     H75715  10.396  -0.246   0.670 -0.0906  1.8380 -0.5352
  549MOL0     H75716  10.346  -0.400   0.477  3.3507 -0.4580  0.3445
  549MOL0     H75717  10.316  -0.256   0.369 -0.1148  3.3271  1.3568
  549MOL0     H75718  10.582  -0.348   0.474  2.7872  3.4829 -0.3971
  549MOL0     H75719  10.518  -0.344   0.309  0.2797 -1.8422  0.1808
  549MOL0     H75720  10.767  -0.024   0.272 -3.5145 -0.4910  0.1305
  549MOL0     H75721  11.038   0.148   0.425 -3.3642  0.1340  2.2072
  549MOL0     H75722  10.950   0.109   0.271  0.1497 -2.6011 -1.0754
  549MOL0     H75723  11.079   0.011   0.323 -1.0330 -0.7781 -0.1179
  549MOL0     H75724  11.260  -0.109   0.832  1.0470 -1.9491  0.7245
  549MOL0     H75725  11.486  -0.085   0.903  1.7298 -2.5382 -2.2272
  549MOL0     H75726  11.804   0.068   0.656  4.4371  2.3425 -1.1037
  549MOL0     H75727  11.756   0.228   0.714  0.2198 -1.0041 -2.2341
  549MOL0     H75728  11.863   0.164   0.941  0.5860  0.5150  0.0001
  549MOL0     H75729  11.939   0.029   0.851  3.0272  1.6970  0.8567
  549MOL0     H75730  12.076   0.227   0.887  0.7550 -1.2513 -0.7727
  549MOL0     H75731  11.955   0.323   0.802  3.3864  1.6900 -0.9221
  549MOL0     H75732  12.018   0.220   0.591 -3.9563 -3.0752  0.2202
  549MOL0     H75733  12.057   0.071   0.650  1.6056 -0.4497 -0.4708
  549MOL0     H75734  12.241   0.287   0.731  1.4173 -0.6827 -1.0417
  549MOL0     H75735  12.272   0.119   0.730 -0.9059 -0.7495  0.3232
  549MOL0     H75736  12.244   0.312   0.494  0.7168 -0.3440  0.4417
  549MOL0     H75737  12.224   0.135   0.458  2.0268  0.1317 -1.1580
  549MOL0     H75738  12.451   0.099   0.566  1.3910 -0.3263 -3.1129
  549MOL0     H75739  12.475   0.280   0.556 -0.1105  1.7085 -2.4978
  549MOL0     H75740  12.584   0.174   0.367 -0.8249  1.3863 -0.1718
  549MOL0     H75741  12.435   0.239   0.308 -1.2837  0.7493 -0.0124
  549MOL0     H75742  11.575   0.215   0.610  1.4098 -2.3004 -0.3086
  549MOL0     H75743  11.338   0.164   0.508 -1.3717 -1.9558 -0.9572
  549MOL0     H75744  10.792  -0.102   0.765 -2.3046 -1.8574  0.3253
  549MOL0     H75745  10.596  -0.171   0.642 -0.5163  0.8007  0.6548
  549MOL0     H75746   8.999   0.364   0.540 -0.4947  0.3897 -2.8226
  549MOL0     H75747   8.763   0.375   0.560  1.9632  0.7189 -3.2029
  549MOL0     H75748   8.379   0.129   0.582  1.8603 -0.5804 -1.6034
  549MOL0     H75749   8.146   0.078   0.596  0.1894  0.5120  0.2953
  549MOL0     H75750   8.011  -0.096   0.469 -1.7278 -1.3660  2.8409
  549MOL0     H75751   7.966   0.022   0.581 -0.4124 -1.2816  0.5130
  549MOL0     H75752   7.787  -0.081   0.358 -0.9465  0.6427 -0.6465
  549MOL0     H75753   7.733   0.024   0.494 -0.3887 -0.9888 -0.0714
  549MOL0     H75754   7.656  -0.204   0.530 -0.5113  2.3334  0.8516
  549MOL0     H75755   7.822  -0.274   0.490  0.4986  0.2370 -0.4050
  549MOL0     H75756   7.746  -0.290   0.739 -0.0438 -0.2940  1.3694
  549MOL0     H75757   7.718  -0.130   0.753 -0.2937 -0.1027 -0.1479
  549MOL0     H75758   8.128  -0.226   0.831 -1.6756 -3.5820  1.8997
  549MOL0     H75759   8.110   0.212   0.183 -2.1034  0.2405  0.4921
  549MOL0     H75760   8.257   0.326   0.082  1.1417 -3.2455 -1.3052
  549MOL0     H75761   8.370   0.423   0.181  0.5860 -0.1929 -1.6799
  549MOL0     H75762   8.420   0.281   0.096 -1.6882  0.2309 -1.7722
  550MOL0     O75763   1.441   9.854   6.089 -0.3365  0.1287  0.1778
  550MOL0     C75764   1.406   9.741   6.052 -0.6182 -0.4719  0.1137
  550MOL0     O75765   1.403   9.632   6.133 -0.2128 -0.7816  0.7460
  550MOL0     C75766   1.434   9.651   6.266 -0.0927  0.3885  0.5423
  550MOL0     C75767   1.337   9.628   6.363  0.3009 -0.3954  0.6510
  550MOL0     C75768   1.376   9.651   6.499 -0.7583  0.1741 -0.2926
  550MOL0     C75769   1.503   9.693   6.536 -0.1071  0.3160  1.0841
  550MOL0     O75770   1.514   9.715   6.674 -0.5037 -0.8791 -0.3003
  550MOL0     C75771   1.646   9.712   6.731 -0.7947 -0.5402 -0.2841
  550MOL0     C75772   1.637   9.734   6.884  0.2678 -0.0559 -0.4382
  550MOL0     C75773   1.768   9.789   6.951 -0.5866  0.4380 -0.2637
  550MOL0     C75774   1.791   9.745   7.099 -0.1984 -1.1609  0.0448
  550MOL0     C75775   1.940   9.780   7.144  0.3299  0.2422  0.2948
  550MOL0     C75776   1.953   9.731   7.284  0.5358  0.4786 -0.3343
  550MOL0     C75777   2.089   9.711   7.327 -0.7208 -0.0127  0.0716
  550MOL0     C75778   2.165   9.843   7.349  0.1126 -0.2791 -0.0182
  550MOL0     N75779   2.306   9.814   7.397 -0.0033 -0.2266  0.2148
  550MOL0     C75780   2.406   9.769   7.313  0.3069  0.3840  0.0270
  550MOL0     C75781   2.511   9.748   7.395 -0.8988 -0.2880  0.2130
  550MOL0     C75782   2.644   9.686   7.369 -0.1620  0.8988  0.0351
  550MOL0     C75783   2.763   9.758   7.436  0.9995 -0.4342 -0.4118
  550MOL0     C75784   2.901   9.714   7.383  0.0089 -0.0701 -0.6540
  550MOL0     C75785   2.999   9.809   7.448 -0.3661 -0.2412 -0.0642
  550MOL0     O75786   2.989   9.938   7.391  0.5347 -0.0889 -0.7004
  550MOL0     C75787   3.095  10.025   7.414  0.5050 -0.6367  0.1476
  550MOL0     C75788   3.157  10.043   7.536 -0.4218  0.0602  0.1186
  550MOL0     C75789   3.279  10.119   7.547  0.6780 -0.9947  0.1565
  550MOL0     C75790   3.343  10.135   7.684 -0.1732  0.2315 -0.1859
  550MOL0     C75791   3.313  10.205   7.441 -0.4247 -0.7481  0.4776
  550MOL0     C75792   3.425  10.304   7.448  0.0638 -0.3614 -0.0516
  550MOL0     O75793   3.405  10.407   7.356 -0.6892 -0.7302  0.2803
  550MOL0     C75794   3.508  10.498   7.319  0.7425 -0.0022 -0.6535
  550MOL0     C75795   3.575  10.476   7.190  0.4699 -0.5616  0.1507
  550MOL0     C75796   3.675  10.561   7.161  0.1806 -0.5039  0.7417
  550MOL0     C75797   3.719  10.661   7.245 -0.3187  0.6429  1.1458
  550MOL0     O75798   3.835  10.722   7.192 -0.2168  0.4428  0.0077
  550MOL0     C75799   3.911  10.791   7.291 -0.2584 -0.1373  0.0852
  550MOL0     C75800   4.048  10.834   7.241 -0.6297 -0.8341  0.4561
  550MOL0     C75801   4.051  10.942   7.139 -0.4190 -1.2014  0.1667
  550MOL0     C75802   4.179  11.032   7.138 -1.0511  0.3651  1.0563
  550MOL0     C75803   4.216  11.084   6.994  0.3835  0.3511  0.2122
  550MOL0     C75804   4.332  11.175   6.977 -0.0716  0.7210 -0.1190
  550MOL0     C75805   4.464  11.113   7.043 -0.9711 -0.0583  0.4136
  550MOL0     C75806   4.586  11.208   7.006  0.9577 -0.3700  0.5637
  550MOL0    Cl75807   4.740  11.162   7.082  0.2083 -0.0189  0.3326
  550MOL0     C75808   3.658  10.683   7.373 -0.6780  0.6866  0.1717
  550MOL0     C75809   3.550  10.605   7.410  0.2813 -0.7420  0.1527
  550MOL0     O75810   3.518  10.296   7.531  0.0445  0.4004 -0.4158
  550MOL0     C75811   3.239  10.198   7.315 -0.6098 -0.6935  0.2014
  550MOL0     C75812   3.130  10.115   7.308  0.1143 -0.0489  0.0287
  550MOL0     N75813   2.473   9.783   7.525 -0.8927  0.1932  0.2232
  550MOL0     N75814   2.351   9.828   7.526 -0.4588  0.2304  0.6017
  550MOL0     C75815   1.599   9.715   6.442 -0.4804 -0.1086  0.2823
  550MOL0     C75816   1.567   9.683   6.307 -1.2990  0.8208 -0.3180
  550MOL0     C75817   1.356   9.728   5.911  0.9744  0.4891  0.2038
  550MOL0     C75818   1.278   9.836   5.867 -0.1364  0.0667  0.0344
  550MOL0     C75819   1.226   9.842   5.736 -0.1348  0.9411 -0.0780
  550MOL0     C75820   1.253   9.733   5.654 -0.5076  0.4221  1.1491
  550MOL0     O75821   1.202   9.728   5.527  0.2415 -0.1597  1.4748
  550MOL0     C75822   1.155   9.855   5.467 -0.1716 -0.0453  0.1762
  550MOL0     C75823   1.278   9.953   5.453  0.0007 -0.7316  0.2680
  550MOL0     C75824   1.320   9.998   5.307 -0.1655  0.6960  0.4187
  550MOL0     C75825   1.438  10.099   5.303  0.9095 -0.8624  0.0957
  550MOL0     C75826   1.564  10.031   5.324 -0.3683 -0.0946  0.4519
  550MOL0     C75827   1.662   9.959   5.340  0.4848  0.4918 -0.1758
  550MOL0     C75828   1.344   9.632   5.691  0.1231 -0.5474 -0.3095
  550MOL0     C75829   1.393   9.626   5.824  0.1378 -0.2664  0.3489
  550MOL0     C75830   1.493   9.522   5.871  0.0384 -1.1727  0.5084
  550MOL0     H75831   1.235   9.610   6.331  0.8645 -2.3740 -0.2243
  550MOL0     H75832   1.299   9.648   6.574 -1.8919 -2.4815 -1.4502
  550MOL0     H75833   1.706   9.790   6.683 -0.9268 -0.2825 -0.0359
  550MOL0     H75834   1.685   9.614   6.702 -1.0047 -0.2654 -1.5576
  550MOL0     H75835   1.567   9.817   6.894  1.0013  0.5331 -0.0943
  550MOL0     H75836   1.599   9.644   6.933  0.3041 -1.0885 -2.2014
  550MOL0     H75837   1.857   9.754   6.897  0.0513  2.2607 -0.4701
  550MOL0     H75838   1.774   9.898   6.951 -0.8067  0.4608  0.5677
  550MOL0     H75839   1.728   9.814   7.156 -0.0530  1.9237 -3.2239
  550MOL0     H75840   1.750   9.644   7.108 -3.6325 -0.2269 -2.5714
  550MOL0     H75841   1.951   9.889   7.147 -1.0685  0.3971  0.2604
  550MOL0     H75842   2.011   9.736   7.073  2.3433  4.0263 -0.3319
  550MOL0     H75843   1.895   9.795   7.351  0.5507  0.3212 -0.1675
  550MOL0     H75844   1.904   9.633   7.289 -0.0624  0.8364  2.1573
  550MOL0     H75845   2.150   9.663   7.250  0.0192  0.8121  0.1208
  550MOL0     H75846   2.094   9.649   7.418  5.0568 -0.3233 -0.0423
  550MOL0     H75847   2.159   9.889   7.251  0.3133 -0.4337 -0.1026
  550MOL0     H75848   2.118   9.902   7.429  0.8636 -1.0953  1.0635
  550MOL0     H75849   2.402   9.755   7.205  0.2853 -1.5713  0.2331
  550MOL0     H75850   2.659   9.682   7.260 -0.0122 -0.2180  0.0936
  550MOL0     H75851   2.632   9.583   7.401  2.3714  0.1000 -1.3381
  550MOL0     H75852   2.742   9.863   7.411 -0.6987 -1.3624 -3.3602
  550MOL0     H75853   2.762   9.736   7.543  1.1708 -1.3629 -0.5940
  550MOL0     H75854   2.923   9.614   7.419  1.8346  0.2850 -0.7169
  550MOL0     H75855   2.903   9.722   7.274 -0.6382 -0.1604 -0.6792
  550MOL0     H75856   2.978   9.824   7.554  3.1837 -0.2089  0.7251
  550MOL0     H75857   3.102   9.775   7.456 -0.8358 -1.1605  3.5663
  550MOL0     H75858   3.121   9.995   7.627  1.0571  2.1617  1.9296
  550MOL0     H75859   3.330  10.241   7.708 -0.8408  0.2649 -0.6533
  550MOL0     H75860   3.447  10.104   7.674  0.3559  2.3838 -2.6991
  550MOL0     H75861   3.292  10.072   7.757  0.2607 -0.4117 -0.4288
  550MOL0     H75862   3.558  10.402   7.113 -1.4338 -1.3591  1.2587
  550MOL0     H75863   3.734  10.539   7.072  1.4233  0.3117  1.3272
  550MOL0     H75864   3.850  10.877   7.321 -0.3311 -0.2349  0.2169
  550MOL0     H75865   3.917  10.724   7.377 -2.2342  1.7260  1.8159
  550MOL0     H75866   4.109  10.866   7.327 -3.1397 -0.1833  2.1040
  550MOL0     H75867   4.084  10.740   7.198 -1.7647 -0.4308 -1.4442
  550MOL0     H75868   3.962  11.003   7.155 -0.2042 -0.8773  0.1338
  550MOL0     H75869   4.033  10.902   7.039 -3.3808 -0.3564  0.2869
  550MOL0     H75870   4.260  10.968   7.175 -0.0115  1.4823  0.7738
  550MOL0     H75871   4.170  11.122   7.200 -3.2057  0.8633  0.0984
  550MOL0     H75872   4.222  10.995   6.932 -1.4584  1.2611 -1.3946
  550MOL0     H75873   4.127  11.140   6.962  1.6105  1.5346 -1.3036
  550MOL0     H75874   4.307  11.263   7.036 -0.9866  0.0765  0.4910
  550MOL0     H75875   4.345  11.199   6.871  0.1252  0.0023 -0.2640
  550MOL0     H75876   4.467  11.010   7.007 -3.7505 -1.1194  2.8773
  550MOL0     H75877   4.459  11.101   7.152 -0.1959 -0.8336  0.3819
  550MOL0     H75878   4.549  11.302   7.050  0.0964 -1.2508  1.7699
  550MOL0     H75879   4.590  11.216   6.897  0.7054 -1.8091  0.4360
  550MOL0     H75880   3.689  10.767   7.434  1.7447 -0.7076  0.9615
  550MOL0     H75881   3.492  10.621   7.500 -3.5340 -1.1852 -2.0132
  550MOL0     H75882   3.264  10.269   7.237  1.5364 -2.2915 -0.6622
  550MOL0     H75883   3.068  10.110   7.219  0.1014 -0.8877  0.0718
  550MOL0     H75884   1.697   9.749   6.474  0.5355 -0.7124 -1.9974
  550MOL0     H75885   1.643   9.683   6.229 -0.3301 -3.9178  0.3295
  550MOL0     H75886   1.245   9.918   5.929 -0.7567  1.4422 -1.9930
  550MOL0     H75887   1.167   9.931   5.720  0.0375  1.0392 -0.1821
  550MOL0     H75888   1.115   9.828   5.369  2.1154  0.5187 -0.9761
  550MOL0     H75889   1.072   9.899   5.524  0.4584  0.6577  0.5723
  550MOL0     H75890   1.370   9.920   5.503  0.1742  1.3848  1.4604
  550MOL0     H75891   1.254  10.049   5.499  1.0122  0.7628 -2.1232
  550MOL0     H75892   1.351   9.904   5.260  4.1067  1.1916  1.8472
  550MOL0     H75893   1.229  10.042   5.267 -0.6673  0.8348  1.6624
  550MOL0     H75894   1.424  10.172   5.383  1.1777  0.0862 -0.7175
  550MOL0     H75895   1.432  10.142   5.203 -1.1920  1.7188  1.2137
  550MOL0     H75896   1.750   9.899   5.336  0.6791  0.7621  0.0790
  550MOL0     H75897   1.372   9.547   5.631 -0.7840 -0.3206 -1.0801
  550MOL0     H75898   1.582   9.575   5.906  0.0987  0.0575 -1.4210
  550MOL0     H75899   1.452   9.458   5.950  1.5434 -1.8219  0.7938
  550MOL0     H75900   1.510   9.463   5.781 -0.4738  0.5101 -0.7329
  551MOL0     O75901   3.698   6.147   4.878  0.3495 -0.6457  0.1584
  551MOL0     C75902   3.698   6.075   4.980 -0.7612 -0.0495 -0.3133
  551MOL0     O75903   3.607   6.098   5.081 -0.2309  0.5351  0.1535
  551MOL0     C75904   3.517   6.197   5.055  0.6178  0.2179  0.6651
  551MOL0     C75905   3.545   6.334   5.067 -0.3042  1.0312  0.2105
  551MOL0     C75906   3.451   6.426   5.057 -0.2961 -0.0291  0.3048
  551MOL0     C75907   3.318   6.390   5.030 -0.2338 -0.2242 -0.9692
  551MOL0     O75908   3.223   6.482   5.034  0.0292  0.4276  0.6747
  551MOL0     C75909   3.248   6.620   4.996  0.5105 -0.4877 -0.0860
  551MOL0     C75910   3.280   6.731   5.109  0.1076  0.2725  0.0866
  551MOL0     C75911   3.334   6.872   5.057 -0.1753 -0.1035 -0.1391
  551MOL0     C75912   3.338   6.973   5.176 -0.0440 -0.0115 -0.3813
  551MOL0     C75913   3.392   7.106   5.151 -0.6004  1.1669 -0.7447
  551MOL0     C75914   3.306   7.197   5.064  0.1700  0.0689  0.8390
  551MOL0     C75915   3.352   7.343   5.079 -0.9727  0.2683 -1.1082
  551MOL0     C75916   3.305   7.438   4.955  0.1795  0.4233 -0.8643
  551MOL0     N75917   3.372   7.570   4.982 -0.3674  0.2331 -0.6900
  551MOL0     C75918   3.496   7.588   4.921  0.1154  0.5781  0.5656
  551MOL0     C75919   3.502   7.726   4.932 -0.2784 -0.2260  0.4641
  551MOL0     C75920   3.632   7.795   4.896  0.0084 -0.1737  0.0129
  551MOL0     C75921   3.622   7.849   4.755 -0.7779  0.2439 -0.5260
  551MOL0     C75922   3.639   7.744   4.632 -0.2318  0.6773 -1.1975
  551MOL0     C75923   3.789   7.699   4.624  0.6752 -0.5056  0.3113
  551MOL0     O75924   3.876   7.793   4.567 -0.4266  0.2061  0.1936
  551MOL0     C75925   4.010   7.761   4.577 -1.0161  1.4755 -0.2229
  551MOL0     C75926   4.078   7.823   4.478  0.5610  0.5305  0.5196
  551MOL0     C75927   4.218   7.818   4.464 -0.1972  0.1461 -0.3199
  551MOL0     C75928   4.281   7.896   4.351 -0.6771  0.7218 -0.0969
  551MOL0     C75929   4.288   7.741   4.561 -0.1160 -0.2634  0.2469
  551MOL0     C75930   4.439   7.734   4.563 -0.5030 -0.4951 -0.2729
  551MOL0     O75931   4.518   7.778   4.459 -1.1934 -0.1795 -0.5893
  551MOL0     C75932   4.654   7.738   4.462 -0.1141  0.0317 -0.0782
  551MOL0     C75933   4.691   7.609   4.433  0.2288  0.1242  1.0025
  551MOL0     C75934   4.821   7.567   4.439  0.1831 -0.4744 -0.8151
  551MOL0     C75935   4.925   7.657   4.464 -0.6279  0.2944 -0.4617
  551MOL0     O75936   5.054   7.629   4.466 -0.6047 -0.6683 -0.8146
  551MOL0     C75937   5.106   7.507   4.508  0.1435  1.0474 -0.7362
  551MOL0     C75938   5.254   7.523   4.543  0.2881 -0.7124 -0.0566
  551MOL0     C75939   5.352   7.524   4.424 -1.1690 -0.9082 -0.3525
  551MOL0     C75940   5.487   7.559   4.475  0.3663 -0.2616 -0.5629
  551MOL0     C75941   5.598   7.513   4.382  0.4938 -1.3039  1.3098
  551MOL0     C75942   5.740   7.560   4.427  0.7818  0.7642  0.5931
  551MOL0     C75943   5.834   7.440   4.444  0.5130  0.2400  1.0948
  551MOL0     C75944   5.978   7.482   4.474  0.3559  0.3771  0.0663
  551MOL0    Cl75945   5.959   7.538   4.640 -0.6746  0.4811  0.0123
  551MOL0     C75946   4.886   7.784   4.504 -0.2440  0.3297 -0.3351
  551MOL0     C75947   4.755   7.826   4.493 -1.3298 -0.0109 -0.4325
  551MOL0     O75948   4.481   7.692   4.668 -0.0526 -1.0187 -0.1394
  551MOL0     C75949   4.209   7.669   4.661 -0.1974 -0.3205  0.8808
  551MOL0     C75950   4.068   7.676   4.663 -1.1542 -0.6068 -0.0248
  551MOL0     N75951   3.391   7.791   4.994  0.4333 -0.1781  0.2858
  551MOL0     N75952   3.314   7.690   5.023  0.8719  0.2700  0.7245
  551MOL0     C75953   3.287   6.255   5.041 -0.0330 -0.1436  0.5111
  551MOL0     C75954   3.387   6.160   5.028  0.3029 -0.2720  0.0385
  551MOL0     C75955   3.819   5.989   4.998  0.1030  0.1120 -0.1010
  551MOL0     C75956   3.872   5.983   5.131 -0.4463  0.6409 -0.2455
  551MOL0     C75957   3.987   5.914   5.161 -0.7087 -0.4087 -0.0149
  551MOL0     C75958   4.056   5.845   5.065 -0.4085 -0.7130 -0.6905
  551MOL0     O75959   4.170   5.773   5.094 -0.1247  0.2651  0.7808
  551MOL0     C75960   4.169   5.633   5.079 -0.5548  0.2238 -0.0315
  551MOL0     C75961   4.198   5.559   5.211  0.5253 -0.3467  0.0346
  551MOL0     C75962   4.224   5.412   5.187 -0.1496  0.1838  0.1572
  551MOL0     C75963   4.264   5.331   5.308 -0.6819 -0.2491 -0.3551
  551MOL0     C75964   4.400   5.371   5.343 -0.1902 -0.3823  0.0916
  551MOL0     C75965   4.515   5.402   5.368 -0.3924  0.5785  0.1625
  551MOL0     C75966   3.997   5.835   4.941  0.5786 -0.0449  0.2734
  551MOL0     C75967   3.871   5.904   4.904 -0.9072  0.6130  0.0470
  551MOL0     C75968   3.826   5.893   4.758  0.4064 -0.5591  0.1557
  551MOL0     H75969   3.647   6.353   5.098 -0.3015  0.7108  0.4106
  551MOL0     H75970   3.484   6.528   5.075  3.7067 -1.2842  1.2028
  551MOL0     H75971   3.170   6.656   4.929  2.5035  1.8221 -1.3247
  551MOL0     H75972   3.335   6.628   4.931  0.7081 -3.0073 -0.2469
  551MOL0     H75973   3.182   6.748   5.156 -0.0199  1.0895 -0.4490
  551MOL0     H75974   3.363   6.693   5.169 -0.8984  0.2352  1.4983
  551MOL0     H75975   3.434   6.854   5.017 -0.2912 -0.4682 -0.2655
  551MOL0     H75976   3.256   6.913   4.992  0.1439  0.9499  0.1291
  551MOL0     H75977   3.237   6.985   5.215  0.4185  2.1821  0.2828
  551MOL0     H75978   3.407   6.920   5.243  1.1320  1.8251 -0.0582
  551MOL0     H75979   3.490   7.089   5.104 -1.3230 -2.9774 -1.1471
  551MOL0     H75980   3.409   7.148   5.251 -0.0073 -0.4123 -0.1470
  551MOL0     H75981   3.311   7.165   4.959 -1.8189  3.2255 -0.3657
  551MOL0     H75982   3.203   7.202   5.100 -0.1139  1.5790 -0.0918
  551MOL0     H75983   3.460   7.356   5.090 -1.1827  2.1855 -0.9525
  551MOL0     H75984   3.311   7.377   5.174 -1.2342 -0.3016 -1.0166
  551MOL0     H75985   3.332   7.398   4.857 -0.9554  0.4305 -1.1974
  551MOL0     H75986   3.195   7.439   4.957  0.1411 -1.1776 -0.2048
  551MOL0     H75987   3.564   7.515   4.880 -2.2408 -1.5536  0.1775
  551MOL0     H75988   3.720   7.731   4.896 -0.4543 -0.8304  0.4415
  551MOL0     H75989   3.639   7.876   4.970 -2.7161 -0.4092  0.6468
  551MOL0     H75990   3.529   7.904   4.742 -1.0834 -0.2599 -0.4743
  551MOL0     H75991   3.698   7.927   4.742 -2.7271  2.3374  0.0929
  551MOL0     H75992   3.576   7.656   4.647  1.4661 -0.6079 -1.4139
  551MOL0     H75993   3.601   7.789   4.540 -2.5247  0.0710 -0.6151
  551MOL0     H75994   3.831   7.680   4.723  0.0321 -1.7833  0.3661
  551MOL0     H75995   3.809   7.619   4.551  0.6585 -1.2980  1.1471
  551MOL0     H75996   4.015   7.877   4.407  0.6119  1.2365  0.9975
  551MOL0     H75997   4.305   7.825   4.272  3.2125  1.7775 -0.0460
  551MOL0     H75998   4.374   7.939   4.390 -1.0787  1.3591  0.1787
  551MOL0     H75999   4.216   7.976   4.314 -4.6260 -1.2552  1.8874
  551MOL0     H76000   4.616   7.537   4.403 -1.7230  3.0793 -1.8091
  551MOL0     H76001   4.839   7.467   4.402 -2.7967 -1.4698  0.1752
  551MOL0     H76002   5.056   7.478   4.600 -0.3977  2.1384 -0.6671
  551MOL0     H76003   5.088   7.438   4.425 -1.0436 -0.3739  0.6384
  551MOL0     H76004   5.270   7.614   4.601  1.3010 -0.5697 -0.5318
  551MOL0     H76005   5.276   7.438   4.609  1.5940 -0.7665 -0.5278
  551MOL0     H76006   5.325   7.595   4.346  0.1357 -0.1420 -0.1462
  551MOL0     H76007   5.344   7.423   4.383 -0.4843 -0.3689 -1.9275
  551MOL0     H76008   5.501   7.514   4.573  1.2271 -0.2260 -0.6633
  551MOL0     H76009   5.497   7.667   4.484 -1.6412  0.3307 -3.6727
  551MOL0     H76010   5.601   7.407   4.356 -1.3475 -1.1410  0.2888
  551MOL0     H76011   5.583   7.571   4.290  3.6541  1.1893  2.1821
  551MOL0     H76012   5.736   7.609   4.525 -0.9918 -1.8578  1.9463
  551MOL0     H76013   5.782   7.645   4.373 -0.6798  2.5344  2.0746
  551MOL0     H76014   5.843   7.383   4.351  3.1141  0.9963  0.7992
  551MOL0     H76015   5.797   7.382   4.529 -2.9219  0.8778  0.2079
  551MOL0     H76016   5.996   7.557   4.396 -4.4573  0.7366 -1.0594
  551MOL0     H76017   6.045   7.397   4.459 -0.5271  0.2615 -5.2569
  551MOL0     H76018   4.957   7.851   4.553 -3.5046  2.2820  2.1338
  551MOL0     H76019   4.720   7.925   4.519 -3.0269 -0.8329  0.5986
  551MOL0     H76020   4.250   7.605   4.738 -0.8327 -0.9172  0.7283
  551MOL0     H76021   4.014   7.621   4.739 -3.2370  1.9092  0.4468
  551MOL0     H76022   3.181   6.232   5.036  0.2342 -1.2623 -2.4654
  551MOL0     H76023   3.363   6.054   5.028 -0.9916 -0.0155 -1.4777
  551MOL0     H76024   3.826   6.033   5.216  0.0296 -0.8920  0.9556
  551MOL0     H76025   4.036   5.927   5.256 -3.3105 -2.5833  1.7664
  551MOL0     H76026   4.076   5.597   5.034 -0.3528 -0.2202 -0.0967
  551MOL0     H76027   4.239   5.594   5.005 -0.9180  1.8120 -1.2504
  551MOL0     H76028   4.120   5.578   5.286  1.1702 -0.2709  0.6981
  551MOL0     H76029   4.290   5.601   5.252  1.5666  1.0651 -3.4237
  551MOL0     H76030   4.136   5.364   5.143 -0.9790 -0.2438  2.1721
  551MOL0     H76031   4.309   5.396   5.120 -0.1821 -1.5512  0.4732
  551MOL0     H76032   4.252   5.223   5.300 -0.9914 -0.2513  0.0568
  551MOL0     H76033   4.187   5.347   5.384 -1.0697 -0.6692 -0.6570
  551MOL0     H76034   4.620   5.422   5.367 -0.6255  1.8791  0.1283
  551MOL0     H76035   4.045   5.781   4.860  0.3411 -0.1536  0.2019
  551MOL0     H76036   3.772   5.799   4.743 -3.3174  1.0931  1.9988
  551MOL0     H76037   3.793   5.984   4.707 -0.2436 -1.1099 -0.4339
  551MOL0     H76038   3.924   5.892   4.709  2.2454  0.5045  3.5032
  552MOL0     O76039   6.788   4.424   6.429  0.1079  0.4293 -0.2041
  552MOL0     C76040   6.717   4.514   6.388 -0.0748 -0.4978  0.8556
  552MOL0     O76041   6.588   4.542   6.418 -0.0938  0.1997 -0.9191
  552MOL0     C76042   6.495   4.453   6.473  0.6825 -0.8433 -0.1491
  552MOL0     C76043   6.363   4.501   6.481 -0.2189  0.2260 -0.9363
  552MOL0     C76044   6.267   4.422   6.534 -0.3471  0.3568 -0.2616
  552MOL0     C76045   6.296   4.300   6.593 -0.8412 -0.0039  0.4299
  552MOL0     O76046   6.206   4.205   6.625  0.9451  0.7084 -0.1762
  552MOL0     C76047   6.226   4.133   6.742 -0.7180  1.0729 -0.6394
  552MOL0     C76048   6.139   4.013   6.750  0.5532  0.9786 -0.2132
  552MOL0     C76049   5.982   4.038   6.743 -0.4734 -0.8830  0.0767
  552MOL0     C76050   5.914   3.926   6.648 -0.0931 -0.2389 -0.3095
  552MOL0     C76051   5.759   3.938   6.643 -0.6955  0.9045 -0.5257
  552MOL0     C76052   5.694   3.872   6.769  0.2002  0.3119 -0.0094
  552MOL0     C76053   5.540   3.900   6.767  0.2256  0.8522 -0.1726
  552MOL0     C76054   5.487   3.905   6.916  0.3026  0.0434  0.1899
  552MOL0     N76055   5.345   3.881   6.915  0.1016 -0.6125 -1.0482
  552MOL0     C76056   5.280   3.778   6.981 -0.4626 -1.0984 -0.7859
  552MOL0     C76057   5.146   3.798   6.951 -0.8463  0.1966 -0.6796
  552MOL0     C76058   5.062   3.680   6.990 -0.0989 -0.6770  0.5630
  552MOL0     C76059   5.005   3.696   7.130  0.3329 -0.0433  0.1511
  552MOL0     C76060   4.966   3.556   7.179 -0.1417 -0.1540 -0.2924
  552MOL0     C76061   4.868   3.481   7.092 -0.6347  0.9345  0.3325
  552MOL0     O76062   4.751   3.567   7.083  0.8463 -0.2414 -0.8200
  552MOL0     C76063   4.644   3.542   6.998  0.3161 -0.3668  0.1287
  552MOL0     C76064   4.541   3.636   7.002 -0.0404  0.2209 -0.2955
  552MOL0     C76065   4.435   3.636   6.912  1.0513 -0.3544 -0.1396
  552MOL0     C76066   4.340   3.757   6.943  0.6181  0.0796  0.1830
  552MOL0     C76067   4.436   3.542   6.803 -0.7986 -0.4704  0.8859
  552MOL0     C76068   4.321   3.537   6.711  0.0497  0.4376  0.6201
  552MOL0     O76069   4.298   3.412   6.651 -0.6082  0.7119  0.5570
  552MOL0     C76070   4.197   3.396   6.559  0.4217 -0.4610  0.5546
  552MOL0     C76071   4.217   3.303   6.451  0.4036  0.2594 -0.6343
  552MOL0     C76072   4.102   3.285   6.358 -0.1721  0.4582 -0.8181
  552MOL0     C76073   3.979   3.334   6.387 -0.1245 -0.2690 -0.2414
  552MOL0     O76074   3.870   3.285   6.319 -0.2205 -0.0699  0.2260
  552MOL0     C76075   3.769   3.374   6.272 -0.2888  0.3365  1.1031
  552MOL0     C76076   3.671   3.306   6.175  0.5384  0.0394 -0.8925
  552MOL0     C76077   3.739   3.254   6.048  0.5076 -0.1009  0.3580
  552MOL0     C76078   3.647   3.199   5.936 -0.3952  0.2476  0.5910
  552MOL0     C76079   3.560   3.080   5.987 -0.3269  0.0204  0.4113
  552MOL0     C76080   3.490   3.006   5.867  0.4839  0.0618  0.2061
  552MOL0     C76081   3.440   2.877   5.930 -0.1796  0.2767  0.4806
  552MOL0     C76082   3.405   2.779   5.823 -0.4940  0.8452  0.2092
  552MOL0    Cl76083   3.327   2.637   5.904 -0.2394  0.0598  0.6492
  552MOL0     C76084   3.960   3.418   6.492  0.7467 -0.0604 -0.6660
  552MOL0     C76085   4.065   3.445   6.576 -0.9036 -0.6682 -0.4529
  552MOL0     O76086   4.256   3.640   6.689  0.0723 -1.0152  0.2636
  552MOL0     C76087   4.542   3.447   6.793 -0.0639  0.4651 -0.5658
  552MOL0     C76088   4.643   3.448   6.891  0.1486  0.4344 -0.5838
  552MOL0     N76089   5.131   3.918   6.877  0.0375  0.2738 -1.0083
  552MOL0     N76090   5.254   3.965   6.856  0.3179  0.2759  0.0255
  552MOL0     C76091   6.430   4.256   6.587 -0.0304 -0.6584  0.4937
  552MOL0     C76092   6.531   4.330   6.526  0.6627  0.5884  1.0251
  552MOL0     C76093   6.789   4.620   6.303 -0.1461  0.3411  0.4156
  552MOL0     C76094   6.739   4.750   6.307  0.0971  0.3636 -0.0494
  552MOL0     C76095   6.799   4.863   6.254 -0.2936  0.3549 -0.3623
  552MOL0     C76096   6.930   4.856   6.204 -0.4488 -0.5155  0.5071
  552MOL0     O76097   6.971   4.975   6.138 -0.5663  0.4696 -0.1896
  552MOL0     C76098   7.112   4.984   6.113 -0.2587 -0.1926 -0.1547
  552MOL0     C76099   7.180   5.119   6.114  0.8946  0.1189  0.6911
  552MOL0     C76100   7.185   5.185   6.261  0.1863  0.0982 -0.1020
  552MOL0     C76101   7.248   5.325   6.256 -1.0054 -0.7002  0.2108
  552MOL0     C76102   7.267   5.390   6.393 -0.0823 -0.2901  0.2168
  552MOL0     C76103   7.287   5.435   6.505 -0.2927 -0.3958 -0.6035
  552MOL0     C76104   6.994   4.732   6.204 -0.5715  0.5897  0.2676
  552MOL0     C76105   6.934   4.614   6.257 -0.1696  0.1160 -0.7148
  552MOL0     C76106   7.025   4.496   6.269 -0.3448 -0.3207  0.4095
  552MOL0     H76107   6.348   4.601   6.441  1.0931  0.9577  0.3239
  552MOL0     H76108   6.165   4.457   6.523 -0.5967 -0.2014  0.2342
  552MOL0     H76109   6.195   4.199   6.824 -1.0032  0.3454 -0.1517
  552MOL0     H76110   6.326   4.103   6.774 -1.9323 -0.6440  1.7698
  552MOL0     H76111   6.170   3.944   6.671 -2.3147  1.9286 -2.3253
  552MOL0     H76112   6.147   3.952   6.840 -2.8336  2.7194  1.4244
  552MOL0     H76113   5.929   4.033   6.838 -2.7080 -1.3839 -1.1208
  552MOL0     H76114   5.965   4.139   6.705 -1.5850 -1.4247 -0.9471
  552MOL0     H76115   5.952   3.935   6.546  2.8745 -0.7815  0.6366
  552MOL0     H76116   5.953   3.827   6.674  1.3803  0.3090 -0.3576
  552MOL0     H76117   5.729   3.879   6.556 -0.9242  0.3084 -0.0571
  552MOL0     H76118   5.742   4.046   6.640  1.3515  1.3023  0.5345
  552MOL0     H76119   5.713   3.766   6.756  1.3151  0.4322  0.4847
  552MOL0     H76120   5.734   3.911   6.863  0.9166 -1.2256  0.3387
  552MOL0     H76121   5.497   3.822   6.704 -0.0510  0.8505  0.0157
  552MOL0     H76122   5.520   3.999   6.723 -2.6444 -0.2591 -1.6420
  552MOL0     H76123   5.528   3.819   6.970  1.9905 -0.3749 -1.6277
  552MOL0     H76124   5.515   3.992   6.975  2.4275 -1.8001  2.0999
  552MOL0     H76125   5.323   3.701   7.045 -2.4912  0.2258  2.4245
  552MOL0     H76126   5.114   3.586   6.974 -0.2816 -0.6224 -0.4181
  552MOL0     H76127   4.978   3.667   6.921 -0.0735 -3.2583  0.9206
  552MOL0     H76128   5.088   3.736   7.188  0.5166  1.8785 -1.3124
  552MOL0     H76129   4.916   3.760   7.131  0.4456  0.1051  0.6916
  552MOL0     H76130   5.063   3.504   7.183 -0.4498 -0.7667 -0.6341
  552MOL0     H76131   4.918   3.562   7.277 -1.1244 -1.6875 -0.6481
  552MOL0     H76132   4.903   3.454   6.992 -1.1434 -0.3061  0.4692
  552MOL0     H76133   4.830   3.396   7.149 -1.8869  1.9617  1.1047
  552MOL0     H76134   4.548   3.711   7.081 -0.0058 -1.3204  1.2295
  552MOL0     H76135   4.382   3.845   6.894 -0.3574  2.4864  3.3314
  552MOL0     H76136   4.326   3.782   7.049  0.3329 -2.5169  0.8332
  552MOL0     H76137   4.237   3.732   6.915 -0.0779  0.6470  2.0837
  552MOL0     H76138   4.310   3.254   6.424  0.6715  0.5591 -0.2661
  552MOL0     H76139   4.126   3.215   6.278  1.4852  0.1280 -0.0782
  552MOL0     H76140   3.706   3.401   6.357 -0.0663  1.0029  1.0617
  552MOL0     H76141   3.822   3.460   6.230  1.5676  0.3721  3.3474
  552MOL0     H76142   3.604   3.239   6.230  0.4277  2.7291  2.6089
  552MOL0     H76143   3.607   3.390   6.147 -0.3425  0.0314  0.9667
  552MOL0     H76144   3.803   3.168   6.069  0.0909 -0.1999  1.2692
  552MOL0     H76145   3.807   3.330   6.009  1.2524 -1.1830 -0.5279
  552MOL0     H76146   3.705   3.172   5.848  1.5591 -1.0786  2.1930
  552MOL0     H76147   3.584   3.281   5.901 -1.6955 -0.4691  1.1523
  552MOL0     H76148   3.622   3.015   6.050 -0.4552  0.6017  1.1472
  552MOL0     H76149   3.478   3.104   6.055  1.3521  2.2158  1.7831
  552MOL0     H76150   3.554   2.989   5.781 -1.2428 -0.1212 -1.1071
  552MOL0     H76151   3.408   3.060   5.818  2.8712  2.0148 -1.8684
  552MOL0     H76152   3.355   2.893   5.997 -0.0625 -1.6908  1.1861
  552MOL0     H76153   3.522   2.833   5.987 -1.6938  1.0347  3.4201
  552MOL0     H76154   3.497   2.745   5.774 -0.6802  2.7089 -1.5613
  552MOL0     H76155   3.347   2.808   5.735 -0.8081 -1.0366 -0.2688
  552MOL0     H76156   3.862   3.464   6.494  0.6745 -0.1316 -1.8566
  552MOL0     H76157   4.047   3.517   6.655 -0.9825  0.4871 -1.4869
  552MOL0     H76158   4.549   3.372   6.715 -1.1369  1.9861 -2.2076
  552MOL0     H76159   4.720   3.373   6.880  0.9400  0.5246  2.9506
  552MOL0     H76160   6.469   4.158   6.616  3.0609  0.4677  0.5501
  552MOL0     H76161   6.625   4.276   6.524 -0.0480 -0.6721  0.7837
  552MOL0     H76162   6.638   4.761   6.345  0.3898  0.1004  0.8105
  552MOL0     H76163   6.764   4.965   6.263  1.3114  0.7768  1.5678
  552MOL0     H76164   7.173   4.927   6.183 -0.6514 -0.4763 -0.0418
  552MOL0     H76165   7.138   4.939   6.017  1.8158  1.3097 -0.3736
  552MOL0     H76166   7.132   5.189   6.044 -2.2899  0.3341  2.8864
  552MOL0     H76167   7.278   5.112   6.066  1.3881  0.9425  1.5444
  552MOL0     H76168   7.089   5.186   6.313 -0.8262 -0.1557 -1.8596
  552MOL0     H76169   7.251   5.122   6.321  1.0899  1.5979  0.5160
  552MOL0     H76170   7.193   5.381   6.180  0.5772  1.7769  0.7933
  552MOL0     H76171   7.350   5.313   6.221 -0.5458 -2.2106  1.9185
  552MOL0     H76172   7.297   5.463   6.608 -1.8102  2.4701 -1.1267
  552MOL0     H76173   7.095   4.725   6.165 -0.8772  0.6640 -0.5739
  552MOL0     H76174   7.051   4.472   6.372 -1.2858 -0.6186  0.5851
  552MOL0     H76175   6.978   4.408   6.225 -2.8011 -0.3890  2.8799
  552MOL0     H76176   7.117   4.520   6.214 -0.9143  3.0048  0.6740
  553MOL0     O76177   6.939  10.082   3.358 -0.2983 -0.1405 -0.0082
  553MOL0     C76178   6.957  10.174   3.276 -0.3424  0.1462 -0.1360
  553MOL0     O76179   6.934  10.308   3.292 -0.0783 -0.2058 -0.6438
  553MOL0     C76180   6.901  10.341   3.418  0.2038  0.1727  0.4821
  553MOL0     C76181   6.783  10.412   3.443  1.0574  0.5696 -0.0265
  553MOL0     C76182   6.749  10.482   3.571  0.5977 -1.1494  1.1315
  553MOL0     C76183   6.830  10.462   3.680 -0.4229 -0.4978  0.7622
  553MOL0     O76184   6.825  10.505   3.808 -0.0021 -0.0453  0.1296
  553MOL0     C76185   6.694  10.524   3.867 -0.6577 -0.1244 -0.8029
  553MOL0     C76186   6.715  10.634   3.976  0.9335  0.0073  1.2143
  553MOL0     C76187   6.790  10.571   4.099 -0.1527 -0.0198 -0.6394
  553MOL0     C76188   6.812  10.674   4.209  0.4976 -0.5541 -0.1424
  553MOL0     C76189   6.683  10.723   4.274 -0.3588 -0.2928 -0.1405
  553MOL0     C76190   6.585  10.613   4.333  0.5233  0.1765  0.1748
  553MOL0     C76191   6.535  10.678   4.463  0.9254 -0.7010 -0.3894
  553MOL0     C76192   6.381  10.670   4.465 -0.6385 -0.0264 -0.3083
  553MOL0     N76193   6.321  10.705   4.590 -0.3200 -0.2528 -0.0191
  553MOL0     C76194   6.200  10.641   4.620 -0.7936 -0.9365 -0.0840
  553MOL0     C76195   6.173  10.690   4.747  0.1801  0.5248 -0.7322
  553MOL0     C76196   6.042  10.642   4.807  0.0051 -1.0869  0.2958
  553MOL0     C76197   6.072  10.600   4.957  1.0425  0.7287 -0.2772
  553MOL0     C76198   6.091  10.716   5.050  0.2773 -0.0484 -0.5754
  553MOL0     C76199   6.101  10.663   5.194  0.1811 -0.7380 -0.1833
  553MOL0     O76200   6.141  10.776   5.271  0.2710 -0.0497 -0.0503
  553MOL0     C76201   6.116  10.758   5.402  0.3403  0.3251 -0.3595
  553MOL0     C76202   6.063  10.641   5.470 -0.2051 -1.0041 -1.2113
  553MOL0     C76203   6.031  10.646   5.605 -0.1875  1.3125 -0.4045
  553MOL0     C76204   5.981  10.523   5.670  0.1758 -0.5102  0.1808
  553MOL0     C76205   6.053  10.757   5.685  0.0772 -0.5291  0.3767
  553MOL0     C76206   6.010  10.772   5.819 -0.7024  0.0981  0.6081
  553MOL0     O76207   6.111  10.803   5.910  0.0892  0.4979 -0.1019
  553MOL0     C76208   6.076  10.808   6.046 -0.5954  0.2390  0.3697
  553MOL0     C76209   6.121  10.922   6.112 -0.4717  0.6294  0.2477
  553MOL0     C76210   6.082  10.955   6.247  0.3320  1.3178  0.0328
  553MOL0     C76211   6.005  10.861   6.312 -0.1413  0.2919 -0.8505
  553MOL0     O76212   5.960  10.869   6.440  0.5599 -0.0226  1.1008
  553MOL0     C76213   5.976  10.988   6.514  0.0532  0.9961 -0.0478
  553MOL0     C76214   6.114  10.981   6.587  0.7560 -0.5798 -0.0500
  553MOL0     C76215   6.164  11.117   6.603 -1.1321  0.2521  0.3622
  553MOL0     C76216   6.296  11.104   6.681 -0.4999 -0.6775  0.4933
  553MOL0     C76217   6.385  11.240   6.709  0.4892 -0.6951  0.2706
  553MOL0     C76218   6.419  11.324   6.588  0.4278  0.3896 -0.1398
  553MOL0     C76219   6.500  11.253   6.482  0.3543  0.7083  0.3964
  553MOL0     C76220   6.558  11.340   6.378 -0.6315  0.2834  0.0669
  553MOL0    Cl76221   6.437  11.468   6.334  0.1294 -0.0479  0.3479
  553MOL0     C76222   5.968  10.744   6.251 -0.4847 -0.0236  0.2140
  553MOL0     C76223   6.000  10.719   6.117  0.2697  0.2582  0.0499
  553MOL0     O76224   5.890  10.766   5.842 -0.9085 -0.5549 -0.1166
  553MOL0     C76225   6.103  10.874   5.624 -0.2210 -0.0364  0.9368
  553MOL0     C76226   6.128  10.878   5.483  0.7020 -0.3900  0.7371
  553MOL0     N76227   6.265  10.781   4.788 -0.5682 -0.3259 -0.1123
  553MOL0     N76228   6.360  10.786   4.696  0.5434  0.1571 -0.5503
  553MOL0     C76229   6.951  10.380   3.654  0.7019 -0.6497 -0.3312
  553MOL0     C76230   6.987  10.322   3.529  0.4833 -0.8517  0.1760
  553MOL0     C76231   6.995  10.140   3.133  0.2399  0.7405 -0.5544
  553MOL0     C76232   6.944  10.215   3.029 -0.2168  0.2852 -0.7018
  553MOL0     C76233   6.962  10.187   2.889 -0.5129  0.6382 -0.5499
  553MOL0     C76234   7.045  10.078   2.854 -0.0803  0.2809  0.4354
  553MOL0     O76235   7.069  10.043   2.729  0.3749 -0.6451  0.3120
  553MOL0     C76236   7.021  10.120   2.603  0.6682 -0.2910  0.2696
  553MOL0     C76237   6.867  10.093   2.565 -0.8711 -0.0889 -0.8907
  553MOL0     C76238   6.811  10.200   2.472  0.4275 -0.0489  0.3332
  553MOL0     C76239   6.874  10.200   2.335  0.1735 -1.1239  0.3567
  553MOL0     C76240   6.861  10.326   2.258  1.0277 -0.7719  0.1564
  553MOL0     C76241   6.876  10.435   2.203 -0.0130  0.3871  0.3489
  553MOL0     C76242   7.100  10.004   2.957  0.3634 -0.6293  0.7204
  553MOL0     C76243   7.081  10.033   3.092 -0.6826 -0.0178  0.1711
  553MOL0     C76244   7.157   9.953   3.193  0.9850 -0.5840  0.3717
  553MOL0     H76245   6.714  10.414   3.360 -1.5390 -2.7511  1.8002
  553MOL0     H76246   6.649  10.523   3.580  0.4036 -1.0477 -0.9817
  553MOL0     H76247   6.654  10.433   3.913 -0.9003  0.6904  0.6494
  553MOL0     H76248   6.627  10.578   3.799  1.0029  2.7985 -0.2549
  553MOL0     H76249   6.764  10.720   3.929  0.1416  0.9853  2.1693
  553MOL0     H76250   6.613  10.658   4.004 -0.0426 -1.4339 -0.8039
  553MOL0     H76251   6.729  10.487   4.136  1.5925 -1.7547 -1.5320
  553MOL0     H76252   6.887  10.528   4.074  0.7710  0.8559  1.2543
  553MOL0     H76253   6.864  10.634   4.297 -0.8477 -0.3570  0.7827
  553MOL0     H76254   6.880  10.754   4.178  0.8133  0.1458  2.1540
  553MOL0     H76255   6.628  10.766   4.190 -0.3760 -3.3245 -1.7978
  553MOL0     H76256   6.715  10.799   4.347  1.2849 -0.1689 -0.9516
  553MOL0     H76257   6.504  10.598   4.260  1.2265 -1.6106 -0.3046
  553MOL0     H76258   6.627  10.514   4.350  1.3253  0.8319  2.2847
  553MOL0     H76259   6.558  10.784   4.475  0.2346 -0.5760 -0.1444
  553MOL0     H76260   6.575  10.618   4.546  1.3118  0.2938  0.1600
  553MOL0     H76261   6.340  10.742   4.395 -0.7855  1.7659  1.5319
  553MOL0     H76262   6.359  10.568   4.430 -1.6039  0.0894 -0.0675
  553MOL0     H76263   6.150  10.569   4.556 -1.9819  0.3065 -0.6085
  553MOL0     H76264   6.001  10.560   4.747 -0.8911 -0.7780  0.4724
  553MOL0     H76265   5.960  10.714   4.799  1.1063  0.1796 -0.0209
  553MOL0     H76266   5.982  10.546   4.985  2.1382 -1.2102 -0.2911
  553MOL0     H76267   6.161  10.536   4.960  0.8932  0.2878 -2.8478
  553MOL0     H76268   6.195  10.750   5.039  1.5581 -2.6315  1.9457
  553MOL0     H76269   6.014  10.793   5.043  0.2368 -0.2039 -2.1993
  553MOL0     H76270   6.009  10.618   5.230  2.1028 -2.7927  2.5522
  553MOL0     H76271   6.180  10.588   5.197 -0.8090 -1.7794  0.6169
  553MOL0     H76272   6.044  10.544   5.425  0.1109 -1.3245 -0.6610
  553MOL0     H76273   6.019  10.509   5.772 -0.8283  4.7386  1.5595
  553MOL0     H76274   6.005  10.431   5.615  2.8924  0.9331 -1.2515
  553MOL0     H76275   5.874  10.543   5.682  0.3503  1.7110 -1.3614
  553MOL0     H76276   6.183  10.988   6.052  2.1714 -2.0161 -0.1785
  553MOL0     H76277   6.099  11.054   6.288 -2.4785  1.9852 -0.2538
  553MOL0     H76278   5.971  11.072   6.444  2.6936  0.5559 -0.8464
  553MOL0     H76279   5.896  10.983   6.589 -1.1274 -2.4436 -1.3488
  553MOL0     H76280   6.097  10.942   6.688 -1.7070  2.1784  0.7170
  553MOL0     H76281   6.172  10.911   6.525  1.2777 -0.8376  0.7157
  553MOL0     H76282   6.096  11.186   6.652 -1.8742 -0.6855  0.6769
  553MOL0     H76283   6.179  11.157   6.502  0.3017 -1.9882 -0.4071
  553MOL0     H76284   6.360  11.039   6.621 -1.3740  0.8350 -2.2758
  553MOL0     H76285   6.278  11.048   6.773 -0.2667  0.3293  1.1794
  553MOL0     H76286   6.325  11.309   6.768  0.5415  0.3599 -0.8691
  553MOL0     H76287   6.474  11.216   6.768  1.9431 -1.9031 -2.2873
  553MOL0     H76288   6.464  11.422   6.605  2.6860 -0.3206 -1.4654
  553MOL0     H76289   6.318  11.340   6.550  0.6016  0.9676 -0.3740
  553MOL0     H76290   6.442  11.179   6.427  2.1733  0.3835 -1.1802
  553MOL0     H76291   6.571  11.189   6.535  0.5494  1.3096  0.8720
  553MOL0     H76292   6.581  11.287   6.285 -2.9842 -1.8712  0.6005
  553MOL0     H76293   6.648  11.383   6.424  0.9525 -0.9434 -1.6891
  553MOL0     H76294   5.900  10.674   6.299  1.0155 -0.4223  1.8732
  553MOL0     H76295   5.969  10.625   6.073  0.8200 -0.2337  0.6907
  553MOL0     H76296   6.112  10.967   5.679 -3.6614  1.9319 -1.4068
  553MOL0     H76297   6.152  10.968   5.428 -2.7941  0.0170 -0.3341
  553MOL0     H76298   7.018  10.364   3.738 -0.2848 -2.0161  0.2410
  553MOL0     H76299   7.085  10.276   3.530 -0.5628 -3.2997  3.0154
  553MOL0     H76300   6.888  10.305   3.053 -0.0913  0.0865  0.3542
  553MOL0     H76301   6.905  10.249   2.821 -2.4788 -0.4211  0.0621
  553MOL0     H76302   7.037  10.224   2.632 -0.0196 -0.2703  0.6006
  553MOL0     H76303   7.084  10.105   2.514 -0.0897 -0.9948 -0.1676
  553MOL0     H76304   6.814  10.077   2.660  2.8597 -3.4017  0.8978
  553MOL0     H76305   6.850   9.997   2.516 -1.5945 -1.2782  1.5027
  553MOL0     H76306   6.706  10.180   2.449  1.0605 -0.0375 -3.0581
  553MOL0     H76307   6.820  10.299   2.519 -2.8540  0.4782  0.1358
  553MOL0     H76308   6.825  10.118   2.281 -0.9070 -0.9803  1.0717
  553MOL0     H76309   6.979  10.172   2.337  0.7104  0.7898  1.0820
  553MOL0     H76310   6.863  10.530   2.155 -4.6628 -1.1153 -2.0316
  553MOL0     H76311   7.169   9.932   2.914 -0.7550 -1.8182  0.8260
  553MOL0     H76312   7.205  10.024   3.261  2.9862 -1.8693  0.3841
  553MOL0     H76313   7.091   9.890   3.252  0.5115 -0.2933  0.1602
  553MOL0     H76314   7.252   9.908   3.162 -0.4700 -3.3387 -0.4420
  554MOL0     O76315   2.612   7.627   9.735 -0.6404  0.1576 -0.5912
  554MOL0     C76316   2.669   7.735   9.762 -0.5584  0.3320 -0.1989
  554MOL0     O76317   2.634   7.815   9.871 -0.4077 -0.4687 -0.4635
  554MOL0     C76318   2.521   7.777   9.948  0.9090  0.6368  0.3417
  554MOL0     C76319   2.534   7.769  10.088  0.5591  0.0378  1.0047
  554MOL0     C76320   2.421   7.748  10.169  0.0066 -0.2502  0.4179
  554MOL0     C76321   2.294   7.719  10.119  0.1073  0.2106 -1.1101
  554MOL0     O76322   2.199   7.675  10.207 -0.4258  0.3214 -0.1758
  554MOL0     C76323   2.069   7.644  10.154 -0.5656 -0.0902 -0.3265
  554MOL0     C76324   1.978   7.573  10.254  0.2667  0.5414 -0.1107
  554MOL0     C76325   2.032   7.436  10.297  0.7829 -0.4534 -0.3895
  554MOL0     C76326   2.002   7.415  10.452 -0.3308 -1.0225  0.6037
  554MOL0     C76327   2.034   7.275  10.491  0.9733 -0.4304  1.0363
  554MOL0     C76328   1.964   7.244  10.624  0.1178  0.8899 -0.5581
  554MOL0     C76329   2.043   7.289  10.740 -0.8779  0.0014  0.2021
  554MOL0     C76330   1.975   7.259  10.879  0.2602 -0.0112 -1.4634
  554MOL0     N76331   1.862   7.347  10.923  0.2345 -0.3736  0.4264
  554MOL0     C76332   1.730   7.308  10.936  0.6530 -0.1626 -0.5440
  554MOL0     C76333   1.669   7.406  11.005 -0.7497  0.5065  0.2415
  554MOL0     C76334   1.526   7.409  11.037  0.0739  0.0464 -0.8541
  554MOL0     C76335   1.447   7.277  11.045  0.4124  0.3172  0.5726
  554MOL0     C76336   1.403   7.221  10.910 -0.1665 -0.2726 -0.3372
  554MOL0     C76337   1.336   7.084  10.916  0.0901 -0.3950 -0.0348
  554MOL0     O76338   1.422   6.989  10.987  0.4711 -0.3854 -0.2755
  554MOL0     C76339   1.533   6.947  10.922 -0.4015  0.3464 -0.2560
  554MOL0     C76340   1.637   6.920  11.002  0.6444 -0.2065 -0.1037
  554MOL0     C76341   1.758   6.871  10.964  0.2469 -0.1661 -0.1183
  554MOL0     C76342   1.850   6.842  11.079  0.6687  0.2864  0.2618
  554MOL0     C76343   1.791   6.879  10.824 -0.1647  0.5851  0.3085
  554MOL0     C76344   1.927   6.836  10.767 -0.7100 -0.2525  0.8205
  554MOL0     O76345   1.951   6.865  10.635 -0.2374  0.2327 -1.4044
  554MOL0     C76346   2.042   6.783  10.575 -0.1380 -0.3063 -0.0081
  554MOL0     C76347   2.000   6.673  10.493 -0.8290  0.6203  0.4626
  554MOL0     C76348   2.104   6.609  10.415  0.0972  0.2575 -0.2152
  554MOL0     C76349   2.242   6.642  10.431 -0.7785 -0.1678 -0.2831
  554MOL0     O76350   2.341   6.570  10.364  0.1634 -0.3405  0.2857
  554MOL0     C76351   2.484   6.595  10.362 -0.8487  0.0527 -0.3010
  554MOL0     C76352   2.526   6.719  10.271 -0.1043  0.9417  0.1112
  554MOL0     C76353   2.471   6.697  10.126 -0.3268 -0.4274  0.5067
  554MOL0     C76354   2.543   6.585  10.052  0.7673 -0.2426  0.5616
  554MOL0     C76355   2.526   6.575   9.905  0.1234 -0.0177 -0.2474
  554MOL0     C76356   2.380   6.598   9.864 -0.5791 -0.6534  0.2577
  554MOL0     C76357   2.284   6.499   9.920  1.0998  0.0025  0.5942
  554MOL0     C76358   2.140   6.512   9.861  0.2721 -1.0272  0.5430
  554MOL0    Cl76359   2.036   6.410   9.941 -0.6966  0.1873  0.1193
  554MOL0     C76360   2.276   6.744  10.515 -0.3621 -1.6598 -0.7926
  554MOL0     C76361   2.177   6.816  10.589 -0.7920  0.3447 -0.3015
  554MOL0     O76362   2.006   6.774  10.840 -0.2815 -0.0504 -0.4057
  554MOL0     C76363   1.688   6.907  10.739  0.2746 -0.3143  0.7189
  554MOL0     C76364   1.561   6.942  10.784 -0.2888 -0.0605 -0.4519
  554MOL0     N76365   1.761   7.500  11.035  0.5771  0.2296 -0.7733
  554MOL0     N76366   1.880   7.469  10.983 -0.5524 -0.9126 -1.0135
  554MOL0     C76367   2.279   7.721   9.978  0.2488  0.9592  0.6224
  554MOL0     C76368   2.386   7.759   9.896 -0.7168 -0.4079 -0.2916
  554MOL0     C76369   2.784   7.771   9.680 -0.6751 -0.1015 -0.2927
  554MOL0     C76370   2.859   7.669   9.620 -0.2661 -0.9628 -0.5438
  554MOL0     C76371   2.973   7.698   9.535 -0.0332 -0.3955 -0.2683
  554MOL0     C76372   3.005   7.828   9.505 -0.5590  0.1536  0.1365
  554MOL0     O76373   3.118   7.852   9.421  0.3346 -0.2193  0.6978
  554MOL0     C76374   3.122   7.977   9.350  0.2804  0.4891 -0.8615
  554MOL0     C76375   3.239   8.012   9.256  0.4291 -0.2241 -0.0075
  554MOL0     C76376   3.222   8.155   9.194  0.3200  0.1183  0.4156
  554MOL0     C76377   3.357   8.185   9.120 -0.1489  0.8907  0.1350
  554MOL0     C76378   3.465   8.203   9.219 -0.4443 -0.3574  0.3017
  554MOL0     C76379   3.554   8.233   9.302 -0.4621  0.7799  0.4790
  554MOL0     C76380   2.924   7.928   9.554 -0.3383  0.4072  0.2584
  554MOL0     C76381   2.812   7.906   9.643 -0.0358  0.2105 -0.0198
  554MOL0     C76382   2.715   8.018   9.681 -0.0410  0.2148  0.1662
  554MOL0     H76383   2.625   7.775  10.147  0.9294  1.3586  0.3202
  554MOL0     H76384   2.430   7.766  10.276 -0.5388  2.7400  0.0282
  554MOL0     H76385   2.076   7.586  10.062  1.2698 -0.9035  0.2818
  554MOL0     H76386   2.015   7.733  10.120  0.3350  1.3928  1.8615
  554MOL0     H76387   1.963   7.638  10.341 -0.0929  0.7414 -0.3181
  554MOL0     H76388   1.877   7.559  10.215  1.1729 -0.6240 -2.2391
  554MOL0     H76389   1.981   7.366  10.231 -1.7588  1.2877 -0.3896
  554MOL0     H76390   2.139   7.429  10.274  0.8831  1.9358 -0.9022
  554MOL0     H76391   2.045   7.488  10.521 -0.3064 -1.9567  1.5996
  554MOL0     H76392   1.896   7.432  10.474 -0.5680 -2.3768  0.5554
  554MOL0     H76393   2.143   7.268  10.498  1.0387 -0.1759  0.3625
  554MOL0     H76394   1.991   7.207  10.417 -2.3217  1.1630  1.3145
  554MOL0     H76395   1.864   7.287  10.635 -1.4489 -2.7850  1.7108
  554MOL0     H76396   1.950   7.137  10.639 -1.9071  1.1519 -0.3666
  554MOL0     H76397   2.068   7.395  10.738  1.9457 -0.4772  2.6511
  554MOL0     H76398   2.135   7.230  10.741 -1.4254 -0.8851  0.5268
  554MOL0     H76399   1.951   7.153  10.891 -0.3529  0.2435 -0.3283
  554MOL0     H76400   2.051   7.281  10.953  0.1818 -1.2741 -0.9786
  554MOL0     H76401   1.687   7.222  10.885  1.5239 -1.1679  0.3794
  554MOL0     H76402   1.485   7.479  10.964  1.6414  1.9726 -0.0107
  554MOL0     H76403   1.510   7.457  11.135 -1.9269 -1.5781 -0.3058
  554MOL0     H76404   1.511   7.209  11.101  0.5179 -0.2695 -0.2517
  554MOL0     H76405   1.356   7.290  11.106  2.0895  0.8366  3.1062
  554MOL0     H76406   1.338   7.304  10.881 -0.6733 -0.2938  0.6823
  554MOL0     H76407   1.490   7.200  10.846 -1.9941 -1.6700 -2.5694
  554MOL0     H76408   1.236   7.092  10.960 -0.7476 -1.8574 -1.5688
  554MOL0     H76409   1.310   7.055  10.814  3.4963 -2.6309 -0.4095
  554MOL0     H76410   1.613   6.923  11.108 -0.3402  1.6577 -0.3253
  554MOL0     H76411   1.803   6.838  11.178 -2.4249 -0.7103 -1.1101
  554MOL0     H76412   1.943   6.899  11.078  1.4243 -0.9141 -0.2050
  554MOL0     H76413   1.886   6.739  11.069 -1.2324 -0.5054  1.1313
  554MOL0     H76414   1.895   6.647  10.502 -0.4592 -1.2908 -0.1507
  554MOL0     H76415   2.101   6.525  10.346  3.1645 -0.9721  0.9803
  554MOL0     H76416   2.524   6.616  10.462  1.6402  2.3333 -1.6233
  554MOL0     H76417   2.533   6.508  10.318 -1.0989  0.5541 -1.6375
  554MOL0     H76418   2.487   6.814  10.309  1.8852  1.9308 -0.1906
  554MOL0     H76419   2.635   6.713  10.275 -0.1067 -0.0571 -0.8300
  554MOL0     H76420   2.495   6.793  10.078 -4.7458  1.5067  1.6719
  554MOL0     H76421   2.362   6.694  10.132 -0.6225  2.3701 -1.2298
  554MOL0     H76422   2.516   6.486  10.090 -3.4044 -0.1166 -1.5100
  554MOL0     H76423   2.649   6.609  10.061  1.3282 -1.9351 -0.8585
  554MOL0     H76424   2.583   6.654   9.855  1.2440 -0.0313  0.9338
  554MOL0     H76425   2.558   6.475   9.875 -1.7654 -0.3365 -1.3197
  554MOL0     H76426   2.383   6.598   9.755  4.3394  1.8330  0.1139
  554MOL0     H76427   2.342   6.696   9.894 -2.5419 -0.5780 -2.1270
  554MOL0     H76428   2.274   6.497  10.029  1.0978 -0.2963  0.5915
  554MOL0     H76429   2.314   6.397   9.892 -0.2932  0.1738 -1.7704
  554MOL0     H76430   2.140   6.476   9.757 -1.9130  0.3402  0.0148
  554MOL0     H76431   2.097   6.612   9.870  2.0046 -0.4148  2.5382
  554MOL0     H76432   2.379   6.769  10.538 -1.3729  0.5536  2.0449
  554MOL0     H76433   2.205   6.896  10.657  1.9395  0.4311 -1.4214
  554MOL0     H76434   1.713   6.883  10.637  0.5034 -1.2109  0.9760
  554MOL0     H76435   1.488   6.976  10.711 -0.4856 -1.0420 -0.7132
  554MOL0     H76436   2.180   7.701   9.937  0.9082  0.2439 -0.6578
  554MOL0     H76437   2.380   7.779   9.789  3.3409 -1.9796 -1.0067
  554MOL0     H76438   2.838   7.569   9.658  0.8600 -1.0067 -0.0159
  554MOL0     H76439   3.047   7.628   9.498  0.7223  1.1980 -1.9453
  554MOL0     H76440   3.035   7.970   9.285  0.3815 -1.1413 -0.8688
  554MOL0     H76441   3.113   8.061   9.420 -3.9003 -0.8865  0.5202
  554MOL0     H76442   3.239   7.942   9.172  0.1165 -2.3048  1.6249
  554MOL0     H76443   3.335   7.988   9.304  1.6926 -1.5665 -2.9544
  554MOL0     H76444   3.148   8.143   9.115  1.5145 -1.7365 -0.5029
  554MOL0     H76445   3.206   8.239   9.262 -1.0071  1.9606 -1.9988
  554MOL0     H76446   3.341   8.279   9.066 -0.9869  0.3198 -0.6244
  554MOL0     H76447   3.380   8.112   9.042 -1.9067 -0.1563  0.5565
  554MOL0     H76448   3.637   8.261   9.364  0.8090 -2.9099  0.7167
  554MOL0     H76449   2.947   8.032   9.531 -0.2522  0.5693  1.0371
  554MOL0     H76450   2.747   8.113   9.637 -0.4450  0.4399  0.3498
  554MOL0     H76451   2.609   8.001   9.658  0.0788  0.9010 -0.9780
  554MOL0     H76452   2.730   8.022   9.789  1.2924 -0.6378  0.0372
  555MOL0     O76453   4.168   5.960   5.489  0.5582 -0.0784  0.2534
  555MOL0     C76454   4.094   5.904   5.573 -0.2449  0.7580 -0.0144
  555MOL0     O76455   3.957   5.923   5.589 -0.5176 -0.0833 -0.0412
  555MOL0     C76456   3.892   6.041   5.557 -0.3631 -0.6529 -0.2510
  555MOL0     C76457   3.942   6.172   5.551 -0.0959 -0.3867 -0.2691
  555MOL0     C76458   3.859   6.277   5.501  0.4591 -0.5457 -0.0739
  555MOL0     C76459   3.726   6.252   5.464 -0.1737 -0.3387 -0.1665
  555MOL0     O76460   3.651   6.357   5.422  0.9315 -0.4326  1.1500
  555MOL0     C76461   3.508   6.358   5.438  0.4655 -0.1750 -0.1858
  555MOL0     C76462   3.464   6.506   5.446 -0.0392  0.4963 -0.2667
  555MOL0     C76463   3.534   6.595   5.557  0.8384  0.1140  0.2660
  555MOL0     C76464   3.448   6.711   5.617 -0.4345 -0.3263 -0.9225
  555MOL0     C76465   3.494   6.755   5.758  0.2173  1.1077 -0.8515
  555MOL0     C76466   3.453   6.655   5.865 -0.6389  0.5538 -0.2910
  555MOL0     C76467   3.442   6.726   6.006 -0.1928  0.0326  0.4268
  555MOL0     C76468   3.505   6.633   6.108 -0.6473  0.1114  0.6151
  555MOL0     N76469   3.653   6.637   6.098  0.0362 -0.1067 -0.1362
  555MOL0     C76470   3.719   6.736   6.171  0.6997 -0.9847  0.0446
  555MOL0     C76471   3.853   6.701   6.159 -0.8664  0.6773 -0.4668
  555MOL0     C76472   3.981   6.772   6.210  0.2517  0.3276 -0.7512
  555MOL0     C76473   4.114   6.735   6.142 -0.9094  0.7252 -0.0663
  555MOL0     C76474   4.227   6.823   6.196 -0.3511  0.0742  0.3171
  555MOL0     C76475   4.363   6.786   6.149 -0.2469  0.4697  0.5063
  555MOL0     O76476   4.395   6.785   6.009  0.5500 -0.5987 -0.2067
  555MOL0     C76477   4.508   6.715   5.971  0.4572 -1.3085  0.2294
  555MOL0     C76478   4.614   6.682   6.062  0.2915  0.1898  0.0273
  555MOL0     C76479   4.728   6.618   6.016  0.2383  0.0723  0.2711
  555MOL0     C76480   4.850   6.637   6.105  0.3499  0.1643 -0.1572
  555MOL0     C76481   4.733   6.566   5.886 -0.1425 -0.7272  0.2551
  555MOL0     C76482   4.839   6.485   5.832  0.0721  0.0661 -0.1390
  555MOL0     O76483   4.917   6.415   5.920  0.2143 -0.5751  0.6806
  555MOL0     C76484   5.008   6.331   5.874 -0.0317 -0.5623 -0.3175
  555MOL0     C76485   5.126   6.392   5.847  0.3992  0.2513  0.1632
  555MOL0     C76486   5.236   6.311   5.810  0.6339 -0.2052  0.5619
  555MOL0     C76487   5.215   6.176   5.777  0.1899 -1.4779 -0.1712
  555MOL0     O76488   5.313   6.102   5.728  0.2906 -0.1132  0.9023
  555MOL0     C76489   5.286   6.030   5.601 -0.6403 -0.2071  0.4484
  555MOL0     C76490   5.368   5.900   5.584 -1.3292  0.0311  0.2715
  555MOL0     C76491   5.298   5.796   5.505 -1.0879 -0.1192  0.4204
  555MOL0     C76492   5.311   5.826   5.362  0.3317  0.5917 -0.0365
  555MOL0     C76493   5.287   5.700   5.277  0.3080 -1.0075 -0.7027
  555MOL0     C76494   5.277   5.736   5.131 -0.6977  0.6285 -0.2843
  555MOL0     C76495   5.408   5.775   5.062 -0.0673 -0.4252  0.3695
  555MOL0     C76496   5.512   5.671   5.048  0.3290 -0.3755 -0.0690
  555MOL0    Cl76497   5.477   5.553   4.917  0.1466 -0.2266  0.3562
  555MOL0     C76498   5.088   6.120   5.790 -0.1282  0.1091 -0.0617
  555MOL0     C76499   4.990   6.198   5.846  0.3482 -0.5185 -0.3262
  555MOL0     O76500   4.860   6.492   5.714 -0.7286 -0.7846 -0.9211
  555MOL0     C76501   4.621   6.594   5.799 -0.4094 -0.2099  0.9543
  555MOL0     C76502   4.511   6.669   5.845 -0.5830 -0.1420  0.2441
  555MOL0     N76503   3.858   6.587   6.084  0.9627  0.2706 -0.2518
  555MOL0     N76504   3.737   6.540   6.058 -0.7036  0.1342 -0.1702
  555MOL0     C76505   3.675   6.128   5.489  0.6523 -0.5254  0.0360
  555MOL0     C76506   3.752   6.026   5.535  0.6738  0.0850  1.0165
  555MOL0     C76507   4.147   5.808   5.674 -0.3161 -0.4874 -0.1480
  555MOL0     C76508   4.074   5.788   5.794  0.2671 -0.3819 -0.8939
  555MOL0     C76509   4.112   5.691   5.889  0.1394  0.2945 -0.7752
  555MOL0     C76510   4.230   5.617   5.865 -0.4584  0.3153 -0.3656
  555MOL0     O76511   4.280   5.517   5.948  0.5910  0.0057 -0.6424
  555MOL0     C76512   4.228   5.517   6.086  0.0905 -0.1129 -0.7129
  555MOL0     C76513   4.268   5.394   6.161 -0.3318  0.7971 -0.5571
  555MOL0     C76514   4.419   5.361   6.160 -0.3470 -0.8701 -0.2656
  555MOL0     C76515   4.496   5.400   6.285  0.0779 -0.1920  0.2648
  555MOL0     C76516   4.504   5.549   6.286  0.1202  0.4911  0.6595
  555MOL0     C76517   4.497   5.673   6.290  0.0618  0.9006 -0.3575
  555MOL0     C76518   4.310   5.642   5.764  0.0179  0.2563 -0.0613
  555MOL0     C76519   4.270   5.730   5.660 -0.5581  0.3633  0.3751
  555MOL0     C76520   4.348   5.726   5.529 -0.0933  0.1248  0.3071
  555MOL0     H76521   4.048   6.182   5.570  0.5990 -2.4481 -2.5267
  555MOL0     H76522   3.896   6.378   5.495 -1.8357  0.3040 -1.1521
  555MOL0     H76523   3.471   6.332   5.537  1.0670  3.7229  1.2704
  555MOL0     H76524   3.452   6.301   5.364  0.8421 -3.4770  1.8590
  555MOL0     H76525   3.486   6.549   5.348  0.2892  1.0412  0.0394
  555MOL0     H76526   3.357   6.520   5.464  0.2605  3.4213 -0.1599
  555MOL0     H76527   3.569   6.530   5.638  0.8841  1.9985  1.8312
  555MOL0     H76528   3.624   6.642   5.516  1.5291  0.2992  1.9311
  555MOL0     H76529   3.447   6.798   5.551  2.5679 -1.0749 -2.1589
  555MOL0     H76530   3.344   6.679   5.622 -0.1627 -1.3138 -1.2311
  555MOL0     H76531   3.450   6.853   5.781  1.6444  1.3457  1.0966
  555MOL0     H76532   3.602   6.767   5.746  0.9134 -1.3973  1.7296
  555MOL0     H76533   3.350   6.626   5.840 -0.5481  0.6732 -0.8121
  555MOL0     H76534   3.518   6.567   5.872 -0.0604  1.0459  0.7155
  555MOL0     H76535   3.339   6.753   6.031  0.6088  1.2003  2.7809
  555MOL0     H76536   3.492   6.823   6.006 -3.6114  1.9634 -0.4157
  555MOL0     H76537   3.495   6.669   6.211  0.9841 -2.9669  2.0021
  555MOL0     H76538   3.476   6.528   6.099  1.2440 -0.3919 -0.0202
  555MOL0     H76539   3.670   6.817   6.223  2.2574 -0.1244  0.2218
  555MOL0     H76540   3.986   6.747   6.317 -0.6293  1.0340 -0.5314
  555MOL0     H76541   3.968   6.880   6.198 -1.1462  0.4234  1.0968
  555MOL0     H76542   4.130   6.628   6.161 -0.6648  1.2620  3.6644
  555MOL0     H76543   4.101   6.742   6.034 -0.2383 -2.0886 -0.4191
  555MOL0     H76544   4.199   6.924   6.164 -2.2000 -1.0441 -1.9637
  555MOL0     H76545   4.228   6.821   6.305  0.1843 -1.4722  0.3088
  555MOL0     H76546   4.434   6.847   6.206  0.5794  0.4875 -0.4982
  555MOL0     H76547   4.382   6.684   6.185 -0.9697 -0.1897 -0.8900
  555MOL0     H76548   4.621   6.711   6.166  2.7494 -0.5014  0.1155
  555MOL0     H76549   4.872   6.535   6.139 -2.1707 -0.6755 -0.7569
  555MOL0     H76550   4.830   6.705   6.188 -1.2622 -0.0608 -0.3264
  555MOL0     H76551   4.935   6.661   6.041 -1.3511  1.1282 -2.1745
  555MOL0     H76552   5.136   6.500   5.844  1.7017  0.2413 -5.5722
  555MOL0     H76553   5.327   6.364   5.782 -0.4797  0.3367 -2.3636
  555MOL0     H76554   5.181   6.003   5.585 -0.0259 -1.9716 -0.9705
  555MOL0     H76555   5.320   6.083   5.511 -1.4741 -3.4682 -2.0000
  555MOL0     H76556   5.466   5.921   5.541 -1.9500 -1.4954 -2.1002
  555MOL0     H76557   5.387   5.862   5.685  0.5667 -0.0837 -0.0876
  555MOL0     H76558   5.193   5.796   5.536 -0.9567 -2.0969  0.9981
  555MOL0     H76559   5.349   5.705   5.538 -1.2842 -0.3412  0.1144
  555MOL0     H76560   5.408   5.868   5.334 -0.2573  1.5200 -0.7272
  555MOL0     H76561   5.232   5.899   5.339  2.0094  2.0955 -1.2690
  555MOL0     H76562   5.366   5.627   5.298 -0.7106 -2.3319 -1.3350
  555MOL0     H76563   5.196   5.647   5.306 -1.9645  2.1221 -1.6884
  555MOL0     H76564   5.204   5.817   5.132 -1.1332  0.2931 -2.2478
  555MOL0     H76565   5.238   5.646   5.083 -1.0236  0.1564  0.8355
  555MOL0     H76566   5.456   5.863   5.106  1.6795 -1.0479 -0.1888
  555MOL0     H76567   5.396   5.798   4.956  1.3886  0.8436  0.4350
  555MOL0     H76568   5.512   5.619   5.144  2.4913  0.0434  0.2026
  555MOL0     H76569   5.607   5.717   5.019  0.3189 -0.9936 -1.1418
  555MOL0     H76570   5.063   6.022   5.752 -2.5007  1.8817 -3.6215
  555MOL0     H76571   4.897   6.148   5.868 -0.3872  0.0853 -1.9343
  555MOL0     H76572   4.600   6.557   5.699 -1.8915 -0.2346  1.2548
  555MOL0     H76573   4.426   6.672   5.778  0.7094  0.2231 -1.4550
  555MOL0     H76574   3.567   6.117   5.490  0.6080 -0.1155 -0.1193
  555MOL0     H76575   3.711   5.925   5.541  1.8092 -0.5154 -0.4937
  555MOL0     H76576   3.983   5.844   5.809  1.4757  1.8374 -1.4294
  555MOL0     H76577   4.047   5.673   5.974  1.3997  2.0184  0.6438
  555MOL0     H76578   4.252   5.607   6.144 -0.2742 -0.8098  0.5461
  555MOL0     H76579   4.119   5.520   6.091  0.0969  1.4980 -0.8940
  555MOL0     H76580   4.213   5.309   6.121 -0.0838 -0.2957  1.2751
  555MOL0     H76581   4.242   5.408   6.267  0.1535 -3.1656  0.2306
  555MOL0     H76582   4.423   5.253   6.144  0.4599 -1.2560  2.0445
  555MOL0     H76583   4.472   5.404   6.075 -1.3941 -2.5226 -1.8278
  555MOL0     H76584   4.594   5.351   6.285  0.1279 -0.1253  1.2469
  555MOL0     H76585   4.436   5.364   6.369 -3.2240  1.1939 -1.3080
  555MOL0     H76586   4.501   5.781   6.289 -0.2787  0.9142 -1.3024
  555MOL0     H76587   4.397   5.578   5.753  1.2683  1.6439  1.1836
  555MOL0     H76588   4.414   5.813   5.528 -0.0914  0.2257  3.1508
  555MOL0     H76589   4.405   5.633   5.522 -1.3120 -0.6322  0.0936
  555MOL0     H76590   4.279   5.727   5.444 -0.9845 -0.5146  1.0045
  556MOL0     O76591  10.079  10.256   7.109  0.1825 -0.5464  0.5818
  556MOL0     C76592  10.097  10.265   6.986  0.0629 -0.2535  0.7516
  556MOL0     O76593  10.206  10.316   6.918 -0.6591  0.7530  0.0637
  556MOL0     C76594  10.317  10.352   6.994 -0.1603 -0.6067  0.8998
  556MOL0     C76595  10.357  10.492   6.985 -0.1241  0.5438 -0.8108
  556MOL0     C76596  10.476  10.538   7.049  0.2605  0.4528  0.1364
  556MOL0     C76597  10.568  10.437   7.097  0.0109  0.0306 -0.4236
  556MOL0     O76598  10.688  10.475   7.148 -0.3750  0.4154 -0.5604
  556MOL0     C76599  10.719  10.602   7.195 -0.3317  0.0203 -0.3526
  556MOL0     C76600  10.861  10.627   7.223  0.0131  0.1824 -0.3912
  556MOL0     C76601  10.948  10.615   7.101  0.4921 -0.7298  0.0769
  556MOL0     C76602  11.094  10.643   7.147  0.3384 -0.9711 -0.5665
  556MOL0     C76603  11.173  10.630   7.018  0.0236  0.0983 -0.4155
  556MOL0     C76604  11.319  10.676   7.045 -0.5025 -0.5124 -0.4906
  556MOL0     C76605  11.412  10.672   6.925 -0.2215  0.1085 -0.3899
  556MOL0     C76606  11.457  10.521   6.885  0.5817  1.0332 -0.1782
  556MOL0     N76607  11.439  10.485   6.743  0.1916 -0.9574 -0.1975
  556MOL0     C76608  11.312  10.480   6.694 -0.2034 -1.0697  0.0550
  556MOL0     C76609  11.324  10.499   6.561 -0.2528  0.3731 -0.2672
  556MOL0     C76610  11.233  10.490   6.447  0.7428 -0.4882 -0.0650
  556MOL0     C76611  11.291  10.402   6.333  0.6214  0.8442 -0.1165
  556MOL0     C76612  11.202  10.391   6.215  0.1137 -0.3627 -0.7756
  556MOL0     C76613  11.263  10.341   6.089 -0.2926  1.4395  0.0376
  556MOL0     O76614  11.162  10.363   5.988  0.1705 -0.0382  0.4024
  556MOL0     C76615  11.201  10.414   5.862 -0.6249 -0.1614  0.6523
  556MOL0     C76616  11.322  10.404   5.791 -0.2361 -0.0729  0.7821
  556MOL0     C76617  11.341  10.463   5.668 -0.5672  0.7912 -0.1796
  556MOL0     C76618  11.476  10.453   5.606  0.0348 -0.5270  0.2722
  556MOL0     C76619  11.237  10.538   5.612 -0.3660  0.1424 -0.3712
  556MOL0     C76620  11.250  10.606   5.479 -0.4194 -0.5786  0.4002
  556MOL0     O76621  11.310  10.541   5.383 -0.4838  0.2173  0.2594
  556MOL0     C76622  11.323  10.612   5.258 -0.1745  1.2357 -0.5859
  556MOL0     C76623  11.371  10.741   5.248  1.1267 -0.2167  0.1304
  556MOL0     C76624  11.404  10.809   5.136  0.0999  0.9662  0.3345
  556MOL0     C76625  11.396  10.738   5.017  0.5422 -0.6585 -0.0293
  556MOL0     O76626  11.423  10.804   4.899  1.0280  0.1778  0.4131
  556MOL0     C76627  11.485  10.733   4.786 -0.3860  0.6302  0.1192
  556MOL0     C76628  11.615  10.661   4.828  0.1720 -0.0459  0.2813
  556MOL0     C76629  11.702  10.763   4.910  0.0644  0.1986  0.1003
  556MOL0     C76630  11.843  10.701   4.925 -0.3043 -0.7115 -0.8013
  556MOL0     C76631  11.921  10.768   5.035 -1.8141  0.1971 -0.1732
  556MOL0     C76632  12.078  10.730   5.021 -0.5153 -0.6466 -0.2033
  556MOL0     C76633  12.158  10.782   5.144  1.3880 -0.9038  0.1146
  556MOL0     C76634  12.291  10.709   5.137 -0.1585 -0.5607  0.5770
  556MOL0    Cl76635  12.390  10.780   5.008 -0.4641 -0.1434 -0.5016
  556MOL0     C76636  11.355  10.602   5.025  0.2447 -1.1001 -0.9251
  556MOL0     C76637  11.303  10.540   5.141 -0.2520 -0.5047 -0.4243
  556MOL0     O76638  11.185  10.712   5.472  0.0105 -0.1127 -0.1583
  556MOL0     C76639  11.114  10.545   5.677  0.3917  0.3420  0.4570
  556MOL0     C76640  11.100  10.486   5.802 -0.5566 -0.8298  0.0460
  556MOL0     N76641  11.457  10.524   6.543 -0.2823  0.1066  0.4873
  556MOL0     N76642  11.525  10.523   6.644  0.5009  0.5468 -0.3039
  556MOL0     C76643  10.529  10.307   7.104 -0.3926  0.5518 -0.4182
  556MOL0     C76644  10.408  10.269   7.058  1.2813 -0.1244 -0.2403
  556MOL0     C76645   9.978  10.229   6.899  0.7877  1.3445  0.0245
  556MOL0     C76646   9.856  10.285   6.931  0.2209 -0.8609  0.5145
  556MOL0     C76647   9.736  10.268   6.857 -0.5799  0.6623  0.1042
  556MOL0     C76648   9.735  10.183   6.745  0.3633  0.3462 -0.4816
  556MOL0     O76649   9.617  10.163   6.672 -0.1424  0.1171  0.8366
  556MOL0     C76650   9.532  10.060   6.715 -0.3401  0.0390 -0.2395
  556MOL0     C76651   9.434  10.052   6.602  0.3502  0.1301  1.1247
  556MOL0     C76652   9.329   9.938   6.607  0.1707 -0.0092 -0.7025
  556MOL0     C76653   9.239   9.955   6.478  0.0392  0.4148  0.1892
  556MOL0     C76654   9.158   9.833   6.465  0.0722  0.9153  0.8178
  556MOL0     C76655   9.071   9.748   6.451  0.2196  0.1257  0.6024
  556MOL0     C76656   9.853  10.120   6.713 -0.5305 -0.6691 -1.1160
  556MOL0     C76657   9.974  10.142   6.785  0.3451  0.4345  0.3357
  556MOL0     C76658  10.099  10.078   6.734  0.2853 -1.1403 -0.0735
  556MOL0     H76659  10.296  10.559   6.925  1.4582  0.6560 -2.3747
  556MOL0     H76660  10.498  10.643   7.031 -0.6902  0.8059  0.9519
  556MOL0     H76661  10.656  10.623   7.283 -2.2941 -0.8075 -1.4928
  556MOL0     H76662  10.700  10.671   7.112 -1.8908  0.4037  0.2747
  556MOL0     H76663  10.867  10.729   7.261  0.8176 -0.2528  0.7041
  556MOL0     H76664  10.890  10.555   7.301 -1.8115 -0.6972 -0.4544
  556MOL0     H76665  10.931  10.513   7.067  0.9512 -0.8103  0.0804
  556MOL0     H76666  10.919  10.681   7.019 -2.5090 -1.2304  0.6256
  556MOL0     H76667  11.105  10.744   7.187  0.0103 -1.1249 -0.0733
  556MOL0     H76668  11.116  10.577   7.232  0.0523 -0.5068 -0.1234
  556MOL0     H76669  11.137  10.693   6.936  2.5654 -2.5058 -3.7977
  556MOL0     H76670  11.173  10.524   6.994  0.4498 -0.1126  0.4650
  556MOL0     H76671  11.337  10.768   7.101  0.2394 -1.8227  1.5327
  556MOL0     H76672  11.356  10.608   7.122 -0.2402  0.4586  0.2533
  556MOL0     H76673  11.500  10.732   6.951  0.3730 -1.0772  0.3743
  556MOL0     H76674  11.363  10.707   6.834 -0.2344 -2.4417 -1.4444
  556MOL0     H76675  11.562  10.514   6.915  0.6356 -1.1290 -0.7149
  556MOL0     H76676  11.397  10.451   6.945 -0.4678  0.7840 -1.4711
  556MOL0     H76677  11.222  10.467   6.753 -2.3250  1.6327 -2.2965
  556MOL0     H76678  11.211  10.586   6.399 -0.8730 -0.2242  1.1000
  556MOL0     H76679  11.137  10.448   6.480  0.0381  0.7016 -0.5258
  556MOL0     H76680  11.385  10.444   6.296  2.6899 -3.5300 -0.4561
  556MOL0     H76681  11.305  10.303   6.378 -2.0097  1.0905  1.4718
  556MOL0     H76682  11.118  10.326   6.243  0.2359  0.1466  0.9125
  556MOL0     H76683  11.171  10.495   6.200  2.4382  0.1605 -2.3684
  556MOL0     H76684  11.352  10.399   6.063  1.3935 -1.4533 -1.1780
  556MOL0     H76685  11.290  10.237   6.108 -1.9411  1.3613  2.4262
  556MOL0     H76686  11.396  10.337   5.834 -0.6198 -0.6620  0.5427
  556MOL0     H76687  11.550  10.422   5.681  0.4640 -2.4949 -0.9215
  556MOL0     H76688  11.505  10.548   5.559  0.7427 -1.3627 -1.0352
  556MOL0     H76689  11.477  10.379   5.526  0.4463  1.7958 -2.0238
  556MOL0     H76690  11.379  10.800   5.338 -0.8933 -1.3134  1.0923
  556MOL0     H76691  11.409  10.917   5.127  0.4623  0.8561 -1.0709
  556MOL0     H76692  11.406  10.664   4.755  0.1707 -0.3725  0.8613
  556MOL0     H76693  11.515  10.796   4.701 -0.4972  2.7951  1.6200
  556MOL0     H76694  11.591  10.578   4.895  1.9905  0.2638  1.4006
  556MOL0     H76695  11.658  10.613   4.739 -2.4210 -2.8662  0.4123
  556MOL0     H76696  11.650  10.792   5.002 -0.5145  0.8568 -0.4260
  556MOL0     H76697  11.705  10.857   4.855 -3.8973 -0.2481 -1.2014
  556MOL0     H76698  11.902  10.701   4.833 -0.3584 -0.4333 -0.8377
  556MOL0     H76699  11.829  10.595   4.945 -0.2388 -0.2515  2.1042
  556MOL0     H76700  11.909  10.876   5.023  0.8979  0.7135  0.9126
  556MOL0     H76701  11.882  10.742   5.134 -2.2350  1.6225  0.0437
  556MOL0     H76702  12.129  10.782   4.940  1.6842  0.6281  1.8786
  556MOL0     H76703  12.078  10.623   4.996 -2.7307 -0.0724 -3.2151
  556MOL0     H76704  12.105  10.749   5.234  0.6221  0.7454  0.2967
  556MOL0     H76705  12.180  10.888   5.136  1.7620 -0.9314  0.7107
  556MOL0     H76706  12.286  10.600   5.130  2.9593 -0.7944  0.5406
  556MOL0     H76707  12.335  10.739   5.233 -0.2453 -0.5509  0.6137
  556MOL0     H76708  11.361  10.542   4.935  4.4263 -1.5608 -0.5367
  556MOL0     H76709  11.273  10.437   5.151 -1.3441 -0.0649  1.1587
  556MOL0     H76710  11.026  10.590   5.632  1.4889  2.2151  0.1021
  556MOL0     H76711  11.011  10.509   5.860 -0.5330  0.6049 -0.4619
  556MOL0     H76712  10.597  10.240   7.157 -0.6033 -0.0231 -0.8578
  556MOL0     H76713  10.375  10.166   7.064 -0.6802  0.3932 -1.4394
  556MOL0     H76714   9.852  10.336   7.026  2.8607 -1.4490  1.0184
  556MOL0     H76715   9.653  10.319   6.903  0.4979  4.2039 -1.4910
  556MOL0     H76716   9.584   9.965   6.732 -4.0003 -1.9578  1.1233
  556MOL0     H76717   9.483  10.089   6.809 -3.1436  0.6449 -1.7894
  556MOL0     H76718   9.492  10.032   6.511 -2.6245 -4.7538 -0.0832
  556MOL0     H76719   9.375  10.143   6.611 -0.1139 -0.0400 -0.0258
  556MOL0     H76720   9.379   9.841   6.611  2.6636  1.2405  0.0649
  556MOL0     H76721   9.266   9.950   6.695  0.4946  0.0120 -0.4730
  556MOL0     H76722   9.309   9.960   6.395  0.1535  4.4533  0.3395
  556MOL0     H76723   9.190  10.053   6.468  1.4021  0.9796 -1.3575
  556MOL0     H76724   8.993   9.678   6.429 -0.3970  0.6634  1.0320
  556MOL0     H76725   9.856  10.045   6.635  1.3125 -1.6972 -0.1362
  556MOL0     H76726  10.108  10.095   6.627 -3.3057  0.6745 -0.2277
  556MOL0     H76727  10.182  10.117   6.794  0.3935 -1.2533 -0.1493
  556MOL0     H76728  10.093   9.972   6.760 -1.4426 -0.5499  2.3578
  557MOL0     O76729   3.636   6.103   9.511  0.1760 -0.5197  0.1176
  557MOL0     C76730   3.702   6.008   9.472 -0.2421 -1.1302 -0.2999
  557MOL0     O76731   3.729   5.975   9.337  0.1253 -0.1360 -0.8617
  557MOL0     C76732   3.627   5.993   9.252  0.3925 -1.1277 -0.3068
  557MOL0     C76733   3.495   5.961   9.277  0.3584 -0.2516 -0.0166
  557MOL0     C76734   3.393   5.979   9.182 -0.5163 -0.1944 -0.4378
  557MOL0     C76735   3.423   6.043   9.060  0.9460 -0.2986 -0.0218
  557MOL0     O76736   3.325   6.063   8.962  0.8088  0.7736 -0.5124
  557MOL0     C76737   3.297   6.194   8.935 -0.6414  0.1318  0.0447
  557MOL0     C76738   3.288   6.215   8.781  0.6293  0.4805  0.5165
  557MOL0     C76739   3.157   6.147   8.729 -0.0900 -0.6728  0.4049
  557MOL0     C76740   3.057   6.239   8.656 -0.4309 -0.4209 -0.4396
  557MOL0     C76741   2.953   6.157   8.582 -0.3814 -0.5619  0.0825
  557MOL0     C76742   2.853   6.088   8.678  0.5710 -0.3792  0.7295
  557MOL0     C76743   2.740   6.016   8.594  0.1510  0.1023 -1.1093
  557MOL0     C76744   2.623   5.983   8.698  0.0352 -0.0965 -0.2749
  557MOL0     N76745   2.592   5.838   8.709 -0.6700  0.3898  0.7661
  557MOL0     C76746   2.666   5.742   8.772  0.3075 -0.6600  0.1619
  557MOL0     C76747   2.590   5.625   8.759  0.1198  0.0199  1.0785
  557MOL0     C76748   2.635   5.488   8.817 -0.8113  0.3737  0.0453
  557MOL0     C76749   2.611   5.461   8.970 -0.6838  0.8070 -0.2410
  557MOL0     C76750   2.483   5.515   9.018  0.1027 -0.3596 -1.0690
  557MOL0     C76751   2.365   5.445   8.966  0.8436 -0.6256 -0.7480
  557MOL0     O76752   2.330   5.310   9.009 -0.2436  0.6681 -0.0096
  557MOL0     C76753   2.233   5.239   8.933  0.4840  0.3251 -0.4142
  557MOL0     C76754   2.204   5.110   8.977  1.2914  0.1925 -0.5505
  557MOL0     C76755   2.099   5.033   8.924  0.4756 -0.1459 -0.1902
  557MOL0     C76756   2.074   4.902   8.987 -0.2479  0.1596  0.0429
  557MOL0     C76757   2.028   5.085   8.816 -0.5120  0.7664 -0.8027
  557MOL0     C76758   1.917   5.016   8.746 -0.0683 -0.7905 -0.4909
  557MOL0     O76759   1.853   5.091   8.653  0.1322  0.4736  0.7813
  557MOL0     C76760   1.745   5.041   8.577  0.6633 -0.6408  0.6628
  557MOL0     C76761   1.718   5.122   8.464  0.6990  0.6173 -0.1669
  557MOL0     C76762   1.621   5.079   8.366 -0.8723 -0.0232 -0.8114
  557MOL0     C76763   1.549   4.963   8.381  0.6882  0.1914  0.3202
  557MOL0     O76764   1.457   4.925   8.288 -0.5856 -0.2665 -0.2856
  557MOL0     C76765   1.456   4.785   8.252  0.0103 -0.5157  1.1142
  557MOL0     C76766   1.454   4.764   8.096 -0.0174 -0.1874  0.1396
  557MOL0     C76767   1.586   4.795   8.021 -0.5476  0.3695  0.1559
  557MOL0     C76768   1.606   4.724   7.883  0.0992  0.0885 -0.5831
  557MOL0     C76769   1.494   4.771   7.785 -1.1910  0.2197 -0.7395
  557MOL0     C76770   1.530   4.721   7.643  0.9382  0.0321 -0.6271
  557MOL0     C76771   1.400   4.730   7.558 -0.0775  1.0489 -0.0635
  557MOL0     C76772   1.416   4.702   7.413 -0.1339 -0.6207 -0.5512
  557MOL0    Cl76773   1.254   4.766   7.349 -0.7442  0.2772  0.0886
  557MOL0     C76774   1.568   4.890   8.496 -0.5549  0.3073 -0.5362
  557MOL0     C76775   1.664   4.927   8.592  0.2773  1.1380 -0.6226
  557MOL0     O76776   1.898   4.898   8.778 -0.7030  0.5822  0.5340
  557MOL0     C76777   2.062   5.218   8.768 -0.2572 -0.5353  0.3957
  557MOL0     C76778   2.155   5.296   8.831  1.3957  0.7440 -0.6013
  557MOL0     N76779   2.478   5.656   8.685 -0.0723  0.4326  0.9188
  557MOL0     N76780   2.474   5.783   8.660  0.0100  0.4619 -0.3162
  557MOL0     C76781   3.558   6.070   9.028 -0.9225  0.4088 -0.5930
  557MOL0     C76782   3.657   6.057   9.125  0.8647 -0.5657 -0.3026
  557MOL0     C76783   3.749   5.921   9.588 -0.8183 -0.1150  0.3317
  557MOL0     C76784   3.805   5.793   9.546  0.3183  0.3192 -0.1884
  557MOL0     C76785   3.846   5.708   9.641 -0.2201 -0.2813 -0.6190
  557MOL0     C76786   3.849   5.732   9.774  0.5961 -0.2869 -0.6366
  557MOL0     O76787   3.891   5.628   9.856 -0.0020 -0.0770 -0.0896
  557MOL0     C76788   3.816   5.593   9.975 -0.8645  0.4749 -0.0395
  557MOL0     C76789   3.706   5.494   9.938  0.1798 -0.5789 -0.2141
  557MOL0     C76790   3.593   5.549   9.860  0.4656  0.4239  0.0553
  557MOL0     C76791   3.469   5.462   9.899 -0.9364 -0.3210 -0.5849
  557MOL0     C76792   3.403   5.521  10.013  0.1927  0.4390  0.4245
  557MOL0     C76793   3.353   5.567  10.115 -0.7169  0.0311 -0.3068
  557MOL0     C76794   3.796   5.857   9.820  0.8701  0.3035 -0.8856
  557MOL0     C76795   3.732   5.944   9.732  0.1792 -0.1708  0.0801
  557MOL0     C76796   3.667   6.066   9.791  0.2067  1.0294 -0.1589
  557MOL0     H76797   3.468   5.906   9.367 -1.4228 -0.4949 -0.6418
  557MOL0     H76798   3.286   5.965   9.197 -0.6541  2.2954  1.4768
  557MOL0     H76799   3.367   6.267   8.977  2.5911 -2.5566 -0.2821
  557MOL0     H76800   3.200   6.205   8.985 -0.3767 -1.5551  0.9774
  557MOL0     H76801   3.287   6.323   8.763  0.1553  0.7208  1.8529
  557MOL0     H76802   3.376   6.167   8.738 -1.5598 -3.6181  0.0380
  557MOL0     H76803   3.184   6.069   8.657  0.6156 -1.1017  1.1257
  557MOL0     H76804   3.119   6.088   8.812 -0.5744  1.2502  1.6013
  557MOL0     H76805   3.013   6.316   8.720 -2.5487  0.1957 -2.4654
  557MOL0     H76806   3.122   6.294   8.586  1.5127 -2.7876 -0.6087
  557MOL0     H76807   3.001   6.085   8.515 -1.0072 -1.9950  1.1226
  557MOL0     H76808   2.896   6.224   8.518 -1.8413 -1.0605  0.8106
  557MOL0     H76809   2.917   6.024   8.740  1.3904  0.9256  1.2717
  557MOL0     H76810   2.802   6.161   8.741 -0.1650 -0.0392 -0.2395
  557MOL0     H76811   2.778   5.920   8.559  1.0619 -1.4356  3.3452
  557MOL0     H76812   2.696   6.084   8.520 -2.8377  1.3357  1.5380
  557MOL0     H76813   2.640   6.023   8.799  5.1910  1.7183 -1.5454
  557MOL0     H76814   2.536   6.037   8.661 -1.8582 -1.5638  1.7662
  557MOL0     H76815   2.759   5.752   8.827  0.1202 -1.0754  0.5651
  557MOL0     H76816   2.743   5.478   8.804 -0.7527 -0.0431  0.8058
  557MOL0     H76817   2.588   5.405   8.764  0.0512 -1.3443  1.8459
  557MOL0     H76818   2.630   5.356   8.993  0.5550  0.5303 -2.2661
  557MOL0     H76819   2.683   5.524   9.023 -0.0595 -0.1461  0.0710
  557MOL0     H76820   2.477   5.515   9.127 -0.4424 -0.0875 -1.0928
  557MOL0     H76821   2.471   5.621   8.995  0.5287 -0.2382 -0.7347
  557MOL0     H76822   2.276   5.504   8.988  0.2438 -1.3707 -1.1643
  557MOL0     H76823   2.379   5.449   8.858 -0.2260 -0.2956 -0.8872
  557MOL0     H76824   2.266   5.068   9.056  1.4361 -1.0155 -1.2778
  557MOL0     H76825   2.113   4.825   8.920  2.1686  0.7463  0.6529
  557MOL0     H76826   1.968   4.892   9.011  0.0445 -3.0044  0.4212
  557MOL0     H76827   2.122   4.899   9.086 -0.0572  0.4632 -0.0379
  557MOL0     H76828   1.766   5.219   8.453  1.4993  0.4817  1.7739
  557MOL0     H76829   1.603   5.140   8.278  0.7214  2.4509  0.4572
  557MOL0     H76830   1.549   4.736   8.280  1.2341 -0.8541 -2.9253
  557MOL0     H76831   1.382   4.729   8.310  0.9128 -3.8868 -0.7086
  557MOL0     H76832   1.425   4.660   8.078 -0.6595 -0.1474  0.8822
  557MOL0     H76833   1.376   4.831   8.059  2.6893  0.7234 -4.8139
  557MOL0     H76834   1.673   4.773   8.084 -0.9859 -2.5423 -0.1184
  557MOL0     H76835   1.607   4.902   8.004 -0.9788  0.7373  1.7789
  557MOL0     H76836   1.605   4.615   7.883  1.1333  0.0574 -1.8090
  557MOL0     H76837   1.706   4.757   7.851  1.6728 -2.3325  1.4556
  557MOL0     H76838   1.392   4.736   7.804 -1.7850  0.9085 -2.4003
  557MOL0     H76839   1.491   4.880   7.776 -2.0273  0.0994 -2.3686
  557MOL0     H76840   1.555   4.616   7.658  2.6062  0.7443  2.3878
  557MOL0     H76841   1.610   4.786   7.608  1.0549  0.7131  0.8326
  557MOL0     H76842   1.362   4.832   7.571  0.1882  1.3104 -1.2139
  557MOL0     H76843   1.319   4.667   7.597 -0.9643  1.8955 -0.4888
  557MOL0     H76844   1.435   4.595   7.397 -2.1508 -0.9567 -0.8946
  557MOL0     H76845   1.503   4.751   7.368 -0.0983 -1.5717 -1.5339
  557MOL0     H76846   1.509   4.806   8.533 -2.1773  3.1145  4.1228
  557MOL0     H76847   1.670   4.871   8.685 -0.9454  0.9146 -0.6593
  557MOL0     H76848   2.018   5.264   8.679  2.2996  0.4638 -0.4593
  557MOL0     H76849   2.169   5.401   8.809  1.4847  0.5638 -1.4341
  557MOL0     H76850   3.578   6.094   8.924 -1.8704 -1.2388 -1.2072
  557MOL0     H76851   3.760   6.073   9.095 -0.4850  0.1493 -5.4619
  557MOL0     H76852   3.798   5.768   9.441 -0.6194  0.0400 -0.0715
  557MOL0     H76853   3.901   5.619   9.609  0.3674 -0.6561  1.2763
  557MOL0     H76854   3.881   5.544  10.048  0.1533  0.8754 -0.6658
  557MOL0     H76855   3.768   5.683  10.015 -4.2531 -1.4698  0.6826
  557MOL0     H76856   3.662   5.460  10.033  0.0971 -1.1827 -0.4648
  557MOL0     H76857   3.752   5.410   9.886  2.2317  0.6035 -0.4300
  557MOL0     H76858   3.571   5.656   9.870  2.3976  1.1183 -2.1706
  557MOL0     H76859   3.616   5.539   9.754 -4.1204  1.7004 -1.2741
  557MOL0     H76860   3.495   5.360   9.930  1.8025  0.3749 -0.3664
  557MOL0     H76861   3.397   5.475   9.817 -1.9348  2.9256  0.6604
  557MOL0     H76862   3.290   5.621  10.183 -0.8977  2.3774 -2.1836
  557MOL0     H76863   3.795   5.883   9.925  0.8861 -1.3568 -0.4515
  557MOL0     H76864   3.564   6.058   9.756  0.4654 -0.2864 -0.7130
  557MOL0     H76865   3.664   6.059   9.900 -1.5214  0.5024 -0.2171
  557MOL0     H76866   3.702   6.161   9.748 -0.8428  2.8362  2.7270
  558MOL0     O76867   6.053   9.032  10.118  0.3289 -0.0382  0.7037
  558MOL0     C76868   6.134   9.120  10.126  0.5751 -0.4437  0.5213
  558MOL0     O76869   6.103   9.255  10.125 -0.1359  0.7096 -0.0591
  558MOL0     C76870   5.973   9.294  10.116  0.0104  0.1627  0.4845
  558MOL0     C76871   5.879   9.262  10.207  0.6131  0.6397 -0.8510
  558MOL0     C76872   5.749   9.280  10.188  0.5135  0.4090 -0.3054
  558MOL0     C76873   5.704   9.349  10.073  0.0029  0.2869  0.0004
  558MOL0     O76874   5.566   9.347  10.044  0.8275  0.3906  0.4145
  558MOL0     C76875   5.502   9.470   9.995 -0.6491  0.3877  0.3581
  558MOL0     C76876   5.523   9.597  10.074  0.4630 -0.2091 -0.5729
  558MOL0     C76877   5.457   9.725  10.015 -0.6728  0.5647 -0.1176
  558MOL0     C76878   5.304   9.740  10.047  0.1088 -0.2991 -0.9416
  558MOL0     C76879   5.256   9.884  10.010  0.2084  0.3528  0.8834
  558MOL0     C76880   5.257   9.915   9.864  0.1789  0.0961  0.6297
  558MOL0     C76881   5.206  10.060   9.832 -0.7099  0.0097 -0.1200
  558MOL0     C76882   5.059  10.067   9.858  1.5320 -0.4627  0.0671
  558MOL0     N76883   4.999  10.189   9.798  0.4528 -0.3477  0.3705
  558MOL0     C76884   5.064  10.296   9.748 -0.2143 -0.1240  0.3230
  558MOL0     C76885   4.963  10.364   9.694  0.1629 -0.1779 -0.3087
  558MOL0     C76886   4.975  10.502   9.627 -0.8877  0.4196  0.1285
  558MOL0     C76887   4.851  10.542   9.550 -1.3930 -0.1700 -0.2960
  558MOL0     C76888   4.859  10.678   9.493 -0.1127 -0.3355 -0.5226
  558MOL0     C76889   4.927  10.684   9.363 -0.6800 -0.4851  0.3854
  558MOL0     O76890   4.873  10.598   9.257 -0.7987  1.1072  0.2248
  558MOL0     C76891   4.763  10.631   9.180  0.4569  0.1741  0.0026
  558MOL0     C76892   4.704  10.760   9.180  0.5113  0.7231  0.3227
  558MOL0     C76893   4.585  10.791   9.108 -0.1180 -0.4053  0.2146
  558MOL0     C76894   4.530  10.933   9.119  1.1646  0.8285  0.6476
  558MOL0     C76895   4.528  10.691   9.018  0.0925 -1.0328  0.2980
  558MOL0     C76896   4.403  10.710   8.926 -0.7679  0.3586  0.2914
  558MOL0     O76897   4.353  10.838   8.920 -0.4039 -0.2343  0.0720
  558MOL0     C76898   4.243  10.850   8.837  0.7097  0.0975  0.9503
  558MOL0     C76899   4.247  10.831   8.700  0.8585  0.3149  0.3486
  558MOL0     C76900   4.141  10.839   8.615  0.5957 -0.9145 -0.0192
  558MOL0     C76901   4.016  10.873   8.670 -0.7197 -0.1328 -0.1285
  558MOL0     O76902   3.907  10.895   8.590  0.2894 -0.5800  0.2219
  558MOL0     C76903   3.909  10.928   8.454 -0.1274 -0.5358 -0.0770
  558MOL0     C76904   3.762  10.974   8.417  0.2596 -0.1131 -0.8042
  558MOL0     C76905   3.719  11.107   8.475  0.9554 -0.5133  0.1075
  558MOL0     C76906   3.618  11.092   8.583  0.0728 -0.0121 -0.6184
  558MOL0     C76907   3.624  11.217   8.673 -0.2543 -0.3480  0.3231
  558MOL0     C76908   3.516  11.314   8.618 -0.1012 -0.5483 -0.8550
  558MOL0     C76909   3.513  11.435   8.706  0.9765  0.8037 -0.9086
  558MOL0     C76910   3.422  11.551   8.666 -0.3622 -1.2826 -0.2235
  558MOL0    Cl76911   3.514  11.629   8.539 -0.1099 -0.1752  0.2574
  558MOL0     C76912   4.007  10.901   8.808 -0.5880  0.3654  0.7106
  558MOL0     C76913   4.120  10.895   8.885  0.6880  0.1907 -0.8058
  558MOL0     O76914   4.360  10.613   8.871 -0.8674 -0.4520 -0.0149
  558MOL0     C76915   4.596  10.563   9.012 -0.3048  0.0618  0.7946
  558MOL0     C76916   4.715  10.533   9.086  0.4755  0.3062 -0.4626
  558MOL0     N76917   4.845  10.304   9.717  0.0443 -0.5187  0.4884
  558MOL0     N76918   4.868  10.203   9.786  0.3339 -0.0125  0.1931
  558MOL0     C76919   5.798   9.397   9.982 -1.1902 -0.6537 -1.1037
  558MOL0     C76920   5.936   9.366   9.998  0.6194  0.0504  0.4219
  558MOL0     C76921   6.273   9.087  10.134 -0.7114  0.8242 -0.0463
  558MOL0     C76922   6.361   9.196  10.115  0.7591 -0.0884 -0.0610
  558MOL0     C76923   6.502   9.183  10.123  0.4426 -0.1672  0.1643
  558MOL0     C76924   6.551   9.056  10.160  0.5026 -0.0056 -0.1257
  558MOL0     O76925   6.682   9.028  10.175  0.5846 -0.1780 -0.1218
  558MOL0     C76926   6.781   9.125  10.140 -0.5026  1.2329  0.7996
  558MOL0     C76927   6.799   9.233  10.245 -0.9418 -0.3965  0.6977
  558MOL0     C76928   6.947   9.282  10.257 -0.3924 -0.5374 -0.1652
  558MOL0     C76929   6.966   9.404  10.353  0.2179  0.3693 -0.6723
  558MOL0     C76930   6.890   9.528  10.321 -0.2328 -0.1536  0.6088
  558MOL0     C76931   6.831   9.627  10.286 -0.0823  0.0571  0.8208
  558MOL0     C76932   6.473   8.945  10.178  0.6329 -0.0914  0.2007
  558MOL0     C76933   6.331   8.960  10.161  0.0508  0.7784  0.0697
  558MOL0     C76934   6.241   8.830  10.185 -0.0972  0.0647  0.0058
  558MOL0     H76935   5.913   9.209  10.295 -1.5292 -0.9134 -0.8912
  558MOL0     H76936   5.673   9.237  10.253 -2.3014  3.0983 -1.5524
  558MOL0     H76937   5.398   9.438   9.986 -0.4569 -0.8657  1.9142
  558MOL0     H76938   5.522   9.491   9.890 -2.2281 -3.4077 -0.8653
  558MOL0     H76939   5.468   9.588  10.168 -1.3167  3.5399 -1.0695
  558MOL0     H76940   5.630   9.617  10.088  0.4308  0.4994 -1.2429
  558MOL0     H76941   5.528   9.805  10.036  2.1882 -1.7983 -0.0243
  558MOL0     H76942   5.479   9.725   9.908  1.6956  0.9758  0.3183
  558MOL0     H76943   5.240   9.665   9.999  1.0478 -0.6681 -1.6398
  558MOL0     H76944   5.300   9.727  10.156  1.6134 -2.0592 -1.0568
  558MOL0     H76945   5.311   9.963  10.062  1.7982  0.2060 -0.4843
  558MOL0     H76946   5.150   9.905  10.029 -0.0214  2.0251 -1.6632
  558MOL0     H76947   5.355   9.912   9.815 -0.0575 -0.0688  0.1693
  558MOL0     H76948   5.190   9.846   9.812  1.0155 -0.6335  0.4973
  558MOL0     H76949   5.224  10.092   9.729 -1.9992  2.1301  0.2477
  558MOL0     H76950   5.265  10.132   9.891  0.9560  0.2459 -1.9770
  558MOL0     H76951   5.014   9.977   9.816  3.0959 -1.4330  0.3813
  558MOL0     H76952   5.029  10.067   9.963 -3.6553 -3.6072 -1.0481
  558MOL0     H76953   5.166  10.328   9.766 -0.2871 -1.2708  3.3257
  558MOL0     H76954   5.068  10.498   9.569 -1.2381 -0.9787 -0.3881
  558MOL0     H76955   4.986  10.582   9.700  0.1059  1.3821 -1.0237
  558MOL0     H76956   4.843  10.466   9.472  0.9785  0.9790 -1.7663
  558MOL0     H76957   4.758  10.546   9.607  0.3093 -0.5222  2.6967
  558MOL0     H76958   4.759  10.717   9.475  1.0577  3.8464  0.8036
  558MOL0     H76959   4.900  10.746   9.568 -0.0779 -0.4463 -0.4407
  558MOL0     H76960   4.910  10.788   9.333  0.2166  0.4769  2.9286
  558MOL0     H76961   5.036  10.686   9.372 -0.4236  0.4359 -2.0866
  558MOL0     H76962   4.735  10.841   9.246  0.8418  2.2009 -1.5727
  558MOL0     H76963   4.532  10.975   9.018 -2.2437  2.5280  1.1415
  558MOL0     H76964   4.589  11.001   9.182 -1.6443  2.0403  2.1376
  558MOL0     H76965   4.429  10.925   9.161  0.6889  0.6441 -0.5084
  558MOL0     H76966   4.343  10.816   8.651 -0.1107 -1.8341 -1.0238
  558MOL0     H76967   4.153  10.814   8.510  1.9455 -3.0628  0.5805
  558MOL0     H76968   3.975  11.010   8.424 -0.7727 -0.1283 -0.4210
  558MOL0     H76969   3.935  10.842   8.391 -1.4895 -0.7988 -0.3154
  558MOL0     H76970   3.768  10.987   8.309 -0.0864  0.7595 -0.7337
  558MOL0     H76971   3.688  10.895   8.432 -2.1313  2.1352  0.0443
  558MOL0     H76972   3.674  11.169   8.397  0.7018 -0.7237  0.0871
  558MOL0     H76973   3.809  11.161   8.507  0.2985  1.7684 -1.6089
  558MOL0     H76974   3.671  11.013   8.639  0.3554  1.7497  1.7543
  558MOL0     H76975   3.519  11.054   8.556 -0.4220  0.6185  0.2540
  558MOL0     H76976   3.601  11.181   8.774  1.5572 -3.3135 -0.1940
  558MOL0     H76977   3.723  11.264   8.672 -0.9365  1.2130 -2.0869
  558MOL0     H76978   3.417  11.269   8.624 -1.2741  2.1254  2.1504
  558MOL0     H76979   3.537  11.356   8.519  2.4333  0.6063  0.0881
  558MOL0     H76980   3.613  11.478   8.719  1.1183  0.1831  0.1991
  558MOL0     H76981   3.474  11.388   8.797  1.4035 -1.9407 -2.0469
  558MOL0     H76982   3.411  11.617   8.753  1.9192  0.7717 -1.3635
  558MOL0     H76983   3.331  11.518   8.616  0.2598 -0.3855 -2.0094
  558MOL0     H76984   3.905  10.927   8.836 -1.9827 -1.5998 -2.0594
  558MOL0     H76985   4.125  10.913   8.992 -0.6981 -1.6234 -0.3759
  558MOL0     H76986   4.563  10.486   8.944  2.3976 -4.2068  3.7683
  558MOL0     H76987   4.761  10.435   9.084 -0.6796 -0.2549 -0.2975
  558MOL0     H76988   5.768   9.430   9.883  3.3496  2.4223 -1.7655
  558MOL0     H76989   6.001   9.385   9.914  3.0987 -4.3652  1.0742
  558MOL0     H76990   6.339   9.300  10.093  3.1032  0.0137 -2.2961
  558MOL0     H76991   6.554   9.276  10.101  1.8234 -0.6618  1.1916
  558MOL0     H76992   6.874   9.068  10.134 -1.3537 -0.5390  3.1699
  558MOL0     H76993   6.765   9.155  10.035  1.7600 -0.1429 -0.0104
  558MOL0     H76994   6.772   9.190  10.342  0.1004 -4.0264 -0.4666
  558MOL0     H76995   6.727   9.313  10.223 -1.0648 -0.7061 -0.0766
  558MOL0     H76996   7.012   9.197  10.280  0.6989  0.1764 -0.5239
  558MOL0     H76997   6.972   9.326  10.160 -1.7800  2.2824  0.6741
  558MOL0     H76998   7.071   9.435  10.351  0.2681  0.2039 -0.5772
  558MOL0     H76999   6.937   9.377  10.455 -1.1767  1.4701 -0.7374
  558MOL0     H77000   6.770   9.707  10.249 -0.1629 -0.6091 -0.5192
  558MOL0     H77001   6.515   8.848  10.202  0.8011 -0.2159 -0.5642
  558MOL0     H77002   6.192   8.810  10.089  0.2947  2.9089 -0.8900
  558MOL0     H77003   6.288   8.740  10.226  3.4607  1.1048 -1.4297
  558MOL0     H77004   6.170   8.857  10.264 -1.4822 -1.6116 -0.5944
  559MOL0     O77005   9.481   4.355   1.852 -0.1771 -0.7203 -1.1285
  559MOL0     C77006   9.406   4.268   1.811 -0.3948 -0.1579  0.3925
  559MOL0     O77007   9.441   4.139   1.778  0.3422 -0.6291  0.3776
  559MOL0     C77008   9.559   4.088   1.802 -0.6349  0.6709  0.9299
  559MOL0     C77009   9.600   3.995   1.700  0.4453  0.5667 -0.3400
  559MOL0     C77010   9.732   3.938   1.700  0.1660  0.3538  0.1685
  559MOL0     C77011   9.824   3.979   1.796 -0.1681 -0.3085 -0.3636
  559MOL0     O77012   9.947   3.919   1.807 -0.2395  0.0004 -0.0378
  559MOL0     C77013  10.016   3.877   1.692  0.4853 -0.1114  0.1245
  559MOL0     C77014  10.144   3.804   1.741  0.8202  0.1348  0.1957
  559MOL0     C77015  10.202   3.715   1.628  0.1005  0.3921 -0.0123
  559MOL0     C77016  10.149   3.569   1.643 -0.0008  0.6432  0.5021
  559MOL0     C77017  10.210   3.474   1.539  0.5964 -0.7053  0.2453
  559MOL0     C77018  10.154   3.333   1.559  0.4984 -0.5523 -0.6528
  559MOL0     C77019  10.214   3.224   1.466  0.0364  0.0784  0.2474
  559MOL0     C77020  10.373   3.213   1.482  0.6819  0.6786  0.2940
  559MOL0     N77021  10.430   3.090   1.419  0.0841 -0.1167 -0.2865
  559MOL0     C77022  10.460   3.079   1.281 -0.0702 -0.3851 -0.6292
  559MOL0     C77023  10.521   2.959   1.272  0.3295 -0.5658  0.9024
  559MOL0     C77024  10.588   2.901   1.147 -0.3149  0.4886  0.2460
  559MOL0     C77025  10.736   2.908   1.148  0.1714 -0.3624 -0.0538
  559MOL0     C77026  10.777   2.889   0.992  0.4095  0.2815 -0.0876
  559MOL0     C77027  10.774   2.997   0.892 -0.1984 -0.5985  0.5422
  559MOL0     O77028  10.870   3.094   0.923  0.4471  0.7616 -0.7711
  559MOL0     C77029  10.985   3.077   0.849  0.4522  0.1110  0.4671
  559MOL0     C77030  10.999   3.144   0.728  0.2614 -0.0666  0.4086
  559MOL0     C77031  11.113   3.118   0.652  0.1753  0.7196  0.9814
  559MOL0     C77032  11.127   3.200   0.521  0.9640 -0.1257  0.0996
  559MOL0     C77033  11.217   3.032   0.698  0.1279 -0.2710 -0.7702
  559MOL0     C77034  11.348   3.003   0.632 -0.6372  0.8162  0.3004
  559MOL0     O77035  11.418   2.885   0.673  0.2677  0.7879  0.1617
  559MOL0     C77036  11.549   2.875   0.628  0.2527  0.3778 -1.0914
  559MOL0     C77037  11.575   2.848   0.492 -1.2700  0.0741  0.5246
  559MOL0     C77038  11.710   2.852   0.458  0.5263 -0.1834  1.0211
  559MOL0     C77039  11.813   2.890   0.544 -0.2314 -0.2910  0.1906
  559MOL0     O77040  11.948   2.899   0.501  0.1827  0.2400  0.3647
  559MOL0     C77041  11.984   3.037   0.495 -0.7156 -0.1497 -0.3995
  559MOL0     C77042  12.108   3.063   0.575  0.1713  0.3021 -0.0695
  559MOL0     C77043  12.170   3.195   0.524 -0.4073 -0.3200  0.5106
  559MOL0     C77044  12.292   3.246   0.606 -0.3987  0.2262 -0.4114
  559MOL0     C77045  12.347   3.372   0.537  0.0709  0.4185 -0.3721
  559MOL0     C77046  12.453   3.446   0.614  0.4219 -0.1104  0.2879
  559MOL0     C77047  12.523   3.554   0.522  0.8690 -1.0978 -0.3360
  559MOL0     C77048  12.438   3.665   0.470  0.1537 -0.0949  0.2539
  559MOL0    Cl77049  12.417   3.794   0.598 -0.0803 -0.0955 -0.2230
  559MOL0     C77050  11.777   2.909   0.682 -0.6911 -0.2853 -1.0934
  559MOL0     C77051  11.651   2.905   0.725 -0.0546 -0.1240  0.7073
  559MOL0     O77052  11.397   3.096   0.570  0.5260  0.0483  0.5980
  559MOL0     C77053  11.193   2.968   0.821 -0.2828 -0.1842  0.4237
  559MOL0     C77054  11.084   3.002   0.900  0.5207  0.1418  0.0832
  559MOL0     N77055  10.518   2.901   1.397 -0.4851  0.3663  0.4177
  559MOL0     N77056  10.458   2.979   1.481  0.1670  0.4736 -0.2651
  559MOL0     C77057   9.787   4.068   1.892  0.5712 -0.7513 -0.6665
  559MOL0     C77058   9.651   4.115   1.905 -0.3971 -0.5736 -1.2123
  559MOL0     C77059   9.264   4.303   1.766  0.6338 -1.3562 -0.5173
  559MOL0     C77060   9.184   4.217   1.688  0.0970  0.9758 -0.6572
  559MOL0     C77061   9.059   4.248   1.642  0.5231 -0.1152  0.3930
  559MOL0     C77062   9.002   4.377   1.660 -0.1898  0.4324  0.5561
  559MOL0     O77063   8.873   4.406   1.618 -0.7412 -0.3165  0.4012
  559MOL0     C77064   8.872   4.450   1.481  0.1817  0.2828 -0.2035
  559MOL0     C77065   8.896   4.598   1.481  0.0649 -0.0147 -0.3684
  559MOL0     C77066   8.926   4.650   1.344 -0.2737 -0.2059 -0.3163
  559MOL0     C77067   8.816   4.618   1.233 -0.7609  0.0822  0.0892
  559MOL0     C77068   8.854   4.666   1.103 -0.4646  0.4164  1.2863
  559MOL0     C77069   8.898   4.718   0.998 -0.3172 -0.2379  0.4105
  559MOL0     C77070   9.079   4.466   1.739 -1.0696 -0.0437 -0.4653
  559MOL0     C77071   9.204   4.435   1.786 -0.6709 -0.4350 -0.1752
  559MOL0     C77072   9.281   4.554   1.840 -1.0200 -0.1735  0.7357
  559MOL0     H77073   9.529   3.972   1.622 -1.8463  3.7833  0.5771
  559MOL0     H77074   9.769   3.892   1.609 -1.1133  0.8971 -0.6619
  559MOL0     H77075  10.047   3.966   1.637 -0.0527  0.4929  0.7885
  559MOL0     H77076   9.960   3.806   1.631 -0.6260  0.4515  0.4696
  559MOL0     H77077  10.211   3.885   1.769  0.6633  0.5425 -0.5880
  559MOL0     H77078  10.112   3.743   1.826 -1.7947  2.2240  0.8397
  559MOL0     H77079  10.202   3.744   1.523  2.5220  1.2669  0.1789
  559MOL0     H77080  10.307   3.718   1.656 -0.1358 -0.1160  0.9614
  559MOL0     H77081  10.179   3.543   1.745 -1.0984  3.0412  1.5174
  559MOL0     H77082  10.040   3.575   1.635  0.0957  2.5827  0.1390
  559MOL0     H77083  10.320   3.473   1.546  0.8924  1.7995 -2.1604
  559MOL0     H77084  10.189   3.519   1.442  3.5995 -0.6801 -0.5088
  559MOL0     H77085  10.172   3.299   1.662 -0.1933 -2.4110 -1.1104
  559MOL0     H77086  10.045   3.335   1.552  0.4151 -3.6337 -1.4318
  559MOL0     H77087  10.177   3.246   1.366 -3.5792 -0.4611  1.3392
  559MOL0     H77088  10.160   3.133   1.491 -0.8289 -0.4419 -3.0454
  559MOL0     H77089  10.410   3.309   1.443 -1.2132  1.0416 -0.7495
  559MOL0     H77090  10.397   3.207   1.588 -1.1021 -0.8957  0.6692
  559MOL0     H77091  10.451   3.156   1.204  2.5132  1.8447  1.0934
  559MOL0     H77092  10.550   2.954   1.059 -1.8236 -0.6419  0.1712
  559MOL0     H77093  10.552   2.798   1.144 -2.2408  1.1320 -0.4771
  559MOL0     H77094  10.775   3.001   1.190 -0.8020  0.2937 -0.5620
  559MOL0     H77095  10.770   2.819   1.201 -1.9371 -2.4349 -1.9259
  559MOL0     H77096  10.883   2.862   0.993  0.2749 -0.9547 -4.1499
  559MOL0     H77097  10.724   2.804   0.949  0.1005 -0.9361  2.4960
  559MOL0     H77098  10.794   2.950   0.795  0.2198  0.3069  0.1860
  559MOL0     H77099  10.673   3.040   0.891 -1.0294 -2.3355  2.1923
  559MOL0     H77100  10.926   3.222   0.705 -1.0552 -1.1718  0.7425
  559MOL0     H77101  11.043   3.268   0.503  1.0955 -0.3966 -1.7229
  559MOL0     H77102  11.139   3.133   0.435  3.7074  0.7889 -0.3438
  559MOL0     H77103  11.227   3.245   0.524  2.1450 -2.6325  1.2964
  559MOL0     H77104  11.509   2.834   0.407 -1.7380  0.0427  0.8913
  559MOL0     H77105  11.741   2.825   0.357 -0.7231 -0.4885  0.7037
  559MOL0     H77106  12.007   3.074   0.394 -0.6468  0.9763  0.0216
  559MOL0     H77107  11.898   3.099   0.523 -1.4207 -0.4391 -1.8219
  559MOL0     H77108  12.096   3.064   0.684  2.6347 -3.4425  0.4094
  559MOL0     H77109  12.190   2.995   0.551  0.1191 -0.0806  0.7950
  559MOL0     H77110  12.082   3.259   0.535 -0.4996 -0.5331  1.0318
  559MOL0     H77111  12.197   3.179   0.419 -1.3405  1.1564  0.0036
  559MOL0     H77112  12.370   3.169   0.610 -1.3499 -0.9142 -2.3084
  559MOL0     H77113  12.266   3.274   0.708 -0.1483 -1.1238  0.0410
  559MOL0     H77114  12.381   3.350   0.435 -1.6417 -2.8112 -0.3714
  559MOL0     H77115  12.265   3.441   0.515  0.9571  1.3437 -0.8390
  559MOL0     H77116  12.527   3.386   0.667  0.0535  1.1179  2.3055
  559MOL0     H77117  12.412   3.503   0.698 -3.8257 -1.5119 -0.5665
  559MOL0     H77118  12.563   3.496   0.438 -0.5098 -0.6888 -1.3086
  559MOL0     H77119  12.609   3.600   0.571  1.7542 -1.6068 -1.3576
  559MOL0     H77120  12.340   3.634   0.432  0.1640  1.0948 -0.8224
  559MOL0     H77121  12.492   3.713   0.388  0.0528 -1.4280 -0.6192
  559MOL0     H77122  11.855   2.936   0.752  1.2304 -2.1710 -2.3854
  559MOL0     H77123  11.614   2.912   0.827 -1.9920 -1.6866  0.1567
  559MOL0     H77124  11.270   2.898   0.854  3.8798  1.9041 -3.6710
  559MOL0     H77125  11.080   2.958   0.999  0.9952  2.2795  1.0964
  559MOL0     H77126   9.854   4.094   1.974 -0.8155  2.8375 -0.4533
  559MOL0     H77127   9.618   4.182   1.983 -0.0464 -2.3438  0.5115
  559MOL0     H77128   9.227   4.123   1.654  1.0749  1.0654  0.2796
  559MOL0     H77129   9.004   4.165   1.599  0.1305  0.5601 -0.4467
  559MOL0     H77130   8.951   4.401   1.423  2.7712  0.9600  2.5086
  559MOL0     H77131   8.777   4.431   1.430  0.9549 -1.8479 -0.9947
  559MOL0     H77132   8.976   4.630   1.549 -1.2621  0.2667  1.1156
  559MOL0     H77133   8.811   4.651   1.526  0.1634 -0.3105  0.1774
  559MOL0     H77134   8.934   4.759   1.348 -1.4629 -0.1013 -0.3144
  559MOL0     H77135   9.025   4.616   1.313  0.0643 -3.3476  3.4817
  559MOL0     H77136   8.722   4.660   1.271 -0.8663  0.2276 -0.3354
  559MOL0     H77137   8.806   4.511   1.218 -1.2836  0.0550  0.5892
  559MOL0     H77138   8.942   4.754   0.908 -0.4178 -1.0554  0.0205
  559MOL0     H77139   9.034   4.562   1.765 -1.7668 -0.7754  1.1275
  559MOL0     H77140   9.381   4.578   1.801  0.1833  2.5648  4.8601
  559MOL0     H77141   9.225   4.648   1.843  0.3639  0.6485  2.0508
  559MOL0     H77142   9.296   4.544   1.948  0.2831  0.8810  0.6906
  560MOL0     O77143   4.415   4.308   9.034 -0.4363  0.5284 -0.0973
  560MOL0     C77144   4.367   4.364   9.129  0.2359 -0.7451 -0.5480
  560MOL0     O77145   4.400   4.348   9.261  0.2292 -0.3204 -0.0895
  560MOL0     C77146   4.492   4.254   9.307  0.0198 -0.0140  0.0382
  560MOL0     C77147   4.610   4.238   9.253 -0.3334 -0.2100  0.2155
  560MOL0     C77148   4.716   4.154   9.300  0.2771 -0.0474 -0.7638
  560MOL0     C77149   4.688   4.075   9.412  0.2730 -0.1992  0.3704
  560MOL0     O77150   4.775   3.982   9.471  0.0387 -0.2361  0.0707
  560MOL0     C77151   4.909   3.969   9.421  0.5480 -0.5638 -0.3583
  560MOL0     C77152   4.998   4.078   9.486 -0.3720  0.3410  0.8268
  560MOL0     C77153   5.150   4.074   9.435 -0.0530  0.3700 -0.5616
  560MOL0     C77154   5.206   3.939   9.442 -0.0145  0.1726  0.2409
  560MOL0     C77155   5.347   3.937   9.404 -0.2753 -0.4676  0.7473
  560MOL0     C77156   5.399   3.787   9.420  0.4491 -0.8666  0.7765
  560MOL0     C77157   5.545   3.784   9.457 -0.0742 -0.0919 -1.0746
  560MOL0     C77158   5.600   3.644   9.507 -0.0779 -0.5059  0.1323
  560MOL0     N77159   5.524   3.586   9.617  0.2030 -0.5957 -0.3575
  560MOL0     C77160   5.473   3.650   9.722  0.5607  0.2872 -0.3784
  560MOL0     C77161   5.432   3.564   9.813  0.2282 -0.0793 -0.2383
  560MOL0     C77162   5.355   3.607   9.929  0.2683  0.5629 -0.2595
  560MOL0     C77163   5.442   3.625  10.056  0.0009 -0.9174 -0.3841
  560MOL0     C77164   5.501   3.490  10.090  0.9486 -0.1736 -0.5493
  560MOL0     C77165   5.581   3.492  10.217 -0.8369  0.2862  0.0152
  560MOL0     O77166   5.490   3.524  10.317 -0.5246  0.5418  0.5541
  560MOL0     C77167   5.537   3.545  10.449  0.5690 -0.1124  0.6862
  560MOL0     C77168   5.460   3.584  10.561  0.7884  0.1018  0.1432
  560MOL0     C77169   5.517   3.605  10.687 -0.2846 -0.6322  0.2101
  560MOL0     C77170   5.423   3.656  10.793  0.2232  0.0790  0.1473
  560MOL0     C77171   5.654   3.585  10.712 -0.1475 -0.2912  0.0797
  560MOL0     C77172   5.726   3.627  10.840  0.3276 -0.0783 -0.5122
  560MOL0     O77173   5.857   3.676  10.824  0.2300 -0.0012  0.3277
  560MOL0     C77174   5.920   3.716  10.942 -0.6920 -0.5439 -0.0622
  560MOL0     C77175   5.926   3.861  10.980  0.6491  0.0065  0.2146
  560MOL0     C77176   6.005   3.895  11.093 -0.2815 -1.3893  0.5130
  560MOL0     C77177   6.075   3.806  11.170  1.1712 -0.2655 -0.5434
  560MOL0     O77178   6.143   3.852  11.284  0.7467  0.0920  0.2449
  560MOL0     C77179   6.243   3.769  11.338 -0.5419  1.3982  0.4611
  560MOL0     C77180   6.286   3.829  11.476  0.2545 -0.5749  0.4228
  560MOL0     C77181   6.378   3.957  11.473 -0.6264  0.3777 -0.1144
  560MOL0     C77182   6.453   3.968  11.613  0.3706  0.3357  0.1111
  560MOL0     C77183   6.582   4.048  11.593  0.0277 -0.3287  0.2089
  560MOL0     C77184   6.649   4.091  11.718  0.5938 -0.0052  0.3601
  560MOL0     C77185   6.792   4.128  11.697  0.2201  0.0990  0.3618
  560MOL0     C77186   6.874   4.126  11.828 -0.4054  0.2769 -0.3109
  560MOL0    Cl77187   6.834   4.266  11.930 -0.1138  0.0937  0.1976
  560MOL0     C77188   6.074   3.676  11.123  0.1104  0.9158  0.0187
  560MOL0     C77189   6.000   3.626  11.011  0.7935  0.1977 -0.2407
  560MOL0     O77190   5.674   3.609  10.949 -0.4916  0.2867  0.2074
  560MOL0     C77191   5.734   3.552  10.601 -0.2317 -0.1482 -0.0254
  560MOL0     C77192   5.671   3.530  10.479 -0.5698  1.3335 -0.0820
  560MOL0     N77193   5.444   3.432   9.757 -0.2773 -0.9457  0.4466
  560MOL0     N77194   5.503   3.455   9.638 -0.2374  0.1709 -0.5288
  560MOL0     C77195   4.567   4.098   9.479 -0.2113  0.2190  0.2834
  560MOL0     C77196   4.466   4.183   9.424  0.7072  0.9017  0.1053
  560MOL0     C77197   4.268   4.482   9.115  0.3641 -0.0187  0.9355
  560MOL0     C77198   4.238   4.562   9.225  0.1000  0.0212  0.3922
  560MOL0     C77199   4.158   4.676   9.225  0.1117 -0.2494  0.7660
  560MOL0     C77200   4.106   4.713   9.100  0.0747 -0.4003  0.6188
  560MOL0     O77201   4.013   4.821   9.073  0.3970  0.6237 -0.1969
  560MOL0     C77202   3.943   4.893   9.177  0.4493 -0.9183 -0.6708
  560MOL0     C77203   3.834   4.808   9.229  0.5177 -0.5167  0.4362
  560MOL0     C77204   3.723   4.801   9.127 -0.3345  0.0518  0.4331
  560MOL0     C77205   3.609   4.717   9.180  0.4362 -0.1333 -1.0400
  560MOL0     C77206   3.495   4.747   9.094 -0.2594 -0.2749  0.2830
  560MOL0     C77207   3.399   4.771   9.019  0.1759 -0.3020 -0.6977
  560MOL0     C77208   4.130   4.633   8.987  0.5157  0.6377  0.7600
  560MOL0     C77209   4.211   4.522   8.990 -0.1916  0.2455  0.6356
  560MOL0     C77210   4.237   4.462   8.860 -0.1426  0.0378  0.0543
  560MOL0     H77211   4.640   4.292   9.163 -2.1255  2.6209  1.2040
  560MOL0     H77212   4.806   4.145   9.239  0.3856 -0.6004 -0.5346
  560MOL0     H77213   4.911   3.975   9.312  1.2662  0.8147 -0.2923
  560MOL0     H77214   4.952   3.871   9.443 -1.0504 -0.8894  1.5504
  560MOL0     H77215   4.946   4.173   9.469 -1.0123 -0.4145 -1.9109
  560MOL0     H77216   5.000   4.059   9.593  0.7487  1.9804  1.1391
  560MOL0     H77217   5.150   4.100   9.329 -0.9890 -3.1482 -1.5374
  560MOL0     H77218   5.211   4.151   9.484  2.1231 -1.8288  0.3556
  560MOL0     H77219   5.195   3.912   9.548 -1.6595  1.5448  0.4544
  560MOL0     H77220   5.154   3.861   9.385 -0.6239  1.0868 -0.4809
  560MOL0     H77221   5.411   4.000   9.465  1.2071 -0.3537 -0.8550
  560MOL0     H77222   5.357   3.971   9.301 -3.1345  1.3019  0.9349
  560MOL0     H77223   5.348   3.739   9.503 -2.4083  3.6706  2.0347
  560MOL0     H77224   5.389   3.739   9.322  3.4232 -1.9353  0.8865
  560MOL0     H77225   5.576   3.856   9.534 -1.1686 -0.4782 -0.2492
  560MOL0     H77226   5.612   3.810   9.375  0.1761  1.6937 -0.3527
  560MOL0     H77227   5.592   3.568   9.428  0.3478  0.0369 -0.4483
  560MOL0     H77228   5.704   3.668   9.533 -0.8551 -0.4525  3.6945
  560MOL0     H77229   5.473   3.757   9.742  2.3522  1.2433 -4.5498
  560MOL0     H77230   5.269   3.543   9.950 -0.3813  1.1095 -1.1653
  560MOL0     H77231   5.304   3.701   9.906 -2.1006 -0.7872 -0.8211
  560MOL0     H77232   5.516   3.703  10.035 -1.1374  0.1888 -0.4195
  560MOL0     H77233   5.376   3.659  10.136  2.6903  0.1055  1.5447
  560MOL0     H77234   5.418   3.419  10.095  0.0668  0.8357 -0.3795
  560MOL0     H77235   5.560   3.456  10.005 -0.3201 -2.2412 -0.6845
  560MOL0     H77236   5.619   3.392  10.240 -1.4321 -0.1251 -0.7727
  560MOL0     H77237   5.655   3.573  10.212 -0.5679  0.0323 -0.2066
  560MOL0     H77238   5.357   3.601  10.533  0.3189 -0.9498  1.1581
  560MOL0     H77239   5.473   3.742  10.839 -1.1894  1.5858 -1.0430
  560MOL0     H77240   5.400   3.579  10.867  1.0881 -1.5052 -1.1498
  560MOL0     H77241   5.329   3.684  10.745  0.1361 -2.2013 -1.1824
  560MOL0     H77242   5.866   3.933  10.923  0.0228 -0.3325  0.4374
  560MOL0     H77243   6.010   3.999  11.125 -0.2653 -0.9771 -0.7888
  560MOL0     H77244   6.207   3.667  11.356  0.0145  0.9646 -0.7491
  560MOL0     H77245   6.320   3.766  11.260 -1.7894  1.7548 -0.8474
  560MOL0     H77246   6.197   3.858  11.532 -0.8568 -2.7979 -0.0860
  560MOL0     H77247   6.343   3.754  11.532  2.3214  1.5347  1.3111
  560MOL0     H77248   6.328   4.050  11.445  2.0018  1.8320 -0.3599
  560MOL0     H77249   6.445   3.954  11.386 -0.5876 -0.3871 -0.0649
  560MOL0     H77250   6.468   3.862  11.634  1.7467  0.4464 -0.2182
  560MOL0     H77251   6.384   4.008  11.688 -0.7133 -2.2194  0.5868
  560MOL0     H77252   6.658   3.991  11.538 -0.9034 -1.5276  0.1095
  560MOL0     H77253   6.558   4.138  11.535 -0.1948  0.9355  2.1814
  560MOL0     H77254   6.639   4.005  11.786 -0.1704  0.1743  0.4831
  560MOL0     H77255   6.591   4.169  11.767  0.0244 -0.8749  1.1095
  560MOL0     H77256   6.795   4.219  11.637 -0.0637  1.1786  1.9417
  560MOL0     H77257   6.831   4.045  11.638 -2.3389 -2.4704  1.9898
  560MOL0     H77258   6.981   4.134  11.811 -0.6476  3.0424 -1.1685
  560MOL0     H77259   6.865   4.030  11.877 -0.0333 -0.7053 -2.0673
  560MOL0     H77260   6.123   3.594  11.175 -3.1237 -0.3038  1.3998
  560MOL0     H77261   6.005   3.520  10.990  2.7746 -0.0059  0.9941
  560MOL0     H77262   5.841   3.551  10.620 -0.0326 -1.1728 -1.0754
  560MOL0     H77263   5.741   3.499  10.403  0.8366 -1.4921  2.1612
  560MOL0     H77264   4.558   4.041   9.571  0.8187 -1.2847 -0.4949
  560MOL0     H77265   4.361   4.179   9.453  0.1375 -0.7229 -1.8557
  560MOL0     H77266   4.278   4.533   9.322 -0.8157  1.6903  1.3098
  560MOL0     H77267   4.131   4.730   9.315 -4.0162 -1.0151  0.1741
  560MOL0     H77268   4.007   4.921   9.261 -2.3073 -0.5400  1.4832
  560MOL0     H77269   3.906   4.990   9.141 -0.3254 -1.2371 -0.7523
  560MOL0     H77270   3.795   4.849   9.323  1.1123  1.0585  0.0286
  560MOL0     H77271   3.876   4.709   9.250  3.5087  0.1744 -1.7309
  560MOL0     H77272   3.681   4.902   9.124  1.1678  0.6770 -0.3212
  560MOL0     H77273   3.760   4.754   9.036  0.4668  0.7706  0.3801
  560MOL0     H77274   3.587   4.735   9.286 -1.4321  1.1912 -1.6046
  560MOL0     H77275   3.640   4.612   9.174  0.4755 -0.1974  0.0638
  560MOL0     H77276   3.314   4.789   8.955  1.4979  0.2823 -2.3605
  560MOL0     H77277   4.081   4.681   8.902  0.9172 -0.9164 -0.3966
  560MOL0     H77278   4.173   4.499   8.780 -0.4774  0.1191  0.3579
  560MOL0     H77279   4.340   4.494   8.842  0.5198  0.0557  3.2209
  560MOL0     H77280   4.237   4.352   8.863 -1.3767  0.0106 -0.3416
  561MOL0     O77281   2.054   3.016   2.774 -0.1246 -0.1129 -0.0873
  561MOL0     C77282   2.005   3.128   2.773  0.0064  0.0651 -0.7326
  561MOL0     O77283   2.059   3.248   2.737 -0.2572  0.4774 -0.9897
  561MOL0     C77284   2.194   3.252   2.747 -0.7676  0.5604 -0.7806
  561MOL0     C77285   2.266   3.208   2.859 -0.1555 -0.3632  0.0143
  561MOL0     C77286   2.398   3.237   2.877  0.3175 -0.5542  0.4428
  561MOL0     C77287   2.467   3.292   2.775 -0.4539 -0.7244  0.5065
  561MOL0     O77288   2.601   3.319   2.787 -0.0765 -0.5005 -0.6782
  561MOL0     C77289   2.677   3.328   2.917 -0.3218  0.1922  0.3092
  561MOL0     C77290   2.828   3.330   2.885 -0.3838  0.2577  0.0720
  561MOL0     C77291   2.869   3.448   2.792 -0.0544  0.2977 -0.8486
  561MOL0     C77292   3.022   3.451   2.782 -0.6085 -0.1483  0.2707
  561MOL0     C77293   3.066   3.562   2.692 -0.6769  0.6549 -0.0598
  561MOL0     C77294   3.214   3.569   2.665 -0.5815 -0.1512 -0.3237
  561MOL0     C77295   3.272   3.463   2.563  0.5793  0.1102 -0.3956
  561MOL0     C77296   3.297   3.512   2.418  0.0536  0.5117 -0.1480
  561MOL0     N77297   3.403   3.609   2.421 -0.2979 -0.0921 -0.4157
  561MOL0     C77298   3.534   3.599   2.475  1.1537  0.0537 -0.1881
  561MOL0     C77299   3.579   3.726   2.473  0.2895  0.1358 -0.1265
  561MOL0     C77300   3.711   3.772   2.539  0.1107 -0.0486  0.6995
  561MOL0     C77301   3.680   3.841   2.670  0.0738  1.1401 -0.0006
  561MOL0     C77302   3.810   3.917   2.717 -0.9131 -0.0064  0.2980
  561MOL0     C77303   3.929   3.824   2.759  0.9171 -0.0934 -0.8861
  561MOL0     O77304   3.877   3.727   2.852 -0.3850  0.2797 -0.7714
  561MOL0     C77305   3.954   3.618   2.891  0.0949  0.5445 -0.1733
  561MOL0     C77306   3.925   3.544   3.001  0.5358  0.2255 -0.4590
  561MOL0     C77307   3.985   3.422   3.043 -0.7599 -0.2558  1.0942
  561MOL0     C77308   3.912   3.332   3.151 -0.3545 -0.0423  0.1587
  561MOL0     C77309   4.089   3.378   2.958  0.1760 -0.3759  0.9263
  561MOL0     C77310   4.160   3.248   2.980  0.2225 -0.6067  0.3236
  561MOL0     O77311   4.209   3.196   2.867  0.1580  0.0579  0.0721
  561MOL0     C77312   4.288   3.084   2.866 -0.1635  1.0417  0.3238
  561MOL0     C77313   4.392   3.080   2.779 -0.4549 -0.4571 -0.1511
  561MOL0     C77314   4.486   2.976   2.781  0.3185  0.3771 -0.3127
  561MOL0     C77315   4.458   2.864   2.867 -0.5681 -0.1062  0.4746
  561MOL0     O77316   4.546   2.760   2.857 -0.3458  0.2742  0.2734
  561MOL0     C77317   4.498   2.625   2.860  0.3833  0.6190  0.2712
  561MOL0     C77318   4.549   2.541   2.970 -0.0102 -0.2625 -0.0543
  561MOL0     C77319   4.698   2.509   2.953  0.2690  0.0793  0.1808
  561MOL0     C77320   4.730   2.395   3.054 -0.2745 -0.7884  1.1080
  561MOL0     C77321   4.874   2.325   3.035 -0.4879 -0.6565  0.2625
  561MOL0     C77322   4.998   2.410   3.075  0.3300  0.3913  1.1867
  561MOL0     C77323   5.131   2.338   3.047 -0.2374  0.1036 -0.5573
  561MOL0     C77324   5.250   2.428   3.076  0.9037  1.0743  0.4365
  561MOL0    Cl77325   5.399   2.353   3.008 -0.1913  0.1337 -0.2318
  561MOL0     C77326   4.349   2.863   2.955 -0.2521  0.2138  0.3018
  561MOL0     C77327   4.269   2.972   2.952  0.3741 -0.3090  0.3669
  561MOL0     O77328   4.179   3.204   3.088  0.6522 -0.3135  0.3582
  561MOL0     C77329   4.130   3.455   2.839  0.0497  0.4692  0.4097
  561MOL0     C77330   4.057   3.565   2.804  0.5731  0.6054  0.3311
  561MOL0     N77331   3.482   3.814   2.428  0.4586 -0.7407  0.1040
  561MOL0     N77332   3.386   3.741   2.384  0.1977  0.6571 -0.5675
  561MOL0     C77333   2.402   3.328   2.654  0.9027  0.2575  0.1841
  561MOL0     C77334   2.265   3.312   2.643  0.6891  0.0024 -0.1995
  561MOL0     C77335   1.861   3.127   2.800  0.3085  0.7438 -0.2545
  561MOL0     C77336   1.804   3.034   2.886 -0.0804  0.5960  0.6111
  561MOL0     C77337   1.667   3.029   2.916 -0.6037  0.2104 -0.9367
  561MOL0     C77338   1.584   3.124   2.870  0.5556  0.3063  0.3879
  561MOL0     O77339   1.447   3.107   2.890 -0.2213  0.3441  0.4606
  561MOL0     C77340   1.360   3.176   2.806  0.6655 -0.8264  0.0193
  561MOL0     C77341   1.222   3.153   2.849  0.1043  0.3690 -0.2818
  561MOL0     C77342   1.124   3.241   2.781  1.4177 -0.5917 -0.1314
  561MOL0     C77343   0.988   3.243   2.846  0.7069 -0.3611  0.0403
  561MOL0     C77344   0.923   3.109   2.854  0.5386 -0.2642  0.7536
  561MOL0     C77345   0.846   3.012   2.855 -0.0307 -0.0058 -0.4901
  561MOL0     C77346   1.643   3.213   2.775  0.5630 -0.2752 -0.0881
  561MOL0     C77347   1.776   3.215   2.739  1.2453  0.1709 -0.0305
  561MOL0     C77348   1.811   3.312   2.628 -0.0795  0.3091 -0.8621
  561MOL0     H77349   2.209   3.163   2.940 -1.6982 -2.3646 -2.0336
  561MOL0     H77350   2.440   3.211   2.973  0.1143 -1.1027  0.3913
  561MOL0     H77351   2.656   3.241   2.980 -0.0014  0.1949  0.4195
  561MOL0     H77352   2.645   3.418   2.971  0.5675  0.6151  0.1573
  561MOL0     H77353   2.896   3.317   2.970 -0.9327 -0.3185  0.4356
  561MOL0     H77354   2.856   3.244   2.823  1.7884  1.5134 -0.7880
  561MOL0     H77355   2.820   3.436   2.695 -0.5729  1.1748 -0.7010
  561MOL0     H77356   2.831   3.540   2.838 -2.0088  0.3635 -2.4808
  561MOL0     H77357   3.054   3.472   2.884  0.3445 -1.2632  0.2222
  561MOL0     H77358   3.058   3.354   2.745 -0.0252  0.1903 -0.0657
  561MOL0     H77359   3.031   3.653   2.742 -2.1820 -0.2723  0.6461
  561MOL0     H77360   3.009   3.569   2.599  0.1371  2.4350 -0.4707
  561MOL0     H77361   3.236   3.664   2.616  1.4926 -0.5335 -0.2082
  561MOL0     H77362   3.268   3.568   2.760 -2.9177  0.6228  1.1160
  561MOL0     H77363   3.218   3.368   2.561  2.7456 -1.2926  1.7219
  561MOL0     H77364   3.360   3.424   2.614 -1.1219 -0.3041  2.4495
  561MOL0     H77365   3.327   3.430   2.353 -1.6125 -0.5220  0.3211
  561MOL0     H77366   3.204   3.559   2.385  0.7072  3.0835  1.3823
  561MOL0     H77367   3.580   3.512   2.521 -0.8523 -0.9326  0.0604
  561MOL0     H77368   3.749   3.847   2.469  1.2251 -1.0389  0.2115
  561MOL0     H77369   3.783   3.691   2.556 -1.1060 -1.5417 -0.9116
  561MOL0     H77370   3.597   3.910   2.650  0.2268  0.6627 -2.6006
  561MOL0     H77371   3.646   3.771   2.747  0.3604  1.0538  0.0471
  561MOL0     H77372   3.844   3.984   2.638 -0.5098  0.9140  1.2201
  561MOL0     H77373   3.789   3.981   2.804  0.4455  0.7072  0.1238
  561MOL0     H77374   3.975   3.797   2.663 -0.8616  0.7503 -2.0186
  561MOL0     H77375   4.012   3.878   2.807  1.9331 -1.5444 -0.9280
  561MOL0     H77376   3.832   3.568   3.051  0.4133  1.6261 -1.3247
  561MOL0     H77377   3.869   3.241   3.109  2.0906 -1.0346 -0.3796
  561MOL0     H77378   3.835   3.389   3.204 -2.0493  0.1398 -2.3258
  561MOL0     H77379   3.991   3.296   3.217  0.1910  0.8964  0.0370
  561MOL0     H77380   4.396   3.164   2.710 -0.4277  1.2134  1.7896
  561MOL0     H77381   4.562   2.966   2.704 -1.8113  0.9512 -2.6129
  561MOL0     H77382   4.389   2.624   2.856  0.2908  3.0643  0.4914
  561MOL0     H77383   4.532   2.580   2.766  0.5058 -1.2658  1.1877
  561MOL0     H77384   4.540   2.600   3.062 -0.3572 -0.0172 -0.2447
  561MOL0     H77385   4.486   2.453   2.985 -0.0960 -0.0658  0.7580
  561MOL0     H77386   4.752   2.600   2.982  1.2976 -0.1793 -0.8951
  561MOL0     H77387   4.724   2.487   2.850  0.8008  1.2614  0.0512
  561MOL0     H77388   4.660   2.311   3.045 -0.9777 -0.4259  2.8629
  561MOL0     H77389   4.718   2.428   3.157  0.6399 -1.8681  1.5932
  561MOL0     H77390   4.880   2.237   3.099 -2.0020  0.6097  2.2826
  561MOL0     H77391   4.887   2.301   2.929  1.7892  2.0041 -0.1653
  561MOL0     H77392   4.991   2.436   3.181 -1.5160  1.2215  0.9003
  561MOL0     H77393   4.999   2.505   3.019 -0.8936  2.1801  3.9640
  561MOL0     H77394   5.145   2.323   2.940  0.1799  1.0736 -0.6462
  561MOL0     H77395   5.147   2.247   3.107  1.4853  0.5869 -0.2273
  561MOL0     H77396   5.248   2.440   3.185 -1.6044 -0.7784  0.6886
  561MOL0     H77397   5.241   2.523   3.023 -0.4146  1.7269  1.7902
  561MOL0     H77398   4.308   2.786   3.018 -0.3803  2.7196  3.5305
  561MOL0     H77399   4.179   2.983   3.011 -2.3769 -1.1761 -3.2970
  561MOL0     H77400   4.209   3.424   2.770 -0.5886  0.7010 -0.4469
  561MOL0     H77401   4.080   3.613   2.709 -2.8695  0.5153 -0.6970
  561MOL0     H77402   2.454   3.369   2.568 -2.5715  3.1429 -0.7878
  561MOL0     H77403   2.223   3.352   2.551  0.7050  0.1785 -0.1305
  561MOL0     H77404   1.867   2.955   2.928  1.5853  1.5787  0.0710
  561MOL0     H77405   1.622   2.954   2.980 -0.9753  1.7501  0.7021
  561MOL0     H77406   1.379   3.284   2.813 -0.2727 -0.4791 -2.1364
  561MOL0     H77407   1.370   3.154   2.700 -1.9591  1.7030 -0.8833
  561MOL0     H77408   1.204   3.144   2.957 -0.6250 -0.5305 -0.4554
  561MOL0     H77409   1.199   3.053   2.808 -0.7151  0.4217  0.0222
  561MOL0     H77410   1.155   3.346   2.779 -1.7508  0.4793 -3.3629
  561MOL0     H77411   1.107   3.219   2.675  0.0702 -0.5235  0.0552
  561MOL0     H77412   0.923   3.301   2.780  2.9568  0.4468 -1.6116
  561MOL0     H77413   0.987   3.279   2.949 -0.7129 -1.0221  0.2893
  561MOL0     H77414   0.771   2.935   2.853 -0.4964  0.1430  3.3693
  561MOL0     H77415   1.580   3.282   2.720  0.6223  1.3458  1.7835
  561MOL0     H77416   1.871   3.389   2.677 -3.5433  1.7859  1.4337
  561MOL0     H77417   1.865   3.260   2.548  0.0109  1.0234 -1.2765
  561MOL0     H77418   1.723   3.369   2.598 -0.2632  0.4586 -0.0712
  562MOL0     O77419   3.114   9.204   4.757  0.4719 -0.0841 -0.1369
  562MOL0     C77420   3.018   9.158   4.697  0.4026  0.7283  1.0818
  562MOL0     O77421   2.924   9.223   4.611 -0.1566  0.1922  0.3533
  562MOL0     C77422   2.966   9.344   4.559 -0.3937  1.4554  0.1205
  562MOL0     C77423   2.994   9.352   4.424  0.5978 -0.5242 -0.4977
  562MOL0     C77424   3.039   9.479   4.373 -0.6870 -0.1167 -0.1751
  562MOL0     C77425   3.063   9.587   4.456 -0.5230  0.5391  0.7033
  562MOL0     O77426   3.110   9.704   4.397  0.3700  0.0014 -0.5625
  562MOL0     C77427   3.108   9.827   4.478  0.7194 -0.3098  0.5646
  562MOL0     C77428   3.177   9.938   4.401 -1.2359  1.0027  0.1407
  562MOL0     C77429   3.320   9.913   4.352  0.3040  0.2102 -0.9648
  562MOL0     C77430   3.408   9.895   4.470 -0.8909 -0.5614 -0.0395
  562MOL0     C77431   3.555   9.873   4.418  0.5437  0.0552 -0.8637
  562MOL0     C77432   3.656   9.858   4.540  0.2502  0.1332  0.2028
  562MOL0     C77433   3.663   9.707   4.580 -0.2924  0.2649  0.0027
  562MOL0     C77434   3.791   9.660   4.659  0.8134 -0.3075 -0.2799
  562MOL0     N77435   3.807   9.698   4.802  0.4972  0.3212  0.2606
  562MOL0     C77436   3.709   9.677   4.894 -1.2674  0.4101  0.5589
  562MOL0     C77437   3.749   9.730   5.006  0.7885  0.5958  0.3540
  562MOL0     C77438   3.667   9.741   5.141 -0.4104 -0.7606 -0.3418
  562MOL0     C77439   3.670   9.608   5.215  0.3205  0.3982  0.1529
  562MOL0     C77440   3.813   9.557   5.241  0.1400 -0.4048  0.6775
  562MOL0     C77441   3.889   9.651   5.339 -0.7738 -0.5746 -0.2440
  562MOL0     O77442   3.813   9.699   5.444  0.4091 -0.1548  0.1411
  562MOL0     C77443   3.878   9.789   5.530  0.9120 -0.0234  0.3620
  562MOL0     C77444   3.825   9.912   5.551  0.1660 -0.0504  0.0620
  562MOL0     C77445   3.897  10.009   5.626 -0.4920  0.2828  0.3904
  562MOL0     C77446   3.858  10.155   5.611 -0.4957  0.1975  0.1520
  562MOL0     C77447   4.024   9.968   5.685 -0.0102 -0.5425 -0.5352
  562MOL0     C77448   4.103  10.065   5.777 -0.5024 -0.0979 -0.6231
  562MOL0     O77449   4.231  10.081   5.761 -0.0395 -0.1003 -0.2527
  562MOL0     C77450   4.301  10.167   5.834 -0.0296  0.6176 -0.0156
  562MOL0     C77451   4.291  10.304   5.817  0.2030 -0.0505 -0.7023
  562MOL0     C77452   4.355  10.389   5.907  0.1420  0.1541  0.4597
  562MOL0     C77453   4.435  10.339   6.012  0.3168  0.1650 -0.1587
  562MOL0     O77454   4.484  10.434   6.097  0.1472 -0.0839  0.3654
  562MOL0     C77455   4.525  10.383   6.229  0.0564 -0.7786 -0.5052
  562MOL0     C77456   4.557  10.488   6.339 -0.0792 -0.2683 -0.1211
  562MOL0     C77457   4.588  10.432   6.482  0.8274 -0.4511  0.3737
  562MOL0     C77458   4.740  10.382   6.493  0.8196 -0.0494 -0.2258
  562MOL0     C77459   4.792  10.373   6.638  0.1855  0.9140  0.1394
  562MOL0     C77460   4.707  10.270   6.717 -0.5480  0.0487 -0.3570
  562MOL0     C77461   4.758  10.126   6.694 -0.1197 -0.2206 -0.5544
  562MOL0     C77462   4.877  10.087   6.782 -0.6206 -0.1960 -1.0254
  562MOL0    Cl77463   4.861  10.133   6.965  0.1206  0.3845 -0.1560
  562MOL0     C77464   4.438  10.204   6.033  0.0715  0.6684  0.4252
  562MOL0     C77465   4.369  10.116   5.948 -0.4540 -0.4625 -0.9024
  562MOL0     O77466   4.032  10.131   5.852  0.2843 -0.2990  0.3310
  562MOL0     C77467   4.069   9.836   5.681  0.8570  0.3749 -0.3488
  562MOL0     C77468   3.999   9.756   5.593 -0.0871  0.2242  0.3529
  562MOL0     N77469   3.872   9.780   4.987 -0.2466  0.4034  0.2192
  562MOL0     N77470   3.912   9.745   4.869  0.1745 -0.8666  1.1175
  562MOL0     C77471   3.027   9.577   4.587 -0.2166  0.6417 -0.4484
  562MOL0     C77472   2.969   9.458   4.634 -0.4102  0.3933  0.7472
  562MOL0     C77473   2.975   9.028   4.745  0.3577 -0.3529  0.1376
  562MOL0     C77474   2.954   9.018   4.881 -0.4858  0.0970  0.6924
  562MOL0     C77475   2.885   8.917   4.932 -0.1894  0.5254  0.1345
  562MOL0     C77476   2.835   8.813   4.854 -0.5147 -0.2999 -0.4198
  562MOL0     O77477   2.789   8.707   4.926  0.5777  0.2590 -0.0040
  562MOL0     C77478   2.675   8.640   4.869 -0.3081  0.3251 -0.0288
  562MOL0     C77479   2.569   8.625   4.981 -0.5583 -0.4885  0.3141
  562MOL0     C77480   2.548   8.752   5.078  0.0493 -1.0484 -0.3580
  562MOL0     C77481   2.439   8.838   5.010  0.3594 -0.3453 -0.3950
  562MOL0     C77482   2.310   8.777   5.052 -0.1541 -0.2918  0.7402
  562MOL0     C77483   2.198   8.736   5.063  0.3513  0.5429 -0.5648
  562MOL0     C77484   2.853   8.821   4.716  0.7142 -0.1011 -1.4508
  562MOL0     C77485   2.917   8.927   4.661  0.5619 -0.0266  0.9956
  562MOL0     C77486   2.931   8.923   4.509  0.0394  0.0970 -0.3464
  562MOL0     H77487   2.993   9.269   4.354  1.9670 -0.4819 -0.6055
  562MOL0     H77488   3.068   9.493   4.269 -2.1152  0.8634 -0.4672
  562MOL0     H77489   3.169   9.814   4.568  2.5663 -1.5159 -0.7641
  562MOL0     H77490   3.004   9.853   4.500  0.7076 -0.2729  0.4652
  562MOL0     H77491   3.110   9.974   4.322 -1.8113 -0.2571  0.0414
  562MOL0     H77492   3.180  10.028   4.464  0.3497  3.0376 -2.6080
  562MOL0     H77493   3.325   9.819   4.296  0.4563 -0.4896  0.1977
  562MOL0     H77494   3.361   9.986   4.281  1.6448  1.3365  0.8805
  562MOL0     H77495   3.412   9.979   4.540 -0.2011 -0.3849 -0.2788
  562MOL0     H77496   3.374   9.813   4.534 -0.1490  0.2795  1.5015
  562MOL0     H77497   3.575   9.969   4.368 -1.5678  1.6529  1.1336
  562MOL0     H77498   3.568   9.797   4.340  1.1308 -1.1494  0.3768
  562MOL0     H77499   3.749   9.888   4.489 -0.5576 -0.7195 -1.8733
  562MOL0     H77500   3.635   9.916   4.630 -1.3042 -0.5026  0.2721
  562MOL0     H77501   3.662   9.641   4.492 -2.0875  1.1277 -0.6810
  562MOL0     H77502   3.572   9.689   4.639 -1.2059  0.8302 -1.1770
  562MOL0     H77503   3.790   9.550   4.659  0.6144 -0.3067 -0.4091
  562MOL0     H77504   3.874   9.706   4.604  1.3959  0.3353  1.0902
  562MOL0     H77505   3.611   9.634   4.877 -1.0270  0.4726 -1.1317
  562MOL0     H77506   3.565   9.771   5.115 -0.1596  1.5531  1.0365
  562MOL0     H77507   3.699   9.821   5.209 -3.3927  2.7608 -2.6498
  562MOL0     H77508   3.620   9.629   5.310  2.5080  0.5223  1.3426
  562MOL0     H77509   3.618   9.525   5.168 -0.8992  1.2448 -0.0256
  562MOL0     H77510   3.808   9.464   5.297  0.9665 -1.1669 -0.4801
  562MOL0     H77511   3.874   9.537   5.153 -0.4167 -0.4633  0.3004
  562MOL0     H77512   3.982   9.605   5.372  0.1257 -0.8361 -2.8693
  562MOL0     H77513   3.919   9.733   5.273 -0.2469 -1.4683 -1.1561
  562MOL0     H77514   3.732   9.927   5.497  0.9983 -1.7119 -1.9833
  562MOL0     H77515   3.947  10.199   5.565 -0.2732  0.0563  0.4472
  562MOL0     H77516   3.848  10.208   5.706  1.3753  2.7467 -0.9783
  562MOL0     H77517   3.766  10.164   5.554 -1.0265 -1.3487  0.7055
  562MOL0     H77518   4.236  10.347   5.734 -0.5937  0.6486  0.1638
  562MOL0     H77519   4.351  10.496   5.890  1.2912  0.0019 -1.0025
  562MOL0     H77520   4.443  10.320   6.263  1.8759 -2.8228  0.3397
  562MOL0     H77521   4.616  10.323   6.216  0.3764 -0.6337  0.8856
  562MOL0     H77522   4.647  10.543   6.308 -1.0148  1.7479  0.5505
  562MOL0     H77523   4.464  10.546   6.344 -0.2751 -0.2859 -2.4496
  562MOL0     H77524   4.524  10.345   6.498  1.2135 -1.0599 -1.2871
  562MOL0     H77525   4.559  10.506   6.558 -1.6349  1.4153 -2.1615
  562MOL0     H77526   4.797  10.455   6.435 -1.1511  2.1806  0.4743
  562MOL0     H77527   4.751  10.283   6.449  1.1814  0.2145 -0.7421
  562MOL0     H77528   4.896  10.339   6.640 -0.1681 -0.1818  1.4562
  562MOL0     H77529   4.787  10.474   6.679  0.6937  1.5572 -1.3283
  562MOL0     H77530   4.602  10.276   6.687 -0.6064  1.7711  0.0996
  562MOL0     H77531   4.716  10.296   6.823 -1.0717  1.6316 -0.6742
  562MOL0     H77532   4.778  10.120   6.586  0.9887  2.8124 -0.6196
  562MOL0     H77533   4.681  10.059   6.733 -0.5775  2.3939  3.5819
  562MOL0     H77534   4.974  10.126   6.749  0.2979 -1.6494 -0.1685
  562MOL0     H77535   4.894   9.980   6.766  0.7498 -0.4565  1.6035
  562MOL0     H77536   4.485  10.149   6.114  2.2853 -0.0697 -1.2386
  562MOL0     H77537   4.368  10.008   5.951 -0.4041 -0.4835 -1.6249
  562MOL0     H77538   4.159   9.801   5.731 -0.1389 -1.3830  0.2839
  562MOL0     H77539   4.033   9.653   5.590  0.9045  0.5414  0.2808
  562MOL0     H77540   3.048   9.649   4.665  2.0264 -0.6465  0.2281
  562MOL0     H77541   2.959   9.446   4.741  3.9747 -0.8291  1.2196
  562MOL0     H77542   2.993   9.094   4.948  0.7332  2.5652 -2.5904
  562MOL0     H77543   2.900   8.901   5.038 -0.2560  1.6349  0.3226
  562MOL0     H77544   2.623   8.695   4.789  1.4367  1.4870 -0.4249
  562MOL0     H77545   2.703   8.541   4.832 -0.4217  0.5517 -0.7360
  562MOL0     H77546   2.602   8.538   5.039 -1.0114 -0.0475  1.2592
  562MOL0     H77547   2.475   8.604   4.931 -0.9592  2.0950 -0.1784
  562MOL0     H77548   2.535   8.727   5.184 -0.5298  1.2018  0.1491
  562MOL0     H77549   2.640   8.812   5.071 -1.3168  1.2743  0.5500
  562MOL0     H77550   2.456   8.842   4.902 -0.1373  0.9107 -0.4443
  562MOL0     H77551   2.437   8.937   5.056 -3.0464 -1.1494  1.5876
  562MOL0     H77552   2.103   8.687   5.075  2.3285 -3.0417  3.0976
  562MOL0     H77553   2.814   8.738   4.658 -2.7700 -1.1108  1.8720
  562MOL0     H77554   2.958   8.821   4.480 -2.3372 -0.8370  0.4715
  562MOL0     H77555   2.842   8.951   4.453  0.1338  0.9606 -0.0928
  562MOL0     H77556   3.000   9.000   4.471 -2.7650  1.3453 -3.3913
  563MOL0     O77557   9.959  10.186   4.657  0.7939  0.5129  0.3721
  563MOL0     C77558   9.978  10.094   4.571  0.0836 -0.5687 -0.0972
  563MOL0     O77559   9.877  10.019   4.513 -0.4309 -0.6637  0.1385
  563MOL0     C77560   9.746  10.051   4.526 -0.8539 -0.1371 -0.6208
  563MOL0     C77561   9.667  10.032   4.642 -0.9016 -0.1388 -0.6525
  563MOL0     C77562   9.531  10.078   4.646 -0.3935  0.7359 -0.8777
  563MOL0     C77563   9.461  10.117   4.527 -0.7346  1.5356 -0.1415
  563MOL0     O77564   9.335  10.165   4.539  0.9551  0.2158 -0.5407
  563MOL0     C77565   9.224  10.077   4.528  0.6467 -0.3606  0.1393
  563MOL0     C77566   9.188   9.999   4.658  0.2164  0.4444  0.3746
  563MOL0     C77567   9.058   9.919   4.639 -0.2623 -0.0500 -0.5193
  563MOL0     C77568   9.030   9.805   4.741  0.2027 -0.1531 -0.1866
  563MOL0     C77569   8.993   9.854   4.885  0.1600 -0.5796  0.1442
  563MOL0     C77570   9.119   9.860   4.966 -0.0954 -1.1334 -0.9593
  563MOL0     C77571   9.096   9.855   5.117  0.2804  0.4621 -0.6888
  563MOL0     C77572   8.995   9.960   5.172  0.6691  0.3595 -0.6553
  563MOL0     N77573   9.038  10.098   5.178  0.8293 -0.0434  0.4988
  563MOL0     C77574   9.016  10.197   5.086 -0.7230  0.4806  0.7889
  563MOL0     C77575   9.059  10.309   5.147 -0.3085  0.0764 -0.0416
  563MOL0     C77576   9.083  10.445   5.089 -0.6151  0.0712  0.1509
  563MOL0     C77577   9.220  10.466   5.024 -0.1329  0.2949 -0.6847
  563MOL0     C77578   9.236  10.620   4.979  0.2821  0.4852  0.3422
  563MOL0     C77579   9.369  10.644   4.922  0.0082  0.4331 -0.2144
  563MOL0     O77580   9.417  10.541   4.826 -0.2921 -0.5330 -0.2029
  563MOL0     C77581   9.539  10.554   4.758 -0.8521 -0.2053 -0.1802
  563MOL0     C77582   9.632  10.656   4.788 -0.5532 -0.0902  0.3825
  563MOL0     C77583   9.761  10.658   4.721 -0.0075 -0.2480 -0.7302
  563MOL0     C77584   9.850  10.764   4.770 -0.6401  0.1718  0.7071
  563MOL0     C77585   9.792  10.572   4.613  1.3992 -0.0396 -0.4588
  563MOL0     C77586   9.908  10.563   4.522 -0.6131 -0.0772  0.1376
  563MOL0     O77587   9.913  10.461   4.429  0.2041  0.4049  0.9001
  563MOL0     C77588  10.029  10.418   4.372 -0.1001  0.0012  0.0058
  563MOL0     C77589  10.007  10.387   4.233  0.6269 -0.3303 -0.1524
  563MOL0     C77590  10.102  10.334   4.150 -0.1656  0.6410  1.0178
  563MOL0     C77591  10.235  10.326   4.203  0.6524  0.7758  0.2730
  563MOL0     O77592  10.320  10.282   4.106  0.4180  0.0941  0.0112
  563MOL0     C77593  10.457  10.261   4.156 -0.1304 -0.0444  0.1491
  563MOL0     C77594  10.550  10.353   4.098 -0.3345  0.1844  0.1120
  563MOL0     C77595  10.512  10.496   4.140 -0.2825 -1.0009  0.5973
  563MOL0     C77596  10.588  10.609   4.073 -0.5223 -0.1384 -0.7923
  563MOL0     C77597  10.732  10.570   4.053  1.1758 -0.1964 -0.1232
  563MOL0     C77598  10.813  10.685   3.991  0.5913 -0.1196  0.1923
  563MOL0     C77599  10.836  10.669   3.844 -0.3120 -0.9421  0.1146
  563MOL0     C77600  10.917  10.795   3.809  0.4508 -0.0140  0.5610
  563MOL0    Cl77601  10.944  10.800   3.630 -0.3144 -0.0549 -0.1103
  563MOL0     C77602  10.262  10.369   4.335  0.0101  0.3962 -0.4073
  563MOL0     C77603  10.162  10.407   4.428 -0.0716 -0.9388 -0.1182
  563MOL0     O77604  10.005  10.644   4.539 -0.1266 -0.1428  0.1447
  563MOL0     C77605   9.695  10.471   4.597  0.2476 -0.1374 -0.4144
  563MOL0     C77606   9.573  10.460   4.665 -0.2966  0.2368 -0.5407
  563MOL0     N77607   9.096  10.281   5.279 -0.7041  0.0294 -0.4881
  563MOL0     N77608   9.067  10.160   5.291  0.6491  0.6804  0.3229
  563MOL0     C77609   9.541  10.131   4.418  0.7572 -0.2549  0.7570
  563MOL0     C77610   9.680  10.097   4.409  0.1342 -0.6935 -0.6824
  563MOL0     C77611  10.107  10.060   4.510  0.4232 -0.0134  0.9122
  563MOL0     C77612  10.108  10.038   4.370  0.9013 -0.0984  0.2509
  563MOL0     C77613  10.221  10.003   4.298 -0.6228 -1.1022  0.7689
  563MOL0     C77614  10.346  10.011   4.369 -0.6668 -0.5495  0.0056
  563MOL0     O77615  10.472   9.982   4.312 -0.5764 -0.4397  0.4474
  563MOL0     C77616  10.483   9.883   4.202 -0.4099  0.3952  0.0181
  563MOL0     C77617  10.631   9.865   4.194  0.2673  0.3740  0.8060
  563MOL0     C77618  10.692   9.797   4.323 -0.7419 -0.5384  0.7518
  563MOL0     C77619  10.843   9.797   4.316  0.1124 -0.5168  0.1415
  563MOL0     C77620  10.895   9.699   4.216 -0.1346 -1.0211 -0.0162
  563MOL0     C77621  10.932   9.619   4.134 -0.4776  0.0695  0.1147
  563MOL0     C77622  10.349  10.061   4.492 -0.3973  0.1588 -0.0504
  563MOL0     C77623  10.229  10.075   4.569  0.2083 -0.9324  0.1825
  563MOL0     C77624  10.241  10.127   4.711 -0.3750  0.1430  0.6516
  563MOL0     H77625   9.720   9.988   4.725 -0.2087  1.0013 -0.4709
  563MOL0     H77626   9.486  10.083   4.745  2.1174  0.0768  0.3691
  563MOL0     H77627   9.245  10.018   4.438 -2.2401  1.4358 -1.9181
  563MOL0     H77628   9.134  10.130   4.496  0.4436 -0.8150 -0.0466
  563MOL0     H77629   9.276   9.937   4.678  2.0206  2.3552 -1.1072
  563MOL0     H77630   9.165  10.070   4.737 -1.5177 -1.4193  1.6318
  563MOL0     H77631   8.974   9.988   4.648 -0.9017 -0.8818  0.0453
  563MOL0     H77632   9.058   9.875   4.539  0.2046 -1.5698  0.1193
  563MOL0     H77633   8.943   9.746   4.710 -0.1628  0.0091  0.5120
  563MOL0     H77634   9.122   9.746   4.738  0.4623  0.2628 -0.6157
  563MOL0     H77635   8.934   9.778   4.937 -0.1717  0.4123  1.2694
  563MOL0     H77636   8.945   9.953   4.881  1.1395 -0.0982 -0.0041
  563MOL0     H77637   9.194   9.781   4.950  3.2154  1.2171  1.6467
  563MOL0     H77638   9.173   9.951   4.942 -1.9343  0.0831 -0.6788
  563MOL0     H77639   9.188   9.872   5.175 -0.2852  1.3439 -0.0302
  563MOL0     H77640   9.058   9.757   5.146 -0.6087  0.1540 -2.7657
  563MOL0     H77641   8.919   9.958   5.094  1.3900 -1.4047 -1.3699
  563MOL0     H77642   8.941   9.936   5.265 -2.0993  0.8954 -2.0321
  563MOL0     H77643   8.985  10.195   4.982  0.6949 -0.3025  0.3534
  563MOL0     H77644   9.069  10.525   5.162 -1.8544  2.2565 -2.3175
  563MOL0     H77645   9.008  10.451   5.009 -1.6122  0.5556  1.0949
  563MOL0     H77646   9.300  10.442   5.094  0.9991 -1.8296 -2.5441
  563MOL0     H77647   9.227  10.387   4.948 -0.2801 -0.9083  0.5047
  563MOL0     H77648   9.163  10.639   4.900  2.6658 -2.8772 -3.0093
  563MOL0     H77649   9.217  10.690   5.061 -1.2267  2.2754 -1.4234
  563MOL0     H77650   9.369  10.747   4.885 -3.4013  1.5594  2.4477
  563MOL0     H77651   9.444  10.659   5.000  2.6253  2.7332 -2.8972
  563MOL0     H77652   9.612  10.738   4.856  1.8231  0.2664  0.7286
  563MOL0     H77653   9.851  10.859   4.715  1.1292 -0.4210 -0.3663
  563MOL0     H77654   9.955  10.740   4.753 -1.0747 -0.4699 -1.4302
  563MOL0     H77655   9.827  10.788   4.874 -0.7761 -1.2354  1.0151
  563MOL0     H77656   9.907  10.398   4.191  0.8310  0.4868 -0.4339
  563MOL0     H77657  10.077  10.310   4.048  1.8502 -0.7719  0.7923
  563MOL0     H77658  10.469  10.238   4.262  1.9018 -2.8150 -0.5612
  563MOL0     H77659  10.500  10.176   4.102  2.7178  0.6573  1.1046
  563MOL0     H77660  10.650  10.328   4.133  1.7211  0.8079 -4.6215
  563MOL0     H77661  10.568  10.329   3.993 -0.4001 -1.0376  0.3614
  563MOL0     H77662  10.520  10.504   4.249 -0.2825 -2.6107  0.7371
  563MOL0     H77663  10.406  10.515   4.120 -0.2442 -1.7857 -0.4928
  563MOL0     H77664  10.579  10.699   4.135  1.6014 -0.6263  0.3041
  563MOL0     H77665  10.545  10.641   3.977 -3.4127  2.5365  1.1782
  563MOL0     H77666  10.781  10.555   4.149 -1.5105 -1.1817  1.2028
  563MOL0     H77667  10.735  10.475   3.999 -0.3372 -0.6747  0.5733
  563MOL0     H77668  10.913  10.672   4.033  1.3102 -2.7003 -2.0799
  563MOL0     H77669  10.783  10.789   4.009 -0.2499 -0.4909  1.0430
  563MOL0     H77670  10.737  10.671   3.797 -0.6772 -2.7927  0.7161
  563MOL0     H77671  10.890  10.576   3.825  0.9524  0.1989 -2.1695
  563MOL0     H77672  11.011  10.789   3.866  0.5383  4.2802  1.1569
  563MOL0     H77673  10.864  10.879   3.856  0.2412 -1.5399  3.3038
  563MOL0     H77674  10.362  10.369   4.379 -0.5128  1.5668  0.8427
  563MOL0     H77675  10.177  10.457   4.524 -2.4328 -0.9630  0.3172
  563MOL0     H77676   9.704  10.396   4.519  4.3239 -0.7973  0.4427
  563MOL0     H77677   9.513  10.375   4.635  1.9471 -1.2988 -0.9374
  563MOL0     H77678   9.494  10.181   4.334 -0.7830 -1.2149  1.0043
  563MOL0     H77679   9.744  10.112   4.323  1.7111 -1.3657  0.3224
  563MOL0     H77680  10.014  10.046   4.317 -0.7495 -0.8431  2.8580
  563MOL0     H77681  10.215   9.974   4.193 -0.6767 -1.1206  0.7772
  563MOL0     H77682  10.427   9.792   4.227  1.8053 -0.5727  1.8597
  563MOL0     H77683  10.431   9.916   4.112 -4.8922 -2.0676  1.3672
  563MOL0     H77684  10.673   9.965   4.179 -2.4728  1.2606 -1.7636
  563MOL0     H77685  10.666   9.813   4.105  1.2672  2.5862 -0.1839
  563MOL0     H77686  10.667   9.855   4.413  0.5975 -1.8489  2.0206
  563MOL0     H77687  10.656   9.694   4.324 -0.4406 -0.6538  2.8449
  563MOL0     H77688  10.896   9.777   4.410  1.0909  1.4865  0.0693
  563MOL0     H77689  10.877   9.900   4.303  1.9446 -1.1166 -0.0581
  563MOL0     H77690  10.949   9.548   4.056 -0.2225 -2.6438  2.4620
  563MOL0     H77691  10.443  10.094   4.535  0.0642 -0.1531 -0.7919
  563MOL0     H77692  10.219  10.234   4.708  0.1050  0.2625 -2.6995
  563MOL0     H77693  10.181  10.069   4.782  1.8454 -1.4302  1.3714
  563MOL0     H77694  10.348  10.113   4.729  0.4888  3.2290 -1.2582
  564MOL0     O77695  11.386   0.566   4.596  0.6547 -0.3027  0.8546
  564MOL0     C77696  11.284   0.505   4.554 -0.8636 -0.5188  0.0163
  564MOL0     O77697  11.285   0.419   4.439  0.3177 -0.6652 -0.2513
  564MOL0     C77698  11.408   0.364   4.393  0.2274 -0.0184 -0.2573
  564MOL0     C77699  11.521   0.436   4.359 -0.0539  0.4810  0.8378
  564MOL0     C77700  11.633   0.386   4.298  0.3366  0.3014  0.5339
  564MOL0     C77701  11.629   0.246   4.258 -0.2288  0.2220  0.3654
  564MOL0     O77702  11.733   0.178   4.204 -0.2965  0.1511 -0.0493
  564MOL0     C77703  11.836   0.255   4.144  0.3083 -0.2088 -1.1245
  564MOL0     C77704  11.914   0.155   4.059 -0.3196  0.6047  0.6474
  564MOL0     C77705  12.054   0.213   4.030 -0.6356  0.0645 -0.2482
  564MOL0     C77706  12.146   0.126   3.962 -1.0274 -0.6193  0.7429
  564MOL0     C77707  12.265   0.219   3.906 -0.0387 -0.0333 -0.1614
  564MOL0     C77708  12.387   0.128   3.867  0.1522 -1.0629 -0.4110
  564MOL0     C77709  12.505   0.218   3.847  0.2595 -0.3648  0.1404
  564MOL0     C77710  12.508   0.291   3.716 -0.3239 -0.3700 -0.0967
  564MOL0     N77711  12.643   0.343   3.699 -0.4856  0.3308  0.8527
  564MOL0     C77712  12.688   0.454   3.759 -0.3132 -0.2322  0.2350
  564MOL0     C77713  12.820   0.446   3.768 -0.2704 -0.4344  1.0647
  564MOL0     C77714  12.915   0.551   3.807  0.6603 -0.0343  0.0699
  564MOL0     C77715  13.011   0.586   3.701  0.8800 -0.3344  0.5312
  564MOL0     C77716  13.084   0.720   3.722 -0.1243 -0.1913 -0.4585
  564MOL0     C77717  13.146   0.776   3.595 -0.1069 -1.5874  0.6575
  564MOL0     O77718  13.214   0.905   3.618 -0.0242  0.0453 -0.6110
  564MOL0     C77719  13.144   1.019   3.611  0.1944  1.4508 -0.5778
  564MOL0     C77720  13.153   1.096   3.501  0.5984  0.1963 -0.5426
  564MOL0     C77721  13.061   1.200   3.477  1.1292 -0.6116  0.0662
  564MOL0     C77722  13.084   1.271   3.346  0.0118 -0.5010  0.2020
  564MOL0     C77723  12.962   1.240   3.577 -0.5376  0.5737  0.9899
  564MOL0     C77724  12.870   1.357   3.561  0.1773  0.0596  0.5512
  564MOL0     O77725  12.827   1.414   3.673  0.5341  0.5382 -1.0689
  564MOL0     C77726  12.739   1.511   3.670  0.8550  0.0412  0.8266
  564MOL0     C77727  12.614   1.486   3.732  0.7373 -0.5447  0.4400
  564MOL0     C77728  12.524   1.592   3.739 -0.1642 -0.3978  0.3756
  564MOL0     C77729  12.565   1.718   3.685 -0.1564  0.2136 -0.1667
  564MOL0     O77730  12.465   1.814   3.702  1.0011 -0.8032 -0.4742
  564MOL0     C77731  12.511   1.950   3.705 -0.3860  0.7879  0.3400
  564MOL0     C77732  12.616   1.985   3.819 -0.3702  1.0766  0.0582
  564MOL0     C77733  12.570   1.942   3.963 -0.0270  0.1484  0.2002
  564MOL0     C77734  12.437   2.024   4.004 -0.5162  0.4828  0.1811
  564MOL0     C77735  12.438   2.012   4.156 -0.5367  0.4169 -0.4956
  564MOL0     C77736  12.312   2.085   4.215 -0.3532 -0.6067 -0.2446
  564MOL0     C77737  12.246   2.007   4.332 -0.0419  0.5031 -0.3243
  564MOL0     C77738  12.144   2.091   4.410  0.0802 -0.3307 -0.7013
  564MOL0    Cl77739  11.984   2.109   4.326  0.1849 -0.3138  0.1605
  564MOL0     C77740  12.687   1.737   3.625  0.0946 -0.6880  1.0959
  564MOL0     C77741  12.777   1.632   3.618  0.9836  0.9730  0.6395
  564MOL0     O77742  12.833   1.393   3.452 -0.6635 -0.3454 -0.4975
  564MOL0     C77743  12.967   1.161   3.695 -0.2359  0.1941 -0.0430
  564MOL0     C77744  13.053   1.053   3.710 -0.1138  0.1286  0.6626
  564MOL0     N77745  12.863   0.327   3.705 -0.2574 -0.0548 -0.3422
  564MOL0     N77746  12.755   0.267   3.671 -0.4550 -0.8734  0.0400
  564MOL0     C77747  11.510   0.172   4.288  0.3628 -0.1293  0.4270
  564MOL0     C77748  11.402   0.230   4.358  0.1411  0.1708  0.0286
  564MOL0     C77749  11.154   0.547   4.621  0.7943  0.0805 -1.0024
  564MOL0     C77750  11.161   0.580   4.761  0.1302  1.0478  0.2190
  564MOL0     C77751  11.044   0.627   4.824 -0.1486  0.6909 -0.0063
  564MOL0     C77752  10.928   0.636   4.754 -0.1003  1.0029 -0.4443
  564MOL0     O77753  10.812   0.653   4.826 -0.1073 -0.0662 -0.1733
  564MOL0     C77754  10.774   0.529   4.891  0.5973 -0.0247 -0.1660
  564MOL0     C77755  10.726   0.423   4.787  0.5930  0.0855 -0.5088
  564MOL0     C77756  10.603   0.485   4.717 -0.9088  0.1443  0.1371
  564MOL0     C77757  10.550   0.399   4.603  0.1155 -0.7540 -0.6932
  564MOL0     C77758  10.648   0.385   4.498 -0.0224 -0.3703  0.5137
  564MOL0     C77759  10.739   0.378   4.416  0.6266  0.7765 -0.3789
  564MOL0     C77760  10.925   0.612   4.617 -0.8710 -1.4158 -0.4550
  564MOL0     C77761  11.037   0.573   4.553  0.2642 -0.5239 -0.9681
  564MOL0     C77762  11.034   0.561   4.402 -0.1980  0.3596 -0.5808
  564MOL0     H77763  11.513   0.544   4.356  1.0312  0.5581  0.2475
  564MOL0     H77764  11.707   0.451   4.253 -2.1575  2.5457 -0.6142
  564MOL0     H77765  11.904   0.289   4.223 -0.0420 -1.3548 -0.3096
  564MOL0     H77766  11.816   0.341   4.080 -0.5204 -1.1749 -2.2061
  564MOL0     H77767  11.920   0.059   4.110 -0.4146  0.1895 -0.1050
  564MOL0     H77768  11.875   0.137   3.958 -1.0501 -2.1064  1.3305
  564MOL0     H77769  12.036   0.304   3.971  2.3989  0.8269 -0.1433
  564MOL0     H77770  12.098   0.246   4.124 -1.1253 -0.1677  0.0690
  564MOL0     H77771  12.174   0.054   4.039  0.6383 -0.4622  0.3183
  564MOL0     H77772  12.099   0.070   3.880  1.2564 -0.5735 -0.7083
  564MOL0     H77773  12.288   0.283   3.992 -0.4321  0.1381 -0.1776
  564MOL0     H77774  12.234   0.277   3.818 -2.4811  0.6276  1.0454
  564MOL0     H77775  12.424   0.056   3.940 -1.4157  0.2128  1.7514
  564MOL0     H77776  12.368   0.078   3.771  1.1896  0.4739 -1.4615
  564MOL0     H77777  12.597   0.160   3.858 -0.4618 -1.5786 -0.0965
  564MOL0     H77778  12.505   0.299   3.921  1.4232  0.7765 -1.0652
  564MOL0     H77779  12.486   0.230   3.629 -1.0329  0.8815 -0.8281
  564MOL0     H77780  12.444   0.379   3.725 -0.4495 -0.4106 -0.6063
  564MOL0     H77781  12.634   0.544   3.786 -1.4359 -0.7581 -0.1844
  564MOL0     H77782  12.967   0.524   3.899  1.5825 -1.0870 -0.7315
  564MOL0     H77783  12.850   0.635   3.832 -0.1680 -0.7652  0.3901
  564MOL0     H77784  13.084   0.506   3.690  1.5503 -0.4787  4.3868
  564MOL0     H77785  12.954   0.588   3.609  0.3200  0.2583  0.8804
  564MOL0     H77786  13.009   0.789   3.760 -1.5834 -1.8531 -0.1709
  564MOL0     H77787  13.159   0.714   3.802 -0.2219  1.7948 -0.1862
  564MOL0     H77788  13.220   0.711   3.549 -1.1499 -0.8971 -2.2184
  564MOL0     H77789  13.072   0.802   3.519  2.0415  0.4950 -0.8659
  564MOL0     H77790  13.221   1.072   3.420  1.1505  0.0635 -0.0448
  564MOL0     H77791  13.185   1.242   3.315  0.5902  1.2281  0.3414
  564MOL0     H77792  13.078   1.379   3.360  0.6622 -0.5574  1.0393
  564MOL0     H77793  13.016   1.236   3.268  1.1444  0.9838 -1.5542
  564MOL0     H77794  12.601   1.390   3.780  0.2899  1.4727  4.7344
  564MOL0     H77795  12.424   1.581   3.780 -0.3734  0.0920  0.0016
  564MOL0     H77796  12.550   1.972   3.605 -0.0524 -2.0462 -0.2615
  564MOL0     H77797  12.425   2.010   3.734  0.8527  2.8562 -0.1200
  564MOL0     H77798  12.719   1.950   3.803  0.6696  1.5825  4.3665
  564MOL0     H77799  12.624   2.094   3.825 -3.9982  1.4144  0.9399
  564MOL0     H77800  12.646   1.993   4.022  0.5014  1.4461 -1.4972
  564MOL0     H77801  12.547   1.836   3.975 -0.3817  0.2024  0.0035
  564MOL0     H77802  12.351   1.969   3.964  0.4913  0.5055 -2.1816
  564MOL0     H77803  12.427   2.130   3.981 -2.8409  0.2303 -0.2984
  564MOL0     H77804  12.441   1.906   4.181  1.2889  0.2708 -1.1620
  564MOL0     H77805  12.528   2.058   4.198 -0.5466 -1.0160  1.2128
  564MOL0     H77806  12.238   2.113   4.140 -1.5097  2.5091  1.8545
  564MOL0     H77807  12.343   2.176   4.267 -0.3054 -0.9646  0.3625
  564MOL0     H77808  12.322   1.984   4.406  1.5284  1.7645 -1.4795
  564MOL0     H77809  12.204   1.913   4.292 -1.2678 -0.0506  2.0393
  564MOL0     H77810  12.173   2.189   4.451 -4.1704  1.3827 -1.2564
  564MOL0     H77811  12.124   2.035   4.501 -2.2791  0.2432 -0.7902
  564MOL0     H77812  12.716   1.837   3.597 -1.1955 -0.5592  0.1544
  564MOL0     H77813  12.874   1.636   3.568  0.3439  0.4460 -0.7030
  564MOL0     H77814  12.907   1.195   3.779 -0.8798 -0.6672 -0.1330
  564MOL0     H77815  13.047   1.009   3.809  0.3114 -0.8948  0.2431
  564MOL0     H77816  11.505   0.067   4.260  1.1393  0.0982 -0.6234
  564MOL0     H77817  11.311   0.173   4.376  0.8179 -1.6362 -1.8441
  564MOL0     H77818  11.250   0.554   4.817 -0.2867 -0.5029  0.2060
  564MOL0     H77819  11.051   0.657   4.928  0.3619 -2.1323  0.8681
  564MOL0     H77820  10.845   0.482   4.959 -3.1856 -2.4767  2.4634
  564MOL0     H77821  10.690   0.532   4.961 -2.0881 -1.9937 -3.0348
  564MOL0     H77822  10.705   0.321   4.822  3.2373 -1.2026 -2.3559
  564MOL0     H77823  10.813   0.412   4.722  0.4849  0.0558 -0.6478
  564MOL0     H77824  10.517   0.485   4.785  0.1663  0.3406  1.5575
  564MOL0     H77825  10.617   0.589   4.686 -2.4333  0.4723  0.4868
  564MOL0     H77826  10.462   0.453   4.566 -0.7351 -1.9458 -0.4348
  564MOL0     H77827  10.520   0.304   4.646 -1.0843 -0.4819 -0.9016
  564MOL0     H77828  10.803   0.376   4.330 -2.0440  1.2211 -2.5174
  564MOL0     H77829  10.831   0.635   4.569 -2.5210 -0.9773  2.7103
  564MOL0     H77830  10.955   0.624   4.361 -1.2338  1.3566  2.6279
  564MOL0     H77831  11.129   0.602   4.366 -0.6741  1.0607 -1.0722
  564MOL0     H77832  11.024   0.458   4.368 -3.0640 -0.1489  1.4426
  565MOL0     O77833   6.838   7.856   6.425  0.0508 -0.1570  0.0788
  565MOL0     C77834   6.928   7.803   6.495  1.1676 -0.0610 -0.0208
  565MOL0     O77835   6.908   7.709   6.590 -0.2119  0.1013 -0.9182
  565MOL0     C77836   6.793   7.641   6.626  0.1487  0.1555  0.6538
  565MOL0     C77837   6.663   7.694   6.614  0.2058 -0.1275  0.4042
  565MOL0     C77838   6.557   7.627   6.674  0.8159 -1.1411  0.2030
  565MOL0     C77839   6.572   7.505   6.741 -0.7896 -0.5509 -0.7323
  565MOL0     O77840   6.462   7.450   6.801  0.5389  0.2328  0.1242
  565MOL0     C77841   6.460   7.312   6.806  0.1271 -0.7292  0.6261
  565MOL0     C77842   6.318   7.250   6.853  0.3412 -0.0240 -0.0912
  565MOL0     C77843   6.198   7.329   6.801  0.4651  0.4548 -0.2827
  565MOL0     C77844   6.181   7.307   6.646  0.9043 -0.5870  0.0037
  565MOL0     C77845   6.076   7.400   6.573 -0.6753  0.3494  0.4151
  565MOL0     C77846   6.121   7.550   6.584  0.9536  0.7903 -0.3566
  565MOL0     C77847   6.031   7.654   6.530  0.0851  0.2215 -0.0994
  565MOL0     C77848   6.045   7.789   6.583  0.2463 -0.6000  0.1026
  565MOL0     N77849   6.167   7.863   6.561  0.2418 -0.2622  0.1010
  565MOL0     C77850   6.214   7.908   6.439 -0.4515 -0.8365 -0.0532
  565MOL0     C77851   6.334   7.967   6.466 -0.0590  0.3743 -0.3227
  565MOL0     C77852   6.409   8.049   6.369  0.4603  0.4295  0.4493
  565MOL0     C77853   6.371   8.198   6.354 -0.8950  0.6581 -0.7790
  565MOL0     C77854   6.453   8.277   6.253  0.0562 -0.0648 -0.0222
  565MOL0     C77855   6.494   8.201   6.121 -0.6808 -0.9231  0.4128
  565MOL0     O77856   6.377   8.143   6.069 -0.1569 -0.1664 -0.2510
  565MOL0     C77857   6.384   8.071   5.949  1.6664  0.7612 -1.4531
  565MOL0     C77858   6.484   8.086   5.852  0.2674  0.0160 -0.2095
  565MOL0     C77859   6.482   7.999   5.736  0.0981 -0.3738 -1.1156
  565MOL0     C77860   6.599   8.014   5.639  0.1650 -0.1601 -0.2339
  565MOL0     C77861   6.370   7.917   5.720  0.2528  0.1014 -0.1094
  565MOL0     C77862   6.380   7.815   5.610 -0.4514  0.2931 -0.8285
  565MOL0     O77863   6.491   7.733   5.617 -0.4655 -0.4408 -0.2322
  565MOL0     C77864   6.525   7.631   5.530  0.2210 -0.5677  0.4353
  565MOL0     C77865   6.585   7.657   5.403 -0.6816  0.0064  1.3465
  565MOL0     C77866   6.611   7.549   5.314  0.6754  0.7339 -0.1402
  565MOL0     C77867   6.579   7.422   5.351  0.3058 -0.5165  0.3520
  565MOL0     O77868   6.615   7.324   5.260  0.0117  0.3880  0.5152
  565MOL0     C77869   6.753   7.291   5.286  0.0300 -0.4767 -0.4383
  565MOL0     C77870   6.807   7.193   5.196  1.3966  0.4146  0.6754
  565MOL0     C77871   6.768   7.208   5.047  0.5888 -0.2487 -0.6361
  565MOL0     C77872   6.831   7.326   4.969  0.1254 -0.2389 -0.1633
  565MOL0     C77873   6.980   7.301   4.961 -0.2775  0.1327  0.8842
  565MOL0     C77874   7.045   7.435   4.931  0.7789  0.1710 -0.4287
  565MOL0     C77875   7.076   7.532   5.049  0.2839 -1.5685  0.4447
  565MOL0     C77876   7.096   7.685   5.001 -0.1757  0.8247 -0.7316
  565MOL0    Cl77877   7.102   7.777   5.150 -0.4378  0.1334 -0.1087
  565MOL0     C77878   6.519   7.394   5.470 -0.4669  0.1465 -0.7730
  565MOL0     C77879   6.493   7.498   5.562  0.6215 -0.4524  0.6822
  565MOL0     O77880   6.286   7.803   5.535  0.2812  0.7389 -0.0297
  565MOL0     C77881   6.276   7.908   5.815  0.0507 -0.1985  0.0344
  565MOL0     C77882   6.276   7.985   5.926 -0.6769  0.4832  0.5984
  565MOL0     N77883   6.349   7.972   6.608 -0.2999  0.4195  0.1869
  565MOL0     N77884   6.254   7.901   6.664  0.5111 -0.5139 -0.3096
  565MOL0     C77885   6.698   7.448   6.753  1.0798  0.1089  0.0944
  565MOL0     C77886   6.803   7.520   6.696  1.0794  0.3640  0.4872
  565MOL0     C77887   7.067   7.842   6.478  0.1663  0.6821 -0.2605
  565MOL0     C77888   7.143   7.843   6.596  0.1308  0.5925 -0.5301
  565MOL0     C77889   7.281   7.875   6.587  1.1161  0.0411 -0.1139
  565MOL0     C77890   7.341   7.929   6.471 -0.0186 -0.0290 -0.1454
  565MOL0     O77891   7.471   7.970   6.468 -0.4494 -0.1756  0.7427
  565MOL0     C77892   7.526   8.007   6.340  0.0563  0.3588  0.3122
  565MOL0     C77893   7.671   8.068   6.359  0.1245  0.3257  0.4827
  565MOL0     C77894   7.785   7.962   6.374 -0.1334  0.2625 -0.3205
  565MOL0     C77895   7.821   7.926   6.522  0.1630 -0.1982 -0.8444
  565MOL0     C77896   7.875   8.043   6.590  0.1712  0.3339 -0.8647
  565MOL0     C77897   7.904   8.147   6.637  0.4627 -0.2781 -0.4535
  565MOL0     C77898   7.261   7.919   6.355  0.5535  0.1964  0.3472
  565MOL0     C77899   7.125   7.877   6.352 -0.2841  0.5910 -0.0996
  565MOL0     C77900   7.057   7.869   6.218 -0.1565 -0.8610 -0.0822
  565MOL0     H77901   6.640   7.781   6.552 -1.5916 -0.4082  0.6066
  565MOL0     H77902   6.463   7.683   6.675  0.6256 -1.4311  2.3695
  565MOL0     H77903   6.539   7.281   6.875  1.7845  1.7635  0.0206
  565MOL0     H77904   6.480   7.276   6.705 -2.7912  2.0426 -1.1392
  565MOL0     H77905   6.311   7.143   6.831  1.5367 -0.2222  0.4573
  565MOL0     H77906   6.309   7.258   6.962  0.8822  0.4202 -0.0724
  565MOL0     H77907   6.113   7.285   6.854  1.0732  0.1834  0.4953
  565MOL0     H77908   6.202   7.433   6.833 -2.0047  0.1778  1.1450
  565MOL0     H77909   6.277   7.328   6.597 -0.7991  0.1805 -3.3182
  565MOL0     H77910   6.173   7.199   6.630  1.5036 -0.5958 -0.2829
  565MOL0     H77911   5.979   7.389   6.624 -0.2772  2.3162  1.7381
  565MOL0     H77912   6.052   7.376   6.469  1.5018  0.5915 -0.1803
  565MOL0     H77913   6.146   7.568   6.689  1.6502 -0.2038 -0.3416
  565MOL0     H77914   6.211   7.554   6.522  1.8415 -1.6729  0.6390
  565MOL0     H77915   5.926   7.628   6.544  0.9317 -3.4118  0.3004
  565MOL0     H77916   6.064   7.650   6.426 -2.4327 -2.3219 -0.9396
  565MOL0     H77917   5.973   7.846   6.523  0.0538 -1.9783 -1.0138
  565MOL0     H77918   6.017   7.786   6.689 -0.2146 -0.0062  0.0060
  565MOL0     H77919   6.170   7.892   6.341 -2.1652  0.4520  0.4614
  565MOL0     H77920   6.393   7.996   6.275 -0.8524 -1.0259  1.4424
  565MOL0     H77921   6.518   8.043   6.378  1.1776 -0.2197 -5.1391
  565MOL0     H77922   6.271   8.192   6.309 -2.2144  0.3338  1.9837
  565MOL0     H77923   6.366   8.245   6.453 -1.4327 -2.9220  1.0427
  565MOL0     H77924   6.405   8.375   6.240 -1.6930 -0.5229  2.4285
  565MOL0     H77925   6.539   8.295   6.318  0.9585 -1.5746 -0.7530
  565MOL0     H77926   6.539   8.274   6.053 -2.4510 -1.5351 -1.4911
  565MOL0     H77927   6.567   8.121   6.138  1.7063  0.5645 -2.0136
  565MOL0     H77928   6.569   8.153   5.863  2.8709 -3.4006  3.6958
  565MOL0     H77929   6.671   8.086   5.679  1.7846 -2.1908  0.6932
  565MOL0     H77930   6.547   8.048   5.549  0.7347 -0.6325 -0.7518
  565MOL0     H77931   6.650   7.919   5.619 -1.1414 -0.3287 -3.5152
  565MOL0     H77932   6.634   7.751   5.383 -0.9674 -0.3718 -1.4227
  565MOL0     H77933   6.642   7.568   5.212  1.3891  0.3443 -0.0032
  565MOL0     H77934   6.811   7.382   5.272 -0.7146  0.4836  2.0558
  565MOL0     H77935   6.764   7.258   5.390 -2.1887  0.3734  0.1390
  565MOL0     H77936   6.914   7.194   5.219  1.5399  2.5414  0.0880
  565MOL0     H77937   6.783   7.093   5.234 -0.5171  2.0789  4.3507
  565MOL0     H77938   6.661   7.227   5.041  0.5438 -0.7987 -1.8861
  565MOL0     H77939   6.782   7.105   5.011  0.3143 -0.2296 -0.7958
  565MOL0     H77940   6.811   7.418   5.025  1.7115 -1.0405  1.8417
  565MOL0     H77941   6.783   7.343   4.872 -1.0138  2.3551  0.7715
  565MOL0     H77942   7.039   7.263   5.044  1.9585  4.3776  1.4625
  565MOL0     H77943   7.004   7.235   4.876  1.2502  3.3337 -1.3737
  565MOL0     H77944   6.981   7.477   4.852 -1.1907 -3.5514 -1.0595
  565MOL0     H77945   7.142   7.416   4.885  1.3297 -1.5892  1.3552
  565MOL0     H77946   7.171   7.505   5.096  2.8514  1.4221 -2.5041
  565MOL0     H77947   6.993   7.520   5.119 -0.7257  0.6063 -0.3185
  565MOL0     H77948   7.004   7.704   4.944 -0.9966 -2.2404 -0.6397
  565MOL0     H77949   7.180   7.706   4.936  0.0442  3.4445  0.2902
  565MOL0     H77950   6.494   7.292   5.496  2.2995  0.3881  3.9596
  565MOL0     H77951   6.440   7.484   5.656  2.0709 -2.4003  1.2912
  565MOL0     H77952   6.182   7.856   5.808 -0.8729  1.5564 -1.7405
  565MOL0     H77953   6.198   7.967   5.999 -1.8424 -0.0376 -0.7233
  565MOL0     H77954   6.719   7.355   6.805 -1.8743 -0.3870  0.5848
  565MOL0     H77955   6.899   7.468   6.692  0.7056 -0.2966 -1.9898
  565MOL0     H77956   7.105   7.801   6.688  2.8371  0.7770  0.7726
  565MOL0     H77957   7.336   7.858   6.679 -0.5886 -0.5618  0.8547
  565MOL0     H77958   7.520   7.918   6.276 -4.2653 -0.5633  1.6500
  565MOL0     H77959   7.465   8.084   6.294  0.0371  0.3243  0.2780
  565MOL0     H77960   7.681   8.151   6.430 -0.8927 -0.1628  1.2248
  565MOL0     H77961   7.699   8.098   6.257  0.2994 -0.5216  0.2771
  565MOL0     H77962   7.754   7.868   6.327  2.7699 -2.2949  2.4117
  565MOL0     H77963   7.878   7.983   6.319 -1.3454  3.2007 -1.4820
  565MOL0     H77964   7.900   7.850   6.521  0.9680  0.6142 -0.5784
  565MOL0     H77965   7.733   7.883   6.571  1.1622  0.4019  1.6392
  565MOL0     H77966   7.917   8.227   6.707 -0.2272  0.1006 -0.7549
  565MOL0     H77967   7.296   7.953   6.258 -1.4574  0.6400 -0.2710
  565MOL0     H77968   6.951   7.844   6.229  0.5348 -3.3790  1.8916
  565MOL0     H77969   7.083   7.955   6.154 -4.0791 -0.3571 -1.2593
  565MOL0     H77970   7.106   7.783   6.171 -0.0666 -1.2738  0.7457
  566MOL0     O77971   2.744  11.420   8.789  0.5334 -0.3389 -0.1921
  566MOL0     C77972   2.755  11.533   8.745 -0.0586 -0.0407 -0.2860
  566MOL0     O77973   2.714  11.649   8.808 -0.3207  0.9223 -0.1718
  566MOL0     C77974   2.663  11.627   8.929 -0.5865  0.0236  1.1040
  566MOL0     C77975   2.755  11.622   9.036  1.0625  0.6118 -1.0586
  566MOL0     C77976   2.700  11.604   9.170 -0.2467 -0.4045  0.0721
  566MOL0     C77977   2.568  11.596   9.201 -0.8126  0.4003 -0.7358
  566MOL0     O77978   2.533  11.559   9.328 -0.0095  0.7193  0.7439
  566MOL0     C77979   2.394  11.555   9.357 -0.8256 -0.7383  0.3377
  566MOL0     C77980   2.380  11.509   9.502 -0.0246  0.5361  0.3499
  566MOL0     C77981   2.418  11.361   9.520  0.0165  0.7696  0.3035
  566MOL0     C77982   2.417  11.320   9.658 -0.5131 -0.0700 -0.4414
  566MOL0     C77983   2.372  11.172   9.690  0.6789  0.1280  1.0092
  566MOL0     C77984   2.450  11.053   9.616 -0.1014 -0.1640 -0.3088
  566MOL0     C77985   2.387  10.917   9.644 -0.2630 -0.0259 -0.3805
  566MOL0     C77986   2.447  10.866   9.778 -0.4931 -0.5278 -0.6299
  566MOL0     N77987   2.596  10.871   9.795 -0.3813  0.1232 -0.4389
  566MOL0     C77988   2.685  10.839   9.704  0.1007  0.1747 -0.0011
  566MOL0     C77989   2.804  10.894   9.751 -0.0189  0.1567  0.9045
  566MOL0     C77990   2.937  10.905   9.680  0.3013  0.3877  0.1721
  566MOL0     C77991   3.012  10.771   9.651 -1.2526  0.4580 -0.8562
  566MOL0     C77992   3.045  10.695   9.787  0.7842  0.9954  0.2553
  566MOL0     C77993   3.110  10.780   9.893 -0.3259 -0.3472  0.0498
  566MOL0     O77994   3.174  10.688   9.982  0.3791 -0.2450  0.5506
  566MOL0     C77995   3.272  10.732  10.061 -0.7023  0.0805 -0.4297
  566MOL0     C77996   3.246  10.787  10.191 -0.4680 -0.1446 -0.5532
  566MOL0     C77997   3.351  10.841  10.273  0.6626  0.0255  1.2567
  566MOL0     C77998   3.309  10.870  10.417  0.0889  0.3057  0.0434
  566MOL0     C77999   3.485  10.832  10.228  0.3596 -1.0497  0.2148
  566MOL0     C78000   3.597  10.893  10.304  0.3144  0.0437  0.5630
  566MOL0     O78001   3.724  10.859  10.267 -0.4953 -0.0197  0.6657
  566MOL0     C78002   3.834  10.902  10.343  0.3756 -0.0083  0.9220
  566MOL0     C78003   3.925  10.976  10.272  0.1145 -0.9732  0.7134
  566MOL0     C78004   4.038  11.030  10.338 -0.2926  0.2579  0.8805
  566MOL0     C78005   4.056  11.018  10.470 -0.1844  0.1752  0.0622
  566MOL0     O78006   4.178  11.071  10.523  0.0827  0.0603 -0.2366
  566MOL0     C78007   4.172  11.146  10.646  0.3300  0.6310 -0.6548
  566MOL0     C78008   4.229  11.286  10.645  0.1774 -0.1550  0.3204
  566MOL0     C78009   4.263  11.348  10.781 -0.2163  0.4569  0.3134
  566MOL0     C78010   4.379  11.458  10.755  0.2515  0.2051 -0.5848
  566MOL0     C78011   4.410  11.524  10.896 -0.5325  0.2528 -0.4636
  566MOL0     C78012   4.505  11.649  10.885 -0.3599 -0.9079  0.1972
  566MOL0     C78013   4.449  11.746  10.781  0.6322 -0.3010 -0.4020
  566MOL0     C78014   4.505  11.889  10.786 -0.5441  0.4922 -0.5183
  566MOL0    Cl78015   4.453  11.979  10.639  0.2752  0.9552 -0.1386
  566MOL0     C78016   3.949  10.960  10.546 -0.3652  0.4144 -0.0957
  566MOL0     C78017   3.842  10.898  10.479  0.4072 -0.1581  0.2567
  566MOL0     O78018   3.567  10.982  10.378  0.4922  0.2052 -0.4301
  566MOL0     C78019   3.511  10.772  10.106 -0.6445  0.4227  0.5276
  566MOL0     C78020   3.406  10.715  10.026  0.2410 -0.7758  0.2577
  566MOL0     N78021   2.780  10.968   9.870 -0.2916  0.1919 -0.3743
  566MOL0     N78022   2.650  10.941   9.895 -0.2961 -0.8173 -0.6615
  566MOL0     C78023   2.476  11.605   9.088 -0.2399  0.6995 -0.7142
  566MOL0     C78024   2.525  11.615   8.953 -0.1762 -0.3808 -0.3803
  566MOL0     C78025   2.819  11.564   8.617 -0.1154 -0.3755 -0.2759
  566MOL0     C78026   2.773  11.676   8.546 -0.4151  0.1975 -0.6845
  566MOL0     C78027   2.838  11.716   8.428  0.7442 -0.8752  1.1691
  566MOL0     C78028   2.941  11.641   8.371 -1.6303 -1.3693  0.8785
  566MOL0     O78029   2.999  11.678   8.253  0.4793 -0.3053  0.1849
  566MOL0     C78030   3.135  11.721   8.252  0.3377 -0.6745 -0.3376
  566MOL0     C78031   3.132  11.869   8.206 -0.0849 -0.2090 -0.3557
  566MOL0     C78032   3.073  11.897   8.064 -0.7572  0.0659 -0.3059
  566MOL0     C78033   3.049  12.044   8.032  0.3624  0.2361 -0.0906
  566MOL0     C78034   3.167  12.130   8.053  0.7006  0.3541 -0.2764
  566MOL0     C78035   3.258  12.194   8.086 -0.8285 -0.7039 -0.2417
  566MOL0     C78036   2.994  11.537   8.446 -0.0397 -0.4537  0.2189
  566MOL0     C78037   2.940  11.499   8.568  0.0914  0.6252 -0.0328
  566MOL0     C78038   2.994  11.376   8.635 -0.1828 -0.5985 -0.3061
  566MOL0     H78039   2.862  11.636   9.029  1.7055 -2.4904  0.7577
  566MOL0     H78040   2.765  11.601   9.257  0.6970 -1.7393 -0.6318
  566MOL0     H78041   2.329  11.501   9.287 -0.6283 -1.4629  0.7062
  566MOL0     H78042   2.360  11.659   9.353  2.5028  0.4581 -2.9592
  566MOL0     H78043   2.433  11.572   9.573  0.6095 -0.6296  0.9439
  566MOL0     H78044   2.271  11.515   9.514 -0.2481  1.3407 -1.7613
  566MOL0     H78045   2.360  11.293   9.456  3.2174 -0.8491 -1.0874
  566MOL0     H78046   2.515  11.347   9.471  0.4521  4.8405 -0.3197
  566MOL0     H78047   2.521  11.323   9.689 -1.4503  2.7097  3.1221
  566MOL0     H78048   2.352  11.379   9.723 -3.2995 -2.8944 -0.3634
  566MOL0     H78049   2.264  11.166   9.669  0.7291 -0.1787  0.8225
  566MOL0     H78050   2.371  11.155   9.798  1.4466  0.3214  1.0466
  566MOL0     H78051   2.460  11.083   9.512 -0.4245  2.4191  0.3445
  566MOL0     H78052   2.557  11.054   9.641  0.3133 -4.1760 -1.2268
  566MOL0     H78053   2.424  10.842   9.574 -0.0893 -0.4557  0.1671
  566MOL0     H78054   2.278  10.923   9.643 -0.2815  0.0153  0.7212
  566MOL0     H78055   2.399  10.928   9.854  0.9681 -0.4434  0.2501
  566MOL0     H78056   2.422  10.761   9.795 -2.0730  0.0690  1.0517
  566MOL0     H78057   2.679  10.759   9.632 -1.8332 -0.1019  0.4011
  566MOL0     H78058   3.008  10.959   9.744 -0.5248 -1.2917  2.6858
  566MOL0     H78059   2.926  10.980   9.602 -1.2564  1.6578  1.5359
  566MOL0     H78060   2.949  10.705   9.591 -2.0319 -0.5941  1.0508
  566MOL0     H78061   3.105  10.785   9.594  0.6932 -1.7366  1.5108
  566MOL0     H78062   2.952  10.655   9.828  1.0193  0.0853 -0.0762
  566MOL0     H78063   3.104  10.605   9.769 -1.8826 -1.2759  2.0781
  566MOL0     H78064   3.188  10.851   9.866  0.4528 -0.4968  1.7683
  566MOL0     H78065   3.044  10.844   9.953  1.2337  1.4384 -0.0731
  566MOL0     H78066   3.144  10.800  10.224 -0.8988 -1.2703 -1.3513
  566MOL0     H78067   3.366  10.803  10.482 -0.4860 -0.1916  0.0361
  566MOL0     H78068   3.202  10.856  10.434  0.1986 -0.6849 -0.0398
  566MOL0     H78069   3.328  10.972  10.451 -1.9473 -0.2504  3.1769
  566MOL0     H78070   3.916  10.982  10.164  1.1941 -1.4180  0.5873
  566MOL0     H78071   4.122  11.061  10.277 -1.4385  1.9680  0.0926
  566MOL0     H78072   4.071  11.164  10.685  1.8545  1.8454  3.2524
  566MOL0     H78073   4.229  11.078  10.710 -0.3414  0.9102  0.2575
  566MOL0     H78074   4.322  11.264  10.593  0.5326  0.7546  0.5456
  566MOL0     H78075   4.171  11.358  10.585  0.5979  0.6471  0.8616
  566MOL0     H78076   4.301  11.261  10.835  2.3895 -0.2140 -2.3203
  566MOL0     H78077   4.180  11.394  10.834 -0.2671  0.3743  0.3060
  566MOL0     H78078   4.338  11.539  10.694  3.4040  2.2844 -0.1672
  566MOL0     H78079   4.466  11.425  10.698 -0.3884  2.9239 -3.4153
  566MOL0     H78080   4.311  11.544  10.939 -0.4686 -1.3434  0.5028
  566MOL0     H78081   4.450  11.453  10.969  3.0913  0.8130 -1.6981
  566MOL0     H78082   4.604  11.621  10.848 -1.4527 -1.5341 -2.4380
  566MOL0     H78083   4.505  11.689  10.987 -3.0051 -1.4219  0.4767
  566MOL0     H78084   4.342  11.763  10.793  1.0684  3.3832 -0.5439
  566MOL0     H78085   4.465  11.688  10.690  3.2203  0.6247 -0.6384
  566MOL0     H78086   4.614  11.894  10.783 -0.5476  0.8076 -0.2237
  566MOL0     H78087   4.470  11.925  10.883  1.8451 -1.0631  1.0187
  566MOL0     H78088   3.973  10.957  10.652  2.5127  0.9222 -0.6401
  566MOL0     H78089   3.765  10.854  10.541  2.5744  0.3361  3.5811
  566MOL0     H78090   3.612  10.774  10.066  0.4994  2.5997  3.2318
  566MOL0     H78091   3.430  10.675   9.928 -3.3191  0.6094 -1.3669
  566MOL0     H78092   2.368  11.598   9.097 -0.3253  0.0373 -2.0039
  566MOL0     H78093   2.464  11.606   8.864 -0.2209 -3.9969 -0.1369
  566MOL0     H78094   2.687  11.737   8.572  1.4409  3.2434 -1.2290
  566MOL0     H78095   2.797  11.802   8.376  1.9323 -1.7178 -1.2792
  566MOL0     H78096   3.191  11.720   8.346  2.0259  0.7962 -1.2711
  566MOL0     H78097   3.193  11.661   8.181 -0.3351 -0.9453 -0.6640
  566MOL0     H78098   3.238  11.896   8.207  0.1339 -1.0353 -0.1827
  566MOL0     H78099   3.079  11.934   8.277  0.0056  0.3302 -0.7780
  566MOL0     H78100   3.145  11.850   7.996  1.7985 -1.6301  3.1951
  566MOL0     H78101   2.973  11.854   8.056  0.5177 -3.0915 -0.7860
  566MOL0     H78102   2.973  12.081   8.101 -0.0575  1.4371 -1.1545
  566MOL0     H78103   3.012  12.051   7.929 -1.6385 -2.5186  0.3167
  566MOL0     H78104   3.347  12.250   8.104 -1.5548  2.1929 -4.3260
  566MOL0     H78105   3.074  11.481   8.398  0.5210  0.1275  0.4670
  566MOL0     H78106   3.072  11.328   8.576 -1.2322  1.4277 -3.6160
  566MOL0     H78107   3.031  11.407   8.733 -0.7785  2.9750 -1.0625
  566MOL0     H78108   2.910  11.308   8.653  0.4106 -0.4008  5.0024
  567MOL0     O78109  11.354   9.456   8.260 -0.2380  0.1996 -0.0625
  567MOL0     C78110  11.310   9.416   8.152  0.7095 -0.7330 -0.7648
  567MOL0     O78111  11.387   9.366   8.042  0.3229  0.2489 -0.5538
  567MOL0     C78112  11.523   9.332   8.057  0.1281  0.3701  1.0328
  567MOL0     C78113  11.589   9.296   8.181 -0.2301  0.0615  0.1448
  567MOL0     C78114  11.718   9.234   8.186 -0.1082  0.5438 -1.0132
  567MOL0     C78115  11.793   9.205   8.072 -0.3977 -0.6516  0.3548
  567MOL0     O78116  11.911   9.141   8.071  0.0019 -0.4844 -0.7621
  567MOL0     C78117  12.032   9.212   8.102 -0.9332  0.0482 -0.4044
  567MOL0     C78118  12.138   9.105   8.122  0.0138  0.0944 -1.1229
  567MOL0     C78119  12.130   9.045   8.264 -0.0577 -0.0435  0.4577
  567MOL0     C78120  12.217   8.917   8.261 -0.4630  0.5531 -0.1632
  567MOL0     C78121  12.194   8.844   8.393  0.1517  0.6479  0.3416
  567MOL0     C78122  12.266   8.918   8.503 -0.2363  1.1803  0.6091
  567MOL0     C78123  12.307   8.819   8.615 -0.6417 -0.6366  0.0591
  567MOL0     C78124  12.393   8.897   8.710  0.3733 -0.1776 -0.0617
  567MOL0     N78125  12.524   8.922   8.664  0.0783  0.8300  0.3208
  567MOL0     C78126  12.565   9.055   8.632  0.0324 -0.2799 -0.2595
  567MOL0     C78127  12.681   9.042   8.569 -0.1675 -0.7826 -0.2913
  567MOL0     C78128  12.787   9.151   8.534 -0.3468 -0.2160 -0.2326
  567MOL0     C78129  12.928   9.096   8.563  0.0387  0.0950 -0.7298
  567MOL0     C78130  13.033   9.208   8.583  0.6472 -0.3626 -0.9430
  567MOL0     C78131  13.041   9.311   8.473 -1.2041  0.5912 -0.2774
  567MOL0     O78132  12.931   9.389   8.475  0.7517 -0.5910  0.0334
  567MOL0     C78133  12.936   9.509   8.403 -0.3451  0.0838 -1.4001
  567MOL0     C78134  12.825   9.598   8.401  0.0452  0.1375  0.5994
  567MOL0     C78135  12.822   9.711   8.315  0.7917  0.1118  1.3108
  567MOL0     C78136  12.702   9.804   8.330  0.6182  0.2852 -0.7879
  567MOL0     C78137  12.930   9.727   8.226 -0.4900 -0.0470 -0.7169
  567MOL0     C78138  12.915   9.819   8.112  0.7071 -0.0700 -0.5172
  567MOL0     O78139  12.994   9.934   8.119 -0.4863 -0.0087  0.6579
  567MOL0     C78140  12.974  10.025   8.023  0.9900 -0.0222 -0.1288
  567MOL0     C78141  12.841  10.077   8.003 -1.7520 -0.1586 -0.4768
  567MOL0     C78142  12.819  10.166   7.896 -0.1924 -0.0605  0.1873
  567MOL0     C78143  12.930  10.216   7.818 -0.5862 -0.1681 -0.5094
  567MOL0     O78144  12.919  10.313   7.725 -0.0173  0.2423 -0.4512
  567MOL0     C78145  12.796  10.392   7.725 -0.1359  0.3156  0.5832
  567MOL0     C78146  12.802  10.510   7.630  0.6959  0.4895  0.1447
  567MOL0     C78147  12.923  10.595   7.645 -1.0387 -0.4722  0.6996
  567MOL0     C78148  12.971  10.663   7.509 -0.7315 -0.0384 -0.0599
  567MOL0     C78149  13.056  10.787   7.536 -1.0115  0.2775 -0.6713
  567MOL0     C78150  13.152  10.822   7.425  0.1057  0.6093 -0.4140
  567MOL0     C78151  13.236  10.944   7.458 -0.5079 -0.6455  0.0976
  567MOL0     C78152  13.374  10.933   7.390  0.4666  0.6092  0.1338
  567MOL0    Cl78153  13.476  11.072   7.425  0.1500  0.0081 -0.2440
  567MOL0     C78154  13.049  10.176   7.859  0.8450 -0.2168  0.4526
  567MOL0     C78155  13.079  10.081   7.949  0.8474  0.6984 -0.7517
  567MOL0     O78156  12.836   9.786   8.022  0.5949  0.2182  0.3873
  567MOL0     C78157  13.042   9.638   8.226  0.6249 -0.1840  0.0256
  567MOL0     C78158  13.041   9.535   8.317 -0.0750  0.1689  0.2482
  567MOL0     N78159  12.717   8.908   8.555  0.9456 -0.1772 -0.0447
  567MOL0     N78160  12.614   8.832   8.613 -0.7562 -0.3972 -0.8421
  567MOL0     C78161  11.734   9.243   7.953 -0.1055 -0.8529 -0.9771
  567MOL0     C78162  11.610   9.308   7.946  1.7379  0.0447 -0.0935
  567MOL0     C78163  11.159   9.423   8.124 -0.4380 -0.5443 -0.3138
  567MOL0     C78164  11.121   9.378   7.994 -0.1496 -0.0850 -0.1300
  567MOL0     C78165  10.991   9.396   7.955  0.2756  0.1873  0.4001
  567MOL0     C78166  10.891   9.433   8.049  0.6010  0.2246 -0.9155
  567MOL0     O78167  10.759   9.420   7.998 -0.0470  0.0665 -0.3995
  567MOL0     C78168  10.654   9.467   8.086 -0.1798  0.3615  0.3339
  567MOL0     C78169  10.506   9.428   8.039 -1.3013  0.1920 -0.0021
  567MOL0     C78170  10.481   9.463   7.891  0.4124  1.6548 -0.3331
  567MOL0     C78171  10.512   9.611   7.850  0.5140 -0.5112 -1.0631
  567MOL0     C78172  10.472   9.630   7.714  0.8513  0.2340  0.8994
  567MOL0     C78173  10.441   9.640   7.598  0.3833 -0.1572 -0.1881
  567MOL0     C78174  10.930   9.486   8.174  0.6792  0.3903 -0.1933
  567MOL0     C78175  11.067   9.489   8.212  0.4918  0.2626 -0.5873
  567MOL0     C78176  11.088   9.537   8.352  0.5308 -0.3767 -0.1046
  567MOL0     H78177  11.525   9.301   8.268  0.8418  0.5425  0.9341
  567MOL0     H78178  11.751   9.221   8.289 -1.2507  1.4783 -0.5098
  567MOL0     H78179  12.015   9.278   8.187 -1.6164 -0.2035 -0.3404
  567MOL0     H78180  12.069   9.271   8.016  3.3540  0.5884  1.5157
  567MOL0     H78181  12.128   9.032   8.041  3.6240  0.2867 -1.9220
  567MOL0     H78182  12.240   9.146   8.120 -0.0956  0.4991  0.4465
  567MOL0     H78183  12.162   9.110   8.346 -0.6893  1.5562 -0.5181
  567MOL0     H78184  12.023   9.031   8.285  0.3174  0.1912  2.8548
  567MOL0     H78185  12.174   8.847   8.190  0.0880 -1.0692  1.0217
  567MOL0     H78186  12.318   8.943   8.227  0.0550 -1.5788 -0.4577
  567MOL0     H78187  12.244   8.747   8.387  0.0811  0.5302  1.3717
  567MOL0     H78188  12.092   8.825   8.428  0.3848  0.3014  0.8485
  567MOL0     H78189  12.354   8.966   8.459 -1.0605  1.7012 -0.5458
  567MOL0     H78190  12.198   8.988   8.552 -1.9648 -0.9217  1.3777
  567MOL0     H78191  12.363   8.730   8.586 -4.0229 -2.5699 -1.0616
  567MOL0     H78192  12.225   8.777   8.675 -0.4798 -0.1807  0.6044
  567MOL0     H78193  12.340   8.989   8.737 -2.0885 -1.8998  1.3622
  567MOL0     H78194  12.401   8.845   8.806 -1.5110  1.6824  1.1949
  567MOL0     H78195  12.511   9.147   8.654  1.8446  0.3643  1.9623
  567MOL0     H78196  12.763   9.231   8.604  0.2629  0.4293 -0.7467
  567MOL0     H78197  12.775   9.189   8.432  0.9437 -1.3455 -0.8340
  567MOL0     H78198  12.931   9.030   8.651  1.2680 -2.4045 -2.5180
  567MOL0     H78199  12.949   9.044   8.469  0.3912  2.0075 -1.7675
  567MOL0     H78200  13.011   9.269   8.671  2.0995  0.3739 -1.0584
  567MOL0     H78201  13.133   9.165   8.591 -0.4450 -2.8598  0.6674
  567MOL0     H78202  13.131   9.366   8.501 -2.0920  0.1950  4.0888
  567MOL0     H78203  13.042   9.271   8.371 -3.0978  0.8809 -0.4597
  567MOL0     H78204  12.746   9.571   8.471  1.0430 -0.5057  1.4985
  567MOL0     H78205  12.658   9.817   8.231  3.3365  0.9383 -1.9915
  567MOL0     H78206  12.730   9.905   8.360 -1.5391  0.3826  1.2227
  567MOL0     H78207  12.640   9.754   8.405  2.5719  0.5479  1.0991
  567MOL0     H78208  12.762  10.038   8.067  1.8757 -2.1875  3.2951
  567MOL0     H78209  12.716  10.191   7.875  0.3922  2.8192  0.2612
  567MOL0     H78210  12.721  10.314   7.706  2.1326 -2.3274  1.6358
  567MOL0     H78211  12.773  10.439   7.821 -0.0605  0.7216  0.4046
  567MOL0     H78212  12.807  10.477   7.526  3.2399  1.4333 -0.1254
  567MOL0     H78213  12.723  10.584   7.644  2.5732  3.6076 -3.5417
  567MOL0     H78214  13.008  10.535   7.681  0.6435  0.3992 -1.5380
  567MOL0     H78215  12.894  10.669   7.719 -1.3395  2.1046 -1.8235
  567MOL0     H78216  12.885  10.703   7.455  0.9227  1.4514 -1.7246
  567MOL0     H78217  13.025  10.593   7.444  0.3619  0.0631  0.7138
  567MOL0     H78218  12.985  10.869   7.554  0.1280  1.7019 -2.3351
  567MOL0     H78219  13.117  10.777   7.626  2.3676 -2.8557 -3.0602
  567MOL0     H78220  13.106  10.830   7.326 -1.9960  1.0932  0.5497
  567MOL0     H78221  13.219  10.736   7.411 -0.4962  0.4887 -3.0741
  567MOL0     H78222  13.238  10.968   7.565  0.7942 -2.4317  0.5282
  567MOL0     H78223  13.190  11.027   7.405  3.7188  1.2878 -0.9026
  567MOL0     H78224  13.354  10.919   7.284 -4.9215 -0.0506  0.9671
  567MOL0     H78225  13.415  10.840   7.432 -1.0239  0.1430  0.6131
  567MOL0     H78226  13.134  10.213   7.802 -0.5012  2.8721  0.2255
  567MOL0     H78227  13.184  10.052   7.952  1.1097  1.4501 -2.0894
  567MOL0     H78228  13.125   9.665   8.161 -0.0826  1.3682 -0.2958
  567MOL0     H78229  13.110   9.452   8.311 -0.6027 -0.6462  3.4299
  567MOL0     H78230  11.791   9.230   7.861 -0.5217 -0.4030 -1.3057
  567MOL0     H78231  11.568   9.343   7.852 -0.0195  1.8281  1.2690
  567MOL0     H78232  11.183   9.327   7.921 -0.8139 -0.5623 -0.3727
  567MOL0     H78233  10.957   9.368   7.856  0.7028  3.0563 -0.6450
  567MOL0     H78234  10.673   9.433   8.188  0.5203 -0.5713 -0.0873
  567MOL0     H78235  10.649   9.576   8.093 -1.9669  0.3088  0.4561
  567MOL0     H78236  10.431   9.486   8.094 -1.6759 -1.7822  1.7369
  567MOL0     H78237  10.479   9.322   8.045 -0.9606 -0.0443 -1.9831
  567MOL0     H78238  10.532   9.383   7.836 -0.6767 -1.3911  2.7093
  567MOL0     H78239  10.373   9.459   7.877  0.4923  1.2945 -0.8727
  567MOL0     H78240  10.619   9.632   7.859  0.3659 -0.2399  0.2753
  567MOL0     H78241  10.454   9.679   7.914  2.4849  0.0306  0.2229
  567MOL0     H78242  10.399   9.644   7.499  0.2477 -0.4333 -0.1447
  567MOL0     H78243  10.855   9.530   8.240 -1.4923  2.1450 -3.5813
  567MOL0     H78244  11.147   9.463   8.407 -2.8001 -2.2724  1.2150
  567MOL0     H78245  11.139   9.634   8.359 -0.0236 -0.0945  0.1424
  567MOL0     H78246  10.993   9.548   8.407  0.4872 -0.6859 -0.1171
  568MOL0     O78247   8.823   3.860   9.761  0.5156  0.1117  0.4311
  568MOL0     C78248   8.842   3.790   9.863  0.0579 -0.0085  0.2348
  568MOL0     O78249   8.910   3.838   9.981 -0.3645  0.0295 -0.2776
  568MOL0     C78250   8.922   3.972   9.992  0.5103 -0.5725  0.4619
  568MOL0     C78251   8.819   4.068  10.024  0.1153  0.1803  0.4945
  568MOL0     C78252   8.856   4.206  10.031 -0.0958 -0.6438  0.7026
  568MOL0     C78253   8.980   4.252   9.994 -0.7335  0.9012 -0.8685
  568MOL0     O78254   9.022   4.382   9.987  0.3086  0.0454  0.2475
  568MOL0     C78255   8.970   4.471  10.085 -0.0903  0.2662  0.2575
  568MOL0     C78256   8.892   4.594  10.022 -0.3082 -0.1708 -0.1270
  568MOL0     C78257   8.976   4.665   9.914  0.6392  0.4856  0.0134
  568MOL0     C78258   8.915   4.793   9.884 -0.4608  0.5946 -0.0897
  568MOL0     C78259   8.976   4.866   9.760 -0.1028  0.1984 -0.4118
  568MOL0     C78260   9.098   4.955   9.778  0.7138 -0.2763 -0.3158
  568MOL0     C78261   9.227   4.879   9.806 -0.3554 -0.3866  0.2394
  568MOL0     C78262   9.348   4.976   9.788  0.5447  0.0238  0.2736
  568MOL0     N78263   9.370   5.028   9.652  0.6743 -0.0691  1.0417
  568MOL0     C78264   9.374   4.948   9.535  0.8055  0.9174 -0.5402
  568MOL0     C78265   9.398   5.037   9.438 -0.1861 -0.6448  1.3159
  568MOL0     C78266   9.411   5.018   9.281  0.3231  0.3491  0.0308
  568MOL0     C78267   9.501   4.901   9.230  0.5273 -0.1299 -0.2936
  568MOL0     C78268   9.521   4.895   9.075  0.7556 -0.5594 -0.1300
  568MOL0     C78269   9.574   5.028   9.014  0.3070  0.0957  0.4354
  568MOL0     O78270   9.469   5.111   8.971  0.6983 -0.0994 -0.1894
  568MOL0     C78271   9.486   5.245   8.980  0.6317 -0.8064  0.1799
  568MOL0     C78272   9.357   5.299   8.982  0.3556 -0.3954  0.0342
  568MOL0     C78273   9.334   5.428   9.007  0.0806 -0.3595  0.1837
  568MOL0     C78274   9.195   5.486   9.002 -0.2070 -0.8626  0.7205
  568MOL0     C78275   9.444   5.515   9.015  0.2739 -0.8913  0.2500
  568MOL0     C78276   9.442   5.667   9.015 -0.3638  0.2223  0.3147
  568MOL0     O78277   9.567   5.732   9.017 -0.3098  0.1542  0.6763
  568MOL0     C78278   9.575   5.866   9.043  0.4467 -0.1614  0.2524
  568MOL0     C78279   9.671   5.904   9.130 -0.5325 -1.1707 -0.1933
  568MOL0     C78280   9.689   6.045   9.163  0.0110 -0.0889  0.1826
  568MOL0     C78281   9.613   6.138   9.107 -1.0155  0.1253 -0.3198
  568MOL0     O78282   9.642   6.264   9.152  0.6408  0.2632  0.1463
  568MOL0     C78283   9.566   6.382   9.132 -0.0572  0.5204 -0.1964
  568MOL0     C78284   9.494   6.437   9.259  0.0098  0.1521  0.0048
  568MOL0     C78285   9.508   6.592   9.256 -0.3112  0.3145 -0.9011
  568MOL0     C78286   9.411   6.666   9.153 -0.5518 -0.3661 -0.0045
  568MOL0     C78287   9.453   6.816   9.167 -1.1592  1.1263  0.5208
  568MOL0     C78288   9.366   6.905   9.079  0.0436 -0.3692  0.3746
  568MOL0     C78289   9.234   6.936   9.142  0.7965 -0.6004 -0.2407
  568MOL0     C78290   9.222   7.031   9.265 -0.7879  0.2596  0.6239
  568MOL0    Cl78291   9.043   7.034   9.321 -0.1694  0.0365  0.4431
  568MOL0     C78292   9.517   6.104   9.012 -0.0527  0.4308  0.2530
  568MOL0     C78293   9.494   5.969   8.981  0.0306  0.4844 -0.7167
  568MOL0     O78294   9.336   5.724   9.027 -0.1119 -0.3433  0.4050
  568MOL0     C78295   9.575   5.461   9.015 -0.5563 -0.8134  0.1724
  568MOL0     C78296   9.595   5.322   9.007 -0.2586 -0.7536 -0.3351
  568MOL0     N78297   9.407   5.164   9.494 -0.2471  0.3252  0.1816
  568MOL0     N78298   9.395   5.151   9.617 -0.4807  0.1855 -0.5356
  568MOL0     C78299   9.080   4.150   9.973 -0.6486  0.0697 -0.5204
  568MOL0     C78300   9.047   4.011   9.966  1.0505 -0.1763 -0.0157
  568MOL0     C78301   8.810   3.649   9.859 -0.8671 -0.0278  0.6073
  568MOL0     C78302   8.913   3.563   9.896  0.1999  0.4308 -0.7670
  568MOL0     C78303   8.889   3.425   9.910 -0.2114  0.4211 -0.3258
  568MOL0     C78304   8.772   3.370   9.874 -0.5805  0.0068 -0.3573
  568MOL0     O78305   8.747   3.246   9.906 -0.6818  0.0013 -0.1438
  568MOL0     C78306   8.636   3.171   9.844  0.5617  0.4000  1.4872
  568MOL0     C78307   8.640   3.021   9.870  0.2206  0.9001 -0.4791
  568MOL0     C78308   8.697   2.946   9.757  0.3335 -0.0307  1.2544
  568MOL0     C78309   8.702   2.800   9.792 -0.2922  0.8385  0.3054
  568MOL0     C78310   8.721   2.720   9.663  0.5160  0.1775 -1.7054
  568MOL0     C78311   8.735   2.641   9.573  0.4903  0.2892  0.2526
  568MOL0     C78312   8.672   3.456   9.822 -0.2597  0.0966  0.6234
  568MOL0     C78313   8.694   3.592   9.817  0.5923  0.2334  0.0377
  568MOL0     C78314   8.568   3.675   9.793 -0.6326 -0.0287  0.2014
  568MOL0     H78315   8.720   4.033  10.051  0.6915  0.0044  2.5331
  568MOL0     H78316   8.780   4.279  10.058  0.1477  1.1642 -2.9260
  568MOL0     H78317   9.050   4.506  10.151 -0.2108 -0.8238  1.0088
  568MOL0     H78318   8.904   4.421  10.157 -1.5974  1.5315 -0.2012
  568MOL0     H78319   8.799   4.561   9.975 -1.2241  2.4308 -0.2601
  568MOL0     H78320   8.873   4.663  10.105  1.4217 -1.8217  1.7718
  568MOL0     H78321   9.079   4.688   9.941  0.0763  2.2553  0.7513
  568MOL0     H78322   8.969   4.608   9.821  1.1170 -2.0594  1.4422
  568MOL0     H78323   8.809   4.781   9.857 -0.2083  2.2014 -2.0574
  568MOL0     H78324   8.926   4.859   9.971 -1.3293  1.0927 -0.3308
  568MOL0     H78325   8.899   4.936   9.725 -0.9860 -1.2156 -1.3959
  568MOL0     H78326   8.998   4.806   9.671  4.2237 -1.0162  1.1975
  568MOL0     H78327   9.113   5.011   9.685 -1.8949 -0.0615 -0.6816
  568MOL0     H78328   9.081   5.035   9.850 -3.0999  0.2658 -1.6275
  568MOL0     H78329   9.226   4.797   9.733 -0.9718 -1.0833  1.0125
  568MOL0     H78330   9.224   4.837   9.907 -0.3642 -0.4119  0.2287
  568MOL0     H78331   9.311   5.059   9.849  2.5777 -0.2965  2.0491
  568MOL0     H78332   9.438   4.932   9.830  1.4882  1.7664  0.1771
  568MOL0     H78333   9.337   4.846   9.537 -3.0049  2.1268  2.2460
  568MOL0     H78334   9.453   5.111   9.242 -3.4315  1.7640 -1.1122
  568MOL0     H78335   9.304   5.013   9.259 -0.0189  0.1168  1.6307
  568MOL0     H78336   9.600   4.911   9.276  0.4556  2.0694 -0.5115
  568MOL0     H78337   9.459   4.808   9.267  1.5322 -0.0907  1.0439
  568MOL0     H78338   9.596   4.816   9.063 -1.2309 -2.2584 -2.3467
  568MOL0     H78339   9.427   4.860   9.032 -0.4926  0.7315  1.4234
  568MOL0     H78340   9.627   5.089   9.088  1.1226  0.9522 -0.8255
  568MOL0     H78341   9.649   5.000   8.939  0.5208 -0.6866  0.9248
  568MOL0     H78342   9.274   5.235   8.955  0.0424 -0.2581  0.6427
  568MOL0     H78343   9.119   5.408   9.011  1.5214 -3.0929 -2.1635
  568MOL0     H78344   9.193   5.533   8.904 -1.4210 -1.7205  0.3095
  568MOL0     H78345   9.174   5.563   9.077 -1.3695 -0.2611 -0.1997
  568MOL0     H78346   9.735   5.838   9.187 -3.0547 -0.4881  3.8399
  568MOL0     H78347   9.756   6.080   9.240  0.9279  2.0200 -1.4664
  568MOL0     H78348   9.651   6.447   9.107 -1.4713  2.9071  0.8298
  568MOL0     H78349   9.491   6.383   9.052 -1.0473  2.2753  0.6731
  568MOL0     H78350   9.393   6.395   9.265  0.9153 -1.9616  1.3558
  568MOL0     H78351   9.546   6.405   9.350 -3.6384  0.9233  2.6264
  568MOL0     H78352   9.609   6.618   9.224  0.1080  1.9291  1.4418
  568MOL0     H78353   9.496   6.632   9.358  1.3242 -1.3676  0.0034
  568MOL0     H78354   9.305   6.646   9.170 -0.7747  0.1954 -0.6534
  568MOL0     H78355   9.428   6.641   9.048  0.4162  0.7686 -0.1447
  568MOL0     H78356   9.452   6.854   9.270  0.5481  0.5309  0.7809
  568MOL0     H78357   9.552   6.832   9.124 -1.2861  3.5803  1.0317
  568MOL0     H78358   9.355   6.850   8.985  2.3123  0.5355 -0.5111
  568MOL0     H78359   9.419   6.998   9.056  0.8783 -1.5293 -2.9436
  568MOL0     H78360   9.188   6.844   9.178  3.9253 -1.9824  0.5957
  568MOL0     H78361   9.168   6.981   9.067 -1.6102  0.3298  2.2984
  568MOL0     H78362   9.261   7.132   9.250 -1.3346  0.3088 -0.5635
  568MOL0     H78363   9.291   6.997   9.344 -1.7703 -0.3129  1.2595
  568MOL0     H78364   9.446   6.175   8.972  1.2939  0.9031 -1.4048
  568MOL0     H78365   9.424   5.940   8.903  0.0838 -0.6863 -0.3497
  568MOL0     H78366   9.664   5.517   9.042 -1.0990 -0.6037  1.6383
  568MOL0     H78367   9.697   5.284   9.000  0.1416 -0.2902  2.1145
  568MOL0     H78368   9.185   4.173   9.954 -0.5861 -1.6084 -2.6034
  568MOL0     H78369   9.123   3.935   9.950  0.2278 -1.2831  1.0756
  568MOL0     H78370   9.007   3.603   9.934 -0.2138  2.7046 -1.9242
  568MOL0     H78371   8.972   3.367   9.948  1.4781  1.9377 -1.5358
  568MOL0     H78372   8.543   3.218   9.875 -0.0788  1.4717 -1.6852
  568MOL0     H78373   8.641   3.172   9.735  0.0938 -2.6732  1.3312
  568MOL0     H78374   8.542   2.983   9.899  0.9961  0.1830  1.3096
  568MOL0     H78375   8.703   2.989   9.953 -0.8577 -0.8749 -0.2882
  568MOL0     H78376   8.636   2.952   9.666 -0.0071  1.9206  1.5752
  568MOL0     H78377   8.795   2.988   9.732  0.5835 -0.9141  0.7217
  568MOL0     H78378   8.606   2.773   9.839  1.6418 -2.0464  2.9961
  568MOL0     H78379   8.777   2.774   9.868 -0.1502 -0.8466 -0.3625
  568MOL0     H78380   8.769   2.575   9.496  1.2854 -0.5425  1.2925
  568MOL0     H78381   8.577   3.422   9.782 -0.8165  1.6045  0.6340
  568MOL0     H78382   8.512   3.688   9.886 -4.5602 -0.1487 -1.9598
  568MOL0     H78383   8.578   3.766   9.733 -2.5795  0.0740 -0.0113
  568MOL0     H78384   8.492   3.626   9.732 -0.9322  0.4641  0.1667
  569MOL0     O78385  10.040   0.460  10.420  0.1000 -0.1312 -0.4480
  569MOL0     C78386  10.154   0.469  10.363  1.2921  0.5792  0.6021
  569MOL0     O78387  10.184   0.554  10.261 -0.0591  0.4778 -0.0933
  569MOL0     C78388  10.084   0.642  10.226 -0.2827 -0.5790 -0.1194
  569MOL0     C78389   9.995   0.614  10.122  0.6624  0.7245  0.1323
  569MOL0     C78390   9.890   0.703  10.083 -0.1230 -0.5281 -0.0221
  569MOL0     C78391   9.882   0.831  10.142 -0.8865 -0.0688  0.6062
  569MOL0     O78392   9.801   0.930  10.101  1.1484 -0.0115  0.0017
  569MOL0     C78393   9.705   0.978  10.197  1.2626  0.1276  0.1018
  569MOL0     C78394   9.572   0.902  10.156 -0.2686  0.2409  0.0995
  569MOL0     C78395   9.466   0.947  10.259  0.6887 -0.4880 -0.2157
  569MOL0     C78396   9.322   0.935  10.188 -0.6543 -0.2377  0.2522
  569MOL0     C78397   9.235   0.990  10.296 -0.3507  0.2344 -0.1823
  569MOL0     C78398   9.085   0.978  10.261  0.0941  0.2757 -0.5613
  569MOL0     C78399   9.041   0.824  10.261 -0.1157 -0.5853  0.5414
  569MOL0     C78400   8.881   0.814  10.251  0.5122  1.0361  0.4883
  569MOL0     N78401   8.831   0.755  10.128  0.2744 -0.3362 -0.0005
  569MOL0     C78402   8.748   0.814  10.029  0.0179  0.6064 -0.6722
  569MOL0     C78403   8.732   0.715   9.942  0.0476 -0.3162  0.8457
  569MOL0     C78404   8.655   0.717   9.805 -0.1274  0.3810  0.3230
  569MOL0     C78405   8.610   0.855   9.776  0.0595  0.7293  0.3024
  569MOL0     C78406   8.543   0.874   9.644  0.6708 -0.0409  0.5756
  569MOL0     C78407   8.474   1.010   9.646  0.4988  0.0523 -0.7891
  569MOL0     O78408   8.341   0.986   9.705 -0.0771  0.2702  0.2322
  569MOL0     C78409   8.272   1.091   9.771  0.2167  0.4054 -0.7730
  569MOL0     C78410   8.217   1.071   9.903  0.9189  0.0762  0.7787
  569MOL0     C78411   8.135   1.166   9.965 -0.2324 -0.2929  0.8597
  569MOL0     C78412   8.073   1.130  10.093  0.6108  0.3093  0.2207
  569MOL0     C78413   8.113   1.293   9.897 -0.1878  0.7567 -0.1838
  569MOL0     C78414   8.043   1.403   9.954  0.2960  0.2653  0.1975
  569MOL0     O78415   8.053   1.519   9.886  0.2307 -0.5284  0.0892
  569MOL0     C78416   7.988   1.631   9.930 -0.0086  0.3073 -1.1930
  569MOL0     C78417   7.904   1.691   9.839  0.7611  0.0427 -0.3936
  569MOL0     C78418   7.839   1.799   9.881 -0.1202 -0.2402 -0.1885
  569MOL0     C78419   7.843   1.844  10.013  0.6710  1.3392 -0.7749
  569MOL0     O78420   7.754   1.946  10.040 -0.2011  0.4627 -0.0071
  569MOL0     C78421   7.678   1.944  10.163  0.0276 -0.4389  0.7677
  569MOL0     C78422   7.556   1.847  10.162  0.4076  0.7410  0.2818
  569MOL0     C78423   7.465   1.870  10.279  0.1763 -0.0412 -0.4533
  569MOL0     C78424   7.536   1.867  10.420 -0.1536  0.2979  0.4546
  569MOL0     C78425   7.452   1.906  10.538  0.6167  1.5007 -0.7708
  569MOL0     C78426   7.314   1.845  10.559 -0.2674 -0.2901 -0.0489
  569MOL0     C78427   7.222   1.914  10.651 -0.0805  0.3095 -0.6709
  569MOL0     C78428   7.101   1.813  10.689  0.0191 -0.8335 -0.7802
  569MOL0    Cl78429   7.010   1.906  10.809 -0.0394  0.5843 -0.2138
  569MOL0     C78430   7.926   1.773  10.103 -0.0313 -0.4447 -0.1682
  569MOL0     C78431   8.007   1.676  10.065  0.5171  0.5247  0.7641
  569MOL0     O78432   7.968   1.384  10.051  0.1194 -0.4185  0.2717
  569MOL0     C78433   8.199   1.319   9.786  0.0309  1.5341 -0.2274
  569MOL0     C78434   8.260   1.219   9.721 -0.2654  0.1927  0.2613
  569MOL0     N78435   8.791   0.601   9.986  0.2789  0.1851  0.4143
  569MOL0     N78436   8.853   0.621  10.097 -0.2344 -0.1511  0.2211
  569MOL0     C78437   9.970   0.861  10.245 -0.1436  0.8777  0.9218
  569MOL0     C78438  10.068   0.766  10.291  0.1640 -0.1635  1.1602
  569MOL0     C78439  10.252   0.366  10.395 -0.0496 -0.0073 -0.1975
  569MOL0     C78440  10.217   0.231  10.420 -0.1070 -1.1330 -0.2726
  569MOL0     C78441  10.317   0.131  10.418  0.4138 -0.3750 -0.9193
  569MOL0     C78442  10.457   0.168  10.413  0.4836 -0.4950 -0.3448
  569MOL0     O78443  10.562   0.080  10.423  0.0875  0.6822  0.0458
  569MOL0     C78444  10.532  -0.067  10.433 -0.2173 -0.0721 -0.6242
  569MOL0     C78445  10.658  -0.154  10.429  0.2859 -0.8045  0.0358
  569MOL0     C78446  10.741  -0.145  10.299  0.4266 -1.2702 -0.5033
  569MOL0     C78447  10.808  -0.282  10.280 -1.1596 -0.1181 -1.0435
  569MOL0     C78448  10.923  -0.274  10.189 -0.4138 -0.0780 -0.7706
  569MOL0     C78449  11.013  -0.296  10.120 -0.3712  0.4850  0.6698
  569MOL0     C78450  10.485   0.303  10.402 -0.3078  0.6744  0.2270
  569MOL0     C78451  10.388   0.395  10.397 -0.1909  0.0828  0.2555
  569MOL0     C78452  10.431   0.535  10.399  0.4328 -0.3078  0.3941
  569MOL0     H78453   9.994   0.518  10.071 -0.9672  0.7480  0.0709
  569MOL0     H78454   9.816   0.688  10.005  0.1198  2.2178 -0.9098
  569MOL0     H78455   9.691   1.084  10.172 -3.2973  0.2877  2.2450
  569MOL0     H78456   9.747   0.966  10.297  3.1238  0.7546 -0.5705
  569MOL0     H78457   9.539   0.913  10.052  0.6359  0.0741 -0.2152
  569MOL0     H78458   9.594   0.797  10.175 -0.5180  0.4360  1.5494
  569MOL0     H78459   9.480   0.884  10.347 -0.6341  0.8118  0.9840
  569MOL0     H78460   9.497   1.045  10.297 -0.8126 -1.1130  2.8815
  569MOL0     H78461   9.319   0.995  10.096 -2.1184  3.3237  2.3768
  569MOL0     H78462   9.283   0.838  10.157 -0.7124 -0.6072  1.4497
  569MOL0     H78463   9.249   1.099  10.298 -0.4182  0.2734 -1.1600
  569MOL0     H78464   9.264   0.941  10.389  2.0578  1.1827 -0.3574
  569MOL0     H78465   9.030   1.035  10.337  0.0742 -1.9775  1.2191
  569MOL0     H78466   9.074   1.020  10.160  2.9706  1.6841 -0.3872
  569MOL0     H78467   9.094   0.781  10.347 -0.0204  2.8680  2.4057
  569MOL0     H78468   9.079   0.778  10.170  0.4427  3.1127 -1.3157
  569MOL0     H78469   8.854   0.749  10.335 -1.5139 -0.2213 -1.0422
  569MOL0     H78470   8.834   0.912  10.263 -1.3097  0.4021 -0.9818
  569MOL0     H78471   8.702   0.911  10.013 -2.4726 -0.1065  1.4158
  569MOL0     H78472   8.572   0.646   9.801 -0.5335  0.8927 -1.9513
  569MOL0     H78473   8.725   0.679   9.730 -0.4617 -5.2263  2.4225
  569MOL0     H78474   8.530   0.868   9.850 -2.5278  1.0825 -2.3573
  569MOL0     H78475   8.693   0.924   9.789  1.6593 -0.4487 -2.6705
  569MOL0     H78476   8.620   0.878   9.567 -0.3136  2.0337 -0.3908
  569MOL0     H78477   8.471   0.794   9.629  0.5861 -0.3293  2.2684
  569MOL0     H78478   8.534   1.083   9.702  1.8616 -1.0239 -0.7830
  569MOL0     H78479   8.465   1.047   9.543 -1.4167  1.2615 -0.2229
  569MOL0     H78480   8.246   0.979   9.953  1.5095 -0.9854 -1.3774
  569MOL0     H78481   8.098   1.210  10.163 -0.5341 -0.0126  1.0388
  569MOL0     H78482   8.105   1.031  10.129 -0.5467 -0.4661 -0.7747
  569MOL0     H78483   7.963   1.132  10.091  0.5820  2.6829 -2.8930
  569MOL0     H78484   7.893   1.651   9.739  0.8925 -3.6301  0.8995
  569MOL0     H78485   7.783   1.854   9.806  0.9971 -1.6998 -2.1802
  569MOL0     H78486   7.744   1.918  10.247  1.0762 -2.1993 -0.5346
  569MOL0     H78487   7.647   2.049  10.166  2.0215  0.3829 -2.5933
  569MOL0     H78488   7.503   1.845  10.067  0.2313  1.8088  0.3514
  569MOL0     H78489   7.603   1.749  10.178  3.0379  1.2897 -2.8905
  569MOL0     H78490   7.392   1.790  10.266 -0.6507  0.9055 -1.9721
  569MOL0     H78491   7.415   1.967  10.273 -1.0164 -0.3742  2.4999
  569MOL0     H78492   7.605   1.951  10.408 -0.6669  0.2719 -5.0963
  569MOL0     H78493   7.589   1.772  10.429  2.8243  1.8957  1.3777
  569MOL0     H78494   7.510   1.892  10.630 -1.0245 -0.1524  0.0813
  569MOL0     H78495   7.439   2.013  10.519  1.0126  1.2634 -2.5245
  569MOL0     H78496   7.315   1.739  10.588  0.0391  0.0704  1.3583
  569MOL0     H78497   7.261   1.841  10.464  0.1117 -1.7357 -0.2233
  569MOL0     H78498   7.181   2.004  10.603  0.8700  0.9863 -0.2456
  569MOL0     H78499   7.269   1.949  10.744 -0.3315 -0.6533 -0.1651
  569MOL0     H78500   7.144   1.721  10.729  2.4944  0.1851 -0.9302
  569MOL0     H78501   7.041   1.787  10.601 -3.8016 -0.4783  1.4936
  569MOL0     H78502   7.939   1.806  10.206 -1.0359  1.9448 -0.7446
  569MOL0     H78503   8.064   1.610  10.129  2.0491 -1.4685 -2.3931
  569MOL0     H78504   8.206   1.413   9.732  0.0333  1.8505  0.3060
  569MOL0     H78505   8.300   1.250   9.625  0.3528  1.6124  0.9455
  569MOL0     H78506   9.961   0.955  10.299 -3.0877 -1.0589  4.2868
  569MOL0     H78507  10.133   0.789  10.375 -0.6816  1.2447  1.4530
  569MOL0     H78508  10.114   0.197  10.426 -0.6454 -0.0502 -2.2838
  569MOL0     H78509  10.289   0.028  10.438 -1.7938  0.4089  0.4799
  569MOL0     H78510  10.479  -0.087  10.526 -2.6330  1.4159 -1.5936
  569MOL0     H78511  10.466  -0.103  10.353 -3.5635 -0.0036  1.8976
  569MOL0     H78512  10.631  -0.260  10.432  2.2426 -1.3201  2.1202
  569MOL0     H78513  10.707  -0.118  10.520 -1.3268  0.9313  0.2866
  569MOL0     H78514  10.682  -0.139  10.207  1.1076 -4.3047 -1.2508
  569MOL0     H78515  10.808  -0.059  10.300 -0.6648 -0.3766 -1.2585
  569MOL0     H78516  10.744  -0.356  10.231 -1.5123  0.1397 -0.9867
  569MOL0     H78517  10.834  -0.324  10.377 -1.0508 -0.7301 -1.3359
  569MOL0     H78518  11.106  -0.322  10.075  0.2052 -0.9365  2.5274
  569MOL0     H78519  10.590   0.331  10.410  0.0182 -0.6185  0.7226
  569MOL0     H78520  10.514   0.533  10.470  3.1071 -1.3558 -2.5187
  569MOL0     H78521  10.464   0.558  10.297  0.0480  1.6805  0.6770
  569MOL0     H78522  10.362   0.615  10.428  0.1448 -0.4042 -0.0175
  570MOL0     O78523   3.854  10.358  11.336 -0.4371  0.1780 -0.0797
  570MOL0     C78524   3.794  10.256  11.374 -0.5599 -0.3426 -0.4164
  570MOL0     O78525   3.813  10.190  11.498 -0.7147 -0.8168 -0.2197
  570MOL0     C78526   3.926  10.213  11.566 -0.2155 -0.0808 -0.7037
  570MOL0     C78527   4.002  10.105  11.622 -0.5950 -0.2663  0.1436
  570MOL0     C78528   4.116  10.128  11.702 -0.9540  0.3489  0.5617
  570MOL0     C78529   4.160  10.259  11.726 -1.1160 -0.0638  0.5714
  570MOL0     O78530   4.265  10.283  11.804  0.5429 -1.0514 -0.1903
  570MOL0     C78531   4.387  10.221  11.767 -0.3580  0.0077 -0.0700
  570MOL0     C78532   4.428  10.101  11.861 -0.1944  0.4723 -0.0861
  570MOL0     C78533   4.539  10.019  11.811 -0.7421  0.4705  0.6228
  570MOL0     C78534   4.662  10.103  11.784 -0.1085 -0.5168 -0.4146
  570MOL0     C78535   4.803  10.034  11.792 -0.0618 -0.1288 -0.2681
  570MOL0     C78536   4.811   9.918  11.694  0.1306  0.6467 -0.2343
  570MOL0     C78537   4.965   9.894  11.674 -0.5758  0.7395 -0.7843
  570MOL0     C78538   5.032   9.987  11.572  0.0597 -0.4521  0.8084
  570MOL0     N78539   5.175   9.968  11.555  0.6881 -0.4383 -0.5533
  570MOL0     C78540   5.263  10.072  11.575  0.0958  0.7003  0.1754
  570MOL0     C78541   5.385  10.008  11.568 -0.0637 -0.1386  0.0192
  570MOL0     C78542   5.526  10.062  11.580 -0.4869  0.4595 -0.7961
  570MOL0     C78543   5.623  10.008  11.472  0.2534 -0.2165 -0.1894
  570MOL0     C78544   5.775  10.016  11.502  0.5930  0.4064  0.0134
  570MOL0     C78545   5.820   9.926  11.627  0.4663 -0.6411 -0.7834
  570MOL0     O78546   5.958   9.912  11.598 -0.7520 -0.3794  0.1604
  570MOL0     C78547   6.038   9.868  11.692  0.3343 -0.0285 -0.8890
  570MOL0     C78548   6.002   9.835  11.822  0.2389 -0.6935  0.1766
  570MOL0     C78549   6.101   9.781  11.910  0.7310  0.1383 -0.6171
  570MOL0     C78550   6.058   9.736  12.048  0.0913  0.5301 -0.4341
  570MOL0     C78551   6.239   9.774  11.874  0.3489 -0.7448  0.4377
  570MOL0     C78552   6.346   9.721  11.956  0.1139 -0.1626 -0.1350
  570MOL0     O78553   6.472   9.688  11.895 -0.4272 -0.2135 -0.3545
  570MOL0     C78554   6.569   9.613  11.959  0.0944  0.3176  1.0396
  570MOL0     C78555   6.696   9.598  11.893  0.5467 -0.4278  0.8335
  570MOL0     C78556   6.801   9.526  11.955 -0.2384 -0.6797  0.5433
  570MOL0     C78557   6.798   9.480  12.082 -0.8439  0.0601 -1.6331
  570MOL0     O78558   6.914   9.417  12.106 -0.0405 -0.2332 -0.5232
  570MOL0     C78559   6.955   9.419  12.246  0.3414 -0.4061  0.5708
  570MOL0     C78560   7.108   9.387  12.244  0.1766  0.3783 -0.0741
  570MOL0     C78561   7.195   9.493  12.178  0.6125 -0.2753  0.2512
  570MOL0     C78562   7.336   9.440  12.180  0.3919  0.0133 -0.4111
  570MOL0     C78563   7.371   9.391  12.039  0.1836  0.3066  0.1512
  570MOL0     C78564   7.501   9.314  12.028 -0.7021  0.2219  0.2344
  570MOL0     C78565   7.517   9.244  11.892  0.4670  1.0358  0.1153
  570MOL0     C78566   7.669   9.228  11.855  0.0946 -0.0658  0.0729
  570MOL0    Cl78567   7.684   9.133  11.704  0.9647 -0.0700 -0.2561
  570MOL0     C78568   6.680   9.487  12.149  0.4001 -0.5142 -1.2365
  570MOL0     C78569   6.565   9.544  12.091 -0.0527 -0.3033 -0.9568
  570MOL0     O78570   6.324   9.718  12.075  0.0115 -0.0303  0.6005
  570MOL0     C78571   6.271   9.808  11.742  0.4927  0.0862  0.5477
  570MOL0     C78572   6.166   9.846  11.659 -0.0188  0.3699  0.6697
  570MOL0     N78573   5.362   9.873  11.547 -0.0313 -0.1916  0.4095
  570MOL0     N78574   5.237   9.852  11.532 -0.5331 -1.0444 -0.4596
  570MOL0     C78575   4.084  10.365  11.672  1.1162 -0.1138  0.6496
  570MOL0     C78576   3.971  10.342  11.587  0.2369 -0.1403 -0.1088
  570MOL0     C78577   3.698  10.196  11.283 -0.0592 -0.1792  0.6488
  570MOL0     C78578   3.742  10.182  11.147 -0.3422 -0.8060  0.2319
  570MOL0     C78579   3.648  10.133  11.046 -0.9520  0.2644 -0.3215
  570MOL0     C78580   3.531  10.073  11.083  0.6241 -0.4774  0.4574
  570MOL0     O78581   3.448  10.013  10.990 -0.2337  0.1513  0.1604
  570MOL0     C78582   3.316  10.057  11.001  0.6508 -0.5078  0.9290
  570MOL0     C78583   3.235  10.070  10.873 -0.6302 -0.1524  2.0080
  570MOL0     C78584   3.287  10.183  10.783 -0.0692 -0.1485 -0.1750
  570MOL0     C78585   3.224  10.203  10.639  0.1167 -0.2215 -0.3535
  570MOL0     C78586   3.079  10.234  10.650 -0.4863 -0.9157  0.8230
  570MOL0     C78587   2.962  10.242  10.650 -0.2885  0.2906 -0.4956
  570MOL0     C78588   3.493  10.081  11.221  0.2734 -0.7983 -0.5903
  570MOL0     C78589   3.571  10.144  11.314 -0.1101 -0.1354  0.0577
  570MOL0     C78590   3.521  10.155  11.458  0.1403 -0.8067  0.2450
  570MOL0     H78591   3.972  10.008  11.585 -2.4740 -0.4676  1.9996
  570MOL0     H78592   4.170  10.041  11.737 -1.6349  0.5542  2.2088
  570MOL0     H78593   4.462  10.301  11.767 -2.2051  1.8296  1.2206
  570MOL0     H78594   4.385  10.187  11.663  1.6731 -0.8690  0.1350
  570MOL0     H78595   4.465  10.146  11.953  1.2827  0.9452 -0.8708
  570MOL0     H78596   4.348  10.028  11.873 -0.7350  0.6316 -2.2088
  570MOL0     H78597   4.572   9.953  11.892 -3.3328 -1.9188 -0.1181
  570MOL0     H78598   4.512   9.955  11.727  0.8248 -0.8100  1.0611
  570MOL0     H78599   4.654  10.152  11.687 -0.1857  0.6300  0.1458
  570MOL0     H78600   4.668  10.191  11.849  0.2395 -2.1273  1.8867
  570MOL0     H78601   4.818   9.999  11.895  3.6690  2.4201  0.2874
  570MOL0     H78602   4.886  10.105  11.779  0.5546 -1.0047 -1.2457
  570MOL0     H78603   4.761   9.837  11.749  0.0275 -0.6880 -2.2159
  570MOL0     H78604   4.763   9.931  11.597  0.1359  0.9233 -0.2013
  570MOL0     H78605   4.982   9.798  11.624 -3.2676  0.2148 -0.8692
  570MOL0     H78606   5.016   9.892  11.771 -1.5449  0.0906 -0.2668
  570MOL0     H78607   4.993   9.961  11.474  5.7536 -2.1214 -1.3982
  570MOL0     H78608   4.994  10.087  11.597 -0.3108 -0.7778  1.5892
  570MOL0     H78609   5.240  10.178  11.578  1.4453  0.9930  2.0612
  570MOL0     H78610   5.563  10.021  11.675 -0.0792  1.2221 -0.6202
  570MOL0     H78611   5.529  10.171  11.582 -2.8193  0.5644  1.0428
  570MOL0     H78612   5.604   9.901  11.460 -3.1988  0.1049  1.2605
  570MOL0     H78613   5.597  10.047  11.373 -0.5567 -1.0638 -0.3222
  570MOL0     H78614   5.832   9.998  11.410  0.7629  3.4622 -0.6130
  570MOL0     H78615   5.798  10.118  11.537 -1.1880  0.4525  1.1979
  570MOL0     H78616   5.785   9.984  11.713 -0.4282  0.6409 -1.9674
  570MOL0     H78617   5.771   9.829  11.613 -0.9934  0.1509 -1.4348
  570MOL0     H78618   5.904   9.851  11.865  1.3024  0.1463  2.4528
  570MOL0     H78619   6.075   9.629  12.060 -2.5530  0.0752 -0.0262
  570MOL0     H78620   5.953   9.761  12.070  0.7642  1.1328  2.6559
  570MOL0     H78621   6.109   9.790  12.128  1.8523 -3.1320  1.1174
  570MOL0     H78622   6.700   9.649  11.797 -1.9907  0.7550  1.2783
  570MOL0     H78623   6.887   9.509  11.892 -0.1882  1.6685 -0.1159
  570MOL0     H78624   6.932   9.513  12.298  0.5936 -1.4731  2.7202
  570MOL0     H78625   6.907   9.337  12.300 -0.8622 -1.1070 -1.4666
  570MOL0     H78626   7.125   9.382  12.352 -2.1019  2.7565  0.4846
  570MOL0     H78627   7.127   9.289  12.200 -0.2729 -1.0123  2.6450
  570MOL0     H78628   7.199   9.585  12.236  0.9795 -0.5730  0.7090
  570MOL0     H78629   7.163   9.520  12.077  1.4212  0.1173  0.0917
  570MOL0     H78630   7.350   9.356  12.248  2.1692  0.2981 -0.3622
  570MOL0     H78631   7.420   9.507  12.201 -0.1764  0.2919  1.0669
  570MOL0     H78632   7.288   9.324  12.012  1.7851 -2.6070  1.9454
  570MOL0     H78633   7.379   9.470  11.964  3.2624 -1.9576 -2.1669
  570MOL0     H78634   7.503   9.239  12.108  1.3003 -0.1885 -0.1598
  570MOL0     H78635   7.588   9.380  12.037  0.7970 -1.4247 -1.5632
  570MOL0     H78636   7.466   9.294  11.810  1.9619  1.4775 -0.5837
  570MOL0     H78637   7.469   9.145  11.893  2.5336 -0.0216  0.9958
  570MOL0     H78638   7.729   9.186  11.936  0.6000 -2.1979 -1.3249
  570MOL0     H78639   7.712   9.324  11.826  0.7392 -0.4148 -0.1645
  570MOL0     H78640   6.667   9.431  12.241  0.2051  3.2593  1.2621
  570MOL0     H78641   6.468   9.540  12.141  0.1589 -0.7835 -0.5803
  570MOL0     H78642   6.374   9.816  11.707  1.5177  1.2627  3.5775
  570MOL0     H78643   6.201   9.864  11.558 -0.2214  2.2444  0.9103
  570MOL0     H78644   4.111  10.462  11.712  1.6292 -0.5221  1.3157
  570MOL0     H78645   3.918  10.432  11.558 -1.1972 -1.2669 -1.0787
  570MOL0     H78646   3.844  10.208  11.122 -0.1421 -0.7260  1.1027
  570MOL0     H78647   3.678  10.128  10.941  2.6551  2.0591  0.4795
  570MOL0     H78648   3.270   9.977  11.059 -0.6564 -0.1299  0.4300
  570MOL0     H78649   3.310  10.148  11.061  1.9584  0.8301 -0.8348
  570MOL0     H78650   3.129  10.073  10.900 -2.1808 -1.4298 -2.8280
  570MOL0     H78651   3.243   9.985  10.803 -1.4207  2.0283 -0.9430
  570MOL0     H78652   3.272  10.277  10.837 -1.6789  0.1972 -1.1536
  570MOL0     H78653   3.396  10.173  10.777 -0.0588 -0.3472  0.2710
  570MOL0     H78654   3.243  10.108  10.588  2.2176 -1.1521  1.9871
  570MOL0     H78655   3.276  10.287  10.593  0.0052 -0.5484 -1.1012
  570MOL0     H78656   2.856  10.235  10.661 -0.5200  1.4541 -1.7167
  570MOL0     H78657   3.403  10.025  11.248 -0.1434 -0.2619 -0.8427
  570MOL0     H78658   3.548  10.068  11.519 -1.7050 -0.3292  1.8352
  570MOL0     H78659   3.564  10.248  11.498 -1.1311 -0.9780  2.1390
  570MOL0     H78660   3.413  10.165  11.465  0.2001 -0.0492  0.2120
  571MOL0     O78661   7.321  10.312   4.606 -0.2913 -0.2549 -0.9697
  571MOL0     C78662   7.305  10.218   4.689  0.0536  0.1272 -0.2971
  571MOL0     O78663   7.331  10.082   4.671  0.3534 -0.4311  0.6487
  571MOL0     C78664   7.314  10.034   4.541 -0.2676 -0.0378  0.1872
  571MOL0     C78665   7.388   9.920   4.504 -0.8082 -0.3349  0.4095
  571MOL0     C78666   7.380   9.878   4.370 -0.4438 -0.1823  1.1029
  571MOL0     C78667   7.304   9.933   4.268  0.3484 -0.5289 -0.8721
  571MOL0     O78668   7.301   9.882   4.143 -0.2796 -0.0160  0.7131
  571MOL0     C78669   7.429   9.852   4.090  0.0760  0.5645 -0.4133
  571MOL0     C78670   7.434   9.900   3.948  0.9567  0.0280  0.2018
  571MOL0     C78671   7.379   9.795   3.853 -0.0883 -0.0467  0.2200
  571MOL0     C78672   7.368   9.857   3.715 -0.1139 -0.1450  0.4307
  571MOL0     C78673   7.307   9.761   3.619  0.5849  0.7427 -0.8501
  571MOL0     C78674   7.357   9.615   3.600  0.1267  0.6331 -0.4246
  571MOL0     C78675   7.502   9.607   3.550 -0.1187  0.0273 -0.0627
  571MOL0     C78676   7.524   9.466   3.486  0.1441  0.0148  0.2690
  571MOL0     N78677   7.663   9.418   3.500 -0.2179  0.1780 -0.3926
  571MOL0     C78678   7.773   9.486   3.457  0.2149  0.1469  0.7751
  571MOL0     C78679   7.874   9.400   3.456  0.2707 -0.3919  0.2351
  571MOL0     C78680   8.012   9.425   3.405 -0.4127  0.3314 -0.9765
  571MOL0     C78681   8.124   9.390   3.495 -0.3287 -0.2844 -0.0384
  571MOL0     C78682   8.262   9.453   3.461  0.2047  0.1504  0.3139
  571MOL0     C78683   8.322   9.408   3.321 -0.7674 -0.7777 -0.2549
  571MOL0     O78684   8.397   9.520   3.266  0.4187 -0.1027 -0.4786
  571MOL0     C78685   8.514   9.474   3.194  0.6600 -0.7379  0.4410
  571MOL0     C78686   8.637   9.516   3.235  0.1441 -0.0419 -0.0210
  571MOL0     C78687   8.752   9.479   3.162  0.3744  0.6790 -0.1736
  571MOL0     C78688   8.889   9.516   3.213  0.2688 -0.1804  0.0620
  571MOL0     C78689   8.742   9.413   3.036  0.0261  0.8702 -1.0197
  571MOL0     C78690   8.858   9.363   2.954  0.4999  0.1477  0.1875
  571MOL0     O78691   8.983   9.363   2.999 -0.0043  0.8093  0.2117
  571MOL0     C78692   9.089   9.301   2.946  0.3351  0.3008  0.1458
  571MOL0     C78693   9.210   9.355   2.959 -0.5810  0.3694 -0.2261
  571MOL0     C78694   9.323   9.290   2.923  0.4192 -0.5468  0.1856
  571MOL0     C78695   9.319   9.174   2.840 -0.0083 -0.6931  0.4231
  571MOL0     O78696   9.444   9.142   2.788 -0.0565 -0.4923  0.3142
  571MOL0     C78697   9.459   9.032   2.695  0.3470  0.1602  0.6642
  571MOL0     C78698   9.587   9.055   2.606  0.4729  0.2485 -0.8405
  571MOL0     C78699   9.701   8.974   2.671  1.5475 -0.4872  0.0691
  571MOL0     C78700   9.826   8.980   2.585 -0.4929 -0.5262  0.1845
  571MOL0     C78701   9.948   8.889   2.642 -0.0671 -0.0724  0.3928
  571MOL0     C78702  10.058   8.870   2.538  0.5930 -0.4822  0.0935
  571MOL0     C78703  10.173   8.793   2.595  0.2841  0.6071  0.7787
  571MOL0     C78704  10.305   8.832   2.513 -0.2270  0.1145 -0.4113
  571MOL0    Cl78705  10.319   8.734   2.361  0.2148 -0.3148 -0.4135
  571MOL0     C78706   9.182   9.120   2.816 -0.3229  0.5177 -0.0998
  571MOL0     C78707   9.077   9.179   2.881 -0.2954  0.6839 -0.2347
  571MOL0     O78708   8.821   9.327   2.848 -0.4035  0.5028  0.9557
  571MOL0     C78709   8.614   9.376   2.994  0.4876 -0.4937 -0.1868
  571MOL0     C78710   8.500   9.413   3.069 -0.0623  0.3276 -0.1247
  571MOL0     N78711   7.818   9.276   3.482  0.4903 -0.1290 -0.5229
  571MOL0     N78712   7.692   9.290   3.509  0.4398  0.0935  0.6749
  571MOL0     C78713   7.221  10.043   4.310 -0.4971 -0.7343  0.2618
  571MOL0     C78714   7.227  10.095   4.440  0.7407 -0.3419  0.1261
  571MOL0     C78715   7.244  10.267   4.823 -0.0542  0.1643  0.1645
  571MOL0     C78716   7.265  10.402   4.858  0.0422 -0.2625 -0.5345
  571MOL0     C78717   7.228  10.448   4.978  0.0317  0.2411 -0.4691
  571MOL0     C78718   7.157  10.365   5.071  0.9045 -0.0984  0.5809
  571MOL0     O78719   7.105  10.422   5.189 -1.1464  0.0142 -0.1956
  571MOL0     C78720   6.989  10.357   5.241 -0.0368 -0.3054  0.1514
  571MOL0     C78721   6.909  10.437   5.348 -0.0616  0.3818 -0.4926
  571MOL0     C78722   7.002  10.463   5.469  0.6991  0.2158  0.2266
  571MOL0     C78723   6.929  10.523   5.591  0.1422  0.6151 -0.1516
  571MOL0     C78724   7.031  10.546   5.697 -0.1617 -0.2532  0.3480
  571MOL0     C78725   7.105  10.583   5.791  0.3876  0.0213  0.1057
  571MOL0     C78726   7.142  10.231   5.034  0.1145  0.0334 -0.4679
  571MOL0     C78727   7.183  10.175   4.915 -1.0300  0.2301 -0.1370
  571MOL0     C78728   7.157  10.028   4.891 -0.5515 -0.8726 -0.1693
  571MOL0     H78729   7.446   9.862   4.575 -0.4398  1.3501  1.5437
  571MOL0     H78730   7.443   9.794   4.343  1.6887  1.3359  1.1018
  571MOL0     H78731   7.455   9.746   4.098 -1.0711  0.1796 -1.4515
  571MOL0     H78732   7.512   9.899   4.144 -0.5280 -0.6318  1.6662
  571MOL0     H78733   7.384   9.996   3.935 -1.4584 -1.4889 -2.9634
  571MOL0     H78734   7.541   9.922   3.935  1.2451 -0.7487  1.0959
  571MOL0     H78735   7.441   9.704   3.852 -2.5286 -1.9025  2.6134
  571MOL0     H78736   7.277   9.766   3.881 -0.0517  1.8030  2.5683
  571MOL0     H78737   7.318   9.954   3.711  0.8807  0.3734 -2.7060
  571MOL0     H78738   7.472   9.875   3.687 -0.2867  1.0406  0.5066
  571MOL0     H78739   7.301   9.812   3.522  0.7181 -0.2121 -1.3669
  571MOL0     H78740   7.203   9.747   3.648  1.4117  0.8298  2.5604
  571MOL0     H78741   7.344   9.555   3.690 -2.6261 -2.0387 -2.4113
  571MOL0     H78742   7.293   9.564   3.528  0.5414  0.1942 -0.4861
  571MOL0     H78743   7.560   9.621   3.642 -2.9696 -2.7672  2.4193
  571MOL0     H78744   7.522   9.690   3.481 -2.0498 -1.1702 -2.1799
  571MOL0     H78745   7.454   9.398   3.536  1.8113 -0.3635  2.2360
  571MOL0     H78746   7.490   9.461   3.382  0.2028 -4.1198  0.2814
  571MOL0     H78747   7.775   9.590   3.425  1.5887 -0.6125 -1.8866
  571MOL0     H78748   8.029   9.527   3.370  0.7503  0.2518 -0.6678
  571MOL0     H78749   8.017   9.367   3.312 -1.9266  2.8805 -2.8117
  571MOL0     H78750   8.086   9.420   3.593 -1.7711  2.6144 -1.3711
  571MOL0     H78751   8.132   9.281   3.492  0.4517 -0.2191 -0.7196
  571MOL0     H78752   8.266   9.562   3.473 -0.0750  0.0706  1.1585
  571MOL0     H78753   8.336   9.419   3.534 -0.5382 -0.9021  0.5929
  571MOL0     H78754   8.385   9.319   3.330 -0.9855 -0.9276 -0.2130
  571MOL0     H78755   8.248   9.386   3.244 -0.4205 -2.3069 -0.1696
  571MOL0     H78756   8.648   9.562   3.332  1.8424 -0.1298 -0.1491
  571MOL0     H78757   8.936   9.579   3.138 -1.4446  0.6404 -0.3861
  571MOL0     H78758   8.956   9.443   3.258  0.2008 -1.3685 -1.6633
  571MOL0     H78759   8.868   9.592   3.289 -0.1533 -1.1003  0.8895
  571MOL0     H78760   9.217   9.456   2.999 -1.2819  0.7333 -1.0010
  571MOL0     H78761   9.419   9.340   2.928  0.1144  0.0993 -0.2215
  571MOL0     H78762   9.481   8.944   2.756  1.6836 -1.4920 -2.0168
  571MOL0     H78763   9.383   9.022   2.617  1.6158  1.8710 -0.9183
  571MOL0     H78764   9.569   9.010   2.508  1.3396 -1.2306 -0.3587
  571MOL0     H78765   9.626   9.156   2.590  1.5440  0.3665  2.0222
  571MOL0     H78766   9.669   8.869   2.681 -0.3599  0.1739  1.4113
  571MOL0     H78767   9.711   9.003   2.776 -0.5245 -1.1283  0.4974
  571MOL0     H78768   9.864   9.082   2.577 -0.0517 -0.3330  3.4567
  571MOL0     H78769   9.786   8.962   2.485  0.1007 -0.3830 -0.0786
  571MOL0     H78770   9.994   8.957   2.714 -0.7717 -1.7606  2.5297
  571MOL0     H78771   9.922   8.793   2.687  2.0953 -0.4364  0.9922
  571MOL0     H78772  10.098   8.965   2.499  0.6637  0.4501  2.2507
  571MOL0     H78773  10.019   8.808   2.457 -3.9897  0.0645  1.6022
  571MOL0     H78774  10.152   8.686   2.582 -1.9576  1.2982 -2.5774
  571MOL0     H78775  10.188   8.805   2.702 -0.1426  0.7317  0.8246
  571MOL0     H78776  10.395   8.827   2.576 -1.0121  1.3482  0.8691
  571MOL0     H78777  10.307   8.936   2.480  2.8431  0.2307 -0.1565
  571MOL0     H78778   9.176   9.023   2.769 -0.0540 -0.4161  1.6941
  571MOL0     H78779   8.981   9.128   2.886  0.7678 -1.3727  0.3825
  571MOL0     H78780   8.583   9.321   2.906  0.0537 -3.2349  1.5473
  571MOL0     H78781   8.398   9.383   3.050 -0.2180 -0.7479  2.1302
  571MOL0     H78782   7.158  10.104   4.246  1.0050 -0.9008 -1.4610
  571MOL0     H78783   7.182  10.185   4.479 -0.6862 -1.0750  0.2264
  571MOL0     H78784   7.306  10.471   4.785 -1.5397  1.1190 -0.1632
  571MOL0     H78785   7.240  10.551   5.013 -1.7366  0.3912 -0.2208
  571MOL0     H78786   6.921  10.319   5.164 -1.4502 -0.3739  1.3890
  571MOL0     H78787   7.019  10.268   5.296  0.1361 -0.1536  0.3044
  571MOL0     H78788   6.818  10.385   5.383 -0.6460 -0.2075 -2.7563
  571MOL0     H78789   6.882  10.534   5.306  0.9852  0.1703 -1.6920
  571MOL0     H78790   7.046  10.369   5.502  1.3577  0.8445  1.2050
  571MOL0     H78791   7.085  10.529   5.446  2.3115 -1.8403 -0.1066
  571MOL0     H78792   6.856  10.448   5.624  1.2384 -0.6526 -0.5501
  571MOL0     H78793   6.885  10.622   5.575  1.0992  1.3037  1.2781
  571MOL0     H78794   7.166  10.609   5.875 -1.8794 -4.4128  3.5536
  571MOL0     H78795   7.090  10.160   5.097  0.2301 -1.5767 -2.1011
  571MOL0     H78796   7.095   9.988   4.972  2.0230 -0.3685  2.2256
  571MOL0     H78797   7.099  10.009   4.801 -0.1324 -2.2242 -0.1803
  571MOL0     H78798   7.247   9.968   4.870  1.1308  1.2568  0.5503
  572MOL0     O78799  11.413   7.448   3.810 -0.5966 -0.3920  0.5035
  572MOL0     C78800  11.467   7.557   3.847 -0.4197  0.0952 -0.4235
  572MOL0     O78801  11.594   7.599   3.814 -0.7896 -0.5396 -0.2801
  572MOL0     C78802  11.645   7.554   3.691 -0.1130 -0.8007  0.8467
  572MOL0     C78803  11.714   7.443   3.670  1.0525 -0.2302 -0.7808
  572MOL0     C78804  11.773   7.407   3.550 -0.1522 -0.4124  0.6319
  572MOL0     C78805  11.755   7.487   3.440 -0.9330 -0.0783  0.2923
  572MOL0     O78806  11.820   7.456   3.326 -0.2949  0.0606  0.1020
  572MOL0     C78807  11.902   7.555   3.259 -0.6544 -0.5553 -0.0721
  572MOL0     C78808  12.002   7.489   3.165  0.4374 -0.1479 -0.0608
  572MOL0     C78809  12.131   7.431   3.234  0.3756 -0.2441  0.4012
  572MOL0     C78810  12.091   7.306   3.317  0.3392  0.4819 -0.3827
  572MOL0     C78811  12.052   7.187   3.232  0.3326  0.2517 -0.2158
  572MOL0     C78812  12.162   7.130   3.136  0.0175  0.1799 -0.0060
  572MOL0     C78813  12.114   7.009   3.065  0.1377  0.0343 -0.4269
  572MOL0     C78814  12.199   6.958   2.952 -0.0642  0.0836  0.5015
  572MOL0     N78815  12.140   6.837   2.896  0.7751  0.4093 -0.8296
  572MOL0     C78816  12.036   6.836   2.808  0.2625 -0.4825  0.1495
  572MOL0     C78817  12.006   6.712   2.782 -0.3178  0.1602 -0.6807
  572MOL0     C78818  11.898   6.644   2.692  0.6829  0.0294 -0.4218
  572MOL0     C78819  11.896   6.491   2.676 -0.2654 -0.4213  0.6283
  572MOL0     C78820  12.023   6.449   2.594  0.8419  0.4423  0.1363
  572MOL0     C78821  12.060   6.305   2.626  0.1763  0.5699  0.1148
  572MOL0     O78822  11.960   6.199   2.621  0.7103  0.2021  1.0000
  572MOL0     C78823  11.970   6.078   2.673 -0.4795 -1.1375  0.1484
  572MOL0     C78824  12.075   6.045   2.752  0.4666  0.1774 -0.7451
  572MOL0     C78825  12.090   5.912   2.799  0.5686  0.1227 -0.4110
  572MOL0     C78826  12.195   5.873   2.900 -0.0754 -0.0547  0.1089
  572MOL0     C78827  11.988   5.816   2.763 -0.3894  0.1243 -0.0774
  572MOL0     C78828  11.987   5.671   2.814 -0.2642 -1.1043  0.0661
  572MOL0     O78829  11.874   5.593   2.787  0.6030  0.9287  0.0822
  572MOL0     C78830  11.891   5.456   2.790 -0.9918 -0.8320  0.1161
  572MOL0     C78831  11.935   5.391   2.679 -0.4483 -0.5239 -0.0926
  572MOL0     C78832  11.962   5.257   2.684  0.4781 -0.5577  0.2660
  572MOL0     C78833  11.944   5.185   2.804 -0.0414 -0.2295 -0.4448
  572MOL0     O78834  11.975   5.049   2.802  0.3781  0.3022  0.2785
  572MOL0     C78835  11.993   4.977   2.930  0.2839  0.2234  0.5731
  572MOL0     C78836  12.126   5.031   2.997 -0.3858 -0.1305 -0.9235
  572MOL0     C78837  12.155   4.944   3.129 -0.1768 -0.7287 -0.0700
  572MOL0     C78838  12.043   4.948   3.231  0.4346 -0.3366  0.2220
  572MOL0     C78839  12.079   4.870   3.355 -0.1054  0.2595  0.0727
  572MOL0     C78840  11.957   4.839   3.436  0.6332 -0.6623  0.2288
  572MOL0     C78841  11.887   4.717   3.386 -0.0981  0.4378 -0.1941
  572MOL0     C78842  11.814   4.637   3.493 -0.5810  0.0049 -0.0176
  572MOL0    Cl78843  11.679   4.725   3.584 -0.1972  0.1864 -0.1707
  572MOL0     C78844  11.891   5.249   2.912 -0.2572 -0.5073 -0.5530
  572MOL0     C78845  11.865   5.385   2.906  0.6588 -0.0780  0.1122
  572MOL0     O78846  12.089   5.624   2.860  0.3332  0.5201 -0.0189
  572MOL0     C78847  11.884   5.851   2.681 -0.3184 -0.0859 -0.2086
  572MOL0     C78848  11.872   5.991   2.645  0.0439  0.3487 -0.0170
  572MOL0     N78849  12.093   6.635   2.862  0.6070 -0.0916  0.5067
  572MOL0     N78850  12.166   6.706   2.930 -0.6422  0.1412 -0.4868
  572MOL0     C78851  11.672   7.599   3.456 -0.7969 -0.2261  1.0352
  572MOL0     C78852  11.616   7.639   3.582  0.1180 -0.5004  0.1163
  572MOL0     C78853  11.407   7.638   3.953 -0.4231  0.8524  0.0466
  572MOL0     C78854  11.487   7.648   4.069 -0.8926  0.6495 -0.1674
  572MOL0     C78855  11.445   7.719   4.180 -0.5987  0.3774  0.7538
  572MOL0     C78856  11.314   7.770   4.182  1.1244  0.2090  0.0931
  572MOL0     O78857  11.278   7.849   4.289  0.7799  0.0653 -0.8817
  572MOL0     C78858  11.262   7.987   4.260  0.2648  0.2128  0.1201
  572MOL0     C78859  11.172   8.061   4.359 -0.3815 -0.3041  0.6618
  572MOL0     C78860  11.197   8.211   4.354  0.2016  0.4663 -0.3747
  572MOL0     C78861  11.105   8.290   4.454 -0.0185 -0.5809  0.1252
  572MOL0     C78862  11.131   8.260   4.593 -0.3368 -0.1440 -0.1423
  572MOL0     C78863  11.164   8.228   4.710  0.8441  1.0061 -0.2954
  572MOL0     C78864  11.240   7.767   4.061  1.0037  0.2312  0.0636
  572MOL0     C78865  11.294   7.708   3.943  0.6633 -0.1763  0.1536
  572MOL0     C78866  11.204   7.707   3.815  0.8307  0.0593  0.0549
  572MOL0     H78867  11.710   7.371   3.751  2.5235  3.0766  2.5324
  572MOL0     H78868  11.829   7.315   3.539 -1.7919 -1.6453  2.1116
  572MOL0     H78869  11.959   7.614   3.331 -0.4859 -0.3229 -0.4001
  572MOL0     H78870  11.842   7.617   3.193  0.3257 -2.0398 -2.4757
  572MOL0     H78871  11.954   7.414   3.102 -2.2884  2.5932 -1.5653
  572MOL0     H78872  12.023   7.569   3.094  1.5853  1.1537  1.6522
  572MOL0     H78873  12.211   7.405   3.164 -0.4240 -0.2618 -0.5135
  572MOL0     H78874  12.173   7.507   3.301  0.6344 -1.1078  1.2548
  572MOL0     H78875  12.173   7.269   3.380 -1.6918 -1.0107  1.5618
  572MOL0     H78876  12.005   7.320   3.384  0.2783 -1.8160  0.1248
  572MOL0     H78877  11.959   7.206   3.178 -0.5075 -4.2615 -0.7524
  572MOL0     H78878  12.032   7.104   3.300 -1.7992 -2.0191 -3.3370
  572MOL0     H78879  12.195   7.204   3.062  1.6476 -0.4002  0.0968
  572MOL0     H78880  12.250   7.102   3.196 -0.3856  1.8074  1.4328
  572MOL0     H78881  12.009   7.017   3.038 -0.4416 -3.4071  0.2918
  572MOL0     H78882  12.111   6.924   3.134 -1.4711  0.1126 -0.3734
  572MOL0     H78883  12.201   7.036   2.875  1.4632  0.1864  0.6308
  572MOL0     H78884  12.297   6.920   2.979 -0.2622 -1.0131 -0.2865
  572MOL0     H78885  11.977   6.919   2.770  1.3193  0.0377 -0.4068
  572MOL0     H78886  11.901   6.682   2.590  0.4506  1.1968 -0.0062
  572MOL0     H78887  11.801   6.655   2.742  1.9507 -2.3248  3.0109
  572MOL0     H78888  11.896   6.441   2.773  1.0884  2.1709  2.0584
  572MOL0     H78889  11.804   6.458   2.626 -0.2400 -1.3787  1.1734
  572MOL0     H78890  12.005   6.461   2.486  0.0666 -2.0889 -0.0719
  572MOL0     H78891  12.108   6.511   2.624  0.1097  2.4574 -1.6670
  572MOL0     H78892  12.137   6.265   2.559 -0.3156 -1.1452  0.5145
  572MOL0     H78893  12.108   6.307   2.724 -0.4004  1.9033  0.3861
  572MOL0     H78894  12.154   6.111   2.786 -2.6079  2.7515  2.0035
  572MOL0     H78895  12.241   5.963   2.943  1.7161 -1.2904  0.9166
  572MOL0     H78896  12.281   5.828   2.849 -2.0560 -0.7334 -2.8710
  572MOL0     H78897  12.162   5.817   2.988  0.9561 -0.0406  0.5249
  572MOL0     H78898  11.959   5.448   2.590 -2.6007  0.0879 -0.3257
  572MOL0     H78899  12.001   5.203   2.599  2.3287  0.6820  0.2739
  572MOL0     H78900  11.912   5.005   2.998 -0.6445  1.4717 -0.9612
  572MOL0     H78901  11.997   4.871   2.905 -2.5507  0.3331 -0.7472
  572MOL0     H78902  12.201   5.020   2.919 -1.9552 -0.1909 -2.4738
  572MOL0     H78903  12.117   5.136   3.030  0.6236  0.6002 -2.8361
  572MOL0     H78904  12.254   4.969   3.167  0.6526  1.2441 -3.1178
  572MOL0     H78905  12.167   4.838   3.107  0.9635 -0.7752  0.7190
  572MOL0     H78906  11.952   4.903   3.190  0.5862 -0.5431  0.1128
  572MOL0     H78907  12.015   5.051   3.257  1.6587  0.1374 -0.2439
  572MOL0     H78908  12.132   4.777   3.332 -2.5496 -0.7657 -1.8792
  572MOL0     H78909  12.158   4.921   3.411 -1.4808  0.8464  1.5360
  572MOL0     H78910  11.886   4.922   3.446  1.7782  0.4859 -0.9005
  572MOL0     H78911  11.994   4.835   3.539 -1.7272  0.2076  1.1831
  572MOL0     H78912  11.955   4.649   3.333 -0.0109  0.4863 -0.1462
  572MOL0     H78913  11.830   4.738   3.296  0.0149  1.6476 -0.0022
  572MOL0     H78914  11.885   4.595   3.565 -2.3636 -1.1242  1.1713
  572MOL0     H78915  11.769   4.549   3.446  0.8004 -1.4861  1.3680
  572MOL0     H78916  11.866   5.200   3.005  0.8216  0.8179  0.4711
  572MOL0     H78917  11.837   5.446   2.992 -0.1745 -1.3869  0.8126
  572MOL0     H78918  11.807   5.782   2.648 -2.2529  1.8370 -0.0131
  572MOL0     H78919  11.785   6.015   2.585  0.2777  0.1211 -0.4549
  572MOL0     H78920  11.649   7.661   3.370 -1.0374 -0.9837  0.5399
  572MOL0     H78921  11.550   7.725   3.586 -0.2272 -0.5898 -2.1175
  572MOL0     H78922  11.581   7.593   4.076 -0.5592  1.1240 -0.8599
  572MOL0     H78923  11.515   7.724   4.263  0.5925  2.5764 -0.2816
  572MOL0     H78924  11.363   8.030   4.256  0.4239 -0.2311 -1.0382
  572MOL0     H78925  11.205   7.992   4.167 -3.9494 -3.1697  2.1791
  572MOL0     H78926  11.192   8.029   4.462  2.3347  1.2032  0.6985
  572MOL0     H78927  11.067   8.060   4.330 -0.4892 -1.0800  1.0571
  572MOL0     H78928  11.299   8.232   4.388 -0.1601  1.1532  0.3140
  572MOL0     H78929  11.188   8.257   4.255 -3.1072 -3.2518 -2.1118
  572MOL0     H78930  11.006   8.258   4.420  1.2087 -3.5788 -0.9814
  572MOL0     H78931  11.123   8.397   4.443  0.2679 -0.3767  2.2215
  572MOL0     H78932  11.195   8.218   4.812 -0.7041  1.4413  0.2525
  572MOL0     H78933  11.141   7.812   4.053 -0.4247 -2.8024 -0.9026
  572MOL0     H78934  11.264   7.711   3.723 -2.1141  2.7090 -1.9371
  572MOL0     H78935  11.153   7.612   3.832 -0.8821  0.9618  0.1309
  572MOL0     H78936  11.132   7.788   3.819  1.7540  0.9097 -0.0740
  573MOL0     O78937   8.300   6.887   9.556  0.2266  0.2683 -0.6129
  573MOL0     C78938   8.254   6.967   9.470  0.5614  0.8761 -0.8792
  573MOL0     O78939   8.324   7.003   9.360  0.3612  0.1186 -0.3022
  573MOL0     C78940   8.449   6.945   9.350  0.1698  0.2735 -0.2408
  573MOL0     C78941   8.563   7.022   9.369  0.8027 -0.3950 -0.7301
  573MOL0     C78942   8.693   6.971   9.354  0.0157  0.0696  0.4045
  573MOL0     C78943   8.707   6.834   9.326 -0.3288 -0.2196 -0.3425
  573MOL0     O78944   8.833   6.773   9.344  0.2340 -0.3213 -0.3517
  573MOL0     C78945   8.844   6.630   9.328  0.0152  0.3200 -0.2094
  573MOL0     C78946   8.990   6.587   9.350  0.1477 -0.2977  0.2649
  573MOL0     C78947   9.014   6.587   9.502 -0.1402 -0.2842  1.4971
  573MOL0     C78948   9.160   6.539   9.528  0.7664  0.0560  0.4654
  573MOL0     C78949   9.188   6.389   9.480  0.3468  0.1598  0.2027
  573MOL0     C78950   9.324   6.329   9.533 -0.5941 -0.5041 -0.0331
  573MOL0     C78951   9.339   6.186   9.494 -0.6374  0.0231  0.3652
  573MOL0     C78952   9.453   6.114   9.568  0.1337 -0.8893  0.4822
  573MOL0     N78953   9.446   5.976   9.553 -0.0893  0.0057 -0.5297
  573MOL0     C78954   9.490   5.918   9.444  0.0580  0.1492  0.2243
  573MOL0     C78955   9.486   5.782   9.473  0.1655  0.4501  0.4260
  573MOL0     C78956   9.479   5.684   9.350  0.8206  0.0316  0.1666
  573MOL0     C78957   9.501   5.537   9.390  0.2444  0.2256  0.1591
  573MOL0     C78958   9.648   5.506   9.388 -0.0704  0.7499  0.8282
  573MOL0     C78959   9.672   5.355   9.416 -0.4071 -0.9135 -0.0495
  573MOL0     O78960   9.789   5.307   9.350  0.0475  0.4847  0.4681
  573MOL0     C78961   9.824   5.178   9.382  0.1157 -0.8397 -0.4682
  573MOL0     C78962   9.922   5.127   9.295  0.1305  0.7787 -0.4439
  573MOL0     C78963   9.972   4.992   9.299 -0.2165 -0.2365 -0.8427
  573MOL0     C78964  10.090   4.953   9.220 -0.7567 -0.6596 -0.6453
  573MOL0     C78965   9.917   4.908   9.403  0.9369  0.8110  0.2215
  573MOL0     C78966   9.963   4.759   9.419  0.8890 -0.3624 -0.7135
  573MOL0     O78967   9.932   4.720   9.547 -0.3684  0.2325  0.1807
  573MOL0     C78968   9.964   4.595   9.591  0.5519 -1.1359 -0.2090
  573MOL0     C78969   9.915   4.479   9.524 -1.0700 -0.8281  0.2707
  573MOL0     C78970   9.936   4.354   9.580 -0.0943 -0.1585  0.6281
  573MOL0     C78971  10.009   4.344   9.698 -0.2020  0.7874  0.8909
  573MOL0     O78972  10.021   4.223   9.760 -0.3662 -0.0421  0.0757
  573MOL0     C78973   9.907   4.134   9.745  0.0046  1.0287  0.7458
  573MOL0     C78974   9.893   4.034   9.855  1.0035 -0.2293  0.5743
  573MOL0     C78975  10.004   3.935   9.878  0.0391  0.6993  1.0161
  573MOL0     C78976  10.010   3.907  10.030  0.1667 -1.1921 -0.7776
  573MOL0     C78977   9.907   3.802  10.078  0.0006  0.1727  0.3640
  573MOL0     C78978   9.924   3.775  10.227 -0.2201 -0.2034  0.5836
  573MOL0     C78979   9.803   3.754  10.310  1.5504  0.5483  0.5616
  573MOL0     C78980   9.739   3.619  10.284 -0.3994  0.5757  0.1549
  573MOL0    Cl78981   9.643   3.637  10.138  0.5594  0.4021 -0.1577
  573MOL0     C78982  10.053   4.460   9.762  0.0573 -0.3484  0.3098
  573MOL0     C78983  10.038   4.583   9.705  0.5204 -0.1202  0.0498
  573MOL0     O78984  10.032   4.695   9.341 -0.2340  0.6060  0.8699
  573MOL0     C78985   9.816   4.962   9.489 -0.1332 -0.5297  0.1640
  573MOL0     C78986   9.774   5.092   9.480 -0.0038 -0.6907 -0.0477
  573MOL0     N78987   9.453   5.763   9.602 -0.7458 -0.0348  0.6868
  573MOL0     N78988   9.423   5.879   9.652  0.4298  0.1003 -0.3432
  573MOL0     C78989   8.591   6.758   9.302  0.2657 -0.3556 -0.0460
  573MOL0     C78990   8.465   6.813   9.317 -0.0126  0.1629  0.6974
  573MOL0     C78991   8.123   7.028   9.491  0.5220  0.6035 -0.3031
  573MOL0     C78992   8.119   7.168   9.499  0.8103  1.0620 -0.8712
  573MOL0     C78993   8.003   7.243   9.516 -0.5666  0.2494 -0.6726
  573MOL0     C78994   7.885   7.179   9.540 -0.5284  0.5621 -0.1724
  573MOL0     O78995   7.773   7.261   9.551  0.2780  0.2707 -0.0061
  573MOL0     C78996   7.649   7.191   9.574 -0.0677 -0.0835  0.2938
  573MOL0     C78997   7.526   7.290   9.578 -1.1217  0.2044  0.3121
  573MOL0     C78998   7.504   7.390   9.457 -0.4855  0.3246 -0.1418
  573MOL0     C78999   7.394   7.486   9.480 -0.0335 -0.1857 -0.7280
  573MOL0     C79000   7.260   7.425   9.478 -0.6848 -0.3486 -0.1537
  573MOL0     C79001   7.159   7.359   9.482 -0.5747 -0.0573 -0.2501
  573MOL0     C79002   7.884   7.036   9.528  0.8680 -0.2923 -0.2592
  573MOL0     C79003   8.001   6.962   9.524 -0.7604  0.7678 -0.6717
  573MOL0     C79004   7.987   6.807   9.548 -1.3958 -0.1072  0.5617
  573MOL0     H79005   8.550   7.129   9.379  0.5229 -0.3659 -1.3503
  573MOL0     H79006   8.773   7.040   9.379  0.4742 -0.5680  0.7300
  573MOL0     H79007   8.808   6.608   9.227  2.2296  3.9708 -2.0251
  573MOL0     H79008   8.782   6.571   9.395  0.7019 -2.0928 -1.5896
  573MOL0     H79009   9.009   6.494   9.294 -0.3065 -0.3843  0.2501
  573MOL0     H79010   9.052   6.661   9.298 -1.1166  1.8673  1.7031
  573MOL0     H79011   8.981   6.684   9.543 -3.5372 -0.5541 -0.2040
  573MOL0     H79012   8.945   6.514   9.545 -1.6290 -1.1380 -2.0139
  573MOL0     H79013   9.234   6.595   9.470 -0.6634  0.1874 -1.3550
  573MOL0     H79014   9.190   6.552   9.632  0.2120  0.5150  0.5771
  573MOL0     H79015   9.178   6.388   9.371 -0.0862  4.1766  0.0429
  573MOL0     H79016   9.106   6.324   9.511  1.1553 -0.8112  0.3312
  573MOL0     H79017   9.413   6.383   9.500 -1.6917  3.3653  2.7079
  573MOL0     H79018   9.322   6.331   9.642  1.8471 -1.0120  0.0722
  573MOL0     H79019   9.358   6.177   9.387 -0.7167  1.6475  0.2026
  573MOL0     H79020   9.244   6.131   9.500  0.6898 -2.4638 -0.1647
  573MOL0     H79021   9.550   6.158   9.541 -0.4905 -1.5798 -3.4465
  573MOL0     H79022   9.455   6.124   9.677  0.8276 -3.0221  0.7182
  573MOL0     H79023   9.504   5.959   9.344 -1.0566  0.2978  0.1159
  573MOL0     H79024   9.539   5.721   9.266 -1.5998  3.5943 -0.2156
  573MOL0     H79025   9.378   5.689   9.310  0.4500  3.7124  1.1783
  573MOL0     H79026   9.457   5.527   9.489 -0.7126 -0.5422 -0.3270
  573MOL0     H79027   9.458   5.468   9.317 -0.1585 -3.0922  3.2371
  573MOL0     H79028   9.695   5.536   9.294 -0.6672 -1.9589 -0.4330
  573MOL0     H79029   9.698   5.548   9.476  1.8360  1.0602 -0.3462
  573MOL0     H79030   9.669   5.341   9.524 -2.4748  2.2584  0.4449
  573MOL0     H79031   9.593   5.298   9.366 -0.7950 -1.6593  1.3796
  573MOL0     H79032   9.960   5.198   9.223  0.9826  0.5498 -0.2341
  573MOL0     H79033  10.168   4.929   9.293 -1.5801  2.8385  1.5957
  573MOL0     H79034  10.127   5.040   9.165 -0.0084 -0.8487 -0.4464
  573MOL0     H79035  10.068   4.872   9.150 -0.3853 -1.5806  0.2755
  573MOL0     H79036   9.855   4.471   9.434  0.1504  0.2505 -0.6862
  573MOL0     H79037   9.891   4.275   9.521  2.5854  1.1756 -3.6322
  573MOL0     H79038   9.818   4.197   9.743  1.0930  2.5940 -0.0867
  573MOL0     H79039   9.928   4.087   9.649 -0.9008  1.9088  0.0953
  573MOL0     H79040   9.881   4.086   9.950  0.6252  1.7744 -0.5058
  573MOL0     H79041   9.801   3.980   9.830  0.0636  0.3430  2.6300
  573MOL0     H79042  10.095   3.987   9.847 -1.2782  2.3020 -0.3290
  573MOL0     H79043   9.991   3.846   9.816 -0.9106  0.2254  1.8658
  573MOL0     H79044  10.016   4.000  10.087  0.9457 -1.0885 -1.0179
  573MOL0     H79045  10.112   3.867  10.032  1.6215  2.2465  0.1523
  573MOL0     H79046   9.806   3.839  10.062 -0.5179 -1.0606  0.6781
  573MOL0     H79047   9.915   3.709  10.020  1.2473  0.6079 -0.2011
  573MOL0     H79048   9.970   3.862  10.275 -0.3700  0.8556 -1.1122
  573MOL0     H79049  10.000   3.697  10.241  0.8928  0.6528 -0.4393
  573MOL0     H79050   9.733   3.836  10.293  0.6914 -0.1951  0.4493
  573MOL0     H79051   9.832   3.749  10.416  2.8861 -3.8125  0.1738
  573MOL0     H79052   9.680   3.594  10.373  1.2363  1.0034  1.4031
  573MOL0     H79053   9.816   3.542  10.275 -0.6838  0.1847  0.9630
  573MOL0     H79054  10.093   4.451   9.862 -2.1359 -0.9284  1.1888
  573MOL0     H79055  10.080   4.675   9.744  0.8304  0.6998 -2.1126
  573MOL0     H79056   9.751   4.908   9.557  1.0994 -1.0040  0.9937
  573MOL0     H79057   9.688   5.133   9.532  1.0682  0.4931  0.8488
  573MOL0     H79058   8.593   6.651   9.286  0.1895 -0.7080  2.0552
  573MOL0     H79059   8.372   6.761   9.298 -1.2671  3.3251 -3.6214
  573MOL0     H79060   8.209   7.225   9.476  0.0473  2.1530 -1.2714
  573MOL0     H79061   8.008   7.348   9.490 -1.5801  0.2494 -0.9072
  573MOL0     H79062   7.625   7.122   9.491  1.8005  0.0340 -0.3826
  573MOL0     H79063   7.661   7.126   9.661  2.9161 -2.7174 -1.8564
  573MOL0     H79064   7.539   7.355   9.665  0.6447  1.1028 -0.5825
  573MOL0     H79065   7.443   7.221   9.598 -0.2767 -1.1597 -0.7492
  573MOL0     H79066   7.592   7.452   9.435 -0.2138 -0.9113 -3.0079
  573MOL0     H79067   7.465   7.349   9.364 -2.0030 -0.2949  0.7376
  573MOL0     H79068   7.403   7.553   9.393 -0.0769  0.7619 -0.0160
  573MOL0     H79069   7.413   7.540   9.573  2.1583  0.6918 -1.6087
  573MOL0     H79070   7.078   7.289   9.491 -1.3333  1.0238  2.5257
  573MOL0     H79071   7.792   6.978   9.531  2.0999 -2.6675 -3.1435
  573MOL0     H79072   7.923   6.798   9.636 -0.4240  0.2816  1.3166
  573MOL0     H79073   7.945   6.753   9.462  0.0495 -2.1865  1.0896
  573MOL0     H79074   8.079   6.753   9.570 -0.9196  0.5589  0.2319
  574MOL0     O79075   3.387   9.664   2.716 -0.1095  0.0957 -0.1776
  574MOL0     C79076   3.367   9.617   2.606  0.6001 -0.3425  0.4242
  574MOL0     O79077   3.439   9.652   2.492  0.4510  0.0490 -0.2729
  574MOL0     C79078   3.552   9.724   2.497 -0.6791  0.3421 -0.3370
  574MOL0     C79079   3.533   9.858   2.516  1.1507 -0.0907 -0.9984
  574MOL0     C79080   3.639   9.949   2.539 -0.3808 -0.4947 -0.1812
  574MOL0     C79081   3.773   9.906   2.540  0.0691  0.5600 -0.3746
  574MOL0     O79082   3.877  10.003   2.552 -0.5842  0.1994 -0.4012
  574MOL0     C79083   4.009   9.960   2.535 -0.0023 -0.3353 -0.2456
  574MOL0     C79084   4.095  10.095   2.537 -0.0201 -0.0135 -0.9127
  574MOL0     C79085   4.249  10.061   2.500  0.0937 -0.4491  0.9616
  574MOL0     C79086   4.271  10.021   2.347  0.6205 -0.8760 -0.8693
  574MOL0     C79087   4.419   9.992   2.304  0.1047  0.3799  0.1813
  574MOL0     C79088   4.498  10.118   2.311  0.3002 -0.1066 -1.1353
  574MOL0     C79089   4.643  10.086   2.293 -0.1450 -0.1950  0.9362
  574MOL0     C79090   4.728  10.213   2.301  0.9557 -0.4937 -0.8561
  574MOL0     N79091   4.700  10.295   2.428 -0.1426 -0.3465  0.2573
  574MOL0     C79092   4.690  10.257   2.550  0.4421  0.1533 -0.6188
  574MOL0     C79093   4.663  10.370   2.620  0.3832  0.5451 -0.2985
  574MOL0     C79094   4.651  10.367   2.769 -1.1910 -0.1018  0.2005
  574MOL0     C79095   4.509  10.366   2.828  0.1700 -0.3609  0.7834
  574MOL0     C79096   4.497  10.409   2.971  0.0684  0.6363  0.3763
  574MOL0     C79097   4.556  10.321   3.078 -0.3613  0.1508 -0.2450
  574MOL0     O79098   4.482  10.198   3.092 -0.0099 -0.3380  0.0354
  574MOL0     C79099   4.535  10.111   3.178 -1.0325  0.8329 -1.3521
  574MOL0     C79100   4.470  10.084   3.300  0.7816  0.0842 -0.0696
  574MOL0     C79101   4.532   9.992   3.392  1.8071 -0.9804  0.4616
  574MOL0     C79102   4.447   9.962   3.515  1.1556  0.5505  0.5505
  574MOL0     C79103   4.662   9.940   3.373 -1.2496 -0.6344 -0.0127
  574MOL0     C79104   4.741   9.849   3.461 -0.7425  0.3904 -1.1467
  574MOL0     O79105   4.854   9.792   3.413 -0.5306 -0.1571  0.2687
  574MOL0     C79106   4.949   9.726   3.495  0.3427 -0.3691  0.1639
  574MOL0     C79107   5.027   9.636   3.428 -0.1181 -0.1630 -0.2687
  574MOL0     C79108   5.118   9.555   3.495  0.8605  0.2191 -0.5061
  574MOL0     C79109   5.141   9.562   3.635 -0.4409 -0.0135  0.3509
  574MOL0     O79110   5.228   9.466   3.684  0.9427 -0.1528 -0.0062
  574MOL0     C79111   5.288   9.499   3.813  1.0366 -0.4169 -0.6729
  574MOL0     C79112   5.397   9.392   3.855  0.8164 -0.4763 -1.3268
  574MOL0     C79113   5.339   9.259   3.888  0.6706  0.4003  0.7833
  574MOL0     C79114   5.449   9.169   3.947  0.0819 -1.0918  0.1549
  574MOL0     C79115   5.408   9.027   3.967  0.4681 -0.6502 -0.1272
  574MOL0     C79116   5.342   8.944   3.852 -1.1248 -0.0966  0.6837
  574MOL0     C79117   5.325   8.806   3.899 -0.5905  0.2664 -1.0610
  574MOL0     C79118   5.264   8.701   3.805  0.3065 -0.2532 -1.1924
  574MOL0    Cl79119   5.087   8.715   3.785  0.4475 -0.2078 -0.0831
  574MOL0     C79120   5.059   9.657   3.709  0.3312  0.2241 -0.2306
  574MOL0     C79121   4.962   9.727   3.637 -0.1505  1.4621 -0.7489
  574MOL0     O79122   4.704   9.841   3.576  0.0185  0.3841  0.5599
  574MOL0     C79123   4.726   9.968   3.245  0.2244 -0.0177 -1.2443
  574MOL0     C79124   4.670  10.056   3.152  1.0332 -0.7973 -0.6260
  574MOL0     N79125   4.654  10.479   2.537 -0.1011 -0.1744 -0.3415
  574MOL0     N79126   4.680  10.431   2.420 -0.1851 -0.0981 -0.5970
  574MOL0     C79127   3.795   9.761   2.520  1.1846  0.0332  0.4914
  574MOL0     C79128   3.689   9.672   2.500 -0.5773 -0.2343  0.0787
  574MOL0     C79129   3.248   9.529   2.591  0.9756 -0.0653  0.9099
  574MOL0     C79130   3.162   9.512   2.702 -0.5622  1.0842  0.3844
  574MOL0     C79131   3.029   9.463   2.687  0.4733  0.3718 -0.0895
  574MOL0     C79132   2.982   9.410   2.567 -0.4919 -0.2564  0.2248
  574MOL0     O79133   2.858   9.370   2.543  0.1638 -0.2091  0.2430
  574MOL0     C79134   2.766   9.469   2.595  0.4677  0.0132 -0.2848
  574MOL0     C79135   2.620   9.438   2.549 -0.5017 -0.7296  0.5144
  574MOL0     C79136   2.594   9.431   2.393  0.3768 -0.5402  1.2802
  574MOL0     C79137   2.446   9.387   2.374 -1.1034 -0.1176 -0.4167
  574MOL0     C79138   2.419   9.289   2.266 -0.3912  0.1470 -1.0723
  574MOL0     C79139   2.383   9.206   2.189  0.7547 -1.0664  0.3287
  574MOL0     C79140   3.066   9.421   2.456 -0.2995 -0.7058  0.3271
  574MOL0     C79141   3.195   9.472   2.466 -0.7355 -0.6630  0.1652
  574MOL0     C79142   3.277   9.466   2.336 -0.0661 -0.3706 -0.8013
  574MOL0     H79143   3.429   9.889   2.513 -0.2820 -4.0372  0.6383
  574MOL0     H79144   3.626  10.055   2.559  2.5979  0.5117 -2.6691
  574MOL0     H79145   4.025   9.903   2.443 -2.3068 -0.4873 -0.6093
  574MOL0     H79146   4.026   9.896   2.622 -2.7948  2.3109  2.5022
  574MOL0     H79147   4.050  10.174   2.476 -0.5016 -0.0676 -0.6389
  574MOL0     H79148   4.082  10.144   2.634  0.2455  1.9269 -1.8123
  574MOL0     H79149   4.326  10.139   2.507  4.4498 -3.7258 -3.1625
  574MOL0     H79150   4.286   9.980   2.564 -1.9163 -1.0993  1.3613
  574MOL0     H79151   4.223   9.923   2.340 -1.9225  0.2611 -0.5973
  574MOL0     H79152   4.226  10.092   2.276  0.7616  1.1493  0.9518
  574MOL0     H79153   4.424   9.954   2.201 -2.9426 -0.6574  0.3304
  574MOL0     H79154   4.461   9.910   2.362 -2.9219 -1.6737 -0.3399
  574MOL0     H79155   4.474  10.199   2.241 -2.7028  0.2028  0.0846
  574MOL0     H79156   4.498  10.163   2.411 -1.3017  1.0328 -1.6171
  574MOL0     H79157   4.661  10.060   2.189  1.1657  1.2470  0.7697
  574MOL0     H79158   4.680  10.003   2.353  0.1902  0.1700  1.2450
  574MOL0     H79159   4.835  10.191   2.310  1.3379  1.5941  6.5627
  574MOL0     H79160   4.707  10.268   2.209 -3.6558 -3.7078 -2.0501
  574MOL0     H79161   4.707  10.163   2.601  0.9736  1.6861  2.3274
  574MOL0     H79162   4.700  10.455   2.812 -1.2519 -0.2876  0.6528
  574MOL0     H79163   4.710  10.279   2.798  1.4744  1.5985  0.3190
  574MOL0     H79164   4.449  10.436   2.770 -1.0871 -2.0560 -0.0610
  574MOL0     H79165   4.462  10.268   2.815 -1.3320  0.1826  1.8434
  574MOL0     H79166   4.526  10.514   2.983 -0.5444  0.6508  1.9659
  574MOL0     H79167   4.388  10.409   2.984  0.2870 -0.1237  2.6292
  574MOL0     H79168   4.658  10.298   3.043 -0.4281 -0.1563 -0.2418
  574MOL0     H79169   4.563  10.371   3.175  1.2082 -0.7631  0.1606
  574MOL0     H79170   4.368  10.119   3.314  1.1948  1.1755  0.3327
  574MOL0     H79171   4.443   9.856   3.540  0.2389  0.1056 -1.2736
  574MOL0     H79172   4.350  10.008   3.492  1.1063  0.3074  0.2714
  574MOL0     H79173   4.496  10.013   3.599  4.7755 -0.7889 -0.5831
  574MOL0     H79174   5.031   9.623   3.320 -0.8888 -0.9149 -0.2233
  574MOL0     H79175   5.187   9.492   3.440 -0.5086 -1.5303 -0.3142
  574MOL0     H79176   5.325   9.601   3.797  1.8050 -0.7736 -1.1988
  574MOL0     H79177   5.203   9.498   3.882 -0.3817  0.8704 -2.2968
  574MOL0     H79178   5.467   9.376   3.771  2.2739 -1.9544  0.0909
  574MOL0     H79179   5.439   9.423   3.951 -4.2081 -1.3746  1.4854
  574MOL0     H79180   5.314   9.197   3.802  0.0599 -0.7817  1.7811
  574MOL0     H79181   5.254   9.270   3.955  2.4986  1.9594  3.0271
  574MOL0     H79182   5.480   9.205   4.046 -2.6721  2.4295 -0.0532
  574MOL0     H79183   5.537   9.174   3.883 -1.1154 -0.6783 -1.5237
  574MOL0     H79184   5.502   8.980   3.998  0.2515  0.3667  2.2878
  574MOL0     H79185   5.336   9.022   4.049 -1.4920  0.0357 -1.7354
  574MOL0     H79186   5.408   8.942   3.764 -1.0313  1.0327  0.7202
  574MOL0     H79187   5.246   8.985   3.819 -0.8560 -1.4290 -2.0210
  574MOL0     H79188   5.264   8.806   3.989 -0.4897  2.8347 -0.9061
  574MOL0     H79189   5.427   8.774   3.924  0.3695  3.1707 -0.7881
  574MOL0     H79190   5.277   8.601   3.846 -1.0710 -0.8184 -2.0459
  574MOL0     H79191   5.319   8.709   3.711  1.1785  0.9813 -0.6018
  574MOL0     H79192   5.055   9.681   3.815  1.5023  0.0628 -0.1323
  574MOL0     H79193   4.907   9.796   3.700  2.9359  1.7628  1.9044
  574MOL0     H79194   4.827   9.934   3.222  0.1570 -2.0101  1.0207
  574MOL0     H79195   4.710  10.073   3.052  0.3080  0.8969 -0.6663
  574MOL0     H79196   3.895   9.727   2.544  1.0209  0.5281  1.9517
  574MOL0     H79197   3.709   9.567   2.517 -0.8987 -0.0815  1.5743
  574MOL0     H79198   3.201   9.544   2.798  0.2548  0.2264  0.3591
  574MOL0     H79199   2.969   9.468   2.778 -0.8628  0.9447 -0.9576
  574MOL0     H79200   2.765   9.484   2.704  5.3897  0.6435 -0.1014
  574MOL0     H79201   2.790   9.564   2.546  1.3289  2.1554  3.8464
  574MOL0     H79202   2.559   9.520   2.587  1.2044  0.4010  0.9205
  574MOL0     H79203   2.583   9.342   2.588 -1.8787 -0.9727 -1.3060
  574MOL0     H79204   2.607   9.524   2.337  1.2977 -0.7563  1.1152
  574MOL0     H79205   2.651   9.346   2.354 -1.1473 -0.9736 -0.1017
  574MOL0     H79206   2.401   9.476   2.330 -0.8462 -0.4336 -1.3328
  574MOL0     H79207   2.402   9.357   2.470  0.1500 -1.6024 -0.2779
  574MOL0     H79208   2.348   9.146   2.108  0.6315  1.5364 -1.6475
  574MOL0     H79209   3.028   9.393   2.358  2.1780  0.4304 -1.0467
  574MOL0     H79210   3.295   9.563   2.289  1.0599  0.6299  1.5438
  574MOL0     H79211   3.377   9.426   2.352 -0.5001 -2.8220 -3.4271
  574MOL0     H79212   3.230   9.394   2.267 -0.8299 -1.9315  1.2521
  575MOL0     O79213   5.032  11.223   3.547 -0.1340  0.4766 -0.2142
  575MOL0     C79214   4.986  11.146   3.635 -0.2123 -0.6575  0.7226
  575MOL0     O79215   5.066  11.094   3.730  0.2805  0.4981 -0.0855
  575MOL0     C79216   5.189  11.132   3.756  0.4297  0.6741  0.0837
  575MOL0     C79217   5.221  11.255   3.817  0.4904  0.5964  0.2065
  575MOL0     C79218   5.349  11.288   3.837  0.0316 -0.1229  0.1678
  575MOL0     C79219   5.456  11.195   3.796 -0.3133  0.4714 -0.3871
  575MOL0     O79220   5.591  11.198   3.820  0.4917  1.0664  0.1401
  575MOL0     C79221   5.630  11.313   3.906 -0.0839  0.0382  0.1046
  575MOL0     C79222   5.779  11.330   3.896 -0.2694  0.1688  0.4124
  575MOL0     C79223   5.842  11.321   3.755  0.3520  0.3778 -0.1113
  575MOL0     C79224   5.890  11.180   3.714 -0.0584  0.1545 -0.9683
  575MOL0     C79225   5.952  11.160   3.574  0.2593 -0.7995  0.7934
  575MOL0     C79226   6.005  11.021   3.551  0.0459 -0.2601  0.0746
  575MOL0     C79227   6.027  10.996   3.401 -1.0437  0.3275  0.3431
  575MOL0     C79228   6.063  10.859   3.351 -0.7092 -0.2290  0.6553
  575MOL0     N79229   6.203  10.823   3.395  0.1521  0.3056 -0.0808
  575MOL0     C79230   6.239  10.696   3.444  0.6538 -0.8888 -0.6629
  575MOL0     C79231   6.357  10.673   3.393 -0.9071 -0.1918  0.6463
  575MOL0     C79232   6.423  10.541   3.400 -0.6988  0.4932  0.4795
  575MOL0     C79233   6.416  10.494   3.257 -0.2927  0.1984  0.0452
  575MOL0     C79234   6.453  10.339   3.237  0.1895  0.7176 -1.0043
  575MOL0     C79235   6.385  10.286   3.111  0.6586 -0.1663 -0.4691
  575MOL0     O79236   6.407  10.147   3.107  0.2881 -0.0726  0.2293
  575MOL0     C79237   6.340  10.071   3.197  0.6082 -0.3151  0.0137
  575MOL0     C79238   6.390   9.941   3.213  0.0476  0.5372  0.9777
  575MOL0     C79239   6.340   9.845   3.298 -0.4643 -0.6309  0.2040
  575MOL0     C79240   6.407   9.712   3.273  0.1454 -0.3049  0.2726
  575MOL0     C79241   6.231   9.879   3.377 -0.0709 -0.5761 -0.0838
  575MOL0     C79242   6.165   9.778   3.463 -0.7585 -0.0362 -0.1351
  575MOL0     O79243   6.226   9.665   3.512 -0.1109  0.1069 -0.2575
  575MOL0     C79244   6.156   9.593   3.614 -0.7227  0.2935  0.3900
  575MOL0     C79245   6.032   9.538   3.581  1.0258 -0.4532  0.0536
  575MOL0     C79246   5.959   9.467   3.679 -0.5602  0.3243  0.7288
  575MOL0     C79247   6.021   9.445   3.803  0.5814  1.1120 -0.2951
  575MOL0     O79248   5.939   9.370   3.887  0.0937 -0.1151 -0.0625
  575MOL0     C79249   5.979   9.376   4.021 -0.7097  0.0375 -0.2782
  575MOL0     C79250   5.870   9.311   4.118  0.7588  0.3044 -0.5435
  575MOL0     C79251   5.735   9.386   4.130 -0.0682  0.4716  0.1390
  575MOL0     C79252   5.644   9.329   4.240  0.5826 -0.2082 -0.9657
  575MOL0     C79253   5.690   9.373   4.382 -0.8824 -1.3215  0.5910
  575MOL0     C79254   5.615   9.304   4.493 -0.6291  0.3584 -0.2515
  575MOL0     C79255   5.663   9.368   4.619 -0.9036 -0.4540 -0.0150
  575MOL0     C79256   5.592   9.320   4.739 -0.3988  0.0268 -1.0163
  575MOL0    Cl79257   5.674   9.394   4.872 -0.1087 -0.0547  0.1155
  575MOL0     C79258   6.143   9.499   3.839 -0.8547 -0.4993 -0.3259
  575MOL0     C79259   6.211   9.572   3.739  0.6435  0.4457 -0.6532
  575MOL0     O79260   6.046   9.803   3.485  0.5035  0.0055  0.0298
  575MOL0     C79261   6.171  10.010   3.364  0.1573 -0.2164 -0.4133
  575MOL0     C79262   6.228  10.109   3.275  0.3781 -0.0264  0.5669
  575MOL0     N79263   6.405  10.779   3.319  0.4019 -0.5724  1.2378
  575MOL0     N79264   6.306  10.867   3.319 -0.6985 -0.5903 -0.0972
  575MOL0     C79265   5.417  11.069   3.750 -0.1653 -0.1206  0.3503
  575MOL0     C79266   5.286  11.035   3.734  1.1272 -0.5107  0.0644
  575MOL0     C79267   4.841  11.125   3.653 -0.3276  0.1491  0.2327
  575MOL0     C79268   4.795  11.059   3.763 -0.0382 -0.1079 -0.9572
  575MOL0     C79269   4.664  11.060   3.805 -0.6528  0.8952  0.3190
  575MOL0     C79270   4.564  11.115   3.725  0.5235 -0.0388  0.1930
  575MOL0     O79271   4.434  11.113   3.764  0.1253 -0.6832  0.1853
  575MOL0     C79272   4.377  11.230   3.821 -0.5197  1.2661 -0.6420
  575MOL0     C79273   4.278  11.303   3.742  0.0626 -0.5465  0.7998
  575MOL0     C79274   4.250  11.438   3.816  0.2241 -0.0834  0.1514
  575MOL0     C79275   4.138  11.514   3.736  0.0067 -1.2081  0.0320
  575MOL0     C79276   4.012  11.447   3.760 -0.2028 -0.0414  0.2015
  575MOL0     C79277   3.896  11.416   3.760 -0.0736 -0.3340  0.5455
  575MOL0     C79278   4.605  11.182   3.606  0.3109 -0.1548  0.0180
  575MOL0     C79279   4.737  11.184   3.570 -0.0597 -0.2807 -0.0689
  575MOL0     C79280   4.768  11.268   3.453 -0.0288  0.5087  0.3515
  575MOL0     H79281   5.138  11.319   3.845 -0.0331  0.4951 -1.0614
  575MOL0     H79282   5.376  11.377   3.892  2.9067 -0.7429 -0.1194
  575MOL0     H79283   5.603  11.282   4.008  1.2213 -2.7043 -0.3083
  575MOL0     H79284   5.582  11.408   3.880  4.3904  2.6442  0.4640
  575MOL0     H79285   5.796  11.429   3.938  0.5722  0.6530 -1.0103
  575MOL0     H79286   5.830  11.259   3.961  0.8822  0.6808  0.0976
  575MOL0     H79287   5.783  11.363   3.673  1.7279  0.8666 -0.8767
  575MOL0     H79288   5.930  11.385   3.757  0.1088  0.8232 -1.7035
  575MOL0     H79289   5.964  11.148   3.788 -2.2559  2.3419  2.4582
  575MOL0     H79290   5.807  11.110   3.720 -1.3991  1.8167  0.9099
  575MOL0     H79291   6.037  11.228   3.567 -0.6430  0.2318 -0.7701
  575MOL0     H79292   5.888  11.195   3.493  2.1829 -2.2449 -1.4535
  575MOL0     H79293   6.105  11.015   3.595  0.1020  4.9937  1.2339
  575MOL0     H79294   5.941  10.951   3.605 -1.1402  0.0911 -0.8388
  575MOL0     H79295   6.104  11.064   3.365 -1.9864  1.0163 -0.4395
  575MOL0     H79296   5.933  11.027   3.353  0.0276 -0.3040 -2.3232
  575MOL0     H79297   5.987  10.784   3.378  0.9457 -1.2957  2.6835
  575MOL0     H79298   6.055  10.853   3.242  1.2372 -0.8264  0.5005
  575MOL0     H79299   6.174  10.639   3.510 -1.5276  0.8221 -1.2227
  575MOL0     H79300   6.367  10.475   3.468  0.3511  1.7599  2.7055
  575MOL0     H79301   6.528  10.547   3.430 -0.6366 -3.4236  1.7342
  575MOL0     H79302   6.317  10.510   3.213  0.7573  2.0379 -1.7746
  575MOL0     H79303   6.482  10.562   3.204  1.8834 -0.3502  1.8909
  575MOL0     H79304   6.557  10.322   3.211 -0.3164 -2.4381 -1.2947
  575MOL0     H79305   6.430  10.281   3.326  1.0480 -2.1229 -2.5231
  575MOL0     H79306   6.280  10.317   3.102  1.1547  1.6373 -0.4546
  575MOL0     H79307   6.428  10.334   3.023  2.1814  0.1054  0.3892
  575MOL0     H79308   6.472   9.922   3.144  1.1652  1.9676  1.8650
  575MOL0     H79309   6.486   9.705   3.197  0.2632 -1.2381  0.4748
  575MOL0     H79310   6.345   9.626   3.250  0.2736  0.1852 -2.2032
  575MOL0     H79311   6.459   9.697   3.369 -1.4553  0.0566  1.2318
  575MOL0     H79312   5.980   9.546   3.486  0.7096 -2.5863 -0.0064
  575MOL0     H79313   5.859   9.427   3.663 -0.9767  1.2795  0.8437
  575MOL0     H79314   6.079   9.336   4.038  0.0085  0.3124 -3.2332
  575MOL0     H79315   5.980   9.482   4.049 -1.6681 -0.5596  2.2409
  575MOL0     H79316   5.842   9.215   4.074 -1.2608  0.5473  0.1121
  575MOL0     H79317   5.915   9.304   4.217 -0.0461 -0.4987 -0.2211
  575MOL0     H79318   5.686   9.391   4.033 -0.7253  1.0067  0.4890
  575MOL0     H79319   5.747   9.491   4.159 -0.6183  0.4194  0.5710
  575MOL0     H79320   5.633   9.220   4.234 -3.1038  0.0331 -0.7278
  575MOL0     H79321   5.545   9.375   4.233  0.3714 -0.0638  1.9120
  575MOL0     H79322   5.798   9.352   4.376 -0.6978 -0.6994  1.4882
  575MOL0     H79323   5.683   9.482   4.390  0.6860 -1.1322 -0.0498
  575MOL0     H79324   5.650   9.201   4.495  2.6394  1.3404 -1.8137
  575MOL0     H79325   5.506   9.309   4.485 -0.8304  1.0984  2.0153
  575MOL0     H79326   5.640   9.474   4.613 -0.5925 -0.4050 -5.0914
  575MOL0     H79327   5.772   9.357   4.623 -0.8742 -1.0150 -1.5785
  575MOL0     H79328   5.601   9.212   4.756 -1.5605  0.0939  0.1296
  575MOL0     H79329   5.484   9.333   4.733 -0.9633 -2.2257  1.8593
  575MOL0     H79330   6.202   9.494   3.930  0.5862  0.5546 -1.1679
  575MOL0     H79331   6.307   9.616   3.764  1.3444 -2.2552  1.9028
  575MOL0     H79332   6.076  10.032   3.412  0.1231 -1.9775  0.4079
  575MOL0     H79333   6.184  10.207   3.261 -0.5700 -0.7435 -2.1740
  575MOL0     H79334   5.487  10.991   3.720 -0.4129 -0.2732  0.1670
  575MOL0     H79335   5.262  10.935   3.701  0.7247 -0.5599  0.4876
  575MOL0     H79336   4.867  11.031   3.840  0.1564  0.3111 -0.9801
  575MOL0     H79337   4.640  11.026   3.905 -1.6240 -0.2497 -0.2839
  575MOL0     H79338   4.344  11.200   3.921  2.1117 -1.1120 -0.3470
  575MOL0     H79339   4.463  11.292   3.847 -1.1839  1.3274  1.5809
  575MOL0     H79340   4.187  11.247   3.716  0.7880 -0.5828 -1.9823
  575MOL0     H79341   4.318  11.305   3.640 -0.4786 -3.4288  0.4256
  575MOL0     H79342   4.208  11.421   3.915  2.0086  2.8697  1.5392
  575MOL0     H79343   4.342  11.497   3.826  1.0349 -0.3500 -4.0095
  575MOL0     H79344   4.149  11.533   3.629  0.2092  4.3503  0.7380
  575MOL0     H79345   4.129  11.617   3.771 -0.6957 -0.9916 -0.7674
  575MOL0     H79346   3.791  11.401   3.776 -0.0698 -0.8462  0.1086
  575MOL0     H79347   4.534  11.221   3.534 -0.4159  0.2970  0.9508
  575MOL0     H79348   4.823  11.359   3.480 -0.9734  2.1859 -2.8304
  575MOL0     H79349   4.830  11.197   3.397 -0.6042 -0.1805  0.5770
  575MOL0     H79350   4.675  11.293   3.400 -1.7690  1.1073  3.4708
  576MOL0     O79351   9.690   9.696   3.025  0.0307  0.6209 -0.2917
  576MOL0     C79352   9.685   9.668   2.903 -0.0107 -0.6095 -0.4773
  576MOL0     O79353   9.783   9.686   2.808  0.3075  0.1772 -0.7695
  576MOL0     C79354   9.918   9.684   2.855 -0.1727  0.5089  0.2443
  576MOL0     C79355  10.021   9.752   2.781 -0.7789 -0.1657  0.6115
  576MOL0     C79356  10.154   9.734   2.835  0.2888  0.0924 -0.0538
  576MOL0     C79357  10.190   9.650   2.933 -0.2678 -0.0165  0.0768
  576MOL0     O79358  10.321   9.621   2.947  0.4630 -0.7464 -0.4760
  576MOL0     C79359  10.368   9.628   3.083  0.4296 -0.2637  0.3612
  576MOL0     C79360  10.524   9.616   3.089  0.8093 -0.4415  0.4756
  576MOL0     C79361  10.568   9.624   3.232  0.4071  0.3481  0.2010
  576MOL0     C79362  10.720   9.608   3.245 -0.7879 -0.9635  0.1254
  576MOL0     C79363  10.762   9.689   3.377 -0.1799 -0.5798  0.0059
  576MOL0     C79364  10.703   9.630   3.501 -0.3085  0.3568 -0.1134
  576MOL0     C79365  10.752   9.704   3.626 -0.3213  0.0689  0.1243
  576MOL0     C79366  10.681   9.669   3.755 -0.5979 -0.2248 -0.5967
  576MOL0     N79367  10.534   9.705   3.764  0.0706  0.1338  0.6318
  576MOL0     C79368  10.425   9.617   3.767 -0.3734  0.2204  0.1177
  576MOL0     C79369  10.328   9.700   3.809 -0.5998  1.2286 -0.7219
  576MOL0     C79370  10.191   9.639   3.850 -0.3736  0.7281 -0.0358
  576MOL0     C79371  10.166   9.675   3.994 -0.4569 -0.7690 -0.1487
  576MOL0     C79372  10.062   9.582   4.059 -0.1159  0.4035 -0.7596
  576MOL0     C79373  10.028   9.612   4.207 -0.0670 -0.2521 -0.3058
  576MOL0     O79374  10.137   9.602   4.302  0.4928 -0.3132  0.6349
  576MOL0     C79375  10.111   9.654   4.432 -0.2452 -0.1058  0.4103
  576MOL0     C79376  10.230   9.682   4.500 -0.0638  0.2242  0.3854
  576MOL0     C79377  10.227   9.717   4.634  0.3965  0.1791 -0.8036
  576MOL0     C79378  10.359   9.739   4.700 -0.2116  0.9408 -0.3931
  576MOL0     C79379  10.105   9.738   4.701  0.0183  0.7224  0.0373
  576MOL0     C79380  10.090   9.786   4.839  0.9376  0.8649 -0.8048
  576MOL0     O79381   9.998   9.888   4.859  0.5312  0.0602 -0.2319
  576MOL0     C79382   9.956   9.925   4.983 -0.1850 -0.2256  0.1478
  576MOL0     C79383   9.924  10.057   5.013 -1.5121 -0.3572 -0.3600
  576MOL0     C79384   9.868  10.093   5.133  0.0542 -0.4078 -0.6844
  576MOL0     C79385   9.840  10.001   5.233  0.0765  0.0657  0.3684
  576MOL0     O79386   9.784  10.033   5.354  0.5571  0.1277 -0.2756
  576MOL0     C79387   9.784  10.172   5.389 -0.2673  0.6515 -0.2644
  576MOL0     C79388   9.751  10.161   5.533 -0.0887  0.3408 -0.9796
  576MOL0     C79389   9.596  10.174   5.563 -0.2770 -0.1535 -0.6994
  576MOL0     C79390   9.586  10.278   5.676  1.2089  0.2769 -0.2205
  576MOL0     C79391   9.452  10.321   5.732  0.6081 -0.5539 -0.6716
  576MOL0     C79392   9.461  10.436   5.831 -0.2299  0.0596  0.4447
  576MOL0     C79393   9.488  10.568   5.774 -0.2974 -0.5715  0.8211
  576MOL0     C79394   9.367  10.650   5.721  0.4930  0.1223 -0.1542
  576MOL0    Cl79395   9.322  10.594   5.552  0.0616  0.1548  0.5587
  576MOL0     C79396   9.875   9.871   5.203  0.4007  1.1741  0.2293
  576MOL0     C79397   9.929   9.829   5.089 -0.9478  0.5432  0.9369
  576MOL0     O79398  10.164   9.740   4.934  0.8270  0.0906  0.1184
  576MOL0     C79399   9.984   9.731   4.624 -0.5419  0.3408  1.2390
  576MOL0     C79400   9.995   9.691   4.494  0.8240 -0.1754 -0.2025
  576MOL0     N79401  10.373   9.827   3.831  0.3187  0.5829  0.0916
  576MOL0     N79402  10.499   9.830   3.810  0.3185 -0.2362  0.7819
  576MOL0     C79403  10.089   9.588   3.003 -0.6306  0.2549 -0.0246
  576MOL0     C79404   9.959   9.596   2.958  0.7332  0.2732 -0.8364
  576MOL0     C79405   9.552   9.648   2.844  0.5517  0.1286  0.1500
  576MOL0     C79406   9.448   9.730   2.882  0.5568  0.2439 -0.1691
  576MOL0     C79407   9.328   9.718   2.821  0.1240 -0.6323 -0.2168
  576MOL0     C79408   9.300   9.618   2.732 -0.5383  0.4643  0.2336
  576MOL0     O79409   9.177   9.630   2.666  0.3803 -0.3678  0.3670
  576MOL0     C79410   9.122   9.532   2.580  0.2589  0.4084 -0.3346
  576MOL0     C79411   8.979   9.515   2.627  0.0898 -0.2010  0.3673
  576MOL0     C79412   8.882   9.636   2.606  0.4400 -0.2299 -0.7403
  576MOL0     C79413   8.751   9.609   2.674  1.1922  0.9090 -1.0514
  576MOL0     C79414   8.667   9.727   2.656  0.5400 -0.2932  0.8337
  576MOL0     C79415   8.600   9.826   2.621  0.1933 -0.2690 -0.3345
  576MOL0     C79416   9.401   9.527   2.703  1.0238  0.0389 -0.7997
  576MOL0     C79417   9.528   9.543   2.753  1.0709  0.1607 -0.0476
  576MOL0     C79418   9.627   9.435   2.723 -0.2273  0.2625  0.0519
  576MOL0     H79419   9.997   9.827   2.706  1.3507 -0.3219 -0.3172
  576MOL0     H79420  10.230   9.788   2.778 -1.6978  3.2409  0.0441
  576MOL0     H79421  10.321   9.549   3.142 -0.2829 -1.2995 -1.5202
  576MOL0     H79422  10.340   9.723   3.129  0.8647 -0.4196  0.9611
  576MOL0     H79423  10.557   9.520   3.048  0.1284 -1.9457  3.2123
  576MOL0     H79424  10.555   9.704   3.033  0.6354 -0.9833 -0.4826
  576MOL0     H79425  10.539   9.726   3.258 -0.1383  1.3037 -3.5632
  576MOL0     H79426  10.517   9.551   3.296  1.8480 -0.1587  0.8087
  576MOL0     H79427  10.746   9.502   3.258  0.1148 -1.6963 -5.2225
  576MOL0     H79428  10.778   9.634   3.156  1.5884 -1.8573  1.3095
  576MOL0     H79429  10.736   9.795   3.364  1.2711 -0.1495  0.3881
  576MOL0     H79430  10.871   9.687   3.387  0.4043  4.4032 -2.1238
  576MOL0     H79431  10.594   9.634   3.516 -0.0417  0.2629  2.2082
  576MOL0     H79432  10.744   9.529   3.505  0.7143  0.7484 -0.4782
  576MOL0     H79433  10.751   9.811   3.605  3.8273  0.4811  1.2710
  576MOL0     H79434  10.858   9.684   3.644  0.6928  2.5265 -2.3873
  576MOL0     H79435  10.686   9.562   3.777 -0.7009 -0.3417 -1.1386
  576MOL0     H79436  10.729   9.725   3.836  0.3765 -1.9545  0.0711
  576MOL0     H79437  10.422   9.509   3.760  1.1605  0.2654 -2.0770
  576MOL0     H79438  10.184   9.531   3.833 -2.7735  1.1060 -2.0272
  576MOL0     H79439  10.125   9.684   3.775  0.3499  1.6834 -0.1213
  576MOL0     H79440  10.260   9.668   4.049 -0.1629 -0.0708 -0.5557
  576MOL0     H79441  10.126   9.775   4.008 -1.6192 -0.9416 -1.9794
  576MOL0     H79442   9.974   9.591   3.994 -0.2457  2.0592 -0.3727
  576MOL0     H79443  10.086   9.476   4.043 -0.2468  0.4117 -1.0417
  576MOL0     H79444   9.988   9.713   4.193  3.4239  0.8997 -3.7188
  576MOL0     H79445   9.942   9.549   4.231 -0.1854 -1.3054 -3.1088
  576MOL0     H79446  10.327   9.682   4.452  1.3039 -1.7656  2.9196
  576MOL0     H79447  10.438   9.766   4.629  0.7086 -0.3791  0.0894
  576MOL0     H79448  10.388   9.644   4.745  2.1873  1.9218  0.3093
  576MOL0     H79449  10.358   9.814   4.780 -0.5405  0.0557  0.4489
  576MOL0     H79450   9.946  10.129   4.935  2.8958 -0.7329  0.3051
  576MOL0     H79451   9.848  10.196   5.159  3.6219 -0.1103  1.7501
  576MOL0     H79452   9.886  10.213   5.380  0.0951 -0.1546  0.1264
  576MOL0     H79453   9.704  10.229   5.340 -1.1678  0.1079  0.5517
  576MOL0     H79454   9.770  10.062   5.575 -0.0123  0.3204 -1.0622
  576MOL0     H79455   9.802  10.236   5.594 -1.1033  0.1173  0.1730
  576MOL0     H79456   9.567  10.072   5.592 -1.5975  0.4558  0.2342
  576MOL0     H79457   9.536  10.210   5.480 -0.3229  4.9309  1.1745
  576MOL0     H79458   9.632  10.373   5.649 -1.4865  1.5441 -0.6016
  576MOL0     H79459   9.647  10.243   5.760 -0.0315 -0.7512  0.2922
  576MOL0     H79460   9.389  10.356   5.650 -0.7777 -1.8980 -0.2244
  576MOL0     H79461   9.404  10.231   5.772  2.5383 -3.4267 -4.2375
  576MOL0     H79462   9.537  10.411   5.905 -0.0712  0.8882  0.5721
  576MOL0     H79463   9.362  10.436   5.877 -0.7658 -0.8991 -0.6422
  576MOL0     H79464   9.564  10.565   5.695 -1.5257 -2.9450 -0.3698
  576MOL0     H79465   9.529  10.627   5.857 -0.4865  2.2647 -0.9402
  576MOL0     H79466   9.399  10.754   5.735  0.7116 -0.1130  1.2340
  576MOL0     H79467   9.284  10.629   5.790 -0.3211 -0.4157 -1.2689
  576MOL0     H79468   9.854   9.791   5.274  1.4638 -1.1155 -1.8788
  576MOL0     H79469   9.958   9.725   5.084  0.0895  0.7965  1.4238
  576MOL0     H79470   9.896   9.776   4.669  1.3873  2.6769  2.9425
  576MOL0     H79471   9.905   9.701   4.434 -0.8116  0.7574  2.2426
  576MOL0     H79472  10.113   9.522   3.085 -1.1349  0.9784  0.7273
  576MOL0     H79473   9.889   9.524   2.998 -0.1431  1.4501 -0.2167
  576MOL0     H79474   9.463   9.802   2.962 -2.1730 -0.1813  0.8492
  576MOL0     H79475   9.239   9.775   2.846  0.3117 -0.1202 -0.6792
  576MOL0     H79476   9.114   9.561   2.475 -4.3511  0.2918 -0.2250
  576MOL0     H79477   9.167   9.433   2.595 -0.2046  0.2827  0.2790
  576MOL0     H79478   8.980   9.475   2.729 -2.6038  0.6965  0.8276
  576MOL0     H79479   8.931   9.432   2.574  1.2188 -0.9578  0.4910
  576MOL0     H79480   8.928   9.729   2.640  0.3275  0.1538 -1.6158
  576MOL0     H79481   8.870   9.653   2.499 -1.9585  2.2416 -0.1800
  576MOL0     H79482   8.766   9.587   2.780 -0.0277 -0.4726 -1.1396
  576MOL0     H79483   8.698   9.524   2.630 -2.9169  2.9650 -0.5955
  576MOL0     H79484   8.553   9.900   2.560 -2.1203 -0.8291  0.6775
  576MOL0     H79485   9.383   9.440   2.640 -2.9952 -0.1850  0.3614
  576MOL0     H79486   9.622   9.421   2.615 -4.2987 -0.3854  0.1571
  576MOL0     H79487   9.727   9.448   2.764 -0.2685  1.2474 -0.1272
  576MOL0     H79488   9.588   9.346   2.773 -0.6451  1.2856  1.6403
  577MOL0     O79489  10.906   9.178   1.328  0.0462 -0.1954 -0.6871
  577MOL0     C79490  10.874   9.137   1.218  0.1246  0.4000  1.8111
  577MOL0     O79491  10.773   9.054   1.193 -0.5045 -0.1874  0.6016
  577MOL0     C79492  10.741   8.969   1.296  0.0469  0.5698 -0.4366
  577MOL0     C79493  10.648   8.999   1.391 -0.5479  0.1098  1.0021
  577MOL0     C79494  10.607   8.898   1.482 -0.5082 -0.4534  0.1025
  577MOL0     C79495  10.659   8.773   1.480 -0.4660  0.6614 -0.5669
  577MOL0     O79496  10.636   8.664   1.569  0.9047 -1.0441  0.0996
  577MOL0     C79497  10.507   8.668   1.644  0.0586  0.3568  0.2359
  577MOL0     C79498  10.371   8.672   1.565  0.2080 -0.1682 -0.2413
  577MOL0     C79499  10.364   8.542   1.488 -0.2962 -0.6042 -0.6835
  577MOL0     C79500  10.235   8.467   1.521  0.2377 -0.4998 -0.3523
  577MOL0     C79501  10.218   8.352   1.420 -0.1247  0.7612  0.0490
  577MOL0     C79502  10.315   8.238   1.431 -0.2063  1.2162 -0.0607
  577MOL0     C79503  10.305   8.152   1.305  0.4419  0.6688  0.8805
  577MOL0     C79504  10.356   8.002   1.324 -0.1087  0.4196 -0.6053
  577MOL0     N79505  10.363   7.935   1.191 -0.6237 -0.7715  0.2978
  577MOL0     C79506  10.282   7.959   1.079 -0.3608 -0.0935 -0.2819
  577MOL0     C79507  10.338   7.891   0.978 -0.4409  0.0070  0.7973
  577MOL0     C79508  10.289   7.889   0.835 -0.5355  0.2615 -0.0395
  577MOL0     C79509  10.224   7.749   0.800  0.7108 -0.7808 -0.3433
  577MOL0     C79510  10.322   7.641   0.824  0.9915 -0.9924 -0.0930
  577MOL0     C79511  10.279   7.519   0.731 -0.1080 -0.2726 -0.0489
  577MOL0     O79512  10.285   7.557   0.598  0.0933 -0.1555 -0.9242
  577MOL0     C79513  10.404   7.586   0.529 -0.7683 -0.7995 -0.2311
  577MOL0     C79514  10.528   7.549   0.581  0.0922 -0.3989 -0.0649
  577MOL0     C79515  10.649   7.564   0.504 -0.4397  0.9396 -1.0740
  577MOL0     C79516  10.756   7.510   0.596  0.4046 -0.9966  0.1629
  577MOL0     C79517  10.652   7.617   0.377  0.5599 -0.7487  0.0028
  577MOL0     C79518  10.765   7.656   0.289 -0.4105 -0.7141  0.2360
  577MOL0     O79519  10.866   7.707   0.366 -0.2561 -1.1395  0.0885
  577MOL0     C79520  10.986   7.747   0.320 -1.5399 -0.7551 -0.3108
  577MOL0     C79521  11.051   7.705   0.204 -0.2128  0.3456  0.2103
  577MOL0     C79522  11.167   7.751   0.149  0.1443 -0.6224 -0.2463
  577MOL0     C79523  11.241   7.842   0.225  0.2840  0.6484 -0.9857
  577MOL0     O79524  11.362   7.893   0.192 -0.0500  0.1677 -0.1001
  577MOL0     C79525  11.359   7.953   0.056  1.4724 -0.2537 -0.0665
  577MOL0     C79526  11.467   8.049   0.013 -0.2485  0.6795  0.1702
  577MOL0     C79527  11.446   8.191   0.069 -0.8376  0.0407 -0.3496
  577MOL0     C79528  11.324   8.261   0.039  0.8447  0.0873 -1.3537
  577MOL0     C79529  11.354   8.408   0.004  0.1863 -0.3577 -0.3787
  577MOL0     C79530  11.224   8.485  -0.011 -0.4918  0.8316 -0.0647
  577MOL0     C79531  11.177   8.454  -0.155  0.0697  0.1303 -0.0528
  577MOL0     C79532  11.038   8.522  -0.174  0.0830 -0.0529 -0.4793
  577MOL0    Cl79533  10.905   8.432  -0.082 -0.2526 -0.3913  0.0184
  577MOL0     C79534  11.183   7.886   0.350  0.7281  0.4493  0.0149
  577MOL0     C79535  11.057   7.834   0.398 -0.0369  0.6137 -0.4511
  577MOL0     O79536  10.748   7.658   0.171 -0.5176 -0.2214  0.1749
  577MOL0     C79537  10.523   7.660   0.326 -0.5850  0.8439 -0.0059
  577MOL0     C79538  10.404   7.651   0.406  0.5725  0.4850  0.3605
  577MOL0     N79539  10.442   7.815   1.029 -0.5655  0.1884 -0.9620
  577MOL0     N79540  10.445   7.834   1.157 -0.1510  0.7963  0.7601
  577MOL0     C79541  10.751   8.738   1.384  0.0932  0.3479 -0.0780
  577MOL0     C79542  10.787   8.836   1.292 -0.2426 -0.2867  0.3386
  577MOL0     C79543  10.962   9.176   1.099 -0.4214 -0.8494 -0.3940
  577MOL0     C79544  10.902   9.233   0.984  0.3955  0.8346 -0.8164
  577MOL0     C79545  10.979   9.282   0.880  0.2481 -1.3701  0.5885
  577MOL0     C79546  11.122   9.276   0.898  0.5064  0.6437  0.1785
  577MOL0     O79547  11.216   9.330   0.818  0.4796  0.3244 -0.8125
  577MOL0     C79548  11.176   9.371   0.693 -0.4392 -0.7263  0.2069
  577MOL0     C79549  11.298   9.364   0.599  0.3625 -0.6377  1.0464
  577MOL0     C79550  11.344   9.224   0.578 -0.4664 -0.2167  0.5565
  577MOL0     C79551  11.424   9.199   0.446  0.2333 -0.1144  0.2464
  577MOL0     C79552  11.556   9.269   0.441 -0.1835 -0.0352 -0.1779
  577MOL0     C79553  11.664   9.318   0.440  0.9967 -0.9861 -0.5863
  577MOL0     C79554  11.178   9.210   0.996 -1.0874 -0.8552 -0.0996
  577MOL0     C79555  11.102   9.160   1.098 -0.2186 -1.2658  0.4347
  577MOL0     C79556  11.176   9.069   1.185 -0.0554  0.7723 -0.5139
  577MOL0     H79557  10.623   9.105   1.383  1.4324  0.5118 -0.7999
  577MOL0     H79558  10.548   8.915   1.571  0.7875 -1.0488  1.0908
  577MOL0     H79559  10.505   8.750   1.716 -0.4022  2.0091 -1.5683
  577MOL0     H79560  10.510   8.574   1.701  1.9357 -0.8608 -1.6941
  577MOL0     H79561  10.298   8.685   1.646 -0.9979 -0.3636 -1.2613
  577MOL0     H79562  10.360   8.763   1.505  0.5648  1.6050  2.1973
  577MOL0     H79563  10.369   8.565   1.381  0.1683 -0.6902 -0.6817
  577MOL0     H79564  10.452   8.479   1.501  0.7000  0.4193 -2.1460
  577MOL0     H79565  10.247   8.432   1.624 -2.2416  0.0914  0.2072
  577MOL0     H79566  10.150   8.536   1.525  0.9563  0.3650  0.7510
  577MOL0     H79567  10.228   8.403   1.323 -1.5372  0.5835 -0.2083
  577MOL0     H79568  10.116   8.312   1.425 -0.3762  1.5274  2.5757
  577MOL0     H79569  10.418   8.276   1.426 -0.1662  1.0381 -4.6286
  577MOL0     H79570  10.289   8.182   1.522 -3.4704  0.3953 -1.3878
  577MOL0     H79571  10.358   8.197   1.221 -0.0853 -0.2058  0.0586
  577MOL0     H79572  10.200   8.143   1.275  0.8323 -0.0615 -0.3280
  577MOL0     H79573  10.457   8.007   1.368 -0.9329  1.6159  1.2877
  577MOL0     H79574  10.298   7.938   1.391 -1.2834  1.6936 -0.3702
  577MOL0     H79575  10.218   8.046   1.068 -0.8277 -0.3721  0.1723
  577MOL0     H79576  10.374   7.903   0.767  1.4294 -1.5928  1.8981
  577MOL0     H79577  10.230   7.979   0.814  1.4196  1.7452  0.4969
  577MOL0     H79578  10.136   7.738   0.864 -0.2498 -0.6659 -1.5996
  577MOL0     H79579  10.183   7.754   0.699 -0.1318  0.0672  0.0279
  577MOL0     H79580  10.421   7.677   0.794 -0.5104  3.4504 -0.4671
  577MOL0     H79581  10.309   7.621   0.930 -1.9325  0.1642 -0.1432
  577MOL0     H79582  10.343   7.431   0.748 -0.9741 -0.7220  1.0422
  577MOL0     H79583  10.177   7.488   0.753  0.3790 -1.8581  0.1939
  577MOL0     H79584  10.532   7.495   0.675 -0.1135 -1.0758 -0.4363
  577MOL0     H79585  10.739   7.407   0.630  2.0579 -0.9348  1.2577
  577MOL0     H79586  10.755   7.578   0.681 -1.0165  0.2626 -0.7980
  577MOL0     H79587  10.857   7.509   0.554  0.1626  0.0493 -0.4749
  577MOL0     H79588  10.992   7.646   0.134 -0.4220 -0.8197  1.3332
  577MOL0     H79589  11.200   7.719   0.051  0.1446  1.6000 -1.0325
  577MOL0     H79590  11.350   7.869  -0.015 -3.0961 -3.2071  3.3884
  577MOL0     H79591  11.265   8.003   0.032  2.4472  2.1788  0.8912
  577MOL0     H79592  11.558   8.007   0.056 -2.1030 -2.2212  1.5631
  577MOL0     H79593  11.462   8.052  -0.097 -4.1740  1.1216  0.2072
  577MOL0     H79594  11.539   8.245   0.046 -0.8622 -0.2458 -1.1316
  577MOL0     H79595  11.438   8.174   0.177 -4.4566  1.0528 -0.3441
  577MOL0     H79596  11.248   8.245   0.115  1.1091 -3.8153 -1.6803
  577MOL0     H79597  11.283   8.206  -0.047  2.4949  0.3723 -2.3771
  577MOL0     H79598  11.402   8.458   0.088  1.0633 -2.2839  0.3276
  577MOL0     H79599  11.409   8.416  -0.090 -0.4430  2.3726 -0.5980
  577MOL0     H79600  11.248   8.591  -0.004 -1.0116  0.8525  3.8154
  577MOL0     H79601  11.154   8.463   0.071 -2.6947  0.0683 -2.0376
  577MOL0     H79602  11.171   8.346  -0.169 -0.6643 -0.3406  3.0066
  577MOL0     H79603  11.244   8.499  -0.228  1.7275  0.7019  1.7403
  577MOL0     H79604  11.026   8.532  -0.282 -1.4252  2.8532 -0.1322
  577MOL0     H79605  11.057   8.626  -0.146  0.7512 -0.2610 -0.1442
  577MOL0     H79606  11.249   7.955   0.402 -0.2544  2.5460 -1.4145
  577MOL0     H79607  11.017   7.862   0.495 -0.1432 -0.6953 -0.0945
  577MOL0     H79608  10.524   7.721   0.235 -0.0298  0.1391 -0.4813
  577MOL0     H79609  10.310   7.689   0.366  1.3669  0.9397 -1.1439
  577MOL0     H79610  10.787   8.636   1.385 -1.5091 -0.2446 -0.2035
  577MOL0     H79611  10.859   8.812   1.214  0.5612  2.4918  0.1420
  577MOL0     H79612  10.796   9.254   0.993 -0.8024 -4.5295  1.2963
  577MOL0     H79613  10.926   9.331   0.799  1.4447 -1.1728 -0.1009
  577MOL0     H79614  11.096   9.316   0.644  0.9396 -1.9511 -0.7470
  577MOL0     H79615  11.147   9.475   0.710 -1.7500 -1.0394 -0.0480
  577MOL0     H79616  11.388   9.420   0.625  1.1363  2.0578 -5.4711
  577MOL0     H79617  11.280   9.409   0.500  0.8561  1.6617  1.9389
  577MOL0     H79618  11.397   9.197   0.669 -0.0079  0.3329  0.4554
  577MOL0     H79619  11.261   9.153   0.583  0.7896 -1.9279 -1.5415
  577MOL0     H79620  11.373   9.218   0.351 -1.8263 -0.5109  1.2132
  577MOL0     H79621  11.441   9.092   0.462 -1.7565 -0.3332  1.3244
  577MOL0     H79622  11.768   9.342   0.447  0.7134  0.1621 -0.1047
  577MOL0     H79623  11.286   9.202   1.000 -0.9309  1.0540  0.7205
  577MOL0     H79624  11.142   9.059   1.288  3.4649 -3.6876  0.5326
  577MOL0     H79625  11.175   8.965   1.149  0.2677 -0.8395  3.6065
  577MOL0     H79626  11.283   9.091   1.192  0.9669 -2.4959 -3.2247
  578MOL0     O79627   8.382   0.583   6.706 -0.0430 -0.2185 -0.6376
  578MOL0     C79628   8.281   0.515   6.681 -0.6806 -0.7587 -0.0658
  578MOL0     O79629   8.258   0.457   6.558 -0.3761 -0.0580 -0.2099
  578MOL0     C79630   8.342   0.486   6.450  0.4463 -0.0932  0.1695
  578MOL0     C79631   8.446   0.407   6.409 -0.4275  0.6739  0.2560
  578MOL0     C79632   8.510   0.435   6.286  0.2888  0.2074 -0.0771
  578MOL0     C79633   8.475   0.549   6.206  0.4647 -0.1754  0.3439
  578MOL0     O79634   8.552   0.560   6.090 -0.6670 -0.3889 -0.1547
  578MOL0     C79635   8.533   0.681   6.012 -0.1339  0.0171  0.0202
  578MOL0     C79636   8.589   0.658   5.868 -0.0936  0.3157 -0.4541
  578MOL0     C79637   8.730   0.635   5.874 -0.3571  0.4048  0.2189
  578MOL0     C79638   8.804   0.683   5.743 -0.5768 -1.0283  0.6680
  578MOL0     C79639   8.959   0.662   5.748 -0.2367 -0.1528  1.1108
  578MOL0     C79640   9.016   0.686   5.610  0.0767  0.3481 -0.1023
  578MOL0     C79641   9.167   0.677   5.591  0.0192  0.4261  0.1704
  578MOL0     C79642   9.231   0.805   5.654  0.0391 -0.2611  0.4297
  578MOL0     N79643   9.242   0.803   5.802  0.0720  0.0951 -0.0238
  578MOL0     C79644   9.255   0.701   5.893  0.1629  0.2949  0.4600
  578MOL0     C79645   9.265   0.751   6.016  0.3341  0.3472 -0.2880
  578MOL0     C79646   9.316   0.681   6.150  0.7953  0.9972  0.0375
  578MOL0     C79647   9.377   0.545   6.132  0.8160  0.0005 -0.1039
  578MOL0     C79648   9.410   0.470   6.263  0.5180 -0.2814 -0.2440
  578MOL0     C79649   9.291   0.408   6.331  0.3794  0.7562 -0.1025
  578MOL0     O79650   9.223   0.312   6.248  0.1718 -0.0392 -0.5832
  578MOL0     C79651   9.282   0.181   6.234  0.5275  0.5165 -0.5706
  578MOL0     C79652   9.241   0.111   6.124  0.4026  0.2115 -0.1405
  578MOL0     C79653   9.258  -0.030   6.118 -0.1028  0.5005  0.0728
  578MOL0     C79654   9.178  -0.106   6.019 -0.2732  0.7144 -0.5813
  578MOL0     C79655   9.344  -0.095   6.219  0.3921 -0.0510  0.1417
  578MOL0     C79656   9.388  -0.240   6.206  0.2739  0.5488  0.2322
  578MOL0     O79657   9.476  -0.291   6.297  0.4875 -0.0084  0.4304
  578MOL0     C79658   9.532  -0.420   6.270 -0.8730 -0.7154 -0.8117
  578MOL0     C79659   9.613  -0.444   6.160  0.0043  0.7004 -0.1018
  578MOL0     C79660   9.695  -0.563   6.167 -0.0897 -1.2216 -0.0471
  578MOL0     C79661   9.691  -0.655   6.277 -0.6032 -0.0655  0.9241
  578MOL0     O79662   9.760  -0.771   6.291 -0.5830 -0.6303  0.3370
  578MOL0     C79663   9.904  -0.755   6.260 -0.0703  0.1913 -0.3544
  578MOL0     C79664   9.987  -0.722   6.383  0.9933 -0.1635  0.5626
  578MOL0     C79665  10.076  -0.595   6.355  0.3878 -0.2342 -0.6448
  578MOL0     C79666  10.161  -0.577   6.473 -0.3139  0.0308 -1.0033
  578MOL0     C79667  10.243  -0.449   6.499  0.0559  0.4147 -0.2485
  578MOL0     C79668  10.336  -0.415   6.377 -0.5108  0.1334  0.4408
  578MOL0     C79669  10.483  -0.461   6.403  0.2883  0.1412 -0.1813
  578MOL0     C79670  10.572  -0.417   6.285 -0.1345  0.0020  0.9963
  578MOL0    Cl79671  10.540  -0.518   6.140  0.1011 -0.3938  0.2313
  578MOL0     C79672   9.624  -0.613   6.392  0.2634  0.3523  0.5213
  578MOL0     C79673   9.538  -0.504   6.385 -0.0689  0.4299 -0.3221
  578MOL0     O79674   9.345  -0.315   6.111  0.4825 -0.6702  0.0459
  578MOL0     C79675   9.396  -0.016   6.325  0.0454  0.2609  0.7118
  578MOL0     C79676   9.368   0.120   6.335  0.4851 -0.4112 -0.2791
  578MOL0     N79677   9.245   0.888   6.006  0.0612 -0.2499 -0.4928
  578MOL0     N79678   9.229   0.915   5.881 -0.3822 -0.1630 -0.0576
  578MOL0     C79679   8.370   0.630   6.250 -0.5060 -0.8015 -0.0345
  578MOL0     C79680   8.307   0.601   6.373  0.4544  0.3609  0.6987
  578MOL0     C79681   8.165   0.507   6.778 -0.9505  0.1697 -0.6602
  578MOL0     C79682   8.032   0.482   6.732  0.4627 -0.0780 -1.0266
  578MOL0     C79683   7.923   0.462   6.817 -0.7754 -0.9338 -0.6746
  578MOL0     C79684   7.938   0.461   6.957 -0.4692 -0.1214 -1.3011
  578MOL0     O79685   7.833   0.427   7.037  0.0301 -0.7090 -0.0706
  578MOL0     C79686   7.780   0.536   7.113  1.1623  0.0939  0.4120
  578MOL0     C79687   7.649   0.514   7.175 -0.7539 -0.1197  0.8404
  578MOL0     C79688   7.553   0.472   7.060  0.1926  0.1769  0.7656
  578MOL0     C79689   7.514   0.595   6.972  0.1925  0.1943  0.0485
  578MOL0     C79690   7.419   0.563   6.868 -0.0296 -0.6180 -0.0876
  578MOL0     C79691   7.346   0.540   6.777 -0.3180 -0.9210  0.3575
  578MOL0     C79692   8.063   0.486   7.009 -0.3485 -0.4694 -0.0805
  578MOL0     C79693   8.174   0.509   6.924 -0.4749 -0.0235  0.4608
  578MOL0     C79694   8.308   0.520   6.989  0.2330  1.0086 -0.5136
  578MOL0     H79695   8.494   0.331   6.470  0.1773 -0.1444 -1.1935
  578MOL0     H79696   8.595   0.373   6.259  0.3805  0.4876 -0.4319
  578MOL0     H79697   8.580   0.768   6.058  0.3336  0.0310 -0.4836
  578MOL0     H79698   8.424   0.686   6.005 -0.0588 -0.2774 -1.9879
  578MOL0     H79699   8.547   0.565   5.829  0.5691 -0.0715 -0.2566
  578MOL0     H79700   8.545   0.742   5.814 -1.2159  0.3847  0.5432
  578MOL0     H79701   8.772   0.689   5.960 -1.4350  1.4394  0.1215
  578MOL0     H79702   8.750   0.528   5.882  3.3489  0.6507 -2.8891
  578MOL0     H79703   8.762   0.620   5.664  0.6499 -1.5180  0.3871
  578MOL0     H79704   8.779   0.783   5.705 -0.9976 -1.6069 -0.6564
  578MOL0     H79705   8.975   0.557   5.773 -0.3932 -1.2264 -2.7855
  578MOL0     H79706   8.993   0.732   5.825  1.8962  1.6939 -1.3516
  578MOL0     H79707   8.976   0.607   5.546  0.9990 -1.3333  1.3041
  578MOL0     H79708   8.974   0.784   5.582 -3.7874 -0.7463  1.2933
  578MOL0     H79709   9.175   0.659   5.484 -1.1484 -1.6566  0.3658
  578MOL0     H79710   9.210   0.588   5.639 -2.0225 -1.1616 -0.8037
  578MOL0     H79711   9.332   0.802   5.610  0.0379 -1.5054  0.4606
  578MOL0     H79712   9.183   0.896   5.618 -0.5750  0.0410  1.9567
  578MOL0     H79713   9.275   0.598   5.864  1.0992  0.9882 -1.6329
  578MOL0     H79714   9.231   0.657   6.214  0.6067 -1.9995 -1.1316
  578MOL0     H79715   9.383   0.751   6.199 -0.9353  0.4278  3.5120
  578MOL0     H79716   9.316   0.479   6.070  0.6263 -2.3688  2.4523
  578MOL0     H79717   9.474   0.552   6.081  0.8371 -2.3440 -0.4950
  578MOL0     H79718   9.494   0.405   6.237  1.5420  1.0974 -0.4914
  578MOL0     H79719   9.445   0.537   6.342 -0.6509  1.1261 -0.8711
  578MOL0     H79720   9.319   0.356   6.424 -1.6302 -0.2222  0.0310
  578MOL0     H79721   9.220   0.480   6.373 -1.1698 -0.6284 -0.2418
  578MOL0     H79722   9.177   0.156   6.049 -0.3238 -2.0684 -0.9643
  578MOL0     H79723   9.145  -0.204   6.054 -2.6998  1.8873  0.6549
  578MOL0     H79724   9.231  -0.136   5.928  1.1963 -0.1108  0.4787
  578MOL0     H79725   9.098  -0.041   5.983  1.0202  0.9328 -3.3223
  578MOL0     H79726   9.605  -0.371   6.080 -0.5785  1.7589  0.8988
  578MOL0     H79727   9.748  -0.582   6.073  0.3722 -3.3629  0.5764
  578MOL0     H79728   9.928  -0.854   6.221 -0.6318  1.1039 -3.2856
  578MOL0     H79729   9.936  -0.689   6.179 -0.0849 -1.3376 -1.6545
  578MOL0     H79730   9.907  -0.704   6.455 -0.0459  1.7845 -0.9762
  578MOL0     H79731  10.047  -0.809   6.412 -1.0324 -1.9510 -0.3156
  578MOL0     H79732  10.018  -0.503   6.345 -0.2989 -0.7081 -1.1381
  578MOL0     H79733  10.139  -0.601   6.265 -0.7917  0.3657 -1.5465
  578MOL0     H79734  10.225  -0.665   6.468  0.8705  0.9374 -2.2575
  578MOL0     H79735  10.096  -0.582   6.562  2.2922 -0.3467  0.9881
  578MOL0     H79736  10.171  -0.367   6.510  0.0341  0.5059 -1.0245
  578MOL0     H79737  10.303  -0.460   6.590  1.4129 -0.2855 -1.1930
  578MOL0     H79738  10.342  -0.306   6.375  0.2684  0.1370  1.7142
  578MOL0     H79739  10.303  -0.464   6.285  4.8136 -3.3229 -0.0702
  578MOL0     H79740  10.486  -0.570   6.407  0.0362  0.1493  0.3896
  578MOL0     H79741  10.525  -0.430   6.499  0.0640 -0.9772  0.2893
  578MOL0     H79742  10.672  -0.442   6.321 -1.0030 -3.0554  1.5229
  578MOL0     H79743  10.558  -0.310   6.264 -2.9945 -0.2567  1.2162
  578MOL0     H79744   9.637  -0.672   6.482 -1.4894  0.2543  0.7527
  578MOL0     H79745   9.479  -0.486   6.475 -0.5534  1.0987 -0.7694
  578MOL0     H79746   9.463  -0.054   6.402 -0.1827  2.2973  1.9856
  578MOL0     H79747   9.396   0.173   6.425 -2.2108 -1.5126  1.3286
  578MOL0     H79748   8.336   0.712   6.187 -0.7511  0.3457  1.5227
  578MOL0     H79749   8.223   0.657   6.414  0.5858 -0.2462  1.8459
  578MOL0     H79750   8.021   0.489   6.624 -0.0713 -0.4159 -0.9949
  578MOL0     H79751   7.825   0.450   6.771 -0.9586  0.1938 -0.6234
  578MOL0     H79752   7.856   0.551   7.191 -0.1695  1.6065  1.4905
  578MOL0     H79753   7.770   0.627   7.054 -0.0057  0.8941  1.7952
  578MOL0     H79754   7.612   0.598   7.234 -1.1492 -0.2412  0.7649
  578MOL0     H79755   7.652   0.438   7.254 -2.7437 -0.1863  0.8934
  578MOL0     H79756   7.586   0.390   6.995  0.3597  1.6298 -1.0576
  578MOL0     H79757   7.465   0.444   7.119 -0.3950  0.8625  0.2384
  578MOL0     H79758   7.600   0.642   6.922  0.6690 -0.1085  0.5602
  578MOL0     H79759   7.469   0.674   7.032  0.3364  1.4349 -1.4124
  578MOL0     H79760   7.287   0.526   6.690 -0.9488 -0.6943  0.7427
  578MOL0     H79761   8.078   0.482   7.117 -0.1499  1.9142  0.0290
  578MOL0     H79762   8.357   0.422   6.987 -2.5489 -0.4875 -0.4337
  578MOL0     H79763   8.370   0.599   6.947  0.1091  1.6500  0.4712
  578MOL0     H79764   8.308   0.558   7.092  5.6230  1.3771 -0.3907
  579MOL0     O79765   3.563   5.005   6.755 -0.3117 -0.8643 -0.0303
  579MOL0     C79766   3.568   4.945   6.859  0.1961  0.6619 -0.0546
  579MOL0     O79767   3.671   4.952   6.955 -0.6085 -0.6435 -0.3902
  579MOL0     C79768   3.788   5.020   6.921 -0.2028  0.5519 -0.0907
  579MOL0     C79769   3.793   5.152   6.869 -0.8296  0.1334 -0.3553
  579MOL0     C79770   3.910   5.228   6.869 -0.0276  0.7599  0.4813
  579MOL0     C79771   4.036   5.162   6.886 -0.3381 -0.1816  0.2399
  579MOL0     O79772   4.163   5.222   6.902  0.1195 -0.1119  0.4109
  579MOL0     C79773   4.164   5.368   6.928  0.2314 -0.1329  0.7098
  579MOL0     C79774   4.304   5.428   6.929 -0.0888  0.4553 -0.5851
  579MOL0     C79775   4.377   5.401   7.063 -0.3114 -0.7086 -1.2397
  579MOL0     C79776   4.518   5.460   7.080  0.2680 -1.0324 -0.5782
  579MOL0     C79777   4.580   5.462   7.214 -0.0856  0.2472 -0.5715
  579MOL0     C79778   4.730   5.501   7.204 -0.5850  0.1130 -0.8850
  579MOL0     C79779   4.813   5.464   7.335  0.3816  0.7650 -0.8210
  579MOL0     C79780   4.960   5.434   7.291 -0.4935 -0.0023  0.7198
  579MOL0     N79781   5.044   5.526   7.205  0.2618 -0.1732  0.0492
  579MOL0     C79782   5.039   5.533   7.069 -0.2049  0.5826  0.3283
  579MOL0     C79783   5.142   5.621   7.039 -0.2585 -0.0700  0.6099
  579MOL0     C79784   5.165   5.675   6.898  0.5378 -0.0032 -0.0877
  579MOL0     C79785   5.307   5.728   6.887  0.6835 -0.0563 -0.1258
  579MOL0     C79786   5.346   5.750   6.733 -0.1152 -0.4698 -0.2907
  579MOL0     C79787   5.266   5.865   6.670  0.2625  0.1810  0.4841
  579MOL0     O79788   5.152   5.801   6.613 -0.2313  0.1216  0.1614
  579MOL0     C79789   5.054   5.878   6.553 -0.7435 -0.2422  0.5647
  579MOL0     C79790   5.056   6.016   6.514 -0.1230 -0.7774 -0.4899
  579MOL0     C79791   4.964   6.080   6.429 -0.1273 -1.2225 -0.3612
  579MOL0     C79792   4.990   6.224   6.401  1.4950  0.2827  0.4139
  579MOL0     C79793   4.850   5.994   6.388 -1.0868 -0.0380 -0.3546
  579MOL0     C79794   4.740   6.060   6.306  0.3000  0.1292  0.7495
  579MOL0     O79795   4.723   6.199   6.310  0.5346  0.8577 -0.5698
  579MOL0     C79796   4.614   6.243   6.235  0.4829  1.0848 -0.0331
  579MOL0     C79797   4.490   6.283   6.288  1.5172  0.8044 -0.7883
  579MOL0     C79798   4.382   6.317   6.204  0.4878 -0.8551 -0.2962
  579MOL0     C79799   4.403   6.329   6.061  0.4170 -0.5065 -0.5661
  579MOL0     O79800   4.288   6.365   5.985 -0.0470  0.2537 -0.3499
  579MOL0     C79801   4.305   6.370   5.839 -0.0448  0.1916 -0.2247
  579MOL0     C79802   4.176   6.405   5.779  0.3328  0.0075  0.5723
  579MOL0     C79803   4.123   6.548   5.812  1.4337 -0.2794 -0.5743
  579MOL0     C79804   3.982   6.560   5.740  0.1155 -0.5597 -0.7304
  579MOL0     C79805   3.939   6.704   5.751 -0.5425 -0.4720 -0.0316
  579MOL0     C79806   4.023   6.799   5.656  0.7998  0.2625 -0.0352
  579MOL0     C79807   3.931   6.912   5.585 -0.0413 -0.1106  0.7295
  579MOL0     C79808   3.871   7.018   5.685  0.5924 -1.0771  1.0104
  579MOL0    Cl79809   3.985   7.080   5.812 -0.2946  0.1031 -0.0103
  579MOL0     C79810   4.526   6.299   6.006 -0.8965 -0.0922  0.0820
  579MOL0     C79811   4.632   6.261   6.096 -0.3010 -0.0327 -0.5715
  579MOL0     O79812   4.654   5.985   6.262 -0.3755  0.2065  0.9185
  579MOL0     C79813   4.850   5.853   6.424  0.1841 -0.6272  1.0464
  579MOL0     C79814   4.948   5.804   6.515  0.9238 -0.5892  0.2188
  579MOL0     N79815   5.194   5.672   7.160 -0.3117 -0.3183 -0.3633
  579MOL0     N79816   5.131   5.617   7.259  0.8691  0.1461  0.3781
  579MOL0     C79817   4.035   5.024   6.930  0.3852 -0.4008  0.4232
  579MOL0     C79818   3.914   4.961   6.960  1.2305  0.7094  1.0559
  579MOL0     C79819   3.481   4.825   6.883 -1.0821  0.4336  0.1355
  579MOL0     C79820   3.469   4.766   7.016 -0.0444 -0.7439  0.3006
  579MOL0     C79821   3.385   4.656   7.032  1.1437  0.4024  0.0581
  579MOL0     C79822   3.310   4.607   6.934  0.0941 -0.6484 -0.2023
  579MOL0     O79823   3.227   4.508   6.955  0.3969 -0.2060  0.6099
  579MOL0     C79824   3.271   4.385   6.893 -0.1413 -0.1047  0.2406
  579MOL0     C79825   3.188   4.269   6.942 -0.2190  0.2855 -0.3959
  579MOL0     C79826   3.084   4.242   6.835  0.1252 -0.0895 -0.5607
  579MOL0     C79827   3.142   4.160   6.720  0.0982  0.0714  0.3575
  579MOL0     C79828   3.044   4.129   6.615  0.9645 -0.1187  0.5198
  579MOL0     C79829   2.952   4.111   6.544  0.1356 -0.3739  0.3077
  579MOL0     C79830   3.310   4.668   6.807 -0.1717  0.3769 -0.2015
  579MOL0     C79831   3.398   4.770   6.778  0.4837  0.0385  0.6201
  579MOL0     C79832   3.379   4.822   6.636  0.0652  0.6465  0.0640
  579MOL0     H79833   3.698   5.198   6.845 -1.6750 -0.0800  2.1900
  579MOL0     H79834   3.906   5.333   6.841  1.4061  0.4590 -1.0248
  579MOL0     H79835   4.103   5.376   7.019 -0.5641 -3.1579  0.5539
  579MOL0     H79836   4.107   5.424   6.853  1.3376  1.4328  0.9907
  579MOL0     H79837   4.361   5.393   6.843  2.6555  3.5687 -0.2100
  579MOL0     H79838   4.286   5.535   6.918  2.1365  0.8437 -0.9163
  579MOL0     H79839   4.334   5.431   7.159  3.2521  2.6627 -0.4365
  579MOL0     H79840   4.386   5.292   7.059  0.6392 -0.6746 -0.4247
  579MOL0     H79841   4.584   5.408   7.011  0.3281 -0.1371 -1.2160
  579MOL0     H79842   4.516   5.566   7.052  1.0355 -0.6600  0.7204
  579MOL0     H79843   4.555   5.360   7.246 -3.4257  0.0508 -3.2805
  579MOL0     H79844   4.538   5.529   7.290  2.4986 -1.6255  2.7910
  579MOL0     H79845   4.777   5.437   7.129  1.2265 -2.2643  2.0079
  579MOL0     H79846   4.746   5.607   7.183  0.0249 -0.3647 -3.0024
  579MOL0     H79847   4.786   5.369   7.382  0.9960  0.0840 -1.8096
  579MOL0     H79848   4.795   5.551   7.399 -3.0007  0.9586 -1.8012
  579MOL0     H79849   5.028   5.418   7.375  1.4390  1.3834 -0.4995
  579MOL0     H79850   4.948   5.339   7.238  0.5574  2.0919 -3.8415
  579MOL0     H79851   4.975   5.486   6.995  1.6448  2.8142 -2.9217
  579MOL0     H79852   5.100   5.761   6.882  2.3906  1.7269  1.1058
  579MOL0     H79853   5.147   5.591   6.830  1.8838 -0.0476 -0.4306
  579MOL0     H79854   5.323   5.823   6.938 -1.1263  0.4091 -0.3811
  579MOL0     H79855   5.383   5.659   6.924  3.0352  0.6539 -3.2054
  579MOL0     H79856   5.451   5.782   6.728  0.0519 -1.1572 -3.0140
  579MOL0     H79857   5.336   5.656   6.678 -1.3766 -1.8573  2.1212
  579MOL0     H79858   5.234   5.945   6.738 -2.5559 -1.3858  1.1590
  579MOL0     H79859   5.329   5.908   6.591 -1.0890  0.9559 -0.2213
  579MOL0     H79860   5.153   6.054   6.546  0.2022 -3.6482  2.5204
  579MOL0     H79861   4.912   6.290   6.439 -2.1143 -2.2888 -1.9138
  579MOL0     H79862   4.977   6.257   6.297 -1.8524 -0.0194  0.6425
  579MOL0     H79863   5.092   6.253   6.429  0.7814  1.9443  1.4103
  579MOL0     H79864   4.480   6.278   6.396  1.8131  2.4090 -0.6644
  579MOL0     H79865   4.288   6.330   6.257  1.1129  1.8918  0.3019
  579MOL0     H79866   4.372   6.444   5.795  0.9175  1.1064  2.5877
  579MOL0     H79867   4.346   6.277   5.799  0.5179  0.0095  0.7413
  579MOL0     H79868   4.186   6.393   5.670 -1.6244 -0.9588  0.4520
  579MOL0     H79869   4.106   6.321   5.787  0.1903 -0.3049 -2.5119
  579MOL0     H79870   4.193   6.630   5.793  0.4210  1.3130  2.0004
  579MOL0     H79871   4.090   6.560   5.916 -1.2014 -0.7005 -1.2827
  579MOL0     H79872   3.903   6.515   5.800 -0.0183  0.8935  0.2250
  579MOL0     H79873   3.982   6.530   5.635 -1.4129  2.0378 -1.5895
  579MOL0     H79874   3.830   6.706   5.743 -0.4928 -1.0431 -1.0469
  579MOL0     H79875   3.961   6.746   5.850 -2.0486  2.4178 -0.8044
  579MOL0     H79876   4.077   6.753   5.573 -0.4231 -0.4229 -0.4791
  579MOL0     H79877   4.109   6.836   5.712  0.4756 -0.5547  1.0341
  579MOL0     H79878   3.847   6.862   5.535 -1.1156 -0.0156  2.3468
  579MOL0     H79879   3.976   6.963   5.499 -1.5565 -0.1212 -0.1088
  579MOL0     H79880   3.789   6.969   5.739 -0.6236 -0.0644  0.1386
  579MOL0     H79881   3.845   7.106   5.626 -2.8277 -3.5865 -1.6726
  579MOL0     H79882   4.552   6.312   5.901  0.8706  1.2635  0.6491
  579MOL0     H79883   4.733   6.247   6.058  0.3855  0.8806  0.8198
  579MOL0     H79884   4.764   5.800   6.386  1.8447 -0.1203 -4.3329
  579MOL0     H79885   4.958   5.698   6.532  2.0769 -0.2905  1.6213
  579MOL0     H79886   4.123   4.972   6.968 -0.1630 -1.0567  0.8310
  579MOL0     H79887   3.897   4.860   6.998 -0.2900  1.2221  1.8081
  579MOL0     H79888   3.526   4.801   7.102 -0.8078  3.2044 -0.6120
  579MOL0     H79889   3.372   4.608   7.129 -1.5881 -0.5822 -0.7136
  579MOL0     H79890   3.272   4.391   6.784  0.6674 -1.1285  0.1837
  579MOL0     H79891   3.376   4.377   6.922  0.2246  0.7086 -0.7989
  579MOL0     H79892   3.133   4.295   7.034 -0.0694 -2.7735  0.6885
  579MOL0     H79893   3.252   4.183   6.964 -0.4193  0.2801  0.2033
  579MOL0     H79894   3.016   4.181   6.896 -1.0419  1.5460 -0.1762
  579MOL0     H79895   3.037   4.337   6.811 -1.2823 -0.9570 -1.3450
  579MOL0     H79896   3.163   4.066   6.772 -0.0241  1.5165  3.2432
  579MOL0     H79897   3.220   4.215   6.668  3.4421 -3.6458  0.9846
  579MOL0     H79898   2.867   4.075   6.489  0.5653 -1.6113  0.4236
  579MOL0     H79899   3.232   4.632   6.741 -0.3019 -0.4921  0.4164
  579MOL0     H79900   3.479   4.825   6.592 -0.0981 -1.2943 -0.5478
  579MOL0     H79901   3.303   4.758   6.589 -1.7357  1.6726  1.4485
  579MOL0     H79902   3.337   4.922   6.626  0.5446  0.8136 -0.3308
  580MOL0     O79903  10.346   6.518   5.146 -0.2734  0.2862  0.6102
  580MOL0     C79904  10.428   6.449   5.209  0.7418  0.5811  0.2125
  580MOL0     O79905  10.413   6.321   5.244  0.2181 -0.2694 -0.6046
  580MOL0     C79906  10.295   6.254   5.257 -0.2560 -0.5368 -0.3695
  580MOL0     C79907  10.181   6.312   5.301  0.5957 -0.0534  0.0830
  580MOL0     C79908  10.064   6.238   5.325  0.1434  0.3324  1.3039
  580MOL0     C79909  10.060   6.099   5.316 -0.4258  0.0514  0.1045
  580MOL0     O79910   9.944   6.020   5.357 -0.4945  0.0505  0.0065
  580MOL0     C79911   9.818   6.037   5.292 -0.3251  0.4212 -0.1950
  580MOL0     C79912   9.701   6.062   5.395  0.3738  0.1001 -0.0038
  580MOL0     C79913   9.684   5.949   5.502 -0.6078 -0.1038 -0.3468
  580MOL0     C79914   9.549   5.967   5.576  0.6091 -0.4070  0.6042
  580MOL0     C79915   9.544   5.842   5.672  0.0247 -0.3397  0.4103
  580MOL0     C79916   9.606   5.886   5.806  0.1031 -0.3079 -0.6192
  580MOL0     C79917   9.605   5.768   5.917 -0.0838  0.1466  0.3729
  580MOL0     C79918   9.498   5.662   5.878 -0.3462 -0.4155  0.7178
  580MOL0     N79919   9.487   5.566   5.990 -0.0103 -0.0064  0.5657
  580MOL0     C79920   9.394   5.471   6.000  0.0539 -0.1061 -0.0358
  580MOL0     C79921   9.436   5.381   6.096  1.6672 -0.2162  0.4263
  580MOL0     C79922   9.338   5.274   6.135 -0.3878  0.6664  0.1676
  580MOL0     C79923   9.253   5.299   6.261  1.0645 -0.3855  0.2498
  580MOL0     C79924   9.130   5.376   6.225 -0.2477  0.7502  0.3792
  580MOL0     C79925   9.038   5.386   6.351 -0.0903 -0.3830 -0.2722
  580MOL0     O79926   8.969   5.261   6.383  0.5667 -0.0824  0.0237
  580MOL0     C79927   8.990   5.193   6.502  0.1208  0.4211 -0.6178
  580MOL0     C79928   8.901   5.095   6.543  0.2242  0.6155  0.1500
  580MOL0     C79929   8.918   5.038   6.673 -0.1176  0.4768 -0.5142
  580MOL0     C79930   8.812   4.941   6.710 -0.0310 -0.2275  0.6819
  580MOL0     C79931   9.024   5.075   6.761  0.2766 -0.4017 -0.0686
  580MOL0     C79932   9.041   5.018   6.890 -0.3238 -0.0615 -0.4413
  580MOL0     O79933   9.122   5.077   6.983  0.8374  0.2464  1.2188
  580MOL0     C79934   9.193   5.010   7.082 -0.0575  0.4603 -1.1031
  580MOL0     C79935   9.237   4.875   7.064  0.7679  1.0630 -0.2378
  580MOL0     C79936   9.307   4.809   7.164 -0.4609 -0.2723  0.0599
  580MOL0     C79937   9.331   4.870   7.282 -0.3099 -0.7988 -0.1441
  580MOL0     O79938   9.384   4.803   7.387  0.1543  0.1529 -0.3116
  580MOL0     C79939   9.524   4.787   7.383 -0.8897  0.4755  1.1832
  580MOL0     C79940   9.571   4.770   7.525 -0.1275 -0.3492 -0.5188
  580MOL0     C79941   9.717   4.741   7.543 -0.4945 -0.1474  0.1569
  580MOL0     C79942   9.800   4.858   7.591  0.2141  0.2726  0.2077
  580MOL0     C79943   9.951   4.843   7.581  0.0645 -0.7319  0.7120
  580MOL0     C79944   9.996   4.765   7.703  0.6842  0.2107 -0.5177
  580MOL0     C79945  10.140   4.732   7.703 -0.1661 -0.7295  0.1064
  580MOL0     C79946  10.170   4.621   7.809  0.4190  0.5099 -0.1175
  580MOL0    Cl79947  10.154   4.698   7.970  0.0331  0.2976  0.1222
  580MOL0     C79948   9.305   5.011   7.307 -1.5031  0.7616 -0.4622
  580MOL0     C79949   9.237   5.073   7.203  0.3933 -1.1824 -0.1207
  580MOL0     O79950   8.994   4.902   6.906 -0.3804 -0.5584  0.2887
  580MOL0     C79951   9.113   5.176   6.715 -0.0541  0.1689 -0.1762
  580MOL0     C79952   9.099   5.230   6.587  0.3071  0.5413 -0.6634
  580MOL0     N79953   9.550   5.433   6.147 -0.3281 -0.5488  0.6629
  580MOL0     N79954   9.587   5.541   6.077  0.5003 -0.9785  0.2892
  580MOL0     C79955  10.178   6.033   5.287 -0.5904 -0.1204  0.1251
  580MOL0     C79956  10.293   6.117   5.254  1.0644 -0.1789 -0.1666
  580MOL0     C79957  10.543   6.516   5.264  0.2892 -0.5946 -1.0148
  580MOL0     C79958  10.583   6.485   5.401  0.5550 -0.6147  0.4080
  580MOL0     C79959  10.678   6.564   5.459  0.5257 -0.0253  0.1231
  580MOL0     C79960  10.748   6.670   5.391  0.1672  0.1375  0.1685
  580MOL0     O79961  10.847   6.759   5.437  0.0870 -0.4052  0.6588
  580MOL0     C79962  10.857   6.755   5.580 -0.1596  0.0961  0.4221
  580MOL0     C79963  10.938   6.863   5.640 -0.0005  0.7082 -0.1465
  580MOL0     C79964  11.082   6.850   5.595  0.3590  0.0623 -0.2937
  580MOL0     C79965  11.155   6.970   5.657 -0.1994  0.5416 -0.2035
  580MOL0     C79966  11.286   6.953   5.608  0.1625 -0.6786 -0.0241
  580MOL0     C79967  11.401   6.947   5.569 -0.7381  0.1304 -0.1004
  580MOL0     C79968  10.715   6.676   5.250  0.4039 -0.6458 -1.0110
  580MOL0     C79969  10.619   6.605   5.189  1.5468  0.5194  0.2347
  580MOL0     C79970  10.610   6.622   5.035  0.1077 -0.0409 -0.4188
  580MOL0     H79971  10.185   6.419   5.318  2.1691  0.3690 -2.4038
  580MOL0     H79972   9.970   6.281   5.357 -0.8559  1.1060 -2.2330
  580MOL0     H79973   9.784   5.948   5.238 -0.0518  0.7371 -0.9048
  580MOL0     H79974   9.831   6.127   5.231 -1.1267  1.6124  1.3266
  580MOL0     H79975   9.725   6.155   5.448  1.2793  1.7293 -3.0467
  580MOL0     H79976   9.608   6.092   5.345  1.4006  3.4654 -0.1764
  580MOL0     H79977   9.691   5.849   5.457  2.0657 -1.1385  2.0538
  580MOL0     H79978   9.766   5.958   5.573 -1.4284  1.3940  0.4646
  580MOL0     H79979   9.551   6.058   5.636 -1.8810  1.7926 -2.3515
  580MOL0     H79980   9.465   5.962   5.506  0.9543 -1.3566  0.2380
  580MOL0     H79981   9.587   5.748   5.637  0.9925 -0.3555  1.5630
  580MOL0     H79982   9.437   5.821   5.682  0.6742 -4.5384  0.5894
  580MOL0     H79983   9.711   5.915   5.797 -0.2640  1.2312 -0.3797
  580MOL0     H79984   9.553   5.973   5.846  0.3205 -0.7535  0.6769
  580MOL0     H79985   9.594   5.814   6.016  0.8672  0.3756  0.3867
  580MOL0     H79986   9.703   5.718   5.920  0.5018  1.1174 -1.3853
  580MOL0     H79987   9.404   5.717   5.867 -0.4137 -0.4723  0.9957
  580MOL0     H79988   9.506   5.610   5.782 -1.0240 -1.5877  1.2651
  580MOL0     H79989   9.301   5.466   5.943  1.0157 -1.3923 -1.5633
  580MOL0     H79990   9.383   5.176   6.153 -2.7823 -0.7422 -1.0487
  580MOL0     H79991   9.282   5.244   6.046 -0.3287  1.5074 -0.1632
  580MOL0     H79992   9.228   5.204   6.308 -1.5004  0.3490  0.5270
  580MOL0     H79993   9.314   5.352   6.335  1.1907  1.7792 -1.2931
  580MOL0     H79994   9.158   5.479   6.200 -1.1285  1.4368  2.0665
  580MOL0     H79995   9.077   5.332   6.139  2.1619  3.7943 -2.9671
  580MOL0     H79996   9.103   5.429   6.428 -1.4079 -1.0596  1.2861
  580MOL0     H79997   8.952   5.449   6.329  0.4334  0.0776 -1.0443
  580MOL0     H79998   8.806   5.072   6.496 -1.4242  1.7248  2.6784
  580MOL0     H79999   8.780   4.946   6.814  1.6177 -1.3833  1.2858
  580MOL0     H80000   8.857   4.843   6.696 -1.5091 -1.1527  2.0969
  580MOL0     H80001   8.721   4.946   6.649 -0.2196  2.0704  1.0582
  580MOL0     H80002   9.216   4.823   6.972 -1.9559  2.3668 -0.4561
  580MOL0     H80003   9.339   4.706   7.161 -0.2286 -0.2401 -3.8415
  580MOL0     H80004   9.564   4.706   7.323  0.8199  0.4147  2.3286
  580MOL0     H80005   9.556   4.879   7.334 -0.9050  0.1218  0.5039
  580MOL0     H80006   9.542   4.852   7.591 -1.9931 -1.2788 -0.0917
  580MOL0     H80007   9.513   4.687   7.567 -0.8709 -0.2199 -1.2576
  580MOL0     H80008   9.749   4.694   7.449  1.0453  0.0110  0.5683
  580MOL0     H80009   9.729   4.659   7.614 -0.8120 -0.7868 -0.5165
  580MOL0     H80010   9.772   4.876   7.695  0.6861  2.7197 -0.0242
  580MOL0     H80011   9.774   4.947   7.533 -2.2590 -0.0991  0.6487
  580MOL0     H80012   9.992   4.803   7.488 -1.2785  1.8752 -1.1208
  580MOL0     H80013   9.983   4.948   7.581  0.2157 -0.7445 -1.1191
  580MOL0     H80014   9.933   4.676   7.705 -0.2755  0.8592  2.2174
  580MOL0     H80015   9.982   4.826   7.792 -1.8381  0.1237 -0.7850
  580MOL0     H80016  10.200   4.823   7.713 -1.4554  0.1117  0.5194
  580MOL0     H80017  10.181   4.697   7.608  4.5211  0.7831  1.3242
  580MOL0     H80018  10.272   4.583   7.802  0.5505  0.9816 -0.8172
  580MOL0     H80019  10.103   4.534   7.800  0.5209  0.0760  2.4815
  580MOL0     H80020   9.327   5.066   7.397 -0.5255 -0.9870  0.4102
  580MOL0     H80021   9.204   5.175   7.215  0.0481 -1.1969 -0.8818
  580MOL0     H80022   9.207   5.189   6.768  0.4298 -3.8552  0.2113
  580MOL0     H80023   9.180   5.300   6.567  0.9421  0.3460  1.0650
  580MOL0     H80024  10.189   5.925   5.284  0.2713 -0.0580  0.7494
  580MOL0     H80025  10.379   6.053   5.235 -1.5548 -4.3214  0.7008
  580MOL0     H80026  10.546   6.401   5.460  0.2953 -1.5731 -1.0521
  580MOL0     H80027  10.698   6.543   5.564  1.4593  3.1150  0.6798
  580MOL0     H80028  10.757   6.757   5.624 -1.7233  1.5944 -2.8535
  580MOL0     H80029  10.906   6.660   5.604  0.7946  0.6955  0.9218
  580MOL0     H80030  10.947   6.837   5.746  2.3444 -0.7234 -0.6301
  580MOL0     H80031  10.891   6.962   5.635 -2.3796 -0.4016 -3.1456
  580MOL0     H80032  11.123   6.756   5.631 -0.0859  0.0825  0.2794
  580MOL0     H80033  11.089   6.837   5.487 -1.4753 -0.4319 -0.3848
  580MOL0     H80034  11.144   6.985   5.765 -0.9328 -1.0437 -0.0279
  580MOL0     H80035  11.113   7.062   5.615  1.4501  0.5266 -1.9991
  580MOL0     H80036  11.500   6.945   5.529 -0.5506  1.5946  0.2348
  580MOL0     H80037  10.775   6.742   5.188 -1.8883 -1.2568 -4.0739
  580MOL0     H80038  10.705   6.651   4.988  0.3084  0.5425  0.3160
  580MOL0     H80039  10.570   6.531   4.991  0.4173 -1.3304  1.7914
  580MOL0     H80040  10.537   6.698   5.006  1.6541  0.5983 -2.9399
  581MOL0     O80041  10.730   5.080   5.917 -0.5494 -0.1201  0.5146
  581MOL0     C80042  10.662   5.073   6.016 -0.7505 -0.2766  0.2131
  581MOL0     O80043  10.535   5.115   6.031  0.1780  0.3658 -0.7763
  581MOL0     C80044  10.454   5.112   5.925  0.4937 -0.0843 -1.2926
  581MOL0     C80045  10.391   5.239   5.887 -0.4186  0.1809 -0.5896
  581MOL0     C80046  10.283   5.226   5.798  0.8338 -0.2764 -0.0782
  581MOL0     C80047  10.236   5.108   5.756 -0.6040 -0.9208  0.0782
  581MOL0     O80048  10.130   5.115   5.666  0.4289 -0.2883 -1.0097
  581MOL0     C80049  10.087   5.002   5.596 -0.7184 -0.3637 -0.5219
  581MOL0     C80050   9.989   5.045   5.476  1.1503  0.8397  0.7466
  581MOL0     C80051  10.059   5.116   5.356 -0.1549  0.3583  0.2634
  581MOL0     C80052  10.145   5.235   5.375 -1.1372  0.7151  0.5812
  581MOL0     C80053  10.287   5.179   5.403  0.7466  0.1381 -0.0351
  581MOL0     C80054  10.385   5.292   5.415  0.0089  0.1867 -0.0315
  581MOL0     C80055  10.520   5.263   5.465 -0.0205  0.3317  1.1199
  581MOL0     C80056  10.623   5.371   5.430  0.4532  0.5621 -0.1025
  581MOL0     N80057  10.735   5.387   5.523  0.7444  0.2429 -0.1727
  581MOL0     C80058  10.745   5.351   5.652 -0.1451 -0.1612 -1.4084
  581MOL0     C80059  10.866   5.406   5.689 -1.2389  0.9149 -0.8453
  581MOL0     C80060  10.909   5.403   5.833 -0.5322  0.8944 -0.5586
  581MOL0     C80061  11.034   5.479   5.848 -1.1381 -0.5747 -1.2127
  581MOL0     C80062  11.070   5.484   5.997 -0.3402  0.4148 -0.5362
  581MOL0     C80063  11.217   5.510   6.014 -0.8071  0.4511  0.4264
  581MOL0     O80064  11.259   5.643   5.980 -0.0366  0.2297  0.9334
  581MOL0     C80065  11.229   5.756   6.049  0.3027 -0.1902 -0.8114
  581MOL0     C80066  11.149   5.754   6.166  0.4040 -0.4567  0.4613
  581MOL0     C80067  11.135   5.873   6.240  0.7430  0.5168  0.1739
  581MOL0     C80068  11.059   5.860   6.369 -0.7738 -0.1275 -0.4826
  581MOL0     C80069  11.173   5.994   6.184 -0.6713 -0.3103 -0.5628
  581MOL0     C80070  11.136   6.124   6.240  0.1961 -0.3224  0.3475
  581MOL0     O80071  11.233   6.221   6.238 -0.5866 -0.4313  0.3074
  581MOL0     C80072  11.234   6.319   6.339  0.2031  0.6201 -0.4897
  581MOL0     C80073  11.126   6.409   6.360  0.1017 -0.2066  0.6960
  581MOL0     C80074  11.135   6.507   6.454  0.5712 -1.1254  0.1290
  581MOL0     C80075  11.245   6.506   6.539 -0.5100 -0.2945 -0.4563
  581MOL0     O80076  11.254   6.596   6.642 -0.0442  0.5709 -0.1666
  581MOL0     C80077  11.146   6.668   6.707 -0.0282  0.6505 -0.0046
  581MOL0     C80078  11.206   6.723   6.843 -0.3195  0.4251  0.1042
  581MOL0     C80079  11.091   6.776   6.933 -0.0467  0.4349  0.8916
  581MOL0     C80080  11.125   6.803   7.085 -0.0972 -0.8166  0.3757
  581MOL0     C80081  11.175   6.944   7.105  0.4871  0.2420 -0.0533
  581MOL0     C80082  11.178   6.986   7.248 -0.4039 -0.3176 -0.9215
  581MOL0     C80083  11.194   7.134   7.265 -1.0148 -0.0103  1.0336
  581MOL0     C80084  11.222   7.182   7.411  0.3697  0.0212  0.3445
  581MOL0    Cl80085  11.361   7.100   7.488 -0.4112 -0.7182 -0.1281
  581MOL0     C80086  11.347   6.408   6.528 -0.0087 -0.1472 -0.0840
  581MOL0     C80087  11.345   6.322   6.420  1.4121 -0.3132  0.1765
  581MOL0     O80088  11.026   6.137   6.285 -0.2066 -0.2876  0.3654
  581MOL0     C80089  11.253   6.000   6.064 -0.5963  0.7003  0.1263
  581MOL0     C80090  11.276   5.877   6.000  1.1609 -0.4625  0.6890
  581MOL0     N80091  10.930   5.475   5.588  0.1159 -0.2935 -0.2372
  581MOL0     N80092  10.841   5.475   5.495 -0.6732  0.3552  0.4519
  581MOL0     C80093  10.313   4.989   5.776 -0.4897 -0.3578 -0.2574
  581MOL0     C80094  10.415   4.991   5.870 -0.4602 -0.5320 -0.1210
  581MOL0     C80095  10.747   5.020   6.130 -0.7064 -0.3458  0.1103
  581MOL0     C80096  10.884   5.002   6.115  0.6858  0.3904 -0.8015
  581MOL0     C80097  10.963   4.958   6.226  0.3621  0.2473 -0.9047
  581MOL0     C80098  10.912   4.934   6.351 -0.1053 -0.1614  0.6071
  581MOL0     O80099  10.992   4.864   6.431 -0.1267  0.3792  1.0550
  581MOL0     C80100  10.954   4.860   6.571  0.4569 -0.7871  0.2106
  581MOL0     C80101  11.048   4.786   6.655 -0.3613 -0.4590  0.5384
  581MOL0     C80102  11.018   4.796   6.805  0.4196 -0.6915 -0.1493
  581MOL0     C80103  11.083   4.690   6.894  0.4919  0.0546 -0.1020
  581MOL0     C80104  11.232   4.689   6.891 -0.1609 -0.0890 -0.3686
  581MOL0     C80105  11.353   4.699   6.899  0.4908  0.1548 -0.0914
  581MOL0     C80106  10.781   4.964   6.372 -0.9220 -0.8801  0.4224
  581MOL0     C80107  10.699   5.012   6.264  0.0926  0.3505 -0.0909
  581MOL0     C80108  10.551   5.023   6.303  0.5456  0.1548 -0.2183
  581MOL0     H80109  10.433   5.335   5.916  1.8381 -0.5269 -1.3141
  581MOL0     H80110  10.221   5.308   5.765 -0.1632 -0.7449  0.5938
  581MOL0     H80111  10.041   4.936   5.670  1.0375  0.3244  1.2503
  581MOL0     H80112  10.172   4.947   5.554 -1.3767 -0.3943 -1.8738
  581MOL0     H80113   9.942   4.951   5.445  0.9538  1.1619  0.0529
  581MOL0     H80114   9.908   5.105   5.518  0.4360 -0.1099  0.7546
  581MOL0     H80115  10.098   5.036   5.293  0.1741  0.0011  0.9117
  581MOL0     H80116   9.981   5.160   5.293  0.7555  0.4719 -0.8058
  581MOL0     H80117  10.154   5.296   5.284  1.5904 -2.5805 -1.6227
  581MOL0     H80118  10.105   5.293   5.458 -1.6099  0.8212  0.2858
  581MOL0     H80119  10.319   5.117   5.318 -2.2236  0.4006 -1.4699
  581MOL0     H80120  10.292   5.118   5.494  0.0047 -1.2386 -0.8920
  581MOL0     H80121  10.392   5.347   5.321  3.7735  0.4825  0.2631
  581MOL0     H80122  10.335   5.362   5.482 -3.2092 -1.5763 -0.4127
  581MOL0     H80123  10.549   5.167   5.420  0.4541 -0.0431  2.1803
  581MOL0     H80124  10.513   5.261   5.574  0.7600 -0.5775  1.1698
  581MOL0     H80125  10.672   5.336   5.338  0.9835  0.5995  0.1599
  581MOL0     H80126  10.567   5.464   5.417  1.8792  1.4059 -0.5672
  581MOL0     H80127  10.682   5.289   5.715 -0.9865  1.4897 -0.5875
  581MOL0     H80128  10.913   5.296   5.858 -2.6723  1.2003  1.5475
  581MOL0     H80129  10.829   5.445   5.896 -2.3797 -2.7531 -0.1776
  581MOL0     H80130  11.114   5.444   5.782 -0.6598  2.1567 -2.2175
  581MOL0     H80131  11.008   5.581   5.817  1.2562  1.7790  3.5431
  581MOL0     H80132  11.008   5.552   6.055  0.2058 -0.7428  1.4837
  581MOL0     H80133  11.047   5.383   6.032 -0.4985  0.7910  0.4668
  581MOL0     H80134  11.250   5.497   6.117 -1.6307  1.8784  0.8802
  581MOL0     H80135  11.268   5.439   5.947 -0.2104  0.3794  0.9409
  581MOL0     H80136  11.107   5.659   6.199  0.5114 -1.0723 -1.1354
  581MOL0     H80137  11.062   5.759   6.411  2.9431 -0.3855 -0.9975
  581MOL0     H80138  10.956   5.887   6.343 -0.4978  2.9357  1.1466
  581MOL0     H80139  11.082   5.932   6.448 -0.3932 -0.4598 -0.2906
  581MOL0     H80140  11.034   6.409   6.303 -1.1004  0.6940  2.5398
  581MOL0     H80141  11.053   6.579   6.456  0.9706 -0.6622 -0.0312
  581MOL0     H80142  11.095   6.735   6.637  2.5034  0.2797 -2.3763
  581MOL0     H80143  11.080   6.587   6.741  1.9455 -0.3874  1.5857
  581MOL0     H80144  11.248   6.640   6.900 -0.1006  0.1023 -0.5181
  581MOL0     H80145  11.291   6.790   6.830  1.9944 -1.6460  3.0570
  581MOL0     H80146  11.010   6.703   6.930 -0.8172  1.2869  0.3658
  581MOL0     H80147  11.056   6.868   6.885 -3.0818 -0.4543  1.2064
  581MOL0     H80148  11.195   6.727   7.124 -1.4813 -1.4449  1.7349
  581MOL0     H80149  11.037   6.798   7.149  0.5587  2.1292  1.6666
  581MOL0     H80150  11.274   6.958   7.062 -0.5328  0.0895 -2.5942
  581MOL0     H80151  11.112   7.015   7.051 -0.0649  2.4037  3.1097
  581MOL0     H80152  11.255   6.931   7.304 -0.5148  0.6762  0.2461
  581MOL0     H80153  11.077   6.970   7.287 -0.1139  1.0509  0.4617
  581MOL0     H80154  11.101   7.179   7.231 -0.7541  0.0581  0.3828
  581MOL0     H80155  11.279   7.174   7.208 -1.5006  2.3723  1.8713
  581MOL0     H80156  11.138   7.156   7.477 -0.0234  0.5522  0.0610
  581MOL0     H80157  11.246   7.288   7.399  1.6550 -0.4399 -1.4373
  581MOL0     H80158  11.433   6.399   6.594 -0.1619  0.3249  0.1803
  581MOL0     H80159  11.430   6.259   6.396 -0.1870 -2.0652 -1.1814
  581MOL0     H80160  11.269   6.092   6.009 -0.5012 -0.3412 -1.6636
  581MOL0     H80161  11.336   5.884   5.910  0.1323  3.0543  0.1240
  581MOL0     H80162  10.289   4.896   5.726 -2.5817  0.2802 -0.5350
  581MOL0     H80163  10.475   4.909   5.910  0.4188  1.1716  2.2790
  581MOL0     H80164  10.940   5.032   6.027  1.9225  2.8457  0.7050
  581MOL0     H80165  11.067   4.938   6.200  0.4601 -1.2112  0.4531
  581MOL0     H80166  10.954   4.963   6.606 -1.0938 -0.0195 -1.8468
  581MOL0     H80167  10.852   4.823   6.588  0.0723  0.4648  0.7702
  581MOL0     H80168  11.140   4.837   6.625 -0.3498 -0.8211 -0.0585
  581MOL0     H80169  11.058   4.685   6.614  1.1361  0.3497 -1.2500
  581MOL0     H80170  11.037   4.899   6.836 -1.7513  0.1851 -1.4943
  581MOL0     H80171  10.911   4.779   6.821  0.7429 -1.6696  1.1078
  581MOL0     H80172  11.049   4.597   6.847 -3.1318  1.3640 -0.3656
  581MOL0     H80173  11.042   4.699   6.995 -2.9210 -3.6328 -0.8961
  581MOL0     H80174  11.459   4.714   6.908  0.5156  1.7496 -2.2318
  581MOL0     H80175  10.728   4.943   6.464 -2.1851  0.1279 -0.0434
  581MOL0     H80176  10.486   4.957   6.246  0.2190 -0.5619  0.9551
  581MOL0     H80177  10.538   5.006   6.410 -3.0331 -3.0600 -0.9259
  581MOL0     H80178  10.518   5.124   6.277 -1.8620 -1.5311 -4.6598
  582MOL0     O80179   2.067   2.714  11.187  0.5625 -0.0259  0.2723
  582MOL0     C80180   2.101   2.819  11.126  0.1805 -0.7197 -0.3820
  582MOL0     O80181   2.227   2.850  11.099  0.6826  0.4770  0.7899
  582MOL0     C80182   2.335   2.766  11.132  0.4779  0.1413  0.2162
  582MOL0     C80183   2.374   2.739  11.261  0.2583  0.2350  0.5023
  582MOL0     C80184   2.493   2.678  11.294 -0.6594  0.0421 -0.0585
  582MOL0     C80185   2.560   2.623  11.197 -0.4370 -0.8195 -1.0392
  582MOL0     O80186   2.665   2.544  11.234  0.3385  0.9114 -0.5568
  582MOL0     C80187   2.625   2.411  11.255  0.7583 -0.1617 -0.4742
  582MOL0     C80188   2.733   2.306  11.242 -0.3055 -0.5724  0.3887
  582MOL0     C80189   2.691   2.163  11.259 -0.4091  1.0202  0.1519
  582MOL0     C80190   2.693   2.130  11.405 -0.3426  0.5837 -1.0217
  582MOL0     C80191   2.837   2.080  11.450  0.7700  0.3498  0.4976
  582MOL0     C80192   2.852   2.041  11.593  0.4511  0.9394 -0.8418
  582MOL0     C80193   2.978   1.963  11.628 -0.2172  0.3352 -0.2106
  582MOL0     C80194   3.031   1.973  11.778  0.7650 -0.0674  0.4643
  582MOL0     N80195   3.128   1.858  11.800  0.7438 -0.7615 -0.4927
  582MOL0     C80196   3.261   1.848  11.755 -0.1428  0.6964  0.0733
  582MOL0     C80197   3.301   1.740  11.821 -0.0392 -0.1058  1.1404
  582MOL0     C80198   3.439   1.691  11.819  0.6815  0.0656  0.6676
  582MOL0     C80199   3.489   1.668  11.959 -0.3264 -0.6480  0.0704
  582MOL0     C80200   3.635   1.621  11.949  0.0242  0.0665 -0.6396
  582MOL0     C80201   3.730   1.709  12.025 -0.1584  0.7236 -0.0996
  582MOL0     O80202   3.684   1.702  12.165 -0.1072 -0.0564 -0.0661
  582MOL0     C80203   3.784   1.674  12.255 -0.1836  0.3189 -0.5388
  582MOL0     C80204   3.763   1.571  12.348 -0.4308 -0.4382  0.6398
  582MOL0     C80205   3.861   1.536  12.444  0.6949  0.2049 -0.1116
  582MOL0     C80206   3.812   1.429  12.543 -0.6210  0.4511  0.1327
  582MOL0     C80207   3.981   1.613  12.461 -0.5631 -0.1581  0.6324
  582MOL0     C80208   4.096   1.580  12.541 -1.1754 -0.1261 -0.0911
  582MOL0     O80209   4.204   1.673  12.534  0.6766  0.9710  0.2977
  582MOL0     C80210   4.329   1.625  12.564  0.6492 -0.3780 -0.1813
  582MOL0     C80211   4.375   1.487  12.583  0.1560 -0.1271 -1.0237
  582MOL0     C80212   4.514   1.465  12.614  0.1682 -0.2835 -0.0655
  582MOL0     C80213   4.609   1.570  12.612  0.7968  0.4314 -0.3590
  582MOL0     O80214   4.742   1.539  12.602  0.1710 -0.6180  0.1724
  582MOL0     C80215   4.781   1.403  12.546  0.1948  0.1824 -1.0214
  582MOL0     C80216   4.930   1.424  12.507  0.3748 -0.4971 -0.8092
  582MOL0     C80217   4.949   1.521  12.386 -0.8012  1.2120  0.1382
  582MOL0     C80218   5.105   1.542  12.362 -0.2154  0.0143  0.7663
  582MOL0     C80219   5.147   1.604  12.221  0.3566 -0.3959  0.3061
  582MOL0     C80220   5.106   1.752  12.215  0.1219  0.4017 -0.0917
  582MOL0     C80221   5.174   1.813  12.092 -0.0108  0.2923  0.6256
  582MOL0     C80222   5.313   1.875  12.100  0.1343  0.4314 -0.1856
  582MOL0    Cl80223   5.398   1.830  12.249  0.0620 -0.2126 -0.2492
  582MOL0     C80224   4.569   1.698  12.594 -0.7256 -0.2442  1.4077
  582MOL0     C80225   4.432   1.731  12.574  0.5315 -0.3706 -0.0862
  582MOL0     O80226   4.095   1.473  12.604  0.7052 -0.7063  0.5218
  582MOL0     C80227   3.989   1.728  12.377 -0.0579  0.3257  0.2676
  582MOL0     C80228   3.900   1.746  12.273 -0.2578  0.0557 -0.0513
  582MOL0     N80229   3.196   1.686  11.888  0.2663  0.7922 -0.1900
  582MOL0     N80230   3.096   1.755  11.885  0.3458 -0.2826 -0.3674
  582MOL0     C80231   2.518   2.642  11.071 -0.1531  0.6581  1.4486
  582MOL0     C80232   2.414   2.715  11.032  0.0532  0.4361  0.0010
  582MOL0     C80233   1.998   2.926  11.084 -0.7327 -0.8105 -0.5371
  582MOL0     C80234   2.047   3.052  11.042  0.0158  1.0102  0.6377
  582MOL0     C80235   1.955   3.152  11.015  0.4359  0.3080 -0.3574
  582MOL0     C80236   1.818   3.133  11.015 -0.3479  0.0510  1.0316
  582MOL0     O80237   1.728   3.226  10.983 -0.6246 -0.9132 -0.3600
  582MOL0     C80238   1.598   3.210  10.919  0.3396  0.8014 -0.5688
  582MOL0     C80239   1.566   3.289  10.788 -0.5777  0.0824  0.1933
  582MOL0     C80240   1.679   3.267  10.678 -0.8652  0.2688 -0.4818
  582MOL0     C80241   1.685   3.358  10.561  0.3270  0.0815 -0.3321
  582MOL0     C80242   1.731   3.498  10.597  0.8677 -0.3265  0.4318
  582MOL0     C80243   1.739   3.615  10.623 -0.6361 -0.1004  0.2557
  582MOL0     C80244   1.772   3.005  11.057  0.4073  0.0173 -1.1759
  582MOL0     C80245   1.856   2.899  11.090  0.6648 -0.2650 -0.3432
  582MOL0     C80246   1.779   2.767  11.132 -0.2877  0.2447  1.1325
  582MOL0     H80247   2.301   2.765  11.337 -0.6536  0.0484 -0.2962
  582MOL0     H80248   2.520   2.665  11.398  4.5389  1.9066 -0.8554
  582MOL0     H80249   2.550   2.390  11.179 -1.0408  0.7016  0.9860
  582MOL0     H80250   2.583   2.398  11.355  0.5472 -1.1234 -0.6854
  582MOL0     H80251   2.764   2.316  11.138 -0.7284  0.7213  0.3744
  582MOL0     H80252   2.820   2.332  11.303 -0.2658 -1.3810  0.6946
  582MOL0     H80253   2.591   2.144  11.219 -0.8216  0.4693  1.4122
  582MOL0     H80254   2.760   2.094  11.211  3.9639  2.1144  4.1058
  582MOL0     H80255   2.671   2.218  11.466  0.8000 -0.7799  1.5018
  582MOL0     H80256   2.620   2.051  11.421 -0.5401  0.9179 -0.2370
  582MOL0     H80257   2.916   2.152  11.426 -1.9286  2.4616 -3.1824
  582MOL0     H80258   2.856   1.987  11.396  1.8157  0.8401  0.0004
  582MOL0     H80259   2.838   2.126  11.661  1.1376  1.7448 -1.6885
  582MOL0     H80260   2.775   1.965  11.614  0.4690  0.8691 -1.0320
  582MOL0     H80261   3.054   1.998  11.558 -1.4294  0.3292 -1.5660
  582MOL0     H80262   2.971   1.855  11.609  1.5087 -0.0472  1.0773
  582MOL0     H80263   3.088   2.067  11.786  0.0507  0.3520  0.7235
  582MOL0     H80264   2.960   1.992  11.858 -0.3969  1.2838 -0.8357
  582MOL0     H80265   3.318   1.914  11.690 -1.8017 -0.9120 -3.2650
  582MOL0     H80266   3.499   1.770  11.771  1.1870 -0.8947 -0.3226
  582MOL0     H80267   3.448   1.598  11.762  2.9115  0.1918  0.7036
  582MOL0     H80268   3.488   1.767  12.005  4.3856 -1.7500  3.2204
  582MOL0     H80269   3.428   1.602  12.021 -0.0021  0.3028  1.4541
  582MOL0     H80270   3.640   1.523  11.998 -2.1433 -0.6129 -1.6615
  582MOL0     H80271   3.674   1.595  11.850 -1.9689 -2.8115 -0.8068
  582MOL0     H80272   3.829   1.663  12.019  0.2001  1.3820  0.6508
  582MOL0     H80273   3.718   1.814  11.996 -0.6110  0.8940  0.6684
  582MOL0     H80274   3.678   1.506  12.333  0.5470 -1.2159 -2.3975
  582MOL0     H80275   3.845   1.443  12.647  3.2220 -0.4868 -0.8095
  582MOL0     H80276   3.852   1.337  12.498 -1.1006  0.4439 -0.2846
  582MOL0     H80277   3.703   1.436  12.540 -0.7411  0.5379  2.4698
  582MOL0     H80278   4.305   1.404  12.582 -0.8752  0.6980 -0.1045
  582MOL0     H80279   4.553   1.366  12.635 -0.0988 -0.8315 -1.8976
  582MOL0     H80280   4.772   1.320  12.616  3.3082  1.1382  0.7502
  582MOL0     H80281   4.717   1.375  12.462 -1.1488  2.3326 -0.7911
  582MOL0     H80282   4.980   1.466  12.595 -0.2364  1.2464 -1.2671
  582MOL0     H80283   4.980   1.329  12.486  0.3945 -0.9166  0.9547
  582MOL0     H80284   4.901   1.618  12.403 -2.8925 -0.3605  5.3065
  582MOL0     H80285   4.892   1.466  12.310  0.2416 -1.3529  1.0862
  582MOL0     H80286   5.152   1.443  12.361  1.0514  0.2417 -5.9811
  582MOL0     H80287   5.151   1.586  12.451  4.7442 -0.7159 -1.0914
  582MOL0     H80288   5.256   1.599  12.208 -0.0004 -3.9395 -3.2480
  582MOL0     H80289   5.107   1.541  12.142  3.6806 -0.7344 -1.2678
  582MOL0     H80290   5.144   1.805  12.303  0.5129 -0.3090  0.1844
  582MOL0     H80291   4.997   1.762  12.212 -0.1644 -2.1139  0.0632
  582MOL0     H80292   5.110   1.883  12.038  1.2936  1.5266  0.6454
  582MOL0     H80293   5.183   1.729  12.022 -1.2581  3.2637 -3.4954
  582MOL0     H80294   5.318   1.984  12.093  3.1791  0.2679 -3.3225
  582MOL0     H80295   5.370   1.831  12.018 -0.4333 -3.5977  1.3737
  582MOL0     H80296   4.646   1.774  12.590 -0.4983 -0.5297  0.0574
  582MOL0     H80297   4.398   1.831  12.548  1.6478 -0.0602 -0.4265
  582MOL0     H80298   4.072   1.799  12.382 -0.3639  0.8867 -1.6338
  582MOL0     H80299   3.921   1.832  12.210  2.2536  2.9251  4.1798
  582MOL0     H80300   2.588   2.592  11.005 -4.2732 -4.1068  0.0483
  582MOL0     H80301   2.382   2.726  10.929 -1.4633 -1.3901  0.2202
  582MOL0     H80302   2.154   3.068  11.032  0.6949 -3.1886 -0.9904
  582MOL0     H80303   1.996   3.247  10.985  2.1521 -0.3881 -0.3537
  582MOL0     H80304   1.586   3.105  10.889  0.7104 -0.3669  2.9078
  582MOL0     H80305   1.525   3.241  10.994 -2.2574 -1.9885 -1.7433
  582MOL0     H80306   1.566   3.397  10.806  0.7102  0.5506 -2.2001
  582MOL0     H80307   1.465   3.263  10.756 -1.3501  0.8409  1.9065
  582MOL0     H80308   1.773   3.281  10.733  0.3318  3.3064 -2.9853
  582MOL0     H80309   1.667   3.163  10.645  2.1450 -0.7007  1.0719
  582MOL0     H80310   1.587   3.352  10.513 -0.2078 -0.7304  0.8098
  582MOL0     H80311   1.753   3.325  10.481  1.2251 -0.1105  0.4843
  582MOL0     H80312   1.729   3.717  10.655  4.0797  0.3330  1.1169
  582MOL0     H80313   1.664   2.998  11.068  0.4994 -0.5197 -0.5746
  582MOL0     H80314   1.769   2.770  11.241  0.2664 -1.6532  1.2730
  582MOL0     H80315   1.693   2.774  11.065  1.3916  0.9947 -1.0703
  582MOL0     H80316   1.838   2.678  11.110 -1.0639  0.1676 -0.8771
  583MOL0     O80317   2.505  10.132   2.785 -0.3083 -0.4791 -0.2191
  583MOL0     C80318   2.536  10.227   2.721 -0.1467  0.3984 -0.9923
  583MOL0     O80319   2.639  10.308   2.748  0.0761  0.5935  0.1804
  583MOL0     C80320   2.738  10.273   2.842  1.0317  0.2504 -0.7919
  583MOL0     C80321   2.818  10.384   2.876 -0.1922 -0.0971  0.8044
  583MOL0     C80322   2.923  10.385   2.964 -0.1689 -0.4662  1.0749
  583MOL0     C80323   2.950  10.271   3.029  0.4136 -1.3040 -0.4072
  583MOL0     O80324   3.036  10.271   3.142 -0.2228 -0.2477  0.5237
  583MOL0     C80325   3.130  10.165   3.167 -0.2608 -0.6532  0.2639
  583MOL0     C80326   3.196  10.184   3.305 -0.6902  0.1814  0.8454
  583MOL0     C80327   3.286  10.300   3.316 -0.3044 -0.5693  0.3144
  583MOL0     C80328   3.213  10.432   3.351  0.5088  1.0322 -0.2827
  583MOL0     C80329   3.318  10.552   3.363  0.5274  0.1383  0.1876
  583MOL0     C80330   3.389  10.578   3.221  0.2807 -0.3078 -1.9368
  583MOL0     C80331   3.538  10.551   3.246 -0.0207 -1.1434 -0.0780
  583MOL0     C80332   3.612  10.529   3.118  0.3039  0.7897  0.0080
  583MOL0     N80333   3.592  10.641   3.031  0.4995  0.2265 -0.2089
  583MOL0     C80334   3.534  10.641   2.909  0.3469 -0.2077  0.1616
  583MOL0     C80335   3.539  10.770   2.865 -0.4981 -0.4401 -0.2181
  583MOL0     C80336   3.488  10.829   2.741 -0.0966  0.3173 -0.0279
  583MOL0     C80337   3.382  10.747   2.677 -0.3142  0.6113 -0.2712
  583MOL0     C80338   3.344  10.804   2.545  1.0511 -0.5778 -0.3062
  583MOL0     C80339   3.219  10.736   2.475 -0.2615  0.0571  0.3697
  583MOL0     O80340   3.100  10.777   2.549 -0.4216 -0.0292 -0.0584
  583MOL0     C80341   2.976  10.763   2.491  0.5181  0.1906  0.4770
  583MOL0     C80342   2.860  10.782   2.570 -0.2528  0.8769  0.0380
  583MOL0     C80343   2.734  10.777   2.516 -0.4270  0.3195  1.4693
  583MOL0     C80344   2.614  10.798   2.598 -0.9897 -0.0235  0.4461
  583MOL0     C80345   2.722  10.751   2.373 -0.5941 -0.9335  0.2053
  583MOL0     C80346   2.588  10.741   2.295 -0.7205  0.3491 -0.6825
  583MOL0     O80347   2.587  10.642   2.208 -1.1517 -0.0472  0.9635
  583MOL0     C80348   2.489  10.641   2.120  0.6317  0.4175  1.0074
  583MOL0     C80349   2.539  10.635   1.983  0.1674 -0.9280  0.4012
  583MOL0     C80350   2.448  10.622   1.872 -0.2153  0.1692 -0.4614
  583MOL0     C80351   2.317  10.609   1.893 -0.9846  0.5050  0.0814
  583MOL0     O80352   2.226  10.583   1.792  0.7157 -0.4257  0.3809
  583MOL0     C80353   2.236  10.679   1.689 -0.5135  0.6529 -0.0930
  583MOL0     C80354   2.135  10.652   1.588 -1.2699  0.2046 -0.2856
  583MOL0     C80355   1.995  10.601   1.626 -0.7854 -0.1379  0.3743
  583MOL0     C80356   1.904  10.580   1.504 -0.3107  0.6411  0.4371
  583MOL0     C80357   1.758  10.541   1.543 -0.5427 -0.4568 -0.2589
  583MOL0     C80358   1.659  10.549   1.426  0.7637  0.0095 -0.3471
  583MOL0     C80359   1.686  10.676   1.331 -1.4993  0.1900 -0.2344
  583MOL0     C80360   1.561  10.716   1.259  0.2242 -0.5793  0.2474
  583MOL0    Cl80361   1.603  10.846   1.145 -0.2472 -0.2981  0.1480
  583MOL0     C80362   2.276  10.607   2.028  0.6830 -0.9437 -0.7115
  583MOL0     C80363   2.359  10.619   2.142  0.0268 -0.9535 -0.6403
  583MOL0     O80364   2.499  10.819   2.316  0.6064 -0.3495  0.0672
  583MOL0     C80365   2.835  10.733   2.298 -0.0038  0.2450  0.2674
  583MOL0     C80366   2.953  10.733   2.353 -0.0810 -0.8391  0.5497
  583MOL0     N80367   3.618  10.842   2.946 -0.7618 -0.0701 -0.0197
  583MOL0     N80368   3.645  10.768   3.053 -0.0613 -0.4340  0.1138
  583MOL0     C80369   2.871  10.164   2.996 -0.0650  0.9691 -0.5178
  583MOL0     C80370   2.769  10.154   2.907  0.5776 -0.4629  0.2590
  583MOL0     C80371   2.446  10.254   2.609  0.6149 -0.2838  0.8954
  583MOL0     C80372   2.317  10.190   2.610 -0.0938 -0.5479  0.0422
  583MOL0     C80373   2.216  10.211   2.514 -0.1644 -0.8436 -0.5841
  583MOL0     C80374   2.241  10.289   2.400  1.0237  0.6439 -0.1874
  583MOL0     O80375   2.138  10.301   2.306  0.6250  0.2954 -0.0233
  583MOL0     C80376   2.150  10.269   2.166  0.6422  0.2727  0.1663
  583MOL0     C80377   2.136  10.117   2.143  1.7504 -0.3774  0.7081
  583MOL0     C80378   2.003  10.056   2.185 -0.0009  0.4236 -0.1977
  583MOL0     C80379   2.000   9.902   2.155  0.1553 -0.2847 -0.6128
  583MOL0     C80380   1.864   9.853   2.180 -0.6494 -0.7786  0.6368
  583MOL0     C80381   1.744   9.818   2.195  0.0353 -0.5338 -0.0233
  583MOL0     C80382   2.368  10.343   2.387 -0.0539 -0.2537  0.7379
  583MOL0     C80383   2.474  10.332   2.491 -0.7154 -0.6514 -0.6266
  583MOL0     C80384   2.603  10.404   2.470  0.1043 -0.1341  0.7241
  583MOL0     H80385   2.790  10.480   2.834 -2.1869 -1.7624 -2.0198
  583MOL0     H80386   2.968  10.481   2.985 -1.8370  1.0994 -1.7670
  583MOL0     H80387   3.209  10.165   3.090  0.5669 -1.4040  1.0860
  583MOL0     H80388   3.084  10.066   3.155 -0.7865 -0.3283 -0.4635
  583MOL0     H80389   3.122  10.198   3.384 -1.9258 -1.5204  0.0671
  583MOL0     H80390   3.250  10.096   3.341  0.3562 -0.0607 -1.1495
  583MOL0     H80391   3.368  10.284   3.387 -0.8386 -0.7298  0.9014
  583MOL0     H80392   3.335  10.316   3.220  2.4761  2.7343  2.0648
  583MOL0     H80393   3.139  10.457   3.274 -1.8410  1.3111  1.9479
  583MOL0     H80394   3.160  10.419   3.445 -0.9762 -0.4531 -1.2610
  583MOL0     H80395   3.386  10.536   3.447 -0.2144 -0.8198  0.6227
  583MOL0     H80396   3.250  10.636   3.381 -1.0579 -1.5083  2.3295
  583MOL0     H80397   3.340  10.520   3.143  0.4009 -2.4243 -0.5372
  583MOL0     H80398   3.378  10.683   3.195  0.3129 -0.5029 -2.7516
  583MOL0     H80399   3.549  10.466   3.314  0.8132 -0.6364  0.4393
  583MOL0     H80400   3.573  10.639   3.300 -0.8299 -0.2685 -0.9361
  583MOL0     H80401   3.719  10.510   3.130 -0.0674 -0.0787  2.6480
  583MOL0     H80402   3.560  10.447   3.067 -1.8331  1.9823  0.1850
  583MOL0     H80403   3.484  10.556   2.864  0.1335 -0.0538  0.1127
  583MOL0     H80404   3.570  10.837   2.668 -2.1614  0.1723 -2.5081
  583MOL0     H80405   3.445  10.928   2.758  0.1253  0.2250  1.1385
  583MOL0     H80406   3.423  10.649   2.652 -3.1833 -1.2610  1.7894
  583MOL0     H80407   3.288  10.722   2.727 -1.7515  1.0168 -2.6335
  583MOL0     H80408   3.324  10.912   2.552  2.6552  0.0413 -3.3659
  583MOL0     H80409   3.432  10.799   2.481  1.4686  2.8444 -0.1682
  583MOL0     H80410   3.222  10.768   2.371 -0.7799 -0.0210  0.3262
  583MOL0     H80411   3.220  10.627   2.481 -2.8788  0.0064  1.6769
  583MOL0     H80412   2.877  10.808   2.674 -3.1491  1.9837  0.3229
  583MOL0     H80413   2.544  10.714   2.593 -0.0243 -0.8160  0.1238
  583MOL0     H80414   2.570  10.895   2.570  1.8164  1.1799 -0.0888
  583MOL0     H80415   2.648  10.802   2.702 -2.0712 -1.5188  0.8807
  583MOL0     H80416   2.643  10.652   1.954 -0.6451  1.5481 -1.4276
  583MOL0     H80417   2.488  10.619   1.771 -1.5244 -1.5833 -0.9800
  583MOL0     H80418   2.223  10.780   1.730 -0.5778  1.6762 -2.4863
  583MOL0     H80419   2.332  10.672   1.638  0.0026  2.5205  0.5357
  583MOL0     H80420   2.117  10.742   1.528 -2.9500 -0.6161 -1.0826
  583MOL0     H80421   2.175  10.578   1.517  1.8278 -0.1517  1.6342
  583MOL0     H80422   1.946  10.661   1.703 -1.0801 -1.3925  1.2090
  583MOL0     H80423   2.009  10.499   1.665 -0.6933 -0.8429 -1.4075
  583MOL0     H80424   1.954  10.505   1.442 -0.8957  0.0493  0.6672
  583MOL0     H80425   1.912  10.669   1.441  1.3208 -2.2410 -3.8958
  583MOL0     H80426   1.766  10.440   1.584  1.8322 -0.2649 -0.1373
  583MOL0     H80427   1.731  10.619   1.614 -1.0867 -0.5804 -0.3278
  583MOL0     H80428   1.554  10.553   1.454  0.5391  1.4070 -1.3029
  583MOL0     H80429   1.668  10.451   1.378  0.1736 -0.2493  0.0542
  583MOL0     H80430   1.764  10.642   1.262 -0.2037  0.7837  0.8843
  583MOL0     H80431   1.729  10.752   1.397 -0.4202 -1.3781  0.9576
  583MOL0     H80432   1.487  10.746   1.334  0.3122  0.5924 -0.1301
  583MOL0     H80433   1.527  10.630   1.201  1.1212 -0.8024  0.0476
  583MOL0     H80434   2.171  10.581   2.037 -0.1430  1.9109 -1.0562
  583MOL0     H80435   2.325  10.615   2.245 -0.6611 -1.1698 -0.8696
  583MOL0     H80436   2.834  10.710   2.192 -0.3426  2.0853 -0.1658
  583MOL0     H80437   3.040  10.711   2.290  0.1003 -0.1361  0.5518
  583MOL0     H80438   2.896  10.079   3.058 -0.2827  0.7861 -0.6795
  583MOL0     H80439   2.713  10.066   2.877  0.1091  0.0978 -0.5693
  583MOL0     H80440   2.286  10.132   2.696 -3.4487  0.3311 -0.4271
  583MOL0     H80441   2.115  10.175   2.534 -1.0896  2.4303  1.3024
  583MOL0     H80442   2.080  10.335   2.114  1.7350  2.3987  1.2777
  583MOL0     H80443   2.245  10.299   2.121 -0.9285  2.6923 -1.7675
  583MOL0     H80444   2.219  10.060   2.185 -0.3737 -4.5010 -0.1129
  583MOL0     H80445   2.155  10.110   2.035  3.0456 -0.7424  0.9419
  583MOL0     H80446   1.982  10.074   2.291 -0.0244  0.4083 -0.1997
  583MOL0     H80447   1.925  10.109   2.129 -0.7643 -0.1929  0.2584
  583MOL0     H80448   2.063   9.847   2.225 -0.5952 -0.6734 -0.2302
  583MOL0     H80449   2.026   9.874   2.052  1.2608 -0.0400 -0.4139
  583MOL0     H80450   1.645   9.776   2.198  0.7125 -2.1592  1.3005
  583MOL0     H80451   2.387  10.405   2.299  1.4990 -3.1766 -1.1381
  583MOL0     H80452   2.594  10.495   2.529  1.4237 -0.9112  2.2148
  583MOL0     H80453   2.690  10.339   2.485 -1.1016 -1.9466  0.2544
  583MOL0     H80454   2.604  10.430   2.364 -2.1757 -0.2983  0.6079
  584MOL0     O80455   2.050   5.736   9.058  0.3051 -0.3993  0.3145
  584MOL0     C80456   2.103   5.724   9.166 -0.2260 -0.2560  0.1063
  584MOL0     O80457   2.049   5.656   9.270  0.2189  0.0917 -0.6359
  584MOL0     C80458   1.962   5.558   9.235 -0.1291  0.2751  0.1939
  584MOL0     C80459   1.993   5.427   9.198  0.5240  0.0740 -0.5182
  584MOL0     C80460   1.904   5.335   9.150  0.1116  0.7655 -0.8191
  584MOL0     C80461   1.769   5.367   9.156 -0.4023  0.1234  0.4491
  584MOL0     O80462   1.669   5.281   9.113  0.5660  0.4460 -0.0718
  584MOL0     C80463   1.695   5.184   9.003 -0.0372 -0.1864  0.7965
  584MOL0     C80464   1.562   5.109   8.993  0.5155 -0.0260  0.6367
  584MOL0     C80465   1.518   5.057   9.128  0.7955 -0.5515 -0.0373
  584MOL0     C80466   1.412   4.955   9.127  0.0006  0.4495 -0.6152
  584MOL0     C80467   1.286   4.988   9.212  0.2113  0.4252 -0.0301
  584MOL0     C80468   1.196   4.867   9.237 -0.1501  0.0598 -0.0848
  584MOL0     C80469   1.128   4.826   9.101  0.2422  0.9701  0.4292
  584MOL0     C80470   1.138   4.674   9.065  0.3208 -0.2513  0.4923
  584MOL0     N80471   1.280   4.636   9.033  0.6753 -0.3054 -0.7322
  584MOL0     C80472   1.374   4.579   9.116  0.5489 -0.3353 -0.2943
  584MOL0     C80473   1.482   4.569   9.037 -0.1632  0.7236 -0.1794
  584MOL0     C80474   1.617   4.502   9.081  0.6651 -0.2629  0.2960
  584MOL0     C80475   1.708   4.610   9.140 -1.2131 -0.2669  0.2861
  584MOL0     C80476   1.715   4.588   9.293  0.4813 -0.9616 -0.0412
  584MOL0     C80477   1.820   4.696   9.342  0.4123  0.1880  0.0112
  584MOL0     O80478   1.954   4.667   9.305  0.7391  0.2834  0.8023
  584MOL0     C80479   2.045   4.769   9.322 -0.5497  0.0303  0.3585
  584MOL0     C80480   2.156   4.743   9.254 -0.5370  0.8650  0.1218
  584MOL0     C80481   2.272   4.826   9.251  0.7658  0.5035  0.1086
  584MOL0     C80482   2.396   4.757   9.200 -0.8853  0.8227 -0.1242
  584MOL0     C80483   2.269   4.951   9.315  0.3341  0.5009  0.0121
  584MOL0     C80484   2.388   5.037   9.349 -0.5491  0.6554  0.5493
  584MOL0     O80485   2.376   5.129   9.435  0.7474 -0.2066 -1.2811
  584MOL0     C80486   2.469   5.226   9.451  0.0982 -0.3326  0.5121
  584MOL0     C80487   2.535   5.239   9.571 -0.1313 -0.5761 -0.1018
  584MOL0     C80488   2.648   5.320   9.594 -0.4600 -0.2440 -0.6809
  584MOL0     C80489   2.704   5.383   9.481  0.2800  0.4927  0.7234
  584MOL0     O80490   2.830   5.446   9.488 -0.2809  0.3029  0.3256
  584MOL0     C80491   2.913   5.437   9.372 -0.0700  0.0226  0.6730
  584MOL0     C80492   3.055   5.436   9.429 -0.1118  0.1415  0.7153
  584MOL0     C80493   3.081   5.578   9.472  1.5943 -0.6633 -0.2533
  584MOL0     C80494   3.218   5.607   9.535  1.5181 -0.1018  0.0354
  584MOL0     C80495   3.272   5.754   9.510  0.7869 -0.1795 -0.1982
  584MOL0     C80496   3.199   5.848   9.607 -0.6206 -0.2838  0.0531
  584MOL0     C80497   3.260   5.989   9.607  0.7224  0.1898  0.3825
  584MOL0     C80498   3.221   6.084   9.721 -0.2541 -0.2229  0.1981
  584MOL0    Cl80499   3.051   6.078   9.764 -0.0106 -0.0637 -0.1801
  584MOL0     C80500   2.636   5.378   9.354  0.5645  0.0303 -0.8512
  584MOL0     C80501   2.520   5.302   9.341 -0.5732  0.1131  0.6324
  584MOL0     O80502   2.480   5.024   9.275 -0.2118  0.4580 -0.1774
  584MOL0     C80503   2.149   4.975   9.391  0.2934 -0.5944 -0.0489
  584MOL0     C80504   2.034   4.888   9.389 -0.2024 -0.2787 -0.2573
  584MOL0     N80505   1.452   4.618   8.908 -0.6444 -0.2922  0.9670
  584MOL0     N80506   1.325   4.649   8.904 -0.0298 -0.0075 -0.1242
  584MOL0     C80507   1.726   5.499   9.175  0.4798  0.2124  0.2616
  584MOL0     C80508   1.824   5.588   9.221  1.0368  0.2364  0.2020
  584MOL0     C80509   2.235   5.788   9.198  0.1869 -0.0194  0.2049
  584MOL0     C80510   2.287   5.768   9.330  0.9950 -0.0302  0.4630
  584MOL0     C80511   2.406   5.829   9.369 -0.9371  0.9593  0.1816
  584MOL0     C80512   2.483   5.906   9.281  0.3733 -0.1949 -0.4558
  584MOL0     O80513   2.600   5.961   9.324 -0.4557 -0.3874 -0.6410
  584MOL0     C80514   2.677   5.890   9.418  1.0131 -0.1426  0.6369
  584MOL0     C80515   2.817   5.893   9.354 -0.0319 -0.5076  0.0487
  584MOL0     C80516   2.828   5.814   9.227 -0.5827 -0.1325  0.2303
  584MOL0     C80517   2.974   5.823   9.158 -0.5638  0.9611  0.1983
  584MOL0     C80518   3.013   5.697   9.089 -0.3643  0.1341 -0.0071
  584MOL0     C80519   3.042   5.602   9.023 -0.2027 -0.9436 -0.3802
  584MOL0     C80520   2.431   5.920   9.151 -0.7617  0.2258 -0.0696
  584MOL0     C80521   2.318   5.854   9.107  0.7540 -0.2493  0.2623
  584MOL0     C80522   2.293   5.854   8.961 -0.3864 -0.5991  0.6644
  584MOL0     H80523   2.098   5.401   9.187  0.6121 -2.6432  4.0708
  584MOL0     H80524   1.948   5.244   9.112 -2.0414 -0.1763 -1.2064
  584MOL0     H80525   1.774   5.113   9.027  0.2991  0.4394  1.5790
  584MOL0     H80526   1.699   5.229   8.903 -0.7140 -0.8238  0.4668
  584MOL0     H80527   1.486   5.178   8.955 -0.8562 -3.0816 -2.8515
  584MOL0     H80528   1.578   5.035   8.913 -2.4902  1.1331 -1.2336
  584MOL0     H80529   1.608   5.010   9.169  0.9168  0.2045  0.5860
  584MOL0     H80530   1.491   5.145   9.188 -0.7591  0.3865 -1.9976
  584MOL0     H80531   1.393   4.927   9.023  0.3850 -0.1128 -0.5381
  584MOL0     H80532   1.449   4.865   9.175 -4.5928 -0.5448  1.6677
  584MOL0     H80533   1.232   5.056   9.146 -2.4159  1.2654  2.7644
  584MOL0     H80534   1.314   5.029   9.310 -2.6922 -3.2041  2.6104
  584MOL0     H80535   1.253   4.781   9.274  1.2904  2.0986  2.8367
  584MOL0     H80536   1.126   4.889   9.318 -2.1810  1.4310 -2.0767
  584MOL0     H80537   1.158   4.884   9.014 -2.0124  0.3083 -0.8710
  584MOL0     H80538   1.022   4.848   9.117 -0.5215 -1.1268 -1.2821
  584MOL0     H80539   1.110   4.608   9.147  2.7434 -1.1663  0.6762
  584MOL0     H80540   1.074   4.649   8.980  2.7486 -0.3542 -1.4270
  584MOL0     H80541   1.367   4.552   9.220 -1.8499  2.3464  0.3714
  584MOL0     H80542   1.647   4.454   8.987 -2.8701  0.5761 -1.4235
  584MOL0     H80543   1.596   4.422   9.153  0.3940  0.6745  1.2761
  584MOL0     H80544   1.807   4.597   9.094 -0.9191  1.7756  0.2464
  584MOL0     H80545   1.667   4.709   9.118 -1.3346 -0.1394  1.0672
  584MOL0     H80546   1.618   4.606   9.339  0.4176  1.3612 -0.9419
  584MOL0     H80547   1.736   4.483   9.314 -3.5188 -2.3678 -1.9948
  584MOL0     H80548   1.776   4.791   9.311 -0.9122 -1.2895 -3.0915
  584MOL0     H80549   1.803   4.696   9.450 -2.6203 -1.6027 -0.3487
  584MOL0     H80550   2.150   4.647   9.204 -1.4996  1.7766 -1.5863
  584MOL0     H80551   2.381   4.764   9.092  1.6243  1.2722 -0.5045
  584MOL0     H80552   2.399   4.654   9.236 -2.6212  1.0320  0.7331
  584MOL0     H80553   2.494   4.799   9.225 -0.1068 -0.6790 -0.5307
  584MOL0     H80554   2.504   5.168   9.647 -0.4323 -3.2498 -2.5389
  584MOL0     H80555   2.684   5.325   9.697 -1.4929  4.0510 -0.3507
  584MOL0     H80556   2.899   5.343   9.317  0.4001  1.0322 -1.2516
  584MOL0     H80557   2.902   5.521   9.303  0.1363  0.0079  0.6211
  584MOL0     H80558   3.073   5.365   9.510 -1.4149 -3.3840 -1.8178
  584MOL0     H80559   3.133   5.413   9.355 -0.3757 -0.6820  0.6791
  584MOL0     H80560   3.002   5.615   9.539 -0.0055 -0.6303 -2.0618
  584MOL0     H80561   3.067   5.647   9.387  1.4294  0.8000  0.9112
  584MOL0     H80562   3.294   5.544   9.488  0.6669 -0.4828 -0.8730
  584MOL0     H80563   3.219   5.586   9.643  0.6697 -1.8549 -0.2508
  584MOL0     H80564   3.375   5.753   9.548  1.0162  2.8158 -0.4469
  584MOL0     H80565   3.281   5.781   9.404  2.3601  1.2770  0.2656
  584MOL0     H80566   3.223   5.814   9.708 -0.1845  2.0969  0.8175
  584MOL0     H80567   3.091   5.845   9.590 -1.2589  2.1409  2.8696
  584MOL0     H80568   3.243   6.042   9.513  2.2341  1.4240  0.7744
  584MOL0     H80569   3.367   5.971   9.617  0.6725  0.5377  1.7991
  584MOL0     H80570   3.253   6.178   9.675  1.9116 -0.9519  0.1280
  584MOL0     H80571   3.283   6.071   9.810 -1.0583  0.3203  0.8588
  584MOL0     H80572   2.686   5.422   9.269  0.1684  1.2838 -0.4620
  584MOL0     H80573   2.494   5.286   9.237  1.5522  1.3947 -0.1740
  584MOL0     H80574   2.139   5.061   9.456  2.5406  0.0567 -0.4853
  584MOL0     H80575   1.937   4.905   9.436  1.1638  0.9096  2.3342
  584MOL0     H80576   1.621   5.522   9.160  0.1994 -2.1852 -2.2474
  584MOL0     H80577   1.781   5.679   9.260 -0.5606  0.3356 -1.6384
  584MOL0     H80578   2.232   5.705   9.399 -1.1665  0.4679 -0.7115
  584MOL0     H80579   2.444   5.802   9.467  3.1319  0.5334 -1.3443
  584MOL0     H80580   2.683   5.949   9.509  2.0521  0.8800 -0.0586
  584MOL0     H80581   2.649   5.785   9.432  0.1172  0.2791  2.1872
  584MOL0     H80582   2.887   5.848   9.425 -0.3378  0.3718  0.9368
  584MOL0     H80583   2.857   5.995   9.343 -1.6501  0.4978  2.5439
  584MOL0     H80584   2.806   5.708   9.243  0.1631 -0.1165  1.4939
  584MOL0     H80585   2.748   5.852   9.163 -0.9957 -1.0798  0.1519
  584MOL0     H80586   3.041   5.859   9.237  1.0027  1.1740 -1.1889
  584MOL0     H80587   2.977   5.900   9.081  3.5458  0.6221 -0.1744
  584MOL0     H80588   3.072   5.513   8.971  0.1722 -2.4619  2.2759
  584MOL0     H80589   2.477   5.987   9.079 -1.6716  0.4823 -0.4266
  584MOL0     H80590   2.213   5.922   8.931 -2.7171 -3.1615  0.6115
  584MOL0     H80591   2.378   5.897   8.908  0.1510 -0.1105  1.8895
  584MOL0     H80592   2.266   5.756   8.920 -0.6874  0.2186 -1.2261
  585MOL0     O80593   6.874   0.450   4.094 -0.2762  1.3671 -0.6452
  585MOL0     C80594   6.757   0.466   4.055 -0.5210 -0.7020  0.2875
  585MOL0     O80595   6.647   0.395   4.107  0.3626  0.7877 -0.3260
  585MOL0     C80596   6.667   0.331   4.228 -0.8768  0.4663 -1.0351
  585MOL0     C80597   6.703   0.406   4.340  0.6408 -0.1202 -0.4649
  585MOL0     C80598   6.719   0.347   4.466 -1.0529 -0.5868  0.2258
  585MOL0     C80599   6.691   0.213   4.488  0.3699  0.3610  0.1893
  585MOL0     O80600   6.722   0.149   4.604  0.0746 -0.1120  0.1856
  585MOL0     C80601   6.823   0.210   4.691  0.3422  0.2318 -0.1137
  585MOL0     C80602   6.858   0.109   4.809 -0.4648  0.2668 -0.4513
  585MOL0     C80603   6.972   0.167   4.897  0.4452  0.6730 -0.2664
  585MOL0     C80604   7.016   0.049   4.987  0.2994 -0.2929 -0.1614
  585MOL0     C80605   7.140  -0.013   4.945 -0.4250 -0.5423  0.9001
  585MOL0     C80606   7.196  -0.132   5.021  0.3834  0.0469  0.5066
  585MOL0     C80607   7.293  -0.210   4.935 -0.3692  0.7937 -0.3700
  585MOL0     C80608   7.345  -0.331   5.023 -0.4688  0.5235  0.0366
  585MOL0     N80609   7.434  -0.431   4.954  0.2096 -0.1626 -0.2966
  585MOL0     C80610   7.507  -0.411   4.839 -0.6791 -0.1653 -0.3235
  585MOL0     C80611   7.545  -0.536   4.799 -0.5404  0.1639  0.1194
  585MOL0     C80612   7.639  -0.562   4.682 -0.3144 -0.2010  0.0383
  585MOL0     C80613   7.729  -0.452   4.645 -0.4560  0.3452 -0.3472
  585MOL0     C80614   7.807  -0.482   4.512 -0.0254  0.8939 -0.1634
  585MOL0     C80615   7.902  -0.378   4.490  0.3752 -0.9738  0.2078
  585MOL0     O80616   8.028  -0.423   4.538  0.0660  1.2080  0.4756
  585MOL0     C80617   8.137  -0.342   4.507  0.4828 -0.2415 -0.1964
  585MOL0     C80618   8.128  -0.209   4.446 -0.3984  0.1933  0.3991
  585MOL0     C80619   8.249  -0.142   4.413  0.7249 -0.3295  0.0841
  585MOL0     C80620   8.237  -0.002   4.352 -0.8424 -0.0880  0.2317
  585MOL0     C80621   8.375  -0.206   4.449  0.2998 -0.2466 -0.5018
  585MOL0     C80622   8.513  -0.148   4.443  0.0946 -0.1596  0.3906
  585MOL0     O80623   8.622  -0.230   4.462 -0.2780 -0.2208  0.3138
  585MOL0     C80624   8.728  -0.172   4.529 -0.0624  0.1816  1.0462
  585MOL0     C80625   8.848  -0.159   4.451  0.4210  0.2742 -0.2022
  585MOL0     C80626   8.944  -0.087   4.507  0.2168 -0.0530 -0.6683
  585MOL0     C80627   8.937  -0.035   4.637 -0.5780  0.7942 -0.2415
  585MOL0     O80628   9.037   0.046   4.673  0.0446  1.0658  0.1363
  585MOL0     C80629   9.021   0.115   4.802  0.5044  0.5750 -0.5156
  585MOL0     C80630   9.109   0.237   4.775 -0.3776  0.8759  0.9521
  585MOL0     C80631   9.118   0.319   4.907 -0.8726  0.3364 -1.2126
  585MOL0     C80632   9.167   0.469   4.894 -0.3545 -0.1857 -0.4531
  585MOL0     C80633   9.175   0.532   5.027 -0.6108  0.1436 -0.8865
  585MOL0     C80634   9.227   0.678   5.031 -0.4282 -0.5224 -0.1314
  585MOL0     C80635   9.238   0.733   5.174 -0.3231 -0.3818 -0.3813
  585MOL0     C80636   9.279   0.883   5.177 -0.5456  0.5867  0.7042
  585MOL0    Cl80637   9.248   0.934   5.347  0.0854  0.2847  0.0384
  585MOL0     C80638   8.825  -0.067   4.715 -0.0261 -0.1175 -0.3235
  585MOL0     C80639   8.718  -0.132   4.661  0.4246 -0.0291 -0.1980
  585MOL0     O80640   8.517  -0.029   4.425  0.3717  0.4040  1.3227
  585MOL0     C80641   8.376  -0.329   4.517 -0.9205 -0.1469 -0.1027
  585MOL0     C80642   8.260  -0.393   4.544 -0.7054  0.9596 -1.1019
  585MOL0     N80643   7.485  -0.627   4.879 -0.3928  0.0292  0.7526
  585MOL0     N80644   7.416  -0.567   4.965  0.0820 -0.1040 -0.0856
  585MOL0     C80645   6.646   0.140   4.380 -0.6153 -0.8277 -0.1908
  585MOL0     C80646   6.638   0.188   4.248 -0.2627  0.5222  0.3881
  585MOL0     C80647   6.734   0.552   3.933  0.3407  0.2102 -0.2115
  585MOL0     C80648   6.841   0.577   3.851  0.0680 -0.4310  0.2930
  585MOL0     C80649   6.835   0.658   3.740 -0.5974 -1.1518 -0.2002
  585MOL0     C80650   6.711   0.726   3.709  0.2719 -0.9733  0.1758
  585MOL0     O80651   6.708   0.810   3.605  0.4963 -0.4460  0.3284
  585MOL0     C80652   6.700   0.736   3.486  0.5317  0.0818  0.7902
  585MOL0     C80653   6.675   0.827   3.361 -0.4564 -0.0401 -1.0889
  585MOL0     C80654   6.553   0.922   3.364 -0.4352  0.3787  0.5018
  585MOL0     C80655   6.514   0.985   3.225  1.0172  0.1707 -0.2259
  585MOL0     C80656   6.634   1.020   3.148 -0.5174 -0.4457 -0.2385
  585MOL0     C80657   6.738   1.050   3.099 -0.1079 -0.4302 -0.2592
  585MOL0     C80658   6.590   0.695   3.790  0.0905 -0.9637  0.1544
  585MOL0     C80659   6.606   0.610   3.900  0.2916  0.8839 -0.6921
  585MOL0     C80660   6.482   0.587   4.000 -0.0921  0.1384  0.4083
  585MOL0     H80661   6.703   0.514   4.339 -4.2920  0.1902  1.6946
  585MOL0     H80662   6.727   0.419   4.548 -1.7388  3.7899 -3.1545
  585MOL0     H80663   6.799   0.312   4.723  1.0681  0.2443  0.3992
  585MOL0     H80664   6.911   0.217   4.627 -0.5076  1.2275 -1.2217
  585MOL0     H80665   6.769   0.078   4.865  0.0392 -1.8220 -0.7335
  585MOL0     H80666   6.905   0.025   4.758  0.0398 -1.6553  2.8732
  585MOL0     H80667   7.060   0.199   4.841  1.3807 -2.7328 -0.9966
  585MOL0     H80668   6.934   0.248   4.959 -0.6512 -0.6134  0.8129
  585MOL0     H80669   7.004   0.092   5.087  0.6274  0.9443 -0.6411
  585MOL0     H80670   6.949  -0.037   4.976 -0.2774 -0.0689  1.3890
  585MOL0     H80671   7.221   0.061   4.944  0.6825 -1.7359  0.3370
  585MOL0     H80672   7.132  -0.034   4.838  1.4587 -1.7426  0.9389
  585MOL0     H80673   7.237  -0.106   5.119  0.8790 -1.3409  0.6780
  585MOL0     H80674   7.113  -0.200   5.045 -1.8745  2.4213 -0.0750
  585MOL0     H80675   7.382  -0.159   4.898  1.6841 -1.4557  1.0861
  585MOL0     H80676   7.243  -0.245   4.845  0.4330  1.3538 -1.0465
  585MOL0     H80677   7.401  -0.303   5.113  0.3561  0.7066 -0.5205
  585MOL0     H80678   7.263  -0.393   5.061  0.6456 -0.0615  1.5864
  585MOL0     H80679   7.532  -0.315   4.795  3.3496 -1.5457 -1.4711
  585MOL0     H80680   7.573  -0.583   4.597  0.7419  0.8351 -1.0846
  585MOL0     H80681   7.691  -0.658   4.693 -0.3118 -0.2050 -0.0097
  585MOL0     H80682   7.659  -0.368   4.647  0.5135  1.1567  0.9353
  585MOL0     H80683   7.797  -0.435   4.729  1.0577 -1.8711 -1.0117
  585MOL0     H80684   7.848  -0.582   4.525 -0.7276  0.9397  3.8830
  585MOL0     H80685   7.738  -0.488   4.427  0.4562  0.0666 -0.5054
  585MOL0     H80686   7.900  -0.372   4.381 -1.9246 -0.2905  0.2290
  585MOL0     H80687   7.881  -0.279   4.532  0.6883 -1.3376  1.2601
  585MOL0     H80688   8.031  -0.167   4.421 -0.3141  0.4525  0.4992
  585MOL0     H80689   8.294   0.014   4.260  1.5697  0.9561  1.8056
  585MOL0     H80690   8.274   0.062   4.432 -1.3789  0.2351  0.2272
  585MOL0     H80691   8.131   0.013   4.328 -1.1253 -2.1787 -0.0183
  585MOL0     H80692   8.844  -0.197   4.349  0.7127  0.8953 -0.4529
  585MOL0     H80693   9.029  -0.056   4.446  1.2777  0.8294  1.1828
  585MOL0     H80694   8.915   0.140   4.816  0.5643  1.2369 -1.2068
  585MOL0     H80695   9.067   0.055   4.881  0.4206  2.1867  0.8083
  585MOL0     H80696   9.210   0.205   4.747  0.0125  2.4545  0.4608
  585MOL0     H80697   9.067   0.302   4.699 -2.0332 -0.1946  0.8948
  585MOL0     H80698   9.194   0.275   4.972 -5.4003 -2.3195  2.9931
  585MOL0     H80699   9.030   0.313   4.972  1.4740 -1.2635  2.1337
  585MOL0     H80700   9.096   0.536   4.844 -1.4479  0.8538  2.2463
  585MOL0     H80701   9.267   0.473   4.850 -1.4333  0.9727 -2.9923
  585MOL0     H80702   9.081   0.542   5.081  0.5103  0.8699  1.0374
  585MOL0     H80703   9.240   0.465   5.084  0.6831  0.5204 -1.8685
  585MOL0     H80704   9.161   0.742   4.972 -0.6934 -0.8077 -0.1496
  585MOL0     H80705   9.325   0.693   4.985  0.3283 -0.6979  1.3803
  585MOL0     H80706   9.314   0.676   5.228  0.4494 -2.3469 -3.3153
  585MOL0     H80707   9.138   0.714   5.215 -0.2159 -2.0729 -0.8445
  585MOL0     H80708   9.218   0.940   5.106  2.6540  1.3889 -1.6430
  585MOL0     H80709   9.380   0.908   5.144 -1.1572  0.2632 -1.6433
  585MOL0     H80710   8.803  -0.028   4.814 -1.4808  1.1313 -1.0973
  585MOL0     H80711   8.634  -0.160   4.724  2.5547 -1.6614  2.1122
  585MOL0     H80712   8.469  -0.374   4.551  0.2089  2.2219  0.1805
  585MOL0     H80713   8.283  -0.483   4.600  1.0133  0.1506 -2.9986
  585MOL0     H80714   6.620   0.035   4.394  0.8305 -1.3167 -0.9962
  585MOL0     H80715   6.596   0.123   4.172  1.5508  1.5716 -1.6207
  585MOL0     H80716   6.940   0.540   3.874 -0.4440 -0.8914  1.8956
  585MOL0     H80717   6.924   0.682   3.684 -2.2465 -0.6007 -2.7690
  585MOL0     H80718   6.785   0.669   3.471 -1.6890 -2.8753  0.4209
  585MOL0     H80719   6.622   0.659   3.484 -0.4699  1.0741  0.5706
  585MOL0     H80720   6.673   0.756   3.278  1.5328 -1.7948  0.2505
  585MOL0     H80721   6.766   0.888   3.353  0.3535 -0.6257  2.1054
  585MOL0     H80722   6.480   0.851   3.404  2.9142 -3.1393  1.0128
  585MOL0     H80723   6.560   1.005   3.435  1.5132  1.1416 -0.5016
  585MOL0     H80724   6.443   1.066   3.242  0.6137 -0.1843 -0.1987
  585MOL0     H80725   6.459   0.903   3.179 -1.5237  1.0706  1.0600
  585MOL0     H80726   6.830   1.087   3.059  0.5074  1.7984  2.8074
  585MOL0     H80727   6.487   0.716   3.763 -0.3120 -3.3856 -0.4213
  585MOL0     H80728   6.401   0.657   3.977 -2.4291 -0.3974  5.5281
  585MOL0     H80729   6.441   0.486   3.987  2.4236 -0.6843 -2.0998
  585MOL0     H80730   6.508   0.611   4.104 -2.3207  0.7119  0.8986
  586MOL0     O80731  10.248   3.225   7.223  0.5602  0.3944 -0.7982
  586MOL0     C80732  10.185   3.169   7.315 -0.2526  0.2728 -0.1887
  586MOL0     O80733  10.184   3.208   7.440 -0.1224 -0.5309  0.5068
  586MOL0     C80734  10.208   3.335   7.475  0.0662 -0.7923  0.4763
  586MOL0     C80735  10.163   3.443   7.406  0.4551 -0.0217  0.6872
  586MOL0     C80736  10.198   3.576   7.434  0.3449  0.7238 -0.3471
  586MOL0     C80737  10.283   3.603   7.541 -0.0290  0.5690 -0.9352
  586MOL0     O80738  10.304   3.735   7.571 -0.9808  0.5663 -0.2231
  586MOL0     C80739  10.278   3.762   7.708 -0.3791  0.1202 -0.6252
  586MOL0     C80740  10.348   3.894   7.743 -0.3215 -0.6805 -0.1778
  586MOL0     C80741  10.308   3.995   7.636  0.5642  0.0641  0.5933
  586MOL0     C80742  10.379   4.127   7.665 -0.2878  0.7622  0.0956
  586MOL0     C80743  10.494   4.149   7.574 -0.4762  0.1639 -0.1496
  586MOL0     C80744  10.573   4.283   7.598 -0.0294  0.6797 -0.9350
  586MOL0     C80745  10.495   4.410   7.564  0.3065 -0.7567 -0.7039
  586MOL0     C80746  10.487   4.438   7.414 -0.1491 -0.4455  0.5895
  586MOL0     N80747  10.389   4.549   7.390 -0.4605 -0.5174  0.1219
  586MOL0     C80748  10.430   4.684   7.381 -0.6968 -0.7640  0.9381
  586MOL0     C80749  10.324   4.752   7.340 -0.2601 -0.4200 -0.0774
  586MOL0     C80750  10.310   4.899   7.294 -1.3053  0.2308  0.3620
  586MOL0     C80751  10.216   4.989   7.385 -0.8443  0.2668 -0.4154
  586MOL0     C80752  10.246   5.134   7.361  0.7418 -0.8075  0.0943
  586MOL0     C80753  10.168   5.217   7.467 -0.2086 -0.6015 -0.3230
  586MOL0     O80754  10.135   5.341   7.397  0.1486  0.6053 -0.8897
  586MOL0     C80755  10.051   5.430   7.459 -1.1922 -0.7327  0.2118
  586MOL0     C80756   9.994   5.418   7.582 -0.2266 -0.7336  0.2196
  586MOL0     C80757   9.917   5.514   7.636  0.8665  0.2911  0.6291
  586MOL0     C80758   9.872   5.484   7.773  0.1499  0.5164  0.6953
  586MOL0     C80759   9.898   5.640   7.571 -0.2367 -0.0538 -0.3605
  586MOL0     C80760   9.829   5.756   7.625 -0.7162  0.4150 -0.6823
  586MOL0     O80761   9.864   5.878   7.568  0.3070 -0.3690 -0.2790
  586MOL0     C80762   9.789   5.991   7.583  0.5650 -0.2428 -0.4100
  586MOL0     C80763   9.769   6.046   7.711 -0.3598 -0.2541 -0.2464
  586MOL0     C80764   9.691   6.161   7.727 -0.0369  0.5438 -0.8970
  586MOL0     C80765   9.635   6.223   7.612 -0.5387 -0.0917  0.9486
  586MOL0     O80766   9.563   6.338   7.624  0.3449  0.6561  0.2407
  586MOL0     C80767   9.488   6.366   7.741  0.0200 -0.3666 -1.2072
  586MOL0     C80768   9.411   6.497   7.703  0.1107 -0.0257 -0.0898
  586MOL0     C80769   9.312   6.527   7.812  0.2547 -0.4008  0.4537
  586MOL0     C80770   9.223   6.658   7.776  0.2030  0.2424 -0.2716
  586MOL0     C80771   9.081   6.649   7.827  0.8849  0.8586  0.5474
  586MOL0     C80772   9.074   6.622   7.980 -0.1591 -0.3584  0.0837
  586MOL0     C80773   9.072   6.764   8.052 -0.7347  0.6282  0.6967
  586MOL0     C80774   9.087   6.736   8.199  0.0154 -0.4951 -0.2289
  586MOL0    Cl80775   9.057   6.888   8.285 -0.0172 -0.2078 -0.0125
  586MOL0     C80776   9.649   6.169   7.484 -0.2920  0.5145 -0.5642
  586MOL0     C80777   9.725   6.046   7.466 -0.6005 -0.6364 -0.0461
  586MOL0     O80778   9.751   5.745   7.721 -0.5391 -0.6341 -0.1393
  586MOL0     C80779   9.960   5.649   7.443 -0.0044  0.3353  0.7164
  586MOL0     C80780  10.027   5.542   7.381  0.1320 -0.5307 -0.1659
  586MOL0     N80781  10.222   4.660   7.330  0.1057 -0.7679 -0.2336
  586MOL0     N80782  10.259   4.537   7.355 -0.1127 -0.1264  0.3706
  586MOL0     C80783  10.331   3.492   7.612  0.1556 -0.0530 -0.3732
  586MOL0     C80784  10.298   3.359   7.574  0.5324 -0.5053 -0.4557
  586MOL0     C80785  10.109   3.048   7.288 -0.2329 -0.1125 -0.0595
  586MOL0     C80786   9.993   3.042   7.371  0.5087  0.3525 -0.6726
  586MOL0     C80787   9.921   2.932   7.366  0.3592  0.1924 -0.1984
  586MOL0     C80788   9.954   2.820   7.286  0.4141  0.3823 -0.9763
  586MOL0     O80789   9.881   2.702   7.285 -0.3184 -0.0518 -0.4431
  586MOL0     C80790   9.764   2.693   7.361 -0.9052  0.7432  0.5025
  586MOL0     C80791   9.780   2.639   7.495 -0.1395 -0.2311  0.4733
  586MOL0     C80792   9.849   2.502   7.497  0.4277 -0.0612  0.0506
  586MOL0     C80793   9.903   2.466   7.637  0.8013 -0.4242 -0.8383
  586MOL0     C80794   9.795   2.396   7.718 -0.6734 -0.0286 -0.0001
  586MOL0     C80795   9.713   2.327   7.773 -0.2358  0.5263  0.5430
  586MOL0     C80796  10.064   2.828   7.208  0.3280 -1.1319 -0.5498
  586MOL0     C80797  10.147   2.943   7.202  0.1295  0.3598 -0.1328
  586MOL0     C80798  10.276   2.931   7.120 -0.1110  0.2269 -0.7555
  586MOL0     H80799  10.090   3.428   7.328  1.0712  1.4836 -0.2376
  586MOL0     H80800  10.143   3.651   7.378 -1.9406  0.6544  1.6417
  586MOL0     H80801  10.323   3.686   7.772  3.7191  2.5131 -0.3419
  586MOL0     H80802  10.171   3.777   7.725  0.2746  0.2864  5.5941
  586MOL0     H80803  10.312   3.921   7.843 -0.5752 -0.6120 -0.2874
  586MOL0     H80804  10.455   3.877   7.755  0.3389  2.1757 -1.2448
  586MOL0     H80805  10.326   3.968   7.532 -0.5240  2.9242 -0.4589
  586MOL0     H80806  10.200   4.011   7.641  0.2874 -1.0315 -1.1831
  586MOL0     H80807  10.304   4.202   7.638  0.1860  0.5305 -2.0983
  586MOL0     H80808  10.402   4.140   7.771 -0.9568  1.7176  0.1315
  586MOL0     H80809  10.448   4.140   7.475  1.7620  0.2528 -1.2574
  586MOL0     H80810  10.559   4.062   7.585  1.8557  1.1997 -3.7685
  586MOL0     H80811  10.620   4.299   7.696 -2.4454  1.1949  0.2302
  586MOL0     H80812  10.660   4.273   7.533  0.9209 -1.4515  0.5275
  586MOL0     H80813  10.554   4.492   7.604 -0.2623  0.3934 -2.1165
  586MOL0     H80814  10.398   4.398   7.614  0.6316 -0.3167  0.0376
  586MOL0     H80815  10.581   4.470   7.366  1.0558 -0.2538  2.9384
  586MOL0     H80816  10.444   4.349   7.367 -1.6318 -0.3743  1.7551
  586MOL0     H80817  10.532   4.717   7.400 -1.5797  3.1890 -0.2823
  586MOL0     H80818  10.269   4.904   7.192 -2.1722  1.6659  0.7607
  586MOL0     H80819  10.408   4.947   7.292 -0.2409 -1.8104 -1.7865
  586MOL0     H80820  10.114   4.968   7.351 -1.9471 -0.2850  2.8471
  586MOL0     H80821  10.221   4.958   7.490 -1.0437  0.0645 -0.4646
  586MOL0     H80822  10.354   5.152   7.364  0.5950  0.1102 -0.0656
  586MOL0     H80823  10.200   5.159   7.265  0.3944 -2.2162 -0.1375
  586MOL0     H80824  10.076   5.161   7.484 -0.2208 -0.0652  1.5573
  586MOL0     H80825  10.229   5.251   7.551 -0.7314  2.8603 -1.1568
  586MOL0     H80826   9.999   5.321   7.632 -2.4124 -0.1110  1.8032
  586MOL0     H80827   9.947   5.415   7.812  1.0668  0.2440 -1.4019
  586MOL0     H80828   9.775   5.436   7.786  0.7396 -1.0007 -0.1795
  586MOL0     H80829   9.880   5.578   7.828  1.1317  1.3375 -0.7574
  586MOL0     H80830   9.838   6.020   7.791  1.7202 -0.7171 -2.1161
  586MOL0     H80831   9.685   6.210   7.824  0.5640  0.1658 -0.6662
  586MOL0     H80832   9.412   6.292   7.767  0.9288 -1.2064 -0.8759
  586MOL0     H80833   9.550   6.397   7.826 -1.2240 -0.4304 -0.2328
  586MOL0     H80834   9.476   6.584   7.689  3.0690 -2.4434 -2.9163
  586MOL0     H80835   9.367   6.474   7.605 -1.0097 -1.4611  0.7133
  586MOL0     H80836   9.362   6.544   7.908 -1.9741  0.1518  1.5816
  586MOL0     H80837   9.250   6.438   7.824 -2.4848  1.2170 -0.9595
  586MOL0     H80838   9.231   6.680   7.669  0.4248  0.6545 -0.1722
  586MOL0     H80839   9.267   6.743   7.828  1.0936 -0.8815  0.8583
  586MOL0     H80840   9.011   6.727   7.793  2.3512  1.5395 -1.0225
  586MOL0     H80841   9.038   6.564   7.774 -3.8119  2.3675  1.4109
  586MOL0     H80842   9.151   6.559   8.025  0.2520 -0.8893 -1.2994
  586MOL0     H80843   8.988   6.563   8.012  2.6323 -3.6701  2.1489
  586MOL0     H80844   8.981   6.816   8.023 -0.2740  2.1217  1.7672
  586MOL0     H80845   9.155   6.830   8.024 -0.0311 -0.6336 -0.2735
  586MOL0     H80846   9.180   6.690   8.231 -0.6807 -0.1654  2.5390
  586MOL0     H80847   9.002   6.675   8.231 -1.3431  2.1082  1.5041
  586MOL0     H80848   9.600   6.220   7.402 -2.3890 -1.8649 -0.9249
  586MOL0     H80849   9.724   6.000   7.367  2.6806  1.8572 -1.4514
  586MOL0     H80850   9.941   5.739   7.386  0.0188  0.0616  0.2699
  586MOL0     H80851  10.062   5.550   7.279  3.8855  3.6577  1.1266
  586MOL0     H80852  10.397   3.495   7.698  1.6370 -0.3497 -1.4614
  586MOL0     H80853  10.345   3.293   7.645  2.5426  1.0554 -0.2455
  586MOL0     H80854   9.955   3.127   7.426 -2.0337 -1.1552  0.0527
  586MOL0     H80855   9.842   2.935   7.441 -0.0583  0.2270 -0.6334
  586MOL0     H80856   9.708   2.787   7.358 -3.6599 -0.7544  1.4329
  586MOL0     H80857   9.700   2.612   7.326  1.8374 -1.7466  0.8950
  586MOL0     H80858   9.678   2.628   7.534 -0.4568  1.2968  0.1632
  586MOL0     H80859   9.844   2.696   7.562  0.4609 -1.3077  0.8361
  586MOL0     H80860   9.775   2.428   7.465 -1.2088  2.4316 -2.2738
  586MOL0     H80861   9.930   2.491   7.425  2.1689 -3.9740  2.2810
  586MOL0     H80862   9.927   2.555   7.696 -2.0875 -1.8781  3.0076
  586MOL0     H80863   9.987   2.397   7.629  1.4979  0.6456 -4.0580
  586MOL0     H80864   9.641   2.267   7.825  1.8683 -2.2897  0.4581
  586MOL0     H80865  10.103   2.743   7.153 -0.0579  0.1465 -2.9493
  586MOL0     H80866  10.353   2.891   7.186 -0.1129  2.2281  0.5487
  586MOL0     H80867  10.268   2.859   7.039 -0.3280 -2.4956  1.5298
  586MOL0     H80868  10.309   3.030   7.087  1.0785  0.1784  0.2373
  587MOL0     O80869   5.230  10.565   7.253 -0.8375 -0.2548 -0.5403
  587MOL0     C80870   5.254  10.638   7.157  0.2795  0.6083  0.2345
  587MOL0     O80871   5.299  10.761   7.159  0.4859  0.2133 -0.0624
  587MOL0     C80872   5.327  10.827   7.275  0.0024  0.5803  0.4689
  587MOL0     C80873   5.224  10.896   7.345 -0.3888 -0.4545  0.0337
  587MOL0     C80874   5.256  10.963   7.463 -0.5611  0.2169 -0.5514
  587MOL0     C80875   5.387  10.953   7.513 -1.2916 -0.0531 -0.7647
  587MOL0     O80876   5.424  10.988   7.642 -0.4348 -0.6278 -0.2949
  587MOL0     C80877   5.353  11.093   7.706 -0.4428 -0.7087  0.5725
  587MOL0     C80878   5.426  11.133   7.831 -0.1171 -0.7582  0.3469
  587MOL0     C80879   5.571  11.191   7.800  0.0559 -0.2629  0.7976
  587MOL0     C80880   5.645  11.252   7.928 -0.3085  0.1974  0.8607
  587MOL0     C80881   5.772  11.324   7.893  0.4531 -0.0061  0.2484
  587MOL0     C80882   5.727  11.445   7.811 -0.7733 -0.4286 -0.0883
  587MOL0     C80883   5.831  11.560   7.791 -0.2135  0.5376  0.3674
  587MOL0     C80884   5.835  11.650   7.917 -0.4362  0.6009  0.0596
  587MOL0     N80885   5.911  11.773   7.886  0.2561 -0.2229  0.6221
  587MOL0     C80886   5.857  11.882   7.818  1.2441  0.1138 -0.4159
  587MOL0     C80887   5.959  11.952   7.769  0.5166  0.5152  0.2892
  587MOL0     C80888   5.951  12.078   7.691  0.1186  0.6112  0.0766
  587MOL0     C80889   5.959  12.043   7.542  0.2421 -0.2744  0.1157
  587MOL0     C80890   5.833  12.063   7.462  0.4476 -0.6090  0.3191
  587MOL0     C80891   5.749  11.925   7.447  0.5661 -0.5101  0.1834
  587MOL0     O80892   5.668  11.895   7.567 -0.6000 -0.1354  0.1617
  587MOL0     C80893   5.568  11.804   7.573  0.0340  0.1727 -0.3833
  587MOL0     C80894   5.472  11.817   7.676 -0.4145 -0.6707  1.0620
  587MOL0     C80895   5.377  11.714   7.708  0.0506  0.4525 -0.2460
  587MOL0     C80896   5.272  11.759   7.810  0.0131  0.7800  0.0111
  587MOL0     C80897   5.371  11.601   7.624 -0.1031 -0.2069 -0.5682
  587MOL0     C80898   5.272  11.500   7.649 -0.7555 -0.6445  0.0475
  587MOL0     O80899   5.184  11.487   7.545  0.6620  0.6925 -0.9350
  587MOL0     C80900   5.092  11.388   7.542  0.2336 -0.8902  0.1168
  587MOL0     C80901   5.059  11.282   7.637 -0.2549 -0.4616  0.4118
  587MOL0     C80902   4.970  11.176   7.604 -0.8525  0.3273 -0.5904
  587MOL0     C80903   4.912  11.186   7.480  0.3725  0.1202  0.5675
  587MOL0     O80904   4.831  11.089   7.438  0.3907 -0.3425  0.0357
  587MOL0     C80905   4.709  11.093   7.521 -0.1364  0.5641 -0.4760
  587MOL0     C80906   4.611  10.991   7.468 -0.4511  0.4910  0.7718
  587MOL0     C80907   4.667  10.840   7.478 -0.0139  0.1883 -0.2910
  587MOL0     C80908   4.584  10.745   7.397 -0.2462 -0.2023  0.5559
  587MOL0     C80909   4.604  10.751   7.247  0.4462 -0.7458 -0.2010
  587MOL0     C80910   4.490  10.681   7.159 -0.0383 -0.3483 -0.5592
  587MOL0     C80911   4.456  10.533   7.199 -0.2793 -0.4691  0.1606
  587MOL0     C80912   4.387  10.464   7.090  1.3283 -0.1046 -0.5123
  587MOL0    Cl80913   4.233  10.530   7.046 -0.1985 -0.0643 -0.2409
  587MOL0     C80914   4.928  11.298   7.398 -0.0716 -0.0383  0.2850
  587MOL0     C80915   5.022  11.395   7.420  0.1065 -0.7404 -0.2973
  587MOL0     O80916   5.285  11.435   7.750  0.4449 -0.2489 -0.4597
  587MOL0     C80917   5.475  11.586   7.528  1.1553  0.3103  0.2489
  587MOL0     C80918   5.580  11.681   7.509  0.7005 -0.1529 -0.5324
  587MOL0     N80919   6.080  11.900   7.805 -0.1227  0.5207 -0.6683
  587MOL0     N80920   6.044  11.788   7.870 -0.7805 -0.8158  0.4254
  587MOL0     C80921   5.492  10.895   7.442 -0.1732  0.1478 -0.1731
  587MOL0     C80922   5.462  10.847   7.320  0.0712 -0.2300  1.0767
  587MOL0     C80923   5.223  10.577   7.026  0.1652 -0.2284  0.7971
  587MOL0     C80924   5.308  10.623   6.921  0.1017  0.8448  0.7229
  587MOL0     C80925   5.294  10.570   6.799  1.1136 -0.0849 -0.4672
  587MOL0     C80926   5.191  10.480   6.772  0.6490 -0.2762  0.1040
  587MOL0     O80927   5.174  10.427   6.650 -0.2309  0.5266 -0.4449
  587MOL0     C80928   5.229  10.469   6.527 -1.3936 -0.9960 -0.1595
  587MOL0     C80929   5.117  10.497   6.418  0.8052  0.1568 -0.8309
  587MOL0     C80930   5.047  10.630   6.456  0.8305  0.0750 -0.7829
  587MOL0     C80931   4.999  10.713   6.343  0.3346  0.5520  0.0904
  587MOL0     C80932   4.931  10.630   6.236  0.5638  0.2124 -0.0556
  587MOL0     C80933   4.868  10.572   6.151 -0.0114  0.2078 -1.0899
  587MOL0     C80934   5.103  10.441   6.868 -0.1347 -0.0451  0.1279
  587MOL0     C80935   5.111  10.488   6.994  0.0684  0.0259  0.1504
  587MOL0     C80936   5.005  10.452   7.099 -0.5566  0.4303  0.9388
  587MOL0     H80937   5.122  10.913   7.312 -0.5090  3.1722  1.7939
  587MOL0     H80938   5.175  11.020   7.508 -1.1388 -1.1886  0.2643
  587MOL0     H80939   5.251  11.068   7.738 -0.4799  0.5534  1.5170
  587MOL0     H80940   5.337  11.180   7.642 -2.9251 -0.8396  0.9035
  587MOL0     H80941   5.379  11.221   7.877  1.5007  1.2984 -1.7319
  587MOL0     H80942   5.425  11.052   7.905 -1.1989 -0.2355  0.9326
  587MOL0     H80943   5.627  11.106   7.761  3.3196  1.9064  0.3871
  587MOL0     H80944   5.556  11.258   7.715  0.5972 -1.5068 -0.3076
  587MOL0     H80945   5.570  11.318   7.973 -1.2120  1.5369 -2.3117
  587MOL0     H80946   5.671  11.180   8.006  1.4415 -0.0547  0.0922
  587MOL0     H80947   5.824  11.255   7.826 -2.2868 -0.8297 -1.1892
  587MOL0     H80948   5.843  11.344   7.973  1.6170 -1.8775 -0.2563
  587MOL0     H80949   5.710  11.405   7.711  3.5951  0.6107 -1.4666
  587MOL0     H80950   5.636  11.490   7.852 -0.6565 -0.9679  0.7950
  587MOL0     H80951   5.805  11.628   7.711  0.1217  1.1832  0.8005
  587MOL0     H80952   5.930  11.519   7.770 -1.1764 -0.7493 -1.9883
  587MOL0     H80953   5.735  11.678   7.953  0.6985  0.2679  3.8769
  587MOL0     H80954   5.891  11.586   7.985 -1.1671 -1.6225 -1.3116
  587MOL0     H80955   5.750  11.903   7.813  1.3366  0.7341  0.0991
  587MOL0     H80956   6.041  12.134   7.719  1.0944 -0.5369 -0.6495
  587MOL0     H80957   5.874  12.148   7.724 -0.9240 -1.7023  2.9396
  587MOL0     H80958   6.036  12.109   7.503  0.4697 -0.2065  0.6771
  587MOL0     H80959   5.988  11.939   7.524  0.4040 -0.0908 -0.7070
  587MOL0     H80960   5.767  12.147   7.487  2.5784  1.0516  0.6242
  587MOL0     H80961   5.873  12.093   7.365  1.3522  1.7417  1.3346
  587MOL0     H80962   5.663  11.943   7.381  1.5071 -1.8724 -1.4815
  587MOL0     H80963   5.805  11.846   7.397 -0.7425 -0.1399 -2.0300
  587MOL0     H80964   5.473  11.905   7.740 -2.7817  2.1575 -2.3874
  587MOL0     H80965   5.315  11.820   7.890  1.7961 -0.8912  0.3965
  587MOL0     H80966   5.227  11.671   7.858 -0.2460  0.5914 -0.5652
  587MOL0     H80967   5.199  11.829   7.766 -0.7427 -0.9433 -1.6305
  587MOL0     H80968   5.128  11.279   7.721  2.4410  0.3331 -1.6516
  587MOL0     H80969   4.953  11.098   7.678 -2.7443  0.2564 -1.0563
  587MOL0     H80970   4.736  11.069   7.624 -1.4582  4.3882  0.9410
  587MOL0     H80971   4.667  11.194   7.515 -1.5086  0.1646  1.5308
  587MOL0     H80972   4.515  11.000   7.520 -2.4848 -1.4169 -2.3135
  587MOL0     H80973   4.590  11.011   7.363 -0.2812 -0.5696  0.5272
  587MOL0     H80974   4.667  10.821   7.585  0.5801  1.4763 -0.0375
  587MOL0     H80975   4.769  10.827   7.438  0.8023  0.0550  1.7142
  587MOL0     H80976   4.477  10.755   7.418 -0.3829  0.1436 -0.2625
  587MOL0     H80977   4.608  10.642   7.424 -0.6037 -1.1579 -2.3991
  587MOL0     H80978   4.608  10.856   7.217  0.9571  0.1755  2.7724
  587MOL0     H80979   4.694  10.691   7.231 -1.0449 -2.6627 -2.0697
  587MOL0     H80980   4.526  10.689   7.056  3.8203  2.7280  0.7705
  587MOL0     H80981   4.398  10.741   7.152  0.9332  1.0930 -1.6235
  587MOL0     H80982   4.411  10.527   7.298  2.4534 -3.8926  1.3685
  587MOL0     H80983   4.548  10.479   7.219  0.6084  0.2249 -1.8207
  587MOL0     H80984   4.369  10.361   7.121 -1.1399 -0.0251 -1.4470
  587MOL0     H80985   4.452  10.475   7.003  0.1113  2.9023 -1.1692
  587MOL0     H80986   4.869  11.312   7.307 -1.3011 -1.1141  0.8936
  587MOL0     H80987   5.044  11.473   7.348  0.9842 -0.4514  0.2737
  587MOL0     H80988   5.484  11.496   7.468  1.1846  0.8447 -0.5639
  587MOL0     H80989   5.667  11.657   7.449 -0.0998  0.9877 -2.2207
  587MOL0     H80990   5.592  10.908   7.483 -1.4033 -0.4933  3.3724
  587MOL0     H80991   5.546  10.813   7.261 -0.3573  0.6195 -0.0665
  587MOL0     H80992   5.391  10.691   6.931  0.4827  0.4049  0.6051
  587MOL0     H80993   5.371  10.594   6.726  0.9358  0.7148 -0.3958
  587MOL0     H80994   5.288  10.560   6.539 -1.7561 -0.9048  0.9988
  587MOL0     H80995   5.293  10.392   6.483 -1.7502 -0.3069 -1.9749
  587MOL0     H80996   5.059  10.405   6.419  2.1926 -0.9161  3.3826
  587MOL0     H80997   5.142  10.485   6.312  3.1015 -1.9068 -0.1493
  587MOL0     H80998   4.962  10.606   6.520  2.1023  0.1556  1.0024
  587MOL0     H80999   5.113  10.690   6.519  0.6561 -2.2627  1.7841
  587MOL0     H81000   5.084  10.757   6.291  1.4979  2.8722  3.5555
  587MOL0     H81001   4.933  10.796   6.368  0.0029  0.4391 -0.4169
  587MOL0     H81002   4.819  10.524   6.068  2.7400 -3.8647 -0.6719
  587MOL0     H81003   5.030  10.369   6.833  0.1917  0.1446 -0.9892
  587MOL0     H81004   4.927  10.395   7.047  0.3019 -0.7041  0.8483
  587MOL0     H81005   5.040  10.382   7.175 -1.8575  0.3452  1.4975
  587MOL0     H81006   4.968  10.540   7.151  0.5498  0.0099  2.5051
  588MOL0     O81007   8.046   9.263   0.237  0.3128  0.3531 -0.1751
  588MOL0     C81008   8.105   9.200   0.144  1.1444  0.5445  0.6354
  588MOL0     O81009   8.134   9.255   0.020  0.7012 -0.1170  0.2097
  588MOL0     C81010   8.058   9.358  -0.040 -0.1126  0.3135 -0.6441
  588MOL0     C81011   8.118   9.440  -0.139 -0.5198 -0.6929  0.9239
  588MOL0     C81012   8.051   9.557  -0.186 -0.3802 -0.4541  0.3501
  588MOL0     C81013   7.920   9.578  -0.148 -0.4076  0.3977 -0.0897
  588MOL0     O81014   7.868   9.698  -0.202  0.0427  0.0272 -0.1626
  588MOL0     C81015   7.741   9.742  -0.145  0.3591 -0.8056  0.4234
  588MOL0     C81016   7.703   9.884  -0.203 -0.3982  0.0256 -0.3419
  588MOL0     C81017   7.802   9.993  -0.154  0.4498 -0.4477 -0.1922
  588MOL0     C81018   7.774  10.135  -0.215 -0.4430 -0.1317  0.2800
  588MOL0     C81019   7.874  10.236  -0.156 -0.3286 -0.3853 -0.1884
  588MOL0     C81020   7.856  10.375  -0.227 -0.2471  0.4544  0.1423
  588MOL0     C81021   7.975  10.462  -0.185  0.1868  1.2393 -0.0136
  588MOL0     C81022   7.962  10.606  -0.219 -0.9337  0.3279  0.2696
  588MOL0     N81023   8.030  10.679  -0.113  0.5816  0.7896  0.5088
  588MOL0     C81024   7.973  10.744  -0.006  0.1973  0.4158 -0.3487
  588MOL0     C81025   8.067  10.831   0.037  0.7086  0.3971  0.7960
  588MOL0     C81026   8.042  10.926   0.144 -0.0793  0.1832  0.6572
  588MOL0     C81027   8.133  11.049   0.125 -0.0698 -0.2394  0.4193
  588MOL0     C81028   8.110  11.153   0.240  0.1844 -0.5521 -0.5326
  588MOL0     C81029   8.211  11.267   0.224 -0.1782 -0.6480  0.3928
  588MOL0     O81030   8.338  11.205   0.248 -0.1750 -0.8789  0.1972
  588MOL0     C81031   8.449  11.267   0.203  0.8242  0.5917  1.6078
  588MOL0     C81032   8.463  11.384   0.137  0.0752 -0.2978  0.1796
  588MOL0     C81033   8.589  11.450   0.105 -0.2274 -0.7651  0.4811
  588MOL0     C81034   8.582  11.580   0.019  0.2466 -0.3355  0.2206
  588MOL0     C81035   8.703  11.390   0.161 -0.0477 -0.1560  0.0390
  588MOL0     C81036   8.838  11.444   0.153 -0.2864  0.4537  0.5553
  588MOL0     O81037   8.856  11.578   0.136 -0.1025  0.1240  0.5189
  588MOL0     C81038   8.977  11.628   0.086  0.4180 -0.2502  0.0733
  588MOL0     C81039   9.012  11.756   0.129 -0.3747 -0.1048  0.4769
  588MOL0     C81040   9.129  11.814   0.105 -0.8481 -0.4953  1.4560
  588MOL0     C81041   9.215  11.744   0.018 -0.4284 -0.2248 -0.4221
  588MOL0     O81042   9.337  11.809   0.003  0.5972  0.0850 -0.0881
  588MOL0     C81043   9.415  11.774  -0.110  0.2607 -0.9902  0.0465
  588MOL0     C81044   9.543  11.871  -0.124 -0.5009 -0.7105 -0.9297
  588MOL0     C81045   9.644  11.818  -0.228  0.6071  0.6357 -0.6739
  588MOL0     C81046   9.574  11.787  -0.361 -0.2430 -0.1523  0.2361
  588MOL0     C81047   9.673  11.782  -0.485  0.6848  0.5875  0.3441
  588MOL0     C81048   9.760  11.903  -0.502  0.1066 -0.1895  0.0693
  588MOL0     C81049   9.817  11.918  -0.644 -0.0880 -0.9172 -0.2870
  588MOL0     C81050   9.886  12.055  -0.660 -0.4832 -0.4916  0.1790
  588MOL0    Cl81051  10.024  12.096  -0.546  0.1680 -0.0209 -0.3330
  588MOL0     C81052   9.180  11.624  -0.044  0.2413  0.1651  0.4322
  588MOL0     C81053   9.062  11.557  -0.001  0.0405 -0.2548  0.7157
  588MOL0     O81054   8.927  11.368   0.173 -0.5056 -0.0394 -0.6911
  588MOL0     C81055   8.688  11.264   0.231 -0.3549  0.3174  0.3829
  588MOL0     C81056   8.567  11.203   0.248  0.0033 -0.8217  0.1921
  588MOL0     N81057   8.184  10.798  -0.024  0.3072  0.2984  0.7119
  588MOL0     N81058   8.156  10.713  -0.122  0.6499  0.2377  0.2715
  588MOL0     C81059   7.860   9.486  -0.061  0.1484 -0.9497 -0.1730
  588MOL0     C81060   7.924   9.379  -0.007  0.4594 -0.3074  0.1580
  588MOL0     C81061   8.173   9.081   0.190 -0.3910 -0.2334 -0.1756
  588MOL0     C81062   8.299   9.061   0.139 -0.5069 -0.2567 -0.2704
  588MOL0     C81063   8.371   8.944   0.156 -0.5635 -0.4075  0.8250
  588MOL0     C81064   8.327   8.843   0.240 -0.5635 -0.1805  0.0402
  588MOL0     O81065   8.410   8.732   0.262 -0.4865  0.1060 -0.4366
  588MOL0     C81066   8.387   8.657   0.378 -0.5385 -0.1425 -0.2634
  588MOL0     C81067   8.281   8.557   0.354 -0.9411  0.3633 -0.5542
  588MOL0     C81068   8.276   8.452   0.464 -0.5574 -0.8592 -0.2133
  588MOL0     C81069   8.265   8.526   0.606  0.9744 -0.3887 -0.6689
  588MOL0     C81070   8.255   8.419   0.705  1.3679  0.5884 -0.2071
  588MOL0     C81071   8.234   8.319   0.773 -1.3404 -0.7454 -0.5198
  588MOL0     C81072   8.210   8.874   0.319  0.2176 -0.9978 -0.8749
  588MOL0     C81073   8.126   8.985   0.286  0.3832 -0.1886 -0.5768
  588MOL0     C81074   8.002   8.991   0.371 -0.2032 -0.5787 -0.0902
  588MOL0     H81075   8.218   9.412  -0.171 -0.6721 -1.1335  0.8297
  588MOL0     H81076   8.109   9.628  -0.245 -1.6735 -1.1054 -1.7696
  588MOL0     H81077   7.758   9.739  -0.037  0.4985 -1.2686  0.3886
  588MOL0     H81078   7.658   9.677  -0.173 -1.1720  1.7004 -1.3343
  588MOL0     H81079   7.692   9.874  -0.311  0.9225 -1.2259 -0.3826
  588MOL0     H81080   7.602   9.906  -0.166 -1.0007 -1.2665 -1.1491
  588MOL0     H81081   7.798  10.005  -0.046  1.1449 -0.1445 -0.1896
  588MOL0     H81082   7.905   9.958  -0.172 -0.3728 -2.9025 -0.5739
  588MOL0     H81083   7.776  10.135  -0.325 -0.8153 -0.3346  0.2719
  588MOL0     H81084   7.674  10.149  -0.175 -0.9038 -3.3297  0.4916
  588MOL0     H81085   7.978  10.207  -0.176  0.5766  3.1748 -1.4730
  588MOL0     H81086   7.857  10.255  -0.050 -2.1595  0.1050 -0.5291
  588MOL0     H81087   7.856  10.361  -0.336  0.0914 -1.1773  0.3356
  588MOL0     H81088   7.756  10.414  -0.205 -0.7929 -1.2316  0.8074
  588MOL0     H81089   8.061  10.413  -0.231 -0.6559  0.8799 -1.2712
  588MOL0     H81090   7.984  10.456  -0.076  0.5546  1.0830 -0.0512
  588MOL0     H81091   8.017  10.632  -0.310 -0.0520  4.5663  1.7702
  588MOL0     H81092   7.855  10.631  -0.225 -0.7801  1.7495  2.3686
  588MOL0     H81093   7.871  10.743   0.033  0.8967  1.2151  1.6184
  588MOL0     H81094   8.065  10.888   0.244  0.1114 -0.3734  0.4012
  588MOL0     H81095   7.938  10.959   0.144  0.0085  0.4707  0.1283
  588MOL0     H81096   8.237  11.015   0.131 -0.2308 -0.4117  3.6860
  588MOL0     H81097   8.104  11.089   0.027  2.7704  1.0650 -0.0110
  588MOL0     H81098   8.006  11.184   0.232 -0.3269 -2.5709 -2.3473
  588MOL0     H81099   8.121  11.106   0.339  0.8479  1.1060  0.2250
  588MOL0     H81100   8.206  11.306   0.122 -1.2666  1.8624  1.3308
  588MOL0     H81101   8.203  11.351   0.293 -0.3544 -0.2180 -0.1417
  588MOL0     H81102   8.373  11.437   0.110  0.0888 -0.0751  0.5637
  588MOL0     H81103   8.478  11.599  -0.011  0.3382 -1.7559 -1.1546
  588MOL0     H81104   8.640  11.575  -0.074 -1.1108  2.2779 -0.8865
  588MOL0     H81105   8.626  11.664   0.073  4.0208 -1.7252 -0.3706
  588MOL0     H81106   8.941  11.787   0.205 -0.2903 -1.5968  1.1973
  588MOL0     H81107   9.169  11.899   0.160  3.1387 -0.6968 -0.7711
  588MOL0     H81108   9.459  11.674  -0.108  0.6788 -0.8171 -0.5522
  588MOL0     H81109   9.361  11.802  -0.201  1.9495  1.6645 -0.2359
  588MOL0     H81110   9.504  11.967  -0.157 -2.3895 -0.8388  0.7329
  588MOL0     H81111   9.589  11.875  -0.025 -0.2234  2.5556 -1.0968
  588MOL0     H81112   9.691  11.724  -0.200  0.4464  0.2234 -1.7326
  588MOL0     H81113   9.713  11.901  -0.246  0.9988  0.6239  0.6773
  588MOL0     H81114   9.502  11.867  -0.380 -0.1493 -0.2183 -0.4258
  588MOL0     H81115   9.516  11.694  -0.354  1.1790 -1.0037  1.3007
  588MOL0     H81116   9.732  11.693  -0.461  0.3388  0.6014  1.3026
  588MOL0     H81117   9.612  11.776  -0.575 -0.5637 -0.3307  1.2048
  588MOL0     H81118   9.846  11.901  -0.434 -0.4246 -3.5309  0.7746
  588MOL0     H81119   9.696  11.988  -0.477 -0.7497  0.0843 -2.7321
  588MOL0     H81120   9.734  11.923  -0.716  0.4679  2.8798 -0.8593
  588MOL0     H81121   9.885  11.834  -0.660  0.9041 -0.0452 -0.7108
  588MOL0     H81122   9.817  12.137  -0.638  1.8734  1.2322  1.5870
  588MOL0     H81123   9.928  12.069  -0.761  0.9008  1.5125  0.9598
  588MOL0     H81124   9.250  11.570  -0.106 -1.3964 -0.6302 -0.8098
  588MOL0     H81125   9.045  11.456  -0.036  1.3159 -0.3166  0.2119
  588MOL0     H81126   8.773  11.209   0.272 -0.4992 -0.9943 -0.9691
  588MOL0     H81127   8.555  11.097   0.268 -2.0093 -0.9832 -1.4829
  588MOL0     H81128   7.758   9.502  -0.026 -0.1176 -0.2446 -1.2168
  588MOL0     H81129   7.870   9.300   0.044 -0.3594 -0.6648 -1.1923
  588MOL0     H81130   8.342   9.136   0.074  2.0216  0.8456  2.4620
  588MOL0     H81131   8.466   8.943   0.105 -0.8808  0.5418  0.1797
  588MOL0     H81132   8.478   8.598   0.395  0.7827  1.9970  0.5704
  588MOL0     H81133   8.372   8.721   0.466 -1.4941  0.4035 -0.8129
  588MOL0     H81134   8.303   8.511   0.257  2.3789  1.5005 -0.4388
  588MOL0     H81135   8.181   8.598   0.336 -2.1290 -2.1171 -0.0568
  588MOL0     H81136   8.186   8.391   0.451 -1.8655  0.2701  2.5384
  588MOL0     H81137   8.367   8.391   0.463 -0.5099 -0.7872 -0.2353
  588MOL0     H81138   8.176   8.588   0.607  1.0932 -0.2019  0.7942
  588MOL0     H81139   8.351   8.590   0.627 -0.2180  1.5827 -1.5367
  588MOL0     H81140   8.227   8.240   0.845 -1.8849 -0.3608 -0.1373
  588MOL0     H81141   8.173   8.801   0.391  0.9776 -2.4637 -1.9232
  588MOL0     H81142   8.014   8.977   0.478 -2.2185 -0.4688  0.1882
  588MOL0     H81143   7.949   9.087   0.365 -1.5669 -1.3777 -2.3375
  588MOL0     H81144   7.935   8.911   0.337 -0.4143 -0.0827 -0.8847
  589MOL0     O81145   6.210   3.718   0.687  0.1282  0.3586  0.8607
  589MOL0     C81146   6.192   3.687   0.568  0.1893 -0.4747 -0.0874
  589MOL0     O81147   6.283   3.722   0.470 -0.3280  0.0496 -0.0525
  589MOL0     C81148   6.408   3.768   0.505  0.8120 -0.5363  0.1428
  589MOL0     C81149   6.427   3.875   0.591 -0.3091  0.3735  0.9562
  589MOL0     C81150   6.555   3.933   0.612  0.1285  0.0110 -0.8216
  589MOL0     C81151   6.666   3.877   0.552  0.4246  1.4258  0.4152
  589MOL0     O81152   6.793   3.918   0.581 -0.0598  0.0676  0.0238
  589MOL0     C81153   6.835   3.881   0.714  0.8882  0.1852  0.2590
  589MOL0     C81154   6.989   3.858   0.731 -0.3543 -0.1909 -0.2244
  589MOL0     C81155   7.091   3.965   0.680  0.2636  0.5259  1.2348
  589MOL0     C81156   7.243   3.946   0.728 -0.2676  0.2328 -0.6657
  589MOL0     C81157   7.325   4.075   0.709  0.2816  0.3765 -0.2569
  589MOL0     C81158   7.480   4.052   0.739 -0.1252  0.2843  0.0215
  589MOL0     C81159   7.522   4.038   0.889  0.1137 -0.1737 -0.5478
  589MOL0     C81160   7.647   3.951   0.924  0.6943 -0.8136 -0.2207
  589MOL0     N81161   7.669   3.943   1.070  0.2909  0.3563  1.0142
  589MOL0     C81162   7.678   3.822   1.134 -0.5309 -0.3281  0.5254
  589MOL0     C81163   7.684   3.856   1.264 -0.0898  0.2328 -0.9478
  589MOL0     C81164   7.719   3.766   1.383  0.9035 -0.1671  0.5739
  589MOL0     C81165   7.873   3.760   1.383 -0.3927 -0.0116 -0.5553
  589MOL0     C81166   7.918   3.643   1.295 -0.3865 -0.0518 -0.1366
  589MOL0     C81167   8.074   3.649   1.270  0.2132 -0.8833  0.0429
  589MOL0     O81168   8.116   3.552   1.167  0.0815 -0.1933 -0.4359
  589MOL0     C81169   8.107   3.611   1.049 -0.2617  0.1557  0.5875
  589MOL0     C81170   8.078   3.746   1.005  0.2833  0.0339 -0.6345
  589MOL0     C81171   8.072   3.788   0.874 -0.4402  0.2328 -0.1982
  589MOL0     C81172   8.013   3.921   0.835 -0.1943 -0.9719 -0.5423
  589MOL0     C81173   8.110   3.690   0.774 -0.7652  0.1360  0.7776
  589MOL0     C81174   8.115   3.721   0.620 -0.8348  0.3252 -0.2431
  589MOL0     O81175   8.153   3.847   0.591 -0.0981  0.0211  0.7270
  589MOL0     C81176   8.166   3.879   0.458 -0.7643 -0.0176 -0.2003
  589MOL0     C81177   8.283   3.843   0.392  0.1786  0.0081 -0.3115
  589MOL0     C81178   8.307   3.871   0.261 -0.1501 -0.4839 -1.1666
  589MOL0     C81179   8.220   3.961   0.196  0.2175  0.5809  0.4553
  589MOL0     O81180   8.235   4.007   0.065 -0.0806  0.1346 -0.6269
  589MOL0     C81181   8.334   3.949  -0.024  0.3209  0.0054  0.0731
  589MOL0     C81182   8.319   3.976  -0.173  0.1508  0.4908  0.1165
  589MOL0     C81183   8.223   3.872  -0.224  0.5340 -0.2799 -0.3163
  589MOL0     C81184   8.167   3.898  -0.368 -0.5449  0.1969 -0.1108
  589MOL0     C81185   8.047   3.805  -0.410  0.3453  1.3418  0.5142
  589MOL0     C81186   8.021   3.789  -0.564 -0.5812  0.8096 -0.4165
  589MOL0     C81187   8.138   3.724  -0.636  0.2873  0.0223  0.5533
  589MOL0     C81188   8.117   3.652  -0.773 -0.0892 -0.3493 -0.9064
  589MOL0    Cl81189   7.985   3.534  -0.742  0.0189 -0.4084 -0.0686
  589MOL0     C81190   8.108   4.002   0.263 -0.0790 -0.5059 -1.6308
  589MOL0     C81191   8.078   3.971   0.399 -0.2522 -0.0082 -0.4743
  589MOL0     O81192   8.112   3.627   0.539  0.5416  0.5726 -0.0870
  589MOL0     C81193   8.149   3.563   0.812 -0.2476 -0.6230 -0.4728
  589MOL0     C81194   8.153   3.529   0.945 -0.5946 -0.0391 -0.5489
  589MOL0     N81195   7.664   3.989   1.276  0.2071  0.1695 -0.6414
  589MOL0     N81196   7.652   4.040   1.161 -0.3435  0.5978  0.2167
  589MOL0     C81197   6.649   3.764   0.468 -0.4856 -0.7278  0.5450
  589MOL0     C81198   6.521   3.718   0.442  0.4863  0.3035 -0.1969
  589MOL0     C81199   6.059   3.617   0.533 -0.1447 -0.0037 -0.3288
  589MOL0     C81200   5.962   3.584   0.629 -0.5954 -0.3649 -0.1042
  589MOL0     C81201   5.839   3.545   0.599  0.8866  1.1943 -0.3053
  589MOL0     C81202   5.801   3.517   0.464  0.6233  0.6609 -0.1212
  589MOL0     O81203   5.676   3.476   0.432  0.1251  0.2573  0.3501
  589MOL0     C81204   5.614   3.398   0.530  0.2546  0.2724 -0.5632
  589MOL0     C81205   5.496   3.306   0.477 -0.1790 -0.9637 -0.9034
  589MOL0     C81206   5.524   3.240   0.348  0.7819  0.1462  0.1694
  589MOL0     C81207   5.406   3.158   0.302 -0.4937  0.0003 -0.2652
  589MOL0     C81208   5.449   3.081   0.183  0.3064  0.5218 -0.7698
  589MOL0     C81209   5.488   2.996   0.105  0.9759 -0.0582  0.4753
  589MOL0     C81210   5.896   3.541   0.370 -0.7510  0.0630  0.6292
  589MOL0     C81211   6.029   3.592   0.397  0.3443 -0.4035  0.8382
  589MOL0     C81212   6.106   3.633   0.274 -0.6330  1.1964 -1.1744
  589MOL0     H81213   6.341   3.931   0.628  0.4834  1.9487  0.5139
  589MOL0     H81214   6.569   4.029   0.661 -2.8916 -0.7175  1.7837
  589MOL0     H81215   6.780   3.787   0.723 -0.9793  0.9503 -2.0994
  589MOL0     H81216   6.813   3.963   0.782  1.4811  0.0954  0.5684
  589MOL0     H81217   7.002   3.853   0.839 -2.3242  1.3010  0.1440
  589MOL0     H81218   7.014   3.762   0.684  0.2612 -0.9881  1.6532
  589MOL0     H81219   7.092   3.954   0.571  2.3822  1.5537  1.1097
  589MOL0     H81220   7.051   4.064   0.703 -2.1571 -0.1565  0.2906
  589MOL0     H81221   7.251   3.924   0.834  1.7145  0.4870 -0.7311
  589MOL0     H81222   7.293   3.862   0.681  0.6725 -0.6804  1.8102
  589MOL0     H81223   7.286   4.146   0.784  0.3837 -0.4463  0.6022
  589MOL0     H81224   7.311   4.113   0.608 -3.0721 -2.5204 -1.0655
  589MOL0     H81225   7.526   3.971   0.681  0.4991  0.6720 -0.0291
  589MOL0     H81226   7.526   4.139   0.692  0.0240 -0.3193 -0.9993
  589MOL0     H81227   7.442   3.998   0.951  0.9163 -1.1242 -0.1084
  589MOL0     H81228   7.528   4.143   0.920 -0.9810  0.7273 -3.1020
  589MOL0     H81229   7.641   3.851   0.881  0.7974 -1.6003  1.4947
  589MOL0     H81230   7.725   4.012   0.877 -1.3114 -0.3242 -3.1844
  589MOL0     H81231   7.680   3.722   1.091 -0.2788  0.9661 -2.7633
  589MOL0     H81232   7.677   3.666   1.368  0.3551 -0.0358  1.1785
  589MOL0     H81233   7.694   3.816   1.477 -0.6872  1.7329 -0.7732
  589MOL0     H81234   7.914   3.854   1.343  0.2091  1.7309  3.5851
  589MOL0     H81235   7.925   3.767   1.479 -0.2481  1.7661 -0.7118
  589MOL0     H81236   7.899   3.548   1.345 -0.4437 -0.1851 -0.4101
  589MOL0     H81237   7.873   3.657   1.196  1.1208  3.9721 -0.4556
  589MOL0     H81238   8.116   3.750   1.266 -1.9187  0.3043  3.1178
  589MOL0     H81239   8.136   3.613   1.353  2.0308  0.3821 -0.6918
  589MOL0     H81240   8.050   3.823   1.076  0.5255 -0.7522  0.3348
  589MOL0     H81241   8.093   3.988   0.801 -1.1134  0.2492 -0.3558
  589MOL0     H81242   7.967   3.959   0.926  1.0269  0.0359 -0.3094
  589MOL0     H81243   7.942   3.923   0.753 -1.1372  1.0846  0.2583
  589MOL0     H81244   8.348   3.765   0.429  2.2336 -0.3816 -4.2029
  589MOL0     H81245   8.404   3.840   0.223  0.7705 -1.6081  1.7819
  589MOL0     H81246   8.435   3.982   0.001  0.2151 -0.8283  1.7275
  589MOL0     H81247   8.334   3.840  -0.011  1.5558 -0.2838 -1.8611
  589MOL0     H81248   8.272   4.075  -0.188 -0.7281  0.4252  2.1367
  589MOL0     H81249   8.407   3.972  -0.238 -0.1797 -0.0955 -0.3012
  589MOL0     H81250   8.130   3.881  -0.167  0.4302 -2.2061 -0.1402
  589MOL0     H81251   8.268   3.773  -0.219  0.2756 -0.3506  1.8245
  589MOL0     H81252   8.252   3.888  -0.436 -0.0817 -2.0829  0.7009
  589MOL0     H81253   8.127   3.999  -0.364 -2.4153 -0.3886 -2.0258
  589MOL0     H81254   8.058   3.704  -0.370  0.7749  0.3825 -1.8460
  589MOL0     H81255   7.964   3.856  -0.360 -0.6629  0.3609 -0.0888
  589MOL0     H81256   7.990   3.887  -0.603 -0.8908  0.7329 -0.3709
  589MOL0     H81257   7.932   3.726  -0.565 -0.4215  0.5616 -1.9733
  589MOL0     H81258   8.185   3.661  -0.560  1.0476 -1.9672 -1.4455
  589MOL0     H81259   8.211   3.799  -0.670  0.1734 -0.8910 -1.9651
  589MOL0     H81260   8.208   3.603  -0.809  0.1337 -0.6026 -0.0235
  589MOL0     H81261   8.086   3.722  -0.851  2.0595  0.0463 -1.4578
  589MOL0     H81262   8.035   4.063   0.211 -1.2717  0.7092  1.2404
  589MOL0     H81263   7.992   4.023   0.440 -0.0669 -0.7217  0.8602
  589MOL0     H81264   8.184   3.485   0.746 -0.6568  0.2192 -1.7197
  589MOL0     H81265   8.189   3.432   0.980 -0.1042  0.3182 -0.0355
  589MOL0     H81266   6.733   3.714   0.421 -1.5027 -0.1460 -2.0153
  589MOL0     H81267   6.513   3.633   0.375  1.6550 -0.5499  0.7099
  589MOL0     H81268   5.983   3.598   0.734 -0.9863 -0.4837 -0.0069
  589MOL0     H81269   5.776   3.522   0.685  2.4482  0.2094  0.6234
  589MOL0     H81270   5.688   3.330   0.573 -0.8355 -2.0461 -2.1322
  589MOL0     H81271   5.578   3.472   0.602  0.8761 -0.2243  0.2619
  589MOL0     H81272   5.404   3.362   0.459 -0.4152 -0.5055  1.4205
  589MOL0     H81273   5.464   3.229   0.548 -1.6487  0.0987 -0.3607
  589MOL0     H81274   5.540   3.317   0.272  0.9004  2.0587  2.0539
  589MOL0     H81275   5.613   3.177   0.349  1.0530  0.5311  0.3452
  589MOL0     H81276   5.322   3.220   0.270  1.2555  2.1568 -0.9218
  589MOL0     H81277   5.359   3.095   0.378 -1.3629  3.1556  2.0186
  589MOL0     H81278   5.529   2.922   0.040  0.7994  1.1697 -1.0941
  589MOL0     H81279   5.866   3.529   0.267  4.3058  0.4361 -1.1543
  589MOL0     H81280   6.132   3.739   0.269 -1.9498  1.6829  0.9581
  589MOL0     H81281   6.190   3.564   0.259 -0.6118  0.8278  0.4006
  589MOL0     H81282   6.037   3.621   0.190  0.3378 -1.4753 -1.6864
  590MOL0     O81283   8.580   7.978   7.576  0.5352 -0.2030  0.2483
  590MOL0     C81284   8.665   8.070   7.594 -0.0453  0.7575  0.0134
  590MOL0     O81285   8.776   8.099   7.511  1.1094  0.0104 -0.2243
  590MOL0     C81286   8.788   8.031   7.398 -0.4416 -0.1041 -0.2460
  590MOL0     C81287   8.803   7.892   7.399 -0.4532  0.1030 -0.2431
  590MOL0     C81288   8.826   7.830   7.277 -0.5803 -0.2189 -0.3031
  590MOL0     C81289   8.847   7.902   7.156 -0.0306 -0.3008 -0.3422
  590MOL0     O81290   8.884   7.850   7.034  0.2222 -0.0800 -0.5395
  590MOL0     C81291   8.864   7.712   7.011  0.0745 -0.1304 -0.0304
  590MOL0     C81292   8.988   7.630   7.068  0.1913  0.5609  0.7336
  590MOL0     C81293   9.112   7.633   6.983 -0.1272 -0.3835 -0.0789
  590MOL0     C81294   9.196   7.511   7.001 -0.9948 -0.3551  0.1210
  590MOL0     C81295   9.234   7.475   7.142  0.2201  0.3699  0.2883
  590MOL0     C81296   9.331   7.580   7.205  0.0859  0.0463  0.6528
  590MOL0     C81297   9.342   7.573   7.357  0.4992 -0.0055 -0.5374
  590MOL0     C81298   9.471   7.643   7.385  0.7382 -0.6717 -0.0386
  590MOL0     N81299   9.480   7.674   7.525 -0.6703  0.1492 -0.6695
  590MOL0     C81300   9.456   7.593   7.630  0.5701  0.0837  0.2359
  590MOL0     C81301   9.496   7.651   7.742 -0.8651  0.5826 -0.0889
  590MOL0     C81302   9.493   7.576   7.877  0.0008 -0.4263 -0.6018
  590MOL0     C81303   9.603   7.601   7.975 -0.6805  0.1726 -0.8703
  590MOL0     C81304   9.594   7.497   8.089 -0.6116  0.1243 -1.1380
  590MOL0     C81305   9.673   7.377   8.055 -0.0514  0.2204 -0.1298
  590MOL0     O81306   9.808   7.392   8.090 -0.2825 -0.5271  0.2689
  590MOL0     C81307   9.904   7.305   8.046 -1.3512 -0.1143  0.5696
  590MOL0     C81308  10.038   7.343   8.054 -0.4153  0.2239  0.9018
  590MOL0     C81309  10.142   7.258   7.993  0.1732  0.7894  0.0120
  590MOL0     C81310  10.291   7.294   8.007  0.6346  0.9149  1.0233
  590MOL0     C81311  10.102   7.133   7.937 -0.5011  0.1532  0.1604
  590MOL0     C81312  10.189   7.033   7.862 -0.0970 -0.2901  0.6169
  590MOL0     O81313  10.159   6.905   7.879 -0.0868 -0.3157  0.5917
  590MOL0     C81314  10.241   6.812   7.830 -0.4664  0.0436  0.4118
  590MOL0     C81315  10.187   6.705   7.762 -0.7218  0.5121  0.3280
  590MOL0     C81316  10.268   6.622   7.696 -0.9774  0.5764 -0.1057
  590MOL0     C81317  10.408   6.628   7.706 -0.3317  1.4242  0.0213
  590MOL0     O81318  10.480   6.529   7.645  0.5195  0.1417 -0.3998
  590MOL0     C81319  10.611   6.556   7.599 -0.3868  0.2916 -0.5337
  590MOL0     C81320  10.643   6.452   7.486 -0.3630 -0.3953  0.1304
  590MOL0     C81321  10.695   6.313   7.537  0.1736 -0.1978 -0.1774
  590MOL0     C81322  10.839   6.315   7.593 -0.3490 -0.1739 -0.0153
  590MOL0     C81323  10.884   6.180   7.660  0.3970  0.6403 -0.6433
  590MOL0     C81324  11.034   6.166   7.692  0.4289  0.3914  0.5389
  590MOL0     C81325  11.060   6.029   7.731  1.0455  0.5410 -1.0006
  590MOL0     C81326  11.170   6.017   7.830 -1.3971  0.2593 -0.7677
  590MOL0    Cl81327  11.109   6.054   7.995  0.1732  0.2461 -0.0344
  590MOL0     C81328  10.468   6.721   7.785  1.7511 -0.5470 -0.1690
  590MOL0     C81329  10.385   6.810   7.846  0.1274 -0.3518  0.1424
  590MOL0     O81330  10.268   7.081   7.775  0.6234 -0.3563  0.0351
  590MOL0     C81331   9.968   7.093   7.941 -0.3533 -0.6722  0.9024
  590MOL0     C81332   9.877   7.182   7.989  0.9106 -0.2933 -0.5269
  590MOL0     N81333   9.557   7.770   7.709  0.3607  0.4732 -0.3820
  590MOL0     N81334   9.556   7.779   7.584  1.1833  0.7014  0.9059
  590MOL0     C81335   8.842   8.035   7.160  0.2743 -0.0296  0.7767
  590MOL0     C81336   8.812   8.101   7.276  0.5119  0.2606 -0.0491
  590MOL0     C81337   8.675   8.138   7.726  0.3526  0.3420  0.6325
  590MOL0     C81338   8.751   8.259   7.729  0.2401  0.1117  0.0553
  590MOL0     C81339   8.759   8.326   7.853  0.1666  0.0018  0.0923
  590MOL0     C81340   8.685   8.287   7.959 -0.1121  0.0728  0.5132
  590MOL0     O81341   8.699   8.364   8.069 -0.1053 -0.6759 -0.5975
  590MOL0     C81342   8.588   8.410   8.142 -0.4009  0.5662  0.4555
  590MOL0     C81343   8.611   8.541   8.219 -0.0233  0.1864  0.0886
  590MOL0     C81344   8.736   8.536   8.304  0.6463 -1.2881 -0.9544
  590MOL0     C81345   8.702   8.517   8.453  0.1760  1.0912 -0.2739
  590MOL0     C81346   8.676   8.375   8.468  1.0298  0.5151  0.0972
  590MOL0     C81347   8.657   8.254   8.491 -0.5481 -0.4464 -0.3251
  590MOL0     C81348   8.607   8.169   7.959  0.0280  0.0951  0.3385
  590MOL0     C81349   8.602   8.084   7.844  0.4597 -0.7834  0.9322
  590MOL0     C81350   8.508   7.960   7.851 -0.5922 -0.2977 -0.1970
  590MOL0     H81351   8.790   7.832   7.489  0.0623 -0.2779 -0.4187
  590MOL0     H81352   8.809   7.723   7.281 -2.2966 -0.0605 -1.9338
  590MOL0     H81353   8.854   7.690   6.904 -0.4644 -0.6254  0.1211
  590MOL0     H81354   8.769   7.687   7.058 -0.3696  0.6532 -0.4852
  590MOL0     H81355   9.017   7.658   7.170  1.8979 -0.1976  0.4975
  590MOL0     H81356   8.955   7.526   7.075 -2.8255  1.3196 -0.8319
  590MOL0     H81357   9.087   7.658   6.880 -0.8789 -1.3018 -0.1396
  590MOL0     H81358   9.169   7.726   6.995  3.0612 -1.6093 -3.5777
  590MOL0     H81359   9.150   7.426   6.951  1.7306  0.2513 -3.8889
  590MOL0     H81360   9.279   7.536   6.934  1.0630 -1.3492  2.1242
  590MOL0     H81361   9.284   7.378   7.150 -1.1064 -0.2669  1.3215
  590MOL0     H81362   9.141   7.466   7.199 -0.2663  0.2416 -0.5165
  590MOL0     H81363   9.426   7.560   7.155 -1.1112  0.1482 -1.8308
  590MOL0     H81364   9.301   7.681   7.175 -2.0495 -0.1084  2.0362
  590MOL0     H81365   9.322   7.474   7.401 -0.2184 -0.1362 -1.1332
  590MOL0     H81366   9.262   7.640   7.387  2.2774  0.6963  3.1667
  590MOL0     H81367   9.559   7.588   7.349  1.1827 -0.7195  1.0842
  590MOL0     H81368   9.468   7.733   7.323 -1.6422 -0.9519 -0.4349
  590MOL0     H81369   9.405   7.498   7.616 -4.3787  2.3130  1.0545
  590MOL0     H81370   9.500   7.468   7.857 -1.7133 -0.5523 -0.7376
  590MOL0     H81371   9.399   7.599   7.929  1.3235  1.8044  0.9502
  590MOL0     H81372   9.697   7.593   7.920  0.0056 -0.1331  0.3095
  590MOL0     H81373   9.582   7.700   8.015  0.7755  0.3247 -0.4426
  590MOL0     H81374   9.637   7.542   8.179 -1.0053 -0.5283 -0.6182
  590MOL0     H81375   9.487   7.478   8.104 -1.0590  3.6572  1.5610
  590MOL0     H81376   9.636   7.294   8.116 -1.6174  0.3092 -0.9127
  590MOL0     H81377   9.659   7.348   7.951 -1.6816 -2.0653  0.6604
  590MOL0     H81378  10.066   7.436   8.104  0.1583  0.7751 -0.4091
  590MOL0     H81379  10.299   7.371   8.085 -0.9670  1.2931  0.8516
  590MOL0     H81380  10.322   7.334   7.910  1.1931  1.2643  1.3396
  590MOL0     H81381  10.354   7.208   8.030 -0.1144  0.1595  0.2965
  590MOL0     H81382  10.080   6.692   7.753 -1.3363  3.0357  2.5196
  590MOL0     H81383  10.227   6.541   7.638  1.0717 -2.3126  2.2127
  590MOL0     H81384  10.616   6.662   7.573  0.4012  0.1644 -0.9476
  590MOL0     H81385  10.683   6.531   7.678 -1.5705 -2.6603 -0.2736
  590MOL0     H81386  10.554   6.436   7.425 -1.2089 -2.4265  1.7646
  590MOL0     H81387  10.722   6.495   7.424 -1.5567  2.7472  0.5590
  590MOL0     H81388  10.699   6.245   7.451  2.0264  0.2066 -0.4492
  590MOL0     H81389  10.627   6.254   7.600  0.8092 -0.8726 -0.1087
  590MOL0     H81390  10.843   6.394   7.668  0.7287  0.3866 -0.6419
  590MOL0     H81391  10.904   6.330   7.506  1.3167 -0.0958  1.1897
  590MOL0     H81392  10.817   6.161   7.744 -0.1214  0.3350 -1.1173
  590MOL0     H81393  10.862   6.101   7.587  0.9581 -0.3946  0.2745
  590MOL0     H81394  11.061   6.225   7.780 -0.9803  0.4164  0.9766
  590MOL0     H81395  11.096   6.193   7.606  0.5064  1.4252  0.9089
  590MOL0     H81396  11.078   5.975   7.638  1.4745  1.5478 -1.5160
  590MOL0     H81397  10.972   5.981   7.775  1.2666  1.7893  0.9214
  590MOL0     H81398  11.256   6.080   7.809 -1.8998  0.6876 -1.6476
  590MOL0     H81399  11.198   5.911   7.830 -2.6410 -0.0899 -0.1142
  590MOL0     H81400  10.576   6.719   7.797  1.7335 -2.5730  0.0991
  590MOL0     H81401  10.435   6.885   7.906  4.0538 -2.4861 -0.1345
  590MOL0     H81402   9.933   7.000   7.898 -1.7248 -1.0215  2.6633
  590MOL0     H81403   9.774   7.152   7.981  0.8560 -0.4014  0.5597
  590MOL0     H81404   8.867   8.085   7.067 -0.3462 -0.0110  0.6209
  590MOL0     H81405   8.812   8.210   7.267  2.9512  0.2091 -1.6890
  590MOL0     H81406   8.811   8.300   7.648  2.2589 -0.0539  1.3912
  590MOL0     H81407   8.828   8.409   7.861  2.8323 -1.9246 -1.4093
  590MOL0     H81408   8.515   8.426   8.062  2.9198 -0.5481 -3.0602
  590MOL0     H81409   8.538   8.337   8.206 -1.2067  1.9764  1.5160
  590MOL0     H81410   8.523   8.566   8.279 -0.2902 -2.0500  0.7449
  590MOL0     H81411   8.624   8.623   8.149  0.5952  1.6403  1.8228
  590MOL0     H81412   8.820   8.473   8.272  1.0400 -1.3684  0.2144
  590MOL0     H81413   8.759   8.643   8.298 -0.6026 -0.7994  1.6186
  590MOL0     H81414   8.619   8.579   8.488 -0.0923  0.9885 -0.7180
  590MOL0     H81415   8.787   8.533   8.520  0.3727 -0.4025 -0.1271
  590MOL0     H81416   8.625   8.154   8.512 -4.0152  0.7452  0.9022
  590MOL0     H81417   8.566   8.135   8.054  2.2795  0.7633  1.6343
  590MOL0     H81418   8.477   7.940   7.954  3.4420  1.6815  1.6391
  590MOL0     H81419   8.425   7.984   7.785 -1.8452  1.8695  1.9979
  590MOL0     H81420   8.558   7.865   7.829  0.1690 -0.5781  2.3657
  591MOL0     O81421   5.312   8.520   3.447  0.4078 -0.2522  0.0143
  591MOL0     C81422   5.431   8.531   3.477  0.6722 -0.3297  0.7972
  591MOL0     O81423   5.487   8.463   3.579 -0.0649 -0.3446 -0.3829
  591MOL0     C81424   5.443   8.342   3.628  0.4874  0.5810 -0.2178
  591MOL0     C81425   5.365   8.258   3.547 -0.6755  0.6254 -0.4588
  591MOL0     C81426   5.306   8.146   3.607  0.5449  0.4258  0.3071
  591MOL0     C81427   5.343   8.106   3.742  0.3938 -0.1077 -0.0074
  591MOL0     O81428   5.282   8.003   3.809  0.3284  0.1068  0.9504
  591MOL0     C81429   5.310   7.975   3.943 -0.4949 -0.3080 -0.1983
  591MOL0     C81430   5.222   7.881   4.015  0.3723  0.1742 -0.3970
  591MOL0     C81431   5.211   7.750   3.946  0.4939 -0.2623  0.1806
  591MOL0     C81432   5.090   7.746   3.854  0.0754  0.3036 -0.1624
  591MOL0     C81433   5.085   7.603   3.781 -0.4969  0.4489 -0.4365
  591MOL0     C81434   4.980   7.625   3.676  0.2180  0.6997  1.4420
  591MOL0     C81435   5.028   7.720   3.556 -0.8103  0.1066 -0.5086
  591MOL0     C81436   4.928   7.761   3.454 -0.0359  0.6863 -0.1467
  591MOL0     N81437   4.998   7.834   3.347 -0.2131  0.3969  0.2023
  591MOL0     C81438   5.063   7.779   3.240  0.7967 -0.1405 -0.7695
  591MOL0     C81439   5.126   7.878   3.173 -0.7138  0.8163  0.9942
  591MOL0     C81440   5.218   7.884   3.049  0.1395  0.4055  0.0246
  591MOL0     C81441   5.369   7.873   3.092  0.5652 -0.9110 -0.2656
  591MOL0     C81442   5.433   8.009   3.144  1.0439  1.3136  0.3406
  591MOL0     C81443   5.439   8.010   3.295  0.3043 -1.0576 -0.3340
  591MOL0     O81444   5.516   7.900   3.351  0.3350  0.0583  0.1796
  591MOL0     C81445   5.644   7.930   3.393  0.5874  0.1709 -0.1854
  591MOL0     C81446   5.678   8.050   3.458  0.6178 -0.2564 -0.2977
  591MOL0     C81447   5.804   8.090   3.494 -0.1459 -0.4099 -0.1611
  591MOL0     C81448   5.838   8.224   3.559  0.1782 -0.0188 -0.2840
  591MOL0     C81449   5.907   7.996   3.470 -0.7652 -0.7914 -0.4448
  591MOL0     C81450   6.052   8.016   3.511 -0.2732 -0.1389 -0.6048
  591MOL0     O81451   6.115   8.125   3.460  0.0151 -0.6442  0.7232
  591MOL0     C81452   6.230   8.169   3.522  0.1404  0.7181 -0.7470
  591MOL0     C81453   6.355   8.184   3.462 -0.2759 -0.7643 -0.0523
  591MOL0     C81454   6.466   8.235   3.535 -0.3216 -1.2203 -0.8570
  591MOL0     C81455   6.447   8.263   3.673 -0.0149 -0.2200  0.0896
  591MOL0     O81456   6.563   8.289   3.748 -0.6287  0.3986 -0.0079
  591MOL0     C81457   6.547   8.376   3.859  0.1335  0.6196  0.4309
  591MOL0     C81458   6.687   8.393   3.919  0.1249 -0.4526 -0.1216
  591MOL0     C81459   6.731   8.280   3.996  0.3486  0.0426  0.8479
  591MOL0     C81460   6.863   8.306   4.085  0.5546  0.3047  0.1603
  591MOL0     C81461   6.975   8.341   3.999  0.6335 -0.0189  0.0604
  591MOL0     C81462   7.083   8.393   4.084 -0.0888 -0.3266  0.5407
  591MOL0     C81463   7.173   8.498   4.009  0.5087 -1.4293 -0.1491
  591MOL0     C81464   7.284   8.550   4.099  0.4661  1.1422  0.6108
  591MOL0    Cl81465   7.397   8.653   4.010  0.0918 -0.3430 -0.2539
  591MOL0     C81466   6.316   8.266   3.725  0.1041 -0.1933 -0.4985
  591MOL0     C81467   6.210   8.214   3.656 -0.7154  0.5797  0.1671
  591MOL0     O81468   6.101   7.921   3.581  0.3862 -0.1152  0.4872
  591MOL0     C81469   5.878   7.870   3.408 -0.6192 -0.2522 -0.0841
  591MOL0     C81470   5.745   7.834   3.379 -0.0844 -0.0629  0.5306
  591MOL0     N81471   5.077   7.993   3.237  0.2676 -1.2516 -0.0291
  591MOL0     N81472   5.007   7.967   3.339 -0.2522 -0.0035  0.2261
  591MOL0     C81473   5.438   8.186   3.807 -0.2733  0.1721  0.1919
  591MOL0     C81474   5.490   8.297   3.747  0.0910 -0.4781  0.0252
  591MOL0     C81475   5.508   8.625   3.381 -0.5708  0.6944  0.4760
  591MOL0     C81476   5.448   8.755   3.367 -1.1463  0.4069  0.0297
  591MOL0     C81477   5.509   8.841   3.284 -0.4584  0.5108  0.0998
  591MOL0     C81478   5.631   8.824   3.218 -0.1300 -0.3706 -0.8759
  591MOL0     O81479   5.679   8.916   3.133  0.0332 -0.7269 -0.3119
  591MOL0     C81480   5.806   8.969   3.162 -0.0900 -0.0859  0.0047
  591MOL0     C81481   5.784   9.093   3.266 -0.4154  0.1336  0.1246
  591MOL0     C81482   5.805   9.046   3.409 -0.4315  0.4998 -0.1701
  591MOL0     C81483   5.853   9.172   3.499 -0.0263  0.2405  0.3755
  591MOL0     C81484   5.806   9.142   3.635 -0.7228 -0.1275  0.4237
  591MOL0     C81485   5.769   9.121   3.744  0.2283 -0.0395 -0.2746
  591MOL0     C81486   5.696   8.702   3.241 -0.7380 -0.5355  0.0179
  591MOL0     C81487   5.635   8.607   3.317  0.5133  0.6477  0.4462
  591MOL0     C81488   5.696   8.473   3.319 -0.8435 -0.4335  0.1717
  591MOL0     H81489   5.331   8.292   3.450  1.2095  1.6971 -0.7719
  591MOL0     H81490   5.234   8.095   3.544  2.5534 -2.3952  0.1117
  591MOL0     H81491   5.291   8.062   4.006  1.8929  0.9502 -1.1103
  591MOL0     H81492   5.412   7.936   3.952  0.0088  0.8627 -0.6927
  591MOL0     H81493   5.257   7.872   4.118 -3.6607 -0.6069  1.0671
  591MOL0     H81494   5.125   7.931   4.022  0.9112  1.1223  0.5758
  591MOL0     H81495   5.302   7.720   3.894  1.2652  0.9258  0.8074
  591MOL0     H81496   5.183   7.679   4.025 -3.4762  2.1910  1.2768
  591MOL0     H81497   4.994   7.763   3.904  1.7906  0.4475  3.3882
  591MOL0     H81498   5.111   7.826   3.783  2.5699 -0.2114 -0.1007
  591MOL0     H81499   5.063   7.530   3.859  4.2052  0.9679  1.7471
  591MOL0     H81500   5.178   7.565   3.740 -3.3112 -1.6565 -5.7862
  591MOL0     H81501   4.948   7.530   3.632  0.8526  2.1569 -2.6167
  591MOL0     H81502   4.886   7.667   3.711 -2.1361 -1.2830 -1.9411
  591MOL0     H81503   5.112   7.662   3.517 -0.2266 -0.0555  0.9432
  591MOL0     H81504   5.065   7.812   3.600  0.2786 -0.3145 -0.5225
  591MOL0     H81505   4.874   7.671   3.422  0.3883  0.1315  0.6694
  591MOL0     H81506   4.850   7.821   3.502 -0.2714 -0.1665  0.5715
  591MOL0     H81507   5.057   7.670   3.240  3.8021 -0.3890 -1.5954
  591MOL0     H81508   5.197   7.971   2.987 -1.0550  1.7687  2.1851
  591MOL0     H81509   5.198   7.799   2.984  0.9683  2.3271 -2.9088
  591MOL0     H81510   5.383   7.787   3.158 -0.0559 -0.8749 -0.0830
  591MOL0     H81511   5.429   7.848   3.004  1.0525 -1.4127  0.2014
  591MOL0     H81512   5.525   8.023   3.087 -0.9483  2.9510 -2.7836
  591MOL0     H81513   5.363   8.090   3.122 -1.1478 -0.9435 -1.6224
  591MOL0     H81514   5.476   8.110   3.321 -1.2027  0.2874 -2.8642
  591MOL0     H81515   5.333   8.002   3.322 -0.5745  2.3836 -2.1673
  591MOL0     H81516   5.597   8.114   3.494  1.0526  0.0699  0.1101
  591MOL0     H81517   5.737   8.256   3.587  0.1276  1.3224 -1.8396
  591MOL0     H81518   5.876   8.301   3.491 -1.2619  0.3896 -0.6571
  591MOL0     H81519   5.904   8.213   3.646 -1.8416  5.2875  2.3468
  591MOL0     H81520   6.368   8.149   3.360 -0.3152  0.6243 -0.5522
  591MOL0     H81521   6.562   8.254   3.488 -0.4546  2.0538 -0.0499
  591MOL0     H81522   6.497   8.470   3.834  1.6073  1.0042 -1.2579
  591MOL0     H81523   6.486   8.325   3.935 -1.7567  3.3321  0.8654
  591MOL0     H81524   6.751   8.405   3.832 -1.8580  2.8661 -1.3141
  591MOL0     H81525   6.680   8.489   3.972 -1.8624 -0.0102 -1.0748
  591MOL0     H81526   6.772   8.215   3.918  1.2170  3.6370 -1.9879
  591MOL0     H81527   6.651   8.235   4.055 -0.6500 -0.7663 -1.0381
  591MOL0     H81528   6.885   8.211   4.135 -4.5948 -1.4016 -0.2541
  591MOL0     H81529   6.847   8.370   4.172  0.7675  2.7514 -1.5089
  591MOL0     H81530   7.017   8.260   3.939  2.1773  0.8258 -0.0613
  591MOL0     H81531   6.954   8.413   3.920 -0.0978 -0.3406 -0.0397
  591MOL0     H81532   7.143   8.309   4.121  0.8586  0.7666  1.6189
  591MOL0     H81533   7.038   8.453   4.164 -3.1415 -0.3434 -1.0130
  591MOL0     H81534   7.122   8.586   3.968  3.6623  0.7700  0.3046
  591MOL0     H81535   7.220   8.465   3.917 -0.3912  1.2397 -1.6767
  591MOL0     H81536   7.343   8.465   4.135 -0.6023 -0.6019 -1.5607
  591MOL0     H81537   7.243   8.597   4.189  0.6706  0.9010  0.8306
  591MOL0     H81538   6.304   8.306   3.826  1.6359 -1.5817  0.2827
  591MOL0     H81539   6.109   8.219   3.694 -0.8237 -1.8007  0.2927
  591MOL0     H81540   5.948   7.791   3.384  0.2848  0.7175 -0.6932
  591MOL0     H81541   5.716   7.734   3.349 -3.7397  1.0187  0.0561
  591MOL0     H81542   5.474   8.154   3.904  0.8004 -0.9613 -0.5470
  591MOL0     H81543   5.551   8.363   3.809 -1.9213  0.7660  0.7766
  591MOL0     H81544   5.351   8.770   3.413 -1.1588 -1.1178  0.5758
  591MOL0     H81545   5.452   8.933   3.270 -0.0281  0.9185  0.9368
  591MOL0     H81546   5.887   8.906   3.200  0.1738  0.8889  1.1343
  591MOL0     H81547   5.844   9.029   3.078 -1.0885  2.3349  1.1691
  591MOL0     H81548   5.688   9.146   3.264 -0.7511 -0.4959 -0.6348
  591MOL0     H81549   5.863   9.163   3.235  0.5886 -2.1634 -2.9861
  591MOL0     H81550   5.712   9.009   3.452  0.0652  0.5408  0.9833
  591MOL0     H81551   5.879   8.967   3.422 -0.2053  0.7353 -0.0044
  591MOL0     H81552   5.819   9.270   3.467  2.1648  0.5501 -1.2790
  591MOL0     H81553   5.962   9.181   3.503  0.3221 -2.5209 -0.4161
  591MOL0     H81554   5.751   9.115   3.850 -2.7265  3.2559 -0.3890
  591MOL0     H81555   5.790   8.688   3.188 -1.5185 -3.3176 -0.8100
  591MOL0     H81556   5.805   8.471   3.318 -0.7621  1.0473 -1.9744
  591MOL0     H81557   5.674   8.417   3.410 -0.3562  0.5882  0.9340
  591MOL0     H81558   5.673   8.421   3.225  3.3041  2.4316 -2.7793
  592MOL0     O81559   6.547   5.833   1.675 -0.3344 -0.1896  0.4938
  592MOL0     C81560   6.506   5.726   1.640 -0.1334  0.0393  0.0786
  592MOL0     O81561   6.526   5.670   1.522  0.3750  0.1946  0.4826
  592MOL0     C81562   6.580   5.754   1.425  0.3687  0.0283  0.1195
  592MOL0     C81563   6.498   5.755   1.308  0.2250  0.3705 -0.0390
  592MOL0     C81564   6.539   5.828   1.193  0.6874  0.3251 -0.3971
  592MOL0     C81565   6.668   5.884   1.194  0.2692  0.2023  0.6507
  592MOL0     O81566   6.719   5.947   1.080 -0.2214  0.2802  0.7138
  592MOL0     C81567   6.635   6.035   1.016 -0.5119  0.2106  0.1150
  592MOL0     C81568   6.696   6.096   0.891 -1.0570  0.1990  0.6555
  592MOL0     C81569   6.635   6.213   0.821 -0.9320  0.9357  0.3859
  592MOL0     C81570   6.694   6.231   0.684  0.3492 -0.0336  0.8528
  592MOL0     C81571   6.623   6.349   0.609 -0.7676 -0.5262  0.8078
  592MOL0     C81572   6.674   6.364   0.464  0.8674  0.0659  0.2269
  592MOL0     C81573   6.675   6.508   0.406  0.9013 -0.0556 -0.1838
  592MOL0     C81574   6.713   6.513   0.260 -0.6232  0.4906  0.2708
  592MOL0     N81575   6.730   6.652   0.206  0.5222  0.2668 -0.1373
  592MOL0     C81576   6.637   6.747   0.205  0.8191 -0.1211  0.2366
  592MOL0     C81577   6.692   6.853   0.148 -0.8818  0.4995  0.1216
  592MOL0     C81578   6.634   6.989   0.144  0.7886 -0.0387 -0.2716
  592MOL0     C81579   6.563   7.019   0.009  0.6549 -0.2294 -0.5691
  592MOL0     C81580   6.524   7.177  -0.005 -0.0473 -0.1129  0.9424
  592MOL0     C81581   6.398   7.216   0.073  0.5409 -0.3206 -0.6499
  592MOL0     O81582   6.348   7.333  -0.002  0.7053 -0.3189  0.1469
  592MOL0     C81583   6.228   7.377   0.046 -0.2132 -1.7166 -0.2335
  592MOL0     C81584   6.158   7.333   0.157 -0.5465  0.0729  0.2383
  592MOL0     C81585   6.034   7.402   0.195 -0.0594 -0.0027 -0.3147
  592MOL0     C81586   5.960   7.339   0.313  0.2032  0.3649  0.9434
  592MOL0     C81587   5.973   7.498   0.115  0.0570 -0.1329 -0.2724
  592MOL0     C81588   5.830   7.544   0.123  0.9701  0.7494  0.5673
  592MOL0     O81589   5.773   7.568  -0.001  0.2134  0.4747 -0.1410
  592MOL0     C81590   5.640   7.582  -0.018  0.2730  0.6091 -0.6801
  592MOL0     C81591   5.599   7.702  -0.050  0.1280  0.5382  0.6933
  592MOL0     C81592   5.467   7.729  -0.082  0.4680  0.0859  0.7453
  592MOL0     C81593   5.365   7.635  -0.055 -0.6077 -0.8318  0.5238
  592MOL0     O81594   5.239   7.661  -0.118 -0.8761  0.4348 -0.2025
  592MOL0     C81595   5.225   7.699  -0.255 -0.6613 -0.3433  0.2783
  592MOL0     C81596   5.108   7.794  -0.282  0.2360 -1.0409 -0.0451
  592MOL0     C81597   4.984   7.743  -0.201  0.8494  1.1802 -0.2056
  592MOL0     C81598   4.871   7.837  -0.241  0.3059 -0.2329  0.4338
  592MOL0     C81599   4.749   7.817  -0.150  0.4121 -0.5493  0.5549
  592MOL0     C81600   4.622   7.863  -0.216  1.2156 -0.7892  0.5825
  592MOL0     C81601   4.520   7.884  -0.101 -0.1381 -0.1516 -1.0782
  592MOL0     C81602   4.386   7.935  -0.155  0.1822  0.7417 -0.5714
  592MOL0    Cl81603   4.327   7.811  -0.265 -0.0190  0.1407 -0.3565
  592MOL0     C81604   5.407   7.513  -0.008  0.6435  0.2784  0.4853
  592MOL0     C81605   5.544   7.482   0.006  0.5743  0.1166  0.5293
  592MOL0     O81606   5.773   7.535   0.231 -0.3588  0.5401  0.0035
  592MOL0     C81607   6.046   7.542   0.003 -0.5267 -0.3762  0.4704
  592MOL0     C81608   6.167   7.475  -0.033  0.0446 -1.0544 -0.0348
  592MOL0     N81609   6.816   6.819   0.098 -0.7225 -1.0485  0.3372
  592MOL0     N81610   6.836   6.701   0.131 -0.0414  1.0338 -0.5918
  592MOL0     C81611   6.761   5.869   1.303  0.6793 -0.4544 -0.0890
  592MOL0     C81612   6.716   5.809   1.428  1.0960  0.1910 -0.4179
  592MOL0     C81613   6.422   5.643   1.728  0.1933  0.2787  0.6486
  592MOL0     C81614   6.299   5.609   1.670 -0.1375 -0.3346 -0.9925
  592MOL0     C81615   6.213   5.541   1.755  0.3294 -0.6455  0.1597
  592MOL0     C81616   6.245   5.503   1.883 -0.5528  0.3755 -0.1529
  592MOL0     O81617   6.154   5.426   1.948  0.4685 -0.6025 -0.4598
  592MOL0     C81618   6.127   5.463   2.081 -0.5122 -0.0202  0.3132
  592MOL0     C81619   6.015   5.365   2.133  0.4795  0.0179 -0.5313
  592MOL0     C81620   6.097   5.225   2.160 -0.1461 -0.0792 -0.3588
  592MOL0     C81621   5.996   5.112   2.179  0.0840 -0.3999  0.1116
  592MOL0     C81622   5.933   5.082   2.051 -0.3955  0.7055  0.2854
  592MOL0     C81623   5.875   5.068   1.941  0.4443 -0.5922  0.2051
  592MOL0     C81624   6.366   5.528   1.939  0.2939 -0.3878 -0.9028
  592MOL0     C81625   6.457   5.594   1.858  0.3440  0.2884 -0.4929
  592MOL0     C81626   6.598   5.604   1.906  0.2076 -1.4813 -0.4785
  592MOL0     H81627   6.399   5.713   1.312  0.1294  0.5438 -0.5819
  592MOL0     H81628   6.473   5.841   1.108  0.3707  0.3656 -0.1498
  592MOL0     H81629   6.617   6.114   1.090  1.2883  0.6709  0.0968
  592MOL0     H81630   6.536   6.002   0.982 -1.1463  0.9128  1.2181
  592MOL0     H81631   6.802   6.115   0.911 -1.0912 -0.4374  1.5495
  592MOL0     H81632   6.705   6.012   0.822 -2.5435 -0.6679  1.4502
  592MOL0     H81633   6.527   6.200   0.808 -0.5403 -1.0878 -1.3645
  592MOL0     H81634   6.643   6.294   0.894  0.7594  0.9033  0.2649
  592MOL0     H81635   6.801   6.251   0.695  0.3104  0.6423  0.0677
  592MOL0     H81636   6.678   6.141   0.623 -0.0179  0.8495 -0.3823
  592MOL0     H81637   6.644   6.441   0.664 -0.8633  1.0905 -1.7139
  592MOL0     H81638   6.514   6.334   0.606 -0.8529 -0.6661  3.0340
  592MOL0     H81639   6.778   6.332   0.468  0.8080 -0.0638  3.4884
  592MOL0     H81640   6.617   6.293   0.404 -0.6958 -1.0282  2.8218
  592MOL0     H81641   6.755   6.563   0.456  2.1757  0.0613 -2.2420
  592MOL0     H81642   6.574   6.549   0.414 -0.0659 -0.9818 -4.9333
  592MOL0     H81643   6.809   6.462   0.242 -0.4781  1.4409 -2.0467
  592MOL0     H81644   6.635   6.465   0.200  1.1998 -0.5963 -1.3627
  592MOL0     H81645   6.537   6.731   0.243  0.6219 -0.6063 -0.4668
  592MOL0     H81646   6.716   7.059   0.165  0.7034  0.6950 -2.1681
  592MOL0     H81647   6.555   7.017   0.214  0.1113  2.3823 -1.8418
  592MOL0     H81648   6.641   7.000  -0.066  2.2545 -0.8561  1.1532
  592MOL0     H81649   6.475   6.961  -0.020  0.5195 -1.1597  1.4862
  592MOL0     H81650   6.608   7.245   0.007 -2.0659  2.1733  3.4361
  592MOL0     H81651   6.496   7.184  -0.110  4.2918  2.4353 -0.2990
  592MOL0     H81652   6.322   7.139   0.057 -0.1099 -0.2127  1.6442
  592MOL0     H81653   6.426   7.235   0.177  0.5111 -2.8694 -0.1092
  592MOL0     H81654   6.197   7.247   0.209  2.5023  2.4603  2.3168
  592MOL0     H81655   5.876   7.285   0.269 -0.8217  2.9454 -0.4946
  592MOL0     H81656   5.936   7.403   0.399 -1.2773 -2.7967  3.0850
  592MOL0     H81657   6.025   7.259   0.350  0.6294 -0.4612 -1.4400
  592MOL0     H81658   5.671   7.783  -0.064 -1.5467  1.8796 -0.5641
  592MOL0     H81659   5.432   7.826  -0.117 -0.3239  0.1910  1.8024
  592MOL0     H81660   5.313   7.757  -0.287 -0.3725 -1.7196 -1.5378
  592MOL0     H81661   5.221   7.603  -0.306  0.2991  0.8654 -2.2567
  592MOL0     H81662   5.135   7.891  -0.240  2.2548 -0.6381 -2.1029
  592MOL0     H81663   5.100   7.794  -0.391  1.0422  0.7002 -0.1364
  592MOL0     H81664   5.008   7.734  -0.095 -2.5955 -0.0631  0.6091
  592MOL0     H81665   4.961   7.641  -0.235  1.3384  1.1657 -0.5021
  592MOL0     H81666   4.845   7.812  -0.345  0.0555 -1.3245  0.7463
  592MOL0     H81667   4.912   7.938  -0.247 -1.1547  0.5171  2.3461
  592MOL0     H81668   4.728   7.714  -0.120  1.5999 -0.9163  0.1784
  592MOL0     H81669   4.782   7.874  -0.062  0.1038 -2.0606  1.6828
  592MOL0     H81670   4.591   7.780  -0.281 -1.0177  0.3050  0.1422
  592MOL0     H81671   4.636   7.959  -0.267  0.7973  0.1968  2.2589
  592MOL0     H81672   4.564   7.936  -0.016  1.2739 -4.2569  0.9520
  592MOL0     H81673   4.494   7.784  -0.067 -4.4475  1.3979  0.9169
  592MOL0     H81674   4.401   8.033  -0.201 -0.5294 -0.5519 -3.8466
  592MOL0     H81675   4.305   7.944  -0.082  1.4554 -0.5275  1.0894
  592MOL0     H81676   5.328   7.441   0.010 -0.8282  1.4964 -0.8035
  592MOL0     H81677   5.560   7.386   0.053  2.5984  0.8167  1.3703
  592MOL0     H81678   6.012   7.621  -0.063 -0.0672  1.2217  2.0567
  592MOL0     H81679   6.227   7.514  -0.115 -0.0037  4.0189  1.9482
  592MOL0     H81680   6.860   5.913   1.305  0.7652 -0.6528  0.7734
  592MOL0     H81681   6.773   5.806   1.520 -0.0676  0.9101  0.3491
  592MOL0     H81682   6.275   5.625   1.565 -0.2838  0.9922 -0.7748
  592MOL0     H81683   6.115   5.519   1.714  0.9049 -0.1586 -1.5230
  592MOL0     H81684   6.214   5.442   2.144 -0.2743 -0.6086 -0.2099
  592MOL0     H81685   6.093   5.568   2.078  0.1603  0.1813 -1.8662
  592MOL0     H81686   5.930   5.346   2.066  1.5424 -1.9712 -1.4110
  592MOL0     H81687   5.972   5.414   2.221  1.5612  0.2445 -0.1246
  592MOL0     H81688   6.159   5.215   2.070  1.1712  0.7157  0.4249
  592MOL0     H81689   6.164   5.239   2.245 -0.0036 -1.7318 -0.1731
  592MOL0     H81690   5.923   5.137   2.256  1.5064 -0.5969  1.5696
  592MOL0     H81691   6.038   5.018   2.217 -0.6593 -0.4468  0.8474
  592MOL0     H81692   5.834   5.037   1.848 -0.7438 -1.4595  0.9921
  592MOL0     H81693   6.394   5.499   2.040  0.5346 -0.6794 -1.0493
  592MOL0     H81694   6.631   5.511   1.953 -1.5117 -2.2389 -0.7132
  592MOL0     H81695   6.661   5.630   1.820 -1.8698 -1.8359 -2.2096
  592MOL0     H81696   6.616   5.690   1.972  2.2909 -3.4488  1.7042
  593MOL0     O81697   1.323   5.361  10.969 -1.4258 -0.7287 -0.0903
  593MOL0     C81698   1.266   5.371  11.082  0.3213  0.7886  0.5129
  593MOL0     O81699   1.330   5.376  11.200  0.0088  0.7286 -0.0299
  593MOL0     C81700   1.460   5.417  11.215  0.1053 -0.1166  0.2555
  593MOL0     C81701   1.537   5.497  11.121  0.2609  0.8635  0.1622
  593MOL0     C81702   1.665   5.544  11.165  0.1843  0.2747  0.4523
  593MOL0     C81703   1.718   5.505  11.284  0.1087  0.7884 -0.8771
  593MOL0     O81704   1.852   5.539  11.305 -0.4986  0.5254 -0.0282
  593MOL0     C81705   1.898   5.538  11.441 -0.3497  0.0253  0.5735
  593MOL0     C81706   2.041   5.589  11.464 -0.2495 -0.0184  0.9278
  593MOL0     C81707   2.071   5.657  11.604 -0.5304  0.4706 -0.5185
  593MOL0     C81708   2.219   5.689  11.625 -0.9405  0.6170  0.1549
  593MOL0     C81709   2.232   5.788  11.742  0.1610 -0.3568  0.3343
  593MOL0     C81710   2.369   5.847  11.750  0.4647  0.0105 -0.7570
  593MOL0     C81711   2.381   5.931  11.882 -0.1225  0.1458 -0.1185
  593MOL0     C81712   2.267   6.033  11.913 -0.1645 -0.0623  0.6665
  593MOL0     N81713   2.274   6.143  11.810 -0.6981  0.5081 -0.2322
  593MOL0     C81714   2.184   6.149  11.704 -0.2648  0.1503 -0.6711
  593MOL0     C81715   2.239   6.251  11.637 -0.3447  0.0088 -0.4968
  593MOL0     C81716   2.195   6.294  11.494  0.4835  0.1182 -0.3126
  593MOL0     C81717   2.314   6.307  11.395  0.2264 -0.1469  0.2517
  593MOL0     C81718   2.401   6.187  11.378  0.2663  0.0069 -0.4306
  593MOL0     C81719   2.527   6.216  11.287  0.4321  0.7679 -0.2524
  593MOL0     O81720   2.496   6.214  11.148  0.4831 -0.4047 -0.3439
  593MOL0     C81721   2.598   6.242  11.062  0.4862 -0.3124 -0.3038
  593MOL0     C81722   2.556   6.265  10.929 -0.3627 -0.0788 -0.2839
  593MOL0     C81723   2.657   6.297  10.826 -0.7222 -0.1217 -0.2122
  593MOL0     C81724   2.601   6.312  10.681 -0.7104 -0.5379 -0.7021
  593MOL0     C81725   2.792   6.298  10.858 -0.3945 -0.7517 -0.1508
  593MOL0     C81726   2.903   6.317  10.759  0.3944  0.3781  0.2759
  593MOL0     O81727   3.023   6.350  10.813 -0.9453 -0.3612 -0.5045
  593MOL0     C81728   3.125   6.352  10.727 -0.6777  0.0436  0.0684
  593MOL0     C81729   3.163   6.463  10.647  0.4908 -0.3149 -0.2266
  593MOL0     C81730   3.277   6.464  10.568 -0.4478  0.7353 -0.0470
  593MOL0     C81731   3.362   6.351  10.572  0.0204  0.2669 -0.2118
  593MOL0     O81732   3.483   6.374  10.520 -0.2132  0.6409  0.2461
  593MOL0     C81733   3.556   6.262  10.463 -0.3840 -1.2052  0.3959
  593MOL0     C81734   3.681   6.258  10.546  0.4747  0.4578  0.2477
  593MOL0     C81735   3.777   6.148  10.498  0.1223 -0.5741 -0.4270
  593MOL0     C81736   3.869   6.214  10.399 -0.1942  0.0500  0.3463
  593MOL0     C81737   4.003   6.124  10.386  0.5609  0.3613  0.6669
  593MOL0     C81738   4.094   6.168  10.272 -0.8341  0.1665  0.3969
  593MOL0     C81739   4.225   6.090  10.268  0.9618 -0.0154 -0.0832
  593MOL0     C81740   4.325   6.157  10.366 -0.4162 -0.0173  0.7052
  593MOL0    Cl81741   4.437   6.035  10.442  0.2755 -0.1752 -0.1694
  593MOL0     C81742   3.323   6.229  10.643  0.5688 -0.5340  1.1202
  593MOL0     C81743   3.206   6.232  10.716 -0.3155 -0.4143 -0.3795
  593MOL0     O81744   2.889   6.288  10.640  0.5137 -0.3982  0.6801
  593MOL0     C81745   2.829   6.274  10.999  0.0315 -0.0657 -0.5021
  593MOL0     C81746   2.727   6.248  11.096 -0.0334 -0.9020  0.3024
  593MOL0     N81747   2.358   6.292  11.697  0.4355  0.3188  0.1496
  593MOL0     N81748   2.382   6.218  11.791 -0.7174 -0.1837 -0.9258
  593MOL0     C81749   1.652   5.417  11.375 -0.3811  0.3598 -0.2551
  593MOL0     C81750   1.523   5.380  11.339  0.6029 -0.3035  0.4371
  593MOL0     C81751   1.120   5.379  11.086 -0.2790 -0.4625 -0.1228
  593MOL0     C81752   1.057   5.384  10.961  0.1936 -1.1206 -0.4095
  593MOL0     C81753   0.924   5.376  10.951 -0.2786  0.2156  0.0269
  593MOL0     C81754   0.842   5.374  11.064 -0.8369  0.6732  1.5121
  593MOL0     O81755   0.709   5.368  11.074  0.2896  0.6208  0.0835
  593MOL0     C81756   0.638   5.348  10.959 -0.5237 -0.5085  0.1853
  593MOL0     C81757   0.665   5.205  10.906  0.2766  0.8749 -0.2772
  593MOL0     C81758   0.570   5.094  10.974 -0.2618  0.0709  0.1199
  593MOL0     C81759   0.588   5.094  11.128 -0.1591 -0.2403  0.3851
  593MOL0     C81760   0.718   5.044  11.175  0.4965 -0.2677  0.5714
  593MOL0     C81761   0.830   5.015  11.227  0.9532  0.2703 -0.3097
  593MOL0     C81762   0.901   5.379  11.189  0.0568  0.9698  0.0815
  593MOL0     C81763   1.040   5.380  11.202 -0.1112 -0.2245 -0.6084
  593MOL0     C81764   1.085   5.371  11.347  0.1360 -0.3763 -0.4069
  593MOL0     H81765   1.483   5.525  11.031  0.1771  1.4372  0.3857
  593MOL0     H81766   1.728   5.609  11.105  0.9393  1.7218  2.6663
  593MOL0     H81767   1.889   5.442  11.493 -0.5065  1.2414  2.8928
  593MOL0     H81768   1.832   5.609  11.490 -0.8135  2.7454 -3.4840
  593MOL0     H81769   2.117   5.510  11.459  1.8458  1.6457  3.6626
  593MOL0     H81770   2.067   5.667  11.392  1.2096 -1.6543 -0.4012
  593MOL0     H81771   2.002   5.741  11.606 -1.2389  0.0118 -2.7023
  593MOL0     H81772   2.033   5.588  11.679 -0.7306  0.7520 -0.3613
  593MOL0     H81773   2.270   5.594  11.647 -0.3213  0.4630 -1.7335
  593MOL0     H81774   2.269   5.733  11.538 -1.5910 -1.3713 -1.3307
  593MOL0     H81775   2.218   5.726  11.831  0.6683 -0.6856  0.1939
  593MOL0     H81776   2.156   5.865  11.726  1.4700  0.8696 -0.1155
  593MOL0     H81777   2.440   5.764  11.750 -0.1674 -0.5500 -0.4280
  593MOL0     H81778   2.399   5.909  11.666 -0.1295 -2.1228 -2.6611
  593MOL0     H81779   2.474   5.987  11.867  0.7472 -1.5722 -1.5854
  593MOL0     H81780   2.395   5.863  11.967  1.3838  0.0328 -0.4347
  593MOL0     H81781   2.173   5.978  11.905 -1.2373  1.9864 -2.0919
  593MOL0     H81782   2.292   6.065  12.015  0.1100 -0.2711  0.6678
  593MOL0     H81783   2.094   6.090  11.686  0.0407 -1.0178  1.2955
  593MOL0     H81784   2.146   6.392  11.484  0.9813  0.3461 -0.5354
  593MOL0     H81785   2.133   6.212  11.457  0.8561 -0.8542  1.1321
  593MOL0     H81786   2.282   6.347  11.298 -0.2766  0.3555  0.6199
  593MOL0     H81787   2.376   6.390  11.431  1.0169  0.3836 -2.1014
  593MOL0     H81788   2.437   6.155  11.476 -0.3071 -1.2332 -0.6076
  593MOL0     H81789   2.345   6.102  11.338 -0.5129  0.4274 -0.2580
  593MOL0     H81790   2.576   6.312  11.307 -0.1208  0.7629  1.2532
  593MOL0     H81791   2.600   6.137  11.308 -0.8875 -0.3897  0.1694
  593MOL0     H81792   2.454   6.266  10.894 -0.7773 -2.4976  0.6289
  593MOL0     H81793   2.665   6.381  10.625 -3.9251  2.0050 -1.6158
  593MOL0     H81794   2.500   6.355  10.682 -0.7976 -0.7401 -0.1291
  593MOL0     H81795   2.587   6.218  10.628 -0.0372 -0.1679 -1.5511
  593MOL0     H81796   3.103   6.553  10.649 -1.9182 -1.7283 -2.4082
  593MOL0     H81797   3.296   6.562  10.527 -3.8623  1.5161 -0.0202
  593MOL0     H81798   3.494   6.173  10.454 -2.4027  0.2000 -0.1736
  593MOL0     H81799   3.584   6.286  10.360 -1.4165 -1.6410  0.0075
  593MOL0     H81800   3.740   6.348  10.526  0.0545  1.0073  1.4223
  593MOL0     H81801   3.655   6.249  10.652 -0.5432  0.6286  0.0283
  593MOL0     H81802   3.726   6.061  10.457  1.6804 -1.0108 -1.5579
  593MOL0     H81803   3.825   6.122  10.593 -0.5182 -0.4224 -0.0578
  593MOL0     H81804   3.906   6.316  10.415  1.5231 -0.3911 -0.5375
  593MOL0     H81805   3.813   6.219  10.305 -0.9894  0.2317  0.8195
  593MOL0     H81806   4.058   6.118  10.481 -2.4102  1.0123  2.5514
  593MOL0     H81807   3.969   6.022  10.364  2.7874 -0.2864 -0.0672
  593MOL0     H81808   4.116   6.274  10.281  0.7638  0.0800 -1.6465
  593MOL0     H81809   4.044   6.162  10.174 -0.9742  1.9019  0.3365
  593MOL0     H81810   4.266   6.090  10.166 -1.5171  0.2522 -1.1647
  593MOL0     H81811   4.217   5.986  10.299  0.3661  0.0797  0.1021
  593MOL0     H81812   4.281   6.219  10.445  0.7046  1.1390  0.4560
  593MOL0     H81813   4.379   6.240  10.321  1.5210 -1.4349  0.2776
  593MOL0     H81814   3.396   6.150  10.654  3.1338  1.8456  2.2164
  593MOL0     H81815   3.177   6.141  10.768  1.9187 -1.1598 -0.2908
  593MOL0     H81816   2.933   6.269  11.028  0.9166 -1.0287 -3.5191
  593MOL0     H81817   2.749   6.246  11.203 -1.7947 -1.1842  0.6974
  593MOL0     H81818   1.692   5.387  11.471 -3.2986 -0.6909  0.7685
  593MOL0     H81819   1.462   5.318  11.404 -2.2607  0.1700 -1.5757
  593MOL0     H81820   1.118   5.398  10.872 -0.1376 -2.5165 -0.8834
  593MOL0     H81821   0.882   5.393  10.853 -1.4169 -3.9300 -0.3976
  593MOL0     H81822   0.534   5.371  10.986 -1.7273 -2.7929 -1.9811
  593MOL0     H81823   0.674   5.425  10.891  0.1514  0.7766  1.9332
  593MOL0     H81824   0.768   5.169  10.917 -0.4937 -1.0478  1.3617
  593MOL0     H81825   0.634   5.199  10.802 -0.2117 -4.3615 -0.1022
  593MOL0     H81826   0.464   5.093  10.945 -0.0103 -1.6557 -0.9191
  593MOL0     H81827   0.591   4.991  10.942 -1.8932 -1.3936  3.3069
  593MOL0     H81828   0.522   5.018  11.171 -2.2094 -0.2448 -2.4565
  593MOL0     H81829   0.560   5.189  11.175  0.2477  0.6028 -1.0091
  593MOL0     H81830   0.921   4.973  11.266 -1.1014 -2.4538  1.8817
  593MOL0     H81831   0.837   5.365  11.276 -3.6927  1.2304 -2.3759
  593MOL0     H81832   0.999   5.339  11.406 -0.6932  1.7543 -0.3444
  593MOL0     H81833   1.166   5.300  11.365  0.5310 -0.0194 -0.7429
  593MOL0     H81834   1.122   5.468  11.382  1.8846 -0.4521 -1.8906
  594MOL0     O81835   0.856   2.810  11.200 -0.3422  0.5658  0.8886
  594MOL0     C81836   0.771   2.833  11.284  0.1935 -0.4893  0.0887
  594MOL0     O81837   0.641   2.864  11.255 -0.0611  0.1867 -0.6423
  594MOL0     C81838   0.590   2.884  11.126 -0.4688  1.0942 -0.4329
  594MOL0     C81839   0.463   2.827  11.104  0.3199 -0.1351  0.8474
  594MOL0     C81840   0.396   2.851  10.980 -0.0143  0.1616  0.1154
  594MOL0     C81841   0.460   2.913  10.873  0.8822 -0.1386  0.1374
  594MOL0     O81842   0.387   2.916  10.758  0.2409  0.4411 -0.4707
  594MOL0     C81843   0.424   3.014  10.656  0.1906  0.1780  0.0200
  594MOL0     C81844   0.417   3.155  10.712  1.2936 -0.0454 -0.1274
  594MOL0     C81845   0.415   3.270  10.606 -0.3663  0.0638  0.3167
  594MOL0     C81846   0.493   3.259  10.476 -0.0349  0.4085 -0.3080
  594MOL0     C81847   0.511   3.389  10.399  0.7069  0.3413  0.1010
  594MOL0     C81848   0.379   3.466  10.387  0.5391  0.1246 -1.1813
  594MOL0     C81849   0.402   3.599  10.326 -0.0949  0.0866 -0.0530
  594MOL0     C81850   0.369   3.608  10.182  0.9030 -0.5933  0.5182
  594MOL0     N81851   0.439   3.516  10.094 -0.9210 -0.3615 -0.2610
  594MOL0     C81852   0.413   3.385  10.068  0.5454 -0.6441  0.2400
  594MOL0     C81853   0.500   3.345   9.973 -0.7691  0.3570 -0.5576
  594MOL0     C81854   0.489   3.210   9.908  0.3110 -0.7992 -0.5972
  594MOL0     C81855   0.406   3.218   9.787  0.4899 -0.3875 -0.3561
  594MOL0     C81856   0.428   3.093   9.702  0.2007 -0.2234  0.5434
  594MOL0     C81857   0.302   3.055   9.622 -0.3504  0.3604  0.0315
  594MOL0     O81858   0.185   3.062   9.705 -0.1716 -0.5026  0.0584
  594MOL0     C81859   0.060   3.087   9.641  0.4536  0.9682  0.2184
  594MOL0     C81860   0.032   3.091   9.504  0.7774 -0.0108 -0.1797
  594MOL0     C81861  -0.096   3.127   9.442 -0.4255  1.0091  1.4849
  594MOL0     C81862  -0.121   3.113   9.289  1.0237  0.0222  0.7321
  594MOL0     C81863  -0.196   3.162   9.536 -0.5437 -0.4952  0.2102
  594MOL0     C81864  -0.326   3.220   9.501  0.6904 -1.3057  0.4628
  594MOL0     O81865  -0.352   3.234   9.364 -0.6039  0.2193 -0.1997
  594MOL0     C81866  -0.477   3.250   9.314 -0.0252  1.1894  0.0263
  594MOL0     C81867  -0.577   3.170   9.366 -0.3525  0.2591  0.2198
  594MOL0     C81868  -0.714   3.181   9.333  0.6697  1.2916 -0.8093
  594MOL0     C81869  -0.742   3.259   9.222 -0.7885  1.0331 -0.3133
  594MOL0     O81870  -0.869   3.272   9.183 -0.6076  0.6834  0.3099
  594MOL0     C81871  -0.975   3.174   9.203 -0.3311 -0.2998  0.4187
  594MOL0     C81872  -1.087   3.220   9.111 -0.2076  0.5319 -0.1216
  594MOL0     C81873  -1.201   3.119   9.117 -0.3740  0.1177 -0.2002
  594MOL0     C81874  -1.272   3.106   9.256 -0.3271 -0.8933 -0.6068
  594MOL0     C81875  -1.385   3.008   9.243 -0.1435 -0.3735  1.2014
  594MOL0     C81876  -1.455   2.986   9.375 -0.6024  0.0021 -0.4452
  594MOL0     C81877  -1.559   2.877   9.380  0.8677 -1.0588  0.1283
  594MOL0     C81878  -1.696   2.922   9.311  0.3913  0.1981  1.1926
  594MOL0    Cl81879  -1.668   2.909   9.126 -0.0633 -0.7508  0.1538
  594MOL0     C81880  -0.639   3.324   9.155  0.0379 -0.4313 -0.2919
  594MOL0     C81881  -0.504   3.320   9.194  0.5591 -0.4803 -0.0521
  594MOL0     O81882  -0.408   3.246   9.586 -0.0415 -0.0114 -0.1744
  594MOL0     C81883  -0.173   3.145   9.674  0.1068  0.5311 -0.6292
  594MOL0     C81884  -0.047   3.109   9.726  0.4742 -0.0468 -0.5704
  594MOL0     N81885   0.584   3.452   9.935  0.1779 -0.3662 -0.1490
  594MOL0     N81886   0.537   3.551  10.013  0.5955 -0.1617 -0.4706
  594MOL0     C81887   0.592   2.962  10.890 -0.0943 -1.5869  0.3022
  594MOL0     C81888   0.653   2.952  11.016 -1.6217  0.5649 -0.2520
  594MOL0     C81889   0.808   2.819  11.425 -0.2879  0.0723 -1.0269
  594MOL0     C81890   0.908   2.729  11.460  0.6367  0.2034 -0.1260
  594MOL0     C81891   0.928   2.692  11.591 -0.2936  0.7403 -0.0273
  594MOL0     C81892   0.850   2.744  11.692  0.0126 -0.1045  0.3320
  594MOL0     O81893   0.892   2.700  11.819 -0.3225 -0.3962 -0.0252
  594MOL0     C81894   0.825   2.761  11.934  0.0007 -0.8308 -0.0290
  594MOL0     C81895   0.851   2.691  12.064 -0.3322 -0.2639 -0.4854
  594MOL0     C81896   0.799   2.548  12.049  0.3831  0.2202  0.1535
  594MOL0     C81897   0.813   2.471  12.177  0.1590  0.9365 -0.3932
  594MOL0     C81898   0.814   2.324  12.148 -0.0561 -0.7036  0.6282
  594MOL0     C81899   0.798   2.204  12.143  0.1488  0.0694 -0.1514
  594MOL0     C81900   0.757   2.841  11.651  0.2404  0.2432 -0.8875
  594MOL0     C81901   0.741   2.886  11.528 -0.2869 -0.3748  0.8660
  594MOL0     C81902   0.640   2.996  11.508  0.3494  0.2779 -0.1185
  594MOL0     H81903   0.412   2.766  11.179 -1.9492 -1.4838 -1.6445
  594MOL0     H81904   0.295   2.813  10.972 -0.2947  1.0366 -0.6094
  594MOL0     H81905   0.359   3.027  10.569 -1.4816  3.5842  1.5716
  594MOL0     H81906   0.522   2.979  10.625 -1.1162 -1.9287 -2.0857
  594MOL0     H81907   0.332   3.159  10.782  3.7805  0.9300  3.0786
  594MOL0     H81908   0.504   3.176  10.774  1.7749  0.0805 -0.8384
  594MOL0     H81909   0.309   3.292  10.587 -0.5784  2.0088  2.9832
  594MOL0     H81910   0.453   3.366  10.642 -3.5322  2.0141 -1.1332
  594MOL0     H81911   0.590   3.214  10.499  0.5442  1.1771 -1.1872
  594MOL0     H81912   0.434   3.203  10.403  0.8387  0.8521 -1.3928
  594MOL0     H81913   0.543   3.356  10.300  0.0497 -1.4737  0.4474
  594MOL0     H81914   0.584   3.454  10.448  0.2946  1.4771 -0.7698
  594MOL0     H81915   0.309   3.396  10.341 -0.3736 -1.0077  1.6858
  594MOL0     H81916   0.339   3.479  10.488  0.5997 -6.7551  0.1944
  594MOL0     H81917   0.507   3.629  10.333 -0.5320  1.4831  0.8310
  594MOL0     H81918   0.339   3.666  10.385  3.2995 -0.3912  4.6322
  594MOL0     H81919   0.260   3.602  10.172  1.0342 -0.9728 -0.9394
  594MOL0     H81920   0.411   3.704  10.150  0.1003 -0.7843 -1.2594
  594MOL0     H81921   0.344   3.320  10.121  1.1674 -1.1325  0.4704
  594MOL0     H81922   0.441   3.144   9.980 -2.9350  0.3804 -1.5129
  594MOL0     H81923   0.593   3.187   9.882  1.5947  4.9174 -1.9468
  594MOL0     H81924   0.300   3.235   9.805 -0.0136 -2.1489 -1.4140
  594MOL0     H81925   0.434   3.311   9.737 -0.7024  0.7033  0.9028
  594MOL0     H81926   0.519   3.089   9.643  1.9659  0.8026  3.0188
  594MOL0     H81927   0.442   3.008   9.769  0.9720 -2.5415 -2.3737
  594MOL0     H81928   0.291   3.114   9.530 -0.8157  0.0610 -0.1127
  594MOL0     H81929   0.324   2.951   9.595 -2.4425 -0.2603  0.5112
  594MOL0     H81930   0.116   3.061   9.442 -0.9869 -0.0244 -2.6991
  594MOL0     H81931  -0.160   3.206   9.246 -0.8890 -0.1604  1.9151
  594MOL0     H81932  -0.204   3.045   9.265 -1.0345  2.8153 -0.6913
  594MOL0     H81933  -0.029   3.087   9.237  0.3306  1.4554 -1.3262
  594MOL0     H81934  -0.549   3.104   9.448 -0.7920 -0.3380 -0.0957
  594MOL0     H81935  -0.791   3.124   9.383 -0.3228  2.7861 -0.5711
  594MOL0     H81936  -0.943   3.074   9.174  3.0839  1.0238 -0.8964
  594MOL0     H81937  -1.020   3.174   9.303 -0.3416  1.2260  0.4489
  594MOL0     H81938  -1.121   3.316   9.150 -0.4639  0.3336  0.1603
  594MOL0     H81939  -1.052   3.233   9.008 -0.1726  1.3074 -0.0116
  594MOL0     H81940  -1.184   3.019   9.079 -0.4830 -0.5119  1.3130
  594MOL0     H81941  -1.270   3.147   9.037 -1.0026  2.0136  0.9248
  594MOL0     H81942  -1.311   3.200   9.297 -0.5290 -0.7913 -1.0280
  594MOL0     H81943  -1.195   3.070   9.324 -0.5137  4.9274  3.4423
  594MOL0     H81944  -1.451   3.049   9.166 -0.5344 -2.6771  0.2328
  594MOL0     H81945  -1.348   2.921   9.189 -0.2332  0.6269 -0.5336
  594MOL0     H81946  -1.498   3.076   9.419  0.4542  0.2279  0.1682
  594MOL0     H81947  -1.369   2.971   9.440 -0.1392  1.7716 -0.6029
  594MOL0     H81948  -1.596   2.846   9.478 -2.7336  0.8297 -0.4440
  594MOL0     H81949  -1.520   2.788   9.331 -2.0793 -2.2289 -0.3343
  594MOL0     H81950  -1.731   3.023   9.338 -0.2073  0.1104  0.7638
  594MOL0     H81951  -1.774   2.849   9.336  0.9429 -0.9657 -0.3479
  594MOL0     H81952  -0.673   3.380   9.068  0.1371  1.4966  0.8507
  594MOL0     H81953  -0.435   3.385   9.142 -0.3035  2.1698  1.8669
  594MOL0     H81954  -0.253   3.174   9.742  1.0883  1.8812 -0.0024
  594MOL0     H81955  -0.047   3.104   9.834  0.6373 -0.1173 -0.5734
  594MOL0     H81956   0.644   3.005  10.805 -1.3149 -1.2641 -0.2993
  594MOL0     H81957   0.753   2.994  11.018 -0.7490 -1.2956  2.6799
  594MOL0     H81958   0.963   2.672  11.386 -0.8897 -2.2650  0.5430
  594MOL0     H81959   1.004   2.616  11.608 -0.9870 -0.4268 -1.8132
  594MOL0     H81960   0.859   2.864  11.945  0.4687 -0.7336 -2.0842
  594MOL0     H81961   0.719   2.768  11.909 -0.8530  3.2348  3.5515
  594MOL0     H81962   0.795   2.750  12.138  0.8449  1.8286 -1.1692
  594MOL0     H81963   0.958   2.682  12.085 -0.9154 -2.6940  2.0766
  594MOL0     H81964   0.693   2.547  12.022 -0.1537 -1.8328  2.0603
  594MOL0     H81965   0.852   2.490  11.973 -1.0425  0.1223 -0.7901
  594MOL0     H81966   0.728   2.489  12.243 -0.3839 -0.3209 -0.7109
  594MOL0     H81967   0.902   2.503  12.232 -1.1632  4.5948 -0.1309
  594MOL0     H81968   0.764   2.102  12.134 -0.7474  0.4863 -2.2464
  594MOL0     H81969   0.683   2.898  11.706 -2.3943 -1.3468 -2.5635
  594MOL0     H81970   0.679   3.060  11.428  0.4968 -2.5785 -2.4974
  594MOL0     H81971   0.554   2.942  11.468 -0.5199  0.4573  1.4121
  594MOL0     H81972   0.627   3.060  11.596  2.3109 -0.2503  0.5957
  595MOL0     O81973  10.019  11.363   9.454 -0.0241  0.0137 -0.3654
  595MOL0     C81974   9.957  11.265   9.400  0.0523 -0.7615  0.3751
  595MOL0     O81975   9.822  11.263   9.363  0.0698 -0.2583 -0.4216
  595MOL0     C81976   9.754  11.378   9.397 -0.9845  0.4075  0.0649
  595MOL0     C81977   9.748  11.434   9.531  0.7460  0.9725 -0.1637
  595MOL0     C81978   9.710  11.568   9.547  0.4864  0.6058 -0.2301
  595MOL0     C81979   9.670  11.649   9.435 -0.1961 -0.4936  0.7087
  595MOL0     O81980   9.638  11.785   9.467 -0.2359 -0.4998  0.6436
  595MOL0     C81981   9.589  11.878   9.369 -0.3342  0.2068  0.0059
  595MOL0     C81982   9.694  11.909   9.270  0.7485 -0.0496 -0.1909
  595MOL0     C81983   9.654  12.007   9.164  0.8458  0.4325 -0.1893
  595MOL0     C81984   9.519  11.992   9.095  0.0827  0.6488  0.2726
  595MOL0     C81985   9.510  11.871   8.997 -0.2547  0.2058 -0.0602
  595MOL0     C81986   9.629  11.880   8.902  0.2248 -0.5834 -0.2320
  595MOL0     C81987   9.609  11.782   8.786  0.3341  0.2166  0.2929
  595MOL0     C81988   9.652  11.842   8.654  0.8635  0.1561  0.0964
  595MOL0     N81989   9.796  11.819   8.639  0.0534 -0.0646 -0.7167
  595MOL0     C81990   9.896  11.912   8.667  0.2438 -0.7045 -0.8013
  595MOL0     C81991  10.000  11.836   8.644 -0.2354  0.6444 -0.3363
  595MOL0     C81992  10.144  11.875   8.671 -0.0822 -0.8631 -0.4003
  595MOL0     C81993  10.227  11.769   8.736 -0.2230  0.0073 -0.0659
  595MOL0     C81994  10.376  11.798   8.750  0.1519  0.5583 -0.0470
  595MOL0     C81995  10.447  11.672   8.808 -0.7914  0.4321 -0.3909
  595MOL0     O81996  10.583  11.707   8.836 -0.9381  0.1354 -0.7130
  595MOL0     C81997  10.662  11.604   8.867 -0.5169  0.6962 -0.1705
  595MOL0     C81998  10.727  11.605   8.986  0.2598 -0.4289  0.0065
  595MOL0     C81999  10.822  11.511   9.028 -0.2834  0.5951 -0.2223
  595MOL0     C82000  10.881  11.539   9.171  0.8317  0.6282 -0.3672
  595MOL0     C82001  10.833  11.394   8.951  0.2360 -0.0069  0.9488
  595MOL0     C82002  10.905  11.274   8.976 -0.2350 -0.0166 -0.4870
  595MOL0     O82003  10.924  11.182   8.881  0.1176 -0.3621  0.0325
  595MOL0     C82004  11.004  11.073   8.890  0.0972 -0.4264 -0.4863
  595MOL0     C82005  10.983  10.975   8.788  0.7845 -1.0233 -0.0074
  595MOL0     C82006  11.080  10.884   8.774 -0.9422  0.4876  0.7520
  595MOL0     C82007  11.193  10.867   8.853 -0.4330  0.1842 -0.8680
  595MOL0     O82008  11.284  10.764   8.846  0.7022  0.5333 -0.1964
  595MOL0     C82009  11.262  10.673   8.738 -0.0962 -0.3169 -0.2983
  595MOL0     C82010  11.355  10.555   8.766  0.6679  0.2420 -0.1238
  595MOL0     C82011  11.316  10.425   8.700  0.4578 -0.8817  0.0892
  595MOL0     C82012  11.354  10.434   8.552  0.2120 -0.0328 -0.5122
  595MOL0     C82013  11.296  10.306   8.471  0.4980  0.1393  0.4641
  595MOL0     C82014  11.389  10.184   8.487 -0.2522  0.0295 -0.3048
  595MOL0     C82015  11.509  10.188   8.395 -0.5775 -0.1919  0.1182
  595MOL0     C82016  11.628  10.094   8.432  2.0923 -0.4873  0.2657
  595MOL0    Cl82017  11.589   9.931   8.356  0.7298 -0.1147 -0.1947
  595MOL0     C82018  11.208  10.961   8.958  0.4741 -0.0004  0.3575
  595MOL0     C82019  11.118  11.072   8.974  0.2585 -0.0908 -0.2103
  595MOL0     O82020  10.941  11.248   9.093  0.2713 -0.8223  0.1616
  595MOL0     C82021  10.768  11.394   8.821  0.7246 -0.0393  1.0848
  595MOL0     C82022  10.686  11.497   8.781  0.6803  0.6074 -0.1724
  595MOL0     N82023   9.968  11.707   8.612 -0.5151  0.5134  0.2250
  595MOL0     N82024   9.838  11.696   8.602  0.0550 -0.1724  0.3122
  595MOL0     C82025   9.644  11.584   9.315 -0.4307  0.0610 -0.1680
  595MOL0     C82026   9.695  11.450   9.293  0.2113 -0.4976  0.0074
  595MOL0     C82027  10.041  11.140   9.373  0.6623 -1.4822 -1.0236
  595MOL0     C82028   9.966  11.031   9.342 -0.2941  0.1534  0.7123
  595MOL0     C82029  10.034  10.906   9.321 -0.4787  0.5407 -0.7654
  595MOL0     C82030  10.173  10.900   9.332  0.1027 -0.0774 -0.0500
  595MOL0     O82031  10.234  10.779   9.318  0.4255  0.0594  0.5260
  595MOL0     C82032  10.374  10.766   9.292 -0.6192  0.3747  0.8579
  595MOL0     C82033  10.476  10.772   9.411  0.8200 -0.5644  0.0669
  595MOL0     C82034  10.437  10.685   9.530 -0.0142  0.4301 -0.4239
  595MOL0     C82035  10.495  10.547   9.536  0.5326 -0.0043 -0.5636
  595MOL0     C82036  10.464  10.481   9.661 -0.0948 -0.0326  0.6885
  595MOL0     C82037  10.423  10.435   9.765 -0.9674 -0.5542  0.5162
  595MOL0     C82038  10.244  11.017   9.353 -0.1326 -0.0542 -1.1397
  595MOL0     C82039  10.181  11.139   9.370 -0.5240  0.7319  0.1776
  595MOL0     C82040  10.276  11.256   9.374 -0.2189  0.0616 -0.3132
  595MOL0     H82041   9.776  11.372   9.616 -1.1594 -1.4166 -1.1559
  595MOL0     H82042   9.694  11.613   9.644 -4.0481 -0.1246 -0.3950
  595MOL0     H82043   9.567  11.971   9.422  0.4524  1.7508 -2.2246
  595MOL0     H82044   9.501  11.831   9.323  0.5945 -0.7094 -0.9230
  595MOL0     H82045   9.762  11.967   9.334  0.6303  0.1269 -0.2234
  595MOL0     H82046   9.752  11.829   9.222  0.5004 -0.0347 -0.5195
  595MOL0     H82047   9.663  12.108   9.206  2.1672  0.7528 -1.1959
  595MOL0     H82048   9.730  12.014   9.086  0.4861  3.9220 -0.3740
  595MOL0     H82049   9.438  11.996   9.169  0.1028  1.1101  0.2739
  595MOL0     H82050   9.503  12.085   9.040  0.8538 -0.5863 -2.1760
  595MOL0     H82051   9.414  11.892   8.948 -0.4869 -0.5629  0.0593
  595MOL0     H82052   9.506  11.780   9.056  0.2958  0.2964  0.1210
  595MOL0     H82053   9.633  11.979   8.854  0.0056 -0.6765 -0.4434
  595MOL0     H82054   9.727  11.865   8.949 -0.2002 -0.5661  0.6752
  595MOL0     H82055   9.502  11.764   8.771  0.8406 -1.5694 -1.5544
  595MOL0     H82056   9.661  11.689   8.809 -3.1450 -1.8586  0.6303
  595MOL0     H82057   9.601  11.793   8.571  0.0205 -0.2997  0.8655
  595MOL0     H82058   9.634  11.949   8.642  0.0437 -0.0913 -1.0035
  595MOL0     H82059   9.891  12.017   8.694 -2.2860 -0.9226 -0.1550
  595MOL0     H82060  10.156  11.962   8.736  2.9429 -4.1472  4.0205
  595MOL0     H82061  10.183  11.908   8.574 -1.8506  1.2452 -0.4957
  595MOL0     H82062  10.182  11.749   8.834 -1.7692 -0.2389 -0.7990
  595MOL0     H82063  10.221  11.678   8.676  2.2502 -0.4952  0.3436
  595MOL0     H82064  10.429  11.840   8.664  0.3929  0.6616  0.1480
  595MOL0     H82065  10.390  11.869   8.833  1.5756  2.1357 -1.5542
  595MOL0     H82066  10.403  11.638   8.902 -2.1879  1.5418 -0.6101
  595MOL0     H82067  10.439  11.597   8.729 -0.4158  1.1894 -1.1637
  595MOL0     H82068  10.716  11.697   9.043  0.2055 -1.2188  1.3056
  595MOL0     H82069  10.945  11.628   9.176  1.3765  0.1695  1.1855
  595MOL0     H82070  10.939  11.455   9.207  0.7315  0.5241 -0.4468
  595MOL0     H82071  10.803  11.563   9.244  1.5394 -0.6176  0.8402
  595MOL0     H82072  10.902  10.978   8.716  1.5996  0.3551 -0.9223
  595MOL0     H82073  11.061  10.822   8.687  1.8304 -0.2447  0.5818
  595MOL0     H82074  11.156  10.644   8.738 -0.7169  1.8073 -0.5042
  595MOL0     H82075  11.282  10.717   8.640 -1.8593 -0.8880 -0.9742
  595MOL0     H82076  11.452  10.598   8.740  0.7380 -0.4672 -1.0702
  595MOL0     H82077  11.360  10.544   8.875  0.4745 -0.9899 -0.2195
  595MOL0     H82078  11.207  10.417   8.704  0.3832  0.1459  0.3171
  595MOL0     H82079  11.366  10.343   8.753 -0.7046 -0.6194  1.6675
  595MOL0     H82080  11.462  10.430   8.533  0.4802 -2.9357  1.0717
  595MOL0     H82081  11.314  10.527   8.511  0.8078  0.7935  0.7497
  595MOL0     H82082  11.198  10.274   8.508  0.3034 -0.8699 -0.8384
  595MOL0     H82083  11.290  10.339   8.367  1.0247  1.0232  0.7106
  595MOL0     H82084  11.325  10.104   8.449 -2.0197  2.3830 -2.6539
  595MOL0     H82085  11.421  10.172   8.590  3.1481 -2.7741 -1.4772
  595MOL0     H82086  11.558  10.286   8.397  0.3754 -0.6548 -0.1813
  595MOL0     H82087  11.475  10.163   8.294  3.6175 -0.4950 -1.4111
  595MOL0     H82088  11.634  10.098   8.541 -1.3326 -1.4093  0.6117
  595MOL0     H82089  11.714  10.132   8.378  0.9723  0.4827 -0.8936
  595MOL0     H82090  11.284  10.950   9.035 -0.1003  0.4647  1.0008
  595MOL0     H82091  11.143  11.143   9.052  1.9313 -1.9046  0.9883
  595MOL0     H82092  10.763  11.307   8.756 -2.5773  0.4049  0.5730
  595MOL0     H82093  10.639  11.489   8.683 -0.6395  0.4327  0.4485
  595MOL0     H82094   9.610  11.643   9.230  0.3685 -1.5469 -1.6820
  595MOL0     H82095   9.694  11.416   9.190  0.4469 -0.9326  0.1443
  595MOL0     H82096   9.858  11.044   9.338 -0.1058  2.3906  1.5212
  595MOL0     H82097   9.974  10.816   9.309 -1.9843  1.5148 -0.9484
  595MOL0     H82098  10.395  10.669   9.247  1.6724 -0.4441  3.3987
  595MOL0     H82099  10.396  10.838   9.213 -0.8836 -2.7186 -2.2294
  595MOL0     H82100  10.486  10.876   9.443  1.0378  1.0560 -4.4666
  595MOL0     H82101  10.579  10.753   9.379  1.2859 -1.7590  2.1204
  595MOL0     H82102  10.476  10.728   9.623 -1.1771 -3.7554  2.2676
  595MOL0     H82103  10.329  10.691   9.545 -0.0767 -0.8913 -0.2720
  595MOL0     H82104  10.603  10.548   9.516  0.2572 -1.0597 -2.2709
  595MOL0     H82105  10.444  10.489   9.459 -2.1578 -0.8220  1.6516
  595MOL0     H82106  10.396  10.385   9.856  0.3989 -0.6301  0.9009
  595MOL0     H82107  10.352  11.017   9.353 -0.0898  2.5528 -1.0532
  595MOL0     H82108  10.273  11.297   9.475  0.1379 -0.9556  0.1303
  595MOL0     H82109  10.381  11.233   9.351  0.0864  0.1116  0.9575
  595MOL0     H82110  10.242  11.331   9.303 -2.1239  0.9218  1.4171
  596MOL0     O82111   9.663   9.579   4.322 -0.6247  0.8911  0.2762
  596MOL0     C82112   9.579   9.646   4.375 -0.3234  0.5987  0.8073
  596MOL0     O82113   9.566   9.673   4.510 -0.5999  0.2645  0.1537
  596MOL0     C82114   9.652   9.641   4.620  0.3036  0.9525 -0.5925
  596MOL0     C82115   9.635   9.711   4.740  0.2232  0.9763  0.2861
  596MOL0     C82116   9.696   9.657   4.850  0.3622 -0.1643  0.0254
  596MOL0     C82117   9.782   9.548   4.853  0.8115 -0.2322 -0.9289
  596MOL0     O82118   9.849   9.517   4.973 -0.1623  0.1435 -0.3492
  596MOL0     C82119   9.845   9.382   5.004 -0.5605  0.1153 -0.1461
  596MOL0     C82120   9.790   9.364   5.148  0.2325  0.0809  0.0711
  596MOL0     C82121   9.888   9.405   5.249 -0.4496  0.6085  0.5684
  596MOL0     C82122   9.858   9.325   5.373 -0.4545 -0.9911  0.6404
  596MOL0     C82123   9.979   9.332   5.472  0.3701  0.3876  0.6070
  596MOL0     C82124   9.981   9.230   5.587 -0.9949 -0.0684 -0.6698
  596MOL0     C82125  10.090   9.257   5.684  1.1600 -0.5805  0.1822
  596MOL0     C82126  10.035   9.205   5.818 -0.5775  0.1170 -1.1033
  596MOL0     N82127  10.130   9.224   5.929 -1.0137  1.2969  0.2114
  596MOL0     C82128  10.245   9.152   5.930 -0.2054  0.3119 -0.1534
  596MOL0     C82129  10.316   9.206   6.030 -0.6849  0.4980  0.1553
  596MOL0     C82130  10.443   9.145   6.078 -0.4659 -0.8148 -0.3349
  596MOL0     C82131  10.528   9.239   6.168  0.2625 -0.0098 -0.2484
  596MOL0     C82132  10.663   9.170   6.199  0.3084  0.0608  0.0720
  596MOL0     C82133  10.759   9.280   6.242 -0.1307 -0.7643 -0.4959
  596MOL0     O82134  10.733   9.331   6.378 -0.2738 -0.3092 -0.2959
  596MOL0     C82135  10.854   9.355   6.435 -0.0388  0.1378  0.4213
  596MOL0     C82136  10.877   9.300   6.566  0.6204 -1.3315  0.2104
  596MOL0     C82137  10.992   9.335   6.639 -0.5259  0.8093 -0.2633
  596MOL0     C82138  10.995   9.272   6.777  0.2500 -0.3669  0.0431
  596MOL0     C82139  11.090   9.410   6.582  0.7033 -0.2768  0.2536
  596MOL0     C82140  11.223   9.433   6.652 -0.1303  0.0467  0.5091
  596MOL0     O82141  11.328   9.472   6.568  0.1565  0.7998  0.0258
  596MOL0     C82142  11.445   9.501   6.631  0.1845 -0.4261 -0.0408
  596MOL0     C82143  11.531   9.413   6.692  0.9433  0.7508 -0.3655
  596MOL0     C82144  11.659   9.455   6.738  0.2163  0.2864 -0.1858
  596MOL0     C82145  11.701   9.588   6.720  0.3483 -0.2294 -1.1012
  596MOL0     O82146  11.826   9.641   6.731 -0.2817  0.0927  0.3704
  596MOL0     C82147  11.910   9.583   6.827 -0.2222  0.6992 -0.7490
  596MOL0     C82148  11.996   9.694   6.911  0.2927  0.6024 -0.7399
  596MOL0     C82149  12.066   9.793   6.828 -0.1501  0.7402 -0.4892
  596MOL0     C82150  12.077   9.930   6.902  0.0286  0.4914 -0.6595
  596MOL0     C82151  12.166  10.014   6.821 -0.7222 -0.1461  0.2080
  596MOL0     C82152  12.216  10.130   6.908  0.8503 -0.1260  0.5754
  596MOL0     C82153  12.308  10.215   6.818  0.5154 -0.2792 -1.1566
  596MOL0     C82154  12.397  10.319   6.895  0.2145  0.3767  0.8164
  596MOL0    Cl82155  12.287  10.466   6.922 -0.5446 -0.1134  0.0696
  596MOL0     C82156  11.605   9.682   6.679 -0.7647 -0.1940  0.4354
  596MOL0     C82157  11.482   9.634   6.635  0.3894  0.7835  0.2920
  596MOL0     O82158  11.223   9.452   6.772  0.4260  0.8612  0.3749
  596MOL0     C82159  11.068   9.469   6.449  0.2560 -0.4287 -0.6479
  596MOL0     C82160  10.952   9.438   6.380  0.2966 -0.1323 -0.1489
  596MOL0     N82161  10.252   9.307   6.086  0.0042  1.1445  0.1268
  596MOL0     N82162  10.137   9.322   6.020 -0.5895 -0.2927 -0.3206
  596MOL0     C82163   9.805   9.492   4.728  0.3355  0.5186 -0.6495
  596MOL0     C82164   9.743   9.534   4.616  0.0572 -0.1347 -0.2661
  596MOL0     C82165   9.489   9.713   4.289  0.1095 -0.5814 -0.2937
  596MOL0     C82166   9.349   9.711   4.315 -0.5073  0.5133 -0.0573
  596MOL0     C82167   9.260   9.787   4.236  0.3035 -0.3745 -0.7517
  596MOL0     C82168   9.303   9.867   4.135 -0.4324  0.7110  0.6904
  596MOL0     O82169   9.219   9.942   4.051  0.1169 -0.5237  0.7309
  596MOL0     C82170   9.132  10.036   4.122  0.5753  0.0931 -0.3208
  596MOL0     C82171   8.983   9.997   4.094 -0.8775 -0.1852 -0.2869
  596MOL0     C82172   8.883  10.071   4.190  0.1760  0.1692 -0.8284
  596MOL0     C82173   8.753  10.004   4.226  0.3342  0.9625  0.1503
  596MOL0     C82174   8.768   9.904   4.330  0.5331  0.2909 -0.5907
  596MOL0     C82175   8.797   9.822   4.420 -0.0548  0.0318 -0.9510
  596MOL0     C82176   9.440   9.870   4.107 -0.3152 -0.9863 -0.2531
  596MOL0     C82177   9.533   9.792   4.180 -0.7290 -0.0151  0.1698
  596MOL0     C82178   9.680   9.827   4.143  0.5020 -0.1279 -0.0838
  596MOL0     H82179   9.564   9.793   4.747  3.4874  4.3335 -1.8367
  596MOL0     H82180   9.677   9.710   4.942 -4.7484 -0.3034 -0.6444
  596MOL0     H82181   9.950   9.350   5.000 -1.0890 -2.1374  1.7092
  596MOL0     H82182   9.785   9.321   4.936 -1.7553  1.8144 -0.6649
  596MOL0     H82183   9.693   9.410   5.169  0.8552  0.8168  1.4148
  596MOL0     H82184   9.767   9.258   5.160 -1.6893  0.0464 -2.7560
  596MOL0     H82185   9.983   9.366   5.211 -2.1970 -1.4357 -2.1596
  596MOL0     H82186   9.891   9.514   5.260 -0.6674  1.3413 -4.2076
  596MOL0     H82187   9.767   9.371   5.415 -2.2548 -0.0674 -3.7586
  596MOL0     H82188   9.847   9.218   5.353  0.7358 -0.8389 -0.9816
  596MOL0     H82189   9.978   9.435   5.510  1.8654  1.8649 -2.9423
  596MOL0     H82190  10.069   9.314   5.412  0.3752 -1.3720  1.0888
  596MOL0     H82191   9.882   9.246   5.630 -1.4246  0.8015 -1.9036
  596MOL0     H82192   9.986   9.129   5.546 -3.6864 -0.7190  0.3866
  596MOL0     H82193  10.104   9.366   5.688  0.5653 -0.3666 -2.2394
  596MOL0     H82194  10.184   9.208   5.658  0.1374 -2.0880 -0.8466
  596MOL0     H82195   9.948   9.268   5.841 -0.3361  1.8322 -4.2696
  596MOL0     H82196  10.018   9.097   5.811  1.1472 -0.3818  1.3352
  596MOL0     H82197  10.277   9.077   5.858  3.4540  0.2512  1.3173
  596MOL0     H82198  10.498   9.122   5.987  2.8770  1.9231  0.7824
  596MOL0     H82199  10.426   9.054   6.136 -0.7751  0.5453  1.8274
  596MOL0     H82200  10.552   9.331   6.113 -2.9478 -0.2613 -2.3269
  596MOL0     H82201  10.468   9.259   6.257  1.1644  1.3920  0.0739
  596MOL0     H82202  10.648   9.091   6.272 -3.7045 -0.0157 -0.6055
  596MOL0     H82203  10.703   9.139   6.102 -0.5080  0.4016 -0.3871
  596MOL0     H82204  10.862   9.244   6.237  1.4921  2.7391  3.0018
  596MOL0     H82205  10.761   9.366   6.175  1.0735  0.6630  1.3060
  596MOL0     H82206  10.801   9.246   6.621 -0.1551  0.5765  1.1132
  596MOL0     H82207  10.917   9.197   6.792 -1.8570  0.7440 -3.9738
  596MOL0     H82208  10.989   9.352   6.851 -0.1794  0.4620 -0.8651
  596MOL0     H82209  11.092   9.225   6.797 -0.1618 -1.4586 -0.4612
  596MOL0     H82210  11.502   9.309   6.694 -0.1886  1.0596 -0.1507
  596MOL0     H82211  11.730   9.388   6.787  0.4955  0.3581 -0.4949
  596MOL0     H82212  11.860   9.518   6.900  2.1729  0.5266  0.8415
  596MOL0     H82213  11.962   9.508   6.766 -0.3129 -0.4081  0.4903
  596MOL0     H82214  11.932   9.758   6.972 -0.1661 -0.8961  0.4044
  596MOL0     H82215  12.060   9.633   6.974 -0.5383 -1.3858 -1.7329
  596MOL0     H82216  12.018   9.803   6.731  0.4666  0.2193 -0.8574
  596MOL0     H82217  12.166   9.757   6.801  0.4590  1.5864  0.5347
  596MOL0     H82218  12.113   9.925   7.005 -0.4856  1.3836 -0.4265
  596MOL0     H82219  11.976   9.972   6.909 -0.6965 -1.0285 -1.3936
  596MOL0     H82220  12.251   9.952   6.793 -0.3183  0.7893 -0.7409
  596MOL0     H82221  12.120  10.074   6.741  1.1425  1.7265  0.4454
  596MOL0     H82222  12.267  10.085   6.994  0.5734  2.2282  2.0826
  596MOL0     H82223  12.128  10.182   6.946  0.3131 -1.8321  1.8294
  596MOL0     H82224  12.253  10.254   6.732 -1.7103  0.1830  0.3944
  596MOL0     H82225  12.376  10.142   6.772 -1.0922 -0.8513 -2.7585
  596MOL0     H82226  12.476  10.350   6.826 -1.7215  1.7763 -0.9069
  596MOL0     H82227  12.437  10.272   6.985  0.5756 -2.5064 -0.7171
  596MOL0     H82228  11.636   9.785   6.667 -0.3825  0.0440  2.9128
  596MOL0     H82229  11.413   9.710   6.601  1.9416  1.2747 -2.0670
  596MOL0     H82230  11.150   9.530   6.414 -0.2154 -0.1421 -1.2735
  596MOL0     H82231  10.947   9.472   6.277 -1.1386  1.6226  0.4481
  596MOL0     H82232   9.873   9.409   4.713  1.5135  1.2858  0.2526
  596MOL0     H82233   9.773   9.470   4.533  1.1223  2.2449 -1.8485
  596MOL0     H82234   9.322   9.659   4.407  2.8489  2.7697  2.4734
  596MOL0     H82235   9.155   9.780   4.261  0.2630  0.2990 -0.7373
  596MOL0     H82236   9.152  10.042   4.229 -2.6457  1.3597  0.3144
  596MOL0     H82237   9.146  10.133   4.073  1.4097 -0.2790 -0.8476
  596MOL0     H82238   8.978   9.892   4.125  3.2382 -0.2845  0.6729
  596MOL0     H82239   8.963  10.012   3.988  0.5142 -0.2143 -0.5759
  596MOL0     H82240   8.929  10.122   4.275  1.1230  1.2948 -1.9750
  596MOL0     H82241   8.864  10.166   4.138 -0.1509 -0.5153 -1.9949
  596MOL0     H82242   8.705   9.959   4.139  1.3545 -0.8923  0.4940
  596MOL0     H82243   8.677  10.073   4.263 -1.9686 -2.1669  1.7380
  596MOL0     H82244   8.814   9.752   4.499  1.4032  0.1424 -1.1553
  596MOL0     H82245   9.470   9.922   4.017 -0.6154  0.3283  0.3883
  596MOL0     H82246   9.745   9.834   4.231 -0.0615 -0.8526  0.4133
  596MOL0     H82247   9.718   9.746   4.080  1.4945 -1.3253  1.9386
  596MOL0     H82248   9.679   9.918   4.083  0.0772 -0.2749 -0.3090
  597MOL0     O82249   8.060   4.296   3.952 -0.1317  0.2891  0.2882
  597MOL0     C82250   8.083   4.197   3.882 -0.4429 -0.4669  0.0510
  597MOL0     O82251   8.205   4.149   3.860 -0.7524  0.0248 -0.7679
  597MOL0     C82252   8.311   4.222   3.914 -0.0215  0.3929 -0.2555
  597MOL0     C82253   8.377   4.322   3.849  0.3111  0.3882  0.7595
  597MOL0     C82254   8.481   4.391   3.915 -0.1615 -0.5247 -0.6322
  597MOL0     C82255   8.519   4.362   4.040 -0.5278  0.2149  0.2766
  597MOL0     O82256   8.611   4.449   4.114 -0.1195  0.4671  0.1579
  597MOL0     C82257   8.681   4.388   4.224  0.0153  0.0340 -0.5142
  597MOL0     C82258   8.817   4.452   4.250  0.3360  0.1790  0.1000
  597MOL0     C82259   8.916   4.418   4.138  0.4804 -0.5163  0.0446
  597MOL0     C82260   9.014   4.531   4.118  0.8922  0.9963 -0.9520
  597MOL0     C82261   9.109   4.556   4.234 -1.4548  0.1120 -1.7654
  597MOL0     C82262   9.227   4.662   4.209  0.1438 -0.3385  0.0282
  597MOL0     C82263   9.299   4.674   4.342  0.4672 -0.1610 -0.1360
  597MOL0     C82264   9.225   4.743   4.457 -0.2819  0.1337  1.0305
  597MOL0     N82265   9.306   4.717   4.572 -0.4275  0.2658  0.5399
  597MOL0     C82266   9.442   4.725   4.596  0.3403  0.9114  0.0342
  597MOL0     C82267   9.463   4.658   4.712 -0.0301  0.3134 -0.8647
  597MOL0     C82268   9.600   4.618   4.775  0.3207 -0.4239  0.6266
  597MOL0     C82269   9.623   4.727   4.881  0.0002  0.2266 -0.0745
  597MOL0     C82270   9.750   4.695   4.950 -0.4345  0.4684  0.5424
  597MOL0     C82271   9.750   4.707   5.105 -0.8419 -0.0662 -0.3469
  597MOL0     O82272   9.887   4.663   5.146  0.3289  0.4778  0.2393
  597MOL0     C82273   9.910   4.654   5.283  0.9415  0.1904  0.3771
  597MOL0     C82274   9.835   4.710   5.388  0.6027 -0.1754  0.2206
  597MOL0     C82275   9.868   4.697   5.524 -0.4976  1.0059 -0.0170
  597MOL0     C82276   9.783   4.760   5.631  0.9521 -0.6168  0.5694
  597MOL0     C82277   9.995   4.635   5.554 -0.2387  0.6227 -0.3524
  597MOL0     C82278  10.066   4.636   5.681  0.4729  0.0857  0.2730
  597MOL0     O82279   9.987   4.618   5.790  0.0095 -0.1187  0.1094
  597MOL0     C82280  10.050   4.617   5.909  0.0214 -0.0096 -0.0939
  597MOL0     C82281  10.048   4.496   5.986 -0.0796 -0.0907  0.3902
  597MOL0     C82282  10.114   4.483   6.107  0.7722  0.0738 -0.2746
  597MOL0     C82283  10.176   4.600   6.165 -0.1384 -0.5421 -0.7830
  597MOL0     O82284  10.226   4.585   6.292 -0.4581  0.1516  0.3603
  597MOL0     C82285  10.320   4.682   6.346 -0.0605 -0.2254 -0.3464
  597MOL0     C82286  10.358   4.635   6.493 -0.4747 -0.3166  0.5905
  597MOL0     C82287  10.503   4.653   6.531 -0.0505  0.5637 -0.1436
  597MOL0     C82288  10.539   4.594   6.664  0.4383 -1.1112  0.5075
  597MOL0     C82289  10.497   4.445   6.673 -0.2887  0.2987  0.0273
  597MOL0     C82290  10.548   4.344   6.777  0.7956 -0.8045  0.1172
  597MOL0     C82291  10.462   4.220   6.793 -0.8203 -0.1998  0.2936
  597MOL0     C82292  10.456   4.129   6.665 -0.2858  0.2170 -0.4814
  597MOL0    Cl82293  10.619   4.098   6.595 -0.1091  0.5120  0.3459
  597MOL0     C82294  10.184   4.717   6.089 -0.4840 -0.7609  0.0246
  597MOL0     C82295  10.116   4.727   5.964 -0.6601  0.3971 -1.2749
  597MOL0     O82296  10.188   4.633   5.680  0.1308 -0.3193  0.3317
  597MOL0     C82297  10.067   4.571   5.448  1.2159  0.4250 -0.3990
  597MOL0     C82298  10.029   4.585   5.317  0.2217  0.3848  0.4380
  597MOL0     N82299   9.342   4.646   4.783 -0.3796  0.5803 -0.3131
  597MOL0     N82300   9.252   4.684   4.697 -0.0821  0.1180 -0.6091
  597MOL0     C82301   8.454   4.251   4.106 -0.1940 -0.6678  0.4434
  597MOL0     C82302   8.350   4.178   4.041 -0.3448 -1.2565 -0.0608
  597MOL0     C82303   7.979   4.140   3.796 -0.9204 -0.8507 -0.9463
  597MOL0     C82304   8.013   4.028   3.712 -0.7846  0.2681  0.7237
  597MOL0     C82305   7.914   3.974   3.639 -0.0394  0.6424  0.2060
  597MOL0     C82306   7.784   4.018   3.640  0.2201  0.0272  0.3476
  597MOL0     O82307   7.701   3.952   3.555  0.8425 -0.1977  0.6620
  597MOL0     C82308   7.558   3.975   3.561 -0.2224 -0.7511 -0.1286
  597MOL0     C82309   7.482   3.877   3.480 -0.8625 -0.3715  0.9120
  597MOL0     C82310   7.510   3.874   3.326 -0.3673  0.0772  0.0226
  597MOL0     C82311   7.425   3.771   3.257 -0.9428  0.5494 -0.1227
  597MOL0     C82312   7.463   3.781   3.117 -0.2203  0.9301 -0.0130
  597MOL0     C82313   7.495   3.780   2.999  0.5508  0.6261  0.2836
  597MOL0     C82314   7.748   4.126   3.714 -0.6270  0.0343 -0.3969
  597MOL0     C82315   7.841   4.189   3.793 -0.3505  0.6512  0.4999
  597MOL0     C82316   7.777   4.303   3.875 -0.3085  0.9691  0.5528
  597MOL0     H82317   8.341   4.350   3.751  1.0846 -2.3984 -0.4280
  597MOL0     H82318   8.522   4.478   3.866 -0.3953 -0.5797 -0.9309
  597MOL0     H82319   8.681   4.279   4.214 -3.3299 -0.1880  0.5389
  597MOL0     H82320   8.621   4.417   4.310 -0.6296  1.0752 -1.2877
  597MOL0     H82321   8.805   4.561   4.258 -0.2692  0.0468  1.2981
  597MOL0     H82322   8.853   4.424   4.350 -0.0960  1.5137  0.6517
  597MOL0     H82323   8.973   4.329   4.169 -0.5779 -1.2436 -0.0600
  597MOL0     H82324   8.866   4.396   4.043  0.5030  3.9554 -1.2375
  597MOL0     H82325   9.068   4.515   4.024  0.3245  2.2007 -1.5081
  597MOL0     H82326   8.956   4.623   4.106  1.2467  1.2959 -0.3781
  597MOL0     H82327   9.156   4.460   4.260 -5.1910 -1.1398  1.1075
  597MOL0     H82328   9.038   4.579   4.313 -1.1843 -2.5919 -0.6351
  597MOL0     H82329   9.289   4.631   4.124 -0.2731 -1.2762  0.0488
  597MOL0     H82330   9.178   4.754   4.177 -1.4609 -0.3723  2.2166
  597MOL0     H82331   9.386   4.736   4.320 -0.0633  1.4268  1.9043
  597MOL0     H82332   9.332   4.574   4.370 -2.5639 -0.9136  1.1798
  597MOL0     H82333   9.231   4.850   4.432 -0.3881 -0.0908 -0.0309
  597MOL0     H82334   9.123   4.707   4.471 -1.2821  2.1655 -0.3866
  597MOL0     H82335   9.522   4.745   4.525  0.4671  1.8428  0.4230
  597MOL0     H82336   9.678   4.623   4.698  0.1236  1.3367  0.4839
  597MOL0     H82337   9.607   4.514   4.808 -1.8982 -0.1968  2.0586
  597MOL0     H82338   9.628   4.824   4.831  1.9085 -1.0778 -2.6150
  597MOL0     H82339   9.535   4.719   4.946  0.8305  1.0295  1.1971
  597MOL0     H82340   9.774   4.592   4.921  0.6617  1.3798 -2.1431
  597MOL0     H82341   9.830   4.761   4.915 -0.4810  0.3062  0.1284
  597MOL0     H82342   9.712   4.805   5.137 -4.3204 -2.1806  2.9331
  597MOL0     H82343   9.679   4.638   5.153 -2.9700  1.9934 -0.3331
  597MOL0     H82344   9.741   4.761   5.369  1.0165  1.1477  1.5095
  597MOL0     H82345   9.835   4.808   5.714  0.6015  3.1798 -1.2054
  597MOL0     H82346   9.714   4.680   5.658 -0.5445 -0.5238 -2.4550
  597MOL0     H82347   9.729   4.849   5.598 -0.0887 -0.9521  1.3237
  597MOL0     H82348  10.008   4.410   5.934  3.0241 -1.7549  0.5339
  597MOL0     H82349  10.109   4.390   6.162 -1.2144  1.4674  2.1070
  597MOL0     H82350  10.404   4.690   6.276 -1.4542  0.8296 -1.9401
  597MOL0     H82351  10.268   4.776   6.367  0.1803 -0.3540  0.9304
  597MOL0     H82352  10.292   4.694   6.557  1.7525  3.4476 -0.2151
  597MOL0     H82353  10.339   4.528   6.488 -3.7323  0.2219 -0.6849
  597MOL0     H82354  10.525   4.760   6.527 -3.2822  1.4288  1.5272
  597MOL0     H82355  10.568   4.597   6.462  2.2459  1.7903  0.9249
  597MOL0     H82356  10.497   4.649   6.748  0.3779  0.6287 -0.5952
  597MOL0     H82357  10.647   4.599   6.679  0.5188 -0.2607 -0.2614
  597MOL0     H82358  10.389   4.434   6.659 -0.8044  1.2639  2.7017
  597MOL0     H82359  10.551   4.412   6.583 -0.3203  0.9529 -0.2363
  597MOL0     H82360  10.552   4.387   6.878 -2.6629 -1.1543  0.5338
  597MOL0     H82361  10.646   4.305   6.749  0.4343 -1.9177  0.3638
  597MOL0     H82362  10.361   4.246   6.824 -1.1283 -0.7236 -0.2559
  597MOL0     H82363  10.514   4.159   6.868  0.7199 -0.0579 -0.6063
  597MOL0     H82364  10.385   4.177   6.596  0.5125 -0.9747 -2.2144
  597MOL0     H82365  10.407   4.033   6.686 -1.5291  0.9766  0.1637
  597MOL0     H82366  10.231   4.803   6.135 -3.3585  0.0928  1.6109
  597MOL0     H82367  10.125   4.819   5.906 -3.3786  1.0563 -0.7626
  597MOL0     H82368  10.163   4.525   5.467  0.0222 -1.3299  2.0579
  597MOL0     H82369  10.095   4.539   5.245 -1.0450 -0.8883  0.0438
  597MOL0     H82370   8.481   4.202   4.199 -0.9187  2.5727  2.5241
  597MOL0     H82371   8.305   4.088   4.080 -0.6181 -0.0988  2.5244
  597MOL0     H82372   8.116   3.996   3.702 -0.4183  1.8868 -1.5140
  597MOL0     H82373   7.942   3.889   3.578  3.2447  1.7304 -0.0087
  597MOL0     H82374   7.531   3.975   3.667  1.3783 -1.5329  0.3132
  597MOL0     H82375   7.531   4.075   3.526 -1.2164 -1.9094 -2.8637
  597MOL0     H82376   7.378   3.904   3.501 -0.6794 -0.0073  1.3762
  597MOL0     H82377   7.512   3.782   3.523 -0.8017  0.3409  2.4994
  597MOL0     H82378   7.482   3.970   3.281 -1.2437 -0.8077 -1.3858
  597MOL0     H82379   7.615   3.848   3.308 -0.5648  0.1824 -1.3296
  597MOL0     H82380   7.320   3.796   3.273 -0.6930  1.7876 -0.3161
  597MOL0     H82381   7.442   3.668   3.291 -0.8447  0.3827 -0.6603
  597MOL0     H82382   7.500   3.767   2.893 -0.7171  1.2776  0.1194
  597MOL0     H82383   7.643   4.154   3.712 -1.4336 -2.2352  2.7124
  597MOL0     H82384   7.810   4.401   3.840 -0.0265  0.6167 -0.1741
  597MOL0     H82385   7.667   4.307   3.876 -0.3916 -0.3930  2.2172
  597MOL0     H82386   7.806   4.291   3.980 -1.7330 -1.3785  0.7412
  598MOL0     O82387   6.113   1.530   1.695  0.4968  0.2041 -0.3794
  598MOL0     C82388   6.101   1.649   1.684 -0.1365  0.9851  1.4292
  598MOL0     O82389   6.159   1.739   1.762 -0.3210 -0.0266  0.1699
  598MOL0     C82390   6.150   1.729   1.899 -1.7469 -0.3435 -0.0039
  598MOL0     C82391   6.074   1.638   1.967 -0.0266  0.5326 -0.1012
  598MOL0     C82392   6.071   1.633   2.104  0.8496  1.3700  0.6345
  598MOL0     C82393   6.125   1.731   2.181 -0.5059  0.4416  0.1683
  598MOL0     O82394   6.135   1.721   2.315 -0.2338 -0.3421  0.1433
  598MOL0     C82395   6.181   1.828   2.401  0.0839  0.2924  0.1524
  598MOL0     C82396   6.182   1.762   2.540 -0.1716  0.6744  0.1606
  598MOL0     C82397   6.268   1.626   2.557  0.2085  0.5074 -0.8826
  598MOL0     C82398   6.336   1.619   2.691  0.9490 -0.3287 -0.0174
  598MOL0     C82399   6.388   1.484   2.730  0.5587  0.1811 -0.3835
  598MOL0     C82400   6.472   1.422   2.612  0.4781  0.4949 -0.0027
  598MOL0     C82401   6.513   1.277   2.650  0.3506 -0.6674 -0.3225
  598MOL0     C82402   6.605   1.221   2.544  0.8790  0.6809 -0.0416
  598MOL0     N82403   6.732   1.296   2.530  0.2105 -0.1430  0.0697
  598MOL0     C82404   6.844   1.258   2.601  1.3393  0.0491 -0.9187
  598MOL0     C82405   6.940   1.334   2.561  0.4537  0.2034  0.7949
  598MOL0     C82406   7.084   1.327   2.595  0.1619 -1.1414 -0.1141
  598MOL0     C82407   7.142   1.234   2.488  0.2970  0.1865 -0.5972
  598MOL0     C82408   7.269   1.154   2.523  0.1290  0.1368 -0.4141
  598MOL0     C82409   7.293   1.036   2.431 -1.0555 -0.0289 -0.6069
  598MOL0     O82410   7.372   0.943   2.499  0.2405  0.3769 -0.2774
  598MOL0     C82411   7.507   0.973   2.519 -0.6099  0.6892  0.0173
  598MOL0     C82412   7.581   1.054   2.443  0.7596 -0.1561  0.7711
  598MOL0     C82413   7.720   1.058   2.442 -0.3214  0.1789  0.4842
  598MOL0     C82414   7.783   1.138   2.343 -0.7079 -0.1978  0.5271
  598MOL0     C82415   7.793   0.977   2.536 -0.6270 -0.6528  0.2434
  598MOL0     C82416   7.942   0.969   2.541 -0.6605  0.8128 -0.1385
  598MOL0     O82417   7.984   0.864   2.605 -0.8207  0.0463  0.0216
  598MOL0     C82418   8.112   0.855   2.637 -1.1093  0.0893 -0.0494
  598MOL0     C82419   8.217   0.844   2.546 -0.3509  0.6847  0.2908
  598MOL0     C82420   8.348   0.839   2.600 -0.2829 -0.3541  0.7212
  598MOL0     C82421   8.380   0.827   2.740 -0.5022 -0.1537 -0.5529
  598MOL0     O82422   8.513   0.832   2.777  0.0948  0.3202 -0.1099
  598MOL0     C82423   8.545   0.797   2.911  0.5260 -0.8204 -0.7028
  598MOL0     C82424   8.592   0.927   2.991  1.0469  0.5394  0.6667
  598MOL0     C82425   8.629   0.900   3.137 -0.0242 -0.3027  0.0000
  598MOL0     C82426   8.499   0.859   3.219  0.5655 -1.0194 -0.1598
  598MOL0     C82427   8.534   0.844   3.364  0.2083 -0.0837  0.5540
  598MOL0     C82428   8.411   0.869   3.452  0.1187  0.6186 -0.0148
  598MOL0     C82429   8.440   0.815   3.594 -0.5861 -0.1907  0.8113
  598MOL0     C82430   8.572   0.860   3.665 -0.4203  0.4004 -0.4297
  598MOL0    Cl82431   8.530   0.993   3.782  0.0848  0.0306 -0.1924
  598MOL0     C82432   8.262   0.830   2.826 -0.2691  0.5622 -0.5043
  598MOL0     C82433   8.135   0.839   2.776  0.0228  0.2275  0.2758
  598MOL0     O82434   8.005   1.050   2.481 -0.3152  0.1136  0.3818
  598MOL0     C82435   7.712   0.876   2.605  0.8524  0.4101 -0.2144
  598MOL0     C82436   7.572   0.880   2.606 -0.2588  0.0726 -0.4024
  598MOL0     N82437   6.892   1.408   2.453  0.5815 -0.1436 -0.7262
  598MOL0     N82438   6.770   1.386   2.438  0.3499 -0.1812  0.4810
  598MOL0     C82439   6.196   1.840   2.114 -0.8808 -0.3960 -0.7453
  598MOL0     C82440   6.208   1.838   1.973 -0.0572  0.4243  0.4911
  598MOL0     C82441   6.028   1.707   1.568  0.7212 -1.5308 -0.7115
  598MOL0     C82442   6.079   1.828   1.516  0.6895 -0.1401 -0.5426
  598MOL0     C82443   6.017   1.890   1.409 -0.1463 -0.5862 -0.4418
  598MOL0     C82444   5.897   1.840   1.356 -0.1080 -0.2576 -0.5513
  598MOL0     O82445   5.826   1.916   1.269  0.5957 -0.2962  0.0673
  598MOL0     C82446   5.723   1.855   1.188  0.1877 -0.4886 -0.2063
  598MOL0     C82447   5.780   1.744   1.087 -0.4369 -0.2931 -0.1827
  598MOL0     C82448   5.694   1.681   0.981  0.2221  0.2503  0.4464
  598MOL0     C82449   5.552   1.631   1.025 -0.3781  0.2317 -0.3479
  598MOL0     C82450   5.574   1.538   1.140  0.2343  0.8809 -0.0845
  598MOL0     C82451   5.600   1.456   1.230  0.2740 -0.5433 -0.6295
  598MOL0     C82452   5.845   1.721   1.404 -0.6871  0.8781  0.4941
  598MOL0     C82453   5.909   1.658   1.513  0.5991 -0.5881  0.6756
  598MOL0     C82454   5.839   1.536   1.561 -0.0138 -1.2756  0.1750
  598MOL0     H82455   6.017   1.566   1.910  4.0934 -1.6364 -1.9075
  598MOL0     H82456   6.028   1.550   2.160 -1.3406  0.7904 -1.7215
  598MOL0     H82457   6.112   1.912   2.411  1.0852  0.9055  2.3889
  598MOL0     H82458   6.280   1.869   2.381  1.6305 -2.7682  0.8764
  598MOL0     H82459   6.222   1.834   2.612  2.1529 -0.7709  0.4171
  598MOL0     H82460   6.084   1.738   2.582  0.1923  2.9670  2.5716
  598MOL0     H82461   6.195   1.545   2.554 -2.1980  2.5758 -3.1502
  598MOL0     H82462   6.331   1.628   2.468 -0.0183  3.8239 -1.1057
  598MOL0     H82463   6.415   1.695   2.687  1.9238 -1.2486  0.9822
  598MOL0     H82464   6.266   1.645   2.770  0.6462 -1.3553  0.0622
  598MOL0     H82465   6.304   1.418   2.754 -0.6087  2.0478  0.9705
  598MOL0     H82466   6.455   1.501   2.814  0.5610 -0.7433 -0.1867
  598MOL0     H82467   6.396   1.413   2.534 -1.1256 -1.3772  1.6593
  598MOL0     H82468   6.547   1.497   2.586  1.4504 -0.0621  1.0876
  598MOL0     H82469   6.429   1.209   2.665  0.2184 -0.0673  2.2186
  598MOL0     H82470   6.565   1.272   2.746 -3.5876 -2.6779  1.9684
  598MOL0     H82471   6.630   1.117   2.565 -0.3655  0.5830  1.0703
  598MOL0     H82472   6.553   1.222   2.448  0.3960 -1.0039  0.1756
  598MOL0     H82473   6.858   1.186   2.682 -2.7908  1.2566  1.1257
  598MOL0     H82474   7.097   1.291   2.698  2.9239  2.7363  1.1072
  598MOL0     H82475   7.123   1.429   2.600  1.9541 -1.8348  3.1811
  598MOL0     H82476   7.064   1.164   2.456  0.2426  0.0647 -0.1988
  598MOL0     H82477   7.160   1.304   2.406  0.7240  4.6434  2.9203
  598MOL0     H82478   7.357   1.218   2.535  0.8182 -0.9976  0.9161
  598MOL0     H82479   7.254   1.107   2.621  0.8823 -2.0878 -1.2922
  598MOL0     H82480   7.193   0.994   2.414 -2.1720  2.7994 -1.6354
  598MOL0     H82481   7.344   1.051   2.335 -3.5098 -1.7063 -2.2877
  598MOL0     H82482   7.539   1.122   2.370  4.3667 -0.2720 -1.6208
  598MOL0     H82483   7.702   1.181   2.283 -1.8619 -3.6788 -0.6946
  598MOL0     H82484   7.831   1.062   2.280 -2.5162 -0.4912 -0.5901
  598MOL0     H82485   7.861   1.196   2.393  0.5705 -1.7952  0.4801
  598MOL0     H82486   8.208   0.840   2.438 -4.4353  1.5159  0.4126
  598MOL0     H82487   8.428   0.836   2.527 -1.6132 -0.3352 -0.8036
  598MOL0     H82488   8.458   0.747   2.953 -0.4125 -2.4991 -4.2668
  598MOL0     H82489   8.624   0.721   2.909 -1.0988 -2.5859 -0.4209
  598MOL0     H82490   8.680   0.942   2.928 -0.0069 -1.1431 -1.3614
  598MOL0     H82491   8.509   0.997   2.977  0.5949 -0.4784 -2.6946
  598MOL0     H82492   8.664   0.997   3.174 -2.4206 -0.0689  1.8678
  598MOL0     H82493   8.706   0.822   3.144 -0.8224 -1.0087  1.4811
  598MOL0     H82494   8.453   0.770   3.175  3.0309 -0.7492 -3.7197
  598MOL0     H82495   8.424   0.937   3.207  1.9211 -0.0262 -3.4498
  598MOL0     H82496   8.563   0.739   3.374  2.1980 -0.4911 -5.2913
  598MOL0     H82497   8.620   0.906   3.391  1.5316 -1.5775 -0.0426
  598MOL0     H82498   8.328   0.815   3.405  0.2714  1.1590 -0.9296
  598MOL0     H82499   8.389   0.976   3.460  1.4412  0.9807 -0.9405
  598MOL0     H82500   8.450   0.706   3.586 -1.8472 -0.2728  0.0748
  598MOL0     H82501   8.357   0.839   3.660 -0.9408  0.5490  0.1117
  598MOL0     H82502   8.658   0.881   3.600  0.9259  1.0432  1.4788
  598MOL0     H82503   8.609   0.773   3.721  0.2223  0.7588 -0.2924
  598MOL0     H82504   8.262   0.834   2.935 -1.5364 -1.4355 -0.3631
  598MOL0     H82505   8.047   0.837   2.839 -0.1194  1.8395  0.1722
  598MOL0     H82506   7.757   0.792   2.657 -2.3336  0.6480  3.3467
  598MOL0     H82507   7.516   0.807   2.664  2.6125 -1.1451  1.0809
  598MOL0     H82508   6.246   1.923   2.164 -1.2135 -0.6565  0.0395
  598MOL0     H82509   6.272   1.911   1.925 -0.9088  0.3526 -0.8143
  598MOL0     H82510   6.176   1.869   1.545  0.5303 -0.4805  0.5078
  598MOL0     H82511   6.056   1.988   1.383 -3.2884  2.0269  3.4307
  598MOL0     H82512   5.638   1.821   1.249 -1.5756  1.4914 -1.4408
  598MOL0     H82513   5.676   1.930   1.124  0.8561  1.0375  1.0312
  598MOL0     H82514   5.817   1.662   1.150  1.6853  0.6513 -0.1388
  598MOL0     H82515   5.865   1.789   1.036 -1.0881  0.0318 -1.0003
  598MOL0     H82516   5.676   1.772   0.923  1.4766  0.5130  0.4463
  598MOL0     H82517   5.751   1.603   0.930 -0.6927 -1.8103  2.3815
  598MOL0     H82518   5.496   1.573   0.951 -1.5890  0.1736  0.5853
  598MOL0     H82519   5.483   1.711   1.052 -4.7004 -2.9267 -0.9770
  598MOL0     H82520   5.643   1.392   1.304  1.0285  1.2292  0.5260
  598MOL0     H82521   5.751   1.673   1.378  1.2266 -3.3124  0.6909
  598MOL0     H82522   5.905   1.466   1.613  1.1334 -1.0321 -0.9032
  598MOL0     H82523   5.755   1.566   1.626  1.1661 -2.9489  2.6412
  598MOL0     H82524   5.801   1.489   1.470  2.8815  0.0328 -1.8425
  599MOL0     O82525  11.158   3.396   7.278  0.5815 -0.9294  0.4746
  599MOL0     C82526  11.108   3.392   7.163  0.3466 -0.3279  0.5735
  599MOL0     O82527  11.068   3.280   7.102 -1.1369 -0.0776 -0.1804
  599MOL0     C82528  11.082   3.153   7.149 -0.4115 -0.2389 -0.3233
  599MOL0     C82529  11.000   3.052   7.095 -0.5329 -0.6337  0.1790
  599MOL0     C82530  10.996   2.921   7.152  0.7047 -0.9439  1.0156
  599MOL0     C82531  11.081   2.881   7.255  0.3479  0.0545  0.5878
  599MOL0     O82532  11.089   2.749   7.289 -0.2783  0.3239  0.4944
  599MOL0     C82533  11.041   2.698   7.414 -0.2253  0.3491  0.2394
  599MOL0     C82534  11.139   2.604   7.486 -0.2950 -0.8721 -0.2220
  599MOL0     C82535  11.266   2.676   7.535  0.2481  0.0284  0.2729
  599MOL0     C82536  11.370   2.567   7.588  0.1513  0.3987 -0.9455
  599MOL0     C82537  11.470   2.622   7.693  0.6691  0.6013 -0.0419
  599MOL0     C82538  11.578   2.695   7.621 -1.0367  0.5057  0.4023
  599MOL0     C82539  11.683   2.761   7.712 -0.0113  0.1330 -0.0691
  599MOL0     C82540  11.635   2.895   7.784  0.6493  0.4665  1.0991
  599MOL0     N82541  11.625   3.010   7.690 -0.2631 -0.8215  0.8997
  599MOL0     C82542  11.722   3.054   7.601  0.7908  0.8066  0.4228
  599MOL0     C82543  11.648   3.113   7.499  0.2999  0.1350 -0.1025
  599MOL0     C82544  11.704   3.162   7.365 -0.8451  1.1926 -0.8029
  599MOL0     C82545  11.818   3.265   7.394  0.0385 -0.2999 -0.0443
  599MOL0     C82546  11.781   3.373   7.496 -0.2699  0.2168  0.2737
  599MOL0     C82547  11.857   3.511   7.478 -0.2297  0.2271  0.7507
  599MOL0     O82548  12.004   3.479   7.464  0.2863 -0.1727  0.1729
  599MOL0     C82549  12.095   3.585   7.471 -0.2263  0.4478  0.5984
  599MOL0     C82550  12.082   3.717   7.510  0.1965 -0.2585  0.3257
  599MOL0     C82551  12.178   3.814   7.507 -0.2240 -0.8455  0.8634
  599MOL0     C82552  12.139   3.961   7.542  0.8355  0.5354 -0.0056
  599MOL0     C82553  12.312   3.772   7.477 -0.4691 -0.5591 -0.3721
  599MOL0     C82554  12.437   3.854   7.465  0.8223  0.2288 -0.1402
  599MOL0     O82555  12.537   3.807   7.375  0.2066  0.9873  0.4770
  599MOL0     C82556  12.668   3.847   7.392  1.1188 -0.0380 -0.1964
  599MOL0     C82557  12.744   3.858   7.270  0.8217  0.1954 -0.4967
  599MOL0     C82558  12.873   3.912   7.276 -0.8759 -0.4354  1.0901
  599MOL0     C82559  12.933   3.935   7.397  0.2937  0.0254  0.4539
  599MOL0     O82560  13.063   3.978   7.404 -0.6728 -0.7598  0.2534
  599MOL0     C82561  13.067   4.121   7.378 -0.8035 -0.1976  0.1989
  599MOL0     C82562  13.200   4.171   7.310 -0.4346 -0.2274  0.5698
  599MOL0     C82563  13.256   4.299   7.372 -0.1791 -1.0432  0.1077
  599MOL0     C82564  13.393   4.345   7.330 -0.6099  0.5041 -0.4191
  599MOL0     C82565  13.424   4.482   7.369  0.6160 -0.5276  0.2188
  599MOL0     C82566  13.450   4.494   7.531  0.2175  0.4961  0.6291
  599MOL0     C82567  13.523   4.627   7.556 -0.5026 -0.2944  0.2344
  599MOL0     C82568  13.624   4.631   7.668  0.4312 -0.1265 -0.3694
  599MOL0    Cl82569  13.562   4.549   7.814  0.2103  0.5786  0.5168
  599MOL0     C82570  12.863   3.920   7.515  0.1901 -0.6604 -0.3702
  599MOL0     C82571  12.727   3.886   7.506 -0.3559  0.5240 -0.0628
  599MOL0     O82572  12.454   3.940   7.547 -0.5816  0.0725  0.4778
  599MOL0     C82573  12.327   3.634   7.434  0.2852  0.6743  0.4245
  599MOL0     C82574  12.221   3.539   7.436 -0.3605 -0.1469  0.1175
  599MOL0     N82575  11.517   3.111   7.530  0.4019 -0.6443 -0.2933
  599MOL0     N82576  11.505   3.052   7.643  0.8444 -0.0601  0.3071
  599MOL0     C82577  11.164   2.973   7.308 -0.2590  0.1820 -0.1443
  599MOL0     C82578  11.174   3.106   7.256 -0.2078 -0.4044  0.0290
  599MOL0     C82579  11.096   3.520   7.097  0.1536 -0.3337 -0.2763
  599MOL0     C82580  10.997   3.531   6.993 -0.3724  0.5870 -0.2993
  599MOL0     C82581  10.946   3.654   6.945  0.4777 -0.1889 -0.2586
  599MOL0     C82582  10.986   3.775   6.995 -1.1463  0.2475 -0.5167
  599MOL0     O82583  10.951   3.897   6.950  0.0252  0.1930  0.2908
  599MOL0     C82584  10.949   3.927   6.804  0.1261  0.4644  0.1322
  599MOL0     C82585  11.030   4.050   6.776 -0.5371 -0.4371  0.3722
  599MOL0     C82586  10.961   4.183   6.828  0.0639  0.6101  0.1221
  599MOL0     C82587  11.008   4.303   6.730 -0.9787  0.4103 -0.1129
  599MOL0     C82588  11.149   4.295   6.692  0.3811  0.1660 -0.0901
  599MOL0     C82589  11.270   4.284   6.666  0.0497 -0.5040  0.7426
  599MOL0     C82590  11.084   3.769   7.097  0.0906  0.3732 -0.1964
  599MOL0     C82591  11.139   3.651   7.148 -0.1247  0.1611 -0.4487
  599MOL0     C82592  11.244   3.671   7.256  0.2425  0.2022  0.2929
  599MOL0     H82593  10.927   3.091   7.025  0.8818  3.6333  0.8195
  599MOL0     H82594  10.915   2.854   7.125 -1.6174  2.0714 -0.0699
  599MOL0     H82595  10.952   2.639   7.388  0.1803 -0.9571  1.6574
  599MOL0     H82596  11.022   2.777   7.487 -0.8170 -1.3846  2.0746
  599MOL0     H82597  11.090   2.552   7.569  2.6134 -0.0005  2.2223
  599MOL0     H82598  11.179   2.528   7.418  0.1275  0.6333 -1.7178
  599MOL0     H82599  11.309   2.730   7.450 -0.0843 -1.2764 -0.7333
  599MOL0     H82600  11.231   2.746   7.612 -0.0214  2.0906 -1.6363
  599MOL0     H82601  11.313   2.485   7.633  2.7710 -1.0707 -0.0878
  599MOL0     H82602  11.430   2.531   7.503  1.2154 -1.2071  0.4125
  599MOL0     H82603  11.507   2.536   7.750 -0.4429  1.3578  1.9285
  599MOL0     H82604  11.420   2.674   7.774  1.7139 -0.8819  1.6379
  599MOL0     H82605  11.636   2.630   7.554  3.4020  2.8176  1.6118
  599MOL0     H82606  11.543   2.778   7.559  3.1372  2.5260  0.4077
  599MOL0     H82607  11.767   2.800   7.653 -0.2535  2.0949  0.8163
  599MOL0     H82608  11.725   2.689   7.783  1.4825 -0.7693 -1.7610
  599MOL0     H82609  11.540   2.863   7.828  0.4729 -1.2380 -0.4314
  599MOL0     H82610  11.700   2.930   7.866 -1.6859  1.8547  2.4950
  599MOL0     H82611  11.830   3.041   7.610  1.2751  2.7806 -1.5096
  599MOL0     H82612  11.621   3.204   7.308 -1.0074  1.9280 -0.0396
  599MOL0     H82613  11.750   3.072   7.323  1.1931  1.6381  0.3122
  599MOL0     H82614  11.911   3.218   7.426 -1.7308 -3.2334  1.1758
  599MOL0     H82615  11.829   3.315   7.297 -0.1284  1.7540  0.9321
  599MOL0     H82616  11.676   3.404   7.491  0.2640  1.9973 -1.1658
  599MOL0     H82617  11.817   3.335   7.592 -2.7792  1.3925  1.8130
  599MOL0     H82618  11.818   3.561   7.389  1.8341  0.2336 -0.2193
  599MOL0     H82619  11.853   3.575   7.566  0.0740 -0.8455  1.5686
  599MOL0     H82620  11.983   3.754   7.535 -0.5908 -0.9392 -1.5841
  599MOL0     H82621  12.207   4.003   7.616 -0.0194  0.8373  0.6292
  599MOL0     H82622  12.039   3.964   7.587  1.4469  1.7795  1.3531
  599MOL0     H82623  12.138   4.033   7.459 -0.9193  0.6848  0.1079
  599MOL0     H82624  12.695   3.817   7.182 -2.9612  0.7651  1.1630
  599MOL0     H82625  12.931   3.919   7.184 -4.3089 -1.7358 -1.3628
  599MOL0     H82626  12.985   4.157   7.315  1.3506  1.7164 -1.6987
  599MOL0     H82627  13.053   4.181   7.469 -2.5933  2.1793 -1.5267
  599MOL0     H82628  13.278   4.098   7.333  0.7819  0.3204 -1.5673
  599MOL0     H82629  13.181   4.188   7.204  0.2658  1.4707  0.6957
  599MOL0     H82630  13.261   4.288   7.480  2.7273 -1.2409  0.0235
  599MOL0     H82631  13.197   4.389   7.353 -0.7596 -0.9244  2.2634
  599MOL0     H82632  13.405   4.348   7.221  1.6765  1.6838 -0.2162
  599MOL0     H82633  13.460   4.272   7.375  1.4025  1.8239 -1.1145
  599MOL0     H82634  13.510   4.521   7.313 -0.9855 -1.6339 -3.3721
  599MOL0     H82635  13.344   4.554   7.350  2.3596  2.1197  2.1471
  599MOL0     H82636  13.520   4.417   7.567  0.1610  1.3579  2.7173
  599MOL0     H82637  13.353   4.483   7.579 -1.2668 -0.5506 -2.3436
  599MOL0     H82638  13.451   4.702   7.591 -0.0178 -0.5941  1.9875
  599MOL0     H82639  13.575   4.658   7.465 -1.5055  2.5839  0.5617
  599MOL0     H82640  13.640   4.735   7.695 -1.3209 -0.1813  1.0492
  599MOL0     H82641  13.722   4.585   7.652 -0.2824 -2.1622  0.6446
  599MOL0     H82642  12.914   3.944   7.607 -0.8047  0.5082 -0.0855
  599MOL0     H82643  12.674   3.869   7.599 -0.8246  0.4713 -0.3354
  599MOL0     H82644  12.404   3.582   7.378 -0.8882 -0.7266  0.0418
  599MOL0     H82645  12.228   3.439   7.396 -2.5230 -0.0342 -0.6399
  599MOL0     H82646  11.243   2.953   7.380 -1.1018  0.4338  0.8694
  599MOL0     H82647  11.241   3.181   7.296 -0.5954  1.2153 -2.1449
  599MOL0     H82648  10.959   3.437   6.955 -0.3373  1.2194 -1.9782
  599MOL0     H82649  10.876   3.661   6.863 -2.8684 -0.5016  2.3392
  599MOL0     H82650  10.994   3.837   6.761 -2.9040 -1.6719  1.1288
  599MOL0     H82651  10.853   3.939   6.754  0.9331 -2.0603 -2.3124
  599MOL0     H82652  11.047   4.050   6.668  0.1458  1.2444  0.4606
  599MOL0     H82653  11.124   4.046   6.832 -0.1951  0.7371 -0.0942
  599MOL0     H82654  10.856   4.155   6.829 -0.0944  1.1333  1.8601
  599MOL0     H82655  10.989   4.214   6.929  1.3529  1.1636 -0.3775
  599MOL0     H82656  10.992   4.391   6.794 -1.6014 -0.4341  0.9259
  599MOL0     H82657  10.952   4.304   6.637  3.2424  1.8517 -2.9474
  599MOL0     H82658  11.369   4.261   6.635 -0.7297  0.6545 -3.1157
  599MOL0     H82659  11.117   3.866   7.134  0.9690  0.0984 -0.2361
  599MOL0     H82660  11.304   3.583   7.276  1.6887  1.3053  1.0086
  599MOL0     H82661  11.306   3.755   7.221 -1.2687  0.4864 -1.9114
  599MOL0     H82662  11.199   3.707   7.349  0.8344 -1.0598  1.0869
  600MOL0     O82663   7.803   4.505   7.727  0.1361  0.0691 -0.6818
  600MOL0     C82664   7.754   4.406   7.663 -0.6710 -0.1874 -0.9889
  600MOL0     O82665   7.742   4.279   7.710  0.1155 -0.1301 -0.1184
  600MOL0     C82666   7.814   4.237   7.819 -0.7231 -0.6572  0.3755
  600MOL0     C82667   7.911   4.133   7.802 -0.1854  0.0809 -0.9741
  600MOL0     C82668   7.990   4.087   7.905 -0.1247  0.6282 -0.7827
  600MOL0     C82669   7.954   4.117   8.039  0.1125  0.3816 -0.8947
  600MOL0     O82670   8.031   4.058   8.139 -0.3279  0.4747  0.1597
  600MOL0     C82671   7.973   4.067   8.267 -0.4983 -0.3776 -0.4313
  600MOL0     C82672   8.047   3.985   8.368 -0.2113 -0.5382 -0.0905
  600MOL0     C82673   8.081   3.844   8.328  1.0079 -0.0069  0.0940
  600MOL0     C82674   8.122   3.753   8.436  0.0990  0.0190  1.4991
  600MOL0     C82675   8.140   3.599   8.400  1.0451 -0.5238 -0.5741
  600MOL0     C82676   8.251   3.568   8.297  0.1746  0.1341 -0.6022
  600MOL0     C82677   8.268   3.416   8.267 -0.2669 -0.5030 -0.3577
  600MOL0     C82678   8.279   3.332   8.396 -0.2136  0.1401  0.5561
  600MOL0     N82679   8.369   3.207   8.387  0.2462 -0.0741  0.6779
  600MOL0     C82680   8.354   3.102   8.298  0.9346  1.2765 -0.2456
  600MOL0     C82681   8.477   3.043   8.298  0.4061  0.0711 -0.4028
  600MOL0     C82682   8.521   2.931   8.199  0.6055  1.0480  0.4561
  600MOL0     C82683   8.645   2.850   8.236 -1.5319 -0.0496  0.1557
  600MOL0     C82684   8.627   2.739   8.343 -0.7895  0.6059 -1.0468
  600MOL0     C82685   8.735   2.639   8.320 -0.2398 -0.3114 -0.2420
  600MOL0     O82686   8.761   2.579   8.443 -0.3950  0.1275 -1.0639
  600MOL0     C82687   8.739   2.436   8.455 -0.7297 -0.1595 -0.3330
  600MOL0     C82688   8.807   2.372   8.560  0.8520 -0.4614 -0.4653
  600MOL0     C82689   8.797   2.237   8.591  0.1159  0.1296 -0.4759
  600MOL0     C82690   8.883   2.191   8.704 -0.0822 -0.1856  0.9248
  600MOL0     C82691   8.720   2.154   8.506  1.0218 -0.2036  0.9542
  600MOL0     C82692   8.716   2.001   8.509 -0.0215 -0.5224 -0.2286
  600MOL0     O82693   8.763   1.935   8.630  0.1409 -0.5348  1.6188
  600MOL0     C82694   8.750   1.803   8.651 -0.3648 -0.2572 -0.2731
  600MOL0     C82695   8.623   1.736   8.666 -0.2868  0.0088 -0.3875
  600MOL0     C82696   8.619   1.598   8.686  0.3503  0.2788  0.1768
  600MOL0     C82697   8.740   1.522   8.685  0.1544 -0.3377  0.1809
  600MOL0     O82698   8.751   1.387   8.705  0.1716  0.5375  0.3695
  600MOL0     C82699   8.666   1.324   8.797  0.2778 -0.5585 -0.5927
  600MOL0     C82700   8.722   1.189   8.837 -0.6936 -0.6770  1.0720
  600MOL0     C82701   8.722   1.099   8.715  0.2508  0.3416 -0.3553
  600MOL0     C82702   8.751   0.952   8.751  0.7704 -0.0122 -0.3633
  600MOL0     C82703   8.871   0.882   8.676  1.1751 -0.3947 -0.7510
  600MOL0     C82704   8.827   0.860   8.529  0.0545 -0.7999 -0.1212
  600MOL0     C82705   8.934   0.769   8.467 -0.7452 -0.1289  1.2597
  600MOL0     C82706   8.891   0.752   8.317  0.1169  0.5258  0.7612
  600MOL0    Cl82707   8.980   0.642   8.217  0.0963 -0.4030  0.0709
  600MOL0     C82708   8.861   1.591   8.656 -0.2412  0.6309  0.0234
  600MOL0     C82709   8.861   1.722   8.625  0.3128 -0.4825 -0.1357
  600MOL0     O82710   8.668   1.943   8.412 -1.0925  0.6371 -0.0536
  600MOL0     C82711   8.644   2.225   8.398 -0.0566 -0.6609 -0.0102
  600MOL0     C82712   8.648   2.367   8.383 -0.5307 -0.3185 -0.3257
  600MOL0     N82713   8.554   3.110   8.393  0.6717 -0.5224 -0.1835
  600MOL0     N82714   8.488   3.207   8.450 -0.0655  0.3239 -0.0927
  600MOL0     C82715   7.841   4.196   8.060 -1.1157  0.7436 -0.9530
  600MOL0     C82716   7.782   4.260   7.953 -0.3788  0.3541  0.5011
  600MOL0     C82717   7.690   4.429   7.526 -0.3364  0.4578 -0.1951
  600MOL0     C82718   7.641   4.560   7.496  0.1316 -0.6922  0.2458
  600MOL0     C82719   7.560   4.591   7.381 -0.5333  0.2827 -0.0514
  600MOL0     C82720   7.535   4.484   7.298  0.5878 -0.3020  0.1044
  600MOL0     O82721   7.450   4.521   7.197  0.3613  0.5178  1.1047
  600MOL0     C82722   7.418   4.435   7.089  0.0405  0.1076  0.8838
  600MOL0     C82723   7.488   4.477   6.963 -0.2877  1.5032 -0.0623
  600MOL0     C82724   7.493   4.630   6.934 -0.0011  0.5622 -0.0643
  600MOL0     C82725   7.607   4.700   7.008 -0.6285 -0.0526  0.8662
  600MOL0     C82726   7.590   4.847   7.004  0.5371  0.1672 -0.8911
  600MOL0     C82727   7.573   4.961   7.000 -0.4220 -0.0579 -0.3216
  600MOL0     C82728   7.577   4.352   7.329  0.1261  0.3489  1.1546
  600MOL0     C82729   7.657   4.319   7.433 -0.0142 -0.9693  0.2475
  600MOL0     C82730   7.721   4.190   7.450  0.2526 -0.5392  0.6379
  600MOL0     H82731   7.937   4.095   7.704 -1.3144 -2.2493 -0.4502
  600MOL0     H82732   8.061   4.007   7.889 -3.4388 -2.0445 -4.0295
  600MOL0     H82733   7.868   4.039   8.262 -1.5774  2.7649  1.6536
  600MOL0     H82734   7.985   4.166   8.312  1.2236 -1.0931  0.7705
  600MOL0     H82735   8.141   4.038   8.384  1.2946 -1.5233 -4.3306
  600MOL0     H82736   7.998   3.977   8.466  1.2451  1.0539  0.8343
  600MOL0     H82737   7.986   3.805   8.289 -0.6840  4.8869 -1.3321
  600MOL0     H82738   8.152   3.842   8.244 -2.1972 -0.6763 -2.8488
  600MOL0     H82739   8.213   3.771   8.494  0.7050  1.7005  0.1151
  600MOL0     H82740   8.052   3.764   8.520  3.1319  1.8473  3.9883
  600MOL0     H82741   8.043   3.573   8.357  0.1656  0.3566  0.8056
  600MOL0     H82742   8.156   3.551   8.497 -2.7208  1.3508  1.1713
  600MOL0     H82743   8.245   3.615   8.199  0.6954 -0.5086 -0.9578
  600MOL0     H82744   8.342   3.608   8.343  0.9974 -2.0299 -0.2141
  600MOL0     H82745   8.360   3.400   8.210 -0.1307 -0.6062 -0.1108
  600MOL0     H82746   8.187   3.387   8.199 -1.5143  0.0751  0.8231
  600MOL0     H82747   8.328   3.395   8.472 -0.9708 -3.0129  3.9850
  600MOL0     H82748   8.177   3.311   8.429  0.0494 -0.7414  0.8355
  600MOL0     H82749   8.264   3.084   8.241  0.4703 -0.0354  0.8561
  600MOL0     H82750   8.538   2.958   8.094  0.2885 -1.6854 -0.3838
  600MOL0     H82751   8.434   2.865   8.189  0.3461  1.6380 -2.1541
  600MOL0     H82752   8.685   2.808   8.143  1.4579  2.7023  0.0281
  600MOL0     H82753   8.715   2.925   8.275 -3.0177  1.7408 -0.4572
  600MOL0     H82754   8.628   2.794   8.438 -2.0009 -1.0953 -0.0084
  600MOL0     H82755   8.527   2.699   8.325 -0.4152 -1.0047  0.2404
  600MOL0     H82756   8.721   2.572   8.235  0.5925 -1.6285  0.6245
  600MOL0     H82757   8.824   2.694   8.290 -0.7467  0.3830 -0.5143
  600MOL0     H82758   8.880   2.423   8.621  0.0971  3.1229 -2.3128
  600MOL0     H82759   8.919   2.272   8.769 -1.3005 -0.5384  2.0979
  600MOL0     H82760   8.963   2.127   8.665  1.9211  1.5533  2.0159
  600MOL0     H82761   8.818   2.136   8.773 -2.4453  1.8486  0.4807
  600MOL0     H82762   8.537   1.802   8.656  0.2725  0.6167 -1.3797
  600MOL0     H82763   8.531   1.542   8.715  0.1655 -0.5476 -1.8818
  600MOL0     H82764   8.652   1.390   8.883  1.6014  0.2531 -0.9799
  600MOL0     H82765   8.565   1.316   8.753  0.2125 -0.5317 -0.4457
  600MOL0     H82766   8.823   1.206   8.875 -0.8328  2.2774  0.3651
  600MOL0     H82767   8.668   1.131   8.913  0.0802  0.0088  2.1682
  600MOL0     H82768   8.801   1.135   8.649 -0.5424  0.8012 -1.0658
  600MOL0     H82769   8.628   1.110   8.659 -0.0002  0.3157  0.0571
  600MOL0     H82770   8.659   0.895   8.735 -0.9275  1.6943  2.5193
  600MOL0     H82771   8.767   0.925   8.856  0.3961 -3.3764 -1.0676
  600MOL0     H82772   8.963   0.937   8.697  0.9605  1.6392 -4.4267
  600MOL0     H82773   8.891   0.784   8.721  2.8511  0.5522  0.7076
  600MOL0     H82774   8.814   0.955   8.477 -3.2982 -2.6812 -3.1899
  600MOL0     H82775   8.730   0.809   8.533  0.3040 -1.1967  2.8076
  600MOL0     H82776   8.931   0.668   8.508 -1.3052  0.0785  1.7470
  600MOL0     H82777   9.035   0.807   8.485 -0.5955 -1.2496  2.9196
  600MOL0     H82778   8.879   0.853   8.276 -2.5299  0.2353  0.5969
  600MOL0     H82779   8.785   0.724   8.319 -0.0171  0.9896  0.5104
  600MOL0     H82780   8.953   1.535   8.671 -0.7815 -0.3907 -0.3511
  600MOL0     H82781   8.961   1.762   8.612  0.0653 -0.4702 -2.4477
  600MOL0     H82782   8.586   2.173   8.322 -1.3846  2.4988 -1.3511
  600MOL0     H82783   8.583   2.405   8.304 -1.1179 -1.7332 -0.5722
  600MOL0     H82784   7.800   4.208   8.160  1.2164 -2.4468  0.5418
  600MOL0     H82785   7.708   4.328   7.994 -1.6539 -0.3562 -0.5615
  600MOL0     H82786   7.657   4.641   7.567 -0.7136 -0.7865  0.5502
  600MOL0     H82787   7.524   4.691   7.360  2.2390  1.5111  0.6523
  600MOL0     H82788   7.451   4.333   7.110  2.6832  0.4885 -0.9267
  600MOL0     H82789   7.310   4.439   7.072 -0.2841  2.6997  2.8526
  600MOL0     H82790   7.444   4.425   6.878  2.8888 -0.8102 -0.4814
  600MOL0     H82791   7.589   4.435   6.970 -0.2866  1.6161  0.8094
  600MOL0     H82792   7.493   4.659   6.828  0.1506  1.5864  0.2119
  600MOL0     H82793   7.394   4.671   6.958 -0.2018 -0.6732  1.3223
  600MOL0     H82794   7.699   4.680   6.951 -1.1738  0.7701 -0.3484
  600MOL0     H82795   7.620   4.669   7.112  2.1636 -0.7786  0.3876
  600MOL0     H82796   7.553   5.066   6.985 -0.4961  0.0270  0.3352
  600MOL0     H82797   7.568   4.279   7.249  0.1104  0.6552  0.8720
  600MOL0     H82798   7.719   4.139   7.353 -0.2748  1.3446 -0.4133
  600MOL0     H82799   7.822   4.196   7.491  0.0086 -0.7564  1.2853
  600MOL0     H82800   7.666   4.132   7.524 -1.8251  2.1990  1.4459
  601MOL0     O82801   5.208   5.435   8.449 -0.0855 -0.5501 -0.3376
  601MOL0     C82802   5.130   5.432   8.537 -0.6290 -0.2571  0.2674
  601MOL0     O82803   5.152   5.376   8.657 -0.5860  0.5441  0.1903
  601MOL0     C82804   5.283   5.371   8.699 -0.0226 -0.4548 -0.0416
  601MOL0     C82805   5.387   5.459   8.666 -0.5817 -0.2445  0.4512
  601MOL0     C82806   5.516   5.432   8.712 -0.0238  1.3104 -0.3717
  601MOL0     C82807   5.537   5.327   8.802 -0.3179 -0.8266 -0.1700
  601MOL0     O82808   5.659   5.310   8.860  0.4739 -0.4155 -0.1244
  601MOL0     C82809   5.705   5.176   8.878 -0.5407  0.5166  0.5087
  601MOL0     C82810   5.853   5.164   8.914  0.4580  0.2403 -0.4898
  601MOL0     C82811   5.956   5.203   8.807 -0.0650 -0.2325  0.1753
  601MOL0     C82812   6.077   5.293   8.854  0.5030  0.0498  0.2506
  601MOL0     C82813   6.182   5.279   8.751 -0.3921  0.1760  0.0559
  601MOL0     C82814   6.319   5.351   8.802  0.5925 -0.1139  0.0545
  601MOL0     C82815   6.285   5.506   8.824 -0.6345 -0.3147 -0.1943
  601MOL0     C82816   6.414   5.594   8.819  0.5448  0.7675  0.3630
  601MOL0     N82817   6.513   5.544   8.913  0.5388  0.4115  0.1063
  601MOL0     C82818   6.530   5.608   9.029 -0.4846 -0.6209  0.2694
  601MOL0     C82819   6.647   5.571   9.080  0.5229  0.2678 -0.2289
  601MOL0     C82820   6.702   5.618   9.216 -0.2430  0.0554 -0.3485
  601MOL0     C82821   6.689   5.771   9.246 -0.4321  0.1756 -0.2840
  601MOL0     C82822   6.817   5.849   9.215 -1.0623  0.5587  1.3307
  601MOL0     C82823   6.883   5.824   9.071 -0.3626 -0.5007  0.2632
  601MOL0     O82824   6.775   5.859   8.981  0.0432  0.2881  0.5608
  601MOL0     C82825   6.800   5.844   8.844 -0.7961 -0.0919 -0.9235
  601MOL0     C82826   6.931   5.863   8.794 -0.4307  0.2127  0.3574
  601MOL0     C82827   6.955   5.851   8.651  0.1424 -1.0259 -1.4580
  601MOL0     C82828   7.095   5.873   8.603 -0.4315 -0.2491  0.3260
  601MOL0     C82829   6.849   5.811   8.570  0.4636  0.4530 -0.4159
  601MOL0     C82830   6.862   5.780   8.423 -0.3673 -0.4777  0.2250
  601MOL0     O82831   6.776   5.691   8.372  0.5458  0.6919  0.3057
  601MOL0     C82832   6.800   5.633   8.245  0.0236 -0.3305 -0.7384
  601MOL0     C82833   6.921   5.633   8.169  0.2500  0.6841 -0.7942
  601MOL0     C82834   6.925   5.578   8.044 -0.4378  0.2118 -0.9768
  601MOL0     C82835   6.813   5.534   7.978 -0.2058 -0.1292 -0.7551
  601MOL0     O82836   6.830   5.477   7.846  0.7697  0.3073  0.2374
  601MOL0     C82837   6.746   5.379   7.785  0.5586  0.6365  0.4941
  601MOL0     C82838   6.806   5.310   7.653  0.1899  0.4453 -0.2679
  601MOL0     C82839   6.914   5.211   7.709  0.2786 -0.7802 -0.4929
  601MOL0     C82840   7.008   5.133   7.611  0.1028  0.6709  0.4526
  601MOL0     C82841   6.921   5.047   7.514  0.0163 -0.9096  0.8301
  601MOL0     C82842   6.863   4.919   7.577  0.1959 -0.4069 -0.9120
  601MOL0     C82843   6.769   4.840   7.476 -0.3491  0.7103 -0.4678
  601MOL0     C82844   6.702   4.722   7.544  0.4838 -0.1670  0.5406
  601MOL0    Cl82845   6.561   4.661   7.445  0.0363 -0.4461  0.4541
  601MOL0     C82846   6.689   5.538   8.050 -0.2424 -0.3863 -0.3355
  601MOL0     C82847   6.686   5.584   8.180  0.1935 -0.7203 -0.3981
  601MOL0     O82848   6.943   5.845   8.363 -0.3182  0.1192 -0.2827
  601MOL0     C82849   6.718   5.795   8.625  0.4878  0.3066 -0.1073
  601MOL0     C82850   6.693   5.814   8.763 -0.3448  0.3368  0.8056
  601MOL0     N82851   6.723   5.508   8.978  0.7427 -0.1017  0.1000
  601MOL0     N82852   6.634   5.486   8.879 -0.1929 -0.3312 -0.5484
  601MOL0     C82853   5.429   5.261   8.854 -0.0118  0.7357  0.4617
  601MOL0     C82854   5.303   5.277   8.801 -0.2428  0.6636  0.2390
  601MOL0     C82855   4.991   5.471   8.503  0.2840  0.5265 -0.9578
  601MOL0     C82856   4.930   5.413   8.390 -0.6326 -0.7126 -0.1046
  601MOL0     C82857   4.802   5.444   8.356  0.3764 -0.2935  0.5158
  601MOL0     C82858   4.723   5.521   8.428 -0.0611 -0.8052  0.0267
  601MOL0     O82859   4.599   5.550   8.382  0.7477  0.6844 -0.6206
  601MOL0     C82860   4.488   5.534   8.473 -0.7078  0.2319  0.3674
  601MOL0     C82861   4.365   5.512   8.386 -1.0063 -0.0451 -0.3426
  601MOL0     C82862   4.307   5.640   8.338  0.0257  0.4320 -0.7341
  601MOL0     C82863   4.378   5.712   8.219 -0.2969  0.0378 -0.0818
  601MOL0     C82864   4.340   5.656   8.092 -0.0623  0.6232 -0.0084
  601MOL0     C82865   4.327   5.596   7.982  0.6988 -0.2339 -1.0521
  601MOL0     C82866   4.772   5.576   8.546 -0.4049 -0.4330 -0.6628
  601MOL0     C82867   4.908   5.562   8.576 -0.0844 -0.1527  0.3565
  601MOL0     C82868   4.961   5.634   8.693 -0.3163 -0.0590 -0.2592
  601MOL0     H82869   5.370   5.543   8.600  1.9012  0.8431  1.0563
  601MOL0     H82870   5.603   5.487   8.676  0.4330 -0.1302 -1.5614
  601MOL0     H82871   5.681   5.130   8.781 -1.0078  1.7293  0.0347
  601MOL0     H82872   5.645   5.122   8.952 -0.6195 -1.0303 -0.6269
  601MOL0     H82873   5.867   5.234   8.998 -3.0424  1.1479 -0.4904
  601MOL0     H82874   5.875   5.062   8.946 -0.1613  0.3062  0.1960
  601MOL0     H82875   5.997   5.111   8.764 -1.4275 -1.2986  1.0858
  601MOL0     H82876   5.904   5.251   8.724  1.5421 -2.4557 -2.2936
  601MOL0     H82877   6.042   5.396   8.864  1.0306  0.1719  0.9659
  601MOL0     H82878   6.113   5.267   8.954 -0.6575 -0.2972  0.5899
  601MOL0     H82879   6.152   5.311   8.651  3.7807 -0.2728 -1.5276
  601MOL0     H82880   6.212   5.174   8.740 -0.0329  0.3071 -0.2258
  601MOL0     H82881   6.369   5.313   8.891  0.6612 -2.8723 -1.0588
  601MOL0     H82882   6.394   5.339   8.723  2.5996  0.1315  1.8522
  601MOL0     H82883   6.247   5.533   8.923  0.1178  0.5256 -0.1158
  601MOL0     H82884   6.209   5.538   8.752 -0.5443  2.2058  0.7352
  601MOL0     H82885   6.464   5.589   8.722  1.1941 -1.6330  0.7667
  601MOL0     H82886   6.383   5.696   8.842 -0.0444  0.7423 -0.2751
  601MOL0     H82887   6.463   5.678   9.077 -0.8797  0.6075 -1.9247
  601MOL0     H82888   6.808   5.594   9.214 -0.6723 -2.1078 -0.0875
  601MOL0     H82889   6.656   5.559   9.296  1.0460 -1.4495 -0.6653
  601MOL0     H82890   6.608   5.812   9.185  0.9803  0.5543 -1.9770
  601MOL0     H82891   6.663   5.778   9.353 -0.8579 -0.7547 -0.3106
  601MOL0     H82892   6.799   5.955   9.233 -1.5281  1.0340 -1.5037
  601MOL0     H82893   6.901   5.823   9.281 -0.6240 -1.9384 -0.0489
  601MOL0     H82894   6.977   5.880   9.077 -0.0983 -1.0447  4.2651
  601MOL0     H82895   6.911   5.718   9.064  3.2498  0.3319 -0.2835
  601MOL0     H82896   7.014   5.877   8.862  0.3833  1.2241 -0.7867
  601MOL0     H82897   7.128   5.820   8.513  0.4693 -2.1608  1.7086
  601MOL0     H82898   7.168   5.846   8.680  1.3841 -0.2769 -1.3343
  601MOL0     H82899   7.116   5.978   8.583  0.0413 -0.2762  0.6750
  601MOL0     H82900   7.016   5.665   8.209  0.4953  1.6197 -2.0648
  601MOL0     H82901   7.022   5.570   7.995 -0.2914  0.2137 -0.6860
  601MOL0     H82902   6.730   5.307   7.866  3.6329  1.4096  1.8967
  601MOL0     H82903   6.645   5.413   7.758  0.1957  2.4474  3.6753
  601MOL0     H82904   6.727   5.250   7.607 -0.4303  0.4861  0.7059
  601MOL0     H82905   6.852   5.381   7.585 -2.3151  1.9317 -0.5545
  601MOL0     H82906   6.855   5.141   7.768  3.4271 -1.7711  1.7477
  601MOL0     H82907   6.985   5.259   7.777 -0.2898 -0.0959 -0.3711
  601MOL0     H82908   7.075   5.066   7.665 -1.9349 -0.6036  1.5039
  601MOL0     H82909   7.069   5.203   7.553  0.9034  0.5083  1.0864
  601MOL0     H82910   6.844   5.112   7.473  2.0778  0.2366 -1.4761
  601MOL0     H82911   6.992   5.018   7.435 -1.2552  3.4233 -2.2471
  601MOL0     H82912   6.810   4.947   7.668 -1.4962 -3.1648 -0.9164
  601MOL0     H82913   6.944   4.848   7.598  0.4035  0.0660 -0.0790
  601MOL0     H82914   6.826   4.805   7.389 -1.0870  0.1772 -0.7441
  601MOL0     H82915   6.695   4.914   7.444 -0.9619 -0.5744 -2.1890
  601MOL0     H82916   6.675   4.760   7.643 -0.0789  1.8568 -0.3268
  601MOL0     H82917   6.773   4.639   7.555 -1.6886 -1.9312  2.1704
  601MOL0     H82918   6.607   5.494   7.994  1.2111 -1.1554 -1.9391
  601MOL0     H82919   6.592   5.593   8.233  0.8655  2.5469  0.4807
  601MOL0     H82920   6.644   5.776   8.549 -1.1930  2.1721  0.9364
  601MOL0     H82921   6.595   5.824   8.809 -0.9227 -2.1141  0.2536
  601MOL0     H82922   5.449   5.192   8.936 -0.7805 -0.5446 -0.3842
  601MOL0     H82923   5.215   5.224   8.836 -0.7621  2.6445  2.1626
  601MOL0     H82924   4.990   5.335   8.344 -0.1161 -0.0217 -0.6267
  601MOL0     H82925   4.741   5.396   8.280 -0.9538  0.2205  1.2181
  601MOL0     H82926   4.513   5.463   8.552 -0.1982  1.7457  1.6374
  601MOL0     H82927   4.477   5.625   8.533 -0.0526 -0.0064  0.8503
  601MOL0     H82928   4.307   5.460   8.462  1.4254  0.0518  1.6947
  601MOL0     H82929   4.388   5.447   8.301  4.3418  1.2885 -0.2658
  601MOL0     H82930   4.206   5.610   8.309 -0.3439  0.7736  0.1785
  601MOL0     H82931   4.301   5.704   8.426 -0.8629 -0.3467 -0.2134
  601MOL0     H82932   4.487   5.705   8.232  0.1592  3.5878 -0.8581
  601MOL0     H82933   4.357   5.819   8.217  2.7721  0.7421  0.2523
  601MOL0     H82934   4.298   5.547   7.891  0.3836 -1.6391 -0.2248
  601MOL0     H82935   4.721   5.657   8.597 -1.2896 -1.2588 -0.2094
  601MOL0     H82936   5.034   5.567   8.739 -2.1054 -0.6922  1.8352
  601MOL0     H82937   5.002   5.733   8.671 -1.7289  0.7367  0.5071
  601MOL0     H82938   4.878   5.657   8.761 -0.6741  0.8186 -0.9600
  602MOL0     O82939   9.648   6.093  11.210  0.3483 -0.1259 -0.2836
  602MOL0     C82940   9.549   6.022  11.208 -0.1034 -0.6477  0.4189
  602MOL0     O82941   9.504   5.948  11.318 -0.3871 -0.3280  0.2020
  602MOL0     C82942   9.591   5.937  11.419  0.0628  0.8288 -0.2488
  602MOL0     C82943   9.584   6.023  11.523  0.0518 -0.1157 -0.3959
  602MOL0     C82944   9.666   6.011  11.636  1.2193  0.2435  0.4497
  602MOL0     C82945   9.759   5.909  11.642  0.6420  0.1897  0.0692
  602MOL0     O82946   9.836   5.882  11.746  0.0830  1.1023 -0.8394
  602MOL0     C82947   9.804   5.930  11.879  0.4183 -0.2190 -0.0710
  602MOL0     C82948   9.916   5.877  11.984  1.0883  0.3451  0.2937
  602MOL0     C82949   9.883   5.938  12.122  0.0205  0.3483  0.7861
  602MOL0     C82950   9.996   5.906  12.216  0.1862 -0.1188 -0.4503
  602MOL0     C82951   9.973   5.985  12.345 -0.2711 -0.2769  0.3651
  602MOL0     C82952  10.076   5.949  12.448 -0.4457  0.1211  0.3083
  602MOL0     C82953  10.104   6.045  12.558  0.1655 -0.2311 -0.5827
  602MOL0     C82954   9.978   6.122  12.613 -0.3199  0.6592 -1.0169
  602MOL0     N82955  10.007   6.173  12.751  0.1671  0.0373  0.2768
  602MOL0     C82956  10.111   6.255  12.778  0.8898  0.1533  0.1986
  602MOL0     C82957  10.123   6.246  12.912 -0.6230  0.3545 -0.5246
  602MOL0     C82958  10.230   6.305  13.010 -0.1937  0.4403  0.5767
  602MOL0     C82959  10.200   6.306  13.154  0.5712 -0.1227 -0.4951
  602MOL0     C82960  10.111   6.427  13.206  0.7613  0.2921 -0.5824
  602MOL0     C82961   9.991   6.461  13.123 -0.6581 -0.0174  0.5453
  602MOL0     O82962   9.922   6.587  13.171  0.1151 -0.0178 -0.1790
  602MOL0     C82963   9.826   6.636  13.087 -0.5185 -0.4147  1.2064
  602MOL0     C82964   9.783   6.592  12.960 -0.4307  0.4790 -0.2039
  602MOL0     C82965   9.677   6.644  12.882 -0.1625 -0.0043  0.2883
  602MOL0     C82966   9.658   6.582  12.744 -0.2498 -0.2775  0.1559
  602MOL0     C82967   9.611   6.751  12.940 -0.0831 -0.5702  0.4591
  602MOL0     C82968   9.503   6.820  12.875 -0.3164 -0.0068 -0.7955
  602MOL0     O82969   9.430   6.907  12.950 -0.0791 -0.5609 -0.1926
  602MOL0     C82970   9.306   6.944  12.889 -0.1942 -0.1976  0.1740
  602MOL0     C82971   9.194   6.849  12.863  0.5133  0.2463 -0.3868
  602MOL0     C82972   9.062   6.886  12.833 -0.0210  0.0450 -0.0781
  602MOL0     C82973   9.050   7.024  12.816  0.7147  0.5223  0.8202
  602MOL0     O82974   8.926   7.081  12.793 -0.3732 -0.1325  0.5117
  602MOL0     C82975   8.803   7.003  12.802  0.4703  0.5684  0.7996
  602MOL0     C82976   8.683   7.089  12.774  0.2192 -0.2639  0.1570
  602MOL0     C82977   8.695   7.147  12.628  0.1526  1.1122  0.9475
  602MOL0     C82978   8.556   7.173  12.567 -0.1255  0.1347 -1.3599
  602MOL0     C82979   8.533   7.186  12.409  0.3541 -0.5789  0.4180
  602MOL0     C82980   8.384   7.180  12.368  1.4246  0.2761  0.8425
  602MOL0     C82981   8.362   7.213  12.220 -0.9191 -0.1940 -0.1208
  602MOL0     C82982   8.224   7.165  12.175 -0.3265 -0.5050  0.1388
  602MOL0    Cl82983   8.112   7.266  12.256 -0.2616  0.1163  0.0321
  602MOL0     C82984   9.150   7.114  12.825 -0.0363 -0.2999  1.2679
  602MOL0     C82985   9.275   7.078  12.863 -0.4423  0.0270  0.7021
  602MOL0     O82986   9.473   6.796  12.752  0.3943 -0.1567  0.3596
  602MOL0     C82987   9.660   6.807  13.061  0.6070  0.1085 -0.6362
  602MOL0     C82988   9.756   6.745  13.136 -0.0664  0.1478  0.7770
  602MOL0     N82989  10.023   6.152  12.959  0.8054  0.2534  0.4234
  602MOL0     N82990   9.955   6.113  12.857  0.8034  0.6422 -0.3878
  602MOL0     C82991   9.756   5.813  11.537 -0.4353 -0.9031 -0.0373
  602MOL0     C82992   9.669   5.826  11.429 -0.8897 -0.4475 -1.2004
  602MOL0     C82993   9.469   6.010  11.080  0.1759 -0.1026 -0.0600
  602MOL0     C82994   9.407   5.886  11.057  0.0700  0.3993  0.0003
  602MOL0     C82995   9.322   5.858  10.947 -0.2374 -0.2585  0.0662
  602MOL0     C82996   9.308   5.960  10.851 -0.2985 -0.2260  0.1118
  602MOL0     O82997   9.241   5.945  10.733 -0.1045 -0.0346  0.3795
  602MOL0     C82998   9.173   5.820  10.702 -0.3699  0.2759  0.8274
  602MOL0     C82999   9.044   5.800  10.776  0.2561 -0.0149 -0.8902
  602MOL0     C83000   8.945   5.909  10.736  0.0605 -1.2238  0.3347
  602MOL0     C83001   8.804   5.893  10.794 -0.3631 -0.6472  0.1021
  602MOL0     C83002   8.750   5.765  10.759 -0.8553  0.3521  0.3742
  602MOL0     C83003   8.701   5.651  10.767 -1.3306  0.5720 -0.3259
  602MOL0     C83004   9.373   6.085  10.869 -0.4096  0.0825  0.0840
  602MOL0     C83005   9.446   6.107  10.981  0.2980 -0.2314  0.6246
  602MOL0     C83006   9.523   6.234  10.999 -0.7398 -0.8902 -0.1084
  602MOL0     H83007   9.511   6.104  11.521 -0.3007 -0.3334  1.6694
  602MOL0     H83008   9.666   6.085  11.715 -0.2316 -1.8902  2.5678
  602MOL0     H83009   9.712   5.884  11.917 -0.3233  2.3481  1.4690
  602MOL0     H83010   9.782   6.037  11.881  0.3514 -0.2493  1.1087
  602MOL0     H83011   9.931   5.769  11.980  2.3938  0.5290 -0.9430
  602MOL0     H83012  10.002   5.936  11.950  0.5023  0.3910 -1.1878
  602MOL0     H83013   9.883   6.047  12.116 -0.0743  0.3743  1.2374
  602MOL0     H83014   9.789   5.895  12.158 -0.5688  1.1917  0.3034
  602MOL0     H83015   9.997   5.799  12.236  0.8997  0.2086  1.5443
  602MOL0     H83016  10.084   5.946  12.164 -1.3906  0.8317 -2.4750
  602MOL0     H83017   9.877   5.975  12.396  0.3911  0.8488  1.9188
  602MOL0     H83018   9.985   6.090  12.317  0.8793 -0.6141 -0.4655
  602MOL0     H83019  10.056   5.849  12.486  2.5509 -0.2346  1.2423
  602MOL0     H83020  10.172   5.946  12.394 -1.2437  1.3651 -1.2653
  602MOL0     H83021  10.177   6.118  12.523 -1.3100  0.6744 -1.8704
  602MOL0     H83022  10.145   5.989  12.643 -1.1887  4.0112  3.2622
  602MOL0     H83023   9.963   6.208  12.548 -1.5171  1.3549  0.1238
  602MOL0     H83024   9.887   6.061  12.607 -2.4486  3.7372 -2.2313
  602MOL0     H83025  10.170   6.315  12.710  0.5607 -0.9275 -1.0845
  602MOL0     H83026  10.250   6.409  12.980  4.6007 -0.4264 -0.0165
  602MOL0     H83027  10.326   6.254  12.999 -1.9310 -2.7806 -1.1254
  602MOL0     H83028  10.134   6.223  13.183 -1.3482  2.3403  2.9718
  602MOL0     H83029  10.289   6.307  13.218 -0.7335  2.6999  1.4966
  602MOL0     H83030  10.094   6.398  13.310 -0.4546 -1.2062 -1.1614
  602MOL0     H83031  10.178   6.514  13.200  1.7577 -0.4773 -0.8851
  602MOL0     H83032  10.042   6.475  13.028  0.4045 -2.2942  0.7154
  602MOL0     H83033   9.930   6.371  13.106  2.4982 -2.1005 -0.6674
  602MOL0     H83034   9.847   6.511  12.927  2.3061  2.0963  0.8318
  602MOL0     H83035   9.563   6.527  12.742 -2.5735  3.3800 -1.8993
  602MOL0     H83036   9.743   6.516  12.724  0.1623  0.1626  0.4280
  602MOL0     H83037   9.656   6.666  12.674  0.7747 -0.6094 -0.2822
  602MOL0     H83038   9.225   6.746  12.878  0.8837  0.6150  1.5647
  602MOL0     H83039   8.978   6.818  12.822 -0.9022  0.6771  2.1761
  602MOL0     H83040   8.798   6.914  12.739  4.4961 -0.4839  1.7107
  602MOL0     H83041   8.796   6.977  12.908  3.2327  0.7219  1.0923
  602MOL0     H83042   8.594   7.029  12.798  1.6870 -1.9166  1.8009
  602MOL0     H83043   8.687   7.177  12.839 -0.0229  1.0063 -1.4916
  602MOL0     H83044   8.741   7.069  12.567  0.6916  3.5197 -1.9585
  602MOL0     H83045   8.750   7.240  12.619  0.2367  0.8956 -1.1550
  602MOL0     H83046   8.536   7.270  12.615  1.5124 -0.2119  0.1000
  602MOL0     H83047   8.481   7.109  12.614  1.3070  0.5983  1.7961
  602MOL0     H83048   8.571   7.275  12.358 -1.1078 -1.0899 -1.7207
  602MOL0     H83049   8.589   7.105  12.361  3.1663  1.9189 -0.9030
  602MOL0     H83050   8.336   7.268  12.411  1.4510  1.3344 -1.1692
  602MOL0     H83051   8.329   7.094  12.406 -0.4692  1.8301  1.7951
  602MOL0     H83052   8.444   7.170  12.161  1.3115  2.6474  0.7026
  602MOL0     H83053   8.364   7.321  12.205 -2.9876 -0.1484 -0.4560
  602MOL0     H83054   8.206   7.066  12.216 -2.0315  0.5371  2.0925
  602MOL0     H83055   8.209   7.164  12.067  0.3148  2.4365 -0.0722
  602MOL0     H83056   9.119   7.218  12.821  2.0024  0.3740  1.7417
  602MOL0     H83057   9.352   7.151  12.886 -0.7663  1.9349 -3.2930
  602MOL0     H83058   9.606   6.889  13.107  2.0092 -0.1618  1.6629
  602MOL0     H83059   9.785   6.804  13.222 -0.2543 -2.7248  2.9641
  602MOL0     H83060   9.822   5.727  11.530  4.0704  2.1298  1.0358
  602MOL0     H83061   9.657   5.750  11.353 -0.2685 -0.5227 -1.2300
  602MOL0     H83062   9.422   5.808  11.131 -0.3534  0.3260  0.0111
  602MOL0     H83063   9.282   5.759  10.926 -2.8921  1.2953 -3.0290
  602MOL0     H83064   9.168   5.804  10.594 -0.8217 -0.2381  0.9222
  602MOL0     H83065   9.240   5.737  10.728 -0.2951 -0.3373 -1.1790
  602MOL0     H83066   9.064   5.803  10.883  2.4417  2.6913 -1.2631
  602MOL0     H83067   8.998   5.702  10.758 -2.4277  0.5950  1.8588
  602MOL0     H83068   8.983   6.006  10.770  0.5300 -1.2495 -0.1197
  602MOL0     H83069   8.931   5.909  10.628 -2.5287 -5.6887  0.4240
  602MOL0     H83070   8.747   5.977  10.753 -0.1738 -1.6120 -2.3113
  602MOL0     H83071   8.808   5.902  10.903 -0.5981 -2.4979  0.3083
  602MOL0     H83072   8.644   5.561  10.778 -0.1288 -0.1868 -0.2256
  602MOL0     H83073   9.353   6.168  10.802  2.9902 -0.7774 -2.2772
  602MOL0     H83074   9.631   6.220  11.001  0.0353  3.5322  0.0001
  602MOL0     H83075   9.498   6.303  10.917  0.5999  3.1927  2.5823
  602MOL0     H83076   9.488   6.286  11.089  3.4149  0.2827  1.0368
  603MOL0     O83077   3.259   6.264   6.475 -0.2762 -0.9050 -0.1338
  603MOL0     C83078   3.286   6.271   6.594 -0.5421  0.2608 -0.2916
  603MOL0     O83079   3.201   6.242   6.694  0.3028  0.1528 -0.0553
  603MOL0     C83080   3.071   6.203   6.659  0.1608 -0.0990 -1.4976
  603MOL0     C83081   3.018   6.073   6.665 -0.2880 -0.2436 -0.1426
  603MOL0     C83082   2.880   6.050   6.636 -0.3592 -0.2242 -0.4235
  603MOL0     C83083   2.793   6.154   6.613 -0.6957 -0.9256 -0.7544
  603MOL0     O83084   2.656   6.141   6.603  0.0955 -0.0752  0.1562
  603MOL0     C83085   2.612   6.058   6.499 -0.2531  0.1960  0.0383
  603MOL0     C83086   2.647   6.116   6.356 -0.3466 -1.0731  0.2476
  603MOL0     C83087   2.568   6.235   6.316  0.7138  0.6862  0.5413
  603MOL0     C83088   2.569   6.263   6.160  0.2098  0.6167 -0.3066
  603MOL0     C83089   2.695   6.224   6.083 -0.1238 -0.6689 -0.0827
  603MOL0     C83090   2.810   6.325   6.123  0.0845  1.0216  0.3999
  603MOL0     C83091   2.943   6.271   6.062  0.3897  0.6860 -0.1245
  603MOL0     C83092   3.066   6.370   6.088 -0.1478  0.2905  0.3103
  603MOL0     N83093   3.188   6.334   6.018 -0.5910  0.9829 -0.0685
  603MOL0     C83094   3.291   6.256   6.074 -0.1273  0.3688 -0.0555
  603MOL0     C83095   3.368   6.232   5.967  0.7951 -0.5873  0.3169
  603MOL0     C83096   3.489   6.142   5.965  0.1861 -0.1564  0.4711
  603MOL0     C83097   3.609   6.219   5.909 -0.4777 -1.1513  0.8759
  603MOL0     C83098   3.738   6.151   5.925  0.2182 -0.1119  0.3674
  603MOL0     C83099   3.854   6.237   5.893 -0.5234  0.0114  0.6678
  603MOL0     O83100   3.985   6.161   5.919 -0.1245 -0.4682 -0.3283
  603MOL0     C83101   4.020   6.152   6.057 -0.0321 -0.4174  0.1707
  603MOL0     C83102   4.107   6.054   6.087 -0.1446  0.0095 -0.5578
  603MOL0     C83103   4.155   6.040   6.219 -0.2497  0.7709  0.7799
  603MOL0     C83104   4.280   5.951   6.225  0.5668  0.2463  0.0145
  603MOL0     C83105   4.096   6.115   6.321 -0.8316 -0.7261 -1.1957
  603MOL0     C83106   4.157   6.106   6.455 -0.2456  0.3151 -0.5044
  603MOL0     O83107   4.185   5.984   6.510 -0.5151 -0.2649  0.0379
  603MOL0     C83108   4.233   5.977   6.636  0.4677  0.7294 -0.0877
  603MOL0     C83109   4.349   5.900   6.657  0.2472 -0.4357  0.6865
  603MOL0     C83110   4.384   5.879   6.795 -0.7079 -0.2962 -0.3258
  603MOL0     C83111   4.322   5.949   6.898 -0.2661 -0.8515  0.3534
  603MOL0     O83112   4.355   5.942   7.026  0.2093  0.0324  0.2379
  603MOL0     C83113   4.488   5.909   7.055  0.5482  0.2642 -0.1497
  603MOL0     C83114   4.535   5.921   7.203 -0.5996  0.9685 -0.0086
  603MOL0     C83115   4.492   6.055   7.261  0.0883  0.0876 -0.7811
  603MOL0     C83116   4.567   6.083   7.396 -0.4035  0.5813  0.4653
  603MOL0     C83117   4.514   6.214   7.449  0.0498  0.3639 -0.1597
  603MOL0     C83118   4.592   6.268   7.574 -0.1529 -0.3195  0.1478
  603MOL0     C83119   4.566   6.414   7.608 -0.6383  0.6670 -0.2563
  603MOL0     C83120   4.661   6.458   7.719 -0.1649  0.6869 -0.1503
  603MOL0    Cl83121   4.655   6.635   7.741 -0.0664 -0.0942  0.1364
  603MOL0     C83122   4.202   6.009   6.867  0.0499 -0.4756  0.4095
  603MOL0     C83123   4.154   6.019   6.738 -0.9984 -0.4031 -0.2655
  603MOL0     O83124   4.170   6.216   6.510 -0.0965  0.0799  0.1520
  603MOL0     C83125   3.993   6.209   6.292  0.0235  0.0040 -0.7183
  603MOL0     C83126   3.955   6.220   6.161 -0.2892 -0.1843 -0.1387
  603MOL0     N83127   3.336   6.319   5.859  0.2881  0.0106 -0.2662
  603MOL0     N83128   3.231   6.375   5.897 -1.1388 -0.3502 -0.3999
  603MOL0     C83129   2.848   6.283   6.610 -0.4355  1.1602  0.3532
  603MOL0     C83130   2.981   6.309   6.634  0.1930  0.5116 -0.9282
  603MOL0     C83131   3.423   6.322   6.624 -0.2247  0.2510 -0.4465
  603MOL0     C83132   3.453   6.333   6.761 -0.3055  0.2131  0.7227
  603MOL0     C83133   3.581   6.367   6.804 -0.1005 -0.7544  0.2437
  603MOL0     C83134   3.680   6.411   6.722  1.0898  0.6514  0.4740
  603MOL0     O83135   3.806   6.440   6.755  0.9501  0.4911  0.2696
  603MOL0     C83136   3.835   6.461   6.893  0.1921  0.0275 -0.9124
  603MOL0     C83137   3.987   6.484   6.892 -0.7220  0.0051  0.1095
  603MOL0     C83138   4.055   6.364   6.815 -0.4413  0.7901  0.3502
  603MOL0     C83139   4.205   6.370   6.814  0.1842 -0.3925 -0.3271
  603MOL0     C83140   4.265   6.376   6.955  0.1194  0.4423  0.3459
  603MOL0     C83141   4.305   6.405   7.067  0.9778 -0.0602 -0.0030
  603MOL0     C83142   3.649   6.425   6.585  0.9131  1.0890 -1.2839
  603MOL0     C83143   3.527   6.370   6.534 -0.2233 -0.0148  0.6555
  603MOL0     C83144   3.522   6.364   6.382  0.3591 -0.0045 -0.8728
  603MOL0     H83145   3.087   5.993   6.689  3.4065  2.4476 -0.8501
  603MOL0     H83146   2.834   5.952   6.642  0.6427 -0.8329 -1.8803
  603MOL0     H83147   2.503   6.046   6.509 -0.0999  0.6508  3.4796
  603MOL0     H83148   2.656   5.958   6.507 -0.4817 -0.0389 -1.3297
  603MOL0     H83149   2.754   6.142   6.358 -1.0784  2.2973  0.8961
  603MOL0     H83150   2.631   6.035   6.284  1.1591 -1.0306 -0.1662
  603MOL0     H83151   2.461   6.218   6.332  0.2617  0.8876 -1.8850
  603MOL0     H83152   2.610   6.319   6.373  2.3582 -0.1762  0.6610
  603MOL0     H83153   2.480   6.215   6.118 -0.7084  2.4670 -0.5998
  603MOL0     H83154   2.556   6.371   6.144  0.6459  0.7521  0.2352
  603MOL0     H83155   2.672   6.220   5.976  1.2207  1.0315 -0.4971
  603MOL0     H83156   2.708   6.120   6.114 -0.1431 -0.5630  0.2850
  603MOL0     H83157   2.788   6.422   6.077 -0.3756  0.6093 -0.2786
  603MOL0     H83158   2.821   6.323   6.232  1.1543 -2.8623  0.3624
  603MOL0     H83159   2.929   6.281   5.954  0.2874  0.3302 -0.1455
  603MOL0     H83160   2.975   6.170   6.089  1.1098  1.2274  1.1359
  603MOL0     H83161   3.028   6.470   6.070  0.5756  0.6982  0.9737
  603MOL0     H83162   3.084   6.375   6.196 -0.4141  1.0632  0.3236
  603MOL0     H83163   3.278   6.229   6.179  0.1456  1.2876  0.2245
  603MOL0     H83164   3.462   6.061   5.897  0.4240  0.1201  0.0402
  603MOL0     H83165   3.504   6.105   6.067 -1.4565 -1.0275  0.4265
  603MOL0     H83166   3.587   6.233   5.803  0.0522  1.4923  1.0635
  603MOL0     H83167   3.626   6.317   5.954 -2.7205 -0.1425 -0.2992
  603MOL0     H83168   3.747   6.115   6.028 -2.2425 -3.1301 -0.3037
  603MOL0     H83169   3.739   6.068   5.854 -1.4758  0.9224 -0.9335
  603MOL0     H83170   3.850   6.278   5.792 -2.9618  0.1001  0.7495
  603MOL0     H83171   3.857   6.328   5.953 -0.8002 -0.5875  1.6054
  603MOL0     H83172   4.155   6.014   5.999  0.6956  2.0727 -1.1021
  603MOL0     H83173   4.258   5.846   6.206 -1.7316  0.3310  1.8374
  603MOL0     H83174   4.335   5.965   6.318 -0.7883  1.2975  0.6947
  603MOL0     H83175   4.347   5.960   6.138  1.6399 -0.7048  0.7250
  603MOL0     H83176   4.393   5.865   6.564  0.4194 -0.4636  0.7782
  603MOL0     H83177   4.476   5.822   6.805  0.0151  0.9215  0.2448
  603MOL0     H83178   4.515   5.812   7.013  1.1993  0.7701 -0.9498
  603MOL0     H83179   4.544   5.987   7.001  1.9275  0.0567  0.9273
  603MOL0     H83180   4.487   5.842   7.263  1.0399 -0.0441  0.0244
  603MOL0     H83181   4.641   5.899   7.217 -1.1871 -2.5333 -0.0109
  603MOL0     H83182   4.384   6.053   7.276  0.1880  0.9412  0.1797
  603MOL0     H83183   4.511   6.136   7.189 -1.1014  2.3223  1.2879
  603MOL0     H83184   4.672   6.084   7.365 -0.3676  1.9998  0.5681
  603MOL0     H83185   4.555   6.004   7.472 -0.8258  1.6232  1.5164
  603MOL0     H83186   4.509   6.288   7.369 -1.0404  1.5008  0.9160
  603MOL0     H83187   4.411   6.210   7.485 -0.0036 -2.7446 -0.3261
  603MOL0     H83188   4.698   6.260   7.548  0.5056  0.9529  2.1920
  603MOL0     H83189   4.585   6.210   7.666  1.7661  1.7414  1.6871
  603MOL0     H83190   4.462   6.422   7.641  0.0440  2.2831  1.7176
  603MOL0     H83191   4.599   6.472   7.521 -0.9658 -0.3528 -1.0727
  603MOL0     H83192   4.766   6.437   7.697 -0.0116  2.9273 -1.8725
  603MOL0     H83193   4.636   6.404   7.811  1.5422 -0.5503 -0.3544
  603MOL0     H83194   4.149   6.051   6.952 -0.7933 -0.3395 -0.1754
  603MOL0     H83195   4.061   6.065   6.704 -0.7413 -0.1596 -0.6424
  603MOL0     H83196   3.943   6.263   6.371 -0.2701 -3.5344  1.7450
  603MOL0     H83197   3.872   6.289   6.150  0.3499  1.0057  1.9707
  603MOL0     H83198   2.775   6.362   6.595  0.5920  2.2509  1.0411
  603MOL0     H83199   3.012   6.413   6.626 -0.9313  0.7311 -2.9872
  603MOL0     H83200   3.379   6.303   6.835 -1.5382  0.0472 -0.5381
  603MOL0     H83201   3.596   6.350   6.910 -1.2683 -2.2252  0.2167
  603MOL0     H83202   3.786   6.550   6.934 -1.2569 -1.8211  1.6685
  603MOL0     H83203   3.808   6.378   6.959 -0.2975 -2.2286 -3.7282
  603MOL0     H83204   4.010   6.471   6.998  1.6692 -0.2085 -0.3824
  603MOL0     H83205   4.016   6.583   6.855  2.0203 -0.7640 -0.0106
  603MOL0     H83206   4.033   6.260   6.842  1.4475  0.4717  0.8484
  603MOL0     H83207   4.016   6.382   6.715  0.7955 -0.8253 -0.4602
  603MOL0     H83208   4.236   6.459   6.757 -0.5616  2.0847  2.8635
  603MOL0     H83209   4.247   6.286   6.758  1.8136  1.0601 -1.4277
  603MOL0     H83210   4.335   6.429   7.167 -1.4888  0.4480  0.6905
  603MOL0     H83211   3.726   6.471   6.525  1.6751  0.9852 -0.4020
  603MOL0     H83212   3.430   6.407   6.341  0.2558  0.5687 -0.0731
  603MOL0     H83213   3.611   6.418   6.350 -0.8964  4.5588  2.3934
  603MOL0     H83214   3.524   6.263   6.339 -1.6596 -0.5544  0.1543
  604MOL0     O83215  10.431   1.189   6.126 -0.1471 -0.2216  0.0163
  604MOL0     C83216  10.419   1.103   6.220 -0.4358  0.0845 -0.3979
  604MOL0     O83217  10.518   1.068   6.312 -0.8173 -0.2404 -0.0175
  604MOL0     C83218  10.651   1.104   6.275  0.9260 -0.5650 -0.2919
  604MOL0     C83219  10.729   0.991   6.242 -0.9880 -0.4413  0.3087
  604MOL0     C83220  10.857   1.023   6.197 -0.6208  0.8129  0.1485
  604MOL0     C83221  10.896   1.151   6.176 -0.3010  0.0597  0.8481
  604MOL0     O83222  11.029   1.158   6.123  0.1567  0.1178 -0.0365
  604MOL0     C83223  11.080   1.271   6.056  0.0172 -0.7403  0.4903
  604MOL0     C83224  11.163   1.376   6.134  0.9353 -0.0763  0.7287
  604MOL0     C83225  11.295   1.315   6.186  0.1238 -0.0600 -0.7022
  604MOL0     C83226  11.367   1.398   6.288 -0.0001 -1.2277 -0.6194
  604MOL0     C83227  11.508   1.338   6.307 -0.1832  0.4123 -0.0820
  604MOL0     C83228  11.603   1.369   6.193  0.0025  0.3184 -0.7517
  604MOL0     C83229  11.749   1.324   6.231  0.0280  0.2539  0.1878
  604MOL0     C83230  11.844   1.364   6.113 -0.8816  0.2964  0.1840
  604MOL0     N83231  11.992   1.313   6.111 -0.3729  0.1509 -0.5001
  604MOL0     C83232  12.028   1.184   6.100  0.3471  0.0690  0.0618
  604MOL0     C83233  12.160   1.182   6.120 -0.2939 -0.3316 -0.4291
  604MOL0     C83234  12.257   1.061   6.118  0.2196  0.4507  0.4674
  604MOL0     C83235  12.323   1.040   6.256  0.4276  0.4186 -0.0682
  604MOL0     C83236  12.414   0.927   6.259  1.1107  0.4201  0.2914
  604MOL0     C83237  12.435   0.852   6.389  0.2115  0.4941  0.4832
  604MOL0     O83238  12.484   0.940   6.485 -0.0805  0.2681  0.0311
  604MOL0     C83239  12.611   0.919   6.539  0.4561  0.3230  0.4950
  604MOL0     C83240  12.681   1.031   6.562  0.2558 -0.4182 -0.6384
  604MOL0     C83241  12.813   1.031   6.620 -0.1169 -0.1905 -0.1635
  604MOL0     C83242  12.877   1.170   6.642  0.0099  0.7211 -0.7364
  604MOL0     C83243  12.870   0.904   6.639 -0.6687 -0.3807  0.4546
  604MOL0     C83244  13.006   0.889   6.699 -0.0178  0.8472 -0.4972
  604MOL0     O83245  13.051   0.979   6.793 -0.5615  1.5565  0.6191
  604MOL0     C83246  13.173   0.961   6.851 -0.2458  0.3006  1.1283
  604MOL0     C83247  13.287   1.026   6.787 -0.3305 -0.4328 -0.1652
  604MOL0     C83248  13.406   1.031   6.858 -0.0097  0.1113 -0.3731
  604MOL0     C83249  13.416   0.968   6.986 -0.2304  0.2021  1.3323
  604MOL0     O83250  13.547   0.956   7.029 -0.5062 -0.6015 -0.9364
  604MOL0     C83251  13.568   0.865   7.138 -0.1239  0.0917 -0.3284
  604MOL0     C83252  13.717   0.861   7.191  0.7832 -0.1991 -0.3171
  604MOL0     C83253  13.794   0.763   7.102 -0.2217  0.0749 -0.3190
  604MOL0     C83254  13.946   0.778   7.096 -0.2975 -0.8192  0.6890
  604MOL0     C83255  14.020   0.687   6.998  0.3515  0.7215 -0.9024
  604MOL0     C83256  14.012   0.732   6.855 -0.9816 -0.4218 -0.4104
  604MOL0     C83257  14.107   0.630   6.781 -0.0363  0.5055 -0.4767
  604MOL0     C83258  14.102   0.653   6.630 -1.2103 -0.1845  0.0168
  604MOL0    Cl83259  13.956   0.630   6.549  0.0768  0.0775 -0.0736
  604MOL0     C83260  13.306   0.904   7.043  1.7412  0.0217 -0.1171
  604MOL0     C83261  13.181   0.909   6.975  0.7120  0.7913  1.0595
  604MOL0     O83262  13.061   0.784   6.672  0.5572  0.1172 -0.7715
  604MOL0     C83263  12.804   0.785   6.605 -0.2842 -0.4022 -0.2259
  604MOL0     C83264  12.682   0.793   6.553  0.1521 -0.3772 -0.2135
  604MOL0     N83265  12.198   1.308   6.151 -0.3994 -0.2808  0.4533
  604MOL0     N83266  12.093   1.391   6.146 -0.2956  0.3116 -0.8410
  604MOL0     C83267  10.816   1.266   6.202  0.0342  1.1033 -0.0453
  604MOL0     C83268  10.690   1.235   6.254 -0.0366  0.2362  0.1168
  604MOL0     C83269  10.291   1.029   6.225  0.0520 -1.3038 -0.4293
  604MOL0     C83270  10.255   0.974   6.347  0.6696 -0.5085 -0.3377
  604MOL0     C83271  10.142   0.892   6.358 -0.5817  0.2732  0.0255
  604MOL0     C83272  10.062   0.873   6.241 -0.8037  0.6537  0.2082
  604MOL0     O83273   9.946   0.801   6.271  0.5318 -0.7718  0.1973
  604MOL0     C83274   9.859   0.747   6.167 -0.0660  0.0076  0.9607
  604MOL0     C83275   9.747   0.844   6.138  1.0050 -0.2364 -0.1235
  604MOL0     C83276   9.669   0.817   6.013  0.3290 -0.2995 -0.0177
  604MOL0     C83277   9.723   0.789   5.870 -0.3743 -0.1638 -0.9849
  604MOL0     C83278   9.808   0.901   5.840 -0.6377  0.2443  0.7402
  604MOL0     C83279   9.873   0.998   5.807  0.1710  0.2421 -0.0502
  604MOL0     C83280  10.111   0.916   6.117  0.1714 -0.1026  0.4899
  604MOL0     C83281  10.225   0.995   6.105  0.2042 -0.5890  0.7697
  604MOL0     C83282  10.273   1.013   5.962  0.5340 -0.4475  0.0633
  604MOL0     H83283  10.695   0.888   6.240  2.8531 -1.8815 -0.1578
  604MOL0     H83284  10.932   0.948   6.177  1.4469  2.9551 -0.6629
  604MOL0     H83285  10.993   1.321   6.011  0.0921 -1.7228 -0.8118
  604MOL0     H83286  11.137   1.230   5.973 -0.4016 -0.1128 -0.1234
  604MOL0     H83287  11.183   1.462   6.070 -0.9039 -0.0343  0.1573
  604MOL0     H83288  11.111   1.404   6.226  1.8289 -0.3031  1.3172
  604MOL0     H83289  11.277   1.224   6.245  0.8390  0.0367 -0.3177
  604MOL0     H83290  11.362   1.293   6.103  2.0356 -4.0084  1.6106
  604MOL0     H83291  11.367   1.502   6.255  1.7962 -1.2249 -0.7013
  604MOL0     H83292  11.312   1.393   6.383 -0.1284  2.0338 -0.4058
  604MOL0     H83293  11.504   1.229   6.318  0.2134  0.6042  2.6822
  604MOL0     H83294  11.551   1.384   6.397 -1.6521  1.5125  0.0936
  604MOL0     H83295  11.583   1.322   6.096  2.0282  0.4535 -1.2720
  604MOL0     H83296  11.603   1.478   6.192 -0.8802  0.3487  0.5402
  604MOL0     H83297  11.748   1.217   6.251  1.3608  0.0700 -0.6288
  604MOL0     H83298  11.783   1.367   6.326  0.9900  0.8778 -0.4357
  604MOL0     H83299  11.809   1.353   6.011  3.8726 -0.8194 -1.6015
  604MOL0     H83300  11.862   1.472   6.110 -1.2427  0.3376 -1.5677
  604MOL0     H83301  11.970   1.096   6.074  0.3602 -0.4329  1.6345
  604MOL0     H83302  12.334   1.087   6.045  3.9780 -2.4727  3.0039
  604MOL0     H83303  12.201   0.973   6.088  0.4966 -0.3067  2.0790
  604MOL0     H83304  12.364   1.128   6.305 -2.0572  1.7929 -0.3075
  604MOL0     H83305  12.242   1.020   6.327  0.7898  3.8892  1.5454
  604MOL0     H83306  12.373   0.854   6.188 -0.9329  0.1434  1.6685
  604MOL0     H83307  12.515   0.954   6.228  0.9400  0.9023  0.1560
  604MOL0     H83308  12.340   0.809   6.422  0.9634 -1.6295  0.0396
  604MOL0     H83309  12.500   0.765   6.375 -0.0982  0.5610 -1.7268
  604MOL0     H83310  12.629   1.123   6.534  1.0476  1.0224  2.2389
  604MOL0     H83311  12.987   1.170   6.642  0.0397  1.6676 -2.2379
  604MOL0     H83312  12.843   1.206   6.739  1.2196 -1.6077  0.6574
  604MOL0     H83313  12.849   1.229   6.554 -1.2157 -0.6662 -1.3205
  604MOL0     H83314  13.280   1.070   6.688 -4.9767 -3.4360 -1.5604
  604MOL0     H83315  13.492   1.090   6.826 -0.4266  1.7520  1.3570
  604MOL0     H83316  13.494   0.893   7.214  0.3428 -3.1473  1.5156
  604MOL0     H83317  13.543   0.765   7.101 -0.0429 -0.2059  0.4008
  604MOL0     H83318  13.761   0.961   7.181  0.3994  0.0339  0.2751
  604MOL0     H83319  13.717   0.824   7.294 -1.6331  0.6736  0.0532
  604MOL0     H83320  13.747   0.763   7.003 -2.1746 -0.4408  0.5553
  604MOL0     H83321  13.776   0.663   7.142  5.0437 -1.4881 -1.1658
  604MOL0     H83322  13.987   0.766   7.196 -0.7379 -0.5556  0.9033
  604MOL0     H83323  13.969   0.877   7.057  3.1550 -2.7048 -2.7621
  604MOL0     H83324  14.123   0.674   7.032 -0.8586  0.6855  3.2748
  604MOL0     H83325  13.980   0.587   7.018  2.6013  0.4448  3.4389
  604MOL0     H83326  14.031   0.836   6.828 -0.9645 -0.6915 -1.4988
  604MOL0     H83327  13.914   0.704   6.817 -0.3650 -2.2434 -0.7738
  604MOL0     H83328  14.076   0.526   6.793  0.5990  0.2392 -1.1434
  604MOL0     H83329  14.208   0.649   6.817 -0.3451 -1.9742  2.0528
  604MOL0     H83330  14.161   0.566   6.599 -0.6059  0.0357  0.5263
  604MOL0     H83331  14.144   0.748   6.594 -0.7039 -1.2456 -2.3843
  604MOL0     H83332  13.310   0.837   7.129 -1.3087 -0.0798  0.0690
  604MOL0     H83333  13.098   0.857   7.020  0.2485  1.1433  0.6231
  604MOL0     H83334  12.848   0.686   6.598 -2.0097 -1.0804 -3.8382
  604MOL0     H83335  12.632   0.703   6.519  1.5399 -2.0602  1.9578
  604MOL0     H83336  10.851   1.368   6.192 -0.0451  1.0838 -0.5432
  604MOL0     H83337  10.621   1.318   6.269 -0.4977  0.5341 -2.9583
  604MOL0     H83338  10.310   0.997   6.438 -0.2561 -4.0351  1.3010
  604MOL0     H83339  10.118   0.853   6.456  0.1306  0.1793  0.1682
  604MOL0     H83340   9.917   0.719   6.079  0.1431 -0.4620  1.2447
  604MOL0     H83341   9.809   0.657   6.206 -1.2054  1.3382  2.7396
  604MOL0     H83342   9.787   0.942   6.112 -0.4176  0.1798 -0.8398
  604MOL0     H83343   9.681   0.851   6.224  1.2708 -2.6039  0.3494
  604MOL0     H83344   9.632   0.721   6.050 -1.8546  0.9728  1.3164
  604MOL0     H83345   9.586   0.889   6.015  1.6805  1.3078 -0.1712
  604MOL0     H83346   9.643   0.760   5.801  0.5740 -3.3665 -0.9144
  604MOL0     H83347   9.791   0.704   5.856 -0.9280 -0.4314 -2.2150
  604MOL0     H83348   9.937   1.074   5.769 -0.0280  0.0519 -0.7878
  604MOL0     H83349  10.047   0.897   6.032  1.2043  0.1469 -0.3617
  604MOL0     H83350  10.379   1.037   5.953  0.6249 -0.1416  1.6292
  604MOL0     H83351  10.280   0.920   5.906  2.9332 -0.3447  0.1054
  604MOL0     H83352  10.204   1.085   5.917  0.6057  0.8477  1.8811
  605MOL0     O83353   7.309   1.784   6.862 -0.6736  0.3214  0.2734
  605MOL0     C83354   7.398   1.833   6.934 -0.1920  0.2350  0.3887
  605MOL0     O83355   7.523   1.783   6.943  0.2962 -0.2108  0.5906
  605MOL0     C83356   7.559   1.686   6.851 -0.1742 -0.8054 -1.2436
  605MOL0     C83357   7.565   1.714   6.713 -0.5688 -0.1048 -0.1743
  605MOL0     C83358   7.607   1.607   6.627  0.5822 -0.0064 -0.2910
  605MOL0     C83359   7.660   1.491   6.678 -0.9415 -0.6463 -0.7020
  605MOL0     O83360   7.714   1.381   6.613  0.4288  0.6618 -0.2319
  605MOL0     C83361   7.727   1.390   6.467 -0.6058 -0.0857 -0.4880
  605MOL0     C83362   7.813   1.262   6.447  0.0147  0.1640 -0.0453
  605MOL0     C83363   7.924   1.283   6.345 -0.6188 -0.8995 -0.2886
  605MOL0     C83364   8.031   1.174   6.368  1.2549 -0.5476 -0.4690
  605MOL0     C83365   8.169   1.184   6.296 -0.4646 -0.2843 -0.2628
  605MOL0     C83366   8.162   1.233   6.155  0.4547  0.6360 -0.4220
  605MOL0     C83367   8.295   1.229   6.063 -0.5429 -0.9020 -0.3962
  605MOL0     C83368   8.364   1.095   6.081 -0.3688  1.2283  0.1014
  605MOL0     N83369   8.290   0.979   6.022 -0.4695  0.5464  0.0378
  605MOL0     C83370   8.167   0.913   6.057  0.3213 -0.4842  0.9228
  605MOL0     C83371   8.157   0.824   5.950  0.2974 -0.5876  0.8251
  605MOL0     C83372   8.035   0.748   5.930  0.5291  0.0176  0.2869
  605MOL0     C83373   8.006   0.646   6.043 -0.2925  0.6832  0.6755
  605MOL0     C83374   7.961   0.703   6.182  0.5380  0.1892  1.0794
  605MOL0     C83375   7.845   0.794   6.169 -0.1210  0.5455 -0.2004
  605MOL0     O83376   7.873   0.930   6.135  0.5439  0.1233  0.1171
  605MOL0     C83377   7.758   1.016   6.128 -0.5037  0.6211 -0.1811
  605MOL0     C83378   7.767   1.111   6.027  0.4483  0.1812  0.9555
  605MOL0     C83379   7.677   1.214   6.027 -0.1555 -0.7322 -0.3934
  605MOL0     C83380   7.693   1.321   5.916 -0.9181  0.2335  1.0457
  605MOL0     C83381   7.575   1.225   6.129  0.3206 -0.7952 -0.7256
  605MOL0     C83382   7.472   1.336   6.137 -0.6313  1.9120  0.2883
  605MOL0     O83383   7.500   1.453   6.187  0.4544 -0.2496 -0.4396
  605MOL0     C83384   7.405   1.547   6.194 -0.5409  0.7533  0.0942
  605MOL0     C83385   7.386   1.637   6.087  0.0644 -0.2542 -1.3825
  605MOL0     C83386   7.309   1.748   6.114 -0.0051 -0.2375  0.0020
  605MOL0     C83387   7.241   1.773   6.242 -0.1400  0.4833 -0.1762
  605MOL0     O83388   7.130   1.865   6.253 -0.3058  0.1573  0.6979
  605MOL0     C83389   7.176   1.994   6.217 -0.1884 -0.2595  0.2353
  605MOL0     C83390   7.066   2.096   6.214  0.4381 -0.5877  0.5846
  605MOL0     C83391   7.118   2.236   6.202  0.2878 -0.6774 -0.7069
  605MOL0     C83392   7.159   2.308   6.326  0.4973  0.1454 -0.1878
  605MOL0     C83393   7.230   2.441   6.294  0.1906 -0.0375 -0.4531
  605MOL0     C83394   7.375   2.415   6.248  0.0795  0.1295 -0.0236
  605MOL0     C83395   7.451   2.544   6.260 -0.3871  0.2047  0.4819
  605MOL0     C83396   7.572   2.528   6.355 -1.2496  0.5000 -0.2368
  605MOL0    Cl83397   7.651   2.690   6.373  0.0631  0.2446  0.0557
  605MOL0     C83398   7.256   1.676   6.342 -0.0361 -0.2273  0.4682
  605MOL0     C83399   7.344   1.572   6.315  0.5931  1.2555 -0.1152
  605MOL0     O83400   7.360   1.285   6.117  0.1835 -0.0783 -0.4338
  605MOL0     C83401   7.574   1.126   6.233  0.3820 -0.4191  0.7281
  605MOL0     C83402   7.656   1.018   6.222  0.8884 -0.6655  0.1205
  605MOL0     N83403   8.265   0.825   5.863 -0.3472  0.5145  0.6895
  605MOL0     N83404   8.344   0.926   5.910 -0.1229 -0.0819 -0.0026
  605MOL0     C83405   7.668   1.473   6.815  0.0027 -0.6419  0.5548
  605MOL0     C83406   7.617   1.565   6.899 -1.0150 -0.4142  0.1580
  605MOL0     C83407   7.358   1.951   7.014  0.1432  0.4832 -0.2038
  605MOL0     C83408   7.219   1.980   7.029  0.7600  0.0348 -0.0245
  605MOL0     C83409   7.176   2.095   7.099  0.0051 -0.3756  0.1729
  605MOL0     C83410   7.273   2.162   7.174 -0.8072 -0.4576 -0.1441
  605MOL0     O83411   7.252   2.273   7.248  0.1427 -1.1085  0.5400
  605MOL0     C83412   7.155   2.369   7.209  0.5624 -0.4002 -0.6807
  605MOL0     C83413   7.176   2.451   7.077 -0.5459 -0.6623 -0.2258
  605MOL0     C83414   7.046   2.532   7.055 -0.4357  0.6375 -0.0978
  605MOL0     C83415   7.068   2.641   6.943 -0.5356 -0.1794  0.1322
  605MOL0     C83416   6.938   2.702   6.891  0.8481  0.9473  0.4948
  605MOL0     C83417   6.834   2.754   6.845 -0.0341 -0.0298 -0.1610
  605MOL0     C83418   7.410   2.133   7.167  0.9496 -0.0049 -1.2140
  605MOL0     C83419   7.455   2.044   7.070 -1.0177 -0.1006 -0.1568
  605MOL0     C83420   7.602   2.038   7.045 -0.4277 -0.9254 -0.5210
  605MOL0     H83421   7.533   1.810   6.672 -1.9100 -1.0515 -1.4885
  605MOL0     H83422   7.604   1.614   6.518  1.8530  0.0594 -0.3307
  605MOL0     H83423   7.789   1.480   6.457 -0.6072 -0.2150 -1.9119
  605MOL0     H83424   7.639   1.400   6.402 -0.6482  0.5425 -0.3480
  605MOL0     H83425   7.855   1.224   6.541 -0.0854 -1.8207 -0.7534
  605MOL0     H83426   7.744   1.187   6.408 -1.5300  1.2057  0.5786
  605MOL0     H83427   7.897   1.282   6.238  0.2204  4.6558 -0.8154
  605MOL0     H83428   7.974   1.378   6.361 -2.1027 -0.0083 -0.7527
  605MOL0     H83429   8.040   1.148   6.474 -1.6759 -0.0264 -0.0173
  605MOL0     H83430   7.992   1.080   6.327  2.4958 -2.2867  2.0446
  605MOL0     H83431   8.208   1.082   6.298 -0.7794 -0.4446  3.2229
  605MOL0     H83432   8.231   1.249   6.358 -2.4571  0.7796  0.7077
  605MOL0     H83433   8.091   1.168   6.103  0.5199 -0.2812  0.6018
  605MOL0     H83434   8.118   1.333   6.152  1.5075  1.5836  5.0308
  605MOL0     H83435   8.359   1.315   6.085  0.1272 -1.5492  0.2357
  605MOL0     H83436   8.265   1.236   5.957 -2.3270  2.1778  0.1755
  605MOL0     H83437   8.461   1.105   6.032  0.2724 -0.0238  1.0419
  605MOL0     H83438   8.401   1.065   6.180 -1.6968  0.0561  0.2877
  605MOL0     H83439   8.099   0.935   6.139 -1.6961 -2.0256 -0.2364
  605MOL0     H83440   8.053   0.680   5.846 -1.7374  0.1572 -0.3855
  605MOL0     H83441   7.954   0.816   5.903  0.2879 -0.9006 -1.4858
  605MOL0     H83442   7.929   0.579   6.006 -0.4245  1.2501 -0.0816
  605MOL0     H83443   8.102   0.593   6.047  0.2416  1.5976  0.3019
  605MOL0     H83444   7.935   0.614   6.240  1.3700  0.0483  1.2623
  605MOL0     H83445   8.046   0.748   6.234  0.2311 -0.2127  1.9383
  605MOL0     H83446   7.775   0.755   6.094  1.7531 -0.5087 -1.4814
  605MOL0     H83447   7.806   0.797   6.271  2.7634 -1.5433  1.1101
  605MOL0     H83448   7.847   1.096   5.955 -0.2928 -2.3263  0.5559
  605MOL0     H83449   7.779   1.384   5.939 -0.6733  0.5518 -0.6038
  605MOL0     H83450   7.613   1.396   5.915 -0.2814  0.9500  2.0730
  605MOL0     H83451   7.698   1.282   5.814 -2.1360  0.0910  1.0188
  605MOL0     H83452   7.449   1.619   6.001 -0.0851  0.7711 -1.7216
  605MOL0     H83453   7.291   1.825   6.041 -0.1816  0.3636  0.6629
  605MOL0     H83454   7.246   2.030   6.294  3.0683 -0.0243 -2.5877
  605MOL0     H83455   7.229   2.006   6.122 -1.4900  1.8633 -0.2865
  605MOL0     H83456   6.992   2.090   6.133  0.4734 -0.4663  0.5430
  605MOL0     H83457   7.018   2.100   6.313 -0.6705  0.3113  0.0372
  605MOL0     H83458   7.033   2.291   6.162 -0.8816 -1.7596  0.1820
  605MOL0     H83459   7.197   2.230   6.127 -1.1537 -1.4223 -2.2595
  605MOL0     H83460   7.234   2.250   6.380  2.4870  3.1344  0.5263
  605MOL0     H83461   7.074   2.329   6.392  0.0863 -1.5466 -0.1316
  605MOL0     H83462   7.162   2.496   6.228 -2.9489 -1.9926  0.8973
  605MOL0     H83463   7.224   2.501   6.385 -0.0899  0.3374 -0.7158
  605MOL0     H83464   7.363   2.387   6.143 -0.7896 -0.5309  0.2408
  605MOL0     H83465   7.417   2.329   6.301 -0.6131 -0.2074 -0.0035
  605MOL0     H83466   7.391   2.628   6.297  0.0269  1.1574 -0.9370
  605MOL0     H83467   7.497   2.558   6.162 -1.0638 -1.1992 -0.0792
  605MOL0     H83468   7.638   2.449   6.320  0.7876  1.1037  1.9946
  605MOL0     H83469   7.528   2.500   6.452 -2.6524  1.9037 -0.4199
  605MOL0     H83470   7.206   1.696   6.437 -1.5066 -0.4263 -0.2369
  605MOL0     H83471   7.362   1.508   6.401  1.9800 -0.4823 -1.6092
  605MOL0     H83472   7.506   1.150   6.314  0.8417  1.3741  0.6381
  605MOL0     H83473   7.648   0.937   6.294 -0.6545 -1.0824 -0.4843
  605MOL0     H83474   7.713   1.382   6.853 -2.4584 -1.8235  0.8283
  605MOL0     H83475   7.645   1.575   7.003 -0.0549  1.2805 -0.2167
  605MOL0     H83476   7.146   1.916   6.980 -1.7264  1.3249  1.7705
  605MOL0     H83477   7.069   2.112   7.106  0.0481  0.1493 -0.3330
  605MOL0     H83478   7.055   2.326   7.200 -0.9284  2.4262  1.0758
  605MOL0     H83479   7.141   2.437   7.293  1.5575 -1.0908  0.0709
  605MOL0     H83480   7.198   2.386   6.992  2.4261  1.0065 -0.8661
  605MOL0     H83481   7.261   2.518   7.091  0.3247 -2.1435  2.3873
  605MOL0     H83482   6.963   2.466   7.025  1.5806 -4.2279  3.6336
  605MOL0     H83483   7.023   2.577   7.151  2.4483 -0.1593  1.0738
  605MOL0     H83484   7.109   2.597   6.852  0.6332  0.8425  0.1507
  605MOL0     H83485   7.136   2.721   6.972 -2.6199  2.4055 -1.6462
  605MOL0     H83486   6.747   2.796   6.799 -1.4337 -2.8673 -0.2991
  605MOL0     H83487   7.478   2.204   7.213  2.3548 -0.0814 -3.0542
  605MOL0     H83488   7.620   2.022   6.939 -2.8808 -1.7993 -0.8493
  605MOL0     H83489   7.641   2.140   7.061  0.7525 -1.4318 -0.0421
  605MOL0     H83490   7.656   1.963   7.103  1.1938 -0.2989 -1.1587
  606MOL0     O83491  11.244   8.691   2.542 -0.5396 -0.2687  0.0973
  606MOL0     C83492  11.339   8.606   2.561 -0.3995 -0.0136  0.1473
  606MOL0     O83493  11.465   8.638   2.598  0.3955 -0.2973  0.1866
  606MOL0     C83494  11.502   8.775   2.620 -0.3621  0.2432 -0.1864
  606MOL0     C83495  11.492   8.877   2.524 -0.6618  0.6186 -0.5367
  606MOL0     C83496  11.531   9.006   2.545  0.4511 -0.0210 -0.1355
  606MOL0     C83497  11.606   9.033   2.656  0.0540  0.2126  0.5592
  606MOL0     O83498  11.637   9.168   2.675  0.4791  0.8200 -0.3256
  606MOL0     C83499  11.588   9.221   2.801  0.1996  0.7891  0.5219
  606MOL0     C83500  11.656   9.358   2.835  0.0164 -0.5052  0.4520
  606MOL0     C83501  11.795   9.337   2.877 -0.8616  0.4331  0.3265
  606MOL0     C83502  11.868   9.468   2.911  0.2475  0.0844 -0.4694
  606MOL0     C83503  12.012   9.450   2.959  0.2189 -0.5323 -0.1195
  606MOL0     C83504  12.094   9.368   2.863  0.9330 -0.2045  0.7531
  606MOL0     C83505  12.228   9.341   2.916  0.9427  0.4134 -0.1971
  606MOL0     C83506  12.332   9.318   2.811 -0.2973  0.7360  0.9661
  606MOL0     N83507  12.471   9.339   2.861  0.6015  0.1459 -0.6462
  606MOL0     C83508  12.586   9.320   2.783 -0.3312  0.2565 -0.1556
  606MOL0     C83509  12.694   9.364   2.857 -1.1083  0.1330 -0.0034
  606MOL0     C83510  12.840   9.380   2.823  0.5680 -0.3208  0.2793
  606MOL0     C83511  12.934   9.319   2.923 -0.1715 -0.0913 -0.1016
  606MOL0     C83512  12.941   9.166   2.916 -0.0051  0.3997  1.2299
  606MOL0     C83513  13.018   9.120   3.040  0.1154  0.6223  0.3244
  606MOL0     O83514  13.063   8.981   3.030  0.9519  0.0447 -0.0739
  606MOL0     C83515  13.123   8.916   3.136 -0.2680 -1.1619 -0.6387
  606MOL0     C83516  13.159   8.785   3.116 -0.9337 -0.3476  0.4924
  606MOL0     C83517  13.237   8.721   3.207  0.8458  1.2035  0.1236
  606MOL0     C83518  13.274   8.585   3.158  0.2656  0.5939  1.7760
  606MOL0     C83519  13.269   8.774   3.333 -0.3166 -0.0723  0.1598
  606MOL0     C83520  13.331   8.697   3.433 -1.4520  0.3510 -0.4374
  606MOL0     O83521  13.412   8.770   3.511  0.6442  0.1851 -0.1907
  606MOL0     C83522  13.486   8.704   3.609 -0.4797 -0.6771  0.3460
  606MOL0     C83523  13.502   8.766   3.734  0.1524  0.5934 -0.8906
  606MOL0     C83524  13.593   8.720   3.826 -0.2131 -0.0695 -0.8096
  606MOL0     C83525  13.659   8.599   3.805 -0.9496  0.7103 -0.0168
  606MOL0     O83526  13.743   8.560   3.907  0.7950  0.4816  0.5106
  606MOL0     C83527  13.829   8.451   3.876  0.1905  0.1581  0.1168
  606MOL0     C83528  13.903   8.409   4.000 -1.0335 -0.5203 -0.9219
  606MOL0     C83529  13.806   8.365   4.113 -0.1150  0.2138  0.6835
  606MOL0     C83530  13.893   8.321   4.227 -1.4135  0.3581 -0.3542
  606MOL0     C83531  13.821   8.310   4.364  0.2570 -0.8159  0.4640
  606MOL0     C83532  13.921   8.322   4.483 -0.2177 -0.1424  0.9259
  606MOL0     C83533  13.828   8.311   4.609 -0.4879  0.1616 -0.8186
  606MOL0     C83534  13.896   8.339   4.739  0.6338  0.9485 -0.3080
  606MOL0    Cl83535  13.789   8.247   4.850 -0.0714  0.0392  0.0578
  606MOL0     C83536  13.648   8.534   3.673  0.6537  0.7033 -0.5088
  606MOL0     C83537  13.549   8.576   3.583  0.8684 -0.2123  0.4618
  606MOL0     O83538  13.302   8.578   3.447 -0.2565 -0.0121 -0.4520
  606MOL0     C83539  13.234   8.905   3.351 -0.1954  0.6142 -0.3662
  606MOL0     C83540  13.157   8.977   3.258  0.0221 -0.1476 -0.1411
  606MOL0     N83541  12.638   9.408   2.974  0.1093  0.4728  0.6256
  606MOL0     N83542  12.507   9.400   2.977  0.4619 -0.2292  0.2243
  606MOL0     C83543  11.639   8.930   2.751  0.8650  0.3095  0.2940
  606MOL0     C83544  11.580   8.803   2.732  0.4034 -0.5269  0.2246
  606MOL0     C83545  11.309   8.457   2.541  0.3499  0.1717 -0.7737
  606MOL0     C83546  11.414   8.364   2.557  0.1012 -0.3723 -0.1011
  606MOL0     C83547  11.398   8.229   2.553 -0.5759  0.1488 -0.4317
  606MOL0     C83548  11.269   8.169   2.537  0.4260  0.0366  0.8776
  606MOL0     O83549  11.238   8.037   2.528  0.4486  0.1412 -0.1382
  606MOL0     C83550  11.336   7.944   2.547 -0.5109 -0.0398  0.4909
  606MOL0     C83551  11.266   7.806   2.542 -0.0559 -0.7856 -0.2715
  606MOL0     C83552  11.191   7.785   2.675  0.4264  0.3927  0.6871
  606MOL0     C83553  11.128   7.641   2.677  0.8145  0.2660  0.0355
  606MOL0     C83554  11.030   7.608   2.564  1.0059  0.6447  1.0482
  606MOL0     C83555  10.940   7.595   2.476  0.0640  0.1180 -0.3349
  606MOL0     C83556  11.168   8.262   2.517  0.4259 -0.8133 -0.3984
  606MOL0     C83557  11.179   8.401   2.519 -0.4728  1.1439  0.9979
  606MOL0     C83558  11.043   8.472   2.496 -0.2468 -0.2470  0.2622
  606MOL0     H83559  11.430   8.861   2.436 -0.4576 -0.9991 -0.4183
  606MOL0     H83560  11.497   9.092   2.488  2.1697  1.3382  0.7975
  606MOL0     H83561  11.609   9.154   2.885 -1.6145  2.0560  2.0543
  606MOL0     H83562  11.480   9.235   2.794  0.3508  1.5378 -0.6495
  606MOL0     H83563  11.644   9.419   2.745 -0.7372  0.5125  1.2241
  606MOL0     H83564  11.599   9.410   2.912  0.4995  0.9817 -0.1509
  606MOL0     H83565  11.793   9.264   2.959 -0.9203 -0.2682 -0.2878
  606MOL0     H83566  11.850   9.286   2.797  0.4801 -2.8466  3.1085
  606MOL0     H83567  11.861   9.534   2.824 -1.0478  1.1899  0.4342
  606MOL0     H83568  11.802   9.522   2.980  0.2572  1.3584 -1.4223
  606MOL0     H83569  12.021   9.402   3.057  0.9679 -1.1141 -0.4643
  606MOL0     H83570  12.057   9.549   2.972  0.4984 -0.5479 -0.9235
  606MOL0     H83571  12.045   9.273   2.838  1.0787  0.0327 -0.5434
  606MOL0     H83572  12.085   9.423   2.769 -3.0157 -1.3624  0.2722
  606MOL0     H83573  12.219   9.255   2.983  0.0125  1.6421  1.3025
  606MOL0     H83574  12.249   9.427   2.980 -0.2276  1.1521 -0.7778
  606MOL0     H83575  12.315   9.217   2.772 -0.7295  0.1252  2.6868
  606MOL0     H83576  12.321   9.382   2.722  4.4333 -0.5830 -0.9054
  606MOL0     H83577  12.594   9.294   2.678 -0.1483 -2.9109  0.5432
  606MOL0     H83578  12.856   9.487   2.813 -1.3707  0.5811  4.7055
  606MOL0     H83579  12.863   9.339   2.724  1.4771  1.1407 -0.1537
  606MOL0     H83580  13.040   9.345   2.920 -0.0027 -0.7328  0.2965
  606MOL0     H83581  12.895   9.333   3.025  0.8347 -1.1923  0.4526
  606MOL0     H83582  12.849   9.110   2.899  0.5486 -1.3083  3.3582
  606MOL0     H83583  12.992   9.137   2.823 -1.8986 -1.2984  0.6422
  606MOL0     H83584  13.099   9.190   3.062  0.2351 -0.5698  4.3971
  606MOL0     H83585  12.948   9.119   3.124 -0.0878 -0.6973  0.1505
  606MOL0     H83586  13.129   8.739   3.023 -0.7943 -3.7469  1.9726
  606MOL0     H83587  13.376   8.558   3.186  1.2653  2.8503  0.5175
  606MOL0     H83588  13.275   8.580   3.049 -1.9283  2.6657  1.5778
  606MOL0     H83589  13.204   8.508   3.192  0.8712 -1.2800 -0.9103
  606MOL0     H83590  13.440   8.852   3.758 -1.4494 -0.7869  0.2170
  606MOL0     H83591  13.616   8.765   3.922 -0.0489 -1.1440 -0.3280
  606MOL0     H83592  13.769   8.364   3.848 -1.5752  2.2718 -3.3821
  606MOL0     H83593  13.895   8.485   3.796 -1.3780  1.7408 -0.5853
  606MOL0     H83594  13.973   8.330   3.971 -0.1524  0.6092 -2.0237
  606MOL0     H83595  13.958   8.494   4.042 -1.3286 -0.7270 -0.0915
  606MOL0     H83596  13.753   8.276   4.079  0.8215 -0.7850  1.7401
  606MOL0     H83597  13.738   8.442   4.148  0.5450  1.6702 -1.0744
  606MOL0     H83598  13.982   8.384   4.237 -0.8293 -0.4682 -0.1609
  606MOL0     H83599  13.935   8.223   4.202 -1.5779  0.9584 -3.2817
  606MOL0     H83600  13.742   8.386   4.366  2.0395  1.1682 -1.0882
  606MOL0     H83601  13.788   8.206   4.356  2.0557 -1.5171  1.6428
  606MOL0     H83602  13.977   8.415   4.479 -1.3435  0.5167 -1.6635
  606MOL0     H83603  13.999   8.245   4.482 -0.8808 -0.8436 -0.7788
  606MOL0     H83604  13.801   8.205   4.613 -0.6050  0.2408  1.6818
  606MOL0     H83605  13.733   8.361   4.588  0.8828  3.5060  0.2484
  606MOL0     H83606  13.906   8.446   4.762  0.9905  0.2671  3.2815
  606MOL0     H83607  13.995   8.293   4.741 -0.8020 -2.4885  1.9755
  606MOL0     H83608  13.703   8.441   3.662  0.5984  0.5395  0.5386
  606MOL0     H83609  13.534   8.532   3.485 -4.2025  1.2910  0.2460
  606MOL0     H83610  13.265   8.950   3.446 -0.3885  1.0383 -0.5025
  606MOL0     H83611  13.139   9.083   3.278  1.1523 -0.1051  0.7635
  606MOL0     H83612  11.705   8.957   2.833  0.9930  1.5814 -0.1999
  606MOL0     H83613  11.590   8.723   2.804 -0.0571 -2.5218 -1.8170
  606MOL0     H83614  11.519   8.389   2.570  0.2782 -1.4588  0.7654
  606MOL0     H83615  11.479   8.162   2.583  0.9839  2.3489  0.5802
  606MOL0     H83616  11.411   7.957   2.469 -1.8660 -0.6638 -0.9651
  606MOL0     H83617  11.375   7.978   2.644  0.9490  2.9009 -1.0076
  606MOL0     H83618  11.351   7.736   2.539 -0.5653 -1.4691  0.8966
  606MOL0     H83619  11.205   7.793   2.452  1.3504 -0.1660 -1.3489
  606MOL0     H83620  11.262   7.782   2.758  2.0958 -2.7680 -0.6717
  606MOL0     H83621  11.116   7.862   2.694  0.4907  0.2312  1.6522
  606MOL0     H83622  11.065   7.629   2.765  0.4271  1.6657 -0.0273
  606MOL0     H83623  11.211   7.570   2.679 -0.9702 -1.9336 -0.2299
  606MOL0     H83624  10.852   7.575   2.419 -0.0566 -0.4518  0.0429
  606MOL0     H83625  11.065   8.232   2.501 -1.2986  2.6289  2.7274
  606MOL0     H83626  11.034   8.562   2.558 -1.5952 -0.5098  0.4917
  606MOL0     H83627  11.035   8.510   2.394 -2.3215 -1.2913 -0.0313
  606MOL0     H83628  10.957   8.409   2.523 -0.7559 -0.3512 -1.4767
  607MOL0     O83629   0.759   4.369   2.259  0.4032 -0.2075 -0.0219
  607MOL0     C83630   0.718   4.355   2.369 -0.7907 -0.4586  0.9064
  607MOL0     O83631   0.671   4.242   2.415 -0.1729 -0.2666 -0.0483
  607MOL0     C83632   0.618   4.144   2.325 -0.5724 -1.1385 -0.2532
  607MOL0     C83633   0.504   4.174   2.254  0.2026  1.0715 -0.2366
  607MOL0     C83634   0.460   4.075   2.170  0.9032 -0.4852  1.0116
  607MOL0     C83635   0.530   3.957   2.148  0.4363 -0.7920  0.2838
  607MOL0     O83636   0.482   3.882   2.048 -0.3883  0.4082  0.5374
  607MOL0     C83637   0.539   3.751   2.028  0.5124  0.3897 -0.4715
  607MOL0     C83638   0.489   3.648   2.121  0.1061 -0.9827 -0.1102
  607MOL0     C83639   0.341   3.629   2.108  0.1034  0.7623 -0.1811
  607MOL0     C83640   0.297   3.530   2.215  0.1188 -0.5278 -1.7694
  607MOL0     C83641   0.145   3.480   2.187 -0.8491 -0.0176 -0.0236
  607MOL0     C83642   0.116   3.358   2.277 -0.5403 -1.0109  0.2910
  607MOL0     C83643  -0.034   3.312   2.248 -0.2701 -0.3057 -0.2941
  607MOL0     C83644  -0.078   3.220   2.356 -0.2719  0.2344  0.1360
  607MOL0     N83645  -0.213   3.164   2.322 -0.2983 -0.5197 -1.0111
  607MOL0     C83646  -0.233   3.036   2.265  0.1570 -0.3032  0.4379
  607MOL0     C83647  -0.361   3.007   2.294  0.3370  0.1410 -0.2028
  607MOL0     C83648  -0.452   2.881   2.251  0.2817 -1.1597  0.1034
  607MOL0     C83649  -0.542   2.822   2.357 -0.1188  0.2507 -0.9673
  607MOL0     C83650  -0.471   2.757   2.475  0.5381 -0.9160 -0.0569
  607MOL0     C83651  -0.378   2.643   2.432  0.9640  0.0294  0.3417
  607MOL0     O83652  -0.303   2.611   2.549 -0.3440  0.5356  0.0536
  607MOL0     C83653  -0.206   2.520   2.542  0.2506  1.0215 -0.4246
  607MOL0     C83654  -0.089   2.545   2.615 -1.0203  0.1498  1.5128
  607MOL0     C83655   0.021   2.470   2.596 -0.8412 -0.0344 -0.2310
  607MOL0     C83656   0.142   2.509   2.674 -0.4718  0.0332 -0.2132
  607MOL0     C83657   0.008   2.346   2.534 -0.7884  0.1366  0.5811
  607MOL0     C83658   0.118   2.240   2.539  0.3927  0.2524 -0.4238
  607MOL0     O83659   0.243   2.271   2.585  0.1222 -0.1459 -0.0002
  607MOL0     C83660   0.354   2.185   2.576 -0.0674 -0.2278  0.3313
  607MOL0     C83661   0.388   2.106   2.459  0.1022  0.2928  0.1189
  607MOL0     C83662   0.499   2.022   2.450  0.6901  0.2410 -0.3137
  607MOL0     C83663   0.587   2.021   2.557 -0.0871  0.3458 -0.1103
  607MOL0     O83664   0.701   1.936   2.545  0.6431  0.6870  0.1256
  607MOL0     C83665   0.752   1.869   2.669  0.3698 -0.3147  0.0547
  607MOL0     C83666   0.831   1.748   2.642 -0.6455 -0.0603 -0.2140
  607MOL0     C83667   0.746   1.636   2.580 -0.7457  0.1177 -0.4439
  607MOL0     C83668   0.820   1.506   2.556  0.4346 -0.0279  1.4815
  607MOL0     C83669   0.939   1.510   2.455 -0.5319 -1.1151 -0.5311
  607MOL0     C83670   1.017   1.378   2.473  0.5691 -0.6626 -0.7190
  607MOL0     C83671   1.148   1.388   2.388  0.1621  0.0140  0.0688
  607MOL0     C83672   1.188   1.247   2.344 -1.1649  0.4603  1.4153
  607MOL0    Cl83673   1.083   1.192   2.202 -0.3777 -0.1804 -0.0095
  607MOL0     C83674   0.559   2.093   2.676  0.5901  0.4483  0.8475
  607MOL0     C83675   0.435   2.176   2.689  0.0119 -0.3163 -0.3074
  607MOL0     O83676   0.085   2.127   2.497 -0.6017 -0.7993 -0.3763
  607MOL0     C83677  -0.112   2.304   2.469  0.3366 -1.0923  0.2080
  607MOL0     C83678  -0.221   2.399   2.471  0.4725  0.1577  0.2015
  607MOL0     N83679  -0.417   3.119   2.357  0.5941  0.3187  0.0008
  607MOL0     N83680  -0.325   3.212   2.376  0.3018 -0.1782  0.1643
  607MOL0     C83681   0.642   3.929   2.225 -0.9563  0.1898  0.7153
  607MOL0     C83682   0.686   4.021   2.321 -0.3169 -0.1969  0.0751
  607MOL0     C83683   0.753   4.466   2.460 -0.2180  0.7763  1.0302
  607MOL0     C83684   0.808   4.437   2.585  0.3747 -0.0009  0.2196
  607MOL0     C83685   0.838   4.538   2.674  0.0119  0.1885 -0.1484
  607MOL0     C83686   0.821   4.675   2.637 -0.3638 -0.2316  0.6017
  607MOL0     O83687   0.864   4.773   2.730  0.6244  0.2991  0.0036
  607MOL0     C83688   0.958   4.865   2.680 -0.2357 -0.9312 -0.6813
  607MOL0     C83689   1.022   4.944   2.787  0.3498  0.3591 -0.7691
  607MOL0     C83690   1.124   4.878   2.879  0.2189 -0.3239  0.9435
  607MOL0     C83691   1.178   4.975   2.983 -0.3363  0.8584  0.1695
  607MOL0     C83692   1.286   4.920   3.064  0.6628 -0.5592  0.6530
  607MOL0     C83693   1.379   4.866   3.110 -0.0830  0.2904 -0.4411
  607MOL0     C83694   0.763   4.708   2.515  0.1121  0.4607 -0.1126
  607MOL0     C83695   0.735   4.601   2.425 -0.5015 -0.0588  0.4933
  607MOL0     C83696   0.687   4.649   2.296  0.0169 -0.4016  0.7100
  607MOL0     H83697   0.470   4.277   2.264 -0.4171  0.7612  1.0940
  607MOL0     H83698   0.375   4.104   2.109  0.3777 -2.5205  0.7151
  607MOL0     H83699   0.647   3.750   2.039  0.3314 -1.9148  2.4712
  607MOL0     H83700   0.514   3.715   1.928  0.7501  1.1999 -0.8333
  607MOL0     H83701   0.547   3.561   2.087  4.2322  1.9558 -1.2458
  607MOL0     H83702   0.517   3.676   2.223 -0.0432  2.4723 -0.9220
  607MOL0     H83703   0.297   3.728   2.121 -0.9375  0.6758 -2.6193
  607MOL0     H83704   0.313   3.592   2.010 -3.1045  1.2577  0.4475
  607MOL0     H83705   0.366   3.445   2.213 -0.7099 -1.2184 -2.0067
  607MOL0     H83706   0.301   3.585   2.309 -2.8472 -0.2846 -1.6940
  607MOL0     H83707   0.123   3.456   2.082 -1.8710 -0.1045  0.2007
  607MOL0     H83708   0.080   3.566   2.210  1.9623  1.7359  1.9036
  607MOL0     H83709   0.183   3.275   2.256  0.2955 -0.7083  1.6193
  607MOL0     H83710   0.135   3.386   2.381  3.9254 -3.5266  0.3922
  607MOL0     H83711  -0.025   3.246   2.161 -1.8370  0.1892 -0.8721
  607MOL0     H83712  -0.099   3.397   2.224 -1.4232  0.0098  3.2845
  607MOL0     H83713  -0.005   3.141   2.374  1.6463  1.4803 -1.6795
  607MOL0     H83714  -0.094   3.282   2.444 -2.4163  2.3328 -1.6233
  607MOL0     H83715  -0.164   2.969   2.216 -0.1652 -1.1217  1.0868
  607MOL0     H83716  -0.388   2.802   2.210 -0.0691 -0.6506 -1.4780
  607MOL0     H83717  -0.523   2.913   2.174  0.8794 -1.0471 -0.4072
  607MOL0     H83718  -0.604   2.900   2.402  0.4771 -0.4199  1.1790
  607MOL0     H83719  -0.603   2.751   2.301 -1.0710 -0.7911  1.2684
  607MOL0     H83720  -0.415   2.825   2.540  0.6352 -1.1677  0.1239
  607MOL0     H83721  -0.547   2.709   2.539 -1.2964  0.4711 -1.1061
  607MOL0     H83722  -0.430   2.555   2.393  0.3654  0.4423  0.1942
  607MOL0     H83723  -0.299   2.675   2.362 -0.0114  2.0221  0.0809
  607MOL0     H83724  -0.086   2.634   2.678 -1.5291  0.1451  1.5454
  607MOL0     H83725   0.145   2.613   2.710  0.3340 -0.1655  0.3103
  607MOL0     H83726   0.235   2.493   2.618  0.8287 -0.0127  1.8136
  607MOL0     H83727   0.145   2.444   2.762 -1.5127  0.8774  0.4823
  607MOL0     H83728   0.330   2.125   2.370  2.4108 -1.0439 -1.7783
  607MOL0     H83729   0.528   1.974   2.357  2.4131  1.9814 -0.7337
  607MOL0     H83730   0.806   1.940   2.733 -2.0127  0.9966  0.7063
  607MOL0     H83731   0.667   1.843   2.733  1.5088  0.3688  1.9577
  607MOL0     H83732   0.919   1.776   2.583 -0.4987 -2.7792 -1.4308
  607MOL0     H83733   0.869   1.715   2.739 -0.5820  0.0759 -0.1926
  607MOL0     H83734   0.707   1.676   2.487 -0.9073  2.2341  0.4765
  607MOL0     H83735   0.666   1.618   2.653  0.7327  3.7804  2.3776
  607MOL0     H83736   0.754   1.429   2.514  1.4083 -0.1800  0.1517
  607MOL0     H83737   0.850   1.468   2.653 -1.0662 -0.5556  1.7631
  607MOL0     H83738   0.913   1.532   2.351  1.2116 -0.0100 -0.7952
  607MOL0     H83739   1.001   1.593   2.492 -2.2144 -0.3133  0.6186
  607MOL0     H83740   0.942   1.304   2.444 -3.2420  3.1370 -1.5416
  607MOL0     H83741   1.046   1.362   2.578 -1.2510  0.0619 -0.0620
  607MOL0     H83742   1.231   1.429   2.446  1.1507 -0.0364 -1.2614
  607MOL0     H83743   1.135   1.453   2.301 -0.1921 -0.0733  0.0577
  607MOL0     H83744   1.181   1.173   2.425 -1.7402 -2.3435 -1.0284
  607MOL0     H83745   1.290   1.252   2.306 -0.9360 -1.1378  1.7703
  607MOL0     H83746   0.625   2.077   2.761  1.1560 -1.5190  0.1039
  607MOL0     H83747   0.415   2.238   2.776 -2.0149  2.2329 -2.4460
  607MOL0     H83748  -0.118   2.209   2.417  0.8515 -0.6370 -0.7055
  607MOL0     H83749  -0.315   2.369   2.426  1.3529  0.3232 -1.8621
  607MOL0     H83750   0.698   3.836   2.213  1.8836  1.6058  1.8654
  607MOL0     H83751   0.774   4.006   2.382  1.8232  2.6175 -2.0240
  607MOL0     H83752   0.812   4.335   2.622  0.3969 -0.1325 -0.1455
  607MOL0     H83753   0.880   4.521   2.773 -0.0739  3.8671  0.6695
  607MOL0     H83754   1.031   4.807   2.624  1.5669 -0.9980  1.5915
  607MOL0     H83755   0.909   4.942   2.620  2.7818  0.7193 -1.2095
  607MOL0     H83756   0.940   4.977   2.852  1.9303  1.5140  0.7172
  607MOL0     H83757   1.058   5.027   2.726 -0.2610  0.3268 -1.1932
  607MOL0     H83758   1.082   4.790   2.928 -3.4670  2.1720  2.7167
  607MOL0     H83759   1.203   4.845   2.811 -0.7716 -0.1388 -0.3256
  607MOL0     H83760   1.094   4.985   3.053  0.0918 -6.1660  2.4388
  607MOL0     H83761   1.207   5.069   2.935  1.0753  0.5260  0.3272
  607MOL0     H83762   1.470   4.828   3.154  0.8590  2.2942 -0.5454
  607MOL0     H83763   0.726   4.808   2.494 -0.9885  0.0050 -0.4620
  607MOL0     H83764   0.643   4.748   2.310 -0.6068 -0.5326 -0.2298
  607MOL0     H83765   0.768   4.647   2.222 -0.4608 -1.0773  0.1966
  607MOL0     H83766   0.601   4.591   2.262  1.1771 -1.4942 -0.4764
  608MOL0     O83767   5.221   6.795   8.857 -0.5159 -0.1917  0.1612
  608MOL0     C83768   5.119   6.729   8.840 -0.8576 -0.3081 -0.0627
  608MOL0     O83769   5.025   6.761   8.747 -0.2604  0.1428  0.4170
  608MOL0     C83770   5.012   6.880   8.682  0.3528  0.6908 -0.0114
  608MOL0     C83771   5.046   7.001   8.742 -0.4743 -0.3370  0.3317
  608MOL0     C83772   5.032   7.117   8.661  0.7896  0.1180 -0.1591
  608MOL0     C83773   4.990   7.117   8.531  1.1583  0.1148  0.0755
  608MOL0     O83774   4.948   7.240   8.476 -0.0628 -0.0664  0.5880
  608MOL0     C83775   5.021   7.294   8.364  0.2254 -0.3081 -0.2796
  608MOL0     C83776   5.174   7.303   8.389 -0.0610  0.2082 -0.1790
  608MOL0     C83777   5.235   7.374   8.262  0.4504  0.5936  0.3200
  608MOL0     C83778   5.372   7.435   8.273  0.6293 -0.3731  1.0451
  608MOL0     C83779   5.405   7.548   8.166  0.2743  0.0213  0.1912
  608MOL0     C83780   5.551   7.590   8.174  0.2324 -0.1145  0.2372
  608MOL0     C83781   5.585   7.709   8.087  0.2866  0.1490  0.4402
  608MOL0     C83782   5.570   7.685   7.940  0.6285  0.6922 -0.4258
  608MOL0     N83783   5.679   7.596   7.895  0.4126 -0.4357  0.9177
  608MOL0     C83784   5.813   7.621   7.882  0.3585  0.4230  0.7047
  608MOL0     C83785   5.862   7.506   7.823  0.0692 -0.8109 -0.0310
  608MOL0     C83786   6.008   7.481   7.803 -0.1483  0.6720 -0.0694
  608MOL0     C83787   6.087   7.402   7.913 -0.3492 -0.1977  0.5218
  608MOL0     C83788   6.041   7.253   7.923 -0.1762 -0.4384  0.5803
  608MOL0     C83789   6.068   7.158   7.809  0.1186  0.5290  0.7918
  608MOL0     O83790   5.983   7.041   7.818 -0.7258  0.4735  0.9242
  608MOL0     C83791   5.868   7.023   7.739 -0.0009 -0.7091  0.5330
  608MOL0     C83792   5.794   6.900   7.752  0.0592 -0.3465  0.2157
  608MOL0     C83793   5.678   6.869   7.682  0.7245  0.4404  0.4712
  608MOL0     C83794   5.605   6.731   7.690 -0.5151 -0.7042  0.9696
  608MOL0     C83795   5.625   6.971   7.593 -0.2044 -0.3387 -0.2419
  608MOL0     C83796   5.505   6.949   7.512 -0.9399  0.5306  1.5714
  608MOL0     O83797   5.396   6.904   7.577  0.0910  0.9665 -0.1644
  608MOL0     C83798   5.271   6.875   7.520  0.5195  0.3950  0.0664
  608MOL0     C83799   5.160   6.855   7.603  0.3446  0.4561 -0.1745
  608MOL0     C83800   5.030   6.839   7.561  0.2840 -0.6557 -0.3271
  608MOL0     C83801   4.996   6.841   7.424  0.6786  0.1686 -0.6693
  608MOL0     O83802   4.868   6.811   7.377  0.3079  0.1058 -0.6165
  608MOL0     C83803   4.851   6.711   7.280  0.2297  0.1357  0.0677
  608MOL0     C83804   4.788   6.596   7.344  0.1590 -0.1679  0.4367
  608MOL0     C83805   4.725   6.501   7.250  0.1006  0.0867  0.8469
  608MOL0     C83806   4.819   6.458   7.139 -0.3165 -0.5462  0.6590
  608MOL0     C83807   4.746   6.348   7.056 -0.2243  0.4578 -0.2300
  608MOL0     C83808   4.653   6.408   6.953 -0.0478 -0.2369  0.4241
  608MOL0     C83809   4.642   6.339   6.819  0.3325  0.6022  0.3094
  608MOL0     C83810   4.600   6.195   6.826  0.2799 -0.9020 -0.6049
  608MOL0    Cl83811   4.606   6.111   6.677 -0.5116  0.1633  0.3163
  608MOL0     C83812   5.103   6.871   7.335 -0.3969 -0.1765 -1.1905
  608MOL0     C83813   5.238   6.885   7.379  0.1208  1.0461 -0.6829
  608MOL0     O83814   5.514   6.963   7.389  0.1222 -0.1766  0.6303
  608MOL0     C83815   5.705   7.093   7.567 -0.0072 -0.3113 -0.0567
  608MOL0     C83816   5.818   7.118   7.642  0.5938  0.3428 -0.2815
  608MOL0     N83817   5.754   7.416   7.798  0.0175 -0.4165  0.4754
  608MOL0     N83818   5.651   7.469   7.841  0.9889 -1.0035  0.7178
  608MOL0     C83819   4.946   6.991   8.482 -0.3672 -0.0402 -0.6918
  608MOL0     C83820   4.958   6.873   8.556  0.6269  0.4640  0.1860
  608MOL0     C83821   5.073   6.628   8.939 -0.7787  0.0425 -0.3219
  608MOL0     C83822   4.953   6.558   8.913  0.0921  1.1147 -0.7954
  608MOL0     C83823   4.917   6.461   8.998  0.9527  0.0728  0.1537
  608MOL0     C83824   4.981   6.425   9.110 -0.4390 -0.5090  0.4311
  608MOL0     O83825   4.963   6.312   9.181 -0.1721  0.5764  0.6222
  608MOL0     C83826   4.836   6.252   9.193 -0.8587  0.5750 -0.2662
  608MOL0     C83827   4.847   6.140   9.301  0.4163 -0.7781  0.0863
  608MOL0     C83828   4.892   6.202   9.434  0.0619 -0.0442  0.5371
  608MOL0     C83829   4.943   6.082   9.525  0.5206  0.5236 -0.7919
  608MOL0     C83830   4.995   6.138   9.652 -0.1168  0.0281 -0.2145
  608MOL0     C83831   5.065   6.172   9.747 -0.0672 -0.2407 -0.8588
  608MOL0     C83832   5.097   6.490   9.134  0.4553 -0.1817  0.9842
  608MOL0     C83833   5.150   6.591   9.053 -0.1624  0.1268 -0.6578
  608MOL0     C83834   5.283   6.650   9.090 -0.4066 -0.0397 -0.8058
  608MOL0     H83835   5.089   7.011   8.841  0.2894  1.1326 -0.0991
  608MOL0     H83836   5.062   7.216   8.695  0.8342 -0.7110  2.4051
  608MOL0     H83837   4.976   7.391   8.340  1.9974  1.0482  1.4945
  608MOL0     H83838   4.993   7.241   8.273 -0.6020  0.2717 -0.3777
  608MOL0     H83839   5.190   7.364   8.479  1.8881 -3.7397  2.4810
  608MOL0     H83840   5.222   7.206   8.406 -1.7021 -0.7421 -0.8074
  608MOL0     H83841   5.255   7.298   8.186 -1.2958  1.0330 -0.6197
  608MOL0     H83842   5.170   7.444   8.209 -0.0738 -0.1946 -0.0890
  608MOL0     H83843   5.399   7.472   8.372 -1.0803  3.1254  0.3602
  608MOL0     H83844   5.441   7.353   8.253 -0.2913 -0.9059 -0.0622
  608MOL0     H83845   5.343   7.636   8.188  1.0801  0.7603 -0.4254
  608MOL0     H83846   5.391   7.510   8.065  5.0200 -0.8089 -0.3647
  608MOL0     H83847   5.577   7.621   8.276  0.7646  4.2210 -1.0016
  608MOL0     H83848   5.618   7.510   8.140  0.1911  0.9557 -2.5617
  608MOL0     H83849   5.692   7.729   8.096  0.6356 -0.7746 -1.2654
  608MOL0     H83850   5.528   7.796   8.122  1.4222  0.6315  1.1490
  608MOL0     H83851   5.475   7.634   7.922  1.5928 -1.5836  0.5530
  608MOL0     H83852   5.563   7.772   7.874  0.0739  1.2281  0.3223
  608MOL0     H83853   5.873   7.699   7.928  0.7692  2.0069 -2.2638
  608MOL0     H83854   6.055   7.579   7.786  2.4240 -0.3531  0.6103
  608MOL0     H83855   6.018   7.416   7.716  0.2308 -0.6118  0.9049
  608MOL0     H83856   6.195   7.403   7.895 -0.7347 -0.8776 -2.3866
  608MOL0     H83857   6.073   7.450   8.010 -1.0450  0.1413  0.2582
  608MOL0     H83858   6.103   7.213   8.004  0.5234 -1.3705 -0.3872
  608MOL0     H83859   5.936   7.261   7.954 -0.0660  3.6478  0.4761
  608MOL0     H83860   6.067   7.206   7.711 -0.9081 -0.2486  0.4020
  608MOL0     H83861   6.170   7.126   7.827 -0.1347 -3.6244 -3.4249
  608MOL0     H83862   5.824   6.816   7.812 -0.8736 -1.0028 -0.2067
  608MOL0     H83863   5.530   6.729   7.769 -0.8832 -0.3201  0.6381
  608MOL0     H83864   5.685   6.659   7.710  2.4106  1.7088 -1.0435
  608MOL0     H83865   5.565   6.703   7.592  1.1087  0.1032  0.0194
  608MOL0     H83866   5.194   6.868   7.705  1.8658 -1.4287 -0.3848
  608MOL0     H83867   4.947   6.814   7.626 -0.4388  2.1865 -0.0230
  608MOL0     H83868   4.785   6.748   7.201 -0.4815 -2.8362 -0.8675
  608MOL0     H83869   4.942   6.681   7.228  0.0700  0.5409 -0.4546
  608MOL0     H83870   4.862   6.537   7.398 -0.7080 -1.0566  0.6951
  608MOL0     H83871   4.702   6.617   7.409 -0.1138  0.7732 -0.2144
  608MOL0     H83872   4.635   6.534   7.197  0.7120 -1.2824 -1.1730
  608MOL0     H83873   4.701   6.414   7.311  1.0224  1.0871  2.7142
  608MOL0     H83874   4.902   6.410   7.192 -1.1698 -2.0121  0.7466
  608MOL0     H83875   4.851   6.545   7.081  2.9444  1.0107  4.3545
  608MOL0     H83876   4.820   6.286   7.005 -0.4916 -1.8569  1.9416
  608MOL0     H83877   4.698   6.275   7.123  1.3006  0.3782  0.8407
  608MOL0     H83878   4.671   6.513   6.927  0.3204 -0.4671 -0.2628
  608MOL0     H83879   4.551   6.410   6.994  0.7266  0.9382  2.4130
  608MOL0     H83880   4.736   6.347   6.764 -2.0009  1.9670 -3.9404
  608MOL0     H83881   4.572   6.398   6.759 -1.1891 -1.4323 -0.0396
  608MOL0     H83882   4.495   6.198   6.856  0.5688 -0.5571  0.4335
  608MOL0     H83883   4.658   6.142   6.903  1.2325  1.6593  0.5355
  608MOL0     H83884   5.083   6.879   7.228  0.2265 -3.2399 -1.6392
  608MOL0     H83885   5.310   6.887   7.297 -0.1954 -3.0239 -1.2511
  608MOL0     H83886   5.654   7.163   7.503 -1.0322 -1.6025 -0.7094
  608MOL0     H83887   5.856   7.215   7.612 -0.5646  1.0868  0.5312
  608MOL0     H83888   4.882   6.984   8.395 -2.1308 -1.7741  0.6650
  608MOL0     H83889   4.940   6.782   8.499  2.0272  0.6418 -0.5970
  608MOL0     H83890   4.890   6.576   8.826 -1.9908 -1.9918 -0.0855
  608MOL0     H83891   4.835   6.396   8.971  1.6370 -0.5026 -0.5748
  608MOL0     H83892   4.765   6.324   9.235 -0.6512  0.8526 -0.3886
  608MOL0     H83893   4.802   6.206   9.100  0.7107 -1.8187  0.2452
  608MOL0     H83894   4.935   6.083   9.271  3.2524  4.0026 -1.9089
  608MOL0     H83895   4.744   6.102   9.299 -0.3222  1.0984 -1.7966
  608MOL0     H83896   4.976   6.267   9.408  1.0450 -1.1528  0.8658
  608MOL0     H83897   4.812   6.265   9.474 -0.4535 -2.2227  3.2467
  608MOL0     H83898   5.015   6.024   9.467  0.2017 -0.4242 -0.2562
  608MOL0     H83899   4.866   6.015   9.564  0.4049  0.3165 -1.3605
  608MOL0     H83900   5.122   6.218   9.825  0.3135 -0.0885 -1.2248
  608MOL0     H83901   5.163   6.464   9.216  5.0448 -0.0062 -2.2535
  608MOL0     H83902   5.338   6.592   9.166 -0.4349  0.8366 -0.1011
  608MOL0     H83903   5.351   6.669   9.007 -2.4370 -0.6219 -2.7018
  608MOL0     H83904   5.274   6.747   9.140  0.0046 -1.6274  2.6410
  609MOL0     O83905   5.560   1.407  11.354 -0.1629 -0.4154  0.0225
  609MOL0     C83906   5.495   1.443  11.452  0.2282  1.0629 -0.7859
  609MOL0     O83907   5.540   1.436  11.581 -0.0577 -0.5322 -0.4429
  609MOL0     C83908   5.670   1.397  11.589  0.0587 -0.1530 -0.6978
  609MOL0     C83909   5.695   1.261  11.600 -0.3138  0.8704  0.3262
  609MOL0     C83910   5.822   1.216  11.585 -1.5558  0.0532  0.5071
  609MOL0     C83911   5.931   1.307  11.553  0.1137  0.1077  0.1265
  609MOL0     O83912   6.050   1.258  11.511  0.2022 -0.1637 -0.1504
  609MOL0     C83913   6.146   1.292  11.604 -1.2342 -0.4918  0.5528
  609MOL0     C83914   6.255   1.197  11.573  0.5373 -0.0423  0.1269
  609MOL0     C83915   6.355   1.167  11.681  0.5610 -0.5098  0.7454
  609MOL0     C83916   6.479   1.111  11.609 -1.4889  0.2223  0.0333
  609MOL0     C83917   6.580   1.032  11.703  0.7968  0.3646 -0.1873
  609MOL0     C83918   6.606   1.119  11.834 -1.2038 -0.4933 -0.4131
  609MOL0     C83919   6.713   1.049  11.921 -0.2740  0.6578 -0.0243
  609MOL0     C83920   6.744   1.110  12.063  0.7680  0.1685 -0.8884
  609MOL0     N83921   6.870   1.052  12.114 -0.4458  0.0021 -0.3298
  609MOL0     C83922   6.894   0.919  12.148  0.1449 -0.3158  0.0482
  609MOL0     C83923   7.018   0.913  12.207  0.7269 -1.2824 -0.9299
  609MOL0     C83924   7.087   0.796  12.269 -0.0137  0.1275 -0.0935
  609MOL0     C83925   7.229   0.779  12.241 -0.7631 -0.5215  0.3756
  609MOL0     C83926   7.259   0.763  12.090 -0.0930  0.1896  0.3929
  609MOL0     C83927   7.416   0.768  12.078 -0.3404  0.0903 -0.0573
  609MOL0     O83928   7.474   0.654  12.124  0.6717  0.2162  0.2600
  609MOL0     C83929   7.603   0.673  12.148 -0.5999  0.1037 -0.3251
  609MOL0     C83930   7.700   0.650  12.051 -0.5527  0.1381 -0.5439
  609MOL0     C83931   7.838   0.643  12.085  0.3722  0.8664 -0.3242
  609MOL0     C83932   7.936   0.623  11.977  0.5323 -0.5491 -0.1214
  609MOL0     C83933   7.877   0.658  12.222  0.1284 -0.0350 -0.3690
  609MOL0     C83934   8.027   0.672  12.262 -0.3828 -0.5426  0.3607
  609MOL0     O83935   8.120   0.620  12.184 -0.3017 -0.2912 -0.3590
  609MOL0     C83936   8.252   0.656  12.191  0.2181 -0.2576 -0.3908
  609MOL0     C83937   8.295   0.786  12.225 -0.4190 -0.1134  0.6482
  609MOL0     C83938   8.432   0.823  12.224 -0.2081 -0.4064 -0.6465
  609MOL0     C83939   8.534   0.726  12.207  0.7502  0.2889  0.0690
  609MOL0     O83940   8.669   0.749  12.206  1.0377 -0.5009 -0.3622
  609MOL0     C83941   8.726   0.860  12.273  0.2876 -0.5746 -0.3949
  609MOL0     C83942   8.716   0.868  12.424  0.8904 -0.6211  0.1648
  609MOL0     C83943   8.747   0.739  12.494  0.1871 -0.0070  0.0632
  609MOL0     C83944   8.773   0.751  12.647 -0.6801 -0.0267  0.6785
  609MOL0     C83945   8.806   0.607  12.701 -0.4923 -0.3703 -0.0053
  609MOL0     C83946   8.812   0.619  12.854 -0.0674 -0.1196  0.2933
  609MOL0     C83947   8.829   0.483  12.934 -0.9458 -0.3735 -0.6873
  609MOL0     C83948   8.966   0.415  12.906 -0.0384 -0.3171  0.1157
  609MOL0    Cl83949   9.104   0.541  12.913 -0.0255  0.5230  0.2509
  609MOL0     C83950   8.491   0.596  12.172  0.8627 -0.0255 -0.0863
  609MOL0     C83951   8.353   0.567  12.160 -0.4882 -0.8297  0.2076
  609MOL0     O83952   8.051   0.722  12.378  0.5573  0.0488  1.0585
  609MOL0     C83953   7.771   0.675  12.326  0.5187  0.9574 -0.6235
  609MOL0     C83954   7.638   0.678  12.285 -0.1537 -0.0343  0.4143
  609MOL0     N83955   7.063   1.044  12.219  0.0206  0.1147 -0.1241
  609MOL0     N83956   6.973   1.120  12.163 -0.6230  0.6011 -0.4243
  609MOL0     C83957   5.902   1.444  11.548  0.2390  0.3810 -0.4897
  609MOL0     C83958   5.769   1.489  11.570 -0.4431 -0.2020 -0.1306
  609MOL0     C83959   5.356   1.473  11.422 -0.1264 -0.3099  0.4186
  609MOL0     C83960   5.246   1.401  11.470 -1.2312 -0.6027 -0.4923
  609MOL0     C83961   5.121   1.453  11.450 -0.1488  0.6593 -0.6141
  609MOL0     C83962   5.093   1.577  11.394  0.6269 -0.7704  0.6802
  609MOL0     O83963   4.967   1.616  11.376  0.2358  0.0837 -0.1055
  609MOL0     C83964   4.857   1.528  11.410  0.2303 -0.2138 -0.2984
  609MOL0     C83965   4.728   1.591  11.364  0.0971 -0.1785 -0.3755
  609MOL0     C83966   4.712   1.619  11.214  0.3162  0.9176  0.0495
  609MOL0     C83967   4.748   1.485  11.138  0.0590  0.8635  0.1563
  609MOL0     C83968   4.702   1.494  11.003  0.2766  0.4787  0.4552
  609MOL0     C83969   4.641   1.488  10.899  0.6748 -0.5231 -0.2104
  609MOL0     C83970   5.206   1.639  11.337 -0.1419 -0.7437  0.1724
  609MOL0     C83971   5.335   1.593  11.350  0.3512 -0.1865 -0.6250
  609MOL0     C83972   5.433   1.686  11.286 -0.3103 -0.0276 -0.5346
  609MOL0     H83973   5.626   1.181  11.627  0.2816  0.6092  1.1173
  609MOL0     H83974   5.852   1.112  11.595  0.2396  0.6195  1.3934
  609MOL0     H83975   6.115   1.316  11.707 -1.2492  2.8094 -0.1002
  609MOL0     H83976   6.181   1.391  11.573  0.9525 -1.6213 -0.7722
  609MOL0     H83977   6.222   1.095  11.551  0.6892 -0.4775  1.7504
  609MOL0     H83978   6.309   1.225  11.482  2.8441 -1.8114  0.8414
  609MOL0     H83979   6.378   1.259  11.735 -0.6413 -0.0827  0.5590
  609MOL0     H83980   6.321   1.088  11.749  2.0098 -2.7569 -0.9824
  609MOL0     H83981   6.441   1.030  11.545 -1.4962 -0.3679  0.7688
  609MOL0     H83982   6.542   1.179  11.551 -0.8101  0.5846  1.1819
  609MOL0     H83983   6.673   1.011  11.650  0.3370 -0.1723 -0.7963
  609MOL0     H83984   6.527   0.939  11.728  2.0042 -0.2813  0.0511
  609MOL0     H83985   6.648   1.215  11.803  1.3300 -1.0422  1.0482
  609MOL0     H83986   6.528   1.149  11.905  2.0278  3.5542  1.9203
  609MOL0     H83987   6.808   1.050  11.867  0.2243 -1.4189  0.7146
  609MOL0     H83988   6.676   0.946  11.925  0.2169  0.5024  2.8890
  609MOL0     H83989   6.749   1.219  12.057 -0.8207  0.5538  2.4586
  609MOL0     H83990   6.663   1.072  12.126  1.3052 -2.4841 -1.6472
  609MOL0     H83991   6.818   0.844  12.129  0.0856 -0.2273 -0.0588
  609MOL0     H83992   7.028   0.707  12.245 -0.7165  1.2241 -2.7655
  609MOL0     H83993   7.091   0.821  12.375 -0.3631  0.8950 -0.2564
  609MOL0     H83994   7.273   0.871  12.280 -1.7055  0.0496  0.1328
  609MOL0     H83995   7.281   0.704  12.301  1.3643  0.1149 -0.5855
  609MOL0     H83996   7.218   0.674  12.040  2.0999  0.7776 -2.7687
  609MOL0     H83997   7.228   0.854  12.038  1.8625  1.3494  1.1288
  609MOL0     H83998   7.440   0.779  11.972  0.1066 -1.7215 -0.1808
  609MOL0     H83999   7.454   0.850  12.140 -2.8250 -0.7976  2.9013
  609MOL0     H84000   7.661   0.616  11.956  1.0811 -1.1628 -0.7935
  609MOL0     H84001   8.003   0.537  11.990 -0.1902 -1.6113 -2.6222
  609MOL0     H84002   8.000   0.711  11.965  0.9627 -0.5790  1.6935
  609MOL0     H84003   7.878   0.590  11.890  2.9264 -1.1456 -1.6208
  609MOL0     H84004   8.221   0.863  12.242  0.8185  1.4652 -0.8182
  609MOL0     H84005   8.445   0.930  12.237 -1.3470 -0.3914  0.7309
  609MOL0     H84006   8.833   0.869  12.253 -0.1372 -1.4170 -3.4897
  609MOL0     H84007   8.700   0.957  12.230  2.1155 -0.3775 -1.1311
  609MOL0     H84008   8.782   0.949  12.453 -1.1613  0.7293  1.2880
  609MOL0     H84009   8.614   0.902  12.446  1.7546  1.4583  1.1467
  609MOL0     H84010   8.830   0.687  12.446  0.3652  0.6098 -0.3094
  609MOL0     H84011   8.674   0.659  12.484  0.4818 -0.2769  0.0549
  609MOL0     H84012   8.685   0.795  12.695  0.7454  2.1209  1.5300
  609MOL0     H84013   8.854   0.821  12.673 -0.6960 -0.1764  1.1456
  609MOL0     H84014   8.744   0.529  12.658 -0.5381  0.7849 -2.1846
  609MOL0     H84015   8.910   0.579  12.681 -0.2669  0.3551  0.1212
  609MOL0     H84016   8.712   0.650  12.885 -0.0306  0.5636 -0.2569
  609MOL0     H84017   8.891   0.688  12.885  0.1054 -0.8785  1.6071
  609MOL0     H84018   8.757   0.409  12.898  2.4404 -2.5573 -3.6629
  609MOL0     H84019   8.814   0.501  13.041  0.7483  1.8678 -0.7429
  609MOL0     H84020   8.962   0.379  12.803  0.0196  0.5370 -0.1897
  609MOL0     H84021   8.971   0.330  12.975 -0.8528 -0.0004  0.5756
  609MOL0     H84022   8.570   0.525  12.154  2.4864  2.1124 -2.0048
  609MOL0     H84023   8.322   0.467  12.131 -1.6676 -0.4552  0.1181
  609MOL0     H84024   7.801   0.684  12.430  3.8764  1.3144 -1.5048
  609MOL0     H84025   7.563   0.690  12.363  0.4895 -0.1403  1.0536
  609MOL0     H84026   5.986   1.508  11.521 -0.5904  1.6654 -0.1180
  609MOL0     H84027   5.738   1.592  11.554  0.0009 -0.0644 -0.1204
  609MOL0     H84028   5.268   1.306  11.519  1.7415  0.7382  1.0168
  609MOL0     H84029   5.041   1.390  11.489  1.2105 -1.2584 -0.7870
  609MOL0     H84030   4.866   1.429  11.364 -0.2079  0.3044 -1.5318
  609MOL0     H84031   4.858   1.514  11.519  2.7489 -1.4415 -0.4205
  609MOL0     H84032   4.714   1.689  11.411 -0.8781 -0.0647 -0.8644
  609MOL0     H84033   4.642   1.527  11.385 -0.1242  0.3509  0.3820
  609MOL0     H84034   4.609   1.638  11.182  0.4384 -0.2183 -1.1156
  609MOL0     H84035   4.785   1.690  11.174 -1.7240  2.0721 -1.8747
  609MOL0     H84036   4.691   1.405  11.185  2.1625 -0.0996  1.1870
  609MOL0     H84037   4.855   1.461  11.140 -0.5274 -2.5592 -1.6182
  609MOL0     H84038   4.575   1.481  10.815  0.5021 -1.8553  0.0216
  609MOL0     H84039   5.184   1.729  11.280 -0.3577 -1.7565 -1.4118
  609MOL0     H84040   5.530   1.637  11.295 -1.4098 -2.4873 -1.0606
  609MOL0     H84041   5.398   1.712  11.185 -5.2045  0.5917  1.0559
  609MOL0     H84042   5.442   1.780  11.341  1.6383  0.0306 -0.8724
  610MOL0     O84043   8.038   8.346   8.921  0.0770 -0.2741 -0.0025
  610MOL0     C84044   8.080   8.411   9.016  1.1010  0.3491  0.4315
  610MOL0     O84045   8.137   8.353   9.128 -0.6742 -0.3000 -0.0255
  610MOL0     C84046   8.107   8.228   9.172 -0.0232 -0.5472  1.0090
  610MOL0     C84047   8.199   8.161   9.255  0.7997  0.2776 -0.2448
  610MOL0     C84048   8.160   8.037   9.310  0.5730 -1.2225 -0.3960
  610MOL0     C84049   8.047   7.970   9.284  0.0198 -0.0890 -0.1076
  610MOL0     O84050   8.019   7.849   9.338  0.3033  0.2994 -0.4948
  610MOL0     C84051   7.997   7.756   9.235 -0.9801 -0.4003  0.5677
  610MOL0     C84052   8.073   7.620   9.256 -0.1869 -0.7705 -0.5845
  610MOL0     C84053   8.228   7.651   9.272  0.2639 -0.0734 -0.0681
  610MOL0     C84054   8.308   7.524   9.262  0.5687 -1.2023 -0.3522
  610MOL0     C84055   8.456   7.558   9.302  0.1884 -0.4183 -0.1520
  610MOL0     C84056   8.548   7.438   9.306  0.2667 -0.0621 -0.1096
  610MOL0     C84057   8.684   7.497   9.323  0.6610  0.2061 -0.5083
  610MOL0     C84058   8.780   7.388   9.370 -0.1094  0.2295 -0.5944
  610MOL0     N84059   8.910   7.447   9.342 -0.5934  0.4226 -0.1276
  610MOL0     C84060   8.996   7.523   9.435  0.8297  0.7747 -0.0477
  610MOL0     C84061   9.093   7.575   9.362  0.5161 -0.0436  0.2852
  610MOL0     C84062   9.211   7.652   9.415 -0.2544  0.2521  0.0093
  610MOL0     C84063   9.311   7.563   9.480 -0.5677  0.1543 -0.4056
  610MOL0     C84064   9.358   7.449   9.379 -0.0600 -0.0010 -0.3105
  610MOL0     C84065   9.470   7.372   9.444  0.2155  0.9446  0.8826
  610MOL0     O84066   9.488   7.257   9.375  0.1293  0.2377  0.2715
  610MOL0     C84067   9.611   7.187   9.393 -0.5912 -0.3597 -0.9090
  610MOL0     C84068   9.706   7.205   9.499 -0.2942 -0.1166  0.4205
  610MOL0     C84069   9.814   7.129   9.515 -0.7844 -0.0543  0.9795
  610MOL0     C84070   9.906   7.156   9.638 -0.0513  0.1941  0.0045
  610MOL0     C84071   9.841   7.021   9.419  1.0523  0.1390  0.9604
  610MOL0     C84072   9.960   6.927   9.423  0.6056  0.3653 -0.9294
  610MOL0     O84073  10.045   6.915   9.534 -0.1532  1.1472 -0.8105
  610MOL0     C84074  10.133   6.805   9.535  0.3626  0.6234 -0.4343
  610MOL0     C84075  10.270   6.815   9.524  0.7724  0.8574  0.1768
  610MOL0     C84076  10.344   6.698   9.530 -0.2444 -0.2153  0.0995
  610MOL0     C84077  10.290   6.576   9.563 -1.3706 -0.4383 -0.2985
  610MOL0     O84078  10.372   6.469   9.580  0.8399 -0.0699 -0.7329
  610MOL0     C84079  10.327   6.335   9.550  0.1472 -0.0112  0.0876
  610MOL0     C84080  10.435   6.259   9.481  0.0451  1.6702  0.4700
  610MOL0     C84081  10.390   6.116   9.444 -0.0251  0.6874 -0.1638
  610MOL0     C84082  10.435   6.096   9.293  0.6564  0.0593  0.1198
  610MOL0     C84083  10.393   5.957   9.243  0.2263 -0.7459  0.1451
  610MOL0     C84084  10.405   5.929   9.087 -0.1489 -1.0075 -0.3559
  610MOL0     C84085  10.301   5.976   8.993  0.1749 -0.1525  0.3960
  610MOL0     C84086  10.330   5.912   8.854  0.5431 -0.3327 -0.2304
  610MOL0    Cl84087  10.462   5.988   8.761 -0.0991 -0.2683  0.2041
  610MOL0     C84088  10.154   6.566   9.579  0.3150 -0.3294 -0.2525
  610MOL0     C84089  10.073   6.677   9.563 -0.3045 -0.2030 -0.4584
  610MOL0     O84090   9.975   6.861   9.318 -0.3166 -0.2514  0.5216
  610MOL0     C84091   9.749   6.998   9.312  0.0166 -0.1224 -0.4502
  610MOL0     C84092   9.634   7.080   9.312  0.0516  0.4830 -0.2782
  610MOL0     N84093   9.074   7.526   9.234 -0.1425 -1.1843 -0.4404
  610MOL0     N84094   8.965   7.459   9.224 -0.0241  0.1545  0.0052
  610MOL0     C84095   7.949   8.038   9.211 -0.1898  0.9227  0.2858
  610MOL0     C84096   7.979   8.171   9.161  1.4071 -0.6311 -0.0165
  610MOL0     C84097   8.080   8.555   8.992 -0.4815  0.2365 -0.6068
  610MOL0     C84098   8.195   8.622   9.043 -0.2548 -0.9023  0.1560
  610MOL0     C84099   8.200   8.760   9.036  0.2373  0.4146  0.7092
  610MOL0     C84100   8.103   8.831   8.963 -0.1635  0.3897 -0.8128
  610MOL0     O84101   8.088   8.964   8.961 -0.1698 -0.1909 -0.2226
  610MOL0     C84102   8.161   9.047   9.052  0.2783 -0.3927 -0.3131
  610MOL0     C84103   8.098   9.076   9.189  0.5037  0.2064  0.0887
  610MOL0     C84104   7.946   9.110   9.167  0.1349 -0.2241 -0.4456
  610MOL0     C84105   7.875   9.147   9.295 -0.1674  0.7110 -0.0489
  610MOL0     C84106   7.878   9.019   9.364  0.1147  0.7389 -0.1108
  610MOL0     C84107   7.864   8.903   9.401 -0.7810 -0.8471  0.2933
  610MOL0     C84108   7.998   8.756   8.905  0.1382 -0.4979 -0.3871
  610MOL0     C84109   7.982   8.623   8.922  0.0477 -0.1387  0.6747
  610MOL0     C84110   7.847   8.563   8.881  0.9501 -0.4019 -0.5079
  610MOL0     H84111   8.299   8.202   9.269  0.6212  0.1243  1.7947
  610MOL0     H84112   8.234   7.990   9.375 -0.3175  0.2246  1.7720
  610MOL0     H84113   8.023   7.791   9.134  0.2508  0.7393  1.2458
  610MOL0     H84114   7.890   7.731   9.240 -1.5237  1.8708  1.7267
  610MOL0     H84115   8.034   7.569   9.345  0.0930 -1.0706 -0.6310
  610MOL0     H84116   8.049   7.558   9.169  0.4998 -0.0762 -1.2839
  610MOL0     H84117   8.253   7.714   9.186  3.8083  0.1521  0.9923
  610MOL0     H84118   8.247   7.701   9.367  1.9047  1.3189 -1.0755
  610MOL0     H84119   8.274   7.443   9.327  2.1666 -0.6685  1.2191
  610MOL0     H84120   8.306   7.487   9.159 -2.3656  0.1015 -0.8490
  610MOL0     H84121   8.466   7.600   9.403  0.8596  2.7137 -1.3814
  610MOL0     H84122   8.501   7.633   9.236  2.0900 -2.3177 -1.1468
  610MOL0     H84123   8.513   7.371   9.385 -0.6478 -1.2254 -1.4510
  610MOL0     H84124   8.540   7.381   9.213 -0.6423 -0.2583  0.0748
  610MOL0     H84125   8.692   7.570   9.404  3.2762  1.4834 -1.7775
  610MOL0     H84126   8.718   7.535   9.226 -1.2293 -2.2063 -2.2429
  610MOL0     H84127   8.765   7.365   9.476 -0.6044  0.3087 -0.6418
  610MOL0     H84128   8.761   7.300   9.308  2.9037  0.3887 -1.8643
  610MOL0     H84129   8.984   7.531   9.543  0.2048  0.6524 -0.1055
  610MOL0     H84130   9.176   7.727   9.487  1.8811  0.1498  1.2406
  610MOL0     H84131   9.250   7.698   9.323  0.4422 -0.0444  0.1472
  610MOL0     H84132   9.398   7.623   9.507 -0.9522  1.7761 -2.5135
  610MOL0     H84133   9.267   7.522   9.571  1.7602  0.6904  1.0518
  610MOL0     H84134   9.282   7.371   9.369  0.4208 -0.3934 -1.0131
  610MOL0     H84135   9.388   7.484   9.280  1.8410 -1.6910 -0.3894
  610MOL0     H84136   9.561   7.433   9.445  0.8338  0.0925 -0.3090
  610MOL0     H84137   9.442   7.333   9.542  3.7939 -5.8452 -0.1282
  610MOL0     H84138   9.692   7.291   9.563  1.9828 -0.0373  0.8652
  610MOL0     H84139   9.848   7.206   9.716 -0.4928 -1.7444  0.9886
  610MOL0     H84140   9.997   7.213   9.616 -0.4619  0.6721 -0.4757
  610MOL0     H84141   9.939   7.063   9.685 -0.0076  0.5215  0.6367
  610MOL0     H84142  10.328   6.903   9.501  4.7844 -2.1614 -2.7474
  610MOL0     H84143  10.452   6.701   9.519 -0.0994  0.5965  1.5208
  610MOL0     H84144  10.319   6.276   9.642  1.4256 -1.1851 -0.5189
  610MOL0     H84145  10.233   6.325   9.496 -3.3413  1.7450  5.1212
  610MOL0     H84146  10.448   6.305   9.383 -2.1795 -1.2441 -1.3796
  610MOL0     H84147  10.525   6.262   9.543 -0.5582  1.2699  1.3928
  610MOL0     H84148  10.283   6.101   9.458  0.4352 -2.0609  1.2067
  610MOL0     H84149  10.442   6.039   9.503 -1.1999  0.2975  0.3839
  610MOL0     H84150  10.543   6.112   9.289  0.6926 -0.0082  0.6618
  610MOL0     H84151  10.393   6.173   9.229  1.6927  0.3210 -0.2772
  610MOL0     H84152  10.462   5.890   9.296  2.8606  2.6135  1.3186
  610MOL0     H84153  10.293   5.933   9.280 -0.2573 -1.2421 -1.3927
  610MOL0     H84154  10.416   5.820   9.094  3.4854 -0.7374 -0.3851
  610MOL0     H84155  10.504   5.958   9.051  0.6046 -0.9159  1.6855
  610MOL0     H84156  10.302   6.085   8.986  0.2577 -0.0521  1.6677
  610MOL0     H84157  10.205   5.951   9.038  0.4588 -1.0660  0.5074
  610MOL0     H84158  10.237   5.911   8.797  0.5013 -1.3392 -0.1569
  610MOL0     H84159  10.356   5.806   8.861 -0.1528 -0.4434  1.1384
  610MOL0     H84160  10.099   6.478   9.609  0.0039 -0.0586 -0.0289
  610MOL0     H84161   9.969   6.670   9.592 -0.0363 -3.5743  0.0858
  610MOL0     H84162   9.782   6.924   9.240  1.9610 -0.0579  0.3191
  610MOL0     H84163   9.572   7.063   9.224  0.4746 -1.3128 -0.2593
  610MOL0     H84164   7.852   7.988   9.202  0.3721 -0.2457  0.5169
  610MOL0     H84165   7.901   8.231   9.115  1.9674  0.4997  0.4700
  610MOL0     H84166   8.279   8.571   9.090 -1.0919 -1.2034  1.3843
  610MOL0     H84167   8.274   8.805   9.102  1.9872 -2.6598  1.0283
  610MOL0     H84168   8.264   9.018   9.075  0.7066  2.7318  2.5281
  610MOL0     H84169   8.173   9.146   9.007 -0.0500 -0.3817 -0.3851
  610MOL0     H84170   8.159   9.158   9.229 -0.0747  0.9985 -0.6004
  610MOL0     H84171   8.108   8.984   9.246  2.5883 -1.8327 -3.2144
  610MOL0     H84172   7.937   9.197   9.102  1.3900  0.2749  0.0133
  610MOL0     H84173   7.896   9.025   9.119 -1.1273  0.9718 -1.3235
  610MOL0     H84174   7.771   9.171   9.268 -0.6458  0.5687  1.5507
  610MOL0     H84175   7.932   9.227   9.344  1.7073  1.1350 -2.7300
  610MOL0     H84176   7.865   8.802   9.435 -1.3970 -0.3133  2.0212
  610MOL0     H84177   7.916   8.811   8.860 -0.4837  0.6606  1.9673
  610MOL0     H84178   7.795   8.552   8.977 -1.8831  5.6634 -0.8780
  610MOL0     H84179   7.779   8.620   8.817 -2.8521 -4.1564 -0.1735
  610MOL0     H84180   7.857   8.477   8.816 -1.4373 -0.1957 -1.2452
  611MOL0     O84181   0.850   1.292   0.222 -0.5550  0.3692 -0.1118
  611MOL0     C84182   0.948   1.354   0.254 -0.0568  0.2093 -0.2882
  611MOL0     O84183   1.066   1.349   0.193  0.0339 -0.4749 -0.0179
  611MOL0     C84184   1.090   1.282   0.074  0.0480  0.5102  1.2223
  611MOL0     C84185   1.199   1.190   0.054  0.8426 -1.0867 -0.1694
  611MOL0     C84186   1.206   1.097  -0.046 -0.4873 -0.0837  0.8321
  611MOL0     C84187   1.105   1.098  -0.149  0.2598  0.2643 -0.1728
  611MOL0     O84188   1.116   1.008  -0.253  0.3379  0.6470  0.1891
  611MOL0     C84189   1.060   1.043  -0.380  0.1186  0.2540  0.6946
  611MOL0     C84190   1.097   0.961  -0.505  0.0583 -0.6722  0.4485
  611MOL0     C84191   1.019   0.830  -0.504  0.1599 -0.0276  0.0907
  611MOL0     C84192   1.068   0.733  -0.612 -0.0271  1.0589 -0.3703
  611MOL0     C84193   0.975   0.616  -0.635 -0.6676 -0.7593 -0.0118
  611MOL0     C84194   1.039   0.484  -0.692  0.4226 -1.8014 -0.7121
  611MOL0     C84195   0.931   0.393  -0.740  0.2163 -0.0466 -1.2511
  611MOL0     C84196   0.985   0.262  -0.801  0.6962 -0.0353  0.0137
  611MOL0     N84197   0.874   0.173  -0.838 -0.2733  0.2502 -0.1949
  611MOL0     C84198   0.797   0.086  -0.758 -0.5971 -0.4588 -0.4633
  611MOL0     C84199   0.703   0.037  -0.854  0.1596  0.6791  0.2120
  611MOL0     C84200   0.567  -0.033  -0.835  0.2613 -0.5286 -1.0800
  611MOL0     C84201   0.490   0.030  -0.720 -0.4024 -0.4345 -0.0598
  611MOL0     C84202   0.365  -0.053  -0.698 -0.3820  0.1439 -0.8841
  611MOL0     C84203   0.277   0.011  -0.589 -0.0033  0.1176 -1.5143
  611MOL0     O84204   0.134  -0.020  -0.600 -0.4399  0.4151 -0.7839
  611MOL0     C84205   0.061  -0.098  -0.522  0.1634 -0.2047 -1.2706
  611MOL0     C84206   0.107  -0.176  -0.411  0.1254 -0.2994 -0.1099
  611MOL0     C84207   0.022  -0.264  -0.342  0.7799 -0.5226 -1.0252
  611MOL0     C84208   0.088  -0.345  -0.231 -0.4678 -0.3460 -0.4971
  611MOL0     C84209  -0.109  -0.292  -0.389  0.1077  0.7119  0.3600
  611MOL0     C84210  -0.209  -0.370  -0.315  0.3640 -0.5905  0.5539
  611MOL0     O84211  -0.198  -0.387  -0.181  0.5014 -0.8151 -0.9421
  611MOL0     C84212  -0.301  -0.430  -0.106 -0.4883  0.0209 -0.5523
  611MOL0     C84213  -0.277  -0.517  -0.003  0.1281  0.1472  0.1692
  611MOL0     C84214  -0.375  -0.554   0.086  0.3562 -0.9219 -0.2233
  611MOL0     C84215  -0.508  -0.506   0.068 -0.3160  0.9884 -0.2393
  611MOL0     O84216  -0.603  -0.544   0.159 -0.8105  0.2327  0.3737
  611MOL0     C84217  -0.717  -0.463   0.178 -0.0055  0.1081  0.0445
  611MOL0     C84218  -0.839  -0.536   0.118 -0.0760 -1.0171 -0.8138
  611MOL0     C84219  -0.901  -0.618   0.235  0.5996 -0.5021 -0.3253
  611MOL0     C84220  -1.043  -0.670   0.195  0.4675  0.7459  0.2838
  611MOL0     C84221  -1.101  -0.745   0.318  0.1180 -0.2453  0.0249
  611MOL0     C84222  -1.247  -0.769   0.276  0.8180 -0.7112 -0.1640
  611MOL0     C84223  -1.335  -0.809   0.399  0.3068  0.2636 -0.7825
  611MOL0     C84224  -1.306  -0.957   0.453 -0.0636 -1.1536 -0.6645
  611MOL0    Cl84225  -1.434  -0.985   0.575  0.0735 -0.2280 -0.0733
  611MOL0     C84226  -0.530  -0.421  -0.041  0.1668  0.2186  0.6937
  611MOL0     C84227  -0.428  -0.372  -0.126 -0.6076 -0.2030 -1.0213
  611MOL0     O84228  -0.299  -0.412  -0.387  0.3222  0.2621  0.4310
  611MOL0     C84229  -0.150  -0.219  -0.502 -0.0502  0.8189  0.4609
  611MOL0     C84230  -0.066  -0.127  -0.567  0.8029  0.4699  0.0259
  611MOL0     N84231   0.745   0.086  -0.973  0.5546 -0.3724  0.0934
  611MOL0     N84232   0.834   0.179  -0.967  0.5137 -0.4496 -1.0372
  611MOL0     C84233   1.004   1.200  -0.138  0.2058  0.0763  0.0005
  611MOL0     C84234   0.996   1.285  -0.024 -0.1012  0.5046 -0.1069
  611MOL0     C84235   0.939   1.454   0.357 -0.3391 -0.0230  0.0274
  611MOL0     C84236   0.994   1.578   0.335 -0.2017 -0.9138  0.3220
  611MOL0     C84237   0.984   1.687   0.417 -0.2497  1.0109 -0.2364
  611MOL0     C84238   0.932   1.673   0.543 -0.1789  0.2090  0.3305
  611MOL0     O84239   0.898   1.783   0.620 -0.5207  0.0850 -0.5195
  611MOL0     C84240   0.893   1.782   0.764  0.1380  0.2808  1.0389
  611MOL0     C84241   1.030   1.808   0.814  0.5365  0.0876 -0.0585
  611MOL0     C84242   1.074   1.958   0.816  0.0177  0.4956 -0.3693
  611MOL0     C84243   1.097   2.018   0.679 -0.1300 -0.1604  0.2271
  611MOL0     C84244   1.219   1.975   0.612 -0.9687  0.5373 -0.2917
  611MOL0     C84245   1.314   1.935   0.545  0.7930 -0.4816  0.2347
  611MOL0     C84246   0.869   1.547   0.572  0.2227  0.7420 -0.1694
  611MOL0     C84247   0.872   1.439   0.476  0.7596  0.3894 -0.0421
  611MOL0     C84248   0.794   1.318   0.507  0.1998  1.4551  0.1949
  611MOL0     H84249   1.270   1.183   0.135 -0.6804 -2.1011  1.1580
  611MOL0     H84250   1.291   1.030  -0.036 -0.3361 -0.0536 -0.1952
  611MOL0     H84251   1.114   1.136  -0.400  1.5676 -0.2805  1.9776
  611MOL0     H84252   0.953   1.063  -0.392 -0.6785 -2.3247  2.5716
  611MOL0     H84253   1.069   1.018  -0.594 -3.0977  0.6776  2.1320
  611MOL0     H84254   1.203   0.936  -0.500  0.2944 -0.2016 -1.5711
  611MOL0     H84255   1.016   0.767  -0.414  2.7491 -1.2738 -0.5757
  611MOL0     H84256   0.917   0.854  -0.533  0.8873  1.3483 -1.4671
  611MOL0     H84257   1.071   0.779  -0.711  1.1109  2.3659  0.2545
  611MOL0     H84258   1.170   0.705  -0.585  0.5160  2.2969 -1.1012
  611MOL0     H84259   0.895   0.666  -0.690 -1.4890 -0.2918  1.5339
  611MOL0     H84260   0.921   0.583  -0.546 -0.7143 -0.5137  0.0498
  611MOL0     H84261   1.098   0.510  -0.781  1.6766  2.8395  1.1598
  611MOL0     H84262   1.104   0.438  -0.617  0.5476 -0.2331  0.1740
  611MOL0     H84263   0.872   0.453  -0.809  0.2685  1.6698  0.1344
  611MOL0     H84264   0.864   0.369  -0.657  1.4028 -1.9840 -0.7638
  611MOL0     H84265   1.044   0.286  -0.890  1.0519 -2.0228 -0.3484
  611MOL0     H84266   1.057   0.216  -0.733 -1.4362  0.2205  2.6086
  611MOL0     H84267   0.797   0.081  -0.650  0.2325  1.5523 -0.3355
  611MOL0     H84268   0.579  -0.141  -0.819  0.6191 -0.3267  0.1315
  611MOL0     H84269   0.506  -0.014  -0.924  1.4437  0.7512 -1.6572
  611MOL0     H84270   0.544   0.030  -0.625 -3.3701 -3.4337  1.8854
  611MOL0     H84271   0.465   0.132  -0.748  1.7450  0.1163 -0.1603
  611MOL0     H84272   0.307  -0.050  -0.791 -1.0750  0.9545 -0.4421
  611MOL0     H84273   0.396  -0.157  -0.680 -3.7924 -1.1142 -1.5908
  611MOL0     H84274   0.300  -0.027  -0.489  0.2622  1.1087 -1.1917
  611MOL0     H84275   0.286   0.120  -0.584 -1.5087  0.2297  2.2491
  611MOL0     H84276   0.213  -0.170  -0.388  0.4993 -1.7003 -1.3739
  611MOL0     H84277   0.054  -0.312  -0.133  0.4312 -1.7058  0.2963
  611MOL0     H84278   0.196  -0.324  -0.235 -0.5269  0.8705  2.1682
  611MOL0     H84279   0.087  -0.454  -0.243  0.4850 -0.3031 -1.0875
  611MOL0     H84280  -0.179  -0.562   0.007  0.8989  2.0641  2.1315
  611MOL0     H84281  -0.352  -0.623   0.168  0.9916 -2.4941 -1.6669
  611MOL0     H84282  -0.724  -0.428   0.281 -1.6327  0.3364 -0.1139
  611MOL0     H84283  -0.708  -0.367   0.127 -0.3600 -1.4751 -3.2711
  611MOL0     H84284  -0.917  -0.466   0.086 -0.9860 -2.1138 -1.0492
  611MOL0     H84285  -0.809  -0.595   0.030  2.8140 -1.2091  0.1925
  611MOL0     H84286  -0.907  -0.565   0.330  0.8292 -3.9000  1.7793
  611MOL0     H84287  -0.832  -0.702   0.251  0.6384 -0.4581 -0.2619
  611MOL0     H84288  -1.039  -0.730   0.104 -1.9803  0.1683  0.4972
  611MOL0     H84289  -1.111  -0.585   0.183  1.4534  1.7348  1.3353
  611MOL0     H84290  -1.064  -0.840   0.358  0.9341  0.3340  0.6799
  611MOL0     H84291  -1.096  -0.675   0.402  0.0784  0.3902 -0.4875
  611MOL0     H84292  -1.258  -0.848   0.201 -0.8841 -2.1629  1.5141
  611MOL0     H84293  -1.292  -0.684   0.223  0.4392 -0.4748  0.5344
  611MOL0     H84294  -1.435  -0.822   0.355  0.1947 -2.2067  0.0333
  611MOL0     H84295  -1.329  -0.730   0.474  1.5214  0.5394 -1.1455
  611MOL0     H84296  -1.210  -0.941   0.501 -0.3867  1.0524 -0.6301
  611MOL0     H84297  -1.309  -1.025   0.368 -1.0377  0.0819 -1.6755
  611MOL0     H84298  -0.625  -0.371  -0.058 -0.0635 -0.1262  0.9520
  611MOL0     H84299  -0.448  -0.293  -0.198 -3.5889 -0.8581 -1.0690
  611MOL0     H84300  -0.256  -0.223  -0.526 -0.0493  2.8949 -0.1482
  611MOL0     H84301  -0.121  -0.064  -0.636 -0.2422  1.5265  1.7592
  611MOL0     H84302   0.914   1.195  -0.199 -1.5033 -1.2878  2.4309
  611MOL0     H84303   0.913   1.353  -0.015  1.5645  2.9490 -1.9493
  611MOL0     H84304   1.053   1.599   0.246 -0.4336 -1.1425  0.1087
  611MOL0     H84305   1.030   1.783   0.395 -0.7906  1.8623  2.0828
  611MOL0     H84306   0.832   1.866   0.798 -1.4530 -0.5821  0.4174
  611MOL0     H84307   0.850   1.692   0.807  1.1511 -0.2014  1.0821
  611MOL0     H84308   1.096   1.740   0.760  0.5296  1.2310 -1.5682
  611MOL0     H84309   1.037   1.778   0.919  0.4183 -1.9947 -0.5958
  611MOL0     H84310   0.996   2.019   0.862 -0.6806  1.1874 -2.3760
  611MOL0     H84311   1.168   1.957   0.872  1.4113  1.5900 -2.5456
  611MOL0     H84312   1.089   2.127   0.684 -0.4053 -0.1099 -0.9875
  611MOL0     H84313   1.023   1.997   0.602  1.4850  2.9682 -2.4094
  611MOL0     H84314   1.399   1.894   0.495 -0.4147 -0.6913 -1.7467
  611MOL0     H84315   0.813   1.528   0.663 -1.8297  0.2216 -1.4775
  611MOL0     H84316   0.852   1.230   0.537  2.3846  1.9960 -2.0252
  611MOL0     H84317   0.723   1.356   0.581 -1.8975  1.9557 -1.9566
  611MOL0     H84318   0.729   1.293   0.422 -0.0951 -1.8711  1.2367
  612MOL0     O84319   1.467   0.064   4.307  0.0758  0.0220 -0.3608
  612MOL0     C84320   1.353   0.048   4.258 -0.7556  0.1484  0.4144
  612MOL0     O84321   1.279   0.140   4.190  0.1317 -0.5597  0.7239
  612MOL0     C84322   1.290   0.268   4.222 -0.5481 -0.2410 -0.0461
  612MOL0     C84323   1.249   0.358   4.125 -0.2604 -0.4029  0.7025
  612MOL0     C84324   1.232   0.497   4.150 -0.5805  0.2632  0.2043
  612MOL0     C84325   1.249   0.547   4.281  0.2083 -0.5887  0.1414
  612MOL0     O84326   1.225   0.682   4.297  0.2985  0.9165  0.1656
  612MOL0     C84327   1.288   0.748   4.414 -0.6287  0.0432 -0.3954
  612MOL0     C84328   1.445   0.774   4.392  0.1984 -0.5319 -0.2770
  612MOL0     C84329   1.468   0.890   4.289 -0.9445 -0.8526  0.7615
  612MOL0     C84330   1.566   0.869   4.175 -0.5838 -0.1044 -0.2161
  612MOL0     C84331   1.713   0.865   4.234  0.6156 -0.1311  0.3514
  612MOL0     C84332   1.807   0.811   4.121 -0.8101  0.3857  0.2948
  612MOL0     C84333   1.948   0.774   4.173  0.4396 -0.3274  0.3567
  612MOL0     C84334   2.030   0.747   4.051  0.8051 -0.1181 -0.2557
  612MOL0     N84335   2.163   0.704   4.088 -0.3465 -0.5852  0.1852
  612MOL0     C84336   2.267   0.796   4.105  0.7139  0.0415  0.4039
  612MOL0     C84337   2.371   0.709   4.110  0.4254  0.2345 -0.0534
  612MOL0     C84338   2.518   0.737   4.137 -0.0493  0.2433 -0.6524
  612MOL0     C84339   2.552   0.701   4.285  0.1090 -0.6805 -0.2565
  612MOL0     C84340   2.679   0.775   4.325  0.8751  0.2212 -0.0473
  612MOL0     C84341   2.646   0.929   4.336 -0.6879 -0.2550  0.2909
  612MOL0     O84342   2.699   0.972   4.465 -0.4438  0.6210  0.3853
  612MOL0     C84343   2.831   0.987   4.485  0.1104  0.2775  0.2112
  612MOL0     C84344   2.935   0.972   4.392 -0.3871  0.1080  0.2869
  612MOL0     C84345   3.077   0.979   4.421  0.6255 -0.5827  0.1684
  612MOL0     C84346   3.180   0.951   4.307 -0.2661  0.5432  0.8175
  612MOL0     C84347   3.112   1.022   4.553  0.2919  0.3150 -0.4535
  612MOL0     C84348   3.244   1.047   4.607 -0.9850  0.7894  1.6254
  612MOL0     O84349   3.355   1.019   4.532 -0.4452  0.6404  0.0685
  612MOL0     C84350   3.475   0.988   4.592 -0.5764 -0.1116 -0.3847
  612MOL0     C84351   3.548   1.086   4.655  0.1273  0.1071 -0.8591
  612MOL0     C84352   3.677   1.061   4.706 -1.1822  0.6003  0.2587
  612MOL0     C84353   3.729   0.927   4.707  0.0129  0.0397  0.1380
  612MOL0     O84354   3.849   0.885   4.755 -0.1490  0.1426 -0.1596
  612MOL0     C84355   3.957   0.975   4.761 -0.4770 -0.8731 -0.0510
  612MOL0     C84356   3.971   1.076   4.880  0.2631 -0.2902  0.2210
  612MOL0     C84357   4.111   1.105   4.916 -0.6166  0.2705 -0.1999
  612MOL0     C84358   4.135   1.104   5.065 -0.2019 -0.0716  0.6024
  612MOL0     C84359   4.037   1.197   5.141 -0.9212 -0.2424 -0.1119
  612MOL0     C84360   4.111   1.264   5.254  0.1577 -0.8746 -0.2381
  612MOL0     C84361   4.006   1.334   5.352 -0.5298 -0.0568  0.3954
  612MOL0     C84362   4.061   1.459   5.430 -0.4868  1.0176  0.2735
  612MOL0    Cl84363   4.048   1.606   5.331 -0.2179 -0.1755 -0.4730
  612MOL0     C84364   3.650   0.826   4.656 -0.3188  0.2943 -0.3308
  612MOL0     C84365   3.529   0.857   4.589  0.9278  0.2888  0.1996
  612MOL0     O84366   3.246   1.088   4.722 -0.4206  0.2945  0.1961
  612MOL0     C84367   3.001   1.041   4.648 -0.2372 -0.1020  0.5336
  612MOL0     C84368   2.873   1.023   4.609  0.1250  0.1310  0.4254
  612MOL0     N84369   2.330   0.582   4.096  0.5676  0.3904 -0.3060
  612MOL0     N84370   2.205   0.582   4.073 -0.4343  0.8251 -0.0035
  612MOL0     C84371   1.289   0.460   4.383 -0.2232  0.1716  0.5969
  612MOL0     C84372   1.315   0.323   4.353  0.1006  0.5630  0.4075
  612MOL0     C84373   1.282  -0.081   4.291 -0.0861  0.1954 -0.1733
  612MOL0     C84374   1.155  -0.099   4.233 -0.8572 -0.1384 -0.0576
  612MOL0     C84375   1.072  -0.207   4.251  0.2274 -0.5912  0.1603
  612MOL0     C84376   1.120  -0.308   4.327  0.6126  0.2705  0.0504
  612MOL0     O84377   1.048  -0.428   4.331  0.1180  0.2640  0.3620
  612MOL0     C84378   0.984  -0.476   4.453  0.8995  0.3152 -0.5269
  612MOL0     C84379   0.883  -0.591   4.415 -0.2746 -0.0792 -0.2531
  612MOL0     C84380   0.759  -0.529   4.366  0.3879 -0.2480 -0.2218
  612MOL0     C84381   0.637  -0.621   4.373  1.2772 -0.5726 -0.3255
  612MOL0     C84382   0.558  -0.615   4.495 -0.0794 -0.4446 -0.1118
  612MOL0     C84383   0.494  -0.587   4.596  0.1714  0.9967  0.1548
  612MOL0     C84384   1.240  -0.297   4.393  0.1407 -0.4163  0.3217
  612MOL0     C84385   1.325  -0.187   4.378 -1.0337 -0.2534 -0.4131
  612MOL0     C84386   1.457  -0.172   4.469 -0.3237 -0.0757 -0.1722
  612MOL0     H84387   1.216   0.327   4.026  0.4709 -0.3150  0.4218
  612MOL0     H84388   1.220   0.559   4.062  0.9826 -1.3041 -1.1964
  612MOL0     H84389   1.288   0.694   4.509  0.9010  0.5603 -0.0657
  612MOL0     H84390   1.234   0.842   4.428  0.3634  0.3520  1.7114
  612MOL0     H84391   1.471   0.799   4.496  1.2024 -4.3587  0.5501
  612MOL0     H84392   1.487   0.678   4.360  1.8465  0.6504 -1.8780
  612MOL0     H84393   1.370   0.900   4.242 -1.3654  1.4570  2.0185
  612MOL0     H84394   1.481   0.985   4.341 -1.6884 -0.2673 -0.1013
  612MOL0     H84395   1.554   0.771   4.127 -0.5111  0.0501 -0.5485
  612MOL0     H84396   1.561   0.946   4.098  0.8448  0.3466  0.1197
  612MOL0     H84397   1.710   0.798   4.320  0.0013 -1.1995 -0.4685
  612MOL0     H84398   1.752   0.963   4.261  1.3256 -0.4430  0.4829
  612MOL0     H84399   1.757   0.733   4.063  0.0993  0.4005 -0.5308
  612MOL0     H84400   1.821   0.887   4.044  0.2002  2.3329  2.2969
  612MOL0     H84401   1.944   0.685   4.236 -1.7858 -0.0888  0.6318
  612MOL0     H84402   1.997   0.861   4.218  0.7249  0.2046 -0.9182
  612MOL0     H84403   1.981   0.672   3.989 -0.6580  1.5495 -1.2268
  612MOL0     H84404   2.035   0.836   3.987 -1.9733 -0.8955 -1.7185
  612MOL0     H84405   2.259   0.904   4.106  2.8122  0.2975 -1.4503
  612MOL0     H84406   2.519   0.846   4.128 -0.2105  0.1890 -1.4446
  612MOL0     H84407   2.580   0.691   4.059  0.7866 -2.8012  1.6468
  612MOL0     H84408   2.463   0.744   4.332  0.6531 -1.4238  1.5254
  612MOL0     H84409   2.560   0.594   4.309  1.0577 -0.5860 -0.1508
  612MOL0     H84410   2.711   0.732   4.420  1.0404  0.8208  0.1735
  612MOL0     H84411   2.756   0.755   4.250 -0.7735 -1.0645 -1.4976
  612MOL0     H84412   2.693   0.982   4.253 -2.8912 -1.3442 -1.7823
  612MOL0     H84413   2.539   0.954   4.345 -0.1165  2.8229 -0.3626
  612MOL0     H84414   2.915   0.957   4.287 -2.5294  0.1508  0.6302
  612MOL0     H84415   3.136   0.910   4.215  0.6772 -0.9913  1.0173
  612MOL0     H84416   3.256   0.880   4.341 -0.8667 -0.4294  0.1962
  612MOL0     H84417   3.238   1.041   4.283  0.6956 -0.4219 -0.6181
  612MOL0     H84418   3.504   1.184   4.670 -0.7328 -0.0022 -2.4998
  612MOL0     H84419   3.743   1.142   4.734 -0.3016  0.5065 -1.4004
  612MOL0     H84420   4.050   0.918   4.757  0.6827  0.9925 -1.4781
  612MOL0     H84421   3.965   1.039   4.672  1.5949  0.2370  0.8705
  612MOL0     H84422   3.923   1.170   4.850 -1.8147 -1.7928 -1.3781
  612MOL0     H84423   3.918   1.040   4.969 -1.3054 -0.9262 -0.9359
  612MOL0     H84424   4.142   1.204   4.880 -2.7436  1.4398  1.0001
  612MOL0     H84425   4.177   1.028   4.876  1.3792  1.2565  1.0348
  612MOL0     H84426   4.240   1.122   5.089 -0.5820  0.4298  1.9933
  612MOL0     H84427   4.122   1.005   5.109  2.0025  0.7015  3.2762
  612MOL0     H84428   3.999   1.278   5.077  0.6293  1.2804  0.8005
  612MOL0     H84429   3.966   1.122   5.176 -2.1101  0.2507 -1.3805
  612MOL0     H84430   4.167   1.340   5.199 -0.9706  0.8750  0.9380
  612MOL0     H84431   4.175   1.190   5.304  2.1588 -0.5971 -2.2495
  612MOL0     H84432   3.983   1.260   5.428  2.1133 -0.1624  1.1900
  612MOL0     H84433   3.911   1.363   5.305 -0.0112  0.8819 -0.1099
  612MOL0     H84434   4.164   1.450   5.464 -0.4807  0.3978  0.0914
  612MOL0     H84435   3.997   1.458   5.519 -0.7311 -1.5538  0.1263
  612MOL0     H84436   3.683   0.723   4.664 -0.0713  0.4350  0.5365
  612MOL0     H84437   3.455   0.785   4.554  1.8503 -0.5975  0.0090
  612MOL0     H84438   3.014   1.062   4.753 -2.7630  1.3639  0.6458
  612MOL0     H84439   2.795   1.029   4.684  0.3420 -1.9202  0.8867
  612MOL0     H84440   1.303   0.493   4.486 -0.9631 -0.3604  0.8820
  612MOL0     H84441   1.357   0.266   4.435 -0.4659  1.4982  1.3815
  612MOL0     H84442   1.113  -0.025   4.166  0.8753  2.5061  1.5818
  612MOL0     H84443   0.979  -0.217   4.197 -0.2744  1.6176  0.5445
  612MOL0     H84444   1.060  -0.498   4.528 -1.2389  2.1360  2.3993
  612MOL0     H84445   0.930  -0.394   4.501 -1.4853 -1.9662  0.9894
  612MOL0     H84446   0.874  -0.651   4.506  0.8018  1.3073  0.8203
  612MOL0     H84447   0.934  -0.657   4.344  0.0200 -2.5968  2.1355
  612MOL0     H84448   0.736  -0.440   4.425  0.3709  1.3007 -2.4407
  612MOL0     H84449   0.775  -0.506   4.260  3.9103 -2.7269 -0.4153
  612MOL0     H84450   0.679  -0.720   4.350 -0.1836 -0.9027 -1.7610
  612MOL0     H84451   0.564  -0.604   4.294 -0.8161  1.0994  1.8226
  612MOL0     H84452   0.439  -0.569   4.686  3.4045  2.0297  2.1041
  612MOL0     H84453   1.282  -0.381   4.447  4.2861  0.0328 -1.7963
  612MOL0     H84454   1.474  -0.256   4.538  1.9758 -0.5503 -1.2083
  612MOL0     H84455   1.539  -0.184   4.397  2.9331  3.7296  2.4992
  612MOL0     H84456   1.468  -0.078   4.522 -1.4129  0.8619 -1.5394
  613MOL0     O84457   2.664  11.442   5.878 -0.5518  0.8368  0.7528
  613MOL0     C84458   2.678  11.559   5.870  0.0623 -0.1247 -0.0261
  613MOL0     O84459   2.792  11.613   5.819  0.0289 -0.5464  0.3201
  613MOL0     C84460   2.899  11.553   5.757 -0.3707  0.7886 -0.0321
  613MOL0     C84461   2.970  11.624   5.649  1.1211 -1.3290  0.4082
  613MOL0     C84462   3.081  11.568   5.586  0.3641  0.2031  0.8613
  613MOL0     C84463   3.127  11.440   5.610  0.6660  0.3055 -0.1927
  613MOL0     O84464   3.230  11.394   5.528 -0.1818 -0.9579  0.4648
  613MOL0     C84465   3.296  11.271   5.548  0.5168 -0.1926  0.7513
  613MOL0     C84466   3.390  11.257   5.432  0.7635  0.0937 -0.1759
  613MOL0     C84467   3.512  11.348   5.440  0.7596 -1.0569 -0.7295
  613MOL0     C84468   3.624  11.310   5.524 -0.0767  1.3229 -0.2446
  613MOL0     C84469   3.749  11.380   5.484 -0.7816  0.1586  0.3849
  613MOL0     C84470   3.856  11.367   5.592  0.2558 -0.6061 -0.3025
  613MOL0     C84471   3.979  11.448   5.554 -0.2113 -0.0647 -0.6334
  613MOL0     C84472   4.084  11.442   5.662 -1.0271  0.0160  0.0962
  613MOL0     N84473   4.208  11.501   5.609  0.0500  0.1640 -0.2709
  613MOL0     C84474   4.223  11.628   5.560 -0.2069 -0.3484 -0.8102
  613MOL0     C84475   4.331  11.627   5.479  0.0727 -0.1959 -0.5877
  613MOL0     C84476   4.381  11.752   5.401  0.3592  0.4449  0.2599
  613MOL0     C84477   4.263  11.785   5.305  0.3987  0.0640  0.5625
  613MOL0     C84478   4.240  11.685   5.194 -0.0537  0.8627  0.4060
  613MOL0     C84479   4.155  11.747   5.091  0.0964 -0.0548  0.2206
  613MOL0     O84480   4.128  11.642   4.993 -0.0063 -1.0167  0.4771
  613MOL0     C84481   4.021  11.548   5.010  0.1710 -0.3407  0.7815
  613MOL0     C84482   4.033  11.426   4.935  0.4695 -0.0263 -0.0968
  613MOL0     C84483   3.948  11.316   4.944 -0.4001 -0.0464  0.2238
  613MOL0     C84484   3.989  11.187   4.866  1.0811  0.6314 -0.6826
  613MOL0     C84485   3.826  11.332   5.016 -0.3737  0.6752  0.1080
  613MOL0     C84486   3.710  11.228   5.011  0.4227 -0.9679 -0.4376
  613MOL0     O84487   3.606  11.239   5.106  0.1884  0.4933  0.6842
  613MOL0     C84488   3.489  11.169   5.088 -0.4528  0.7056 -0.5108
  613MOL0     C84489   3.382  11.245   5.044  0.3012  0.4611  0.8164
  613MOL0     C84490   3.258  11.184   5.003  1.0278 -0.0424 -1.0322
  613MOL0     C84491   3.243  11.045   5.034 -0.4490  0.8598 -0.2090
  613MOL0     O84492   3.138  10.973   4.997  0.2863  0.2762  0.3537
  613MOL0     C84493   3.008  11.024   4.955 -0.0960 -0.3274 -0.2126
  613MOL0     C84494   3.012  11.058   4.801  0.3294  0.2144  0.2350
  613MOL0     C84495   2.876  11.089   4.753  0.4371  0.4118 -0.7151
  613MOL0     C84496   2.854  11.239   4.710 -0.0477 -0.3746 -0.1959
  613MOL0     C84497   2.709  11.279   4.750  0.6998  0.0168 -0.2426
  613MOL0     C84498   2.607  11.190   4.687 -0.9924  0.6134 -0.1106
  613MOL0     C84499   2.458  11.215   4.726  0.2770 -0.3406  0.1811
  613MOL0     C84500   2.362  11.152   4.633 -0.1088 -0.5187 -0.1260
  613MOL0    Cl84501   2.208  11.177   4.727 -0.0423  0.5733  0.3129
  613MOL0     C84502   3.349  10.972   5.090  0.2479  0.3658  0.0392
  613MOL0     C84503   3.476  11.030   5.109  0.4005  0.7172 -1.1233
  613MOL0     O84504   3.710  11.168   4.906 -0.3026 -0.0584  0.3586
  613MOL0     C84505   3.806  11.454   5.080 -0.3874  0.2047  0.9155
  613MOL0     C84506   3.906  11.559   5.087 -0.1863  0.6106 -0.3350
  613MOL0     N84507   4.373  11.491   5.471  0.2673 -0.3796 -0.8003
  613MOL0     N84508   4.306  11.420   5.552 -0.3147 -0.6803 -0.8423
  613MOL0     C84509   3.056  11.366   5.701  0.1632 -0.2536 -0.7368
  613MOL0     C84510   2.945  11.420   5.777  0.1854 -0.1529  0.8247
  613MOL0     C84511   2.571  11.649   5.921  1.1182 -0.0395  0.8210
  613MOL0     C84512   2.616  11.779   5.958  0.4605 -0.0983 -0.5493
  613MOL0     C84513   2.530  11.879   6.001 -0.2162  0.2770  0.3019
  613MOL0     C84514   2.393  11.840   6.016 -0.1157  0.3415  0.2796
  613MOL0     O84515   2.290  11.915   6.068 -0.0351 -0.3012 -0.6514
  613MOL0     C84516   2.325  12.039   6.140  0.1185 -0.6316  0.7225
  613MOL0     C84517   2.310  12.153   6.038 -0.3641  0.1354 -0.6188
  613MOL0     C84518   2.316  12.288   6.102  1.4314 -0.1645 -0.1201
  613MOL0     C84519   2.330  12.403   5.993 -0.2017  0.1939 -0.1986
  613MOL0     C84520   2.310  12.532   6.058  0.4118 -1.1109 -0.6388
  613MOL0     C84521   2.274  12.634   6.127  0.3867  0.2377 -0.4073
  613MOL0     C84522   2.344  11.718   5.980 -0.4533 -0.7182  0.0248
  613MOL0     C84523   2.432  11.613   5.929  1.3959 -0.1551 -1.0101
  613MOL0     C84524   2.367  11.486   5.898 -0.4688  0.6270 -0.5917
  613MOL0     H84525   2.929  11.721   5.625 -0.3520 -0.6999  4.5865
  613MOL0     H84526   3.134  11.625   5.510  1.5059  0.5205  1.8613
  613MOL0     H84527   3.229  11.184   5.546  0.2037  0.0536 -0.4606
  613MOL0     H84528   3.344  11.264   5.646  0.0140 -0.7106  0.9666
  613MOL0     H84529   3.420  11.152   5.431 -1.2135 -0.5253  0.9339
  613MOL0     H84530   3.329  11.285   5.345 -0.8193 -1.7134  0.2743
  613MOL0     H84531   3.552  11.357   5.338 -0.4437 -0.2583 -1.1622
  613MOL0     H84532   3.480  11.445   5.479  0.3230 -0.1341 -3.2176
  613MOL0     H84533   3.592  11.341   5.624 -0.7585 -0.0173 -0.0198
  613MOL0     H84534   3.627  11.200   5.523 -2.2662  1.2104  0.0251
  613MOL0     H84535   3.740  11.489   5.482  0.3224  0.2549 -0.6327
  613MOL0     H84536   3.787  11.353   5.385 -0.0986  0.4825  0.5533
  613MOL0     H84537   3.818  11.383   5.693 -0.0405 -0.7977 -0.3814
  613MOL0     H84538   3.889  11.263   5.597  1.7611 -0.1070  0.8538
  613MOL0     H84539   3.950  11.553   5.543  0.6395  0.3003  0.4638
  613MOL0     H84540   4.016  11.420   5.455 -2.3647  2.1024 -2.1892
  613MOL0     H84541   4.037  11.499   5.742  1.2815 -0.4069  1.8468
  613MOL0     H84542   4.098  11.339   5.695 -0.2778 -0.4257 -1.4769
  613MOL0     H84543   4.165  11.714   5.591  0.2543 -0.4614  0.4387
  613MOL0     H84544   4.469  11.712   5.350 -0.3680 -3.9616  2.0062
  613MOL0     H84545   4.416  11.833   5.465  2.5257  0.8082 -1.2641
  613MOL0     H84546   4.166  11.795   5.355 -1.8117  0.7737 -3.4737
  613MOL0     H84547   4.280  11.883   5.260  3.4878  0.2488  1.8003
  613MOL0     H84548   4.337  11.663   5.147 -1.2322  1.0362 -2.3110
  613MOL0     H84549   4.180  11.603   5.233  1.5040 -0.5342 -0.0461
  613MOL0     H84550   4.066  11.803   5.123 -0.2986 -1.4612  1.7545
  613MOL0     H84551   4.217  11.820   5.040 -0.6368 -0.2913 -1.0465
  613MOL0     H84552   4.115  11.419   4.864  2.3888  2.5437  1.6969
  613MOL0     H84553   3.972  11.094   4.921  1.1989  0.5768 -0.7364
  613MOL0     H84554   4.096  11.187   4.842  1.7671 -0.0670  2.0700
  613MOL0     H84555   3.931  11.179   4.773  1.4461 -0.3598 -0.8439
  613MOL0     H84556   3.401  11.351   5.034 -3.4152  1.1272 -0.8206
  613MOL0     H84557   3.174  11.247   4.978  0.1976 -0.6040  0.2335
  613MOL0     H84558   2.931  10.948   4.970  0.5857 -0.5722  2.5599
  613MOL0     H84559   2.991  11.121   5.005  1.9346  1.5414 -2.8815
  613MOL0     H84560   3.088  11.136   4.785  1.4096 -0.7849  0.3085
  613MOL0     H84561   3.046  10.967   4.751 -1.8104 -0.7554  0.4654
  613MOL0     H84562   2.809  11.068   4.836  1.1598  0.7822 -0.0167
  613MOL0     H84563   2.856  11.014   4.676  2.8037  0.1901 -1.2071
  613MOL0     H84564   2.889  11.262   4.609 -0.3346  0.0346 -0.2038
  613MOL0     H84565   2.917  11.301   4.775 -0.9096 -0.0478  0.3507
  613MOL0     H84566   2.705  11.278   4.860 -0.3040  1.4343 -0.2218
  613MOL0     H84567   2.687  11.385   4.734 -0.4395  0.2873  2.5284
  613MOL0     H84568   2.630  11.086   4.710  0.0249  0.1602 -2.7474
  613MOL0     H84569   2.619  11.205   4.579  1.4129  4.2806  0.4832
  613MOL0     H84570   2.446  11.324   4.725  2.0365 -0.0972  1.2077
  613MOL0     H84571   2.446  11.171   4.826  2.4184  4.2588  2.8307
  613MOL0     H84572   2.387  11.046   4.621  1.6984 -0.2501  0.8962
  613MOL0     H84573   2.380  11.202   4.537  2.2706 -1.0584 -0.0072
  613MOL0     H84574   3.333  10.868   5.117  2.7777 -0.2918 -0.7577
  613MOL0     H84575   3.558  10.964   5.135 -1.4076 -0.5448  1.8787
  613MOL0     H84576   3.710  11.473   5.127 -1.3590  1.0723 -1.2744
  613MOL0     H84577   3.884  11.647   5.146 -0.4187 -0.2593  0.9112
  613MOL0     H84578   3.095  11.268   5.728 -0.7452 -0.4231  0.0265
  613MOL0     H84579   2.894  11.361   5.851 -0.3019 -0.3718  0.3248
  613MOL0     H84580   2.722  11.799   5.955 -0.1047  3.6886 -1.8102
  613MOL0     H84581   2.564  11.981   6.012  1.2313 -0.1941  0.3715
  613MOL0     H84582   2.258  12.053   6.225  0.9249  1.4776  1.0730
  613MOL0     H84583   2.428  12.044   6.178  0.8034  2.3676 -1.2391
  613MOL0     H84584   2.209  12.136   6.001 -0.4800  0.3783 -0.4188
  613MOL0     H84585   2.382  12.139   5.957 -0.1587  1.7730 -0.7635
  613MOL0     H84586   2.219  12.304   6.149  1.5576  0.6401 -0.1172
  613MOL0     H84587   2.394  12.281   6.178  0.9667 -3.1193  0.1671
  613MOL0     H84588   2.261  12.397   5.908  0.9955 -0.5919 -1.1398
  613MOL0     H84589   2.432  12.397   5.954 -0.3946  2.5914 -1.2620
  613MOL0     H84590   2.230  12.716   6.178 -2.7796  0.0399 -2.5391
  613MOL0     H84591   2.241  11.686   5.987 -1.6563  2.7467 -0.0277
  613MOL0     H84592   2.361  11.481   5.789 -1.7039 -3.4752 -0.5116
  613MOL0     H84593   2.435  11.411   5.940  1.3554  2.4390 -0.1556
  613MOL0     H84594   2.271  11.473   5.949 -0.0123  0.3876  0.2293
  614MOL0     O84595   4.657   6.034   3.058 -0.3686 -0.0360  0.3251
  614MOL0     C84596   4.651   5.971   3.165  0.1397 -0.1026  0.3695
  614MOL0     O84597   4.663   5.836   3.171 -0.0448  0.6032 -0.7536
  614MOL0     C84598   4.653   5.758   3.064  0.5356 -0.3949  0.7414
  614MOL0     C84599   4.763   5.684   3.013  0.4291 -0.6841  0.9980
  614MOL0     C84600   4.748   5.621   2.890 -0.3620 -0.3588 -0.6901
  614MOL0     C84601   4.626   5.616   2.831 -0.2040  0.1368  0.7689
  614MOL0     O84602   4.610   5.550   2.709  0.1956  0.1124  0.1140
  614MOL0     C84603   4.727   5.520   2.631 -0.3278  0.1809  0.6331
  614MOL0     C84604   4.679   5.453   2.497 -0.9418 -0.0434 -0.7124
  614MOL0     C84605   4.572   5.358   2.517 -0.1228  1.0347  0.5733
  614MOL0     C84606   4.528   5.283   2.384 -0.1209 -0.0360 -1.4676
  614MOL0     C84607   4.620   5.171   2.347  0.4356 -0.5964  0.2919
  614MOL0     C84608   4.609   5.115   2.204  0.7524  0.2930  0.1286
  614MOL0     C84609   4.712   5.011   2.158  0.3134 -0.1538 -0.1247
  614MOL0     C84610   4.674   4.873   2.205 -0.0841  0.3708  0.1793
  614MOL0     N84611   4.773   4.773   2.149  0.2987  0.2189  0.2721
  614MOL0     C84612   4.903   4.747   2.188 -0.3753 -0.2605  0.1750
  614MOL0     C84613   4.940   4.640   2.120  0.7984 -0.7256  0.8202
  614MOL0     C84614   5.064   4.561   2.133 -0.7038  0.4596  0.8834
  614MOL0     C84615   5.158   4.579   2.016 -0.4970 -0.0924  0.4592
  614MOL0     C84616   5.260   4.460   1.997  0.5134 -0.6873  0.3498
  614MOL0     C84617   5.330   4.411   2.133  0.3774 -0.4107  0.0443
  614MOL0     O84618   5.411   4.301   2.096 -0.3461 -0.6149 -0.4424
  614MOL0     C84619   5.457   4.222   2.204  0.3279 -0.5797  0.3736
  614MOL0     C84620   5.451   4.253   2.338 -0.2091 -0.1269  0.3091
  614MOL0     C84621   5.511   4.168   2.435  0.6590 -0.6587 -0.7098
  614MOL0     C84622   5.499   4.206   2.588 -0.5680  0.4177  0.4744
  614MOL0     C84623   5.562   4.039   2.400  0.3180 -0.2709  0.9572
  614MOL0     C84624   5.610   3.932   2.493 -0.1916  0.5229  0.4615
  614MOL0     O84625   5.637   3.957   2.619  0.1506 -0.1686 -0.6094
  614MOL0     C84626   5.687   3.857   2.704  0.3206 -0.0202  0.7005
  614MOL0     C84627   5.800   3.784   2.670  0.0117  0.4568  0.0800
  614MOL0     C84628   5.839   3.682   2.758 -0.3042 -0.3049 -0.0627
  614MOL0     C84629   5.764   3.649   2.866  0.1319 -0.3104 -0.5831
  614MOL0     O84630   5.810   3.547   2.957 -0.1347  0.2720  0.7000
  614MOL0     C84631   5.951   3.549   2.989 -0.5086 -0.4678 -0.6105
  614MOL0     C84632   6.007   3.413   2.946  0.6413 -0.6985  0.3770
  614MOL0     C84633   6.158   3.414   2.973  0.4392  0.4547 -0.4633
  614MOL0     C84634   6.239   3.511   2.885 -0.7766 -0.5795  0.3681
  614MOL0     C84635   6.388   3.457   2.873  0.3785 -1.1465 -0.4329
  614MOL0     C84636   6.479   3.568   2.823  0.0860 -0.2673  0.6475
  614MOL0     C84637   6.481   3.562   2.669 -0.4046 -0.1809 -0.3208
  614MOL0     C84638   6.583   3.664   2.617 -0.5333  0.0294 -0.7952
  614MOL0    Cl84639   6.760   3.669   2.678  0.0359  0.2194  0.0705
  614MOL0     C84640   5.644   3.709   2.890  0.2533 -0.0265 -0.2919
  614MOL0     C84641   5.606   3.815   2.810  0.3167 -0.7366  0.3689
  614MOL0     O84642   5.615   3.817   2.438  0.1543  0.6345  0.0050
  614MOL0     C84643   5.570   4.016   2.256 -0.0136  0.1819  0.5599
  614MOL0     C84644   5.509   4.104   2.162 -0.5203 -0.0462 -0.4838
  614MOL0     N84645   4.841   4.617   2.024  0.5548  0.2859  0.6361
  614MOL0     N84646   4.743   4.688   2.049 -0.3291  0.6740  0.1468
  614MOL0     C84647   4.510   5.664   2.893 -0.0163  0.7827 -0.6991
  614MOL0     C84648   4.525   5.730   3.010 -0.8835 -0.7821 -0.7826
  614MOL0     C84649   4.626   6.042   3.291  0.2523  0.2935  0.5888
  614MOL0     C84650   4.530   5.987   3.370 -0.1722 -0.4490 -0.4265
  614MOL0     C84651   4.498   6.050   3.493  0.0872  0.1869  0.5333
  614MOL0     C84652   4.566   6.161   3.543  0.4129  0.2085 -0.5288
  614MOL0     O84653   4.544   6.218   3.665 -0.1740  0.0292  0.6233
  614MOL0     C84654   4.472   6.164   3.777 -0.8102 -0.2851  0.7053
  614MOL0     C84655   4.553   6.052   3.846 -0.3818 -0.6124 -0.6290
  614MOL0     C84656   4.671   6.104   3.932 -0.0410  0.1864  0.0297
  614MOL0     C84657   4.787   6.147   3.847 -0.0897  0.7612  0.2385
  614MOL0     C84658   4.893   6.180   3.941  0.5167  0.3347  0.0108
  614MOL0     C84659   4.982   6.201   4.013 -0.6916  0.2944 -0.5326
  614MOL0     C84660   4.660   6.221   3.459 -0.8764  0.4465 -0.2352
  614MOL0     C84661   4.699   6.155   3.340 -0.5755 -0.4756 -0.2797
  614MOL0     C84662   4.807   6.213   3.252  0.2355 -0.3843  0.1945
  614MOL0     H84663   4.857   5.695   3.067  0.0651 -0.7219  1.6565
  614MOL0     H84664   4.836   5.574   2.846  0.2569 -1.3475  1.4348
  614MOL0     H84665   4.787   5.445   2.682  0.7937 -2.6834 -4.2596
  614MOL0     H84666   4.791   5.607   2.611  0.4786 -0.7141 -0.9108
  614MOL0     H84667   4.654   5.531   2.425 -2.4101 -0.2816 -0.4917
  614MOL0     H84668   4.761   5.408   2.442 -0.1415 -0.9234  1.0951
  614MOL0     H84669   4.595   5.291   2.600  0.3437  1.5092  0.8368
  614MOL0     H84670   4.490   5.426   2.545 -3.1614  0.2255 -4.9293
  614MOL0     H84671   4.435   5.236   2.417  1.4278 -1.4623  1.1408
  614MOL0     H84672   4.509   5.348   2.297 -0.8601  1.3633 -0.3122
  614MOL0     H84673   4.603   5.086   2.413 -1.1694 -1.5110 -1.2237
  614MOL0     H84674   4.720   5.213   2.361  0.1381 -0.1553  1.2202
  614MOL0     H84675   4.506   5.087   2.181  0.3563  2.0412 -0.3710
  614MOL0     H84676   4.623   5.198   2.134 -0.9300  0.4515 -0.0743
  614MOL0     H84677   4.813   5.034   2.192 -0.3765 -2.2749  4.0018
  614MOL0     H84678   4.720   5.005   2.049  1.6548  0.7667 -0.1064
  614MOL0     H84679   4.673   4.869   2.315 -2.4691 -0.2379  0.1727
  614MOL0     H84680   4.573   4.853   2.170  0.2697  1.9397 -1.9530
  614MOL0     H84681   4.953   4.788   2.275  1.1258 -2.0565  0.2368
  614MOL0     H84682   5.031   4.457   2.129 -1.4855  0.7089  0.6503
  614MOL0     H84683   5.113   4.568   2.230 -1.7189 -0.6904  1.5066
  614MOL0     H84684   5.101   4.587   1.924 -1.0401 -1.5746  0.6380
  614MOL0     H84685   5.212   4.673   2.028 -3.6796  1.9188  0.0350
  614MOL0     H84686   5.214   4.382   1.937  1.0585 -1.5629  1.0522
  614MOL0     H84687   5.344   4.493   1.935  0.4918 -0.6714  0.3285
  614MOL0     H84688   5.388   4.491   2.180  0.9408 -0.7124 -0.1304
  614MOL0     H84689   5.253   4.377   2.204  0.1723  1.1570  0.6014
  614MOL0     H84690   5.408   4.346   2.376 -1.6480  0.2722 -2.0574
  614MOL0     H84691   5.458   4.128   2.653  0.2374  0.2872  0.8452
  614MOL0     H84692   5.433   4.293   2.594 -1.1617  0.2131 -2.0498
  614MOL0     H84693   5.600   4.229   2.624 -0.8076  0.1426  1.3470
  614MOL0     H84694   5.854   3.805   2.578 -0.3304 -0.3927 -0.3226
  614MOL0     H84695   5.924   3.621   2.730 -2.3725 -2.8053 -1.3559
  614MOL0     H84696   6.009   3.625   2.937 -0.5113 -0.4657 -0.6101
  614MOL0     H84697   5.973   3.544   3.096  2.0780 -3.2482 -1.1465
  614MOL0     H84698   5.967   3.330   3.005 -0.7270 -1.4724 -1.5453
  614MOL0     H84699   5.979   3.398   2.841 -1.4968 -2.0400  1.0651
  614MOL0     H84700   6.200   3.315   2.956 -0.2093  0.4192 -2.0760
  614MOL0     H84701   6.174   3.440   3.078  0.4046  0.6379 -0.5028
  614MOL0     H84702   6.233   3.616   2.913  1.3681 -0.2546 -0.1804
  614MOL0     H84703   6.217   3.512   2.778  2.3195  5.2293 -0.6145
  614MOL0     H84704   6.423   3.434   2.974 -3.6308  2.7408  2.2203
  614MOL0     H84705   6.385   3.373   2.803 -1.0125  0.0423 -1.8763
  614MOL0     H84706   6.579   3.541   2.859  0.2586  1.3145  1.3951
  614MOL0     H84707   6.460   3.667   2.864  3.6979 -0.5130  3.5263
  614MOL0     H84708   6.389   3.589   2.616  0.4091  1.8487 -0.7826
  614MOL0     H84709   6.495   3.455   2.650 -1.9358 -0.8998  2.1247
  614MOL0     H84710   6.549   3.765   2.645  1.4552  0.2203  1.2627
  614MOL0     H84711   6.594   3.661   2.509 -0.9770  2.0620 -0.9480
  614MOL0     H84712   5.573   3.695   2.971  1.5369  2.9972  1.5381
  614MOL0     H84713   5.511   3.867   2.816  0.6031 -0.0026 -0.9987
  614MOL0     H84714   5.616   3.924   2.220  0.8859  0.3531  1.2290
  614MOL0     H84715   5.508   4.084   2.055 -2.6062 -2.8776 -0.0273
  614MOL0     H84716   4.414   5.646   2.846 -0.4321  1.2468 -0.0540
  614MOL0     H84717   4.443   5.779   3.063 -0.9601  1.0064 -2.4416
  614MOL0     H84718   4.493   5.886   3.355  1.0680 -1.7020  3.7257
  614MOL0     H84719   4.422   6.007   3.556  1.2235  0.0200  1.8385
  614MOL0     H84720   4.454   6.248   3.845  2.3271  1.7196 -0.7113
  614MOL0     H84721   4.381   6.114   3.742 -0.9453  0.6967 -0.4061
  614MOL0     H84722   4.595   5.984   3.771  1.5725  1.4828 -1.5381
  614MOL0     H84723   4.482   5.999   3.911  1.5319 -3.2661 -0.5149
  614MOL0     H84724   4.629   6.193   3.981  0.9632  0.0833  1.1061
  614MOL0     H84725   4.713   6.030   4.000  2.5211 -1.9542 -3.5069
  614MOL0     H84726   4.757   6.238   3.794 -2.8374 -0.5894 -0.7064
  614MOL0     H84727   4.821   6.071   3.777  1.7488 -0.7924  2.6672
  614MOL0     H84728   5.059   6.235   4.080 -1.2550  0.5289  0.0017
  614MOL0     H84729   4.705   6.317   3.484  0.6005  0.0013 -1.1006
  614MOL0     H84730   4.825   6.315   3.288 -2.9026 -0.4153  2.2421
  614MOL0     H84731   4.894   6.148   3.265 -1.1553 -2.5907 -0.9742
  614MOL0     H84732   4.785   6.223   3.146 -0.2174 -1.3026  0.1904
  615MOL0     O84733  10.643   4.534   5.633 -0.7764 -0.0806 -0.3819
  615MOL0     C84734  10.563   4.624   5.606 -0.2668  0.4559 -0.3065
  615MOL0     O84735  10.533   4.712   5.705  0.7878 -0.1241  0.0903
  615MOL0     C84736  10.570   4.676   5.834 -1.0604  0.0530  0.3469
  615MOL0     C84737  10.683   4.725   5.886 -0.5655 -0.1050 -0.6010
  615MOL0     C84738  10.725   4.687   6.012 -0.2017 -0.1590 -0.0586
  615MOL0     C84739  10.643   4.600   6.092  0.4515 -0.1060 -0.2160
  615MOL0     O84740  10.685   4.528   6.205 -0.1202  0.5222  0.1472
  615MOL0     C84741  10.816   4.536   6.246  0.5925  0.0133 -0.4489
  615MOL0     C84742  10.833   4.471   6.383  0.0959  0.8277 -0.1213
  615MOL0     C84743  10.985   4.484   6.402 -0.0867  0.5867 -0.5591
  615MOL0     C84744  11.073   4.400   6.322  0.1130  0.1464  0.6377
  615MOL0     C84745  11.222   4.443   6.325  0.4602 -0.3824  0.1011
  615MOL0     C84746  11.316   4.367   6.232  0.3478  0.4187 -0.5397
  615MOL0     C84747  11.464   4.417   6.255 -0.1102  0.2157  0.0637
  615MOL0     C84748  11.563   4.383   6.157 -0.5896  0.1861  0.2792
  615MOL0     N84749  11.696   4.420   6.220 -0.1661 -0.2332  0.5696
  615MOL0     C84750  11.739   4.548   6.225 -0.0852 -0.5556 -0.9050
  615MOL0     C84751  11.856   4.536   6.282 -0.6696 -1.3075 -0.2660
  615MOL0     C84752  11.938   4.656   6.305 -0.8462  0.3685  0.7540
  615MOL0     C84753  12.078   4.638   6.364  0.0692 -0.8732  0.0299
  615MOL0     C84754  12.160   4.773   6.375  0.1335  0.2936 -0.2475
  615MOL0     C84755  12.309   4.735   6.344 -0.5570  0.0597  0.3914
  615MOL0     O84756  12.348   4.636   6.441 -0.0215 -0.3140 -0.0094
  615MOL0     C84757  12.479   4.611   6.446 -0.6357 -0.2840 -0.1022
  615MOL0     C84758  12.583   4.694   6.398  0.3502  0.0856 -0.1586
  615MOL0     C84759  12.716   4.666   6.408  0.2386 -0.9613 -0.6141
  615MOL0     C84760  12.815   4.764   6.351 -0.3337 -0.2290 -0.7391
  615MOL0     C84761  12.760   4.556   6.471  0.0168  0.3143 -0.2583
  615MOL0     C84762  12.906   4.516   6.471  1.2058  0.5079  0.0532
  615MOL0     O84763  12.990   4.555   6.377  0.6587  1.0125  0.1692
  615MOL0     C84764  13.123   4.534   6.397 -0.1905 -0.3244  1.2355
  615MOL0     C84765  13.188   4.436   6.321  0.4336 -0.7923  0.1314
  615MOL0     C84766  13.319   4.401   6.356  0.7223 -0.1370  0.4221
  615MOL0     C84767  13.396   4.480   6.446  0.2012  0.2682  0.8232
  615MOL0     O84768  13.525   4.441   6.471 -0.5382 -1.1117 -0.7062
  615MOL0     C84769  13.612   4.524   6.560  0.5801  1.1093  0.6997
  615MOL0     C84770  13.667   4.654   6.490 -1.2323  0.0631 -0.3266
  615MOL0     C84771  13.730   4.758   6.594 -0.3500 -0.1192  0.7546
  615MOL0     C84772  13.839   4.687   6.666  0.2353  0.1621 -0.6215
  615MOL0     C84773  13.945   4.783   6.708 -0.2636 -0.9645  0.7767
  615MOL0     C84774  14.038   4.717   6.810  0.3076  0.2766 -0.6433
  615MOL0     C84775  14.132   4.812   6.869 -0.2390 -0.5715  0.0488
  615MOL0     C84776  14.263   4.837   6.774 -0.2460 -0.3473  0.2655
  615MOL0    Cl84777  14.383   4.929   6.862  0.2968  0.1613 -0.2202
  615MOL0     C84778  13.327   4.586   6.511 -0.1863  0.0783  0.0957
  615MOL0     C84779  13.193   4.618   6.484 -0.6632  0.5857 -0.2442
  615MOL0     O84780  12.932   4.429   6.556 -0.1446  0.4446 -0.4071
  615MOL0     C84781  12.662   4.469   6.542  0.4491  0.3301  0.0832
  615MOL0     C84782  12.525   4.502   6.523  0.0383  0.1314 -0.1935
  615MOL0     N84783  11.887   4.404   6.307  0.3249  0.2838  0.9658
  615MOL0     N84784  11.792   4.332   6.262 -0.4114 -0.2753 -0.7753
  615MOL0     C84785  10.516   4.564   6.039 -0.4491 -0.3073  0.6296
  615MOL0     C84786  10.480   4.600   5.912  0.4111  0.3116 -0.4255
  615MOL0     C84787  10.497   4.632   5.473 -0.2464  0.7597 -0.0915
  615MOL0     C84788  10.394   4.726   5.463  0.4727  0.2590 -0.3924
  615MOL0     C84789  10.340   4.743   5.341 -0.2821 -0.4140  0.1445
  615MOL0     C84790  10.369   4.665   5.231 -0.7752  0.0770  0.2182
  615MOL0     O84791  10.300   4.690   5.118 -0.3865  0.4513 -0.0500
  615MOL0     C84792  10.348   4.670   4.990 -0.1228 -0.5936  0.7349
  615MOL0     C84793  10.291   4.778   4.899  0.7034 -1.0756 -1.1153
  615MOL0     C84794  10.152   4.734   4.843  0.2801  0.3452  0.0820
  615MOL0     C84795  10.113   4.837   4.731  0.3429  0.3788  0.7361
  615MOL0     C84796   9.979   4.811   4.675 -0.2362 -1.0945 -0.6879
  615MOL0     C84797   9.878   4.819   4.612  0.6178 -0.8148  0.2694
  615MOL0     C84798  10.477   4.574   5.238  0.3302  0.6778 -0.0564
  615MOL0     C84799  10.537   4.550   5.361 -1.2764  0.1299  0.5401
  615MOL0     C84800  10.668   4.464   5.349 -1.2796  0.1145 -1.0083
  615MOL0     H84801  10.745   4.788   5.823  1.0740  0.1355  1.1372
  615MOL0     H84802  10.825   4.712   6.047 -0.8674  2.2717  0.3252
  615MOL0     H84803  10.851   4.640   6.252 -2.5425  1.2057 -0.9332
  615MOL0     H84804  10.867   4.476   6.170 -1.7040 -1.4939 -0.9237
  615MOL0     H84805  10.788   4.533   6.460  1.5443  0.2878  1.2158
  615MOL0     H84806  10.808   4.365   6.390  2.8335  0.0483 -0.8515
  615MOL0     H84807  11.016   4.589   6.410  0.4648  0.4017 -0.2180
  615MOL0     H84808  11.018   4.455   6.502 -2.5961 -0.0531  0.1616
  615MOL0     H84809  11.071   4.296   6.356 -1.4905 -1.3841 -3.4725
  615MOL0     H84810  11.034   4.403   6.220 -0.5705  0.0817  0.8954
  615MOL0     H84811  11.247   4.417   6.428  0.9805  0.3956  0.1815
  615MOL0     H84812  11.236   4.551   6.315 -1.2628 -0.2000 -0.5939
  615MOL0     H84813  11.324   4.259   6.249  3.1984 -0.0746 -3.8303
  615MOL0     H84814  11.304   4.392   6.126  1.2435 -0.8819 -0.9728
  615MOL0     H84815  11.493   4.390   6.357 -0.0161 -0.1834 -0.0652
  615MOL0     H84816  11.453   4.525   6.260 -2.4456 -0.0162  1.9393
  615MOL0     H84817  11.554   4.278   6.127  0.9124  0.3113 -0.7008
  615MOL0     H84818  11.555   4.447   6.068  2.8465  1.7559  0.9462
  615MOL0     H84819  11.688   4.640   6.196 -2.3463 -1.0828  1.0652
  615MOL0     H84820  11.889   4.724   6.376 -3.8153  0.7563 -1.4675
  615MOL0     H84821  11.929   4.717   6.214 -3.4605  2.3769  2.2241
  615MOL0     H84822  12.071   4.599   6.466  0.5158  1.3978  0.9952
  615MOL0     H84823  12.133   4.570   6.298 -4.2394 -3.0371 -1.7298
  615MOL0     H84824  12.111   4.837   6.302 -0.9285 -0.1888  0.0297
  615MOL0     H84825  12.156   4.819   6.474  1.7896 -0.9243  0.4480
  615MOL0     H84826  12.324   4.690   6.246 -0.8085  0.5828  0.1116
  615MOL0     H84827  12.361   4.831   6.348  0.8446 -0.3851 -3.4425
  615MOL0     H84828  12.543   4.781   6.348  1.1715  1.0692  0.8218
  615MOL0     H84829  12.829   4.740   6.245  2.7237 -0.8528 -0.2865
  615MOL0     H84830  12.914   4.766   6.397  1.1183  1.9669 -3.5924
  615MOL0     H84831  12.777   4.866   6.361  1.6441  0.4890  0.1202
  615MOL0     H84832  13.130   4.358   6.272  1.2197 -1.5672  0.4021
  615MOL0     H84833  13.363   4.316   6.306 -1.0547 -0.3132 -0.9438
  615MOL0     H84834  13.564   4.562   6.651  0.0533  1.0759  0.4398
  615MOL0     H84835  13.703   4.473   6.593  2.0381  2.4192 -1.0420
  615MOL0     H84836  13.742   4.613   6.422 -0.5511 -0.9549  0.9922
  615MOL0     H84837  13.601   4.717   6.430 -0.1290  2.6981  1.0525
  615MOL0     H84838  13.644   4.781   6.658 -0.6517  0.2626  0.2126
  615MOL0     H84839  13.785   4.837   6.543  0.8669 -2.0990 -1.1794
  615MOL0     H84840  13.897   4.626   6.596  2.3153  0.8016  0.4622
  615MOL0     H84841  13.797   4.616   6.738  0.2617 -1.7333 -2.3789
  615MOL0     H84842  14.010   4.823   6.629  0.4197  1.0359  2.2882
  615MOL0     H84843  13.906   4.867   6.767 -0.7720  1.6757 -2.9186
  615MOL0     H84844  14.112   4.643   6.775  4.4274  2.3706  2.7342
  615MOL0     H84845  13.980   4.668   6.888  0.0601 -0.8092 -1.4684
  615MOL0     H84846  14.161   4.776   6.968  2.2508  2.0058  0.3810
  615MOL0     H84847  14.084   4.905   6.900  2.0720 -0.3734  3.5707
  615MOL0     H84848  14.239   4.881   6.678 -0.2903  0.4716  0.6478
  615MOL0     H84849  14.295   4.734   6.753 -1.1742 -0.2451 -1.8608
  615MOL0     H84850  13.384   4.651   6.576  0.0689  0.9071 -0.9269
  615MOL0     H84851  13.132   4.691   6.537 -2.2461  0.4245 -1.7335
  615MOL0     H84852  12.691   4.391   6.611  0.5056  0.9791  0.8071
  615MOL0     H84853  12.458   4.426   6.563  0.5595 -1.1612 -1.6752
  615MOL0     H84854  10.445   4.508   6.099 -3.8910  2.5428 -0.4651
  615MOL0     H84855  10.387   4.557   5.875  0.5648  0.5632 -1.1118
  615MOL0     H84856  10.363   4.781   5.551  0.4871 -0.8758  0.3404
  615MOL0     H84857  10.268   4.823   5.326 -0.4935 -1.1622 -3.6609
  615MOL0     H84858  10.456   4.688   4.996 -0.1789  1.5377 -2.2320
  615MOL0     H84859  10.329   4.571   4.948 -1.6684  0.2686 -0.7103
  615MOL0     H84860  10.369   4.785   4.822  2.0461  0.1182  0.2820
  615MOL0     H84861  10.283   4.872   4.955 -1.1836 -2.3541  0.9629
  615MOL0     H84862  10.146   4.635   4.796  4.1294  1.5947 -3.6705
  615MOL0     H84863  10.079   4.737   4.925  0.1328  0.2575 -0.0439
  615MOL0     H84864  10.189   4.834   4.653 -1.9587  0.0884 -1.6680
  615MOL0     H84865  10.130   4.937   4.773  3.4792  0.7312 -1.0664
  615MOL0     H84866   9.789   4.826   4.553  0.7149 -0.1782  0.1907
  615MOL0     H84867  10.519   4.530   5.148 -0.8836  0.7954 -0.7018
  615MOL0     H84868  10.755   4.522   5.319 -0.2012 -1.7304 -1.6122
  615MOL0     H84869  10.697   4.415   5.443 -0.9607  0.5366 -0.8814
  615MOL0     H84870  10.656   4.386   5.274  0.9371  1.2894 -2.6954
  616MOL0     O84871   7.679   3.799   8.895 -0.1889 -0.3315 -0.5322
  616MOL0     C84872   7.607   3.714   8.948  0.6063 -0.0994 -0.0894
  616MOL0     O84873   7.618   3.574   8.934  0.3985  0.0317  0.0082
  616MOL0     C84874   7.745   3.537   8.901 -0.5306  0.7152 -0.5625
  616MOL0     C84875   7.849   3.535   9.005 -0.3491  0.0245 -0.5316
  616MOL0     C84876   7.975   3.489   8.961  0.0291 -0.3827 -0.4659
  616MOL0     C84877   8.010   3.465   8.825  0.0207 -0.2165  0.3476
  616MOL0     O84878   8.138   3.429   8.790  0.6626  0.2067  0.0504
  616MOL0     C84879   8.253   3.453   8.869 -1.0491  0.0330  0.3449
  616MOL0     C84880   8.345   3.550   8.802  0.5807 -0.3103 -0.4913
  616MOL0     C84881   8.287   3.690   8.777 -0.0468  0.2455 -0.0152
  616MOL0     C84882   8.264   3.760   8.909  1.2967  0.8143 -0.0909
  616MOL0     C84883   8.198   3.899   8.899 -0.2838 -0.0026 -0.3203
  616MOL0     C84884   8.195   3.988   9.024 -0.1917 -0.2379 -1.1665
  616MOL0     C84885   8.085   4.097   9.019  0.3027 -0.0685 -0.2463
  616MOL0     C84886   8.063   4.144   9.164 -0.9289 -0.1251 -0.0474
  616MOL0     N84887   8.018   4.039   9.251 -0.4914  0.7286  0.0018
  616MOL0     C84888   7.915   3.949   9.228 -0.5685 -0.2929 -0.0472
  616MOL0     C84889   7.909   3.874   9.339 -0.4384  0.5588  0.8381
  616MOL0     C84890   7.824   3.757   9.383 -0.0996  0.1266 -0.0771
  616MOL0     C84891   7.680   3.803   9.376  0.2317 -0.8737  0.1608
  616MOL0     C84892   7.631   3.922   9.460 -0.2163 -0.6689  0.4839
  616MOL0     C84893   7.614   3.881   9.608  0.1180  0.4610 -0.4369
  616MOL0     O84894   7.533   3.983   9.671 -0.4833 -0.7534  0.4797
  616MOL0     C84895   7.592   4.097   9.733 -1.3473 -0.4152 -0.4035
  616MOL0     C84896   7.733   4.131   9.727  0.5331  0.4516  0.3541
  616MOL0     C84897   7.788   4.235   9.791 -0.2384 -0.0219 -0.7831
  616MOL0     C84898   7.942   4.246   9.775  0.4103  0.4720 -0.2704
  616MOL0     C84899   7.707   4.316   9.875  0.2856  0.7374 -0.3823
  616MOL0     C84900   7.754   4.429   9.949 -0.0119  0.0194 -0.2523
  616MOL0     O84901   7.884   4.467   9.945 -0.0207 -0.5531  0.2092
  616MOL0     C84902   7.945   4.588   9.994  0.1629  0.2864 -0.6766
  616MOL0     C84903   7.893   4.685  10.080  1.0387 -0.5631 -0.1602
  616MOL0     C84904   7.963   4.804  10.116  0.1975 -1.0647  0.5336
  616MOL0     C84905   8.093   4.833  10.064  0.1551 -0.1074 -0.1702
  616MOL0     O84906   8.147   4.956  10.086  0.1276  1.0403  0.0991
  616MOL0     C84907   8.122   5.048   9.982  0.2159  0.0894  0.0755
  616MOL0     C84908   8.215   5.040   9.861  0.5503 -0.4595 -0.7004
  616MOL0     C84909   8.359   5.000   9.887 -1.0555 -0.1880 -0.5688
  616MOL0     C84910   8.457   5.000   9.761  0.9566  1.1689  0.1044
  616MOL0     C84911   8.439   4.868   9.676  0.8166  0.0687 -0.6353
  616MOL0     C84912   8.514   4.894   9.543  0.1540  0.0615  0.3780
  616MOL0     C84913   8.520   4.782   9.438 -0.5241  0.7881  0.4610
  616MOL0     C84914   8.622   4.801   9.322 -0.4137 -0.4687 -0.0074
  616MOL0    Cl84915   8.609   4.655   9.224 -0.0023 -0.3292 -0.1770
  616MOL0     C84916   8.141   4.735   9.977  0.8885  0.4515 -0.0550
  616MOL0     C84917   8.063   4.623   9.943 -0.4216 -1.0769 -0.6335
  616MOL0     O84918   7.677   4.481  10.029  1.0315 -0.1861 -0.6836
  616MOL0     C84919   7.570   4.281   9.883 -0.0254 -0.6634  0.1657
  616MOL0     C84920   7.517   4.178   9.812 -0.0646 -0.0094  0.5522
  616MOL0     N84921   7.991   3.934   9.433  0.4262  0.2631 -0.2808
  616MOL0     N84922   8.052   4.029   9.379 -0.0492  0.0410 -1.2665
  616MOL0     C84923   7.903   3.443   8.734 -0.8462  0.3503  0.3278
  616MOL0     C84924   7.774   3.486   8.773  0.1417  0.0287  1.6617
  616MOL0     C84925   7.503   3.756   9.048  0.4705  1.1526 -0.4091
  616MOL0     C84926   7.465   3.661   9.154 -0.0991  0.1947 -0.1766
  616MOL0     C84927   7.380   3.702   9.258 -0.5756 -0.4671  0.3468
  616MOL0     C84928   7.344   3.834   9.267  0.3679  0.2101  0.5678
  616MOL0     O84929   7.256   3.890   9.360 -0.4743 -0.2178 -0.0481
  616MOL0     C84930   7.199   3.809   9.472  0.7366 -0.5407 -0.6269
  616MOL0     C84931   7.137   3.915   9.560 -0.1384  0.5610 -0.6447
  616MOL0     C84932   7.112   3.862   9.697  0.3628 -0.4950  0.4396
  616MOL0     C84933   7.230   3.865   9.798 -0.3418 -0.4498 -0.8605
  616MOL0     C84934   7.183   3.810   9.926  0.7844 -0.5877  0.4861
  616MOL0     C84935   7.142   3.769  10.030 -0.1004 -0.1448 -0.2488
  616MOL0     C84936   7.383   3.929   9.169  0.9049  1.1844 -0.1252
  616MOL0     C84937   7.446   3.888   9.053  0.3370  0.1150  0.1844
  616MOL0     C84938   7.473   3.997   8.953  0.0055 -0.0755  0.1607
  616MOL0     H84939   7.825   3.559   9.108 -1.3723 -4.4573  0.5011
  616MOL0     H84940   8.046   3.494   9.043 -0.8589  3.2759  0.2393
  616MOL0     H84941   8.299   3.354   8.877 -0.1131  0.1672 -2.3920
  616MOL0     H84942   8.230   3.482   8.972  0.5673 -1.1377  1.0713
  616MOL0     H84943   8.439   3.560   8.857  2.0919  2.4235 -3.2628
  616MOL0     H84944   8.372   3.502   8.707 -1.8782 -0.0459 -1.3828
  616MOL0     H84945   8.346   3.755   8.712  0.3467  0.1654  0.2578
  616MOL0     H84946   8.187   3.663   8.744  0.9677 -1.2289 -2.1250
  616MOL0     H84947   8.193   3.702   8.967  0.6605 -0.4908 -2.0543
  616MOL0     H84948   8.355   3.755   8.970  1.8870 -1.1821 -1.0310
  616MOL0     H84949   8.096   3.876   8.868 -0.6169  2.0736 -0.9551
  616MOL0     H84950   8.239   3.954   8.813  1.0046 -0.3662  0.0342
  616MOL0     H84951   8.169   3.926   9.111  1.7114  3.3272  2.2364
  616MOL0     H84952   8.297   4.025   9.038 -0.1537 -0.0270 -1.9926
  616MOL0     H84953   7.991   4.063   8.976  0.3860 -0.1942 -0.3287
  616MOL0     H84954   8.112   4.179   8.952 -2.3973  0.3887 -0.8950
  616MOL0     H84955   8.150   4.194   9.207 -1.6066  0.3083  0.8551
  616MOL0     H84956   7.985   4.220   9.155 -0.7740  0.1294  0.6812
  616MOL0     H84957   7.849   3.939   9.142  2.8494 -2.4479 -2.6877
  616MOL0     H84958   7.850   3.733   9.486 -0.4122  1.5838  0.3628
  616MOL0     H84959   7.836   3.670   9.317  0.3432  0.9800 -1.1500
  616MOL0     H84960   7.659   3.843   9.277 -2.5845 -1.2544  0.5378
  616MOL0     H84961   7.619   3.716   9.398 -0.5711  0.1533  2.2460
  616MOL0     H84962   7.694   4.009   9.439 -1.3815  0.0292 -0.2868
  616MOL0     H84963   7.531   3.948   9.421  1.1618  1.3240 -2.0504
  616MOL0     H84964   7.552   3.792   9.626  0.1954  0.7176  1.2435
  616MOL0     H84965   7.706   3.868   9.664 -2.2886  0.2829  3.9108
  616MOL0     H84966   7.788   4.068   9.657  0.6300  1.7305 -0.7617
  616MOL0     H84967   7.974   4.168   9.705 -1.0861 -1.5307  1.1724
  616MOL0     H84968   7.986   4.224   9.872 -0.9729  1.0979  0.5247
  616MOL0     H84969   7.973   4.345   9.738  0.6222  0.6180  0.2854
  616MOL0     H84970   7.797   4.672  10.129 -0.2020  1.3885 -1.9348
  616MOL0     H84971   7.912   4.861  10.193  1.3712 -2.3893  2.3654
  616MOL0     H84972   8.019   5.047   9.947  0.7582 -0.0038 -1.6112
  616MOL0     H84973   8.121   5.151  10.020 -4.3459  0.7353 -1.2596
  616MOL0     H84974   8.162   4.969   9.796 -2.6536 -0.5138  1.7571
  616MOL0     H84975   8.205   5.139   9.816 -0.9614  0.0104  0.5983
  616MOL0     H84976   8.368   4.907   9.943  0.6574 -0.7764 -1.7131
  616MOL0     H84977   8.415   5.073   9.946  3.5163 -2.9302 -1.0296
  616MOL0     H84978   8.561   4.999   9.796  0.4319  0.7927  1.7524
  616MOL0     H84979   8.424   5.081   9.695 -0.8266 -1.5616 -2.6491
  616MOL0     H84980   8.467   4.782   9.738 -2.8668 -1.1184 -0.3587
  616MOL0     H84981   8.333   4.848   9.657  1.4271 -1.6798 -2.5315
  616MOL0     H84982   8.613   4.926   9.576  0.2255  0.2387  0.0051
  616MOL0     H84983   8.460   4.975   9.493 -1.0620 -2.8268 -3.4453
  616MOL0     H84984   8.421   4.769   9.393 -0.5319  1.8018  0.1543
  616MOL0     H84985   8.546   4.689   9.490  1.0846  1.3472  0.7228
  616MOL0     H84986   8.722   4.825   9.359 -0.7645  1.1744 -0.0767
  616MOL0     H84987   8.587   4.889   9.268 -3.8715 -1.0097  1.0619
  616MOL0     H84988   8.237   4.755   9.929  0.8375 -0.5559 -0.6041
  616MOL0     H84989   8.107   4.554   9.873  2.3504  0.8421 -0.9540
  616MOL0     H84990   7.504   4.337   9.949 -3.2023 -1.0657 -2.4194
  616MOL0     H84991   7.410   4.161   9.823 -0.2760 -0.0147 -1.2223
  616MOL0     H84992   7.917   3.409   8.632  1.2571 -2.2426  1.3708
  616MOL0     H84993   7.685   3.492   8.710 -0.4963  1.4314  2.6296
  616MOL0     H84994   7.493   3.556   9.150 -1.5448 -0.2156 -0.0969
  616MOL0     H84995   7.354   3.620   9.324  1.6727  0.2273  2.1843
  616MOL0     H84996   7.122   3.741   9.436  1.8332 -1.8256 -0.6309
  616MOL0     H84997   7.278   3.755   9.526 -0.3073 -1.7386 -0.2742
  616MOL0     H84998   7.046   3.939   9.504 -0.1323  3.2864  0.3386
  616MOL0     H84999   7.205   4.000   9.577  1.6665 -1.0717  0.6931
  616MOL0     H85000   7.040   3.931   9.741  1.0603  1.1974 -0.9872
  616MOL0     H85001   7.070   3.761   9.690  0.9115 -0.7397  0.6511
  616MOL0     H85002   7.252   3.971   9.815  0.8240 -0.7489 -0.4206
  616MOL0     H85003   7.326   3.821   9.771 -0.4037 -1.4234  0.3830
  616MOL0     H85004   7.117   3.721  10.123  2.7220 -0.7448  0.2962
  616MOL0     H85005   7.344   4.029   9.184  0.9163  1.2350 -0.4343
  616MOL0     H85006   7.437   4.094   8.987 -2.0385 -0.8614  0.3934
  616MOL0     H85007   7.581   4.012   8.952  0.0586 -0.2339  1.7704
  616MOL0     H85008   7.420   3.975   8.859 -1.5312 -0.5189  1.0927
  617MOL0     O85009   4.458   9.688   6.458 -0.4322  0.2243  0.8148
  617MOL0     C85010   4.360   9.695   6.529  0.7261  0.0442 -0.8746
  617MOL0     O85011   4.371   9.746   6.661  0.6745 -0.2088  0.4569
  617MOL0     C85012   4.493   9.733   6.729  0.0250  0.2425 -0.6778
  617MOL0     C85013   4.584   9.625   6.707 -0.3285 -0.2173  0.2365
  617MOL0     C85014   4.707   9.625   6.778 -0.2245 -0.1926  0.0897
  617MOL0     C85015   4.748   9.736   6.852  1.0070  0.2709  0.1966
  617MOL0     O85016   4.867   9.751   6.910 -0.3148  0.3986  0.1960
  617MOL0     C85017   4.961   9.643   6.907  0.1311  0.4707 -0.4794
  617MOL0     C85018   5.063   9.663   7.025 -0.0829  0.3519 -0.0134
  617MOL0     C85019   5.165   9.777   7.019  0.0535  0.3628  0.4547
  617MOL0     C85020   5.106   9.906   7.061  0.5158  0.6227 -0.6991
  617MOL0     C85021   5.202  10.027   7.065  0.3196  0.5058 -0.0861
  617MOL0     C85022   5.250  10.077   6.931  0.1317 -0.3047  0.2480
  617MOL0     C85023   5.358  10.193   6.940  0.6470 -0.5421 -0.3919
  617MOL0     C85024   5.400  10.223   6.797 -0.5279  0.4642 -0.6397
  617MOL0     N85025   5.500  10.330   6.799  0.1724  0.1879 -0.5965
  617MOL0     C85026   5.567  10.368   6.687 -1.2607 -0.2776  0.3325
  617MOL0     C85027   5.647  10.470   6.733 -0.5700 -0.2928 -0.3739
  617MOL0     C85028   5.746  10.557   6.657  1.2455 -0.7841 -0.4423
  617MOL0     C85029   5.677  10.665   6.592 -0.7015 -0.6627  0.3089
  617MOL0     C85030   5.643  10.788   6.678 -0.1905 -0.4324 -0.4288
  617MOL0     C85031   5.551  10.883   6.603 -0.1774  0.0567 -0.7085
  617MOL0     O85032   5.428  10.825   6.578 -0.0920 -0.9697 -0.1883
  617MOL0     C85033   5.345  10.915   6.515  1.4468 -0.7580  0.6872
  617MOL0     C85034   5.222  10.967   6.571 -0.3276  0.2332  0.0263
  617MOL0     C85035   5.142  11.062   6.511 -0.7666  0.4016 -0.6545
  617MOL0     C85036   5.056  11.141   6.610  0.0170  0.1174  0.9618
  617MOL0     C85037   5.152  11.089   6.372 -0.7271 -0.2980  0.4999
  617MOL0     C85038   5.080  11.193   6.303 -0.1983  0.4593  0.0227
  617MOL0     O85039   4.963  11.238   6.354  0.1517  0.4496  0.1912
  617MOL0     C85040   4.880  11.300   6.263  1.2283 -0.1132 -0.3480
  617MOL0     C85041   4.903  11.423   6.190  0.3206 -0.4348 -0.2145
  617MOL0     C85042   4.806  11.492   6.113 -0.8376 -0.9689 -0.0638
  617MOL0     C85043   4.690  11.420   6.085 -0.2450 -0.5831 -0.1869
  617MOL0     O85044   4.601  11.477   6.001 -0.1434 -0.1868 -0.2015
  617MOL0     C85045   4.500  11.390   5.948  0.0868  0.1314  0.0299
  617MOL0     C85046   4.374  11.379   6.026 -0.5437 -0.1097 -1.0436
  617MOL0     C85047   4.286  11.505   6.001  0.1597  0.8295 -0.6309
  617MOL0     C85048   4.138  11.469   6.009 -0.3835  0.1245 -0.2992
  617MOL0     C85049   4.059  11.599   6.004 -0.7756 -0.3306 -0.2777
  617MOL0     C85050   4.051  11.662   6.133  0.0281 -0.8090 -0.5027
  617MOL0     C85051   3.984  11.805   6.122  0.0570 -0.9451 -0.2317
  617MOL0     C85052   3.843  11.797   6.086  0.3772 -0.6520  0.1932
  617MOL0    Cl85053   3.775  11.960   6.068 -0.7443  0.3306  0.1221
  617MOL0     C85054   4.670  11.291   6.150 -0.2733 -0.2425  0.3205
  617MOL0     C85055   4.764  11.230   6.233  0.2306  0.6063 -0.2253
  617MOL0     O85056   5.126  11.216   6.189  0.9326 -0.3441 -0.1869
  617MOL0     C85057   5.263  11.026   6.321 -0.6839 -0.0037  0.6821
  617MOL0     C85058   5.355  10.940   6.383 -0.3536 -0.1951 -0.6285
  617MOL0     N85059   5.630  10.482   6.875 -0.8169 -0.7123 -0.3611
  617MOL0     N85060   5.549  10.392   6.910  0.1529 -0.1582 -0.1248
  617MOL0     C85061   4.651   9.840   6.876 -0.0311 -0.1884 -0.6100
  617MOL0     C85062   4.526   9.837   6.817  0.5711 -0.3255  0.0113
  617MOL0     C85063   4.221   9.640   6.486 -0.6345  0.4611 -0.1146
  617MOL0     C85064   4.105   9.671   6.558  0.1452  0.0894  0.7303
  617MOL0     C85065   3.979   9.632   6.519  0.0832 -1.0075  0.6990
  617MOL0     C85066   3.956   9.548   6.406  0.0759  0.1005  0.7670
  617MOL0     O85067   3.835   9.502   6.363 -0.4561  0.1841  0.1270
  617MOL0     C85068   3.723   9.581   6.395 -0.3535 -0.2263  0.2877
  617MOL0     C85069   3.650   9.502   6.493 -0.1455  0.0201  0.1339
  617MOL0     C85070   3.592   9.377   6.415  0.2660  0.1057 -0.1126
  617MOL0     C85071   3.563   9.260   6.512  0.0830  0.6787 -0.1063
  617MOL0     C85072   3.460   9.162   6.472 -0.2811  0.0498  0.5287
  617MOL0     C85073   3.388   9.070   6.447 -0.3946 -0.2380 -0.4250
  617MOL0     C85074   4.075   9.502   6.340  0.4776  0.2353 -0.7017
  617MOL0     C85075   4.205   9.549   6.372 -0.4570  0.1368  0.5864
  617MOL0     C85076   4.317   9.504   6.271 -0.2193 -1.3786 -0.0031
  617MOL0     H85077   4.552   9.536   6.654 -0.5169 -1.2254  1.9469
  617MOL0     H85078   4.768   9.536   6.792  0.7729  0.8319  2.7552
  617MOL0     H85079   5.010   9.622   6.812  1.6219  0.1723  0.3307
  617MOL0     H85080   4.904   9.552   6.926  0.9661 -0.1685 -0.9596
  617MOL0     H85081   4.992   9.683   7.106 -0.8589 -2.5007  0.1217
  617MOL0     H85082   5.106   9.564   7.042  1.2166  0.8950  0.0034
  617MOL0     H85083   5.245   9.751   7.089  1.0673  0.2541 -0.7189
  617MOL0     H85084   5.214   9.788   6.922  3.1236  0.3485  1.9033
  617MOL0     H85085   5.021   9.934   6.998 -0.3657 -2.5991 -1.1444
  617MOL0     H85086   5.074   9.890   7.165 -1.5198  1.7021 -1.1120
  617MOL0     H85087   5.284   9.981   7.120  0.3442 -2.1836 -2.1131
  617MOL0     H85088   5.151  10.106   7.120 -1.6169  0.7655 -2.1001
  617MOL0     H85089   5.291   9.993   6.874 -3.1985 -1.4880 -0.6298
  617MOL0     H85090   5.158  10.112   6.883 -0.1392 -0.8182  0.3904
  617MOL0     H85091   5.443  10.156   6.998 -1.8283 -1.2058  3.1431
  617MOL0     H85092   5.325  10.279   6.999  0.5903 -1.3619  0.8175
  617MOL0     H85093   5.438  10.125   6.764  0.4903  0.2171  1.1322
  617MOL0     H85094   5.322  10.255   6.727 -0.2004  2.7154 -0.0524
  617MOL0     H85095   5.542  10.338   6.586 -0.8212 -2.8637  0.9411
  617MOL0     H85096   5.806  10.501   6.585  0.4226 -2.8878  0.4261
  617MOL0     H85097   5.807  10.593   6.740  0.7263  1.0754 -0.8208
  617MOL0     H85098   5.732  10.691   6.501  0.4234 -0.2649  1.0833
  617MOL0     H85099   5.582  10.620   6.561  0.8504 -3.8189 -0.2732
  617MOL0     H85100   5.595  10.762   6.772  0.7443  0.8988  0.4426
  617MOL0     H85101   5.741  10.827   6.709  1.0326 -4.3266  1.2634
  617MOL0     H85102   5.542  10.975   6.661  0.6650 -1.0653  1.2935
  617MOL0     H85103   5.599  10.921   6.512 -0.1814 -0.8289 -1.0858
  617MOL0     H85104   5.214  10.957   6.679  3.3723 -1.3377  0.3405
  617MOL0     H85105   5.102  11.240   6.615  1.5507 -0.5721  1.2227
  617MOL0     H85106   5.063  11.099   6.711  2.2876 -1.5211  0.1921
  617MOL0     H85107   4.952  11.147   6.577  0.0571  1.9404  1.0540
  617MOL0     H85108   4.995  11.479   6.196  0.3940 -0.6726  1.2412
  617MOL0     H85109   4.837  11.578   6.056  2.5643  0.0363  2.9053
  617MOL0     H85110   4.482  11.418   5.844 -0.0360  0.9070  0.2551
  617MOL0     H85111   4.551  11.294   5.934  0.6418  0.4467 -0.1174
  617MOL0     H85112   4.323  11.285   6.003 -1.2396 -0.7445  2.5164
  617MOL0     H85113   4.399  11.390   6.132 -1.0300 -0.5705 -0.8804
  617MOL0     H85114   4.299  11.544   5.900 -0.8695  0.9196 -0.7442
  617MOL0     H85115   4.319  11.583   6.070  0.2021 -1.5339  2.2773
  617MOL0     H85116   4.116  11.408   6.098  0.2338 -2.9267 -2.0965
  617MOL0     H85117   4.103  11.411   5.923  1.6759  0.9310 -1.7649
  617MOL0     H85118   4.111  11.667   5.937 -0.2588 -1.6418 -1.2496
  617MOL0     H85119   3.957  11.582   5.967 -1.3384  0.2190  0.9602
  617MOL0     H85120   4.148  11.665   6.182 -0.6945  1.7385  0.9927
  617MOL0     H85121   3.981  11.610   6.199 -3.6449  2.6611 -1.2098
  617MOL0     H85122   4.034  11.864   6.044 -1.8002  0.6719 -0.2504
  617MOL0     H85123   3.990  11.865   6.213 -2.4743  1.0733 -1.2755
  617MOL0     H85124   3.785  11.750   6.165 -1.3848 -2.0590 -1.8335
  617MOL0     H85125   3.829  11.754   5.986 -0.1631  0.0636 -0.0504
  617MOL0     H85126   4.589  11.225   6.122 -0.4119 -0.1219  0.4403
  617MOL0     H85127   4.731  11.141   6.286  2.0428  1.2231  2.1412
  617MOL0     H85128   5.275  11.021   6.213  1.1793 -6.2334  0.8034
  617MOL0     H85129   5.444  10.912   6.328  0.8062  0.7725  0.6475
  617MOL0     H85130   4.671   9.920   6.946 -1.7115  0.1622 -0.4868
  617MOL0     H85131   4.449   9.913   6.828  0.0651 -0.7732 -0.4162
  617MOL0     H85132   4.115   9.735   6.645  0.0844  1.5284 -0.2776
  617MOL0     H85133   3.896   9.649   6.587  0.2419 -2.9181  1.4358
  617MOL0     H85134   3.746   9.685   6.419  0.6589 -0.5993  1.0135
  617MOL0     H85135   3.663   9.594   6.304  2.7722  1.5548 -1.7074
  617MOL0     H85136   3.562   9.557   6.528 -0.5254 -0.4368 -0.0881
  617MOL0     H85137   3.697   9.481   6.589 -1.8888  2.9709  1.7775
  617MOL0     H85138   3.495   9.406   6.374  0.4343  1.2737  0.2730
  617MOL0     H85139   3.653   9.340   6.331 -3.2652 -1.5749 -2.1505
  617MOL0     H85140   3.543   9.298   6.612  0.1212 -1.4864  0.7611
  617MOL0     H85141   3.664   9.218   6.512  1.0304  2.7341 -1.9825
  617MOL0     H85142   3.311   8.997   6.431 -0.6811 -0.4512  1.7088
  617MOL0     H85143   4.065   9.435   6.255  1.6244  0.7485 -1.2707
  617MOL0     H85144   4.282   9.436   6.193 -2.1734 -1.1286  0.5907
  617MOL0     H85145   4.363   9.597   6.236  1.7617 -1.8256  1.2562
  617MOL0     H85146   4.390   9.447   6.329  0.6627 -0.3129 -0.0270
  618MOL0     O85147   6.993   3.410   5.518 -0.0553  0.3792 -0.3779
  618MOL0     C85148   6.937   3.318   5.581  1.5601 -0.3903  0.1292
  618MOL0     O85149   6.966   3.192   5.569  0.4370  0.3180 -0.4651
  618MOL0     C85150   7.064   3.148   5.483 -0.2955 -0.0191 -0.0442
  618MOL0     C85151   7.174   3.083   5.537  1.0411  0.3928 -0.4771
  618MOL0     C85152   7.271   3.027   5.446 -0.5699 -0.1380  0.3738
  618MOL0     C85153   7.256   3.046   5.305 -0.3718  0.3136  0.6785
  618MOL0     O85154   7.336   3.002   5.208 -0.2322  0.7934 -0.5418
  618MOL0     C85155   7.476   2.983   5.250  0.1341  0.1603  0.6129
  618MOL0     C85156   7.569   2.984   5.132  0.1279  0.5854 -0.6418
  618MOL0     C85157   7.543   2.869   5.037  0.2166  0.2531 -0.2341
  618MOL0     C85158   7.547   2.726   5.087 -0.2141  0.4760 -0.2499
  618MOL0     C85159   7.504   2.634   4.976  0.5535  0.2603 -0.2832
  618MOL0     C85160   7.471   2.491   5.034  0.6188 -0.2951  1.3233
  618MOL0     C85161   7.527   2.440   5.160 -0.2240 -0.4195 -0.7988
  618MOL0     C85162   7.494   2.295   5.184 -0.3298  0.4200  0.3010
  618MOL0     N85163   7.551   2.249   5.312  0.0871 -0.4770  0.3272
  618MOL0     C85164   7.501   2.146   5.389 -0.1944 -0.9709 -0.0088
  618MOL0     C85165   7.576   2.145   5.506  1.2147  0.4154  0.2948
  618MOL0     C85166   7.536   2.058   5.628 -0.6376  1.1303  0.0587
  618MOL0     C85167   7.418   2.103   5.709 -0.1234  0.1332 -1.0848
  618MOL0     C85168   7.440   2.250   5.771  0.4907  0.3188  0.4709
  618MOL0     C85169   7.522   2.249   5.897 -0.7303  0.1844 -0.2075
  618MOL0     O85170   7.479   2.160   6.003 -0.3978 -0.9674  0.7069
  618MOL0     C85171   7.568   2.147   6.111 -1.1742  0.9178 -0.6825
  618MOL0     C85172   7.542   2.037   6.200  0.1020 -0.0903 -0.7161
  618MOL0     C85173   7.620   2.009   6.312 -0.5732 -0.5511  0.3255
  618MOL0     C85174   7.609   1.883   6.389  0.1729  0.1218  0.0131
  618MOL0     C85175   7.727   2.093   6.344  0.4928  0.3969 -0.0202
  618MOL0     C85176   7.809   2.094   6.476  0.8447  0.0933  0.2110
  618MOL0     O85177   7.764   2.024   6.586 -0.3874 -0.0131  0.3703
  618MOL0     C85178   7.824   2.028   6.704  0.3104  0.6419 -0.1981
  618MOL0     C85179   7.832   1.901   6.775 -0.3287  0.5182 -0.0297
  618MOL0     C85180   7.883   1.902   6.902  0.0158  0.8871 -0.3404
  618MOL0     C85181   7.955   2.011   6.949  0.0636  0.5587 -0.7554
  618MOL0     O85182   8.021   2.026   7.071 -0.9305  0.3912  0.7492
  618MOL0     C85183   8.032   1.912   7.158  0.2240 -0.2625  0.0427
  618MOL0     C85184   8.033   1.962   7.301 -0.1886 -0.2871  0.2385
  618MOL0     C85185   7.913   2.058   7.337 -0.1844  0.3242  0.0127
  618MOL0     C85186   7.865   2.068   7.477 -0.3656  0.7926  0.3261
  618MOL0     C85187   7.966   2.100   7.581 -1.1123  0.0382 -0.7367
  618MOL0     C85188   7.900   2.130   7.715 -0.4105  0.1378  0.0895
  618MOL0     C85189   8.012   2.117   7.831 -0.7746 -0.0365 -0.8061
  618MOL0     C85190   7.951   2.146   7.966 -0.3075  0.4006  0.7446
  618MOL0    Cl85191   7.938   2.317   7.981  0.4636  0.1804 -0.3775
  618MOL0     C85192   7.949   2.126   6.878  0.3442  0.1561  0.3313
  618MOL0     C85193   7.888   2.134   6.757  0.3904 -0.5301  0.6084
  618MOL0     O85194   7.915   2.150   6.465  0.1162  0.3692  0.2085
  618MOL0     C85195   7.750   2.204   6.257  0.2500  0.8922 -0.9840
  618MOL0     C85196   7.684   2.222   6.140  0.5183  0.0773  0.5569
  618MOL0     N85197   7.679   2.244   5.489  0.0340  1.0307 -0.3813
  618MOL0     N85198   7.668   2.293   5.369  0.2779  0.2141  0.2164
  618MOL0     C85199   7.141   3.111   5.259  0.7236  0.7820  1.0018
  618MOL0     C85200   7.050   3.159   5.348 -0.1266 -0.1019 -0.3833
  618MOL0     C85201   6.820   3.348   5.666 -0.6619 -0.4834  0.2477
  618MOL0     C85202   6.705   3.271   5.659 -0.4116  0.2163 -0.1808
  618MOL0     C85203   6.595   3.288   5.737  0.2649  0.6418 -0.8011
  618MOL0     C85204   6.582   3.404   5.813  0.2742  0.0444 -0.1766
  618MOL0     O85205   6.462   3.423   5.870 -0.3499 -0.3988  0.1569
  618MOL0     C85206   6.459   3.508   5.990  0.4232  0.2515  0.0423
  618MOL0     C85207   6.427   3.652   5.955 -0.6980 -0.6304 -0.4657
  618MOL0     C85208   6.280   3.687   5.947 -0.5899  0.0113  0.6607
  618MOL0     C85209   6.219   3.646   5.808  0.3102 -0.2840  0.5381
  618MOL0     C85210   6.106   3.737   5.780 -0.2603 -0.0612  0.2278
  618MOL0     C85211   6.020   3.807   5.743 -0.1493  0.2934  0.2315
  618MOL0     C85212   6.698   3.480   5.829  0.0107 -0.7674  0.5128
  618MOL0     C85213   6.818   3.457   5.757 -0.0664  0.3272 -0.1370
  618MOL0     C85214   6.942   3.546   5.784 -0.0183  0.0623  0.6795
  618MOL0     H85215   7.189   3.080   5.644  2.6642 -1.0148 -0.6978
  618MOL0     H85216   7.365   2.994   5.487 -0.8356 -0.3388  0.8311
  618MOL0     H85217   7.496   2.889   5.302  1.1408  0.6643  1.1761
  618MOL0     H85218   7.504   3.068   5.313 -1.2579  1.6393 -0.6575
  618MOL0     H85219   7.559   3.076   5.072  1.3170 -1.0099 -3.4838
  618MOL0     H85220   7.673   2.980   5.164  0.6412  3.2718 -1.6531
  618MOL0     H85221   7.442   2.885   4.996 -0.2602 -1.2752  0.2603
  618MOL0     H85222   7.612   2.881   4.953 -0.0617  0.3246 -0.4533
  618MOL0     H85223   7.645   2.709   5.131 -0.2313  0.3119 -0.2777
  618MOL0     H85224   7.471   2.719   5.166 -1.6914  0.0146 -1.6661
  618MOL0     H85225   7.587   2.611   4.909 -1.0077 -2.0022 -1.5850
  618MOL0     H85226   7.421   2.684   4.925  1.5978  3.3365  0.8166
  618MOL0     H85227   7.362   2.492   5.044  0.3698 -0.8770 -0.8714
  618MOL0     H85228   7.478   2.413   4.958 -2.8433 -1.4214  1.9829
  618MOL0     H85229   7.485   2.498   5.242  0.2075 -0.9183 -0.2177
  618MOL0     H85230   7.634   2.461   5.169 -0.5188  0.8937 -0.2429
  618MOL0     H85231   7.385   2.281   5.177 -0.4786  1.4478  0.4849
  618MOL0     H85232   7.544   2.245   5.100  0.8429  1.0419  0.6081
  618MOL0     H85233   7.413   2.084   5.373 -1.4074  0.7333 -0.2998
  618MOL0     H85234   7.614   2.047   5.704 -2.3416 -0.3898  1.6822
  618MOL0     H85235   7.518   1.958   5.586 -0.1679  0.3409  1.6782
  618MOL0     H85236   7.335   2.114   5.638  1.5273  0.1047 -3.0952
  618MOL0     H85237   7.386   2.042   5.794  0.4151  1.2360 -0.0691
  618MOL0     H85238   7.482   2.321   5.699  2.0096 -0.7335  0.2529
  618MOL0     H85239   7.340   2.292   5.786 -0.2264  0.5058 -3.6598
  618MOL0     H85240   7.628   2.224   5.883 -1.4123 -2.1618 -1.6492
  618MOL0     H85241   7.519   2.351   5.937 -0.9344  1.3454 -2.9548
  618MOL0     H85242   7.468   1.962   6.172 -0.4510  0.2562 -0.2094
  618MOL0     H85243   7.526   1.892   6.461 -0.4997 -1.5576 -0.5089
  618MOL0     H85244   7.700   1.852   6.442  0.1714  1.0389  0.5685
  618MOL0     H85245   7.583   1.794   6.331 -1.0110  0.1187  0.5129
  618MOL0     H85246   7.805   1.813   6.717  0.5571  1.6128 -2.2451
  618MOL0     H85247   7.878   1.806   6.952  1.4082  0.5746 -0.7576
  618MOL0     H85248   7.959   1.831   7.156  1.3883 -1.3587  0.3303
  618MOL0     H85249   8.132   1.876   7.133  1.0823  0.6364  1.9598
  618MOL0     H85250   8.028   1.880   7.373  0.8274  0.3753  1.0894
  618MOL0     H85251   8.121   2.022   7.327 -0.9987  0.9360  0.2390
  618MOL0     H85252   7.833   2.038   7.265  0.6111 -1.4914 -0.4160
  618MOL0     H85253   7.940   2.160   7.309  1.3809 -0.3968 -1.2945
  618MOL0     H85254   7.820   1.974   7.508 -2.0705  2.3356  3.0128
  618MOL0     H85255   7.778   2.134   7.482 -1.5114 -0.3025 -2.8012
  618MOL0     H85256   8.037   2.018   7.598 -1.0366  0.5722  2.1043
  618MOL0     H85257   8.030   2.180   7.543  1.8255 -2.0792 -0.5809
  618MOL0     H85258   7.822   2.056   7.735 -0.6375 -0.8116 -3.6947
  618MOL0     H85259   7.865   2.233   7.713  0.6554  0.5463 -2.8245
  618MOL0     H85260   8.089   2.195   7.829 -0.5705 -0.0650  2.2717
  618MOL0     H85261   8.070   2.025   7.821 -1.2319 -0.1054 -3.6863
  618MOL0     H85262   8.025   2.112   8.040  2.7118  0.6583 -1.9306
  618MOL0     H85263   7.852   2.104   7.984 -0.4343 -0.9900 -2.4655
  618MOL0     H85264   7.997   2.218   6.910 -1.7542  2.1569 -1.8684
  618MOL0     H85265   7.898   2.222   6.694 -1.8996  1.2468  2.5443
  618MOL0     H85266   7.830   2.275   6.272 -0.0398  1.6255 -2.7487
  618MOL0     H85267   7.710   2.301   6.070  0.5275 -0.6070 -0.2274
  618MOL0     H85268   7.125   3.118   5.152 -0.0621 -1.0520  0.9559
  618MOL0     H85269   6.950   3.193   5.320 -0.8814  0.2067  2.3631
  618MOL0     H85270   6.695   3.185   5.594 -2.7852 -0.3324  0.7981
  618MOL0     H85271   6.511   3.221   5.726  1.0670 -0.2039 -2.1034
  618MOL0     H85272   6.377   3.478   6.056 -0.8056  1.5233 -0.8488
  618MOL0     H85273   6.544   3.492   6.056 -0.2884  1.6077  1.3442
  618MOL0     H85274   6.478   3.671   5.860 -3.8551  0.2375 -2.1145
  618MOL0     H85275   6.476   3.713   6.032 -1.7636 -2.1471  1.4809
  618MOL0     H85276   6.231   3.628   6.024  0.9886  0.0952  1.7688
  618MOL0     H85277   6.266   3.794   5.965 -2.1472  0.6071 -3.1609
  618MOL0     H85278   6.179   3.544   5.811 -0.3707 -0.0710 -0.7225
  618MOL0     H85279   6.298   3.648   5.732  2.3900  2.9866  2.5349
  618MOL0     H85280   5.933   3.859   5.709 -0.2214  0.1534  0.2043
  618MOL0     H85281   6.696   3.560   5.902  2.5733  0.5473 -0.7146
  618MOL0     H85282   6.942   3.624   5.707 -2.0179  0.2770  0.8345
  618MOL0     H85283   6.925   3.593   5.881  1.1405 -2.6303  2.2889
  618MOL0     H85284   7.034   3.486   5.786  0.6742  0.9257 -1.8152
  619MOL0     O85285   3.000  10.582   1.752 -0.8015 -0.5939 -0.9080
  619MOL0     C85286   3.093  10.552   1.832  0.3177 -0.2386 -0.1824
  619MOL0     O85287   3.157  10.430   1.836  0.6977  0.0733  0.7516
  619MOL0     C85288   3.078  10.323   1.778  0.3188 -0.0205  0.0366
  619MOL0     C85289   2.946  10.280   1.812 -0.5957  0.0077  0.4408
  619MOL0     C85290   2.888  10.168   1.754  0.2732 -0.1081  0.7975
  619MOL0     C85291   2.958  10.091   1.663 -0.2035 -0.2309  0.0218
  619MOL0     O85292   2.902   9.978   1.612 -0.0590  0.0800 -0.3240
  619MOL0     C85293   2.980   9.853   1.624  0.2988  0.1935 -0.2467
  619MOL0     C85294   2.892   9.740   1.677 -0.1620  0.7965  0.1236
  619MOL0     C85295   2.773   9.719   1.587 -0.2211  0.4603 -0.2968
  619MOL0     C85296   2.827   9.685   1.441  0.2330 -0.1181 -0.5643
  619MOL0     C85297   2.718   9.621   1.354 -0.1734 -1.1420 -0.4844
  619MOL0     C85298   2.689   9.478   1.380  0.7793 -1.2240  0.2133
  619MOL0     C85299   2.550   9.419   1.336 -0.5413 -0.3427  0.3380
  619MOL0     C85300   2.419   9.466   1.401  0.7068  0.1168  0.2851
  619MOL0     N85301   2.439   9.497   1.540 -0.1955  0.3110 -0.7198
  619MOL0     C85302   2.484   9.409   1.631 -0.7931 -0.1856 -0.5450
  619MOL0     C85303   2.470   9.476   1.750  0.7821  0.4309 -0.1310
  619MOL0     C85304   2.521   9.424   1.880 -0.0577  0.4709  0.1322
  619MOL0     C85305   2.674   9.452   1.887  0.4655  0.2313 -0.6969
  619MOL0     C85306   2.728   9.372   1.996  0.0293  0.2709 -0.6385
  619MOL0     C85307   2.818   9.454   2.083  0.1656 -0.5099 -0.6223
  619MOL0     O85308   2.931   9.508   2.013  0.5669 -0.4956  0.6452
  619MOL0     C85309   2.993   9.612   2.080 -0.1647  0.6945 -0.6875
  619MOL0     C85310   2.962   9.647   2.213 -0.1554  0.1975  0.8656
  619MOL0     C85311   3.032   9.748   2.268 -0.3933 -0.0539 -0.1946
  619MOL0     C85312   3.003   9.771   2.413 -0.4429 -0.1911  0.5184
  619MOL0     C85313   3.126   9.825   2.200  0.0238  0.3743 -0.1440
  619MOL0     C85314   3.210   9.934   2.256  0.4904  0.0516  1.1047
  619MOL0     O85315   3.262  10.011   2.161  0.0103 -0.2601  0.4364
  619MOL0     C85316   3.352  10.112   2.199  0.3382  0.6311  0.7877
  619MOL0     C85317   3.480  10.079   2.242 -0.3267  0.0476  1.2162
  619MOL0     C85318   3.579  10.176   2.270 -0.6369 -0.6059  0.2577
  619MOL0     C85319   3.542  10.317   2.260 -0.0541 -0.0203  0.8070
  619MOL0     O85320   3.643  10.411   2.260 -0.3992 -0.0636  0.2099
  619MOL0     C85321   3.742  10.398   2.372  0.2623 -0.4433  0.4194
  619MOL0     C85322   3.695  10.483   2.492 -0.3974 -0.0927 -0.5651
  619MOL0     C85323   3.733  10.631   2.483  0.7233  0.0602 -0.3911
  619MOL0     C85324   3.714  10.692   2.352 -0.3508  0.2955 -1.0082
  619MOL0     C85325   3.738  10.839   2.353  0.4318 -0.0407  0.0998
  619MOL0     C85326   3.741  10.897   2.206  0.8657  0.6085  0.2099
  619MOL0     C85327   3.654  11.028   2.203 -0.5726  0.2924  0.1710
  619MOL0     C85328   3.658  11.095   2.069 -0.1362 -0.1097  0.8763
  619MOL0    Cl85329   3.786  11.210   2.074 -0.3789  0.2349  0.2093
  619MOL0     C85330   3.409  10.348   2.220  0.8989 -0.9359  0.3078
  619MOL0     C85331   3.318  10.253   2.190  0.7276 -0.0169 -1.2817
  619MOL0     O85332   3.229   9.940   2.378 -0.2768 -0.5082  0.1123
  619MOL0     C85333   3.132   9.802   2.063 -1.1137  0.0922 -0.1872
  619MOL0     C85334   3.071   9.691   2.010  0.0206  0.2530  0.2683
  619MOL0     N85335   2.412   9.599   1.729  0.2935  1.0617 -0.3403
  619MOL0     N85336   2.390   9.605   1.602  0.7963 -0.4023  0.2758
  619MOL0     C85337   3.081  10.143   1.614 -0.0734 -0.3866  0.2238
  619MOL0     C85338   3.145  10.260   1.674 -0.3829  1.1450  0.7470
  619MOL0     C85339   3.141  10.665   1.915 -0.0967 -0.1323 -1.3539
  619MOL0     C85340   3.265  10.660   1.980  0.2390  0.6750  0.8180
  619MOL0     C85341   3.314  10.752   2.072  0.2656  0.2228  0.1073
  619MOL0     C85342   3.244  10.871   2.099 -0.2037  0.0595 -0.2906
  619MOL0     O85343   3.295  10.973   2.167 -0.5024  0.5228  0.1103
  619MOL0     C85344   3.264  11.108   2.119  0.1018 -0.1544 -0.0691
  619MOL0     C85345   3.150  11.164   2.209  0.2024 -0.2151 -0.9465
  619MOL0     C85346   3.163  11.143   2.360 -0.5905 -0.7338  0.7494
  619MOL0     C85347   3.039  11.169   2.444 -0.0400  0.1338 -0.4571
  619MOL0     C85348   2.947  11.275   2.390  0.2825  0.1580 -0.1634
  619MOL0     C85349   2.872  11.366   2.367  0.3889  0.2380 -0.2655
  619MOL0     C85350   3.112  10.870   2.044  0.2196 -0.5385 -0.5343
  619MOL0     C85351   3.057  10.772   1.961 -0.7148  0.6830 -0.3367
  619MOL0     C85352   2.907  10.776   1.947  0.5085  1.0583 -0.0735
  619MOL0     H85353   2.884  10.346   1.872 -0.6333  1.0574 -0.7146
  619MOL0     H85354   2.794  10.124   1.784 -1.0177  0.7731 -1.6877
  619MOL0     H85355   3.064   9.876   1.691  1.1386  1.0796 -1.5531
  619MOL0     H85356   3.027   9.830   1.528  0.7688  1.0221 -0.2300
  619MOL0     H85357   2.949   9.646   1.679  1.3181  1.6757  1.5255
  619MOL0     H85358   2.859   9.764   1.778  0.3243  2.7967 -0.1532
  619MOL0     H85359   2.721   9.633   1.630 -0.4969 -0.0616 -1.6291
  619MOL0     H85360   2.718   9.814   1.588 -3.6203 -1.2848  2.4907
  619MOL0     H85361   2.878   9.766   1.388  2.3934 -0.5570  0.7261
  619MOL0     H85362   2.902   9.605   1.449  1.1132  0.3330 -3.1996
  619MOL0     H85363   2.737   9.623   1.246 -2.5193 -4.8775 -1.1473
  619MOL0     H85364   2.632   9.682   1.381 -0.2313 -2.4139  2.5647
  619MOL0     H85365   2.773   9.430   1.328  1.4536 -0.0724  0.1912
  619MOL0     H85366   2.694   9.463   1.488 -0.4250  0.3959  0.5349
  619MOL0     H85367   2.545   9.311   1.323 -0.8970 -0.0548 -3.0894
  619MOL0     H85368   2.544   9.446   1.230 -1.1823 -1.4583  0.0770
  619MOL0     H85369   2.395   9.557   1.345 -1.4936 -0.9348 -0.6088
  619MOL0     H85370   2.338   9.393   1.395  0.8475  0.0788 -3.4811
  619MOL0     H85371   2.538   9.316   1.618  0.5957  0.6444 -1.0000
  619MOL0     H85372   2.491   9.319   1.871 -2.2462  1.1698 -1.8656
  619MOL0     H85373   2.474   9.475   1.965 -1.5667  2.1170 -1.5956
  619MOL0     H85374   2.725   9.438   1.791 -0.6876  0.7202 -1.4030
  619MOL0     H85375   2.683   9.560   1.899  1.8881  0.4304 -2.9344
  619MOL0     H85376   2.639   9.336   2.048 -1.2579 -0.6845 -3.3127
  619MOL0     H85377   2.780   9.282   1.963 -1.3679  0.3533 -3.3883
  619MOL0     H85378   2.752   9.530   2.126  0.4796  0.1887 -1.3602
  619MOL0     H85379   2.835   9.386   2.167 -3.1159 -3.2139 -1.9101
  619MOL0     H85380   2.895   9.589   2.276  1.7869 -2.5325  0.5456
  619MOL0     H85381   3.083   9.742   2.482 -0.1788 -0.1802  0.2167
  619MOL0     H85382   2.911   9.721   2.448 -0.0186 -1.1453  0.2993
  619MOL0     H85383   2.979   9.878   2.415  0.5021  0.0353  2.5058
  619MOL0     H85384   3.514   9.978   2.223 -2.5783 -0.5676  0.2191
  619MOL0     H85385   3.684  10.149   2.279 -0.8506 -1.0369  1.8292
  619MOL0     H85386   3.750  10.294   2.403 -0.0052 -0.3623  0.7658
  619MOL0     H85387   3.840  10.430   2.336  1.1092 -1.3576  1.8318
  619MOL0     H85388   3.586  10.491   2.495 -0.3276  0.6368  1.0544
  619MOL0     H85389   3.743  10.439   2.580  1.0660 -1.0889 -1.8026
  619MOL0     H85390   3.839  10.632   2.511  0.7427  1.2699 -0.4537
  619MOL0     H85391   3.679  10.686   2.561  2.2333  2.1166 -0.7156
  619MOL0     H85392   3.611  10.675   2.321 -1.3768 -2.4314  3.1236
  619MOL0     H85393   3.781  10.640   2.283  1.4249 -0.9929  1.5356
  619MOL0     H85394   3.653  10.881   2.407 -3.2047 -4.6195 -1.3981
  619MOL0     H85395   3.832  10.856   2.405 -1.0580  2.2602  2.2649
  619MOL0     H85396   3.711  10.817   2.139  3.0577 -2.4978  2.6201
  619MOL0     H85397   3.840  10.928   2.171  1.1594  1.1339  1.4245
  619MOL0     H85398   3.681  11.102   2.279 -1.6765  2.6909 -1.6335
  619MOL0     H85399   3.553  10.988   2.217 -0.5735  0.3145  0.2274
  619MOL0     H85400   3.562  11.146   2.063  0.1703  0.4833  1.0151
  619MOL0     H85401   3.669  11.033   1.979  2.7038  1.7933 -0.2286
  619MOL0     H85402   3.385  10.453   2.230  0.7762 -0.8935 -0.3822
  619MOL0     H85403   3.219  10.278   2.152  0.4795 -0.7436 -1.1328
  619MOL0     H85404   3.198   9.867   2.006 -1.5698  2.7346  2.0265
  619MOL0     H85405   3.071   9.671   1.904 -0.6883 -1.4587  0.5603
  619MOL0     H85406   3.134  10.085   1.539 -1.0639 -0.2380 -0.6171
  619MOL0     H85407   3.238  10.308   1.649  0.1050  1.1111  2.3601
  619MOL0     H85408   3.323  10.569   1.967 -3.0683 -1.2924 -2.1758
  619MOL0     H85409   3.415  10.736   2.109  0.5992 -1.1939 -1.3164
  619MOL0     H85410   3.347  11.177   2.101 -0.5005 -0.0321 -2.9069
  619MOL0     H85411   3.227  11.111   2.015  3.4257 -1.2528 -1.4027
  619MOL0     H85412   3.060  11.118   2.167  0.3111  0.0689 -1.5066
  619MOL0     H85413   3.132  11.270   2.191  0.2800 -0.4487 -2.6479
  619MOL0     H85414   3.205  11.043   2.377  1.6548  0.3274  1.8242
  619MOL0     H85415   3.245  11.206   2.395  0.6535 -1.1760 -1.1678
  619MOL0     H85416   3.067  11.200   2.545  0.1560 -1.4627  0.0165
  619MOL0     H85417   2.988  11.073   2.456 -1.1948  0.8516  0.5165
  619MOL0     H85418   2.802  11.444   2.343  2.0755  2.2720  0.9983
  619MOL0     H85419   3.051  10.958   2.062  1.8056  0.5203 -0.0537
  619MOL0     H85420   2.857  10.864   1.987 -2.8021  0.5762 -2.6783
  619MOL0     H85421   2.867  10.765   1.846  0.1463 -1.5144  0.2803
  619MOL0     H85422   2.865  10.687   1.995 -1.3729  0.3900 -2.7480
  620MOL0     O85423   9.944  10.618   7.974  0.2099 -0.5934  0.3748
  620MOL0     C85424   9.914  10.654   8.082 -0.7154  0.0800 -0.6385
  620MOL0     O85425   9.991  10.645   8.196 -0.3847 -0.6951  0.2150
  620MOL0     C85426  10.099  10.550   8.196  0.6970  0.2836  0.5251
  620MOL0     C85427  10.224  10.584   8.260 -0.1781  0.2195  0.2780
  620MOL0     C85428  10.316  10.482   8.281  0.0425  0.4107 -0.1589
  620MOL0     C85429  10.298  10.350   8.248  0.3570 -0.4929  0.7434
  620MOL0     O85430  10.376  10.245   8.274 -0.6108  0.1887  0.2973
  620MOL0     C85431  10.517  10.265   8.307 -0.3078  0.4319 -0.8394
  620MOL0     C85432  10.600  10.321   8.192  0.7940 -0.3095 -0.0023
  620MOL0     C85433  10.747  10.332   8.225  0.9052  0.3200  0.3788
  620MOL0     C85434  10.824  10.379   8.104 -0.3002  0.0807  0.1122
  620MOL0     C85435  10.969  10.365   8.120 -0.2834  0.2933  0.5670
  620MOL0     C85436  11.046  10.385   7.985  0.7479  0.4466  0.9608
  620MOL0     C85437  11.182  10.422   7.997 -0.7212 -0.0049 -0.3027
  620MOL0     C85438  11.264  10.310   8.069 -0.4158  0.3674 -0.3354
  620MOL0     N85439  11.404  10.354   8.100  0.5621 -0.1736  0.3067
  620MOL0     C85440  11.512  10.296   8.040 -0.1718 -0.1013  0.0136
  620MOL0     C85441  11.609  10.376   8.078  0.6761  0.7403  1.6655
  620MOL0     C85442  11.754  10.367   8.021 -0.0583 -1.0125 -0.7031
  620MOL0     C85443  11.756  10.417   7.873 -0.3371  0.2199 -0.1376
  620MOL0     C85444  11.737  10.569   7.868 -0.0815 -0.3134 -0.2968
  620MOL0     C85445  11.757  10.640   7.739  0.1954 -0.2908 -0.6010
  620MOL0     O85446  11.867  10.609   7.660  0.2615 -0.2587 -0.4281
  620MOL0     C85447  11.991  10.645   7.701  0.7941 -0.6997 -0.3208
  620MOL0     C85448  12.099  10.571   7.664 -0.5537 -0.8805 -0.3305
  620MOL0     C85449  12.231  10.606   7.710  0.5146  0.7748 -0.1339
  620MOL0     C85450  12.356  10.538   7.657 -0.0361 -0.8958  0.7771
  620MOL0     C85451  12.244  10.707   7.797 -0.5939 -0.1478  1.0695
  620MOL0     C85452  12.377  10.762   7.847  0.1177 -0.1174 -0.4699
  620MOL0     O85453  12.414  10.897   7.831  0.4090 -0.0252  0.7251
  620MOL0     C85454  12.538  10.949   7.836 -0.3781 -0.2831 -0.9054
  620MOL0     C85455  12.658  10.883   7.831 -0.4397 -0.1381 -0.9748
  620MOL0     C85456  12.788  10.936   7.843 -0.4478  0.0880 -0.0333
  620MOL0     C85457  12.807  11.079   7.845  0.1583  0.0286 -0.0592
  620MOL0     O85458  12.918  11.151   7.854 -0.4881 -0.4642 -0.2660
  620MOL0     C85459  13.044  11.092   7.813 -0.2530  0.6721 -0.1258
  620MOL0     C85460  13.154  11.194   7.808  0.0154  0.3072  0.9981
  620MOL0     C85461  13.181  11.279   7.931  0.1220  0.2402 -0.0921
  620MOL0     C85462  13.163  11.192   8.057  0.0655 -0.2102  0.5313
  620MOL0     C85463  13.214  11.268   8.184 -0.2310 -0.7235 -0.5943
  620MOL0     C85464  13.365  11.302   8.188  1.0362  0.5640 -0.4593
  620MOL0     C85465  13.463  11.182   8.172 -0.0170  0.2601 -0.7342
  620MOL0     C85466  13.542  11.193   8.042 -0.2908 -0.1870  0.0609
  620MOL0    Cl85467  13.686  11.085   8.053  0.1944 -0.0817  0.5504
  620MOL0     C85468  12.687  11.147   7.834  0.1821 -1.0507 -0.2754
  620MOL0     C85469  12.554  11.087   7.830  0.5899 -0.5316 -1.0343
  620MOL0     O85470  12.456  10.677   7.895 -0.1280  0.3642 -0.8774
  620MOL0     C85471  12.142  10.784   7.836 -0.1556  0.2706 -0.4580
  620MOL0     C85472  12.004  10.753   7.790 -0.0265 -0.8522  0.0041
  620MOL0     N85473  11.551  10.481   8.149  0.1612  1.0565  0.3135
  620MOL0     N85474  11.426  10.467   8.160 -0.3516  1.0995  0.5093
  620MOL0     C85475  10.174  10.316   8.182 -0.4907  1.0812 -0.5565
  620MOL0     C85476  10.080  10.414   8.164  0.7466 -0.5594  0.4822
  620MOL0     C85477   9.789  10.725   8.102  0.8998 -0.4836 -0.1024
  620MOL0     C85478   9.785  10.836   8.185 -0.0235  0.5325 -0.2234
  620MOL0     C85479   9.671  10.912   8.216  0.5724 -0.2950  0.8585
  620MOL0     C85480   9.549  10.886   8.149 -0.5508  0.1465 -1.0195
  620MOL0     O85481   9.445  10.975   8.164  0.5322  0.7620 -0.0673
  620MOL0     C85482   9.323  10.951   8.090  0.7454 -0.5131  0.0847
  620MOL0     C85483   9.328  10.973   7.942  0.1250 -1.0714  0.4247
  620MOL0     C85484   9.198  10.957   7.874  0.2289  0.2951  0.0223
  620MOL0     C85485   9.112  11.079   7.870 -0.4808  0.1872 -0.2509
  620MOL0     C85486   8.980  11.090   7.805  0.5862  0.1487  0.6114
  620MOL0     C85487   8.864  11.121   7.783 -0.5082  0.2737 -0.7895
  620MOL0     C85488   9.548  10.768   8.063 -1.2674 -0.5062  0.0002
  620MOL0     C85489   9.663  10.687   8.042 -0.0586 -0.0608  0.6420
  620MOL0     C85490   9.655  10.556   7.965  0.2930  0.7331 -0.1929
  620MOL0     H85491  10.244  10.682   8.303  3.4631 -0.6201  0.8427
  620MOL0     H85492  10.406  10.496   8.339  1.1113  1.4244 -1.9901
  620MOL0     H85493  10.556  10.165   8.331 -1.9269 -0.3317 -1.2463
  620MOL0     H85494  10.531  10.325   8.398  2.8562 -3.0110  1.2648
  620MOL0     H85495  10.592  10.246   8.112  2.9962  1.2904 -1.8526
  620MOL0     H85496  10.562  10.417   8.155  0.4111  0.0333  1.2559
  620MOL0     H85497  10.742  10.409   8.302  0.6239 -0.4063  1.0925
  620MOL0     H85498  10.783  10.240   8.272  0.1203 -1.3943 -2.1222
  620MOL0     H85499  10.790  10.322   8.016 -0.2630 -1.6086  1.1557
  620MOL0     H85500  10.797  10.484   8.088  0.1077  0.0174 -1.0838
  620MOL0     H85501  10.985  10.265   8.161  1.0142  0.1985 -0.0903
  620MOL0     H85502  11.004  10.429   8.201  0.2556  0.1033  0.4881
  620MOL0     H85503  11.038  10.293   7.926 -2.2756  2.4030 -2.0702
  620MOL0     H85504  10.987  10.459   7.930 -2.1173 -0.4040  2.6576
  620MOL0     H85505  11.182  10.513   8.059 -2.4443  0.3433 -0.7577
  620MOL0     H85506  11.239  10.443   7.906  0.0538  3.2336  0.8109
  620MOL0     H85507  11.222  10.275   8.164  1.2187 -1.4340 -0.2004
  620MOL0     H85508  11.266  10.220   8.007  2.6187 -0.2261  0.4451
  620MOL0     H85509  11.522  10.220   7.962  0.2310 -1.1831  1.0871
  620MOL0     H85510  11.781  10.261   8.016 -0.5446 -1.2658  1.1617
  620MOL0     H85511  11.833  10.412   8.081 -1.7695  2.0900 -0.5613
  620MOL0     H85512  11.846  10.381   7.821 -1.0530  0.3001 -1.4677
  620MOL0     H85513  11.667  10.378   7.822  0.8451 -4.1451  0.7388
  620MOL0     H85514  11.637  10.597   7.902 -0.0771 -1.4532  0.7150
  620MOL0     H85515  11.807  10.611   7.940 -0.1155  2.2275 -1.6201
  620MOL0     H85516  11.671  10.601   7.683 -1.8563  3.0803 -0.0876
  620MOL0     H85517  11.744  10.748   7.750 -0.8573 -0.6936  5.3228
  620MOL0     H85518  12.094  10.480   7.604  1.5321 -1.5704  0.4255
  620MOL0     H85519  12.423  10.622   7.636  1.1485 -1.8746  0.5071
  620MOL0     H85520  12.336  10.495   7.558 -0.6495 -1.3012  1.0701
  620MOL0     H85521  12.411  10.470   7.722  3.8823 -0.0300 -1.3371
  620MOL0     H85522  12.660  10.775   7.827  0.5881 -0.1212 -1.4276
  620MOL0     H85523  12.874  10.869   7.845 -0.7801 -0.4360 -1.5849
  620MOL0     H85524  13.077  11.011   7.880 -4.0305 -1.3403 -0.3863
  620MOL0     H85525  13.028  11.053   7.712 -1.1319  2.9316 -0.9231
  620MOL0     H85526  13.249  11.143   7.789  0.2429 -0.2725  3.4458
  620MOL0     H85527  13.133  11.268   7.730  1.3384  0.8373  1.1165
  620MOL0     H85528  13.111  11.362   7.943 -1.1207 -0.7589 -0.1923
  620MOL0     H85529  13.285  11.311   7.925 -0.3423  2.2011  1.5196
  620MOL0     H85530  13.207  11.093   8.044  1.5468  0.6450 -1.4996
  620MOL0     H85531  13.059  11.164   8.076  0.1264 -0.7268  0.1095
  620MOL0     H85532  13.173  11.368   8.168  1.3871  0.2008  0.8242
  620MOL0     H85533  13.179  11.217   8.274 -0.2349 -1.2588 -0.8941
  620MOL0     H85534  13.380  11.354   8.282 -2.4877 -1.2002  1.2473
  620MOL0     H85535  13.386  11.376   8.110  0.6500  1.3748  0.1945
  620MOL0     H85536  13.424  11.080   8.182  1.2455 -0.0835  1.1629
  620MOL0     H85537  13.531  11.202   8.255 -0.2502 -3.3917  0.5148
  620MOL0     H85538  13.570  11.295   8.017 -1.1318  0.1829  0.5829
  620MOL0     H85539  13.483  11.148   7.962 -2.5115 -3.2784  3.1113
  620MOL0     H85540  12.694  11.254   7.844  3.3988 -1.2114  0.0530
  620MOL0     H85541  12.472  11.159   7.828  0.7123 -0.4031 -1.7302
  620MOL0     H85542  12.164  10.869   7.900  1.2758  2.4107 -3.5185
  620MOL0     H85543  11.926  10.823   7.819  1.2096 -0.3539  2.3748
  620MOL0     H85544  10.149  10.211   8.175  1.2761  0.6284 -0.6199
  620MOL0     H85545   9.980  10.393   8.128  0.9794 -3.0352  1.1528
  620MOL0     H85546   9.872  10.885   8.227 -1.1883  1.1328  1.6361
  620MOL0     H85547   9.675  11.006   8.269  4.6786  1.6618 -2.4007
  620MOL0     H85548   9.282  10.854   8.122  2.3008 -0.9334  0.9213
  620MOL0     H85549   9.245  11.017   8.127  1.9691  0.6958  0.5612
  620MOL0     H85550   9.401  10.904   7.899  0.1392  0.0772 -1.4836
  620MOL0     H85551   9.365  11.076   7.937 -0.5061 -0.7913  1.1839
  620MOL0     H85552   9.216  10.929   7.770  1.1502 -0.7005  0.4286
  620MOL0     H85553   9.135  10.878   7.916 -0.4552  0.9252  0.2179
  620MOL0     H85554   9.175  11.167   7.857  0.7798 -0.1669  2.6617
  620MOL0     H85555   9.085  11.097   7.974  2.5729  0.7594  0.5440
  620MOL0     H85556   8.764  11.153   7.767 -0.0256  1.0897 -2.3423
  620MOL0     H85557   9.455  10.747   8.011 -0.7035  0.2283 -1.3389
  620MOL0     H85558   9.556  10.550   7.920 -0.5221  3.5052  1.0261
  620MOL0     H85559   9.734  10.535   7.892  1.9147 -1.6520  2.0528
  620MOL0     H85560   9.676  10.469   8.029  1.2995  0.5190 -0.7932
  621MOL0     O85561   5.055   7.377  10.698 -0.0374 -0.2139 -0.3359
  621MOL0     C85562   5.037   7.333  10.592  0.4620  0.5304  0.1664
  621MOL0     O85563   4.916   7.271  10.539 -0.2305  0.1588 -0.9824
  621MOL0     C85564   4.811   7.232  10.624 -0.6758 -0.1925 -0.1808
  621MOL0     C85565   4.802   7.234  10.762 -0.8055  0.5896 -0.6623
  621MOL0     C85566   4.682   7.195  10.826  0.5037  0.6228  0.5203
  621MOL0     C85567   4.572   7.156  10.742 -0.7636  0.9073 -1.1623
  621MOL0     O85568   4.452   7.121  10.796  0.0811  0.5594  0.2014
  621MOL0     C85569   4.437   7.074  10.931 -0.2784  0.6468  0.8491
  621MOL0     C85570   4.459   6.926  10.951  0.1460  0.1569 -0.3763
  621MOL0     C85571   4.465   6.890  11.098 -0.1218 -0.6753 -0.0304
  621MOL0     C85572   4.427   6.744  11.112  0.0139 -0.3609 -0.3657
  621MOL0     C85573   4.467   6.689  11.250  0.0679 -0.1101  0.0614
  621MOL0     C85574   4.416   6.551  11.277 -0.2873 -0.6020  0.5223
  621MOL0     C85575   4.261   6.530  11.269  0.2158  0.4882 -0.6012
  621MOL0     C85576   4.175   6.626  11.347  0.3843 -0.1886 -0.9482
  621MOL0     N85577   4.041   6.611  11.296  1.1063 -0.4775 -0.4940
  621MOL0     C85578   3.933   6.537  11.346  0.7672  0.5155  0.1628
  621MOL0     C85579   3.822   6.590  11.292 -0.4620 -0.0771  0.2467
  621MOL0     C85580   3.679   6.564  11.311  0.1850 -0.6135  0.2073
  621MOL0     C85581   3.627   6.621  11.446  0.2479 -0.2878  0.5366
  621MOL0     C85582   3.473   6.648  11.428 -0.0238 -0.0424 -0.5816
  621MOL0     C85583   3.398   6.679  11.558  0.3901 -0.3897  0.7210
  621MOL0     O85584   3.390   6.553  11.632  0.3168 -0.2957  0.2477
  621MOL0     C85585   3.298   6.559  11.733 -0.5611 -0.5203 -0.6849
  621MOL0     C85586   3.248   6.676  11.791 -0.5459 -0.0810  0.3092
  621MOL0     C85587   3.157   6.679  11.897 -0.2330  0.0196 -0.1137
  621MOL0     C85588   3.125   6.811  11.956 -0.4161 -0.7351  0.7281
  621MOL0     C85589   3.105   6.558  11.939  0.3498 -0.4349  0.4764
  621MOL0     C85590   3.012   6.543  12.052  0.6841 -0.2478  0.2962
  621MOL0     O85591   2.987   6.660  12.126 -0.0682 -0.2683  0.3911
  621MOL0     C85592   2.896   6.655  12.223  0.2605  0.2470 -0.2737
  621MOL0     C85593   2.761   6.683  12.190 -0.1578  0.4203 -0.4058
  621MOL0     C85594   2.677   6.701  12.292  0.2987 -0.1164  0.3569
  621MOL0     C85595   2.716   6.685  12.427  1.0612 -0.2184 -0.4473
  621MOL0     O85596   2.616   6.705  12.523  0.7468 -0.0003  0.1805
  621MOL0     C85597   2.640   6.765  12.654 -0.1150  0.8480  0.4376
  621MOL0     C85598   2.563   6.676  12.757 -0.4056 -0.5033 -0.6033
  621MOL0     C85599   2.548   6.530  12.730 -0.2314  0.4853  0.0350
  621MOL0     C85600   2.689   6.480  12.710 -0.1326  0.5885 -0.4555
  621MOL0     C85601   2.702   6.326  12.748  0.8060  0.0764  0.0653
  621MOL0     C85602   2.822   6.269  12.674  0.1030 -0.6538  0.4420
  621MOL0     C85603   2.788   6.223  12.522  0.3885  0.0409 -0.0557
  621MOL0     C85604   2.895   6.134  12.461  0.1487 -0.5967 -0.4964
  621MOL0    Cl85605   2.886   5.962  12.511  0.6288  0.3135  0.0548
  621MOL0     C85606   2.851   6.651  12.463 -0.0590 -0.4579  0.0942
  621MOL0     C85607   2.933   6.631  12.355  1.3111  0.3122 -0.0251
  621MOL0     O85608   2.952   6.434  12.064 -0.4560 -0.4082  0.0714
  621MOL0     C85609   3.156   6.439  11.879 -0.3235  0.3595  0.3955
  621MOL0     C85610   3.249   6.435  11.771  0.2686 -0.0342 -0.0649
  621MOL0     N85611   3.855   6.693  11.216  0.3421 -0.8100  0.6706
  621MOL0     N85612   3.986   6.709  11.215  0.1703  0.3200  0.1257
  621MOL0     C85613   4.582   7.155  10.608 -0.1938  0.1230 -0.1928
  621MOL0     C85614   4.704   7.196  10.548 -0.0276  1.1939  0.0583
  621MOL0     C85615   5.149   7.316  10.502  0.0141  0.7156  1.4072
  621MOL0     C85616   5.132   7.347  10.366  0.3009  0.6996  0.1917
  621MOL0     C85617   5.229   7.319  10.267  0.5070  0.2478 -1.4499
  621MOL0     C85618   5.354   7.260  10.301  0.2288  0.2410 -0.5078
  621MOL0     O85619   5.448   7.243  10.200 -0.1004 -0.5963 -0.0464
  621MOL0     C85620   5.577   7.185  10.230  1.0403 -0.3279 -0.2496
  621MOL0     C85621   5.646   7.183  10.099  0.0457 -0.4060 -0.3432
  621MOL0     C85622   5.796   7.154  10.105  0.1861 -0.1141  0.7303
  621MOL0     C85623   5.876   7.195   9.979 -0.4703  0.6498 -0.8098
  621MOL0     C85624   6.017   7.140   9.993 -0.3018  0.2256  0.1564
  621MOL0     C85625   6.133   7.118  10.002  0.0534 -0.6090  0.3337
  621MOL0     C85626   5.382   7.249  10.440  0.2541 -0.7015  0.0562
  621MOL0     C85627   5.282   7.268  10.540 -0.1495  0.5946  0.4561
  621MOL0     C85628   5.320   7.231  10.689 -0.7313  0.4190  0.2027
  621MOL0     H85629   4.900   7.254  10.805 -0.3979 -0.1059 -1.2557
  621MOL0     H85630   4.683   7.194  10.935  0.9742  1.1706  0.5296
  621MOL0     H85631   4.336   7.100  10.965 -1.5402 -0.9678 -1.4287
  621MOL0     H85632   4.509   7.132  10.989  2.6935 -1.6276 -0.3446
  621MOL0     H85633   4.385   6.859  10.906 -1.0494 -1.1621  3.2349
  621MOL0     H85634   4.557   6.901  10.909  0.2111 -0.7188  0.2703
  621MOL0     H85635   4.566   6.897  11.139  0.7382  2.7715 -2.2898
  621MOL0     H85636   4.400   6.962  11.148  0.5701 -1.5047  2.1705
  621MOL0     H85637   4.318   6.739  11.102 -0.1941 -2.3201  1.8146
  621MOL0     H85638   4.484   6.693  11.034  0.6233  0.8209 -0.7038
  621MOL0     H85639   4.437   6.757  11.330 -1.3454 -0.4094 -0.1770
  621MOL0     H85640   4.576   6.684  11.251  0.3116  2.5110 -1.4248
  621MOL0     H85641   4.451   6.470  11.212 -0.8047 -1.6194  1.4705
  621MOL0     H85642   4.462   6.529  11.374  0.2918 -3.4642 -0.3151
  621MOL0     H85643   4.248   6.427  11.304 -0.9736  1.8120  3.5015
  621MOL0     H85644   4.236   6.516  11.164  0.7690  2.0027 -0.9690
  621MOL0     H85645   4.174   6.594  11.452 -2.3169  0.0576 -0.8251
  621MOL0     H85646   4.215   6.727  11.340  1.6608 -0.2412  2.9764
  621MOL0     H85647   3.944   6.454  11.415 -0.5763  0.3999  0.2590
  621MOL0     H85648   3.658   6.457  11.305  2.2469 -1.0713  0.2301
  621MOL0     H85649   3.625   6.606  11.226  2.8705 -0.8589 -1.7606
  621MOL0     H85650   3.657   6.553  11.527  1.7728  0.3176  0.5085
  621MOL0     H85651   3.677   6.716  11.464  2.0603 -0.9044 -0.9265
  621MOL0     H85652   3.464   6.726  11.353  1.0859 -0.8660 -1.6005
  621MOL0     H85653   3.433   6.561  11.375  1.3881 -0.5058 -0.9246
  621MOL0     H85654   3.452   6.751  11.620  0.5549 -2.7094  3.4635
  621MOL0     H85655   3.305   6.720  11.519  1.1698  3.3575  2.3415
  621MOL0     H85656   3.290   6.771  11.759 -0.7329 -0.4910 -1.2619
  621MOL0     H85657   3.016   6.821  11.945 -0.2923 -1.6005 -1.6982
  621MOL0     H85658   3.163   6.884  11.885  0.9972 -1.7787  0.3663
  621MOL0     H85659   3.171   6.819  12.055  1.7152 -2.3559 -0.0630
  621MOL0     H85660   2.726   6.702  12.089 -1.6698 -2.4190 -0.4924
  621MOL0     H85661   2.575   6.737  12.280 -0.0230 -0.3212  2.1524
  621MOL0     H85662   2.741   6.785  12.691 -1.2528  2.0797  3.0977
  621MOL0     H85663   2.591   6.862  12.658 -0.8292  0.4770  0.7970
  621MOL0     H85664   2.597   6.696  12.859  0.2401 -1.2711 -0.6598
  621MOL0     H85665   2.462   6.717  12.745  0.5991  1.4579 -3.4663
  621MOL0     H85666   2.495   6.515  12.635 -0.6938 -0.9780  0.5012
  621MOL0     H85667   2.497   6.482  12.814  2.4852  1.4237  2.3773
  621MOL0     H85668   2.748   6.548  12.771 -2.0491  0.9442  1.1046
  621MOL0     H85669   2.718   6.496  12.606  0.5133 -0.7439 -0.5067
  621MOL0     H85670   2.702   6.318  12.858  1.5561 -1.0388  0.0036
  621MOL0     H85671   2.618   6.264  12.716  1.2453 -2.2878  2.9643
  621MOL0     H85672   2.867   6.182  12.724  1.0415  0.1319  1.0008
  621MOL0     H85673   2.894   6.351  12.668 -0.0638 -0.3746  1.8407
  621MOL0     H85674   2.770   6.305  12.452 -2.1234 -1.8091 -1.7644
  621MOL0     H85675   2.695   6.166  12.514  0.9820 -0.7084 -2.6590
  621MOL0     H85676   2.991   6.161  12.507  0.8258 -3.6327  0.1593
  621MOL0     H85677   2.899   6.141  12.352  0.1253 -0.3300 -0.4803
  621MOL0     H85678   2.869   6.640  12.570  0.0425  0.8207  0.2270
  621MOL0     H85679   3.040   6.622  12.372  1.3667  0.0929 -0.4772
  621MOL0     H85680   3.107   6.342  11.885 -1.2096  0.5947 -1.8676
  621MOL0     H85681   3.279   6.341  11.725  3.3152  0.8053  0.0331
  621MOL0     H85682   4.504   7.116  10.544 -2.5292  0.6197  2.1717
  621MOL0     H85683   4.726   7.207  10.442  2.3972 -2.7789 -0.0349
  621MOL0     H85684   5.041   7.397  10.333  1.6928  2.8503 -0.6258
  621MOL0     H85685   5.205   7.361  10.170  2.1572  0.8221 -1.6477
  621MOL0     H85686   5.630   7.241  10.308 -1.0390  1.4151  0.0161
  621MOL0     H85687   5.566   7.082  10.264 -1.1391  0.2324  0.9456
  621MOL0     H85688   5.633   7.285  10.062  2.4302  0.5503  1.2407
  621MOL0     H85689   5.591   7.117  10.031 -2.1957 -0.2551  1.1981
  621MOL0     H85690   5.831   7.217  10.187  1.7519  1.5158 -1.1054
  621MOL0     H85691   5.797   7.045  10.114 -0.7010 -0.4184 -1.9442
  621MOL0     H85692   5.875   7.304   9.972 -1.8145  0.5625 -2.5981
  621MOL0     H85693   5.844   7.141   9.890  3.3257 -0.4292 -1.7414
  621MOL0     H85694   6.239   7.109  10.011 -0.2435 -2.4887  3.1968
  621MOL0     H85695   5.477   7.214  10.481  1.1102  0.1543 -1.1262
  621MOL0     H85696   5.332   7.317  10.756 -3.4231  2.5652 -1.7938
  621MOL0     H85697   5.238   7.171  10.729 -1.3953  1.6540  0.7795
  621MOL0     H85698   5.408   7.167  10.695 -1.3375 -0.3495  4.4489
  622MOL0     O85699   7.118   7.190   4.376 -0.2712 -0.0049 -0.4351
  622MOL0     C85700   7.061   7.179   4.270 -0.3676  0.4593  0.6161
  622MOL0     O85701   7.114   7.129   4.149 -0.8795 -0.0131  0.2040
  622MOL0     C85702   7.246   7.089   4.127  0.0926 -0.4023  0.7293
  622MOL0     C85703   7.284   7.086   3.993 -0.4879 -1.2895 -0.6751
  622MOL0     C85704   7.401   7.023   3.959 -0.5135 -0.1728 -0.0758
  622MOL0     C85705   7.499   6.981   4.051  0.5869  0.3311 -0.2108
  622MOL0     O85706   7.631   6.939   4.028 -0.1244  0.5755 -0.1513
  622MOL0     C85707   7.703   6.984   3.915 -0.1052 -0.5648  0.7436
  622MOL0     C85708   7.736   7.132   3.914  0.9146  0.0765 -0.1732
  622MOL0     C85709   7.846   7.166   4.023 -0.2183 -0.2405  0.2127
  622MOL0     C85710   7.985   7.192   3.967  0.4037  0.1251  0.4943
  622MOL0     C85711   8.045   7.274   4.077  0.2725  0.0905  0.2505
  622MOL0     C85712   8.188   7.305   4.033 -0.1977 -0.2139  0.0718
  622MOL0     C85713   8.253   7.396   4.134 -0.4667 -0.0305 -0.0806
  622MOL0     C85714   8.275   7.356   4.278 -0.1260  0.3731 -0.6688
  622MOL0     N85715   8.361   7.434   4.373 -0.6369  0.3143 -1.0227
  622MOL0     C85716   8.387   7.400   4.506 -0.6494  0.1452  0.7184
  622MOL0     C85717   8.479   7.491   4.553  1.8722 -0.0492 -0.6384
  622MOL0     C85718   8.539   7.504   4.690 -0.5021 -0.2587  0.0969
  622MOL0     C85719   8.590   7.641   4.725 -0.5303  0.7018 -0.3958
  622MOL0     C85720   8.473   7.731   4.753  0.7714 -0.1306  1.2895
  622MOL0     C85721   8.526   7.868   4.802 -0.0201 -0.6401  0.4788
  622MOL0     O85722   8.583   7.957   4.696  0.7707  0.3107  0.0138
  622MOL0     C85723   8.578   8.096   4.704 -0.1191  0.3271 -0.3485
  622MOL0     C85724   8.545   8.166   4.823 -0.1878  0.4639  0.1627
  622MOL0     C85725   8.527   8.310   4.837 -0.5847  0.3151  0.0676
  622MOL0     C85726   8.473   8.358   4.971 -0.1906 -0.4234  0.7333
  622MOL0     C85727   8.575   8.390   4.729 -0.8529 -0.2605  0.2528
  622MOL0     C85728   8.589   8.535   4.727  0.3676 -0.2720  1.0227
  622MOL0     O85729   8.591   8.600   4.609  0.4835 -0.1797  0.1272
  622MOL0     C85730   8.643   8.731   4.620  0.1635 -0.2695  0.7152
  622MOL0     C85731   8.550   8.848   4.617  0.5139 -0.1209  0.5412
  622MOL0     C85732   8.610   8.981   4.621 -0.0474  0.1180 -0.2781
  622MOL0     C85733   8.743   9.001   4.629 -0.4711 -0.1675  0.2510
  622MOL0     O85734   8.782   9.134   4.639 -0.1204  0.8124  0.1733
  622MOL0     C85735   8.918   9.175   4.644  0.0225  0.7738  1.0461
  622MOL0     C85736   8.920   9.306   4.571  0.4905  0.0321 -0.9598
  622MOL0     C85737   9.028   9.400   4.607 -0.5684 -1.4753  0.3805
  622MOL0     C85738   9.169   9.336   4.615 -0.3831  0.3291 -0.3835
  622MOL0     C85739   9.285   9.434   4.612  0.2432  0.1968  0.8991
  622MOL0     C85740   9.406   9.369   4.675 -0.0124  0.1212  0.5076
  622MOL0     C85741   9.434   9.223   4.628 -0.4621  0.2703  0.6361
  622MOL0     C85742   9.569   9.171   4.676  0.1653  0.3187 -0.4130
  622MOL0    Cl85743   9.574   9.142   4.865 -0.1546 -0.0027 -0.0356
  622MOL0     C85744   8.827   8.890   4.637  0.6241  0.3348 -0.3013
  622MOL0     C85745   8.779   8.759   4.628 -1.1124 -0.5056  0.6454
  622MOL0     O85746   8.584   8.599   4.832 -0.1468 -0.6313  0.7708
  622MOL0     C85747   8.597   8.321   4.603 -0.6212 -0.1305  0.3615
  622MOL0     C85748   8.603   8.178   4.595  0.0057  0.0489 -0.0885
  622MOL0     N85749   8.491   7.588   4.449 -0.1733  0.5543  0.2193
  622MOL0     N85750   8.431   7.548   4.343 -0.5140 -0.2495 -0.1767
  622MOL0     C85751   7.466   7.000   4.187  0.4934 -0.5004 -0.5172
  622MOL0     C85752   7.340   7.051   4.216 -0.3845  1.6845  0.2162
  622MOL0     C85753   6.921   7.214   4.259  1.1170 -0.4732  0.8434
  622MOL0     C85754   6.846   7.184   4.141 -1.0272  0.0522 -0.4197
  622MOL0     C85755   6.711   7.214   4.124  0.1785  0.1111  0.5841
  622MOL0     C85756   6.634   7.277   4.215 -0.2214 -0.0397 -0.8447
  622MOL0     O85757   6.508   7.304   4.195  0.5249  0.1515  0.6741
  622MOL0     C85758   6.443   7.386   4.294  0.1901  0.3329  0.4425
  622MOL0     C85759   6.310   7.420   4.251  0.4053 -0.6259 -0.1766
  622MOL0     C85760   6.297   7.551   4.175  0.2524 -0.3177  0.2279
  622MOL0     C85761   6.151   7.565   4.120  0.0570 -0.1626 -0.1269
  622MOL0     C85762   6.117   7.673   4.027 -0.1908  1.0734  1.0812
  622MOL0     C85763   6.075   7.737   3.938  0.6881 -0.5075  0.7131
  622MOL0     C85764   6.705   7.309   4.334 -0.0592 -1.2086  0.1584
  622MOL0     C85765   6.843   7.279   4.357 -1.3892  1.2123  0.1491
  622MOL0     C85766   6.900   7.330   4.493 -0.3218 -0.2513  1.1232
  622MOL0     H85767   7.219   7.114   3.911 -1.4137  0.6891  0.6446
  622MOL0     H85768   7.431   7.026   3.855  0.0785 -0.3691  0.0817
  622MOL0     H85769   7.649   6.958   3.823  0.3919  2.0229 -0.3880
  622MOL0     H85770   7.803   6.940   3.914  0.1869 -0.0848  3.1120
  622MOL0     H85771   7.779   7.144   3.814  0.4467 -3.7812 -0.9705
  622MOL0     H85772   7.652   7.201   3.920  1.0517  0.1785  0.8199
  622MOL0     H85773   7.801   7.244   4.084 -1.8866 -1.4995  0.6676
  622MOL0     H85774   7.847   7.079   4.089  1.3750 -1.8713 -1.7939
  622MOL0     H85775   8.040   7.100   3.947 -0.7375 -0.2650 -1.1081
  622MOL0     H85776   7.977   7.252   3.876  0.1535 -1.3762 -0.5054
  622MOL0     H85777   8.046   7.213   4.167  0.6914 -2.8697 -1.6358
  622MOL0     H85778   8.003   7.374   4.096  3.1487  1.2343  1.0331
  622MOL0     H85779   8.238   7.212   4.006  1.4478  1.2309 -2.2914
  622MOL0     H85780   8.180   7.353   3.935 -0.0306 -0.7070 -0.1880
  622MOL0     H85781   8.207   7.495   4.121  2.3980  1.3834 -0.1491
  622MOL0     H85782   8.354   7.423   4.103 -0.3494  0.5939  0.7975
  622MOL0     H85783   8.178   7.355   4.327 -0.2765 -1.1402 -0.9420
  622MOL0     H85784   8.304   7.250   4.273  0.4677  0.4867  0.2285
  622MOL0     H85785   8.379   7.302   4.553  2.6161 -1.3609 -1.4516
  622MOL0     H85786   8.629   7.442   4.699 -0.4302 -0.5145 -1.9425
  622MOL0     H85787   8.454   7.483   4.756 -1.5285 -2.0983 -1.7086
  622MOL0     H85788   8.661   7.647   4.808  0.9721  1.7664 -1.6874
  622MOL0     H85789   8.654   7.681   4.646  3.7472  1.1312  2.9202
  622MOL0     H85790   8.413   7.757   4.665 -0.2982 -0.7034  1.8340
  622MOL0     H85791   8.409   7.693   4.833  2.1479 -1.1413  1.9620
  622MOL0     H85792   8.436   7.925   4.829  1.3979  2.1826 -0.3721
  622MOL0     H85793   8.585   7.861   4.893 -1.2449  0.7549  1.4190
  622MOL0     H85794   8.537   8.103   4.911  0.2494  0.5556  0.2681
  622MOL0     H85795   8.415   8.448   4.950 -1.3308 -1.1003  0.9411
  622MOL0     H85796   8.559   8.380   5.035 -1.2517  2.8964  1.1817
  622MOL0     H85797   8.418   8.276   5.018  0.2078  0.0412  2.0590
  622MOL0     H85798   8.444   8.841   4.593  1.0703  0.5141 -2.6594
  622MOL0     H85799   8.545   9.067   4.622  1.6866  1.7536 -4.6903
  622MOL0     H85800   8.947   9.184   4.750 -1.3607 -0.8148  1.6118
  622MOL0     H85801   8.983   9.108   4.588 -2.2305 -0.1999 -0.5548
  622MOL0     H85802   8.919   9.296   4.462  1.1294 -0.8281 -0.8883
  622MOL0     H85803   8.826   9.362   4.579  0.4587 -0.0824 -0.5019
  622MOL0     H85804   9.006   9.447   4.703 -1.6408 -0.1992 -0.4519
  622MOL0     H85805   9.032   9.488   4.541  0.9028 -0.9058  1.1822
  622MOL0     H85806   9.182   9.261   4.536  1.5202  2.0554 -1.8139
  622MOL0     H85807   9.168   9.281   4.710 -0.1480 -0.5829 -0.8970
  622MOL0     H85808   9.287   9.470   4.509 -0.6509 -2.1854 -0.0174
  622MOL0     H85809   9.262   9.528   4.664  0.2560  1.6000 -1.4417
  622MOL0     H85810   9.407   9.382   4.784 -1.6726  1.0159  0.4490
  622MOL0     H85811   9.494   9.430   4.657  0.4111 -1.4083 -3.4941
  622MOL0     H85812   9.436   9.207   4.519 -0.1444  0.7444  0.5704
  622MOL0     H85813   9.357   9.154   4.663  1.5107 -0.8065  3.1258
  622MOL0     H85814   9.653   9.237   4.654  4.1487 -4.3647 -1.0725
  622MOL0     H85815   9.592   9.076   4.625  1.8649  0.9796 -0.9502
  622MOL0     H85816   8.933   8.897   4.661  1.0705  1.1102 -2.2558
  622MOL0     H85817   8.842   8.673   4.648 -0.5990 -0.2193  0.2598
  622MOL0     H85818   8.622   8.377   4.513 -0.0750 -1.1197 -0.1206
  622MOL0     H85819   8.626   8.130   4.500  1.7044 -0.6673  0.6466
  622MOL0     H85820   7.527   6.949   4.261 -1.3374 -2.0322  0.0150
  622MOL0     H85821   7.313   7.043   4.321  0.4165 -1.3811  0.2864
  622MOL0     H85822   6.885   7.125   4.059 -1.6429  1.8229 -2.0535
  622MOL0     H85823   6.662   7.189   4.031  0.9170 -0.9198  0.4488
  622MOL0     H85824   6.434   7.333   4.389  1.5311 -0.9657 -0.1123
  622MOL0     H85825   6.492   7.481   4.318 -0.2142  1.0090 -1.2459
  622MOL0     H85826   6.244   7.419   4.338 -0.8862  1.0653 -1.0870
  622MOL0     H85827   6.283   7.330   4.196  4.9429 -2.1377 -0.3994
  622MOL0     H85828   6.317   7.633   4.245 -0.6878  0.4258 -0.3386
  622MOL0     H85829   6.363   7.555   4.088  0.4923 -0.3412  0.4090
  622MOL0     H85830   6.084   7.558   4.206  0.0741  0.2959 -0.0717
  622MOL0     H85831   6.130   7.479   4.056 -1.0083 -0.9243  1.1976
  622MOL0     H85832   6.034   7.804   3.865  0.3655 -1.7578 -0.2904
  622MOL0     H85833   6.657   7.368   4.412 -1.5193 -1.4853 -0.5088
  622MOL0     H85834   6.990   7.390   4.476 -1.4527  0.8032 -1.9322
  622MOL0     H85835   6.833   7.404   4.540  0.4308  0.0976  1.6744
  622MOL0     H85836   6.912   7.257   4.573 -2.8326  0.9958  2.7505
  623MOL0     O85837   2.925   9.270   7.303 -0.4888  0.0187 -0.5150
  623MOL0     C85838   2.935   9.164   7.248 -0.0546  0.1714  0.4072
  623MOL0     O85839   3.047   9.079   7.276  0.1102 -0.3617  0.6878
  623MOL0     C85840   3.175   9.117   7.286 -1.3937  0.1503  0.8137
  623MOL0     C85841   3.234   9.235   7.318  0.3520  0.6128  0.6044
  623MOL0     C85842   3.370   9.258   7.346  0.0755  0.6828 -0.1638
  623MOL0     C85843   3.462   9.159   7.314  0.4706  0.3416 -0.0636
  623MOL0     O85844   3.594   9.195   7.326  0.1403  0.2334  0.4805
  623MOL0     C85845   3.671   9.081   7.385 -1.1159  0.1841  0.7896
  623MOL0     C85846   3.806   9.127   7.452  0.6824  0.4811 -0.1663
  623MOL0     C85847   3.819   9.274   7.489  0.0415  0.2766  0.5842
  623MOL0     C85848   3.932   9.299   7.592  0.5438 -0.5833  0.8549
  623MOL0     C85849   3.946   9.443   7.640  0.2269 -0.2905 -0.0680
  623MOL0     C85850   3.962   9.553   7.530 -0.0165 -0.5245 -0.6628
  623MOL0     C85851   4.072   9.506   7.436  0.3020  0.0034  0.1165
  623MOL0     C85852   4.219   9.501   7.493  0.4416  0.2781 -0.4811
  623MOL0     N85853   4.249   9.631   7.560 -0.0854 -0.0411 -1.1945
  623MOL0     C85854   4.312   9.738   7.501  0.7116 -0.1903 -0.5557
  623MOL0     C85855   4.350   9.816   7.605  0.9530  0.4063  0.4925
  623MOL0     C85856   4.416   9.954   7.585  0.7693  0.8083 -0.1059
  623MOL0     C85857   4.367  10.053   7.692  0.5078 -0.0422  0.3439
  623MOL0     C85858   4.239  10.129   7.648 -0.1163 -1.0867 -0.8386
  623MOL0     C85859   4.109  10.056   7.673  0.1964  0.2728 -0.0585
  623MOL0     O85860   4.059  10.002   7.548  0.4872 -0.3928 -0.7670
  623MOL0     C85861   3.930   9.963   7.553  0.3155  0.6306 -0.1657
  623MOL0     C85862   3.843   9.997   7.450  0.3045  0.5258  0.2612
  623MOL0     C85863   3.713   9.952   7.437 -0.4307 -0.9202  0.1604
  623MOL0     C85864   3.631  10.017   7.335  0.4588 -0.7603  0.3485
  623MOL0     C85865   3.661   9.871   7.553 -0.6959  0.5549  0.5616
  623MOL0     C85866   3.525   9.818   7.558 -0.5717  0.3467 -0.2717
  623MOL0     O85867   3.485   9.771   7.680 -0.1277  0.1089  0.2108
  623MOL0     C85868   3.360   9.707   7.675  0.2404 -0.2008  0.5709
  623MOL0     C85869   3.271   9.760   7.772 -0.6481  0.2506  0.4926
  623MOL0     C85870   3.139   9.710   7.783  0.4069 -0.1276  0.5492
  623MOL0     C85871   3.096   9.606   7.690 -0.2307 -0.0382 -0.1577
  623MOL0     O85872   2.962   9.562   7.682 -0.2280 -0.0125 -0.7891
  623MOL0     C85873   2.908   9.541   7.812 -0.4436 -0.9452 -0.5543
  623MOL0     C85874   2.821   9.423   7.819  0.1453  0.4856 -0.3743
  623MOL0     C85875   2.689   9.440   7.737  0.7478 -0.4548 -0.3917
  623MOL0     C85876   2.585   9.323   7.758  0.4397 -0.7697  0.0301
  623MOL0     C85877   2.459   9.344   7.668  0.6983  0.2266 -1.3492
  623MOL0     C85878   2.338   9.260   7.702 -0.4904  0.9474  0.1676
  623MOL0     C85879   2.226   9.292   7.602 -0.7086  0.0855 -0.6262
  623MOL0     C85880   2.103   9.214   7.631 -0.5721  0.3686  0.8752
  623MOL0    Cl85881   2.000   9.290   7.758 -0.1155 -0.6510  0.1799
  623MOL0     C85882   3.187   9.549   7.601  0.4775 -0.3697  0.1432
  623MOL0     C85883   3.320   9.602   7.590 -0.4839 -0.2082 -0.4523
  623MOL0     O85884   3.454   9.826   7.456  0.2829  0.3068 -0.3976
  623MOL0     C85885   3.745   9.832   7.656 -0.1579  0.0638 -0.3466
  623MOL0     C85886   3.872   9.886   7.665  0.2373 -0.0419  0.8928
  623MOL0     N85887   4.297   9.762   7.722 -0.5286  0.2219 -0.6008
  623MOL0     N85888   4.238   9.653   7.692 -0.8330  0.7473  0.1938
  623MOL0     C85889   3.408   9.032   7.274 -0.3813 -0.2076 -0.1464
  623MOL0     C85890   3.270   9.010   7.269  0.0844  0.7629 -0.7075
  623MOL0     C85891   2.826   9.114   7.155  0.6322  0.3502 -0.3438
  623MOL0     C85892   2.869   9.041   7.043  0.1001  0.4535  0.6180
  623MOL0     C85893   2.775   8.997   6.937  0.7030 -1.0956  0.0525
  623MOL0     C85894   2.644   9.037   6.954  0.5714  0.4618 -0.3339
  623MOL0     O85895   2.566   9.016   6.839 -0.0891 -0.2901  0.0324
  623MOL0     C85896   2.460   9.109   6.806 -0.1681 -0.8332  0.0041
  623MOL0     C85897   2.434   9.089   6.658  0.0459 -0.4801 -1.3605
  623MOL0     C85898   2.335   9.180   6.585  0.4193 -0.2046 -0.9560
  623MOL0     C85899   2.382   9.327   6.584  0.0920  0.4097  0.5680
  623MOL0     C85900   2.510   9.332   6.508  0.8897  0.0466 -0.3981
  623MOL0     C85901   2.612   9.342   6.452 -0.2832  1.2588 -0.3974
  623MOL0     C85902   2.601   9.101   7.072  0.2783  0.4596 -0.1207
  623MOL0     C85903   2.689   9.148   7.173  0.4999 -0.0868 -0.6406
  623MOL0     C85904   2.638   9.234   7.292  0.1873 -0.1138 -0.2963
  623MOL0     H85905   3.164   9.318   7.322 -1.6383 -1.0304  2.5251
  623MOL0     H85906   3.393   9.358   7.380 -0.0850  0.0350  1.9953
  623MOL0     H85907   3.694   9.007   7.308 -0.5738  0.7395  0.4093
  623MOL0     H85908   3.620   9.042   7.474  1.3922  2.2586  3.3613
  623MOL0     H85909   3.829   9.071   7.544  2.2929 -0.1088 -0.8917
  623MOL0     H85910   3.885   9.095   7.383 -0.6914 -0.1872 -1.4854
  623MOL0     H85911   3.833   9.335   7.398 -0.5085  0.0492  0.3423
  623MOL0     H85912   3.725   9.317   7.525  0.6261 -0.1368  2.7370
  623MOL0     H85913   3.918   9.228   7.674  1.2008 -0.3885  1.1444
  623MOL0     H85914   4.024   9.274   7.538  0.2603 -1.3306  0.7125
  623MOL0     H85915   4.033   9.445   7.707 -0.4730 -0.2906  0.8682
  623MOL0     H85916   3.851   9.460   7.691 -1.2068  0.0202 -2.6814
  623MOL0     H85917   3.873   9.570   7.469 -1.0660 -0.3229  0.8868
  623MOL0     H85918   3.983   9.649   7.577  0.1717 -1.3704  1.0399
  623MOL0     H85919   4.078   9.577   7.353  0.2725 -0.7276 -0.5256
  623MOL0     H85920   4.045   9.413   7.384  1.1516 -0.4181  0.4016
  623MOL0     H85921   4.234   9.408   7.550  0.9024  0.5357 -0.1731
  623MOL0     H85922   4.285   9.486   7.407 -0.3420  1.9027 -1.4056
  623MOL0     H85923   4.345   9.758   7.400  0.2694  0.2571 -0.6136
  623MOL0     H85924   4.392   9.992   7.486  2.4649  3.5997  0.4444
  623MOL0     H85925   4.524   9.941   7.591  0.5744 -1.4045 -0.5260
  623MOL0     H85926   4.352  10.017   7.794  0.1897 -1.3852 -0.1625
  623MOL0     H85927   4.450  10.125   7.686  0.5198  0.1428  2.1870
  623MOL0     H85928   4.244  10.212   7.720  1.0233 -2.1462  0.3444
  623MOL0     H85929   4.238  10.158   7.542  0.1283 -0.2874 -0.6291
  623MOL0     H85930   4.125   9.973   7.744 -0.9189 -1.7296 -2.0166
  623MOL0     H85931   4.038  10.127   7.717 -0.3613  1.0010 -2.0195
  623MOL0     H85932   3.902  10.054   7.380  2.2296 -0.3443  1.1012
  623MOL0     H85933   3.613   9.953   7.249 -0.2566  0.7121 -0.6422
  623MOL0     H85934   3.669  10.113   7.300 -3.1123  0.0588 -1.8009
  623MOL0     H85935   3.533  10.037   7.379  0.8012 -1.1283  1.3029
  623MOL0     H85936   3.310   9.836   7.839  0.9811  0.7889 -0.9849
  623MOL0     H85937   3.080   9.752   7.864 -1.1790  0.2486 -0.7426
  623MOL0     H85938   2.984   9.539   7.891  0.8618  1.4242 -1.6593
  623MOL0     H85939   2.853   9.629   7.845  0.5280 -1.5797  3.2549
  623MOL0     H85940   2.877   9.341   7.774 -1.3844 -0.8488  0.0357
  623MOL0     H85941   2.796   9.399   7.923  0.8876 -1.6700 -0.6498
  623MOL0     H85942   2.708   9.447   7.629 -1.8641 -0.5476 -0.9307
  623MOL0     H85943   2.638   9.530   7.772  1.7758  0.5679 -1.4647
  623MOL0     H85944   2.549   9.314   7.861  0.5744 -2.7012 -0.0451
  623MOL0     H85945   2.631   9.225   7.742  2.8913 -0.2790  2.9956
  623MOL0     H85946   2.432   9.450   7.677 -0.9831 -0.3682  2.9777
  623MOL0     H85947   2.479   9.338   7.561  0.6215  2.6226 -1.5469
  623MOL0     H85948   2.305   9.279   7.804 -2.1802  0.8024 -0.3231
  623MOL0     H85949   2.368   9.155   7.703  0.9027  1.2924 -1.6155
  623MOL0     H85950   2.264   9.274   7.501  1.7709 -0.1549  0.2837
  623MOL0     H85951   2.189   9.394   7.590 -3.8309 -0.7381  1.0054
  623MOL0     H85952   2.130   9.113   7.665  0.1541 -0.2677 -1.4220
  623MOL0     H85953   2.035   9.210   7.545 -1.8100  0.5631  1.8076
  623MOL0     H85954   3.153   9.469   7.536  0.2835  0.7333 -1.1574
  623MOL0     H85955   3.389   9.557   7.520 -1.8315 -0.0983 -1.9342
  623MOL0     H85956   3.718   9.763   7.736  1.4530  0.5142  0.6363
  623MOL0     H85957   3.930   9.873   7.756  0.1932 -1.6317  0.7173
  623MOL0     H85958   3.468   8.942   7.263 -1.4056 -1.2487  2.1625
  623MOL0     H85959   3.251   8.908   7.238  1.1156 -0.2015  1.5909
  623MOL0     H85960   2.973   9.014   7.028  0.6863  2.2233  1.2301
  623MOL0     H85961   2.802   8.939   6.850  0.5572  0.0778 -0.8056
  623MOL0     H85962   2.371   9.083   6.866  0.0341 -1.2436  0.1334
  623MOL0     H85963   2.486   9.209   6.842  0.2392 -1.1184  0.5277
  623MOL0     H85964   2.403   8.985   6.647  0.5570 -0.7697 -0.2357
  623MOL0     H85965   2.526   9.105   6.601 -0.6011  1.1163 -2.0220
  623MOL0     H85966   2.331   9.142   6.483 -1.7852 -2.1466 -0.2362
  623MOL0     H85967   2.230   9.180   6.615  0.6539  3.2764  0.2702
  623MOL0     H85968   2.397   9.380   6.679 -0.9070  0.8041  0.5151
  623MOL0     H85969   2.308   9.383   6.526  0.3857 -0.6637 -0.9213
  623MOL0     H85970   2.710   9.343   6.409 -0.4555 -3.2078 -1.4287
  623MOL0     H85971   2.496   9.128   7.078 -0.2053 -1.1118 -0.9510
  623MOL0     H85972   2.646   9.342   7.277 -1.3727  0.2167  0.9983
  623MOL0     H85973   2.534   9.208   7.313  0.4986  1.5286  4.2503
  623MOL0     H85974   2.694   9.205   7.382  3.7188  1.9096 -1.6143
  624MOL0     O85975   0.164   2.302  11.465 -0.2216  0.0572 -0.5159
  624MOL0     C85976   0.150   2.206  11.547  0.0196 -0.0433  0.1525
  624MOL0     O85977   0.096   2.091  11.511  0.6283  0.0966  0.4663
  624MOL0     C85978   0.069   2.072  11.377  0.3442 -0.4147  0.5471
  624MOL0     C85979   0.128   1.963  11.308 -0.3101 -0.1946 -0.1957
  624MOL0     C85980   0.113   1.955  11.165  1.0577 -0.7842  0.2164
  624MOL0     C85981   0.030   2.044  11.098  0.6580 -0.5542 -0.7134
  624MOL0     O85982  -0.002   2.041  10.964  0.4740 -0.6358 -0.2278
  624MOL0     C85983   0.106   2.016  10.872 -0.0247  0.0748  0.5226
  624MOL0     C85984   0.063   2.029  10.728  0.1237 -0.1928 -0.4991
  624MOL0     C85985   0.007   2.167  10.687  0.0943 -0.6725 -0.3564
  624MOL0     C85986  -0.024   2.166  10.542  0.6198  0.0688  0.5835
  624MOL0     C85987  -0.071   2.303  10.492 -0.7186  0.0676  0.0785
  624MOL0     C85988  -0.131   2.310  10.345  0.0775  0.1940 -0.9211
  624MOL0     C85989  -0.041   2.270  10.232 -0.8017  0.4727  0.3298
  624MOL0     C85990   0.063   2.372  10.194 -0.4702  0.2754 -0.4470
  624MOL0     N85991   0.131   2.332  10.067 -0.3897  0.0256  0.3861
  624MOL0     C85992   0.189   2.215  10.049  0.2233  0.6570  0.4202
  624MOL0     C85993   0.227   2.209   9.918  0.5496 -0.4122 -0.0348
  624MOL0     C85994   0.291   2.104   9.828  0.0578  0.3610 -0.1298
  624MOL0     C85995   0.433   2.137   9.778  0.3777  0.6967  0.0024
  624MOL0     C85996   0.530   2.117   9.887 -0.0116  0.6201 -0.1754
  624MOL0     C85997   0.658   2.206   9.875 -0.1608 -0.1093  0.0912
  624MOL0     O85998   0.734   2.167   9.765  0.0739 -0.7479 -0.1297
  624MOL0     C85999   0.845   2.233   9.736 -0.0980 -0.0723 -0.7750
  624MOL0     C86000   0.867   2.363   9.771 -0.9612 -0.5411 -0.0074
  624MOL0     C86001   0.992   2.428   9.741  0.6150 -0.3284 -0.3278
  624MOL0     C86002   1.017   2.580   9.785 -0.1606 -0.4403  0.0581
  624MOL0     C86003   1.082   2.370   9.657  0.2368  0.3693 -0.6639
  624MOL0     C86004   1.206   2.432   9.609  1.3322  0.7282 -0.3236
  624MOL0     O86005   1.230   2.394   9.475 -0.0655 -0.3168 -0.3759
  624MOL0     C86006   1.327   2.452   9.403  0.0651  0.3408 -0.6765
  624MOL0     C86007   1.388   2.368   9.301 -0.5639 -0.9112 -0.0472
  624MOL0     C86008   1.488   2.425   9.227  1.1176 -0.2017  0.0407
  624MOL0     C86009   1.547   2.549   9.252  0.1796  0.6809  0.0293
  624MOL0     O86010   1.651   2.582   9.172  0.7776  0.4756 -0.3036
  624MOL0     C86011   1.758   2.666   9.217 -0.1471 -0.3423  0.5075
  624MOL0     C86012   1.877   2.676   9.119 -0.4180  0.9102  0.2857
  624MOL0     C86013   1.967   2.542   9.118  0.4761 -0.7117 -0.1465
  624MOL0     C86014   2.112   2.573   9.084  0.4576  0.7812  0.5246
  624MOL0     C86015   2.220   2.454   9.095  0.0436 -0.3307  0.4762
  624MOL0     C86016   2.361   2.498   9.043  0.0438 -0.0515 -0.1488
  624MOL0     C86017   2.461   2.386   9.011 -0.4454 -0.2334 -0.2191
  624MOL0     C86018   2.527   2.330   9.139  0.2785 -0.7442 -0.9591
  624MOL0    Cl86019   2.679   2.244   9.094  0.0205  0.3920 -0.1262
  624MOL0     C86020   1.475   2.632   9.341 -0.0184 -0.2791 -0.0706
  624MOL0     C86021   1.372   2.584   9.421  0.9157 -0.7401  0.8507
  624MOL0     O86022   1.279   2.487   9.691 -0.2563 -0.0922  0.2389
  624MOL0     C86023   1.048   2.242   9.613  0.4670  0.3699 -0.3652
  624MOL0     C86024   0.927   2.173   9.643 -0.3153 -0.1081  0.0035
  624MOL0     N86025   0.193   2.328   9.852 -0.4669  0.2075 -0.5465
  624MOL0     N86026   0.148   2.396   9.955  0.1600  0.5578  0.4835
  624MOL0     C86027  -0.033   2.143  11.169 -0.0548 -0.1810 -0.4712
  624MOL0     C86028  -0.009   2.164  11.304 -0.7356  0.5328  0.2691
  624MOL0     C86029   0.181   2.230  11.691 -0.7752  1.2917 -0.3804
  624MOL0     C86030   0.189   2.367  11.729 -0.4147 -0.3440 -0.4189
  624MOL0     C86031   0.218   2.389  11.867  0.3224 -0.0796  0.5713
  624MOL0     C86032   0.260   2.289  11.954 -0.3435  0.2770  0.0080
  624MOL0     O86033   0.311   2.313  12.079  0.5710 -0.5924  0.6415
  624MOL0     C86034   0.322   2.450  12.129  0.4883  1.2593 -0.2290
  624MOL0     C86035   0.418   2.432  12.248  0.0825  0.9667  0.7778
  624MOL0     C86036   0.456   2.562  12.305  0.6385 -0.8798  0.5289
  624MOL0     C86037   0.516   2.521  12.452  0.2531  1.2469  0.3246
  624MOL0     C86038   0.416   2.466  12.548 -0.1171  0.2914  0.3049
  624MOL0     C86039   0.343   2.429  12.632  0.1565 -0.0601 -0.1107
  624MOL0     C86040   0.251   2.153  11.908 -0.0140  0.0082 -0.7529
  624MOL0     C86041   0.214   2.123  11.780 -0.0112 -0.1255  0.3353
  624MOL0     C86042   0.206   1.973  11.746 -0.2837  0.2988  0.3697
  624MOL0     H86043   0.199   1.914  11.374 -0.8814  1.0722  1.4298
  624MOL0     H86044   0.136   1.866  11.108  1.0852  0.2698 -1.4921
  624MOL0     H86045   0.147   1.915  10.885 -0.5466  0.1240  2.8996
  624MOL0     H86046   0.180   2.093  10.892  1.5125 -0.4366 -2.5096
  624MOL0     H86047   0.147   2.005  10.662  1.3988  0.8675  0.7070
  624MOL0     H86048  -0.021   1.959  10.724  0.4228 -0.6569  0.9092
  624MOL0     H86049  -0.083   2.190  10.744  0.0308  1.6468 -1.2564
  624MOL0     H86050   0.076   2.247  10.716  0.5726 -0.5731 -1.7013
  624MOL0     H86051   0.069   2.141  10.491 -0.0432 -0.4174 -0.4120
  624MOL0     H86052  -0.101   2.100  10.503 -0.2393  2.5627 -2.3886
  624MOL0     H86053   0.021   2.360  10.506  0.4585 -1.9694  1.2427
  624MOL0     H86054  -0.140   2.354  10.560  0.3101  3.4022 -1.1640
  624MOL0     H86055  -0.225   2.255  10.341  0.3575 -0.2307 -2.0464
  624MOL0     H86056  -0.162   2.412  10.321  2.3420  1.0900 -0.3000
  624MOL0     H86057  -0.102   2.249  10.143 -1.3539  0.1488  0.7707
  624MOL0     H86058   0.004   2.176  10.265  0.5035  1.5331  1.7092
  624MOL0     H86059   0.024   2.474  10.190  0.9939  0.8220 -3.8841
  624MOL0     H86060   0.146   2.376  10.266 -1.4623 -0.5044  0.7799
  624MOL0     H86061   0.204   2.147  10.132  0.5382  0.3492  0.1104
  624MOL0     H86062   0.223   2.096   9.743 -0.7879 -0.0920  0.5670
  624MOL0     H86063   0.296   2.012   9.887 -1.1962  1.8784  2.5472
  624MOL0     H86064   0.459   2.069   9.697  1.0356 -0.9081  1.5043
  624MOL0     H86065   0.452   2.239   9.742 -0.9461  0.5393 -1.2506
  624MOL0     H86066   0.483   2.125   9.985 -2.2621  1.1096 -1.2419
  624MOL0     H86067   0.559   2.012   9.879  0.9672  0.9445 -1.1813
  624MOL0     H86068   0.627   2.311   9.869 -1.0518 -0.3798 -0.2311
  624MOL0     H86069   0.716   2.192   9.967 -0.6332 -1.3917  0.2125
  624MOL0     H86070   0.803   2.425   9.834  0.4957 -0.6117  1.6106
  624MOL0     H86071   1.031   2.637   9.694  3.1974 -2.0562 -0.5666
  624MOL0     H86072   1.101   2.590   9.854 -0.7155 -0.0480  0.7000
  624MOL0     H86073   0.928   2.625   9.831 -1.8841  0.1950 -3.5814
  624MOL0     H86074   1.349   2.267   9.305  1.9140 -1.9160  0.8722
  624MOL0     H86075   1.528   2.367   9.145 -1.4444  0.5429 -1.8741
  624MOL0     H86076   1.725   2.770   9.220 -1.3132 -0.6116 -1.3331
  624MOL0     H86077   1.788   2.638   9.318  0.5569  1.8573  0.9644
  624MOL0     H86078   1.832   2.700   9.022 -0.2985 -1.4124 -0.4139
  624MOL0     H86079   1.939   2.757   9.158  4.0779 -1.3005 -1.6047
  624MOL0     H86080   1.931   2.466   9.049  0.5914 -2.1592  1.3299
  624MOL0     H86081   1.954   2.503   9.220 -1.7103  0.2825  0.0020
  624MOL0     H86082   2.151   2.650   9.152  0.7775  0.5689  0.5833
  624MOL0     H86083   2.113   2.596   8.977  4.0476  0.3559  0.3655
  624MOL0     H86084   2.243   2.418   9.196  2.4883 -0.6429 -0.1236
  624MOL0     H86085   2.189   2.373   9.028  2.2440 -1.0024  0.1704
  624MOL0     H86086   2.407   2.583   9.095  2.2055 -0.5373 -1.1937
  624MOL0     H86087   2.339   2.540   8.945 -0.8119 -2.4122 -1.0447
  624MOL0     H86088   2.546   2.427   8.956 -0.3853 -1.2475 -0.9039
  624MOL0     H86089   2.425   2.296   8.960  2.0510 -2.3516  1.4689
  624MOL0     H86090   2.458   2.280   9.208 -1.4442  1.0586 -1.2475
  624MOL0     H86091   2.549   2.423   9.194 -2.4042  0.2658 -1.4334
  624MOL0     H86092   1.524   2.727   9.359  0.9465 -0.3176 -2.2499
  624MOL0     H86093   1.323   2.644   9.498  0.2132 -1.9335  1.3722
  624MOL0     H86094   1.111   2.194   9.539 -2.8863 -1.3242 -2.3870
  624MOL0     H86095   0.918   2.071   9.606  1.3934 -0.9086  1.6419
  624MOL0     H86096  -0.094   2.214  11.115 -0.6310 -0.9498 -0.8557
  624MOL0     H86097  -0.049   2.251  11.355  0.5185  0.6771  1.0819
  624MOL0     H86098   0.180   2.451  11.661  1.8640  0.9367  0.7361
  624MOL0     H86099   0.223   2.493  11.897 -1.4762 -0.1774  1.2852
  624MOL0     H86100   0.361   2.509  12.045 -0.5652 -1.1689 -2.5747
  624MOL0     H86101   0.224   2.487  12.161  1.1939  2.0359  1.1380
  624MOL0     H86102   0.501   2.364  12.226 -2.3280 -1.6712 -0.7732
  624MOL0     H86103   0.365   2.368  12.319 -1.1045  1.1581  0.0853
  624MOL0     H86104   0.515   2.625  12.239  1.9737 -3.3287 -0.7886
  624MOL0     H86105   0.365   2.617  12.330  0.4090 -1.8611  2.0645
  624MOL0     H86106   0.580   2.606  12.477  4.9644 -1.6977 -0.2994
  624MOL0     H86107   0.589   2.440  12.438  1.5749  1.8379  3.0326
  624MOL0     H86108   0.280   2.377  12.701 -1.3317  0.1037 -1.3079
  624MOL0     H86109   0.301   2.081  11.972 -1.0973  1.2757  1.6421
  624MOL0     H86110   0.237   1.911  11.830  0.4569  0.0130 -0.0987
  624MOL0     H86111   0.102   1.948  11.722 -0.0349 -1.9151  1.4023
  624MOL0     H86112   0.274   1.957  11.661 -0.6634  1.2742 -0.1334
  625MOL0     O86113   9.868   8.366   7.547 -0.0008  0.3595 -0.3900
  625MOL0     C86114   9.945   8.297   7.622  0.3864 -0.0265  0.4910
  625MOL0     O86115  10.079   8.274   7.596  0.0723  0.9202 -0.2257
  625MOL0     C86116  10.128   8.329   7.478 -0.3636 -0.7499 -0.0436
  625MOL0     C86117  10.155   8.232   7.379 -0.6236 -0.5429  0.4086
  625MOL0     C86118  10.201   8.267   7.250  0.4740  0.7024 -0.9739
  625MOL0     C86119  10.215   8.413   7.230  0.5368  0.0470  0.4659
  625MOL0     O86120  10.244   8.481   7.114  0.3724 -0.0888 -0.4858
  625MOL0     C86121  10.246   8.400   7.002  0.4399  0.1796 -0.1626
  625MOL0     C86122  10.246   8.498   6.889  0.4355 -0.7105 -0.0430
  625MOL0     C86123  10.114   8.575   6.893  0.4456 -1.6546 -0.3147
  625MOL0     C86124   9.970   8.517   6.882 -0.8590 -0.1440  1.4947
  625MOL0     C86125   9.937   8.443   6.751  0.3008  0.1403  0.3001
  625MOL0     C86126   9.962   8.533   6.635  0.5137  0.4929  0.3048
  625MOL0     C86127   9.890   8.474   6.514 -0.1056  0.2481  0.2727
  625MOL0     C86128   9.861   8.571   6.402 -0.1980  0.6222 -0.1499
  625MOL0     N86129   9.969   8.665   6.357  0.6901  0.2757 -0.0087
  625MOL0     C86130  10.016   8.783   6.417  0.8718  0.3010 -0.2311
  625MOL0     C86131  10.101   8.842   6.328 -1.0102 -0.1850 -0.8029
  625MOL0     C86132  10.180   8.971   6.330  0.0277  0.0892 -0.3380
  625MOL0     C86133  10.095   9.090   6.387 -0.1264  0.5191 -0.5023
  625MOL0     C86134  10.191   9.203   6.433  0.6227  0.9058 -0.4423
  625MOL0     C86135  10.089   9.314   6.457  0.3406 -0.7059  0.7454
  625MOL0     O86136  10.053   9.382   6.340  0.3730 -0.5196 -0.2551
  625MOL0     C86137   9.916   9.404   6.312 -0.0450 -0.1603  0.0153
  625MOL0     C86138   9.806   9.364   6.391  0.2066  0.0091  0.4274
  625MOL0     C86139   9.678   9.416   6.371  0.3974  0.8600 -0.2732
  625MOL0     C86140   9.580   9.383   6.490  0.0593 -0.4300 -0.5580
  625MOL0     C86141   9.661   9.493   6.249 -0.4181 -0.0232  0.5623
  625MOL0     C86142   9.520   9.521   6.204 -0.6964 -0.3545 -0.4725
  625MOL0     O86143   9.420   9.525   6.294  0.6919  0.3779 -0.8697
  625MOL0     C86144   9.287   9.524   6.259  0.6879  0.0819  0.3009
  625MOL0     C86145   9.196   9.461   6.343  0.2372  0.0154  0.5719
  625MOL0     C86146   9.061   9.459   6.311 -0.3510 -0.2370 -0.3173
  625MOL0     C86147   9.005   9.532   6.208 -0.6661  0.7755 -0.8439
  625MOL0     O86148   8.866   9.533   6.207  0.1835  0.4312  0.6223
  625MOL0     C86149   8.806   9.607   6.110 -0.0553  0.8635 -0.0271
  625MOL0     C86150   8.672   9.653   6.153  0.1547 -0.1319  0.5025
  625MOL0     C86151   8.582   9.532   6.162  0.8375  0.0369  0.3227
  625MOL0     C86152   8.439   9.579   6.192  0.3451  0.0528 -0.4985
  625MOL0     C86153   8.346   9.460   6.199  0.3687  0.6770 -0.0247
  625MOL0     C86154   8.212   9.499   6.253  1.4271  0.0952 -0.6326
  625MOL0     C86155   8.130   9.369   6.285  0.1631 -0.0437  0.5384
  625MOL0     C86156   8.004   9.413   6.361  0.0598  0.4834 -0.2749
  625MOL0    Cl86157   7.887   9.517   6.275  0.6224  0.2111  0.1595
  625MOL0     C86158   9.100   9.603   6.122  0.9292  0.7645  0.0140
  625MOL0     C86159   9.240   9.588   6.146 -0.3026  0.1369  0.5675
  625MOL0     O86160   9.499   9.527   6.084 -0.9259 -0.3503  0.3176
  625MOL0     C86161   9.764   9.516   6.154 -0.2095  0.0804  0.2248
  625MOL0     C86162   9.887   9.471   6.188 -0.7294  0.1878 -0.6905
  625MOL0     N86163  10.097   8.763   6.219  0.4904 -1.0713  0.0927
  625MOL0     N86164  10.021   8.660   6.231  0.3034  0.0265  0.1722
  625MOL0     C86165  10.198   8.507   7.332 -0.1239  0.1296 -0.0707
  625MOL0     C86166  10.151   8.459   7.452  0.5868  0.3607  0.3713
  625MOL0     C86167   9.895   8.222   7.744 -0.1425  0.2801 -0.0576
  625MOL0     C86168   9.785   8.137   7.732 -0.4894 -0.2053 -0.4567
  625MOL0     C86169   9.740   8.064   7.836 -0.0518 -0.4304 -0.5287
  625MOL0     C86170   9.802   8.056   7.961  0.1965 -0.5166  0.3172
  625MOL0     O86171   9.760   7.964   8.050  0.3462  0.0301  0.8233
  625MOL0     C86172   9.853   7.861   8.091  0.1515  0.4525 -0.0897
  625MOL0     C86173   9.808   7.807   8.229  0.8442  0.6134  0.5518
  625MOL0     C86174   9.834   7.906   8.346  0.0891 -0.2349 -0.6208
  625MOL0     C86175   9.908   7.838   8.463  1.2240 -0.1707 -0.5537
  625MOL0     C86176  10.040   7.799   8.420  0.0587  0.1310 -0.2854
  625MOL0     C86177  10.148   7.762   8.371 -0.3911  0.1618 -0.5894
  625MOL0     C86178   9.909   8.150   7.981 -0.0175  0.5023 -0.7805
  625MOL0     C86179   9.961   8.233   7.872  0.3589  0.2948 -0.5326
  625MOL0     C86180  10.067   8.331   7.899  0.0168  0.0011 -1.0880
  625MOL0     H86181  10.146   8.124   7.388  0.7414 -0.5144  3.1879
  625MOL0     H86182  10.223   8.192   7.174  0.7016 -1.0312  0.7482
  625MOL0     H86183  10.168   8.324   6.993 -0.8305  1.0606  2.5016
  625MOL0     H86184  10.346   8.357   7.012  1.7650  2.7369 -1.4847
  625MOL0     H86185  10.327   8.567   6.912 -1.8527  1.6815  1.4313
  625MOL0     H86186  10.260   8.440   6.797  0.5871 -0.2037 -0.3408
  625MOL0     H86187  10.112   8.622   6.991 -2.1798 -1.4323 -0.4114
  625MOL0     H86188  10.135   8.658   6.824 -0.4926  0.5292  1.8837
  625MOL0     H86189   9.938   8.453   6.965 -1.1374 -1.0079  0.7389
  625MOL0     H86190   9.894   8.594   6.898 -2.9746 -2.1297  1.5514
  625MOL0     H86191   9.831   8.418   6.757 -0.5589  2.5671 -2.2805
  625MOL0     H86192  10.013   8.365   6.746  0.1010  0.0413 -1.8089
  625MOL0     H86193   9.928   8.632   6.669  0.3437 -0.1376  2.0755
  625MOL0     H86194  10.068   8.538   6.611  1.2094 -0.7039  2.8058
  625MOL0     H86195   9.795   8.438   6.552 -0.0466  1.1662  1.3499
  625MOL0     H86196   9.952   8.388   6.486 -2.7049 -2.0211  1.0305
  625MOL0     H86197   9.828   8.511   6.316  1.3140 -0.8381  0.2475
  625MOL0     H86198   9.792   8.649   6.435  0.5729  3.7801 -5.0093
  625MOL0     H86199   9.992   8.809   6.520 -0.7882  1.8510 -0.9653
  625MOL0     H86200  10.222   9.000   6.233  1.4968  1.4561  0.6663
  625MOL0     H86201  10.262   8.953   6.400 -1.3908  2.5709  2.1782
  625MOL0     H86202  10.023   9.118   6.310  0.7678  0.4741 -1.3725
  625MOL0     H86203  10.037   9.048   6.469  0.8605  0.5734  0.2489
  625MOL0     H86204  10.238   9.172   6.527  0.6860 -0.1569 -0.8149
  625MOL0     H86205  10.265   9.231   6.358 -0.5130  0.8568 -1.6218
  625MOL0     H86206  10.005   9.270   6.512  0.2183 -2.5150 -0.7744
  625MOL0     H86207  10.140   9.390   6.516 -2.8300  1.9388  0.3808
  625MOL0     H86208   9.818   9.295   6.474  0.4937  1.9466  2.0890
  625MOL0     H86209   9.629   9.372   6.587 -0.8229  0.4717  0.0168
  625MOL0     H86210   9.510   9.302   6.466  0.5482 -1.3780  1.0904
  625MOL0     H86211   9.517   9.472   6.502  1.0262  0.4249 -1.5136
  625MOL0     H86212   9.235   9.417   6.433  1.4193  0.1943  0.1603
  625MOL0     H86213   8.981   9.411   6.366 -1.2961  0.4016 -1.1095
  625MOL0     H86214   8.869   9.695   6.093  2.4321 -0.6185  1.0001
  625MOL0     H86215   8.806   9.547   6.018  0.1059  2.8051 -1.3567
  625MOL0     H86216   8.683   9.698   6.252  0.6867  0.8391  0.0165
  625MOL0     H86217   8.637   9.729   6.083  0.7656  1.8268  2.2196
  625MOL0     H86218   8.614   9.451   6.228  2.4305 -2.4896 -3.2265
  625MOL0     H86219   8.581   9.483   6.064 -0.0847 -0.9643  0.8178
  625MOL0     H86220   8.396   9.651   6.122 -1.9388 -0.9269 -0.2015
  625MOL0     H86221   8.439   9.630   6.288  0.1206  2.5634 -1.7693
  625MOL0     H86222   8.348   9.414   6.099 -1.1059  0.5255 -0.0061
  625MOL0     H86223   8.393   9.388   6.266  0.4022  0.6450 -0.0825
  625MOL0     H86224   8.165   9.565   6.180 -0.4834  0.2315  0.6424
  625MOL0     H86225   8.227   9.557   6.344  1.0752 -0.9351  0.1090
  625MOL0     H86226   8.191   9.301   6.345  1.3146  2.1110  1.9316
  625MOL0     H86227   8.113   9.323   6.187 -0.9925  0.6385  0.3984
  625MOL0     H86228   8.034   9.456   6.457  1.9900 -1.6440  0.1560
  625MOL0     H86229   7.945   9.323   6.383  0.3651 -0.3137 -2.4599
  625MOL0     H86230   9.061   9.647   6.030 -0.0931 -0.6261 -0.2552
  625MOL0     H86231   9.299   9.634   6.068  0.8205 -1.8476  0.1831
  625MOL0     H86232   9.741   9.550   6.054 -3.5504 -2.8980 -0.2698
  625MOL0     H86233   9.970   9.497   6.123 -0.4350 -2.1076 -1.2983
  625MOL0     H86234  10.213   8.614   7.327 -3.2332  0.7860  1.5764
  625MOL0     H86235  10.142   8.535   7.529  3.5147  0.9505  0.2587
  625MOL0     H86236   9.730   8.120   7.640 -1.3966 -1.9014  0.3519
  625MOL0     H86237   9.656   8.000   7.813  0.0455 -0.8437  0.2385
  625MOL0     H86238   9.847   7.780   8.018  1.4862  0.3050 -0.0654
  625MOL0     H86239   9.956   7.899   8.092 -0.5548  2.6487  2.4958
  625MOL0     H86240   9.850   7.707   8.243  2.0155  1.1135  0.7602
  625MOL0     H86241   9.700   7.790   8.227  0.8292  0.7555  0.0058
  625MOL0     H86242   9.903   7.985   8.316  0.7671  0.0998  1.6463
  625MOL0     H86243   9.740   7.956   8.370  0.4693 -0.3904  1.4025
  625MOL0     H86244   9.853   7.754   8.504 -3.8433  1.6284 -2.8959
  625MOL0     H86245   9.924   7.910   8.544 -3.1303 -1.3163  1.5821
  625MOL0     H86246  10.243   7.730   8.333  0.2040 -0.4150  1.3019
  625MOL0     H86247   9.956   8.166   8.077  0.7967  0.2335 -1.1310
  625MOL0     H86248  10.166   8.285   7.908  0.9461  1.8715 -1.4466
  625MOL0     H86249  10.078   8.401   7.816  2.7291 -1.1974 -1.8665
  625MOL0     H86250  10.052   8.379   7.996 -3.0158 -2.4566 -0.1683
  626MOL0     O86251   8.129   9.359   3.035  0.7336 -0.2468  0.1212
  626MOL0     C86252   8.110   9.450   2.952  0.0864  0.3509 -0.5838
  626MOL0     O86253   8.014   9.454   2.851 -0.0345  0.0389  0.0158
  626MOL0     C86254   7.955   9.331   2.826  0.7887 -0.5326 -0.3622
  626MOL0     C86255   8.025   9.216   2.804  0.6645  0.5117  0.4392
  626MOL0     C86256   7.967   9.097   2.755  0.0769 -0.2021 -0.4930
  626MOL0     C86257   7.834   9.085   2.733  1.1842 -0.1981 -0.1381
  626MOL0     O86258   7.770   8.969   2.694 -0.3637 -0.0661 -0.8809
  626MOL0     C86259   7.850   8.879   2.614 -0.4022 -0.7303  0.9687
  626MOL0     C86260   7.780   8.765   2.543  0.3142 -0.4324 -0.4954
  626MOL0     C86261   7.877   8.682   2.453  0.8994 -0.6456  0.0804
  626MOL0     C86262   7.794   8.574   2.387 -0.2748  0.2673  1.0199
  626MOL0     C86263   7.879   8.469   2.319  0.0725 -0.1329 -0.2264
  626MOL0     C86264   7.952   8.529   2.201 -0.5784  0.2097 -0.2166
  626MOL0     C86265   7.861   8.604   2.099  0.8356  0.4945  0.2255
  626MOL0     C86266   7.916   8.606   1.963 -0.3298  0.2302 -0.0035
  626MOL0     N86267   8.042   8.672   1.970 -0.7357  0.0106  1.2488
  626MOL0     C86268   8.064   8.801   2.008  1.0753  0.8579  0.1739
  626MOL0     C86269   8.195   8.814   1.983 -0.6279 -1.4827 -0.2139
  626MOL0     C86270   8.277   8.947   1.989  1.0905  0.5477 -0.1849
  626MOL0     C86271   8.227   9.054   1.896 -0.2589  0.0978 -0.1278
  626MOL0     C86272   8.201   8.996   1.757 -0.4577  0.1180 -0.0679
  626MOL0     C86273   8.155   9.100   1.649  0.4654  0.1568 -0.2963
  626MOL0     O86274   8.038   9.178   1.696 -0.0095 -0.8218  0.1199
  626MOL0     C86275   7.909   9.135   1.692 -0.0058 -0.5561  0.6316
  626MOL0     C86276   7.819   9.224   1.742  0.1012  0.2535  0.4003
  626MOL0     C86277   7.678   9.194   1.735 -0.3581 -0.7951 -0.6847
  626MOL0     C86278   7.587   9.302   1.783  0.2685  0.6524 -0.4013
  626MOL0     C86279   7.629   9.068   1.684  0.2904 -0.0529  0.8207
  626MOL0     C86280   7.483   9.026   1.657  0.6412 -0.4052  0.2141
  626MOL0     O86281   7.456   8.918   1.597  0.2832 -0.4842  0.3042
  626MOL0     C86282   7.328   8.872   1.590  0.0173  0.4783  0.7917
  626MOL0     C86283   7.245   8.850   1.708 -0.9739  0.7464  1.1610
  626MOL0     C86284   7.115   8.792   1.701 -0.3052 -0.1209  0.2076
  626MOL0     C86285   7.059   8.756   1.580  0.8159  1.1621  0.3021
  626MOL0     O86286   6.936   8.686   1.578 -0.2575  0.4639  0.3554
  626MOL0     C86287   6.881   8.618   1.458 -0.0235  0.3891  0.6917
  626MOL0     C86288   6.735   8.584   1.481  0.0413  0.0752  0.0300
  626MOL0     C86289   6.670   8.491   1.380  0.0437  0.0986  0.7158
  626MOL0     C86290   6.699   8.536   1.238  0.0174  0.2131 -0.2431
  626MOL0     C86291   6.621   8.463   1.123 -0.3482 -0.3853 -0.1888
  626MOL0     C86292   6.659   8.319   1.116 -0.0635  0.3408 -0.2959
  626MOL0     C86293   6.800   8.295   1.054  0.2746 -0.3888 -0.2532
  626MOL0     C86294   6.873   8.187   1.129  0.0105 -1.0304  0.3239
  626MOL0    Cl86295   6.775   8.031   1.119  0.3931  0.0239 -0.0623
  626MOL0     C86296   7.141   8.776   1.462 -0.2347  0.7349  0.2944
  626MOL0     C86297   7.271   8.827   1.469 -0.2046 -0.2238  0.9669
  626MOL0     O86298   7.398   9.099   1.708 -0.0771  0.1945 -0.2206
  626MOL0     C86299   7.729   8.979   1.637 -0.4695  0.2387 -0.3779
  626MOL0     C86300   7.868   9.013   1.636 -0.1012  0.1838 -0.5434
  626MOL0     N86301   8.251   8.698   1.944 -0.7565 -0.1326 -1.1610
  626MOL0     N86302   8.160   8.620   1.929 -0.0808  0.4834  0.5375
  626MOL0     C86303   7.756   9.199   2.760 -0.4459  0.1374 -0.6291
  626MOL0     C86304   7.812   9.322   2.808 -0.7564  0.1454 -0.2376
  626MOL0     C86305   8.179   9.580   2.971 -0.0885 -0.2048  0.7019
  626MOL0     C86306   8.150   9.654   3.088 -0.0520 -0.5592  0.7013
  626MOL0     C86307   8.201   9.779   3.104  0.0981 -0.6818 -1.3043
  626MOL0     C86308   8.278   9.843   3.009  0.1343  0.5279  0.8034
  626MOL0     O86309   8.323   9.967   3.045 -0.2295  0.2348 -0.2301
  626MOL0     C86310   8.457   9.981   3.093 -0.7000  0.0894  0.0429
  626MOL0     C86311   8.568   9.944   2.993  0.1172  0.4589  0.3641
  626MOL0     C86312   8.713   9.961   3.042  0.9350 -0.0833 -0.4169
  626MOL0     C86313   8.814   9.936   2.922  0.7701  0.5798 -0.0780
  626MOL0     C86314   8.960   9.957   2.960  0.0390  0.7065  0.0210
  626MOL0     C86315   9.075   9.969   2.986 -0.9471 -0.2302 -0.3170
  626MOL0     C86316   8.301   9.767   2.887  0.1878 -0.0068 -0.8698
  626MOL0     C86317   8.248   9.638   2.871 -0.6624  0.5627 -0.2762
  626MOL0     C86318   8.284   9.567   2.740  0.1308 -0.9374  0.7540
  626MOL0     H86319   8.134   9.216   2.806  0.7257  0.3138 -1.2613
  626MOL0     H86320   8.044   9.027   2.723  0.1486 -0.8795  1.0527
  626MOL0     H86321   7.938   8.845   2.667  0.3762  1.5033  1.2344
  626MOL0     H86322   7.884   8.952   2.540 -3.0828  0.1534  0.4822
  626MOL0     H86323   7.729   8.708   2.621  0.7863 -1.9911 -1.2964
  626MOL0     H86324   7.703   8.806   2.476  1.6766 -1.0468 -2.5042
  626MOL0     H86325   7.919   8.743   2.373  0.3436 -0.3373  0.0144
  626MOL0     H86326   7.959   8.637   2.510  1.2209  1.1777  1.1443
  626MOL0     H86327   7.735   8.521   2.463 -1.4991 -1.3782 -0.9804
  626MOL0     H86328   7.714   8.616   2.325  1.1624  2.4383  0.5463
  626MOL0     H86329   7.819   8.384   2.285 -1.1040  1.8530 -3.6078
  626MOL0     H86330   7.949   8.429   2.394 -1.4370 -1.8330  0.3526
  626MOL0     H86331   8.030   8.594   2.242  0.4670  0.4580 -2.4417
  626MOL0     H86332   8.017   8.459   2.147  0.0366  1.4825 -1.1802
  626MOL0     H86333   7.838   8.703   2.139 -1.0147  0.4045 -0.5162
  626MOL0     H86334   7.773   8.539   2.101  3.0378 -2.7535  2.7673
  626MOL0     H86335   7.906   8.510   1.912  1.8461  0.1423 -0.3484
  626MOL0     H86336   7.850   8.677   1.913  1.1781  0.7856 -1.2600
  626MOL0     H86337   7.995   8.875   2.047  0.9835 -0.2783  2.3203
  626MOL0     H86338   8.373   8.926   1.940 -0.0964 -0.3177 -2.2289
  626MOL0     H86339   8.298   8.995   2.085  2.3660 -0.1486 -0.0871
  626MOL0     H86340   8.130   9.089   1.933 -0.3126 -1.1257  0.9764
  626MOL0     H86341   8.301   9.133   1.887  1.6542 -1.6187 -0.2593
  626MOL0     H86342   8.295   8.957   1.716 -0.9854 -0.8043 -0.4083
  626MOL0     H86343   8.133   8.911   1.764 -1.6994  1.0071 -0.8884
  626MOL0     H86344   8.230   9.172   1.614  0.6361 -0.1002 -0.4543
  626MOL0     H86345   8.132   9.042   1.560 -2.1679 -3.3881  2.3854
  626MOL0     H86346   7.850   9.316   1.790 -3.5760  0.8648  1.9650
  626MOL0     H86347   7.517   9.266   1.859  0.4541 -0.0638 -0.5622
  626MOL0     H86348   7.524   9.341   1.703 -2.4938 -0.4772  1.0866
  626MOL0     H86349   7.644   9.386   1.825 -0.2659  1.6938 -1.7010
  626MOL0     H86350   7.276   8.879   1.808  1.3083 -2.3322  1.4740
  626MOL0     H86351   7.059   8.782   1.793 -2.3181 -1.9475 -1.1157
  626MOL0     H86352   6.895   8.665   1.360 -1.6461  1.2144  0.8375
  626MOL0     H86353   6.937   8.523   1.456  1.5553  1.1284 -4.1873
  626MOL0     H86354   6.736   8.521   1.571 -1.7254  1.4328  1.0424
  626MOL0     H86355   6.679   8.675   1.502  2.1950  1.7595 -1.0872
  626MOL0     H86356   6.562   8.497   1.396 -0.3164 -0.5689 -1.2017
  626MOL0     H86357   6.707   8.389   1.387  0.9805  0.3694  0.0203
  626MOL0     H86358   6.806   8.520   1.222  0.0286 -0.3458  0.3430
  626MOL0     H86359   6.679   8.643   1.228  0.7227  0.2208 -1.9501
  626MOL0     H86360   6.515   8.482   1.144 -0.2849  3.0892 -2.2358
  626MOL0     H86361   6.654   8.499   1.025  0.9751 -2.0950 -0.4244
  626MOL0     H86362   6.588   8.270   1.048  1.9251 -0.7200 -1.7222
  626MOL0     H86363   6.652   8.275   1.216  1.1742 -1.3946 -0.9161
  626MOL0     H86364   6.867   8.381   1.058  1.7737 -1.5591  1.8513
  626MOL0     H86365   6.779   8.283   0.947 -0.8887  0.9396 -0.2074
  626MOL0     H86366   6.900   8.219   1.230 -0.3335  1.2564 -0.2510
  626MOL0     H86367   6.967   8.170   1.075  0.6488  0.7119  0.8162
  626MOL0     H86368   7.112   8.732   1.367  3.6483 -0.3917 -0.5377
  626MOL0     H86369   7.323   8.834   1.374 -1.5161 -3.0401 -0.0779
  626MOL0     H86370   7.689   8.883   1.606 -1.7426  1.3748 -2.4401
  626MOL0     H86371   7.938   8.939   1.600  2.0084  1.5912  0.4900
  626MOL0     H86372   7.648   9.199   2.749 -0.3130  0.2448 -2.0142
  626MOL0     H86373   7.759   9.416   2.817 -2.1178 -0.6838  0.6574
  626MOL0     H86374   8.099   9.601   3.168  2.7505 -1.0435  2.3032
  626MOL0     H86375   8.171   9.837   3.190 -0.2121 -0.1049 -1.7944
  626MOL0     H86376   8.473  10.083   3.128  1.5982 -0.2222  0.0661
  626MOL0     H86377   8.470   9.920   3.183  0.0319  1.3334  0.8086
  626MOL0     H86378   8.550   9.999   2.900 -2.8613 -0.8864  0.0483
  626MOL0     H86379   8.555   9.839   2.966 -0.2821  0.2914  1.1989
  626MOL0     H86380   8.723  10.064   3.077  0.0005 -1.0558  3.2520
  626MOL0     H86381   8.730   9.895   3.128 -0.9194 -1.6755 -1.2048
  626MOL0     H86382   8.799  10.000   2.834 -2.5512  0.5289  0.3231
  626MOL0     H86383   8.809   9.831   2.894  4.0672  0.2194  0.2305
  626MOL0     H86384   9.175   9.972   3.022 -1.1759 -0.9003  0.4209
  626MOL0     H86385   8.363   9.818   2.814  1.0835 -2.2585 -1.7554
  626MOL0     H86386   8.280   9.458   2.744 -0.0589 -0.9020  1.7214
  626MOL0     H86387   8.226   9.602   2.654  0.7850 -2.8680 -0.5546
  626MOL0     H86388   8.386   9.586   2.705 -0.6240 -0.5920 -1.3754
  627MOL0     O86389   3.702   2.786   3.438  0.4251 -0.6136  0.7398
  627MOL0     C86390   3.639   2.790   3.333  0.3612  0.2244  0.7410
  627MOL0     O86391   3.608   2.897   3.255 -0.0517  0.8842 -0.2348
  627MOL0     C86392   3.606   3.020   3.310  0.2940 -0.6497  0.1345
  627MOL0     C86393   3.489   3.090   3.283  1.1047 -0.2557 -0.8918
  627MOL0     C86394   3.472   3.224   3.318  0.5257 -0.0544 -0.5980
  627MOL0     C86395   3.576   3.285   3.392  0.0760  0.1243  0.6841
  627MOL0     O86396   3.572   3.405   3.460 -0.3949  0.0262  0.1540
  627MOL0     C86397   3.524   3.521   3.394  0.0296 -1.0190  0.3928
  627MOL0     C86398   3.607   3.635   3.434 -0.2086 -0.2365 -0.1629
  627MOL0     C86399   3.753   3.611   3.393 -0.0153 -0.2601  0.6039
  627MOL0     C86400   3.854   3.711   3.445 -0.1408 -0.1043 -0.0531
  627MOL0     C86401   3.992   3.700   3.367 -0.2442 -0.4100 -0.8375
  627MOL0     C86402   4.069   3.563   3.390 -0.9785 -0.6617  0.2455
  627MOL0     C86403   4.208   3.576   3.322 -0.1037 -1.1011  0.5049
  627MOL0     C86404   4.301   3.452   3.293 -0.9333 -0.1755 -0.0398
  627MOL0     N86405   4.367   3.389   3.404  0.7850 -0.5404  0.7232
  627MOL0     C86406   4.470   3.444   3.477 -0.4564 -0.5308 -0.2246
  627MOL0     C86407   4.517   3.349   3.561  0.1474 -0.0010  0.0249
  627MOL0     C86408   4.638   3.373   3.647 -0.4288  0.3873  0.1671
  627MOL0     C86409   4.776   3.340   3.584 -1.0088 -0.4394  0.3520
  627MOL0     C86410   4.813   3.425   3.458  0.4451  0.3865 -0.2246
  627MOL0     C86411   4.939   3.368   3.384  0.3013 -0.8704  0.5039
  627MOL0     O86412   4.932   3.225   3.400  0.2201 -0.2857 -0.3792
  627MOL0     C86413   4.997   3.145   3.305 -0.2293  0.3325 -0.2129
  627MOL0     C86414   4.988   3.006   3.325  0.3656 -0.5334  0.0370
  627MOL0     C86415   5.041   2.914   3.239 -0.0276  0.4269 -0.3928
  627MOL0     C86416   4.999   2.767   3.259  0.2866  0.1239  0.0134
  627MOL0     C86417   5.133   2.962   3.142 -0.4278  0.0753  0.1501
  627MOL0     C86418   5.214   2.871   3.048 -0.4890 -0.8429  0.1410
  627MOL0     O86419   5.323   2.930   2.982 -0.0258  0.1491 -0.7610
  627MOL0     C86420   5.404   2.858   2.902 -0.4818 -0.1321 -1.2932
  627MOL0     C86421   5.460   2.736   2.941  0.0728 -0.7861  0.3815
  627MOL0     C86422   5.537   2.662   2.844  0.0160 -0.4325 -0.1817
  627MOL0     C86423   5.568   2.720   2.734  0.3536 -0.3994 -0.2337
  627MOL0     O86424   5.640   2.653   2.642 -0.0694  0.2402  0.3472
  627MOL0     C86425   5.709   2.707   2.527  0.1935 -0.3273 -0.6148
  627MOL0     C86426   5.826   2.790   2.576  1.0689 -0.3422  0.1296
  627MOL0     C86427   5.911   2.847   2.467 -0.2081  0.0836 -0.6434
  627MOL0     C86428   5.858   2.973   2.403 -1.3716 -0.3963 -0.4427
  627MOL0     C86429   5.938   2.997   2.275  0.8616 -0.2787  0.5473
  627MOL0     C86430   6.050   3.093   2.303  0.2177  0.0652 -0.8014
  627MOL0     C86431   6.126   3.122   2.173  0.0223 -0.9833 -0.0661
  627MOL0     C86432   6.137   3.277   2.151  0.5216 -0.4765 -0.5691
  627MOL0    Cl86433   6.270   3.338   2.260 -0.0819  0.6345  0.3513
  627MOL0     C86434   5.534   2.849   2.706 -0.0505  0.4916 -1.5127
  627MOL0     C86435   5.455   2.922   2.788 -0.5296  0.1869 -0.6469
  627MOL0     O86436   5.190   2.752   3.057 -0.2911 -0.0319 -0.0253
  627MOL0     C86437   5.153   3.101   3.122 -0.5959  0.5240  0.5080
  627MOL0     C86438   5.086   3.196   3.202 -0.0737 -0.6493  0.2312
  627MOL0     N86439   4.435   3.237   3.540  0.0365  0.4733  0.5669
  627MOL0     N86440   4.343   3.271   3.451 -0.1896  0.1128  0.0098
  627MOL0     C86441   3.695   3.228   3.398  0.3854 -0.0916 -0.9965
  627MOL0     C86442   3.717   3.094   3.354  0.7703  0.0360  0.4471
  627MOL0     C86443   3.591   2.666   3.277  0.3306  0.1134 -0.0254
  627MOL0     C86444   3.496   2.660   3.172 -0.3754  0.0872 -0.5566
  627MOL0     C86445   3.460   2.538   3.111  0.7119 -0.4157 -1.2328
  627MOL0     C86446   3.501   2.419   3.163  0.0437  0.0925 -0.6519
  627MOL0     O86447   3.468   2.301   3.106 -0.1778 -0.7499 -0.1271
  627MOL0     C86448   3.374   2.243   3.188 -0.2605  0.5807  0.2005
  627MOL0     C86449   3.325   2.106   3.152 -0.8348 -0.0177  0.3695
  627MOL0     C86450   3.310   2.074   2.999 -0.3404 -0.1880  0.3896
  627MOL0     C86451   3.210   1.952   2.966 -0.2440  0.0485  0.3633
  627MOL0     C86452   3.190   1.954   2.818 -0.4264 -0.3618 -0.1030
  627MOL0     C86453   3.167   1.957   2.701 -0.5159  0.5052  0.1923
  627MOL0     C86454   3.596   2.421   3.257 -0.3346 -0.0197 -0.3273
  627MOL0     C86455   3.645   2.540   3.319 -1.6092  0.4504  0.5515
  627MOL0     C86456   3.751   2.513   3.417 -0.4296 -0.1634 -0.3405
  627MOL0     H86457   3.406   3.036   3.238  1.7247 -2.4091  0.4088
  627MOL0     H86458   3.377   3.275   3.319  0.4104  0.0763  4.0764
  627MOL0     H86459   3.420   3.540   3.422  0.0986  0.9018 -0.4562
  627MOL0     H86460   3.532   3.518   3.285 -2.1036 -1.4535  0.2159
  627MOL0     H86461   3.577   3.727   3.382  1.3013 -0.2375 -1.0928
  627MOL0     H86462   3.600   3.660   3.540  0.3697  3.7278 -0.8751
  627MOL0     H86463   3.785   3.511   3.421 -0.7612 -0.5332  0.4951
  627MOL0     H86464   3.763   3.618   3.284  1.5782 -1.2416  0.6619
  627MOL0     H86465   3.814   3.813   3.443 -1.2063 -0.4310  1.9092
  627MOL0     H86466   3.871   3.697   3.552 -1.5433  0.5734  0.2811
  627MOL0     H86467   4.064   3.772   3.408 -1.0965 -1.4958  3.0105
  627MOL0     H86468   3.977   3.709   3.259 -0.1860 -0.3255 -0.8388
  627MOL0     H86469   4.080   3.549   3.498 -4.7189  1.0123  1.0248
  627MOL0     H86470   4.028   3.473   3.344  0.1470 -0.2930 -1.5679
  627MOL0     H86471   4.264   3.649   3.381 -0.6173 -0.9950  0.8666
  627MOL0     H86472   4.204   3.628   3.226 -0.3342 -2.8811 -0.4950
  627MOL0     H86473   4.243   3.373   3.245  1.6971 -1.0090 -2.1044
  627MOL0     H86474   4.383   3.490   3.232  1.4042  2.3679  4.1586
  627MOL0     H86475   4.505   3.546   3.472  0.0615 -0.6709  0.4951
  627MOL0     H86476   4.629   3.300   3.729 -2.7407 -0.6049 -0.8684
  627MOL0     H86477   4.633   3.477   3.680  0.3175 -0.0685  1.8246
  627MOL0     H86478   4.848   3.371   3.661 -0.0350  3.9230 -1.9532
  627MOL0     H86479   4.775   3.232   3.567  0.6698 -1.0715  3.4367
  627MOL0     H86480   4.731   3.424   3.386 -1.9523 -0.2571  2.3410
  627MOL0     H86481   4.817   3.531   3.481  0.2165  0.6553 -1.3392
  627MOL0     H86482   4.937   3.396   3.279  1.3414 -0.1683  0.6547
  627MOL0     H86483   5.031   3.407   3.429 -0.1954  0.5557  0.3383
  627MOL0     H86484   4.930   2.973   3.410  2.9588 -0.7797  1.8395
  627MOL0     H86485   4.947   2.728   3.171  0.8483  0.1107 -0.3168
  627MOL0     H86486   4.931   2.745   3.342 -2.8182  0.4669 -2.2469
  627MOL0     H86487   5.088   2.706   3.275  1.4228  1.4661 -0.9270
  627MOL0     H86488   5.439   2.687   3.036  1.6468  0.5171  1.4444
  627MOL0     H86489   5.553   2.556   2.858  1.4253 -0.2142 -0.0074
  627MOL0     H86490   5.737   2.631   2.452 -1.6572 -0.4585 -1.2331
  627MOL0     H86491   5.643   2.769   2.465 -0.6573  1.4725  1.9507
  627MOL0     H86492   5.816   2.863   2.657  1.4096  1.1530 -1.1322
  627MOL0     H86493   5.896   2.712   2.606  1.9389 -1.0695 -3.3108
  627MOL0     H86494   5.932   2.768   2.394  3.0596 -2.2000  2.3985
  627MOL0     H86495   6.011   2.860   2.510  0.9093 -2.0975 -2.3822
  627MOL0     H86496   5.862   3.054   2.476 -1.3910 -2.0373  1.4332
  627MOL0     H86497   5.752   2.957   2.380 -1.8669  2.3599 -0.4591
  627MOL0     H86498   5.979   2.902   2.238 -0.6087 -0.0297 -1.9307
  627MOL0     H86499   5.884   3.042   2.192 -2.1049  1.6224  3.2470
  627MOL0     H86500   6.113   3.035   2.371  1.2312  2.0801  0.0680
  627MOL0     H86501   6.015   3.187   2.346  0.7313  0.7799 -1.9073
  627MOL0     H86502   6.084   3.072   2.085 -0.4108  0.2944 -0.6179
  627MOL0     H86503   6.223   3.074   2.188  0.1751 -0.6437  0.0440
  627MOL0     H86504   6.043   3.328   2.173  0.0261 -1.4929 -0.2689
  627MOL0     H86505   6.180   3.302   2.054  0.2236 -1.8334 -1.0663
  627MOL0     H86506   5.556   2.898   2.611  0.2725  3.2200 -0.1327
  627MOL0     H86507   5.420   3.025   2.778  1.8860  1.0640 -0.8819
  627MOL0     H86508   5.217   3.142   3.044 -3.1708 -0.0640 -2.0664
  627MOL0     H86509   5.106   3.303   3.201 -0.9499 -0.4162  2.3462
  627MOL0     H86510   3.766   3.283   3.458  3.3258 -4.2087 -0.3096
  627MOL0     H86511   3.807   3.039   3.381  1.6556  1.5064  0.5451
  627MOL0     H86512   3.452   2.758   3.156 -0.9072 -0.0734 -0.1226
  627MOL0     H86513   3.393   2.511   3.029  0.6286 -0.5120 -1.1343
  627MOL0     H86514   3.400   2.236   3.294 -0.0539 -1.2311  0.0601
  627MOL0     H86515   3.288   2.310   3.179 -0.8265 -0.0648  0.6937
  627MOL0     H86516   3.226   2.105   3.198 -0.8965  1.2939  0.3047
  627MOL0     H86517   3.388   2.034   3.205  0.7245  0.7931 -0.3285
  627MOL0     H86518   3.270   2.163   2.949 -1.0319 -0.6919  0.0320
  627MOL0     H86519   3.409   2.044   2.962 -0.0678  1.5743 -0.4133
  627MOL0     H86520   3.116   1.965   3.021  0.0039  4.5995  0.0465
  627MOL0     H86521   3.263   1.860   2.993  1.4923  0.6652 -0.8530
  627MOL0     H86522   3.146   1.953   2.596  1.8165  1.4603 -0.3703
  627MOL0     H86523   3.644   2.325   3.277 -0.1323  0.2948  0.7873
  627MOL0     H86524   3.760   2.410   3.452 -0.4172 -0.2126 -0.4890
  627MOL0     H86525   3.852   2.534   3.380  1.3576 -2.1600  2.8634
  627MOL0     H86526   3.736   2.569   3.510  0.7391  0.3005 -0.4083
  628MOL0     O86527   7.695   0.438   4.711  0.0879 -0.2684 -0.3439
  628MOL0     C86528   7.625   0.534   4.746  0.3990  0.2630 -0.8079
  628MOL0     O86529   7.663   0.658   4.732  0.3347 -0.0904 -0.2678
  628MOL0     C86530   7.776   0.688   4.659  0.1010 -0.8540  1.0179
  628MOL0     C86531   7.899   0.618   4.669  0.5151 -0.5907 -0.4905
  628MOL0     C86532   8.012   0.658   4.587  0.6578  1.2656 -0.6473
  628MOL0     C86533   8.001   0.769   4.512 -0.3097  0.6396 -0.6077
  628MOL0     O86534   8.116   0.795   4.449  0.2352  0.3229  0.3224
  628MOL0     C86535   8.143   0.737   4.320  0.8554  0.3683  0.1841
  628MOL0     C86536   8.153   0.585   4.307 -0.8561 -0.0730  0.4210
  628MOL0     C86537   8.298   0.539   4.336  0.8415  0.5210 -0.5560
  628MOL0     C86538   8.300   0.387   4.365 -0.4473  0.1914 -0.6971
  628MOL0     C86539   8.438   0.356   4.429  0.0408  0.0904 -0.0228
  628MOL0     C86540   8.567   0.392   4.345 -0.1951  0.4389 -0.1503
  628MOL0     C86541   8.706   0.353   4.407  1.2701  0.2851 -0.8345
  628MOL0     C86542   8.815   0.393   4.328 -0.3872 -0.9630  0.9761
  628MOL0     N86543   8.953   0.377   4.380 -0.5462  0.3351  0.3041
  628MOL0     C86544   9.021   0.257   4.387  0.5461  0.7380 -0.6892
  628MOL0     C86545   9.147   0.283   4.416  0.2967 -0.0466 -0.3680
  628MOL0     C86546   9.250   0.173   4.421  0.1773  1.3283 -0.3723
  628MOL0     C86547   9.387   0.227   4.419  0.3629  0.0112  0.1974
  628MOL0     C86548   9.485   0.125   4.468  0.0687  0.7098 -0.3674
  628MOL0     C86549   9.623   0.179   4.445  0.2012 -0.3500 -0.7655
  628MOL0     O86550   9.712   0.068   4.476  0.1685 -0.2576  0.4544
  628MOL0     C86551   9.839   0.097   4.502 -0.0495  0.2334 -0.5578
  628MOL0     C86552   9.908   0.207   4.461  0.4651  0.0795  0.0074
  628MOL0     C86553  10.048   0.224   4.490  0.8911  0.2103 -0.2037
  628MOL0     C86554  10.101   0.365   4.465 -0.2456 -1.0922  0.5592
  628MOL0     C86555  10.118   0.109   4.545 -0.0080  0.2375 -0.4701
  628MOL0     C86556  10.274   0.099   4.571  0.3306  0.2307 -0.6520
  628MOL0     O86557  10.330   0.001   4.646  0.2264 -0.1997  0.1420
  628MOL0     C86558  10.463  -0.025   4.662 -0.3014  0.5570  0.3830
  628MOL0     C86559  10.572   0.005   4.576 -0.3104  0.3404  0.3554
  628MOL0     C86560  10.699  -0.050   4.594 -0.2857  0.3313 -0.6777
  628MOL0     C86561  10.732  -0.131   4.700  0.6319  0.5742  0.6717
  628MOL0     O86562  10.860  -0.165   4.716  0.4077 -0.1708  0.4464
  628MOL0     C86563  10.916  -0.139   4.848  1.0150  0.3296  0.5824
  628MOL0     C86564  10.944   0.010   4.880 -0.4884  0.1161  0.3281
  628MOL0     C86565  11.039   0.070   4.771 -0.2633 -0.1622 -0.1652
  628MOL0     C86566  11.152   0.144   4.835  0.7303 -0.6483  0.8280
  628MOL0     C86567  11.267   0.169   4.730  0.1630 -0.6846 -0.4818
  628MOL0     C86568  11.383   0.261   4.786 -0.4105  0.3465 -0.2224
  628MOL0     C86569  11.455   0.227   4.911  0.6000  0.0847  0.0049
  628MOL0     C86570  11.503   0.086   4.916  0.2345 -0.1459  0.1652
  628MOL0    Cl86571  11.587   0.045   5.076  0.0349 -0.3051 -0.0831
  628MOL0     C86572  10.629  -0.157   4.793  0.3661 -0.2151  0.5699
  628MOL0     C86573  10.496  -0.109   4.767  0.1433 -0.3505 -0.7235
  628MOL0     O86574  10.339   0.192   4.529 -0.4681 -0.4500  0.2424
  628MOL0     C86575  10.043  -0.005   4.580  0.7018  0.4016  0.8917
  628MOL0     C86576   9.904  -0.005   4.559 -0.9823 -0.7581  0.4540
  628MOL0     N86577   9.156   0.419   4.445  0.2387  0.4014  0.5073
  628MOL0     N86578   9.035   0.472   4.416 -0.7567  0.0999 -0.3073
  628MOL0     C86579   7.888   0.845   4.502  1.5648 -0.0310  0.6409
  628MOL0     C86580   7.771   0.799   4.575 -0.3546 -0.8102 -0.2422
  628MOL0     C86581   7.493   0.514   4.810  0.2294 -0.4316  0.0376
  628MOL0     C86582   7.413   0.630   4.861 -0.7074  0.4373  0.4534
  628MOL0     C86583   7.293   0.621   4.924  0.5897  0.0388 -0.2754
  628MOL0     C86584   7.226   0.499   4.925  0.8375 -0.2785  0.7637
  628MOL0     O86585   7.096   0.484   4.958  0.6652  0.4101  0.1613
  628MOL0     C86586   7.052   0.552   5.080  0.1124 -0.3118 -0.0910
  628MOL0     C86587   7.109   0.486   5.208  0.0595 -0.0616 -0.6514
  628MOL0     C86588   7.056   0.347   5.231  0.1764  0.6092  0.0574
  628MOL0     C86589   7.126   0.285   5.356  0.1677  0.8346 -0.0800
  628MOL0     C86590   7.045   0.193   5.439 -1.0186 -0.2942  0.0428
  628MOL0     C86591   6.981   0.128   5.511  0.2861 -0.4920  0.6311
  628MOL0     C86592   7.300   0.393   4.881 -0.2563  0.6894 -0.8970
  628MOL0     C86593   7.426   0.392   4.822 -0.8410 -0.1453 -0.0754
  628MOL0     C86594   7.479   0.255   4.778 -0.0366  0.0355  0.1310
  628MOL0     H86595   7.914   0.545   4.747  1.2146 -1.3376 -1.2953
  628MOL0     H86596   8.093   0.591   4.613  1.0248  1.5853 -0.9557
  628MOL0     H86597   8.223   0.795   4.273 -1.3825  3.7735  0.2329
  628MOL0     H86598   8.049   0.761   4.269 -0.3032 -0.2273  1.9699
  628MOL0     H86599   8.085   0.528   4.370 -0.8029 -1.6931 -0.9300
  628MOL0     H86600   8.124   0.552   4.207 -1.4167  1.6785 -0.0249
  628MOL0     H86601   8.359   0.580   4.255  0.4996  2.6075  0.1805
  628MOL0     H86602   8.323   0.584   4.433 -0.9213 -0.7514  0.5436
  628MOL0     H86603   8.220   0.351   4.430  1.1942  0.4192  1.5735
  628MOL0     H86604   8.291   0.339   4.267 -0.1923  0.0876 -0.6712
  628MOL0     H86605   8.441   0.246   4.436  0.4598 -0.1503 -2.9787
  628MOL0     H86606   8.439   0.396   4.531  1.9271  2.9502 -1.0463
  628MOL0     H86607   8.549   0.329   4.257 -1.0983 -0.3698  0.5931
  628MOL0     H86608   8.574   0.497   4.314 -1.2103  1.2491  2.1793
  628MOL0     H86609   8.704   0.245   4.429  1.6717  0.5368  0.5701
  628MOL0     H86610   8.715   0.406   4.502  0.3112  0.3218 -0.7499
  628MOL0     H86611   8.813   0.335   4.235  0.6591  1.9191 -0.9940
  628MOL0     H86612   8.808   0.498   4.299  2.9461 -0.5790  1.2082
  628MOL0     H86613   8.983   0.156   4.375  0.1067  0.7784  0.2457
  628MOL0     H86614   9.238   0.110   4.333 -0.1420  1.4939 -0.4497
  628MOL0     H86615   9.232   0.116   4.512  4.4618  0.3843  0.0874
  628MOL0     H86616   9.404   0.282   4.326 -3.2300  0.2349 -0.4818
  628MOL0     H86617   9.391   0.303   4.497  3.6992 -0.1989  0.3441
  628MOL0     H86618   9.471   0.097   4.573 -1.3391 -2.9240 -1.3699
  628MOL0     H86619   9.469   0.034   4.410  0.7744  1.4259 -1.7451
  628MOL0     H86620   9.633   0.205   4.339 -2.8897 -1.4942 -1.4384
  628MOL0     H86621   9.635   0.257   4.521 -1.3707 -1.9780  1.2816
  628MOL0     H86622   9.865   0.286   4.400  1.8381 -0.3928 -1.6605
  628MOL0     H86623  10.179   0.382   4.540 -2.3968 -0.6528  2.8286
  628MOL0     H86624  10.030   0.447   4.479 -0.1762 -1.0302  0.5510
  628MOL0     H86625  10.145   0.362   4.365 -0.3052 -1.9510  0.5532
  628MOL0     H86626  10.563   0.069   4.490 -0.2454 -0.3725 -0.1927
  628MOL0     H86627  10.778  -0.016   4.528  0.9510 -3.6231 -1.5081
  628MOL0     H86628  10.864  -0.184   4.933  2.3121 -0.2325  1.1199
  628MOL0     H86629  11.012  -0.190   4.862  0.6217 -0.3730  0.8061
  628MOL0     H86630  10.855   0.070   4.863 -1.5526 -1.6327 -0.5838
  628MOL0     H86631  10.975   0.018   4.985 -0.1255  2.5997  0.0843
  628MOL0     H86632  10.989   0.142   4.706  0.1692 -0.5525 -0.9472
  628MOL0     H86633  11.065  -0.007   4.697 -2.0193 -0.5915 -0.3805
  628MOL0     H86634  11.185   0.087   4.923  0.5370  1.0805  2.0691
  628MOL0     H86635  11.119   0.245   4.860  0.1211  0.2119 -2.9054
  628MOL0     H86636  11.317   0.073   4.715 -2.2819 -2.8446  3.4408
  628MOL0     H86637  11.230   0.202   4.633  1.2220 -1.8902 -1.3415
  628MOL0     H86638  11.349   0.365   4.781  3.0436  1.7262  2.0628
  628MOL0     H86639  11.456   0.267   4.705 -1.7808 -0.0022 -1.5341
  628MOL0     H86640  11.389   0.236   4.998 -1.9476 -2.1765 -1.5058
  628MOL0     H86641  11.545   0.286   4.929 -0.8034  3.1749 -2.1093
  628MOL0     H86642  11.572   0.056   4.837  0.8982 -1.2614  1.1330
  628MOL0     H86643  11.425   0.011   4.896 -1.2884  1.1072  1.1832
  628MOL0     H86644  10.639  -0.224   4.878  0.2669 -1.7136 -0.5441
  628MOL0     H86645  10.424  -0.157   4.833  0.0665 -0.4931 -0.9138
  628MOL0     H86646  10.090  -0.093   4.622  1.3105 -0.6617 -1.7698
  628MOL0     H86647   9.834  -0.086   4.578  0.9474 -2.2746  1.5556
  628MOL0     H86648   7.877   0.936   4.444 -1.1091 -1.2991 -1.0307
  628MOL0     H86649   7.677   0.854   4.576 -0.2448 -0.5848  1.3507
  628MOL0     H86650   7.468   0.723   4.847  4.0634 -2.2685 -1.0178
  628MOL0     H86651   7.254   0.711   4.971  1.2855 -0.0585  0.5164
  628MOL0     H86652   7.083   0.656   5.072  0.7827 -0.4127  0.9315
  628MOL0     H86653   6.944   0.545   5.091 -0.1225  1.2886 -1.1621
  628MOL0     H86654   7.079   0.544   5.296  0.9970 -0.7747  0.1508
  628MOL0     H86655   7.218   0.489   5.199  0.1186 -2.6082 -1.4991
  628MOL0     H86656   6.947   0.348   5.238  0.1306  0.4602 -0.5567
  628MOL0     H86657   7.091   0.289   5.145 -1.1018 -1.3969  0.7994
  628MOL0     H86658   7.158   0.365   5.424  3.2248  1.0106 -1.5423
  628MOL0     H86659   7.215   0.237   5.315  1.3951  2.1661  0.9140
  628MOL0     H86660   6.944   0.082   5.600 -0.8625  0.2393  0.5468
  628MOL0     H86661   7.250   0.296   4.884 -1.4238  1.2913 -0.1223
  628MOL0     H86662   7.576   0.244   4.829 -0.9024 -1.3104  1.5682
  628MOL0     H86663   7.417   0.172   4.815  1.2391 -0.0939  2.2055
  628MOL0     H86664   7.488   0.243   4.670  0.0823 -1.8028  0.3101
  629MOL0     O86665   6.091   3.696   3.331 -0.1102 -0.0219  0.4880
  629MOL0     C86666   5.985   3.744   3.286  0.8686  0.8321 -0.2603
  629MOL0     O86667   5.854   3.713   3.323  0.8041  0.2692  0.8959
  629MOL0     C86668   5.827   3.640   3.438 -0.0179 -0.6903 -0.9714
  629MOL0     C86669   5.917   3.637   3.549  0.2813  0.3106 -0.1032
  629MOL0     C86670   5.899   3.544   3.653 -0.2307 -0.5774  0.2449
  629MOL0     C86671   5.797   3.448   3.639 -0.7037 -0.0768 -0.4428
  629MOL0     O86672   5.786   3.350   3.737 -0.5118  0.3399  0.1364
  629MOL0     C86673   5.713   3.231   3.722 -1.4661  0.5216 -0.3736
  629MOL0     C86674   5.753   3.159   3.862 -0.2976 -0.2865  0.3891
  629MOL0     C86675   5.674   3.032   3.876 -0.0468 -0.3420  0.5779
  629MOL0     C86676   5.538   3.057   3.935  0.0657  0.7218  0.1287
  629MOL0     C86677   5.474   2.923   3.966 -0.0341  0.3761 -0.4981
  629MOL0     C86678   5.359   2.939   4.069 -0.1730  0.0006  0.0567
  629MOL0     C86679   5.323   2.809   4.154 -0.7460  0.8875 -0.4740
  629MOL0     C86680   5.209   2.840   4.246 -0.0118 -0.1711  0.3330
  629MOL0     N86681   5.177   2.728   4.327  0.7638 -0.0222 -0.2612
  629MOL0     C86682   5.141   2.606   4.277  0.0574 -0.6054 -0.3398
  629MOL0     C86683   5.136   2.513   4.372 -0.3651  0.9041  0.4248
  629MOL0     C86684   5.096   2.365   4.354  0.1701 -0.7094 -0.1897
  629MOL0     C86685   5.196   2.274   4.417 -0.4478  0.4437  1.0826
  629MOL0     C86686   5.310   2.214   4.321  0.1045 -0.2256 -0.7575
  629MOL0     C86687   5.402   2.318   4.253  0.1196 -0.1260  0.3548
  629MOL0     O86688   5.516   2.268   4.174  0.1691  0.1317 -0.6170
  629MOL0     C86689   5.620   2.354   4.150 -0.4698  0.0200  0.4660
  629MOL0     C86690   5.743   2.290   4.118 -0.5026 -0.0901  0.4761
  629MOL0     C86691   5.865   2.360   4.134  0.6869 -0.2827  0.2059
  629MOL0     C86692   5.982   2.269   4.133  0.4078  0.7254 -0.5602
  629MOL0     C86693   5.862   2.498   4.148 -0.7070  0.3006  0.2827
  629MOL0     C86694   5.987   2.571   4.147 -0.4312 -0.0801  0.8984
  629MOL0     O86695   5.992   2.683   4.220  0.5300  0.7520 -0.5463
  629MOL0     C86696   6.109   2.756   4.201 -0.0310  0.1341 -0.7936
  629MOL0     C86697   6.232   2.693   4.245  0.3979 -0.7608  0.5475
  629MOL0     C86698   6.350   2.765   4.243 -0.2590 -0.0543  0.0132
  629MOL0     C86699   6.356   2.887   4.181  0.4128  0.3234  0.0059
  629MOL0     O86700   6.466   2.967   4.175  0.6500  0.1876 -0.5115
  629MOL0     C86701   6.585   2.920   4.225  0.6188 -0.2023  0.2831
  629MOL0     C86702   6.689   3.030   4.200  0.5332 -0.0765  0.3708
  629MOL0     C86703   6.839   2.974   4.218 -0.2677 -0.3675  0.0398
  629MOL0     C86704   6.943   3.085   4.201 -0.1677 -0.8251  0.0914
  629MOL0     C86705   6.976   3.104   4.048  0.2455  0.0557  0.6308
  629MOL0     C86706   7.120   3.154   4.024  0.1401  0.1428  0.1797
  629MOL0     C86707   7.178   3.284   4.095 -0.1488  0.1381  0.7961
  629MOL0     C86708   7.276   3.356   4.006  0.1923  0.1402  0.3348
  629MOL0    Cl86709   7.351   3.484   4.105 -0.3693 -0.1898 -0.0001
  629MOL0     C86710   6.239   2.938   4.118  0.8510 -0.3425 -0.6754
  629MOL0     C86711   6.107   2.882   4.141 -0.2058  0.4662 -0.8117
  629MOL0     O86712   6.064   2.542   4.053 -0.0480 -0.3156 -0.8089
  629MOL0     C86713   5.740   2.568   4.158  0.5498  0.6864 -0.0962
  629MOL0     C86714   5.620   2.493   4.153  0.4819 -0.1255  0.5474
  629MOL0     N86715   5.170   2.573   4.496 -0.2954  0.3070  0.7634
  629MOL0     N86716   5.182   2.703   4.465 -0.2060  0.0329  1.0213
  629MOL0     C86717   5.716   3.442   3.529 -0.3479 -1.4867 -0.7537
  629MOL0     C86718   5.733   3.541   3.435  0.5241 -0.1694  0.5462
  629MOL0     C86719   6.000   3.816   3.162  0.6038  0.3845  0.9223
  629MOL0     C86720   5.884   3.866   3.107 -0.1908 -0.7892 -0.7282
  629MOL0     C86721   5.883   3.941   2.997 -0.4313 -0.3156 -0.6644
  629MOL0     C86722   5.999   3.974   2.921  0.5830 -0.2203  0.2672
  629MOL0     O86723   6.012   4.073   2.821 -0.2690  0.5711 -0.4041
  629MOL0     C86724   5.903   4.119   2.742  0.0663  0.5784  0.0175
  629MOL0     C86725   5.903   4.274   2.745  0.3168  0.0412  0.0214
  629MOL0     C86726   5.835   4.340   2.866 -0.6941 -0.5733 -0.0368
  629MOL0     C86727   5.842   4.496   2.880  0.6905 -0.5594  0.3015
  629MOL0     C86728   5.963   4.545   2.953 -0.4004 -0.1829  0.7186
  629MOL0     C86729   6.068   4.603   3.000  0.5468  0.3953 -1.3026
  629MOL0     C86730   6.119   3.914   2.967  0.3595  0.3788 -0.7352
  629MOL0     C86731   6.118   3.833   3.082  0.8460  0.8591 -0.4382
  629MOL0     C86732   6.251   3.772   3.113  0.8410  0.0448  0.5878
  629MOL0     H86733   6.002   3.702   3.568 -0.2741  2.0100 -2.8044
  629MOL0     H86734   5.977   3.536   3.727 -0.6727 -0.0380  0.7798
  629MOL0     H86735   5.750   3.171   3.638  4.1852  2.4915  0.2642
  629MOL0     H86736   5.605   3.246   3.714 -1.3736  2.1766  0.8792
  629MOL0     H86737   5.860   3.136   3.866  0.3205  2.4943  2.5005
  629MOL0     H86738   5.730   3.228   3.944 -0.6676 -1.2723  1.1370
  629MOL0     H86739   5.677   2.977   3.781  1.1006  2.1695 -0.9567
  629MOL0     H86740   5.732   2.969   3.944  0.4670 -0.5717 -0.0603
  629MOL0     H86741   5.547   3.110   4.030 -1.2670  0.1404  0.5978
  629MOL0     H86742   5.484   3.114   3.858  0.8296 -0.7889 -1.5955
  629MOL0     H86743   5.552   2.868   4.019  0.8183  2.3423  0.4204
  629MOL0     H86744   5.449   2.867   3.875  2.2174  0.3398 -1.1589
  629MOL0     H86745   5.387   3.019   4.138  1.4209  0.3508 -0.9437
  629MOL0     H86746   5.270   2.972   4.014 -1.2540 -2.9707 -0.1746
  629MOL0     H86747   5.414   2.778   4.207 -1.9032 -0.0650  1.0467
  629MOL0     H86748   5.300   2.724   4.089  2.4610 -1.5241  1.2324
  629MOL0     H86749   5.223   2.925   4.313 -0.5929  2.1226 -2.2623
  629MOL0     H86750   5.119   2.873   4.194 -0.2368  0.0279  0.8400
  629MOL0     H86751   5.126   2.578   4.174 -1.3838 -2.1709  0.2456
  629MOL0     H86752   5.090   2.340   4.247 -0.3763  0.1962 -0.3790
  629MOL0     H86753   4.993   2.358   4.392 -0.0551  0.9892 -0.4144
  629MOL0     H86754   5.239   2.306   4.512 -1.4618  2.0050  1.0403
  629MOL0     H86755   5.137   2.185   4.441  1.2152 -1.3282 -0.8966
  629MOL0     H86756   5.361   2.131   4.370  1.4821  0.3002 -1.2491
  629MOL0     H86757   5.265   2.165   4.234  2.9840 -0.9200 -1.9543
  629MOL0     H86758   5.353   2.375   4.173  2.9309  4.0858  1.2385
  629MOL0     H86759   5.440   2.394   4.323  1.1273  1.4678 -1.8057
  629MOL0     H86760   5.735   2.183   4.102  1.3273 -0.1244 -0.5321
  629MOL0     H86761   6.051   2.301   4.054 -0.4473  2.7297 -0.5548
  629MOL0     H86762   5.948   2.168   4.108 -0.6202  1.1678 -0.9959
  629MOL0     H86763   6.027   2.276   4.232  0.8173 -0.2100 -0.6672
  629MOL0     H86764   6.227   2.589   4.275 -3.3438 -0.8016  0.1719
  629MOL0     H86765   6.426   2.723   4.308  1.7927  2.6689 -0.3976
  629MOL0     H86766   6.576   2.913   4.334 -0.5932  2.2578  0.4146
  629MOL0     H86767   6.615   2.826   4.178 -0.3051 -0.7803  0.8303
  629MOL0     H86768   6.667   3.071   4.101 -3.5650  0.6548  1.4077
  629MOL0     H86769   6.670   3.120   4.260 -1.9715  1.1693 -2.0596
  629MOL0     H86770   6.861   2.885   4.159  2.7044  2.5548 -3.8428
  629MOL0     H86771   6.841   2.936   4.321 -5.7213 -1.3287  0.0917
  629MOL0     H86772   7.039   3.080   4.254  0.8903  0.2681 -1.6180
  629MOL0     H86773   6.901   3.181   4.231  2.4890  0.8243 -1.1265
  629MOL0     H86774   6.969   3.007   3.997  0.4842 -0.6826  1.9659
  629MOL0     H86775   6.899   3.165   3.999  3.0871  3.9689  0.6204
  629MOL0     H86776   7.143   3.166   3.917 -0.5203 -3.0873 -0.4173
  629MOL0     H86777   7.178   3.074   4.070 -1.9529 -0.5787  1.7234
  629MOL0     H86778   7.228   3.251   4.186 -0.8005 -3.3963  0.0239
  629MOL0     H86779   7.095   3.351   4.119  0.2257  0.3267  1.5766
  629MOL0     H86780   7.226   3.390   3.915 -1.3634 -2.1390  0.2334
  629MOL0     H86781   7.349   3.283   3.969 -1.4065 -1.3986  0.0191
  629MOL0     H86782   6.249   3.032   4.064  1.0803 -1.0024 -1.8210
  629MOL0     H86783   6.011   2.919   4.106 -2.1812  0.2522  3.6952
  629MOL0     H86784   5.731   2.670   4.192  0.4991  0.9876 -0.9722
  629MOL0     H86785   5.525   2.541   4.172  0.6982  1.3545 -1.7803
  629MOL0     H86786   5.634   3.372   3.515  0.8649 -3.2364  0.4743
  629MOL0     H86787   5.678   3.522   3.344 -1.6584 -2.7018  2.2105
  629MOL0     H86788   5.784   3.855   3.149 -0.5638  0.9126 -1.1045
  629MOL0     H86789   5.783   3.964   2.960 -1.0397 -0.1423  0.9917
  629MOL0     H86790   5.917   4.074   2.643  0.2201 -1.0758  0.7567
  629MOL0     H86791   5.808   4.073   2.771  0.6603 -1.1711 -0.6473
  629MOL0     H86792   5.845   4.321   2.665 -0.5081  3.4313  2.3592
  629MOL0     H86793   6.003   4.315   2.729  0.5080 -0.1889  0.5848
  629MOL0     H86794   5.727   4.323   2.870 -0.6883 -0.6726  3.5500
  629MOL0     H86795   5.881   4.300   2.957 -2.0150 -0.0198  0.9136
  629MOL0     H86796   5.751   4.520   2.935 -0.9350 -2.1353 -1.5406
  629MOL0     H86797   5.839   4.538   2.779  3.8902 -1.2409 -0.1817
  629MOL0     H86798   6.151   4.655   3.042 -0.3743  2.9095 -2.4139
  629MOL0     H86799   6.213   3.952   2.927  2.7886 -0.2354  3.6933
  629MOL0     H86800   6.316   3.785   3.026  0.7333  2.0185  0.7676
  629MOL0     H86801   6.286   3.812   3.209  1.0211 -0.0628  0.5659
  629MOL0     H86802   6.244   3.665   3.137  1.9823 -1.3969 -4.3702
  630MOL0     O86803   7.181   4.803   7.312 -1.0062 -0.4607 -0.8326
  630MOL0     C86804   7.124   4.696   7.309  0.1241 -0.4485  0.3280
  630MOL0     O86805   7.023   4.661   7.215  0.7323 -0.2760  0.3437
  630MOL0     C86806   6.993   4.747   7.112  0.4235  1.2475  0.8023
  630MOL0     C86807   6.858   4.769   7.092  0.1108 -0.8607  0.0551
  630MOL0     C86808   6.824   4.867   6.996 -0.3905  0.4278  0.2177
  630MOL0     C86809   6.920   4.934   6.919 -0.1684  0.4771  0.5138
  630MOL0     O86810   6.902   5.006   6.808  0.2599 -1.1289 -0.3107
  630MOL0     C86811   6.766   5.034   6.778 -0.8017 -0.2062  0.0887
  630MOL0     C86812   6.774   5.118   6.653  0.4811 -0.3871 -0.0254
  630MOL0     C86813   6.847   5.256   6.668  0.0906  0.8853  0.0756
  630MOL0     C86814   6.812   5.354   6.556  0.8741  0.0815  0.1738
  630MOL0     C86815   6.879   5.498   6.581  0.2645  0.2602  0.2393
  630MOL0     C86816   6.941   5.548   6.445 -0.0513  0.0232 -0.4682
  630MOL0     C86817   7.030   5.678   6.468 -0.6034 -0.6653  1.0253
  630MOL0     C86818   7.086   5.725   6.342 -1.1223 -0.3556 -0.6995
  630MOL0     N86819   7.164   5.849   6.354  0.7821 -0.0494  0.3618
  630MOL0     C86820   7.277   5.865   6.424 -0.2406 -0.2696 -0.9448
  630MOL0     C86821   7.317   5.995   6.391 -0.7142 -0.0273  0.5455
  630MOL0     C86822   7.457   6.057   6.413  0.0841 -1.0460  0.7655
  630MOL0     C86823   7.465   6.129   6.548 -0.1953  0.1516 -0.0130
  630MOL0     C86824   7.455   6.288   6.542  0.0539 -0.2989 -0.4260
  630MOL0     C86825   7.398   6.348   6.675 -0.0045  0.1237  0.2085
  630MOL0     O86826   7.255   6.327   6.684 -0.5907  0.0409  0.6769
  630MOL0     C86827   7.195   6.364   6.806  0.8030  0.8008  0.0572
  630MOL0     C86828   7.254   6.411   6.922 -0.2518 -0.8433  0.1411
  630MOL0     C86829   7.190   6.425   7.041  0.0531  0.3537 -0.5193
  630MOL0     C86830   7.281   6.474   7.153 -0.0457 -0.8546  0.2901
  630MOL0     C86831   7.053   6.388   7.055 -0.3402  0.5333  0.3604
  630MOL0     C86832   6.987   6.386   7.181 -1.1109 -0.3932 -0.1454
  630MOL0     O86833   6.865   6.326   7.181  0.2401 -0.0961 -0.6363
  630MOL0     C86834   6.820   6.271   7.298  0.0149 -1.0140 -0.8731
  630MOL0     C86835   6.896   6.212   7.396  0.0446  0.1727  0.3303
  630MOL0     C86836   6.834   6.139   7.494  0.2163  1.1132 -1.7850
  630MOL0     C86837   6.699   6.137   7.508  0.5391 -0.2483 -0.2121
  630MOL0     O86838   6.651   6.056   7.608  0.0152  0.8040 -0.5705
  630MOL0     C86839   6.508   6.045   7.648  0.4587  0.7381 -0.1423
  630MOL0     C86840   6.455   6.170   7.732 -0.9251  0.0372 -0.7169
  630MOL0     C86841   6.340   6.137   7.835  0.2270  0.5255 -0.2289
  630MOL0     C86842   6.378   6.071   7.969 -0.7742 -0.1941 -0.5654
  630MOL0     C86843   6.459   6.146   8.074  0.7244 -0.0219  0.2274
  630MOL0     C86844   6.474   6.063   8.199 -0.6108  0.9494 -1.1160
  630MOL0     C86845   6.567   5.945   8.179  0.2565 -0.4652  0.1701
  630MOL0     C86846   6.707   5.984   8.132 -0.9516 -0.0718  0.7146
  630MOL0    Cl86847   6.781   6.089   8.253 -0.1499  0.5450 -0.5809
  630MOL0     C86848   6.621   6.208   7.418 -0.3350 -0.7006 -0.0423
  630MOL0     C86849   6.679   6.275   7.320  0.4596  0.1995 -0.4804
  630MOL0     O86850   7.038   6.446   7.274  0.0551  0.3705  0.0500
  630MOL0     C86851   6.987   6.347   6.936  0.2183 -0.5050  0.5813
  630MOL0     C86852   7.058   6.347   6.812 -0.6662 -0.4387  0.0487
  630MOL0     N86853   7.205   6.055   6.321  0.1508  0.6434 -0.3665
  630MOL0     N86854   7.117   5.974   6.325  0.1299  0.0096  0.1145
  630MOL0     C86855   7.055   4.899   6.943  0.2878  0.1670 -0.4592
  630MOL0     C86856   7.091   4.812   7.044  0.2934  0.2064  0.4257
  630MOL0     C86857   7.142   4.599   7.413 -0.3668 -0.6538  0.4387
  630MOL0     C86858   7.181   4.649   7.537 -0.5991 -0.0328  0.4865
  630MOL0     C86859   7.219   4.562   7.637  0.1029 -0.2186 -0.3281
  630MOL0     C86860   7.225   4.429   7.623  0.5123  0.0029  0.2684
  630MOL0     O86861   7.256   4.348   7.723 -0.1254 -0.0777  0.2116
  630MOL0     C86862   7.396   4.317   7.734  0.4155 -0.0021  0.8498
  630MOL0     C86863   7.438   4.260   7.864 -0.1352  0.0106 -0.9386
  630MOL0     C86864   7.373   4.121   7.879 -0.5389 -0.8363 -0.0791
  630MOL0     C86865   7.361   4.070   8.016  0.3567 -0.3306  0.2060
  630MOL0     C86866   7.485   4.009   8.055 -0.0398 -0.0656  0.9578
  630MOL0     C86867   7.575   3.946   8.097  0.1413 -0.2728  0.0115
  630MOL0     C86868   7.182   4.375   7.499 -0.0250  0.6565  0.5351
  630MOL0     C86869   7.133   4.462   7.394 -1.0044 -0.1765 -0.4555
  630MOL0     C86870   7.104   4.393   7.266 -0.4916 -0.7787 -0.2560
  630MOL0     H86871   6.771   4.729   7.144  0.4094 -3.4241 -1.2550
  630MOL0     H86872   6.718   4.888   6.986 -0.7646 -0.3662  2.1622
  630MOL0     H86873   6.722   5.092   6.859  0.2601 -0.9638  1.2386
  630MOL0     H86874   6.705   4.944   6.764 -1.4345 -0.0660  1.7780
  630MOL0     H86875   6.823   5.068   6.568 -0.2206 -0.7850 -0.2055
  630MOL0     H86876   6.669   5.140   6.632  0.5274  0.5985  0.7017
  630MOL0     H86877   6.819   5.303   6.762  2.4660  1.1763  0.6987
  630MOL0     H86878   6.955   5.245   6.682  0.1608  0.6847 -0.5622
  630MOL0     H86879   6.843   5.325   6.455 -0.1692  2.1721 -0.7953
  630MOL0     H86880   6.704   5.360   6.537  1.3836  1.0232 -2.8819
  630MOL0     H86881   6.950   5.506   6.665 -0.0698 -2.3845  0.8854
  630MOL0     H86882   6.792   5.557   6.609  0.0371 -1.3357  3.3714
  630MOL0     H86883   7.002   5.472   6.395 -0.0985 -0.2152 -0.1616
  630MOL0     H86884   6.852   5.563   6.383 -1.5809  0.9084  1.8371
  630MOL0     H86885   7.105   5.654   6.544 -1.0061 -0.0431  1.6295
  630MOL0     H86886   6.957   5.753   6.500  0.9976  1.7329 -0.6901
  630MOL0     H86887   7.134   5.639   6.293  0.3455  0.0277  0.0124
  630MOL0     H86888   7.001   5.747   6.277 -0.5013  0.2370 -1.3230
  630MOL0     H86889   7.340   5.785   6.464  0.9547  1.0249 -0.1341
  630MOL0     H86890   7.483   6.126   6.332 -6.0363  0.3756 -0.4892
  630MOL0     H86891   7.531   5.976   6.421  1.2980  0.0376  0.9076
  630MOL0     H86892   7.388   6.084   6.610  0.1282 -1.9533 -1.0545
  630MOL0     H86893   7.557   6.098   6.599 -1.4365 -0.0291  2.2080
  630MOL0     H86894   7.556   6.326   6.522 -1.2322  2.8383 -1.6346
  630MOL0     H86895   7.401   6.311   6.450 -0.4481  1.4075  0.2423
  630MOL0     H86896   7.454   6.310   6.762  2.9688  1.8075 -0.8299
  630MOL0     H86897   7.404   6.457   6.682 -1.6101  0.1414  2.9035
  630MOL0     H86898   7.354   6.451   6.907 -0.5833 -0.0532  0.0232
  630MOL0     H86899   7.247   6.564   7.206  2.5211  0.3016  0.1346
  630MOL0     H86900   7.382   6.485   7.111 -0.5072 -0.8111 -0.8567
  630MOL0     H86901   7.294   6.386   7.216  3.0128 -0.6102  0.1724
  630MOL0     H86902   7.003   6.192   7.399 -0.1965 -0.9881  1.7129
  630MOL0     H86903   6.888   6.074   7.562 -1.1965  2.0645  0.3670
  630MOL0     H86904   6.440   6.039   7.563  1.4367  1.4473 -1.0056
  630MOL0     H86905   6.499   5.953   7.706 -2.2968 -1.0851 -3.1308
  630MOL0     H86906   6.537   6.212   7.790  0.3909 -1.6004 -1.2924
  630MOL0     H86907   6.412   6.236   7.656  0.5584 -0.9168 -2.4592
  630MOL0     H86908   6.288   6.061   7.776 -1.6541 -0.6851  2.7930
  630MOL0     H86909   6.275   6.224   7.851  0.7571  0.9160 -0.1577
  630MOL0     H86910   6.426   5.977   7.943 -3.7905 -1.8600 -0.5594
  630MOL0     H86911   6.281   6.055   8.019 -1.0255  0.5257 -0.8072
  630MOL0     H86912   6.549   6.185   8.026  0.0243  2.0807  0.4711
  630MOL0     H86913   6.401   6.234   8.106 -0.1100  0.2890 -1.9946
  630MOL0     H86914   6.377   6.045   8.247 -1.3404  1.3081 -2.4196
  630MOL0     H86915   6.529   6.122   8.272 -0.1976 -0.5661 -0.1379
  630MOL0     H86916   6.528   5.866   8.113  1.2949  1.2676 -2.6946
  630MOL0     H86917   6.595   5.901   8.275  0.1267  0.9583  0.8843
  630MOL0     H86918   6.711   6.043   8.040 -0.3284  0.0652  0.8216
  630MOL0     H86919   6.771   5.897   8.117 -3.1654 -1.8944  1.3524
  630MOL0     H86920   6.513   6.205   7.416 -0.4876  1.1555  1.8438
  630MOL0     H86921   6.599   6.314   7.258 -0.4510 -1.3623 -0.3564
  630MOL0     H86922   6.882   6.321   6.924  0.4212 -0.2083 -2.7367
  630MOL0     H86923   7.002   6.313   6.725  0.7567 -0.5901 -0.8379
  630MOL0     H86924   7.127   4.949   6.879 -0.6878  0.3114 -1.4787
  630MOL0     H86925   7.197   4.798   7.066  0.2763 -0.9575 -0.1716
  630MOL0     H86926   7.206   4.753   7.551 -2.7801  0.4126  1.4264
  630MOL0     H86927   7.251   4.607   7.731 -0.5383 -1.0516  0.3038
  630MOL0     H86928   7.415   4.235   7.664  1.9921  1.5855 -0.6990
  630MOL0     H86929   7.449   4.407   7.701 -1.1909  0.1952 -1.4404
  630MOL0     H86930   7.406   4.326   7.945  0.2748  0.8960 -1.4876
  630MOL0     H86931   7.547   4.249   7.867  0.0218  1.5915 -0.2622
  630MOL0     H86932   7.268   4.129   7.851 -0.8447  1.6710  1.5190
  630MOL0     H86933   7.425   4.048   7.816 -0.4853 -0.8784  0.0131
  630MOL0     H86934   7.278   3.999   8.018  0.9224 -1.1653 -2.3397
  630MOL0     H86935   7.358   4.145   8.095  2.1062 -1.0519  1.0177
  630MOL0     H86936   7.675   3.910   8.113  0.1015  0.1686  1.3705
  630MOL0     H86937   7.193   4.268   7.491  0.8975  0.8154 -0.6646
  630MOL0     H86938   6.999   4.361   7.271 -0.5250 -0.5768  0.3951
  630MOL0     H86939   7.119   4.457   7.178 -1.8605 -2.6266 -1.9510
  630MOL0     H86940   7.162   4.300   7.272  0.4483 -0.2671 -1.1343
  631MOL0     O86941   9.393   0.504   3.909  0.0704 -0.0088  0.3020
  631MOL0     C86942   9.364   0.473   4.021 -0.0748  0.0173 -0.5957
  631MOL0     O86943   9.242   0.420   4.061  0.2073  0.0312 -0.2922
  631MOL0     C86944   9.135   0.406   3.983 -0.0874  0.6590  0.4456
  631MOL0     C86945   9.005   0.418   4.043  0.0745  0.5517 -0.4640
  631MOL0     C86946   8.886   0.393   3.968  0.3923  0.3054 -1.2879
  631MOL0     C86947   8.897   0.348   3.839  0.3371 -0.5017  0.2324
  631MOL0     O86948   8.780   0.344   3.768  0.8929  0.8737  0.5633
  631MOL0     C86949   8.778   0.390   3.634 -0.7730  0.7763  0.1063
  631MOL0     C86950   8.641   0.436   3.598 -0.2858 -0.3008 -0.2837
  631MOL0     C86951   8.616   0.490   3.451  0.1874 -0.3746 -0.1175
  631MOL0     C86952   8.642   0.387   3.340  0.4905 -0.1855 -0.5381
  631MOL0     C86953   8.594   0.452   3.207  0.1328  0.2771 -0.1531
  631MOL0     C86954   8.666   0.390   3.090 -0.5434 -0.1197  1.2116
  631MOL0     C86955   8.601   0.271   3.021  0.5498 -0.6241  0.5451
  631MOL0     C86956   8.597   0.145   3.097  0.1375  0.6983  0.1937
  631MOL0     N86957   8.722   0.101   3.157  0.3561 -0.2175 -0.0675
  631MOL0     C86958   8.834   0.060   3.099 -0.0392  0.8218 -0.3113
  631MOL0     C86959   8.919   0.033   3.194 -0.1189  1.0083 -0.5272
  631MOL0     C86960   9.060  -0.007   3.169 -0.1859  0.3185  0.1077
  631MOL0     C86961   9.164   0.089   3.225  0.4446  0.2535  0.1176
  631MOL0     C86962   9.306   0.024   3.203 -0.2632  0.0449  0.3434
  631MOL0     C86963   9.416   0.127   3.241 -0.0446  0.3757  0.9703
  631MOL0     O86964   9.395   0.191   3.363 -0.0546  0.5464 -0.5837
  631MOL0     C86965   9.506   0.238   3.428 -0.4363 -0.0874  0.3837
  631MOL0     C86966   9.616   0.303   3.369  1.1585 -0.3179  0.2903
  631MOL0     C86967   9.732   0.335   3.430 -0.2923  0.4825  0.8132
  631MOL0     C86968   9.824   0.400   3.332 -0.5610 -0.5512 -0.4917
  631MOL0     C86969   9.742   0.329   3.567 -0.4352 -0.7166  0.0861
  631MOL0     C86970   9.848   0.383   3.651  0.0740  0.5174  0.4944
  631MOL0     O86971   9.833   0.389   3.790  0.7051 -1.3514  0.3310
  631MOL0     C86972   9.936   0.446   3.862 -0.8579  0.1716 -0.5720
  631MOL0     C86973   9.897   0.554   3.938  0.2138  0.3810  0.5039
  631MOL0     C86974   9.978   0.605   4.033 -0.8075 -0.6083  0.4164
  631MOL0     C86975  10.109   0.555   4.034  0.1535 -0.2755 -0.0859
  631MOL0     O86976  10.201   0.621   4.118 -0.2139  0.1848 -0.1458
  631MOL0     C86977  10.311   0.545   4.168  0.4777 -0.5567  0.2730
  631MOL0     C86978  10.374   0.609   4.290  0.0688  0.1826 -0.0213
  631MOL0     C86979  10.452   0.735   4.270  0.4515 -0.2823 -0.2495
  631MOL0     C86980  10.566   0.709   4.179 -0.2827  0.5685 -0.2219
  631MOL0     C86981  10.665   0.832   4.171  0.3328  0.0905 -0.1945
  631MOL0     C86982  10.795   0.789   4.082  0.4420  0.3474 -0.6834
  631MOL0     C86983  10.924   0.877   4.116  0.2442  0.7109  0.0484
  631MOL0     C86984  11.030   0.844   4.010 -0.2526  0.0600  0.4867
  631MOL0    Cl86985  11.182   0.937   4.054  0.6645  0.1691 -0.0819
  631MOL0     C86986  10.146   0.434   3.967 -0.3285  0.6270  0.4222
  631MOL0     C86987  10.052   0.377   3.884 -0.3670 -0.5907  0.1585
  631MOL0     O86988   9.941   0.430   3.589 -0.2947 -0.1683  0.0785
  631MOL0     C86989   9.631   0.287   3.637 -0.2265  0.1376  0.7407
  631MOL0     C86990   9.515   0.236   3.571  0.0435 -0.4344  0.7582
  631MOL0     N86991   8.854   0.049   3.315 -0.2039 -1.2882 -0.5182
  631MOL0     N86992   8.739   0.091   3.286  0.5559  0.3379  0.1417
  631MOL0     C86993   9.025   0.336   3.782  0.9139  0.9205 -0.4174
  631MOL0     C86994   9.140   0.360   3.848  0.5673  0.0000  0.0258
  631MOL0     C86995   9.466   0.487   4.122 -0.3986 -0.0626 -0.3072
  631MOL0     C86996   9.596   0.437   4.091 -0.3799  0.3226  0.0204
  631MOL0     C86997   9.702   0.451   4.183  0.1845 -0.7133  0.2975
  631MOL0     C86998   9.688   0.553   4.287 -0.3533  0.1201  0.3020
  631MOL0     O86999   9.815   0.576   4.352  1.0478 -0.3570 -0.4100
  631MOL0     C87000   9.814   0.699   4.431  0.2585  0.1235  0.1051
  631MOL0     C87001   9.959   0.763   4.464 -0.0057  0.0519  0.2327
  631MOL0     C87002   9.957   0.907   4.523 -0.0239 -0.4466  0.0734
  631MOL0     C87003   9.927   0.902   4.674  0.8703 -0.0876  0.0629
  631MOL0     C87004   9.943   1.035   4.727  0.4920  0.5750 -0.6850
  631MOL0     C87005   9.936   1.150   4.758  0.0591  0.3460 -0.5021
  631MOL0     C87006   9.565   0.610   4.304 -0.7022  0.4336  0.2372
  631MOL0     C87007   9.457   0.580   4.221 -0.1629 -0.3391 -0.7470
  631MOL0     C87008   9.326   0.652   4.243  0.6225  0.4247  0.4767
  631MOL0     H87009   8.993   0.445   4.147 -3.4371 -0.7024 -0.4379
  631MOL0     H87010   8.788   0.419   4.006  1.1206  3.7343 -1.4166
  631MOL0     H87011   8.800   0.302   3.573 -0.5681  1.8663 -1.4552
  631MOL0     H87012   8.845   0.476   3.622 -0.5627  0.7217  0.8192
  631MOL0     H87013   8.571   0.353   3.611  0.4275 -0.8889 -0.1188
  631MOL0     H87014   8.614   0.514   3.670  2.3149  1.2854 -0.8749
  631MOL0     H87015   8.508   0.508   3.446  0.1447 -0.6100 -0.0521
  631MOL0     H87016   8.678   0.579   3.437 -1.6195  1.1705  1.2373
  631MOL0     H87017   8.745   0.349   3.332  1.1720  1.8201 -2.0828
  631MOL0     H87018   8.580   0.300   3.363  0.6347  0.1377  1.2376
  631MOL0     H87019   8.625   0.557   3.202  0.2142  0.2856  0.4318
  631MOL0     H87020   8.486   0.449   3.197  0.1822 -2.6475 -0.5315
  631MOL0     H87021   8.669   0.466   3.012 -3.0740 -1.3122 -0.1583
  631MOL0     H87022   8.774   0.376   3.105 -0.1503  3.1294  2.3680
  631MOL0     H87023   8.651   0.250   2.927  4.0051 -2.4431  2.5762
  631MOL0     H87024   8.495   0.294   3.005  0.5451  2.7490  3.8948
  631MOL0     H87025   8.521   0.159   3.174  0.7941  0.3031  0.9403
  631MOL0     H87026   8.557   0.062   3.038  0.6433  0.5839  0.0083
  631MOL0     H87027   8.848   0.057   2.991 -2.0801  0.5816 -0.6181
  631MOL0     H87028   9.078  -0.022   3.062  2.3484  0.7126  0.4274
  631MOL0     H87029   9.086  -0.100   3.221 -1.5978  0.5659  1.3397
  631MOL0     H87030   9.155   0.179   3.164 -2.4283  0.6959  1.0444
  631MOL0     H87031   9.131   0.105   3.328 -1.1661  0.9841 -0.4735
  631MOL0     H87032   9.319  -0.068   3.261  0.4284 -0.2840 -0.3083
  631MOL0     H87033   9.310  -0.006   3.098  1.3741 -1.7146  0.8371
  631MOL0     H87034   9.514   0.078   3.249 -0.2899  0.1841  3.3602
  631MOL0     H87035   9.421   0.201   3.160 -0.4039  0.6895  1.2347
  631MOL0     H87036   9.613   0.304   3.261  0.8749 -3.2898  0.1954
  631MOL0     H87037   9.925   0.365   3.352  0.4524  1.8868 -0.9954
  631MOL0     H87038   9.815   0.508   3.348  3.1994 -0.4021  1.9951
  631MOL0     H87039   9.812   0.382   3.225 -2.2593  0.0966 -0.4444
  631MOL0     H87040   9.797   0.594   3.925  0.6522  0.9496 -1.3499
  631MOL0     H87041   9.946   0.699   4.078 -2.5752 -0.8169 -0.3385
  631MOL0     H87042  10.279   0.445   4.200  2.5877 -1.1991  0.5417
  631MOL0     H87043  10.385   0.530   4.088  0.9890  0.2074  0.5890
  631MOL0     H87044  10.295   0.634   4.362 -1.2964  0.9335 -1.6869
  631MOL0     H87045  10.433   0.535   4.345 -0.5334  0.6837  1.3557
  631MOL0     H87046  10.478   0.773   4.369  0.7353  2.8623 -1.4163
  631MOL0     H87047  10.390   0.811   4.221  3.9514  2.5884 -0.5877
  631MOL0     H87048  10.519   0.690   4.082  1.7152 -0.8485 -0.9797
  631MOL0     H87049  10.616   0.619   4.216 -0.8007 -0.0659 -1.0319
  631MOL0     H87050  10.618   0.917   4.120 -0.2122 -0.9638 -1.5104
  631MOL0     H87051  10.695   0.872   4.268 -1.3705 -1.0746  0.8594
  631MOL0     H87052  10.765   0.800   3.977  0.8049 -0.7952 -0.9203
  631MOL0     H87053  10.826   0.685   4.096  3.0679  1.2670  0.9881
  631MOL0     H87054  10.969   0.861   4.215  1.9469 -0.2196 -0.8410
  631MOL0     H87055  10.893   0.982   4.104 -2.2213 -0.1800 -2.4506
  631MOL0     H87056  10.992   0.862   3.908  1.2177  0.2273 -0.0552
  631MOL0     H87057  11.044   0.736   4.003 -0.5407  0.1112 -2.6369
  631MOL0     H87058  10.238   0.379   3.986  0.6176  1.4101 -1.6724
  631MOL0     H87059  10.074   0.290   3.823  1.8374  0.8723 -1.2753
  631MOL0     H87060   9.633   0.264   3.743 -1.4651 -0.9145  0.5643
  631MOL0     H87061   9.434   0.189   3.625 -1.2260 -0.1128 -0.7724
  631MOL0     H87062   9.034   0.303   3.679 -1.5525  1.6014 -0.9220
  631MOL0     H87063   9.235   0.345   3.797 -0.5683 -0.9285 -1.9188
  631MOL0     H87064   9.615   0.391   3.994 -0.0191  0.9674 -0.2151
  631MOL0     H87065   9.801   0.410   4.164 -0.1126 -2.2904  1.9591
  631MOL0     H87066   9.771   0.773   4.363 -0.0882  0.1683  0.3679
  631MOL0     H87067   9.744   0.684   4.514 -0.5970 -2.8837 -1.0180
  631MOL0     H87068  10.038   0.763   4.388 -2.0675 -1.5662 -2.0376
  631MOL0     H87069   9.996   0.705   4.550  0.5611  3.4154  2.4431
  631MOL0     H87070  10.053   0.958   4.508 -0.7670  0.9894  0.0201
  631MOL0     H87071   9.889   0.976   4.472 -0.5114  1.0967  2.6419
  631MOL0     H87072   9.992   0.829   4.723  1.4308  1.1177  1.2240
  631MOL0     H87073   9.823   0.875   4.693  0.1592  2.2987 -0.0366
  631MOL0     H87074   9.908   1.251   4.780  0.0094  0.2153  0.0493
  631MOL0     H87075   9.557   0.697   4.367  1.3848  0.6714  0.2715
  631MOL0     H87076   9.238   0.592   4.271 -0.7776  2.5753  0.8897
  631MOL0     H87077   9.328   0.739   4.308  1.0561 -0.6908  2.0252
  631MOL0     H87078   9.301   0.691   4.144  3.1677  1.9017  0.3405
  632MOL0     O87079  10.692   8.790  10.093  0.1401 -0.6793 -0.6248
  632MOL0     C87080  10.606   8.741  10.163 -0.4842  0.4275 -0.1987
  632MOL0     O87081  10.605   8.611  10.203 -0.2662 -0.2053  0.2114
  632MOL0     C87082  10.706   8.534  10.163 -0.3534 -0.6917  0.1958
  632MOL0     C87083  10.835   8.562  10.201  0.1842  0.6725  0.2294
  632MOL0     C87084  10.930   8.467  10.172  0.5920 -0.3666  0.6565
  632MOL0     C87085  10.903   8.356  10.092 -0.7894  0.4097 -0.1510
  632MOL0     O87086  10.997   8.256  10.061 -0.0166 -0.0165 -0.2934
  632MOL0     C87087  11.082   8.302   9.956 -0.6812  0.4891 -0.9708
  632MOL0     C87088  11.233   8.296   9.995  0.2100  0.3770 -0.4857
  632MOL0     C87089  11.275   8.152  10.034  0.2945 -0.1289  0.0354
  632MOL0     C87090  11.429   8.146  10.065 -0.1834  0.1060  0.3402
  632MOL0     C87091  11.461   7.997  10.102  0.4840  0.6045  0.5271
  632MOL0     C87092  11.619   7.976  10.110 -0.6554  0.5992  0.0195
  632MOL0     C87093  11.681   8.032  10.234 -0.3439  0.2962 -0.4474
  632MOL0     C87094  11.672   7.951  10.360  0.7036  1.6018 -0.2441
  632MOL0     N87095  11.761   7.839  10.348  0.9669 -0.6443  0.2087
  632MOL0     C87096  11.714   7.713  10.312 -0.1800  0.2971 -0.1717
  632MOL0     C87097  11.820   7.643  10.274  0.3391  0.1067  0.2714
  632MOL0     C87098  11.819   7.497  10.236 -0.8159  0.6657 -0.0450
  632MOL0     C87099  11.965   7.431  10.218  0.6531 -0.0007  0.8310
  632MOL0     C87100  12.018   7.364  10.335 -0.1375 -0.0648 -0.4041
  632MOL0     C87101  12.160   7.297  10.312 -0.0490 -0.3761 -1.2796
  632MOL0     O87102  12.268   7.384  10.295  0.1861  0.0951 -0.3338
  632MOL0     C87103  12.385   7.321  10.242 -0.5463 -0.7100 -0.1657
  632MOL0     C87104  12.382   7.233  10.128 -0.9077  0.4587  0.1382
  632MOL0     C87105  12.501   7.181  10.077  0.5902 -0.1003 -0.0330
  632MOL0     C87106  12.491   7.096   9.950  0.5746  0.1938  0.3766
  632MOL0     C87107  12.621   7.217  10.138 -0.4027  0.7263  0.6262
  632MOL0     C87108  12.753   7.169  10.094  0.1380 -0.7102 -0.5992
  632MOL0     O87109  12.755   7.032  10.081  0.3783 -0.3377  0.0994
  632MOL0     C87110  12.851   6.974  10.007  1.1937 -0.2042 -0.5188
  632MOL0     C87111  12.880   7.018   9.880  0.3181  0.4762  1.0038
  632MOL0     C87112  12.949   6.936   9.798  0.5896  0.3161  0.2294
  632MOL0     C87113  13.001   6.812   9.836 -0.2225  0.3616 -0.9525
  632MOL0     O87114  13.061   6.726   9.741 -0.4574 -0.6535  0.6494
  632MOL0     C87115  13.130   6.622   9.803 -0.2664  0.7330  0.6062
  632MOL0     C87116  13.206   6.541   9.697  0.0714 -0.0143 -0.6080
  632MOL0     C87117  13.336   6.611   9.652 -0.0764  0.2135 -0.2793
  632MOL0     C87118  13.305   6.715   9.546 -0.3123  0.4075 -0.7180
  632MOL0     C87119  13.434   6.779   9.489  0.6892  0.9583 -1.1095
  632MOL0     C87120  13.499   6.871   9.595 -0.5341  0.3180  0.2784
  632MOL0     C87121  13.632   6.914   9.536  0.3663 -0.1042 -0.0380
  632MOL0     C87122  13.718   6.997   9.626 -0.0042  0.5102 -0.9536
  632MOL0    Cl87123  13.794   6.900   9.755 -0.0155  0.1272  0.4302
  632MOL0     C87124  12.988   6.778   9.977 -0.3468  0.5645 -0.1189
  632MOL0     C87125  12.913   6.864  10.061 -0.2804  0.4482 -0.6864
  632MOL0     O87126  12.840   7.253  10.054  0.0414  0.2010 -0.6309
  632MOL0     C87127  12.626   7.312  10.233  0.1307 -0.3150 -0.6893
  632MOL0     C87128  12.510   7.370  10.288 -0.1795  0.5929  0.8355
  632MOL0     N87129  11.933   7.723  10.276  0.6702 -0.0610 -0.5243
  632MOL0     N87130  11.893   7.841  10.330 -0.2551  0.0342 -0.0944
  632MOL0     C87131  10.773   8.329  10.058 -0.5164  0.5113 -0.1208
  632MOL0     C87132  10.673   8.413  10.098  0.3961 -0.6426  0.4613
  632MOL0     C87133  10.516   8.825  10.234  0.5029  0.1150  0.7935
  632MOL0     C87134  10.408   8.760  10.294 -0.2044 -0.7560 -0.1666
  632MOL0     C87135  10.296   8.837  10.330  0.2512 -0.3625 -0.2935
  632MOL0     C87136  10.300   8.967  10.351 -0.1409 -0.7375  0.0856
  632MOL0     O87137  10.199   9.026  10.418  0.7188 -0.4798  0.9066
  632MOL0     C87138  10.202   9.164  10.456 -0.2596 -0.7393  0.7781
  632MOL0     C87139  10.064   9.234  10.474  0.8477  0.1860  0.6022
  632MOL0     C87140   9.990   9.247  10.345 -0.5895 -0.0027  0.0892
  632MOL0     C87141   9.879   9.137  10.334 -0.4187  0.1242  0.0298
  632MOL0     C87142   9.804   9.147  10.206 -0.5827  0.2113 -0.7758
  632MOL0     C87143   9.750   9.148  10.096  0.3653 -0.0490 -0.1194
  632MOL0     C87144  10.414   9.035  10.304 -0.6713  0.2636 -0.7848
  632MOL0     C87145  10.529   8.966  10.249 -0.2627 -0.3619 -0.6447
  632MOL0     C87146  10.654   9.054  10.226 -0.4818 -0.1241 -0.7373
  632MOL0     H87147  10.865   8.653  10.252  1.5612  1.8427 -2.4658
  632MOL0     H87148  11.031   8.486  10.207 -0.3927  2.6294  2.1962
  632MOL0     H87149  11.054   8.401   9.920 -2.1177  1.4313  2.3557
  632MOL0     H87150  11.060   8.228   9.879 -3.5928 -0.0964  0.2753
  632MOL0     H87151  11.294   8.332   9.912  0.0916  1.6228 -0.0525
  632MOL0     H87152  11.253   8.372  10.071  1.9162  2.1839 -2.6513
  632MOL0     H87153  11.215   8.125  10.122  2.1561  1.6578  1.9742
  632MOL0     H87154  11.249   8.094   9.945 -3.3652  1.1739  0.0725
  632MOL0     H87155  11.483   8.178   9.976  1.4054 -0.4785  1.0526
  632MOL0     H87156  11.441   8.208  10.154 -1.5347  3.9034 -1.8839
  632MOL0     H87157  11.417   7.939  10.020 -0.4713  3.8638 -1.4373
  632MOL0     H87158  11.412   7.966  10.195 -1.6116  2.3887  0.1064
  632MOL0     H87159  11.645   7.871  10.097  1.0832  0.9891  0.0502
  632MOL0     H87160  11.680   8.027  10.035 -0.6924  2.4127  1.1584
  632MOL0     H87161  11.629   8.128  10.247 -0.0742  0.4394 -0.4128
  632MOL0     H87162  11.788   8.049  10.223 -0.5830  1.1482 -1.6385
  632MOL0     H87163  11.688   8.012  10.449 -0.4515 -0.8233  1.7360
  632MOL0     H87164  11.572   7.906  10.371  0.9221  0.8026 -1.3379
  632MOL0     H87165  11.613   7.678  10.328 -0.0320  0.9160  2.6993
  632MOL0     H87166  11.766   7.480  10.142 -2.6396 -4.9468  1.5853
  632MOL0     H87167  11.762   7.449  10.316  1.1745 -1.3553  0.2466
  632MOL0     H87168  11.951   7.370  10.129 -0.0377 -1.6571  2.0139
  632MOL0     H87169  12.032   7.514  10.196  0.8583 -0.0961  1.0912
  632MOL0     H87170  12.028   7.427  10.425  0.8290  0.6865 -1.0249
  632MOL0     H87171  11.952   7.281  10.363 -1.3799  0.4940 -1.5779
  632MOL0     H87172  12.178   7.225  10.392  0.9164  0.7240 -0.4732
  632MOL0     H87173  12.137   7.235  10.225 -0.5796 -1.2049 -0.5764
  632MOL0     H87174  12.286   7.200  10.091 -0.8149  2.6341 -2.3014
  632MOL0     H87175  12.504   6.991   9.978  1.0541  0.1313 -0.0783
  632MOL0     H87176  12.550   7.122   9.861  0.4315  1.6856  0.6948
  632MOL0     H87177  12.385   7.106   9.922  0.4623  0.1723  0.7940
  632MOL0     H87178  12.848   7.115   9.842  2.9922  0.2703 -2.2174
  632MOL0     H87179  12.964   6.974   9.697  1.8128 -0.0166  0.2696
  632MOL0     H87180  13.193   6.655   9.886  2.5041 -0.3054 -0.9562
  632MOL0     H87181  13.051   6.560   9.848 -1.0038  0.3310 -1.1575
  632MOL0     H87182  13.242   6.448   9.740 -1.2719 -1.3814 -2.2880
  632MOL0     H87183  13.136   6.504   9.621 -1.2364  0.3491  0.3852
  632MOL0     H87184  13.413   6.542   9.619 -0.2163 -0.3273  0.4817
  632MOL0     H87185  13.372   6.656   9.745 -0.5088 -0.3568  0.1713
  632MOL0     H87186  13.250   6.794   9.597  2.2631  0.5132  2.2342
  632MOL0     H87187  13.245   6.673   9.465 -0.2188  1.5809 -1.4206
  632MOL0     H87188  13.499   6.693   9.471 -0.4572 -1.2576  3.6737
  632MOL0     H87189  13.420   6.829   9.393 -1.5574  1.1963 -0.7222
  632MOL0     H87190  13.509   6.830   9.695 -1.5202  2.1008  1.1612
  632MOL0     H87191  13.435   6.960   9.597 -0.7129  0.2310 -0.9240
  632MOL0     H87192  13.609   6.977   9.450  1.5952  1.8319  0.9781
  632MOL0     H87193  13.680   6.821   9.507 -1.5223 -1.5374  1.1877
  632MOL0     H87194  13.665   7.083   9.670 -0.6189 -0.2460 -0.1781
  632MOL0     H87195  13.802   7.038   9.570 -0.4173 -2.9479 -4.4927
  632MOL0     H87196  13.039   6.699  10.031 -1.2870  2.2269  3.5370
  632MOL0     H87197  12.897   6.824  10.160 -0.1646 -0.6508 -1.1025
  632MOL0     H87198  12.727   7.342  10.260 -0.3071 -0.3525  1.0850
  632MOL0     H87199  12.524   7.453  10.357 -0.5442 -1.2233  3.2493
  632MOL0     H87200  10.754   8.237  10.004  1.5826 -2.0330  3.0905
  632MOL0     H87201  10.566   8.405  10.081  0.3605  1.9340 -0.8998
  632MOL0     H87202  10.392   8.653  10.300  1.7006 -1.0069  0.9602
  632MOL0     H87203  10.206   8.778  10.347 -0.1323 -0.0207 -1.0521
  632MOL0     H87204  10.264   9.174  10.546 -2.1678 -2.2595  2.3633
  632MOL0     H87205  10.258   9.224  10.384 -0.2993  1.7102  2.6800
  632MOL0     H87206  10.069   9.336  10.512  1.3274  0.0209  0.9849
  632MOL0     H87207   9.998   9.179  10.542  0.7529  0.5486  0.8037
  632MOL0     H87208   9.929   9.338  10.353  0.2133  0.4271  1.9477
  632MOL0     H87209  10.061   9.241  10.262  0.3738 -0.1168  0.9002
  632MOL0     H87210   9.814   9.145  10.422 -0.9020  0.0558 -0.3179
  632MOL0     H87211   9.924   9.038  10.336 -1.4863 -0.4085 -1.1703
  632MOL0     H87212   9.711   9.148   9.996  0.4288  0.5657 -0.1452
  632MOL0     H87213  10.431   9.141  10.314 -0.1528  0.1640 -0.5526
  632MOL0     H87214  10.737   8.984  10.212 -0.8218 -1.1432  1.7508
  632MOL0     H87215  10.640   9.136  10.155 -4.0296  0.9406  0.9647
  632MOL0     H87216  10.684   9.112  10.314  3.4996 -1.3802 -1.0548
  633MOL0     O87217   9.504   0.069   2.066  0.6284  0.1208  0.0157
  633MOL0     C87218   9.594   0.146   2.016  1.1793 -0.1976  0.1184
  633MOL0     O87219   9.587   0.278   2.021 -0.3649 -0.7843  0.2241
  633MOL0     C87220   9.536   0.327   2.133  0.7911 -0.1522 -0.6482
  633MOL0     C87221   9.560   0.282   2.263  0.0538 -0.3729  0.1653
  633MOL0     C87222   9.513   0.354   2.374 -0.7976  0.0701 -0.1224
  633MOL0     C87223   9.438   0.471   2.367 -0.2146 -0.2551  0.2431
  633MOL0     O87224   9.382   0.537   2.477 -0.4409  0.3953  0.0680
  633MOL0     C87225   9.472   0.609   2.560  0.4013 -0.5152  0.3260
  633MOL0     C87226   9.384   0.649   2.671  0.3506 -0.0790 -1.2254
  633MOL0     C87227   9.476   0.734   2.767  0.3522  0.4914  1.1474
  633MOL0     C87228   9.395   0.833   2.844  0.2414  0.6820  1.0250
  633MOL0     C87229   9.478   0.903   2.958  0.4434  0.7532  0.2391
  633MOL0     C87230   9.394   0.988   3.055  0.2044 -0.0486  0.9033
  633MOL0     C87231   9.462   1.061   3.169  0.0825  0.0935  0.7683
  633MOL0     C87232   9.378   1.050   3.305 -0.4592 -0.3923 -0.3341
  633MOL0     N87233   9.440   1.143   3.406  0.4318  0.8355  0.1226
  633MOL0     C87234   9.548   1.119   3.484 -0.7537  0.4581 -0.4674
  633MOL0     C87235   9.569   1.231   3.559  0.5160 -1.2300 -0.4443
  633MOL0     C87236   9.682   1.251   3.658 -0.7071 -0.1834 -0.4814
  633MOL0     C87237   9.662   1.351   3.779 -0.2492 -0.5583  0.4891
  633MOL0     C87238   9.747   1.483   3.762  0.2957  0.2434  0.6411
  633MOL0     C87239   9.741   1.583   3.879 -0.0247 -0.0533  0.5838
  633MOL0     O87240   9.855   1.676   3.878  0.0217  0.6084 -0.3575
  633MOL0     C87241   9.859   1.773   3.975  0.4307 -0.3351  0.0083
  633MOL0     C87242   9.785   1.792   4.092 -0.0156  0.0427  0.3974
  633MOL0     C87243   9.796   1.904   4.162 -0.1806 -0.1129 -0.2371
  633MOL0     C87244   9.706   1.914   4.280  0.0352  0.3140  0.0153
  633MOL0     C87245   9.898   2.002   4.132 -0.4891 -0.4910  0.3611
  633MOL0     C87246   9.920   2.142   4.193 -0.7699 -0.6328  0.1239
  633MOL0     O87247  10.040   2.200   4.204  0.3176  0.2896 -0.4558
  633MOL0     C87248  10.059   2.319   4.278  0.2007  0.0336 -0.4949
  633MOL0     C87249  10.176   2.387   4.248 -0.0250 -0.3389 -0.6139
  633MOL0     C87250  10.200   2.514   4.314  0.2419 -0.1053  0.9427
  633MOL0     C87251  10.103   2.563   4.406 -0.1364 -0.9048 -0.3590
  633MOL0     O87252  10.119   2.685   4.471  0.6897 -0.3138 -0.0392
  633MOL0     C87253  10.227   2.682   4.561 -0.0982 -0.2239 -0.1786
  633MOL0     C87254  10.220   2.791   4.670 -0.0385 -0.7150 -0.4611
  633MOL0     C87255  10.085   2.778   4.746  0.0026  0.2631 -0.6031
  633MOL0     C87256  10.074   2.882   4.857 -0.2470  0.2631 -0.9109
  633MOL0     C87257   9.925   2.889   4.899 -0.2671  0.2684  0.4551
  633MOL0     C87258   9.892   3.013   4.984 -0.7174  0.3292 -0.7465
  633MOL0     C87259   9.740   3.026   5.017 -0.2444 -0.2246 -0.3130
  633MOL0     C87260   9.715   2.947   5.149 -1.1440 -0.1693  0.4200
  633MOL0    Cl87261   9.544   2.943   5.182  0.2495  0.3405  0.2526
  633MOL0     C87262   9.991   2.491   4.435  0.6339  0.2064 -1.2188
  633MOL0     C87263   9.971   2.362   4.374 -0.4219 -1.1934  0.0593
  633MOL0     O87264   9.816   2.206   4.202 -0.0138  1.0387  0.3468
  633MOL0     C87265   9.992   1.975   4.031  0.1318 -1.4265  0.4291
  633MOL0     C87266   9.963   1.863   3.950  0.5743 -0.1752 -0.0976
  633MOL0     N87267   9.471   1.326   3.531 -0.7134  0.5227 -0.2575
  633MOL0     N87268   9.395   1.266   3.442 -0.0150 -0.0088  0.4959
  633MOL0     C87269   9.404   0.505   2.236 -0.0614 -0.7072  0.2497
  633MOL0     C87270   9.454   0.441   2.121  0.2879 -1.2556 -0.8914
  633MOL0     C87271   9.689   0.089   1.906  0.4081  0.4648  0.1537
  633MOL0     C87272   9.777   0.179   1.856 -0.0777  1.0219 -0.3553
  633MOL0     C87273   9.872   0.138   1.762 -0.3018  0.0003 -0.6593
  633MOL0     C87274   9.872   0.012   1.707  0.0808  0.2281  0.8842
  633MOL0     O87275   9.974  -0.023   1.609  0.1453  0.1532 -0.4733
  633MOL0     C87276   9.988  -0.160   1.584  0.7478  0.0898  0.7605
  633MOL0     C87277  10.113  -0.183   1.502  0.6510  0.1349 -0.6251
  633MOL0     C87278  10.128  -0.095   1.378 -0.3153  0.5770  0.4809
  633MOL0     C87279  10.238   0.013   1.401  0.0298 -0.4762 -0.3225
  633MOL0     C87280  10.232   0.108   1.293 -0.4346 -0.5542  0.1589
  633MOL0     C87281  10.252   0.201   1.209  0.2855 -0.4187  0.1385
  633MOL0     C87282   9.785  -0.085   1.763  0.2687 -0.4476 -1.1314
  633MOL0     C87283   9.694  -0.043   1.859  0.1028  0.2562  0.2227
  633MOL0     C87284   9.596  -0.151   1.898 -0.5229  0.2095  1.3482
  633MOL0     H87285   9.618   0.195   2.292 -1.2343 -0.5392  2.5605
  633MOL0     H87286   9.545   0.310   2.468  1.5906  0.6379 -0.5848
  633MOL0     H87287   9.519   0.694   2.509 -0.6317  0.2797  0.6564
  633MOL0     H87288   9.549   0.536   2.590 -0.6670 -0.7571  2.7287
  633MOL0     H87289   9.298   0.706   2.636 -2.6128 -0.8103  3.8775
  633MOL0     H87290   9.338   0.563   2.720 -1.1097  2.1225  1.5138
  633MOL0     H87291   9.535   0.660   2.822  1.2704 -1.4709 -2.1857
  633MOL0     H87292   9.560   0.780   2.715 -0.3157  0.4981  0.0504
  633MOL0     H87293   9.363   0.909   2.773 -0.2204  0.2237  0.7365
  633MOL0     H87294   9.313   0.779   2.892  1.3676 -0.5787  1.5850
  633MOL0     H87295   9.558   0.970   2.927  1.8636  0.0955  2.2986
  633MOL0     H87296   9.519   0.825   3.023 -0.8323 -0.7836 -0.7282
  633MOL0     H87297   9.344   1.056   2.985  1.0423 -1.8001 -1.5513
  633MOL0     H87298   9.305   0.934   3.089  0.8455 -2.1431 -0.5603
  633MOL0     H87299   9.482   1.167   3.150  0.3510  0.3831  2.4597
  633MOL0     H87300   9.560   1.017   3.191  1.0793  2.4149  1.4003
  633MOL0     H87301   9.278   1.092   3.287 -0.4882 -0.1577  0.3418
  633MOL0     H87302   9.362   0.948   3.340  4.8714 -1.6812 -0.8853
  633MOL0     H87303   9.596   1.022   3.488  0.0320  0.7813 -1.5936
  633MOL0     H87304   9.764   1.292   3.600 -0.4628 -1.9036 -1.4270
  633MOL0     H87305   9.711   1.151   3.692 -0.1052 -0.3639 -1.4844
  633MOL0     H87306   9.556   1.376   3.783  0.1019  1.3922 -0.6896
  633MOL0     H87307   9.687   1.304   3.875 -3.5845 -0.1785  1.6693
  633MOL0     H87308   9.849   1.448   3.745  0.3030  0.6056 -0.0747
  633MOL0     H87309   9.721   1.531   3.667  1.1437 -0.7742 -0.1264
  633MOL0     H87310   9.643   1.631   3.871 -1.0255 -2.1750 -6.4850
  633MOL0     H87311   9.756   1.528   3.973 -0.9330 -0.4134  0.5232
  633MOL0     H87312   9.711   1.720   4.125 -0.7653  0.8135  0.4453
  633MOL0     H87313   9.637   1.998   4.270  0.5290  0.7432  0.1243
  633MOL0     H87314   9.774   1.936   4.363  0.1492 -0.7508  0.2142
  633MOL0     H87315   9.654   1.826   4.320  3.1367 -1.3056  0.8821
  633MOL0     H87316  10.248   2.342   4.181 -0.7664 -0.9640 -1.0079
  633MOL0     H87317  10.294   2.568   4.303  0.5549 -0.6061  1.1051
  633MOL0     H87318  10.236   2.582   4.603  1.2272  0.0748  0.2944
  633MOL0     H87319  10.322   2.691   4.508  0.6891  1.1828  1.3817
  633MOL0     H87320  10.302   2.762   4.737 -1.2828 -0.2556  1.3412
  633MOL0     H87321  10.234   2.893   4.634  1.9105 -0.0228  1.9835
  633MOL0     H87322  10.085   2.678   4.791  0.2794 -0.5315 -2.2628
  633MOL0     H87323   9.996   2.785   4.683  1.1655  1.7376 -2.1697
  633MOL0     H87324  10.119   2.979   4.831  3.6520  1.0110  6.0444
  633MOL0     H87325  10.141   2.855   4.939 -0.5322  1.9352 -0.0762
  633MOL0     H87326   9.872   2.903   4.805 -1.2094 -2.2670  0.5157
  633MOL0     H87327   9.893   2.795   4.946  2.1665 -0.1704  1.3682
  633MOL0     H87328   9.905   3.105   4.926 -0.8497 -0.5569 -2.2297
  633MOL0     H87329   9.963   3.006   5.066  0.1497  1.5767 -1.3686
  633MOL0     H87330   9.677   2.981   4.940 -0.1231 -0.6599 -0.1619
  633MOL0     H87331   9.707   3.129   5.035 -3.6902 -0.7550 -2.6261
  633MOL0     H87332   9.771   2.988   5.234  0.1934  0.1955 -0.5949
  633MOL0     H87333   9.751   2.845   5.137  0.7950  0.2067  2.4565
  633MOL0     H87334   9.924   2.535   4.508  1.1370 -0.4402 -0.3462
  633MOL0     H87335   9.874   2.326   4.407 -1.7280  1.2175 -0.8846
  633MOL0     H87336  10.063   2.054   4.007  0.2857 -1.7073 -0.0476
  633MOL0     H87337  10.020   1.833   3.864  4.0547 -0.2894  2.0704
  633MOL0     H87338   9.335   0.587   2.219  0.7524  0.0744  0.6623
  633MOL0     H87339   9.435   0.485   2.023 -0.3149  0.3682 -0.0952
  633MOL0     H87340   9.781   0.286   1.873  1.4942  1.0595 -0.7934
  633MOL0     H87341   9.932   0.213   1.713 -0.9464 -1.1049 -3.2989
  633MOL0     H87342   9.982  -0.217   1.677 -0.8843 -1.0911 -0.0056
  633MOL0     H87343   9.895  -0.194   1.536  0.5925 -0.4025  1.4010
  633MOL0     H87344  10.097  -0.288   1.474 -0.4559 -0.1061  0.7921
  633MOL0     H87345  10.196  -0.175   1.573 -1.6929  0.6828  2.2786
  633MOL0     H87346  10.139  -0.170   1.300 -0.8968 -0.0517  0.9901
  633MOL0     H87347  10.034  -0.043   1.358 -0.3326  0.4975  0.3590
  633MOL0     H87348  10.338  -0.031   1.401 -1.4268 -4.1783 -0.4626
  633MOL0     H87349  10.232   0.050   1.504 -2.1327 -2.3534  0.3209
  633MOL0     H87350  10.273   0.287   1.149  0.8655 -1.9132 -1.8795
  633MOL0     H87351   9.776  -0.188   1.730  0.6231 -0.5544 -0.9093
  633MOL0     H87352   9.499  -0.102   1.910  0.5693  3.0789 -0.4790
  633MOL0     H87353   9.592  -0.222   1.815  1.3635  2.8995 -1.2712
  633MOL0     H87354   9.621  -0.202   1.992 -0.4973  0.9373  1.7481
  634MOL0     O87355   3.257  10.267   5.421  0.7350 -0.0823  0.6099
  634MOL0     C87356   3.245  10.371   5.480 -0.0507  0.1390 -0.4735
  634MOL0     O87357   3.135  10.399   5.561  0.0911  0.1785 -0.3519
  634MOL0     C87358   3.020  10.338   5.531  0.5055 -0.3511 -0.3757
  634MOL0     C87359   2.936  10.278   5.630 -0.0028 -0.2867  0.3798
  634MOL0     C87360   2.801  10.240   5.592 -0.0891 -0.0589  0.7362
  634MOL0     C87361   2.760  10.233   5.459  0.3223 -0.1379  0.2009
  634MOL0     O87362   2.633  10.194   5.425 -0.0671 -0.4224  0.5272
  634MOL0     C87363   2.597  10.172   5.287  0.5110 -0.3029 -1.0878
  634MOL0     C87364   2.459  10.110   5.281  0.8459 -0.6653 -0.4979
  634MOL0     C87365   2.463   9.967   5.327  0.7176  0.6990 -0.0447
  634MOL0     C87366   2.346   9.890   5.267  0.7096  0.7123  0.1795
  634MOL0     C87367   2.320   9.762   5.349  0.7889  0.2670 -0.5151
  634MOL0     C87368   2.180   9.717   5.320  0.3075  0.0753  0.8013
  634MOL0     C87369   2.143   9.581   5.366 -0.3432  1.1045  0.1058
  634MOL0     C87370   1.997   9.560   5.356  0.5449 -0.0026  0.0962
  634MOL0     N87371   1.946   9.597   5.228  0.4185  0.1075  0.7296
  634MOL0     C87372   1.923   9.513   5.123  0.0394 -0.4939  1.9370
  634MOL0     C87373   1.852   9.580   5.029 -0.2409 -1.1734  0.6697
  634MOL0     C87374   1.812   9.548   4.889  0.2959 -0.3780  0.6537
  634MOL0     C87375   1.678   9.478   4.905  0.0988  0.7696  0.6944
  634MOL0     C87376   1.641   9.391   4.784 -1.2470 -0.4770 -0.2325
  634MOL0     C87377   1.493   9.380   4.756  0.0542 -0.2039 -1.8505
  634MOL0     O87378   1.421   9.311   4.862 -0.4015  0.5658 -0.6316
  634MOL0     C87379   1.299   9.251   4.842 -0.8979  0.5744 -0.5785
  634MOL0     C87380   1.252   9.161   4.940  0.6340  0.0513  0.0563
  634MOL0     C87381   1.134   9.086   4.916  0.2804  0.0085  0.8365
  634MOL0     C87382   1.093   9.005   5.033 -0.0291 -0.6628 -0.4083
  634MOL0     C87383   1.065   9.095   4.793  0.1994 -0.1135 -0.4013
  634MOL0     C87384   0.933   9.033   4.771  0.8124  0.4585  0.2339
  634MOL0     O87385   0.920   8.911   4.825  0.0910  0.7222 -0.3294
  634MOL0     C87386   0.812   8.831   4.798  1.5486 -1.0443  0.4872
  634MOL0     C87387   0.737   8.772   4.901 -0.6448  0.0586 -0.4200
  634MOL0     C87388   0.626   8.688   4.879  0.6680 -0.6271  1.0862
  634MOL0     C87389   0.592   8.654   4.753 -0.2439 -0.0015  0.2226
  634MOL0     O87390   0.488   8.567   4.748 -0.1210 -0.5758  0.2856
  634MOL0     C87391   0.407   8.585   4.626  0.5603  0.5948  1.0769
  634MOL0     C87392   0.325   8.463   4.626  0.0438  0.1159 -0.0155
  634MOL0     C87393   0.195   8.482   4.552 -0.7656  0.3610  0.3928
  634MOL0     C87394   0.101   8.370   4.600 -1.0456  0.6102 -0.9464
  634MOL0     C87395   0.143   8.226   4.567  0.5638 -0.3014  0.0491
  634MOL0     C87396   0.049   8.123   4.627 -0.1000 -0.0686 -0.8826
  634MOL0     C87397   0.044   7.999   4.543  0.4657  0.3622 -0.2432
  634MOL0     C87398  -0.056   7.889   4.595  0.0778  1.0374  0.6899
  634MOL0    Cl87399  -0.003   7.847   4.759  0.2498  0.0282  0.4873
  634MOL0     C87400   0.667   8.704   4.641  0.1716  0.0400 -0.0017
  634MOL0     C87401   0.770   8.803   4.665 -0.7150  0.8396 -0.2744
  634MOL0     O87402   0.841   9.106   4.733 -0.3482 -0.0240 -0.1818
  634MOL0     C87403   1.116   9.182   4.698 -0.5466 -0.1273  0.2536
  634MOL0     C87404   1.235   9.253   4.722  0.4442 -0.5279 -0.6340
  634MOL0     N87405   1.814   9.699   5.089  0.2605  0.2392 -0.2809
  634MOL0     N87406   1.881   9.715   5.200 -0.6201  0.6042  0.1756
  634MOL0     C87407   2.848  10.285   5.364  0.7157  0.3252  0.5050
  634MOL0     C87408   2.977  10.333   5.395 -0.4569 -0.7556 -0.1772
  634MOL0     C87409   3.345  10.480   5.460  0.0904 -0.3517 -0.7795
  634MOL0     C87410   3.300  10.614   5.469 -0.2851 -0.6382  0.3601
  634MOL0     C87411   3.379  10.727   5.432 -0.3373 -0.4088 -0.3466
  634MOL0     C87412   3.518  10.708   5.411  0.1544  0.6958  0.6845
  634MOL0     O87413   3.594  10.818   5.389  1.0815  0.0013  0.0260
  634MOL0     C87414   3.741  10.800   5.397  0.6911  0.5286 -0.2954
  634MOL0     C87415   3.807  10.934   5.382  0.2220 -0.2955 -0.7887
  634MOL0     C87416   3.956  10.917   5.380 -0.0697  0.8306  0.9084
  634MOL0     C87417   4.019  11.054   5.354 -0.0213  0.5579 -0.5490
  634MOL0     C87418   4.166  11.035   5.330  0.1260 -0.1180 -0.2514
  634MOL0     C87419   4.283  11.045   5.302 -0.0372  0.0671  0.3485
  634MOL0     C87420   3.564  10.569   5.410 -0.0256 -0.1878 -0.0447
  634MOL0     C87421   3.473  10.455   5.433 -1.1047  0.1450  0.1758
  634MOL0     C87422   3.530  10.322   5.423 -0.1666  0.2862 -0.8595
  634MOL0     H87423   2.962  10.280   5.736  3.2503 -4.6308 -0.0450
  634MOL0     H87424   2.722  10.224   5.665 -0.1048  1.6655  1.1593
  634MOL0     H87425   2.672  10.105   5.245  0.8055 -0.4101 -0.4013
  634MOL0     H87426   2.602  10.270   5.238  3.1674  1.6300  2.5542
  634MOL0     H87427   2.397  10.185   5.332  2.4641  1.3273 -1.3247
  634MOL0     H87428   2.421  10.117   5.178  1.2046  1.9545 -0.5258
  634MOL0     H87429   2.562   9.923   5.310 -0.2621 -1.7697  0.2052
  634MOL0     H87430   2.446   9.964   5.435  3.9271  0.9054  0.5425
  634MOL0     H87431   2.251   9.943   5.258 -2.5464 -4.7342 -5.0302
  634MOL0     H87432   2.367   9.857   5.165  0.3548 -0.9591  0.6251
  634MOL0     H87433   2.321   9.776   5.457 -2.8014 -0.3976 -0.2638
  634MOL0     H87434   2.391   9.683   5.324  0.9686  0.3836 -0.3757
  634MOL0     H87435   2.118   9.790   5.372  0.2324  0.9366 -0.4501
  634MOL0     H87436   2.165   9.718   5.211 -2.1670  1.4842  1.0846
  634MOL0     H87437   2.173   9.558   5.469 -0.0040 -1.8898 -0.5873
  634MOL0     H87438   2.199   9.523   5.292 -0.8126  3.7851 -2.5615
  634MOL0     H87439   1.973   9.455   5.375 -3.1493  0.9592  1.5421
  634MOL0     H87440   1.953   9.620   5.436  1.2383  1.5413 -0.6313
  634MOL0     H87441   1.977   9.419   5.112  3.6944  1.6501 -0.7662
  634MOL0     H87442   1.884   9.484   4.837 -0.1256 -0.8081  0.5818
  634MOL0     H87443   1.806   9.643   4.835  2.0296 -1.5798 -1.8593
  634MOL0     H87444   1.672   9.422   4.999 -1.3644  2.1807  1.4854
  634MOL0     H87445   1.602   9.555   4.918  0.2573  1.2700 -1.0164
  634MOL0     H87446   1.685   9.439   4.696  1.0358 -0.4707  0.8534
  634MOL0     H87447   1.690   9.293   4.780 -2.0873 -0.8759 -2.3661
  634MOL0     H87448   1.445   9.477   4.737 -1.6813 -0.9778 -1.6337
  634MOL0     H87449   1.492   9.315   4.667  2.4323 -1.2419 -1.1748
  634MOL0     H87450   1.297   9.145   5.037 -0.7055 -2.7191  0.3061
  634MOL0     H87451   0.993   9.034   5.067  0.8909  1.6039  0.5574
  634MOL0     H87452   1.166   9.015   5.114 -1.3682 -1.1056  0.9039
  634MOL0     H87453   1.104   8.899   5.006 -1.5287 -1.1667  0.7725
  634MOL0     H87454   0.776   8.788   5.001 -1.0331  1.2366 -0.4379
  634MOL0     H87455   0.568   8.639   4.957 -0.6638 -0.9349 -0.0680
  634MOL0     H87456   0.344   8.669   4.656 -0.1766 -0.1142  1.5817
  634MOL0     H87457   0.452   8.592   4.527  0.7999  1.1153  1.2178
  634MOL0     H87458   0.387   8.393   4.571  1.9949  0.7019  1.3333
  634MOL0     H87459   0.301   8.431   4.728 -1.4686  0.5814 -0.1992
  634MOL0     H87460   0.218   8.474   4.445 -2.5564 -1.2284  0.0770
  634MOL0     H87461   0.162   8.585   4.569 -1.3449  0.2230  0.1264
  634MOL0     H87462   0.004   8.392   4.555 -1.0156  3.2073  0.0640
  634MOL0     H87463   0.093   8.380   4.709  0.8246  0.4321 -0.7439
  634MOL0     H87464   0.153   8.211   4.459  0.5186  1.9188 -0.3092
  634MOL0     H87465   0.248   8.210   4.593  0.4045 -0.6957  0.4593
  634MOL0     H87466  -0.050   8.169   4.635 -2.5194 -4.7646 -0.8732
  634MOL0     H87467   0.085   8.092   4.725  0.3587 -2.9204 -1.8589
  634MOL0     H87468   0.148   7.963   4.546  0.1190 -0.6420  3.5027
  634MOL0     H87469   0.030   8.030   4.439  1.2213 -0.7244 -0.6878
  634MOL0     H87470  -0.055   7.804   4.527 -0.8270 -0.2843  2.2635
  634MOL0     H87471  -0.161   7.919   4.600 -0.1299  0.7522 -1.0772
  634MOL0     H87472   0.643   8.676   4.539 -2.3219 -0.4645  0.6633
  634MOL0     H87473   0.830   8.841   4.583  2.0738 -0.9937  0.7688
  634MOL0     H87474   1.072   9.190   4.599 -2.2272 -1.5319  0.8368
  634MOL0     H87475   1.270   9.317   4.642 -0.7284 -0.4378 -1.0945
  634MOL0     H87476   2.820  10.292   5.260 -2.2884  1.7983  1.2825
  634MOL0     H87477   3.047  10.380   5.327 -0.8718  2.8245  1.6739
  634MOL0     H87478   3.196  10.642   5.479 -0.2650 -0.1995 -0.5244
  634MOL0     H87479   3.342  10.829   5.427  0.3696 -0.1541 -0.4431
  634MOL0     H87480   3.765  10.762   5.496  2.0802 -0.8540 -1.1136
  634MOL0     H87481   3.777  10.735   5.316 -0.6710  0.3531 -0.7860
  634MOL0     H87482   3.775  11.008   5.456 -0.2227 -0.0788 -1.1888
  634MOL0     H87483   3.762  10.977   5.292 -1.2850 -0.3156 -0.0692
  634MOL0     H87484   3.996  10.859   5.464  2.3264 -0.3816 -0.9523
  634MOL0     H87485   3.984  10.858   5.292 -0.6319 -0.4010  1.5322
  634MOL0     H87486   4.007  11.130   5.432 -3.6957 -0.4262  0.0292
  634MOL0     H87487   3.966  11.087   5.264 -2.0265 -4.3148 -1.4685
  634MOL0     H87488   4.384  11.077   5.287 -0.1571 -0.2562 -1.3658
  634MOL0     H87489   3.671  10.546   5.412  0.0395  0.0994 -0.1728
  634MOL0     H87490   3.640  10.327   5.423 -0.0099 -0.3799  2.8721
  634MOL0     H87491   3.499  10.268   5.513 -0.8817  2.6608  0.3954
  634MOL0     H87492   3.490  10.261   5.341  2.5148  0.1570 -2.1853
  635MOL0     O87493   0.879   6.692   6.855 -0.2298  0.3750  0.4219
  635MOL0     C87494   0.867   6.645   6.964 -0.7853 -0.6977 -0.3839
  635MOL0     O87495   0.838   6.513   6.988  0.3851 -0.1481 -0.2064
  635MOL0     C87496   0.780   6.435   6.885 -0.4840 -0.5814  0.5425
  635MOL0     C87497   0.668   6.361   6.916  0.4569  0.6581  0.1423
  635MOL0     C87498   0.608   6.281   6.818  0.3338  0.0324 -0.4077
  635MOL0     C87499   0.667   6.260   6.693 -0.3062 -0.6222  0.4062
  635MOL0     O87500   0.612   6.180   6.601  0.2054 -0.0910 -0.3479
  635MOL0     C87501   0.700   6.109   6.509  0.5113 -1.0498 -0.1980
  635MOL0     C87502   0.681   6.153   6.369 -1.1649 -0.1620  0.4325
  635MOL0     C87503   0.780   6.076   6.289  0.1862  0.2578  0.2622
  635MOL0     C87504   0.768   6.117   6.135 -0.4515 -0.4071  0.1349
  635MOL0     C87505   0.660   6.035   6.060  0.7548  0.6749  0.2132
  635MOL0     C87506   0.640   6.082   5.911  0.0709 -0.8586 -0.5484
  635MOL0     C87507   0.606   6.226   5.901  0.2001  0.3473  0.0891
  635MOL0     C87508   0.542   6.250   5.765 -0.4525  1.2417 -0.3764
  635MOL0     N87509   0.641   6.220   5.656 -0.7337  0.7809  0.2828
  635MOL0     C87510   0.707   6.300   5.570 -0.2188 -0.3428 -0.2997
  635MOL0     C87511   0.787   6.210   5.498  0.7263  0.9392  0.0772
  635MOL0     C87512   0.876   6.242   5.383 -0.6746 -0.4488  0.4308
  635MOL0     C87513   0.801   6.223   5.253  0.5478  0.8676  0.4692
  635MOL0     C87514   0.889   6.228   5.129 -0.0046 -0.8292  0.2520
  635MOL0     C87515   0.820   6.165   5.010 -0.5096 -0.5336 -0.5260
  635MOL0     O87516   0.696   6.237   4.979 -0.3727  0.4377 -0.4468
  635MOL0     C87517   0.592   6.177   4.919 -0.0605 -0.5449 -0.1045
  635MOL0     C87518   0.482   6.261   4.900  0.5022  0.0486 -0.3203
  635MOL0     C87519   0.372   6.222   4.820  0.1580  0.5593  0.6296
  635MOL0     C87520   0.263   6.325   4.788 -0.7256 -0.1540 -0.2523
  635MOL0     C87521   0.361   6.086   4.776 -0.0238  0.1054  0.0053
  635MOL0     C87522   0.242   6.023   4.711 -0.2005 -0.0513  0.2967
  635MOL0     O87523   0.121   6.082   4.737 -0.2480 -0.4609 -0.3179
  635MOL0     C87524   0.011   6.044   4.662  0.3198  0.5102 -0.1132
  635MOL0     C87525  -0.054   5.925   4.702 -1.4020  0.5438 -0.0367
  635MOL0     C87526  -0.150   5.877   4.610  0.1824  1.5343 -0.2680
  635MOL0     C87527  -0.200   5.942   4.498  0.1074 -0.0349 -0.3112
  635MOL0     O87528  -0.302   5.883   4.433  0.3074 -0.3303  0.1074
  635MOL0     C87529  -0.412   5.970   4.409 -0.0705 -0.6242 -0.3009
  635MOL0     C87530  -0.537   5.889   4.411 -0.1391 -0.7259  1.1081
  635MOL0     C87531  -0.666   5.985   4.395 -0.1606  0.3183  0.1135
  635MOL0     C87532  -0.799   5.888   4.385 -0.2137 -0.5810  0.9530
  635MOL0     C87533  -0.923   5.979   4.392 -0.3433  0.2036 -0.8049
  635MOL0     C87534  -1.055   5.894   4.401 -0.3164 -0.2116  0.2324
  635MOL0     C87535  -1.174   5.963   4.333 -0.1461  0.1480  0.5012
  635MOL0     C87536  -1.218   6.098   4.381  1.0437 -0.0575 -0.3234
  635MOL0    Cl87537  -1.271   6.084   4.554  0.1724  0.3035  0.1978
  635MOL0     C87538  -0.131   6.062   4.466  0.0597 -0.1251 -1.1045
  635MOL0     C87539  -0.023   6.116   4.538 -0.4952 -0.4997  0.6656
  635MOL0     O87540   0.258   5.917   4.657  0.4955  0.0941  0.7777
  635MOL0     C87541   0.472   6.001   4.800 -0.0025 -0.4449 -0.0080
  635MOL0     C87542   0.590   6.046   4.873  0.1369  0.5832  0.3568
  635MOL0     N87543   0.758   6.085   5.534 -0.8826  0.7925 -0.4515
  635MOL0     N87544   0.669   6.085   5.626 -0.3081  0.4365  0.3514
  635MOL0     C87545   0.783   6.337   6.661  0.0915 -0.0916 -0.9036
  635MOL0     C87546   0.845   6.415   6.756  0.7936  0.0188  0.7334
  635MOL0     C87547   0.857   6.744   7.071  0.1402 -0.3174  0.3006
  635MOL0     C87548   0.824   6.882   7.038 -0.4554  0.2584  0.2997
  635MOL0     C87549   0.805   6.984   7.129  0.6779  0.7952  0.8439
  635MOL0     C87550   0.831   6.958   7.261 -0.1748  0.1356  0.3705
  635MOL0     O87551   0.798   7.051   7.356 -0.2824 -0.3649 -0.3888
  635MOL0     C87552   0.880   7.173   7.372  0.3076  0.4267 -0.1659
  635MOL0     C87553   0.882   7.262   7.245  0.5307 -0.0234 -0.8206
  635MOL0     C87554   0.941   7.401   7.263  1.1974 -0.7286  0.2461
  635MOL0     C87555   1.060   7.435   7.155 -1.2209  0.2301 -0.0926
  635MOL0     C87556   1.003   7.458   7.028 -0.4125  0.6958  0.4997
  635MOL0     C87557   0.954   7.469   6.923 -0.0117 -0.5884  0.5079
  635MOL0     C87558   0.881   6.831   7.301  0.0652  0.4053 -0.3696
  635MOL0     C87559   0.898   6.724   7.208  1.1373  0.3741  0.1338
  635MOL0     C87560   0.970   6.598   7.247  0.5403  0.0472 -0.7454
  635MOL0     H87561   0.630   6.375   7.017  5.6476  1.1594  2.3591
  635MOL0     H87562   0.514   6.238   6.853  0.4685 -1.2699 -1.5634
  635MOL0     H87563   0.688   6.004   6.537 -1.8067 -0.7834 -0.0005
  635MOL0     H87564   0.807   6.122   6.531  0.3458 -0.9812  0.5946
  635MOL0     H87565   0.577   6.129   6.343 -1.0013 -0.5477  0.1225
  635MOL0     H87566   0.697   6.260   6.361  1.1094 -0.5437 -1.0140
  635MOL0     H87567   0.882   6.095   6.325 -0.4194  2.4197  0.9193
  635MOL0     H87568   0.748   5.972   6.299 -0.4713  0.5799  1.7895
  635MOL0     H87569   0.731   6.220   6.130 -0.9291 -0.2954  3.6731
  635MOL0     H87570   0.867   6.094   6.095  0.3512 -0.2594  1.9564
  635MOL0     H87571   0.561   6.035   6.107  1.2653  0.0403  1.3465
  635MOL0     H87572   0.693   5.930   6.057  1.8967  1.0488 -0.6874
  635MOL0     H87573   0.735   6.050   5.866  0.8509 -1.8518  1.6192
  635MOL0     H87574   0.558   6.021   5.871  0.7872 -0.6049 -2.5155
  635MOL0     H87575   0.692   6.288   5.925  0.4491 -0.0628  0.2768
  635MOL0     H87576   0.544   6.252   5.988  0.0053 -0.8796  0.3465
  635MOL0     H87577   0.462   6.180   5.739  1.2406 -0.1660 -2.0545
  635MOL0     H87578   0.500   6.351   5.765 -1.1909  0.9659  1.2742
  635MOL0     H87579   0.691   6.405   5.551  1.3020  0.2256  1.2858
  635MOL0     H87580   0.972   6.192   5.383 -0.2233  0.3013 -1.4272
  635MOL0     H87581   0.905   6.348   5.384  2.4448 -1.2046 -0.6388
  635MOL0     H87582   0.764   6.120   5.251 -1.6234  1.6000  0.1262
  635MOL0     H87583   0.716   6.290   5.242  1.0301  1.6787  1.5265
  635MOL0     H87584   0.918   6.330   5.100 -0.1828 -0.4868  1.2559
  635MOL0     H87585   0.987   6.182   5.148  1.0511  0.9427 -0.6432
  635MOL0     H87586   0.884   6.170   4.921  0.6499 -0.0232  0.3022
  635MOL0     H87587   0.801   6.059   5.028  0.5278 -0.9221 -1.6216
  635MOL0     H87588   0.489   6.361   4.942 -1.3407  0.5256 -1.0821
  635MOL0     H87589   0.231   6.321   4.683 -2.2501 -1.9721  0.2313
  635MOL0     H87590   0.311   6.421   4.811  1.1045 -1.0728 -0.0496
  635MOL0     H87591   0.177   6.321   4.855 -1.4592 -0.6035 -1.1905
  635MOL0     H87592  -0.020   5.883   4.795 -2.1592  1.7017  0.7893
  635MOL0     H87593  -0.204   5.790   4.648  0.6321  0.6085 -1.6708
  635MOL0     H87594  -0.424   6.053   4.478  0.9252 -0.9603  0.3020
  635MOL0     H87595  -0.399   6.014   4.309 -2.6424 -0.5127 -0.6461
  635MOL0     H87596  -0.530   5.806   4.340  0.5462 -1.3351  1.8692
  635MOL0     H87597  -0.533   5.846   4.511  1.9348 -2.1222  0.4843
  635MOL0     H87598  -0.659   6.046   4.304  2.2557 -0.5473 -0.3615
  635MOL0     H87599  -0.681   6.056   4.476 -1.4148  1.0497 -0.7392
  635MOL0     H87600  -0.821   5.826   4.473 -2.1630  0.7228  1.4510
  635MOL0     H87601  -0.792   5.822   4.298  3.9124 -1.0746  1.4977
  635MOL0     H87602  -0.917   6.055   4.471  1.5957  1.3524 -1.9587
  635MOL0     H87603  -0.931   6.029   4.294 -1.6080 -1.1655 -1.4345
  635MOL0     H87604  -1.076   5.870   4.506  2.1359  0.3600  0.9195
  635MOL0     H87605  -1.036   5.798   4.352 -0.2556 -0.3690  0.5606
  635MOL0     H87606  -1.260   5.896   4.339 -2.0323  2.4691  1.4306
  635MOL0     H87607  -1.147   5.974   4.228  1.5393  0.5409  0.9572
  635MOL0     H87608  -1.295   6.144   4.317 -0.7865 -1.0920  1.0329
  635MOL0     H87609  -1.130   6.163   4.376 -0.0550  1.5980  0.8924
  635MOL0     H87610  -0.151   6.106   4.370 -0.3852  2.6967  0.1930
  635MOL0     H87611   0.019   6.211   4.508 -0.4329 -1.3884 -2.2978
  635MOL0     H87612   0.465   5.896   4.773  1.8003 -1.2454  2.3701
  635MOL0     H87613   0.677   5.981   4.872 -0.3167 -0.0725 -1.8223
  635MOL0     H87614   0.816   6.353   6.559 -0.6710 -1.8576 -1.4629
  635MOL0     H87615   0.933   6.471   6.725 -0.8761  1.2266 -2.2290
  635MOL0     H87616   0.794   6.905   6.936  2.5540  0.9295 -0.5454
  635MOL0     H87617   0.764   7.079   7.096 -0.3118  0.1691  0.2283
  635MOL0     H87618   0.829   7.223   7.454 -1.3096 -1.4322  0.0493
  635MOL0     H87619   0.980   7.144   7.407  0.6641  1.8575  0.0344
  635MOL0     H87620   0.781   7.294   7.217  0.0857 -1.2808 -0.7333
  635MOL0     H87621   0.939   7.211   7.166  1.1964 -0.8457  0.1703
  635MOL0     H87622   0.875   7.488   7.257  2.5354  0.3882  1.2582
  635MOL0     H87623   0.972   7.408   7.367 -1.9416  2.4363  1.1607
  635MOL0     H87624   1.149   7.374   7.176 -2.3315 -0.3108  4.0941
  635MOL0     H87625   1.101   7.531   7.187 -1.1101 -0.4178  1.8410
  635MOL0     H87626   0.906   7.475   6.828 -0.7415  1.5045  0.9547
  635MOL0     H87627   0.896   6.812   7.406  0.6777  0.9047 -0.3620
  635MOL0     H87628   1.025   6.561   7.160  0.1445 -1.4217 -0.4007
  635MOL0     H87629   1.030   6.617   7.336 -2.5673  2.1622  1.1108
  635MOL0     H87630   0.898   6.523   7.282 -0.1723 -0.0036 -2.2209
  636MOL0     O87631   4.364   9.927   9.185  0.0966  0.0698 -0.0048
  636MOL0     C87632   4.367   9.881   9.299  0.3223  0.4386 -0.7517
  636MOL0     O87633   4.454   9.909   9.398 -0.5634 -0.0770  0.4260
  636MOL0     C87634   4.576   9.961   9.356 -0.0816 -0.8296  0.8587
  636MOL0     C87635   4.660   9.881   9.274 -0.2841 -0.4514 -0.1400
  636MOL0     C87636   4.792   9.919   9.244  0.0446 -0.2630 -0.0003
  636MOL0     C87637   4.851  10.032   9.299 -0.1864 -0.3600 -0.1261
  636MOL0     O87638   4.973  10.077   9.259  0.2648 -0.0342 -0.0226
  636MOL0     C87639   5.008  10.216   9.269 -0.3738 -0.0864 -0.4686
  636MOL0     C87640   5.129  10.249   9.189  0.1050 -0.8643  0.1678
  636MOL0     C87641   5.180  10.404   9.207 -0.9238 -0.1985 -0.4602
  636MOL0     C87642   5.303  10.438   9.132 -0.4700  0.9936  0.3396
  636MOL0     C87643   5.292  10.578   9.073  0.6716  0.3293  0.6489
  636MOL0     C87644   5.260  10.578   8.923  0.5311 -0.0298  0.7893
  636MOL0     C87645   5.113  10.534   8.889 -0.5084  0.3366  0.6977
  636MOL0     C87646   5.083  10.572   8.741  0.9857 -0.4509  0.1561
  636MOL0     N87647   5.154  10.486   8.643  0.2528  0.3755  0.1401
  636MOL0     C87648   5.090  10.382   8.586  0.2396  0.4427 -0.4024
  636MOL0     C87649   5.182  10.329   8.499  1.1947  0.1495 -0.0634
  636MOL0     C87650   5.147  10.221   8.394 -0.0975  0.3431  0.0154
  636MOL0     C87651   5.256  10.128   8.352 -0.1782  0.0101  0.8590
  636MOL0     C87652   5.217  10.028   8.244 -0.2744  1.4639  0.5373
  636MOL0     C87653   5.343   9.955   8.199 -0.1121 -0.9815  0.0172
  636MOL0     O87654   5.306   9.826   8.152 -0.6446  1.4781  0.0046
  636MOL0     C87655   5.409   9.737   8.114  0.1970  0.5605  0.0252
  636MOL0     C87656   5.537   9.773   8.076 -0.3958  0.7348  0.5222
  636MOL0     C87657   5.622   9.667   8.036 -0.7058 -0.1687 -0.1072
  636MOL0     C87658   5.762   9.722   7.999  0.8018 -0.3337  0.6849
  636MOL0     C87659   5.592   9.529   8.038  1.0003  0.7131  0.5438
  636MOL0     C87660   5.677   9.417   7.986  0.1756 -0.3167 -0.4861
  636MOL0     O87661   5.608   9.316   7.935 -0.1286 -0.7082  0.7418
  636MOL0     C87662   5.661   9.234   7.838 -1.0709 -0.5879  0.4003
  636MOL0     C87663   5.749   9.269   7.741  0.0874 -0.4913  0.0201
  636MOL0     C87664   5.796   9.167   7.652  0.3810 -0.4839  0.4535
  636MOL0     C87665   5.732   9.036   7.646 -0.0597 -0.6631 -0.6722
  636MOL0     O87666   5.757   8.939   7.560  0.2932  0.9094  0.6616
  636MOL0     C87667   5.845   8.828   7.600 -0.8419 -0.1376 -0.5532
  636MOL0     C87668   5.830   8.706   7.513 -0.3661 -0.8328  1.3022
  636MOL0     C87669   5.691   8.660   7.496 -0.1156 -0.1351 -0.0082
  636MOL0     C87670   5.642   8.611   7.629  0.1004 -0.6997  0.1281
  636MOL0     C87671   5.505   8.549   7.604 -0.0674 -0.1327 -0.5334
  636MOL0     C87672   5.437   8.486   7.725 -0.2457 -0.0844 -0.4526
  636MOL0     C87673   5.525   8.375   7.775 -0.3740  0.4879 -0.2150
  636MOL0     C87674   5.449   8.303   7.881  0.9506  0.7165  0.2451
  636MOL0    Cl87675   5.545   8.163   7.940  0.1210 -0.1435  0.1400
  636MOL0     C87676   5.646   9.007   7.756 -0.1191 -0.7740  0.3556
  636MOL0     C87677   5.615   9.107   7.842  0.3716  0.1514 -0.4043
  636MOL0     O87678   5.802   9.416   8.003  0.4071  1.0237  0.5224
  636MOL0     C87679   5.467   9.501   8.079 -0.0765  0.8948  0.0257
  636MOL0     C87680   5.379   9.606   8.115 -0.6298  0.7545 -0.6487
  636MOL0     N87681   5.300  10.393   8.516  0.1323 -0.2237 -0.7572
  636MOL0     N87682   5.290  10.483   8.615 -0.5436 -0.0350  0.9611
  636MOL0     C87683   4.764  10.119   9.380 -0.4053  0.3012  0.1159
  636MOL0     C87684   4.633  10.084   9.409 -0.0653  0.2901 -0.1737
  636MOL0     C87685   4.275   9.769   9.345 -0.5132 -0.4149  0.0415
  636MOL0     C87686   4.332   9.678   9.440 -0.2206  0.0839  0.0538
  636MOL0     C87687   4.243   9.576   9.481 -0.0847 -0.7174  0.1823
  636MOL0     C87688   4.122   9.555   9.434  0.1275  0.3088  1.1075
  636MOL0     O87689   4.056   9.450   9.492  0.2111  0.2449 -0.1501
  636MOL0     C87690   3.968   9.359   9.421  0.8799  0.2577  0.2531
  636MOL0     C87691   3.815   9.395   9.419  0.7475  0.2453  0.5150
  636MOL0     C87692   3.757   9.437   9.555 -0.0197  0.3203  0.6830
  636MOL0     C87693   3.676   9.573   9.541  0.9907  0.3219 -1.2900
  636MOL0     C87694   3.598   9.589   9.667 -0.3399 -0.9688 -0.3995
  636MOL0     C87695   3.531   9.586   9.774  0.4165 -0.2849 -0.7994
  636MOL0     C87696   4.068   9.635   9.340 -0.1059 -0.0820 -0.4924
  636MOL0     C87697   4.144   9.747   9.289 -0.6351 -0.1390  0.1001
  636MOL0     C87698   4.088   9.844   9.197 -0.4624 -0.4365  0.2276
  636MOL0     H87699   4.623   9.786   9.238  0.3589 -1.1498  0.9660
  636MOL0     H87700   4.847   9.846   9.184 -0.8110  0.3471 -1.5699
  636MOL0     H87701   5.015  10.246   9.374  2.4734 -0.8825 -0.3442
  636MOL0     H87702   4.920  10.274   9.242  0.8987  1.5168 -1.3189
  636MOL0     H87703   5.204  10.174   9.215 -0.4418 -1.8784 -1.0580
  636MOL0     H87704   5.098  10.232   9.085  2.2949 -1.9236 -0.3821
  636MOL0     H87705   5.099  10.462   9.161 -0.0010 -0.9923 -3.3157
  636MOL0     H87706   5.184  10.431   9.313 -1.3845  0.5710 -0.6300
  636MOL0     H87707   5.393  10.438   9.195 -0.7178  1.2611  0.6960
  636MOL0     H87708   5.317  10.366   9.052  2.1905  1.9111 -0.1296
  636MOL0     H87709   5.387  10.633   9.077  0.4329  0.8250 -0.1321
  636MOL0     H87710   5.225  10.645   9.128 -0.2735 -1.2439  1.4592
  636MOL0     H87711   5.276  10.681   8.890 -1.4423  1.1026  3.0250
  636MOL0     H87712   5.316  10.502   8.868  2.5721  2.4394 -0.8203
  636MOL0     H87713   5.036  10.579   8.951 -0.4834  0.4826  0.6227
  636MOL0     H87714   5.096  10.426   8.904  1.8829 -0.1418  0.3987
  636MOL0     H87715   4.975  10.557   8.726  1.0415  1.1207 -2.4790
  636MOL0     H87716   5.110  10.678   8.731 -2.4811  0.4301 -2.0204
  636MOL0     H87717   4.990  10.341   8.599  0.7686 -0.8005 -0.1294
  636MOL0     H87718   5.120  10.275   8.303  0.7789 -2.7893 -2.3151
  636MOL0     H87719   5.061  10.161   8.424 -0.0556  0.6457  0.7618
  636MOL0     H87720   5.333  10.196   8.315 -0.0323  1.1113  3.0097
  636MOL0     H87721   5.295  10.070   8.436  1.7193  0.1518  0.1319
  636MOL0     H87722   5.155   9.957   8.300 -0.8759  0.6897 -1.0592
  636MOL0     H87723   5.162  10.067   8.158 -1.6621 -0.4371  0.4910
  636MOL0     H87724   5.397  10.021   8.130 -1.2376  1.4021  1.3225
  636MOL0     H87725   5.419   9.951   8.277  0.4932  0.4352 -0.4545
  636MOL0     H87726   5.563   9.876   8.054  1.7362  0.0157 -0.6167
  636MOL0     H87727   5.782   9.692   7.896 -3.0316  2.2393 -1.0575
  636MOL0     H87728   5.839   9.687   8.069  0.8484 -0.5935  0.5058
  636MOL0     H87729   5.760   9.831   7.996 -2.5525 -0.2988 -0.6615
  636MOL0     H87730   5.789   9.369   7.731 -1.3209  0.0280 -0.7393
  636MOL0     H87731   5.873   9.202   7.585 -0.6661  2.8798  0.8233
  636MOL0     H87732   5.952   8.850   7.593 -0.3452 -2.2075 -0.1976
  636MOL0     H87733   5.818   8.807   7.704 -1.6588 -0.5042 -0.8320
  636MOL0     H87734   5.865   8.729   7.411 -1.8608 -1.1526  0.6889
  636MOL0     H87735   5.893   8.620   7.539  2.5687 -0.6246 -3.6805
  636MOL0     H87736   5.700   8.576   7.426 -0.2155  0.8289 -1.2157
  636MOL0     H87737   5.627   8.740   7.459  0.2641  0.8707  1.4442
  636MOL0     H87738   5.631   8.695   7.697  2.4802  1.3865 -1.8664
  636MOL0     H87739   5.711   8.537   7.671  2.3331  1.1775 -0.0330
  636MOL0     H87740   5.428   8.623   7.580 -3.0600 -3.1071 -0.9597
  636MOL0     H87741   5.507   8.475   7.523 -1.9940 -0.9510  0.0957
  636MOL0     H87742   5.339   8.445   7.700 -0.2881 -2.1018  2.4541
  636MOL0     H87743   5.419   8.568   7.795 -0.5282  0.0100 -0.6375
  636MOL0     H87744   5.620   8.407   7.818 -0.8145  0.1695  1.0257
  636MOL0     H87745   5.560   8.316   7.689  0.2521  2.2964 -1.2618
  636MOL0     H87746   5.357   8.254   7.846  0.9104 -0.7965  2.2911
  636MOL0     H87747   5.429   8.359   7.973  2.0572 -1.3942  1.8674
  636MOL0     H87748   5.604   8.911   7.782  0.4148 -1.0378  0.2671
  636MOL0     H87749   5.562   9.079   7.932  0.8625  0.6763  0.0589
  636MOL0     H87750   5.439   9.398   8.096 -1.6757  1.3767  0.4186
  636MOL0     H87751   5.276   9.580   8.139  0.1550 -1.0999  0.9680
  636MOL0     H87752   4.802  10.214   9.418 -1.6279  0.9158 -0.1638
  636MOL0     H87753   4.579  10.158   9.468 -0.1335 -0.3475  0.5869
  636MOL0     H87754   4.434   9.688   9.474  0.2572  1.9475 -1.7005
  636MOL0     H87755   4.272   9.507   9.559 -0.7370 -1.1315  0.0646
  636MOL0     H87756   4.010   9.352   9.320 -1.6245  1.6848 -0.9773
  636MOL0     H87757   3.986   9.261   9.468 -0.9106  0.8786  2.3920
  636MOL0     H87758   3.763   9.308   9.377  1.1967  0.6445 -0.9082
  636MOL0     H87759   3.801   9.475   9.346  0.0451  1.7553  2.2301
  636MOL0     H87760   3.701   9.354   9.599 -0.5595  0.7377  0.7864
  636MOL0     H87761   3.834   9.451   9.631 -0.1700  0.1482  0.8665
  636MOL0     H87762   3.605   9.573   9.458 -3.0973 -0.3982  1.8550
  636MOL0     H87763   3.726   9.668   9.520 -0.9538  1.0912 -2.7382
  636MOL0     H87764   3.490   9.589   9.873  2.4432 -2.0957  0.1592
  636MOL0     H87765   3.968   9.609   9.305 -0.0421 -1.2367  0.1452
  636MOL0     H87766   4.144   9.852   9.103  0.2015  0.1659  0.6686
  636MOL0     H87767   3.981   9.827   9.180 -0.2189 -1.6706 -0.1277
  636MOL0     H87768   4.102   9.939   9.249  3.0061 -1.6263  1.7656
  637MOL0     O87769   6.659   6.864   5.320  0.0037 -0.1484 -0.6997
  637MOL0     C87770   6.662   6.742   5.333  0.3702 -0.6540  0.3772
  637MOL0     O87771   6.761   6.672   5.269 -0.0993 -0.1601 -0.4997
  637MOL0     C87772   6.871   6.729   5.211 -0.4764 -0.4266 -0.2725
  637MOL0     C87773   6.996   6.718   5.278  0.0736  0.4023 -0.9273
  637MOL0     C87774   7.113   6.757   5.221  0.0025 -0.4978  0.6300
  637MOL0     C87775   7.106   6.793   5.088 -0.4558  0.5413  0.3839
  637MOL0     O87776   7.218   6.834   5.017 -0.7409 -0.0918 -0.4718
  637MOL0     C87777   7.336   6.770   5.013  0.0134  0.2591 -0.5463
  637MOL0     C87778   7.431   6.828   4.909 -0.3946  0.2969  1.1699
  637MOL0     C87779   7.369   6.796   4.763 -0.5072 -0.6806 -0.5286
  637MOL0     C87780   7.473   6.816   4.653  0.1000  0.1513 -0.0480
  637MOL0     C87781   7.551   6.690   4.621  0.5555 -0.9060  0.4438
  637MOL0     C87782   7.634   6.722   4.487  0.3785  0.5080 -0.0935
  637MOL0     C87783   7.745   6.619   4.463 -0.1140  0.6592 -0.3507
  637MOL0     C87784   7.835   6.669   4.346 -0.3715  0.6735  0.3069
  637MOL0     N87785   7.899   6.798   4.357  0.2741  0.0223 -1.1099
  637MOL0     C87786   7.998   6.840   4.447  0.7208 -0.1633  0.8876
  637MOL0     C87787   8.023   6.963   4.407  0.2941  0.2598 -0.2036
  637MOL0     C87788   8.124   7.050   4.474  0.4348  0.5226 -0.4469
  637MOL0     C87789   8.263   6.997   4.508  0.3911  0.3819  0.3923
  637MOL0     C87790   8.346   6.961   4.376 -0.4827  0.7859 -0.2829
  637MOL0     C87791   8.495   7.000   4.375  0.5279  0.2243  0.5925
  637MOL0     O87792   8.556   7.036   4.495  0.1909  0.3949 -0.2052
  637MOL0     C87793   8.588   6.939   4.584 -0.3352  0.5854 -0.4287
  637MOL0     C87794   8.613   6.802   4.555 -0.9016 -0.0774 -0.1539
  637MOL0     C87795   8.665   6.716   4.653 -0.9915  0.3570  0.5387
  637MOL0     C87796   8.697   6.571   4.608  0.5871  0.7196 -0.2564
  637MOL0     C87797   8.676   6.760   4.787 -1.1925  0.2984  0.3298
  637MOL0     C87798   8.713   6.684   4.901  0.5407 -0.4352 -1.1122
  637MOL0     O87799   8.814   6.720   4.977  0.5335 -0.0793 -0.3606
  637MOL0     C87800   8.877   6.626   5.059 -0.3476  0.1917  0.6155
  637MOL0     C87801   8.908   6.661   5.191 -0.8346  0.3185  0.2505
  637MOL0     C87802   8.975   6.575   5.276  0.6402 -0.2342  0.6846
  637MOL0     C87803   9.028   6.452   5.225 -0.2514  0.3198 -0.3576
  637MOL0     O87804   9.095   6.361   5.301 -0.0288  0.3958  0.4472
  637MOL0     C87805   9.089   6.389   5.442 -0.1433 -0.3329  0.2660
  637MOL0     C87806   9.162   6.271   5.520 -0.7608 -0.1144 -0.2454
  637MOL0     C87807   9.084   6.135   5.513 -0.8287  0.2412 -0.4554
  637MOL0     C87808   9.193   6.031   5.473  0.9802  0.2367 -0.7221
  637MOL0     C87809   9.132   5.893   5.445 -0.3459 -0.3543  0.2078
  637MOL0     C87810   9.053   5.886   5.308 -0.8869  0.4113  0.2182
  637MOL0     C87811   9.135   5.919   5.185 -0.0110 -0.0979 -0.1033
  637MOL0     C87812   9.120   6.052   5.115  0.5285  0.1639  0.5735
  637MOL0    Cl87813   9.191   6.063   4.941 -0.1987  0.4009 -0.3643
  637MOL0     C87814   9.003   6.420   5.090 -0.0269  0.3532 -0.1352
  637MOL0     C87815   8.925   6.498   5.011 -0.3053 -0.2600  0.3539
  637MOL0     O87816   8.647   6.580   4.925  0.2669 -0.4552  0.4243
  637MOL0     C87817   8.651   6.893   4.820 -0.3431  0.6304  0.0636
  637MOL0     C87818   8.610   6.981   4.712  0.6143  0.0991 -0.0392
  637MOL0     N87819   7.949   7.000   4.294 -0.4317 -0.9330 -0.0238
  637MOL0     N87820   7.868   6.896   4.278 -0.3786 -0.5219  0.9862
  637MOL0     C87821   6.990   6.804   5.014  0.4410 -0.0298  0.4694
  637MOL0     C87822   6.870   6.771   5.081 -0.4722  0.1524  0.6376
  637MOL0     C87823   6.564   6.673   5.426  0.2560 -0.0475  0.3912
  637MOL0     C87824   6.565   6.533   5.433  0.3522 -0.0065 -0.4383
  637MOL0     C87825   6.477   6.454   5.510 -0.0615  0.2772 -0.7237
  637MOL0     C87826   6.379   6.517   5.583  0.1308 -0.1481 -0.9446
  637MOL0     O87827   6.287   6.455   5.665  0.0342  0.5027  0.3548
  637MOL0     C87828   6.246   6.321   5.636 -0.0881  0.2509  0.2479
  637MOL0     C87829   6.176   6.296   5.503  0.6717 -0.5285 -0.2621
  637MOL0     C87830   6.063   6.394   5.469  0.0485  0.3562 -0.1010
  637MOL0     C87831   5.941   6.413   5.556 -0.2139 -0.0475 -0.0006
  637MOL0     C87832   5.870   6.294   5.569  0.0648  0.7737 -0.7096
  637MOL0     C87833   5.791   6.203   5.571 -0.0132  0.4653 -0.4568
  637MOL0     C87834   6.381   6.653   5.586 -0.1887  0.1155  0.0382
  637MOL0     C87835   6.464   6.735   5.509 -0.6144  0.1704  0.0892
  637MOL0     C87836   6.451   6.882   5.520 -0.6576  0.2330  0.4877
  637MOL0     H87837   7.000   6.684   5.380  0.7620 -0.0547 -1.1042
  637MOL0     H87838   7.201   6.752   5.283  1.8009  2.7848 -1.3896
  637MOL0     H87839   7.325   6.663   4.991 -4.3615  0.2902  0.6011
  637MOL0     H87840   7.378   6.779   5.113 -2.5653 -2.8141  1.0282
  637MOL0     H87841   7.458   6.931   4.934  0.8906  0.3010 -0.1308
  637MOL0     H87842   7.524   6.770   4.915  1.6067  3.2325  0.7322
  637MOL0     H87843   7.310   6.705   4.750  1.5473 -2.0460 -0.6924
  637MOL0     H87844   7.306   6.885   4.770  1.9588  1.0331  2.4993
  637MOL0     H87845   7.419   6.849   4.564  1.9205  1.8409 -0.5962
  637MOL0     H87846   7.548   6.893   4.673 -0.6655  0.3003  2.5306
  637MOL0     H87847   7.481   6.609   4.598 -0.0673 -0.5387  0.9951
  637MOL0     H87848   7.613   6.686   4.711 -0.1229  0.7507  1.0203
  637MOL0     H87849   7.566   6.721   4.402  1.8160  1.0477 -1.2985
  637MOL0     H87850   7.672   6.824   4.495  0.8944  0.2589  0.7367
  637MOL0     H87851   7.701   6.525   4.429  4.1176 -1.7006 -0.0167
  637MOL0     H87852   7.808   6.605   4.551  2.0109  3.7020 -1.2276
  637MOL0     H87853   7.913   6.594   4.333  2.0064  2.7403  1.8205
  637MOL0     H87854   7.774   6.660   4.255 -2.4779  2.3582  1.4534
  637MOL0     H87855   8.036   6.789   4.535  1.3318 -2.1638 -0.4497
  637MOL0     H87856   8.085   7.085   4.570  0.3837 -0.1203 -0.2285
  637MOL0     H87857   8.138   7.130   4.401 -0.0399  1.0309  0.0097
  637MOL0     H87858   8.325   7.070   4.561  2.7972  0.4086 -2.2057
  637MOL0     H87859   8.248   6.908   4.569  0.9109  0.5630  0.7944
  637MOL0     H87860   8.348   6.852   4.366 -1.6255  0.6901  0.3335
  637MOL0     H87861   8.289   7.002   4.292  0.1752  0.6242 -0.8209
  637MOL0     H87862   8.552   6.920   4.327  0.4178  0.0524  0.7469
  637MOL0     H87863   8.507   7.095   4.323 -1.2227 -0.5062 -1.2905
  637MOL0     H87864   8.605   6.763   4.454  1.6891  0.8782 -0.8024
  637MOL0     H87865   8.609   6.508   4.625  0.4530  0.4579 -1.7994
  637MOL0     H87866   8.791   6.535   4.649 -0.6678  0.5205  2.6950
  637MOL0     H87867   8.714   6.566   4.500  0.2435 -1.0904 -0.2689
  637MOL0     H87868   8.897   6.762   5.230  2.8867  1.3099 -0.8536
  637MOL0     H87869   8.999   6.607   5.377 -1.0929  0.2203  0.9816
  637MOL0     H87870   9.150   6.480   5.441 -2.5120  1.3656 -1.4326
  637MOL0     H87871   8.986   6.400   5.476 -0.1977 -0.4797  0.1508
  637MOL0     H87872   9.262   6.265   5.476 -0.7318  0.8297 -0.3173
  637MOL0     H87873   9.172   6.305   5.623 -0.9573  0.9163 -0.5627
  637MOL0     H87874   9.023   6.148   5.423 -0.4876  4.8636 -0.2905
  637MOL0     H87875   9.018   6.109   5.596  0.6004 -1.8428  0.1035
  637MOL0     H87876   9.246   6.032   5.569 -1.8405  1.9866  0.9475
  637MOL0     H87877   9.259   6.068   5.393  0.3103  4.0914  0.3054
  637MOL0     H87878   9.217   5.824   5.446 -1.9196 -2.3780  1.1675
  637MOL0     H87879   9.061   5.862   5.522  0.8190  1.0847  1.9510
  637MOL0     H87880   8.958   5.941   5.307 -2.7247 -2.5340  0.4859
  637MOL0     H87881   9.016   5.783   5.303 -1.5455  0.7119 -1.8705
  637MOL0     H87882   9.092   5.850   5.112 -0.1052  0.8758 -0.9960
  637MOL0     H87883   9.240   5.889   5.191 -0.5774 -1.9233  1.9160
  637MOL0     H87884   9.175   6.130   5.168 -1.5917 -0.3745  3.8446
  637MOL0     H87885   9.012   6.072   5.106  0.1047 -1.4193  1.6769
  637MOL0     H87886   9.026   6.321   5.054 -0.3006  0.4656 -0.6315
  637MOL0     H87887   8.893   6.461   4.914  1.5078 -0.5318 -0.1783
  637MOL0     H87888   8.651   6.926   4.923  0.0632 -0.7198  0.5192
  637MOL0     H87889   8.586   7.083   4.741 -0.1187  0.7660 -2.7278
  637MOL0     H87890   6.979   6.825   4.908 -0.2556 -2.4408  0.0074
  637MOL0     H87891   6.773   6.779   5.033 -0.3436  0.2897  0.3995
  637MOL0     H87892   6.631   6.470   5.373  0.0824 -0.9072  0.1827
  637MOL0     H87893   6.496   6.347   5.501 -1.2854  0.1189 -1.6655
  637MOL0     H87894   6.334   6.259   5.653  0.4739 -1.2870 -5.9658
  637MOL0     H87895   6.178   6.289   5.717 -0.8376 -0.2920 -0.5808
  637MOL0     H87896   6.138   6.194   5.501 -2.5834  0.5425  0.5584
  637MOL0     H87897   6.248   6.301   5.421  1.0392  3.1176  0.1204
  637MOL0     H87898   6.109   6.493   5.465 -0.7413  0.9046  2.4561
  637MOL0     H87899   6.030   6.364   5.369 -0.2946  1.0541 -0.2046
  637MOL0     H87900   5.878   6.499   5.531 -0.9157 -0.5896 -0.1433
  637MOL0     H87901   5.974   6.443   5.656 -1.1470 -1.2345  0.7089
  637MOL0     H87902   5.740   6.116   5.605 -0.4755  1.6229  2.0288
  637MOL0     H87903   6.314   6.696   5.660 -0.0685 -1.6516  1.2095
  637MOL0     H87904   6.432   6.931   5.424  1.3090 -0.6382 -0.3821
  637MOL0     H87905   6.366   6.908   5.584  0.3117  3.6790  0.6056
  637MOL0     H87906   6.545   6.921   5.560  0.2891 -2.9141  1.5983
  638MOL0     O87907   6.565   8.207   2.279  0.2291  0.4042 -0.4358
  638MOL0     C87908   6.500   8.143   2.359  0.3315  0.2767 -0.7097
  638MOL0     O87909   6.489   8.164   2.492 -0.0804 -0.2093 -0.1801
  638MOL0     C87910   6.573   8.256   2.548  0.1157  0.1899  0.6854
  638MOL0     C87911   6.660   8.217   2.655  1.3435  0.2719  0.3280
  638MOL0     C87912   6.747   8.304   2.719 -0.0471  0.0514 -0.0957
  638MOL0     C87913   6.757   8.432   2.669  0.2086 -1.0364 -1.0077
  638MOL0     O87914   6.830   8.533   2.737 -0.1286 -0.7913  0.5337
  638MOL0     C87915   6.941   8.493   2.816  1.0863  0.0091  0.5316
  638MOL0     C87916   7.006   8.629   2.859  0.4948 -0.1498  0.2221
  638MOL0     C87917   7.104   8.602   2.969  0.3712 -0.2036 -0.0920
  638MOL0     C87918   7.053   8.623   3.115  0.2922  0.3239  0.1180
  638MOL0     C87919   7.159   8.604   3.214 -0.0802  0.9502 -1.6480
  638MOL0     C87920   7.099   8.614   3.359  0.0828  0.3086  0.2428
  638MOL0     C87921   7.199   8.637   3.465 -0.1311 -0.0897 -0.6634
  638MOL0     C87922   7.290   8.515   3.499  0.4468 -0.1887  0.6111
  638MOL0     N87923   7.378   8.478   3.391  0.5587  0.5226  0.3296
  638MOL0     C87924   7.465   8.559   3.337 -0.0361  0.1328  0.6263
  638MOL0     C87925   7.519   8.493   3.231  0.2510 -0.9077 -0.5540
  638MOL0     C87926   7.578   8.552   3.112 -0.3032 -0.4204  0.7943
  638MOL0     C87927   7.477   8.585   2.999 -0.4998 -0.0053 -0.0984
  638MOL0     C87928   7.548   8.671   2.900  0.2337 -0.1566 -0.7820
  638MOL0     C87929   7.461   8.698   2.768 -0.0574 -0.5191 -0.2191
  638MOL0     O87930   7.445   8.579   2.710  0.0083  0.3702  0.9102
  638MOL0     C87931   7.370   8.568   2.595 -0.3965 -0.1698  0.8105
  638MOL0     C87932   7.257   8.483   2.595 -0.8638  0.2030  0.3060
  638MOL0     C87933   7.179   8.466   2.485  0.5414  0.7547 -0.7872
  638MOL0     C87934   7.064   8.369   2.494  0.5914  0.0097  0.5900
  638MOL0     C87935   7.214   8.514   2.365 -1.0564 -0.8243 -0.3288
  638MOL0     C87936   7.132   8.513   2.236 -0.1251  0.4091 -0.1521
  638MOL0     O87937   6.992   8.515   2.252  0.2230  0.1375 -0.0656
  638MOL0     C87938   6.914   8.526   2.141 -0.4212 -0.6466  0.1990
  638MOL0     C87939   6.935   8.615   2.036  0.0338 -0.0960  0.0174
  638MOL0     C87940   6.839   8.626   1.932  0.4112 -0.0422 -0.7211
  638MOL0     C87941   6.731   8.529   1.927 -0.6601 -0.5107  0.0189
  638MOL0     O87942   6.642   8.525   1.822 -0.2900  0.2179  0.3146
  638MOL0     C87943   6.537   8.622   1.843 -0.6312 -0.3289 -0.1937
  638MOL0     C87944   6.427   8.584   1.746 -0.2719  0.4593 -0.0660
  638MOL0     C87945   6.315   8.512   1.823  0.0121  0.2261 -1.0048
  638MOL0     C87946   6.201   8.480   1.720 -0.3612  0.4103 -0.1727
  638MOL0     C87947   6.067   8.434   1.782  0.0483 -0.5727 -0.3951
  638MOL0     C87948   6.084   8.315   1.874 -0.7250  0.0055 -0.4725
  638MOL0     C87949   5.947   8.278   1.945 -0.5510 -0.4353  0.6090
  638MOL0     C87950   5.863   8.192   1.856  0.0762 -0.1082 -0.4976
  638MOL0    Cl87951   5.946   8.048   1.823  0.2369 -0.1425 -0.1244
  638MOL0     C87952   6.716   8.441   2.032  1.1837  0.6276 -0.2818
  638MOL0     C87953   6.806   8.444   2.143 -0.6981  1.0505 -0.2601
  638MOL0     O87954   7.194   8.533   2.135 -0.2037  0.5611 -0.4537
  638MOL0     C87955   7.341   8.586   2.359  0.5172  0.3666  0.2787
  638MOL0     C87956   7.422   8.611   2.475 -0.2114 -0.7242  0.1674
  638MOL0     N87957   7.465   8.365   3.247 -0.4914  0.0863 -0.8217
  638MOL0     N87958   7.383   8.357   3.342  0.1763  0.0067  0.3367
  638MOL0     C87959   6.674   8.472   2.557 -0.2274  0.2101  0.1713
  638MOL0     C87960   6.588   8.382   2.504  0.9692 -0.6091 -0.0380
  638MOL0     C87961   6.411   8.028   2.326  0.9824 -0.5470  0.7767
  638MOL0     C87962   6.397   7.918   2.417  0.7918 -0.4654  0.4915
  638MOL0     C87963   6.304   7.821   2.402 -1.1016 -0.5714 -0.5663
  638MOL0     C87964   6.241   7.802   2.283  0.1135 -1.4589  0.4527
  638MOL0     O87965   6.159   7.703   2.244 -0.7444 -0.2502 -0.3108
  638MOL0     C87966   6.120   7.599   2.338 -0.1264  0.2852  0.4182
  638MOL0     C87967   6.082   7.465   2.277  0.3258  0.2529 -0.2006
  638MOL0     C87968   6.007   7.483   2.144  0.0276  0.2961  0.5679
  638MOL0     C87969   6.092   7.436   2.017  0.4786  0.3746  0.3607
  638MOL0     C87970   6.013   7.456   1.890 -0.2645  0.2075 -0.3571
  638MOL0     C87971   5.936   7.481   1.801  0.1468  0.3524 -0.1145
  638MOL0     C87972   6.261   7.902   2.182  0.0509 -0.7127 -0.0225
  638MOL0     C87973   6.345   8.019   2.200 -0.0097  1.4468 -0.6046
  638MOL0     C87974   6.357   8.119   2.086 -0.5611 -1.1870  0.0482
  638MOL0     H87975   6.649   8.116   2.692 -0.1614  0.4833  0.5203
  638MOL0     H87976   6.789   8.275   2.815 -0.8399 -2.3191 -0.4015
  638MOL0     H87977   7.003   8.436   2.746 -0.0274  3.6205 -3.8634
  638MOL0     H87978   6.912   8.428   2.900  1.3253 -1.0768 -0.2125
  638MOL0     H87979   7.066   8.662   2.773 -1.2679  0.5405 -0.7981
  638MOL0     H87980   6.936   8.708   2.886  2.3389  0.8913  2.3175
  638MOL0     H87981   7.136   8.498   2.975 -2.5579 -1.1462  2.6173
  638MOL0     H87982   7.187   8.671   2.956  0.4344 -0.1725  0.4429
  638MOL0     H87983   6.999   8.718   3.119 -3.8741 -1.8129  0.2087
  638MOL0     H87984   6.974   8.552   3.141 -0.5074  1.7441  1.8023
  638MOL0     H87985   7.234   8.682   3.196  2.7654 -1.2220 -0.1061
  638MOL0     H87986   7.223   8.517   3.199  0.9402  1.7904 -2.3530
  638MOL0     H87987   7.030   8.698   3.372 -0.6702 -0.1502 -0.6708
  638MOL0     H87988   7.031   8.533   3.388 -0.2788 -0.1666 -1.7918
  638MOL0     H87989   7.143   8.665   3.555  0.9720 -2.1648  0.7787
  638MOL0     H87990   7.265   8.723   3.453  0.5064 -0.8585 -3.2234
  638MOL0     H87991   7.351   8.537   3.587  1.1074 -0.4805  0.2363
  638MOL0     H87992   7.224   8.431   3.522 -1.0766 -1.3425 -5.8918
  638MOL0     H87993   7.471   8.666   3.358 -0.3771  0.1657  0.5599
  638MOL0     H87994   7.639   8.478   3.059 -1.9119 -1.4678  0.3029
  638MOL0     H87995   7.640   8.638   3.136  3.0446 -1.3599 -3.1910
  638MOL0     H87996   7.440   8.492   2.955  0.8285  0.4189 -2.2344
  638MOL0     H87997   7.395   8.638   3.049  0.5555  4.6678 -2.6925
  638MOL0     H87998   7.569   8.768   2.945  0.3946 -0.3913 -0.3421
  638MOL0     H87999   7.640   8.630   2.858 -0.0575  0.6071 -2.2287
  638MOL0     H88000   7.362   8.733   2.797  0.5927 -1.7373  4.1886
  638MOL0     H88001   7.521   8.767   2.708 -0.3339  0.6902  0.8722
  638MOL0     H88002   7.247   8.430   2.689  2.7227 -1.5785 -0.1129
  638MOL0     H88003   7.070   8.311   2.587  0.9683 -0.9877 -0.0384
  638MOL0     H88004   7.068   8.298   2.411  0.6722  0.7136 -0.0163
  638MOL0     H88005   6.969   8.423   2.498 -1.2365 -2.8518 -0.8297
  638MOL0     H88006   7.022   8.678   2.052 -1.8591  2.2335  1.8574
  638MOL0     H88007   6.862   8.693   1.850  0.7462 -1.8274 -2.1520
  638MOL0     H88008   6.504   8.630   1.946 -0.0441 -1.5418  0.1045
  638MOL0     H88009   6.573   8.720   1.810  0.8283 -0.3177  1.3240
  638MOL0     H88010   6.383   8.670   1.695 -0.7545 -0.1148 -0.6243
  638MOL0     H88011   6.474   8.526   1.666 -2.6058 -2.2376  0.3318
  638MOL0     H88012   6.276   8.587   1.892  2.3167 -0.4388  1.1533
  638MOL0     H88013   6.339   8.427   1.888 -3.1674  1.0889  1.5894
  638MOL0     H88014   6.227   8.394   1.658 -0.5551 -1.5450  2.2893
  638MOL0     H88015   6.184   8.576   1.669 -0.3773  0.2852 -0.4005
  638MOL0     H88016   6.031   8.512   1.849 -0.7947 -1.7813  0.6205
  638MOL0     H88017   5.987   8.416   1.709 -2.0047 -2.4853  2.1056
  638MOL0     H88018   6.171   8.329   1.939 -0.4143  0.8531 -1.0407
  638MOL0     H88019   6.114   8.232   1.809  0.2424 -2.5047  2.8804
  638MOL0     H88020   5.880   8.359   1.975 -2.7304 -1.0396 -2.2093
  638MOL0     H88021   5.978   8.205   2.021 -0.6105 -1.3113 -0.1863
  638MOL0     H88022   5.846   8.248   1.764 -0.5664  2.2492  0.9486
  638MOL0     H88023   5.765   8.173   1.903  0.1628  0.9260  0.1252
  638MOL0     H88024   6.640   8.364   2.030  1.7355  0.0760 -0.1772
  638MOL0     H88025   6.770   8.381   2.223  0.3467 -1.9147 -1.9717
  638MOL0     H88026   7.381   8.614   2.262 -1.4982 -2.5489 -1.5329
  638MOL0     H88027   7.511   8.671   2.457 -0.7392 -0.6375 -2.6051
  638MOL0     H88028   6.679   8.572   2.515 -2.2588  0.2428 -0.0800
  638MOL0     H88029   6.533   8.409   2.415  1.1047  1.3752  0.4356
  638MOL0     H88030   6.442   7.916   2.516  0.6315  1.2469  0.6251
  638MOL0     H88031   6.284   7.755   2.486 -1.9760 -1.9115 -1.7876
  638MOL0     H88032   6.203   7.578   2.407 -1.0126  0.3448  1.5332
  638MOL0     H88033   6.037   7.639   2.397  1.0144  0.5606  1.9117
  638MOL0     H88034   6.024   7.405   2.348  1.2807  0.6184  0.9264
  638MOL0     H88035   6.180   7.420   2.257  0.5977  0.5582  0.4148
  638MOL0     H88036   5.918   7.420   2.135  0.8846 -0.6508 -2.2940
  638MOL0     H88037   5.972   7.585   2.126  1.4900  0.4845 -1.5914
  638MOL0     H88038   6.127   7.332   2.017  3.1163  1.1888 -0.0424
  638MOL0     H88039   6.184   7.495   2.015  1.4188 -1.0511 -0.0206
  638MOL0     H88040   5.860   7.507   1.730 -0.4890 -1.5251 -0.1746
  638MOL0     H88041   6.206   7.894   2.089  1.0213 -1.0919 -0.5771
  638MOL0     H88042   6.358   8.221   2.128 -2.0366 -0.6194 -1.1985
  638MOL0     H88043   6.448   8.105   2.028 -1.5439 -0.7095 -1.6665
  638MOL0     H88044   6.274   8.101   2.017 -2.2347  0.7281  1.4113
  639MOL0     O88045   3.041   1.592   2.908 -0.5455  0.0835  0.0982
  639MOL0     C88046   3.091   1.614   2.799 -0.3148 -0.6582 -0.3144
  639MOL0     O88047   3.232   1.607   2.781  0.4602  0.3081  0.2439
  639MOL0     C88048   3.305   1.519   2.859  0.1308 -0.6130 -0.8259
  639MOL0     C88049   3.270   1.382   2.865  0.4001  0.5601 -0.5401
  639MOL0     C88050   3.339   1.298   2.951 -1.0254 -0.0977 -0.0152
  639MOL0     C88051   3.445   1.345   3.020 -0.4770 -0.5333 -0.6245
  639MOL0     O88052   3.520   1.249   3.091  0.3480 -0.1772  0.9355
  639MOL0     C88053   3.652   1.235   3.049 -0.3376  0.1434  0.5898
  639MOL0     C88054   3.658   1.119   2.938 -0.3193  0.0437  0.3172
  639MOL0     C88055   3.803   1.095   2.911  0.3365  0.0058  0.7046
  639MOL0     C88056   3.830   0.972   2.810 -0.7321 -0.6829 -0.1801
  639MOL0     C88057   3.994   0.968   2.794  0.7519 -0.6423 -0.3633
  639MOL0     C88058   4.031   0.888   2.674 -0.0733  1.3043  0.5099
  639MOL0     C88059   4.183   0.858   2.685  1.4447  0.0520 -0.2992
  639MOL0     C88060   4.266   0.987   2.664 -0.8524 -0.0088 -0.3168
  639MOL0     N88061   4.401   0.967   2.721  0.5875 -0.3655 -0.3219
  639MOL0     C88062   4.457   0.990   2.840 -0.7923 -1.3960 -1.2072
  639MOL0     C88063   4.592   0.967   2.825  0.1449  0.3317 -0.1113
  639MOL0     C88064   4.709   0.981   2.918  0.7971  0.8674 -0.0010
  639MOL0     C88065   4.769   1.114   2.933 -0.0641 -1.0488  0.0768
  639MOL0     C88066   4.892   1.109   3.028  0.5046  0.8422 -0.4941
  639MOL0     C88067   4.936   1.256   3.053 -0.0390 -0.5666 -0.0589
  639MOL0     O88068   5.017   1.266   3.174  0.4217  0.6656  0.0875
  639MOL0     C88069   5.145   1.208   3.183  0.9592  0.1126  0.5761
  639MOL0     C88070   5.213   1.202   3.308 -0.1766  0.5545  0.9766
  639MOL0     C88071   5.334   1.144   3.337 -0.5381 -0.0084  0.0433
  639MOL0     C88072   5.403   1.163   3.468  0.1322  0.8111  0.8688
  639MOL0     C88073   5.404   1.080   3.228  0.0702 -0.1640 -0.7445
  639MOL0     C88074   5.527   1.007   3.229 -0.3313 -0.2814 -0.2953
  639MOL0     O88075   5.514   0.880   3.181 -0.9017 -0.6328  0.1364
  639MOL0     C88076   5.631   0.810   3.175 -0.2398 -0.1448 -0.1674
  639MOL0     C88077   5.649   0.701   3.265  0.6443 -0.6442  1.0178
  639MOL0     C88078   5.758   0.627   3.263 -0.5783 -0.1824 -0.2832
  639MOL0     C88079   5.859   0.648   3.172 -0.1685 -0.8555  0.9021
  639MOL0     O88080   5.961   0.559   3.160 -0.1185  0.0735  0.5038
  639MOL0     C88081   6.051   0.557   3.271  0.6247  0.0985  0.7508
  639MOL0     C88082   6.169   0.642   3.253  0.5708 -0.5423 -0.1368
  639MOL0     C88083   6.250   0.561   3.151  1.1076  1.1195 -0.7728
  639MOL0     C88084   6.353   0.475   3.223 -0.2380  0.6386 -0.9741
  639MOL0     C88085   6.407   0.372   3.127  0.7883 -0.2798  0.1893
  639MOL0     C88086   6.505   0.434   3.025  0.2583  0.5519 -0.1037
  639MOL0     C88087   6.591   0.329   2.952 -0.1081 -0.0327  0.0052
  639MOL0     C88088   6.735   0.378   2.919 -0.4362  0.1831 -0.3352
  639MOL0    Cl88089   6.734   0.524   2.809  0.0747  0.2427 -0.1271
  639MOL0     C88090   5.843   0.752   3.082  0.0733 -1.0590 -0.3105
  639MOL0     C88091   5.731   0.836   3.085 -0.2852 -0.0056 -0.1479
  639MOL0     O88092   5.630   1.066   3.264  0.2534 -0.2927 -0.4622
  639MOL0     C88093   5.344   1.097   3.100  0.9669  0.8329  0.3754
  639MOL0     C88094   5.214   1.147   3.076  0.6413 -0.1624  0.5011
  639MOL0     N88095   4.613   0.941   2.694  0.1433 -0.2455  0.3638
  639MOL0     N88096   4.497   0.926   2.635 -0.3737 -0.0947 -0.1035
  639MOL0     C88097   3.483   1.480   3.008  0.5773 -0.9864  0.1404
  639MOL0     C88098   3.411   1.573   2.924  0.5987 -0.4882  0.3137
  639MOL0     C88099   3.008   1.643   2.686 -0.1016  0.7291 -0.6777
  639MOL0     C88100   3.069   1.655   2.553  0.0039  0.6537  0.1683
  639MOL0     C88101   2.996   1.699   2.440 -0.1699 -0.1671 -0.2713
  639MOL0     C88102   2.860   1.715   2.457 -0.2512  0.3615 -0.0138
  639MOL0     O88103   2.799   1.752   2.339 -0.1152  0.0993  0.5256
  639MOL0     C88104   2.657   1.793   2.331 -1.0925  0.2799 -0.4584
  639MOL0     C88105   2.640   1.945   2.356  0.0852 -0.1698 -0.2411
  639MOL0     C88106   2.490   1.983   2.355  0.6162  0.2959 -0.0395
  639MOL0     C88107   2.415   2.000   2.491 -0.1286 -1.0950 -0.5346
  639MOL0     C88108   2.420   1.897   2.592 -0.5904 -0.1538 -0.1988
  639MOL0     C88109   2.395   1.815   2.671  0.7389  0.1943  0.3486
  639MOL0     C88110   2.801   1.704   2.575 -0.6651 -0.1791 -0.0678
  639MOL0     C88111   2.875   1.671   2.694  0.2214 -0.8178 -0.3885
  639MOL0     C88112   2.783   1.666   2.823 -0.1554 -0.4550 -0.9976
  639MOL0     H88113   3.187   1.354   2.802 -0.3144  0.7661  0.3030
  639MOL0     H88114   3.319   1.191   2.957 -2.2343  0.0009 -1.5918
  639MOL0     H88115   3.698   1.194   3.140  3.4157  1.1865 -0.6710
  639MOL0     H88116   3.696   1.331   3.021  0.3079 -0.7110 -1.5150
  639MOL0     H88117   3.598   1.031   2.965 -0.2657 -0.4423 -1.0823
  639MOL0     H88118   3.601   1.146   2.849  0.3008 -2.3027 -0.8701
  639MOL0     H88119   3.843   1.182   2.859  2.0777 -1.1369  0.0210
  639MOL0     H88120   3.849   1.083   3.010  1.5596  0.4882  0.2164
  639MOL0     H88121   3.795   0.882   2.862 -1.7264 -2.0492 -2.9912
  639MOL0     H88122   3.776   0.979   2.716  3.8778 -2.8489 -3.3868
  639MOL0     H88123   4.034   0.911   2.879  1.7630  0.2649 -0.2069
  639MOL0     H88124   4.033   1.069   2.806 -1.3029  0.1787 -0.3322
  639MOL0     H88125   3.972   0.796   2.663  0.1711  1.0280  1.3968
  639MOL0     H88126   4.015   0.955   2.589 -0.9269  2.4440  1.5352
  639MOL0     H88127   4.204   0.775   2.616 -1.0115 -2.4833  1.7660
  639MOL0     H88128   4.196   0.828   2.790 -3.9974  0.4781  0.7811
  639MOL0     H88129   4.272   1.009   2.557 -0.0072 -0.4879 -0.3747
  639MOL0     H88130   4.222   1.072   2.718  0.0282 -0.0778  0.5270
  639MOL0     H88131   4.403   1.019   2.929  1.4619  2.2557 -0.8369
  639MOL0     H88132   4.792   0.912   2.899  1.4151  0.5876  3.1620
  639MOL0     H88133   4.665   0.943   3.011 -2.1436  0.9765 -1.2518
  639MOL0     H88134   4.814   1.140   2.837 -0.5443  1.0178  0.3601
  639MOL0     H88135   4.702   1.194   2.966  2.0326  0.2857  1.3549
  639MOL0     H88136   4.859   1.064   3.122 -0.9589 -1.4654 -2.0289
  639MOL0     H88137   4.969   1.042   2.990  0.7845  0.4984  0.6581
  639MOL0     H88138   4.973   1.314   2.969 -0.2211  0.4584  0.5443
  639MOL0     H88139   4.844   1.307   3.082 -1.7469 -2.5413 -1.7449
  639MOL0     H88140   5.163   1.255   3.389 -2.0277 -1.0482  0.9554
  639MOL0     H88141   5.502   1.209   3.455 -0.3197  1.4811 -0.4046
  639MOL0     H88142   5.426   1.064   3.510  2.5229  1.8190  2.1138
  639MOL0     H88143   5.347   1.217   3.544 -0.3225 -0.2280  1.3012
  639MOL0     H88144   5.583   0.688   3.350  2.4985  1.1389  2.8644
  639MOL0     H88145   5.767   0.547   3.336  0.8921 -0.6051 -0.8761
  639MOL0     H88146   5.995   0.610   3.349 -0.8042  1.6283 -1.2228
  639MOL0     H88147   6.071   0.455   3.305  1.2269  0.1446  0.5474
  639MOL0     H88148   6.134   0.742   3.224  0.3425 -0.3585  0.7540
  639MOL0     H88149   6.222   0.650   3.348  2.0530  2.0006 -1.0884
  639MOL0     H88150   6.286   0.631   3.075 -0.8880  2.4136 -0.5868
  639MOL0     H88151   6.189   0.495   3.089  0.9817  0.8270 -0.3444
  639MOL0     H88152   6.318   0.422   3.312  2.0688 -0.1405 -0.4743
  639MOL0     H88153   6.428   0.550   3.249 -0.7760  1.4426 -1.6687
  639MOL0     H88154   6.455   0.294   3.186  1.7231 -0.1974 -0.4377
  639MOL0     H88155   6.318   0.330   3.078 -0.2322 -0.9122  2.4580
  639MOL0     H88156   6.582   0.485   3.084  3.3179 -2.4254 -1.2060
  639MOL0     H88157   6.455   0.503   2.956  0.2289  0.8864  0.2528
  639MOL0     H88158   6.548   0.303   2.855 -1.0363 -0.2942  0.4754
  639MOL0     H88159   6.609   0.241   3.014  0.5992 -1.0611 -1.6013
  639MOL0     H88160   6.812   0.310   2.883  2.5309  4.0361 -1.9705
  639MOL0     H88161   6.778   0.413   3.013 -0.7360 -2.1955  0.7586
  639MOL0     H88162   5.916   0.770   3.004  0.3981 -0.6596  0.0853
  639MOL0     H88163   5.722   0.922   3.019  0.7344 -1.2412 -1.9770
  639MOL0     H88164   5.388   1.047   3.014 -2.0784 -2.6067  0.5599
  639MOL0     H88165   5.172   1.143   2.976  0.2495 -0.6110  0.6790
  639MOL0     H88166   3.580   1.513   3.047  0.4950 -1.5417  0.8396
  639MOL0     H88167   3.433   1.678   2.908  1.6462 -0.5996  0.8842
  639MOL0     H88168   3.175   1.645   2.532 -0.3485 -0.3527 -1.3568
  639MOL0     H88169   3.051   1.697   2.346  1.1659 -1.7521  0.4754
  639MOL0     H88170   2.616   1.782   2.230 -0.9464  0.4857 -0.5402
  639MOL0     H88171   2.597   1.729   2.396 -0.4036 -1.7228 -1.6836
  639MOL0     H88172   2.683   2.005   2.275 -2.2490  1.8956 -0.0956
  639MOL0     H88173   2.683   1.974   2.452  1.5753  0.8276 -1.1760
  639MOL0     H88174   2.467   2.073   2.297 -2.1914  0.6743  1.4711
  639MOL0     H88175   2.434   1.911   2.295 -0.3709  0.1444  1.0404
  639MOL0     H88176   2.307   2.007   2.478 -0.4570 -3.7411  0.3488
  639MOL0     H88177   2.456   2.091   2.536  1.1867 -1.8270 -0.1855
  639MOL0     H88178   2.363   1.737   2.736 -1.1408 -1.1467 -2.0301
  639MOL0     H88179   2.693   1.708   2.586 -0.4621 -1.6301  3.7819
  639MOL0     H88180   2.841   1.728   2.891 -1.0678  1.2683 -1.7124
  639MOL0     H88181   2.679   1.700   2.814 -0.1387  0.0388  0.4297
  639MOL0     H88182   2.775   1.563   2.860  2.2089 -0.0465  0.9383
  640MOL0     O88183   6.126   6.302  10.428  0.6535  0.6541 -0.6045
  640MOL0     C88184   6.094   6.189  10.385  1.0712 -0.8749 -0.3926
  640MOL0     O88185   5.978   6.129  10.426  0.6333 -0.1702  0.6384
  640MOL0     C88186   5.888   6.205  10.497 -0.3458 -0.3045  0.3326
  640MOL0     C88187   5.778   6.273  10.444  0.0821  1.1801  0.4698
  640MOL0     C88188   5.705   6.364  10.518  0.3671  0.7740 -0.3280
  640MOL0     C88189   5.740   6.373  10.655 -0.3877  0.3479  1.2905
  640MOL0     O88190   5.664   6.464  10.716  0.6212 -0.3416 -0.8905
  640MOL0     C88191   5.680   6.505  10.850  0.2887 -0.0611  0.9554
  640MOL0     C88192   5.567   6.597  10.884 -0.8974 -0.5681 -0.7383
  640MOL0     C88193   5.568   6.635  11.039 -0.4074 -0.4819  0.4537
  640MOL0     C88194   5.434   6.701  11.072 -1.0545  0.2755  0.7205
  640MOL0     C88195   5.421   6.742  11.215  0.0558  0.5718 -0.4384
  640MOL0     C88196   5.323   6.849  11.237 -0.2289  0.3185 -0.1864
  640MOL0     C88197   5.258   6.829  11.372 -0.3009  0.2554  0.2752
  640MOL0     C88198   5.352   6.825  11.490  0.7509 -1.1612 -0.6195
  640MOL0     N88199   5.441   6.944  11.504  0.6828  0.1985  0.8932
  640MOL0     C88200   5.580   6.945  11.481  0.3106 -0.5485 -0.7717
  640MOL0     C88201   5.610   7.077  11.512 -0.8563  0.5602 -0.1721
  640MOL0     C88202   5.745   7.135  11.531 -0.4075 -0.2852 -0.8277
  640MOL0     C88203   5.851   7.090  11.436 -0.7880  0.5781 -0.1574
  640MOL0     C88204   5.849   7.162  11.296  0.3175  0.0883 -0.7322
  640MOL0     C88205   5.760   7.087  11.195 -0.3842 -0.6461  0.0895
  640MOL0     O88206   5.748   7.168  11.081 -0.1660 -0.5548 -0.7077
  640MOL0     C88207   5.759   7.104  10.957  0.3078 -0.4191 -0.1613
  640MOL0     C88208   5.644   7.054  10.889 -0.4315 -0.7968  0.2127
  640MOL0     C88209   5.664   6.996  10.764 -0.5558  0.1486 -0.2876
  640MOL0     C88210   5.540   6.939  10.691  0.2183 -0.2973  0.6193
  640MOL0     C88211   5.792   6.995  10.703 -0.0370  0.4869 -1.2999
  640MOL0     C88212   5.805   6.950  10.560 -1.1962  0.5105 -0.0635
  640MOL0     O88213   5.899   6.851  10.528  0.3936 -0.0464 -0.0456
  640MOL0     C88214   5.891   6.803  10.404  0.4886  0.4298  0.8817
  640MOL0     C88215   5.822   6.688  10.377 -0.8861  0.1772 -0.2572
  640MOL0     C88216   5.830   6.628  10.259  0.6079 -0.1949  0.6756
  640MOL0     C88217   5.899   6.688  10.153 -0.7999  0.2031 -0.7647
  640MOL0     O88218   5.895   6.621  10.027 -0.1539  0.6654  0.3701
  640MOL0     C88219   5.835   6.688   9.914 -0.2749  0.1986  0.5750
  640MOL0     C88220   5.792   6.582   9.816 -0.3387  0.3473  0.4231
  640MOL0     C88221   5.905   6.506   9.751  0.4319  0.0957 -0.7732
  640MOL0     C88222   5.848   6.405   9.658 -0.3387 -0.0890  0.0343
  640MOL0     C88223   5.971   6.331   9.595 -0.3678 -0.3599 -0.6723
  640MOL0     C88224   5.922   6.200   9.531 -0.4321  0.0458  0.9127
  640MOL0     C88225   5.997   6.163   9.398  0.1844 -0.2410  0.2940
  640MOL0     C88226   5.959   6.259   9.281 -0.2066  0.8403 -0.4593
  640MOL0    Cl88227   6.094   6.355   9.233 -0.4397 -0.0265  0.2474
  640MOL0     C88228   5.974   6.805  10.178 -0.5744  0.5614 -0.3925
  640MOL0     C88229   5.969   6.859  10.307 -0.1964  0.6394  0.4482
  640MOL0     O88230   5.738   7.020  10.479  0.3777 -0.3881  0.6741
  640MOL0     C88231   5.904   7.043  10.775 -0.5996 -0.7909 -0.1191
  640MOL0     C88232   5.883   7.096  10.907  0.0549 -0.3018  0.8811
  640MOL0     N88233   5.485   7.147  11.539 -0.3572 -0.3729 -1.0522
  640MOL0     N88234   5.383   7.064  11.528 -0.7972 -0.2427  0.6619
  640MOL0     C88235   5.839   6.300  10.707  0.1054 -0.2591  0.8293
  640MOL0     C88236   5.919   6.214  10.630 -0.5157 -1.4079 -1.4029
  640MOL0     C88237   6.182   6.112  10.308  1.0484  0.2158  0.8204
  640MOL0     C88238   6.274   6.178  10.239 -0.1493  0.2060 -0.1324
  640MOL0     C88239   6.360   6.105  10.158  0.0312 -0.7225  0.4817
  640MOL0     C88240   6.362   5.975  10.147  0.8780  0.2991 -0.6981
  640MOL0     O88241   6.460   5.920  10.065  0.5714 -0.0387  0.6230
  640MOL0     C88242   6.409   5.819   9.974  0.2193 -0.6014 -0.2180
  640MOL0     C88243   6.512   5.802   9.865  0.8956  0.0514  0.3548
  640MOL0     C88244   6.453   5.724   9.739 -0.5172 -0.3441  0.4227
  640MOL0     C88245   6.559   5.719   9.624 -0.8049  0.0764 -0.9845
  640MOL0     C88246   6.655   5.610   9.637  0.6014  0.2729 -0.3362
  640MOL0     C88247   6.736   5.520   9.658 -0.7364 -0.1532  0.2499
  640MOL0     C88248   6.272   5.903  10.226 -0.6198  1.1613  0.3957
  640MOL0     C88249   6.173   5.968  10.303 -0.1276  0.8140  0.5324
  640MOL0     C88250   6.075   5.884  10.383 -0.2495 -0.1553  0.2030
  640MOL0     H88251   5.756   6.269  10.338  1.4412 -1.7634  0.2046
  640MOL0     H88252   5.623   6.416  10.470  0.3338  1.6126  0.5979
  640MOL0     H88253   5.767   6.570  10.867  0.2108  0.2849  0.0511
  640MOL0     H88254   5.683   6.416  10.914 -2.1198 -2.0105 -1.4284
  640MOL0     H88255   5.570   6.690  10.827  1.2108  0.1698  0.4445
  640MOL0     H88256   5.470   6.548  10.871 -2.1487  0.8399  2.2142
  640MOL0     H88257   5.569   6.545  11.102  1.1766 -1.3462 -0.7313
  640MOL0     H88258   5.647   6.705  11.068 -2.4154  2.8607 -1.5084
  640MOL0     H88259   5.420   6.794  11.016  1.2469  0.3979  0.2641
  640MOL0     H88260   5.353   6.628  11.058 -1.9814  1.2206  1.0079
  640MOL0     H88261   5.515   6.775  11.263 -1.0656  2.6448  0.4672
  640MOL0     H88262   5.392   6.654  11.273 -2.9923 -0.1185 -2.7800
  640MOL0     H88263   5.367   6.948  11.223 -0.1142 -0.1376 -4.3393
  640MOL0     H88264   5.234   6.838  11.175 -1.3020  0.1131  1.3365
  640MOL0     H88265   5.216   6.728  11.375  2.3968 -0.9376  1.4476
  640MOL0     H88266   5.188   6.912  11.378  1.7641  2.5488 -3.4961
  640MOL0     H88267   5.297   6.824  11.584 -1.4180 -3.1899 -1.8014
  640MOL0     H88268   5.412   6.733  11.497  2.5528 -0.0491 -0.6842
  640MOL0     H88269   5.642   6.859  11.458  1.5447  0.1661 -0.2380
  640MOL0     H88270   5.768   7.094  11.629 -1.4087  1.4417  0.1833
  640MOL0     H88271   5.749   7.244  11.534  0.7756 -0.3356  1.1772
  640MOL0     H88272   5.940   7.133  11.482 -3.9271  3.5613  3.8820
  640MOL0     H88273   5.853   6.981  11.444 -0.2643  0.7032  1.8796
  640MOL0     H88274   5.817   7.265  11.316  1.5006 -0.0219  2.1165
  640MOL0     H88275   5.946   7.175  11.249 -1.3737  0.8578 -4.4042
  640MOL0     H88276   5.801   6.992  11.160  0.1551 -0.3518 -0.0961
  640MOL0     H88277   5.667   7.075  11.250 -0.2771  0.2159  0.4761
  640MOL0     H88278   5.558   7.040  10.954 -0.2748 -0.0124  0.6025
  640MOL0     H88279   5.453   6.923  10.755 -0.3412  2.8538  0.8368
  640MOL0     H88280   5.576   6.843  10.654 -0.0752  0.2247 -1.1467
  640MOL0     H88281   5.506   6.998  10.605  1.9287 -0.6190 -0.3265
  640MOL0     H88282   5.772   6.650  10.466 -2.9390 -0.2658 -1.5147
  640MOL0     H88283   5.802   6.523  10.254 -2.4720  0.5690 -0.2969
  640MOL0     H88284   5.751   6.739   9.963 -1.4021 -1.0544 -0.0274
  640MOL0     H88285   5.914   6.754   9.877 -0.1254  0.3634  1.1677
  640MOL0     H88286   5.724   6.516   9.869 -0.3512 -1.9947 -2.2397
  640MOL0     H88287   5.744   6.633   9.732  0.3979 -1.1682 -0.9855
  640MOL0     H88288   5.958   6.449   9.828 -1.9637 -2.8569 -1.1554
  640MOL0     H88289   5.962   6.578   9.692  2.4439 -2.6022 -2.3586
  640MOL0     H88290   5.787   6.452   9.580 -1.0240  6.4011  3.8171
  640MOL0     H88291   5.791   6.330   9.714  0.3814 -0.7612 -0.1086
  640MOL0     H88292   6.015   6.397   9.520  2.1938  1.3324  2.0922
  640MOL0     H88293   6.044   6.314   9.675 -3.2195  0.1762  2.2748
  640MOL0     H88294   5.816   6.211   9.506 -0.7749 -0.0876  2.2487
  640MOL0     H88295   5.938   6.114   9.596  1.1540 -1.4922 -1.3547
  640MOL0     H88296   5.956   6.067   9.364 -1.7538  1.0276 -1.1932
  640MOL0     H88297   6.106   6.165   9.400  0.1989  1.9446 -0.4884
  640MOL0     H88298   5.877   6.318   9.321 -0.8397 -0.8050  0.7711
  640MOL0     H88299   5.925   6.201   9.195  2.9283 -1.0292 -0.6212
  640MOL0     H88300   6.029   6.857  10.100 -0.2348  1.6907  0.5632
  640MOL0     H88301   6.030   6.946  10.331 -0.3876  0.4733  1.6036
  640MOL0     H88302   6.004   7.031  10.733 -0.0254  1.4239  0.4441
  640MOL0     H88303   5.967   7.129  10.967 -0.4080 -1.6496  2.3145
  640MOL0     H88304   5.867   6.320  10.810 -2.1330  4.1954  0.7831
  640MOL0     H88305   6.018   6.193  10.667 -0.1549 -0.6945 -1.9496
  640MOL0     H88306   6.282   6.287  10.234  0.2760  0.1281 -4.2674
  640MOL0     H88307   6.430   6.170  10.105 -0.5350 -0.2777  0.2636
  640MOL0     H88308   6.399   5.724  10.027 -1.6179 -0.2287  0.1681
  640MOL0     H88309   6.311   5.847   9.936 -2.5133 -2.4763  4.5343
  640MOL0     H88310   6.605   5.760   9.904  0.7148 -1.4066 -0.6858
  640MOL0     H88311   6.534   5.901   9.825 -0.3674 -0.6042 -2.1933
  640MOL0     H88312   6.413   5.625   9.764 -1.1499  0.1249  1.3445
  640MOL0     H88313   6.374   5.787   9.697  0.7777 -0.1034 -1.8144
  640MOL0     H88314   6.616   5.810   9.603  0.8082 -0.5804  0.2823
  640MOL0     H88315   6.498   5.703   9.535 -1.8413  2.0054 -0.6624
  640MOL0     H88316   6.814   5.446   9.659  1.2950  1.8858  0.6483
  640MOL0     H88317   6.279   5.795  10.225 -2.9271  0.9006 -2.3251
  640MOL0     H88318   5.968   5.901  10.368 -0.3750 -0.5339  0.6505
  640MOL0     H88319   6.089   5.777  10.371  0.0685 -0.1128  0.1891
  640MOL0     H88320   6.097   5.913  10.486  0.6486  0.0778 -0.0468
  641MOL0     O88321   5.566   0.304   6.977  0.0524 -0.3996  0.0681
  641MOL0     C88322   5.545   0.353   6.865  0.0204  0.3798  0.4661
  641MOL0     O88323   5.594   0.471   6.823 -0.6610 -0.2417  0.3484
  641MOL0     C88324   5.634   0.569   6.910 -0.2324 -0.1765  0.0823
  641MOL0     C88325   5.761   0.572   6.970  0.3663 -0.3735 -0.9160
  641MOL0     C88326   5.792   0.678   7.060 -0.2575  0.9700 -0.2688
  641MOL0     C88327   5.704   0.785   7.080 -0.2560  0.0685  0.7907
  641MOL0     O88328   5.753   0.896   7.147  0.2296  0.4771 -0.4809
  641MOL0     C88329   5.664   0.950   7.240  0.4265  0.4276  0.4151
  641MOL0     C88330   5.751   1.021   7.347  0.2159  0.5322  0.0934
  641MOL0     C88331   5.659   1.051   7.465  0.5090 -0.0521  0.5039
  641MOL0     C88332   5.722   1.138   7.573 -0.2253  0.1075 -0.0436
  641MOL0     C88333   5.838   1.054   7.640  0.5978 -0.5887  0.2700
  641MOL0     C88334   5.984   1.101   7.594  0.3838 -0.3436 -0.0233
  641MOL0     C88335   6.089   1.004   7.645  0.2572 -0.3732 -0.3931
  641MOL0     C88336   6.223   1.038   7.598 -0.4828  0.1362  0.6711
  641MOL0     N88337   6.309   0.944   7.661 -0.7032  0.0770 -0.5515
  641MOL0     C88338   6.336   0.813   7.628 -0.5027  0.2462 -0.7218
  641MOL0     C88339   6.425   0.763   7.729  1.1156  0.1215 -0.3121
  641MOL0     C88340   6.488   0.629   7.720 -0.3341 -0.3945 -0.5202
  641MOL0     C88341   6.405   0.511   7.761 -0.1989 -0.4602  0.5936
  641MOL0     C88342   6.486   0.385   7.777  0.1942  0.5108  0.3420
  641MOL0     C88343   6.409   0.280   7.848  0.3800  0.6492  0.7464
  641MOL0     O88344   6.499   0.167   7.866  0.4758 -0.1836  1.1711
  641MOL0     C88345   6.452   0.045   7.914  0.3904 -0.6496  0.2500
  641MOL0     C88346   6.324   0.034   7.962  0.4994  0.2023 -0.6510
  641MOL0     C88347   6.279  -0.085   8.023 -0.3611 -0.4222  1.2942
  641MOL0     C88348   6.138  -0.083   8.071 -0.5690  0.6000 -1.1921
  641MOL0     C88349   6.362  -0.202   8.003 -0.8134 -0.2420 -0.5167
  641MOL0     C88350   6.327  -0.342   8.052  0.8657  0.2131  0.6233
  641MOL0     O88351   6.375  -0.446   7.993 -0.4191 -0.3865  0.0816
  641MOL0     C88352   6.325  -0.570   8.023  0.6539  0.4559 -0.2598
  641MOL0     C88353   6.231  -0.639   7.938 -0.2582  0.3412 -0.6953
  641MOL0     C88354   6.178  -0.766   7.977 -0.3002 -0.6477 -0.2869
  641MOL0     C88355   6.230  -0.825   8.090  0.4840 -0.2514  0.6751
  641MOL0     O88356   6.201  -0.945   8.129 -0.3192  0.0570 -0.5704
  641MOL0     C88357   6.157  -1.046   8.042 -0.3289 -0.7660 -0.2854
  641MOL0     C88358   6.143  -1.184   8.104  0.8234 -0.2660  0.2662
  641MOL0     C88359   6.014  -1.186   8.184 -0.1691  0.5830  1.0629
  641MOL0     C88360   5.973  -1.331   8.226 -0.2882 -0.0518 -0.4131
  641MOL0     C88361   5.818  -1.333   8.250  0.6617  0.3160 -0.0700
  641MOL0     C88362   5.763  -1.456   8.326 -0.0691  0.5118 -0.0018
  641MOL0     C88363   5.848  -1.496   8.451  0.3909 -0.5675  0.3026
  641MOL0     C88364   5.779  -1.592   8.543 -0.0755  1.2340 -0.0957
  641MOL0    Cl88365   5.877  -1.631   8.681  0.1881 -0.1088 -0.1829
  641MOL0     C88366   6.325  -0.761   8.167 -0.4045  0.0525 -0.0353
  641MOL0     C88367   6.375  -0.639   8.133 -0.7518  0.6408  0.2894
  641MOL0     O88368   6.247  -0.347   8.143  0.1542  0.4456  0.2270
  641MOL0     C88369   6.486  -0.192   7.935 -0.2248 -0.5457  1.1639
  641MOL0     C88370   6.527  -0.062   7.902  0.9568  0.3312  0.1560
  641MOL0     N88371   6.471   0.879   7.799 -0.1591  0.2340 -0.6116
  641MOL0     N88372   6.393   0.977   7.769  0.5731  0.7957 -1.4011
  641MOL0     C88373   5.586   0.787   7.013  0.2774 -0.2174  0.9229
  641MOL0     C88374   5.540   0.676   6.930  0.5048  0.3680 -0.5743
  641MOL0     C88375   5.486   0.258   6.758  0.4732 -0.1271 -0.2053
  641MOL0     C88376   5.416   0.315   6.648 -0.7239 -0.2737 -0.5742
  641MOL0     C88377   5.337   0.232   6.564 -0.3763 -0.2004  0.3373
  641MOL0     C88378   5.325   0.100   6.590 -0.1293  0.2402 -0.0279
  641MOL0     O88379   5.244   0.016   6.529 -0.0066  0.1696  0.1425
  641MOL0     C88380   5.198   0.041   6.391 -0.2626 -0.3911 -0.0644
  641MOL0     C88381   5.314   0.056   6.297  0.1808  0.4130 -0.4787
  641MOL0     C88382   5.387  -0.078   6.285 -0.4892 -0.3559  0.1947
  641MOL0     C88383   5.472  -0.079   6.156  0.2934  0.0079  0.1219
  641MOL0     C88384   5.575   0.026   6.162  0.2557  0.2784 -0.0772
  641MOL0     C88385   5.665   0.101   6.182 -0.0191  0.8405 -0.0439
  641MOL0     C88386   5.396   0.045   6.704 -0.8353  0.6411  0.0909
  641MOL0     C88387   5.488   0.118   6.776 -0.3858 -0.2792 -0.2359
  641MOL0     C88388   5.579   0.038   6.876 -0.8735  0.1879  0.4616
  641MOL0     H88389   5.834   0.492   6.975  1.4751  0.6893  0.7693
  641MOL0     H88390   5.886   0.675   7.115  1.9842  2.7325 -3.6177
  641MOL0     H88391   5.609   0.867   7.285 -2.9364  2.5066  0.5329
  641MOL0     H88392   5.592   1.012   7.186  0.0805 -1.0585 -0.9231
  641MOL0     H88393   5.834   0.959   7.383  0.3111  1.6092  1.8564
  641MOL0     H88394   5.808   1.106   7.311  1.4591 -1.2797 -2.5091
  641MOL0     H88395   5.577   1.110   7.423 -0.0031  0.9320  2.7622
  641MOL0     H88396   5.615   0.958   7.502  0.7627 -0.2274  0.3712
  641MOL0     H88397   5.755   1.237   7.541 -1.8310  0.0334 -2.1041
  641MOL0     H88398   5.638   1.150   7.642 -0.9460  1.8269 -1.1664
  641MOL0     H88399   5.824   0.947   7.622  1.2497 -0.8492  1.2261
  641MOL0     H88400   5.842   1.069   7.749  1.4501  1.3695  0.0129
  641MOL0     H88401   5.976   1.092   7.485 -1.8920 -0.2986  0.0927
  641MOL0     H88402   6.001   1.204   7.626 -3.0093  0.0635  0.7933
  641MOL0     H88403   6.059   0.904   7.614 -2.3351 -0.5405  2.2658
  641MOL0     H88404   6.080   0.997   7.754 -0.4554  2.1381 -0.2163
  641MOL0     H88405   6.224   1.036   7.489 -1.9408  1.6297  0.5878
  641MOL0     H88406   6.245   1.141   7.630  2.6807 -0.2289 -0.0185
  641MOL0     H88407   6.295   0.743   7.555  0.2820 -1.8533  0.7681
  641MOL0     H88408   6.574   0.645   7.786 -2.0135  1.8251  1.3210
  641MOL0     H88409   6.536   0.619   7.622  2.0256  2.2522  0.2327
  641MOL0     H88410   6.351   0.539   7.853 -0.7005  1.3120 -0.1929
  641MOL0     H88411   6.325   0.493   7.688 -0.5663  0.5395  0.7223
  641MOL0     H88412   6.509   0.358   7.673  0.1998  3.2366 -0.4477
  641MOL0     H88413   6.581   0.399   7.829 -0.6927  1.8432  1.6624
  641MOL0     H88414   6.378   0.322   7.944 -0.2078  4.2308 -0.8606
  641MOL0     H88415   6.327   0.236   7.791  0.5049  4.6382 -3.0872
  641MOL0     H88416   6.261   0.123   7.968  0.7319  0.3172  0.3864
  641MOL0     H88417   6.145  -0.061   8.178 -0.5887 -2.7446 -0.3885
  641MOL0     H88418   6.094  -0.182   8.053 -0.2931  0.3066 -0.3338
  641MOL0     H88419   6.072  -0.023   8.009 -0.8954  1.0415 -0.4214
  641MOL0     H88420   6.197  -0.589   7.848  1.0419  3.2247  0.2844
  641MOL0     H88421   6.103  -0.818   7.919  0.5303 -0.2865 -1.7346
  641MOL0     H88422   6.063  -1.010   7.999 -0.5532 -2.0700 -0.9317
  641MOL0     H88423   6.233  -1.054   7.962 -0.3247 -3.1657 -0.1131
  641MOL0     H88424   6.146  -1.264   8.028  1.6922 -0.8030  0.8510
  641MOL0     H88425   6.229  -1.211   8.166  0.6364 -1.6598 -0.0283
  641MOL0     H88426   5.938  -1.145   8.117  1.4669 -1.5454 -2.4089
  641MOL0     H88427   6.020  -1.122   8.273  2.3897 -1.2116  2.3098
  641MOL0     H88428   6.021  -1.346   8.323 -4.1494  0.7938  1.7910
  641MOL0     H88429   6.014  -1.412   8.165  0.6071  1.5106 -1.9990
  641MOL0     H88430   5.787  -1.245   8.306  0.7193 -0.2710  0.9115
  641MOL0     H88431   5.761  -1.338   8.157  1.0997  1.7205 -0.4312
  641MOL0     H88432   5.776  -1.542   8.260 -3.9953 -2.9354  3.1534
  641MOL0     H88433   5.660  -1.435   8.355  0.0073  0.0694  0.6170
  641MOL0     H88434   5.880  -1.406   8.504 -3.1774  0.7684  0.4446
  641MOL0     H88435   5.934  -1.549   8.410 -0.3503  0.1866 -2.3981
  641MOL0     H88436   5.761  -1.681   8.482  1.5624  3.6131 -4.4832
  641MOL0     H88437   5.687  -1.542   8.575 -0.6806  0.0479  0.0887
  641MOL0     H88438   6.366  -0.815   8.252  1.8616  1.5168 -0.1143
  641MOL0     H88439   6.464  -0.604   8.185 -0.2569 -0.0098 -0.1084
  641MOL0     H88440   6.553  -0.277   7.930  0.8140  0.2774  0.4955
  641MOL0     H88441   6.630  -0.048   7.871  1.2892  0.2262  1.1650
  641MOL0     H88442   5.519   0.873   7.016 -0.3129 -0.6284  0.0670
  641MOL0     H88443   5.446   0.680   6.877 -1.4068 -1.0141  2.4279
  641MOL0     H88444   5.422   0.419   6.620 -2.3909  0.4278  1.4693
  641MOL0     H88445   5.292   0.274   6.475  0.7289 -0.8728 -0.5592
  641MOL0     H88446   5.128  -0.036   6.359  2.5908 -3.2066 -0.0707
  641MOL0     H88447   5.141   0.134   6.387  0.8379  0.3724  1.0329
  641MOL0     H88448   5.380   0.137   6.330  2.0163 -1.1686 -0.0925
  641MOL0     H88449   5.277   0.089   6.199 -1.7882  2.8503  0.9728
  641MOL0     H88450   5.457  -0.087   6.369  0.5503  0.4748 -0.5467
  641MOL0     H88451   5.322  -0.165   6.282  0.8293 -1.4431  1.4679
  641MOL0     H88452   5.400  -0.056   6.076  1.4780 -0.8300 -1.2216
  641MOL0     H88453   5.519  -0.177   6.151  1.4889  0.5762 -0.2632
  641MOL0     H88454   5.758   0.152   6.173 -0.8112  2.3446  0.0607
  641MOL0     H88455   5.388  -0.060   6.731  1.3390 -0.1845 -2.1356
  641MOL0     H88456   5.661   0.097   6.918 -2.3306  2.2724  0.5320
  641MOL0     H88457   5.512   0.009   6.959 -3.2341 -0.7520 -1.6385
  641MOL0     H88458   5.631  -0.048   6.833 -2.2545  0.6091 -2.2707
  642MOL0     O88459   6.785   6.756   4.326 -0.6090  0.0687 -0.9247
  642MOL0     C88460   6.827   6.867   4.360  0.0351  0.1272 -0.7906
  642MOL0     O88461   6.958   6.898   4.360  1.4986 -0.8784 -0.5461
  642MOL0     C88462   7.058   6.823   4.303  0.0776  0.4923 -0.2099
  642MOL0     C88463   7.163   6.781   4.385 -0.4896  0.0782 -0.3049
  642MOL0     C88464   7.280   6.723   4.343 -0.9025  0.6421  0.7187
  642MOL0     C88465   7.290   6.676   4.211  0.1616 -0.0220  0.2786
  642MOL0     O88466   7.402   6.609   4.171 -0.1738  0.5462 -0.3335
  642MOL0     C88467   7.398   6.547   4.042  0.1182 -0.3662  0.1046
  642MOL0     C88468   7.535   6.490   4.020 -0.7899 -0.5292  0.1374
  642MOL0     C88469   7.650   6.595   4.007 -0.3865  0.1422 -0.8889
  642MOL0     C88470   7.793   6.546   3.997 -0.2532  0.7846  0.6391
  642MOL0     C88471   7.909   6.651   3.992 -0.3716  0.9317 -0.8744
  642MOL0     C88472   8.027   6.590   3.934 -0.1376 -0.4560 -0.6533
  642MOL0     C88473   8.140   6.687   3.932  0.3598  1.2914  0.1602
  642MOL0     C88474   8.149   6.784   4.054 -1.0915  0.6795  0.1201
  642MOL0     N88475   8.290   6.838   4.051 -0.1005  0.0947  0.1282
  642MOL0     C88476   8.333   6.951   3.982 -0.2361 -0.1574  0.8627
  642MOL0     C88477   8.465   6.966   3.998 -0.2895 -0.3286 -0.8563
  642MOL0     C88478   8.550   7.081   3.939 -0.2642  0.4645 -0.0403
  642MOL0     C88479   8.604   7.184   4.038 -0.3690  0.2909  0.3969
  642MOL0     C88480   8.692   7.288   3.970 -0.4341 -1.0931  0.1844
  642MOL0     C88481   8.753   7.385   4.077 -0.7325 -0.7233  0.5202
  642MOL0     O88482   8.834   7.298   4.156  0.8007  0.3339 -0.0932
  642MOL0     C88483   8.868   7.349   4.271 -0.5292  0.7936 -0.5195
  642MOL0     C88484   8.882   7.263   4.383  0.5587  0.1856 -0.0945
  642MOL0     C88485   8.894   7.315   4.511  0.1961 -0.7985 -0.7892
  642MOL0     C88486   8.898   7.208   4.623  0.1521  0.4299  0.0653
  642MOL0     C88487   8.927   7.452   4.536 -0.2812 -0.0108  0.6462
  642MOL0     C88488   8.937   7.515   4.666  0.2759 -0.4341 -0.6722
  642MOL0     O88489   8.938   7.654   4.649  0.2799 -0.0569  0.2866
  642MOL0     C88490   8.952   7.749   4.744  0.7106 -0.1094 -0.5083
  642MOL0     C88491   8.909   7.879   4.703 -0.0915  1.0301 -1.1243
  642MOL0     C88492   8.907   7.985   4.790 -0.3358 -0.1032  0.3156
  642MOL0     C88493   8.950   7.965   4.921  0.2046  0.7505 -0.3978
  642MOL0     O88494   8.959   8.073   5.007 -0.1843  0.0377 -0.1410
  642MOL0     C88495   8.925   8.205   4.972  0.5942 -1.1751  0.2479
  642MOL0     C88496   8.922   8.277   5.109 -0.6145  0.7213  0.1382
  642MOL0     C88497   8.877   8.423   5.080 -0.1739  0.3370  0.5588
  642MOL0     C88498   8.997   8.511   5.066 -0.7780  0.4087  0.3979
  642MOL0     C88499   8.961   8.654   5.029  0.7439 -0.7058 -0.0819
  642MOL0     C88500   9.087   8.732   5.014  0.9141 -0.3167 -0.4395
  642MOL0     C88501   9.046   8.880   4.994  0.1631  0.3698 -0.3199
  642MOL0     C88502   9.166   8.968   4.996 -0.3005 -0.4198  0.2089
  642MOL0    Cl88503   9.257   8.967   4.848  0.3946  0.1784  0.0710
  642MOL0     C88504   8.992   7.841   4.965 -1.3380  0.8073 -0.3445
  642MOL0     C88505   8.998   7.737   4.875  0.1424  0.2139  0.1776
  642MOL0     O88506   8.954   7.453   4.778  0.1555  0.9031  0.6273
  642MOL0     C88507   8.924   7.535   4.420 -0.8213  0.0535  0.1820
  642MOL0     C88508   8.902   7.486   4.294  1.7460  0.5055  0.4868
  642MOL0     N88509   8.508   6.859   4.070  0.0712 -0.8217  0.0352
  642MOL0     N88510   8.403   6.781   4.099  0.0411  0.2444  0.6652
  642MOL0     C88511   7.180   6.709   4.127 -0.2757 -0.3678 -0.0581
  642MOL0     C88512   7.061   6.780   4.175  0.1098  1.2031  0.7337
  642MOL0     C88513   6.730   6.960   4.434 -0.4181 -0.1855 -0.9235
  642MOL0     C88514   6.607   6.979   4.378 -0.4597  0.0754 -0.0232
  642MOL0     C88515   6.501   7.034   4.443  0.8322 -0.5544  0.5246
  642MOL0     C88516   6.515   7.091   4.570 -0.9382 -0.8542 -0.6338
  642MOL0     O88517   6.402   7.152   4.615  0.7459 -0.0446  0.8049
  642MOL0     C88518   6.400   7.237   4.728 -0.5326 -0.0717 -1.1761
  642MOL0     C88519   6.258   7.291   4.749  0.7421 -0.0756  0.4205
  642MOL0     C88520   6.229   7.331   4.896  0.7013  0.3124  0.2277
  642MOL0     C88521   6.269   7.469   4.929  0.1339 -1.1482  0.5603
  642MOL0     C88522   6.261   7.505   5.074  0.2127  0.0800 -0.2028
  642MOL0     C88523   6.259   7.554   5.181 -0.5627 -0.5225 -1.0577
  642MOL0     C88524   6.644   7.086   4.628  0.3191 -0.2604  0.0756
  642MOL0     C88525   6.749   7.011   4.567 -0.1143 -0.4333  0.0859
  642MOL0     C88526   6.867   6.979   4.645 -0.6103 -0.1585 -1.0256
  642MOL0     H88527   7.144   6.811   4.488  0.7152 -0.1792  0.0153
  642MOL0     H88528   7.349   6.697   4.423 -0.1734 -0.2840 -0.1749
  642MOL0     H88529   7.383   6.624   3.965 -0.8471  1.6051  2.1362
  642MOL0     H88530   7.321   6.470   4.035 -0.0518 -0.2311  0.4466
  642MOL0     H88531   7.556   6.427   4.106  1.2461  0.0932  0.1442
  642MOL0     H88532   7.534   6.430   3.928 -0.8914 -2.4714  1.3431
  642MOL0     H88533   7.620   6.651   3.918  0.9832 -0.4809 -1.7573
  642MOL0     H88534   7.648   6.667   4.090  3.9827 -2.0672  1.4565
  642MOL0     H88535   7.812   6.489   4.088  0.7155  0.0570 -0.0025
  642MOL0     H88536   7.801   6.466   3.923 -0.4531  1.1927  0.1684
  642MOL0     H88537   7.937   6.664   4.097 -0.2735  0.2176 -0.8063
  642MOL0     H88538   7.884   6.744   3.940 -2.1232  1.5303  0.9110
  642MOL0     H88539   8.060   6.508   3.998 -0.9161 -0.1591  0.1360
  642MOL0     H88540   8.005   6.544   3.837 -1.4954 -0.4171 -0.3781
  642MOL0     H88541   8.127   6.748   3.842 -1.8392  1.1926  0.3421
  642MOL0     H88542   8.233   6.634   3.912  1.4180  2.6714  1.1663
  642MOL0     H88543   8.081   6.870   4.057 -0.2281  1.4165 -0.8184
  642MOL0     H88544   8.139   6.728   4.148 -1.1113  0.3149 -0.0983
  642MOL0     H88545   8.266   7.012   3.922  2.9755  0.8647 -2.0609
  642MOL0     H88546   8.511   7.143   3.858  2.8054  1.5339 -0.8498
  642MOL0     H88547   8.638   7.028   3.900  0.5178  2.2698 -0.8212
  642MOL0     H88548   8.518   7.235   4.081 -0.4633  1.7591 -1.3956
  642MOL0     H88549   8.651   7.123   4.116  1.9839 -0.9597 -1.8432
  642MOL0     H88550   8.770   7.242   3.909 -1.4285 -0.4848 -1.6111
  642MOL0     H88551   8.629   7.339   3.898 -0.2749  1.2086  1.5653
  642MOL0     H88552   8.820   7.460   4.033 -1.1930  0.2865  1.4788
  642MOL0     H88553   8.679   7.448   4.128 -0.4437 -2.1075  2.7588
  642MOL0     H88554   8.863   7.157   4.379 -0.6931  0.3283  1.2611
  642MOL0     H88555   8.931   7.115   4.576 -2.6090 -0.2863 -0.6320
  642MOL0     H88556   8.806   7.170   4.669  1.6723 -5.0476 -0.6707
  642MOL0     H88557   8.966   7.233   4.705  2.4931 -1.0639 -1.3188
  642MOL0     H88558   8.880   7.886   4.599 -0.9285  1.8810 -0.8527
  642MOL0     H88559   8.886   8.084   4.751  2.0418  0.9045  1.4114
  642MOL0     H88560   8.998   8.243   4.900 -0.8769  2.1272  0.3448
  642MOL0     H88561   8.824   8.215   4.932  0.0439 -0.7324  1.7112
  642MOL0     H88562   8.864   8.217   5.179  0.7767 -2.3608 -1.1966
  642MOL0     H88563   9.022   8.279   5.155 -0.7444 -0.1425  0.4611
  642MOL0     H88564   8.826   8.468   5.166  0.4617 -0.8841  1.5890
  642MOL0     H88565   8.817   8.431   4.989  1.2645  1.6828 -0.3346
  642MOL0     H88566   9.061   8.466   4.989  1.3984 -1.2553  2.9928
  642MOL0     H88567   9.051   8.509   5.161 -0.4709  0.5740  0.2301
  642MOL0     H88568   8.898   8.662   4.940  0.1335  1.1388  0.4610
  642MOL0     H88569   8.910   8.707   5.110  2.6514 -0.5992  1.1157
  642MOL0     H88570   9.149   8.697   4.932  0.2088 -0.6566 -0.8357
  642MOL0     H88571   9.150   8.738   5.104 -0.6535 -3.4199  1.0412
  642MOL0     H88572   8.979   8.922   5.069  2.0177 -0.4016  1.8605
  642MOL0     H88573   8.987   8.884   4.902 -1.7303 -2.7336  0.5980
  642MOL0     H88574   9.226   8.938   5.083  0.2020  0.6806  0.2581
  642MOL0     H88575   9.123   9.067   5.012 -2.2641 -1.5573  2.4948
  642MOL0     H88576   9.024   7.827   5.068 -0.6277 -2.7031 -0.9052
  642MOL0     H88577   9.031   7.641   4.914  0.5699 -0.1869 -1.1267
  642MOL0     H88578   8.945   7.641   4.420 -2.9680  0.5678  1.6974
  642MOL0     H88579   8.922   7.549   4.208 -0.9081  0.3590 -0.3271
  642MOL0     H88580   7.179   6.690   4.020  1.7204 -1.9107  0.1504
  642MOL0     H88581   6.976   6.796   4.110 -0.3970  0.9982  1.3446
  642MOL0     H88582   6.577   6.934   4.284 -2.0547  3.1003 -1.1208
  642MOL0     H88583   6.402   7.038   4.398 -0.4878 -1.1827  3.1441
  642MOL0     H88584   6.442   7.181   4.812  2.6476  0.9923 -1.9273
  642MOL0     H88585   6.456   7.329   4.718 -5.8326  3.6226 -1.1700
  642MOL0     H88586   6.177   7.220   4.728  0.2008  0.5508  0.3638
  642MOL0     H88587   6.236   7.373   4.680  0.9504 -1.2633 -1.1316
  642MOL0     H88588   6.120   7.322   4.902  0.6017 -1.3682 -2.5423
  642MOL0     H88589   6.268   7.260   4.970 -0.8036 -0.2372  0.5431
  642MOL0     H88590   6.201   7.532   4.871  3.1851  0.0525 -2.0100
  642MOL0     H88591   6.372   7.486   4.895  0.4565 -0.1229  1.9538
  642MOL0     H88592   6.266   7.610   5.272  0.1988 -1.6173 -0.4086
  642MOL0     H88593   6.649   7.131   4.726  1.7892 -2.6421  1.1821
  642MOL0     H88594   6.862   7.000   4.752  2.7608 -0.7638 -0.6404
  642MOL0     H88595   6.884   6.871   4.637 -1.8761 -0.4413 -0.1924
  642MOL0     H88596   6.957   7.033   4.616 -2.1631  4.0458  1.1811
  643MOL0     O88597   1.345   4.991   2.526  0.0069  0.8501 -0.3782
  643MOL0     C88598   1.309   4.943   2.416 -0.0942 -0.6207  0.0157
  643MOL0     O88599   1.384   4.890   2.322 -0.0882 -0.3915 -0.5049
  643MOL0     C88600   1.521   4.891   2.339 -0.0531  0.7467  0.4168
  643MOL0     C88601   1.597   5.006   2.345  0.3461 -0.2897  0.2948
  643MOL0     C88602   1.729   5.004   2.359 -0.0841 -0.5070  0.8208
  643MOL0     C88603   1.807   4.889   2.358 -0.6074  0.6390 -0.6242
  643MOL0     O88604   1.944   4.898   2.365  0.4532  0.2757 -0.4565
  643MOL0     C88605   2.024   4.788   2.404 -0.2461  0.0543  0.4883
  643MOL0     C88606   2.085   4.731   2.274  0.7087 -0.1675  0.5687
  643MOL0     C88607   2.186   4.620   2.301  0.0177 -0.2903 -1.3231
  643MOL0     C88608   2.235   4.547   2.174 -0.7942  0.1237 -0.6319
  643MOL0     C88609   2.144   4.425   2.140  0.0753  0.5898  0.4019
  643MOL0     C88610   2.191   4.366   2.006 -0.1121 -0.1657  0.2730
  643MOL0     C88611   2.109   4.416   1.883 -0.5588  0.0331  0.1690
  643MOL0     C88612   2.130   4.564   1.836 -0.4842  0.2109 -1.4283
  643MOL0     N88613   2.109   4.586   1.693 -0.1012 -0.2280 -0.3502
  643MOL0     C88614   2.213   4.569   1.598 -0.5400 -0.1429 -0.2847
  643MOL0     C88615   2.147   4.579   1.478  0.5311  0.4035 -0.5249
  643MOL0     C88616   2.210   4.573   1.340 -0.8669 -0.0250  0.2456
  643MOL0     C88617   2.362   4.610   1.333 -0.5533 -0.4043  0.3788
  643MOL0     C88618   2.421   4.646   1.194  0.8110 -0.2069  0.0836
  643MOL0     C88619   2.551   4.712   1.214 -0.0791 -0.5600 -0.1535
  643MOL0     O88620   2.654   4.629   1.253 -0.0200 -0.3918 -0.0632
  643MOL0     C88621   2.721   4.649   1.372  0.9731  0.1132  0.7689
  643MOL0     C88622   2.763   4.542   1.445  0.0652  0.1028 -0.8929
  643MOL0     C88623   2.841   4.550   1.565  0.5075  0.4657 -0.3143
  643MOL0     C88624   2.872   4.423   1.636  0.4365  0.1203  0.0729
  643MOL0     C88625   2.882   4.681   1.609 -0.5534 -0.3970 -0.6703
  643MOL0     C88626   2.967   4.714   1.724  1.2756  0.1688 -0.6639
  643MOL0     O88627   2.929   4.657   1.840 -0.9231  0.4140  0.2068
  643MOL0     C88628   3.025   4.660   1.938  0.0570 -0.3894  0.1958
  643MOL0     C88629   3.034   4.771   2.010  0.6908  0.5201  0.2291
  643MOL0     C88630   3.110   4.775   2.134  0.2492  0.9792 -0.5012
  643MOL0     C88631   3.182   4.660   2.182  1.2421 -0.0525  0.3196
  643MOL0     O88632   3.247   4.674   2.300  0.5251  0.1508 -0.7376
  643MOL0     C88633   3.298   4.556   2.361 -0.5859 -0.1125  0.2149
  643MOL0     C88634   3.343   4.576   2.504  0.0518 -0.1684 -0.4346
  643MOL0     C88635   3.484   4.637   2.505 -0.7353  0.2418 -0.1035
  643MOL0     C88636   3.525   4.679   2.637  1.1575  0.0799  0.4252
  643MOL0     C88637   3.671   4.729   2.662 -0.0583 -0.1157 -0.2535
  643MOL0     C88638   3.684   4.874   2.614  0.0793 -0.5848 -0.0995
  643MOL0     C88639   3.820   4.939   2.616  0.1988  0.1348 -0.4076
  643MOL0     C88640   3.814   5.056   2.518  0.1752  1.4588 -0.2789
  643MOL0    Cl88641   3.956   5.156   2.551  0.1512 -0.1113 -0.0295
  643MOL0     C88642   3.169   4.549   2.104  0.6413 -0.1083 -0.7265
  643MOL0     C88643   3.094   4.540   1.983 -0.3039  0.5593  0.7974
  643MOL0     O88644   3.065   4.787   1.711 -0.8160  0.4367 -0.3850
  643MOL0     C88645   2.842   4.789   1.522 -0.6919  0.6118  0.2320
  643MOL0     C88646   2.760   4.771   1.410  0.5146 -0.1173 -0.8725
  643MOL0     N88647   2.010   4.599   1.496  0.3519 -0.5209  0.1121
  643MOL0     N88648   1.985   4.604   1.630 -0.4534 -0.1130 -0.6150
  643MOL0     C88649   1.731   4.770   2.359  1.6629 -0.9823  1.1022
  643MOL0     C88650   1.589   4.773   2.353  0.3112  0.4214  0.9976
  643MOL0     C88651   1.157   4.960   2.377 -0.2056 -0.2215 -0.5519
  643MOL0     C88652   1.079   5.064   2.438  1.7465 -0.2163 -0.2209
  643MOL0     C88653   0.944   5.089   2.414  0.1415 -0.1427 -0.5296
  643MOL0     C88654   0.873   5.005   2.335  0.1797 -0.7790 -0.0229
  643MOL0     O88655   0.740   5.024   2.303 -0.1532  0.7572  0.0311
  643MOL0     C88656   0.657   5.107   2.382  0.4651  0.1622  0.6046
  643MOL0     C88657   0.503   5.106   2.332 -0.8711 -0.1555 -0.0201
  643MOL0     C88658   0.469   5.208   2.229 -0.7505  0.7143  0.4434
  643MOL0     C88659   0.323   5.213   2.190  0.3850 -0.7082  0.4048
  643MOL0     C88660   0.281   5.099   2.100  0.4540 -1.0963  0.5250
  643MOL0     C88661   0.253   5.016   2.024  0.0774 -0.2196 -0.0076
  643MOL0     C88662   0.947   4.901   2.272  0.3508  0.6122  0.2063
  643MOL0     C88663   1.082   4.875   2.290 -0.1349  0.4124  0.1561
  643MOL0     C88664   1.141   4.772   2.205  1.1157  0.5354 -0.2276
  643MOL0     H88665   1.544   5.100   2.334 -2.1347 -1.7335 -0.8768
  643MOL0     H88666   1.787   5.096   2.366 -0.2447 -0.4613  1.5927
  643MOL0     H88667   1.973   4.708   2.457  0.0592 -1.9280 -2.0315
  643MOL0     H88668   2.109   4.825   2.462  1.7603 -0.3173 -2.0446
  643MOL0     H88669   2.004   4.682   2.220  3.0532 -3.0183 -0.6495
  643MOL0     H88670   2.135   4.805   2.211  2.1140 -2.0869 -0.7072
  643MOL0     H88671   2.280   4.667   2.331 -0.9220  1.6448 -1.2405
  643MOL0     H88672   2.137   4.554   2.373 -0.7009 -0.6650 -2.1398
  643MOL0     H88673   2.267   4.619   2.097 -0.0988 -0.7302 -1.1594
  643MOL0     H88674   2.332   4.500   2.193 -2.1982 -3.9636 -2.5435
  643MOL0     H88675   2.037   4.448   2.138 -0.5244 -1.5152  2.8459
  643MOL0     H88676   2.169   4.341   2.205  0.8870 -1.1306 -1.9936
  643MOL0     H88677   2.297   4.385   1.989  0.1561 -2.9129 -1.7630
  643MOL0     H88678   2.181   4.257   2.007 -0.1097 -0.1654  0.3863
  643MOL0     H88679   2.001   4.414   1.899 -0.5540 -0.6886  0.1339
  643MOL0     H88680   2.126   4.351   1.797 -2.1991 -1.4753  0.9202
  643MOL0     H88681   2.059   4.626   1.891 -2.4062 -1.1287 -2.2790
  643MOL0     H88682   2.231   4.600   1.857 -0.4843 -1.3809  2.0302
  643MOL0     H88683   2.320   4.560   1.608  0.1136  5.1075  0.1809
  643MOL0     H88684   2.166   4.649   1.275  1.9733  1.0064 -0.6127
  643MOL0     H88685   2.186   4.473   1.302  0.8051 -0.5970  0.6228
  643MOL0     H88686   2.375   4.704   1.388  0.3706 -0.0289 -0.4673
  643MOL0     H88687   2.419   4.529   1.378 -0.0101 -0.9111 -1.1620
  643MOL0     H88688   2.442   4.553   1.142  3.7699 -0.2027  1.1272
  643MOL0     H88689   2.358   4.715   1.137  2.4999  2.1573  0.8766
  643MOL0     H88690   2.577   4.752   1.116 -2.0243 -2.4160 -1.5069
  643MOL0     H88691   2.539   4.799   1.279  0.3281  0.8163 -1.8712
  643MOL0     H88692   2.737   4.444   1.407  2.1446 -0.7597 -0.2094
  643MOL0     H88693   2.840   4.436   1.740  0.3020 -0.9528  0.1811
  643MOL0     H88694   2.980   4.406   1.642  0.1630 -2.2050 -0.5761
  643MOL0     H88695   2.822   4.341   1.583 -0.7256  1.7389 -1.4684
  643MOL0     H88696   2.976   4.859   1.984  2.6709  2.1676  1.1199
  643MOL0     H88697   3.122   4.861   2.199  1.7176 -1.0653  2.1423
  643MOL0     H88698   3.217   4.484   2.354 -0.5927  0.0173 -1.5185
  643MOL0     H88699   3.372   4.517   2.291 -2.2517 -2.6619 -0.2698
  643MOL0     H88700   3.283   4.641   2.568  2.4118  0.8095  0.9202
  643MOL0     H88701   3.346   4.482   2.560 -0.3407  0.3020  0.3952
  643MOL0     H88702   3.483   4.724   2.439  0.5952  1.1353  0.9971
  643MOL0     H88703   3.550   4.566   2.455 -0.0182  0.3674  0.6283
  643MOL0     H88704   3.507   4.602   2.713  1.2358 -0.7103 -0.3454
  643MOL0     H88705   3.458   4.764   2.650 -0.0106 -0.6052 -0.9180
  643MOL0     H88706   3.695   4.726   2.769  1.4887 -0.4079 -0.5845
  643MOL0     H88707   3.747   4.668   2.614 -0.5200 -0.1406 -0.9701
  643MOL0     H88708   3.620   4.929   2.684  0.3270  3.1592 -2.4915
  643MOL0     H88709   3.643   4.893   2.514  0.4533 -1.0439 -0.3422
  643MOL0     H88710   3.901   4.869   2.590  0.4519 -1.1171  3.2020
  643MOL0     H88711   3.856   4.976   2.712  1.3797  2.5559 -1.6712
  643MOL0     H88712   3.721   5.107   2.541 -0.7028 -0.0866 -0.2887
  643MOL0     H88713   3.813   5.018   2.415 -0.0659  0.0112  0.2414
  643MOL0     H88714   3.219   4.455   2.123 -0.2940 -0.1013  2.3758
  643MOL0     H88715   3.079   4.445   1.933  1.0109  1.3730 -1.2767
  643MOL0     H88716   2.861   4.892   1.551 -0.2972 -0.3285  3.9248
  643MOL0     H88717   2.735   4.855   1.345 -1.7159  0.6974  0.9259
  643MOL0     H88718   1.772   4.669   2.361 -0.9116 -2.1281  1.0954
  643MOL0     H88719   1.531   4.681   2.358  1.0017  0.0423  2.9262
  643MOL0     H88720   1.121   5.132   2.512 -0.7820  1.2397 -0.0205
  643MOL0     H88721   0.901   5.172   2.469 -1.1120 -1.2594  0.2397
  643MOL0     H88722   0.657   5.079   2.487 -1.0189 -0.3754  0.4885
  643MOL0     H88723   0.703   5.206   2.378  1.4036 -0.2926 -1.6955
  643MOL0     H88724   0.428   5.116   2.410 -2.3327 -2.0892 -1.0946
  643MOL0     H88725   0.477   5.009   2.289  1.4094 -0.6506 -0.4164
  643MOL0     H88726   0.496   5.298   2.285  3.0355 -0.8178  1.3756
  643MOL0     H88727   0.531   5.197   2.140 -1.1602  0.5545  0.1789
  643MOL0     H88728   0.306   5.304   2.133  1.9953  0.3449  1.5317
  643MOL0     H88729   0.258   5.229   2.277 -0.5954  1.6157 -0.6811
  643MOL0     H88730   0.237   4.934   1.956  2.0679 -1.4960  0.9809
  643MOL0     H88731   0.891   4.829   2.213 -0.1729 -1.3218  2.8589
  643MOL0     H88732   1.221   4.831   2.159  3.6811 -0.5640  2.4954
  643MOL0     H88733   1.175   4.685   2.262 -3.1508  0.1745  2.2264
  643MOL0     H88734   1.075   4.737   2.124  0.4928  0.1122  0.4454
  644MOL0     O88735   3.108   0.981  10.338  0.1324 -0.2466 -0.1873
  644MOL0     C88736   3.071   1.076  10.406 -0.5514 -0.5423  0.7810
  644MOL0     O88737   2.967   1.153  10.367 -0.8003 -0.4116 -0.5909
  644MOL0     C88738   2.882   1.097  10.276 -0.2641  1.0308  0.1366
  644MOL0     C88739   2.850   1.165  10.161  0.0691 -0.3045  1.4382
  644MOL0     C88740   2.737   1.141  10.080 -0.5164  0.4229  0.1684
  644MOL0     C88741   2.662   1.035  10.111  0.1743  0.7198  0.5371
  644MOL0     O88742   2.542   0.998  10.053  0.4641 -0.1881  0.3659
  644MOL0     C88743   2.531   1.035   9.909  0.3555 -0.4597 -0.2945
  644MOL0     C88744   2.394   1.000   9.863  0.4181 -0.1612  0.1436
  644MOL0     C88745   2.385   0.846   9.838  0.1217 -0.4085  0.6039
  644MOL0     C88746   2.258   0.797   9.764 -0.8491 -0.1063 -0.2859
  644MOL0     C88747   2.250   0.642   9.755  0.2266 -0.4021 -0.2528
  644MOL0     C88748   2.334   0.585   9.643  0.5629 -1.0347  0.0923
  644MOL0     C88749   2.329   0.429   9.634 -0.4438 -0.6963  0.0097
  644MOL0     C88750   2.196   0.367   9.595  0.6221  1.1086  0.3140
  644MOL0     N88751   2.125   0.417   9.475  0.2980  0.3927 -0.0514
  644MOL0     C88752   2.064   0.537   9.449 -0.1398  0.2658 -0.1875
  644MOL0     C88753   2.036   0.532   9.313  0.0964  1.2234 -0.4853
  644MOL0     C88754   1.960   0.630   9.235  0.0104 -0.2000  0.1233
  644MOL0     C88755   1.805   0.592   9.248 -0.3659 -0.3019 -0.6399
  644MOL0     C88756   1.712   0.694   9.171 -0.6075 -0.1996 -0.6304
  644MOL0     C88757   1.562   0.666   9.212 -0.0155 -0.5202  1.3981
  644MOL0     O88758   1.533   0.702   9.347 -0.0734 -0.1852 -0.6520
  644MOL0     C88759   1.402   0.693   9.387  0.3625  0.7951 -1.0252
  644MOL0     C88760   1.371   0.714   9.519 -1.2441 -0.7811  0.1747
  644MOL0     C88761   1.239   0.711   9.572  0.5606  0.7972 -0.1808
  644MOL0     C88762   1.226   0.740   9.720  0.1094  0.0867  1.3487
  644MOL0     C88763   1.129   0.669   9.486  0.4452  0.6489 -0.7269
  644MOL0     C88764   0.986   0.641   9.540 -0.5683  1.0025  0.1391
  644MOL0     O88765   0.892   0.609   9.441  0.7667 -0.3767 -0.3868
  644MOL0     C88766   0.762   0.587   9.477  0.1186  0.1228 -0.5539
  644MOL0     C88767   0.698   0.640   9.584  0.8119  0.3903 -0.4435
  644MOL0     C88768   0.570   0.601   9.618 -0.0469 -0.1087 -0.0006
  644MOL0     C88769   0.495   0.523   9.529  0.3538 -0.9517  0.2948
  644MOL0     O88770   0.363   0.506   9.550 -0.6148 -0.2004  0.4336
  644MOL0     C88771   0.335   0.415   9.653  0.7218  1.0867 -0.5241
  644MOL0     C88772   0.180   0.397   9.646  0.0002  0.0231  0.4536
  644MOL0     C88773   0.128   0.308   9.532  0.2652  0.2551  1.6262
  644MOL0     C88774  -0.021   0.305   9.540 -0.0816 -0.0367 -0.1353
  644MOL0     C88775  -0.088   0.193   9.459  0.1017 -0.4949  0.8887
  644MOL0     C88776  -0.240   0.166   9.458 -0.3442 -0.2071 -0.2056
  644MOL0     C88777  -0.273   0.044   9.367  0.3764 -0.5110 -0.0960
  644MOL0     C88778  -0.228  -0.095   9.410  0.6019 -0.3924 -0.5021
  644MOL0    Cl88779  -0.286  -0.226   9.312  0.1489  0.1652 -0.1984
  644MOL0     C88780   0.556   0.469   9.416 -1.1672  0.1136  0.5126
  644MOL0     C88781   0.694   0.490   9.400 -0.7223 -0.4239  0.2963
  644MOL0     O88782   0.972   0.637   9.663 -0.2838  0.4396  0.0692
  644MOL0     C88783   1.162   0.649   9.349  0.7266 -0.4078 -0.3548
  644MOL0     C88784   1.295   0.654   9.305 -0.1112 -0.1259  0.2351
  644MOL0     N88785   2.070   0.407   9.264 -0.4409 -0.1107  0.4173
  644MOL0     N88786   2.121   0.343   9.358 -0.3996  0.9545  0.5673
  644MOL0     C88787   2.697   0.952  10.222 -0.0017 -0.3021 -0.0183
  644MOL0     C88788   2.809   0.987  10.311 -0.2154 -0.1550  0.2710
  644MOL0     C88789   3.134   1.110  10.532  0.4042  0.1560 -0.0377
  644MOL0     C88790   3.052   1.119  10.645  0.1969  0.2213 -0.4857
  644MOL0     C88791   3.110   1.130  10.773  0.1915 -0.4851 -0.4130
  644MOL0     C88792   3.242   1.114  10.800 -0.9154 -0.1400 -0.2266
  644MOL0     O88793   3.279   1.123  10.930 -0.0248  0.1584  0.2577
  644MOL0     C88794   3.416   1.084  10.958  0.0352 -0.6643  0.2266
  644MOL0     C88795   3.425   1.058  11.104 -0.3062 -1.2138  0.2038
  644MOL0     C88796   3.403   1.190  11.171  0.1914 -0.3537 -0.2842
  644MOL0     C88797   3.392   1.188  11.328  0.0319  0.1188  0.7205
  644MOL0     C88798   3.251   1.151  11.356 -0.7855 -0.1017 -0.2222
  644MOL0     C88799   3.138   1.115  11.379 -0.0094 -0.5638  0.2305
  644MOL0     C88800   3.326   1.108  10.687  0.2110  0.5210  0.4055
  644MOL0     C88801   3.277   1.097  10.553  1.4077  0.0128 -0.0907
  644MOL0     C88802   3.376   1.102  10.443 -0.4654  0.1059 -1.2044
  644MOL0     H88803   2.911   1.253  10.148  0.4938 -0.4173  2.5527
  644MOL0     H88804   2.715   1.210   9.999  1.1444 -0.4143 -1.0495
  644MOL0     H88805   2.603   0.989   9.841  1.5618  1.0265 -0.0928
  644MOL0     H88806   2.544   1.143   9.900  1.0667 -0.4525  0.5919
  644MOL0     H88807   2.318   1.041   9.931  0.0764  1.5764 -1.2212
  644MOL0     H88808   2.377   1.053   9.769  0.6169  3.6581  2.0821
  644MOL0     H88809   2.478   0.831   9.783  0.8840  4.6235  0.0964
  644MOL0     H88810   2.388   0.805   9.939  1.0907  0.7887  1.0744
  644MOL0     H88811   2.180   0.842   9.827  2.2843  2.7163  1.9863
  644MOL0     H88812   2.247   0.840   9.664 -0.1122  0.7680 -0.0147
  644MOL0     H88813   2.143   0.627   9.740 -0.6099  1.1776  3.1699
  644MOL0     H88814   2.267   0.591   9.850 -0.8348 -0.5127 -0.1148
  644MOL0     H88815   2.304   0.635   9.550 -1.4699 -2.9738 -0.3817
  644MOL0     H88816   2.438   0.606   9.668  0.5787  0.5607 -1.1948
  644MOL0     H88817   2.372   0.398   9.730  0.6452 -0.2836 -0.3280
  644MOL0     H88818   2.400   0.408   9.554  0.4577 -0.7874  0.8073
  644MOL0     H88819   2.215   0.260   9.588 -1.1063  0.5743  2.6429
  644MOL0     H88820   2.125   0.372   9.678 -2.2632  0.2643 -1.9369
  644MOL0     H88821   2.030   0.619   9.512 -0.0077  1.0867 -1.1565
  644MOL0     H88822   1.970   0.628   9.126  0.0929 -0.1111  0.1292
  644MOL0     H88823   1.982   0.734   9.262  0.7562  0.1334 -1.6573
  644MOL0     H88824   1.796   0.491   9.207  0.1201 -0.4965 -0.2911
  644MOL0     H88825   1.777   0.591   9.354 -1.6139  2.6649 -0.8634
  644MOL0     H88826   1.743   0.796   9.197 -0.5606 -0.0895 -1.0973
  644MOL0     H88827   1.723   0.680   9.063  2.1502  2.0320 -0.7560
  644MOL0     H88828   1.498   0.727   9.149  0.8548 -0.9665  0.0410
  644MOL0     H88829   1.521   0.568   9.186 -0.3686  0.3560 -1.7371
  644MOL0     H88830   1.442   0.734   9.599 -2.8733 -2.1088  2.0464
  644MOL0     H88831   1.171   0.832   9.742  3.1509  2.2097  0.7693
  644MOL0     H88832   1.320   0.755   9.773  0.0606  0.4049  1.3501
  644MOL0     H88833   1.190   0.649   9.769 -1.6157 -0.9920 -1.6913
  644MOL0     H88834   0.755   0.718   9.634 -0.2366  2.7703 -2.6601
  644MOL0     H88835   0.522   0.640   9.707 -2.0754 -2.1471 -0.1007
  644MOL0     H88836   0.373   0.313   9.647  2.5067  1.5845  1.0856
  644MOL0     H88837   0.360   0.458   9.751 -0.2617 -0.8298  0.6040
  644MOL0     H88838   0.150   0.367   9.746  0.1290 -0.3939  0.3698
  644MOL0     H88839   0.136   0.497   9.638  0.6102  0.2150 -0.8262
  644MOL0     H88840   0.169   0.207   9.548  2.1980  1.1333  2.4831
  644MOL0     H88841   0.170   0.350   9.440 -1.2517 -1.5305  0.0253
  644MOL0     H88842  -0.052   0.407   9.513  1.5348  0.9346  1.4270
  644MOL0     H88843  -0.054   0.284   9.642  0.3947 -3.2093 -0.5260
  644MOL0     H88844  -0.070   0.224   9.355 -1.3782  1.3345  1.1176
  644MOL0     H88845  -0.041   0.096   9.476 -0.7870 -1.7304 -2.6851
  644MOL0     H88846  -0.283   0.257   9.415  0.8434  0.2125 -0.5719
  644MOL0     H88847  -0.285   0.142   9.555 -1.5107  1.6520 -0.2344
  644MOL0     H88848  -0.234   0.062   9.267 -0.1518 -0.3996 -0.2873
  644MOL0     H88849  -0.382   0.041   9.362  0.3834  0.8239 -1.5111
  644MOL0     H88850  -0.268  -0.111   9.511 -0.2681  0.9626 -0.6012
  644MOL0     H88851  -0.119  -0.099   9.419  0.5885 -0.8031 -0.5209
  644MOL0     H88852   0.508   0.410   9.340 -0.3077 -1.5825  1.2419
  644MOL0     H88853   0.762   0.437   9.334  0.8187  1.7493  0.0207
  644MOL0     H88854   1.081   0.631   9.279  0.1684  0.3018  0.0891
  644MOL0     H88855   1.303   0.613   9.205 -2.4880  1.2082 -0.5615
  644MOL0     H88856   2.636   0.865  10.246  2.3891 -2.5167 -1.4675
  644MOL0     H88857   2.839   0.929  10.398  4.3700  2.8862  1.0784
  644MOL0     H88858   2.946   1.104  10.633  0.3231  0.9984 -3.4233
  644MOL0     H88859   3.052   1.141  10.864 -0.9380 -0.7795 -1.0825
  644MOL0     H88860   3.431   0.990  10.902 -0.1771 -0.3866 -0.3082
  644MOL0     H88861   3.484   1.164  10.926 -3.0129  1.3035 -1.9015
  644MOL0     H88862   3.528   1.025  11.124 -0.4704 -1.2105  1.0908
  644MOL0     H88863   3.359   0.981  11.144 -1.4249 -0.2345  0.3017
  644MOL0     H88864   3.487   1.255  11.145 -0.0128  0.4445  0.9568
  644MOL0     H88865   3.315   1.241  11.130  0.7773  0.2508 -0.8057
  644MOL0     H88866   3.414   1.287  11.370  3.0276  0.2123 -0.7910
  644MOL0     H88867   3.465   1.112  11.358 -0.2090 -2.0214 -3.4467
  644MOL0     H88868   3.032   1.113  11.398 -0.2803  1.5429 -0.7758
  644MOL0     H88869   3.434   1.117  10.694  0.6360 -1.5950 -1.9252
  644MOL0     H88870   3.355   1.013  10.383 -0.8814 -0.6826  0.0862
  644MOL0     H88871   3.359   1.194  10.385 -2.2055  1.1160  0.7740
  644MOL0     H88872   3.483   1.113  10.458 -0.1306 -1.6337 -2.1108
  645MOL0     O88873   1.958   3.801  11.252  0.5321 -0.1928  0.1105
  645MOL0     C88874   1.944   3.735  11.145 -0.6769 -0.6014  1.3341
  645MOL0     O88875   2.008   3.621  11.108 -0.3717  0.0605 -0.0913
  645MOL0     C88876   2.066   3.533  11.198 -0.1172 -0.3066 -0.4039
  645MOL0     C88877   1.991   3.429  11.260  0.3738 -0.6435 -0.4126
  645MOL0     C88878   2.053   3.332  11.339 -0.3419 -1.4188  1.0251
  645MOL0     C88879   2.190   3.344  11.361 -0.2453 -0.5178  0.1775
  645MOL0     O88880   2.244   3.258  11.452 -0.3531 -0.1788 -0.3296
  645MOL0     C88881   2.376   3.198  11.446 -0.2256  0.4539  0.2119
  645MOL0     C88882   2.359   3.055  11.500  1.0284  0.4795  0.0628
  645MOL0     C88883   2.497   2.992  11.530 -0.4888 -0.8853  0.3410
  645MOL0     C88884   2.470   2.861  11.608  0.0712 -0.7920 -0.5347
  645MOL0     C88885   2.606   2.792  11.629  0.0846 -0.3580 -0.1439
  645MOL0     C88886   2.589   2.663  11.706 -0.2702  0.3887 -0.5122
  645MOL0     C88887   2.724   2.601  11.756  0.2085 -0.3662 -0.5766
  645MOL0     C88888   2.810   2.530  11.656 -0.0414  0.5554  0.9181
  645MOL0     N88889   2.927   2.488  11.741  0.6964  0.5219 -0.6382
  645MOL0     C88890   3.020   2.569  11.807 -0.2631  0.2085  0.3893
  645MOL0     C88891   3.087   2.493  11.897  0.2808  0.2225 -0.0317
  645MOL0     C88892   3.220   2.544  11.968 -0.2023  0.2330 -0.0757
  645MOL0     C88893   3.284   2.446  12.058 -0.3618 -0.3367 -0.2699
  645MOL0     C88894   3.362   2.332  11.986  0.8926  0.0767 -0.2941
  645MOL0     C88895   3.439   2.249  12.087 -0.6004  0.4312 -0.2330
  645MOL0     O88896   3.517   2.146  12.026  0.5269 -0.2234  0.4547
  645MOL0     C88897   3.648   2.172  12.020 -0.8987 -0.3317  0.2779
  645MOL0     C88898   3.738   2.150  12.122  0.2062 -0.3333 -0.6218
  645MOL0     C88899   3.871   2.175  12.102  0.1089  0.2149  0.1346
  645MOL0     C88900   3.970   2.153  12.212 -0.3983  0.5773 -0.0629
  645MOL0     C88901   3.915   2.242  11.989 -0.1337  0.5872  0.6494
  645MOL0     C88902   4.056   2.264  11.953  0.2756 -0.5877 -0.9751
  645MOL0     O88903   4.082   2.258  11.821  0.3260  0.4262 -0.2581
  645MOL0     C88904   4.201   2.243  11.759 -0.9887 -1.1532 -0.2546
  645MOL0     C88905   4.211   2.258  11.623 -0.3911  0.2625  0.4763
  645MOL0     C88906   4.340   2.264  11.563 -0.9022 -0.2804  1.0186
  645MOL0     C88907   4.456   2.231  11.627 -1.3748  0.1288 -0.2297
  645MOL0     O88908   4.577   2.200  11.558 -0.1990  0.3439  0.0551
  645MOL0     C88909   4.706   2.205  11.621 -0.0714  0.5552  0.4903
  645MOL0     C88910   4.817   2.249  11.527 -0.7926 -0.2926  0.2568
  645MOL0     C88911   4.859   2.136  11.429  0.6416 -0.1282 -0.3043
  645MOL0     C88912   4.920   2.190  11.305  0.1677  0.4003  0.3870
  645MOL0     C88913   4.935   2.092  11.184 -0.2263  0.8570  0.5113
  645MOL0     C88914   4.996   2.154  11.054  0.6300 -0.4672 -0.6442
  645MOL0     C88915   5.066   2.062  10.959 -0.3489  0.8170  0.6413
  645MOL0     C88916   4.997   1.976  10.857 -0.0536 -0.3214 -0.0516
  645MOL0    Cl88917   5.066   1.985  10.689  0.3158 -0.1494  0.3309
  645MOL0     C88918   4.446   2.207  11.766  0.3726 -0.3138 -0.2379
  645MOL0     C88919   4.319   2.203  11.828  0.3833  0.6261 -0.2757
  645MOL0     O88920   4.129   2.323  12.037 -0.1631  0.3000  0.5525
  645MOL0     C88921   3.822   2.264  11.883  0.1980  0.4173 -0.9072
  645MOL0     C88922   3.693   2.226  11.899 -0.3793  0.6439  0.1242
  645MOL0     N88923   3.042   2.360  11.872 -0.3861  1.0512 -0.1250
  645MOL0     N88924   2.953   2.361  11.781  0.2487 -0.3521 -0.3486
  645MOL0     C88925   2.263   3.447  11.298  1.1177 -0.2120  0.7188
  645MOL0     C88926   2.203   3.544  11.224 -0.0233  0.4460  0.2613
  645MOL0     C88927   1.875   3.817  11.038  0.4232  0.3877 -0.5008
  645MOL0     C88928   1.914   3.951  11.025 -0.9778 -0.2124  0.3738
  645MOL0     C88929   1.868   4.038  10.928  0.5543  0.6656  0.0770
  645MOL0     C88930   1.765   3.994  10.851 -0.0239  0.3892  0.2725
  645MOL0     O88931   1.698   4.073  10.761  0.5181 -0.2130 -0.1800
  645MOL0     C88932   1.767   4.171  10.676 -0.3368  0.2957  0.2179
  645MOL0     C88933   1.743   4.157  10.524  0.0013 -0.1530  0.1444
  645MOL0     C88934   1.610   4.219  10.474  0.6503  0.5155 -0.0133
  645MOL0     C88935   1.490   4.142  10.538 -0.1908  0.8591 -0.2906
  645MOL0     C88936   1.485   4.001  10.505 -0.0099 -0.1181 -0.0436
  645MOL0     C88937   1.466   3.886  10.476 -0.0492  0.0345  0.4632
  645MOL0     C88938   1.709   3.864  10.873  0.7357 -0.4517 -0.8792
  645MOL0     C88939   1.765   3.777  10.968  0.4626 -0.3310 -0.7888
  645MOL0     C88940   1.716   3.635  10.983  0.4215  0.0769 -0.0305
  645MOL0     H88941   1.884   3.445  11.245 -0.1788  0.9051  3.8172
  645MOL0     H88942   1.989   3.263  11.392 -1.1868 -1.2732  0.2212
  645MOL0     H88943   2.451   3.251  11.505  3.9019 -1.9822 -2.3449
  645MOL0     H88944   2.429   3.200  11.350  2.3053  1.1265  1.5394
  645MOL0     H88945   2.302   3.055  11.594  0.8979  0.8659 -0.0104
  645MOL0     H88946   2.302   2.997  11.427 -0.9211  2.6027 -0.2368
  645MOL0     H88947   2.537   2.973  11.429 -1.0504  0.9555 -0.2628
  645MOL0     H88948   2.552   3.070  11.583 -0.7342  0.7488 -1.6535
  645MOL0     H88949   2.432   2.885  11.707  1.1064  1.7064 -0.6708
  645MOL0     H88950   2.417   2.791  11.543  1.1281  0.6335 -3.0824
  645MOL0     H88951   2.667   2.859  11.691  0.5270 -2.1774  1.5101
  645MOL0     H88952   2.654   2.785  11.531  0.9545 -0.0148  0.2504
  645MOL0     H88953   2.525   2.672  11.795  3.1270 -0.0774  2.1971
  645MOL0     H88954   2.549   2.587  11.638  1.2602 -0.8866 -0.0589
  645MOL0     H88955   2.697   2.525  11.830  0.8568 -0.6862 -0.6660
  645MOL0     H88956   2.785   2.682  11.796  3.2674 -1.4794 -2.6116
  645MOL0     H88957   2.761   2.444  11.610  1.6952  0.2820 -0.5226
  645MOL0     H88958   2.851   2.591  11.576  0.1382 -0.5651  0.1277
  645MOL0     H88959   3.053   2.668  11.779  1.8435 -0.7330 -0.7371
  645MOL0     H88960   3.176   2.617  12.037 -1.0915 -1.3690  1.1393
  645MOL0     H88961   3.280   2.587  11.888  0.4273  1.6667  1.1135
  645MOL0     H88962   3.361   2.510  12.104 -2.0193  1.1883  0.5272
  645MOL0     H88963   3.228   2.397  12.138 -0.0500 -1.2347 -0.5980
  645MOL0     H88964   3.299   2.272  11.920  2.3792 -0.1947 -1.5136
  645MOL0     H88965   3.425   2.379  11.910 -0.1444  0.4380 -0.9500
  645MOL0     H88966   3.498   2.321  12.144  0.3514 -0.1054 -0.5190
  645MOL0     H88967   3.375   2.200  12.160  1.7113 -1.2868  0.7741
  645MOL0     H88968   3.708   2.119  12.222  1.2811 -0.8120 -0.4331
  645MOL0     H88969   3.919   2.092  12.288 -2.7352 -1.3496 -2.9584
  645MOL0     H88970   4.012   2.244  12.256 -0.1700  1.1399 -1.4244
  645MOL0     H88971   4.063   2.105  12.182  0.0658  1.0231  0.6089
  645MOL0     H88972   4.127   2.302  11.570  1.5717  2.1535 -1.2772
  645MOL0     H88973   4.358   2.297  11.462  1.9647  1.5731  2.0075
  645MOL0     H88974   4.707   2.270  11.710  0.6614  1.3512 -0.0840
  645MOL0     H88975   4.727   2.103  11.657  0.4295  0.2291 -0.6716
  645MOL0     H88976   4.770   2.333  11.475 -0.4382 -0.9456 -1.1486
  645MOL0     H88977   4.905   2.283  11.583 -0.2252 -0.6014 -0.4419
  645MOL0     H88978   4.774   2.068  11.421 -0.7934  0.8477  3.9001
  645MOL0     H88979   4.939   2.071  11.465  1.6944  2.2341  1.9719
  645MOL0     H88980   5.015   2.237  11.335  1.0039 -0.6418 -0.5250
  645MOL0     H88981   4.852   2.269  11.273  0.1941 -0.4131 -1.9271
  645MOL0     H88982   4.998   2.009  11.219 -1.8093 -0.8743 -0.5864
  645MOL0     H88983   4.836   2.049  11.168 -0.1505  0.7561  0.3199
  645MOL0     H88984   5.074   2.215  11.100 -0.4565  0.5011 -0.0281
  645MOL0     H88985   4.918   2.219  11.012  1.4908 -0.0597 -1.6431
  645MOL0     H88986   5.140   1.994  11.003  0.3338 -0.6260 -2.4271
  645MOL0     H88987   5.118   2.137  10.899 -0.7835 -0.3904 -1.3199
  645MOL0     H88988   4.892   2.004  10.849  0.0514  0.5241  1.3262
  645MOL0     H88989   5.003   1.870  10.884 -0.3827 -0.9215 -2.0955
  645MOL0     H88990   4.529   2.190  11.834 -1.7686 -2.1070  2.1124
  645MOL0     H88991   4.305   2.173  11.931 -4.1415 -2.0639 -1.4222
  645MOL0     H88992   3.853   2.307  11.788  0.1075  0.4458 -0.9240
  645MOL0     H88993   3.617   2.234  11.822 -0.1041  2.1966 -0.0089
  645MOL0     H88994   2.369   3.458  11.319  1.0512 -0.5441  1.2260
  645MOL0     H88995   2.260   3.622  11.176 -0.1293  1.1401  1.2381
  645MOL0     H88996   1.989   3.995  11.090 -0.9796 -1.8667  1.5569
  645MOL0     H88997   1.914   4.133  10.907  0.5157 -0.0416 -4.0316
  645MOL0     H88998   1.720   4.262  10.717 -0.0545  0.1336  0.9138
  645MOL0     H88999   1.873   4.169  10.703 -0.1386 -3.6886 -0.2670
  645MOL0     H89000   1.771   4.057  10.491  0.4898 -0.0955  0.3803
  645MOL0     H89001   1.827   4.214  10.484  1.8139 -0.6465  3.0167
  645MOL0     H89002   1.593   4.324  10.501  0.0849 -0.1143  2.2769
  645MOL0     H89003   1.604   4.220  10.365  1.1397  2.3485 -0.0541
  645MOL0     H89004   1.398   4.183  10.494 -0.7880  0.9035  0.9455
  645MOL0     H89005   1.476   4.160  10.645 -1.5221 -2.4280  0.2244
  645MOL0     H89006   1.461   3.779  10.478  3.4711 -0.2598  0.0986
  645MOL0     H89007   1.625   3.844  10.808  0.6090  2.1280 -1.6395
  645MOL0     H89008   1.624   3.624  10.925 -0.3919 -5.1822  1.7662
  645MOL0     H89009   1.780   3.560  10.938  2.3612  1.1639  0.7913
  645MOL0     H89010   1.688   3.591  11.080  0.7826 -0.9842 -0.3950
  646MOL0     O89011  11.152   2.813   6.644  0.9026 -0.5641 -0.4436
  646MOL0     C89012  11.165   2.727   6.726  0.3370  0.5513  0.1806
  646MOL0     O89013  11.115   2.601   6.719  0.2582  0.4340  0.8798
  646MOL0     C89014  11.029   2.575   6.615  0.2240 -0.4787  0.2012
  646MOL0     C89015  10.907   2.504   6.638  0.2279 -0.5288  0.1280
  646MOL0     C89016  10.823   2.457   6.539 -0.2178  0.2876 -0.1184
  646MOL0     C89017  10.834   2.520   6.412 -1.6730  0.1772  0.5200
  646MOL0     O89018  10.751   2.486   6.309  0.0257 -0.0424  0.9481
  646MOL0     C89019  10.766   2.347   6.266 -0.1824  0.4090  0.2839
  646MOL0     C89020  10.658   2.312   6.164  1.3059  0.0177  0.3903
  646MOL0     C89021  10.512   2.317   6.225 -0.3081 -0.1392 -0.2604
  646MOL0     C89022  10.404   2.303   6.121 -0.1488 -0.5110 -0.2604
  646MOL0     C89023  10.265   2.306   6.193 -0.3125 -0.0847  1.1947
  646MOL0     C89024  10.218   2.453   6.218 -0.1580 -1.0062  0.0433
  646MOL0     C89025  10.103   2.464   6.318  0.4663 -0.3280  1.0216
  646MOL0     C89026  10.028   2.595   6.306 -1.0064  0.0637  0.3397
  646MOL0     N89027   9.953   2.626   6.431 -0.1440  0.5136  0.3881
  646MOL0     C89028   9.993   2.713   6.534  0.2362 -0.1532 -0.1390
  646MOL0     C89029   9.893   2.718   6.617 -0.3030  0.9732 -0.0323
  646MOL0     C89030   9.888   2.793   6.752  1.0334  0.9285  0.0083
  646MOL0     C89031   9.959   2.927   6.762 -0.8514  0.7664  0.3880
  646MOL0     C89032   9.939   3.019   6.889 -0.2286 -1.2867  0.9538
  646MOL0     C89033  10.033   3.145   6.890 -0.0474  0.6449  0.2286
  646MOL0     O89034  10.000   3.244   6.789  0.3715  0.0449 -0.3793
  646MOL0     C89035  10.027   3.378   6.816 -0.0719  0.1062  0.2911
  646MOL0     C89036  10.096   3.431   6.935  0.5920  0.9752  0.7232
  646MOL0     C89037  10.097   3.570   6.965 -0.1584  0.1124  0.9446
  646MOL0     C89038  10.160   3.597   7.099 -0.0694 -0.8226  0.3000
  646MOL0     C89039  10.042   3.659   6.864 -0.7843 -0.3854 -0.0924
  646MOL0     C89040  10.057   3.806   6.883 -1.1667  0.4995 -1.3046
  646MOL0     O89041  10.080   3.877   6.766  0.0100 -0.1796  0.5131
  646MOL0     C89042  10.070   4.009   6.762  0.3924  0.0142  0.6461
  646MOL0     C89043  10.113   4.063   6.643  0.2400 -0.4757  0.6290
  646MOL0     C89044  10.120   4.205   6.623  0.4894  0.2475 -0.0710
  646MOL0     C89045  10.080   4.295   6.729 -0.0805 -0.0023  0.0108
  646MOL0     O89046  10.072   4.430   6.721  0.2914  0.3755 -0.6012
  646MOL0     C89047  10.012   4.483   6.608 -0.5942  0.4122 -0.0373
  646MOL0     C89048   9.853   4.479   6.626 -0.2929 -0.1548 -0.5698
  646MOL0     C89049   9.762   4.583   6.560  0.0798  0.7574  0.6942
  646MOL0     C89050   9.745   4.535   6.409 -0.5713 -0.0014  0.2241
  646MOL0     C89051   9.717   4.652   6.305  0.6954  0.5013  0.5824
  646MOL0     C89052   9.696   4.587   6.160 -0.8403 -0.1812 -0.7223
  646MOL0     C89053   9.667   4.695   6.047  0.7669  0.1641 -0.6848
  646MOL0     C89054   9.538   4.659   5.974  0.0201 -0.9087 -0.4080
  646MOL0    Cl89055   9.476   4.809   5.888 -0.3252  0.5787 -0.2673
  646MOL0     C89056  10.048   4.241   6.850 -0.4474 -0.4502  0.2695
  646MOL0     C89057  10.043   4.100   6.869 -0.1912  0.0233  0.2624
  646MOL0     O89058  10.027   3.857   6.993 -0.9065  0.5767 -0.0704
  646MOL0     C89059   9.988   3.611   6.746  0.4492 -1.0195 -0.2419
  646MOL0     C89060   9.973   3.476   6.728  0.2588  0.1940  0.8354
  646MOL0     N89061   9.794   2.635   6.581 -0.0869  0.2041  0.1441
  646MOL0     N89062   9.829   2.584   6.467  0.7533  0.6162 -0.4732
  646MOL0     C89063  10.948   2.591   6.374  1.1000 -0.3241  0.5761
  646MOL0     C89064  11.051   2.614   6.472  0.6341  1.0125 -0.1458
  646MOL0     C89065  11.240   2.759   6.854 -0.1467 -0.3996  0.0259
  646MOL0     C89066  11.259   2.652   6.953  0.5835 -0.0905 -0.0048
  646MOL0     C89067  11.337   2.669   7.066 -0.1897  0.1523  0.3924
  646MOL0     C89068  11.397   2.792   7.089  0.0179  0.2455 -0.3732
  646MOL0     O89069  11.487   2.807   7.193  0.3742  1.1184  0.1180
  646MOL0     C89070  11.591   2.896   7.188 -0.3715 -0.1405 -0.0120
  646MOL0     C89071  11.691   2.854   7.073  0.0772  0.5684  0.6576
  646MOL0     C89072  11.828   2.922   7.071  0.1302 -0.0033 -0.9432
  646MOL0     C89073  11.906   2.887   6.943  0.3222 -0.6192 -0.1209
  646MOL0     C89074  11.964   2.752   6.964 -0.0996 -0.0443  0.3448
  646MOL0     C89075  12.038   2.662   6.981 -0.2032  0.3166 -0.3192
  646MOL0     C89076  11.376   2.895   7.003  0.4498 -0.8499  0.0457
  646MOL0     C89077  11.298   2.887   6.885  0.0280 -0.2412 -0.2922
  646MOL0     C89078  11.282   3.006   6.802  0.3975 -0.0391  0.0926
  646MOL0     H89079  10.908   2.455   6.735  1.6418 -0.4667  0.1676
  646MOL0     H89080  10.734   2.395   6.550  1.0811 -1.4459  1.1615
  646MOL0     H89081  10.761   2.283   6.354  0.3814  0.6701  0.5045
  646MOL0     H89082  10.864   2.335   6.218  1.4535  5.8171  1.5754
  646MOL0     H89083  10.655   2.375   6.075 -0.7370 -1.5819 -0.7400
  646MOL0     H89084  10.674   2.210   6.130 -1.0875 -0.7210  1.2789
  646MOL0     H89085  10.512   2.239   6.301  1.2679  0.3074  0.2433
  646MOL0     H89086  10.516   2.411   6.281 -1.3603  0.2241 -0.7631
  646MOL0     H89087  10.405   2.378   6.041 -2.5108 -1.3556 -1.1615
  646MOL0     H89088  10.412   2.209   6.064 -2.6189 -0.9616  0.0205
  646MOL0     H89089  10.282   2.241   6.279 -0.4780  0.2642  1.4929
  646MOL0     H89090  10.184   2.274   6.127  0.4813  3.6865 -2.0307
  646MOL0     H89091  10.297   2.521   6.252 -2.3140  1.6586  0.0829
  646MOL0     H89092  10.186   2.485   6.119  0.9490 -2.8143 -0.9438
  646MOL0     H89093  10.143   2.463   6.420  1.0043  0.6356  0.8393
  646MOL0     H89094  10.043   2.374   6.309 -0.0499 -0.0555  1.6790
  646MOL0     H89095  10.099   2.677   6.294 -0.5232 -0.4485 -0.3879
  646MOL0     H89096   9.959   2.602   6.221  2.0863 -1.3995 -2.5492
  646MOL0     H89097  10.081   2.777   6.534 -1.9659  3.1600 -0.8309
  646MOL0     H89098   9.920   2.735   6.839  2.1261  1.4076 -0.0566
  646MOL0     H89099   9.787   2.825   6.778 -0.4527 -1.9826 -1.6367
  646MOL0     H89100  10.067   2.919   6.745 -1.1077  0.2660 -1.1518
  646MOL0     H89101   9.937   2.976   6.666 -1.6426  0.6841  0.5222
  646MOL0     H89102   9.834   3.048   6.887  0.6667  2.6350  2.0791
  646MOL0     H89103   9.960   2.959   6.978  0.9880 -2.4568 -0.0724
  646MOL0     H89104  10.021   3.186   6.991  1.0822  2.5294 -0.3605
  646MOL0     H89105  10.133   3.102   6.897 -0.9296 -1.5781  7.2432
  646MOL0     H89106  10.136   3.364   7.010 -0.7379 -1.7618 -0.8279
  646MOL0     H89107  10.085   3.579   7.177  0.5360  0.8093  1.3367
  646MOL0     H89108  10.190   3.702   7.110 -1.7262  0.0733 -2.5990
  646MOL0     H89109  10.246   3.534   7.121  1.6281  0.1438 -2.9835
  646MOL0     H89110  10.136   4.005   6.554 -1.7643  0.7210 -0.7492
  646MOL0     H89111  10.152   4.251   6.530 -0.9832  2.1497  0.2788
  646MOL0     H89112  10.030   4.591   6.600 -0.6312  0.3302 -1.5157
  646MOL0     H89113  10.046   4.437   6.514 -0.0431  2.6022 -0.9707
  646MOL0     H89114   9.812   4.383   6.595 -0.9666  0.6355 -2.2234
  646MOL0     H89115   9.847   4.484   6.735 -1.4673 -1.5839 -0.5429
  646MOL0     H89116   9.810   4.682   6.557  0.3765  0.5926 -1.1517
  646MOL0     H89117   9.662   4.582   6.603 -0.8473 -0.1426 -1.3439
  646MOL0     H89118   9.665   4.463   6.391  0.1220 -0.6979 -0.1521
  646MOL0     H89119   9.836   4.486   6.372 -1.4523 -0.8807 -0.8708
  646MOL0     H89120   9.621   4.705   6.314  0.6996  0.9375 -1.5011
  646MOL0     H89121   9.797   4.725   6.297  0.2317  0.9276 -0.3206
  646MOL0     H89122   9.628   4.505   6.184 -2.9093  2.1073  1.8659
  646MOL0     H89123   9.785   4.529   6.131 -0.0348 -0.5889  2.2210
  646MOL0     H89124   9.762   4.710   5.996  1.2594  1.3324  0.5056
  646MOL0     H89125   9.652   4.792   6.097 -0.8235  0.3912 -1.5188
  646MOL0     H89126   9.456   4.623   6.037 -0.0858 -1.5583 -0.9048
  646MOL0     H89127   9.556   4.576   5.905 -0.4884 -0.9366 -0.5061
  646MOL0     H89128  10.015   4.309   6.928  0.0245  1.2812 -0.9746
  646MOL0     H89129  10.010   4.082   6.971  0.4061  1.1939  0.6801
  646MOL0     H89130   9.945   3.681   6.675 -0.5609  2.6963  3.5859
  646MOL0     H89131   9.927   3.434   6.638  1.3151 -2.8993  1.6259
  646MOL0     H89132  10.956   2.632   6.273 -0.1080  1.6238  1.2205
  646MOL0     H89133  11.136   2.676   6.445  1.5135 -0.4288 -0.8136
  646MOL0     H89134  11.213   2.556   6.937 -2.0784  1.0795  0.1936
  646MOL0     H89135  11.363   2.593   7.139 -1.5125  1.0345  1.8560
  646MOL0     H89136  11.568   3.000   7.162  0.9599 -0.0471 -0.9184
  646MOL0     H89137  11.635   2.882   7.287 -1.6346  2.8129  1.0943
  646MOL0     H89138  11.641   2.877   6.978 -1.8512 -3.9087  0.2996
  646MOL0     H89139  11.708   2.745   7.073  0.6072  0.6084  2.6423
  646MOL0     H89140  11.810   3.030   7.071 -0.5462 -0.0508  1.4341
  646MOL0     H89141  11.883   2.903   7.164 -0.4789 -0.2994 -0.6434
  646MOL0     H89142  11.986   2.962   6.940  0.1179 -0.4357 -1.8116
  646MOL0     H89143  11.841   2.900   6.856  1.6483 -3.1115 -1.6175
  646MOL0     H89144  12.116   2.593   7.007  0.3552  1.0939  0.1282
  646MOL0     H89145  11.408   2.992   7.039 -1.6827 -0.2811  0.5746
  646MOL0     H89146  11.183   3.014   6.756  1.8929 -1.0091 -3.6911
  646MOL0     H89147  11.299   3.098   6.859  0.2135 -0.4262  0.7811
  646MOL0     H89148  11.346   2.998   6.714 -0.8334  0.0568 -0.8362
  647MOL0     O89149   7.650   1.789   2.935 -0.1818  0.2266  0.3142
  647MOL0     C89150   7.771   1.787   2.957  0.3291  0.5619  0.4528
  647MOL0     O89151   7.869   1.843   2.882  0.1845 -0.6130  0.3847
  647MOL0     C89152   7.841   1.919   2.769 -0.2400 -0.3174 -0.6729
  647MOL0     C89153   7.748   1.882   2.669  0.3609 -0.3658  0.8193
  647MOL0     C89154   7.735   1.964   2.557  0.1796  0.3846  0.5034
  647MOL0     C89155   7.801   2.080   2.534 -0.5443 -0.6192 -0.4654
  647MOL0     O89156   7.760   2.156   2.424 -0.2349  0.2962  0.0208
  647MOL0     C89157   7.848   2.257   2.374  0.2965 -0.3426  0.2879
  647MOL0     C89158   7.778   2.329   2.253  0.6401  0.3334 -0.4673
  647MOL0     C89159   7.792   2.475   2.256  0.4580 -0.3558 -0.7160
  647MOL0     C89160   7.695   2.541   2.161 -1.0221 -0.1716 -0.1522
  647MOL0     C89161   7.703   2.688   2.176  1.0107  0.2706 -0.6458
  647MOL0     C89162   7.597   2.776   2.108  0.1423 -0.2460 -0.7925
  647MOL0     C89163   7.638   2.794   1.958 -0.5758  0.3594 -0.1810
  647MOL0     C89164   7.535   2.866   1.863  0.1154 -0.4328  0.6380
  647MOL0     N89165   7.597   2.908   1.736 -0.9876  0.2389  0.3036
  647MOL0     C89166   7.594   2.840   1.619  0.3788 -0.3362  0.4991
  647MOL0     C89167   7.663   2.911   1.526  0.4062 -0.7266  0.3841
  647MOL0     C89168   7.672   2.852   1.392 -0.3658 -0.3551 -0.5275
  647MOL0     C89169   7.547   2.884   1.309 -0.0942 -0.8598  0.9128
  647MOL0     C89170   7.562   2.816   1.173  0.3160 -0.1622  0.0563
  647MOL0     C89171   7.427   2.778   1.102  0.9733 -0.5209  0.3654
  647MOL0     O89172   7.371   2.660   1.168  0.1641  0.6089  0.5234
  647MOL0     C89173   7.241   2.619   1.133  0.0072 -1.2633 -0.5601
  647MOL0     C89174   7.209   2.497   1.176  0.4563  0.4825 -0.1021
  647MOL0     C89175   7.095   2.429   1.128 -0.3836 -0.6102 -1.0913
  647MOL0     C89176   7.094   2.282   1.175  0.2043 -0.5276  0.1900
  647MOL0     C89177   7.015   2.498   1.029  0.7494  0.2739  0.1422
  647MOL0     C89178   6.897   2.439   0.959 -0.1540 -0.1683 -0.9714
  647MOL0     O89179   6.822   2.513   0.861 -0.2107  0.6820 -0.7230
  647MOL0     C89180   6.714   2.463   0.799 -0.4138 -0.1265  0.4448
  647MOL0     C89181   6.592   2.537   0.809 -0.0177 -0.1971 -0.0932
  647MOL0     C89182   6.474   2.488   0.747 -0.1749  0.7251  0.0140
  647MOL0     C89183   6.473   2.361   0.681  0.1424 -0.4967 -1.0688
  647MOL0     O89184   6.355   2.313   0.628 -0.1451 -0.1534  0.2037
  647MOL0     C89185   6.226   2.355   0.686  0.2704 -0.5946  0.0846
  647MOL0     C89186   6.103   2.262   0.670 -0.0987 -0.1734 -0.0612
  647MOL0     C89187   6.097   2.135   0.749 -0.3915 -0.4561  0.2709
  647MOL0     C89188   6.073   2.160   0.910  0.2237  0.5482  0.6234
  647MOL0     C89189   6.034   2.038   0.988 -0.1233  0.9711 -0.2088
  647MOL0     C89190   6.157   1.936   0.985  0.6485 -1.2523  1.1278
  647MOL0     C89191   6.296   1.990   1.047  0.6336  1.0014 -0.0780
  647MOL0     C89192   6.375   1.870   1.097 -0.6832  0.6490  0.3502
  647MOL0    Cl89193   6.537   1.924   1.134 -0.0429  0.1860 -0.3109
  647MOL0     C89194   6.590   2.286   0.682  0.3831 -0.4041  0.6307
  647MOL0     C89195   6.713   2.327   0.741  0.5230  0.5142  0.3613
  647MOL0     O89196   6.874   2.322   0.992 -0.1410 -0.7122  0.1127
  647MOL0     C89197   7.045   2.627   0.994 -0.1562  0.7219  0.3227
  647MOL0     C89198   7.159   2.688   1.046 -0.0801  1.0059 -0.2929
  647MOL0     N89199   7.694   3.039   1.578  0.4345  0.4315  0.7251
  647MOL0     N89200   7.646   3.029   1.701  1.2704 -0.2083 -1.0794
  647MOL0     C89201   7.896   2.113   2.633  0.5298 -0.6236 -0.7746
  647MOL0     C89202   7.913   2.033   2.751 -0.6451  0.0649  0.7718
  647MOL0     C89203   7.807   1.714   3.081  0.5914 -0.2534 -0.1568
  647MOL0     C89204   7.717   1.674   3.174 -0.2877 -0.7627 -0.7726
  647MOL0     C89205   7.752   1.618   3.297  0.0850  0.2667  0.4059
  647MOL0     C89206   7.879   1.590   3.330  0.1971  0.0709 -0.3929
  647MOL0     O89207   7.912   1.514   3.448  0.6601  0.0102 -0.0815
  647MOL0     C89208   7.900   1.365   3.441  0.7021 -0.2023 -0.6689
  647MOL0     C89209   7.909   1.320   3.588 -0.3680 -0.4174 -0.3880
  647MOL0     C89210   7.907   1.165   3.616 -0.5035 -0.7326  0.6673
  647MOL0     C89211   8.029   1.086   3.588 -0.4735 -0.2972  0.4171
  647MOL0     C89212   8.157   1.144   3.634 -0.8451 -0.5526 -0.5500
  647MOL0     C89213   8.261   1.188   3.680 -1.3806 -0.7740  1.0209
  647MOL0     C89214   7.971   1.633   3.237 -0.0627  0.3565 -0.2754
  647MOL0     C89215   7.940   1.694   3.116 -0.2162  0.2183 -0.1273
  647MOL0     C89216   8.058   1.699   3.028 -0.4555  0.7802 -0.1508
  647MOL0     H89217   7.705   1.783   2.676 -2.6693  0.9553  3.8302
  647MOL0     H89218   7.675   1.916   2.481 -0.8798 -1.4425  2.3965
  647MOL0     H89219   7.941   2.213   2.339  1.1921  0.2685  1.7847
  647MOL0     H89220   7.855   2.325   2.460 -1.7562 -0.9551  0.9990
  647MOL0     H89221   7.804   2.283   2.157 -3.2817  1.5238 -2.3178
  647MOL0     H89222   7.673   2.303   2.272  0.8102  0.5012  0.7507
  647MOL0     H89223   7.768   2.505   2.358 -0.8083 -0.9702 -0.8201
  647MOL0     H89224   7.894   2.508   2.235 -0.0444  0.3569 -2.1923
  647MOL0     H89225   7.714   2.504   2.060 -2.4066 -3.9864  0.7794
  647MOL0     H89226   7.595   2.509   2.190 -1.8162 -0.1300 -2.6486
  647MOL0     H89227   7.806   2.717   2.155  1.2430 -0.2318 -0.2359
  647MOL0     H89228   7.685   2.698   2.284 -0.7552 -1.4989 -0.7314
  647MOL0     H89229   7.501   2.725   2.119  1.0915 -1.9224  0.2574
  647MOL0     H89230   7.596   2.869   2.165 -0.6773 -0.8487  0.2069
  647MOL0     H89231   7.650   2.694   1.916 -1.2128  0.9338 -1.7978
  647MOL0     H89232   7.735   2.843   1.945 -1.7041  2.6487 -0.5434
  647MOL0     H89233   7.447   2.803   1.850  0.2836 -1.0082  2.1035
  647MOL0     H89234   7.501   2.960   1.907 -0.4773 -0.8375  1.0584
  647MOL0     H89235   7.558   2.738   1.608  0.1508 -0.1054 -1.1646
  647MOL0     H89236   7.688   2.744   1.407 -0.5192 -0.3073 -0.0152
  647MOL0     H89237   7.764   2.890   1.345 -2.4051  2.3167 -2.6717
  647MOL0     H89238   7.466   2.838   1.367  0.3792 -2.6382  0.2545
  647MOL0     H89239   7.533   2.992   1.307 -1.5038 -0.8896 -4.1203
  647MOL0     H89240   7.609   2.898   1.118  0.7375  1.0159  2.0977
  647MOL0     H89241   7.629   2.729   1.169  0.5639  0.0596 -0.7098
  647MOL0     H89242   7.354   2.858   1.121  3.0188  1.2214  1.3692
  647MOL0     H89243   7.448   2.766   0.996  2.2771 -0.5835  0.6135
  647MOL0     H89244   7.289   2.449   1.230 -0.5881 -2.1920 -0.7912
  647MOL0     H89245   6.989   2.256   1.192  0.1211 -0.9635 -0.9115
  647MOL0     H89246   7.145   2.265   1.270  0.5368  2.4534  0.6613
  647MOL0     H89247   7.139   2.215   1.101  0.7448  1.8225 -1.7521
  647MOL0     H89248   6.588   2.638   0.847  1.1422 -0.3122  0.3596
  647MOL0     H89249   6.378   2.538   0.745 -1.4735 -1.6127 -2.5083
  647MOL0     H89250   6.247   2.366   0.793  0.6600 -0.6789  0.0204
  647MOL0     H89251   6.210   2.447   0.629  1.4454 -0.2850  0.2317
  647MOL0     H89252   6.010   2.317   0.688  1.2984  2.7210 -0.9749
  647MOL0     H89253   6.103   2.233   0.564  2.0764 -0.1208 -0.1195
  647MOL0     H89254   6.195   2.086   0.742 -0.0385  0.0603  1.3786
  647MOL0     H89255   6.012   2.074   0.717 -2.0537  2.4521 -1.2706
  647MOL0     H89256   5.977   2.213   0.908  0.3415  0.7913 -1.8917
  647MOL0     H89257   6.148   2.231   0.944 -3.4193  4.9776  0.3626
  647MOL0     H89258   6.001   2.057   1.091 -0.6596  0.2213 -0.2385
  647MOL0     H89259   5.948   2.000   0.933 -0.5763 -1.2787  1.8527
  647MOL0     H89260   6.178   1.886   0.890 -3.7595 -3.5496  1.1210
  647MOL0     H89261   6.126   1.854   1.050  0.9240 -0.5861  2.1214
  647MOL0     H89262   6.273   2.063   1.125  0.3243  0.3026  0.5016
  647MOL0     H89263   6.337   2.033   0.955 -1.7643  1.6475 -0.9166
  647MOL0     H89264   6.376   1.794   1.018  2.5399  1.0325 -0.1210
  647MOL0     H89265   6.322   1.830   1.184  0.6294  1.2547  1.4666
  647MOL0     H89266   6.586   2.190   0.631 -2.2125 -0.1227  0.1667
  647MOL0     H89267   6.795   2.260   0.717 -0.0939  0.3546 -1.4920
  647MOL0     H89268   6.987   2.684   0.922 -0.6924  0.3125  0.4264
  647MOL0     H89269   7.186   2.789   1.014 -1.9444  1.6784  0.1480
  647MOL0     H89270   7.956   2.202   2.621  0.4433 -0.6658 -1.5708
  647MOL0     H89271   7.976   2.086   2.821 -0.7284  0.0173  0.8823
  647MOL0     H89272   7.611   1.696   3.161 -0.0901  0.7111 -0.1266
  647MOL0     H89273   7.673   1.618   3.371 -0.0266  1.5799  0.3034
  647MOL0     H89274   7.802   1.329   3.407  1.2872 -2.7488  0.0749
  647MOL0     H89275   7.981   1.319   3.383  0.3783 -2.4168  0.5147
  647MOL0     H89276   7.820   1.348   3.645  0.9108 -1.4224  2.2777
  647MOL0     H89277   7.988   1.368   3.647 -1.2813  0.7659 -0.0746
  647MOL0     H89278   7.882   1.154   3.722  1.6418 -2.8925  1.0383
  647MOL0     H89279   7.822   1.122   3.563 -1.0035 -0.9007  1.5719
  647MOL0     H89280   8.051   1.086   3.481  3.4977  2.2274  1.0353
  647MOL0     H89281   8.023   0.979   3.606 -2.0483 -0.9225 -2.9118
  647MOL0     H89282   8.361   1.225   3.693 -0.9027 -2.0767  1.2145
  647MOL0     H89283   8.077   1.613   3.252  0.3564  2.3440 -0.3810
  647MOL0     H89284   8.155   1.677   3.074 -0.3438  1.6467  0.0372
  647MOL0     H89285   8.034   1.631   2.946  0.8982  0.4458 -0.2835
  647MOL0     H89286   8.063   1.804   3.000  0.2587  0.8241  0.1432
  648MOL0     O89287   2.525   9.703  10.329 -0.6724 -0.6141  0.1636
  648MOL0     C89288   2.569   9.594  10.299  0.2589 -0.4741 -0.6971
  648MOL0     O89289   2.680   9.564  10.246 -0.2700 -0.3467 -0.4007
  648MOL0     C89290   2.774   9.659  10.218 -0.1306 -0.3521  0.4188
  648MOL0     C89291   2.904   9.606  10.194 -0.5293 -0.4434 -0.0374
  648MOL0     C89292   3.014   9.699  10.174  0.4594  0.6302 -0.1056
  648MOL0     C89293   2.993   9.837  10.181 -0.1856 -0.4299  0.2306
  648MOL0     O89294   3.096   9.927  10.155  0.3108  0.3431  0.2353
  648MOL0     C89295   3.224   9.869  10.127  0.1594  0.0665 -0.1677
  648MOL0     C89296   3.321   9.983  10.107 -0.1770  1.0156  0.9868
  648MOL0     C89297   3.370  10.062  10.236  0.2926  0.3577  0.2685
  648MOL0     C89298   3.404   9.980  10.347  0.4145  0.3998 -0.9989
  648MOL0     C89299   3.502  10.051  10.439 -0.1000 -0.3047  0.3727
  648MOL0     C89300   3.537   9.970  10.563  0.3065  0.2637 -0.4478
  648MOL0     C89301   3.643  10.037  10.654 -0.2375 -0.1502  0.6629
  648MOL0     C89302   3.773  10.088  10.591 -0.0162  0.7966  0.0287
  648MOL0     N89303   3.866  10.138  10.691  0.1700  0.7851  0.1873
  648MOL0     C89304   3.955  10.240  10.656  0.7570  0.0475  0.0360
  648MOL0     C89305   4.045  10.252  10.759 -1.0405 -0.5606  1.0554
  648MOL0     C89306   4.165  10.344  10.767  0.6773 -0.3717 -0.2500
  648MOL0     C89307   4.255  10.298  10.886  0.1401 -0.1942 -0.6631
  648MOL0     C89308   4.394  10.357  10.871  0.6441 -0.1464  0.6264
  648MOL0     C89309   4.495  10.299  10.961 -0.1515 -0.4670  0.3064
  648MOL0     O89310   4.628  10.336  10.920  0.0965 -0.7430  0.4888
  648MOL0     C89311   4.725  10.320  11.013 -0.5463 -0.5399 -0.1437
  648MOL0     C89312   4.708  10.248  11.128 -0.2102  0.6979 -0.7069
  648MOL0     C89313   4.809  10.244  11.228  0.1207  0.1564  0.3015
  648MOL0     C89314   4.787  10.160  11.345 -0.1868  0.0225 -0.5829
  648MOL0     C89315   4.924  10.319  11.209  0.4437  0.1117  0.2697
  648MOL0     C89316   5.043  10.310  11.299 -0.2051 -0.3172 -0.2649
  648MOL0     O89317   5.102  10.424  11.341  0.3936  0.2804 -0.8832
  648MOL0     C89318   5.223  10.427  11.405 -0.2625 -0.0710  0.2934
  648MOL0     C89319   5.336  10.358  11.358 -0.6558  0.4491 -0.0800
  648MOL0     C89320   5.460  10.373  11.412 -0.1720  0.7915 -0.0037
  648MOL0     C89321   5.479  10.439  11.533  0.7307 -0.8629  0.2944
  648MOL0     O89322   5.592  10.438  11.602  0.0534 -0.7830  1.2050
  648MOL0     C89323   5.707  10.511  11.542  0.1246  0.7606  0.4011
  648MOL0     C89324   5.828  10.469  11.636 -1.0974 -0.0766 -0.3184
  648MOL0     C89325   5.962  10.529  11.595  0.9052 -0.4100  0.6365
  648MOL0     C89326   6.061  10.433  11.510  0.9361  0.2393  0.2734
  648MOL0     C89327   6.182  10.507  11.460 -0.4439 -0.3250  0.4642
  648MOL0     C89328   6.153  10.588  11.333  0.1040 -0.9446  0.6166
  648MOL0     C89329   6.271  10.683  11.303  0.5662  0.2079  0.3078
  648MOL0     C89330   6.408  10.624  11.285 -0.3775  0.5090  0.2560
  648MOL0    Cl89331   6.524  10.748  11.246 -0.0331  0.0780 -0.4394
  648MOL0     C89332   5.367  10.509  11.582  0.0024 -0.4542 -1.5687
  648MOL0     C89333   5.248  10.515  11.515 -0.4285  0.3378  0.5789
  648MOL0     O89334   5.077  10.196  11.330  0.1476  0.1646 -0.0339
  648MOL0     C89335   4.938  10.395  11.093 -0.6640 -1.0580  0.8741
  648MOL0     C89336   4.838  10.395  10.989  0.0942 -0.6208 -0.7054
  648MOL0     N89337   4.012  10.154  10.844 -0.2810  0.3797  0.0398
  648MOL0     N89338   3.898  10.094  10.818 -0.0483 -0.0109  0.3651
  648MOL0     C89339   2.862   9.882  10.185  1.2204  1.2845  1.1854
  648MOL0     C89340   2.751   9.803  10.214  0.2783 -0.0360 -0.4029
  648MOL0     C89341   2.490   9.471  10.335  0.1750  0.6445  0.7640
  648MOL0     C89342   2.549   9.347  10.313 -0.4443  0.7347 -0.4772
  648MOL0     C89343   2.478   9.232  10.329  0.9944  0.9294 -0.6569
  648MOL0     C89344   2.341   9.233  10.369 -0.5952 -0.2115  0.5965
  648MOL0     O89345   2.273   9.121  10.406 -0.0705 -0.5011 -0.3480
  648MOL0     C89346   2.152   9.080  10.330  0.8365 -0.4143  0.4475
  648MOL0     C89347   2.184   9.034  10.182  0.8944  0.5786 -0.6773
  648MOL0     C89348   2.077   9.082  10.080 -0.2257 -0.4719 -0.6984
  648MOL0     C89349   2.032   8.982   9.975 -0.2859 -0.8198 -0.6218
  648MOL0     C89350   1.907   9.005   9.904 -0.8248 -0.7433  0.6886
  648MOL0     C89351   1.809   9.010   9.830  0.8306 -0.1124 -0.2376
  648MOL0     C89352   2.282   9.354  10.383  0.4436  0.0059  1.0949
  648MOL0     C89353   2.355   9.471  10.363  0.9520 -0.2216  0.6928
  648MOL0     C89354   2.267   9.597  10.361  0.5811  0.7769  0.3747
  648MOL0     H89355   2.925   9.500  10.185  0.8955 -0.0123 -3.0131
  648MOL0     H89356   3.105   9.644  10.152  1.3986  1.7751  0.7613
  648MOL0     H89357   3.218   9.803  10.039  2.1684 -0.4497  0.0289
  648MOL0     H89358   3.258   9.809  10.212 -0.0920  3.8455  2.8321
  648MOL0     H89359   3.413   9.947  10.060 -1.0005 -0.5856  0.5244
  648MOL0     H89360   3.285  10.048  10.027  1.6469 -2.8417 -3.4171
  648MOL0     H89361   3.457  10.118  10.201 -0.3932  1.7566  0.7478
  648MOL0     H89362   3.291  10.132  10.262 -2.6575 -2.3035 -0.7628
  648MOL0     H89363   3.313   9.966  10.407  0.5811 -0.6110 -0.9686
  648MOL0     H89364   3.443   9.886  10.307 -0.8318  0.1613 -1.6934
  648MOL0     H89365   3.462  10.150  10.465  0.7965 -0.3306  1.9715
  648MOL0     H89366   3.595  10.071  10.384  1.4913 -2.0496  2.3025
  648MOL0     H89367   3.453   9.951  10.630  3.2058  2.1148  4.2509
  648MOL0     H89368   3.568   9.873  10.522  1.8797  1.2714 -1.7866
  648MOL0     H89369   3.670   9.972  10.738  1.4481 -1.4832 -0.8370
  648MOL0     H89370   3.604  10.130  10.697 -3.1651  0.0409 -2.0574
  648MOL0     H89371   3.824  10.005  10.544 -3.2001 -0.7546 -0.9854
  648MOL0     H89372   3.746  10.160  10.513  0.0144  2.5931  1.5979
  648MOL0     H89373   3.961  10.307  10.571 -2.8880  0.8405  0.2187
  648MOL0     H89374   4.138  10.449  10.783  2.2979  0.1670 -0.8469
  648MOL0     H89375   4.227  10.324  10.679  0.4927  1.4194 -0.8253
  648MOL0     H89376   4.210  10.326  10.982 -1.0135  0.4580 -1.3653
  648MOL0     H89377   4.264  10.189  10.884 -0.1545 -0.2079 -1.7395
  648MOL0     H89378   4.426  10.351  10.767 -1.6618  2.3171 -0.3482
  648MOL0     H89379   4.388  10.464  10.892  1.2808 -0.3260  1.8218
  648MOL0     H89380   4.462  10.325  11.062  1.5939  0.8170  0.6063
  648MOL0     H89381   4.503  10.190  10.954 -1.1158 -0.4839 -0.8629
  648MOL0     H89382   4.617  10.189  11.141  0.6228 -0.9167 -1.8687
  648MOL0     H89383   4.774  10.215  11.439 -0.9348 -0.1288 -0.5946
  648MOL0     H89384   4.865  10.087  11.368  0.4825 -0.5143 -3.9839
  648MOL0     H89385   4.691  10.109  11.350 -1.2867  2.0925  2.0353
  648MOL0     H89386   5.332  10.296  11.269 -0.5761 -0.2267  0.3855
  648MOL0     H89387   5.545  10.311  11.383 -0.7275 -1.0988  2.0818
  648MOL0     H89388   5.728  10.466  11.445 -1.3660 -4.5739  2.2331
  648MOL0     H89389   5.690  10.619  11.550  1.6303  1.1910 -1.3964
  648MOL0     H89390   5.811  10.500  11.740  1.2344 -0.3699  0.2064
  648MOL0     H89391   5.842  10.361  11.629 -1.5011 -0.2419  1.1580
  648MOL0     H89392   6.023  10.567  11.678  2.1241 -0.1442 -0.3431
  648MOL0     H89393   5.932  10.607  11.524 -2.9707 -1.9552  0.3608
  648MOL0     H89394   6.005  10.391  11.426 -1.8155  0.4434  1.8851
  648MOL0     H89395   6.095  10.350  11.573  2.5666 -0.9455 -2.0089
  648MOL0     H89396   6.222  10.576  11.534  0.3560 -1.0331  0.7150
  648MOL0     H89397   6.270  10.444  11.445  2.0510  2.8232  0.7839
  648MOL0     H89398   6.058  10.643  11.342  0.5974 -0.2300  1.6824
  648MOL0     H89399   6.144  10.520  11.248 -0.2546 -0.4423  0.2439
  648MOL0     H89400   6.284  10.756  11.384  0.6921 -0.6787  1.0983
  648MOL0     H89401   6.253  10.730  11.206  2.8142  1.7984  0.5773
  648MOL0     H89402   6.415  10.554  11.201  2.1068  2.6649 -1.5131
  648MOL0     H89403   6.434  10.560  11.369  0.8380 -1.8781 -1.8092
  648MOL0     H89404   5.376  10.564  11.675  1.8794  0.0803 -2.0175
  648MOL0     H89405   5.169  10.577  11.557 -1.3245  1.2891 -2.2997
  648MOL0     H89406   5.020  10.465  11.087 -5.0551  4.9173  1.8347
  648MOL0     H89407   4.833  10.467  10.907 -1.1747  0.1295 -0.0128
  648MOL0     H89408   2.845   9.989  10.173  3.2944  1.4939 -0.6426
  648MOL0     H89409   2.652   9.849  10.217 -0.1915 -1.0546  0.3639
  648MOL0     H89410   2.653   9.346  10.280 -0.3932 -0.8002 -0.3732
  648MOL0     H89411   2.521   9.132  10.331  2.6089  1.6040 -0.2117
  648MOL0     H89412   2.091   9.002  10.376 -3.3322  1.4018 -1.4890
  648MOL0     H89413   2.084   9.165  10.319  0.2151 -1.1227 -1.8302
  648MOL0     H89414   2.188   8.925  10.169 -1.5759  0.0533  1.8898
  648MOL0     H89415   2.275   9.083  10.147  0.7149  2.1577  0.9042
  648MOL0     H89416   1.993   9.109  10.145  0.1728 -1.3455  0.2150
  648MOL0     H89417   2.113   9.172  10.029  1.8072 -2.6479 -3.4493
  648MOL0     H89418   2.017   8.887  10.027  1.9168 -0.5366  0.6400
  648MOL0     H89419   2.117   8.979   9.906  1.7551  2.7529  1.4534
  648MOL0     H89420   1.720   9.019   9.771 -1.0385  1.2660  2.5503
  648MOL0     H89421   2.181   9.361  10.423 -0.8672 -0.2026 -1.8989
  648MOL0     H89422   2.288   9.672  10.284 -1.0857 -0.0216 -0.9495
  648MOL0     H89423   2.160   9.576  10.367  0.7001 -0.2656 -0.7561
  648MOL0     H89424   2.291   9.650  10.454  0.4848 -0.9301  1.4211
  649MOL0     O89425   8.439   8.501   5.735  0.0840 -0.6415 -0.1197
  649MOL0     C89426   8.321   8.518   5.733  0.2091  0.5083  0.1863
  649MOL0     O89427   8.229   8.480   5.635 -0.6545 -0.3681 -0.2908
  649MOL0     C89428   8.272   8.379   5.545 -0.3632  0.3615  0.1371
  649MOL0     C89429   8.315   8.248   5.586  0.2980 -0.6780  0.1433
  649MOL0     C89430   8.352   8.155   5.499  0.1122  0.1413  0.9691
  649MOL0     C89431   8.348   8.186   5.360 -0.1503  0.4431  0.4528
  649MOL0     O89432   8.387   8.095   5.261  0.1074 -1.2544 -0.2671
  649MOL0     C89433   8.299   7.982   5.251 -0.7093 -0.2498  0.2693
  649MOL0     C89434   8.376   7.860   5.276  0.2236  0.1007  0.1430
  649MOL0     C89435   8.474   7.810   5.172  0.6769 -0.0390  0.5678
  649MOL0     C89436   8.537   7.675   5.220 -0.7241 -0.5263  0.8590
  649MOL0     C89437   8.617   7.612   5.101 -0.2422  0.8440  0.2017
  649MOL0     C89438   8.677   7.474   5.142  0.4839 -0.2392 -0.4884
  649MOL0     C89439   8.744   7.415   5.020  0.0287  0.1322  0.2995
  649MOL0     C89440   8.742   7.259   5.014 -0.0319  0.1846  0.5367
  649MOL0     N89441   8.812   7.188   5.124 -0.2161 -0.0188  0.5688
  649MOL0     C89442   8.945   7.199   5.156  0.6784  0.5990 -0.2971
  649MOL0     C89443   8.957   7.101   5.247 -0.4538 -0.3091  0.1466
  649MOL0     C89444   9.088   7.077   5.318 -0.2499  0.1580  0.4769
  649MOL0     C89445   9.122   6.932   5.316 -0.6989  1.4842  0.1501
  649MOL0     C89446   9.269   6.915   5.356  0.0566 -0.7689 -0.2108
  649MOL0     C89447   9.287   6.794   5.437  0.0026  0.5555 -0.4635
  649MOL0     O89448   9.227   6.815   5.570  0.9888  1.2730  0.0932
  649MOL0     C89449   9.265   6.721   5.666 -0.2119  0.0071 -0.0458
  649MOL0     C89450   9.245   6.767   5.797  0.1935  0.1739  0.6818
  649MOL0     C89451   9.290   6.687   5.904 -0.2639 -0.3359 -0.3388
  649MOL0     C89452   9.243   6.739   6.039 -0.9263  0.7905 -0.2048
  649MOL0     C89453   9.365   6.569   5.882  0.4748  0.2335  0.1105
  649MOL0     C89454   9.428   6.494   5.991  0.1795 -0.2213  1.3245
  649MOL0     O89455   9.520   6.400   5.952 -0.2947 -0.8309  1.2421
  649MOL0     C89456   9.587   6.334   6.051 -0.1802 -0.5294  0.2616
  649MOL0     C89457   9.536   6.213   6.104 -0.6583  0.6622  1.4890
  649MOL0     C89458   9.616   6.132   6.178 -0.7389  0.5094  0.1293
  649MOL0     C89459   9.752   6.163   6.208 -0.4820 -0.4317 -0.1100
  649MOL0     O89460   9.850   6.087   6.274 -0.5223 -0.2430 -0.2948
  649MOL0     C89461   9.812   5.944   6.297 -0.0766  0.5230 -0.2690
  649MOL0     C89462   9.947   5.866   6.311  0.5784 -0.5590 -0.1147
  649MOL0     C89463   9.927   5.718   6.279  0.5541  0.1767  0.8741
  649MOL0     C89464   9.850   5.640   6.381 -0.6943 -0.1009  0.3000
  649MOL0     C89465   9.825   5.492   6.334  0.5202  0.4088 -1.0440
  649MOL0     C89466   9.760   5.401   6.438 -0.1075  1.0578  1.7534
  649MOL0     C89467   9.854   5.370   6.558 -0.5115 -1.3629  0.2190
  649MOL0     C89468   9.795   5.281   6.674 -0.0078  0.2478 -0.0134
  649MOL0    Cl89469   9.670   5.365   6.770 -0.4648 -0.0389  0.3036
  649MOL0     C89470   9.781   6.296   6.183 -0.5653 -0.5547 -0.2649
  649MOL0     C89471   9.707   6.376   6.097  0.0249 -0.8852 -0.6366
  649MOL0     O89472   9.389   6.501   6.107 -0.6287  0.3903 -0.0218
  649MOL0     C89473   9.398   6.535   5.749  0.1583 -0.1253  0.3499
  649MOL0     C89474   9.345   6.607   5.645 -0.5705  0.3167 -0.1093
  649MOL0     N89475   8.842   7.037   5.264 -0.1402  0.7190 -0.6120
  649MOL0     N89476   8.754   7.089   5.188  0.6628 -0.1945 -0.0821
  649MOL0     C89477   8.315   8.318   5.311 -0.0244 -0.5182  0.1101
  649MOL0     C89478   8.271   8.406   5.411  0.6253  0.0490 -0.5059
  649MOL0     C89479   8.255   8.574   5.849 -0.1883 -0.9854 -0.7582
  649MOL0     C89480   8.125   8.534   5.878  0.0060 -1.1729 -0.1626
  649MOL0     C89481   8.055   8.593   5.984 -0.1869  0.0712  0.3093
  649MOL0     C89482   8.104   8.686   6.071 -0.9901 -0.4275 -0.1535
  649MOL0     O89483   8.036   8.734   6.177 -0.3322 -0.1400  0.8254
  649MOL0     C89484   8.099   8.843   6.236 -0.1612 -0.5039  0.5091
  649MOL0     C89485   8.005   8.886   6.339 -0.8878  0.6825 -0.4063
  649MOL0     C89486   8.060   8.983   6.448 -0.6384  0.3013  0.5338
  649MOL0     C89487   7.948   9.034   6.538 -0.2290 -0.9411 -1.0406
  649MOL0     C89488   7.887   8.947   6.633  0.4643  1.4487  0.6875
  649MOL0     C89489   7.844   8.871   6.714 -0.3335  0.3759  0.6041
  649MOL0     C89490   8.236   8.721   6.039  0.3330 -0.1380 -0.0970
  649MOL0     C89491   8.314   8.674   5.934 -1.2575  0.2809  0.1468
  649MOL0     C89492   8.457   8.724   5.915  0.3025 -0.3555 -0.8693
  649MOL0     H89493   8.320   8.222   5.691  2.3222 -1.8981 -0.1934
  649MOL0     H89494   8.382   8.056   5.531  1.3404 -0.6490 -2.1783
  649MOL0     H89495   8.244   7.974   5.157  1.2675 -0.7949 -0.9034
  649MOL0     H89496   8.229   7.985   5.336 -0.2287  0.6484  0.6486
  649MOL0     H89497   8.437   7.877   5.365 -1.9914 -2.1635  2.2586
  649MOL0     H89498   8.306   7.777   5.292  1.5741 -1.0788  0.1038
  649MOL0     H89499   8.419   7.790   5.080 -1.0806 -0.4449  1.6766
  649MOL0     H89500   8.557   7.880   5.155  0.3476  0.9084  2.5723
  649MOL0     H89501   8.601   7.695   5.306 -1.2599  0.7857  0.9599
  649MOL0     H89502   8.452   7.619   5.260 -2.1188  1.5178  0.8929
  649MOL0     H89503   8.703   7.677   5.081  1.6060 -1.8958 -1.3911
  649MOL0     H89504   8.538   7.595   5.027  1.2417  3.2169 -2.1138
  649MOL0     H89505   8.756   7.494   5.215  0.6916 -2.6769  0.0247
  649MOL0     H89506   8.598   7.415   5.189 -0.3564  1.5488  0.4572
  649MOL0     H89507   8.846   7.451   5.030  0.3962 -0.8403  0.1949
  649MOL0     H89508   8.712   7.454   4.923  0.4663  2.7452  1.1337
  649MOL0     H89509   8.641   7.218   5.025 -0.6631  1.5770  0.0645
  649MOL0     H89510   8.792   7.232   4.921 -1.9158 -0.0848 -0.4460
  649MOL0     H89511   9.012   7.274   5.115  0.4144  0.9902 -0.0337
  649MOL0     H89512   9.084   7.124   5.417  0.8736  1.8779 -0.2370
  649MOL0     H89513   9.168   7.132   5.267 -0.8151 -0.0781 -0.7030
  649MOL0     H89514   9.053   6.877   5.380  1.3870  1.2934  2.3752
  649MOL0     H89515   9.108   6.887   5.218  1.0622 -0.6695  0.8043
  649MOL0     H89516   9.342   6.908   5.275  1.9176 -2.0344  1.4648
  649MOL0     H89517   9.289   6.997   5.426  0.0040 -0.1584 -0.9004
  649MOL0     H89518   9.238   6.709   5.390 -1.3769  0.9670  0.1758
  649MOL0     H89519   9.393   6.776   5.457 -0.5920 -1.2408  1.3967
  649MOL0     H89520   9.201   6.865   5.813 -0.4539  0.3586 -1.8094
  649MOL0     H89521   9.168   6.673   6.083 -1.8988  0.4496 -2.2433
  649MOL0     H89522   9.192   6.835   6.024 -0.5997  0.9064 -0.5896
  649MOL0     H89523   9.323   6.748   6.112  2.2880 -1.4609 -3.1014
  649MOL0     H89524   9.436   6.179   6.076  0.7847 -1.0309 -2.2383
  649MOL0     H89525   9.579   6.035   6.211  2.8110 -0.8552  0.5367
  649MOL0     H89526   9.750   5.942   6.387 -0.0214  0.9867 -0.2191
  649MOL0     H89527   9.754   5.906   6.213  0.2928  2.1796 -1.3234
  649MOL0     H89528  10.014   5.908   6.235  2.4721 -2.7233  0.2467
  649MOL0     H89529   9.996   5.879   6.408 -3.2488 -0.4777  1.9978
  649MOL0     H89530  10.032   5.688   6.273  0.9225  1.3667  1.0269
  649MOL0     H89531   9.874   5.704   6.185 -0.7093 -2.4206  1.8783
  649MOL0     H89532   9.750   5.681   6.398 -1.2456 -0.2964 -2.1897
  649MOL0     H89533   9.914   5.653   6.469 -1.4543  2.8060  0.5497
  649MOL0     H89534   9.760   5.495   6.245 -1.5346  1.5007  0.4004
  649MOL0     H89535   9.922   5.451   6.305  2.0261  0.9479  2.6934
  649MOL0     H89536   9.729   5.309   6.388 -0.6107  1.5863  1.0780
  649MOL0     H89537   9.659   5.434   6.466  0.5949  1.8309  3.5162
  649MOL0     H89538   9.888   5.466   6.597 -1.7270 -0.5518 -0.6221
  649MOL0     H89539   9.939   5.319   6.513  0.6143 -0.1533  0.9214
  649MOL0     H89540   9.884   5.258   6.732  1.4637  0.4837 -2.0766
  649MOL0     H89541   9.755   5.191   6.627 -1.1156  1.9187 -2.4920
  649MOL0     H89542   9.881   6.324   6.214 -1.6271  3.8230 -0.1175
  649MOL0     H89543   9.739   6.472   6.058 -0.8917 -0.3447 -0.1199
  649MOL0     H89544   9.459   6.448   5.725  1.8182  0.7129  1.3405
  649MOL0     H89545   9.360   6.553   5.552 -0.4311 -2.1156  1.2482
  649MOL0     H89546   8.315   8.337   5.204  0.3692 -0.4960  0.1126
  649MOL0     H89547   8.242   8.510   5.393  1.4700  1.3618  4.2183
  649MOL0     H89548   8.085   8.458   5.812  0.0130 -1.4301  0.1242
  649MOL0     H89549   7.952   8.561   5.996 -0.3633  0.0460 -1.0994
  649MOL0     H89550   8.197   8.834   6.283  0.8738  1.0292 -1.2331
  649MOL0     H89551   8.116   8.930   6.172 -1.0256  0.5262  1.6373
  649MOL0     H89552   7.962   8.802   6.394 -0.7732 -1.6837 -3.6776
  649MOL0     H89553   7.916   8.927   6.290 -0.5615  1.2933 -0.5049
  649MOL0     H89554   8.136   8.927   6.502 -1.4071 -1.0659  0.2370
  649MOL0     H89555   8.109   9.067   6.398 -1.6265 -0.3262 -1.6194
  649MOL0     H89556   7.876   9.092   6.480  0.9077 -0.0958 -1.6451
  649MOL0     H89557   8.002   9.109   6.596 -0.8797 -1.5005  0.3420
  649MOL0     H89558   7.820   8.791   6.782  1.0882 -0.5259  0.0971
  649MOL0     H89559   8.292   8.787   6.105  0.2705  1.6769 -1.7616
  649MOL0     H89560   8.487   8.816   5.966  1.5981 -2.5896  2.7707
  649MOL0     H89561   8.533   8.648   5.934  0.4957 -0.2926 -1.3755
  649MOL0     H89562   8.455   8.735   5.806 -0.8184 -1.9074 -1.0361
  650MOL0     O89563   1.562   1.805   5.363 -0.0065  0.0021 -0.3780
  650MOL0     C89564   1.583   1.766   5.246 -0.1292  0.0543  0.0600
  650MOL0     O89565   1.661   1.821   5.160  0.5224 -0.4704  0.0174
  650MOL0     C89566   1.706   1.947   5.177  0.4179  0.3552  0.8150
  650MOL0     C89567   1.641   2.044   5.246  0.3963  0.4385 -1.1601
  650MOL0     C89568   1.692   2.169   5.248 -1.7142 -1.1174 -0.6878
  650MOL0     C89569   1.813   2.205   5.188 -0.1818  0.1415  0.0649
  650MOL0     O89570   1.860   2.328   5.189 -0.5596 -0.0570  0.2748
  650MOL0     C89571   1.883   2.390   5.314 -1.1139 -0.7732 -0.5104
  650MOL0     C89572   1.905   2.538   5.289  1.0479 -0.0154 -0.1684
  650MOL0     C89573   2.037   2.561   5.220 -0.2151 -0.0522 -0.2812
  650MOL0     C89574   2.071   2.710   5.218  0.5810  0.4806  0.1144
  650MOL0     C89575   2.153   2.756   5.335 -0.5352 -0.3560  0.1143
  650MOL0     C89576   2.196   2.904   5.329  0.4422 -0.0557 -0.1818
  650MOL0     C89577   2.269   2.953   5.451  0.4210  0.0994 -0.0657
  650MOL0     C89578   2.406   2.888   5.443  0.5479  0.3053  0.1054
  650MOL0     N89579   2.487   2.918   5.320  1.1042 -0.2241 -0.1102
  650MOL0     C89580   2.507   3.038   5.265 -0.0611 -0.0119  0.2765
  650MOL0     C89581   2.598   3.002   5.162  0.4456 -0.4530  0.6435
  650MOL0     C89582   2.690   3.093   5.080  1.3052  0.7020  0.0788
  650MOL0     C89583   2.605   3.142   4.965  0.3686 -0.5594  0.6170
  650MOL0     C89584   2.567   3.036   4.848  1.2179 -0.3625 -0.2479
  650MOL0     C89585   2.465   3.084   4.751  0.6819  1.0186 -0.2927
  650MOL0     O89586   2.507   3.186   4.661  0.4678 -0.0830  0.2668
  650MOL0     C89587   2.421   3.234   4.558  0.1802 -0.1611  0.0460
  650MOL0     C89588   2.284   3.202   4.551  0.1057  0.2026  1.1299
  650MOL0     C89589   2.200   3.254   4.452  0.6943  0.9297  0.7212
  650MOL0     C89590   2.052   3.224   4.467 -0.1163 -0.3266 -0.0414
  650MOL0     C89591   2.258   3.351   4.363 -0.0357 -0.8431  0.9005
  650MOL0     C89592   2.162   3.440   4.286  0.9311 -0.0057  0.4285
  650MOL0     O89593   2.060   3.486   4.365  0.3971  0.5717 -0.3524
  650MOL0     C89594   1.952   3.554   4.315 -0.3218  0.9129  1.2102
  650MOL0     C89595   1.978   3.689   4.276  0.6777 -0.7710  0.2152
  650MOL0     C89596   1.872   3.768   4.221  0.3252 -0.1606 -0.3482
  650MOL0     C89597   1.756   3.700   4.179  0.0538  0.5574  0.0823
  650MOL0     O89598   1.649   3.751   4.111  0.1409 -0.3630 -0.2290
  650MOL0     C89599   1.687   3.844   4.008 -0.2179  0.8810  0.4383
  650MOL0     C89600   1.649   3.982   4.029  0.7049 -0.0846  0.3109
  650MOL0     C89601   1.505   3.995   4.079 -0.5425  0.5392  0.2465
  650MOL0     C89602   1.433   4.132   4.051 -0.6777 -0.4954 -0.2342
  650MOL0     C89603   1.351   4.126   3.927  0.4139 -0.7674  0.0885
  650MOL0     C89604   1.305   4.261   3.885 -0.2723  0.1628  0.2843
  650MOL0     C89605   1.196   4.264   3.775 -0.0600  0.3380  0.5541
  650MOL0     C89606   1.141   4.399   3.752  0.6911  0.3627 -0.6398
  650MOL0    Cl89607   1.116   4.494   3.907 -0.1655  0.3901 -0.6046
  650MOL0     C89608   1.744   3.563   4.201  0.7975  0.3655 -0.0845
  650MOL0     C89609   1.842   3.485   4.267 -0.7447 -0.1058 -0.0113
  650MOL0     O89610   2.176   3.467   4.164  0.3227  0.2543  0.1779
  650MOL0     C89611   2.401   3.364   4.350  0.1777 -0.8531  0.7474
  650MOL0     C89612   2.479   3.308   4.460 -0.4689  0.6280  0.4511
  650MOL0     N89613   2.614   2.869   5.158  0.3432  1.1205  0.3752
  650MOL0     N89614   2.555   2.819   5.258  0.0903 -0.2992 -0.2994
  650MOL0     C89615   1.883   2.105   5.121 -0.0324  0.1422  0.3426
  650MOL0     C89616   1.832   1.979   5.114  0.2527  0.9099 -0.2470
  650MOL0     C89617   1.499   1.656   5.209  0.4566  0.3022 -0.5429
  650MOL0     C89618   1.371   1.637   5.277 -0.2609 -0.2822  0.7958
  650MOL0     C89619   1.291   1.529   5.258 -0.1089  0.3004 -0.3450
  650MOL0     C89620   1.328   1.428   5.164  0.0313 -0.8243  0.1244
  650MOL0     O89621   1.253   1.316   5.139  0.3887 -0.5698  1.1429
  650MOL0     C89622   1.326   1.198   5.134 -0.3932 -0.2408  0.0948
  650MOL0     C89623   1.384   1.167   5.270  0.8999  0.1268  0.3382
  650MOL0     C89624   1.404   1.011   5.291  1.0813 -0.6363 -0.0464
  650MOL0     C89625   1.468   0.966   5.422 -0.3931  0.5893  0.3755
  650MOL0     C89626   1.599   1.030   5.432  0.8011  0.2625 -0.9511
  650MOL0     C89627   1.704   1.091   5.451  0.2462 -0.3353  0.0809
  650MOL0     C89628   1.439   1.457   5.082 -0.5720 -0.6849 -0.3015
  650MOL0     C89629   1.528   1.563   5.107 -0.5934  0.0266  0.1115
  650MOL0     C89630   1.664   1.559   5.029 -0.1797 -0.0962 -0.5504
  650MOL0     H89631   1.542   2.044   5.290  0.0063  4.4096 -1.6219
  650MOL0     H89632   1.640   2.243   5.309  0.6613 -0.5462  0.8059
  650MOL0     H89633   1.977   2.352   5.354 -1.9038 -0.6392  1.5715
  650MOL0     H89634   1.813   2.372   5.395  0.6824  0.2027  1.3641
  650MOL0     H89635   1.819   2.572   5.230  0.6491  0.3890  0.6208
  650MOL0     H89636   1.895   2.588   5.386 -1.5933  0.1280 -0.4407
  650MOL0     H89637   2.120   2.503   5.262 -1.1719  0.9551  3.2981
  650MOL0     H89638   2.030   2.521   5.118  0.2891  0.4663 -0.5246
  650MOL0     H89639   2.119   2.722   5.120  2.2175 -0.1569  0.7997
  650MOL0     H89640   1.972   2.756   5.219  0.0638 -0.1626 -3.8590
  650MOL0     H89641   2.237   2.687   5.343  0.5774  0.5934 -2.2410
  650MOL0     H89642   2.103   2.739   5.431  2.4251 -0.5041  1.7437
  650MOL0     H89643   2.251   2.929   5.237  3.6204 -0.1548  1.5615
  650MOL0     H89644   2.111   2.973   5.337  1.2966  0.9122  0.7705
  650MOL0     H89645   2.216   2.931   5.545 -0.8091  1.8749 -0.2907
  650MOL0     H89646   2.273   3.063   5.449 -1.2256  0.3565  3.3831
  650MOL0     H89647   2.463   2.913   5.533 -0.9530 -1.3415  1.5836
  650MOL0     H89648   2.382   2.782   5.454  0.6377  0.4555  1.9722
  650MOL0     H89649   2.471   3.137   5.293 -0.7643 -1.2341  4.1811
  650MOL0     H89650   2.781   3.046   5.043 -0.0710  0.9004 -4.1224
  650MOL0     H89651   2.724   3.172   5.147  0.4724 -0.1271  1.5282
  650MOL0     H89652   2.510   3.171   5.010  0.5419 -0.5935  1.0086
  650MOL0     H89653   2.635   3.239   4.923 -0.3153  0.0528  1.5094
  650MOL0     H89654   2.656   3.010   4.789  1.6726 -1.7445  0.9931
  650MOL0     H89655   2.527   2.945   4.893 -0.5081  0.1211 -0.7184
  650MOL0     H89656   2.436   2.998   4.690  0.4640  0.7658  0.1614
  650MOL0     H89657   2.379   3.110   4.813  0.9569  2.7982 -0.5945
  650MOL0     H89658   2.235   3.149   4.632  1.6655  0.7372  2.4762
  650MOL0     H89659   2.021   3.120   4.475 -0.4905 -0.2556 -0.5824
  650MOL0     H89660   2.005   3.270   4.380  1.5289 -2.2828 -2.0859
  650MOL0     H89661   2.012   3.276   4.554 -0.7254 -3.0705  1.4399
  650MOL0     H89662   2.067   3.749   4.293 -1.8601  3.2018  0.8120
  650MOL0     H89663   1.879   3.874   4.196  0.7340 -0.4229 -1.3863
  650MOL0     H89664   1.794   3.836   3.988 -0.0696 -1.7374  1.8536
  650MOL0     H89665   1.634   3.812   3.918  3.0572 -0.4887 -1.1627
  650MOL0     H89666   1.712   4.011   4.113  0.8977 -1.2210  0.5779
  650MOL0     H89667   1.655   4.049   3.943 -0.0940 -0.9027 -0.4038
  650MOL0     H89668   1.515   3.993   4.188 -1.3065  2.2561  0.3871
  650MOL0     H89669   1.438   3.920   4.035 -1.2384 -0.5231  2.8997
  650MOL0     H89670   1.514   4.205   4.042 -2.0163  0.9329 -1.2825
  650MOL0     H89671   1.367   4.158   4.134 -0.6725  1.1915 -0.7312
  650MOL0     H89672   1.423   4.096   3.850  0.3357  1.0919 -0.7620
  650MOL0     H89673   1.263   4.061   3.928  0.6149 -1.1875 -2.6895
  650MOL0     H89674   1.387   4.325   3.852 -2.9734  3.7028 -0.1675
  650MOL0     H89675   1.272   4.322   3.970 -2.3801 -0.1718 -0.2309
  650MOL0     H89676   1.109   4.205   3.804  0.8023 -2.2481 -1.7428
  650MOL0     H89677   1.225   4.223   3.678 -4.1741  0.6326 -0.9759
  650MOL0     H89678   1.053   4.393   3.688 -0.1479 -2.5269  0.5893
  650MOL0     H89679   1.220   4.449   3.696  0.8705 -0.2719 -0.9572
  650MOL0     H89680   1.653   3.511   4.172  0.6039 -0.2343  1.5020
  650MOL0     H89681   1.839   3.378   4.279  1.7106 -0.1629  0.7033
  650MOL0     H89682   2.447   3.430   4.278 -3.7520  0.9468 -0.3864
  650MOL0     H89683   2.585   3.331   4.463 -0.7187  1.8711  3.7594
  650MOL0     H89684   1.977   2.133   5.075  0.2650 -0.4210  0.5939
  650MOL0     H89685   1.873   1.889   5.069 -1.9380 -1.5447  2.2474
  650MOL0     H89686   1.328   1.717   5.337  0.0444  1.9279 -1.7596
  650MOL0     H89687   1.187   1.527   5.291 -0.5530 -0.5798 -1.6695
  650MOL0     H89688   1.269   1.115   5.092 -0.3061  0.6687 -1.9604
  650MOL0     H89689   1.414   1.208   5.070  0.1182  1.3508  0.9929
  650MOL0     H89690   1.317   1.209   5.346  0.7949  0.2090  0.2013
  650MOL0     H89691   1.478   1.220   5.281 -0.1730  1.7595  2.2887
  650MOL0     H89692   1.311   0.955   5.280  1.3247 -0.6637 -2.8072
  650MOL0     H89693   1.456   0.975   5.201  0.2947  0.7900 -1.1195
  650MOL0     H89694   1.483   0.858   5.420 -1.6091  0.4111 -1.4396
  650MOL0     H89695   1.402   1.003   5.500 -1.2459 -1.5758  0.7347
  650MOL0     H89696   1.791   1.153   5.465 -0.2835  0.4434 -0.0355
  650MOL0     H89697   1.452   1.390   4.997  0.0115 -1.8688  0.6900
  650MOL0     H89698   1.701   1.649   4.979  1.4566 -0.3370  0.1292
  650MOL0     H89699   1.741   1.548   5.107 -1.9937  3.0421  1.9631
  650MOL0     H89700   1.658   1.475   4.961 -1.9852 -0.5713  0.1505
  651MOL0     O89701  11.016   5.635   7.739 -0.1404  0.8429 -0.4924
  651MOL0     C89702  11.001   5.686   7.629 -0.4961  0.6474 -0.0487
  651MOL0     O89703  11.107   5.728   7.552 -0.3803  0.7348  0.3581
  651MOL0     C89704  11.237   5.684   7.582 -0.3585  0.6480  0.5363
  651MOL0     C89705  11.341   5.771   7.565 -0.9592  0.0452  0.6672
  651MOL0     C89706  11.474   5.745   7.600  0.1867  0.7905  0.8427
  651MOL0     C89707  11.505   5.620   7.655  0.0345  0.5428 -0.6510
  651MOL0     O89708  11.617   5.582   7.716  0.5243 -0.8568  0.2166
  651MOL0     C89709  11.737   5.626   7.655 -0.2604  0.3194 -0.8046
  651MOL0     C89710  11.849   5.533   7.692  0.3112 -0.3778 -0.6122
  651MOL0     C89711  11.825   5.380   7.679  0.1582 -0.2194 -0.2177
  651MOL0     C89712  11.951   5.309   7.729 -0.7627 -0.0142  0.3970
  651MOL0     C89713  11.966   5.162   7.694  0.7600  0.2956 -0.5156
  651MOL0     C89714  11.973   5.132   7.543  0.3784  0.4113 -0.1872
  651MOL0     C89715  12.009   4.983   7.530 -0.8684 -0.5043  0.2296
  651MOL0     C89716  12.024   4.964   7.376  0.3642 -1.3707  0.7268
  651MOL0     N89717  12.129   5.046   7.306  0.0068 -1.2042  0.1108
  651MOL0     C89718  12.262   5.009   7.276 -0.5143  0.0154  0.6048
  651MOL0     C89719  12.319   5.093   7.183  0.5235 -0.7035 -0.2950
  651MOL0     C89720  12.453   5.079   7.109  0.5844  0.0393  0.6363
  651MOL0     C89721  12.541   5.188   7.161  0.1418 -0.3863  0.1977
  651MOL0     C89722  12.684   5.192   7.094 -1.1975  0.5898  0.1996
  651MOL0     C89723  12.775   5.074   7.142  0.5516 -0.2391 -0.5869
  651MOL0     O89724  12.838   5.102   7.269 -0.8523 -0.3911  0.6561
  651MOL0     C89725  12.978   5.094   7.271  0.4750 -0.7015 -0.1438
  651MOL0     C89726  13.027   5.055   7.391 -0.7897 -0.0527 -0.4703
  651MOL0     C89727  13.166   5.060   7.426  0.4143 -0.1569  0.9389
  651MOL0     C89728  13.211   5.045   7.572 -0.6427  0.0197  0.4149
  651MOL0     C89729  13.257   5.098   7.317  1.1701 -0.3053 -0.0032
  651MOL0     C89730  13.401   5.112   7.335  0.5160 -0.8107 -0.2718
  651MOL0     O89731  13.467   5.196   7.249 -0.6503  0.0103  0.4962
  651MOL0     C89732  13.592   5.246   7.276  1.0127 -0.0846  0.3615
  651MOL0     C89733  13.623   5.296   7.405  0.1996  0.1508 -0.1338
  651MOL0     C89734  13.751   5.341   7.431  0.0852 -0.4865 -0.1447
  651MOL0     C89735  13.836   5.365   7.321  0.5042 -0.3136  0.0737
  651MOL0     O89736  13.958   5.412   7.354 -0.1584 -0.3421  0.1676
  651MOL0     C89737  14.027   5.496   7.252  0.0379 -0.4280 -0.5922
  651MOL0     C89738  14.149   5.549   7.335 -0.3190  0.8881  0.3177
  651MOL0     C89739  14.243   5.632   7.250 -0.7335  0.2412  0.6571
  651MOL0     C89740  14.350   5.697   7.324 -0.2893 -1.1709 -0.0141
  651MOL0     C89741  14.464   5.598   7.373 -0.2806  0.4410  0.3122
  651MOL0     C89742  14.594   5.669   7.373 -0.4314  0.7933 -0.8590
  651MOL0     C89743  14.703   5.561   7.385 -0.3151 -0.0289  0.1543
  651MOL0     C89744  14.835   5.607   7.445 -0.0948  0.0813 -0.9957
  651MOL0    Cl89745  14.808   5.730   7.570 -0.1114  0.0281 -0.5240
  651MOL0     C89746  13.800   5.321   7.190  0.3409 -0.4038  0.8660
  651MOL0     C89747  13.680   5.259   7.169  0.3801 -0.3627 -0.1660
  651MOL0     O89748  13.455   5.057   7.429 -0.0348  0.1910  0.0551
  651MOL0     C89749  13.201   5.133   7.194 -0.1629 -0.5656 -0.0928
  651MOL0     C89750  13.064   5.128   7.168 -0.3194  1.4191  0.2974
  651MOL0     N89751  12.222   5.191   7.170  0.0386 -0.1714 -0.0908
  651MOL0     N89752  12.108   5.162   7.233  0.5134  0.2255  0.1126
  651MOL0     C89753  11.399   5.526   7.660 -0.1530  0.4942  0.6495
  651MOL0     C89754  11.277   5.561   7.626  0.5494  1.1931  0.5696
  651MOL0     C89755  10.864   5.724   7.595  0.2844  0.0991 -0.7710
  651MOL0     C89756  10.759   5.692   7.687 -0.4006 -0.0672 -0.5247
  651MOL0     C89757  10.628   5.720   7.656  0.0212 -0.6683  0.7431
  651MOL0     C89758  10.592   5.775   7.533 -0.8423  0.8923  0.3445
  651MOL0     O89759  10.463   5.817   7.515 -0.2941  0.1507 -0.3644
  651MOL0     C89760  10.442   5.961   7.493  0.2874 -1.2877  0.0782
  651MOL0     C89761  10.290   5.986   7.517  0.7246 -0.4216  0.4054
  651MOL0     C89762  10.252   6.131   7.457 -0.1313  0.7742  0.2234
  651MOL0     C89763  10.122   6.183   7.526 -0.8273  0.3810  0.6152
  651MOL0     C89764  10.081   6.307   7.475  0.1230 -0.1793 -0.0850
  651MOL0     C89765  10.049   6.418   7.432 -0.1417  0.9871  0.0687
  651MOL0     C89766  10.694   5.801   7.430  0.1194  0.4828 -0.1007
  651MOL0     C89767  10.828   5.780   7.462 -0.2022 -0.1536 -0.2380
  651MOL0     C89768  10.927   5.824   7.356 -0.0011  0.6737  0.4653
  651MOL0     H89769  11.331   5.870   7.521  3.4709  1.6030  2.6145
  651MOL0     H89770  11.545   5.828   7.598  0.6600  0.4105 -1.8755
  651MOL0     H89771  11.761   5.725   7.694 -1.8074  0.0316  1.0348
  651MOL0     H89772  11.728   5.637   7.547  1.0853  0.5563 -0.9064
  651MOL0     H89773  11.945   5.555   7.644  0.7711 -2.8005 -0.9424
  651MOL0     H89774  11.850   5.543   7.801 -3.0664  1.2109 -0.5982
  651MOL0     H89775  11.741   5.346   7.741 -1.0432  2.9681  0.0827
  651MOL0     H89776  11.798   5.344   7.580 -1.7197  0.1731  0.1145
  651MOL0     H89777  12.032   5.368   7.685 -0.0460 -0.8624  0.5668
  651MOL0     H89778  11.966   5.322   7.836 -0.3212  1.0397  0.2246
  651MOL0     H89779  11.890   5.103   7.745  0.3640 -0.6384 -2.1289
  651MOL0     H89780  12.059   5.129   7.740 -0.4403 -2.4282  0.1173
  651MOL0     H89781  11.884   5.162   7.488 -0.2955 -0.6346  0.2815
  651MOL0     H89782  12.055   5.193   7.504  1.3966 -0.3181  0.7503
  651MOL0     H89783  11.936   4.912   7.572 -0.8259 -0.7823 -0.1577
  651MOL0     H89784  12.104   4.958   7.579 -1.4882  1.6985  2.8188
  651MOL0     H89785  12.037   4.858   7.354  0.9648 -0.7719 -2.0802
  651MOL0     H89786  11.937   4.995   7.318  1.3815  0.4339  0.1090
  651MOL0     H89787  12.300   4.916   7.316 -0.7697 -0.8645 -1.1062
  651MOL0     H89788  12.440   5.084   7.001  2.1821 -1.0419  0.3616
  651MOL0     H89789  12.498   4.986   7.143 -0.5524 -0.1922  1.6034
  651MOL0     H89790  12.496   5.283   7.131 -0.5862 -1.0278 -0.7991
  651MOL0     H89791  12.559   5.192   7.269 -0.6815  1.3356  0.3060
  651MOL0     H89792  12.672   5.187   6.985 -1.2303 -0.1879  0.2301
  651MOL0     H89793  12.733   5.289   7.106 -3.0942  1.8663 -1.6075
  651MOL0     H89794  12.714   4.984   7.150 -3.9609  2.5273 -0.1786
  651MOL0     H89795  12.840   5.054   7.056 -1.3960  1.9480 -2.7546
  651MOL0     H89796  12.968   5.028   7.478  0.7139 -0.4588  0.4610
  651MOL0     H89797  13.277   4.958   7.577  0.4184  0.7942  0.3634
  651MOL0     H89798  13.125   5.016   7.632 -1.3221 -0.8434 -0.9139
  651MOL0     H89799  13.247   5.145   7.600 -0.5725  0.5355 -1.3859
  651MOL0     H89800  13.559   5.281   7.492 -1.3958  1.6253 -1.0020
  651MOL0     H89801  13.778   5.365   7.534 -1.9000  1.7347 -0.0479
  651MOL0     H89802  14.054   5.431   7.168 -1.5852 -1.9778  0.0167
  651MOL0     H89803  13.961   5.577   7.219 -0.2947 -0.4672 -0.0359
  651MOL0     H89804  14.103   5.610   7.413 -2.9494 -1.6250  0.9328
  651MOL0     H89805  14.206   5.469   7.382  1.0766  1.9187  0.4344
  651MOL0     H89806  14.177   5.700   7.194 -1.9783 -0.9424  0.6369
  651MOL0     H89807  14.281   5.550   7.188  1.1697  1.8603 -0.4509
  651MOL0     H89808  14.304   5.751   7.408  0.7264 -1.1625  0.5548
  651MOL0     H89809  14.387   5.771   7.253 -2.6585 -1.2352 -1.4135
  651MOL0     H89810  14.441   5.565   7.474 -3.6589 -0.6887 -0.6648
  651MOL0     H89811  14.467   5.505   7.315 -0.8480  0.2294  0.6151
  651MOL0     H89812  14.585   5.738   7.457 -1.5568  2.2746 -2.1308
  651MOL0     H89813  14.618   5.726   7.284 -0.2578 -1.7435 -2.5585
  651MOL0     H89814  14.729   5.520   7.287  1.6419  1.0585  0.1754
  651MOL0     H89815  14.662   5.484   7.451  0.9615 -0.5998  0.3015
  651MOL0     H89816  14.907   5.645   7.372  2.0077 -2.1381 -0.1943
  651MOL0     H89817  14.876   5.517   7.491 -4.1066 -0.7117  1.5241
  651MOL0     H89818  13.870   5.347   7.111 -0.8542  1.1889  0.2806
  651MOL0     H89819  13.672   5.190   7.086 -1.5322 -1.8247  1.1518
  651MOL0     H89820  13.272   5.158   7.115 -0.5841  0.8224 -0.0669
  651MOL0     H89821  13.030   5.155   7.068  1.7402  0.3939 -0.7609
  651MOL0     H89822  11.407   5.431   7.711 -0.9461  0.2010  0.2381
  651MOL0     H89823  11.193   5.492   7.636  0.4336  0.9006 -1.9780
  651MOL0     H89824  10.780   5.645   7.782 -1.3846  0.0960 -0.2100
  651MOL0     H89825  10.560   5.696   7.737 -1.6124  1.9423  0.2274
  651MOL0     H89826  10.499   6.021   7.565 -0.1642 -0.4556 -0.2428
  651MOL0     H89827  10.473   5.966   7.388  3.2108 -0.9786  0.8642
  651MOL0     H89828  10.278   5.980   7.626  3.6008 -1.5061  0.7431
  651MOL0     H89829  10.240   5.903   7.467  2.1251 -0.7209 -0.5577
  651MOL0     H89830  10.331   6.194   7.500 -1.1769  1.5226  1.0957
  651MOL0     H89831  10.250   6.118   7.349  2.1084 -1.7389  0.3771
  651MOL0     H89832  10.129   6.194   7.635 -1.5234 -0.7132  0.7959
  651MOL0     H89833  10.044   6.111   7.500  0.7530 -0.4794 -2.1023
  651MOL0     H89834  10.034   6.523   7.418 -0.3483  1.4713  3.1962
  651MOL0     H89835  10.656   5.838   7.335 -0.3610 -0.4095 -0.2677
  651MOL0     H89836  10.993   5.901   7.398  1.8496  0.6670 -2.1817
  651MOL0     H89837  10.983   5.742   7.311  0.0847  1.1406 -0.2932
  651MOL0     H89838  10.880   5.867   7.267 -1.7207 -1.2507  0.3870
  652MOL0     O89839   7.774   7.423  11.012 -0.1576 -0.3825  0.4098
  652MOL0     C89840   7.827   7.454  11.118  0.0431 -0.4405 -0.5102
  652MOL0     O89841   7.791   7.392  11.239  0.3525  0.6051 -0.3370
  652MOL0     C89842   7.690   7.303  11.242  0.5390  0.4712  0.8678
  652MOL0     C89843   7.712   7.171  11.233 -0.7109  0.0010  0.2762
  652MOL0     C89844   7.606   7.078  11.231 -0.0240  0.2724 -0.4828
  652MOL0     C89845   7.471   7.123  11.229 -0.5118  0.2117  0.8265
  652MOL0     O89846   7.369   7.030  11.236 -0.6194  0.2101  0.0863
  652MOL0     C89847   7.379   6.920  11.156 -0.2129 -0.0567 -0.3722
  652MOL0     C89848   7.287   6.810  11.211  0.9933 -0.3911  0.2206
  652MOL0     C89849   7.321   6.691  11.121  0.4557 -0.6402  0.6153
  652MOL0     C89850   7.247   6.564  11.163 -0.0988 -0.6626  0.2031
  652MOL0     C89851   7.301   6.436  11.115  0.1007 -0.0344 -0.0882
  652MOL0     C89852   7.221   6.313  11.171  0.3857 -0.5629  0.0492
  652MOL0     C89853   7.265   6.185  11.107 -0.2392  0.2106  0.0610
  652MOL0     C89854   7.403   6.124  11.158 -0.2877  0.1357  0.5203
  652MOL0     N89855   7.405   6.016  11.253  0.0172  0.9766 -0.4880
  652MOL0     C89856   7.383   5.890  11.215 -0.2694 -0.4347 -0.7225
  652MOL0     C89857   7.375   5.825  11.331 -0.2282 -0.1443 -0.7507
  652MOL0     C89858   7.346   5.678  11.340  0.1349  0.2712 -0.1615
  652MOL0     C89859   7.199   5.653  11.340  0.2516 -0.3908 -0.8192
  652MOL0     C89860   7.159   5.546  11.235 -0.8683  0.2986 -0.2188
  652MOL0     C89861   7.175   5.600  11.089  0.2544 -0.6506  0.3675
  652MOL0     O89862   7.114   5.500  11.004 -0.3351 -0.3266 -0.1098
  652MOL0     C89863   7.118   5.508  10.867 -0.8034 -0.7123 -0.1941
  652MOL0     C89864   7.048   5.411  10.796 -0.3566  0.8484  0.5666
  652MOL0     C89865   7.052   5.408  10.651 -1.1595  0.6209  0.0222
  652MOL0     C89866   6.969   5.291  10.589 -0.1378 -0.3384  0.0682
  652MOL0     C89867   7.111   5.512  10.577 -0.5367 -0.4952  0.3605
  652MOL0     C89868   7.084   5.549  10.435 -0.2524 -0.4620  0.2473
  652MOL0     O89869   7.140   5.668  10.397 -0.0277 -0.9358  0.6892
  652MOL0     C89870   7.091   5.747  10.292  0.6644 -0.1695 -0.2118
  652MOL0     C89871   7.088   5.878  10.319  0.8104 -0.7673 -0.0948
  652MOL0     C89872   7.033   5.963  10.223  0.2611  0.3629  0.2491
  652MOL0     C89873   6.967   5.924  10.100 -0.5506  0.4587 -0.1441
  652MOL0     O89874   6.898   6.015  10.028  0.5245  0.0412  0.9042
  652MOL0     C89875   6.851   5.979   9.902 -0.8484 -0.5882 -0.1616
  652MOL0     C89876   6.779   6.091   9.821  0.2422 -0.3268 -0.0094
  652MOL0     C89877   6.862   6.219   9.798 -0.3518 -0.2269  0.0724
  652MOL0     C89878   6.771   6.332   9.744  0.3089  0.5630 -0.4847
  652MOL0     C89879   6.824   6.477   9.770  0.2024 -0.2922  0.1309
  652MOL0     C89880   6.979   6.499   9.744  0.2322  0.9057 -0.0096
  652MOL0     C89881   7.031   6.630   9.788 -0.4077 -0.1027  1.1763
  652MOL0     C89882   7.182   6.623   9.754  0.2808 -0.1248 -1.4537
  652MOL0    Cl89883   7.287   6.480   9.797  0.1546 -0.0543 -0.1288
  652MOL0     C89884   6.979   5.779  10.079  0.4322  0.2287  0.8546
  652MOL0     C89885   7.042   5.698  10.174 -0.3110  0.6938 -0.0544
  652MOL0     O89886   6.999   5.486  10.376  1.0070  0.6542 -0.2824
  652MOL0     C89887   7.182   5.607  10.652  0.2436 -0.4883 -0.2082
  652MOL0     C89888   7.180   5.611  10.789  0.4907 -0.0719 -0.4009
  652MOL0     N89889   7.372   5.915  11.431 -0.9105 -0.1735  0.1291
  652MOL0     N89890   7.384   6.033  11.380  0.4761 -0.1541 -0.0647
  652MOL0     C89891   7.446   7.260  11.239 -0.2960 -0.4873  0.9524
  652MOL0     C89892   7.556   7.348  11.253  0.8425  0.2559  0.2687
  652MOL0     C89893   7.931   7.559  11.123  0.4678 -0.7873  0.9031
  652MOL0     C89894   7.975   7.606  11.248 -0.0384  0.3774 -0.0105
  652MOL0     C89895   8.061   7.716  11.259  0.4498 -0.0664  0.1948
  652MOL0     C89896   8.111   7.778  11.147  0.5287  0.4078  0.7633
  652MOL0     O89897   8.193   7.883  11.144 -0.6341  0.2549  0.7505
  652MOL0     C89898   8.241   7.954  11.262 -0.0379 -0.2997  0.2478
  652MOL0     C89899   8.389   7.929  11.292  0.1716  0.2810  0.2168
  652MOL0     C89900   8.417   7.783  11.299  0.1847 -0.5461  0.0881
  652MOL0     C89901   8.574   7.753  11.317  0.7329 -0.5826  0.2579
  652MOL0     C89902   8.617   7.616  11.280  0.4773 -0.9915 -0.3959
  652MOL0     C89903   8.637   7.499  11.266  0.1765 -0.4398  0.1079
  652MOL0     C89904   8.070   7.729  11.022 -0.0798  0.2805 -0.1367
  652MOL0     C89905   7.981   7.631  11.006  0.5720  0.7505 -0.4572
  652MOL0     C89906   7.958   7.588  10.862  0.7016  0.2216  0.3585
  652MOL0     H89907   7.817   7.143  11.229 -0.7111  0.2010 -1.5379
  652MOL0     H89908   7.639   6.975  11.220  0.3635  0.0998  1.8962
  652MOL0     H89909   7.477   6.875  11.173 -0.0854  1.2235  2.7599
  652MOL0     H89910   7.367   6.942  11.049  3.2988  0.6280 -0.7440
  652MOL0     H89911   7.308   6.790  11.317 -0.8604  0.7836  0.8547
  652MOL0     H89912   7.185   6.848  11.196  1.2769 -0.2154 -1.3978
  652MOL0     H89913   7.283   6.715  11.021  1.4342  3.1336  1.0048
  652MOL0     H89914   7.427   6.668  11.108  0.4547  0.3468 -1.7244
  652MOL0     H89915   7.251   6.557  11.272  0.6419 -0.9463  0.1618
  652MOL0     H89916   7.140   6.589  11.158  0.2278  1.7669  2.4835
  652MOL0     H89917   7.404   6.433  11.154 -0.6021  1.7055  2.1125
  652MOL0     H89918   7.300   6.453  11.007  0.9952 -0.0954 -0.1120
  652MOL0     H89919   7.226   6.314  11.280 -3.0507 -0.4047  0.3351
  652MOL0     H89920   7.117   6.335  11.144  1.3186  1.7404 -2.0479
  652MOL0     H89921   7.275   6.202  10.999  2.3688 -0.0928  0.1693
  652MOL0     H89922   7.187   6.109  11.116 -0.8838  0.7674 -0.7542
  652MOL0     H89923   7.445   6.088  11.063  1.2021  2.2594  0.2997
  652MOL0     H89924   7.461   6.206  11.201 -0.9634  0.0217  1.6961
  652MOL0     H89925   7.381   5.837  11.120 -1.6529 -0.2133 -0.8387
  652MOL0     H89926   7.388   5.650  11.437  1.3559  1.5064 -0.3008
  652MOL0     H89927   7.416   5.634  11.269  0.5699 -0.1125  0.5021
  652MOL0     H89928   7.176   5.640  11.446  6.5844  1.1737  1.2323
  652MOL0     H89929   7.154   5.746  11.305  2.0877  1.2998  1.0413
  652MOL0     H89930   7.228   5.461  11.243 -0.8596  0.3948  0.9275
  652MOL0     H89931   7.057   5.514  11.255 -0.2870 -0.0849  2.5515
  652MOL0     H89932   7.118   5.693  11.086  0.9190 -0.2110  1.1281
  652MOL0     H89933   7.277   5.630  11.064 -0.3611 -0.1459 -1.7411
  652MOL0     H89934   7.004   5.331  10.854 -1.5886 -0.5081 -2.0909
  652MOL0     H89935   7.010   5.270  10.490 -1.1432  1.0178 -0.6751
  652MOL0     H89936   6.865   5.319  10.573  0.2249  1.0534  0.0146
  652MOL0     H89937   6.972   5.214  10.666 -0.8705  2.4852  3.1814
  652MOL0     H89938   7.139   5.912  10.409  1.3345  2.6109 -1.5124
  652MOL0     H89939   7.029   6.069  10.246  1.1232  0.2467  1.0205
  652MOL0     H89940   6.944   5.970   9.845 -0.4121  2.1241  0.0051
  652MOL0     H89941   6.801   5.882   9.903  2.8228 -2.7085  2.8657
  652MOL0     H89942   6.745   6.051   9.725 -2.2722 -2.0935  1.4856
  652MOL0     H89943   6.687   6.105   9.879 -0.6546 -1.3269 -1.1365
  652MOL0     H89944   6.943   6.202   9.727 -1.8426 -2.4662 -1.2315
  652MOL0     H89945   6.889   6.254   9.899  3.2168 -0.7675 -0.5697
  652MOL0     H89946   6.669   6.327   9.781  0.1162 -4.4248 -1.0380
  652MOL0     H89947   6.758   6.306   9.639 -4.7946 -1.9733  0.4894
  652MOL0     H89948   6.757   6.546   9.718 -1.2746 -1.4068  0.4866
  652MOL0     H89949   6.806   6.499   9.875 -1.3924  0.4442 -0.2679
  652MOL0     H89950   7.002   6.481   9.638  0.9393 -3.4388  0.6933
  652MOL0     H89951   7.034   6.424   9.801 -0.8768 -1.8335 -2.2610
  652MOL0     H89952   7.019   6.645   9.895  4.1334  0.9721  1.7096
  652MOL0     H89953   6.980   6.712   9.737 -0.2120 -2.1401 -2.7148
  652MOL0     H89954   7.236   6.712   9.788 -1.1117  0.5487 -0.9323
  652MOL0     H89955   7.189   6.635   9.645  0.4199  3.2482 -1.1722
  652MOL0     H89956   6.937   5.738   9.988  1.0222 -1.6372  1.3663
  652MOL0     H89957   7.062   5.593  10.155 -1.5025  0.1361  1.5136
  652MOL0     H89958   7.241   5.679  10.597 -0.6970 -0.5403 -1.3426
  652MOL0     H89959   7.227   5.696  10.839 -0.3695  0.6800 -0.8380
  652MOL0     H89960   7.346   7.299  11.252  0.4837  2.7243 -1.4004
  652MOL0     H89961   7.534   7.451  11.282 -5.0156 -1.5447  4.0111
  652MOL0     H89962   7.937   7.570  11.343  0.4651  0.8530  0.3783
  652MOL0     H89963   8.092   7.737  11.361 -0.3551 -3.0843  1.1434
  652MOL0     H89964   8.233   8.063  11.257  0.1739 -0.2745  0.3981
  652MOL0     H89965   8.187   7.933  11.355  0.8021  3.8644  1.8957
  652MOL0     H89966   8.420   7.961  11.392  2.9141 -1.9410  0.2260
  652MOL0     H89967   8.458   7.976  11.220  1.0704  0.9927  1.5009
  652MOL0     H89968   8.367   7.732  11.382 -0.5218  0.4170  0.2547
  652MOL0     H89969   8.388   7.729  11.208 -1.2347 -1.0369  0.8150
  652MOL0     H89970   8.598   7.783  11.420 -1.7951 -1.5267  1.2131
  652MOL0     H89971   8.632   7.814  11.248 -0.3368  1.5645  1.1616
  652MOL0     H89972   8.653   7.395  11.282 -0.9988 -0.6229  0.2048
  652MOL0     H89973   8.100   7.790  10.937 -2.8233  1.2568 -0.4905
  652MOL0     H89974   7.969   7.479  10.857 -1.3414  0.0068 -1.2156
  652MOL0     H89975   7.868   7.626  10.813  1.2489  0.3691 -0.5575
  652MOL0     H89976   8.044   7.622  10.804  1.5465 -2.5000 -0.1419
  653MOL0     O89977   8.311   7.276  10.942  0.2747  0.0169  0.5534
  653MOL0     C89978   8.330   7.342  11.046  0.0333 -0.1748 -0.0646
  653MOL0     O89979   8.417   7.446  11.061  0.6242 -0.9996 -0.0517
  653MOL0     C89980   8.465   7.499  10.940  0.3192 -0.0797 -0.2736
  653MOL0     C89981   8.390   7.608  10.894 -0.6321 -0.4094  0.3933
  653MOL0     C89982   8.434   7.671  10.772  0.5032 -0.9690  0.7167
  653MOL0     C89983   8.554   7.639  10.704  0.5015  0.4524  0.1063
  653MOL0     O89984   8.608   7.709  10.593  0.7234  0.3459  0.2988
  653MOL0     C89985   8.642   7.838  10.633 -0.1166 -0.7741 -0.2547
  653MOL0     C89986   8.732   7.894  10.532  0.5062  0.3126 -0.5020
  653MOL0     C89987   8.655   7.925  10.402  0.1532  0.8971 -0.0879
  653MOL0     C89988   8.759   7.970  10.296  0.2308  0.1872 -0.4457
  653MOL0     C89989   8.700   7.974  10.153  0.0091  0.0411  0.0871
  653MOL0     C89990   8.795   8.036  10.049 -0.2433  0.2406  0.0069
  653MOL0     C89991   8.929   7.963  10.042 -0.3029  0.3647  0.0671
  653MOL0     C89992   8.937   7.819   9.999 -0.1300 -0.9245  0.2663
  653MOL0     N89993   8.907   7.799   9.848  0.4616 -0.6102 -0.1115
  653MOL0     C89994   8.925   7.890   9.743 -0.2242  0.8216 -1.0366
  653MOL0     C89995   8.878   7.819   9.632 -0.2119  0.7162  0.4170
  653MOL0     C89996   8.879   7.871   9.490  1.1209 -0.3081 -0.0697
  653MOL0     C89997   8.744   7.921   9.431 -0.4763  0.0694 -0.0223
  653MOL0     C89998   8.750   7.908   9.277  0.2001 -0.8607 -1.1333
  653MOL0     C89999   8.856   7.996   9.204  0.0518 -0.6336 -0.2616
  653MOL0     O90000   8.828   7.999   9.063  0.2086 -0.2618  0.6971
  653MOL0     C90001   8.881   7.900   8.977 -0.1436  1.3206  0.0827
  653MOL0     C90002   8.821   7.880   8.853 -0.1108 -0.1399  1.3463
  653MOL0     C90003   8.867   7.802   8.752  0.0425  0.6922  0.2445
  653MOL0     C90004   8.806   7.828   8.612 -0.4928  0.0005  0.9309
  653MOL0     C90005   8.986   7.722   8.771  0.0065  0.4912 -0.7130
  653MOL0     C90006   9.047   7.630   8.672 -0.6358 -0.5624  0.3715
  653MOL0     O90007   8.984   7.600   8.552 -0.3459 -0.2815  0.1210
  653MOL0     C90008   9.059   7.520   8.469  0.0163  0.3067  0.2535
  653MOL0     C90009   9.075   7.383   8.483 -0.7157 -0.3592  0.1173
  653MOL0     C90010   9.145   7.306   8.381 -0.3077 -1.3833 -0.4503
  653MOL0     C90011   9.188   7.363   8.261 -0.3440 -0.4515  0.7753
  653MOL0     O90012   9.256   7.295   8.152 -0.2354 -0.7960  0.1189
  653MOL0     C90013   9.276   7.154   8.169 -0.4049 -0.3902  0.4112
  653MOL0     C90014   9.346   7.119   8.036  0.1195 -0.4058 -0.0720
  653MOL0     C90015   9.455   7.025   8.048 -0.6777  0.4609  0.1846
  653MOL0     C90016   9.502   6.969   7.910 -0.0830 -0.4807 -1.1938
  653MOL0     C90017   9.612   6.868   7.924  0.3917  0.0067 -0.7362
  653MOL0     C90018   9.672   6.813   7.795  0.5966 -0.3854 -0.3780
  653MOL0     C90019   9.755   6.690   7.810  0.4689  0.0692 -0.2652
  653MOL0     C90020   9.774   6.614   7.671  0.1966 -0.7110  0.0586
  653MOL0    Cl90021   9.854   6.718   7.550  0.0987 -0.2502  0.4512
  653MOL0     C90022   9.169   7.502   8.247  0.4437  0.1088 -0.3219
  653MOL0     C90023   9.102   7.581   8.343  0.1516  0.3819 -0.3049
  653MOL0     O90024   9.165   7.594   8.695 -1.4939 -0.4096 -0.4324
  653MOL0     C90025   9.053   7.742   8.897 -0.2282  0.5800 -0.0473
  653MOL0     C90026   9.004   7.832   8.994  0.3884 -0.0582 -0.1593
  653MOL0     N90027   8.838   7.696   9.668 -0.0014 -0.0402  0.1075
  653MOL0     N90028   8.851   7.691   9.798  0.6825  0.4594 -0.6671
  653MOL0     C90029   8.616   7.525  10.747 -0.0957  1.9276  0.8084
  653MOL0     C90030   8.568   7.453  10.862 -0.3519 -0.3055 -0.3522
  653MOL0     C90031   8.257   7.305  11.179  0.7000  0.0388 -0.6364
  653MOL0     C90032   8.262   7.398  11.283 -1.4306  0.4881  0.5858
  653MOL0     C90033   8.208   7.380  11.406 -1.7833 -0.2744 -0.3113
  653MOL0     C90034   8.118   7.281  11.426 -0.2583 -0.2070  0.2138
  653MOL0     O90035   8.068   7.284  11.559  0.3458  0.2880  0.0170
  653MOL0     C90036   7.988   7.165  11.601 -0.2436 -0.2960  0.3164
  653MOL0     C90037   7.971   7.174  11.752  1.1799  0.6461  1.1698
  653MOL0     C90038   7.867   7.278  11.787  0.7551  0.4454 -0.5181
  653MOL0     C90039   7.883   7.313  11.936 -0.9824 -0.7866  0.4370
  653MOL0     C90040   7.785   7.419  11.959  0.3566 -0.2953 -0.6858
  653MOL0     C90041   7.691   7.505  11.975  0.5090 -0.3159  0.0417
  653MOL0     C90042   8.084   7.195  11.318  0.5730  0.2472 -0.2977
  653MOL0     C90043   8.152   7.201  11.196  1.0531  0.3093  0.2305
  653MOL0     C90044   8.130   7.089  11.100 -0.9105  0.9083  0.7475
  653MOL0     H90045   8.307   7.641  10.957 -0.8649 -1.6139  0.7305
  653MOL0     H90046   8.365   7.746  10.735  1.3134  0.1626  1.4479
  653MOL0     H90047   8.703   7.833  10.724  2.3725 -0.6492 -1.8179
  653MOL0     H90048   8.556   7.900  10.659  0.6421  1.7974 -3.3463
  653MOL0     H90049   8.777   7.986  10.569  3.4028 -1.0067 -0.4958
  653MOL0     H90050   8.805   7.814  10.518  0.2608 -0.3208  1.5938
  653MOL0     H90051   8.603   7.840  10.357 -0.1744  1.0462 -0.0003
  653MOL0     H90052   8.591   8.013  10.417 -1.3474 -0.3697  1.3668
  653MOL0     H90053   8.799   8.070  10.316 -1.2262  0.0661  4.4032
  653MOL0     H90054   8.851   7.910  10.300 -1.2268 -2.2723 -1.5241
  653MOL0     H90055   8.615   8.042  10.166 -0.9371 -1.5602  3.4692
  653MOL0     H90056   8.655   7.880  10.122  1.2951 -1.1826  1.7587
  653MOL0     H90057   8.752   8.031   9.949 -0.0611  1.7021 -0.1679
  653MOL0     H90058   8.815   8.139  10.079 -1.0706  0.8837 -1.5643
  653MOL0     H90059   8.982   7.986  10.135  1.4937 -0.2579 -0.7573
  653MOL0     H90060   8.986   8.022   9.970 -1.9495 -0.3322 -1.8948
  653MOL0     H90061   9.038   7.787  10.024 -1.0929 -2.5069  2.4777
  653MOL0     H90062   8.858   7.769  10.056 -0.1503  1.1738  2.1702
  653MOL0     H90063   8.968   7.989   9.753  0.4592  0.3486  1.3696
  653MOL0     H90064   8.914   7.793   9.422 -2.5560 -2.7752  0.5283
  653MOL0     H90065   8.948   7.955   9.490  0.0231  0.6320 -1.7321
  653MOL0     H90066   8.656   7.864   9.461 -2.5246  0.2794 -4.7240
  653MOL0     H90067   8.729   8.021   9.473  1.1613  0.1189  0.5324
  653MOL0     H90068   8.753   7.808   9.232  1.8474 -0.2797 -2.4611
  653MOL0     H90069   8.655   7.953   9.249  0.7434  0.0239 -1.6138
  653MOL0     H90070   8.852   8.093   9.254 -2.1060 -2.8122  4.3646
  653MOL0     H90071   8.954   7.954   9.226 -0.0878 -1.9416 -1.8835
  653MOL0     H90072   8.742   7.952   8.832  1.5581  1.1676 -0.9881
  653MOL0     H90073   8.887   7.872   8.552  1.2032  2.3323  4.5518
  653MOL0     H90074   8.724   7.900   8.612  1.1078  1.9167 -0.1368
  653MOL0     H90075   8.780   7.726   8.582  1.1734 -0.7761  1.9532
  653MOL0     H90076   9.049   7.334   8.576 -0.6031 -3.0055 -1.1436
  653MOL0     H90077   9.164   7.200   8.399  3.5540 -0.8224 -0.3573
  653MOL0     H90078   9.336   7.135   8.259  0.1837 -0.2230  0.0633
  653MOL0     H90079   9.189   7.089   8.180 -0.1978 -0.4928  1.5215
  653MOL0     H90080   9.260   7.074   7.985  0.0948 -1.3183  0.7409
  653MOL0     H90081   9.383   7.201   7.974 -0.8775  2.3508  2.7346
  653MOL0     H90082   9.425   6.956   8.127  0.1094  2.0521  1.9408
  653MOL0     H90083   9.541   7.075   8.093  0.7570 -1.8860  0.2240
  653MOL0     H90084   9.527   7.048   7.839  0.0348  0.3020 -0.2984
  653MOL0     H90085   9.424   6.914   7.856 -1.9297  0.0029  0.8286
  653MOL0     H90086   9.696   6.921   7.969 -1.5532  1.9610  0.8775
  653MOL0     H90087   9.595   6.783   7.991  1.6280  0.2203 -0.1254
  653MOL0     H90088   9.722   6.901   7.754 -1.0812  0.6867 -0.2174
  653MOL0     H90089   9.594   6.790   7.723 -1.2324 -0.0359  1.3872
  653MOL0     H90090   9.710   6.623   7.884  0.9017 -0.9515 -0.8956
  653MOL0     H90091   9.860   6.704   7.837  0.6131 -2.3874  0.7182
  653MOL0     H90092   9.676   6.589   7.630  0.4084 -0.2226 -0.7759
  653MOL0     H90093   9.832   6.523   7.684  1.9742  0.3658  0.1127
  653MOL0     H90094   9.214   7.547   8.160  1.2619 -4.8747 -2.8586
  653MOL0     H90095   9.100   7.690   8.341 -0.3991  0.5069  2.3351
  653MOL0     H90096   9.148   7.692   8.907  1.5472  2.4218 -4.9218
  653MOL0     H90097   9.057   7.836   9.088 -0.6664  0.0914  0.4437
  653MOL0     H90098   8.698   7.491  10.685 -0.2100  1.0662  1.1231
  653MOL0     H90099   8.614   7.361  10.897 -0.3953 -0.6011 -1.0569
  653MOL0     H90100   8.336   7.477  11.282 -2.2463  1.2741 -0.6440
  653MOL0     H90101   8.245   7.438  11.490  0.0907  0.5803 -1.6749
  653MOL0     H90102   7.896   7.154  11.543  0.4029  0.6348 -0.9261
  653MOL0     H90103   8.043   7.072  11.584  2.2150  0.3191  3.7670
  653MOL0     H90104   8.068   7.199  11.797  0.6486  0.4479  2.4682
  653MOL0     H90105   7.939   7.072  11.773 -0.3588  0.8717  0.0548
  653MOL0     H90106   7.867   7.373  11.733  1.1620  0.9545  0.3492
  653MOL0     H90107   7.770   7.238  11.758  0.0392 -0.7478  2.9793
  653MOL0     H90108   7.983   7.342  11.970 -0.2105 -3.5963  0.7762
  653MOL0     H90109   7.856   7.224  11.993 -2.9648  1.9974  4.3310
  653MOL0     H90110   7.633   7.593  11.990  0.3718  0.7253 -4.8839
  653MOL0     H90111   8.020   7.111  11.340  3.3107 -1.3557  2.3779
  653MOL0     H90112   8.211   7.060  11.033 -1.0408  1.5921  0.2931
  653MOL0     H90113   8.114   6.999  11.160  0.4590  1.5591  2.1858
  653MOL0     H90114   8.042   7.099  11.037 -0.3178 -3.0802 -1.0437
  654MOL0     O90115   3.945   7.647  10.956  0.7084 -0.6487  0.6804
  654MOL0     C90116   3.890   7.694  10.856  0.2728  1.2217  0.1801
  654MOL0     O90117   3.932   7.797  10.779  0.1140  0.5574  0.1819
  654MOL0     C90118   4.047   7.864  10.813  0.3162  0.8280 -0.3019
  654MOL0     C90119   4.175   7.799  10.826  0.2180 -0.6511  0.0684
  654MOL0     C90120   4.291   7.859  10.867 -0.4408  0.6127 -0.2492
  654MOL0     C90121   4.283   7.990  10.909 -0.0003 -1.1785 -0.2254
  654MOL0     O90122   4.386   8.076  10.961 -0.1491  0.3573  1.0051
  654MOL0     C90123   4.527   8.048  10.944  1.7610  0.9408  0.0723
  654MOL0     C90124   4.595   8.157  11.015 -0.1256 -0.1241  0.2611
  654MOL0     C90125   4.739   8.134  10.989 -0.6377  0.1666  0.8158
  654MOL0     C90126   4.834   8.223  11.072  0.4020 -0.3547 -0.9822
  654MOL0     C90127   4.965   8.258  11.002 -0.2065 -0.7868 -0.3295
  654MOL0     C90128   5.064   8.338  11.095  0.6365  0.4889 -0.3045
  654MOL0     C90129   5.129   8.253  11.204  0.0897 -0.0264 -0.1725
  654MOL0     C90130   5.229   8.153  11.161  0.2647  0.3374 -0.4553
  654MOL0     N90131   5.336   8.216  11.089  0.3897  0.3296 -0.4401
  654MOL0     C90132   5.414   8.332  11.116 -0.1707 -0.2863  0.7043
  654MOL0     C90133   5.471   8.377  10.995  0.8437  0.8271  0.1720
  654MOL0     C90134   5.544   8.505  10.968  0.2110  0.3966 -0.6010
  654MOL0     C90135   5.464   8.613  10.892 -0.3865 -0.5763  0.0991
  654MOL0     C90136   5.348   8.665  10.981 -0.2320  0.8748 -0.4994
  654MOL0     C90137   5.276   8.780  10.917  1.5643  0.5711 -0.1647
  654MOL0     O90138   5.137   8.762  10.961 -0.4143  0.3276 -0.4978
  654MOL0     C90139   5.058   8.677  10.884  0.6836  0.6039 -0.2656
  654MOL0     C90140   5.096   8.577  10.789  0.1015  0.5690 -0.3157
  654MOL0     C90141   5.005   8.489  10.729  0.0995 -0.1272  0.4558
  654MOL0     C90142   5.074   8.357  10.670 -0.0536 -0.1650  0.0736
  654MOL0     C90143   4.865   8.519  10.733  0.0160 -0.0459 -0.4426
  654MOL0     C90144   4.765   8.442  10.669 -0.1120 -0.4362  0.0933
  654MOL0     O90145   4.643   8.443  10.732 -0.0575  0.1142  0.3227
  654MOL0     C90146   4.544   8.360  10.693  0.1066  0.7478  0.4223
  654MOL0     C90147   4.416   8.414  10.688 -0.8453 -0.1100 -0.0268
  654MOL0     C90148   4.310   8.336  10.646 -0.1168  0.7446  0.5340
  654MOL0     C90149   4.328   8.209  10.594 -0.8439 -0.1645 -0.1211
  654MOL0     O90150   4.218   8.148  10.538  0.0113 -0.7092 -0.1671
  654MOL0     C90151   4.241   8.004  10.517  0.1404 -0.6027  0.7420
  654MOL0     C90152   4.098   7.969  10.473 -0.7107 -0.6001 -0.3294
  654MOL0     C90153   4.081   7.813  10.449 -0.0129  0.4445  0.3402
  654MOL0     C90154   3.956   7.778  10.370  0.5666  0.6967  0.6671
  654MOL0     C90155   3.956   7.622  10.353  0.1902  0.0795 -0.0371
  654MOL0     C90156   4.032   7.571  10.232  0.3132 -0.2131  0.2183
  654MOL0     C90157   4.034   7.422  10.224  0.2115  0.6143  0.1114
  654MOL0     C90158   3.897   7.359  10.181  0.3389 -0.4256  0.1173
  654MOL0    Cl90159   3.784   7.318  10.318 -0.2302 -0.0237  0.1322
  654MOL0     C90160   4.457   8.158  10.596  0.6781  0.2440  0.7198
  654MOL0     C90161   4.567   8.227  10.657 -0.0848 -0.2977  0.1121
  654MOL0     O90162   4.792   8.389  10.563  0.2064 -0.2881 -0.6858
  654MOL0     C90163   4.825   8.628  10.816  0.4147  0.1368  0.6456
  654MOL0     C90164   4.919   8.704  10.883 -0.5564 -0.4411  0.6582
  654MOL0     N90165   5.440   8.281  10.905  0.1848  0.1198 -0.0289
  654MOL0     N90166   5.363   8.191  10.959  0.4829 -0.5562  0.2494
  654MOL0     C90167   4.157   8.064  10.893 -0.6498 -0.2196  0.1689
  654MOL0     C90168   4.044   7.991  10.844 -0.1986 -0.2958 -0.6216
  654MOL0     C90169   3.760   7.635  10.806  0.6099 -1.1611  0.5427
  654MOL0     C90170   3.708   7.671  10.684 -0.5099  1.0466  0.0893
  654MOL0     C90171   3.594   7.604  10.627  0.8244 -0.3398  0.0115
  654MOL0     C90172   3.524   7.502  10.698  0.7096  0.4031  0.3746
  654MOL0     O90173   3.414   7.426  10.656  0.6040 -0.7560 -0.1025
  654MOL0     C90174   3.370   7.470  10.522  0.0768  0.3323 -0.1471
  654MOL0     C90175   3.256   7.368  10.495 -0.2387 -1.0413  1.7966
  654MOL0     C90176   3.140   7.375  10.584 -0.1585 -1.4861  0.5358
  654MOL0     C90177   3.047   7.257  10.540  0.6966 -0.0634  0.1157
  654MOL0     C90178   2.928   7.238  10.624 -0.1026 -0.3722 -0.3655
  654MOL0     C90179   2.836   7.241  10.701  0.4311 -0.6515  0.2776
  654MOL0     C90180   3.571   7.481  10.822 -0.3888 -0.5472 -0.8646
  654MOL0     C90181   3.682   7.543  10.876  0.5919 -0.4326  0.6805
  654MOL0     C90182   3.698   7.511  11.023  0.4352 -0.1597 -0.0268
  654MOL0     H90183   4.187   7.692  10.817  0.6892 -0.7736  1.8453
  654MOL0     H90184   4.383   7.804  10.884  0.1064  0.6537 -2.6838
  654MOL0     H90185   4.550   8.047  10.837  0.4847  1.2105 -0.2269
  654MOL0     H90186   4.554   7.950  10.984  2.7294  0.7333 -1.0564
  654MOL0     H90187   4.568   8.257  10.979  1.2520 -0.0187 -0.5464
  654MOL0     H90188   4.571   8.153  11.121 -1.5515  0.1055 -0.0296
  654MOL0     H90189   4.762   8.029  11.009  2.1763  0.0279 -2.2613
  654MOL0     H90190   4.766   8.156  10.885 -0.5785  2.1853  1.2192
  654MOL0     H90191   4.785   8.315  11.106  1.1410 -0.8789  1.7739
  654MOL0     H90192   4.849   8.174  11.169 -1.5810 -0.7197 -0.8215
  654MOL0     H90193   4.924   8.320  10.922 -0.5179  0.0775  0.4781
  654MOL0     H90194   5.010   8.166  10.962 -0.7044 -0.2956 -2.1167
  654MOL0     H90195   5.130   8.394  11.028 -1.8343  1.7718 -1.8295
  654MOL0     H90196   5.003   8.413  11.147 -0.7138 -0.0472 -1.0839
  654MOL0     H90197   5.051   8.207  11.264  0.7342  1.1607  1.6516
  654MOL0     H90198   5.167   8.337  11.264 -3.4277  1.0496  0.7707
  654MOL0     H90199   5.275   8.113  11.252 -2.0904  0.7051  0.9755
  654MOL0     H90200   5.178   8.070  11.111 -0.2014 -0.2518  0.9591
  654MOL0     H90201   5.416   8.386  11.210  0.4449  2.3581 -0.7205
  654MOL0     H90202   5.637   8.481  10.916 -0.1382  0.6413 -1.3370
  654MOL0     H90203   5.574   8.548  11.064  0.3450  1.4751 -1.1191
  654MOL0     H90204   5.534   8.695  10.876 -0.2555 -0.6128  0.4823
  654MOL0     H90205   5.429   8.561  10.802 -1.6258 -2.0681  1.3839
  654MOL0     H90206   5.287   8.586  11.025 -1.3638  3.2856  2.6392
  654MOL0     H90207   5.388   8.711  11.072  0.5294  0.3377 -0.5503
  654MOL0     H90208   5.315   8.870  10.965 -2.4386  1.1500  2.5477
  654MOL0     H90209   5.279   8.790  10.808 -2.9499  1.7466 -0.3767
  654MOL0     H90210   5.198   8.538  10.787  0.4562  1.0946  2.9646
  654MOL0     H90211   5.158   8.320  10.729  1.4712  0.3498 -1.6757
  654MOL0     H90212   5.117   8.390  10.574 -1.5360 -1.2148 -1.0070
  654MOL0     H90213   5.005   8.273  10.658  0.6825 -0.3889 -5.0958
  654MOL0     H90214   4.400   8.514  10.727 -0.0756 -0.1968  0.5185
  654MOL0     H90215   4.216   8.390  10.644  0.3601  1.6137 -1.8302
  654MOL0     H90216   4.310   7.988  10.434 -0.0014 -1.5823  0.7991
  654MOL0     H90217   4.272   7.940  10.600  0.6215  1.1949  2.0023
  654MOL0     H90218   4.024   8.006  10.545  0.4806  2.4665 -0.5073
  654MOL0     H90219   4.090   8.015  10.374  2.3752 -0.6547 -0.6959
  654MOL0     H90220   4.084   7.760  10.544  0.8850 -1.7415 -0.8302
  654MOL0     H90221   4.164   7.769  10.393 -1.0985 -4.2755  1.9725
  654MOL0     H90222   3.954   7.834  10.276 -0.1942  0.5162  0.5705
  654MOL0     H90223   3.863   7.802  10.422 -0.6844 -0.5208 -0.9151
  654MOL0     H90224   3.987   7.578  10.448 -2.6075 -1.8858  0.1062
  654MOL0     H90225   3.856   7.585  10.330  0.8761 -1.6765 -0.4042
  654MOL0     H90226   4.136   7.602  10.244  0.0153  0.5919  0.7420
  654MOL0     H90227   3.989   7.618  10.143 -0.6521  0.8244  1.2024
  654MOL0     H90228   4.069   7.370  10.314 -1.4415 -2.5323 -0.8968
  654MOL0     H90229   4.107   7.401  10.146 -1.3272 -1.6630 -0.8411
  654MOL0     H90230   3.920   7.265  10.129  1.5914 -1.8809  3.0285
  654MOL0     H90231   3.848   7.413  10.100 -1.8848 -0.9280  1.0445
  654MOL0     H90232   4.489   8.065  10.550 -1.5263  0.9094 -2.4778
  654MOL0     H90233   4.670   8.193  10.663 -0.2974 -0.6788  2.4272
  654MOL0     H90234   4.722   8.661  10.815 -0.1681 -1.4988 -1.6264
  654MOL0     H90235   4.892   8.784  10.951  0.2945  1.2087 -0.8654
  654MOL0     H90236   4.157   8.170  10.916 -2.5344 -0.1429 -0.0432
  654MOL0     H90237   3.945   8.033  10.826 -0.8589 -1.1717  0.7860
  654MOL0     H90238   3.766   7.728  10.612  1.3752 -2.5637 -1.5449
  654MOL0     H90239   3.557   7.646  10.534  0.8114  2.0685  1.0508
  654MOL0     H90240   3.331   7.572  10.525 -0.1902  0.2509  3.6088
  654MOL0     H90241   3.452   7.457  10.451  1.7050 -0.0897  1.7144
  654MOL0     H90242   3.298   7.267  10.505 -1.2369 -1.3283  3.4395
  654MOL0     H90243   3.229   7.371  10.389 -0.3322 -3.0996  1.7207
  654MOL0     H90244   3.174   7.351  10.685 -2.9416 -2.3961  1.3487
  654MOL0     H90245   3.085   7.470  10.583  1.3418 -0.5834  1.3203
  654MOL0     H90246   3.099   7.160  10.541 -1.2684 -1.6701  7.6406
  654MOL0     H90247   3.014   7.285  10.439  0.3121 -0.6616  0.0685
  654MOL0     H90248   2.757   7.239  10.774  0.8237 -4.1279  0.7869
  654MOL0     H90249   3.509   7.419  10.885  0.7792 -0.1477  0.7487
  654MOL0     H90250   3.665   7.599  11.079  1.8445 -1.4480  3.0334
  654MOL0     H90251   3.641   7.425  11.059  0.3006 -0.2974 -0.5473
  654MOL0     H90252   3.802   7.508  11.056  0.2035  3.3230  1.4024
  655MOL0     O90253   3.487   3.662   9.265  0.0453 -0.3799 -0.2156
  655MOL0     C90254   3.503   3.709   9.151  0.5777 -0.7570  0.1169
  655MOL0     O90255   3.612   3.694   9.077  0.0486 -0.1166 -0.1507
  655MOL0     C90256   3.692   3.584   9.098  0.7383 -0.0718  0.1063
  655MOL0     C90257   3.764   3.577   9.214 -0.6175 -0.9807 -1.0656
  655MOL0     C90258   3.857   3.471   9.241  0.1758 -0.1538  0.1425
  655MOL0     C90259   3.882   3.374   9.137 -0.3185 -0.1557 -0.2505
  655MOL0     O90260   3.984   3.274   9.139 -0.2921 -0.3397 -0.9767
  655MOL0     C90261   4.126   3.311   9.140 -0.0000  0.8696  1.4186
  655MOL0     C90262   4.203   3.248   9.260 -0.6677  0.5756  0.2182
  655MOL0     C90263   4.179   3.325   9.383 -0.3006 -0.8126  0.0784
  655MOL0     C90264   4.234   3.269   9.514  0.0862  0.0231  0.4800
  655MOL0     C90265   4.372   3.325   9.557  0.4304  0.3371 -0.1826
  655MOL0     C90266   4.423   3.233   9.668  1.0715 -0.0005 -0.3028
  655MOL0     C90267   4.566   3.257   9.721  0.4794  0.7024 -0.6888
  655MOL0     C90268   4.618   3.135   9.795 -0.2288  0.8996 -0.1589
  655MOL0     N90269   4.752   3.159   9.849  0.3501  0.7458 -0.1605
  655MOL0     C90270   4.868   3.176   9.784  0.2189 -0.1913  0.3422
  655MOL0     C90271   4.969   3.190   9.872 -1.1208  0.8369 -0.4215
  655MOL0     C90272   5.112   3.193   9.827 -0.0534  0.3166 -0.0750
  655MOL0     C90273   5.206   3.122   9.926 -1.5804 -0.3931  0.0630
  655MOL0     C90274   5.348   3.106   9.864 -0.0615 -1.2051 -0.0343
  655MOL0     C90275   5.438   3.020   9.951  0.1927 -0.5064 -0.3339
  655MOL0     O90276   5.462   3.058  10.082  0.4470 -0.1667 -0.7007
  655MOL0     C90277   5.559   3.003  10.161  0.6840 -0.5571  0.6044
  655MOL0     C90278   5.589   3.060  10.283  0.2431  0.0634 -0.6644
  655MOL0     C90279   5.692   3.021  10.368  0.4724  0.5746  0.5768
  655MOL0     C90280   5.703   3.085  10.512  0.0239  0.2844  0.0105
  655MOL0     C90281   5.782   2.923  10.316 -0.3010 -0.3260  0.0628
  655MOL0     C90282   5.914   2.887  10.392  0.1991 -0.4731 -0.0161
  655MOL0     O90283   5.962   2.766  10.357  0.2493  0.0694  1.4918
  655MOL0     C90284   6.079   2.720  10.407  0.6092 -0.4808  0.7685
  655MOL0     C90285   6.072   2.598  10.472 -0.3261 -0.4688  0.2033
  655MOL0     C90286   6.187   2.551  10.538 -0.5928  0.0031 -0.0177
  655MOL0     C90287   6.309   2.612  10.520 -1.0005 -0.1179 -0.6115
  655MOL0     O90288   6.427   2.572  10.570  0.9088  0.1035 -0.4802
  655MOL0     C90289   6.431   2.481  10.686 -0.1158 -0.2332 -0.7188
  655MOL0     C90290   6.427   2.334  10.632  0.0771  0.5080  0.0842
  655MOL0     C90291   6.545   2.287  10.548  0.7282 -0.1174 -1.1557
  655MOL0     C90292   6.562   2.136  10.553  0.3117  0.2504 -0.1606
  655MOL0     C90293   6.662   2.090  10.452 -0.1548  0.0504 -0.4763
  655MOL0     C90294   6.678   1.941  10.440  0.4806  0.4634  0.6453
  655MOL0     C90295   6.560   1.869  10.374  0.9494  0.0093 -0.3071
  655MOL0     C90296   6.588   1.736  10.317  0.3261 -0.8406  0.1234
  655MOL0    Cl90297   6.669   1.781  10.162 -0.5492  0.1849 -0.1849
  655MOL0     C90298   6.310   2.744  10.465  0.1656 -0.3872 -0.1075
  655MOL0     C90299   6.197   2.801  10.411  0.0571 -0.4177  0.5490
  655MOL0     O90300   5.966   2.971  10.473 -0.5690  0.8114  0.1583
  655MOL0     C90301   5.756   2.864  10.193  0.7995  0.3656 -0.0851
  655MOL0     C90302   5.645   2.905  10.117  0.4699 -0.0407 -0.1880
  655MOL0     N90303   4.919   3.179   9.998 -0.1776  0.5512  0.8781
  655MOL0     N90304   4.793   3.154   9.981  0.2249 -0.3964 -0.4579
  655MOL0     C90305   3.822   3.390   9.018  0.4145  0.8999 -0.3878
  655MOL0     C90306   3.725   3.496   8.998 -0.8574  0.6458 -0.8686
  655MOL0     C90307   3.402   3.783   9.073 -0.0879 -0.9224  0.5692
  655MOL0     C90308   3.444   3.889   8.986 -0.2419  0.9529  0.6419
  655MOL0     C90309   3.355   3.975   8.914 -0.8901 -0.0300 -0.4340
  655MOL0     C90310   3.213   3.957   8.931  0.4031 -0.3507  0.3013
  655MOL0     O90311   3.111   4.027   8.874 -0.1618 -0.6843 -0.4152
  655MOL0     C90312   3.151   4.142   8.802  0.7402 -0.0886  0.5943
  655MOL0     C90313   3.029   4.185   8.725  0.5873 -0.2810 -0.5566
  655MOL0     C90314   3.001   4.088   8.617 -0.6061  0.1588  0.3850
  655MOL0     C90315   2.896   4.138   8.514 -0.1064  0.3132 -0.4383
  655MOL0     C90316   2.861   4.035   8.416 -0.1361 -0.4584  0.4150
  655MOL0     C90317   2.808   3.958   8.335  0.4243  0.1951  0.5559
  655MOL0     C90318   3.169   3.861   9.026  0.2091  0.6755  0.6435
  655MOL0     C90319   3.260   3.769   9.087  0.0258  0.1476  1.5808
  655MOL0     C90320   3.208   3.688   9.203  0.5647  0.5221 -0.4916
  655MOL0     H90321   3.758   3.650   9.294  2.8274 -3.3764  1.6990
  655MOL0     H90322   3.912   3.457   9.333  0.3992  1.4371  0.2931
  655MOL0     H90323   4.140   3.419   9.146  1.1151  0.8889 -0.5492
  655MOL0     H90324   4.164   3.265   9.048  1.1684  1.5002  1.5723
  655MOL0     H90325   4.168   3.148   9.288  3.3242 -0.8819  0.6714
  655MOL0     H90326   4.307   3.231   9.231 -1.1050 -1.1073 -0.5156
  655MOL0     H90327   4.229   3.420   9.363  0.8540 -1.7517 -1.7507
  655MOL0     H90328   4.076   3.346   9.411  0.0058 -0.6636  1.1639
  655MOL0     H90329   4.166   3.287   9.598 -0.9138  0.7559 -0.4397
  655MOL0     H90330   4.245   3.161   9.502 -0.7372 -0.1676  1.2996
  655MOL0     H90331   4.369   3.429   9.589  0.4569  0.8243 -1.6944
  655MOL0     H90332   4.432   3.320   9.466 -2.4340  0.6507 -2.2458
  655MOL0     H90333   4.358   3.227   9.756  0.2481 -4.0675 -0.9741
  655MOL0     H90334   4.420   3.129   9.634  0.1647 -0.4391  1.0059
  655MOL0     H90335   4.557   3.334   9.798 -0.3267  0.6588 -0.7351
  655MOL0     H90336   4.631   3.281   9.636 -2.3819 -0.5990 -3.4657
  655MOL0     H90337   4.556   3.107   9.881  0.6767 -1.9574 -0.3281
  655MOL0     H90338   4.629   3.052   9.724  1.2005  0.4081  0.6144
  655MOL0     H90339   4.872   3.175   9.676  1.7742  2.4738  0.2744
  655MOL0     H90340   5.154   3.294   9.816  2.8058 -1.0762 -3.8678
  655MOL0     H90341   5.116   3.147   9.728 -0.0686 -0.2434  0.1812
  655MOL0     H90342   5.213   3.184  10.015  2.1218 -1.6853  0.8541
  655MOL0     H90343   5.158   3.024   9.942 -0.9380 -0.8084 -0.4883
  655MOL0     H90344   5.345   3.082   9.757 -2.0960  1.0129 -0.5498
  655MOL0     H90345   5.385   3.209   9.868  1.3501 -1.4687 -3.1879
  655MOL0     H90346   5.405   2.916   9.948  1.2680 -0.9241  1.1509
  655MOL0     H90347   5.533   3.017   9.896 -0.5880  2.5551 -2.0919
  655MOL0     H90348   5.513   3.131  10.316  1.5251  1.8353 -1.4077
  655MOL0     H90349   5.613   3.140  10.540 -0.9827 -1.7015  0.9209
  655MOL0     H90350   5.787   3.152  10.528  0.9743 -1.4697  3.1071
  655MOL0     H90351   5.715   3.004  10.585  0.7285  1.8879  1.7231
  655MOL0     H90352   5.979   2.545  10.489  0.5829 -1.5774  2.1476
  655MOL0     H90353   6.182   2.459  10.596  0.7527 -0.0187  0.0927
  655MOL0     H90354   6.523   2.505  10.740 -0.4462  0.6716 -0.5380
  655MOL0     H90355   6.348   2.504  10.753  1.5946  0.7002  1.1967
  655MOL0     H90356   6.420   2.267  10.718  0.9014 -0.4818 -0.5763
  655MOL0     H90357   6.339   2.314  10.571  1.6017  0.5298 -2.2800
  655MOL0     H90358   6.628   2.339  10.597  0.2594 -1.0590  0.7163
  655MOL0     H90359   6.531   2.322  10.445  2.0683 -0.0429 -1.3325
  655MOL0     H90360   6.466   2.085  10.537  1.4309 -2.5525  1.3073
  655MOL0     H90361   6.592   2.106  10.653 -2.3544  0.8418  0.9006
  655MOL0     H90362   6.640   2.124  10.351  1.2324 -3.4153 -2.1151
  655MOL0     H90363   6.755   2.129  10.495 -0.1046  0.7893 -1.2564
  655MOL0     H90364   6.684   1.895  10.539  3.7000 -1.3675 -0.2378
  655MOL0     H90365   6.769   1.913  10.384 -0.9475  0.2664 -1.7277
  655MOL0     H90366   6.509   1.934  10.302 -2.4041 -1.3910  0.6050
  655MOL0     H90367   6.483   1.851  10.450 -0.6900  3.0462 -1.0935
  655MOL0     H90368   6.498   1.678  10.294 -0.9037  0.0108  2.5331
  655MOL0     H90369   6.657   1.671  10.372  2.2604  1.2296  0.2995
  655MOL0     H90370   6.406   2.792  10.458 -0.1387  0.1162 -0.9680
  655MOL0     H90371   6.191   2.904  10.380  3.1649 -0.5416 -0.8256
  655MOL0     H90372   5.823   2.784  10.163 -0.9102 -0.8463 -0.8109
  655MOL0     H90373   5.622   2.844  10.030  1.7320 -0.7185 -0.0702
  655MOL0     H90374   3.844   3.323   8.936 -1.8904 -1.5207  0.8001
  655MOL0     H90375   3.682   3.503   8.899 -1.1170 -1.1000 -0.9004
  655MOL0     H90376   3.547   3.912   8.962 -0.3385  0.9806  0.2614
  655MOL0     H90377   3.397   4.054   8.852 -0.4532  0.8426  0.9435
  655MOL0     H90378   3.182   4.231   8.859  0.0392  1.6442 -1.5967
  655MOL0     H90379   3.223   4.118   8.723 -0.0950  3.5027 -1.4951
  655MOL0     H90380   3.048   4.281   8.676 -0.3092 -2.2935 -5.4960
  655MOL0     H90381   2.945   4.199   8.794  1.1367  1.7012 -0.2351
  655MOL0     H90382   3.091   4.069   8.558 -0.8657  0.6342 -0.1743
  655MOL0     H90383   2.980   3.991   8.663  1.7131 -0.7061 -0.2571
  655MOL0     H90384   2.939   4.222   8.458  1.6501  0.3102  0.8285
  655MOL0     H90385   2.806   4.162   8.572 -2.0105 -0.2105 -2.9722
  655MOL0     H90386   2.768   3.887   8.265 -0.3322 -1.0155  2.1516
  655MOL0     H90387   3.062   3.856   9.045  0.0265  0.4680 -0.3960
  655MOL0     H90388   3.106   3.652   9.186  0.4183  0.7859 -0.2000
  655MOL0     H90389   3.269   3.598   9.207 -0.9470 -0.5432 -0.2214
  655MOL0     H90390   3.209   3.738   9.301  1.6445 -0.2729 -0.0859
  656MOL0     O90391   1.846   0.645   1.182 -0.1487 -0.7126  0.5524
  656MOL0     C90392   1.804   0.758   1.204 -0.3083 -0.0964 -0.1268
  656MOL0     O90393   1.880   0.875   1.180  0.1457 -0.4097  0.8054
  656MOL0     C90394   1.999   0.864   1.127 -0.0078  0.8489  0.0810
  656MOL0     C90395   2.016   0.870   0.987 -0.0276  0.0869  0.4430
  656MOL0     C90396   2.143   0.857   0.927  0.6025  0.4814 -0.0177
  656MOL0     C90397   2.253   0.816   1.008  0.0801 -0.9577  0.4923
  656MOL0     O90398   2.375   0.823   0.947  0.4222 -0.0433  0.4132
  656MOL0     C90399   2.479   0.729   1.002  0.3643 -0.3031 -0.6354
  656MOL0     C90400   2.565   0.680   0.887 -0.5760  0.3054  0.2161
  656MOL0     C90401   2.670   0.578   0.936  0.2805 -0.1838 -0.3645
  656MOL0     C90402   2.735   0.496   0.823  0.4868  0.3797  0.3271
  656MOL0     C90403   2.853   0.402   0.855 -0.4498 -0.4520  0.0488
  656MOL0     C90404   2.983   0.479   0.868  0.4484 -0.4716  0.3470
  656MOL0     C90405   3.083   0.384   0.935  0.1101  0.0871 -0.1314
  656MOL0     C90406   3.098   0.245   0.876  0.4738  0.4757  0.3080
  656MOL0     N90407   3.219   0.176   0.933 -0.0841 -0.3850 -0.1751
  656MOL0     C90408   3.342   0.179   0.874  0.7391  1.0495  0.7160
  656MOL0     C90409   3.412   0.072   0.923 -1.1620  0.0911 -0.4944
  656MOL0     C90410   3.547   0.013   0.887  0.6335  1.0180 -0.4126
  656MOL0     C90411   3.541  -0.132   0.837  0.0319 -0.0525 -0.7457
  656MOL0     C90412   3.684  -0.188   0.812 -0.1330 -0.2350  0.1034
  656MOL0     C90413   3.789  -0.178   0.928 -0.7317 -0.4414 -0.5442
  656MOL0     O90414   3.922  -0.180   0.874  0.7452 -0.6992 -0.0784
  656MOL0     C90415   4.009  -0.167   0.980 -0.0174 -0.1097  0.4233
  656MOL0     C90416   4.053  -0.039   1.010 -1.0616  0.6194  0.2197
  656MOL0     C90417   4.146  -0.008   1.113 -0.3814  0.0229  0.4764
  656MOL0     C90418   4.177   0.136   1.138 -0.3918  0.4150  0.0970
  656MOL0     C90419   4.221  -0.114   1.172  0.1847  0.6135  0.1427
  656MOL0     C90420   4.333  -0.089   1.271  0.0240  0.1734 -0.8843
  656MOL0     O90421   4.361  -0.201   1.349 -0.5513  0.1577  0.0996
  656MOL0     C90422   4.459  -0.201   1.444  0.1883  0.3627  0.7801
  656MOL0     C90423   4.512  -0.085   1.499 -0.3925  1.1081  0.2761
  656MOL0     C90424   4.627  -0.089   1.585  0.1566 -0.1363  0.0932
  656MOL0     C90425   4.675  -0.211   1.629 -0.2778 -0.5412  0.5377
  656MOL0     O90426   4.786  -0.201   1.709 -0.2904  0.6156 -0.2242
  656MOL0     C90427   4.872  -0.312   1.743  0.1903  0.3031 -0.3411
  656MOL0     C90428   4.807  -0.388   1.860 -0.1847  0.1943 -0.5747
  656MOL0     C90429   4.879  -0.521   1.892  0.6223  0.0811 -0.0325
  656MOL0     C90430   4.920  -0.531   2.038  0.1869 -0.2583 -0.2705
  656MOL0     C90431   5.025  -0.430   2.087 -0.1283  0.1965  0.3512
  656MOL0     C90432   5.030  -0.429   2.248  0.5218  0.0010  0.5570
  656MOL0     C90433   5.071  -0.562   2.315 -0.2310  0.1720  0.2275
  656MOL0     C90434   5.202  -0.628   2.261  0.1209 -0.6323 -0.0551
  656MOL0    Cl90435   5.283  -0.739   2.387 -0.2758  0.4092 -0.3613
  656MOL0     C90436   4.628  -0.327   1.567 -0.5101  0.5935 -0.1452
  656MOL0     C90437   4.516  -0.316   1.482 -0.0078  0.1236  0.0153
  656MOL0     O90438   4.401   0.015   1.263 -0.2748 -0.1688 -0.4457
  656MOL0     C90439   4.186  -0.251   1.134  0.2543 -0.2191 -0.1411
  656MOL0     C90440   4.079  -0.277   1.043  0.3117 -1.4622 -0.5072
  656MOL0     N90441   3.336   0.004   1.018  0.4096  0.0972  0.0189
  656MOL0     N90442   3.221   0.068   1.020  0.8289  0.0961  0.8091
  656MOL0     C90443   2.235   0.812   1.148  0.1443 -0.1554 -0.6796
  656MOL0     C90444   2.108   0.837   1.203 -0.1833 -0.5664  0.2326
  656MOL0     C90445   1.672   0.775   1.265 -0.0444  0.0765  0.2015
  656MOL0     C90446   1.659   0.878   1.355 -0.1989 -0.6803  0.6323
  656MOL0     C90447   1.541   0.910   1.425  0.3562 -0.0763 -0.0396
  656MOL0     C90448   1.428   0.823   1.413 -0.0206  1.2875 -0.1701
  656MOL0     O90449   1.329   0.847   1.504 -0.0228  0.1796  0.0379
  656MOL0     C90450   1.338   0.748   1.608  0.8428  0.8248  0.5392
  656MOL0     C90451   1.253   0.794   1.718 -0.2643  0.1659  0.0415
  656MOL0     C90452   1.288   0.938   1.762 -0.8891 -0.4843 -0.2278
  656MOL0     C90453   1.220   0.977   1.903 -0.1250 -0.6069  0.3128
  656MOL0     C90454   1.089   0.913   1.931 -0.3495  0.1974  0.7207
  656MOL0     C90455   0.978   0.881   1.945 -0.1335 -0.0361  0.8952
  656MOL0     C90456   1.442   0.719   1.317  0.4450  0.5433  0.1619
  656MOL0     C90457   1.554   0.704   1.236  0.5922  0.6678 -0.1399
  656MOL0     C90458   1.555   0.606   1.116  0.1973  0.0892 -0.6318
  656MOL0     H90459   1.920   0.902   0.948  0.3629 -1.3309 -1.9002
  656MOL0     H90460   2.167   0.853   0.821 -1.5633 -1.2862 -0.5101
  656MOL0     H90461   2.426   0.642   1.043 -0.7117 -0.0515 -1.4489
  656MOL0     H90462   2.545   0.762   1.084 -3.0228  1.3169  1.6826
  656MOL0     H90463   2.492   0.627   0.825 -0.9182  4.1711 -3.0786
  656MOL0     H90464   2.610   0.758   0.825 -2.2123  1.8962  0.9683
  656MOL0     H90465   2.751   0.637   0.980 -0.5097  3.3517 -3.1868
  656MOL0     H90466   2.627   0.510   1.011 -1.2782  1.3521  0.2105
  656MOL0     H90467   2.648   0.444   0.781 -1.4419  3.3470  0.3323
  656MOL0     H90468   2.771   0.553   0.736  0.6848 -0.7128 -0.3410
  656MOL0     H90469   2.869   0.340   0.766  3.4346  1.2280 -0.6196
  656MOL0     H90470   2.834   0.340   0.943 -0.3799  3.1136  2.8060
  656MOL0     H90471   3.013   0.516   0.769 -2.8788 -0.0395 -0.6493
  656MOL0     H90472   2.970   0.558   0.943  1.5461 -0.6611  0.7513
  656MOL0     H90473   3.058   0.365   1.039 -0.6719  0.9759 -0.1436
  656MOL0     H90474   3.179   0.437   0.936 -0.0463  0.5808 -2.9027
  656MOL0     H90475   3.004   0.191   0.891  0.3216  0.1106 -1.6812
  656MOL0     H90476   3.114   0.256   0.769  4.5964  0.9530  0.8172
  656MOL0     H90477   3.380   0.256   0.807  1.4250  0.0553 -0.0639
  656MOL0     H90478   3.594   0.012   0.986 -0.0413  0.8703 -0.0913
  656MOL0     H90479   3.609   0.078   0.824  0.2159  4.1780  2.2058
  656MOL0     H90480   3.494  -0.192   0.915 -1.4698  0.8586 -0.9087
  656MOL0     H90481   3.485  -0.145   0.744  1.1688 -0.3292 -1.4033
  656MOL0     H90482   3.683  -0.287   0.765  1.2274  1.1421 -3.1514
  656MOL0     H90483   3.716  -0.128   0.726 -0.8197 -1.2506 -0.8891
  656MOL0     H90484   3.774  -0.085   0.983  1.0808 -0.2907 -0.2342
  656MOL0     H90485   3.782  -0.265   0.993 -1.8942  1.5827  2.2234
  656MOL0     H90486   3.999   0.045   0.968  0.6956  1.7281  0.0921
  656MOL0     H90487   4.183   0.172   1.241 -1.6748  1.9103 -0.2988
  656MOL0     H90488   4.106   0.196   1.079  0.3943  0.4288 -0.8586
  656MOL0     H90489   4.277   0.160   1.100 -0.3656  3.6868  1.8288
  656MOL0     H90490   4.477   0.016   1.479  0.8847  1.7679  1.1649
  656MOL0     H90491   4.674   0.000   1.624 -1.9116 -0.3362  3.3779
  656MOL0     H90492   4.895  -0.380   1.660  1.6292  0.2985  0.0369
  656MOL0     H90493   4.963  -0.255   1.766 -0.6546  1.1045  1.1826
  656MOL0     H90494   4.802  -0.324   1.948 -3.0598 -0.8149  0.0885
  656MOL0     H90495   4.705  -0.425   1.845  0.0685 -2.3232  2.7426
  656MOL0     H90496   4.976  -0.522   1.842  1.0950 -0.2065  0.8650
  656MOL0     H90497   4.817  -0.609   1.872  0.9170 -0.7041  2.1955
  656MOL0     H90498   4.975  -0.624   2.059  0.5510  0.2031  0.8743
  656MOL0     H90499   4.836  -0.533   2.108  1.8193  0.8849  1.8341
  656MOL0     H90500   5.122  -0.464   2.049 -1.3562 -0.0142 -2.9331
  656MOL0     H90501   5.005  -0.335   2.036  2.6190  0.0876 -1.1339
  656MOL0     H90502   4.931  -0.397   2.282  0.8555  0.7593  0.8331
  656MOL0     H90503   5.105  -0.355   2.274  0.3192  0.6568 -0.6469
  656MOL0     H90504   4.989  -0.635   2.308  0.9888 -1.3973  1.6308
  656MOL0     H90505   5.090  -0.539   2.420 -1.1999  1.7638  0.0959
  656MOL0     H90506   5.269  -0.556   2.213 -0.0665  0.2093  0.9321
  656MOL0     H90507   5.157  -0.698   2.189  0.6545 -1.1542  0.1063
  656MOL0     H90508   4.675  -0.420   1.598  2.3104  1.8473 -0.3095
  656MOL0     H90509   4.484  -0.403   1.425  0.1684 -1.2200  1.8992
  656MOL0     H90510   4.236  -0.335   1.180  1.7493  0.6093 -0.1625
  656MOL0     H90511   4.056  -0.380   1.017 -1.6778 -0.8798 -1.2703
  656MOL0     H90512   2.314   0.811   1.222  1.4463  2.7031 -1.8416
  656MOL0     H90513   2.096   0.831   1.311  0.2637 -1.8876  0.2298
  656MOL0     H90514   1.753   0.931   1.370  0.8309 -1.9923 -0.9090
  656MOL0     H90515   1.543   0.993   1.495  1.2731 -1.9613  2.3026
  656MOL0     H90516   1.283   0.664   1.565  0.8397  1.2032 -0.2204
  656MOL0     H90517   1.438   0.717   1.641  1.7372 -0.6220 -2.9922
  656MOL0     H90518   1.270   0.726   1.802 -0.4981  0.4895  0.3541
  656MOL0     H90519   1.146   0.791   1.692 -0.3935  3.7839 -0.3363
  656MOL0     H90520   1.397   0.935   1.767 -0.7401 -0.6846 -2.5515
  656MOL0     H90521   1.250   1.009   1.688 -1.6661 -1.7274 -1.0754
  656MOL0     H90522   1.206   1.085   1.895  1.7747 -0.2445  1.3142
  656MOL0     H90523   1.283   0.952   1.989  0.0798  0.3211  0.4478
  656MOL0     H90524   0.878   0.850   1.968 -0.1128 -0.9353 -0.1449
  656MOL0     H90525   1.356   0.655   1.307 -0.8918  1.7743  2.7497
  656MOL0     H90526   1.459   0.558   1.094 -0.2324  0.3512  0.6208
  656MOL0     H90527   1.596   0.665   1.033  2.1125  2.8299  2.0236
  656MOL0     H90528   1.632   0.534   1.145  1.6334  2.0169  0.5548
  657MOL0     O90529  10.609   6.168   0.761 -0.1769  0.1095  0.4566
  657MOL0     C90530  10.515   6.089   0.762  0.9927  0.5311 -0.0479
  657MOL0     O90531  10.433   6.066   0.873 -1.5532 -0.0043  0.8281
  657MOL0     C90532  10.477   6.087   1.002 -0.0507  0.6306  0.5544
  657MOL0     C90533  10.451   5.981   1.093  0.6359 -0.6995 -0.6060
  657MOL0     C90534  10.480   5.993   1.229 -0.2311 -0.1283  0.1777
  657MOL0     C90535  10.541   6.109   1.278  0.2278  0.4473 -0.3937
  657MOL0     O90536  10.536   6.133   1.415 -0.3650  0.1791 -0.1434
  657MOL0     C90537  10.645   6.195   1.489  0.0691 -0.3781  1.0196
  657MOL0     C90538  10.772   6.114   1.471  0.1974 -1.0108 -0.0733
  657MOL0     C90539  10.889   6.145   1.566 -0.1845  0.4123  0.4635
  657MOL0     C90540  10.952   6.284   1.540  0.5649  0.2875 -0.3586
  657MOL0     C90541  11.079   6.302   1.622  0.2857 -0.0737  0.0438
  657MOL0     C90542  11.127   6.449   1.584  0.4776  0.0021  0.0736
  657MOL0     C90543  11.236   6.496   1.679  0.5797  0.2022 -0.1283
  657MOL0     C90544  11.322   6.601   1.604  0.0906  0.5523  0.6901
  657MOL0     N90545  11.246   6.731   1.569  0.1116  0.6777 -0.2891
  657MOL0     C90546  11.217   6.820   1.666  0.2587  0.0502  0.5681
  657MOL0     C90547  11.161   6.933   1.603 -0.6998  0.2391 -0.0135
  657MOL0     C90548  11.105   7.055   1.670 -0.9877 -0.2597 -0.4612
  657MOL0     C90549  11.211   7.176   1.670  0.3292  0.2720 -0.1786
  657MOL0     C90550  11.336   7.130   1.738 -0.1550 -0.0250 -0.0956
  657MOL0     C90551  11.432   7.249   1.756 -0.1408 -0.2532  0.9434
  657MOL0     O90552  11.375   7.355   1.824  0.1560  0.4622  0.4445
  657MOL0     C90553  11.445   7.468   1.861 -1.3109  0.2117  0.6459
  657MOL0     C90554  11.579   7.496   1.821  0.5596  0.1932 -0.3765
  657MOL0     C90555  11.635   7.621   1.863 -1.2981  1.2865 -0.4672
  657MOL0     C90556  11.765   7.637   1.791 -0.1411  0.2089  1.2368
  657MOL0     C90557  11.579   7.694   1.968  0.7265 -0.1950  0.7186
  657MOL0     C90558  11.629   7.823   2.027 -0.7876 -0.3738  0.6881
  657MOL0     O90559  11.549   7.900   2.109  0.3008 -0.3299 -0.1212
  657MOL0     C90560  11.602   7.999   2.189 -0.9086 -0.0671  0.8759
  657MOL0     C90561  11.547   8.133   2.187 -0.1590  0.2938 -0.5597
  657MOL0     C90562  11.603   8.240   2.259 -0.2484 -1.0407 -0.0690
  657MOL0     C90563  11.723   8.216   2.340 -0.7407 -0.3493  0.6927
  657MOL0     O90564  11.795   8.313   2.400  0.1313 -0.0479 -0.3971
  657MOL0     C90565  11.759   8.454   2.369 -0.3434  0.2151 -0.4073
  657MOL0     C90566  11.879   8.531   2.423 -0.3973  0.0129 -0.5513
  657MOL0     C90567  11.846   8.681   2.418 -0.0733 -0.4037  0.7965
  657MOL0     C90568  11.974   8.758   2.477 -0.1612  0.5033  0.4415
  657MOL0     C90569  11.934   8.894   2.533 -0.5826 -0.7371  0.5058
  657MOL0     C90570  12.051   8.985   2.572  0.0588 -0.1479 -0.1270
  657MOL0     C90571  12.018   9.128   2.591 -0.3371 -0.0674  0.3387
  657MOL0     C90572  12.038   9.216   2.469 -0.3350 -1.1712  0.0645
  657MOL0    Cl90573  12.216   9.240   2.428  0.1813 -0.2466 -0.1122
  657MOL0     C90574  11.773   8.083   2.339  0.2767  0.9572  0.2166
  657MOL0     C90575  11.709   7.973   2.266  0.3400 -0.0367 -0.6766
  657MOL0     O90576  11.744   7.852   1.995 -0.3766 -0.1060  0.7526
  657MOL0     C90577  11.449   7.650   2.010  0.6616 -0.3562 -0.1857
  657MOL0     C90578  11.385   7.543   1.955  0.0717  0.0802  0.3780
  657MOL0     N90579  11.161   6.905   1.472 -0.3382 -0.1806  0.1166
  657MOL0     N90580  11.207   6.786   1.450 -0.3152  0.3738 -0.2283
  657MOL0     C90581  10.581   6.210   1.187 -1.3267  0.2698 -0.8152
  657MOL0     C90582  10.548   6.198   1.050 -0.2561 -0.6136  0.0664
  657MOL0     C90583  10.476   6.023   0.635  0.4181  0.2369 -0.4792
  657MOL0     C90584  10.366   5.924   0.639 -0.5390  0.2811  0.4276
  657MOL0     C90585  10.316   5.873   0.523  0.6134  0.7752  0.2878
  657MOL0     C90586  10.351   5.914   0.395 -0.5724 -1.0513  0.1105
  657MOL0     O90587  10.300   5.862   0.275  0.5710 -1.7491  0.3261
  657MOL0     C90588  10.238   5.733   0.274  0.4942 -0.4805  0.0543
  657MOL0     C90589  10.230   5.673   0.130 -1.0476 -0.4536  0.4187
  657MOL0     C90590  10.122   5.734   0.042 -0.4123  0.1864  0.2511
  657MOL0     C90591  10.154   5.707  -0.110 -0.2947 -0.1433 -1.1354
  657MOL0     C90592  10.050   5.773  -0.186 -1.0122 -0.1865 -1.1667
  657MOL0     C90593   9.972   5.833  -0.254  0.5084  0.3149  0.3745
  657MOL0     C90594  10.459   6.004   0.392 -0.5611  0.5737 -0.0588
  657MOL0     C90595  10.522   6.056   0.501  0.4344  0.3902 -0.3169
  657MOL0     C90596  10.634   6.160   0.476  0.2748  0.9419 -0.1139
  657MOL0     H90597  10.398   5.891   1.064 -0.8355 -1.0662  2.7824
  657MOL0     H90598  10.446   5.922   1.303  0.1469 -0.9466 -0.4210
  657MOL0     H90599  10.615   6.206   1.593 -0.0746  3.5229  0.7199
  657MOL0     H90600  10.660   6.298   1.456  2.4921 -0.4562  1.6468
  657MOL0     H90601  10.748   6.009   1.489  1.2249 -1.5860 -1.8315
  657MOL0     H90602  10.804   6.116   1.366 -0.8246 -1.5170 -0.4142
  657MOL0     H90603  10.861   6.129   1.671 -0.1312 -1.4406  0.2148
  657MOL0     H90604  10.968   6.072   1.548 -0.3894  0.0576  0.9801
  657MOL0     H90605  10.967   6.302   1.433 -0.3325  0.0429 -0.5370
  657MOL0     H90606  10.879   6.350   1.587 -1.8740 -2.3779 -0.1001
  657MOL0     H90607  11.152   6.224   1.601  0.5887 -0.0494  0.9514
  657MOL0     H90608  11.045   6.290   1.725  1.4158 -1.3785  0.2849
  657MOL0     H90609  11.164   6.454   1.481 -0.5310 -1.5663 -0.3937
  657MOL0     H90610  11.039   6.513   1.592  1.8152  1.8211  0.9387
  657MOL0     H90611  11.300   6.412   1.706  1.2622  0.4192 -1.0352
  657MOL0     H90612  11.187   6.535   1.769 -1.5212 -1.9856 -0.2225
  657MOL0     H90613  11.411   6.610   1.667  0.5539 -5.8612  1.5808
  657MOL0     H90614  11.367   6.569   1.510 -0.8871  2.5497 -0.5470
  657MOL0     H90615  11.236   6.800   1.771 -0.8660 -0.3433  0.7117
  657MOL0     H90616  11.087   7.036   1.776 -0.6158 -2.5064 -0.7528
  657MOL0     H90617  11.006   7.074   1.627 -1.8076  0.5550  1.6455
  657MOL0     H90618  11.234   7.201   1.565 -2.5463 -0.4409 -1.0677
  657MOL0     H90619  11.163   7.266   1.708 -1.0250  1.1296 -3.5402
  657MOL0     H90620  11.307   7.081   1.831 -0.7579 -1.0009 -0.7898
  657MOL0     H90621  11.386   7.054   1.677  1.5947 -0.2812  1.5619
  657MOL0     H90622  11.514   7.197   1.807 -1.7390 -1.2779  2.6014
  657MOL0     H90623  11.477   7.278   1.661  0.0332 -3.7697 -0.2076
  657MOL0     H90624  11.642   7.439   1.753  1.5395  1.5374 -0.6409
  657MOL0     H90625  11.750   7.676   1.690 -1.1431 -3.4860 -0.2339
  657MOL0     H90626  11.815   7.541   1.772 -0.3053  0.7951 -2.9000
  657MOL0     H90627  11.843   7.697   1.838  0.2840 -0.0057  0.8072
  657MOL0     H90628  11.458   8.144   2.126 -3.1924 -2.4227  2.9173
  657MOL0     H90629  11.554   8.337   2.262  0.0309 -0.8502 -1.2998
  657MOL0     H90630  11.741   8.473   2.263  1.5618 -1.6240 -1.1293
  657MOL0     H90631  11.671   8.487   2.426  0.0212 -1.2297  1.0548
  657MOL0     H90632  11.900   8.502   2.526  1.5371 -0.3809 -1.0096
  657MOL0     H90633  11.968   8.504   2.365  0.1966  2.1872 -0.7451
  657MOL0     H90634  11.753   8.705   2.471  0.2742  2.5562  0.2432
  657MOL0     H90635  11.832   8.715   2.315  2.2942 -2.6668 -0.3892
  657MOL0     H90636  12.041   8.779   2.393 -1.5896  2.1251 -0.3619
  657MOL0     H90637  12.027   8.698   2.552  1.2964  0.2813 -0.7320
  657MOL0     H90638  11.886   8.945   2.450 -0.5086 -1.8581 -0.2480
  657MOL0     H90639  11.863   8.879   2.615 -1.3538 -0.8911 -0.1765
  657MOL0     H90640  12.133   8.983   2.499 -1.6761 -1.7881 -2.1689
  657MOL0     H90641  12.094   8.952   2.667 -1.4805 -3.2650 -0.3837
  657MOL0     H90642  12.089   9.170   2.662  0.3589  1.0792 -0.9689
  657MOL0     H90643  11.923   9.140   2.644  1.8029  5.1613  3.8275
  657MOL0     H90644  12.017   9.316   2.508  0.1315 -1.8076  2.0532
  657MOL0     H90645  11.977   9.202   2.379  0.3719  0.7131 -0.7518
  657MOL0     H90646  11.859   8.063   2.402  1.1597 -3.9086 -2.0470
  657MOL0     H90647  11.740   7.870   2.284 -2.2657 -0.6541  0.9283
  657MOL0     H90648  11.393   7.712   2.079  1.9983 -2.0716  2.6387
  657MOL0     H90649  11.286   7.517   1.991 -1.6584 -2.9683 -5.2188
  657MOL0     H90650  10.638   6.297   1.217  0.8683 -0.4402 -2.6714
  657MOL0     H90651  10.586   6.281   0.991  1.5343 -3.1829 -2.7045
  657MOL0     H90652  10.327   5.888   0.733  1.3417 -3.6406 -0.0904
  657MOL0     H90653  10.234   5.803   0.535  1.8213 -0.4602  1.8660
  657MOL0     H90654  10.291   5.668   0.344 -1.9347 -2.4846  0.1801
  657MOL0     H90655  10.135   5.733   0.313  0.2686  0.0088 -0.5297
  657MOL0     H90656  10.203   5.569   0.151  0.0190 -1.5294 -2.9079
  657MOL0     H90657  10.329   5.667   0.085 -0.1196 -0.8084  2.4142
  657MOL0     H90658  10.025   5.692   0.071 -1.0827 -0.0872 -2.1832
  657MOL0     H90659  10.127   5.840   0.068  1.6952 -0.2884  2.1686
  657MOL0     H90660  10.165   5.600  -0.129  4.6821 -0.2192  0.5470
  657MOL0     H90661  10.243   5.761  -0.145  0.2370 -1.0955 -1.2796
  657MOL0     H90662   9.916   5.901  -0.315  1.3555  0.0991 -0.6658
  657MOL0     H90663  10.482   6.038   0.291 -0.5966  0.8940  0.0403
  657MOL0     H90664  10.599   6.262   0.490  0.9873  0.8762  2.7648
  657MOL0     H90665  10.713   6.146   0.550  0.9934  1.1186 -0.8345
  657MOL0     H90666  10.680   6.138   0.379 -1.0354 -2.5756 -0.0929
  658MOL0     O90667   2.387   7.926   1.159 -0.3399 -0.1308 -0.1143
  658MOL0     C90668   2.315   7.942   1.066  0.7944  1.2280  0.4254
  658MOL0     O90669   2.358   7.960   0.937 -0.7620  0.4503 -0.4025
  658MOL0     C90670   2.472   8.043   0.921  0.2719  0.8417 -0.5239
  658MOL0     C90671   2.454   8.170   0.870 -0.0014 -0.3482 -0.1276
  658MOL0     C90672   2.574   8.240   0.826 -0.3662  0.6829  0.3642
  658MOL0     C90673   2.703   8.179   0.829  0.8473 -0.9594  0.3769
  658MOL0     O90674   2.808   8.251   0.778 -0.2785 -0.5215  0.6447
  658MOL0     C90675   2.817   8.262   0.639 -0.6877 -0.2625  0.0463
  658MOL0     C90676   2.887   8.393   0.617  0.0004 -0.1535 -0.1230
  658MOL0     C90677   2.900   8.424   0.464  0.2715 -0.0104 -0.3279
  658MOL0     C90678   2.970   8.567   0.439  0.7324  1.2414  0.8054
  658MOL0     C90679   3.022   8.592   0.301  0.0237 -0.3018  0.1248
  658MOL0     C90680   2.908   8.628   0.202 -0.0970  0.7254  0.5430
  658MOL0     C90681   2.955   8.632   0.064  0.1863 -0.1436  0.1256
  658MOL0     C90682   2.842   8.627  -0.044 -0.0369 -0.2906 -1.4894
  658MOL0     N90683   2.901   8.618  -0.173 -0.2269  0.2443  0.8239
  658MOL0     C90684   2.915   8.720  -0.265  0.1088 -0.5599 -1.2533
  658MOL0     C90685   2.981   8.655  -0.366 -0.3307 -1.1270  0.0166
  658MOL0     C90686   3.054   8.717  -0.498  0.9069 -1.0841  0.5519
  658MOL0     C90687   3.204   8.706  -0.472  0.0133 -0.3235  0.4490
  658MOL0     C90688   3.283   8.757  -0.590  0.3073  0.6370 -0.2294
  658MOL0     C90689   3.426   8.764  -0.550  0.4895 -0.2859 -0.1499
  658MOL0     O90690   3.506   8.822  -0.661 -0.2220 -0.2287  0.7206
  658MOL0     C90691   3.645   8.796  -0.667  0.6952 -0.7481  0.4760
  658MOL0     C90692   3.701   8.676  -0.623 -1.3562  0.6501  0.0837
  658MOL0     C90693   3.844   8.654  -0.653 -0.0598  0.1752 -0.1448
  658MOL0     C90694   3.888   8.520  -0.606  0.4364  0.2611 -0.1983
  658MOL0     C90695   3.924   8.752  -0.718  0.0383  0.0525 -0.1442
  658MOL0     C90696   4.075   8.748  -0.748  0.2811  0.4798 -0.2684
  658MOL0     O90697   4.133   8.864  -0.780 -0.2941  0.1731  0.3796
  658MOL0     C90698   4.267   8.854  -0.815 -0.4875 -0.1004 -0.4549
  658MOL0     C90699   4.363   8.875  -0.720  0.0519 -0.1743  0.2706
  658MOL0     C90700   4.494   8.874  -0.749 -0.8391 -0.0906  0.3787
  658MOL0     C90701   4.533   8.858  -0.883  0.0957  0.5180 -0.7030
  658MOL0     O90702   4.659   8.903  -0.927  0.8848 -1.1521 -0.0389
  658MOL0     C90703   4.716   8.831  -1.033 -0.2457  0.5424 -1.3664
  658MOL0     C90704   4.871   8.857  -1.049  0.6883 -0.0380 -0.1760
  658MOL0     C90705   4.952   8.736  -1.108 -0.2028 -0.9579  0.2537
  658MOL0     C90706   5.094   8.790  -1.120  0.2712  0.0222  0.1111
  658MOL0     C90707   5.185   8.682  -1.170  0.1132  0.4513 -0.0088
  658MOL0     C90708   5.160   8.638  -1.319  0.5971 -0.9186 -0.1316
  658MOL0     C90709   5.268   8.541  -1.370 -0.4918 -0.6718  0.1525
  658MOL0     C90710   5.286   8.549  -1.522 -0.0686  0.4613  0.7880
  658MOL0    Cl90711   5.449   8.503  -1.554  0.1748 -0.0209 -0.4094
  658MOL0     C90712   4.438   8.827  -0.983 -0.2659 -0.4023 -0.6033
  658MOL0     C90713   4.303   8.821  -0.952 -0.3600 -0.4130  0.3120
  658MOL0     O90714   4.134   8.641  -0.747 -0.1636  0.5918  0.1744
  658MOL0     C90715   3.856   8.868  -0.761  0.0676  0.0277 -0.1748
  658MOL0     C90716   3.728   8.897  -0.722 -0.4038  0.4208  0.2551
  658MOL0     N90717   2.968   8.519  -0.346  0.2533  1.0855 -0.7901
  658MOL0     N90718   2.911   8.506  -0.237 -0.7223  0.3911 -0.8539
  658MOL0     C90719   2.720   8.052   0.885 -0.0559 -1.0507  0.2289
  658MOL0     C90720   2.602   7.979   0.932 -0.4625 -0.1907  1.4280
  658MOL0     C90721   2.163   7.937   1.084  0.0871 -0.3025  0.6093
  658MOL0     C90722   2.092   7.905   0.972  0.2955 -0.5559 -0.1720
  658MOL0     C90723   1.953   7.894   0.963 -0.3730  0.5513  0.4112
  658MOL0     C90724   1.883   7.904   1.078  1.0241  0.2132  0.1209
  658MOL0     O90725   1.747   7.888   1.079  0.4066 -0.1104  0.2685
  658MOL0     C90726   1.667   7.985   1.008 -0.6974  0.2761 -0.2421
  658MOL0     C90727   1.580   7.932   0.885  0.6254 -0.4490 -0.3712
  658MOL0     C90728   1.658   7.828   0.800  1.3767 -0.2030 -0.3714
  658MOL0     C90729   1.569   7.751   0.699 -0.0154  0.3343  0.1752
  658MOL0     C90730   1.453   7.670   0.757 -0.4093  0.4779  0.7705
  658MOL0     C90731   1.379   7.604   0.827 -0.8514 -0.6817 -0.5015
  658MOL0     C90732   1.947   7.926   1.203  0.4823 -0.2759  0.9321
  658MOL0     C90733   2.090   7.936   1.205 -0.3292 -0.4698  0.9718
  658MOL0     C90734   2.143   7.974   1.342 -0.0940 -0.5556  0.7019
  658MOL0     H90735   2.352   8.204   0.855 -0.2515 -0.9836  0.1285
  658MOL0     H90736   2.576   8.343   0.792  1.8741  1.0617  1.4800
  658MOL0     H90737   2.724   8.253   0.583  0.8291  1.0317 -2.9249
  658MOL0     H90738   2.874   8.177   0.600 -1.8841 -1.0287 -0.0747
  658MOL0     H90739   2.815   8.463   0.661 -1.2413 -1.2376 -0.3931
  658MOL0     H90740   2.983   8.403   0.669  0.0320 -0.9444 -0.0230
  658MOL0     H90741   2.973   8.355   0.420  2.3146  0.7827  1.6236
  658MOL0     H90742   2.799   8.432   0.423 -0.1976  0.2931  0.8534
  658MOL0     H90743   2.899   8.646   0.463  2.2927  2.1677  2.6707
  658MOL0     H90744   3.055   8.573   0.508  1.3328 -3.4687  0.7445
  658MOL0     H90745   3.080   8.504   0.271 -3.6752 -2.6889 -0.8025
  658MOL0     H90746   3.088   8.678   0.303 -0.5456  0.1235  1.1035
  658MOL0     H90747   2.831   8.553   0.222 -2.4178  3.4505  2.7944
  658MOL0     H90748   2.861   8.723   0.229 -2.8314 -0.3804 -0.0581
  658MOL0     H90749   3.024   8.551   0.036 -1.8657 -2.0828  0.3730
  658MOL0     H90750   3.007   8.728   0.056 -1.7497  1.0282  0.8347
  658MOL0     H90751   2.778   8.540  -0.025  0.2126 -0.0875  0.6089
  658MOL0     H90752   2.769   8.708  -0.042  0.2018 -0.0671 -1.7901
  658MOL0     H90753   2.893   8.824  -0.241  0.0661 -0.7073 -0.6248
  658MOL0     H90754   3.027   8.820  -0.521 -0.3445 -1.1555  1.6041
  658MOL0     H90755   3.022   8.665  -0.589 -0.0731  1.6032 -0.7390
  658MOL0     H90756   3.229   8.775  -0.390  2.4944 -0.7430  0.1291
  658MOL0     H90757   3.241   8.608  -0.441 -0.3094  0.3809  3.3807
  658MOL0     H90758   3.268   8.686  -0.672 -1.1941  2.3613 -1.5326
  658MOL0     H90759   3.246   8.852  -0.628 -1.3213 -0.2098 -0.8558
  658MOL0     H90760   3.435   8.839  -0.471 -1.7622  1.1761 -1.1707
  658MOL0     H90761   3.468   8.670  -0.514 -0.0867 -0.4605  0.0778
  658MOL0     H90762   3.644   8.597  -0.575 -2.7825 -0.0515 -2.5369
  658MOL0     H90763   3.846   8.496  -0.508 -1.1973  2.0286 -0.4217
  658MOL0     H90764   3.998   8.528  -0.608  0.3497  1.8388 -2.7550
  658MOL0     H90765   3.862   8.440  -0.676  1.2889 -0.9541  0.8357
  658MOL0     H90766   4.323   8.915  -0.627 -0.8151 -1.6818  0.5652
  658MOL0     H90767   4.559   8.897  -0.665 -0.0415 -1.1994  0.0877
  658MOL0     H90768   4.703   8.723  -1.030  1.5369  0.3117 -0.1772
  658MOL0     H90769   4.668   8.864  -1.126 -1.2062  2.7162 -0.1622
  658MOL0     H90770   4.887   8.945  -1.113 -2.7652 -0.2808 -1.5648
  658MOL0     H90771   4.906   8.868  -0.946  1.7535 -0.8268 -0.4323
  658MOL0     H90772   4.908   8.696  -1.200 -2.7707 -0.8357  1.3454
  658MOL0     H90773   4.953   8.648  -1.042 -1.7451 -0.1974  1.3764
  658MOL0     H90774   5.138   8.823  -1.026 -0.2469  0.2285  0.2825
  658MOL0     H90775   5.093   8.872  -1.192 -2.3034 -2.0447 -2.4716
  658MOL0     H90776   5.283   8.730  -1.166  0.0205  0.5947  2.1556
  658MOL0     H90777   5.182   8.598  -1.100  0.9808  0.4298  0.0103
  658MOL0     H90778   5.163   8.720  -1.390  0.9651 -0.5394  0.3219
  658MOL0     H90779   5.066   8.582  -1.331 -0.1486  0.4279 -0.8440
  658MOL0     H90780   5.251   8.440  -1.331 -0.8515 -1.2954 -1.5458
  658MOL0     H90781   5.355   8.583  -1.320 -1.4653  1.0525  0.4615
  658MOL0     H90782   5.271   8.651  -1.559  0.9524  1.0173  1.8596
  658MOL0     H90783   5.214   8.486  -1.576  0.3053  1.9905 -1.6240
  658MOL0     H90784   4.458   8.825  -1.090 -4.1482  0.4134 -1.5152
  658MOL0     H90785   4.220   8.800  -1.019 -1.0121 -2.1749  1.5824
  658MOL0     H90786   3.913   8.948  -0.807  1.2815 -1.5414 -1.5553
  658MOL0     H90787   3.694   8.998  -0.745  0.3535  0.8615  1.0210
  658MOL0     H90788   2.816   8.003   0.897  0.4060 -0.2766 -0.2030
  658MOL0     H90789   2.617   7.881   0.977 -0.0849  0.0865  1.9163
  658MOL0     H90790   2.144   7.892   0.878  2.6344 -1.4978  1.1563
  658MOL0     H90791   1.903   7.878   0.868 -1.3876  2.0031  0.6620
  658MOL0     H90792   1.598   8.034   1.078 -0.2865 -1.2285  1.2691
  658MOL0     H90793   1.728   8.070   0.975  0.0139 -1.3472 -3.4460
  658MOL0     H90794   1.523   8.010   0.835 -2.6981 -1.3659  1.6289
  658MOL0     H90795   1.494   7.887   0.937  0.2348  1.8288  1.0977
  658MOL0     H90796   1.734   7.889   0.750  1.1716 -1.4191 -2.2258
  658MOL0     H90797   1.710   7.758   0.865  2.5496  1.0634  0.1021
  658MOL0     H90798   1.635   7.683   0.645 -1.7634 -0.5778 -0.9240
  658MOL0     H90799   1.520   7.829   0.638 -1.4443  0.8554  1.9088
  658MOL0     H90800   1.310   7.546   0.886  0.3989 -0.5133  1.1995
  658MOL0     H90801   1.880   7.913   1.287 -1.7927 -0.1120 -0.7665
  658MOL0     H90802   2.069   7.965   1.422  0.6701 -1.1502  1.3528
  658MOL0     H90803   2.237   7.927   1.370  0.7678  0.2070 -0.7921
  658MOL0     H90804   2.175   8.077   1.322  0.5812 -1.0077 -0.6581
  659MOL0     O90805  10.057   8.227   1.831 -0.2511 -0.0660  0.3939
  659MOL0     C90806   9.978   8.146   1.864  0.4335  0.6879  0.8011
  659MOL0     O90807  10.011   8.008   1.863 -0.8020 -0.5453  0.2382
  659MOL0     C90808  10.133   7.968   1.813 -0.6272  0.3093 -0.7572
  659MOL0     C90809  10.251   8.028   1.827  0.3042 -0.0870  0.1726
  659MOL0     C90810  10.370   7.978   1.778 -0.6935  0.0402  0.5705
  659MOL0     C90811  10.374   7.849   1.712  0.0311  0.6964 -0.0564
  659MOL0     O90812  10.489   7.785   1.679 -0.5952 -0.7732  0.2404
  659MOL0     C90813  10.491   7.696   1.562 -0.0579 -0.2251 -0.9133
  659MOL0     C90814  10.625   7.636   1.549 -0.9708  0.7097 -0.2070
  659MOL0     C90815  10.745   7.732   1.560 -0.5017  0.4236  0.4743
  659MOL0     C90816  10.880   7.670   1.527 -0.4976  0.8541 -0.5122
  659MOL0     C90817  10.989   7.773   1.555 -0.5928  0.0231  0.1823
  659MOL0     C90818  11.122   7.746   1.487 -0.3096 -0.9469 -0.5194
  659MOL0     C90819  11.216   7.860   1.479 -0.1296 -0.0472 -0.0798
  659MOL0     C90820  11.320   7.858   1.595 -0.3231  0.6855  0.1448
  659MOL0     N90821  11.372   7.996   1.621  0.1337  0.3019  0.0444
  659MOL0     C90822  11.474   8.024   1.701 -0.0569  0.1118 -0.2324
  659MOL0     C90823  11.496   8.155   1.678 -0.2099 -0.7107  0.6139
  659MOL0     C90824  11.581   8.238   1.774 -0.2135  0.5893 -0.2101
  659MOL0     C90825  11.536   8.386   1.816  0.1498  0.1817  0.9488
  659MOL0     C90826  11.534   8.486   1.698 -0.3887 -0.7627 -0.3956
  659MOL0     C90827  11.657   8.491   1.607  0.7550 -0.3953 -0.6725
  659MOL0     O90828  11.782   8.502   1.662  0.2740  0.3661 -1.0203
  659MOL0     C90829  11.889   8.485   1.570  0.1807  0.1657  0.3824
  659MOL0     C90830  11.873   8.520   1.439  1.1629 -0.1520 -0.0619
  659MOL0     C90831  11.971   8.494   1.339 -0.9656 -0.3143  0.0199
  659MOL0     C90832  11.934   8.524   1.193 -0.0548  0.5293 -0.9992
  659MOL0     C90833  12.100   8.443   1.375  0.3849  0.4483 -0.2850
  659MOL0     C90834  12.221   8.419   1.290 -0.0898  0.2672  0.5331
  659MOL0     O90835  12.226   8.478   1.168 -0.4824 -0.3220 -0.2185
  659MOL0     C90836  12.345   8.477   1.099  0.2863 -0.5452  0.6652
  659MOL0     C90837  12.469   8.493   1.154  0.4488  1.0785 -0.4264
  659MOL0     C90838  12.582   8.467   1.073 -0.5750  0.6989  1.2097
  659MOL0     C90839  12.568   8.461   0.936 -0.4625 -0.5056  0.4909
  659MOL0     O90840  12.665   8.452   0.844 -0.2930 -0.0383 -0.4503
  659MOL0     C90841  12.767   8.355   0.875 -0.0405 -0.2478  0.3695
  659MOL0     C90842  12.874   8.350   0.762  0.4577 -0.8839 -0.5746
  659MOL0     C90843  12.807   8.297   0.623  0.0870 -0.5594 -0.1080
  659MOL0     C90844  12.848   8.158   0.599  0.2725 -0.3383  0.4077
  659MOL0     C90845  12.793   8.119   0.462  0.5402  0.4666 -0.6545
  659MOL0     C90846  12.647   8.070   0.453  1.3589  0.5619 -0.5931
  659MOL0     C90847  12.625   7.951   0.554  0.3397  0.1914  0.9572
  659MOL0     C90848  12.501   7.879   0.524  0.4707  0.3040  0.9274
  659MOL0    Cl90849  12.488   7.753   0.650 -0.3353 -0.1178  0.2468
  659MOL0     C90850  12.440   8.461   0.881 -0.0979  0.1340 -0.6385
  659MOL0     C90851  12.325   8.454   0.963 -0.5946 -1.0194  0.7293
  659MOL0     O90852  12.314   8.351   1.338 -0.3966  0.5680 -0.0496
  659MOL0     C90853  12.112   8.408   1.513 -0.0120 -0.3822  0.4269
  659MOL0     C90854  12.014   8.440   1.607 -0.4188 -0.4237  0.1305
  659MOL0     N90855  11.404   8.203   1.585  0.2605 -0.4640 -0.2135
  659MOL0     N90856  11.331   8.106   1.546  0.2111  0.6686 -0.1244
  659MOL0     C90857  10.254   7.776   1.708  0.6374  0.1421 -0.6319
  659MOL0     C90858  10.129   7.837   1.746  0.4416  0.0301 -0.1233
  659MOL0     C90859   9.840   8.180   1.906  0.8335  0.5019 -0.8305
  659MOL0     C90860   9.778   8.102   2.003 -0.1182  0.4185 -0.3692
  659MOL0     C90861   9.650   8.122   2.051  0.2840  0.1466  0.6683
  659MOL0     C90862   9.592   8.248   2.022 -0.6231  0.7785 -0.1598
  659MOL0     O90863   9.476   8.279   2.092  0.0882 -0.7871 -0.1247
  659MOL0     C90864   9.391   8.377   2.035  0.4682  0.3422  0.0003
  659MOL0     C90865   9.250   8.337   2.080 -0.0249 -0.6750  0.4491
  659MOL0     C90866   9.224   8.353   2.232 -0.6954 -1.1781 -1.0546
  659MOL0     C90867   9.086   8.288   2.267 -0.0441  0.3743 -0.2358
  659MOL0     C90868   8.982   8.387   2.284 -0.1430  0.2791 -0.1033
  659MOL0     C90869   8.908   8.479   2.284  0.0774  0.4128 -0.6948
  659MOL0     C90870   9.650   8.326   1.925  0.0645  0.5989  0.1504
  659MOL0     C90871   9.770   8.290   1.864  0.9754  0.1442  1.0786
  659MOL0     C90872   9.815   8.391   1.760  0.4745 -0.1454 -0.2934
  659MOL0     H90873  10.259   8.126   1.872  1.1355 -0.9129  1.9317
  659MOL0     H90874  10.464   8.030   1.760 -1.5738  1.4760 -0.0508
  659MOL0     H90875  10.475   7.756   1.472  0.5133 -0.3591 -1.1040
  659MOL0     H90876  10.427   7.609   1.580  1.0696 -0.6428  1.4936
  659MOL0     H90877  10.635   7.571   1.636  0.9943  1.1114 -0.0873
  659MOL0     H90878  10.620   7.569   1.463 -1.3425 -0.6370  0.8247
  659MOL0     H90879  10.722   7.804   1.481 -0.6529 -1.2544 -1.0840
  659MOL0     H90880  10.756   7.770   1.662  0.9465  1.2073  0.0600
  659MOL0     H90881  10.895   7.585   1.594  0.1489  2.8552  2.0230
  659MOL0     H90882  10.882   7.633   1.424 -1.2386  3.2677 -1.4648
  659MOL0     H90883  11.004   7.793   1.661  2.5478  0.0709 -0.1775
  659MOL0     H90884  10.953   7.870   1.518 -0.0349  0.7771  1.5663
  659MOL0     H90885  11.162   7.654   1.531 -0.4475 -0.4136  0.7635
  659MOL0     H90886  11.107   7.715   1.383  2.2727  1.9068 -1.9142
  659MOL0     H90887  11.160   7.953   1.491  0.3440  0.2214  0.0697
  659MOL0     H90888  11.260   7.882   1.381  0.6402  1.4182  0.5533
  659MOL0     H90889  11.268   7.820   1.684 -1.7722 -0.4745 -1.1359
  659MOL0     H90890  11.409   7.800   1.571 -0.1487 -0.4076  3.0493
  659MOL0     H90891  11.523   7.977   1.786  0.4008  0.3629 -0.3511
  659MOL0     H90892  11.681   8.244   1.729  0.4164  1.2458  1.2076
  659MOL0     H90893  11.597   8.183   1.866  0.6820 -1.6630 -1.6217
  659MOL0     H90894  11.441   8.391   1.869 -0.4293  2.8841 -0.1906
  659MOL0     H90895  11.612   8.414   1.889  1.5171  1.1811 -0.7753
  659MOL0     H90896  11.443   8.474   1.639 -0.2107  0.9599 -1.0817
  659MOL0     H90897  11.517   8.582   1.748 -0.0863 -1.1414  0.4638
  659MOL0     H90898  11.660   8.396   1.552  1.4297  0.4627 -2.1824
  659MOL0     H90899  11.637   8.571   1.535 -0.9649 -0.0300  0.1510
  659MOL0     H90900  11.779   8.563   1.408 -0.1640 -2.6271  0.2498
  659MOL0     H90901  11.971   8.459   1.113 -2.0424  1.1706 -2.5273
  659MOL0     H90902  11.978   8.625   1.184 -3.2359  1.9149 -2.5782
  659MOL0     H90903  11.825   8.522   1.199  0.0140  1.0536  1.1124
  659MOL0     H90904  12.480   8.521   1.259  1.4292 -0.4086 -0.1049
  659MOL0     H90905  12.686   8.464   1.103  0.5620 -0.9239 -2.3387
  659MOL0     H90906  12.818   8.352   0.973 -1.0112 -2.4453  0.8628
  659MOL0     H90907  12.710   8.262   0.871 -1.7005  0.7378  0.2062
  659MOL0     H90908  12.913   8.453   0.758 -0.2585 -0.5946 -0.2805
  659MOL0     H90909  12.962   8.295   0.795  1.1741  1.6704  2.3394
  659MOL0     H90910  12.847   8.360   0.545  1.1676 -1.4745 -0.3162
  659MOL0     H90911  12.697   8.293   0.628  0.0827 -0.0641  0.3824
  659MOL0     H90912  12.805   8.101   0.681  1.3018  1.5434  2.3473
  659MOL0     H90913  12.957   8.154   0.595  0.4397  2.3321 -0.1635
  659MOL0     H90914  12.809   8.197   0.386  1.2043 -0.9123 -1.9846
  659MOL0     H90915  12.860   8.040   0.426 -0.6728 -0.2709 -1.3847
  659MOL0     H90916  12.625   8.017   0.360 -1.0342 -2.5696  1.5151
  659MOL0     H90917  12.572   8.146   0.476  1.3591 -0.2560  2.5581
  659MOL0     H90918  12.634   7.989   0.656  2.3868  1.0622  0.5022
  659MOL0     H90919  12.711   7.884   0.546 -1.0515 -1.5813  0.2264
  659MOL0     H90920  12.499   7.838   0.422  4.0107  0.3254  0.7195
  659MOL0     H90921  12.415   7.945   0.533  1.5171  1.5854  1.9116
  659MOL0     H90922  12.431   8.461   0.773 -0.7142 -1.4350 -0.6127
  659MOL0     H90923  12.225   8.444   0.922 -0.1595  0.2344 -0.7580
  659MOL0     H90924  12.205   8.364   1.545  0.2433 -0.2328 -0.0984
  659MOL0     H90925  12.051   8.414   1.706  1.8790 -2.3549 -1.1137
  659MOL0     H90926  10.234   7.675   1.675  0.0264 -0.4841  1.4663
  659MOL0     H90927  10.032   7.789   1.745  0.7729 -0.6794  0.4600
  659MOL0     H90928   9.830   8.017   2.047 -0.2725  0.6857  0.3334
  659MOL0     H90929   9.606   8.050   2.119 -0.3305 -0.3834 -0.2787
  659MOL0     H90930   9.404   8.477   2.079  0.2366 -0.0214  0.9013
  659MOL0     H90931   9.394   8.386   1.925 -2.2359  0.5264 -0.1118
  659MOL0     H90932   9.236   8.231   2.054 -2.7375 -0.5111  0.9798
  659MOL0     H90933   9.191   8.405   2.018  1.7703  3.1091  2.5988
  659MOL0     H90934   9.301   8.301   2.290 -1.4650 -0.4356  0.7060
  659MOL0     H90935   9.232   8.456   2.268 -0.6766 -2.2340  2.3319
  659MOL0     H90936   9.100   8.230   2.358 -3.0633  2.6366  1.8671
  659MOL0     H90937   9.060   8.223   2.183  2.9735 -1.4851  0.1139
  659MOL0     H90938   8.842   8.564   2.286  0.2835  0.5704 -0.5581
  659MOL0     H90939   9.596   8.415   1.895  0.5407  0.0703 -2.5244
  659MOL0     H90940   9.879   8.464   1.810 -0.8214  0.5344  0.4362
  659MOL0     H90941   9.865   8.339   1.677 -0.2468  0.9329 -1.4439
  659MOL0     H90942   9.732   8.440   1.707  0.1746  1.1543  1.3042
  660MOL0     O90943   9.752  10.354   8.277  0.5810  0.4925 -0.1207
  660MOL0     C90944   9.665  10.270   8.309  0.1349 -0.1338 -0.5470
  660MOL0     O90945   9.633  10.155   8.242 -0.0267 -0.4062  1.2262
  660MOL0     C90946   9.705  10.111   8.131  0.1210  0.7685 -0.6170
  660MOL0     C90947   9.838  10.131   8.115  0.2773  0.3636 -0.4890
  660MOL0     C90948   9.897  10.076   8.000  0.3006  0.1112  0.4010
  660MOL0     C90949   9.824  10.000   7.902 -0.6055  0.0300 -0.2760
  660MOL0     O90950   9.886   9.952   7.784  0.1802  0.4000  0.2079
  660MOL0     C90951   9.818   9.988   7.657 -0.0361 -0.8822  0.0074
  660MOL0     C90952   9.831  10.143   7.628 -0.7398  0.3345  0.2957
  660MOL0     C90953   9.767  10.183   7.495 -0.4616 -0.4479  0.2100
  660MOL0     C90954   9.798  10.334   7.490  0.3596 -0.4832  0.2580
  660MOL0     C90955   9.759  10.410   7.364 -1.2186  0.1457  0.5456
  660MOL0     C90956   9.613  10.394   7.316  1.1783 -0.3960 -1.2108
  660MOL0     C90957   9.519  10.428   7.439  0.1497  0.5083  0.3852
  660MOL0     C90958   9.547  10.562   7.501  0.2861 -0.0568  1.2262
  660MOL0     N90959   9.436  10.603   7.592 -0.3039  0.0141  0.0845
  660MOL0     C90960   9.317  10.541   7.610  0.2548  0.3669 -0.3617
  660MOL0     C90961   9.257  10.596   7.716  0.0069 -0.8175 -0.0037
  660MOL0     C90962   9.135  10.541   7.785  0.3685 -0.5760  1.0282
  660MOL0     C90963   9.173  10.511   7.928  0.5046 -0.3612  0.1281
  660MOL0     C90964   9.258  10.381   7.932 -0.4536  0.4734 -0.6083
  660MOL0     C90965   9.323  10.361   8.079  0.3432  0.6763 -0.2573
  660MOL0     O90966   9.224  10.371   8.187 -0.5102 -0.0369 -0.6058
  660MOL0     C90967   9.246  10.464   8.295  1.2349 -0.5912  1.2983
  660MOL0     C90968   9.186  10.437   8.415  0.2321  0.6765 -0.3906
  660MOL0     C90969   9.165  10.531   8.524  0.1849  0.5270 -0.6877
  660MOL0     C90970   9.075  10.483   8.632 -0.4177 -0.0704 -0.0912
  660MOL0     C90971   9.207  10.665   8.505  0.2794 -0.4080 -0.3429
  660MOL0     C90972   9.196  10.775   8.614 -0.4338 -0.1658  0.3359
  660MOL0     O90973   9.117  10.759   8.723  0.1074  0.6662 -0.2799
  660MOL0     C90974   9.118  10.862   8.814  0.9210 -0.6496  0.3939
  660MOL0     C90975   9.159  10.825   8.943  0.2132  0.5558 -0.4407
  660MOL0     C90976   9.163  10.925   9.045 -0.2897  0.2964 -1.0515
  660MOL0     C90977   9.125  11.052   9.011 -0.2039 -0.5947  1.0107
  660MOL0     O90978   9.112  11.164   9.092  0.2404 -0.2747 -0.5855
  660MOL0     C90979   9.205  11.167   9.205 -0.1849 -0.1375 -0.5573
  660MOL0     C90980   9.142  11.267   9.305  0.5161 -0.1043  0.0445
  660MOL0     C90981   9.014  11.190   9.368 -0.9484 -0.4566 -0.4469
  660MOL0     C90982   8.966  11.282   9.469 -0.5289 -0.5419 -0.8423
  660MOL0     C90983   8.824  11.237   9.514  0.4676 -0.4596  0.1394
  660MOL0     C90984   8.724  11.265   9.399  0.4861 -0.7985  0.4033
  660MOL0     C90985   8.584  11.273   9.455  0.6816 -0.1872  0.0707
  660MOL0     C90986   8.488  11.365   9.372 -0.1914 -0.0875  0.2262
  660MOL0    Cl90987   8.318  11.390   9.452 -0.6343  0.3615  0.1103
  660MOL0     C90988   9.086  11.086   8.882  1.3664  0.3651  0.1501
  660MOL0     C90989   9.080  10.989   8.787 -0.2151  0.4975  0.2907
  660MOL0     O90990   9.258  10.877   8.592  0.0877 -0.2192  1.0130
  660MOL0     C90991   9.275  10.684   8.382 -0.1458 -0.5299  0.4240
  660MOL0     C90992   9.273  10.595   8.275 -0.2307 -0.3358 -1.5001
  660MOL0     N90993   9.341  10.694   7.759  0.0596 -0.3075  0.5439
  660MOL0     N90994   9.439  10.706   7.674  0.5647  0.4893 -1.0856
  660MOL0     C90995   9.685   9.982   7.931  0.1840 -0.0093  1.1106
  660MOL0     C90996   9.634  10.036   8.040  0.0550 -0.0644 -0.2621
  660MOL0     C90997   9.580  10.303   8.439  0.7783  0.2661  0.0953
  660MOL0     C90998   9.547  10.191   8.517 -0.8653  0.4305  0.4831
  660MOL0     C90999   9.481  10.210   8.635 -0.6377 -0.5399  0.9202
  660MOL0     C91000   9.447  10.334   8.678  0.1827 -0.3627  0.2444
  660MOL0     O91001   9.415  10.352   8.816  0.2185 -0.4872  0.2296
  660MOL0     C91002   9.529  10.339   8.898 -0.5426 -0.7665 -0.4072
  660MOL0     C91003   9.485  10.404   9.033 -0.0956 -0.1004  0.3721
  660MOL0     C91004   9.459  10.553   9.004 -0.1039 -0.4514  0.1691
  660MOL0     C91005   9.575  10.639   8.937 -0.9227 -0.0017 -0.1613
  660MOL0     C91006   9.690  10.656   9.028 -0.3009  0.5619  0.4162
  660MOL0     C91007   9.796  10.667   9.092  0.2808 -1.1553  0.5926
  660MOL0     C91008   9.483  10.445   8.605 -0.1342  0.5556  0.4283
  660MOL0     C91009   9.548  10.432   8.482 -0.3585  0.6020  0.0042
  660MOL0     C91010   9.590  10.559   8.418  0.4166 -0.0855 -0.6229
  660MOL0     H91011   9.895  10.178   8.194 -0.0615 -0.3973  0.2249
  660MOL0     H91012  10.003  10.091   7.978  0.6796 -0.1293  1.9662
  660MOL0     H91013   9.712   9.964   7.661 -0.9228  2.5562  0.8538
  660MOL0     H91014   9.859   9.932   7.573 -2.6394  0.5705 -2.3667
  660MOL0     H91015   9.789  10.189   7.718 -0.9291 -3.3801  2.2851
  660MOL0     H91016   9.936  10.173   7.619 -0.9531  1.4493  1.2812
  660MOL0     H91017   9.807  10.135   7.406 -2.0033  0.1382 -0.8559
  660MOL0     H91018   9.658  10.172   7.492 -0.6557  1.3698 -1.7159
  660MOL0     H91019   9.743  10.381   7.572 -0.2241  1.2128 -1.0517
  660MOL0     H91020   9.902  10.361   7.508 -0.2171  2.0339  0.1970
  660MOL0     H91021   9.819  10.364   7.285  1.4036  0.9747  1.9054
  660MOL0     H91022   9.791  10.515   7.367  1.1616 -0.4605 -0.6195
  660MOL0     H91023   9.595  10.453   7.225  3.0809  0.2601 -1.2119
  660MOL0     H91024   9.600  10.287   7.296  1.7749 -0.9848  1.2590
  660MOL0     H91025   9.510  10.357   7.521  0.2914  0.5232  0.4134
  660MOL0     H91026   9.420  10.417   7.395 -1.3661  0.9793  3.4032
  660MOL0     H91027   9.637  10.562   7.564 -0.5331  2.1445  2.5041
  660MOL0     H91028   9.551  10.643   7.428  1.1487 -0.6233  0.6263
  660MOL0     H91029   9.275  10.460   7.551 -2.1385  0.5325  0.9729
  660MOL0     H91030   9.092  10.453   7.736  1.8981 -1.2699  0.8682
  660MOL0     H91031   9.057  10.617   7.785 -0.4476 -1.3908  0.3073
  660MOL0     H91032   9.232  10.594   7.968  1.0674  1.0836 -3.2916
  660MOL0     H91033   9.080  10.510   7.985 -0.0949 -1.4685 -0.8258
  660MOL0     H91034   9.185  10.302   7.919  0.2707 -0.5087  0.9358
  660MOL0     H91035   9.330  10.365   7.851 -1.2899 -0.9626 -1.0888
  660MOL0     H91036   9.355  10.257   8.080 -3.2461 -0.5875  0.0570
  660MOL0     H91037   9.406  10.430   8.093 -0.6867  2.2670 -1.5815
  660MOL0     H91038   9.140  10.340   8.427 -2.0031  1.4135 -2.2577
  660MOL0     H91039   8.972  10.521   8.623  0.4562  2.4399 -0.1621
  660MOL0     H91040   9.112  10.528   8.724  1.1630  3.2767 -2.1682
  660MOL0     H91041   9.072  10.375   8.646 -0.8481  0.2257  2.7337
  660MOL0     H91042   9.179  10.723   8.972 -0.9043  0.4300 -0.0644
  660MOL0     H91043   9.176  10.897   9.149 -0.3462  1.5773 -0.6854
  660MOL0     H91044   9.215  11.071   9.257 -3.0729 -0.5926 -0.6640
  660MOL0     H91045   9.301  11.210   9.175 -0.8471  1.1584 -0.8942
  660MOL0     H91046   9.216  11.287   9.383 -0.1904 -1.5745  1.1507
  660MOL0     H91047   9.104  11.360   9.262  1.1159 -0.0183 -0.3033
  660MOL0     H91048   9.043  11.092   9.407 -1.3564 -1.0477 -1.5801
  660MOL0     H91049   8.942  11.168   9.288 -1.8516 -1.8333  0.6824
  660MOL0     H91050   8.971  11.382   9.427  1.5862 -0.0509  0.4356
  660MOL0     H91051   9.030  11.275   9.558  0.1597 -0.1491 -1.3006
  660MOL0     H91052   8.819  11.128   9.527  0.6590 -0.3896  0.7975
  660MOL0     H91053   8.790  11.286   9.605 -0.5596 -2.0315  0.6469
  660MOL0     H91054   8.732  11.184   9.326 -1.0998 -0.9431  0.3521
  660MOL0     H91055   8.748  11.358   9.346 -2.2097 -2.5207 -4.5418
  660MOL0     H91056   8.587  11.317   9.554 -3.1448  0.3005  0.1227
  660MOL0     H91057   8.544  11.171   9.463  0.6722 -0.0384  2.3708
  660MOL0     H91058   8.469  11.348   9.265  1.5906 -0.1488 -0.1068
  660MOL0     H91059   8.525  11.467   9.376 -1.2315  0.4716 -2.3197
  660MOL0     H91060   9.052  11.188   8.868 -1.0567 -0.2250  1.1597
  660MOL0     H91061   9.050  11.017   8.686  2.1117 -0.9366 -0.8700
  660MOL0     H91062   9.323  10.776   8.352 -1.5715 -0.5417 -2.2729
  660MOL0     H91063   9.315  10.626   8.179 -0.9821 -1.0807 -2.0789
  660MOL0     H91064   9.608   9.942   7.865 -1.8967  5.1497 -0.0281
  660MOL0     H91065   9.527  10.027   8.057  0.3926 -0.7547  1.9390
  660MOL0     H91066   9.574  10.093   8.479  0.2935  0.3703  1.4370
  660MOL0     H91067   9.449  10.125   8.693 -1.0993 -1.7263 -0.9976
  660MOL0     H91068   9.561  10.235   8.906 -0.6351 -0.7257  0.7390
  660MOL0     H91069   9.617  10.384   8.851 -1.0552 -3.0903 -3.9224
  660MOL0     H91070   9.566  10.387   9.104  0.3974  0.9204  0.0756
  660MOL0     H91071   9.390  10.368   9.073 -0.0454 -0.2200  0.3828
  660MOL0     H91072   9.370  10.560   8.940  1.2608  0.3238 -1.7103
  660MOL0     H91073   9.428  10.587   9.103 -2.5164 -2.7201  0.3258
  660MOL0     H91074   9.536  10.739   8.916 -1.0894 -0.0858 -0.2569
  660MOL0     H91075   9.626  10.602   8.848 -0.8371 -1.3224  0.4125
  660MOL0     H91076   9.890  10.691   9.138  2.1975 -0.8773 -3.0816
  660MOL0     H91077   9.467  10.545   8.645  0.1223 -0.0534  2.1149
  660MOL0     H91078   9.522  10.639   8.450  1.3134  0.4196  0.0605
  660MOL0     H91079   9.690  10.588   8.451  0.9310 -1.0945 -1.2265
  660MOL0     H91080   9.581  10.551   8.309  0.3507 -1.2763 -0.5411
  661MOL0     O91081   4.755   2.926   8.928 -0.2740 -0.1200 -0.3385
  661MOL0     C91082   4.664   2.937   9.015 -0.8251 -0.3153  0.8338
  661MOL0     O91083   4.548   2.874   9.012  0.0746 -0.2789 -0.1917
  661MOL0     C91084   4.489   2.829   8.899 -0.1015 -0.4798 -0.2358
  661MOL0     C91085   4.476   2.898   8.777 -0.3628 -0.0559 -0.0864
  661MOL0     C91086   4.409   2.842   8.673  0.6374 -0.3648  0.4116
  661MOL0     C91087   4.348   2.716   8.689  0.3571  0.2934 -0.2175
  661MOL0     O91088   4.301   2.657   8.570  0.4372 -0.0807 -0.3890
  661MOL0     C91089   4.157   2.667   8.556  0.6725  0.0418  0.2422
  661MOL0     C91090   4.109   2.538   8.482  0.5574  0.6764 -0.1315
  661MOL0     C91091   4.137   2.407   8.556 -0.7263  0.1406  0.1160
  661MOL0     C91092   4.036   2.374   8.663 -0.7782 -0.5879  0.1710
  661MOL0     C91093   4.094   2.263   8.761  0.3978 -0.0697  0.6424
  661MOL0     C91094   4.195   2.318   8.864 -0.5546 -0.2457 -0.1537
  661MOL0     C91095   4.207   2.227   8.987 -0.4640  0.5614  0.7460
  661MOL0     C91096   4.352   2.175   9.011  0.0912  0.0249  0.5428
  661MOL0     N91097   4.448   2.272   9.070  0.0896  0.1160 -0.6214
  661MOL0     C91098   4.581   2.254   9.105 -0.1788  0.2240  0.9549
  661MOL0     C91099   4.602   2.343   9.207  0.0390 -0.5172  0.5832
  661MOL0     C91100   4.712   2.362   9.312 -0.5479  0.1507  0.6108
  661MOL0     C91101   4.739   2.504   9.358 -0.2650  0.0330 -0.4596
  661MOL0     C91102   4.798   2.590   9.253  0.1377  0.7078 -1.0179
  661MOL0     C91103   4.946   2.551   9.221  0.0744 -0.1286  1.0664
  661MOL0     O91104   5.026   2.563   9.333 -1.0740 -0.3918 -0.0340
  661MOL0     C91105   5.155   2.513   9.318 -0.4764 -0.2172  0.2540
  661MOL0     C91106   5.216   2.464   9.200  0.5948 -0.4158 -0.1287
  661MOL0     C91107   5.340   2.397   9.186  0.0485 -0.2768  0.2057
  661MOL0     C91108   5.377   2.351   9.055 -0.4687  0.3436 -0.3137
  661MOL0     C91109   5.423   2.398   9.298  0.3241 -1.1661  0.7117
  661MOL0     C91110   5.558   2.345   9.289  0.1650 -0.2332 -0.8256
  661MOL0     O91111   5.640   2.373   9.188  0.0934 -0.0198 -0.2100
  661MOL0     C91112   5.776   2.376   9.205 -1.4249  0.7302 -0.8879
  661MOL0     C91113   5.853   2.492   9.217 -0.7163 -0.0080  0.7110
  661MOL0     C91114   5.992   2.487   9.263 -0.3537 -0.3362  0.6535
  661MOL0     C91115   6.060   2.363   9.277  0.9842  0.2196 -1.5211
  661MOL0     O91116   6.187   2.362   9.326  0.1529  0.3409 -0.0092
  661MOL0     C91117   6.270   2.240   9.309  0.4769 -1.0818  0.9674
  661MOL0     C91118   6.409   2.262   9.359  0.1779  0.0360  0.5148
  661MOL0     C91119   6.492   2.330   9.244 -0.4136  0.1984 -0.2142
  661MOL0     C91120   6.637   2.287   9.220 -0.1454 -0.3169 -0.2735
  661MOL0     C91121   6.653   2.161   9.131  0.6876  0.2679 -0.0901
  661MOL0     C91122   6.801   2.124   9.124 -0.5580 -0.2963  0.8263
  661MOL0     C91123   6.812   1.983   9.062 -0.6723  0.5489  0.2853
  661MOL0     C91124   6.953   1.964   9.038  0.1402  0.6121 -0.2495
  661MOL0    Cl91125   7.009   2.058   8.879  0.4493  0.1799  0.3173
  661MOL0     C91126   5.985   2.243   9.234  0.4002 -0.6858 -0.4688
  661MOL0     C91127   5.849   2.256   9.206  0.3280  0.7217  0.3502
  661MOL0     O91128   5.602   2.314   9.398  0.0281 -0.3620 -0.4129
  661MOL0     C91129   5.368   2.438   9.422  0.8216 -0.2011 -0.2809
  661MOL0     C91130   5.234   2.494   9.434 -0.2719 -0.9589  0.2141
  661MOL0     N91131   4.487   2.431   9.217 -0.2147 -0.3984 -0.3536
  661MOL0     N91132   4.402   2.387   9.131 -0.6857  0.6959 -0.5209
  661MOL0     C91133   4.353   2.655   8.816 -0.6299  0.3076  0.1833
  661MOL0     C91134   4.422   2.714   8.924  0.9159  0.5085 -0.2401
  661MOL0     C91135   4.697   3.028   9.134  0.1380 -1.5210 -0.3715
  661MOL0     C91136   4.797   3.130   9.112  0.7598  0.3486 -0.0299
  661MOL0     C91137   4.816   3.234   9.202 -0.5593 -0.2081 -0.3130
  661MOL0     C91138   4.763   3.229   9.326 -0.6175 -0.5121  0.0851
  661MOL0     O91139   4.780   3.327   9.418 -0.5351  0.3781 -0.3430
  661MOL0     C91140   4.877   3.433   9.392  0.2351 -0.3922 -0.2962
  661MOL0     C91141   4.869   3.524   9.521 -0.0396  0.0127 -0.3260
  661MOL0     C91142   4.960   3.470   9.631  0.1021 -1.0679 -0.0672
  661MOL0     C91143   5.095   3.532   9.633 -0.7268 -0.4680  0.3104
  661MOL0     C91144   5.171   3.461   9.535 -0.8984  0.7747 -0.1166
  661MOL0     C91145   5.233   3.389   9.458  0.7291 -0.3710 -0.5548
  661MOL0     C91146   4.673   3.125   9.349 -0.2444 -0.0624  0.1616
  661MOL0     C91147   4.635   3.026   9.260  0.1105  0.0341  0.3229
  661MOL0     C91148   4.554   2.907   9.295  0.0933 -0.2546 -0.5691
  661MOL0     H91149   4.518   2.999   8.771  2.0762 -0.6761  3.2146
  661MOL0     H91150   4.410   2.884   8.573 -0.3422 -2.5650 -0.5740
  661MOL0     H91151   4.139   2.755   8.493  2.0380  0.2902  0.1564
  661MOL0     H91152   4.108   2.683   8.652  2.2544  0.8775  0.9600
  661MOL0     H91153   4.002   2.557   8.466  0.5243  0.9318  0.3765
  661MOL0     H91154   4.141   2.539   8.377  0.4345  1.4785 -0.1671
  661MOL0     H91155   4.143   2.317   8.495 -0.7871  0.5942 -0.5733
  661MOL0     H91156   4.240   2.406   8.592 -0.1520  0.1369 -1.4429
  661MOL0     H91157   4.012   2.463   8.722 -0.4301 -0.0837 -0.4363
  661MOL0     H91158   3.944   2.344   8.611 -0.2431  1.5373 -2.2091
  661MOL0     H91159   4.134   2.173   8.714 -1.1342 -0.3400 -0.1976
  661MOL0     H91160   4.005   2.216   8.801 -0.7288  1.9445  0.6324
  661MOL0     H91161   4.290   2.330   8.812 -1.1271 -0.6092 -1.3169
  661MOL0     H91162   4.156   2.415   8.896  0.1952  0.3366 -0.9565
  661MOL0     H91163   4.132   2.147   8.980 -0.4018  0.4948  0.8420
  661MOL0     H91164   4.164   2.283   9.070  0.0280 -0.4506  1.7074
  661MOL0     H91165   4.345   2.093   9.084  1.0366  1.2484  2.0937
  661MOL0     H91166   4.395   2.135   8.919 -0.8929  1.5840 -0.6463
  661MOL0     H91167   4.653   2.174   9.089  0.3602  0.7372  0.8315
  661MOL0     H91168   4.804   2.341   9.257  1.4331  1.9758  2.9447
  661MOL0     H91169   4.698   2.292   9.394 -3.2916 -1.1535 -0.8540
  661MOL0     H91170   4.645   2.545   9.393 -0.7989  0.4686 -2.3016
  661MOL0     H91171   4.810   2.499   9.441  0.9243  0.8612 -1.3823
  661MOL0     H91172   4.740   2.590   9.161 -1.4134  1.2019 -0.0873
  661MOL0     H91173   4.795   2.696   9.280 -2.9171  0.5589 -0.3843
  661MOL0     H91174   4.955   2.449   9.182 -2.9759 -0.7336  1.7002
  661MOL0     H91175   4.997   2.623   9.157 -1.1871 -0.2760 -0.1680
  661MOL0     H91176   5.157   2.454   9.110 -0.1948 -0.7394  0.4127
  661MOL0     H91177   5.293   2.290   9.020  1.1155 -0.4724 -2.9629
  661MOL0     H91178   5.469   2.291   9.057 -1.2784 -0.9516 -0.4887
  661MOL0     H91179   5.380   2.429   8.978  2.0850  0.3099 -0.3211
  661MOL0     H91180   5.812   2.592   9.207 -0.5707 -0.0086  0.0789
  661MOL0     H91181   6.054   2.574   9.280 -0.5735 -0.7134  4.2712
  661MOL0     H91182   6.225   2.161   9.370 -3.0335 -2.8848 -3.4022
  661MOL0     H91183   6.251   2.200   9.209  1.0417 -0.7584  0.7261
  661MOL0     H91184   6.420   2.325   9.448  0.2463 -0.2302  0.6949
  661MOL0     H91185   6.460   2.168   9.378 -0.6006 -0.7564 -1.0491
  661MOL0     H91186   6.502   2.435   9.273  2.6640  0.1149 -0.5960
  661MOL0     H91187   6.440   2.325   9.148  1.7768 -0.1556 -1.4614
  661MOL0     H91188   6.674   2.270   9.322  3.2090 -0.8917 -1.4658
  661MOL0     H91189   6.699   2.372   9.191 -0.6144  0.8775  1.9743
  661MOL0     H91190   6.604   2.073   9.173 -0.7913  0.0537 -2.1210
  661MOL0     H91191   6.612   2.175   9.030  0.6714 -1.1326 -0.2926
  661MOL0     H91192   6.846   2.136   9.223  0.2597  2.5634  0.1954
  661MOL0     H91193   6.850   2.199   9.062 -1.6811  0.1060  0.4018
  661MOL0     H91194   6.748   1.959   8.976 -0.2113 -0.4370  0.2045
  661MOL0     H91195   6.771   1.910   9.132 -0.2589  0.1645  0.1276
  661MOL0     H91196   6.966   1.858   9.016  4.8251  1.2660 -1.7802
  661MOL0     H91197   7.031   1.974   9.113  0.7316  0.3905 -0.8256
  661MOL0     H91198   6.035   2.147   9.242 -0.1736 -0.8228  2.0809
  661MOL0     H91199   5.802   2.162   9.178 -0.1433  0.7427  1.0490
  661MOL0     H91200   5.418   2.434   9.518 -3.2773  1.2989  2.1836
  661MOL0     H91201   5.205   2.537   9.529 -0.3636  1.8517 -1.0074
  661MOL0     H91202   4.311   2.555   8.806  0.0950 -0.0663  0.7669
  661MOL0     H91203   4.417   2.676   9.025  1.6055  1.0181 -0.0067
  661MOL0     H91204   4.846   3.131   9.014 -0.2035 -2.7125 -0.6403
  661MOL0     H91205   4.883   3.318   9.185 -1.2168  0.5451  0.7215
  661MOL0     H91206   4.978   3.392   9.378  0.0892  0.2762 -5.0774
  661MOL0     H91207   4.858   3.485   9.298 -0.1653 -1.1535 -0.6413
  661MOL0     H91208   4.767   3.537   9.559 -1.0871 -3.1374 -1.6713
  661MOL0     H91209   4.906   3.622   9.489  1.6186 -0.4416  0.0809
  661MOL0     H91210   4.913   3.502   9.725 -0.4739 -0.3204 -0.6013
  661MOL0     H91211   4.961   3.360   9.630  0.1732 -1.0717  0.3554
  661MOL0     H91212   5.147   3.515   9.728 -1.1246  0.9622  0.8115
  661MOL0     H91213   5.103   3.641   9.624  0.5660 -0.1862  3.6264
  661MOL0     H91214   5.273   3.341   9.371  2.6088  1.3372 -0.7070
  661MOL0     H91215   4.616   3.125   9.441  2.3157  0.3042  1.8492
  661MOL0     H91216   4.610   2.814   9.305 -0.1873 -0.6622 -2.4447
  661MOL0     H91217   4.503   2.923   9.390 -1.7544 -0.6805 -1.4337
  661MOL0     H91218   4.466   2.899   9.230 -0.2575  0.1451 -0.1513
  662MOL0     O91219   6.336   9.402   0.301  0.1025 -0.0887  0.2662
  662MOL0     C91220   6.241   9.336   0.267  0.3473 -0.4610  0.7930
  662MOL0     O91221   6.244   9.215   0.223  0.8059 -0.1722 -0.0962
  662MOL0     C91222   6.360   9.140   0.235  0.5158  0.3071 -1.0366
  662MOL0     C91223   6.456   9.150   0.342 -1.1786  0.3705  0.5909
  662MOL0     C91224   6.568   9.063   0.351 -0.2715 -1.3008 -0.3155
  662MOL0     C91225   6.578   8.960   0.257  0.5120 -0.3586  0.0705
  662MOL0     O91226   6.680   8.874   0.285 -1.0666  0.2162  0.1397
  662MOL0     C91227   6.687   8.752   0.209 -0.3902  0.0313 -0.5610
  662MOL0     C91228   6.809   8.663   0.253  0.4073  0.2202  0.2076
  662MOL0     C91229   6.816   8.522   0.195 -0.3723 -0.3601 -0.3905
  662MOL0     C91230   6.931   8.440   0.252  0.8816 -0.3406  0.4370
  662MOL0     C91231   6.963   8.316   0.173 -0.1617  0.6706  0.4480
  662MOL0     C91232   6.848   8.213   0.209 -0.2371  0.5564  0.3561
  662MOL0     C91233   6.893   8.081   0.153 -0.1221 -0.6369  0.3403
  662MOL0     C91234   6.968   7.993   0.245  0.1380 -0.1963 -0.8326
  662MOL0     N91235   7.101   8.046   0.283  0.3043  0.2614  0.4008
  662MOL0     C91236   7.152   8.043   0.412 -1.6359 -0.5709  0.1795
  662MOL0     C91237   7.278   8.094   0.397  0.1236 -0.7530 -0.4762
  662MOL0     C91238   7.373   8.125   0.516 -1.6646  0.4663 -0.1349
  662MOL0     C91239   7.464   8.256   0.482  0.3496  0.3837 -0.5279
  662MOL0     C91240   7.474   8.347   0.597  0.1648  0.0540 -0.1155
  662MOL0     C91241   7.586   8.455   0.567  0.4902  0.8855  0.0823
  662MOL0     O91242   7.593   8.561   0.669 -0.1586  0.3554  0.5338
  662MOL0     C91243   7.687   8.539   0.762  0.7671 -0.2976 -0.5229
  662MOL0     C91244   7.657   8.590   0.887  1.0222 -0.0845 -0.1426
  662MOL0     C91245   7.738   8.559   1.006  0.4470 -1.1714 -0.2007
  662MOL0     C91246   7.687   8.582   1.143 -0.1212 -0.7179 -0.9053
  662MOL0     C91247   7.870   8.508   0.977  0.6087 -0.1841  0.2803
  662MOL0     C91248   7.975   8.510   1.076 -0.1257 -0.1985 -0.5708
  662MOL0     O91249   8.062   8.406   1.067 -0.4373 -1.0258 -0.5921
  662MOL0     C91250   8.177   8.418   1.136  0.9525 -0.3378 -0.5206
  662MOL0     C91251   8.289   8.473   1.086  0.4041  0.2333  0.2478
  662MOL0     C91252   8.400   8.482   1.167  0.1680 -0.0288  1.0254
  662MOL0     C91253   8.398   8.427   1.297  0.6460 -0.7280  0.3147
  662MOL0     O91254   8.514   8.398   1.357  0.2160 -0.0905 -0.5058
  662MOL0     C91255   8.622   8.489   1.350 -0.3487  0.1093 -0.3006
  662MOL0     C91256   8.705   8.432   1.462  0.0777  0.3428 -1.0625
  662MOL0     C91257   8.835   8.517   1.456 -0.0172  0.4526 -0.4569
  662MOL0     C91258   8.919   8.487   1.328 -0.6930  0.2526 -0.3038
  662MOL0     C91259   8.959   8.337   1.310 -0.4265  0.0702 -0.7582
  662MOL0     C91260   9.070   8.341   1.209 -0.1474  0.0861  0.1390
  662MOL0     C91261   9.109   8.201   1.159  0.0620 -0.9462  0.0943
  662MOL0     C91262   9.005   8.135   1.057 -0.4150 -0.5170  0.1895
  662MOL0    Cl91263   9.039   7.953   1.048  0.2249 -0.7859  0.1524
  662MOL0     C91264   8.279   8.371   1.353  1.3768 -0.1100 -0.5930
  662MOL0     C91265   8.164   8.380   1.268  0.1327  0.4257  0.2798
  662MOL0     O91266   7.985   8.613   1.147 -0.2857  0.1274  0.6863
  662MOL0     C91267   7.899   8.468   0.844  0.7149 -0.7263 -0.0194
  662MOL0     C91268   7.808   8.474   0.741 -0.6869  0.0266 -0.4347
  662MOL0     N91269   7.306   8.106   0.260  0.6989  0.8433  0.1633
  662MOL0     N91270   7.197   8.069   0.199 -0.8044 -0.4457 -0.5927
  662MOL0     C91271   6.487   8.957   0.144  0.2077 -0.0371  0.0176
  662MOL0     C91272   6.381   9.054   0.132 -0.0259  0.3133 -0.2269
  662MOL0     C91273   6.106   9.397   0.284 -0.7611  0.8141  0.1875
  662MOL0     C91274   6.045   9.463   0.176  0.2141 -0.3859  0.0560
  662MOL0     C91275   5.924   9.528   0.193 -0.5643 -0.2981 -0.4247
  662MOL0     C91276   5.859   9.525   0.311  0.7858 -0.0562  0.8613
  662MOL0     O91277   5.743   9.596   0.296  0.2269 -0.2643  0.1807
  662MOL0     C91278   5.661   9.618   0.413  1.2385 -0.0498 -0.4544
  662MOL0     C91279   5.541   9.701   0.381 -0.1713 -0.2880 -0.7044
  662MOL0     C91280   5.449   9.714   0.510  0.2845  0.0052 -0.0809
  662MOL0     C91281   5.307   9.759   0.459 -0.1134 -0.3871  0.3344
  662MOL0     C91282   5.209   9.721   0.566 -0.1178 -0.4392  0.3025
  662MOL0     C91283   5.137   9.695   0.663  0.5531  0.5150  0.1377
  662MOL0     C91284   5.920   9.485   0.428  0.0714  0.6242  0.7240
  662MOL0     C91285   6.046   9.416   0.415  0.1626  0.0279  0.4507
  662MOL0     C91286   6.106   9.349   0.536 -0.2226  0.2510 -0.0469
  662MOL0     H91287   6.439   9.223   0.421 -5.2001  3.3075 -2.5453
  662MOL0     H91288   6.638   9.074   0.433 -2.1058  0.2307  1.1519
  662MOL0     H91289   6.692   8.774   0.102 -2.5580 -1.1512 -0.9511
  662MOL0     H91290   6.599   8.689   0.224  0.0026 -0.0513  1.8696
  662MOL0     H91291   6.895   8.724   0.227 -1.3023  2.4367 -0.5117
  662MOL0     H91292   6.801   8.653   0.362 -1.0023 -0.9043  0.0384
  662MOL0     H91293   6.716   8.481   0.210 -0.5984  0.2341 -0.2172
  662MOL0     H91294   6.823   8.530   0.086 -2.2718  0.6680 -0.4877
  662MOL0     H91295   7.017   8.507   0.251  0.7508  0.0508  3.6994
  662MOL0     H91296   6.911   8.412   0.356  0.0648 -0.2498  0.3142
  662MOL0     H91297   7.062   8.285   0.208 -0.4624 -0.7172  0.1072
  662MOL0     H91298   6.971   8.329   0.065  0.3199 -0.6787  0.3050
  662MOL0     H91299   6.832   8.204   0.317  1.5861 -0.5269  0.5756
  662MOL0     H91300   6.752   8.250   0.170 -0.6125 -1.1851 -0.5029
  662MOL0     H91301   6.954   8.093   0.064  2.1517 -0.2768  1.8623
  662MOL0     H91302   6.795   8.036   0.132 -0.3177  0.2878 -0.8403
  662MOL0     H91303   6.914   7.974   0.339  0.8972 -0.0188 -0.3540
  662MOL0     H91304   6.978   7.896   0.197  0.7195 -0.3496 -0.4136
  662MOL0     H91305   7.112   8.017   0.509 -2.2742 -0.6305 -0.0941
  662MOL0     H91306   7.446   8.048   0.543  1.5959  3.5993  0.6587
  662MOL0     H91307   7.308   8.126   0.604 -2.8473 -0.0600 -0.9616
  662MOL0     H91308   7.564   8.216   0.461 -0.5846 -1.5720 -1.5194
  662MOL0     H91309   7.436   8.309   0.390 -0.5314 -0.2756 -0.6523
  662MOL0     H91310   7.380   8.398   0.619  0.6725  0.0358  2.3829
  662MOL0     H91311   7.494   8.289   0.687 -2.0301  1.0882  1.0987
  662MOL0     H91312   7.682   8.415   0.535 -0.1431 -1.2285  0.6712
  662MOL0     H91313   7.555   8.510   0.477  0.9811 -1.0950 -1.3811
  662MOL0     H91314   7.560   8.633   0.909  1.8843  1.3862  1.0466
  662MOL0     H91315   7.577   8.588   1.144 -0.0900  0.8093  1.5063
  662MOL0     H91316   7.721   8.676   1.188 -0.7719 -0.1483 -1.5672
  662MOL0     H91317   7.718   8.492   1.196  3.4487  0.5656 -0.5437
  662MOL0     H91318   8.273   8.509   0.985 -1.2649  0.7319  0.6627
  662MOL0     H91319   8.500   8.501   1.130  0.2220 -0.9142  0.6866
  662MOL0     H91320   8.675   8.489   1.255 -1.1084  1.1523 -0.7401
  662MOL0     H91321   8.600   8.594   1.371  0.5410  0.1510  0.5115
  662MOL0     H91322   8.656   8.433   1.559  0.9273  2.0467 -0.6155
  662MOL0     H91323   8.717   8.326   1.438 -4.3909 -1.9314  4.4245
  662MOL0     H91324   8.892   8.489   1.544 -1.3030 -0.8481  0.0090
  662MOL0     H91325   8.822   8.620   1.490  2.3935 -0.2914  3.2266
  662MOL0     H91326   9.004   8.555   1.341 -1.1002  0.5889  0.7016
  662MOL0     H91327   8.874   8.537   1.242 -2.1146  0.5971  0.6105
  662MOL0     H91328   9.008   8.295   1.398  2.2178 -0.7672 -2.5057
  662MOL0     H91329   8.871   8.274   1.290 -0.7656  0.8862 -1.9336
  662MOL0     H91330   9.160   8.381   1.257 -0.3150 -0.2516  0.7433
  662MOL0     H91331   9.052   8.407   1.124 -0.0663 -1.5084 -1.1530
  662MOL0     H91332   9.130   8.133   1.242  1.0090 -2.1942 -1.1108
  662MOL0     H91333   9.204   8.216   1.106 -0.7124 -0.8226 -1.3136
  662MOL0     H91334   9.015   8.193   0.965  1.2548  1.3507  1.4604
  662MOL0     H91335   8.902   8.142   1.093  0.2591 -2.0238  2.6406
  662MOL0     H91336   8.275   8.332   1.454 -0.7221 -1.2042 -1.0361
  662MOL0     H91337   8.065   8.354   1.303  0.8132 -0.5279  1.5690
  662MOL0     H91338   7.991   8.416   0.817 -0.1819 -1.8265 -1.0857
  662MOL0     H91339   7.843   8.455   0.640  0.4874  1.3007 -0.3038
  662MOL0     H91340   6.494   8.869   0.081 -1.0652 -2.7141  3.2966
  662MOL0     H91341   6.313   9.045   0.048 -3.5323  0.3942  2.3713
  662MOL0     H91342   6.087   9.455   0.076 -0.3382 -2.9057 -0.0434
  662MOL0     H91343   5.892   9.590   0.109  2.5737  2.2075  0.0210
  662MOL0     H91344   5.626   9.522   0.452 -2.0619  1.0374 -0.4767
  662MOL0     H91345   5.729   9.679   0.474 -0.0338  1.3191 -0.3605
  662MOL0     H91346   5.484   9.666   0.294 -1.3484  0.1832 -0.1475
  662MOL0     H91347   5.582   9.800   0.361 -0.0864  0.2041  1.6098
  662MOL0     H91348   5.435   9.615   0.554 -2.0283  1.2560  2.2471
  662MOL0     H91349   5.495   9.787   0.577 -0.2526  0.7908 -0.5536
  662MOL0     H91350   5.277   9.720   0.362 -1.9708  0.8332  0.3772
  662MOL0     H91351   5.301   9.868   0.451 -1.7607 -0.4471  0.5221
  662MOL0     H91352   5.074   9.666   0.744  1.0765  1.4642  0.8977
  662MOL0     H91353   5.878   9.505   0.525  2.2023  2.5546  1.3375
  662MOL0     H91354   6.122   9.244   0.512  1.9845  0.4596  0.3128
  662MOL0     H91355   6.210   9.377   0.552 -0.6295  1.9152 -0.1227
  662MOL0     H91356   6.039   9.349   0.623 -1.1156 -0.6996 -0.7028
  663MOL0     O91357   7.792   2.184   0.555  0.5289 -0.4836 -0.1152
  663MOL0     C91358   7.787   2.175   0.679  0.4663  0.1299 -0.6294
  663MOL0     O91359   7.890   2.203   0.770  0.0860  0.2851  0.0102
  663MOL0     C91360   8.008   2.235   0.713 -0.2582  0.4587 -0.0034
  663MOL0     C91361   8.108   2.135   0.710  0.0157  0.1071  0.1471
  663MOL0     C91362   8.239   2.176   0.668  0.5294  0.6154 -0.8345
  663MOL0     C91363   8.258   2.298   0.609 -0.4061 -0.0765  0.1143
  663MOL0     O91364   8.386   2.348   0.570 -0.2580  0.3182 -0.2450
  663MOL0     C91365   8.506   2.267   0.584  0.0944  0.1966 -0.6865
  663MOL0     C91366   8.528   2.181   0.466 -1.2224  0.6208  0.0625
  663MOL0     C91367   8.672   2.117   0.482 -0.5544 -0.1862  0.6744
  663MOL0     C91368   8.689   2.027   0.350  0.2739  0.3920 -0.5585
  663MOL0     C91369   8.780   1.903   0.359 -0.0224  0.3953 -0.1034
  663MOL0     C91370   8.923   1.927   0.423 -1.3193 -0.1318  0.4287
  663MOL0     C91371   9.030   1.819   0.389  0.0713  0.9434  0.2671
  663MOL0     C91372   8.984   1.690   0.438 -0.4461  0.0386 -0.6201
  663MOL0     N91373   9.085   1.584   0.442 -0.0004 -0.0676 -0.4468
  663MOL0     C91374   9.119   1.515   0.335  0.3729  0.7802  0.8589
  663MOL0     C91375   9.216   1.428   0.389 -0.1374 -0.3457  0.3522
  663MOL0     C91376   9.323   1.348   0.317 -0.3683  0.1015  0.1320
  663MOL0     C91377   9.468   1.406   0.316  0.5183  0.2912 -0.9907
  663MOL0     C91378   9.579   1.321   0.247  0.0401 -0.2337  0.3708
  663MOL0     C91379   9.542   1.287   0.096 -0.3137  0.2055 -0.4116
  663MOL0     O91380   9.630   1.179   0.062  0.4093  0.2818  0.5244
  663MOL0     C91381   9.580   1.089  -0.025 -0.1078  0.0237 -0.0058
  663MOL0     C91382   9.657   0.977  -0.044  0.7740  0.2897  0.2743
  663MOL0     C91383   9.622   0.879  -0.145  1.1897  0.5896 -0.1262
  663MOL0     C91384   9.714   0.765  -0.164  0.3487 -0.1371 -0.3448
  663MOL0     C91385   9.496   0.885  -0.224 -0.0478  0.1120 -0.6413
  663MOL0     C91386   9.456   0.800  -0.335  0.0234 -0.2101  0.2676
  663MOL0     O91387   9.549   0.772  -0.432  0.1402 -0.8046  0.2052
  663MOL0     C91388   9.506   0.731  -0.555  0.3085 -0.3402  0.1101
  663MOL0     C91389   9.563   0.806  -0.660  0.3819  0.5551  0.5735
  663MOL0     C91390   9.544   0.759  -0.789  0.3437 -0.4848 -0.4864
  663MOL0     C91391   9.461   0.660  -0.822 -1.1340  0.6996 -0.1583
  663MOL0     O91392   9.430   0.642  -0.956  0.1728  0.2644  0.3468
  663MOL0     C91393   9.333   0.547  -1.008 -0.2008 -0.9864 -0.4267
  663MOL0     C91394   9.307   0.585  -1.152  0.6121  0.0218 -0.5110
  663MOL0     C91395   9.422   0.520  -1.233  0.4939 -0.8172 -0.4910
  663MOL0     C91396   9.395   0.520  -1.379  0.0319  0.2763 -0.6324
  663MOL0     C91397   9.528   0.470  -1.449 -0.5771 -0.0781 -0.7100
  663MOL0     C91398   9.489   0.411  -1.581  0.0567  0.0644 -0.7199
  663MOL0     C91399   9.606   0.369  -1.669  1.7165  0.1041  1.0246
  663MOL0     C91400   9.715   0.296  -1.590 -0.1573  0.3676 -0.0492
  663MOL0    Cl91401   9.649   0.143  -1.530  0.0387  0.4753 -0.2894
  663MOL0     C91402   9.414   0.573  -0.725 -0.1367 -0.0948  0.0286
  663MOL0     C91403   9.430   0.608  -0.589 -0.4133  0.2147  0.6938
  663MOL0     O91404   9.340   0.763  -0.334 -0.1389  0.5242  0.5449
  663MOL0     C91405   9.421   1.000  -0.195  0.1490 -0.1675 -0.1809
  663MOL0     C91406   9.466   1.096  -0.107  0.6339  0.3018 -0.4993
  663MOL0     N91407   9.219   1.449   0.531  0.3763 -0.4799 -0.3709
  663MOL0     N91408   9.140   1.541   0.558 -0.7467 -0.3809 -0.4449
  663MOL0     C91409   8.159   2.395   0.610  0.0492 -0.6982  0.3551
  663MOL0     C91410   8.036   2.359   0.656  0.7807  0.1462  0.0187
  663MOL0     C91411   7.673   2.123   0.751 -0.3250 -0.0553 -0.2456
  663MOL0     C91412   7.680   2.075   0.881  0.2539 -0.4992 -0.0804
  663MOL0     C91413   7.556   2.041   0.940 -0.1063 -0.0142 -0.3131
  663MOL0     C91414   7.430   2.023   0.880  0.0589 -0.0991 -0.0001
  663MOL0     O91415   7.321   1.974   0.948  0.4488  0.0660  0.5308
  663MOL0     C91416   7.185   1.989   0.890 -0.4538 -0.5483 -0.1473
  663MOL0     C91417   7.093   1.894   0.972 -0.2732  0.1474  0.0706
  663MOL0     C91418   6.967   1.866   0.888  0.4891  0.7733  0.1751
  663MOL0     C91419   6.891   1.997   0.865  0.3886 -0.5829  0.4487
  663MOL0     C91420   6.751   1.969   0.839  0.2235  0.6435 -0.4949
  663MOL0     C91421   6.632   1.934   0.836  0.0046  0.2356  0.4239
  663MOL0     C91422   7.432   2.051   0.743  0.3468 -0.0139 -0.2143
  663MOL0     C91423   7.545   2.110   0.683 -0.8133 -0.1422  0.1230
  663MOL0     C91424   7.513   2.145   0.536 -1.0314 -0.3994 -0.2399
  663MOL0     H91425   8.078   2.035   0.742 -1.6198  0.7500  0.6935
  663MOL0     H91426   8.309   2.093   0.677 -1.8917 -1.7538 -2.2931
  663MOL0     H91427   8.510   2.203   0.673  1.6109 -1.1893 -1.6960
  663MOL0     H91428   8.589   2.337   0.597  0.6691 -0.6264  0.2387
  663MOL0     H91429   8.445   2.110   0.467 -0.6266 -0.1037 -0.5616
  663MOL0     H91430   8.524   2.228   0.367  1.6423  0.5272 -0.1786
  663MOL0     H91431   8.754   2.189   0.478 -0.1748 -0.5953  1.0288
  663MOL0     H91432   8.675   2.049   0.568 -3.6612 -1.1758  0.1484
  663MOL0     H91433   8.594   1.996   0.308  0.2852 -0.3588 -0.0390
  663MOL0     H91434   8.740   2.094   0.280 -0.2413  1.0864 -0.2828
  663MOL0     H91435   8.787   1.851   0.262 -1.5375 -0.0591  0.0151
  663MOL0     H91436   8.722   1.833   0.419  0.8838  0.8243  1.3201
  663MOL0     H91437   8.956   2.023   0.381 -0.7982 -1.9062 -3.7907
  663MOL0     H91438   8.916   1.952   0.529 -1.6989  0.1651  0.3392
  663MOL0     H91439   9.120   1.833   0.450  0.9012 -2.6343  0.0989
  663MOL0     H91440   9.045   1.805   0.282 -0.8537 -3.4149  0.5048
  663MOL0     H91441   8.953   1.698   0.543  0.3387  0.8700 -0.4412
  663MOL0     H91442   8.898   1.652   0.383 -1.0386 -2.5994  1.8673
  663MOL0     H91443   9.081   1.524   0.234 -0.9163 -4.2841  0.5966
  663MOL0     H91444   9.292   1.323   0.216 -2.9371  0.4053  0.7739
  663MOL0     H91445   9.340   1.254   0.370  0.1065  0.4110  0.5498
  663MOL0     H91446   9.450   1.501   0.265 -1.4205 -0.1896 -1.2895
  663MOL0     H91447   9.503   1.424   0.418  0.5037 -0.2850 -0.8790
  663MOL0     H91448   9.679   1.364   0.257 -0.2365  0.3192  0.8108
  663MOL0     H91449   9.578   1.225   0.300 -1.5977 -0.9077 -0.7801
  663MOL0     H91450   9.438   1.254   0.093 -1.1214  2.5506 -3.1038
  663MOL0     H91451   9.545   1.367   0.021  2.5861  0.3016 -0.2978
  663MOL0     H91452   9.754   0.975   0.003  0.4989  3.0641  1.1171
  663MOL0     H91453   9.780   0.793  -0.247  1.3427 -0.4861  0.3137
  663MOL0     H91454   9.657   0.672  -0.172 -3.4576  1.8163  1.4488
  663MOL0     H91455   9.774   0.754  -0.074 -0.8372  1.6751  0.7387
  663MOL0     H91456   9.627   0.893  -0.654  1.8028 -0.3917 -0.2109
  663MOL0     H91457   9.584   0.813  -0.874  0.7163 -2.6864 -1.7744
  663MOL0     H91458   9.377   0.447  -0.998  1.1321 -0.6856 -2.7286
  663MOL0     H91459   9.235   0.551  -0.959 -0.3664  0.9592 -0.8728
  663MOL0     H91460   9.208   0.547  -1.180  0.9448 -2.6100  1.4758
  663MOL0     H91461   9.307   0.694  -1.151 -0.1916  0.0921 -2.5748
  663MOL0     H91462   9.436   0.414  -1.209 -1.4058 -1.3462 -1.5152
  663MOL0     H91463   9.510   0.583  -1.215 -0.4427  1.3233 -2.7418
  663MOL0     H91464   9.359   0.617  -1.414 -1.5540  1.7494  4.2440
  663MOL0     H91465   9.316   0.448  -1.397 -0.5024  0.9742 -1.1427
  663MOL0     H91466   9.601   0.551  -1.449 -0.5497 -0.0616  1.0765
  663MOL0     H91467   9.576   0.399  -1.380 -0.6980  1.6094  1.2182
  663MOL0     H91468   9.431   0.493  -1.625  2.3865  1.6394 -1.0283
  663MOL0     H91469   9.428   0.321  -1.568  1.4842 -0.8295  0.0521
  663MOL0     H91470   9.648   0.456  -1.720  3.4504 -1.2260  0.0656
  663MOL0     H91471   9.578   0.305  -1.753 -2.1166 -0.2273  2.3921
  663MOL0     H91472   9.755   0.363  -1.513 -0.9827  1.0230 -0.1788
  663MOL0     H91473   9.802   0.278  -1.654 -0.9437  0.0324 -1.0488
  663MOL0     H91474   9.351   0.495  -0.766  0.9132 -0.5711 -0.7494
  663MOL0     H91475   9.391   0.539  -0.514  0.1077 -1.5924 -0.6304
  663MOL0     H91476   9.331   1.026  -0.251 -0.5132 -0.2187  0.8378
  663MOL0     H91477   9.407   1.187  -0.113  0.4178  0.3141  1.2089
  663MOL0     H91478   8.171   2.494   0.566 -1.3444 -0.8041 -0.3042
  663MOL0     H91479   7.954   2.430   0.657 -1.3943 -2.2162  0.6726
  663MOL0     H91480   7.771   2.097   0.935  2.9994  0.4646 -4.6310
  663MOL0     H91481   7.565   2.005   1.042 -0.5616  0.4912 -0.0905
  663MOL0     H91482   7.146   2.091   0.892  0.2129 -0.2632  3.2236
  663MOL0     H91483   7.188   1.962   0.784  2.1979  1.8380 -0.8022
  663MOL0     H91484   7.082   1.936   1.072  0.0820  1.3654 -0.3778
  663MOL0     H91485   7.149   1.802   0.992  2.1796  1.5911  0.2529
  663MOL0     H91486   6.990   1.820   0.792 -0.1528  2.7186 -0.9780
  663MOL0     H91487   6.910   1.785   0.934 -0.9188  1.7598  0.2279
  663MOL0     H91488   6.923   2.035   0.768  1.0489 -0.6997  0.6119
  663MOL0     H91489   6.909   2.070   0.945  2.9087 -1.1185  0.4719
  663MOL0     H91490   6.533   1.892   0.840 -0.0445  0.4050  4.7263
  663MOL0     H91491   7.351   2.025   0.676 -0.0350 -1.6812  0.8239
  663MOL0     H91492   7.548   2.247   0.520 -0.9337 -0.2728  0.7119
  663MOL0     H91493   7.556   2.079   0.460 -3.7073 -0.9072 -1.4255
  663MOL0     H91494   7.407   2.137   0.513 -0.7301 -1.8519 -1.2910
  664MOL0     O91495   0.222   7.202   9.140  0.3277  0.1860  0.2322
  664MOL0     C91496   0.114   7.136   9.123  0.0723 -0.1608  0.3112
  664MOL0     O91497   0.093   7.038   9.037 -0.1167 -0.3489  0.7433
  664MOL0     C91498   0.212   7.002   8.980  0.0520  0.6900  0.4926
  664MOL0     C91499   0.237   7.026   8.847 -0.1757 -1.0003  0.5135
  664MOL0     C91500   0.357   6.979   8.787  1.4343  0.7442  0.2266
  664MOL0     C91501   0.450   6.901   8.858 -0.1563  0.4342  0.2999
  664MOL0     O91502   0.569   6.869   8.805  0.4392 -0.1189 -0.2387
  664MOL0     C91503   0.599   6.726   8.810  0.3867 -0.6523  0.0474
  664MOL0     C91504   0.749   6.710   8.836  0.4811 -0.2302 -0.2136
  664MOL0     C91505   0.807   6.782   8.958 -0.1344 -0.2101 -0.4947
  664MOL0     C91506   0.961   6.758   8.969  1.1700  0.4656  0.4129
  664MOL0     C91507   1.035   6.870   9.044 -0.4248 -0.1587 -0.5712
  664MOL0     C91508   1.008   6.853   9.193  1.1088  0.7845  0.0968
  664MOL0     C91509   1.098   6.946   9.277 -0.1053 -0.1254 -0.0361
  664MOL0     C91510   1.057   7.090   9.273 -0.2544 -1.1439 -0.4741
  664MOL0     N91511   0.915   7.118   9.309 -1.2549 -0.4042  0.5247
  664MOL0     C91512   0.821   7.201   9.242  0.0723  0.2897  0.0765
  664MOL0     C91513   0.704   7.198   9.316 -0.0901 -0.3123 -0.2368
  664MOL0     C91514   0.569   7.275   9.304 -0.1347  0.8804  0.7335
  664MOL0     C91515   0.584   7.425   9.286 -0.8154 -0.7467  0.2821
  664MOL0     C91516   0.442   7.475   9.262  0.2934  0.1795  0.1565
  664MOL0     C91517   0.360   7.490   9.392 -0.3145  0.6189  0.0929
  664MOL0     O91518   0.266   7.595   9.392 -0.6249 -0.4688  0.7212
  664MOL0     C91519   0.174   7.595   9.487 -0.1454 -0.7447 -0.0846
  664MOL0     C91520   0.176   7.516   9.605 -0.1050  0.5771 -0.0126
  664MOL0     C91521   0.089   7.524   9.710  0.1883  0.0035 -0.6000
  664MOL0     C91522   0.122   7.446   9.837  0.0572  0.3799  0.1149
  664MOL0     C91523  -0.020   7.617   9.698  0.2162 -0.3173 -0.0845
  664MOL0     C91524  -0.131   7.618   9.799  0.4321 -0.1804  0.2017
  664MOL0     O91525  -0.230   7.717   9.766 -0.1427 -1.0032  0.4977
  664MOL0     C91526  -0.321   7.743   9.869 -0.4783 -0.2991  0.2950
  664MOL0     C91527  -0.286   7.750  10.000 -0.7037 -0.3927 -0.7878
  664MOL0     C91528  -0.372   7.809  10.097 -0.1371  0.3400  0.1958
  664MOL0     C91529  -0.499   7.855  10.051  0.3693  0.1273 -0.0989
  664MOL0     O91530  -0.589   7.889  10.145  0.9404 -0.5528  0.6774
  664MOL0     C91531  -0.718   7.947  10.103 -0.2469  1.4181  0.6284
  664MOL0     C91532  -0.791   7.969  10.232  0.0413  0.4684  0.3912
  664MOL0     C91533  -0.948   7.957  10.193 -0.4313 -0.2964  0.5064
  664MOL0     C91534  -0.998   8.097  10.140  0.9343  0.6845 -0.5615
  664MOL0     C91535  -1.152   8.095  10.124  0.6260  0.4290 -0.4003
  664MOL0     C91536  -1.216   8.236  10.117 -0.1455  1.0527  0.0911
  664MOL0     C91537  -1.360   8.225  10.066 -0.6456 -0.5108  0.3415
  664MOL0     C91538  -1.394   8.378  10.026  0.0525 -0.4039  0.7414
  664MOL0    Cl91539  -1.393   8.473  10.168 -0.2309 -0.0562 -0.0154
  664MOL0     C91540  -0.531   7.847   9.917  0.0113 -0.0655  0.4894
  664MOL0     C91541  -0.440   7.788   9.830  0.7169  0.3733 -0.2550
  664MOL0     O91542  -0.143   7.522   9.881  0.5570 -0.6389  0.4476
  664MOL0     C91543  -0.038   7.687   9.568  0.1021  1.4784 -0.2987
  664MOL0     C91544   0.061   7.678   9.463 -0.1199 -0.1683 -0.5931
  664MOL0     N91545   0.728   7.107   9.409 -0.3098 -0.0439  0.3777
  664MOL0     N91546   0.857   7.089   9.431 -0.3222  0.3129 -0.7722
  664MOL0     C91547   0.422   6.878   8.991 -0.5689 -0.3878 -0.1010
  664MOL0     C91548   0.299   6.920   9.046  0.2887 -0.6480 -0.3140
  664MOL0     C91549   0.000   7.199   9.171  0.5232 -0.0223 -0.5961
  664MOL0     C91550   0.009   7.332   9.239  0.5955 -0.3564  1.0044
  664MOL0     C91551  -0.109   7.403   9.273 -0.5775  0.4785  0.0216
  664MOL0     C91552  -0.231   7.344   9.267  0.4206  0.0679 -0.5250
  664MOL0     O91553  -0.326   7.420   9.322 -0.0961 -0.3402 -0.2805
  664MOL0     C91554  -0.458   7.357   9.335  0.1712 -0.4080  0.2528
  664MOL0     C91555  -0.546   7.431   9.434  0.8924 -0.2075  0.0261
  664MOL0     C91556  -0.476   7.431   9.571 -0.1094  0.1783 -0.2030
  664MOL0     C91557  -0.570   7.463   9.690  0.2560  0.1936  0.4376
  664MOL0     C91558  -0.642   7.586   9.672 -0.5399  0.2653  0.9564
  664MOL0     C91559  -0.708   7.679   9.653 -0.1884 -0.1096 -0.4615
  664MOL0     C91560  -0.240   7.214   9.213 -0.1951  0.1724 -0.3999
  664MOL0     C91561  -0.132   7.136   9.169  0.7889 -0.6236  1.0863
  664MOL0     C91562  -0.168   7.000   9.112 -0.9610  0.0305  0.1643
  664MOL0     H91563   0.178   7.098   8.793 -0.9769 -0.8631  1.5463
  664MOL0     H91564   0.387   6.998   8.684  2.0579  0.1343  0.2908
  664MOL0     H91565   0.579   6.674   8.716  0.1484 -0.4246 -0.0288
  664MOL0     H91566   0.550   6.675   8.894  0.9636  0.0288  0.8117
  664MOL0     H91567   0.776   6.604   8.839 -0.0133 -0.3599 -0.2375
  664MOL0     H91568   0.790   6.755   8.745 -1.1800  2.5427  0.2912
  664MOL0     H91569   0.785   6.889   8.958  0.8017  0.2256  4.5608
  664MOL0     H91570   0.755   6.749   9.048 -0.9390  3.3552  0.5112
  664MOL0     H91571   0.976   6.667   9.028  0.3821  0.5084  0.7058
  664MOL0     H91572   0.986   6.748   8.863 -2.4955  1.6306 -0.7419
  664MOL0     H91573   0.993   6.967   9.018  0.2439  1.2246  2.9765
  664MOL0     H91574   1.142   6.866   9.023 -0.4842  0.0874 -0.9248
  664MOL0     H91575   0.901   6.869   9.207  0.2477  0.1668 -4.2074
  664MOL0     H91576   1.030   6.752   9.228  0.6326 -0.0241 -1.8190
  664MOL0     H91577   1.205   6.931   9.260 -0.2385 -0.2058 -0.8657
  664MOL0     H91578   1.077   6.929   9.383 -3.2799  0.3885 -0.4699
  664MOL0     H91579   1.116   7.131   9.356 -3.7439 -2.9261  3.2030
  664MOL0     H91580   1.091   7.140   9.182 -2.2332  3.8405  1.1773
  664MOL0     H91581   0.845   7.269   9.161  0.2932  0.7473  0.5207
  664MOL0     H91582   0.522   7.264   9.402 -0.4432  1.8316  0.6946
  664MOL0     H91583   0.515   7.236   9.217  0.8628  0.7036  0.1775
  664MOL0     H91584   0.631   7.477   9.370 -0.7440  1.7617 -1.1916
  664MOL0     H91585   0.650   7.447   9.202  0.2361  1.6710  1.6379
  664MOL0     H91586   0.443   7.575   9.217  1.6492  0.2089  0.1944
  664MOL0     H91587   0.393   7.409   9.190  0.0976 -1.7492  1.9582
  664MOL0     H91588   0.313   7.391   9.398  1.2163 -0.1472 -0.0433
  664MOL0     H91589   0.431   7.508   9.473 -0.3806  3.5957 -0.3980
  664MOL0     H91590   0.254   7.443   9.622 -1.2742 -0.4877  0.9174
  664MOL0     H91591   0.216   7.394   9.818 -0.8472 -0.6848 -1.7812
  664MOL0     H91592   0.044   7.369   9.843  1.5729 -1.2776 -0.4469
  664MOL0     H91593   0.116   7.517   9.920  0.4085  1.1009 -0.4659
  664MOL0     H91594  -0.190   7.713  10.036 -0.0589  1.0844 -0.9211
  664MOL0     H91595  -0.349   7.848  10.196 -0.3762  3.6870 -0.9593
  664MOL0     H91596  -0.710   8.035  10.039 -0.0142 -0.0132 -1.4112
  664MOL0     H91597  -0.758   7.864  10.044  2.6400  2.4560 -3.2371
  664MOL0     H91598  -0.767   7.886  10.299 -0.8033  0.1741  0.3396
  664MOL0     H91599  -0.755   8.058  10.284  1.0369  0.3471 -0.0798
  664MOL0     H91600  -1.014   7.928  10.275 -0.8959 -0.1244  0.1920
  664MOL0     H91601  -0.966   7.884  10.114 -1.7412 -1.5626  1.9114
  664MOL0     H91602  -0.947   8.122  10.046  2.5600 -0.6167 -0.0675
  664MOL0     H91603  -0.971   8.175  10.212  0.6694 -0.9518  1.4050
  664MOL0     H91604  -1.176   8.037  10.034  0.9181 -3.2838  1.7092
  664MOL0     H91605  -1.204   8.038  10.201  0.6723  2.0769  0.8949
  664MOL0     H91606  -1.149   8.300  10.060 -0.0914 -1.7547 -3.3213
  664MOL0     H91607  -1.220   8.283  10.216  3.1124 -0.2929  0.9738
  664MOL0     H91608  -1.428   8.187  10.144  0.1402 -2.4671  0.1364
  664MOL0     H91609  -1.374   8.159   9.981 -1.1515 -1.2545  0.9846
  664MOL0     H91610  -1.487   8.388   9.969  1.1811 -2.7225 -1.7222
  664MOL0     H91611  -1.319   8.420   9.958 -0.5868 -0.2230  0.1346
  664MOL0     H91612  -0.623   7.879   9.869 -0.8112 -1.7723  0.8486
  664MOL0     H91613  -0.467   7.795   9.726 -2.0246  1.8867  0.4518
  664MOL0     H91614  -0.123   7.748   9.539 -1.1093 -0.3251 -0.7568
  664MOL0     H91615   0.057   7.731   9.368  1.5832  1.8546  0.3790
  664MOL0     H91616   0.492   6.825   9.055 -0.8187 -1.7074 -0.8947
  664MOL0     H91617   0.285   6.888   9.149 -2.8833 -4.4117 -1.6743
  664MOL0     H91618   0.102   7.385   9.222  0.9146 -1.6496 -1.7466
  664MOL0     H91619  -0.088   7.501   9.314  0.8355 -0.2668  1.1787
  664MOL0     H91620  -0.507   7.358   9.238 -0.5742 -1.5700  0.5957
  664MOL0     H91621  -0.446   7.257   9.378 -2.6915  0.8042  4.5335
  664MOL0     H91622  -0.646   7.388   9.434  0.5111  0.6510 -0.7947
  664MOL0     H91623  -0.556   7.531   9.390  1.4897 -0.6632 -1.1822
  664MOL0     H91624  -0.448   7.327   9.589  0.5997  0.2603 -0.7791
  664MOL0     H91625  -0.391   7.499   9.582 -2.1545  3.1088 -1.0910
  664MOL0     H91626  -0.506   7.468   9.779  0.5084 -0.6620  0.3152
  664MOL0     H91627  -0.642   7.383   9.705 -1.0900  1.7971  3.3404
  664MOL0     H91628  -0.765   7.769   9.644 -0.5761 -0.3212 -0.1700
  664MOL0     H91629  -0.341   7.177   9.219 -0.5905  1.0971 -1.1043
  664MOL0     H91630  -0.275   6.981   9.124 -0.7123  0.1407  3.5469
  664MOL0     H91631  -0.138   6.993   9.007 -1.6520  2.3265 -0.2355
  664MOL0     H91632  -0.111   6.931   9.175 -1.7192 -0.7998 -0.0476
  665MOL0     O91633   0.108   8.599   3.460  0.1630 -0.2494  0.7617
  665MOL0     C91634   0.044   8.496   3.482  0.0619 -0.1883 -0.6521
  665MOL0     O91635   0.083   8.408   3.572  0.0802  0.0849 -0.7492
  665MOL0     C91636   0.203   8.412   3.636  0.2560 -0.3543 -0.2749
  665MOL0     C91637   0.198   8.397   3.773  0.1966 -0.3329  0.1395
  665MOL0     C91638   0.321   8.392   3.842  0.2191  0.0192 -0.2064
  665MOL0     C91639   0.439   8.409   3.783 -0.1117  0.3921 -0.0739
  665MOL0     O91640   0.552   8.387   3.859 -0.3938 -0.0330  0.3823
  665MOL0     C91641   0.650   8.499   3.863  0.0282 -0.3317  0.4714
  665MOL0     C91642   0.735   8.493   3.991  0.2158 -0.3852  0.9564
  665MOL0     C91643   0.670   8.447   4.118 -0.7291  0.2983 -1.1423
  665MOL0     C91644   0.786   8.436   4.219  0.3534 -0.2320  0.8693
  665MOL0     C91645   0.736   8.393   4.356  0.0517  0.1916 -0.2406
  665MOL0     C91646   0.843   8.409   4.462 -0.5345  0.8005 -0.9468
  665MOL0     C91647   0.802   8.353   4.602  0.4725  0.5177 -0.3637
  665MOL0     C91648   0.916   8.303   4.688 -0.0710  0.0880 -0.3386
  665MOL0     N91649   1.027   8.400   4.683  0.6127  1.3948  0.9813
  665MOL0     C91650   1.038   8.512   4.758 -0.1434 -0.8331 -0.7115
  665MOL0     C91651   1.160   8.565   4.723  0.1758  0.1462  0.6073
  665MOL0     C91652   1.205   8.707   4.775  0.5832  0.0162 -0.1564
  665MOL0     C91653   1.349   8.740   4.741 -0.3329  0.6500  0.0414
  665MOL0     C91654   1.451   8.669   4.821 -0.7980 -0.2720  0.0984
  665MOL0     C91655   1.434   8.719   4.968 -1.0053  0.9847 -0.7199
  665MOL0     O91656   1.559   8.689   5.034 -0.0178 -0.5065 -0.4705
  665MOL0     C91657   1.641   8.790   5.090  1.0079 -0.1173  0.6303
  665MOL0     C91658   1.650   8.932   5.055  0.6934  0.9781  0.5158
  665MOL0     C91659   1.738   9.022   5.111 -0.0248  0.0387 -0.9175
  665MOL0     C91660   1.725   9.164   5.084  0.5940 -0.2467 -0.0963
  665MOL0     C91661   1.829   8.969   5.203 -0.5374 -0.0479  0.7801
  665MOL0     C91662   1.920   9.058   5.278 -0.3186  0.6552 -0.1215
  665MOL0     O91663   2.034   9.008   5.320 -0.3652  0.8002 -1.1131
  665MOL0     C91664   2.138   9.089   5.374  0.3137  0.1538  0.3131
  665MOL0     C91665   2.117   9.188   5.472 -0.0245  0.3006  0.4918
  665MOL0     C91666   2.223   9.263   5.528  1.4967  0.3709 -0.0956
  665MOL0     C91667   2.351   9.245   5.480  1.0049 -0.2809 -0.9553
  665MOL0     O91668   2.466   9.310   5.521 -0.2708 -0.2001  0.0815
  665MOL0     C91669   2.480   9.386   5.649  1.2485 -0.4311  0.4956
  665MOL0     C91670   2.527   9.523   5.605  0.6863 -0.7709 -1.0577
  665MOL0     C91671   2.643   9.525   5.512  0.1848  0.5468  0.1658
  665MOL0     C91672   2.710   9.667   5.496  0.0971  0.1572  0.0981
  665MOL0     C91673   2.835   9.665   5.392 -0.3213  0.5856  0.4033
  665MOL0     C91674   2.926   9.793   5.373  0.3768  0.0162 -0.1637
  665MOL0     C91675   3.037   9.769   5.269 -0.4133 -0.4379  0.3775
  665MOL0     C91676   2.991   9.753   5.121  0.8192  0.6721 -0.9618
  665MOL0    Cl91677   3.119   9.769   5.010 -0.0381 -0.3891  0.1895
  665MOL0     C91678   2.372   9.140   5.381 -0.5231 -0.2933 -0.3881
  665MOL0     C91679   2.269   9.063   5.333  0.1579 -0.5875  0.2942
  665MOL0     O91680   1.882   9.172   5.307 -0.2840 -0.2556  0.1043
  665MOL0     C91681   1.840   8.831   5.232  0.6848 -0.0942  0.0706
  665MOL0     C91682   1.734   8.746   5.173 -0.3738  1.5850 -0.6759
  665MOL0     N91683   1.232   8.480   4.636  0.1586  0.0633 -0.5594
  665MOL0     N91684   1.151   8.381   4.621 -0.4396 -0.0087 -0.1526
  665MOL0     C91685   0.447   8.439   3.647 -0.0687 -0.2855  0.6081
  665MOL0     C91686   0.327   8.428   3.568  0.6601 -0.7817 -0.7608
  665MOL0     C91687  -0.096   8.484   3.429  0.5919 -0.2930  0.6290
  665MOL0     C91688  -0.189   8.426   3.518  0.1610  0.6646 -0.0101
  665MOL0     C91689  -0.320   8.424   3.487 -0.3361 -0.1054 -0.0856
  665MOL0     C91690  -0.366   8.487   3.373  0.3691  0.0458  0.6040
  665MOL0     O91691  -0.497   8.491   3.339  0.0266  0.4443 -0.7435
  665MOL0     C91692  -0.548   8.362   3.315 -0.2867  0.6371 -0.5611
  665MOL0     C91693  -0.587   8.351   3.165  1.0267 -0.8543 -0.0624
  665MOL0     C91694  -0.717   8.428   3.141  0.1165 -1.2388  1.0729
  665MOL0     C91695  -0.780   8.387   3.007  0.7236  0.0478  0.0599
  665MOL0     C91696  -0.914   8.437   3.009 -0.3834 -0.1222 -0.0139
  665MOL0     C91697  -1.019   8.500   3.037  0.4238  0.2573 -0.0409
  665MOL0     C91698  -0.278   8.532   3.279 -0.4884  0.7882 -0.2247
  665MOL0     C91699  -0.144   8.544   3.311  0.4029  1.2142  0.1917
  665MOL0     C91700  -0.053   8.606   3.205  0.0315  0.1638  0.3000
  665MOL0     H91701   0.111   8.386   3.837  1.9026 -1.0337  2.4568
  665MOL0     H91702   0.315   8.377   3.950  1.2281  1.9203  0.1437
  665MOL0     H91703   0.588   8.589   3.862  1.3856  0.6344 -0.7945
  665MOL0     H91704   0.723   8.511   3.782  0.6148  1.6516  1.2404
  665MOL0     H91705   0.817   8.422   3.976 -0.4713 -0.8525 -0.7592
  665MOL0     H91706   0.766   8.598   4.001 -0.2845  0.2544 -2.8792
  665MOL0     H91707   0.592   8.515   4.157 -0.9507  0.3564 -1.6799
  665MOL0     H91708   0.623   8.349   4.111 -1.5242  0.1750  2.9330
  665MOL0     H91709   0.859   8.360   4.188 -1.4701 -1.9654  0.6113
  665MOL0     H91710   0.831   8.535   4.225  0.7294 -0.1052 -2.3156
  665MOL0     H91711   0.693   8.293   4.341 -0.7657  0.7014 -1.4930
  665MOL0     H91712   0.650   8.453   4.388 -0.5848 -2.1800  3.0459
  665MOL0     H91713   0.936   8.358   4.436 -2.2904 -1.3340 -3.5912
  665MOL0     H91714   0.873   8.512   4.479 -3.2996  1.9624 -2.4571
  665MOL0     H91715   0.735   8.270   4.581 -1.1300  1.4675  0.7730
  665MOL0     H91716   0.751   8.426   4.665  3.4600  0.9689  1.7863
  665MOL0     H91717   0.870   8.294   4.786  1.1701 -0.8106  0.2018
  665MOL0     H91718   0.952   8.204   4.656 -0.5770  0.1927 -1.2676
  665MOL0     H91719   0.969   8.566   4.822  0.3759 -2.1202  1.0199
  665MOL0     H91720   1.189   8.701   4.883  1.9790  3.0854  0.3234
  665MOL0     H91721   1.141   8.778   4.721  0.7470 -0.8225 -1.4939
  665MOL0     H91722   1.367   8.715   4.636  0.0137  1.7648 -0.1743
  665MOL0     H91723   1.369   8.847   4.751  1.8320  0.1998  1.0079
  665MOL0     H91724   1.446   8.562   4.800  1.4286 -0.9566  2.5254
  665MOL0     H91725   1.548   8.703   4.783 -0.0665 -2.5098 -0.1709
  665MOL0     H91726   1.411   8.825   4.977  0.5005  1.1584  2.6716
  665MOL0     H91727   1.359   8.665   5.027 -0.6566 -1.1725 -2.1282
  665MOL0     H91728   1.571   8.966   4.988  0.4042 -0.2572  0.2026
  665MOL0     H91729   1.693   9.223   5.171  0.2069  2.6242 -2.0585
  665MOL0     H91730   1.656   9.180   5.001 -0.7326 -0.8236  0.8531
  665MOL0     H91731   1.818   9.210   5.050  0.6459  1.1955  1.7900
  665MOL0     H91732   2.020   9.200   5.521 -0.1353 -2.3792  1.0636
  665MOL0     H91733   2.216   9.334   5.609  0.9667 -2.9670  3.0052
  665MOL0     H91734   2.385   9.412   5.696  0.3925 -2.8346  0.2628
  665MOL0     H91735   2.546   9.341   5.723  0.1682  2.1492  3.2434
  665MOL0     H91736   2.446   9.563   5.544  0.1387  1.5490  1.0391
  665MOL0     H91737   2.543   9.579   5.698  1.4797 -0.8201 -1.1523
  665MOL0     H91738   2.612   9.487   5.415  1.9734 -0.4085 -0.0585
  665MOL0     H91739   2.721   9.461   5.554  0.2212 -0.2195 -1.0400
  665MOL0     H91740   2.744   9.703   5.594  1.2428 -1.4780  0.3392
  665MOL0     H91741   2.646   9.746   5.455  0.2069 -0.6424 -1.6748
  665MOL0     H91742   2.897   9.579   5.421 -2.3648 -0.8971  0.6004
  665MOL0     H91743   2.810   9.634   5.290 -1.8287  2.0602  0.2807
  665MOL0     H91744   2.971   9.809   5.471  1.6768 -0.5838 -0.6416
  665MOL0     H91745   2.873   9.874   5.322 -1.3281 -2.4365 -2.5335
  665MOL0     H91746   3.098   9.682   5.295 -0.4411 -0.2029  1.2404
  665MOL0     H91747   3.102   9.857   5.278  1.0779 -1.4308 -0.1285
  665MOL0     H91748   2.912   9.827   5.104 -0.9211 -0.8546  0.1574
  665MOL0     H91749   2.934   9.662   5.100 -3.2221  2.3131  1.5480
  665MOL0     H91750   2.474   9.124   5.346 -0.3297  0.5975 -0.2604
  665MOL0     H91751   2.289   8.982   5.263  2.6487  1.6632 -1.8585
  665MOL0     H91752   1.915   8.795   5.302  3.0070  1.8072 -1.2997
  665MOL0     H91753   1.730   8.642   5.204  0.7947  2.7229  4.0785
  665MOL0     H91754   0.537   8.455   3.589 -0.4949  2.4686  0.6057
  665MOL0     H91755   0.313   8.443   3.461 -1.2979  1.1172 -0.3068
  665MOL0     H91756  -0.162   8.390   3.617 -1.0668  1.2617  0.5770
  665MOL0     H91757  -0.395   8.372   3.546 -2.7254 -0.3233 -3.0796
  665MOL0     H91758  -0.472   8.285   3.332  0.9603  2.1580  1.1121
  665MOL0     H91759  -0.637   8.343   3.375 -0.9999  1.3702 -1.3655
  665MOL0     H91760  -0.595   8.247   3.133 -0.5099 -0.2931 -1.6983
  665MOL0     H91761  -0.506   8.392   3.104  0.4048  1.6906  0.7049
  665MOL0     H91762  -0.784   8.415   3.227  0.2379  1.8988  1.7591
  665MOL0     H91763  -0.694   8.535   3.137  2.4279 -1.7199  0.2452
  665MOL0     H91764  -0.778   8.278   2.997  1.5782 -0.0128  0.7002
  665MOL0     H91765  -0.717   8.427   2.926  3.9056  0.7993  2.6777
  665MOL0     H91766  -1.106   8.561   3.049  1.4043  1.7059 -0.0917
  665MOL0     H91767  -0.309   8.577   3.185 -0.5240  1.6504  0.1896
  665MOL0     H91768   0.047   8.574   3.234 -0.6309 -1.5682  0.8199
  665MOL0     H91769  -0.079   8.573   3.105  0.0925  1.2080 -0.0754
  665MOL0     H91770  -0.066   8.714   3.216  3.3765  0.6542  0.3685
  666MOL0     O91771   0.451   8.347  10.834 -0.0008 -0.2707 -0.1155
  666MOL0     C91772   0.521   8.302  10.750 -0.3516 -0.0446  0.2477
  666MOL0     O91773   0.494   8.298  10.613  0.4373  0.2234 -0.7024
  666MOL0     C91774   0.386   8.362  10.573  0.0921 -0.7257 -0.0503
  666MOL0     C91775   0.363   8.499  10.596  0.1411 -0.8186  0.5853
  666MOL0     C91776   0.234   8.549  10.555 -0.3969  0.1055  0.2364
  666MOL0     C91777   0.136   8.472  10.492  0.0253  0.3621  0.0827
  666MOL0     O91778   0.012   8.532  10.486 -0.0183  0.0126  0.9295
  666MOL0     C91779  -0.100   8.469  10.411 -0.2589 -0.4884 -0.0540
  666MOL0     C91780  -0.227   8.458  10.489 -0.1471 -0.3269 -0.3022
  666MOL0     C91781  -0.283   8.580  10.544  0.2737 -0.1463 -0.1584
  666MOL0     C91782  -0.389   8.557  10.660  0.3440  0.4924 -0.4330
  666MOL0     C91783  -0.534   8.552  10.605 -0.1812  0.7067  0.1056
  666MOL0     C91784  -0.582   8.671  10.525  0.3281  0.1058 -0.2325
  666MOL0     C91785  -0.612   8.795  10.613  0.4201  1.1953  0.1039
  666MOL0     C91786  -0.702   8.887  10.525  0.7540 -0.0510  0.0045
  666MOL0     N91787  -0.736   9.012  10.598 -0.2339  0.2167 -0.5840
  666MOL0     C91788  -0.649   9.114  10.643 -0.0176  0.2385 -0.0013
  666MOL0     C91789  -0.727   9.214  10.695 -0.7267 -0.4801 -0.0307
  666MOL0     C91790  -0.675   9.330  10.777  0.5682  0.2385 -0.3450
  666MOL0     C91791  -0.627   9.456  10.700  0.7875  0.2615 -0.0696
  666MOL0     C91792  -0.535   9.542  10.784 -0.0276 -0.8030  0.2737
  666MOL0     C91793  -0.406   9.476  10.822  0.0054 -0.1135  0.4508
  666MOL0     O91794  -0.327   9.569  10.897 -0.3309 -0.7082  0.9926
  666MOL0     C91795  -0.192   9.552  10.915 -0.4953  0.5960 -0.6755
  666MOL0     C91796  -0.151   9.420  10.953  0.6705  0.0661  0.1964
  666MOL0     C91797  -0.015   9.392  10.965 -0.5210  0.8529 -0.3249
  666MOL0     C91798   0.020   9.253  11.013  0.2890  0.0817  0.2257
  666MOL0     C91799   0.081   9.490  10.941 -0.4478  0.0964  0.1982
  666MOL0     C91800   0.230   9.453  10.930 -0.3085  0.1851  0.0756
  666MOL0     O91801   0.321   9.548  10.964 -0.1214 -0.6385 -0.4835
  666MOL0     C91802   0.441   9.561  10.895 -0.7841 -0.4347 -0.1540
  666MOL0     C91803   0.555   9.514  10.957 -1.1332  0.2145 -1.2383
  666MOL0     C91804   0.681   9.540  10.908 -0.3829  0.3285 -1.1539
  666MOL0     C91805   0.698   9.612  10.790  0.7609  0.5384  0.3264
  666MOL0     O91806   0.811   9.624  10.723  0.3603  0.1281 -1.0506
  666MOL0     C91807   0.932   9.597  10.787 -1.4527  0.1161  0.0855
  666MOL0     C91808   1.046   9.653  10.708  0.3653 -0.5229 -0.3415
  666MOL0     C91809   1.181   9.642  10.788 -0.6369  0.3677  1.1356
  666MOL0     C91810   1.288   9.733  10.719  0.6751  0.0574  0.1219
  666MOL0     C91811   1.428   9.688  10.769  0.5849  0.3447  0.2924
  666MOL0     C91812   1.534   9.755  10.674 -0.3434 -0.1187  0.0585
  666MOL0     C91813   1.518   9.909  10.663  0.2883  0.0901  0.6008
  666MOL0     C91814   1.626   9.971  10.583  0.9646 -1.1213  0.0144
  666MOL0    Cl91815   1.771   9.984  10.677 -0.0576 -0.0042 -0.4124
  666MOL0     C91816   0.582   9.662  10.733 -0.4720  0.4315  0.4081
  666MOL0     C91817   0.458   9.635  10.785  0.3448  0.8473  1.6332
  666MOL0     O91818   0.259   9.349  10.871 -0.7201 -0.1075 -0.2426
  666MOL0     C91819   0.041   9.621  10.895 -0.7834  0.4663 -0.2941
  666MOL0     C91820  -0.094   9.647  10.888 -0.4080 -0.4839  0.5512
  666MOL0     N91821  -0.855   9.177  10.684 -0.4177 -0.2851  1.2682
  666MOL0     N91822  -0.855   9.058  10.632  0.1003  0.0145  0.8138
  666MOL0     C91823   0.171   8.342  10.465 -0.6061 -0.3742  0.2675
  666MOL0     C91824   0.296   8.291  10.502  0.4132  0.3404  0.3362
  666MOL0     C91825   0.658   8.255  10.787  0.3557  0.4917 -0.6203
  666MOL0     C91826   0.765   8.256  10.695  0.0697  0.1246 -0.2694
  666MOL0     C91827   0.889   8.207  10.732  0.0883 -0.2898  1.4120
  666MOL0     C91828   0.912   8.142  10.849 -0.8714 -0.1731  0.2643
  666MOL0     O91829   1.035   8.079  10.854  0.1362  0.5636  0.7972
  666MOL0     C91830   1.096   8.041  10.984  0.5046  0.3727 -0.1046
  666MOL0     C91831   1.240   7.999  10.958 -0.3104 -0.0514  0.5782
  666MOL0     C91832   1.338   8.117  10.952 -0.2258 -0.0417  0.1670
  666MOL0     C91833   1.369   8.169  11.089 -0.4080  0.4350  0.4186
  666MOL0     C91834   1.483   8.253  11.109 -0.2476  0.6690  1.0126
  666MOL0     C91835   1.568   8.325  11.153  0.5129 -1.3638 -0.3917
  666MOL0     C91836   0.815   8.146  10.949  0.4765  0.1390 -0.1743
  666MOL0     C91837   0.683   8.197  10.921  0.5719  1.2133  0.1736
  666MOL0     C91838   0.582   8.191  11.029 -0.8448 -0.2826  0.4560
  666MOL0     H91839   0.437   8.556  10.651 -0.4388 -0.3793  0.9259
  666MOL0     H91840   0.215   8.654  10.575  1.3621  0.8923 -1.7721
  666MOL0     H91841  -0.074   8.370  10.373  1.1022 -0.8193  1.5858
  666MOL0     H91842  -0.121   8.543  10.334  0.6213 -1.0090 -0.8092
  666MOL0     H91843  -0.302   8.396  10.438 -2.3686  0.4781  1.7756
  666MOL0     H91844  -0.206   8.409  10.585 -2.5282  2.4343  1.8081
  666MOL0     H91845  -0.196   8.641  10.572 -0.7035  1.4013 -0.3702
  666MOL0     H91846  -0.326   8.642  10.466  1.2320 -0.3486 -0.8648
  666MOL0     H91847  -0.367   8.469  10.721  1.0595  1.2663  0.4592
  666MOL0     H91848  -0.393   8.635  10.736 -1.3824 -3.4452  4.0468
  666MOL0     H91849  -0.606   8.530  10.684  1.0554 -2.0588  0.5797
  666MOL0     H91850  -0.546   8.463  10.543 -3.2260 -0.3911  2.0749
  666MOL0     H91851  -0.514   8.704  10.446  1.7452 -2.0258  0.0221
  666MOL0     H91852  -0.677   8.649  10.475  0.4153  2.7711 -1.7377
  666MOL0     H91853  -0.522   8.849  10.643  0.0202  1.3360  1.0778
  666MOL0     H91854  -0.676   8.768  10.698 -1.9770  1.9930 -1.3303
  666MOL0     H91855  -0.659   8.900  10.426 -2.5932 -1.0361 -1.7327
  666MOL0     H91856  -0.797   8.835  10.510  0.3420  0.3262  1.2037
  666MOL0     H91857  -0.541   9.122  10.635 -0.0647  2.8308  0.8707
  666MOL0     H91858  -0.600   9.307  10.854 -1.0706  1.6249  1.8047
  666MOL0     H91859  -0.758   9.364  10.840  1.1624 -2.0529  1.8518
  666MOL0     H91860  -0.572   9.420  10.612 -0.7348  0.9487 -1.3568
  666MOL0     H91861  -0.704   9.524  10.661  0.8530 -0.4742 -1.5411
  666MOL0     H91862  -0.517   9.638  10.735 -1.4200 -0.3733  0.5639
  666MOL0     H91863  -0.597   9.569  10.870 -0.5949 -0.3666 -0.2652
  666MOL0     H91864  -0.411   9.375  10.864 -0.9333 -1.4268 -2.5403
  666MOL0     H91865  -0.344   9.457  10.733 -1.2028 -1.0783 -0.2112
  666MOL0     H91866  -0.232   9.351  10.975  0.9816 -1.0963 -2.0435
  666MOL0     H91867   0.079   9.257  11.105  2.1983  0.0201 -0.9331
  666MOL0     H91868   0.072   9.191  10.939 -0.2588 -0.9635  0.6807
  666MOL0     H91869  -0.068   9.199  11.048  1.4732 -1.8723  0.3519
  666MOL0     H91870   0.540   9.468  11.054 -0.4419  0.1897 -1.1393
  666MOL0     H91871   0.769   9.506  10.962  0.2485  3.4734 -0.0302
  666MOL0     H91872   0.928   9.629  10.891 -1.6170 -0.9439  0.4155
  666MOL0     H91873   0.949   9.489  10.787 -1.9251  0.0314 -0.5439
  666MOL0     H91874   1.067   9.585  10.625  1.1783 -0.6941 -0.0015
  666MOL0     H91875   1.036   9.761  10.690 -0.0759 -0.2532  1.3331
  666MOL0     H91876   1.213   9.538  10.785  0.3464  0.6833  0.0364
  666MOL0     H91877   1.158   9.659  10.894  3.4926 -0.7301  2.3824
  666MOL0     H91878   1.259   9.837  10.737 -0.1203  0.0009 -0.7036
  666MOL0     H91879   1.272   9.725  10.611  1.3298  0.0958  0.0197
  666MOL0     H91880   1.453   9.705  10.874  0.4861  0.4616  0.2981
  666MOL0     H91881   1.433   9.579  10.760  3.4450  0.4688 -0.5870
  666MOL0     H91882   1.528   9.723  10.570  0.2285  1.5603 -0.5317
  666MOL0     H91883   1.632   9.748  10.721 -0.1916  4.6880  0.9447
  666MOL0     H91884   1.516   9.945  10.767  2.2202  0.8170  0.4278
  666MOL0     H91885   1.418   9.912  10.618 -0.3612  0.6167  2.0113
  666MOL0     H91886   1.591  10.068  10.547 -1.4340 -2.1252 -0.5419
  666MOL0     H91887   1.656   9.901  10.504 -0.2937 -1.8815  0.1893
  666MOL0     H91888   0.595   9.728  10.648  1.6392 -0.9271 -0.4077
  666MOL0     H91889   0.372   9.673  10.730  0.4606 -1.7085 -0.5381
  666MOL0     H91890   0.111   9.701  10.873 -1.0393  2.1518  3.9687
  666MOL0     H91891  -0.124   9.743  10.848  0.9232 -0.2098  0.1650
  666MOL0     H91892   0.110   8.263  10.423 -1.3373 -1.1506  2.6254
  666MOL0     H91893   0.318   8.187  10.479  0.6483  0.6346 -0.8183
  666MOL0     H91894   0.748   8.302  10.598  0.4071  0.1051 -0.3390
  666MOL0     H91895   0.953   8.227  10.646 -0.7171 -0.8107  0.6715
  666MOL0     H91896   1.080   8.117  11.061 -1.4882  1.2494 -1.3131
  666MOL0     H91897   1.044   7.952  11.019  0.4411 -0.3453 -1.9122
  666MOL0     H91898   1.252   7.950  10.860 -0.6901  1.2006 -0.1163
  666MOL0     H91899   1.279   7.924  11.027  2.0880  0.0363 -0.5454
  666MOL0     H91900   1.427   8.074  10.904 -0.3567  0.5150 -0.5894
  666MOL0     H91901   1.314   8.193  10.877  0.5476 -2.1526 -2.3837
  666MOL0     H91902   1.377   8.092  11.166  1.7455  0.4870  0.3062
  666MOL0     H91903   1.286   8.239  11.103 -1.6037 -0.2178 -2.6715
  666MOL0     H91904   1.644   8.389  11.195  2.0606 -2.1155 -1.9343
  666MOL0     H91905   0.844   8.098  11.042  2.0706 -0.6790 -1.0530
  666MOL0     H91906   0.489   8.145  10.996 -0.7835  0.1707 -0.3868
  666MOL0     H91907   0.613   8.149  11.125  0.3156  3.2793  1.8118
  666MOL0     H91908   0.559   8.292  11.065 -1.2985  0.1063 -0.8745
  667MOL0     O91909   9.820   4.702   0.435  0.1177 -0.4035  0.1037
  667MOL0     C91910   9.902   4.788   0.403 -0.5150 -0.0224 -0.0557
  667MOL0     O91911   9.869   4.921   0.385  0.1084 -0.1940 -0.0080
  667MOL0     C91912   9.739   4.978   0.422 -0.1969 -0.1754  0.3087
  667MOL0     C91913   9.639   4.926   0.509  0.3270 -0.3119  0.3429
  667MOL0     C91914   9.518   4.993   0.533 -0.6058  0.2875 -0.4641
  667MOL0     C91915   9.494   5.115   0.478  0.1719  1.0933 -0.1606
  667MOL0     O91916   9.377   5.174   0.511 -0.6868 -0.1591 -0.3176
  667MOL0     C91917   9.374   5.315   0.528 -0.0463 -0.4307 -0.0102
  667MOL0     C91918   9.244   5.366   0.598  0.0059 -0.1603 -0.6138
  667MOL0     C91919   9.115   5.307   0.551  0.1791  0.0866  0.3837
  667MOL0     C91920   8.990   5.363   0.619  0.3182 -0.1001 -0.3750
  667MOL0     C91921   8.959   5.509   0.596 -0.6192 -0.4076  0.4405
  667MOL0     C91922   8.978   5.563   0.457  0.6853  0.1416 -0.1911
  667MOL0     C91923   8.923   5.704   0.447 -0.1507  0.4859 -0.2048
  667MOL0     C91924   8.949   5.768   0.311 -0.0857 -0.2722  0.1421
  667MOL0     N91925   8.874   5.897   0.299 -0.6935  1.2476 -0.0944
  667MOL0     C91926   8.742   5.931   0.266 -0.4032  0.1944 -0.1941
  667MOL0     C91927   8.739   6.062   0.278 -0.2592  0.0546  0.0768
  667MOL0     C91928   8.635   6.156   0.251  0.0707  0.7673  0.1488
  667MOL0     C91929   8.564   6.216   0.377  0.4286 -0.6260 -0.5778
  667MOL0     C91930   8.415   6.255   0.369  0.4601  1.4955 -0.6971
  667MOL0     C91931   8.375   6.347   0.256  0.4599 -0.1490  0.6704
  667MOL0     O91932   8.430   6.484   0.271 -1.2821 -0.1403 -0.3030
  667MOL0     C91933   8.448   6.544   0.147 -0.1460  0.5551 -0.1239
  667MOL0     C91934   8.344   6.631   0.107  0.5319  0.0090 -0.1642
  667MOL0     C91935   8.338   6.709  -0.008 -1.0428 -0.0076 -0.0973
  667MOL0     C91936   8.236   6.807  -0.030  0.0518  0.1266  0.3084
  667MOL0     C91937   8.450   6.700  -0.097 -0.7051 -0.2014  0.7230
  667MOL0     C91938   8.470   6.778  -0.224  0.5335 -0.6222  0.0877
  667MOL0     O91939   8.602   6.793  -0.253 -0.6278 -0.2087 -0.8093
  667MOL0     C91940   8.648   6.846  -0.369  0.1663 -1.2303 -0.7274
  667MOL0     C91941   8.720   6.781  -0.472 -0.0008  0.6214 -0.2093
  667MOL0     C91942   8.779   6.850  -0.569  0.4318 -0.2653 -0.3561
  667MOL0     C91943   8.754   6.980  -0.593 -0.5924  0.4343 -0.1049
  667MOL0     O91944   8.805   7.032  -0.709  0.5216  0.3620 -0.1082
  667MOL0     C91945   8.763   6.980  -0.834  0.0090 -0.5330 -0.3707
  667MOL0     C91946   8.615   7.031  -0.844 -0.2622 -0.0725 -0.1930
  667MOL0     C91947   8.518   6.917  -0.803  0.1716 -0.4049  0.1171
  667MOL0     C91948   8.394   6.991  -0.762 -1.0776 -0.1005 -0.0336
  667MOL0     C91949   8.327   7.051  -0.886 -0.2991 -0.1320  0.0311
  667MOL0     C91950   8.192   7.091  -0.843 -0.4164 -0.8907  1.0815
  667MOL0     C91951   8.135   7.196  -0.941  0.9785  0.1746 -0.9934
  667MOL0     C91952   7.987   7.227  -0.904  0.5046 -0.1937  0.0497
  667MOL0    Cl91953   7.915   7.346  -1.017 -0.0474 -0.6270  0.0357
  667MOL0     C91954   8.679   7.056  -0.504 -0.1017  0.1440  0.3421
  667MOL0     C91955   8.631   6.991  -0.387 -0.5220  0.0644  0.0383
  667MOL0     O91956   8.376   6.828  -0.289 -0.0421  0.5526  0.8339
  667MOL0     C91957   8.553   6.607  -0.054 -0.1069 -0.3296  0.3170
  667MOL0     C91958   8.559   6.536   0.062  0.6163 -0.2088  0.4919
  667MOL0     N91959   8.855   6.106   0.329 -0.3017 -0.5562  0.3970
  667MOL0     N91960   8.933   6.009   0.348 -0.6046 -0.0035 -0.0412
  667MOL0     C91961   9.598   5.173   0.397 -0.4722 -0.2658 -0.0819
  667MOL0     C91962   9.721   5.111   0.379  0.9698  0.3065  0.4154
  667MOL0     C91963  10.028   4.737   0.357 -0.7707  0.4807  0.7787
  667MOL0     C91964  10.118   4.836   0.314 -0.3199  0.1326  0.5960
  667MOL0     C91965  10.249   4.803   0.280  0.0984 -0.2055  1.0486
  667MOL0     C91966  10.295   4.679   0.289 -0.6559  0.4360  0.1478
  667MOL0     O91967  10.430   4.666   0.261 -1.1765 -0.6871 -0.2758
  667MOL0     C91968  10.487   4.541   0.224  0.4884  0.6150 -0.8906
  667MOL0     C91969  10.589   4.551   0.112  0.2326 -0.6217  0.4821
  667MOL0     C91970  10.732   4.533   0.160 -0.7061  0.2756  0.2841
  667MOL0     C91971  10.767   4.410   0.244 -0.3499 -0.2287 -0.2129
  667MOL0     C91972  10.918   4.399   0.266  0.3846  0.6376  0.4579
  667MOL0     C91973  11.042   4.373   0.286  0.4468  0.2925  0.9819
  667MOL0     C91974  10.212   4.578   0.323  0.8288  0.0023  0.0095
  667MOL0     C91975  10.075   4.602   0.353 -0.0724  0.6573  0.1681
  667MOL0     C91976   9.985   4.483   0.398 -0.2437  0.5328 -0.2600
  667MOL0     H91977   9.647   4.840   0.574  1.5951  0.3780  1.1211
  667MOL0     H91978   9.449   4.952   0.606 -2.4083  2.6190 -0.7539
  667MOL0     H91979   9.389   5.362   0.431 -0.3120  0.6238  0.4416
  667MOL0     H91980   9.460   5.352   0.585 -0.2764  0.9665 -0.5214
  667MOL0     H91981   9.255   5.353   0.706 -0.9081 -1.6509 -0.6698
  667MOL0     H91982   9.239   5.474   0.581  0.2357 -0.1398 -0.5449
  667MOL0     H91983   9.097   5.317   0.444  1.9425  0.8276  0.1158
  667MOL0     H91984   9.122   5.198   0.562 -0.8984 -0.2665 -1.8337
  667MOL0     H91985   8.912   5.303   0.570  0.3652  2.0186 -3.3045
  667MOL0     H91986   8.988   5.346   0.727  1.7306 -0.2230 -0.3425
  667MOL0     H91987   9.015   5.564   0.673 -2.7962  1.0354  1.0989
  667MOL0     H91988   8.858   5.540   0.624  0.3175  1.0830  2.4443
  667MOL0     H91989   9.086   5.567   0.447  0.9439  0.5440  2.1397
  667MOL0     H91990   8.935   5.502   0.377  3.0909 -0.5123 -1.0485
  667MOL0     H91991   8.972   5.760   0.527 -1.6767  0.7222  0.5962
  667MOL0     H91992   8.815   5.707   0.462 -0.3240  1.5689 -1.4823
  667MOL0     H91993   9.055   5.793   0.309 -0.2248  0.7540  2.2078
  667MOL0     H91994   8.914   5.708   0.227 -0.5520 -1.5379  1.1975
  667MOL0     H91995   8.656   5.871   0.239  0.0756  0.5155 -2.6424
  667MOL0     H91996   8.557   6.104   0.195 -0.9965 -0.8409  2.9506
  667MOL0     H91997   8.681   6.237   0.193  0.4491  0.7567  0.4364
  667MOL0     H91998   8.561   6.148   0.462 -0.2776  0.3057  0.1579
  667MOL0     H91999   8.602   6.314   0.409 -0.2934 -0.5099 -0.0725
  667MOL0     H92000   8.357   6.163   0.359  4.5896 -1.3714 -0.4483
  667MOL0     H92001   8.386   6.305   0.462 -4.6990  0.3224 -1.3488
  667MOL0     H92002   8.410   6.304   0.162 -2.2034 -2.2583  0.5161
  667MOL0     H92003   8.266   6.357   0.259  0.4397 -0.6223  2.4622
  667MOL0     H92004   8.261   6.639   0.176 -0.8680 -1.8631 -1.5188
  667MOL0     H92005   8.262   6.906  -0.071 -1.0160 -0.0032 -0.7439
  667MOL0     H92006   8.173   6.819   0.059  0.0842 -2.1967  0.6872
  667MOL0     H92007   8.173   6.767  -0.110  0.3780 -1.4514  0.8184
  667MOL0     H92008   8.713   6.673  -0.458 -1.4516  0.6265 -0.6937
  667MOL0     H92009   8.832   6.794  -0.646 -0.6380 -0.0610 -1.2778
  667MOL0     H92010   8.821   7.028  -0.913 -0.0474 -1.4361 -0.9753
  667MOL0     H92011   8.775   6.872  -0.840 -0.1236 -0.5308 -0.7142
  667MOL0     H92012   8.602   7.121  -0.784 -0.4365 -0.1872 -0.0605
  667MOL0     H92013   8.608   7.058  -0.950  1.3605  1.4053  0.0349
  667MOL0     H92014   8.555   6.861  -0.718 -2.3837  0.7059  2.1243
  667MOL0     H92015   8.495   6.844  -0.881 -0.7748  0.0341 -0.0318
  667MOL0     H92016   8.416   7.073  -0.693 -0.4907 -0.5760  0.3622
  667MOL0     H92017   8.328   6.911  -0.726 -2.9103  0.8938 -1.0584
  667MOL0     H92018   8.375   7.139  -0.927  0.3128 -1.0816 -1.3593
  667MOL0     H92019   8.320   6.966  -0.955 -3.6979 -3.0256  3.4311
  667MOL0     H92020   8.205   7.142  -0.747  1.4236  1.0281 -0.0894
  667MOL0     H92021   8.124   7.007  -0.826 -3.3546  0.9322 -0.8590
  667MOL0     H92022   8.137   7.166  -1.046  0.8171  0.1659 -0.9945
  667MOL0     H92023   8.195   7.288  -0.937 -0.4524  1.1334 -0.8157
  667MOL0     H92024   7.997   7.274  -0.806  0.4396  2.1860 -1.0235
  667MOL0     H92025   7.918   7.143  -0.887 -0.3272  0.5677  0.5397
  667MOL0     H92026   8.650   7.159  -0.524  1.3527  0.4316 -0.4852
  667MOL0     H92027   8.569   7.034  -0.310 -1.6344 -1.9568  0.3385
  667MOL0     H92028   8.629   6.592  -0.131 -2.1990 -1.1529 -1.7288
  667MOL0     H92029   8.645   6.473   0.083  0.2254 -0.3810  1.6015
  667MOL0     H92030   9.587   5.271   0.351  0.8798  0.7428  1.6486
  667MOL0     H92031   9.804   5.148   0.320 -1.7209 -0.1441 -4.0567
  667MOL0     H92032  10.090   4.941   0.318  0.6529  0.5637 -1.9877
  667MOL0     H92033  10.315   4.882   0.244  0.2201 -0.6199  0.3331
  667MOL0     H92034  10.530   4.506   0.318  0.5483  1.6073 -0.5424
  667MOL0     H92035  10.409   4.471   0.194 -0.4004 -0.3610  3.0786
  667MOL0     H92036  10.573   4.642   0.054  1.0205 -1.6038 -1.3623
  667MOL0     H92037  10.578   4.471   0.038  0.4778  0.5694 -0.8659
  667MOL0     H92038  10.802   4.532   0.076 -3.1772  0.6547 -1.8980
  667MOL0     H92039  10.752   4.626   0.215  0.8759  0.1344  0.0050
  667MOL0     H92040  10.736   4.320   0.190 -2.4269  0.1511  0.2732
  667MOL0     H92041  10.720   4.418   0.343  0.5613 -0.0397  0.2137
  667MOL0     H92042  11.143   4.352   0.315 -0.0360 -0.8818  1.9232
  667MOL0     H92043  10.258   4.484   0.350  1.4830 -0.0523 -1.2469
  667MOL0     H92044   9.952   4.477   0.502 -0.0701  0.3250 -0.2169
  667MOL0     H92045   9.898   4.468   0.334  0.2107  1.1133 -1.0344
  667MOL0     H92046  10.054   4.398   0.390  0.1986  0.8833 -0.2517
  668MOL0     O92047   2.414   7.035   7.342 -0.5344 -0.6809 -0.0729
  668MOL0     C92048   2.428   6.918   7.355 -0.1486  0.0958 -0.9715
  668MOL0     O92049   2.423   6.823   7.256  0.7203 -0.0157  0.8196
  668MOL0     C92050   2.435   6.868   7.125  0.4830 -0.3024 -0.3279
  668MOL0     C92051   2.546   6.946   7.086  0.8536  0.7153  0.2682
  668MOL0     C92052   2.569   6.978   6.951 -0.3510  0.4487  0.0253
  668MOL0     C92053   2.495   6.910   6.854  0.6609 -0.4799 -0.4674
  668MOL0     O92054   2.519   6.912   6.721  0.3890  0.4109  0.2084
  668MOL0     C92055   2.610   7.012   6.680 -0.2859 -0.8620  0.5697
  668MOL0     C92056   2.642   6.991   6.532  0.7088 -0.2368 -0.3474
  668MOL0     C92057   2.715   7.116   6.476  0.1208 -1.0838  0.0571
  668MOL0     C92058   2.868   7.133   6.509 -0.6358 -0.8635 -0.2983
  668MOL0     C92059   2.894   7.168   6.657 -0.4899  0.2283 -0.1998
  668MOL0     C92060   3.039   7.211   6.671  0.0521 -0.5318 -0.0026
  668MOL0     C92061   3.061   7.282   6.809  0.9884  0.2247  0.5825
  668MOL0     C92062   3.203   7.337   6.837  0.9487 -0.0383 -0.7756
  668MOL0     N92063   3.306   7.240   6.839  0.4045  0.8054 -1.4910
  668MOL0     C92064   3.283   7.116   6.900 -0.3127  0.0608  0.1375
  668MOL0     C92065   3.398   7.047   6.862  0.4440 -0.3678 -0.5742
  668MOL0     C92066   3.426   6.904   6.886 -0.8440 -0.1515  0.0127
  668MOL0     C92067   3.523   6.825   6.792 -1.1616 -0.0169 -0.4244
  668MOL0     C92068   3.672   6.854   6.825 -0.6456 -0.0820 -0.0260
  668MOL0     C92069   3.771   6.808   6.715  0.7386  0.6741 -0.6103
  668MOL0     O92070   3.897   6.877   6.735 -0.2310 -0.6601 -0.8916
  668MOL0     C92071   4.014   6.828   6.675  0.3969 -0.4818 -0.5142
  668MOL0     C92072   4.017   6.719   6.586 -0.7812 -0.5625 -0.3271
  668MOL0     C92073   4.137   6.643   6.553 -0.6711  0.5351 -0.5398
  668MOL0     C92074   4.123   6.514   6.479  0.2010  0.1694  0.2502
  668MOL0     C92075   4.257   6.694   6.596 -0.4043  0.1504  0.2917
  668MOL0     C92076   4.391   6.645   6.552 -0.5477  1.0536  0.6184
  668MOL0     O92077   4.491   6.639   6.654  0.2826  0.0612 -0.3030
  668MOL0     C92078   4.627   6.610   6.632  0.9052  0.6480  0.3812
  668MOL0     C92079   4.709   6.665   6.724  0.7507  0.2301 -0.3577
  668MOL0     C92080   4.842   6.656   6.701 -0.0912  0.3076  0.5323
  668MOL0     C92081   4.898   6.589   6.592 -0.0094  0.4315  0.1735
  668MOL0     O92082   5.029   6.549   6.566 -0.4680 -0.2753 -0.7208
  668MOL0     C92083   5.099   6.501   6.683 -0.1754  0.3261 -0.2254
  668MOL0     C92084   5.215   6.596   6.738 -0.1323  0.7385  0.0586
  668MOL0     C92085   5.252   6.547   6.874  0.2067  0.4961  0.9650
  668MOL0     C92086   5.369   6.617   6.931 -1.2299 -0.5758  0.4308
  668MOL0     C92087   5.334   6.755   6.981  0.5517 -0.0179 -0.1819
  668MOL0     C92088   5.451   6.856   6.983  0.0597 -0.2921 -1.4152
  668MOL0     C92089   5.572   6.813   7.069 -0.4868 -0.2263 -0.3095
  668MOL0     C92090   5.676   6.914   7.093 -0.4830 -0.4885 -0.4826
  668MOL0    Cl92091   5.811   6.919   6.972  0.2920 -0.1230 -0.2992
  668MOL0     C92092   4.812   6.535   6.496  0.8662 -0.3067  0.0283
  668MOL0     C92093   4.670   6.546   6.515 -0.2988  1.0534 -0.1549
  668MOL0     O92094   4.417   6.611   6.433  0.2041 -0.7848 -0.5462
  668MOL0     C92095   4.265   6.808   6.680 -0.6350  0.7162  0.1851
  668MOL0     C92096   4.143   6.870   6.720  0.4734  0.0959  0.3604
  668MOL0     N92097   3.478   7.125   6.773  0.1134 -0.1106 -0.0122
  668MOL0     N92098   3.415   7.243   6.765 -0.3246 -0.6333  0.2761
  668MOL0     C92099   2.388   6.836   6.890 -0.8414  0.8937  0.1934
  668MOL0     C92100   2.363   6.814   7.025  0.2393  0.0111 -0.1889
  668MOL0     C92101   2.449   6.878   7.499  0.1912 -0.0975 -0.1757
  668MOL0     C92102   2.556   6.936   7.568 -0.4395 -0.9983 -1.3138
  668MOL0     C92103   2.565   6.915   7.706  0.2786 -0.3186  0.1850
  668MOL0     C92104   2.479   6.832   7.773 -0.7343  0.2776 -0.3398
  668MOL0     O92105   2.491   6.815   7.914 -0.2235 -0.2168  0.5340
  668MOL0     C92106   2.396   6.753   8.003  0.1111 -0.2114 -0.6909
  668MOL0     C92107   2.282   6.833   8.069 -1.0645 -0.0404  0.5035
  668MOL0     C92108   2.334   6.976   8.102 -0.3551 -0.3675  0.2660
  668MOL0     C92109   2.434   6.984   8.229 -0.3069  0.1766 -0.1661
  668MOL0     C92110   2.387   6.933   8.356  0.7685  0.5327 -0.8917
  668MOL0     C92111   2.336   6.883   8.459  0.9311  0.1643 -0.5128
  668MOL0     C92112   2.373   6.776   7.704 -1.2568  0.0451 -0.3882
  668MOL0     C92113   2.357   6.801   7.570  0.6777  1.2640  0.0335
  668MOL0     C92114   2.237   6.751   7.494  1.2135 -0.1371 -0.0314
  668MOL0     H92115   2.595   6.972   7.179 -2.3609 -0.9376  2.6286
  668MOL0     H92116   2.661   7.032   6.934  0.2758 -1.0925 -1.8927
  668MOL0     H92117   2.703   7.000   6.737 -0.0671 -0.3306  0.3222
  668MOL0     H92118   2.572   7.113   6.697 -1.6014 -1.5587  2.1363
  668MOL0     H92119   2.705   6.906   6.506 -1.1877 -1.3295 -1.6512
  668MOL0     H92120   2.546   6.973   6.481 -0.1053  0.9986  0.6833
  668MOL0     H92121   2.701   7.100   6.369 -1.5456 -0.4162  0.1408
  668MOL0     H92122   2.665   7.205   6.515 -1.1985 -1.2311 -1.2249
  668MOL0     H92123   2.927   7.044   6.489 -0.4479 -1.1590  1.4376
  668MOL0     H92124   2.904   7.211   6.441 -0.0970 -1.2743 -0.4872
  668MOL0     H92125   2.872   7.088   6.727  1.0640 -2.1924 -2.2701
  668MOL0     H92126   2.847   7.264   6.677  3.2246  2.7338 -2.1932
  668MOL0     H92127   3.110   7.131   6.649 -0.7172 -0.4760 -3.3092
  668MOL0     H92128   3.062   7.296   6.605  0.1836 -1.9209 -1.8288
  668MOL0     H92129   3.019   7.226   6.893 -1.8836 -1.0439 -1.5151
  668MOL0     H92130   2.999   7.372   6.808 -0.9024 -1.0125  0.7768
  668MOL0     H92131   3.237   7.419   6.773  3.1616  1.1307  1.7257
  668MOL0     H92132   3.198   7.395   6.930 -1.3520  0.2856 -1.0341
  668MOL0     H92133   3.195   7.086   6.956  1.9737 -4.3971  1.8914
  668MOL0     H92134   3.336   6.843   6.888  0.7681 -2.7373 -0.5050
  668MOL0     H92135   3.466   6.905   6.987  1.1450  2.7001 -0.6743
  668MOL0     H92136   3.502   6.719   6.810 -0.8676  0.1958  1.3633
  668MOL0     H92137   3.509   6.850   6.686  0.1239  0.9488 -0.3918
  668MOL0     H92138   3.692   6.962   6.822  1.6829 -0.4329  0.7431
  668MOL0     H92139   3.695   6.812   6.923  1.5848  1.1706  0.0686
  668MOL0     H92140   3.767   6.699   6.728 -2.6751  1.0265  3.5843
  668MOL0     H92141   3.736   6.831   6.614  2.4646  3.2365 -0.7274
  668MOL0     H92142   3.925   6.674   6.549 -1.6495  0.1363  0.9323
  668MOL0     H92143   4.198   6.436   6.495  2.1506  2.3095  2.2978
  668MOL0     H92144   4.138   6.544   6.375  1.4115  0.5712  0.5314
  668MOL0     H92145   4.020   6.477   6.477 -0.5611  2.1564 -2.1453
  668MOL0     H92146   4.670   6.713   6.813 -1.8937 -0.6276 -0.9539
  668MOL0     H92147   4.911   6.689   6.777  1.1815  1.6546 -1.1226
  668MOL0     H92148   5.026   6.481   6.762  0.4223  2.7200  1.0349
  668MOL0     H92149   5.157   6.411   6.663  3.2413  2.3505 -0.2879
  668MOL0     H92150   5.300   6.586   6.671 -0.4824 -3.7428 -0.0264
  668MOL0     H92151   5.186   6.701   6.731 -1.0684  0.4435 -0.7982
  668MOL0     H92152   5.278   6.443   6.853  1.3413  1.3242 -2.5577
  668MOL0     H92153   5.158   6.548   6.930 -0.9286 -0.1265 -0.8163
  668MOL0     H92154   5.448   6.611   6.855 -3.4076  0.5740 -2.0857
  668MOL0     H92155   5.407   6.561   7.018  1.9267 -2.7104 -2.0836
  668MOL0     H92156   5.248   6.794   6.926 -0.4288  1.1290  2.0377
  668MOL0     H92157   5.288   6.741   7.079 -0.4756 -0.2753 -0.6850
  668MOL0     H92158   5.416   6.951   7.024  1.2498  0.9178 -3.0814
  668MOL0     H92159   5.486   6.872   6.881 -0.7407  0.8143 -1.5282
  668MOL0     H92160   5.606   6.721   7.022 -0.2269  0.6640 -1.9236
  668MOL0     H92161   5.531   6.796   7.169 -1.3548 -3.1657 -1.0515
  668MOL0     H92162   5.716   6.910   7.195  2.1952  1.3276 -1.3793
  668MOL0     H92163   5.618   7.007   7.087 -1.8198 -1.0629  2.0471
  668MOL0     H92164   4.850   6.487   6.406  0.2852 -0.7015 -0.0114
  668MOL0     H92165   4.607   6.483   6.453 -1.3403  1.2091  0.7187
  668MOL0     H92166   4.364   6.836   6.714 -1.2175  1.7569  1.0687
  668MOL0     H92167   4.161   6.954   6.786 -2.1177 -0.6511  2.2042
  668MOL0     H92168   2.334   6.791   6.807  0.6545  1.1302 -0.9532
  668MOL0     H92169   2.301   6.727   7.047  0.4226  0.4521  2.4613
  668MOL0     H92170   2.628   7.003   7.522 -1.4760 -0.1550 -1.7473
  668MOL0     H92171   2.654   6.958   7.751 -1.5511  1.2048  2.6166
  668MOL0     H92172   2.355   6.660   7.964  1.8350 -1.3041  0.0033
  668MOL0     H92173   2.460   6.730   8.088 -1.6327 -0.3084  0.6367
  668MOL0     H92174   2.244   6.769   8.150 -1.8977 -2.8875 -1.9473
  668MOL0     H92175   2.208   6.835   7.989 -1.7984  1.0633  1.1856
  668MOL0     H92176   2.392   7.012   8.016  1.6906 -2.2305  0.7773
  668MOL0     H92177   2.251   7.047   8.103  0.6426  0.8634 -0.5324
  668MOL0     H92178   2.460   7.091   8.228 -1.3513  0.4376 -0.7681
  668MOL0     H92179   2.515   6.919   8.196 -2.5185 -1.6587 -2.3648
  668MOL0     H92180   2.298   6.851   8.554  2.1033 -0.1931 -0.1475
  668MOL0     H92181   2.304   6.704   7.747  0.9605 -0.9475  1.7084
  668MOL0     H92182   2.266   6.694   7.405  2.1462  0.6803 -0.2707
  668MOL0     H92183   2.168   6.691   7.553 -0.3732  0.8170 -0.8500
  668MOL0     H92184   2.176   6.835   7.461  0.0082 -0.9074  0.1718
  669MOL0     O92185   3.674   9.804   6.718 -0.0543 -0.3691  0.1174
  669MOL0     C92186   3.691   9.924   6.706  0.3716 -0.2655 -0.6384
  669MOL0     O92187   3.651   9.991   6.597  0.8236 -0.2418 -0.7482
  669MOL0     C92188   3.604   9.912   6.493  0.3250 -0.2310 -1.3632
  669MOL0     C92189   3.489   9.836   6.509  0.7908  0.4653 -0.6263
  669MOL0     C92190   3.433   9.777   6.405 -0.7868  1.2215  0.1706
  669MOL0     C92191   3.486   9.800   6.271 -0.2721  0.7573 -0.9765
  669MOL0     O92192   3.423   9.736   6.163  0.1416 -0.2005  0.0727
  669MOL0     C92193   3.465   9.779   6.038  0.1496  0.5169  0.4637
  669MOL0     C92194   3.405   9.662   5.952  0.5943 -1.0464 -0.3176
  669MOL0     C92195   3.462   9.527   5.991 -0.1092  0.5267 -0.0535
  669MOL0     C92196   3.420   9.414   5.885 -1.0294 -0.4853 -0.2236
  669MOL0     C92197   3.428   9.271   5.939 -0.1918  0.9241 -0.5755
  669MOL0     C92198   3.566   9.211   5.974  0.1713 -1.5741  1.3186
  669MOL0     C92199   3.549   9.061   6.004 -0.8015  0.6771 -0.5170
  669MOL0     C92200   3.680   8.992   6.049 -0.8355  0.5266 -0.7290
  669MOL0     N92201   3.808   9.049   6.004  0.7066 -0.6281  0.2831
  669MOL0     C92202   3.890   9.130   6.078 -0.4331  0.0910 -0.0497
  669MOL0     C92203   4.013   9.112   6.014  0.0653  1.7747  0.0655
  669MOL0     C92204   4.151   9.172   6.046  0.1090 -0.9218  0.3721
  669MOL0     C92205   4.248   9.072   6.111  0.7844  0.4061  0.1453
  669MOL0     C92206   4.347   9.145   6.205  0.4409 -0.0588 -0.0962
  669MOL0     C92207   4.459   9.225   6.138  0.0029 -0.1539  0.4085
  669MOL0     O92208   4.515   9.134   6.043  0.6400  0.2589 -0.1378
  669MOL0     C92209   4.613   9.191   5.961 -0.4261 -0.1382  0.0723
  669MOL0     C92210   4.614   9.153   5.831 -0.5714  0.0627  0.3007
  669MOL0     C92211   4.689   9.218   5.736 -0.1423 -0.6432  0.0298
  669MOL0     C92212   4.685   9.169   5.590 -0.3135  1.0234  0.1342
  669MOL0     C92213   4.773   9.324   5.768 -0.1881  0.8633  0.4263
  669MOL0     C92214   4.857   9.401   5.672  1.4865  0.4189  0.6988
  669MOL0     O92215   4.855   9.544   5.692 -0.1086  0.5054 -0.6967
  669MOL0     C92216   4.961   9.615   5.648  0.2378 -0.2164 -0.1148
  669MOL0     C92217   5.025   9.600   5.529 -0.1667  0.4447 -0.5266
  669MOL0     C92218   5.147   9.669   5.505 -0.3149  1.1526 -0.2536
  669MOL0     C92219   5.207   9.755   5.596 -0.6950 -0.2461 -0.6118
  669MOL0     O92220   5.321   9.831   5.577  0.6043 -0.3936  0.2707
  669MOL0     C92221   5.384   9.843   5.453  0.1646  0.7912 -0.2284
  669MOL0     C92222   5.467   9.720   5.429 -0.7695 -0.5875 -0.1391
  669MOL0     C92223   5.584   9.738   5.333  0.9397 -0.4447 -0.1418
  669MOL0     C92224   5.548   9.770   5.189  0.4773 -0.1862 -0.3130
  669MOL0     C92225   5.666   9.733   5.091  0.3054 -0.4099 -0.3885
  669MOL0     C92226   5.647   9.787   4.957  0.3970 -0.6192  0.0380
  669MOL0     C92227   5.775   9.777   4.871 -0.4313  0.7553 -0.4612
  669MOL0     C92228   5.749   9.838   4.744  0.3223  0.3354 -0.9637
  669MOL0    Cl92229   5.897   9.850   4.640  0.3836 -0.1555 -0.5138
  669MOL0     C92230   5.137   9.779   5.711 -0.4592  0.3357 -0.4280
  669MOL0     C92231   5.018   9.706   5.747  0.5318 -0.1306  0.5221
  669MOL0     O92232   4.930   9.344   5.590  0.4370  0.5329 -0.0272
  669MOL0     C92233   4.778   9.362   5.902 -0.2027 -0.4567 -0.7160
  669MOL0     C92234   4.696   9.297   6.001 -0.0360  0.2756  0.5234
  669MOL0     N92235   3.997   9.028   5.903 -0.1357 -0.5200 -0.2534
  669MOL0     N92236   3.872   8.991   5.905 -0.0862 -0.4991 -0.2741
  669MOL0     C92237   3.600   9.886   6.259 -0.6561  0.3410  0.6522
  669MOL0     C92238   3.663   9.935   6.376  0.0291  0.1695  0.5122
  669MOL0     C92239   3.765   9.992   6.816  0.5023 -0.2567  0.2499
  669MOL0     C92240   3.770   9.930   6.942  0.4343  0.6623  0.5693
  669MOL0     C92241   3.825   9.993   7.054  0.0021  0.2675  0.5229
  669MOL0     C92242   3.872  10.122   7.051 -0.4348  0.0034  0.6654
  669MOL0     O92243   3.918  10.186   7.159 -0.2627  0.4863 -0.7144
  669MOL0     C92244   4.013  10.300   7.145  0.8204  0.2879  0.1937
  669MOL0     C92245   4.044  10.329   7.290  0.1783  0.9558 -0.5740
  669MOL0     C92246   3.929  10.415   7.361 -0.6371  0.5271 -0.5326
  669MOL0     C92247   3.976  10.429   7.500  0.3940  0.3006  0.3317
  669MOL0     C92248   4.083  10.531   7.512 -0.4190 -0.4942 -0.2694
  669MOL0     C92249   4.150  10.630   7.539  0.3077  0.5071 -0.0394
  669MOL0     C92250   3.864  10.182   6.926 -0.1076  0.2648  0.2314
  669MOL0     C92251   3.824  10.123   6.806  1.1579  0.1721  0.4769
  669MOL0     C92252   3.815  10.202   6.682 -0.4904 -1.1700 -0.0354
  669MOL0     H92253   3.436   9.826   6.603 -0.1023 -0.2972 -1.1910
  669MOL0     H92254   3.354   9.704   6.414  1.0875 -0.8923  0.3605
  669MOL0     H92255   3.571   9.775   6.010 -0.5826 -1.7148 -2.5161
  669MOL0     H92256   3.419   9.872   6.005 -2.6393 -0.8924  0.1027
  669MOL0     H92257   3.295   9.662   5.957  0.6220 -2.7953  1.7859
  669MOL0     H92258   3.438   9.677   5.849  1.4835 -0.6604  0.0200
  669MOL0     H92259   3.570   9.535   6.003  0.0206 -1.3667  0.3226
  669MOL0     H92260   3.424   9.490   6.087  0.5744 -3.6175 -1.1854
  669MOL0     H92261   3.314   9.425   5.862 -0.7240  1.4787 -0.8860
  669MOL0     H92262   3.485   9.419   5.798 -0.4836 -1.1792  0.1299
  669MOL0     H92263   3.390   9.214   5.853  3.1106  2.3356 -3.1799
  669MOL0     H92264   3.365   9.257   6.028 -0.3867 -1.7330 -1.0336
  669MOL0     H92265   3.626   9.235   5.886 -0.3727 -0.0461  1.3435
  669MOL0     H92266   3.599   9.257   6.068 -1.0166  0.1407  0.9427
  669MOL0     H92267   3.508   9.009   5.917 -0.2120 -0.0527 -0.3644
  669MOL0     H92268   3.473   9.045   6.081 -1.6466  3.2119 -0.7167
  669MOL0     H92269   3.687   8.975   6.157 -0.5586 -0.9015 -0.9433
  669MOL0     H92270   3.665   8.887   6.023 -1.1896  0.1288  0.9643
  669MOL0     H92271   3.863   9.191   6.164  0.7697 -1.2912  1.4019
  669MOL0     H92272   4.134   9.253   6.117  0.3153  0.7783 -1.4483
  669MOL0     H92273   4.193   9.205   5.950  1.6843 -0.5401  1.1573
  669MOL0     H92274   4.196   8.986   6.154  2.1847  0.3168  1.7679
  669MOL0     H92275   4.300   9.027   6.026  1.5487  2.5689 -0.5949
  669MOL0     H92276   4.284   9.208   6.269 -0.6730 -1.2971  0.0822
  669MOL0     H92277   4.398   9.066   6.261  3.3866  1.2089 -0.8201
  669MOL0     H92278   4.412   9.318   6.106 -0.1134  0.4280  2.1432
  669MOL0     H92279   4.537   9.253   6.210  1.6327 -0.4647 -1.1465
  669MOL0     H92280   4.538   9.084   5.797  1.3311 -2.1739  0.3418
  669MOL0     H92281   4.617   9.084   5.581  1.3788 -0.3406 -0.2473
  669MOL0     H92282   4.779   9.124   5.556 -1.6478 -1.0565 -1.0576
  669MOL0     H92283   4.660   9.249   5.519  1.0836 -0.2267 -1.8472
  669MOL0     H92284   4.989   9.535   5.450  2.3997 -3.9636  1.5605
  669MOL0     H92285   5.187   9.689   5.406 -1.2125  6.1466  0.1086
  669MOL0     H92286   5.311   9.852   5.372  1.8852  0.3760 -1.8957
  669MOL0     H92287   5.436   9.940   5.453 -0.0995  0.9580 -1.7678
  669MOL0     H92288   5.510   9.693   5.527 -1.2145  0.1474  0.2652
  669MOL0     H92289   5.403   9.637   5.399 -1.8994  0.0651  0.3942
  669MOL0     H92290   5.631   9.641   5.317 -0.3125 -0.6783 -3.0958
  669MOL0     H92291   5.657   9.814   5.362  2.0893 -0.7390 -2.1317
  669MOL0     H92292   5.529   9.877   5.176 -1.7536 -0.5751 -0.6205
  669MOL0     H92293   5.452   9.723   5.169  0.1580  0.9460 -1.6697
  669MOL0     H92294   5.754   9.775   5.140 -1.2238  0.9990  1.2930
  669MOL0     H92295   5.687   9.626   5.086 -1.1743 -0.7672  0.5141
  669MOL0     H92296   5.621   9.893   4.967  1.5562 -0.3737  0.6016
  669MOL0     H92297   5.562   9.729   4.921 -0.9868  1.0289  0.4918
  669MOL0     H92298   5.809   9.673   4.867 -0.8091  0.5330  1.1260
  669MOL0     H92299   5.857   9.837   4.911  2.2502 -2.2640 -1.0053
  669MOL0     H92300   5.708   9.937   4.763  1.2860  0.4759  0.5162
  669MOL0     H92301   5.670   9.783   4.691  1.1299 -1.5987 -0.2774
  669MOL0     H92302   5.159   9.863   5.777  0.4757  0.7775 -1.2702
  669MOL0     H92303   4.958   9.722   5.836  0.2374 -2.5245  0.8118
  669MOL0     H92304   4.839   9.446   5.933 -0.4076  0.3531 -2.3848
  669MOL0     H92305   4.694   9.307   6.109 -2.2048 -0.7096  0.6221
  669MOL0     H92306   3.639   9.905   6.160 -3.1291  0.4399 -0.3868
  669MOL0     H92307   3.758   9.987   6.372  1.5471 -2.5043 -0.9781
  669MOL0     H92308   3.745   9.825   6.949  0.1320  0.7632  1.0775
  669MOL0     H92309   3.829   9.940   7.149  0.6510  1.1331  0.9902
  669MOL0     H92310   4.095  10.267   7.081 -1.2015 -1.6504 -1.6005
  669MOL0     H92311   3.972  10.394   7.107 -0.5874 -0.8297 -1.2059
  669MOL0     H92312   4.134  10.389   7.276 -0.9100  2.3439 -2.1816
  669MOL0     H92313   4.062  10.236   7.343 -3.4459  2.4408  3.8567
  669MOL0     H92314   3.911  10.518   7.330 -2.6826  0.5024  0.3340
  669MOL0     H92315   3.829  10.371   7.353 -0.6962  0.3911  0.6766
  669MOL0     H92316   4.014  10.332   7.533  0.6926  0.0715 -0.6574
  669MOL0     H92317   3.890  10.462   7.560 -0.3881 -2.2630  0.7343
  669MOL0     H92318   4.188  10.727   7.563 -1.1693  0.7609  1.4397
  669MOL0     H92319   3.904  10.283   6.918  3.1707 -0.9124  0.3889
  669MOL0     H92320   3.886  10.285   6.695 -2.6597  0.4820  2.4226
  669MOL0     H92321   3.848  10.152   6.591  2.9670 -0.5133  0.7216
  669MOL0     H92322   3.720  10.251   6.660  1.2748  2.1752 -0.9430
  670MOL0     O92323   2.822   1.903   3.515  0.7347  0.7913  0.3737
  670MOL0     C92324   2.859   1.896   3.402  0.3810 -0.1667 -0.2769
  670MOL0     O92325   2.959   1.962   3.347 -0.1175  0.1049  0.4038
  670MOL0     C92326   3.041   2.045   3.422  1.2447 -0.2483  0.0273
  670MOL0     C92327   3.168   2.008   3.470 -0.0789  0.7729  0.8093
  670MOL0     C92328   3.250   2.084   3.550  0.6680 -0.0855 -0.8243
  670MOL0     C92329   3.206   2.209   3.591 -0.1847  0.5201  0.1509
  670MOL0     O92330   3.294   2.279   3.669  0.6960  0.1423 -0.5339
  670MOL0     C92331   3.283   2.421   3.651  0.3112 -0.2766  0.2757
  670MOL0     C92332   3.351   2.481   3.525  0.2932 -0.6910  0.6103
  670MOL0     C92333   3.316   2.635   3.511  0.2791 -0.5672  0.2327
  670MOL0     C92334   3.363   2.727   3.630  0.9290  0.2070  0.3845
  670MOL0     C92335   3.337   2.878   3.624 -0.0988  0.7743  0.0266
  670MOL0     C92336   3.343   2.955   3.755  0.4841  0.2610  1.2883
  670MOL0     C92337   3.393   3.097   3.767  1.0165  0.1305  0.5536
  670MOL0     C92338   3.545   3.119   3.744 -0.3827  0.5435 -0.3451
  670MOL0     N92339   3.621   3.073   3.865 -0.0055  0.5130  0.2289
  670MOL0     C92340   3.680   3.160   3.957  0.0912 -0.2963 -0.5850
  670MOL0     C92341   3.730   3.083   4.055 -0.0940  0.6468  0.1666
  670MOL0     C92342   3.824   3.128   4.164  0.2175  0.7722 -0.8793
  670MOL0     C92343   3.970   3.136   4.113  0.1984  0.7711 -0.3156
  670MOL0     C92344   4.064   3.172   4.232  0.2203 -0.3306  0.6549
  670MOL0     C92345   4.200   3.199   4.184 -0.1014 -0.0441  0.6919
  670MOL0     O92346   4.232   3.339   4.178 -0.1230 -0.3440  0.3602
  670MOL0     C92347   4.350   3.378   4.119 -0.0301 -0.3720 -0.2379
  670MOL0     C92348   4.446   3.298   4.072 -0.1411  0.6666 -0.0128
  670MOL0     C92349   4.572   3.339   4.030 -0.3786  0.2969  0.5249
  670MOL0     C92350   4.675   3.217   4.004  0.1386 -0.0873 -0.2824
  670MOL0     C92351   4.602   3.476   4.026 -0.1708  0.3883 -0.0161
  670MOL0     C92352   4.734   3.539   3.989  0.4109 -0.2324  0.5855
  670MOL0     O92353   4.759   3.678   4.022 -0.1963 -0.3229  0.0716
  670MOL0     C92354   4.885   3.722   4.015 -1.1145 -0.1820 -0.9818
  670MOL0     C92355   4.913   3.840   3.950 -0.2022 -0.3116 -0.1268
  670MOL0     C92356   5.048   3.882   3.936  0.0680  0.2143  0.1808
  670MOL0     C92357   5.154   3.807   3.986  0.7709 -0.0586 -0.7591
  670MOL0     O92358   5.279   3.838   3.965 -0.1787 -1.2340  0.0884
  670MOL0     C92359   5.318   3.947   3.887  0.2890  0.1698  0.4513
  670MOL0     C92360   5.298   4.075   3.974 -0.2661 -0.0377 -0.3653
  670MOL0     C92361   5.424   4.107   4.066  0.5950 -0.1131 -0.6219
  670MOL0     C92362   5.378   4.200   4.184 -0.3997 -0.0998  0.3720
  670MOL0     C92363   5.352   4.341   4.126 -0.2311 -0.1828 -0.4218
  670MOL0     C92364   5.387   4.447   4.238 -0.1684 -0.8131 -0.9140
  670MOL0     C92365   5.328   4.433   4.372  0.2321  0.0957  0.5175
  670MOL0     C92366   5.177   4.417   4.373  0.2521  0.2949 -0.1643
  670MOL0    Cl92367   5.097   4.458   4.529  0.3676  0.1783  0.1458
  670MOL0     C92368   5.122   3.689   4.050 -0.5884  0.4956 -0.8336
  670MOL0     C92369   4.989   3.646   4.060  0.2414 -0.2053  0.2530
  670MOL0     O92370   4.797   3.472   3.913  0.8263 -0.1613 -0.0598
  670MOL0     C92371   4.509   3.569   4.076  1.0541  0.6018  0.6854
  670MOL0     C92372   4.388   3.514   4.120  0.1169  0.0732 -0.1778
  670MOL0     N92373   3.710   2.954   4.021  1.1681 -0.5849 -0.6075
  670MOL0     N92374   3.644   2.946   3.907  0.7723  0.1330 -0.3110
  670MOL0     C92375   3.086   2.254   3.530  0.1663 -0.1656 -0.4841
  670MOL0     C92376   2.989   2.178   3.458  0.3400  0.2319 -0.3852
  670MOL0     C92377   2.797   1.797   3.315  0.6365  0.0998 -0.3761
  670MOL0     C92378   2.656   1.785   3.306  1.1663  0.2973 -0.7704
  670MOL0     C92379   2.585   1.690   3.234 -0.6246  0.8563  1.0973
  670MOL0     C92380   2.669   1.595   3.168 -0.4269  0.4941 -0.6924
  670MOL0     O92381   2.622   1.496   3.082  0.3649 -0.2118 -0.1581
  670MOL0     C92382   2.484   1.505   3.041 -1.2641 -0.2771 -0.3101
  670MOL0     C92383   2.445   1.396   2.942 -0.4969  0.0715 -1.3802
  670MOL0     C92384   2.495   1.416   2.798 -1.0623 -0.2872  0.2507
  670MOL0     C92385   2.419   1.348   2.684 -0.6166  0.8955 -1.1484
  670MOL0     C92386   2.460   1.208   2.670  0.3121  0.7141  0.0718
  670MOL0     C92387   2.514   1.096   2.655 -0.1315  0.4893 -0.5101
  670MOL0     C92388   2.809   1.597   3.178  0.7238  0.0883  0.6468
  670MOL0     C92389   2.876   1.702   3.247 -0.0156 -0.9217  0.1608
  670MOL0     C92390   3.026   1.705   3.241 -0.2357  0.1396  0.2342
  670MOL0     H92391   3.197   1.906   3.446  0.8342  0.9858  0.9930
  670MOL0     H92392   3.344   2.041   3.584 -0.2124 -0.3601  1.4816
  670MOL0     H92393   3.330   2.473   3.735 -3.2522 -1.3540  3.2359
  670MOL0     H92394   3.184   2.462   3.668  0.9090  1.6934 -0.7065
  670MOL0     H92395   3.459   2.469   3.521  0.5235  0.9603  1.1371
  670MOL0     H92396   3.294   2.425   3.451  2.6766 -1.5875 -0.6478
  670MOL0     H92397   3.362   2.687   3.427 -2.1325 -0.3938 -1.0511
  670MOL0     H92398   3.207   2.640   3.505  0.1274 -1.2488  1.7950
  670MOL0     H92399   3.309   2.680   3.712 -1.5837 -2.2852 -2.4641
  670MOL0     H92400   3.472   2.714   3.634  1.4155  1.6239 -3.3754
  670MOL0     H92401   3.236   2.897   3.587 -1.2996 -2.1242  1.4902
  670MOL0     H92402   3.399   2.917   3.542 -0.1756  0.7513 -0.0429
  670MOL0     H92403   3.242   2.953   3.797  0.6783 -2.9212  1.8267
  670MOL0     H92404   3.417   2.898   3.813  2.6108  1.5220 -0.0495
  670MOL0     H92405   3.364   3.128   3.867 -2.2766 -1.1971  0.1397
  670MOL0     H92406   3.347   3.166   3.696  0.9325 -0.1930  0.2846
  670MOL0     H92407   3.582   3.073   3.652  1.5935 -0.7740  1.0270
  670MOL0     H92408   3.558   3.226   3.724 -0.6455  0.4996 -0.7813
  670MOL0     H92409   3.687   3.268   3.959 -2.6370 -0.0781 -0.1109
  670MOL0     H92410   3.822   3.057   4.247  1.3004  1.8062  0.0828
  670MOL0     H92411   3.790   3.227   4.196 -0.8940  0.6808 -1.7284
  670MOL0     H92412   3.994   3.038   4.070 -1.1434 -0.7523  2.2000
  670MOL0     H92413   3.981   3.206   4.029  0.9601  0.0560 -0.8387
  670MOL0     H92414   4.031   3.260   4.287  0.1400  0.0279  0.0416
  670MOL0     H92415   4.062   3.099   4.313  1.8697  0.8061  1.8014
  670MOL0     H92416   4.268   3.147   4.252 -0.5483  0.2332  1.3622
  670MOL0     H92417   4.211   3.166   4.080 -0.1995 -1.9026  1.2399
  670MOL0     H92418   4.429   3.192   4.063 -0.8246  0.8817 -1.7889
  670MOL0     H92419   4.681   3.194   3.897 -2.5382 -4.0881  0.2138
  670MOL0     H92420   4.633   3.124   4.044 -2.6797  1.5044  0.7304
  670MOL0     H92421   4.776   3.225   4.045  0.3976 -0.0780 -0.9018
  670MOL0     H92422   4.821   3.883   3.910  0.6437  4.7980  2.5963
  670MOL0     H92423   5.064   3.973   3.878 -1.1810  0.5238  0.3005
  670MOL0     H92424   5.424   3.936   3.859 -0.2143  0.0601 -1.5254
  670MOL0     H92425   5.264   3.953   3.792  1.7002  0.7650 -0.3506
  670MOL0     H92426   5.265   4.160   3.913 -0.7014 -0.1373 -0.2766
  670MOL0     H92427   5.216   4.059   4.045 -0.4868  2.7131  0.1129
  670MOL0     H92428   5.509   4.156   4.018  0.5136 -1.2758 -2.0090
  670MOL0     H92429   5.461   4.013   4.107 -0.8803  0.2233  1.6811
  670MOL0     H92430   5.465   4.212   4.249 -0.8817 -0.1193  1.0316
  670MOL0     H92431   5.294   4.166   4.244 -2.1219  0.8719 -1.3891
  670MOL0     H92432   5.419   4.365   4.043 -0.1890  1.1354 -0.0301
  670MOL0     H92433   5.245   4.333   4.103 -0.1794 -3.3461  0.0126
  670MOL0     H92434   5.378   4.549   4.199 -0.3862  0.0047  1.1597
  670MOL0     H92435   5.493   4.445   4.265 -0.7150  0.7499  1.7175
  670MOL0     H92436   5.362   4.517   4.434  0.4436  0.3542  0.0543
  670MOL0     H92437   5.363   4.343   4.424  2.5479  1.0683  0.7628
  670MOL0     H92438   5.147   4.316   4.345 -0.2467  0.2028  0.6569
  670MOL0     H92439   5.126   4.472   4.293  0.7534 -1.7914 -1.9965
  670MOL0     H92440   5.207   3.640   4.096 -1.2123 -1.1284 -1.3403
  670MOL0     H92441   4.958   3.565   4.126 -1.1830 -1.0678 -1.4124
  670MOL0     H92442   4.529   3.675   4.090  3.8462  0.1236  0.8851
  670MOL0     H92443   4.320   3.587   4.161  1.9142  1.1571  0.9795
  670MOL0     H92444   3.053   2.355   3.551 -0.8537 -0.4162 -0.8241
  670MOL0     H92445   2.890   2.219   3.440  0.1649  0.6256  1.3857
  670MOL0     H92446   2.601   1.860   3.362 -0.9842 -0.5550 -1.6291
  670MOL0     H92447   2.477   1.687   3.226 -0.5998  2.1809 -0.2227
  670MOL0     H92448   2.426   1.497   3.133 -0.8326  1.4831  0.1500
  670MOL0     H92449   2.476   1.605   2.997  2.9494  1.0230  1.3087
  670MOL0     H92450   2.337   1.383   2.940 -0.5054 -0.1374 -0.2417
  670MOL0     H92451   2.485   1.298   2.970  0.5147  0.4805 -1.3337
  670MOL0     H92452   2.497   1.523   2.773 -2.5633 -0.0215  1.1451
  670MOL0     H92453   2.600   1.385   2.798 -0.9741 -0.0391 -1.0278
  670MOL0     H92454   2.454   1.392   2.590  1.1827  0.0575 -0.9147
  670MOL0     H92455   2.313   1.371   2.695 -0.6202  1.9638 -2.9214
  670MOL0     H92456   2.564   1.004   2.630 -0.2342  0.6174 -1.2326
  670MOL0     H92457   2.859   1.522   3.118 -0.7155 -1.1864  0.9846
  670MOL0     H92458   3.063   1.608   3.207 -0.2918 -1.1167  3.4805
  670MOL0     H92459   3.058   1.780   3.168 -2.6671  0.6490 -0.4126
  670MOL0     H92460   3.052   1.722   3.345 -1.3042 -1.8044  0.8673
  671MOL0     O92461   6.440   7.854   4.303 -0.7455  0.0243  0.4437
  671MOL0     C92462   6.519   7.948   4.307  0.0120 -0.3146  0.6542
  671MOL0     O92463   6.494   8.071   4.243 -0.3875  0.7198  0.5453
  671MOL0     C92464   6.377   8.092   4.179  0.3946  0.2366  0.2114
  671MOL0     C92465   6.351   8.028   4.059  0.7833  0.5649  0.0070
  671MOL0     C92466   6.229   8.059   3.989  0.5122 -0.2265 -0.9874
  671MOL0     C92467   6.134   8.148   4.048 -0.3343 -0.4557  1.0878
  671MOL0     O92468   6.014   8.168   3.987 -0.3541 -0.2290  0.7426
  671MOL0     C92469   5.897   8.140   4.055 -0.4296 -0.0658 -0.4892
  671MOL0     C92470   5.783   8.144   3.956  0.5910 -0.5240  0.0025
  671MOL0     C92471   5.770   8.029   3.845  0.3315  0.0033 -0.1324
  671MOL0     C92472   5.736   7.895   3.912 -0.1028 -0.0694 -0.6016
  671MOL0     C92473   5.724   7.781   3.811  0.6692 -0.2489  0.2310
  671MOL0     C92474   5.592   7.785   3.732 -1.3774 -0.6124 -0.1180
  671MOL0     C92475   5.574   7.657   3.647 -0.5297 -0.2717  0.3727
  671MOL0     C92476   5.441   7.661   3.576  0.1406 -1.1981 -0.1128
  671MOL0     N92477   5.417   7.552   3.477  1.5138 -0.5727 -0.6639
  671MOL0     C92478   5.435   7.554   3.342  0.4822  0.6195 -0.2594
  671MOL0     C92479   5.387   7.433   3.294  0.1479 -0.2897 -0.1748
  671MOL0     C92480   5.417   7.378   3.161  0.5852  0.7318 -0.4872
  671MOL0     C92481   5.298   7.369   3.069 -0.2156 -0.1903 -0.3613
  671MOL0     C92482   5.335   7.284   2.949 -0.7800 -0.6783 -0.6037
  671MOL0     C92483   5.200   7.241   2.891  0.1387  0.1167  0.5183
  671MOL0     O92484   5.098   7.348   2.877  0.4875 -0.0222  0.7004
  671MOL0     C92485   5.122   7.447   2.799  0.3912  0.4261 -0.3486
  671MOL0     C92486   5.035   7.558   2.815  0.4799 -0.5934 -0.5749
  671MOL0     C92487   5.060   7.688   2.754  0.5015  0.0513  0.2380
  671MOL0     C92488   4.970   7.803   2.787  0.6619  0.5076  0.6004
  671MOL0     C92489   5.157   7.689   2.651 -0.2696 -0.1795  0.2825
  671MOL0     C92490   5.209   7.817   2.584 -0.2331 -0.2565 -0.0798
  671MOL0     O92491   5.289   7.807   2.477  0.5399 -0.0357  0.8791
  671MOL0     C92492   5.352   7.914   2.432  0.0307  0.4751 -0.1917
  671MOL0     C92493   5.315   7.956   2.306  0.0415 -0.0709  0.0145
  671MOL0     C92494   5.377   8.063   2.241  0.4628  0.2664  0.0087
  671MOL0     C92495   5.455   8.160   2.317  0.0372  0.7776 -0.7929
  671MOL0     O92496   5.479   8.283   2.264  0.3888  0.1711  0.3628
  671MOL0     C92497   5.521   8.385   2.355 -0.0892 -1.0476 -0.0004
  671MOL0     C92498   5.524   8.526   2.286 -0.1653 -0.2188  0.0287
  671MOL0     C92499   5.629   8.524   2.172 -0.4302 -0.8556  0.2164
  671MOL0     C92500   5.662   8.666   2.127  0.1868 -0.7340  0.6708
  671MOL0     C92501   5.736   8.670   2.003 -0.6051  0.0380  0.1772
  671MOL0     C92502   5.764   8.807   1.940 -0.6104 -0.9624 -0.8661
  671MOL0     C92503   5.840   8.906   2.040  0.4361  0.1377 -0.0657
  671MOL0     C92504   5.923   9.012   1.963  0.6223  1.2842  0.2816
  671MOL0    Cl92505   6.053   8.931   1.858  0.5289  0.1056 -0.2286
  671MOL0     C92506   5.486   8.122   2.453 -0.6079 -0.2552  0.2534
  671MOL0     C92507   5.440   7.996   2.513 -0.7933 -1.1005  0.2046
  671MOL0     O92508   5.169   7.925   2.631 -0.8400 -0.3100  0.3021
  671MOL0     C92509   5.222   7.570   2.621  0.4808 -0.3067  0.4844
  671MOL0     C92510   5.207   7.456   2.698 -1.2968 -0.1682 -0.0107
  671MOL0     N92511   5.335   7.366   3.404  0.1503 -0.0775 -0.0979
  671MOL0     N92512   5.356   7.432   3.508 -0.5982 -1.2340  0.1668
  671MOL0     C92513   6.172   8.231   4.153 -0.2102  0.0467  0.0961
  671MOL0     C92514   6.290   8.199   4.222 -0.6294  0.6237  0.1918
  671MOL0     C92515   6.648   7.931   4.372 -0.5654 -0.0165  1.2691
  671MOL0     C92516   6.751   8.019   4.336  0.1480  0.5685  0.4560
  671MOL0     C92517   6.876   8.015   4.398 -0.2801 -0.2693  0.1568
  671MOL0     C92518   6.909   7.919   4.490  0.3522  0.1810  0.1045
  671MOL0     O92519   7.042   7.916   4.528 -0.0233 -0.6418  0.5722
  671MOL0     C92520   7.091   7.813   4.612 -0.5537 -0.6619 -0.5911
  671MOL0     C92521   7.104   7.676   4.540  0.1380 -0.1124 -0.1661
  671MOL0     C92522   7.137   7.668   4.383 -0.3350 -0.6574 -0.4993
  671MOL0     C92523   7.135   7.531   4.341 -0.2095 -0.2836  0.9953
  671MOL0     C92524   7.204   7.498   4.220  0.5391 -0.8779  0.6525
  671MOL0     C92525   7.262   7.474   4.114  0.5845  0.0265  0.0587
  671MOL0     C92526   6.798   7.834   4.540 -0.2828  0.0355  0.8568
  671MOL0     C92527   6.668   7.844   4.481 -0.2123 -0.7800 -0.4104
  671MOL0     C92528   6.575   7.732   4.520 -0.5433  0.3618 -1.2775
  671MOL0     H92529   6.410   7.951   4.012 -0.0984  0.6498 -1.2839
  671MOL0     H92530   6.199   7.996   3.906  3.2169 -0.8158 -1.6184
  671MOL0     H92531   5.886   8.219   4.129 -1.2158  1.5369 -2.2510
  671MOL0     H92532   5.912   8.041   4.099 -1.9316 -0.1472 -0.1158
  671MOL0     H92533   5.688   8.141   4.009  1.7183  2.3246  2.5475
  671MOL0     H92534   5.782   8.238   3.899  0.1769  1.2456  2.7727
  671MOL0     H92535   5.688   8.055   3.778  2.9700 -1.0126 -4.1356
  671MOL0     H92536   5.861   8.017   3.785 -0.6013  0.4281 -1.7133
  671MOL0     H92537   5.817   7.863   3.978 -0.3606 -0.1788 -0.3333
  671MOL0     H92538   5.648   7.916   3.974  0.1799  2.7952 -1.0695
  671MOL0     H92539   5.738   7.682   3.855 -0.7036 -0.8064 -0.5274
  671MOL0     H92540   5.799   7.797   3.733 -0.6117  4.4836 -0.3873
  671MOL0     H92541   5.515   7.810   3.804  0.7686 -1.3670  2.6197
  671MOL0     H92542   5.603   7.870   3.663  4.6062  1.4483  2.6179
  671MOL0     H92543   5.582   7.562   3.701 -1.3038  0.0400  1.0564
  671MOL0     H92544   5.656   7.654   3.575 -1.7190  3.9684 -1.4834
  671MOL0     H92545   5.355   7.649   3.643  0.4461  0.8882  0.7274
  671MOL0     H92546   5.429   7.758   3.526 -0.1591 -0.2197  1.7803
  671MOL0     H92547   5.498   7.634   3.302  0.7369  1.1559  1.1497
  671MOL0     H92548   5.447   7.275   3.184  1.2026  1.1771  0.7979
  671MOL0     H92549   5.502   7.434   3.121  0.5704 -0.0875 -1.7324
  671MOL0     H92550   5.210   7.331   3.122 -0.4536  1.2876  0.3633
  671MOL0     H92551   5.281   7.471   3.031 -3.6086 -1.2787 -2.2511
  671MOL0     H92552   5.394   7.350   2.884 -1.2930  1.2998  0.8330
  671MOL0     H92553   5.398   7.198   2.971 -0.0762 -0.6227 -2.2039
  671MOL0     H92554   5.201   7.184   2.797 -0.6471  2.6961 -1.1637
  671MOL0     H92555   5.156   7.172   2.963 -0.8191  0.8862  0.6820
  671MOL0     H92556   4.957   7.569   2.889  0.0344  2.1975 -1.3408
  671MOL0     H92557   4.913   7.839   2.701 -0.8078 -2.3365  0.2620
  671MOL0     H92558   5.017   7.888   2.838  0.6044 -1.3857  4.1490
  671MOL0     H92559   4.887   7.765   2.847 -0.2144 -1.5400 -1.7674
  671MOL0     H92560   5.247   7.886   2.258 -0.2679 -0.2196  0.6507
  671MOL0     H92561   5.339   8.084   2.141 -0.3000 -1.6794 -0.1458
  671MOL0     H92562   5.453   8.386   2.440  1.5459 -3.3093  1.4586
  671MOL0     H92563   5.623   8.356   2.384  0.2093  1.7474  2.0903
  671MOL0     H92564   5.427   8.551   2.242 -0.0377  0.0987 -0.0772
  671MOL0     H92565   5.540   8.611   2.354 -0.7146 -0.1967  0.1364
  671MOL0     H92566   5.576   8.475   2.089  0.4050 -1.9061  0.2780
  671MOL0     H92567   5.716   8.468   2.208 -1.2412 -0.1029  3.7182
  671MOL0     H92568   5.727   8.710   2.203 -0.8168  0.5984  0.7904
  671MOL0     H92569   5.572   8.728   2.129 -0.7294 -1.9905  0.1785
  671MOL0     H92570   5.834   8.627   2.025 -0.7637 -0.8726 -0.8220
  671MOL0     H92571   5.686   8.610   1.926 -0.6092 -0.7453  0.7867
  671MOL0     H92572   5.670   8.864   1.933  0.6459  1.3015 -0.3727
  671MOL0     H92573   5.819   8.798   1.846 -0.3219 -0.3555 -0.7592
  671MOL0     H92574   5.903   8.856   2.114  3.7991  0.4063 -2.5282
  671MOL0     H92575   5.762   8.955   2.099 -0.1683  0.4100 -1.0590
  671MOL0     H92576   5.973   9.086   2.025 -0.4231  0.9977  1.5115
  671MOL0     H92577   5.853   9.061   1.895 -1.7508 -0.4893  1.2878
  671MOL0     H92578   5.538   8.196   2.514 -1.6912  1.1035 -0.4032
  671MOL0     H92579   5.461   7.980   2.618  0.7096 -0.3210  0.0568
  671MOL0     H92580   5.297   7.558   2.544 -0.4544  1.1525 -0.6970
  671MOL0     H92581   5.256   7.367   2.659 -1.6250 -0.6183  0.5928
  671MOL0     H92582   6.098   8.295   4.200  2.7741  3.1312  0.9391
  671MOL0     H92583   6.333   8.238   4.314  0.7781 -1.1878  0.3579
  671MOL0     H92584   6.726   8.094   4.261  0.7891  1.9789  1.5989
  671MOL0     H92585   6.944   8.092   4.363  1.7726 -1.3590  1.5532
  671MOL0     H92586   7.194   7.843   4.633 -1.7291  1.8206  2.3634
  671MOL0     H92587   7.047   7.812   4.712  0.8127 -1.4821  0.0389
  671MOL0     H92588   7.007   7.627   4.547 -1.0769  1.8547 -1.9911
  671MOL0     H92589   7.186   7.622   4.589 -1.2314 -4.2563 -1.9764
  671MOL0     H92590   7.065   7.723   4.322 -0.3094 -1.2597 -1.0867
  671MOL0     H92591   7.230   7.720   4.359 -1.7556  1.1242 -2.5508
  671MOL0     H92592   7.030   7.501   4.330 -0.0243 -0.3297 -0.9549
  671MOL0     H92593   7.184   7.463   4.412 -0.7716  0.6965  2.3561
  671MOL0     H92594   7.317   7.424   4.037  1.3030 -3.9545  2.8171
  671MOL0     H92595   6.820   7.747   4.600  0.0482 -0.5348 -0.0616
  671MOL0     H92596   6.479   7.770   4.555 -0.1349 -0.0329  0.3899
  671MOL0     H92597   6.557   7.662   4.438 -3.8339 -1.9046  1.1073
  671MOL0     H92598   6.614   7.672   4.603 -1.3345 -1.1453 -1.9525
  672MOL0     O92599   2.041   0.614   3.113 -0.2182  0.4423 -0.1156
  672MOL0     C92600   1.970   0.634   3.211  0.0467  0.2772 -0.2102
  672MOL0     O92601   1.986   0.742   3.300  0.1689  0.1208 -0.3800
  672MOL0     C92602   2.091   0.837   3.289 -0.4888  0.0855 -0.3218
  672MOL0     C92603   2.069   0.973   3.263  0.1847  0.7121 -1.1237
  672MOL0     C92604   2.183   1.065   3.264  0.5654 -0.0017  0.5830
  672MOL0     C92605   2.309   1.017   3.293 -0.6888  0.0163 -0.0449
  672MOL0     O92606   2.414   1.116   3.297 -1.3067  0.7006  0.1427
  672MOL0     C92607   2.503   1.127   3.415  1.2681  0.4295  0.4306
  672MOL0     C92608   2.599   1.247   3.383 -0.2683  0.5362 -0.9531
  672MOL0     C92609   2.700   1.272   3.502  0.0031 -0.3729 -0.3492
  672MOL0     C92610   2.784   1.396   3.475 -1.0225  0.5557 -0.4089
  672MOL0     C92611   2.880   1.431   3.587  0.6375  0.8390 -0.1119
  672MOL0     C92612   2.974   1.539   3.547  0.6482  0.8812 -0.1732
  672MOL0     C92613   3.069   1.584   3.664 -0.3311  0.6118  0.5190
  672MOL0     C92614   3.134   1.716   3.631 -0.7238  0.2071  0.5900
  672MOL0     N92615   3.246   1.740   3.720 -0.5944 -0.1057  0.1610
  672MOL0     C92616   3.224   1.787   3.846  0.2917  1.1041 -0.6503
  672MOL0     C92617   3.336   1.848   3.887 -0.1977 -0.1864 -0.5643
  672MOL0     C92618   3.364   1.936   4.003  0.2806  0.2107  0.5248
  672MOL0     C92619   3.384   2.083   3.973  1.4802  0.3408  0.2889
  672MOL0     C92620   3.258   2.152   4.031  0.4892 -0.4444 -0.1938
  672MOL0     C92621   3.116   2.098   3.982  0.3732  1.1357  0.2114
  672MOL0     O92622   3.063   1.994   4.077  0.3947  0.0037  0.8051
  672MOL0     C92623   2.948   1.928   4.042 -0.1632 -0.3791 -0.5773
  672MOL0     C92624   2.917   1.820   4.123  0.6668 -0.6079  0.0121
  672MOL0     C92625   2.826   1.724   4.087  0.0929 -1.3385 -0.1924
  672MOL0     C92626   2.783   1.623   4.195 -0.6543  0.2045  0.2446
  672MOL0     C92627   2.755   1.736   3.967 -1.0408  0.3080  0.4043
  672MOL0     C92628   2.638   1.645   3.928  0.4709 -0.7296  0.2747
  672MOL0     O92629   2.544   1.695   3.841 -0.0843 -1.0163  0.3549
  672MOL0     C92630   2.439   1.610   3.818  0.6393 -0.5048  0.2930
  672MOL0     C92631   2.437   1.537   3.700 -1.6080  0.4046 -0.0924
  672MOL0     C92632   2.327   1.461   3.663 -0.6252 -0.1790  0.7973
  672MOL0     C92633   2.221   1.435   3.750  0.9338  0.5416 -0.6968
  672MOL0     O92634   2.114   1.349   3.725  0.5917 -0.4008 -0.3672
  672MOL0     C92635   2.137   1.230   3.643 -0.4093 -0.4361 -0.3947
  672MOL0     C92636   2.030   1.131   3.659 -0.2186 -0.3056 -0.2746
  672MOL0     C92637   2.015   1.057   3.784 -0.5233 -0.2610 -0.1850
  672MOL0     C92638   1.934   1.131   3.888  0.4334 -0.2381 -0.7984
  672MOL0     C92639   2.028   1.158   4.014 -0.3198  0.2933  0.3103
  672MOL0     C92640   1.949   1.221   4.127  0.6242  0.3065  0.6454
  672MOL0     C92641   1.876   1.351   4.090  0.0247  0.1922  0.2976
  672MOL0     C92642   1.808   1.425   4.211 -0.2262  0.2348  0.2683
  672MOL0    Cl92643   1.932   1.515   4.305  0.4909  0.0039  0.1494
  672MOL0     C92644   2.228   1.501   3.873  0.2731  0.3911  0.2602
  672MOL0     C92645   2.334   1.589   3.910  1.1636  0.5441  0.6300
  672MOL0     O92646   2.632   1.526   3.972  0.1126  0.0729 -0.9576
  672MOL0     C92647   2.785   1.843   3.886  0.0671  0.8378  0.2115
  672MOL0     C92648   2.878   1.939   3.918 -0.2114 -0.0551  0.6030
  672MOL0     N92649   3.423   1.843   3.784 -0.2745 -0.7274  0.6410
  672MOL0     N92650   3.372   1.777   3.684  0.4286  0.5520 -0.1054
  672MOL0     C92651   2.326   0.881   3.339 -1.3986  0.3718  1.1604
  672MOL0     C92652   2.217   0.796   3.331 -0.2627  0.9850  0.1921
  672MOL0     C92653   1.860   0.538   3.233  0.8155 -0.3091 -0.1481
  672MOL0     C92654   1.740   0.585   3.306 -0.2939 -0.1847  0.7222
  672MOL0     C92655   1.637   0.502   3.326 -0.0309 -0.5223  0.7711
  672MOL0     C92656   1.646   0.366   3.292 -0.3170  0.4955 -0.4817
  672MOL0     O92657   1.545   0.269   3.318 -0.0830 -0.3725  0.1062
  672MOL0     C92658   1.422   0.307   3.393  0.6281  0.0875 -0.1012
  672MOL0     C92659   1.310   0.357   3.304 -0.3816 -0.5142  0.6479
  672MOL0     C92660   1.247   0.262   3.196  1.0600  0.5122  0.2526
  672MOL0     C92661   1.136   0.175   3.250 -0.5150  0.4561 -0.2171
  672MOL0     C92662   1.188   0.047   3.286  0.4136  0.3615 -0.1237
  672MOL0     C92663   1.231  -0.058   3.327 -0.7226  0.3123  0.0857
  672MOL0     C92664   1.763   0.329   3.224  0.3315 -0.0156 -0.4556
  672MOL0     C92665   1.867   0.406   3.189 -0.4305 -0.1581 -0.3775
  672MOL0     C92666   1.986   0.347   3.113  0.5705 -0.1003  0.5390
  672MOL0     H92667   1.969   1.010   3.246 -0.0205 -0.2357 -2.0568
  672MOL0     H92668   2.165   1.169   3.238  1.9007 -0.0319 -0.5532
  672MOL0     H92669   2.555   1.038   3.450 -0.7837 -1.0386 -0.0441
  672MOL0     H92670   2.443   1.154   3.502  1.5407  1.5316  0.2945
  672MOL0     H92671   2.662   1.231   3.294  0.2004 -0.0186 -0.5287
  672MOL0     H92672   2.535   1.335   3.374 -0.4106  0.4773 -0.5179
  672MOL0     H92673   2.633   1.290   3.586  0.8197 -2.9019  0.9446
  672MOL0     H92674   2.759   1.183   3.527  1.5575  0.7081  0.0243
  672MOL0     H92675   2.855   1.367   3.397  0.9672  1.8961  0.8196
  672MOL0     H92676   2.722   1.477   3.436 -2.7664 -0.5156  0.0233
  672MOL0     H92677   2.933   1.343   3.625 -1.8120  0.2463  2.3047
  672MOL0     H92678   2.820   1.478   3.665  1.3796  0.9670  0.3907
  672MOL0     H92679   3.030   1.506   3.459 -0.0351  1.5173 -0.8618
  672MOL0     H92680   2.922   1.628   3.511  2.2516  1.5037 -1.0622
  672MOL0     H92681   3.145   1.507   3.675 -0.9657 -0.2304 -0.6866
  672MOL0     H92682   3.027   1.596   3.764  3.8514  0.9586  2.4497
  672MOL0     H92683   3.180   1.726   3.532 -0.1558 -0.8478  0.7385
  672MOL0     H92684   3.062   1.797   3.647 -2.1230 -0.8941 -0.0289
  672MOL0     H92685   3.138   1.784   3.913  1.4578  3.2710  1.0615
  672MOL0     H92686   3.463   1.905   4.039 -0.7376 -1.3668  2.0940
  672MOL0     H92687   3.293   1.926   4.085 -2.4344  5.1732 -0.7853
  672MOL0     H92688   3.479   2.129   4.005  0.9984 -0.1107  2.5101
  672MOL0     H92689   3.388   2.093   3.864  0.9679 -0.8299  0.1581
  672MOL0     H92690   3.264   2.147   4.140 -0.0912 -0.0980 -0.1435
  672MOL0     H92691   3.274   2.259   4.009 -2.0807  0.8645  3.3724
  672MOL0     H92692   3.048   2.183   3.974 -0.6331  0.4255  0.9571
  672MOL0     H92693   3.121   2.064   3.878 -1.0778 -0.7417  0.7078
  672MOL0     H92694   2.962   1.822   4.222 -1.7106  0.7008  1.1558
  672MOL0     H92695   2.677   1.630   4.220  0.0241  1.0220  3.3883
  672MOL0     H92696   2.836   1.641   4.289 -0.0695  3.7082 -0.6233
  672MOL0     H92697   2.802   1.527   4.145  0.5424  0.3603  0.3590
  672MOL0     H92698   2.527   1.550   3.641 -0.4863 -3.1444  0.5879
  672MOL0     H92699   2.321   1.403   3.572 -0.1191  0.5869  0.2583
  672MOL0     H92700   2.123   1.262   3.540 -1.1564 -0.7185 -0.3868
  672MOL0     H92701   2.236   1.185   3.661  0.7559  1.4890 -1.6924
  672MOL0     H92702   1.937   1.174   3.620 -0.8919 -0.2063  1.3777
  672MOL0     H92703   2.050   1.057   3.580 -0.6222 -0.1707 -0.5078
  672MOL0     H92704   2.115   1.033   3.821  0.4366 -0.8422 -2.9166
  672MOL0     H92705   1.973   0.959   3.759  1.7732 -1.5598  0.8268
  672MOL0     H92706   1.847   1.076   3.925  0.5088  0.6857  0.8015
  672MOL0     H92707   1.892   1.224   3.850 -0.6737  0.6939  2.4490
  672MOL0     H92708   2.063   1.068   4.067  1.1391  0.3144 -0.5583
  672MOL0     H92709   2.120   1.210   3.988  0.4685 -0.5065  1.4184
  672MOL0     H92710   2.014   1.229   4.215  2.7978  1.2232 -0.9575
  672MOL0     H92711   1.868   1.151   4.147 -1.0937  1.6948 -1.1003
  672MOL0     H92712   1.789   1.342   4.025 -0.4071  2.0778  0.5486
  672MOL0     H92713   1.943   1.419   4.036  0.1067 -0.9880 -1.1102
  672MOL0     H92714   1.767   1.354   4.285  2.0851  2.0088  3.5182
  672MOL0     H92715   1.732   1.493   4.172  2.1798  2.9504  0.0593
  672MOL0     H92716   2.151   1.500   3.950 -1.7110  2.0767 -1.5948
  672MOL0     H92717   2.325   1.653   3.997 -4.6173 -0.2585  0.9837
  672MOL0     H92718   2.713   1.875   3.811 -1.2218 -2.8502 -0.3657
  672MOL0     H92719   2.905   2.013   3.843  0.4580  0.9345  1.7786
  672MOL0     H92720   2.423   0.838   3.362 -0.6147 -0.8799 -3.4708
  672MOL0     H92721   2.222   0.690   3.354 -0.6928  1.6864  4.5051
  672MOL0     H92722   1.726   0.688   3.336  3.4918  0.8134 -0.3780
  672MOL0     H92723   1.544   0.540   3.365 -0.8237  0.1960 -1.6480
  672MOL0     H92724   1.379   0.221   3.443  0.7094  0.2549  0.2612
  672MOL0     H92725   1.460   0.375   3.470 -1.6415  1.6647 -0.2852
  672MOL0     H92726   1.340   0.446   3.247  3.0794 -1.2505  1.0647
  672MOL0     H92727   1.230   0.387   3.372 -1.4788  0.5410 -1.0333
  672MOL0     H92728   1.204   0.318   3.113 -1.5624 -3.1989 -1.1554
  672MOL0     H92729   1.325   0.194   3.161 -0.9536 -2.1377  0.6362
  672MOL0     H92730   1.055   0.151   3.180  0.6105 -1.1190 -1.0472
  672MOL0     H92731   1.094   0.219   3.340  3.2134 -1.2956  2.6445
  672MOL0     H92732   1.278  -0.150   3.355  0.6077  0.3866 -1.7201
  672MOL0     H92733   1.770   0.227   3.187  2.6895  0.4484 -1.4280
  672MOL0     H92734   1.982   0.238   3.101  0.3392 -0.2708  1.9870
  672MOL0     H92735   2.002   0.393   3.015 -1.4238  0.0192  0.2309
  672MOL0     H92736   2.069   0.362   3.183  2.2939  1.3159 -1.6867
  673MOL0     O92737   5.976   0.461   4.660  0.6017 -0.2859 -0.3103
  673MOL0     C92738   5.991   0.567   4.732  0.0660 -0.1082  0.8946
  673MOL0     O92739   5.985   0.561   4.865 -0.0822 -0.0261  0.4277
  673MOL0     C92740   5.907   0.457   4.911 -0.1471  0.1313  0.6952
  673MOL0     C92741   5.779   0.481   4.950  0.3318  0.0476  0.5865
  673MOL0     C92742   5.699   0.377   5.005 -0.4452  0.3554 -0.2345
  673MOL0     C92743   5.761   0.254   5.031 -0.0555 -0.2880 -0.5181
  673MOL0     O92744   5.688   0.172   5.112  0.7899  0.1098  0.1216
  673MOL0     C92745   5.689   0.030   5.093  0.7585 -0.1777  0.1084
  673MOL0     C92746   5.569  -0.034   5.169 -0.3656  0.1437 -0.5360
  673MOL0     C92747   5.546  -0.174   5.123 -0.1700 -0.4932 -0.1022
  673MOL0     C92748   5.437  -0.228   5.205  0.2289 -0.1249  0.4583
  673MOL0     C92749   5.380  -0.360   5.159  0.1030  0.8955  0.1968
  673MOL0     C92750   5.305  -0.439   5.271 -0.3123 -0.6905  0.4632
  673MOL0     C92751   5.266  -0.585   5.219  0.1576 -0.3173 -0.4566
  673MOL0     C92752   5.214  -0.587   5.076  0.1110 -0.8483  1.1568
  673MOL0     N92753   5.160  -0.720   5.043 -0.6429 -0.4194 -0.2950
  673MOL0     C92754   5.024  -0.749   5.030 -0.6199  0.6793  0.2244
  673MOL0     C92755   5.026  -0.880   5.036  0.4582  0.3356  0.3555
  673MOL0     C92756   4.903  -0.966   5.024 -0.0167  0.7232  0.5985
  673MOL0     C92757   4.889  -1.070   4.902  1.7201  0.1645 -0.3194
  673MOL0     C92758   4.742  -1.102   4.881  0.2037  0.7349 -0.6487
  673MOL0     C92759   4.715  -1.201   4.763 -0.0598 -0.2168 -0.8461
  673MOL0     O92760   4.746  -1.342   4.805 -0.6981 -0.3972  0.2926
  673MOL0     C92761   4.724  -1.457   4.725 -0.1727 -0.0341  0.0871
  673MOL0     C92762   4.804  -1.574   4.728 -0.7561  1.4616  0.6467
  673MOL0     C92763   4.788  -1.678   4.636 -0.1182  0.1908 -0.0359
  673MOL0     C92764   4.873  -1.805   4.659 -0.0571  0.1419 -0.2596
  673MOL0     C92765   4.691  -1.661   4.540 -0.1184  0.1464 -0.4798
  673MOL0     C92766   4.664  -1.757   4.431  0.4139 -1.1172 -0.1727
  673MOL0     O92767   4.596  -1.713   4.326  0.4450 -0.5146  0.5729
  673MOL0     C92768   4.612  -1.787   4.210 -0.4801  0.2807  0.4258
  673MOL0     C92769   4.497  -1.847   4.154 -0.4081 -0.4557  0.7418
  673MOL0     C92770   4.510  -1.912   4.031 -0.7719  0.4921  0.9127
  673MOL0     C92771   4.629  -1.915   3.953 -0.9595 -0.4493 -0.0745
  673MOL0     O92772   4.653  -1.981   3.837  0.3331 -0.5472  0.2915
  673MOL0     C92773   4.543  -1.980   3.741  1.0545 -0.5061  0.1862
  673MOL0     C92774   4.601  -1.972   3.596 -0.2365 -0.0551  0.7643
  673MOL0     C92775   4.499  -1.970   3.484  0.0916  0.0076  0.1098
  673MOL0     C92776   4.382  -2.069   3.499  0.3920  0.4542  0.1419
  673MOL0     C92777   4.271  -2.047   3.398 -0.1885 -0.0758  0.3979
  673MOL0     C92778   4.171  -2.158   3.379  0.3950  0.1461 -0.0775
  673MOL0     C92779   4.097  -2.195   3.513  0.5274 -0.1895  0.0988
  673MOL0     C92780   3.996  -2.304   3.492 -0.7973 -0.3930  0.2236
  673MOL0    Cl92781   4.058  -2.449   3.418  0.0367  0.4311  0.3343
  673MOL0     C92782   4.735  -1.842   4.001 -0.3477 -0.1974  0.4676
  673MOL0     C92783   4.727  -1.783   4.130 -0.1592  0.1578  0.2527
  673MOL0     O92784   4.702  -1.875   4.445  0.3257 -0.1950 -0.0101
  673MOL0     C92785   4.616  -1.545   4.539  0.2464  0.2993 -0.0166
  673MOL0     C92786   4.621  -1.450   4.638 -0.2780 -0.2289  1.0403
  673MOL0     N92787   5.147  -0.934   5.042 -0.6693 -0.2507  0.2678
  673MOL0     N92788   5.232  -0.833   5.049  0.5245 -0.3983 -0.2437
  673MOL0     C92789   5.897   0.231   4.993 -0.6437 -0.2334 -0.1617
  673MOL0     C92790   5.970   0.332   4.934  0.1513 -0.5389  0.1696
  673MOL0     C92791   5.997   0.703   4.674 -0.1990  0.1133  1.2828
  673MOL0     C92792   5.978   0.811   4.764  0.0190  0.0409 -0.0644
  673MOL0     C92793   5.985   0.941   4.721  0.0100 -0.7408 -0.2153
  673MOL0     C92794   6.005   0.976   4.589 -0.1895  0.4308 -0.6566
  673MOL0     O92795   6.025   1.104   4.539  0.2125 -0.0152 -0.2125
  673MOL0     C92796   6.014   1.212   4.635  0.8878 -1.0098  0.4765
  673MOL0     C92797   6.005   1.351   4.567  0.4387 -0.0081 -0.4758
  673MOL0     C92798   5.897   1.344   4.450  0.0760 -0.5059 -0.4369
  673MOL0     C92799   5.872   1.488   4.411 -0.2284 -0.2907 -0.0049
  673MOL0     C92800   5.735   1.496   4.368  0.2605 -0.0919  0.0576
  673MOL0     C92801   5.616   1.508   4.340 -0.3247  0.8326 -0.1868
  673MOL0     C92802   6.030   0.869   4.501  0.7132  0.2630 -0.3984
  673MOL0     C92803   6.029   0.732   4.544 -0.3772 -0.9276 -0.1010
  673MOL0     C92804   6.039   0.634   4.430  0.3446 -1.1069  0.2362
  673MOL0     H92805   5.739   0.581   4.941  1.9006  0.5180 -1.9818
  673MOL0     H92806   5.595   0.386   5.036  0.9100  0.3392  5.6301
  673MOL0     H92807   5.781  -0.001   5.144  1.6067  0.0108 -1.2628
  673MOL0     H92808   5.691   0.012   4.985  0.2970  0.5304 -0.0290
  673MOL0     H92809   5.598  -0.033   5.274  2.1409 -1.6412 -1.1126
  673MOL0     H92810   5.480   0.028   5.155 -0.8558  0.8165  4.0627
  673MOL0     H92811   5.510  -0.170   5.020 -1.2534  1.6992  0.3219
  673MOL0     H92812   5.637  -0.236   5.131 -0.1831 -0.9307 -2.4511
  673MOL0     H92813   5.483  -0.251   5.302  1.8881  1.8926  0.1989
  673MOL0     H92814   5.357  -0.158   5.233  0.0853 -0.3283  0.5676
  673MOL0     H92815   5.468  -0.418   5.129 -0.9165 -0.2137 -0.7764
  673MOL0     H92816   5.317  -0.353   5.070  1.2814  2.1669 -0.5646
  673MOL0     H92817   5.376  -0.457   5.353  0.6148  3.3679  0.7658
  673MOL0     H92818   5.220  -0.382   5.309 -1.1296 -1.5076 -0.1026
  673MOL0     H92819   5.187  -0.620   5.286 -1.4859  1.4148 -1.3853
  673MOL0     H92820   5.350  -0.654   5.230  0.1573  0.0727  3.5518
  673MOL0     H92821   5.141  -0.505   5.076  1.5881  0.5334  2.4333
  673MOL0     H92822   5.296  -0.566   5.007 -2.3104  2.6632 -0.9734
  673MOL0     H92823   4.929  -0.696   5.030 -0.1337  1.5614  1.0831
  673MOL0     H92824   4.828  -0.887   5.029  2.0965  2.8232  1.3709
  673MOL0     H92825   4.891  -1.024   5.116 -2.8190 -1.8531 -1.2072
  673MOL0     H92826   4.929  -1.037   4.806  0.1776  1.0036 -0.7127
  673MOL0     H92827   4.936  -1.163   4.933 -3.1251 -1.5140  3.3863
  673MOL0     H92828   4.710  -1.143   4.978 -1.0580  1.8582 -0.5689
  673MOL0     H92829   4.684  -1.010   4.871 -0.6836  0.5471  1.9451
  673MOL0     H92830   4.611  -1.194   4.729 -0.6317  2.2857  1.1267
  673MOL0     H92831   4.776  -1.182   4.674 -0.1158  2.6791 -0.3673
  673MOL0     H92832   4.876  -1.583   4.809 -1.4310 -1.9302  1.0281
  673MOL0     H92833   4.816  -1.895   4.686  2.2189 -0.6294  2.4209
  673MOL0     H92834   4.954  -1.785   4.729 -0.2546 -3.0694  1.0855
  673MOL0     H92835   4.914  -1.820   4.559  2.2510  1.8407  0.3512
  673MOL0     H92836   4.403  -1.862   4.206 -0.6748  0.3317  0.5013
  673MOL0     H92837   4.422  -1.952   3.981 -0.0405 -0.7963  0.6281
  673MOL0     H92838   4.460  -2.045   3.771 -0.5503  2.2001  2.1334
  673MOL0     H92839   4.501  -1.879   3.744  2.7011  0.1909  3.3049
  673MOL0     H92840   4.658  -1.879   3.595  0.7984 -0.6762 -0.5790
  673MOL0     H92841   4.664  -2.060   3.588 -0.1000  0.2078 -1.6225
  673MOL0     H92842   4.555  -1.998   3.395 -2.0431 -1.0805 -0.9576
  673MOL0     H92843   4.455  -1.871   3.465 -0.1184 -0.4089 -1.6853
  673MOL0     H92844   4.347  -2.062   3.602  0.9862 -0.3653  0.4094
  673MOL0     H92845   4.415  -2.171   3.479  0.3644  0.1357  1.6167
  673MOL0     H92846   4.224  -1.950   3.414  1.2173  0.8352 -0.6907
  673MOL0     H92847   4.324  -2.027   3.305 -1.9775 -0.6155 -0.8002
  673MOL0     H92848   4.227  -2.240   3.334  1.1539 -1.0226  2.7899
  673MOL0     H92849   4.091  -2.116   3.317  1.4646  0.6100 -1.1877
  673MOL0     H92850   4.046  -2.107   3.554 -3.3701 -0.3565 -3.6731
  673MOL0     H92851   4.168  -2.224   3.591 -0.4274  2.0887  1.9410
  673MOL0     H92852   3.907  -2.272   3.436 -1.8140 -0.1826  1.9047
  673MOL0     H92853   3.952  -2.324   3.590 -0.2311 -1.2256  0.3131
  673MOL0     H92854   4.827  -1.846   3.944  0.4918 -3.7326  1.8306
  673MOL0     H92855   4.820  -1.744   4.169  0.0047 -2.7471  3.1462
  673MOL0     H92856   4.537  -1.518   4.469  0.1212  3.9730  1.3336
  673MOL0     H92857   4.544  -1.373   4.635  0.4484  0.5174 -1.4665
  673MOL0     H92858   5.933   0.131   5.017  0.0425 -0.2009 -0.9876
  673MOL0     H92859   6.070   0.316   4.896 -0.2251 -0.2257 -0.9844
  673MOL0     H92860   5.951   0.799   4.869 -0.4243 -1.3870 -0.3163
  673MOL0     H92861   5.955   1.008   4.801  1.4669 -2.6708  2.0699
  673MOL0     H92862   5.935   1.200   4.709  0.6505  0.9964  0.5855
  673MOL0     H92863   6.101   1.212   4.701 -0.5081  1.4239  2.5114
  673MOL0     H92864   6.103   1.394   4.542 -0.6248  2.0402 -1.3785
  673MOL0     H92865   5.975   1.425   4.642 -1.8339  1.7081 -2.9241
  673MOL0     H92866   5.942   1.275   4.378  2.2202 -2.7780  2.7738
  673MOL0     H92867   5.799   1.303   4.479  0.0850 -0.1789  0.0806
  673MOL0     H92868   5.941   1.502   4.326 -1.1039 -2.8944 -1.2279
  673MOL0     H92869   5.903   1.566   4.482  1.2720 -1.7794  1.0456
  673MOL0     H92870   5.516   1.528   4.307 -1.1788 -2.8853 -0.2750
  673MOL0     H92871   6.039   0.874   4.393  1.4994  0.2403 -0.3420
  673MOL0     H92872   6.105   0.660   4.347  2.2430 -1.5500  1.5357
  673MOL0     H92873   6.076   0.537   4.467 -0.4369 -1.4442  0.1588
  673MOL0     H92874   5.938   0.619   4.390  0.3467  0.7327 -0.5413
  674MOL0     O92875   5.602   1.762   1.780  0.1331  0.0219  0.2569
  674MOL0     C92876   5.597   1.881   1.746 -0.3293 -0.5394  0.2707
  674MOL0     O92877   5.485   1.939   1.706 -0.2385 -0.2590 -0.3527
  674MOL0     C92878   5.367   1.881   1.735 -0.6309  0.3333 -1.1205
  674MOL0     C92879   5.304   1.803   1.639  0.0823 -0.5684  0.1147
  674MOL0     C92880   5.172   1.737   1.671 -0.4829 -0.1799  0.2866
  674MOL0     C92881   5.114   1.767   1.796  0.4326 -0.2950  0.4119
  674MOL0     O92882   4.996   1.722   1.845 -0.2934  0.2791  0.8141
  674MOL0     C92883   4.898   1.667   1.760 -0.3573 -0.5227  0.7103
  674MOL0     C92884   4.776   1.627   1.835 -0.1270 -0.6959  0.2122
  674MOL0     C92885   4.693   1.744   1.878 -0.0850 -0.5343 -0.1787
  674MOL0     C92886   4.609   1.693   1.991  0.2834  0.4800  0.2749
  674MOL0     C92887   4.505   1.796   2.034 -0.3799  0.2025  0.1522
  674MOL0     C92888   4.543   1.868   2.163 -0.8610 -0.6985 -0.2081
  674MOL0     C92889   4.478   1.986   2.223  0.4980 -0.3040 -0.0475
  674MOL0     C92890   4.517   2.132   2.190 -1.0830  0.3541 -0.3175
  674MOL0     N92891   4.469   2.232   2.278  0.0422 -0.0423 -0.5335
  674MOL0     C92892   4.518   2.258   2.404  0.1249 -0.1801  0.3068
  674MOL0     C92893   4.421   2.334   2.460 -0.0576 -0.3896  0.0751
  674MOL0     C92894   4.404   2.380   2.608  0.3902 -0.3408 -0.1133
  674MOL0     C92895   4.297   2.305   2.693  0.3162  0.4833  0.4744
  674MOL0     C92896   4.332   2.158   2.707  0.3955  0.5065  0.9289
  674MOL0     C92897   4.456   2.130   2.793 -0.2563  0.2318 -0.3483
  674MOL0     O92898   4.575   2.179   2.726 -0.0308 -0.1706 -0.6200
  674MOL0     C92899   4.695   2.132   2.774  0.5957  0.2995  0.0768
  674MOL0     C92900   4.702   2.060   2.897  0.3240  0.3742  0.3089
  674MOL0     C92901   4.826   2.001   2.942 -0.0814 -0.7181  0.2226
  674MOL0     C92902   4.820   1.931   3.078  0.5717  0.4167  0.4650
  674MOL0     C92903   4.945   2.017   2.865 -0.3420 -1.0266 -0.7887
  674MOL0     C92904   5.080   1.977   2.914 -0.2652  0.4249 -0.2821
  674MOL0     O92905   5.184   1.986   2.828 -0.1785 -0.5917  1.0335
  674MOL0     C92906   5.320   1.950   2.860  0.2981 -0.9367  0.4245
  674MOL0     C92907   5.422   2.011   2.787  0.2919  0.9963  0.2848
  674MOL0     C92908   5.558   1.989   2.806  0.9085  0.4455  0.7284
  674MOL0     C92909   5.593   1.882   2.880  0.6020  0.0463  0.1782
  674MOL0     O92910   5.717   1.830   2.890 -1.3836 -0.0276  0.2681
  674MOL0     C92911   5.839   1.900   2.849 -0.5982 -0.1450 -0.0359
  674MOL0     C92912   5.957   1.806   2.813 -0.7127 -0.1591  0.6447
  674MOL0     C92913   5.987   1.697   2.920  0.0865 -0.6474  0.3147
  674MOL0     C92914   6.065   1.759   3.036  0.2596  0.4823 -0.9498
  674MOL0     C92915   6.050   1.673   3.157 -0.4306  0.4430  0.5712
  674MOL0     C92916   6.069   1.525   3.133 -0.0790  0.2812  0.1952
  674MOL0     C92917   6.082   1.463   3.278 -1.2859 -0.1974 -0.1121
  674MOL0     C92918   6.097   1.317   3.287 -0.7732 -0.9859  1.4493
  674MOL0    Cl92919   6.249   1.253   3.224  0.2853 -0.5184 -0.2802
  674MOL0     C92920   5.494   1.812   2.946 -0.0713  1.1580  0.4364
  674MOL0     C92921   5.360   1.854   2.947  0.3182 -0.5986  0.3298
  674MOL0     O92922   5.087   1.930   3.029  0.3638  0.4783 -0.6729
  674MOL0     C92923   4.929   2.096   2.750 -0.3495 -0.9009  0.1133
  674MOL0     C92924   4.811   2.145   2.702  0.0603  0.1104 -0.5174
  674MOL0     N92925   4.331   2.364   2.363  0.0853  0.8231 -1.0052
  674MOL0     N92926   4.354   2.294   2.260 -0.6817 -0.1105 -0.2695
  674MOL0     C92927   5.185   1.851   1.887 -0.3020  0.6389  0.5383
  674MOL0     C92928   5.306   1.901   1.857 -0.6757 -0.4339  0.2421
  674MOL0     C92929   5.717   1.955   1.737  0.2297 -0.3885 -0.8107
  674MOL0     C92930   5.740   2.035   1.632 -0.6072 -1.2168 -0.1303
  674MOL0     C92931   5.864   2.114   1.622  0.4931 -0.3886 -1.2423
  674MOL0     C92932   5.958   2.098   1.725 -0.3973  1.2026 -0.3141
  674MOL0     O92933   6.077   2.160   1.698  0.0355  0.4249 -0.4590
  674MOL0     C92934   6.169   2.171   1.813 -0.0180 -0.4976 -0.0100
  674MOL0     C92935   6.286   2.253   1.777  0.7801 -0.9124  0.9589
  674MOL0     C92936   6.396   2.176   1.704 -0.1059  0.7718  0.2824
  674MOL0     C92937   6.364   2.122   1.565 -0.9431 -0.0749 -0.6508
  674MOL0     C92938   6.473   2.032   1.531 -0.0803 -0.6082 -0.4672
  674MOL0     C92939   6.579   1.973   1.531 -0.2551  0.4300 -0.3951
  674MOL0     C92940   5.935   2.028   1.838 -0.2312  0.4592 -0.0410
  674MOL0     C92941   5.810   1.963   1.847 -0.4500  1.1344 -0.7983
  674MOL0     C92942   5.777   1.895   1.981  0.0362 -0.4577 -1.3887
  674MOL0     H92943   5.346   1.786   1.540 -1.0206  1.5298 -0.7919
  674MOL0     H92944   5.116   1.687   1.593 -2.3148  0.5248  1.0862
  674MOL0     H92945   4.948   1.577   1.722 -1.5237 -0.6791 -0.5488
  674MOL0     H92946   4.881   1.738   1.679  0.1535 -1.7702 -0.5373
  674MOL0     H92947   4.722   1.563   1.763  0.6643 -1.2858  0.1257
  674MOL0     H92948   4.795   1.557   1.918 -3.5606  0.2272  1.9655
  674MOL0     H92949   4.756   1.822   1.920  0.3679 -1.9442  1.8973
  674MOL0     H92950   4.621   1.775   1.802  1.9267 -1.3439 -2.5879
  674MOL0     H92951   4.547   1.608   1.958  2.2437  0.0301 -2.6817
  674MOL0     H92952   4.673   1.655   2.071 -0.1299 -0.1860  0.3035
  674MOL0     H92953   4.417   1.734   2.052  0.4417 -1.5132 -1.3554
  674MOL0     H92954   4.474   1.858   1.950 -2.3614 -0.7458  0.1184
  674MOL0     H92955   4.537   1.790   2.239  0.2444  1.3192  2.0650
  674MOL0     H92956   4.651   1.886   2.158 -0.9268  1.5023  3.2072
  674MOL0     H92957   4.494   1.972   2.330 -1.4815  2.0237  0.6396
  674MOL0     H92958   4.370   1.977   2.205  0.4253  1.6631 -0.8339
  674MOL0     H92959   4.626   2.141   2.190 -1.1073  2.2191  2.9361
  674MOL0     H92960   4.476   2.153   2.091 -1.9411 -3.1808 -0.8605
  674MOL0     H92961   4.594   2.209   2.465 -0.8674 -1.0426  0.8907
  674MOL0     H92962   4.364   2.481   2.604  0.4889 -0.2832  0.2955
  674MOL0     H92963   4.504   2.385   2.652  0.5896  4.1300 -0.6712
  674MOL0     H92964   4.283   2.348   2.793  0.4331  1.0954  0.2310
  674MOL0     H92965   4.199   2.308   2.645 -0.6013  5.0471  2.0535
  674MOL0     H92966   4.253   2.107   2.762  1.1899 -0.4988  1.1870
  674MOL0     H92967   4.338   2.106   2.610 -0.8688 -2.4485  2.3225
  674MOL0     H92968   4.455   2.174   2.893  3.5797  0.8539 -0.4404
  674MOL0     H92969   4.467   2.021   2.803  0.1059  0.3802  1.0557
  674MOL0     H92970   4.613   2.039   2.956  0.6260 -2.3392 -0.0727
  674MOL0     H92971   4.886   1.844   3.080 -2.5252 -2.2645 -2.1046
  674MOL0     H92972   4.716   1.898   3.092  0.3632  1.1233  0.6135
  674MOL0     H92973   4.848   1.999   3.159  0.4402  0.7485  0.2363
  674MOL0     H92974   5.398   2.087   2.713  1.3933 -1.3362 -2.7176
  674MOL0     H92975   5.636   2.035   2.746  0.5692  0.9083  0.6423
  674MOL0     H92976   5.836   1.964   2.761  2.6893 -1.3399 -1.1852
  674MOL0     H92977   5.864   1.951   2.942  0.9110  0.0368 -0.5159
  674MOL0     H92978   5.938   1.762   2.716  0.9354  1.7303 -0.6299
  674MOL0     H92979   6.047   1.868   2.803 -0.7691 -0.2096 -0.2462
  674MOL0     H92980   6.043   1.614   2.876  1.3326 -0.5905  1.7037
  674MOL0     H92981   5.888   1.657   2.947 -2.3812  0.6321 -5.3148
  674MOL0     H92982   6.031   1.859   3.063 -1.0216 -0.8495  3.1051
  674MOL0     H92983   6.163   1.757   2.988 -0.9773 -1.6769 -3.6552
  674MOL0     H92984   6.133   1.710   3.217  3.3045  2.0297 -4.8498
  674MOL0     H92985   5.951   1.686   3.203 -0.8281  0.7094 -0.3351
  674MOL0     H92986   6.158   1.506   3.073 -1.1614  0.1972 -1.4374
  674MOL0     H92987   5.985   1.483   3.078 -0.2154  1.9766 -0.9717
  674MOL0     H92988   5.991   1.494   3.329  0.3345  3.5986  0.7946
  674MOL0     H92989   6.155   1.503   3.348 -0.0313 -1.8807 -0.3856
  674MOL0     H92990   6.010   1.274   3.236 -0.7111 -1.4785  1.7607
  674MOL0     H92991   6.082   1.278   3.388  1.1385 -3.0173  1.0127
  674MOL0     H92992   5.525   1.733   3.013  1.2210  0.5661 -0.8186
  674MOL0     H92993   5.286   1.801   3.007  0.4819 -0.5921  0.5409
  674MOL0     H92994   5.016   2.133   2.696 -0.1385  1.7232  2.0997
  674MOL0     H92995   4.808   2.212   2.616  2.0548  0.2780 -0.4972
  674MOL0     H92996   5.147   1.856   1.989 -2.0059  3.0141 -0.1084
  674MOL0     H92997   5.356   1.963   1.929 -1.8782  0.1034  0.6502
  674MOL0     H92998   5.673   2.038   1.546  0.2335  0.5306 -0.7676
  674MOL0     H92999   5.884   2.178   1.536 -1.4826  0.1495 -1.3312
  674MOL0     H93000   6.119   2.223   1.895  3.5900  1.2326  1.3074
  674MOL0     H93001   6.198   2.071   1.848 -2.9261 -0.7626  2.0974
  674MOL0     H93002   6.326   2.301   1.867 -0.3057 -0.6984  1.3416
  674MOL0     H93003   6.262   2.341   1.717  0.0849  0.4064  3.0688
  674MOL0     H93004   6.482   2.242   1.689 -1.5550  2.3187 -1.7084
  674MOL0     H93005   6.424   2.088   1.764  2.3500  0.2197 -1.5134
  674MOL0     H93006   6.350   2.211   1.502  1.4687  1.6415  1.0227
  674MOL0     H93007   6.271   2.066   1.562  1.3095 -4.1178 -2.4002
  674MOL0     H93008   6.666   1.910   1.532  1.5029  2.7324 -0.1272
  674MOL0     H93009   6.003   2.028   1.922 -2.8355 -0.6495  2.2168
  674MOL0     H93010   5.814   1.946   2.070 -1.8105 -3.7112  1.5110
  674MOL0     H93011   5.669   1.899   1.997  0.3367 -0.2427  1.0425
  674MOL0     H93012   5.816   1.793   1.992 -0.8658 -0.5613  3.2896
  675MOL0     O93013  10.278   6.831   7.272 -0.3834 -0.1976  0.1413
  675MOL0     C93014  10.165   6.811   7.223 -0.4432 -0.2969 -0.4209
  675MOL0     O93015  10.128   6.703   7.146  1.0354  0.5296 -0.6506
  675MOL0     C93016  10.229   6.626   7.103 -0.1330 -0.0350  0.4340
  675MOL0     C93017  10.297   6.539   7.193  0.0730  0.0854  0.3393
  675MOL0     C93018  10.399   6.463   7.143  0.0180 -0.3355 -0.3880
  675MOL0     C93019  10.443   6.467   7.010  0.3331  0.3860 -0.2673
  675MOL0     O93020  10.553   6.394   6.962 -0.0452  0.6510  0.6373
  675MOL0     C93021  10.533   6.317   6.838  0.2974 -0.0080 -0.2196
  675MOL0     C93022  10.461   6.189   6.863  0.5115  0.0195  0.0995
  675MOL0     C93023  10.559   6.091   6.921  0.2070 -0.0373 -0.4521
  675MOL0     C93024  10.505   5.953   6.929  0.2622 -1.0284 -0.3225
  675MOL0     C93025  10.593   5.842   6.985  0.1067 -0.2649  0.0649
  675MOL0     C93026  10.707   5.797   6.891 -0.9613 -0.0753 -1.0494
  675MOL0     C93027  10.769   5.665   6.953 -0.8185 -0.3032  0.0963
  675MOL0     C93028  10.884   5.601   6.865 -0.2318 -0.8538 -1.2699
  675MOL0     N93029  11.001   5.685   6.865  0.5416 -0.3308 -0.5630
  675MOL0     C93030  11.015   5.778   6.770  0.4854 -0.2126 -0.7732
  675MOL0     C93031  11.111   5.864   6.815  0.5903 -0.5147 -0.0497
  675MOL0     C93032  11.168   5.979   6.741  0.5310  0.0693 -0.0693
  675MOL0     C93033  11.040   6.069   6.738 -0.5797 -0.4919  0.5521
  675MOL0     C93034  11.066   6.199   6.658 -0.0388 -1.1756 -0.3954
  675MOL0     C93035  10.949   6.293   6.667  0.0984  0.5161 -0.3664
  675MOL0     O93036  10.843   6.238   6.585 -0.6351 -0.0202  0.0108
  675MOL0     C93037  10.749   6.331   6.533 -1.6862  0.4769 -0.6267
  675MOL0     C93038  10.725   6.456   6.586  0.0271  0.0017  0.0097
  675MOL0     C93039  10.616   6.532   6.541  0.4255 -0.4056 -0.2714
  675MOL0     C93040  10.591   6.661   6.609  0.2059 -0.2777  0.5408
  675MOL0     C93041  10.548   6.497   6.421  0.8147  0.6202  0.3935
  675MOL0     C93042  10.440   6.581   6.369  0.3589 -0.4885  0.2846
  675MOL0     O93043  10.418   6.561   6.236 -0.1018  0.6432 -0.0096
  675MOL0     C93044  10.293   6.592   6.190 -0.1509 -0.1219 -0.0230
  675MOL0     C93045  10.216   6.491   6.132  0.6396 -0.4522 -0.1438
  675MOL0     C93046  10.091   6.520   6.084  0.5334 -0.1336 -0.9723
  675MOL0     C93047  10.040   6.652   6.099 -0.4375  1.3780 -0.2481
  675MOL0     O93048   9.910   6.668   6.059 -0.2468  1.1649 -0.9185
  675MOL0     C93049   9.868   6.803   6.048  0.2746  0.4034  0.6698
  675MOL0     C93050   9.726   6.807   5.995 -0.7344  0.3432 -0.2795
  675MOL0     C93051   9.677   6.950   5.959 -0.1103 -0.1405 -0.6776
  675MOL0     C93052   9.522   6.972   5.984  0.1172 -0.0698  0.6229
  675MOL0     C93053   9.484   7.120   5.962  0.2714  0.1422  0.2489
  675MOL0     C93054   9.329   7.137   5.964 -0.4464 -0.6361  0.6429
  675MOL0     C93055   9.292   7.281   5.907  0.2053 -0.3216 -0.1460
  675MOL0     C93056   9.268   7.296   5.758 -0.0273  0.4849 -0.7137
  675MOL0    Cl93057   9.240   7.470   5.727  0.0105  0.1766  0.0290
  675MOL0     C93058  10.132   6.754   6.132 -0.0478 -0.3448 -0.3634
  675MOL0     C93059  10.257   6.723   6.177 -0.0901 -0.0798 -0.4631
  675MOL0     O93060  10.381   6.662   6.437 -0.0886  0.3930 -0.2274
  675MOL0     C93061  10.573   6.369   6.364 -0.3644  0.1515  0.0591
  675MOL0     C93062  10.672   6.289   6.427 -0.7223 -0.3143  0.4067
  675MOL0     N93063  11.159   5.804   6.932  0.6998  0.1523  0.6627
  675MOL0     N93064  11.091   5.701   6.965 -0.5914 -0.5425  0.1503
  675MOL0     C93065  10.370   6.549   6.926 -0.3919  0.2526  0.4928
  675MOL0     C93066  10.267   6.632   6.965  0.4171  0.4580  0.7026
  675MOL0     C93067  10.063   6.918   7.236 -0.2032 -0.3176  0.6034
  675MOL0     C93068   9.991   6.955   7.114 -0.0854 -0.1094 -1.0246
  675MOL0     C93069   9.885   7.048   7.127  0.3431  0.3116  0.2159
  675MOL0     C93070   9.856   7.114   7.244  0.3102  0.1346  0.0778
  675MOL0     O93071   9.739   7.184   7.257 -0.7345 -0.6213  0.4076
  675MOL0     C93072   9.630   7.127   7.339 -0.8481  1.0685  0.5237
  675MOL0     C93073   9.511   7.216   7.343  0.1072 -1.1625  0.0321
  675MOL0     C93074   9.385   7.155   7.398 -0.2968  0.6743 -0.2212
  675MOL0     C93075   9.392   7.119   7.555 -0.8780 -0.8361 -0.0145
  675MOL0     C93076   9.248   7.097   7.597 -0.2027 -0.4803 -0.5231
  675MOL0     C93077   9.127   7.083   7.622 -0.7983 -1.1390  0.7574
  675MOL0     C93078   9.942   7.090   7.355  0.5461  0.3853  0.6263
  675MOL0     C93079  10.036   6.989   7.355 -0.2649 -0.7457 -0.1494
  675MOL0     C93080  10.113   6.965   7.486  0.1814 -0.2671 -0.1448
  675MOL0     H93081  10.288   6.537   7.301  1.3013 -1.4477  0.4455
  675MOL0     H93082  10.449   6.385   7.198  1.7463  1.3802  0.6110
  675MOL0     H93083  10.625   6.287   6.788  0.6548  0.0884  0.3644
  675MOL0     H93084  10.475   6.373   6.764 -1.4159 -2.4642 -0.8596
  675MOL0     H93085  10.378   6.192   6.934  0.5421 -2.3756  0.3236
  675MOL0     H93086  10.419   6.151   6.770  2.0990 -0.4868 -0.4423
  675MOL0     H93087  10.650   6.077   6.862  1.0280 -1.0032  1.0004
  675MOL0     H93088  10.600   6.127   7.016  0.9591 -0.6859 -0.5130
  675MOL0     H93089  10.410   5.954   6.984 -0.8998 -2.9480 -2.1699
  675MOL0     H93090  10.486   5.921   6.827  1.7297 -1.0375 -0.6168
  675MOL0     H93091  10.532   5.754   7.004  0.4917 -0.5131  0.1471
  675MOL0     H93092  10.627   5.862   7.087 -0.4918 -3.8412  1.1117
  675MOL0     H93093  10.666   5.772   6.793 -4.4198 -0.2868  0.2868
  675MOL0     H93094  10.788   5.870   6.884  2.5514 -3.5391 -0.1396
  675MOL0     H93095  10.690   5.591   6.960  0.7093 -1.9725  0.3446
  675MOL0     H93096  10.793   5.688   7.058  2.3795 -1.1193 -0.3358
  675MOL0     H93097  10.901   5.503   6.912 -0.3763 -0.9503 -1.4189
  675MOL0     H93098  10.857   5.576   6.762  2.7033 -0.0793 -2.3306
  675MOL0     H93099  10.952   5.792   6.683 -0.9434  2.4242  0.5694
  675MOL0     H93100  11.212   5.946   6.646 -2.1551 -2.4612 -0.5948
  675MOL0     H93101  11.239   6.029   6.807 -1.4832  1.9761  0.7820
  675MOL0     H93102  10.958   6.033   6.675 -2.2537  0.1937  2.2173
  675MOL0     H93103  11.002   6.088   6.839 -0.1966 -0.8493  0.7643
  675MOL0     H93104  11.143   6.262   6.702 -1.0258  1.5088 -2.2836
  675MOL0     H93105  11.088   6.182   6.552  2.9954  2.0937 -0.4828
  675MOL0     H93106  10.915   6.301   6.771  0.3994 -1.2050 -0.1005
  675MOL0     H93107  10.967   6.395   6.632  0.6695  1.4043  2.3069
  675MOL0     H93108  10.779   6.494   6.672 -1.2342  0.9025  0.4271
  675MOL0     H93109  10.489   6.677   6.645 -0.5359 -1.0288 -1.0808
  675MOL0     H93110  10.617   6.738   6.535  0.7418  0.0819  1.0921
  675MOL0     H93111  10.661   6.669   6.692  0.6774 -0.8689  0.2088
  675MOL0     H93112  10.257   6.391   6.129  1.7096 -0.0328  0.1599
  675MOL0     H93113  10.031   6.444   6.036  1.1826  0.0874 -2.1701
  675MOL0     H93114   9.863   6.848   6.147 -1.3840  0.4698  0.5925
  675MOL0     H93115   9.942   6.848   5.982 -1.0417  1.3734 -0.2047
  675MOL0     H93116   9.719   6.742   5.908 -0.3657  0.9734 -0.7900
  675MOL0     H93117   9.668   6.750   6.068 -1.0085 -2.3712 -2.4431
  675MOL0     H93118   9.703   6.967   5.855 -0.3479 -3.3649 -1.3932
  675MOL0     H93119   9.720   7.027   6.024  0.6512  0.5322 -1.9486
  675MOL0     H93120   9.503   6.943   6.088  1.7539  1.6464  1.4571
  675MOL0     H93121   9.457   6.909   5.923  1.2259  0.2947 -0.9797
  675MOL0     H93122   9.542   7.186   6.027  1.8124 -2.0223  1.1883
  675MOL0     H93123   9.519   7.150   5.863 -0.7407  3.3756  0.7436
  675MOL0     H93124   9.284   7.131   6.064 -0.2404 -0.3479  0.7548
  675MOL0     H93125   9.290   7.063   5.893  2.7930  0.1277 -2.2053
  675MOL0     H93126   9.355   7.358   5.951 -2.7053  1.2501  1.5688
  675MOL0     H93127   9.198   7.313   5.953  1.6894  0.8482  2.2451
  675MOL0     H93128   9.185   7.230   5.730  0.3601 -0.4985  0.3938
  675MOL0     H93129   9.355   7.270   5.697  0.5188 -1.0155  0.6302
  675MOL0     H93130  10.102   6.858   6.132 -2.3820 -0.9465 -1.0129
  675MOL0     H93131  10.327   6.795   6.217  0.3852 -0.4319 -0.6603
  675MOL0     H93132  10.506   6.332   6.288 -0.5185 -2.1285  1.2266
  675MOL0     H93133  10.686   6.190   6.386 -0.8802 -0.7424  1.3478
  675MOL0     H93134  10.395   6.558   6.821  4.3177  3.3385  1.5670
  675MOL0     H93135  10.234   6.699   6.886  1.2167  0.0310 -0.0101
  675MOL0     H93136  10.015   6.921   7.014 -2.8144  0.2698 -1.8647
  675MOL0     H93137   9.841   7.059   7.028 -0.1982 -1.1355  0.2833
  675MOL0     H93138   9.599   7.029   7.300 -0.6228  0.7098  1.2275
  675MOL0     H93139   9.663   7.106   7.441 -4.1583 -0.1036  1.4878
  675MOL0     H93140   9.493   7.254   7.243  0.2412 -0.5148  0.2493
  675MOL0     H93141   9.542   7.304   7.400  3.1362 -1.1418 -1.4504
  675MOL0     H93142   9.295   7.215   7.379  1.0118  3.0967  0.8913
  675MOL0     H93143   9.366   7.062   7.343 -2.8594  0.5336  0.7527
  675MOL0     H93144   9.443   7.195   7.615  0.3827 -0.3818 -1.5832
  675MOL0     H93145   9.460   7.035   7.573  2.0484  1.4219  0.2330
  675MOL0     H93146   9.021   7.082   7.635 -1.0860  0.3821 -0.9964
  675MOL0     H93147   9.915   7.140   7.447 -3.6361 -0.2020 -0.0729
  675MOL0     H93148  10.036   6.976   7.563 -1.7991 -2.9248 -1.5979
  675MOL0     H93149  10.158   6.866   7.487  2.6945  0.7584 -1.4902
  675MOL0     H93150  10.198   7.033   7.499  2.2584 -2.3000 -2.1287
  676MOL0     O93151   2.821   6.189   0.042 -0.6088 -0.2916  0.0641
  676MOL0     C93152   2.904   6.183   0.127  0.0759  0.7597  0.5972
  676MOL0     O93153   3.029   6.237   0.111  0.6895 -0.6848  0.0679
  676MOL0     C93154   3.072   6.273  -0.014  0.6075 -0.5396 -0.6807
  676MOL0     C93155   3.117   6.404  -0.042 -0.0039 -0.5568  0.3986
  676MOL0     C93156   3.173   6.430  -0.170  0.1517  0.7658  0.2908
  676MOL0     C93157   3.201   6.327  -0.264  0.0274  0.2225  0.2026
  676MOL0     O93158   3.264   6.337  -0.382 -0.4831 -0.3077 -0.4005
  676MOL0     C93159   3.351   6.449  -0.392  0.3003  1.0847  0.1776
  676MOL0     C93160   3.426   6.444  -0.529 -0.4386 -0.7193 -0.5053
  676MOL0     C93161   3.531   6.555  -0.544 -0.1019  0.5980 -0.6729
  676MOL0     C93162   3.590   6.547  -0.681 -0.1779 -0.8179  0.1719
  676MOL0     C93163   3.680   6.665  -0.710 -0.6333  0.0829  0.0703
  676MOL0     C93164   3.817   6.657  -0.638  0.6696 -0.0616 -0.3105
  676MOL0     C93165   3.915   6.768  -0.676  0.1557 -1.0051 -0.9237
  676MOL0     C93166   4.061   6.759  -0.618 -0.0031 -0.1595  0.2101
  676MOL0     N93167   4.119   6.628  -0.638  0.6237 -0.2197 -1.1305
  676MOL0     C93168   4.113   6.517  -0.555  0.2287 -0.3650 -0.8820
  676MOL0     C93169   4.202   6.429  -0.612  0.3372  0.0976 -1.4511
  676MOL0     C93170   4.246   6.295  -0.544 -0.0922  0.0428  0.1820
  676MOL0     C93171   4.139   6.188  -0.510 -0.0272  0.1240  0.5146
  676MOL0     C93172   4.057   6.150  -0.644 -0.8191  0.2244 -0.2872
  676MOL0     C93173   3.941   6.067  -0.600  1.4079  0.1407 -0.5228
  676MOL0     O93174   3.835   6.119  -0.516  0.7038  0.1064 -0.1171
  676MOL0     C93175   3.716   6.047  -0.519  1.0570  0.2280 -0.3830
  676MOL0     C93176   3.671   5.931  -0.591 -0.2563  0.6450  0.3170
  676MOL0     C93177   3.544   5.869  -0.574 -0.1469  0.9188 -0.0636
  676MOL0     C93178   3.501   5.752  -0.659 -0.8778 -0.2260 -0.2260
  676MOL0     C93179   3.452   5.936  -0.498 -0.6148  0.5581  0.7156
  676MOL0     C93180   3.315   5.881  -0.496  0.4592  0.0997  0.0580
  676MOL0     O93181   3.228   5.916  -0.598 -0.5160 -0.4607  0.4721
  676MOL0     C93182   3.098   5.872  -0.591 -0.4832 -0.8002  0.1820
  676MOL0     C93183   2.986   5.936  -0.525  0.0978 -0.3841  0.2410
  676MOL0     C93184   2.857   5.883  -0.538 -0.7285  0.4515 -0.2940
  676MOL0     C93185   2.833   5.770  -0.616 -0.5471 -0.5224 -0.5127
  676MOL0     O93186   2.702   5.723  -0.606 -0.4840  0.5150  0.9721
  676MOL0     C93187   2.667   5.612  -0.689 -0.0371 -0.6888  0.6799
  676MOL0     C93188   2.517   5.598  -0.661  0.0023 -0.3428  0.4669
  676MOL0     C93189   2.458   5.499  -0.754 -0.0767  0.0842  0.5405
  676MOL0     C93190   2.480   5.350  -0.719  0.5243 -0.0022  1.4235
  676MOL0     C93191   2.414   5.246  -0.820  0.1545 -0.2764  0.3489
  676MOL0     C93192   2.282   5.203  -0.770  0.1097 -0.0416  0.0796
  676MOL0     C93193   2.213   5.098  -0.857 -0.8416  0.0231 -0.6282
  676MOL0     C93194   2.293   4.985  -0.911  0.1357  0.1040  0.0850
  676MOL0    Cl93195   2.378   5.015  -1.070 -0.2457  0.4653  0.0134
  676MOL0     C93196   2.939   5.711  -0.683  0.3243 -0.4567 -0.4435
  676MOL0     C93197   3.075   5.763  -0.676 -0.8303 -0.3863  0.8999
  676MOL0     O93198   3.279   5.815  -0.395  0.5549  0.5065 -0.1543
  676MOL0     C93199   3.489   6.052  -0.431 -0.0149 -0.0247  0.7961
  676MOL0     C93200   3.620   6.105  -0.439  0.7304 -0.1971  0.3360
  676MOL0     N93201   4.253   6.494  -0.728 -0.0976  0.0455 -0.3625
  676MOL0     N93202   4.200   6.609  -0.744  0.7388 -0.1310  0.0810
  676MOL0     C93203   3.149   6.198  -0.230 -1.5763  0.3784  1.4286
  676MOL0     C93204   3.087   6.173  -0.108 -0.4887 -0.0858  0.5252
  676MOL0     C93205   2.871   6.126   0.256  0.2716 -0.6403  0.4810
  676MOL0     C93206   2.739   6.138   0.313  0.9512 -0.1215 -0.5506
  676MOL0     C93207   2.708   6.084   0.433  0.2059  0.2002  0.4409
  676MOL0     C93208   2.803   6.005   0.504  0.2158 -0.0333 -0.2474
  676MOL0     O93209   2.749   5.948   0.619 -0.4899  0.5264 -0.2840
  676MOL0     C93210   2.812   5.834   0.679 -0.6293 -0.1427 -0.1986
  676MOL0     C93211   2.831   5.713   0.578 -0.9541  0.0715  0.2820
  676MOL0     C93212   2.700   5.651   0.543 -0.3265  0.6890 -0.0382
  676MOL0     C93213   2.720   5.503   0.527 -0.1147  0.5289 -0.4011
  676MOL0     C93214   2.747   5.425   0.652 -1.6253  0.2307  0.3122
  676MOL0     C93215   2.762   5.369   0.756 -0.3835  1.5016  0.2666
  676MOL0     C93216   2.931   5.989   0.449  0.7449  0.6202 -0.3395
  676MOL0     C93217   2.970   6.061   0.335 -0.6415 -0.5535 -0.1756
  676MOL0     C93218   3.126   6.045   0.298  0.7197  0.3779 -0.9002
  676MOL0     H93219   3.107   6.488   0.026 -0.8819  2.8603 -3.5930
  676MOL0     H93220   3.205   6.533  -0.185 -0.6542  1.1018  0.8188
  676MOL0     H93221   3.428   6.446  -0.314 -2.2541  0.5927  2.8685
  676MOL0     H93222   3.305   6.548  -0.378  0.8970  1.5896 -1.2858
  676MOL0     H93223   3.472   6.346  -0.545  4.0823  1.1862 -0.5725
  676MOL0     H93224   3.353   6.455  -0.610 -0.4208  2.0824 -0.2577
  676MOL0     H93225   3.489   6.654  -0.526  0.2874  0.5609  0.4840
  676MOL0     H93226   3.610   6.534  -0.471 -0.9565  0.1704  0.1509
  676MOL0     H93227   3.647   6.455  -0.700 -1.6594 -1.7169 -0.0554
  676MOL0     H93228   3.515   6.541  -0.760  3.3301 -2.0183 -3.4639
  676MOL0     H93229   3.628   6.759  -0.686  0.0135  0.6575 -0.7125
  676MOL0     H93230   3.701   6.670  -0.817  2.9608 -0.6656  0.6291
  676MOL0     H93231   3.800   6.666  -0.530  4.8629  0.1922  0.4780
  676MOL0     H93232   3.882   6.571  -0.660 -0.7058 -1.4349  0.7516
  676MOL0     H93233   3.879   6.867  -0.647  2.4607  0.2706 -2.1510
  676MOL0     H93234   3.922   6.775  -0.785 -0.1778  0.6174 -0.8742
  676MOL0     H93235   4.113   6.834  -0.679 -1.2888  1.1498  0.6638
  676MOL0     H93236   4.083   6.791  -0.516  1.6114 -2.4344  0.6549
  676MOL0     H93237   4.063   6.500  -0.460 -2.6032 -0.7331 -2.3333
  676MOL0     H93238   4.296   6.322  -0.450  0.6722  1.1651 -0.5280
  676MOL0     H93239   4.318   6.243  -0.607  0.7403 -2.5462  2.9975
  676MOL0     H93240   4.190   6.098  -0.476  1.4375  0.2709 -1.1212
  676MOL0     H93241   4.078   6.228  -0.428  0.0574  2.1304 -0.3229
  676MOL0     H93242   4.027   6.242  -0.695  2.6790  1.3904 -0.5199
  676MOL0     H93243   4.128   6.102  -0.713 -0.2988 -0.5467  0.7505
  676MOL0     H93244   3.902   6.027  -0.694 -2.6364  1.4673  0.4088
  676MOL0     H93245   3.985   5.983  -0.544 -0.4348 -3.3057 -3.7958
  676MOL0     H93246   3.743   5.885  -0.658 -1.0731  0.4457 -0.4475
  676MOL0     H93247   3.410   5.771  -0.717  1.0044  3.1075 -2.4670
  676MOL0     H93248   3.508   5.659  -0.601  2.7480  0.9649  1.5250
  676MOL0     H93249   3.578   5.740  -0.736  3.8637  0.0336  3.9683
  676MOL0     H93250   2.998   6.020  -0.457  0.5629  2.2261 -2.8164
  676MOL0     H93251   2.768   5.929  -0.495  0.1768  1.3226  0.6791
  676MOL0     H93252   2.681   5.628  -0.796  1.8611 -3.3395  0.4217
  676MOL0     H93253   2.722   5.524  -0.653 -1.8173 -1.0127  2.8461
  676MOL0     H93254   2.497   5.575  -0.556 -0.4267  0.1227  0.4913
  676MOL0     H93255   2.476   5.699  -0.674 -0.7543 -0.9592 -2.8795
  676MOL0     H93256   2.486   5.521  -0.857 -1.9160  1.6762  0.3275
  676MOL0     H93257   2.349   5.511  -0.755 -0.0759  0.0760 -0.5006
  676MOL0     H93258   2.437   5.338  -0.619  0.5062  5.0360  2.2530
  676MOL0     H93259   2.588   5.333  -0.721  0.3980 -0.8247 -0.9820
  676MOL0     H93260   2.392   5.303  -0.911  1.4461  0.0799  0.2390
  676MOL0     H93261   2.475   5.159  -0.845 -1.2660 -1.7727  1.8285
  676MOL0     H93262   2.218   5.291  -0.761  0.3316  0.1631 -0.3127
  676MOL0     H93263   2.291   5.148  -0.676  1.0945 -0.7923 -0.4311
  676MOL0     H93264   2.175   5.157  -0.941 -1.0512  0.2482 -0.3762
  676MOL0     H93265   2.122   5.067  -0.803 -0.7183 -0.6453 -0.7876
  676MOL0     H93266   2.224   4.901  -0.922 -0.1327  0.5255 -1.7036
  676MOL0     H93267   2.371   4.963  -0.837  0.9532  2.5271  0.0441
  676MOL0     H93268   2.931   5.621  -0.743  0.4690  0.3857 -1.7746
  676MOL0     H93269   3.159   5.720  -0.729  1.3272  1.3459  2.7318
  676MOL0     H93270   3.415   6.106  -0.372 -0.5335 -0.4886  0.5803
  676MOL0     H93271   3.632   6.201  -0.390 -0.7494  0.8059 -1.1479
  676MOL0     H93272   3.151   6.118  -0.304 -0.0988  2.9857 -1.5888
  676MOL0     H93273   3.048   6.073  -0.094  0.8044 -0.8955 -1.2898
  676MOL0     H93274   2.666   6.187   0.249  1.2519  0.2014 -0.6482
  676MOL0     H93275   2.610   6.097   0.478  0.7849  0.7754  1.5977
  676MOL0     H93276   2.904   5.872   0.724 -0.9834  2.0298 -1.1762
  676MOL0     H93277   2.749   5.806   0.764 -3.0542 -2.4465 -2.5694
  676MOL0     H93278   2.906   5.644   0.618  1.6770 -0.2367 -4.4411
  676MOL0     H93279   2.866   5.737   0.477 -1.0333  0.0414  0.2478
  676MOL0     H93280   2.633   5.662   0.629 -1.1649 -1.8613 -0.2749
  676MOL0     H93281   2.669   5.694   0.447  0.5202  1.3059 -0.0416
  676MOL0     H93282   2.796   5.484   0.450 -0.3797 -1.5637 -0.2005
  676MOL0     H93283   2.625   5.476   0.480 -1.3439  0.9532  1.7052
  676MOL0     H93284   2.771   5.323   0.852  2.6443  2.0458  0.3118
  676MOL0     H93285   3.009   5.930   0.495  1.4010  2.0847  0.4742
  676MOL0     H93286   3.140   5.969   0.220  1.7961  1.6025 -1.9504
  676MOL0     H93287   3.169   6.145   0.297 -2.0462  1.8937  3.4064
  676MOL0     H93288   3.182   6.008   0.385 -0.7441  1.2708  0.4743
  677MOL0     O93289   2.476   4.255   2.113 -0.2956  0.1135 -0.9011
  677MOL0     C93290   2.565   4.345   2.111  0.3060  0.0059  0.1700
  677MOL0     O93291   2.627   4.394   2.001  0.3930  0.0020 -0.8488
  677MOL0     C93292   2.595   4.327   1.884  0.0039  0.1761  0.2758
  677MOL0     C93293   2.650   4.196   1.848 -0.0965  0.0601 -0.2024
  677MOL0     C93294   2.628   4.126   1.735 -0.7367 -0.2195 -0.2705
  677MOL0     C93295   2.545   4.191   1.641  0.1747 -0.2981 -0.2532
  677MOL0     O93296   2.524   4.138   1.518 -0.7986  0.2384  0.3901
  677MOL0     C93297   2.513   4.220   1.404 -0.0522 -1.2097  1.1555
  677MOL0     C93298   2.374   4.192   1.331  0.1721 -0.4167 -0.1578
  677MOL0     C93299   2.253   4.179   1.426 -0.6984  0.4855  0.5581
  677MOL0     C93300   2.120   4.148   1.343 -0.4594  0.9845  0.0556
  677MOL0     C93301   1.990   4.102   1.416  0.2195 -0.0736  0.3282
  677MOL0     C93302   1.946   4.207   1.519 -0.3354 -0.6946  0.1784
  677MOL0     C93303   1.817   4.162   1.593 -1.1374  0.2562  0.1202
  677MOL0     C93304   1.696   4.170   1.503 -0.0324  0.5672 -0.4460
  677MOL0     N93305   1.672   4.299   1.442 -0.3547  0.1692  0.4953
  677MOL0     C93306   1.686   4.421   1.504 -0.3401 -0.2712  0.2676
  677MOL0     C93307   1.691   4.515   1.401 -0.1985 -0.1651 -0.1892
  677MOL0     C93308   1.692   4.661   1.405 -1.1012  0.3641 -0.0823
  677MOL0     C93309   1.580   4.727   1.337  0.3099  0.5353  0.5575
  677MOL0     C93310   1.551   4.865   1.388 -0.4060 -0.3769 -0.3339
  677MOL0     C93311   1.425   4.923   1.339  0.2409  0.0164 -1.3048
  677MOL0     O93312   1.309   4.855   1.397  0.2800  0.7024 -0.7491
  677MOL0     C93313   1.184   4.862   1.337  0.0430  0.6653 -0.1333
  677MOL0     C93314   1.088   4.759   1.359 -0.3343  0.6369 -0.0164
  677MOL0     C93315   0.956   4.763   1.315 -0.2250 -0.4105  0.2032
  677MOL0     C93316   0.865   4.649   1.359 -0.2153 -0.6509 -0.1460
  677MOL0     C93317   0.925   4.866   1.223  0.6619 -0.4227 -0.3226
  677MOL0     C93318   0.785   4.891   1.173 -0.4332 -1.2014  0.4929
  677MOL0     O93319   0.687   4.826   1.233  0.3212  0.4272 -0.5350
  677MOL0     C93320   0.556   4.827   1.192 -0.9272 -0.3997  0.7139
  677MOL0     C93321   0.502   4.832   1.059 -0.4187 -0.2045  0.1899
  677MOL0     C93322   0.367   4.825   1.041 -0.4845  0.6476  1.0980
  677MOL0     C93323   0.277   4.813   1.148  0.6326 -0.3109  0.1434
  677MOL0     O93324   0.142   4.810   1.131  0.1898  0.2831 -0.2770
  677MOL0     C93325   0.082   4.893   1.034 -0.3359  0.5221 -0.0767
  677MOL0     C93326  -0.074   4.902   1.037 -0.2207 -0.5538  0.1649
  677MOL0     C93327  -0.130   4.983   0.921 -0.0583 -0.5936 -0.5581
  677MOL0     C93328  -0.269   4.947   0.896 -0.3305  0.0718  0.0247
  677MOL0     C93329  -0.332   5.037   0.798  0.2136 -0.0674  0.4627
  677MOL0     C93330  -0.491   5.009   0.793  0.0154 -0.8790  0.4490
  677MOL0     C93331  -0.537   5.070   0.652 -0.6385  0.5484  0.0552
  677MOL0     C93332  -0.685   5.068   0.677 -0.1009  1.0261  0.5832
  677MOL0    Cl93333  -0.732   5.213   0.771  0.3071  0.1834 -0.3354
  677MOL0     C93334   0.326   4.789   1.270 -0.1477  0.1536 -0.2170
  677MOL0     C93335   0.463   4.800   1.295  0.0313 -1.1620 -0.6876
  677MOL0     O93336   0.769   4.974   1.084  0.1822 -0.6818 -0.3871
  677MOL0     C93337   1.022   4.957   1.192 -0.2237 -0.0288  0.6474
  677MOL0     C93338   1.149   4.960   1.254  0.2897 -0.1296  0.5635
  677MOL0     N93339   1.667   4.442   1.285 -0.5972  0.1506  0.2860
  677MOL0     N93340   1.662   4.313   1.309  0.2181  1.2288  0.1527
  677MOL0     C93341   2.475   4.309   1.682 -0.7309  0.4161 -0.1312
  677MOL0     C93342   2.498   4.376   1.800 -0.2385 -0.7677 -0.0493
  677MOL0     C93343   2.617   4.405   2.243 -0.1630 -0.2212 -0.7488
  677MOL0     C93344   2.743   4.479   2.239 -0.0087 -0.0880 -0.1529
  677MOL0     C93345   2.800   4.525   2.355  0.6676  0.1907  0.5608
  677MOL0     C93346   2.734   4.524   2.486  0.1435  0.3651  0.4902
  677MOL0     O93347   2.764   4.593   2.596 -0.3501 -0.3423  0.8463
  677MOL0     C93348   2.897   4.662   2.600 -0.1200  0.0465 -0.0851
  677MOL0     C93349   2.908   4.753   2.712 -0.8425  0.3101 -0.4582
  677MOL0     C93350   2.969   4.701   2.840 -0.4157 -0.1866  0.2555
  677MOL0     C93351   2.932   4.791   2.961 -0.4490 -0.2293 -0.3984
  677MOL0     C93352   3.003   4.731   3.075 -0.1022  0.5233  0.1519
  677MOL0     C93353   3.051   4.681   3.177 -0.6496  0.0328  0.6659
  677MOL0     C93354   2.619   4.444   2.487 -0.2060  0.1527  0.7599
  677MOL0     C93355   2.562   4.384   2.368  0.7062  0.6828 -0.1613
  677MOL0     C93356   2.444   4.286   2.397  0.7228  0.2793 -0.0288
  677MOL0     H93357   2.707   4.150   1.928 -0.6095  0.0293  0.1521
  677MOL0     H93358   2.690   4.041   1.706  2.3217  1.2575  1.5218
  677MOL0     H93359   2.598   4.215   1.336 -2.0117 -1.4977 -1.4028
  677MOL0     H93360   2.513   4.317   1.455 -2.0767 -2.2035  3.2829
  677MOL0     H93361   2.369   4.270   1.255  2.0853  0.6274  0.7244
  677MOL0     H93362   2.388   4.094   1.284 -0.7806  0.3613 -2.2020
  677MOL0     H93363   2.270   4.097   1.497 -0.2922  0.3833  0.3469
  677MOL0     H93364   2.245   4.272   1.482  3.0117 -0.3045  2.7242
  677MOL0     H93365   2.105   4.232   1.275 -0.2904 -1.1570 -2.8299
  677MOL0     H93366   2.150   4.063   1.282 -0.4776  0.8615  0.2168
  677MOL0     H93367   2.013   4.012   1.474 -2.6439 -1.5057 -0.5850
  677MOL0     H93368   1.915   4.078   1.340 -0.0944  1.8242 -0.0231
  677MOL0     H93369   2.032   4.219   1.586  1.0439 -1.9755 -1.2524
  677MOL0     H93370   1.937   4.303   1.467  1.0413 -0.6510 -0.0299
  677MOL0     H93371   1.800   4.236   1.673  0.7931  4.1341 -2.7319
  677MOL0     H93372   1.826   4.061   1.635 -3.7928  0.3950  1.2859
  677MOL0     H93373   1.721   4.102   1.421  0.4501  0.9863 -0.6520
  677MOL0     H93374   1.603   4.135   1.547  0.1658  0.9696  0.3080
  677MOL0     H93375   1.689   4.428   1.613  2.8395 -3.4582  0.5737
  677MOL0     H93376   1.783   4.699   1.359  0.0262  0.6023  2.1916
  677MOL0     H93377   1.674   4.697   1.507 -2.6158  2.9054 -1.1524
  677MOL0     H93378   1.580   4.715   1.228 -0.4523  0.0008  0.6007
  677MOL0     H93379   1.494   4.669   1.373 -1.0986  2.4320  0.4055
  677MOL0     H93380   1.546   4.866   1.497 -3.3250 -1.5935 -0.3432
  677MOL0     H93381   1.626   4.933   1.348 -0.1895 -1.1056 -1.2005
  677MOL0     H93382   1.434   5.026   1.376  0.3646  0.7934 -3.3789
  677MOL0     H93383   1.424   4.933   1.230  0.1283  4.0308 -1.0933
  677MOL0     H93384   1.116   4.675   1.422  0.3186 -0.0053 -1.1367
  677MOL0     H93385   0.811   4.610   1.272 -1.0357  0.2554 -0.0637
  677MOL0     H93386   0.802   4.692   1.438 -1.2521  1.5146 -2.0237
  677MOL0     H93387   0.929   4.569   1.396 -1.7466 -0.8917  2.1851
  677MOL0     H93388   0.563   4.849   0.971  0.8623  0.5167  1.1801
  677MOL0     H93389   0.328   4.816   0.940  2.8189 -2.0908 -0.1363
  677MOL0     H93390   0.128   4.992   1.031 -1.4336  1.1339  1.6150
  677MOL0     H93391   0.107   4.841   0.941  3.7045  2.4855 -0.2761
  677MOL0     H93392  -0.123   4.804   1.039 -1.3627 -0.0608 -1.7091
  677MOL0     H93393  -0.101   4.955   1.129 -1.7384 -0.2060 -0.4581
  677MOL0     H93394  -0.065   4.968   0.834  1.7668  3.1500 -0.0285
  677MOL0     H93395  -0.118   5.090   0.936  2.2011 -0.8447 -0.2080
  677MOL0     H93396  -0.325   4.948   0.991  2.4242 -0.4056  1.7617
  677MOL0     H93397  -0.266   4.844   0.858  3.4940 -0.5990  1.7139
  677MOL0     H93398  -0.310   5.138   0.833  2.9483 -0.2980 -0.3648
  677MOL0     H93399  -0.287   5.022   0.699 -0.8568  0.8406 -0.1963
  677MOL0     H93400  -0.533   5.054   0.884  1.1504 -0.5409  0.8293
  677MOL0     H93401  -0.510   4.902   0.801 -0.1327 -0.8552  0.4116
  677MOL0     H93402  -0.500   5.008   0.570 -1.3356  1.4056 -0.9344
  677MOL0     H93403  -0.493   5.168   0.630 -2.8957  1.7949  0.6809
  677MOL0     H93404  -0.718   4.970   0.714 -0.4092  0.3295 -1.4066
  677MOL0     H93405  -0.733   5.074   0.578  0.3259 -2.5853  0.0022
  677MOL0     H93406   0.269   4.757   1.356  1.7417 -2.0094  0.3243
  677MOL0     H93407   0.510   4.789   1.392  0.7100  2.4610 -0.4508
  677MOL0     H93408   0.999   5.032   1.117  0.7906  0.8046  1.1565
  677MOL0     H93409   1.218   5.039   1.226 -1.0075  1.2777  1.1560
  677MOL0     H93410   2.409   4.370   1.621  0.4003  1.3089 -0.5196
  677MOL0     H93411   2.466   4.476   1.829  1.6672 -0.1796  0.1172
  677MOL0     H93412   2.791   4.507   2.146  2.4237 -1.9109  0.4690
  677MOL0     H93413   2.883   4.594   2.337  0.0445  0.5948 -0.8576
  677MOL0     H93414   2.978   4.589   2.612  0.0330 -0.4063 -3.1307
  677MOL0     H93415   2.927   4.716   2.510  1.3475 -1.3297 -0.4890
  677MOL0     H93416   2.812   4.791   2.750  0.1043  0.5458  1.8592
  677MOL0     H93417   2.974   4.833   2.677  1.6467 -2.5946 -2.8773
  677MOL0     H93418   2.948   4.594   2.849 -2.2824  0.1182 -0.2104
  677MOL0     H93419   3.078   4.710   2.829 -0.4523  0.4246  0.3680
  677MOL0     H93420   2.828   4.778   2.990  0.5018 -0.8053  3.2712
  677MOL0     H93421   2.953   4.897   2.946 -2.9960  0.5194  0.9367
  677MOL0     H93422   3.102   4.648   3.265  1.8331  0.2474 -0.6272
  677MOL0     H93423   2.573   4.450   2.585 -1.0405 -1.1974  0.4854
  677MOL0     H93424   2.453   4.192   2.341  0.5842  1.1967 -1.6723
  677MOL0     H93425   2.436   4.263   2.503 -0.1485  2.2493  0.3752
  677MOL0     H93426   2.348   4.328   2.366  1.1858  0.0397 -1.9670
  678MOL0     O93427   4.127   6.769   4.116 -0.2849 -0.4935 -0.3088
  678MOL0     C93428   4.167   6.850   4.201 -0.2393  0.1161  0.1212
  678MOL0     O93429   4.126   6.981   4.206 -0.8515  0.2278  0.6069
  678MOL0     C93430   4.047   7.040   4.107  0.0470 -0.2265  0.2231
  678MOL0     C93431   3.916   6.993   4.103  0.3456  0.6110  0.2483
  678MOL0     C93432   3.826   7.036   4.004  0.0607  0.1386 -0.9805
  678MOL0     C93433   3.864   7.132   3.913 -0.4451 -0.1625 -0.5388
  678MOL0     O93434   3.763   7.167   3.831  0.1869 -0.1872  0.9470
  678MOL0     C93435   3.749   7.311   3.795 -0.9443  0.7786 -0.6929
  678MOL0     C93436   3.602   7.330   3.773  0.1891 -0.0812 -0.2153
  678MOL0     C93437   3.562   7.467   3.821  0.0844  0.3133 -0.0225
  678MOL0     C93438   3.407   7.447   3.849  0.0740  0.0502 -0.4299
  678MOL0     C93439   3.315   7.438   3.733 -0.2859  0.2937  0.5579
  678MOL0     C93440   3.170   7.423   3.790 -0.8858  0.6272 -0.0832
  678MOL0     C93441   3.067   7.442   3.680 -0.1707  0.0416 -0.3966
  678MOL0     C93442   2.925   7.424   3.723  0.1508 -0.2158 -1.2552
  678MOL0     N93443   2.816   7.390   3.625  0.4822  0.5165  0.0392
  678MOL0     C93444   2.752   7.498   3.580  0.1676  0.6107  0.4574
  678MOL0     C93445   2.705   7.470   3.456 -1.0507 -0.1731 -0.6909
  678MOL0     C93446   2.643   7.558   3.354  0.7232 -0.5192  0.3717
  678MOL0     C93447   2.593   7.687   3.417  1.0279 -1.1075 -0.6604
  678MOL0     C93448   2.544   7.793   3.316  0.1228 -0.0834 -0.0445
  678MOL0     C93449   2.656   7.884   3.269 -0.1916  0.4097  1.0689
  678MOL0     O93450   2.712   7.812   3.161  0.0244  0.4388  0.7354
  678MOL0     C93451   2.793   7.881   3.075 -0.7411 -0.1222 -0.1725
  678MOL0     C93452   2.858   8.003   3.109 -0.5410 -0.5870 -0.2022
  678MOL0     C93453   2.943   8.077   3.018 -0.0955  0.2293 -0.3074
  678MOL0     C93454   3.006   8.201   3.086  0.4494 -0.8511  0.9649
  678MOL0     C93455   2.968   8.022   2.890 -0.4712 -0.5834 -0.4193
  678MOL0     C93456   3.077   8.089   2.797  0.2926 -0.1752 -0.1314
  678MOL0     O93457   3.108   8.014   2.683  0.2116 -1.2868  0.1363
  678MOL0     C93458   3.165   8.090   2.580 -0.2962 -1.3118 -0.0411
  678MOL0     C93459   3.087   8.146   2.486  0.0565 -0.5161 -0.1852
  678MOL0     C93460   3.143   8.200   2.367 -0.9477 -0.2001  0.8840
  678MOL0     C93461   3.283   8.185   2.332  0.8943 -0.2865 -0.2201
  678MOL0     O93462   3.326   8.212   2.202 -0.9370  0.1836  0.0932
  678MOL0     C93463   3.285   8.327   2.131 -0.3410  0.4832 -0.1959
  678MOL0     C93464   3.361   8.457   2.165  0.3960 -0.4766  0.7012
  678MOL0     C93465   3.517   8.454   2.168 -0.7554  0.1074 -0.1934
  678MOL0     C93466   3.568   8.437   2.031 -0.0630  0.2331 -0.8717
  678MOL0     C93467   3.720   8.456   2.017 -1.2599  0.2608 -0.1167
  678MOL0     C93468   3.794   8.396   1.900 -0.2199 -0.2413 -0.8489
  678MOL0     C93469   3.771   8.239   1.902 -0.1313 -0.4239 -0.1912
  678MOL0     C93470   3.873   8.165   1.819 -0.0662  0.1373 -0.1524
  678MOL0    Cl93471   4.051   8.170   1.879 -0.1655 -0.2479 -0.2064
  678MOL0     C93472   3.357   8.127   2.427  0.5552 -0.5700 -0.9255
  678MOL0     C93473   3.305   8.087   2.559  0.5639 -0.7685  0.2595
  678MOL0     O93474   3.143   8.188   2.829  0.1548  0.6012  0.1405
  678MOL0     C93475   2.910   7.905   2.847  0.9435  0.3499 -0.6749
  678MOL0     C93476   2.812   7.839   2.938 -0.2160  0.0416 -0.7262
  678MOL0     N93477   2.759   7.346   3.419 -0.7443 -0.6121  0.1949
  678MOL0     N93478   2.829   7.305   3.517 -0.5833 -0.9680 -0.2304
  678MOL0     C93479   3.997   7.187   3.926 -0.0088  0.3365  0.1447
  678MOL0     C93480   4.087   7.137   4.014  0.7379 -0.1020  0.0710
  678MOL0     C93481   4.258   6.805   4.307  0.2369 -0.8638 -0.1317
  678MOL0     C93482   4.229   6.854   4.435 -0.9067  0.2789 -0.1011
  678MOL0     C93483   4.308   6.805   4.545  0.8700 -0.1627  0.8812
  678MOL0     C93484   4.408   6.707   4.525  0.2857  0.1461 -0.0150
  678MOL0     O93485   4.468   6.651   4.629 -0.3813 -0.5120  0.1536
  678MOL0     C93486   4.386   6.580   4.733 -0.2557 -0.5584 -0.2255
  678MOL0     C93487   4.486   6.534   4.841 -0.6285  0.2138 -0.4277
  678MOL0     C93488   4.576   6.649   4.881  0.4851 -0.4145 -0.1181
  678MOL0     C93489   4.630   6.617   5.015  0.0236 -0.0907  0.9626
  678MOL0     C93490   4.680   6.737   5.084  0.0373 -0.0651  0.4454
  678MOL0     C93491   4.719   6.832   5.150 -0.6236 -0.5901  0.4170
  678MOL0     C93492   4.440   6.666   4.398  0.3667  0.6644  0.3674
  678MOL0     C93493   4.368   6.714   4.287  0.0980 -0.3950  0.3963
  678MOL0     C93494   4.407   6.665   4.146  0.1076  0.1731 -0.4897
  678MOL0     H93495   3.868   6.919   4.167 -2.4526  0.4941 -1.7948
  678MOL0     H93496   3.722   7.006   3.996  0.2587 -0.8461 -0.0042
  678MOL0     H93497   3.801   7.344   3.705  0.7543  0.9001  0.2979
  678MOL0     H93498   3.769   7.383   3.875 -0.5583  0.8918 -0.8883
  678MOL0     H93499   3.570   7.309   3.671  1.0562  3.0181 -1.2362
  678MOL0     H93500   3.561   7.257   3.843  0.7326  0.3118  0.5304
  678MOL0     H93501   3.603   7.501   3.917 -1.1690  0.6382  0.4139
  678MOL0     H93502   3.586   7.545   3.748 -0.7135  0.3660 -0.2400
  678MOL0     H93503   3.395   7.368   3.925 -2.6586  0.9090  0.1246
  678MOL0     H93504   3.391   7.535   3.911  2.1897  0.3882 -0.2918
  678MOL0     H93505   3.339   7.354   3.667  1.4352  1.0633  0.1682
  678MOL0     H93506   3.328   7.526   3.669  1.8141 -1.3432 -1.4200
  678MOL0     H93507   3.166   7.323   3.834  1.7243  1.0061  1.2349
  678MOL0     H93508   3.154   7.499   3.867  0.9599 -1.4930  2.5867
  678MOL0     H93509   3.095   7.371   3.602 -1.4257 -2.0589  0.9772
  678MOL0     H93510   3.083   7.543   3.641 -0.0751 -0.3764 -1.4815
  678MOL0     H93511   2.925   7.338   3.790  3.8585  0.0613 -0.6873
  678MOL0     H93512   2.899   7.512   3.783  1.5250 -1.8246  1.9308
  678MOL0     H93513   2.764   7.593   3.630  0.3843  1.7614 -1.6499
  678MOL0     H93514   2.554   7.507   3.315  0.6266  1.2619 -1.9671
  678MOL0     H93515   2.722   7.579   3.282  1.6294  0.0434  1.4915
  678MOL0     H93516   2.502   7.670   3.475  1.3023 -0.2661  0.0457
  678MOL0     H93517   2.671   7.719   3.487  1.0811 -1.5832 -0.5017
  678MOL0     H93518   2.498   7.750   3.227 -1.6528 -0.1196  0.8431
  678MOL0     H93519   2.473   7.867   3.356  0.8971  0.8787 -0.4253
  678MOL0     H93520   2.612   7.978   3.232 -1.0664 -0.2588  0.3623
  678MOL0     H93521   2.723   7.903   3.353  0.1564 -2.4255  1.5046
  678MOL0     H93522   2.860   8.029   3.214  0.7107 -1.6809  0.0715
  678MOL0     H93523   2.945   8.291   3.067 -0.9456 -1.6756  1.3864
  678MOL0     H93524   3.110   8.215   3.057  0.0185  1.5049  0.3101
  678MOL0     H93525   3.012   8.195   3.195 -0.0751 -1.0081  0.9901
  678MOL0     H93526   2.980   8.151   2.501  0.0780  0.5596 -0.2676
  678MOL0     H93527   3.074   8.249   2.301  0.1988  1.3102  0.7540
  678MOL0     H93528   3.314   8.303   2.028 -1.3892  1.0823 -0.6445
  678MOL0     H93529   3.176   8.336   2.132 -0.6191 -2.1298  0.0302
  678MOL0     H93530   3.332   8.525   2.085  1.7598 -0.7233 -0.0284
  678MOL0     H93531   3.327   8.494   2.263 -0.6986 -0.6617  0.4057
  678MOL0     H93532   3.557   8.371   2.227 -3.1357 -1.5910 -0.8210
  678MOL0     H93533   3.554   8.552   2.199  2.4008 -1.5938  1.9823
  678MOL0     H93534   3.517   8.501   1.958 -1.7828  0.2194  0.2632
  678MOL0     H93535   3.548   8.330   2.016 -0.8590  0.1166  0.7635
  678MOL0     H93536   3.739   8.564   2.009  1.1970 -0.2215 -3.3666
  678MOL0     H93537   3.774   8.446   2.111 -1.2620  1.1821 -0.0071
  678MOL0     H93538   3.900   8.423   1.903 -0.5176  0.9075 -0.1256
  678MOL0     H93539   3.755   8.436   1.806  1.8809 -1.4799 -2.3380
  678MOL0     H93540   3.674   8.216   1.857  0.2820 -2.0239 -0.3452
  678MOL0     H93541   3.767   8.197   2.003 -0.2410  1.6414  0.7117
  678MOL0     H93542   3.856   8.196   1.715  1.0991 -3.5706 -1.6425
  678MOL0     H93543   3.841   8.061   1.827  2.4871 -0.6085  1.5060
  678MOL0     H93544   3.464   8.123   2.407  0.7494 -0.4628  0.0444
  678MOL0     H93545   3.371   8.053   2.638 -1.0285 -2.4421  0.9508
  678MOL0     H93546   2.931   7.859   2.751  0.9062  0.0875 -0.5594
  678MOL0     H93547   2.762   7.750   2.900 -0.9581 -0.5248  1.4110
  678MOL0     H93548   4.042   7.262   3.863 -0.0207 -0.3071 -0.6552
  678MOL0     H93549   4.177   7.198   4.008  0.1631  0.6383 -1.8751
  678MOL0     H93550   4.144   6.917   4.460 -1.2642  0.6826 -2.1508
  678MOL0     H93551   4.275   6.848   4.638 -1.1633  1.9761 -0.7242
  678MOL0     H93552   4.306   6.644   4.772  0.6793 -0.7430  2.1579
  678MOL0     H93553   4.330   6.501   4.682  0.8468  0.2768 -2.8829
  678MOL0     H93554   4.551   6.454   4.804 -0.4785  0.0930  0.0870
  678MOL0     H93555   4.434   6.488   4.926  0.8320  0.0310  0.4058
  678MOL0     H93556   4.652   6.672   4.805  1.0870 -1.0119  0.2949
  678MOL0     H93557   4.517   6.740   4.894 -1.8918 -2.0140  0.9864
  678MOL0     H93558   4.716   6.554   4.988 -0.8373 -0.8400 -0.1364
  678MOL0     H93559   4.560   6.559   5.075 -2.5195  3.0169  1.2356
  678MOL0     H93560   4.760   6.900   5.222 -0.8211 -2.6259  2.5437
  678MOL0     H93561   4.523   6.597   4.381  0.5181  1.3810 -2.2887
  678MOL0     H93562   4.505   6.617   4.143 -0.7667 -1.6600 -0.8849
  678MOL0     H93563   4.329   6.598   4.109 -1.5543 -0.1767  3.2243
  678MOL0     H93564   4.413   6.747   4.073  1.3995 -0.3082 -0.9526
  679MOL0     O93565   8.086   6.661   1.745  0.0566  0.0374  0.7723
  679MOL0     C93566   8.140   6.761   1.702  0.0698 -0.4291 -0.2075
  679MOL0     O93567   8.248   6.820   1.764  0.3678  0.3417 -0.4215
  679MOL0     C93568   8.277   6.785   1.893 -0.4352 -0.0838 -0.1873
  679MOL0     C93569   8.200   6.799   2.012  0.2067  0.0111 -0.0228
  679MOL0     C93570   8.252   6.756   2.139 -0.2047 -0.0224  0.4839
  679MOL0     C93571   8.387   6.718   2.150  1.1747 -0.7082  0.2128
  679MOL0     O93572   8.438   6.688   2.264 -0.5758  0.0296 -0.5644
  679MOL0     C93573   8.501   6.551   2.264  0.0645 -0.1905 -0.5022
  679MOL0     C93574   8.520   6.482   2.408 -0.0861 -0.8165 -0.5244
  679MOL0     C93575   8.383   6.435   2.461  1.0026  0.1231 -0.2861
  679MOL0     C93576   8.394   6.375   2.599  1.0373  0.2847 -0.4530
  679MOL0     C93577   8.254   6.384   2.675  0.3627 -0.1114  0.8500
  679MOL0     C93578   8.121   6.353   2.600 -0.2806  0.4332 -0.7338
  679MOL0     C93579   8.098   6.203   2.598  0.0194  0.5495  0.1923
  679MOL0     C93580   7.959   6.159   2.567 -0.4344 -0.6011 -0.4784
  679MOL0     N93581   7.867   6.210   2.678 -0.5745  0.8788  0.3542
  679MOL0     C93582   7.849   6.158   2.799  0.2162  0.1924  0.0931
  679MOL0     C93583   7.749   6.217   2.857 -0.3610 -0.6299  0.6631
  679MOL0     C93584   7.686   6.181   2.991 -0.6675 -0.4517  0.0327
  679MOL0     C93585   7.605   6.288   3.067  0.2590 -0.3682  0.2649
  679MOL0     C93586   7.520   6.216   3.168  0.7908  0.1983  0.0215
  679MOL0     C93587   7.594   6.126   3.259 -0.4065 -0.2087 -0.0605
  679MOL0     O93588   7.502   6.079   3.369 -0.7713  0.8384  0.3637
  679MOL0     C93589   7.412   5.976   3.350  0.7683  0.2466 -0.0519
  679MOL0     C93590   7.309   5.967   3.442  0.2909  0.6857 -0.1926
  679MOL0     C93591   7.208   5.871   3.447  0.2562 -0.9677 -0.2042
  679MOL0     C93592   7.100   5.890   3.553 -1.1118 -0.4241  1.4663
  679MOL0     C93593   7.202   5.783   3.342 -1.0423  0.5477 -0.1368
  679MOL0     C93594   7.080   5.698   3.311 -0.8075  0.3701  0.0967
  679MOL0     O93595   7.111   5.584   3.242 -0.1645 -0.5613 -0.2393
  679MOL0     C93596   7.008   5.516   3.181 -0.1813 -0.5503  0.9358
  679MOL0     C93597   6.892   5.453   3.242 -1.2017 -0.1865 -0.2162
  679MOL0     C93598   6.786   5.389   3.179  0.4890 -0.0659  0.4309
  679MOL0     C93599   6.781   5.396   3.044  0.4995  0.7731 -0.2023
  679MOL0     O93600   6.673   5.342   2.978 -0.2437 -0.1742 -0.4045
  679MOL0     C93601   6.549   5.342   3.051  1.3768  0.0708 -0.3185
  679MOL0     C93602   6.445   5.289   2.960 -0.2995  0.4346 -0.4080
  679MOL0     C93603   6.299   5.297   3.018 -0.8598 -0.0494 -0.2203
  679MOL0     C93604   6.215   5.182   2.949  0.7746  0.3464 -0.7508
  679MOL0     C93605   6.073   5.185   2.994  0.2842  0.5019  0.6744
  679MOL0     C93606   5.996   5.063   2.928  0.0588  0.1152  0.7644
  679MOL0     C93607   5.863   5.046   2.987  0.8823  0.6394 -0.3453
  679MOL0     C93608   5.824   4.896   2.952  0.3705  0.0597  0.1191
  679MOL0    Cl93609   5.856   4.848   2.781 -0.4775  0.3822 -0.1566
  679MOL0     C93610   6.891   5.445   2.975 -0.7165 -0.5703  0.0916
  679MOL0     C93611   7.003   5.511   3.038 -0.2258  0.3285  0.0013
  679MOL0     O93612   6.968   5.733   3.351  0.9560  0.1735  0.3680
  679MOL0     C93613   7.308   5.777   3.251  0.1754  0.3277 -0.5159
  679MOL0     C93614   7.409   5.873   3.248  0.3468 -0.0328 -0.0834
  679MOL0     N93615   7.717   6.327   2.778  0.9605  0.4962  0.4970
  679MOL0     N93616   7.781   6.316   2.665 -0.5312 -0.3971  0.0547
  679MOL0     C93617   8.464   6.720   2.035  1.1524  0.8833 -0.2370
  679MOL0     C93618   8.411   6.750   1.908 -0.3928  0.4508 -0.4064
  679MOL0     C93619   8.096   6.824   1.571  0.3656  0.4836 -0.2914
  679MOL0     C93620   8.174   6.922   1.503  0.1242  0.1576  0.2429
  679MOL0     C93621   8.132   6.978   1.383  0.2392  0.9835  0.6798
  679MOL0     C93622   8.005   6.946   1.329  0.5782 -0.6517  0.4043
  679MOL0     O93623   7.973   7.024   1.219  0.2094 -0.5521  0.0668
  679MOL0     C93624   7.840   7.072   1.200  0.3964 -0.5126  0.6728
  679MOL0     C93625   7.761   6.997   1.097  0.0763 -0.1207  0.1842
  679MOL0     C93626   7.830   7.019   0.964  0.0552  0.0430 -0.0449
  679MOL0     C93627   7.736   7.000   0.844 -0.0848 -0.0866  0.2989
  679MOL0     C93628   7.679   7.130   0.814 -0.2488  0.3510  0.7281
  679MOL0     C93629   7.614   7.212   0.755 -0.2998  0.2528 -0.6270
  679MOL0     C93630   7.928   6.858   1.399  0.2283  0.2337  0.2069
  679MOL0     C93631   7.968   6.787   1.513 -0.2911  0.1573  0.3846
  679MOL0     C93632   7.881   6.672   1.559  0.0528 -0.4411  0.4951
  679MOL0     H93633   8.100   6.840   2.001  0.6405  1.6511  1.6450
  679MOL0     H93634   8.189   6.772   2.226 -1.2620  2.6246 -0.6529
  679MOL0     H93635   8.606   6.561   2.233  0.4967 -1.4958  0.4482
  679MOL0     H93636   8.442   6.485   2.201  0.2027 -0.8242  0.0213
  679MOL0     H93637   8.581   6.391   2.406  2.7589  0.8734  1.0061
  679MOL0     H93638   8.577   6.547   2.476  1.3370 -0.4260 -2.0247
  679MOL0     H93639   8.315   6.521   2.461  1.2563  0.3255 -0.5975
  679MOL0     H93640   8.339   6.360   2.395  0.2418 -0.8165  1.2250
  679MOL0     H93641   8.424   6.272   2.580 -1.5275 -1.1417  2.3740
  679MOL0     H93642   8.466   6.426   2.664  0.5599  1.9065 -1.1623
  679MOL0     H93643   8.247   6.489   2.707  0.5095  0.0723  0.2938
  679MOL0     H93644   8.268   6.312   2.756  0.6542 -1.6505 -0.5111
  679MOL0     H93645   8.037   6.398   2.654 -2.9793 -3.2194 -1.5308
  679MOL0     H93646   8.121   6.397   2.500  1.2240  2.6875  0.1640
  679MOL0     H93647   8.124   6.172   2.700 -1.7907  1.6542  1.0285
  679MOL0     H93648   8.175   6.168   2.529 -0.8984 -0.3586 -0.4031
  679MOL0     H93649   7.920   6.189   2.469 -1.4644  0.9202  0.3501
  679MOL0     H93650   7.959   6.050   2.566  2.3971 -0.6742 -0.7715
  679MOL0     H93651   7.896   6.066   2.833 -1.3872 -0.8817 -0.4750
  679MOL0     H93652   7.769   6.157   3.059  0.5366  0.2570 -1.1517
  679MOL0     H93653   7.620   6.094   2.985 -0.5524 -0.4968 -0.6425
  679MOL0     H93654   7.668   6.359   3.120  0.7404  1.3495 -2.4428
  679MOL0     H93655   7.547   6.349   2.998  2.5069  1.0123 -0.5018
  679MOL0     H93656   7.466   6.293   3.224  0.1877  1.1058 -1.7507
  679MOL0     H93657   7.444   6.153   3.120  1.0072 -0.7100  0.8258
  679MOL0     H93658   7.643   6.039   3.215  1.5077  0.8608 -0.1501
  679MOL0     H93659   7.670   6.194   3.297  1.6162 -1.3836 -1.8135
  679MOL0     H93660   7.306   6.042   3.521 -2.0959  1.4823 -0.9478
  679MOL0     H93661   7.135   5.964   3.625  0.2585 -2.4470  2.9827
  679MOL0     H93662   7.067   5.798   3.602  0.8077 -1.3313  1.1870
  679MOL0     H93663   7.014   5.936   3.503  0.2047  2.4718  1.6503
  679MOL0     H93664   6.896   5.476   3.348 -1.6152  2.0804 -0.6480
  679MOL0     H93665   6.702   5.369   3.244 -2.4075  3.7964 -1.6547
  679MOL0     H93666   6.548   5.274   3.137  1.5050  1.9347  1.2179
  679MOL0     H93667   6.505   5.438   3.079 -0.5916 -1.1694  1.0391
  679MOL0     H93668   6.447   5.347   2.867  0.3488 -1.0348 -1.3355
  679MOL0     H93669   6.469   5.189   2.924  1.9079  1.8474 -3.2964
  679MOL0     H93670   6.253   5.391   2.986  0.8366  0.5888 -0.9325
  679MOL0     H93671   6.272   5.286   3.123 -1.2666  0.9526 -0.2089
  679MOL0     H93672   6.267   5.089   2.974 -0.4453 -0.3327 -0.6959
  679MOL0     H93673   6.222   5.204   2.842 -1.5599  2.2006 -0.5976
  679MOL0     H93674   6.074   5.173   3.103  1.3773  0.3508  0.6607
  679MOL0     H93675   6.027   5.279   2.962 -3.2177 -1.2724  0.0384
  679MOL0     H93676   6.059   4.976   2.946  2.6948  0.9167 -3.1981
  679MOL0     H93677   5.983   5.072   2.819 -0.2137 -0.4596  0.7490
  679MOL0     H93678   5.796   5.124   2.951 -1.3075 -0.6214  0.8267
  679MOL0     H93679   5.858   5.038   3.096 -0.7720 -4.9747 -0.5390
  679MOL0     H93680   5.718   4.872   2.967 -0.4040  2.4857 -1.0125
  679MOL0     H93681   5.880   4.835   3.023  0.8549  1.8320  1.3361
  679MOL0     H93682   6.888   5.446   2.866 -0.2755 -2.9896  0.0003
  679MOL0     H93683   7.076   5.557   2.972  1.5767  1.0880  2.3625
  679MOL0     H93684   7.311   5.701   3.174 -1.3718 -1.7227  1.3478
  679MOL0     H93685   7.484   5.877   3.169 -0.7020  0.3136 -1.0907
  679MOL0     H93686   8.571   6.715   2.015  1.0958 -0.2605 -0.3294
  679MOL0     H93687   8.483   6.746   1.827 -0.0027  0.4826 -0.0635
  679MOL0     H93688   8.273   6.942   1.542  0.6905  0.4260 -1.2480
  679MOL0     H93689   8.194   7.054   1.337  0.7568  0.4919  0.5400
  679MOL0     H93690   7.786   7.079   1.295 -0.2836  0.8944  0.2175
  679MOL0     H93691   7.846   7.175   1.162 -0.7869 -1.2450 -1.6958
  679MOL0     H93692   7.662   7.041   1.082  1.7096  4.0878  0.3991
  679MOL0     H93693   7.755   6.890   1.120  1.0186  0.1339  1.8306
  679MOL0     H93694   7.872   7.120   0.963  1.5244 -0.5322  0.1085
  679MOL0     H93695   7.908   6.942   0.959 -0.9061 -0.9178 -0.8309
  679MOL0     H93696   7.655   6.929   0.862 -3.3890  4.1152  4.6266
  679MOL0     H93697   7.807   6.965   0.769  2.7802  5.0665  0.1120
  679MOL0     H93698   7.560   7.293   0.710 -0.0722  0.0710 -1.2400
  679MOL0     H93699   7.828   6.840   1.362  0.0261 -0.4695  1.0564
  679MOL0     H93700   7.843   6.699   1.658  1.7387  2.6792  0.4400
  679MOL0     H93701   7.802   6.637   1.493  1.5133 -2.4067 -0.3141
  679MOL0     H93702   7.943   6.583   1.571  2.1181  0.5942 -1.6401
  680MOL0     O93703   6.493   7.106   7.866 -0.0651  0.5160  0.1769
  680MOL0     C93704   6.536   7.138   7.978 -0.5260  0.3768  0.5943
  680MOL0     O93705   6.650   7.092   8.024 -0.4910  0.0141 -0.2223
  680MOL0     C93706   6.685   6.964   7.989  0.0305  0.3942  0.5050
  680MOL0     C93707   6.732   6.936   7.861 -0.0690  0.3228  0.1073
  680MOL0     C93708   6.768   6.810   7.819 -0.3957 -0.2434 -0.2196
  680MOL0     C93709   6.767   6.705   7.908  0.0987  0.4932 -0.3587
  680MOL0     O93710   6.818   6.588   7.859  0.5177  0.0208  0.2462
  680MOL0     C93711   6.858   6.479   7.947 -0.3013  0.4279 -1.2399
  680MOL0     C93712   6.925   6.365   7.868 -0.0459  0.9144  1.0799
  680MOL0     C93713   6.940   6.223   7.928  0.1540 -0.2936  0.4874
  680MOL0     C93714   7.031   6.128   7.851  0.1401 -0.1322 -0.5377
  680MOL0     C93715   7.061   5.994   7.912  0.2568  0.0265 -0.1828
  680MOL0     C93716   7.170   5.920   7.825  0.1597 -0.0592  0.0574
  680MOL0     C93717   7.158   5.767   7.851 -0.2390  0.2660  0.0984
  680MOL0     C93718   7.269   5.681   7.801  0.3363 -0.2386 -0.2890
  680MOL0     N93719   7.394   5.668   7.882 -0.1095 -0.0348  0.5730
  680MOL0     C93720   7.495   5.757   7.900  0.4261  0.0723 -0.5696
  680MOL0     C93721   7.570   5.699   7.995 -0.4878 -0.5694  0.6031
  680MOL0     C93722   7.697   5.747   8.056  0.3233  0.2871  0.6256
  680MOL0     C93723   7.676   5.857   8.160 -0.3126 -0.2145  0.1696
  680MOL0     C93724   7.814   5.918   8.204 -0.3467  0.6736 -0.3307
  680MOL0     C93725   7.803   5.997   8.333  1.1598 -0.4292  0.3578
  680MOL0     O93726   7.797   5.901   8.446  0.2283  0.0061 -0.1427
  680MOL0     C93727   7.866   5.931   8.561 -0.2619  1.0239 -0.5309
  680MOL0     C93728   7.922   6.050   8.608 -0.1833  0.0771  0.5312
  680MOL0     C93729   8.024   6.051   8.705 -0.3827  0.0596  0.7930
  680MOL0     C93730   8.077   6.186   8.736 -0.0812  0.7443 -0.2436
  680MOL0     C93731   8.056   5.933   8.776  0.3038 -0.7737  0.2294
  680MOL0     C93732   8.147   5.930   8.888  0.2690  0.4335 -0.7847
  680MOL0     O93733   8.202   5.799   8.917  0.0827  0.0619 -0.9174
  680MOL0     C93734   8.286   5.781   9.022 -0.4253 -0.5305 -0.0638
  680MOL0     C93735   8.248   5.680   9.109 -0.1800 -0.6731  1.1352
  680MOL0     C93736   8.321   5.653   9.220 -0.6699 -0.7473  0.3241
  680MOL0     C93737   8.432   5.725   9.249  0.4011  0.3354 -1.0427
  680MOL0     O93738   8.502   5.673   9.365  0.3421 -0.0850  0.5868
  680MOL0     C93739   8.630   5.721   9.392 -0.8614  0.2791  0.3910
  680MOL0     C93740   8.716   5.609   9.454  0.1763  0.2850  0.3472
  680MOL0     C93741   8.849   5.679   9.485 -0.0885 -0.1268 -0.3655
  680MOL0     C93742   8.964   5.618   9.410 -0.4281  0.0709 -0.3495
  680MOL0     C93743   9.094   5.697   9.432  0.1853  0.8239 -0.6755
  680MOL0     C93744   9.102   5.839   9.384 -0.2876 -0.1267 -0.0341
  680MOL0     C93745   9.041   5.866   9.242  0.5154 -0.1690 -0.2363
  680MOL0     C93746   9.093   5.999   9.181  0.5547 -0.7046 -0.1908
  680MOL0    Cl93747   9.054   6.131   9.295 -0.4861  0.3781  0.2396
  680MOL0     C93748   8.475   5.824   9.162  0.2824  0.0625  0.5193
  680MOL0     C93749   8.403   5.855   9.048 -0.1959 -0.0519  0.5003
  680MOL0     O93750   8.168   6.030   8.955  0.0354  0.6632 -0.1576
  680MOL0     C93751   7.984   5.819   8.737  0.0801 -0.2510  0.7883
  680MOL0     C93752   7.894   5.817   8.634 -0.6450  0.5781  0.5674
  680MOL0     N93753   7.516   5.580   8.026 -0.3958 -0.0474 -0.0430
  680MOL0     N93754   7.414   5.555   7.955 -0.6089  0.4670 -0.0316
  680MOL0     C93755   6.728   6.733   8.038  0.1877 -0.5261 -0.7346
  680MOL0     C93756   6.680   6.860   8.082  1.2127  0.6769  0.4325
  680MOL0     C93757   6.486   7.267   8.039  0.0586 -0.2313  0.4707
  680MOL0     C93758   6.451   7.376   7.955 -0.5867 -0.2061 -0.2613
  680MOL0     C93759   6.408   7.491   8.002  0.0205  0.0312  0.5221
  680MOL0     C93760   6.401   7.512   8.143 -0.5402  0.6395  0.4341
  680MOL0     O93761   6.374   7.632   8.198 -0.3963 -0.2435  0.3012
  680MOL0     C93762   6.421   7.750   8.131  0.9347 -0.8721 -0.9692
  680MOL0     C93763   6.321   7.867   8.166 -0.3447 -0.0539  0.2140
  680MOL0     C93764   6.195   7.848   8.080 -0.1818  0.6226  0.1258
  680MOL0     C93765   6.106   7.966   8.095 -0.1450  0.0014  0.2697
  680MOL0     C93766   6.010   7.982   7.984 -0.5305 -0.2847 -0.0815
  680MOL0     C93767   5.923   7.998   7.898 -1.2478  0.0619 -0.6100
  680MOL0     C93768   6.437   7.408   8.229 -0.0678  1.0238 -0.2155
  680MOL0     C93769   6.486   7.286   8.182  0.7768 -0.3036  0.8066
  680MOL0     C93770   6.526   7.177   8.285  0.9212 -0.5855  0.1979
  680MOL0     H93771   6.739   7.021   7.793  1.5838  0.2692  0.1734
  680MOL0     H93772   6.810   6.805   7.719 -0.9199 -0.1962 -0.4473
  680MOL0     H93773   6.772   6.438   8.002 -1.4917  0.0537 -3.2849
  680MOL0     H93774   6.934   6.515   8.017 -1.1751  0.7053 -0.4132
  680MOL0     H93775   6.853   6.365   7.787 -0.5377 -0.4892  1.4892
  680MOL0     H93776   7.019   6.398   7.821 -0.8912  0.9901 -0.6060
  680MOL0     H93777   6.992   6.219   8.025  2.6717  0.3919 -0.7299
  680MOL0     H93778   6.836   6.192   7.935  0.7248 -2.1746  1.1910
  680MOL0     H93779   6.996   6.100   7.751  2.6202  0.5459 -1.6677
  680MOL0     H93780   7.123   6.185   7.837  1.0588 -2.0002 -2.6435
  680MOL0     H93781   6.974   5.927   7.916 -0.7874  1.2448 -1.5226
  680MOL0     H93782   7.097   5.999   8.015  3.4958 -0.0158 -1.2190
  680MOL0     H93783   7.140   5.936   7.721 -1.8047  1.2954  0.7765
  680MOL0     H93784   7.274   5.952   7.828 -0.7403  3.1822  1.4364
  680MOL0     H93785   7.069   5.723   7.806 -0.1544  0.6655 -0.4718
  680MOL0     H93786   7.159   5.753   7.960 -0.1909  0.4647  0.1235
  680MOL0     H93787   7.237   5.577   7.790 -2.5197  0.4760  0.5092
  680MOL0     H93788   7.300   5.718   7.703  1.5078 -1.2223 -0.3091
  680MOL0     H93789   7.499   5.856   7.856 -2.3978  1.5482  2.1154
  680MOL0     H93790   7.759   5.782   7.973 -1.6756  2.6098  0.0031
  680MOL0     H93791   7.763   5.670   8.097 -0.5467 -0.6718  0.2623
  680MOL0     H93792   7.620   5.934   8.105  1.0964  0.7559  0.0405
  680MOL0     H93793   7.621   5.809   8.241 -1.8764 -3.2776 -2.4785
  680MOL0     H93794   7.894   5.845   8.220 -1.3501 -0.1237  1.3467
  680MOL0     H93795   7.849   5.981   8.122  0.0890  0.9434  0.0572
  680MOL0     H93796   7.887   6.065   8.351 -1.7310  2.5546  4.4061
  680MOL0     H93797   7.712   6.056   8.320 -0.0494 -1.6131  2.7746
  680MOL0     H93798   7.902   6.145   8.560  0.5502  0.1217  0.3034
  680MOL0     H93799   8.185   6.177   8.750 -0.2043  1.5747  1.5408
  680MOL0     H93800   8.027   6.225   8.825 -0.2798  2.0797 -0.9101
  680MOL0     H93801   8.071   6.264   8.660 -1.0638  1.6394  0.7120
  680MOL0     H93802   8.158   5.627   9.083 -0.2595  0.0015 -0.0702
  680MOL0     H93803   8.285   5.584   9.296 -1.3425 -0.1489  0.5644
  680MOL0     H93804   8.670   5.772   9.303 -2.0198  0.2428 -0.1688
  680MOL0     H93805   8.611   5.803   9.461 -0.2001 -0.1140  1.0630
  680MOL0     H93806   8.670   5.575   9.547  1.9401 -1.2668  0.7093
  680MOL0     H93807   8.728   5.522   9.388  0.6041  1.3510 -1.0482
  680MOL0     H93808   8.859   5.672   9.594 -0.6217 -1.6466 -0.3879
  680MOL0     H93809   8.846   5.786   9.462  2.1356  0.2148  0.6846
  680MOL0     H93810   8.942   5.625   9.303 -0.6021  3.3340 -0.2021
  680MOL0     H93811   8.977   5.518   9.452  0.1152  0.6373  0.8897
  680MOL0     H93812   9.112   5.698   9.540 -2.8511  1.2984 -0.1029
  680MOL0     H93813   9.171   5.639   9.380 -1.2797  1.2320 -3.5022
  680MOL0     H93814   9.210   5.857   9.382 -0.3820  0.4361 -0.1074
  680MOL0     H93815   9.042   5.907   9.445 -1.4856 -1.2114  0.0330
  680MOL0     H93816   8.933   5.867   9.252  0.6696 -0.8961  1.9067
  680MOL0     H93817   9.058   5.781   9.176  3.5508  1.9268 -2.4703
  680MOL0     H93818   9.037   6.043   9.098  1.9970  3.3639  0.7322
  680MOL0     H93819   9.200   5.999   9.155  0.4915 -1.2487 -0.4713
  680MOL0     H93820   8.565   5.881   9.181  2.7545 -3.9340  2.0416
  680MOL0     H93821   8.441   5.933   8.984 -1.1912  0.4828  0.5425
  680MOL0     H93822   7.999   5.726   8.790 -2.1403 -0.0862  1.8183
  680MOL0     H93823   7.851   5.720   8.612 -0.4623  0.2617  1.5574
  680MOL0     H93824   6.724   6.647   8.104  0.5862  1.4070  2.0144
  680MOL0     H93825   6.635   6.883   8.177 -0.0156  1.7980 -0.3778
  680MOL0     H93826   6.449   7.364   7.847 -1.0820 -3.7728  0.0333
  680MOL0     H93827   6.367   7.565   7.934 -0.3527  1.0324  1.7974
  680MOL0     H93828   6.517   7.776   8.176  0.6519 -0.7548 -0.4313
  680MOL0     H93829   6.432   7.748   8.022 -1.1511  1.3872 -1.2899
  680MOL0     H93830   6.365   7.963   8.138  1.0132 -1.2835 -2.2994
  680MOL0     H93831   6.288   7.859   8.270 -0.7901 -2.1564 -0.0361
  680MOL0     H93832   6.226   7.840   7.976  1.1230 -2.5795  0.6654
  680MOL0     H93833   6.142   7.755   8.101  3.0332 -1.9784 -2.2875
  680MOL0     H93834   6.176   8.049   8.088 -0.3683  0.0491 -2.5989
  680MOL0     H93835   6.057   7.955   8.192 -1.4712 -0.5998 -0.4405
  680MOL0     H93836   5.836   8.009   7.836 -2.4791  2.6696  1.4014
  680MOL0     H93837   6.437   7.438   8.333 -0.4388  3.2049 -0.7931
  680MOL0     H93838   6.634   7.190   8.295  0.8728 -0.1268  0.1387
  680MOL0     H93839   6.464   7.201   8.372 -0.8879 -0.2437 -1.1190
  680MOL0     H93840   6.513   7.079   8.239 -3.0445 -0.4922  0.7411
  681MOL0     O93841   1.126  11.379   2.518  0.1505 -0.2912 -0.1223
  681MOL0     C93842   1.076  11.290   2.443  0.4572  0.1294 -0.1419
  681MOL0     O93843   1.131  11.170   2.404  0.2883 -0.0757 -0.0484
  681MOL0     C93844   1.265  11.165   2.431 -0.2318  0.9049  0.6285
  681MOL0     C93845   1.317  11.054   2.491 -0.4560 -0.0864  0.4722
  681MOL0     C93846   1.454  11.036   2.512  0.0743 -0.6680 -0.6314
  681MOL0     C93847   1.546  11.136   2.475  0.2041  0.1908  0.3695
  681MOL0     O93848   1.679  11.145   2.505  0.1404  0.0922 -0.0839
  681MOL0     C93849   1.756  11.019   2.503  0.8467  0.1976 -0.6601
  681MOL0     C93850   1.874  11.057   2.593 -0.0920  0.2637 -0.1857
  681MOL0     C93851   1.970  11.156   2.535  0.3863  0.1879  0.6267
  681MOL0     C93852   2.111  11.114   2.584  0.0427 -0.6964  0.0195
  681MOL0     C93853   2.214  11.215   2.538  0.3953  0.0859 -0.1712
  681MOL0     C93854   2.350  11.205   2.621  0.3613 -0.4447  0.5960
  681MOL0     C93855   2.457  11.306   2.573 -0.2372 -0.5589 -0.5596
  681MOL0     C93856   2.430  11.448   2.626  0.1090 -0.1508  0.0334
  681MOL0     N93857   2.496  11.556   2.556 -0.3368  0.0414  0.1523
  681MOL0     C93858   2.631  11.584   2.572  0.1372  0.3371 -0.2658
  681MOL0     C93859   2.646  11.694   2.504 -0.9442 -0.9407  0.5046
  681MOL0     C93860   2.789  11.746   2.475 -0.0953 -0.7019  0.1736
  681MOL0     C93861   2.821  11.828   2.600  0.2633 -0.4630  0.2131
  681MOL0     C93862   2.964  11.885   2.584  1.3803  0.0939 -0.1762
  681MOL0     C93863   2.992  11.986   2.695  0.3346  0.5348  0.3652
  681MOL0     O93864   2.991  11.913   2.816  0.0906 -0.0174  0.4497
  681MOL0     C93865   3.082  11.953   2.907 -0.3546 -0.5911 -0.8641
  681MOL0     C93866   3.037  11.980   3.041  0.3528  0.8282  0.2001
  681MOL0     C93867   3.122  12.015   3.147 -1.0239  0.3818 -0.1315
  681MOL0     C93868   3.071  12.044   3.284 -0.3647  0.1357 -0.1484
  681MOL0     C93869   3.263  12.008   3.125 -0.4986 -0.9097 -1.0390
  681MOL0     C93870   3.364  12.077   3.221  0.8764  1.0637  1.4450
  681MOL0     O93871   3.438  12.184   3.177 -0.2290  0.4994  0.3557
  681MOL0     C93872   3.515  12.255   3.267 -0.2050  0.8433 -0.0134
  681MOL0     C93873   3.455  12.356   3.334 -0.2699 -0.1576 -0.2271
  681MOL0     C93874   3.529  12.443   3.406 -0.8335 -0.0154 -0.9935
  681MOL0     C93875   3.669  12.434   3.409 -0.2662  0.6392  0.6344
  681MOL0     O93876   3.744  12.530   3.479 -0.2924 -0.0282 -0.4472
  681MOL0     C93877   3.864  12.494   3.538 -0.0386 -0.4723  0.3503
  681MOL0     C93878   3.915  12.607   3.627  0.1597  0.2036  0.0717
  681MOL0     C93879   3.811  12.628   3.735 -0.8027 -0.9621 -0.5308
  681MOL0     C93880   3.842  12.752   3.826 -0.3859  0.6440 -0.2398
  681MOL0     C93881   3.750  12.755   3.951  0.8146 -0.1519  0.2074
  681MOL0     C93882   3.594  12.742   3.932 -0.1744 -0.8937  0.0557
  681MOL0     C93883   3.551  12.847   3.818  0.7858 -0.0481 -1.1473
  681MOL0     C93884   3.412  12.904   3.870 -0.8531 -0.4147  0.4389
  681MOL0    Cl93885   3.435  12.974   4.038 -0.1358 -0.1971 -0.2441
  681MOL0     C93886   3.729  12.320   3.351 -0.0235  0.3294  0.5455
  681MOL0     C93887   3.654  12.227   3.283 -0.5555 -0.6708  0.0875
  681MOL0     O93888   3.383  12.017   3.326 -0.0536 -0.6778  0.1957
  681MOL0     C93889   3.309  11.973   2.996  0.5278 -0.4008  0.2514
  681MOL0     C93890   3.220  11.949   2.895 -0.1364 -0.4573 -0.3784
  681MOL0     N93891   2.530  11.738   2.455 -0.1036 -0.1727 -0.2169
  681MOL0     N93892   2.439  11.656   2.486  0.8282  0.0137  0.1170
  681MOL0     C93893   1.486  11.246   2.401  0.4676 -0.3107 -0.0772
  681MOL0     C93894   1.351  11.258   2.365 -1.1383  0.1784  1.1176
  681MOL0     C93895   0.941  11.320   2.396 -0.1536  0.0341  0.4315
  681MOL0     C93896   0.857  11.212   2.363 -1.0396 -0.5352  0.7844
  681MOL0     C93897   0.722  11.222   2.324  0.5654  0.2135 -0.2188
  681MOL0     C93898   0.647  11.339   2.346  0.3203  0.5147 -0.2348
  681MOL0     O93899   0.517  11.343   2.308 -0.3002 -1.4246 -0.8829
  681MOL0     C93900   0.444  11.465   2.335 -0.2581  0.3457 -0.0423
  681MOL0     C93901   0.303  11.439   2.285 -0.7191 -0.2008 -0.8254
  681MOL0     C93902   0.202  11.549   2.331  0.6395 -0.0653  0.5744
  681MOL0     C93903   0.131  11.627   2.218 -1.6381 -0.2080  0.5830
  681MOL0     C93904   0.233  11.726   2.167  0.1908  0.4705  0.0941
  681MOL0     C93905   0.302  11.809   2.117 -0.8257 -0.2062  1.2004
  681MOL0     C93906   0.729  11.451   2.385 -0.2722  0.5144 -0.6980
  681MOL0     C93907   0.870  11.441   2.394  0.3009 -1.0201 -0.4346
  681MOL0     C93908   0.951  11.572   2.396  0.1784  0.3507  0.2037
  681MOL0     H93909   1.242  10.989   2.536 -1.7617  1.4025  0.5459
  681MOL0     H93910   1.492  10.952   2.569 -0.6060  0.0454  0.9157
  681MOL0     H93911   1.791  10.994   2.402  1.4738  0.4328 -0.5124
  681MOL0     H93912   1.704  10.935   2.549  0.2980  2.2039  2.7541
  681MOL0     H93913   1.834  11.086   2.691 -0.0794 -0.8251  0.1543
  681MOL0     H93914   1.931  10.965   2.608  0.5179  0.8114  0.9992
  681MOL0     H93915   1.972  11.161   2.426  1.6778  3.5385  0.6778
  681MOL0     H93916   1.946  11.253   2.581  0.1059 -0.2320  1.3825
  681MOL0     H93917   2.119  11.106   2.693  0.9385  2.8755  0.3563
  681MOL0     H93918   2.141  11.018   2.543  0.6420 -0.3682 -0.3275
  681MOL0     H93919   2.172  11.316   2.543  4.9443  2.3791 -2.2489
  681MOL0     H93920   2.230  11.193   2.432 -1.3654  0.7318 -0.6031
  681MOL0     H93921   2.346  11.224   2.729 -0.9062  0.1624  0.4555
  681MOL0     H93922   2.393  11.105   2.611 -0.5601 -0.8660  0.7380
  681MOL0     H93923   2.456  11.303   2.464 -0.8332 -1.7046 -0.5390
  681MOL0     H93924   2.553  11.278   2.618  0.0327  1.7882  0.4753
  681MOL0     H93925   2.322  11.469   2.630 -0.0014 -0.8055  1.1964
  681MOL0     H93926   2.463  11.438   2.730 -2.0434  0.5586  0.8449
  681MOL0     H93927   2.717  11.530   2.609 -0.9056 -0.5129  1.0198
  681MOL0     H93928   2.793  11.806   2.384  3.4751  1.3726  1.4516
  681MOL0     H93929   2.848  11.654   2.478 -2.1304 -2.0669  3.2616
  681MOL0     H93930   2.759  11.916   2.620  0.6077 -0.4581  1.3295
  681MOL0     H93931   2.828  11.758   2.684  1.6502 -1.7757 -0.9441
  681MOL0     H93932   3.034  11.802   2.600  0.7581 -0.3726  0.1812
  681MOL0     H93933   2.976  11.926   2.484 -3.4909  3.7113  0.3361
  681MOL0     H93934   3.088  12.035   2.679  0.8150  0.2605  2.1724
  681MOL0     H93935   2.918  12.066   2.700 -0.1585  0.2060 -1.1973
  681MOL0     H93936   2.932  11.961   3.063  0.6664 -2.1248 -0.4254
  681MOL0     H93937   3.068  11.952   3.344  3.5263 -1.2384 -1.6903
  681MOL0     H93938   2.967  12.076   3.288 -0.6737 -0.6170 -1.6268
  681MOL0     H93939   3.121  12.120   3.345 -0.5048  0.1125 -0.0047
  681MOL0     H93940   3.349  12.367   3.314 -0.6827 -1.7280  0.9198
  681MOL0     H93941   3.478  12.529   3.448 -0.0426  0.3617 -0.7914
  681MOL0     H93942   3.849  12.403   3.598  0.2341 -0.5301  0.3323
  681MOL0     H93943   3.941  12.468   3.464  0.7439 -0.4761  1.1456
  681MOL0     H93944   4.016  12.579   3.660  0.0561 -2.0649 -1.2741
  681MOL0     H93945   3.934  12.702   3.577 -0.0779  0.6156  0.7565
  681MOL0     H93946   3.812  12.539   3.799  2.6482 -1.3061 -0.9039
  681MOL0     H93947   3.713  12.651   3.693 -0.8452 -1.3312 -0.6392
  681MOL0     H93948   3.823  12.838   3.761 -3.3502  0.7921  0.6538
  681MOL0     H93949   3.941  12.752   3.871 -0.5636  1.8737  0.1853
  681MOL0     H93950   3.788  12.676   4.017  3.0393  1.6196  1.1737
  681MOL0     H93951   3.777  12.848   4.003  3.1107  0.7195 -2.3386
  681MOL0     H93952   3.548  12.753   4.031  0.2326  0.7285  0.0853
  681MOL0     H93953   3.571  12.642   3.894 -0.1419 -0.8661 -0.0355
  681MOL0     H93954   3.542  12.798   3.720 -0.2901 -1.9613 -0.1598
  681MOL0     H93955   3.618  12.932   3.805  0.4813  0.3486 -0.2243
  681MOL0     H93956   3.348  12.815   3.868  1.3237 -2.0658  0.3967
  681MOL0     H93957   3.384  12.978   3.796  2.7225  0.9378  0.2386
  681MOL0     H93958   3.837  12.314   3.356  0.0327  1.3001  0.7721
  681MOL0     H93959   3.696  12.140   3.234  1.8154  0.1117  0.6125
  681MOL0     H93960   3.413  11.973   2.967  0.2515 -3.4535 -1.0982
  681MOL0     H93961   3.262  11.929   2.798  0.2062  5.7816 -1.9517
  681MOL0     H93962   1.553  11.324   2.365  0.2551 -0.3877 -0.6453
  681MOL0     H93963   1.313  11.339   2.305 -2.7008 -0.5418  1.1054
  681MOL0     H93964   0.911  11.118   2.356  1.7714  1.0515 -0.3662
  681MOL0     H93965   0.663  11.134   2.305 -1.7624  0.8867  3.0524
  681MOL0     H93966   0.430  11.472   2.444 -1.8037 -1.6192 -0.0669
  681MOL0     H93967   0.498  11.551   2.294 -0.9953  1.1839  0.6934
  681MOL0     H93968   0.264  11.343   2.318 -1.5379 -0.7324 -3.1387
  681MOL0     H93969   0.309  11.437   2.176 -2.4750  0.6157 -0.9747
  681MOL0     H93970   0.134  11.503   2.403  0.3298  1.3588  1.2321
  681MOL0     H93971   0.255  11.621   2.394 -0.9432  2.3279 -0.6740
  681MOL0     H93972   0.037  11.667   2.256  0.2068  1.7679  3.4875
  681MOL0     H93973   0.103  11.559   2.137 -0.8644  1.4192 -1.1035
  681MOL0     H93974   0.359  11.891   2.076  0.7990 -0.4349  2.8760
  681MOL0     H93975   0.677  11.546   2.392 -3.3212 -0.9940 -0.9493
  681MOL0     H93976   1.046  11.569   2.342  0.3980  1.9763  0.4280
  681MOL0     H93977   0.898  11.655   2.348  0.7217 -0.1320 -1.2925
  681MOL0     H93978   0.963  11.594   2.503 -0.4263  0.3372  0.2746
  682MOL0     O93979   9.457   8.728   5.478  0.4205  0.4606  0.1311
  682MOL0     C93980   9.573   8.743   5.507 -0.9026  0.4558  1.0760
  682MOL0     O93981   9.630   8.871   5.516  0.7749 -0.3399 -0.2751
  682MOL0     C93982   9.574   8.989   5.468  0.1159 -0.1938 -0.7464
  682MOL0     C93983   9.510   9.010   5.343 -0.2778  1.7024  0.0865
  682MOL0     C93984   9.451   9.141   5.312 -0.5976 -1.4802  0.4013
  682MOL0     C93985   9.464   9.242   5.408  0.1050 -0.2586 -0.5683
  682MOL0     O93986   9.407   9.359   5.379  1.0977 -1.6085 -0.1691
  682MOL0     C93987   9.394   9.466   5.475  0.7412 -1.0247 -1.1505
  682MOL0     C93988   9.270   9.552   5.426 -0.0418 -0.4747 -1.5289
  682MOL0     C93989   9.130   9.500   5.467  0.1775  0.3241  0.0614
  682MOL0     C93990   9.020   9.603   5.426  1.6557 -0.0140 -0.6121
  682MOL0     C93991   8.870   9.561   5.475  0.7179 -0.8835 -0.1018
  682MOL0     C93992   8.782   9.662   5.397 -0.4690 -0.1782 -0.3447
  682MOL0     C93993   8.633   9.643   5.411  0.6311  0.1392 -0.1403
  682MOL0     C93994   8.560   9.740   5.318  0.2078 -0.0130  0.7396
  682MOL0     N93995   8.591   9.889   5.332 -0.0008  0.1098  1.0768
  682MOL0     C93996   8.622   9.958   5.447 -0.1382 -0.0328 -0.2434
  682MOL0     C93997   8.666  10.081   5.394 -0.4928 -0.1912 -0.4210
  682MOL0     C93998   8.714  10.200   5.476  0.2081  0.3351 -0.8078
  682MOL0     C93999   8.621  10.317   5.476  0.3353 -0.5897  0.7660
  682MOL0     C94000   8.669  10.433   5.391 -0.1707  0.3905 -0.4873
  682MOL0     C94001   8.676  10.397   5.243 -0.6965 -0.4917 -0.4934
  682MOL0     O94002   8.693  10.505   5.152  0.4958 -0.2878  0.5917
  682MOL0     C94003   8.721  10.469   5.022 -0.5759  0.1134 -0.3467
  682MOL0     C94004   8.722  10.339   4.970 -0.3321 -0.7495 -0.3528
  682MOL0     C94005   8.758  10.304   4.838  0.5365 -0.5449  0.1844
  682MOL0     C94006   8.733  10.159   4.776  0.3958  0.0775  0.3866
  682MOL0     C94007   8.813  10.410   4.756  0.3262  0.4579 -0.0281
  682MOL0     C94008   8.880  10.392   4.627 -0.6784  0.7882  0.2463
  682MOL0     O94009   8.931  10.500   4.562  0.2099  0.4823  0.5293
  682MOL0     C94010   9.013  10.465   4.462  0.7698  0.7307  1.0040
  682MOL0     C94011   8.959  10.476   4.330  0.0810  0.2145 -0.4046
  682MOL0     C94012   9.040  10.447   4.218  0.0884  0.5390  0.6608
  682MOL0     C94013   9.181  10.434   4.233  0.3123 -0.3006  1.4727
  682MOL0     O94014   9.277  10.421   4.137 -0.4733  0.0247 -0.5010
  682MOL0     C94015   9.250  10.490   4.007  0.5480  0.6058  0.0309
  682MOL0     C94016   9.273  10.639   4.024  0.3044 -0.0355  0.1338
  682MOL0     C94017   9.252  10.715   3.891  0.9034  0.1276 -0.1458
  682MOL0     C94018   9.392  10.758   3.842  0.3800  0.3332 -0.2314
  682MOL0     C94019   9.378  10.819   3.698 -0.0311  0.9855 -0.0314
  682MOL0     C94020   9.511  10.808   3.616  0.0400  0.3694  0.2017
  682MOL0     C94021   9.624  10.887   3.679  0.2191 -0.7392 -0.5978
  682MOL0     C94022   9.742  10.901   3.592  0.0185 -0.8814 -1.3263
  682MOL0    Cl94023   9.838  10.761   3.604  0.3703  0.3316  0.6006
  682MOL0     C94024   9.237  10.433   4.361 -0.0254  0.1814 -0.3983
  682MOL0     C94025   9.152  10.441   4.473 -0.3142 -0.0039 -0.0834
  682MOL0     O94026   8.888  10.273   4.586  0.5000  1.3063  0.0581
  682MOL0     C94027   8.819  10.544   4.811 -0.5909 -0.1488 -0.0972
  682MOL0     C94028   8.769  10.570   4.937  0.2164  0.2002  0.3551
  682MOL0     N94029   8.663  10.084   5.257 -0.1082 -0.0416 -0.1616
  682MOL0     N94030   8.620   9.964   5.220 -0.9830  0.3905  0.1616
  682MOL0     C94031   9.542   9.228   5.528  0.0345 -0.1255  1.0038
  682MOL0     C94032   9.590   9.098   5.552 -0.8959 -0.1326  0.7577
  682MOL0     C94033   9.652   8.628   5.567  0.1839 -1.0660  0.3317
  682MOL0     C94034   9.789   8.658   5.578 -0.8410  0.6438  0.3424
  682MOL0     C94035   9.875   8.565   5.635 -0.2869  0.2519  1.4270
  682MOL0     C94036   9.830   8.451   5.681  0.9529 -0.0839  0.3136
  682MOL0     O94037   9.917   8.367   5.740 -0.0078  0.1703  1.0399
  682MOL0     C94038   9.961   8.253   5.664 -0.2588 -0.2975 -0.5002
  682MOL0     C94039   9.979   8.139   5.765  0.7796  0.0048  0.2275
  682MOL0     C94040   9.857   8.056   5.799 -0.1431 -0.3836  0.2171
  682MOL0     C94041   9.885   7.952   5.916 -1.0382 -0.4800 -0.1970
  682MOL0     C94042   9.782   7.847   5.901 -0.5068 -0.7295 -0.0496
  682MOL0     C94043   9.690   7.774   5.891  0.1147 -0.3395  0.5685
  682MOL0     C94044   9.686   8.419   5.686 -0.4105  0.4218  0.2888
  682MOL0     C94045   9.599   8.504   5.618  0.1348  0.0779 -0.4263
  682MOL0     C94046   9.458   8.459   5.605  0.3633  0.7007 -0.1698
  682MOL0     H94047   9.510   8.926   5.275  1.0418 -2.0397  4.2370
  682MOL0     H94048   9.401   9.167   5.219 -0.0683  0.0106  0.4937
  682MOL0     H94049   9.484   9.524   5.451 -0.9149  0.7650 -3.4985
  682MOL0     H94050   9.389   9.432   5.579 -2.1556  0.2857 -0.7573
  682MOL0     H94051   9.277   9.655   5.462  1.8644 -0.9375 -0.4242
  682MOL0     H94052   9.265   9.556   5.317  0.7454  0.6627 -1.5421
  682MOL0     H94053   9.096   9.412   5.412 -2.0429  2.8170 -2.9037
  682MOL0     H94054   9.140   9.476   5.573 -1.2645 -2.2042 -0.3071
  682MOL0     H94055   9.041   9.707   5.452 -2.8573  0.7400  0.7794
  682MOL0     H94056   9.014   9.611   5.317 -2.9844  1.2601 -0.4503
  682MOL0     H94057   8.851   9.588   5.579 -0.3137  0.4781 -0.6112
  682MOL0     H94058   8.852   9.455   5.457  1.1958 -0.7890 -1.2326
  682MOL0     H94059   8.802   9.769   5.413 -1.7380  0.4886 -2.8080
  682MOL0     H94060   8.806   9.643   5.292  0.4445  0.5960 -0.2905
  682MOL0     H94061   8.602   9.651   5.516  0.5272  2.3579 -0.2948
  682MOL0     H94062   8.613   9.542   5.374  0.5370  0.7522 -1.8854
  682MOL0     H94063   8.573   9.700   5.217  0.6806  0.4764  0.6007
  682MOL0     H94064   8.451   9.731   5.317  0.3134 -1.7300  0.9190
  682MOL0     H94065   8.623   9.922   5.549 -0.1678 -1.3468 -0.6887
  682MOL0     H94066   8.809  10.229   5.429  0.2463 -0.3378 -1.1581
  682MOL0     H94067   8.730  10.179   5.582  0.3051  1.0963 -0.6631
  682MOL0     H94068   8.517  10.303   5.448  0.1794  0.5105  0.7437
  682MOL0     H94069   8.612  10.361   5.575  2.8521  1.3676  0.2278
  682MOL0     H94070   8.594  10.511   5.407 -0.2076  0.1490  0.5889
  682MOL0     H94071   8.768  10.460   5.429  1.3710 -2.0651 -2.4327
  682MOL0     H94072   8.762  10.330   5.231 -1.2622 -1.3358  0.0626
  682MOL0     H94073   8.589  10.336   5.217  0.3976 -0.8548 -3.6553
  682MOL0     H94074   8.687  10.263   5.040 -0.4668  0.6314  1.1228
  682MOL0     H94075   8.670  10.167   4.688  1.4043 -0.2898 -0.3829
  682MOL0     H94076   8.677  10.105   4.854  0.2201  1.2258  1.0910
  682MOL0     H94077   8.827  10.107   4.756  0.5847 -1.2552  3.9914
  682MOL0     H94078   8.855  10.506   4.318 -1.0552 -2.3480  1.9522
  682MOL0     H94079   9.000  10.436   4.118  0.5218  1.0998  0.4218
  682MOL0     H94080   9.326  10.460   3.934  1.5876  0.0556  1.2967
  682MOL0     H94081   9.153  10.464   3.963  2.3338 -0.6937 -3.5027
  682MOL0     H94082   9.222  10.685   4.109 -2.0058  0.4759 -1.4307
  682MOL0     H94083   9.379  10.648   4.051  0.6464 -0.0487 -1.1396
  682MOL0     H94084   9.191  10.804   3.903  0.9696  0.1448  0.0631
  682MOL0     H94085   9.201  10.656   3.814 -0.8946 -1.9416  2.4562
  682MOL0     H94086   9.447  10.665   3.825 -2.2380 -0.9543 -2.4299
  682MOL0     H94087   9.444  10.821   3.915  0.3970  1.4054 -1.1415
  682MOL0     H94088   9.302  10.767   3.638 -2.8084  0.2583  3.7244
  682MOL0     H94089   9.345  10.923   3.708 -1.4030  0.8290 -2.3004
  682MOL0     H94090   9.486  10.843   3.515 -0.2958 -0.8319 -0.1438
  682MOL0     H94091   9.535  10.703   3.601  1.3677  0.4002  1.9365
  682MOL0     H94092   9.663  10.858   3.777  1.7948 -1.6689 -1.4525
  682MOL0     H94093   9.587  10.988   3.700  0.4802 -1.2116  2.7601
  682MOL0     H94094   9.801  10.983   3.633 -1.6658  0.3661 -1.2773
  682MOL0     H94095   9.724  10.931   3.488 -1.3403  1.6546 -0.4554
  682MOL0     H94096   9.334  10.410   4.403 -2.1214 -1.8042  3.9980
  682MOL0     H94097   9.188  10.446   4.575  0.2214  1.0094 -0.2984
  682MOL0     H94098   8.856  10.625   4.750 -3.6575  2.0687  0.7648
  682MOL0     H94099   8.769  10.673   4.971  0.8719  1.0758 -2.1028
  682MOL0     H94100   9.542   9.314   5.594  2.6151  1.9268 -1.3804
  682MOL0     H94101   9.655   9.083   5.638  1.1010  0.0765 -0.6326
  682MOL0     H94102   9.822   8.758   5.550  1.2046 -0.3535 -1.0103
  682MOL0     H94103   9.980   8.595   5.630  0.4259 -1.8899 -4.0824
  682MOL0     H94104   9.899   8.228   5.578  1.3151 -1.8186 -1.2380
  682MOL0     H94105  10.055   8.285   5.618 -2.0401  1.6576 -3.0839
  682MOL0     H94106  10.020   8.185   5.855  2.4903  0.4697 -0.7490
  682MOL0     H94107  10.057   8.071   5.730  1.0941  0.2968  0.3513
  682MOL0     H94108   9.779   8.126   5.831 -0.4740 -1.3362  1.5872
  682MOL0     H94109   9.817   8.008   5.709 -1.4054  0.0559  0.5126
  682MOL0     H94110   9.881   7.991   6.018 -2.5445  0.0630 -0.4359
  682MOL0     H94111   9.989   7.922   5.902  0.1480  3.1622 -0.0838
  682MOL0     H94112   9.607   7.706   5.887 -0.5053  0.3445  1.4168
  682MOL0     H94113   9.647   8.332   5.739  0.8962  0.0203  0.6343
  682MOL0     H94114   9.387   8.502   5.676 -0.3495 -2.4546  1.1951
  682MOL0     H94115   9.435   8.464   5.498 -1.3019  2.8333  0.2211
  682MOL0     H94116   9.456   8.351   5.621 -0.2209  0.8062  0.5189
  683MOL0     O94117   7.540   3.016   3.426 -0.6153  0.4363 -0.0774
  683MOL0     C94118   7.462   2.947   3.363  0.7727  0.2065  0.3757
  683MOL0     O94119   7.477   2.911   3.234  0.3621  0.1331  1.0341
  683MOL0     C94120   7.595   2.967   3.174  0.0253  0.0714 -0.5148
  683MOL0     C94121   7.623   3.103   3.171  0.4947  0.0577 -0.6629
  683MOL0     C94122   7.741   3.154   3.129  0.0910  0.0618  0.2158
  683MOL0     C94123   7.831   3.064   3.065  0.3824  0.1989  0.6843
  683MOL0     O94124   7.940   3.126   3.012 -0.4377  0.1606  0.0764
  683MOL0     C94125   8.053   3.052   2.958 -0.7424 -0.3646  1.4474
  683MOL0     C94126   8.157   3.143   2.889  0.5203  0.2236  0.5873
  683MOL0     C94127   8.116   3.203   2.753  0.0893  0.1601 -0.5516
  683MOL0     C94128   8.235   3.288   2.698  0.2446  0.1547 -1.0860
  683MOL0     C94129   8.184   3.379   2.588  0.7709 -0.5806 -0.6367
  683MOL0     C94130   8.145   3.317   2.453 -0.1915  1.4789  0.0347
  683MOL0     C94131   8.262   3.222   2.417 -0.2526 -1.2487 -0.4026
  683MOL0     C94132   8.276   3.184   2.260 -0.1688  0.3054 -0.0862
  683MOL0     N94133   8.201   3.064   2.226  0.3433  0.1076  0.1298
  683MOL0     C94134   8.196   2.950   2.309  0.4417  0.3202  0.9874
  683MOL0     C94135   8.122   2.862   2.224 -0.3962  0.4698 -1.0690
  683MOL0     C94136   8.075   2.727   2.268  0.4298  0.4151  0.1813
  683MOL0     C94137   8.180   2.639   2.329 -0.2774 -0.5337 -0.3891
  683MOL0     C94138   8.143   2.494   2.317 -0.2629 -0.2500 -0.3461
  683MOL0     C94139   8.222   2.407   2.409 -0.2805 -0.3328 -0.1071
  683MOL0     O94140   8.163   2.437   2.533  0.2738 -0.6054 -0.2768
  683MOL0     C94141   8.208   2.367   2.634  0.0203 -0.0264 -0.5801
  683MOL0     C94142   8.152   2.391   2.762  0.3566  0.0543  1.1242
  683MOL0     C94143   8.178   2.308   2.872  0.8517 -0.1303  0.0694
  683MOL0     C94144   8.107   2.332   3.004  0.0916 -0.1397  0.0071
  683MOL0     C94145   8.245   2.189   2.856 -0.4617  0.5518  0.1685
  683MOL0     C94146   8.262   2.093   2.967 -0.7674  0.4274  0.4643
  683MOL0     O94147   8.314   2.147   3.082  0.1159 -0.6206  0.6611
  683MOL0     C94148   8.326   2.055   3.187  0.6067 -0.3750 -0.8009
  683MOL0     C94149   8.258   2.078   3.317 -0.9070 -0.0855  0.5263
  683MOL0     C94150   8.298   2.005   3.425 -0.0034  1.3514 -1.3177
  683MOL0     C94151   8.391   1.900   3.415 -0.9517  0.2507  0.6010
  683MOL0     O94152   8.438   1.821   3.516  0.6248 -0.5944 -0.1307
  683MOL0     C94153   8.419   1.868   3.649 -0.3327  0.1396 -0.0277
  683MOL0     C94154   8.494   1.781   3.752  0.2817 -0.2738  0.6561
  683MOL0     C94155   8.414   1.666   3.794 -0.4555  0.3173 -0.3568
  683MOL0     C94156   8.464   1.577   3.907 -0.3687 -0.1949 -0.0343
  683MOL0     C94157   8.364   1.469   3.952  0.3851  0.6831 -0.5299
  683MOL0     C94158   8.428   1.391   4.071 -0.9925 -0.7649  0.2159
  683MOL0     C94159   8.319   1.316   4.149  0.8943 -0.1021 -0.1102
  683MOL0     C94160   8.269   1.403   4.269 -0.0325 -0.0386 -0.1529
  683MOL0    Cl94161   8.142   1.328   4.372 -0.1527 -0.0183 -0.0898
  683MOL0     C94162   8.456   1.881   3.291 -0.3746  0.9447  0.3447
  683MOL0     C94163   8.416   1.953   3.173 -0.2624  0.9793 -0.0208
  683MOL0     O94164   8.251   1.972   2.936  0.4855  0.0604 -0.4337
  683MOL0     C94165   8.302   2.161   2.728 -0.8670  0.5530  0.4209
  683MOL0     C94166   8.285   2.247   2.621 -0.9504 -0.6009 -0.0262
  683MOL0     N94167   8.092   2.923   2.106  0.1364 -0.8284 -0.3517
  683MOL0     N94168   8.135   3.048   2.109 -0.3838  0.5641  0.2773
  683MOL0     C94169   7.799   2.926   3.056 -0.3576  0.7651 -0.2417
  683MOL0     C94170   7.690   2.878   3.119  0.8083 -0.6400 -0.2451
  683MOL0     C94171   7.352   2.883   3.449  0.0323  0.4676 -0.7082
  683MOL0     C94172   7.269   2.966   3.525 -0.4120 -0.4931  0.3841
  683MOL0     C94173   7.161   2.909   3.602 -0.2552 -0.6359  0.3739
  683MOL0     C94174   7.126   2.775   3.582 -0.0805 -0.5160 -0.4837
  683MOL0     O94175   7.016   2.729   3.654  0.4715 -0.2504  0.3636
  683MOL0     C94176   6.979   2.586   3.640  0.2679  0.2590  0.2824
  683MOL0     C94177   6.824   2.588   3.632  0.3086  0.9632  0.3946
  683MOL0     C94178   6.785   2.680   3.517  0.0750  0.1968 -0.0792
  683MOL0     C94179   6.635   2.657   3.479 -0.3113 -0.3560  0.2822
  683MOL0     C94180   6.586   2.754   3.383  0.1629 -0.3614  0.0813
  683MOL0     C94181   6.532   2.833   3.311 -0.0231 -1.0097 -0.0311
  683MOL0     C94182   7.209   2.697   3.504 -0.1814  0.2451  0.6559
  683MOL0     C94183   7.320   2.752   3.437  0.0176  0.6897  0.1016
  683MOL0     C94184   7.413   2.650   3.365  0.3043 -1.0523  0.1262
  683MOL0     H94185   7.551   3.172   3.215 -0.6375 -0.5983 -1.4330
  683MOL0     H94186   7.764   3.257   3.154 -2.0871  0.8444 -0.7692
  683MOL0     H94187   8.023   2.977   2.885 -0.6037 -0.7247  1.7576
  683MOL0     H94188   8.095   2.990   3.038 -1.5598 -2.6389  0.2061
  683MOL0     H94189   8.188   3.227   2.952 -0.0848  1.0280 -0.1520
  683MOL0     H94190   8.242   3.079   2.865 -0.9924 -1.2998 -0.9587
  683MOL0     H94191   8.103   3.122   2.680  2.7559 -1.2704  0.4001
  683MOL0     H94192   8.024   3.260   2.762 -0.4828 -0.3738 -2.6446
  683MOL0     H94193   8.270   3.349   2.781  0.0243  3.8830 -3.4778
  683MOL0     H94194   8.317   3.224   2.664  1.0484  0.5776 -0.0055
  683MOL0     H94195   8.254   3.461   2.572  0.9469  0.2393  3.3256
  683MOL0     H94196   8.093   3.424   2.627  0.7957 -2.5161  1.9551
  683MOL0     H94197   8.051   3.263   2.471 -0.3290  1.6027 -0.2959
  683MOL0     H94198   8.130   3.384   2.368  0.1684 -0.2859 -1.4858
  683MOL0     H94199   8.261   3.136   2.485 -2.2487 -0.7009  0.3246
  683MOL0     H94200   8.354   3.279   2.432 -0.9234 -0.5115  1.1534
  683MOL0     H94201   8.259   3.271   2.196  0.4419  0.9430  0.6163
  683MOL0     H94202   8.380   3.151   2.256 -1.1516 -3.1410 -2.2093
  683MOL0     H94203   8.227   2.935   2.412  0.0530  0.8316  1.1862
  683MOL0     H94204   8.040   2.684   2.173 -0.5477 -0.7909  1.0547
  683MOL0     H94205   7.978   2.728   2.318 -2.2792 -0.4041 -4.4093
  683MOL0     H94206   8.283   2.664   2.300 -0.6591  4.7935  1.6818
  683MOL0     H94207   8.179   2.660   2.436 -2.1762 -1.0235 -0.2898
  683MOL0     H94208   8.045   2.464   2.354  0.2552 -1.6022 -0.0081
  683MOL0     H94209   8.150   2.457   2.214 -3.1291  0.6218 -0.9309
  683MOL0     H94210   8.209   2.303   2.380  0.0989 -0.8870  1.5763
  683MOL0     H94211   8.328   2.436   2.407  0.0294 -1.3403  0.6935
  683MOL0     H94212   8.094   2.481   2.773 -2.7737 -1.4698 -1.3135
  683MOL0     H94213   8.179   2.343   3.085  0.1926 -2.9608  0.4124
  683MOL0     H94214   8.028   2.258   3.018 -1.7942  1.9563  1.1502
  683MOL0     H94215   8.050   2.425   2.995 -0.1284 -0.2953 -0.2691
  683MOL0     H94216   8.191   2.162   3.330 -0.6851  0.5629 -1.9409
  683MOL0     H94217   8.245   2.017   3.519  2.9172 -2.0270  1.0312
  683MOL0     H94218   8.432   1.976   3.655 -1.2357  0.2671 -0.2765
  683MOL0     H94219   8.313   1.853   3.672  0.0245 -2.6079  0.1620
  683MOL0     H94220   8.579   1.742   3.697  0.5496  2.3495 -1.0060
  683MOL0     H94221   8.516   1.844   3.839  0.2591 -0.7110  0.9798
  683MOL0     H94222   8.399   1.603   3.706  1.7805 -0.1476 -0.4498
  683MOL0     H94223   8.317   1.709   3.821 -1.2138 -1.1236 -0.6964
  683MOL0     H94224   8.465   1.636   3.999 -0.5503 -0.6653  0.2696
  683MOL0     H94225   8.563   1.534   3.893 -0.0552 -0.2834  2.1558
  683MOL0     H94226   8.261   1.491   3.983  0.2789 -0.1186 -0.2739
  683MOL0     H94227   8.350   1.393   3.874  1.2020  0.5652 -0.5722
  683MOL0     H94228   8.487   1.453   4.139 -0.5546 -1.4321  0.4620
  683MOL0     H94229   8.495   1.314   4.032 -1.8637 -0.7907 -1.2903
  683MOL0     H94230   8.350   1.219   4.186 -2.4409 -1.1520  0.3172
  683MOL0     H94231   8.228   1.297   4.091 -1.8499  4.6109  1.9930
  683MOL0     H94232   8.236   1.496   4.222 -2.4104 -1.1465 -0.8369
  683MOL0     H94233   8.353   1.427   4.335 -0.3417  2.3102 -0.5226
  683MOL0     H94234   8.535   1.807   3.285 -0.8293  0.5648 -3.3928
  683MOL0     H94235   8.461   1.926   3.078  2.2984  0.5562  1.2182
  683MOL0     H94236   8.356   2.068   2.711 -2.7663 -0.6935  0.8362
  683MOL0     H94237   8.338   2.218   2.531  1.3478  1.3285  0.6086
  683MOL0     H94238   7.863   2.854   3.006 -0.0226  0.5641  0.4490
  683MOL0     H94239   7.659   2.774   3.117  0.9366 -1.1364  5.9896
  683MOL0     H94240   7.277   3.074   3.521 -1.5273 -0.3615  1.2163
  683MOL0     H94241   7.111   2.968   3.678 -1.3052 -1.8296  0.6417
  683MOL0     H94242   7.015   2.526   3.555 -2.9321  1.2135 -1.9281
  683MOL0     H94243   7.003   2.520   3.724  2.1824  1.7755  0.9835
  683MOL0     H94244   6.778   2.634   3.720 -2.2792 -0.4411 -0.1360
  683MOL0     H94245   6.787   2.488   3.610 -0.8912  1.4463  0.1447
  683MOL0     H94246   6.807   2.786   3.535  0.4143  0.1852 -0.4091
  683MOL0     H94247   6.835   2.648   3.425 -0.5403 -2.6268  0.4888
  683MOL0     H94248   6.572   2.650   3.568  2.4592 -1.6028  2.3241
  683MOL0     H94249   6.624   2.563   3.424 -1.4230 -0.0374 -0.0655
  683MOL0     H94250   6.479   2.909   3.256  0.0842 -1.7987 -1.2543
  683MOL0     H94251   7.196   2.589   3.506 -1.4751  0.3854  2.5393
  683MOL0     H94252   7.519   2.672   3.376 -0.2330  1.8410  0.2149
  683MOL0     H94253   7.393   2.544   3.386  2.8427 -1.7833 -0.8509
  683MOL0     H94254   7.397   2.653   3.257 -5.4697 -0.9096  0.6759
  684MOL0     O94255   8.270  10.113  11.052 -0.4787  0.5209 -0.4558
  684MOL0     C94256   8.195  10.183  10.991 -0.2210 -0.4097  0.6360
  684MOL0     O94257   8.226  10.304  10.935  0.5530  0.0881  0.0183
  684MOL0     C94258   8.342  10.366  10.989  0.2485  0.5849 -0.7458
  684MOL0     C94259   8.337  10.474  11.077  0.0268 -1.0230 -1.1785
  684MOL0     C94260   8.450  10.544  11.118  0.3198  0.5084 -0.0692
  684MOL0     C94261   8.573  10.489  11.092  0.3506  0.1547  0.0767
  684MOL0     O94262   8.685  10.541  11.152 -0.0167 -0.0586  0.6024
  684MOL0     C94263   8.672  10.571  11.294 -0.6735  0.4028 -0.0932
  684MOL0     C94264   8.793  10.658  11.340  0.0770  0.0798 -0.0804
  684MOL0     C94265   8.792  10.670  11.489  0.2209 -0.2320 -0.5186
  684MOL0     C94266   8.882  10.781  11.540  0.0805 -0.0920  0.1787
  684MOL0     C94267   8.854  10.809  11.685  0.0821 -0.2340  0.1455
  684MOL0     C94268   8.953  10.924  11.742 -0.3094  0.3887 -0.5301
  684MOL0     C94269   8.891  10.984  11.877  0.8811  0.0172 -0.1092
  684MOL0     C94270   8.947  10.898  11.987  0.9521 -0.0736 -0.1333
  684MOL0     N94271   8.877  10.941  12.109  1.1013 -0.2966  0.1033
  684MOL0     C94272   8.853  10.852  12.213 -0.1736 -0.4354  0.9295
  684MOL0     C94273   8.823  10.940  12.317 -0.1425  0.0705  0.3593
  684MOL0     C94274   8.802  10.891  12.455  0.1279  0.6274  0.3137
  684MOL0     C94275   8.937  10.869  12.534 -0.3123  1.3661  0.5215
  684MOL0     C94276   8.927  10.854  12.684  0.0109  0.1261  0.4908
  684MOL0     C94277   8.873  10.718  12.728 -0.0282 -1.0312 -1.0592
  684MOL0     O94278   8.886  10.702  12.867  0.1614 -0.5337  0.8192
  684MOL0     C94279   8.777  10.743  12.942  0.4841  0.1119 -0.0343
  684MOL0     C94280   8.676  10.833  12.906 -0.0428 -0.0002 -0.2649
  684MOL0     C94281   8.577  10.870  12.998 -0.0206 -0.2036  0.0276
  684MOL0     C94282   8.468  10.951  12.939 -0.1616 -0.2206  1.0691
  684MOL0     C94283   8.575  10.814  13.132 -0.8586  0.4390  0.0298
  684MOL0     C94284   8.470  10.840  13.235 -1.1002  0.8513 -0.4262
  684MOL0     O94285   8.492  10.779  13.356 -0.3208  0.0731 -0.9910
  684MOL0     C94286   8.407  10.797  13.461 -0.0045 -0.5205  0.2187
  684MOL0     C94287   8.444  10.858  13.579 -0.0613  0.0989  0.6005
  684MOL0     C94288   8.340  10.902  13.671  0.0478  0.8473 -0.7884
  684MOL0     C94289   8.205  10.877  13.644 -0.2976  0.0959  0.0386
  684MOL0     O94290   8.107  10.937  13.722  0.1032 -0.0678  0.7441
  684MOL0     C94291   7.988  10.989  13.659 -0.6704  0.9709 -0.1274
  684MOL0     C94292   7.929  11.087  13.755  0.5428 -0.0287  0.2394
  684MOL0     C94293   7.936  11.049  13.900  0.1222 -0.1822  0.3921
  684MOL0     C94294   7.896  11.170  13.989 -0.0765 -0.2444 -0.0222
  684MOL0     C94295   7.992  11.289  13.989  0.4019  0.6543 -0.0381
  684MOL0     C94296   7.930  11.398  14.062  0.0841 -0.1689 -0.5303
  684MOL0     C94297   8.002  11.528  14.068  0.0480  0.4949 -0.2461
  684MOL0     C94298   8.155  11.533  14.091 -0.0065  0.1557 -0.4339
  684MOL0    Cl94299   8.200  11.453  14.243  0.1287 -0.2937  0.1962
  684MOL0     C94300   8.170  10.805  13.534  0.1613  0.0295  0.7824
  684MOL0     C94301   8.271  10.761  13.452  0.3526  0.5821  0.5352
  684MOL0     O94302   8.376  10.915  13.213  0.2218 -0.4145  0.0274
  684MOL0     C94303   8.685  10.727  13.169  0.3780  0.5314 -0.2904
  684MOL0     C94304   8.784  10.696  13.075  0.8022  1.0107  0.4849
  684MOL0     N94305   8.819  11.068  12.273 -0.2319  0.0133  0.4241
  684MOL0     N94306   8.848  11.070  12.148 -0.0849 -0.2815  0.6335
  684MOL0     C94307   8.582  10.374  11.009  0.0557 -1.3005 -0.0038
  684MOL0     C94308   8.463  10.312  10.959 -0.3296 -0.4572  0.7250
  684MOL0     C94309   8.051  10.132  10.967  0.0262 -1.0318 -0.5327
  684MOL0     C94310   7.966  10.213  10.892 -0.0634 -0.1745 -0.5615
  684MOL0     C94311   7.843  10.165  10.860 -0.0065 -0.0426  0.8307
  684MOL0     C94312   7.795  10.038  10.898 -0.2978  0.0208 -0.3385
  684MOL0     O94313   7.666   9.992  10.871  0.4140  0.9420  0.3620
  684MOL0     C94314   7.614  10.007  10.737  0.5346 -0.0272  0.5330
  684MOL0     C94315   7.498   9.901  10.725  0.4972  0.6159  1.0509
  684MOL0     C94316   7.550   9.760  10.735  0.1779 -0.1771 -0.8716
  684MOL0     C94317   7.454   9.656  10.784 -0.0373  0.0099 -0.9748
  684MOL0     C94318   7.390   9.695  10.917 -0.1858  0.5454  0.9240
  684MOL0     C94319   7.346   9.748  11.013  0.3810 -0.1679  0.1646
  684MOL0     C94320   7.881   9.959  10.972 -0.3023 -0.2896 -0.1848
  684MOL0     C94321   8.006  10.001  11.006 -0.1862 -0.2922 -0.0252
  684MOL0     C94322   8.095   9.909  11.090  0.0557 -0.5865 -0.3008
  684MOL0     H94323   8.245  10.521  11.109  0.5941 -0.7395  0.1075
  684MOL0     H94324   8.438  10.635  11.175 -1.5427 -1.5660  3.1475
  684MOL0     H94325   8.678  10.475  11.347  1.3027  0.3752 -0.2906
  684MOL0     H94326   8.571  10.609  11.310 -1.2626  0.3733 -3.1759
  684MOL0     H94327   8.884  10.602  11.317 -1.0546 -2.0467  0.2541
  684MOL0     H94328   8.783  10.754  11.289 -0.6109 -1.0207 -2.1341
  684MOL0     H94329   8.691  10.692  11.525  1.1337  1.8028  0.9860
  684MOL0     H94330   8.827  10.576  11.533 -2.3941 -0.3335  1.6357
  684MOL0     H94331   8.986  10.758  11.515 -0.7992 -0.4463 -3.9454
  684MOL0     H94332   8.852  10.874  11.491  0.8277 -0.5356 -1.1747
  684MOL0     H94333   8.863  10.726  11.756  1.3296  0.1554  0.4754
  684MOL0     H94334   8.750  10.841  11.695  1.2351  4.3451 -0.1748
  684MOL0     H94335   9.057  10.893  11.751  0.5565  3.2228  0.1810
  684MOL0     H94336   8.948  11.009  11.673 -1.1558 -0.8421 -2.0692
  684MOL0     H94337   8.782  10.976  11.872  0.8094 -0.4331  1.4644
  684MOL0     H94338   8.920  11.087  11.896 -1.9584  0.7024  1.0717
  684MOL0     H94339   8.937  10.792  11.961  1.5133 -0.5197  1.3584
  684MOL0     H94340   9.056  10.909  11.998  1.2060  0.3477 -2.6383
  684MOL0     H94341   8.871  10.745  12.223  6.4502  0.2357  0.5932
  684MOL0     H94342   8.750  10.795  12.448  0.3088  0.6209 -1.5689
  684MOL0     H94343   8.751  10.970  12.511 -0.1676  1.4958 -1.1173
  684MOL0     H94344   8.993  10.785  12.492 -1.2279 -1.2536  4.0294
  684MOL0     H94345   8.993  10.962  12.521  1.3430  0.3576  0.1546
  684MOL0     H94346   9.026  10.869  12.729 -1.5157  1.7022  3.5928
  684MOL0     H94347   8.870  10.930  12.738 -0.5490 -1.5218  2.3016
  684MOL0     H94348   8.766  10.717  12.704  0.2405  1.5647 -2.7080
  684MOL0     H94349   8.920  10.636  12.672 -2.3187 -2.1574 -1.4592
  684MOL0     H94350   8.670  10.886  12.811  2.0456  3.9573  1.5574
  684MOL0     H94351   8.371  10.903  12.953 -0.7005  0.8306  1.0026
  684MOL0     H94352   8.469  10.966  12.830  0.4341  0.2512  1.1316
  684MOL0     H94353   8.462  11.050  12.985  3.1307  0.2367  0.8093
  684MOL0     H94354   8.549  10.876  13.600  0.2248  0.9614 -1.3933
  684MOL0     H94355   8.351  10.968  13.756 -0.0854 -1.9552  1.5696
  684MOL0     H94356   7.988  11.033  13.559  0.6732 -0.6052 -0.8625
  684MOL0     H94357   7.919  10.905  13.653  1.7091 -1.7796  4.8314
  684MOL0     H94358   7.980  11.181  13.732 -0.6154  0.4577 -0.4303
  684MOL0     H94359   7.824  11.107  13.731  0.4984  0.5120  0.8643
  684MOL0     H94360   8.039  11.029  13.930  0.5546  2.2770  0.7921
  684MOL0     H94361   7.874  10.963  13.926 -0.7503  0.5379  0.7878
  684MOL0     H94362   7.897  11.133  14.092  0.8218 -0.0481  0.0509
  684MOL0     H94363   7.792  11.197  13.968  0.4391  1.1079 -0.9541
  684MOL0     H94364   8.086  11.260  14.037  0.1981 -1.2992 -0.7102
  684MOL0     H94365   8.011  11.312  13.884  1.7243 -0.4938 -0.0824
  684MOL0     H94366   7.901  11.355  14.158 -1.4229  2.8924  0.5301
  684MOL0     H94367   7.838  11.419  14.006  1.2731  3.3731 -1.4347
  684MOL0     H94368   7.961  11.583  14.153  0.4329 -3.4822  2.8042
  684MOL0     H94369   7.971  11.588  13.982 -1.4327  0.6326  0.3655
  684MOL0     H94370   8.192  11.636  14.085 -0.2592  0.3406  0.9516
  684MOL0     H94371   8.208  11.484  14.009  1.1954 -0.1390  0.4933
  684MOL0     H94372   8.066  10.792  13.506  0.3524  0.0946  0.0162
  684MOL0     H94373   8.232  10.715  13.362 -0.7700 -1.6032  2.0629
  684MOL0     H94374   8.689  10.678  13.266 -0.4593  0.7908 -0.1131
  684MOL0     H94375   8.867  10.629  13.092 -0.4963 -0.3284  1.8522
  684MOL0     H94376   8.686  10.346  10.993  1.0216  0.6690  2.1874
  684MOL0     H94377   8.483  10.225  10.898  0.4107  0.1848  0.0265
  684MOL0     H94378   7.990  10.316  10.868  0.8038  0.3575  2.2299
  684MOL0     H94379   7.777  10.236  10.812  1.6613  1.9872  1.3683
  684MOL0     H94380   7.575  10.109  10.729  0.6235 -0.0916 -1.0402
  684MOL0     H94381   7.693   9.993  10.664  1.1087  3.2617  0.3740
  684MOL0     H94382   7.446   9.919  10.630  0.9599 -0.7133  0.5269
  684MOL0     H94383   7.429   9.926  10.806  0.3557  1.5143  0.6660
  684MOL0     H94384   7.599   9.731  10.642  1.2821  0.1929 -0.4224
  684MOL0     H94385   7.632   9.771  10.807 -1.7810 -0.4765  1.5204
  684MOL0     H94386   7.511   9.563  10.778 -0.3953 -0.1741 -1.6241
  684MOL0     H94387   7.373   9.663  10.711  0.3950 -1.3773 -1.6087
  684MOL0     H94388   7.304   9.792  11.101 -0.2310 -2.1346  0.8874
  684MOL0     H94389   7.832   9.872  11.012 -2.2529  0.6133 -0.4978
  684MOL0     H94390   8.091   9.949  11.191  1.2607 -1.3325  0.0565
  684MOL0     H94391   8.064   9.804  11.084  0.5324 -0.8164  1.0884
  684MOL0     H94392   8.199   9.903  11.056  0.1225  1.1773 -0.5307
  685MOL0     O94393   5.338   4.636   7.718 -0.6807 -0.4685  1.0754
  685MOL0     C94394   5.355   4.743   7.786  0.3112 -0.7830  0.6696
  685MOL0     O94395   5.448   4.837   7.757 -0.1060  0.6708 -0.9097
  685MOL0     C94396   5.553   4.810   7.664  0.5853 -0.1351  0.0083
  685MOL0     C94397   5.569   4.914   7.571  0.4393  0.0964  0.6963
  685MOL0     C94398   5.668   4.905   7.471  0.3204 -0.9057  0.3194
  685MOL0     C94399   5.762   4.808   7.475  0.1506 -0.4876 -0.1719
  685MOL0     O94400   5.869   4.816   7.384  0.2562  0.5162  0.3577
  685MOL0     C94401   5.818   4.820   7.248  0.1892  0.8178  0.1522
  685MOL0     C94402   5.949   4.796   7.161 -0.2734  0.3809 -0.1887
  685MOL0     C94403   6.036   4.917   7.156  0.0690 -0.4029 -0.1687
  685MOL0     C94404   5.992   5.018   7.050  0.3661 -0.7517  0.2704
  685MOL0     C94405   6.059   5.001   6.911 -1.0266 -0.4623  0.1786
  685MOL0     C94406   6.041   5.114   6.804 -0.8911 -0.3097  0.5305
  685MOL0     C94407   5.895   5.165   6.802  0.4832  1.7487 -0.0775
  685MOL0     C94408   5.789   5.059   6.754  0.3299  0.6265  0.4340
  685MOL0     N94409   5.805   5.031   6.612 -0.7403  0.1213  0.0549
  685MOL0     C94410   5.890   4.943   6.557  0.2991  0.3060  0.1136
  685MOL0     C94411   5.886   4.970   6.426 -0.4349 -0.0298  0.2914
  685MOL0     C94412   5.994   4.909   6.341  0.0162 -0.0031 -0.0514
  685MOL0     C94413   6.060   5.020   6.261  0.3398  0.4056 -0.2060
  685MOL0     C94414   6.156   4.961   6.165 -0.4384 -0.6773 -0.2008
  685MOL0     C94415   6.212   5.062   6.063  0.0957  0.9117 -0.9289
  685MOL0     O94416   6.325   5.116   6.123  1.1586  0.1782  0.4959
  685MOL0     C94417   6.365   5.245   6.093  0.1362 -0.0907 -1.0774
  685MOL0     C94418   6.305   5.328   6.008 -0.0521  1.3429 -0.1820
  685MOL0     C94419   6.329   5.465   6.013 -0.5497  0.1485  0.1862
  685MOL0     C94420   6.242   5.558   5.932  0.7508 -0.0452  0.3178
  685MOL0     C94421   6.433   5.519   6.096  0.7326  1.0325 -0.6092
  685MOL0     C94422   6.479   5.661   6.086 -0.2192  0.5102  0.1861
  685MOL0     O94423   6.607   5.685   6.116  0.2675 -0.0665 -0.4868
  685MOL0     C94424   6.679   5.794   6.079  0.0349  0.3523 -0.0173
  685MOL0     C94425   6.749   5.872   6.174 -0.0349 -0.5666 -0.3094
  685MOL0     C94426   6.807   5.990   6.136 -0.3062 -0.4081  0.0659
  685MOL0     C94427   6.807   6.033   6.005  0.1661 -0.2473  0.9703
  685MOL0     O94428   6.850   6.158   5.980  0.2928 -0.5055  1.0311
  685MOL0     C94429   6.738   6.248   5.945 -0.1398  0.4431 -0.4588
  685MOL0     C94430   6.741   6.302   5.805 -0.6202  0.5258  0.3614
  685MOL0     C94431   6.866   6.373   5.767 -0.1022 -0.1541  0.0677
  685MOL0     C94432   6.877   6.426   5.628 -0.0533  0.0102  0.5872
  685MOL0     C94433   7.023   6.477   5.602 -0.3616  0.3073 -0.1725
  685MOL0     C94434   7.113   6.365   5.569 -0.8518  0.3260 -0.6919
  685MOL0     C94435   7.244   6.425   5.528 -0.9297  0.1465  0.9631
  685MOL0     C94436   7.361   6.329   5.489 -0.0330  0.0718  0.0002
  685MOL0    Cl94437   7.400   6.253   5.657 -0.2021 -0.2534  0.0453
  685MOL0     C94438   6.752   5.947   5.904 -0.7941 -0.4741  0.7095
  685MOL0     C94439   6.683   5.837   5.945  0.5917  1.7496 -0.1744
  685MOL0     O94440   6.397   5.752   6.073  0.2113 -0.1072 -0.1695
  685MOL0     C94441   6.503   5.424   6.170 -0.3394 -0.4335 -0.3422
  685MOL0     C94442   6.465   5.291   6.180  0.0949 -0.0041  0.6508
  685MOL0     N94443   5.800   5.078   6.399  0.6516  0.3798 -0.0353
  685MOL0     N94444   5.749   5.106   6.514  1.3339  0.3280 -0.7401
  685MOL0     C94445   5.760   4.716   7.581  1.2807  0.5159 -0.3748
  685MOL0     C94446   5.648   4.707   7.668  0.1213 -0.8334 -0.1592
  685MOL0     C94447   5.282   4.770   7.904  0.1767 -0.5118  0.0458
  685MOL0     C94448   5.208   4.890   7.924 -0.4368 -0.2917  0.8149
  685MOL0     C94449   5.123   4.910   8.029 -0.6026 -0.2388  0.4315
  685MOL0     C94450   5.109   4.814   8.128 -0.0225  0.4831 -0.0545
  685MOL0     O94451   5.026   4.812   8.234 -0.2839  0.2980 -0.3518
  685MOL0     C94452   4.908   4.902   8.240 -0.1617 -0.2010  0.8335
  685MOL0     C94453   4.947   5.024   8.319 -0.2888 -0.4542  0.3236
  685MOL0     C94454   4.979   4.987   8.467 -0.2193 -0.0306  0.3505
  685MOL0     C94455   5.068   5.091   8.533 -0.6221 -0.6630 -0.2468
  685MOL0     C94456   5.209   5.069   8.492 -0.3009 -0.2363  0.9690
  685MOL0     C94457   5.319   5.041   8.448 -0.8616 -0.4059  1.3669
  685MOL0     C94458   5.194   4.699   8.125  0.9520  0.4906  0.4899
  685MOL0     C94459   5.282   4.686   8.017 -0.1222  0.1938  0.2348
  685MOL0     C94460   5.370   4.564   8.021 -0.5397 -0.1932 -0.3961
  685MOL0     H94461   5.494   4.991   7.557  0.7506  0.6898  2.1123
  685MOL0     H94462   5.673   4.981   7.394 -0.1343 -1.7043 -0.5148
  685MOL0     H94463   5.768   4.916   7.232  4.1575  3.0999  0.2656
  685MOL0     H94464   5.744   4.740   7.234  1.9717 -0.8387 -0.2198
  685MOL0     H94465   6.012   4.714   7.199  3.2113  2.7641 -0.3385
  685MOL0     H94466   5.924   4.775   7.057 -0.7458 -0.5359  0.0960
  685MOL0     H94467   6.038   4.963   7.255  0.0512 -0.7734  0.0059
  685MOL0     H94468   6.141   4.895   7.136  0.4050  2.4063 -2.1130
  685MOL0     H94469   5.884   5.015   7.029  0.4084  2.0495 -0.7436
  685MOL0     H94470   6.022   5.116   7.087  3.3525 -0.6974 -1.9770
  685MOL0     H94471   6.022   4.905   6.874 -1.3062  0.4521 -2.0962
  685MOL0     H94472   6.168   4.994   6.918 -0.9210 -1.5847 -1.7465
  685MOL0     H94473   6.107   5.193   6.839  1.2733 -3.4589  4.2978
  685MOL0     H94474   6.075   5.076   6.707  0.4448  4.6534 -1.2078
  685MOL0     H94475   5.881   5.257   6.744 -0.3300 -0.0014 -2.8217
  685MOL0     H94476   5.865   5.187   6.905  0.0052 -2.7081  0.9397
  685MOL0     H94477   5.804   4.965   6.808  0.1672  0.5343  0.3228
  685MOL0     H94478   5.690   5.104   6.770  0.2425  0.4351  0.4364
  685MOL0     H94479   5.941   4.861   6.608  2.2701  0.8809 -0.8568
  685MOL0     H94480   5.959   4.836   6.267 -0.1771  1.0506 -1.0395
  685MOL0     H94481   6.070   4.865   6.406  0.7373  1.8521  0.4300
  685MOL0     H94482   5.990   5.084   6.205 -1.5954 -0.4460  1.1285
  685MOL0     H94483   6.108   5.094   6.326  1.3116 -0.5079  0.1298
  685MOL0     H94484   6.233   4.911   6.225 -0.1446  2.0176  1.8433
  685MOL0     H94485   6.118   4.871   6.115 -2.1499  0.4677 -1.0440
  685MOL0     H94486   6.245   5.009   5.974  1.4181  0.9360 -0.4719
  685MOL0     H94487   6.133   5.132   6.033  2.1947  2.6735 -2.6429
  685MOL0     H94488   6.224   5.287   5.949  0.5818  1.5995 -1.2555
  685MOL0     H94489   6.213   5.647   5.988  0.7011  0.9473 -1.2228
  685MOL0     H94490   6.155   5.496   5.910  1.8779 -2.0201  1.1523
  685MOL0     H94491   6.297   5.576   5.839  2.6811  0.0281  1.4268
  685MOL0     H94492   6.748   5.827   6.273 -2.7532  0.8339  0.3886
  685MOL0     H94493   6.844   6.054   6.216 -0.2316 -0.9368  0.4647
  685MOL0     H94494   6.638   6.208   5.959 -0.7443  1.6858 -1.0146
  685MOL0     H94495   6.752   6.336   6.009 -0.8438  0.5499 -0.4518
  685MOL0     H94496   6.732   6.217   5.738  0.2209  1.3392 -0.8160
  685MOL0     H94497   6.654   6.369   5.799  0.6763  2.4668  1.8587
  685MOL0     H94498   6.947   6.304   5.793  1.4026  1.1522 -0.9474
  685MOL0     H94499   6.876   6.453   5.841 -0.3700 -2.3272  2.5949
  685MOL0     H94500   6.808   6.511   5.629 -2.0633 -1.3975 -2.5668
  685MOL0     H94501   6.851   6.350   5.554 -4.5429  0.7959  1.0530
  685MOL0     H94502   7.029   6.550   5.520 -1.1547  1.4495  0.7614
  685MOL0     H94503   7.047   6.538   5.689 -0.8347  1.2303 -0.6749
  685MOL0     H94504   7.069   6.304   5.489  1.5542  0.9213 -2.6015
  685MOL0     H94505   7.124   6.295   5.652 -0.3050 -1.8566 -2.5018
  685MOL0     H94506   7.274   6.480   5.618 -1.4829 -1.6847  2.3298
  685MOL0     H94507   7.239   6.492   5.442 -2.0772  0.7647  1.4874
  685MOL0     H94508   7.453   6.380   5.458 -0.8484  1.0565 -0.8714
  685MOL0     H94509   7.333   6.259   5.411  0.9773 -0.5307  0.1587
  685MOL0     H94510   6.760   5.977   5.800  1.7170  0.2969  1.0529
  685MOL0     H94511   6.622   5.784   5.873 -1.6838 -2.2254  4.1341
  685MOL0     H94512   6.588   5.446   6.234 -1.8564 -2.0845  2.4169
  685MOL0     H94513   6.525   5.217   6.232 -1.4148 -0.6588  1.5145
  685MOL0     H94514   5.839   4.643   7.589  0.2861 -0.8615 -2.3035
  685MOL0     H94515   5.651   4.635   7.749 -1.5135 -0.8367 -0.0683
  685MOL0     H94516   5.211   4.963   7.844 -0.3246 -0.8153  0.3286
  685MOL0     H94517   5.058   4.997   8.025 -0.6597 -0.3206 -1.0591
  685MOL0     H94518   4.862   4.933   8.146  2.4168 -0.0108 -0.4737
  685MOL0     H94519   4.822   4.859   8.291 -1.8884 -1.5640 -2.8841
  685MOL0     H94520   4.867   5.098   8.320 -0.1881 -0.3404  0.1074
  685MOL0     H94521   5.038   5.071   8.281 -0.4437 -0.9568 -0.6847
  685MOL0     H94522   4.885   4.993   8.522  0.3033  2.7974  1.0836
  685MOL0     H94523   5.027   4.889   8.480 -1.0281 -0.0880  3.6450
  685MOL0     H94524   5.055   5.081   8.641  0.9068  1.8331  0.2673
  685MOL0     H94525   5.030   5.189   8.503  1.4054  0.3240  0.1949
  685MOL0     H94526   5.413   5.023   8.398 -1.5979  2.2407 -1.2744
  685MOL0     H94527   5.193   4.628   8.206 -0.4597 -0.8777 -0.6625
  685MOL0     H94528   5.380   4.507   7.928  0.6934  2.7859 -2.2180
  685MOL0     H94529   5.474   4.578   8.052 -0.6792 -0.4077  0.1869
  685MOL0     H94530   5.336   4.487   8.091 -0.3081 -1.0771 -1.2319
  686MOL0     O94531   8.257   6.366   7.044  0.4601  0.0598 -0.3049
  686MOL0     C94532   8.178   6.348   6.950 -0.8486  0.4916  0.7591
  686MOL0     O94533   8.051   6.370   6.955 -0.8409  0.1358 -0.2465
  686MOL0     C94534   8.009   6.435   7.069  0.2151  1.3367 -0.2293
  686MOL0     C94535   7.961   6.347   7.173  0.3897  0.4810 -0.1717
  686MOL0     C94536   7.917   6.396   7.295  0.5401 -1.1864 -0.4415
  686MOL0     C94537   7.932   6.531   7.326 -0.0160  0.7062  0.1578
  686MOL0     O94538   7.887   6.587   7.446 -0.0614 -0.2166 -0.4573
  686MOL0     C94539   7.993   6.613   7.533 -0.1797 -0.4503  0.1385
  686MOL0     C94540   7.947   6.725   7.633 -0.0752  0.4236  0.2086
  686MOL0     C94541   8.053   6.783   7.729 -0.4767 -0.7554  0.7082
  686MOL0     C94542   8.076   6.694   7.853  0.2028  0.4296 -0.5844
  686MOL0     C94543   8.208   6.729   7.916 -0.0714 -0.8297 -0.4263
  686MOL0     C94544   8.216   6.864   7.995  0.6095  0.0377 -0.1138
  686MOL0     C94545   8.347   6.867   8.082 -0.4790 -0.3168  0.6250
  686MOL0     C94546   8.345   6.760   8.187 -0.3065  0.5890  0.5328
  686MOL0     N94547   8.413   6.795   8.313 -0.2306  0.3923  0.4135
  686MOL0     C94548   8.540   6.807   8.340 -0.1372  0.1886  0.0807
  686MOL0     C94549   8.550   6.825   8.474  0.1491  1.0992  0.4125
  686MOL0     C94550   8.684   6.818   8.542  0.6630  0.6202  0.1432
  686MOL0     C94551   8.788   6.722   8.491 -0.1454  0.7883 -0.5309
  686MOL0     C94552   8.755   6.570   8.502 -0.3013 -0.4770 -1.2285
  686MOL0     C94553   8.820   6.492   8.396 -0.8009 -0.0532  0.2666
  686MOL0     O94554   8.964   6.495   8.407  0.0068 -0.6818  0.5878
  686MOL0     C94555   9.036   6.421   8.312  0.4309 -0.6794  0.2183
  686MOL0     C94556   9.178   6.435   8.316  0.8789  0.0710 -0.0656
  686MOL0     C94557   9.261   6.356   8.237  0.1534 -0.4104  0.2963
  686MOL0     C94558   9.411   6.368   8.238  0.2998 -0.1893  0.2256
  686MOL0     C94559   9.200   6.266   8.135 -0.3679 -0.1929 -0.0231
  686MOL0     C94560   9.273   6.174   8.034  1.1829 -0.1229 -1.1956
  686MOL0     O94561   9.198   6.102   7.950 -0.2217  0.0759 -0.0484
  686MOL0     C94562   9.252   5.996   7.878  0.9467  0.2837 -0.0876
  686MOL0     C94563   9.158   5.902   7.833  0.4171  0.1501  0.5009
  686MOL0     C94564   9.205   5.787   7.768 -0.5183 -1.3403 -0.1710
  686MOL0     C94565   9.344   5.766   7.728  0.9882 -0.1030  0.4518
  686MOL0     O94566   9.371   5.652   7.655 -0.3373 -0.5759  0.5821
  686MOL0     C94567   9.507   5.608   7.636 -0.7353 -0.9555 -0.1552
  686MOL0     C94568   9.511   5.487   7.546 -0.5534 -0.4620 -0.1764
  686MOL0     C94569   9.530   5.521   7.399  0.0075 -0.9010  0.4528
  686MOL0     C94570   9.551   5.390   7.327 -0.7571 -0.4532 -0.1522
  686MOL0     C94571   9.688   5.322   7.356  0.3391  0.3178  0.7169
  686MOL0     C94572   9.730   5.229   7.235 -0.0859  0.4592  0.7604
  686MOL0     C94573   9.837   5.127   7.280 -1.1723 -0.4085 -0.6870
  686MOL0     C94574   9.863   5.029   7.160 -0.3423 -0.3495  0.8989
  686MOL0    Cl94575   9.994   5.087   7.058 -0.3498 -0.5466  0.1342
  686MOL0     C94576   9.434   5.866   7.770 -0.0294 -0.5736 -0.3967
  686MOL0     C94577   9.388   5.982   7.836 -0.3088 -0.4684  0.3839
  686MOL0     O94578   9.396   6.163   8.042  0.3467 -0.6369  0.1738
  686MOL0     C94579   9.058   6.261   8.131  0.1531  0.3605  0.8920
  686MOL0     C94580   8.981   6.337   8.211  0.6864 -0.1536 -0.2719
  686MOL0     N94581   8.426   6.829   8.530  0.3763 -0.5565  0.4309
  686MOL0     N94582   8.352   6.810   8.430  0.0240 -0.4694  0.3894
  686MOL0     C94583   7.990   6.614   7.232 -0.6643  0.1366 -0.0611
  686MOL0     C94584   8.030   6.570   7.103 -0.3720 -1.1928 -0.5232
  686MOL0     C94585   8.242   6.294   6.825 -0.7246  0.2894  0.5467
  686MOL0     C94586   8.156   6.296   6.717  0.0855  0.2695 -0.8075
  686MOL0     C94587   8.190   6.252   6.591 -0.0371  0.2669  0.5999
  686MOL0     C94588   8.317   6.205   6.561  0.0971 -0.5261 -1.0162
  686MOL0     O94589   8.360   6.139   6.449 -0.4823  0.2099  0.6919
  686MOL0     C94590   8.259   6.111   6.347  0.4240  0.4232 -0.5098
  686MOL0     C94591   8.171   5.989   6.388 -0.7230  0.9664  0.0384
  686MOL0     C94592   8.140   5.895   6.263  0.7274  0.6846  0.0152
  686MOL0     C94593   8.054   5.963   6.148 -0.9944 -0.3990 -1.2213
  686MOL0     C94594   7.922   5.999   6.199  1.0407  0.0739  0.0652
  686MOL0     C94595   7.824   6.036   6.264 -0.8961  0.2963  0.2589
  686MOL0     C94596   8.404   6.203   6.669 -0.5300  0.2704 -0.3483
  686MOL0     C94597   8.371   6.249   6.798  0.4631 -0.1835 -0.5175
  686MOL0     C94598   8.474   6.238   6.910 -0.0154 -0.1183  0.3006
  686MOL0     H94599   7.959   6.239   7.159 -2.0948  0.7313 -2.6904
  686MOL0     H94600   7.876   6.329   7.370  0.3914 -0.8974 -0.2623
  686MOL0     H94601   8.077   6.662   7.484  0.2861 -2.2843 -0.9865
  686MOL0     H94602   8.016   6.515   7.576  1.2050  0.5781  1.9169
  686MOL0     H94603   7.901   6.805   7.575  1.1546 -0.3161 -1.9132
  686MOL0     H94604   7.870   6.674   7.691 -0.8249  1.4488  0.1334
  686MOL0     H94605   8.146   6.793   7.672 -2.4689  1.2627 -2.5418
  686MOL0     H94606   8.025   6.887   7.746 -0.0561 -0.3143 -1.0725
  686MOL0     H94607   7.990   6.712   7.918  1.0933  3.5195 -0.1058
  686MOL0     H94608   8.071   6.589   7.822 -0.5404 -0.0041  0.9297
  686MOL0     H94609   8.288   6.732   7.841  2.1005 -0.1198  1.7628
  686MOL0     H94610   8.229   6.648   7.987  3.5771 -1.1183 -1.6040
  686MOL0     H94611   8.225   6.944   7.920 -1.3404  0.1211 -0.2976
  686MOL0     H94612   8.130   6.874   8.062  2.3459  1.5596  2.0299
  686MOL0     H94613   8.346   6.963   8.134 -0.8246  0.7626 -1.2804
  686MOL0     H94614   8.436   6.875   8.019  0.2038  1.7136  1.7354
  686MOL0     H94615   8.238   6.738   8.196  0.2892 -2.2322  2.0109
  686MOL0     H94616   8.400   6.670   8.157 -0.6925 -0.4950  2.8290
  686MOL0     H94617   8.629   6.796   8.277 -0.7561 -1.1701 -0.5989
  686MOL0     H94618   8.670   6.808   8.650 -3.9774 -2.7982 -0.4582
  686MOL0     H94619   8.725   6.918   8.525  1.5142  0.2285 -0.1674
  686MOL0     H94620   8.819   6.760   8.394  0.1047  0.4521 -0.5844
  686MOL0     H94621   8.883   6.735   8.544  0.8879 -4.0795 -0.7560
  686MOL0     H94622   8.795   6.534   8.597  0.8749 -1.2982 -2.0019
  686MOL0     H94623   8.648   6.551   8.485 -0.9752  0.7666  1.2698
  686MOL0     H94624   8.780   6.391   8.403 -2.8525  0.6022 -1.0778
  686MOL0     H94625   8.783   6.525   8.299 -1.3671  2.1449  1.1624
  686MOL0     H94626   9.221   6.498   8.393  0.6288  0.2168 -0.0451
  686MOL0     H94627   9.454   6.268   8.235 -3.4959 -1.9768  0.7289
  686MOL0     H94628   9.448   6.405   8.335 -2.0630 -1.6296  1.7734
  686MOL0     H94629   9.434   6.437   8.156 -1.7941  0.2160 -0.0691
  686MOL0     H94630   9.055   5.908   7.865  1.3345 -2.4102  4.7126
  686MOL0     H94631   9.135   5.712   7.733  0.8688 -2.5106 -0.5734
  686MOL0     H94632   9.552   5.697   7.592 -2.3861  1.7851  3.2269
  686MOL0     H94633   9.551   5.587   7.734  3.2976  0.0622 -1.5569
  686MOL0     H94634   9.598   5.426   7.572  1.6899  1.8007 -1.9466
  686MOL0     H94635   9.415   5.436   7.557 -0.4655 -1.5830 -3.5375
  686MOL0     H94636   9.606   5.598   7.380 -2.0393  0.5892 -2.5801
  686MOL0     H94637   9.444   5.581   7.367  1.1532  1.6454  1.8309
  686MOL0     H94638   9.548   5.424   7.223 -0.0794 -1.5237 -0.5447
  686MOL0     H94639   9.475   5.311   7.330 -0.2785 -1.4523 -5.0253
  686MOL0     H94640   9.764   5.400   7.363 -1.7890  2.8828 -1.9809
  686MOL0     H94641   9.686   5.264   7.448  0.9128 -0.4812  0.2274
  686MOL0     H94642   9.764   5.292   7.152 -1.7322  2.2333  1.3445
  686MOL0     H94643   9.641   5.177   7.199  0.6183 -0.1054 -0.2177
  686MOL0     H94644   9.799   5.068   7.363 -2.2671 -1.6869 -2.0291
  686MOL0     H94645   9.929   5.178   7.310 -0.1920 -1.9951 -0.9089
  686MOL0     H94646   9.774   5.007   7.101  1.4967 -1.7802 -1.5716
  686MOL0     H94647   9.893   4.928   7.190 -0.2826 -0.6336 -0.0623
  686MOL0     H94648   9.531   5.856   7.723 -0.0296 -1.7323 -0.1694
  686MOL0     H94649   9.472   6.050   7.845  0.3849 -1.3865  1.1074
  686MOL0     H94650   9.008   6.209   8.050  1.3944  0.1479  0.2511
  686MOL0     H94651   8.874   6.324   8.197 -0.0520  4.2424 -0.0434
  686MOL0     H94652   8.002   6.721   7.246 -2.1878  0.1258  1.7314
  686MOL0     H94653   8.072   6.639   7.030  0.4399 -2.2156 -1.0546
  686MOL0     H94654   8.051   6.324   6.720 -0.2393 -0.8209 -1.5058
  686MOL0     H94655   8.118   6.243   6.511 -0.6842  0.4990  1.1492
  686MOL0     H94656   8.201   6.197   6.315  0.7861  0.3650 -1.3363
  686MOL0     H94657   8.306   6.063   6.261 -0.2523  0.0486 -0.6787
  686MOL0     H94658   8.079   6.031   6.430 -0.8394  0.0139  0.7523
  686MOL0     H94659   8.223   5.944   6.472 -0.3855  1.1035 -0.0957
  686MOL0     H94660   8.229   5.863   6.209  0.3133 -1.8209  0.6771
  686MOL0     H94661   8.081   5.810   6.300  0.5767  0.4055 -0.8607
  686MOL0     H94662   8.033   5.879   6.081 -0.0254 -0.4139 -1.5202
  686MOL0     H94663   8.091   6.051   6.093 -0.6837  0.8749  0.9253
  686MOL0     H94664   7.743   6.067   6.326  0.8544  0.0500  2.8270
  686MOL0     H94665   8.509   6.180   6.657  0.1137 -0.1138  4.2149
  686MOL0     H94666   8.502   6.336   6.948 -1.5127  0.2315  0.5758
  686MOL0     H94667   8.432   6.181   6.994  2.0609  0.8428  2.0734
  686MOL0     H94668   8.560   6.191   6.862 -0.1171  0.7435 -0.7443
  687MOL0     O94669   5.046   1.094   8.730 -0.5045  0.3326  0.2563
  687MOL0     C94670   5.047   1.073   8.846  0.0055  0.4468  0.0479
  687MOL0     O94671   4.936   1.058   8.928  0.1517  0.2453  0.0903
  687MOL0     C94672   4.803   1.088   8.893  0.5245  0.4823  0.6305
  687MOL0     C94673   4.703   1.065   8.989 -0.1532  0.0159  0.1996
  687MOL0     C94674   4.567   1.102   8.968 -0.2609  0.0679  0.0549
  687MOL0     C94675   4.524   1.156   8.849  0.5666 -0.4302  0.0004
  687MOL0     O94676   4.388   1.190   8.818  0.5802 -0.5473  0.7368
  687MOL0     C94677   4.287   1.159   8.921  1.0872  0.0057  0.4968
  687MOL0     C94678   4.232   1.018   8.894  0.0175  1.0938 -0.0753
  687MOL0     C94679   4.167   1.005   8.757 -0.1980  0.3495 -0.1147
  687MOL0     C94680   4.182   0.855   8.711 -0.1424 -0.5340  0.4063
  687MOL0     C94681   4.320   0.797   8.671  0.0584  0.0480 -0.4026
  687MOL0     C94682   4.399   0.910   8.599  0.4456 -0.4459 -0.5892
  687MOL0     C94683   4.534   0.859   8.545 -0.3728 -0.5209  0.6969
  687MOL0     C94684   4.625   0.812   8.662 -0.0492 -0.3762  0.4268
  687MOL0     N94685   4.753   0.763   8.617 -0.4670  0.0941 -0.1996
  687MOL0     C94686   4.859   0.850   8.568 -0.3473  0.5325 -0.1016
  687MOL0     C94687   4.971   0.771   8.580 -0.2798 -0.3985  0.7203
  687MOL0     C94688   5.103   0.818   8.522 -0.0404 -0.3049  0.0792
  687MOL0     C94689   5.219   0.788   8.614  0.0588 -0.5707 -0.2327
  687MOL0     C94690   5.352   0.861   8.575  0.8253 -0.4370  0.2433
  687MOL0     C94691   5.451   0.834   8.677 -0.4192  0.7559  0.1742
  687MOL0     O94692   5.485   0.695   8.675 -0.2935  0.5938  0.4820
  687MOL0     C94693   5.617   0.657   8.687  0.0393 -0.1346  0.6777
  687MOL0     C94694   5.641   0.527   8.633  0.0195 -0.4609 -0.1591
  687MOL0     C94695   5.772   0.479   8.625  0.1084 -0.0870  0.3026
  687MOL0     C94696   5.792   0.360   8.534  0.5600  0.1012  0.4451
  687MOL0     C94697   5.873   0.541   8.709 -0.1020 -0.4037 -0.1116
  687MOL0     C94698   6.000   0.470   8.751  0.5302 -0.2987 -0.4033
  687MOL0     O94699   6.078   0.536   8.836  0.5658 -0.3926  1.0746
  687MOL0     C94700   6.175   0.473   8.902 -0.0538 -0.2188 -0.3417
  687MOL0     C94701   6.311   0.482   8.866 -0.5951  1.2149  0.5564
  687MOL0     C94702   6.416   0.405   8.918  0.5098 -0.1672 -0.1755
  687MOL0     C94703   6.394   0.328   9.036  0.5178 -0.1277  0.6492
  687MOL0     O94704   6.493   0.270   9.110  0.1512 -0.7054  0.5766
  687MOL0     C94705   6.606   0.213   9.037  0.2889 -0.8054  0.3478
  687MOL0     C94706   6.681   0.122   9.135  0.7355  0.7421  0.0418
  687MOL0     C94707   6.769   0.194   9.231  0.4729 -0.5601 -0.0073
  687MOL0     C94708   6.846   0.100   9.325  0.2226 -0.0891  0.1512
  687MOL0     C94709   6.745   0.030   9.425 -0.3582  0.4619 -0.1693
  687MOL0     C94710   6.713  -0.118   9.383  0.4407 -0.7665 -0.5849
  687MOL0     C94711   6.711  -0.223   9.494  0.6079 -0.8775 -0.3725
  687MOL0     C94712   6.669  -0.366   9.445  0.5014 -0.8431 -0.3854
  687MOL0    Cl94713   6.679  -0.493   9.577  0.0996  0.1280  0.0467
  687MOL0     C94714   6.260   0.317   9.076 -0.0619  0.2009 -0.0809
  687MOL0     C94715   6.150   0.388   9.012  0.2598  0.2964  0.6002
  687MOL0     O94716   6.017   0.353   8.717 -0.0645  0.1485 -0.6584
  687MOL0     C94717   5.834   0.660   8.791 -0.3701  0.4147  0.5045
  687MOL0     C94718   5.706   0.724   8.769 -0.3583  0.1803 -0.3570
  687MOL0     N94719   4.936   0.656   8.646 -0.1915  0.2105 -0.0531
  687MOL0     N94720   4.810   0.653   8.668  0.4946  0.2590  0.2170
  687MOL0     C94721   4.614   1.180   8.746  0.0744 -0.2044  0.5232
  687MOL0     C94722   4.753   1.147   8.771  0.0535 -0.6559  0.0075
  687MOL0     C94723   5.178   1.045   8.903  0.5825  0.6188 -0.4185
  687MOL0     C94724   5.184   0.943   9.005 -0.4438  0.6585 -0.0495
  687MOL0     C94725   5.300   0.925   9.087  0.8925 -0.4054 -0.6783
  687MOL0     C94726   5.414   0.993   9.056  0.5983  0.2991 -0.5890
  687MOL0     O94727   5.529   0.987   9.126  0.6394 -0.0195  0.0144
  687MOL0     C94728   5.520   0.959   9.271  0.2687  1.0589  0.8846
  687MOL0     C94729   5.666   0.950   9.324 -0.3046 -1.5338 -0.1367
  687MOL0     C94730   5.664   0.931   9.473 -0.0471 -0.0244 -0.5210
  687MOL0     C94731   5.788   0.982   9.546  0.3624 -0.7030 -0.4333
  687MOL0     C94732   5.890   0.878   9.511 -0.0236  0.5281 -0.0342
  687MOL0     C94733   5.983   0.795   9.492  1.5686  0.0653  0.4253
  687MOL0     C94734   5.416   1.079   8.947 -0.0210  0.1408  0.3879
  687MOL0     C94735   5.299   1.108   8.874  0.0295 -0.4024 -0.1797
  687MOL0     C94736   5.312   1.223   8.777  0.1433  0.4566  0.0420
  687MOL0     H94737   4.736   1.033   9.088 -2.3658  5.3635  3.1125
  687MOL0     H94738   4.502   1.087   9.053 -0.2764  1.0746  0.2331
  687MOL0     H94739   4.204   1.230   8.916  1.6180  0.5951 -0.3989
  687MOL0     H94740   4.323   1.176   9.023 -4.0545  4.1320  2.0908
  687MOL0     H94741   4.314   0.945   8.901 -1.0737 -0.3585 -1.5713
  687MOL0     H94742   4.159   0.988   8.969 -0.1360  1.5850 -0.0299
  687MOL0     H94743   4.061   1.024   8.774 -0.2648 -1.1058  1.2835
  687MOL0     H94744   4.209   1.084   8.694 -0.2862  1.3991  1.1129
  687MOL0     H94745   4.146   0.789   8.790 -2.2386 -0.4683 -0.4247
  687MOL0     H94746   4.129   0.838   8.616 -0.6318 -2.4103  0.9625
  687MOL0     H94747   4.305   0.708   8.609 -1.2649 -0.8018  1.0758
  687MOL0     H94748   4.371   0.767   8.763  1.7213  0.1488 -1.2490
  687MOL0     H94749   4.336   0.969   8.532  1.0892  3.1201  1.6376
  687MOL0     H94750   4.426   0.983   8.676  1.5087  0.8824 -2.1748
  687MOL0     H94751   4.592   0.932   8.488 -2.0365 -0.6018 -1.2159
  687MOL0     H94752   4.510   0.777   8.477  1.2656 -0.1715 -0.3471
  687MOL0     H94753   4.641   0.888   8.739  3.6198 -0.8312  0.3074
  687MOL0     H94754   4.571   0.722   8.691 -0.2677 -1.4627 -2.9315
  687MOL0     H94755   4.859   0.953   8.533  2.6984  0.5609 -0.2579
  687MOL0     H94756   5.102   0.925   8.500 -0.5052 -0.0036  1.4707
  687MOL0     H94757   5.115   0.759   8.431  1.3330  0.9848 -0.6152
  687MOL0     H94758   5.203   0.835   8.711 -0.4587  0.4635 -0.8107
  687MOL0     H94759   5.232   0.679   8.623  2.5700 -0.2227  1.1362
  687MOL0     H94760   5.389   0.837   8.475 -1.6219  3.3408 -1.8054
  687MOL0     H94761   5.330   0.967   8.561 -1.9436 -1.0738 -0.9906
  687MOL0     H94762   5.533   0.903   8.653 -1.4346  1.3174 -1.9962
  687MOL0     H94763   5.408   0.852   8.776  0.4129  2.3129  0.2868
  687MOL0     H94764   5.560   0.473   8.585  0.5696 -0.4938 -1.0918
  687MOL0     H94765   5.897   0.360   8.503  1.3955 -2.3751  2.8029
  687MOL0     H94766   5.723   0.361   8.450 -0.7671  0.6054  1.4959
  687MOL0     H94767   5.774   0.261   8.579  3.3892 -1.1140 -0.8382
  687MOL0     H94768   6.324   0.559   8.791 -1.3323  4.2724  3.3261
  687MOL0     H94769   6.517   0.428   8.885  0.4185  1.1656  0.3849
  687MOL0     H94770   6.561   0.147   8.963 -1.4088 -2.5459  2.7702
  687MOL0     H94771   6.664   0.288   8.983 -2.6084  0.6952 -0.8599
  687MOL0     H94772   6.611   0.054   9.186  0.2484  1.0996 -0.1408
  687MOL0     H94773   6.755   0.077   9.069  0.1568 -0.7927  0.3807
  687MOL0     H94774   6.713   0.268   9.289 -0.3448  1.6619 -3.3595
  687MOL0     H94775   6.846   0.246   9.173 -1.3100  3.3882  0.8226
  687MOL0     H94776   6.923   0.145   9.390  0.2285 -1.7146  1.3528
  687MOL0     H94777   6.894   0.019   9.270 -0.8001 -3.2416  3.4903
  687MOL0     H94778   6.802   0.032   9.519 -0.7815 -0.8916  0.1345
  687MOL0     H94779   6.649   0.082   9.433 -2.8333 -3.6226 -0.6309
  687MOL0     H94780   6.789  -0.146   9.309  2.1013  0.2447  0.6621
  687MOL0     H94781   6.615  -0.111   9.334 -0.0847 -1.8895  0.2456
  687MOL0     H94782   6.660  -0.185   9.583  1.0825  0.3595 -0.6116
  687MOL0     H94783   6.815  -0.231   9.527  0.9489  0.6336 -1.0055
  687MOL0     H94784   6.731  -0.408   9.365 -0.5989 -2.6247 -0.3434
  687MOL0     H94785   6.569  -0.357   9.401  0.5589 -1.9665 -0.7716
  687MOL0     H94786   6.226   0.245   9.150 -0.0486 -1.8331 -1.9502
  687MOL0     H94787   6.048   0.378   9.047  0.5722 -0.6359  1.2685
  687MOL0     H94788   5.889   0.713   8.868  0.6850 -1.1597  0.8571
  687MOL0     H94789   5.683   0.807   8.835 -1.5704  1.0827 -1.8559
  687MOL0     H94790   4.582   1.222   8.651 -3.2163 -0.7269  1.2795
  687MOL0     H94791   4.816   1.165   8.684 -0.4794 -4.0159 -1.2225
  687MOL0     H94792   5.093   0.889   9.027  0.7182 -0.6866  1.7653
  687MOL0     H94793   5.297   0.842   9.156 -2.1408 -2.7649 -3.3532
  687MOL0     H94794   5.466   1.044   9.316 -0.6977  0.5669  0.6816
  687MOL0     H94795   5.469   0.862   9.278  2.3492 -0.2049 -0.4120
  687MOL0     H94796   5.713   1.045   9.298  1.7222 -2.8698 -1.7326
  687MOL0     H94797   5.728   0.875   9.273  1.7157 -0.0984  0.0810
  687MOL0     H94798   5.584   0.982   9.527 -0.0639 -2.6052  2.1977
  687MOL0     H94799   5.640   0.828   9.501  0.7690 -0.4859 -1.4554
  687MOL0     H94800   5.784   0.985   9.655 -0.2775 -3.1647 -0.3348
  687MOL0     H94801   5.824   1.079   9.512  1.5093 -0.5434  1.1317
  687MOL0     H94802   6.055   0.716   9.480 -0.1211 -1.4046 -0.6581
  687MOL0     H94803   5.507   1.133   8.923 -0.8766  1.0008 -1.0631
  687MOL0     H94804   5.400   1.281   8.805 -0.9832  2.1619  0.2015
  687MOL0     H94805   5.319   1.183   8.675  1.4547 -0.0652  0.3174
  687MOL0     H94806   5.225   1.287   8.792 -0.8123 -0.9543  0.7698
  688MOL0     O94807   0.470   3.493   4.510  0.1509  0.6050 -0.3365
  688MOL0     C94808   0.512   3.389   4.450 -0.0292  0.0855  0.3397
  688MOL0     O94809   0.426   3.277   4.430 -0.2091 -0.2332  0.4355
  688MOL0     C94810   0.288   3.310   4.436  0.1806  0.1143 -0.8313
  688MOL0     C94811   0.215   3.318   4.320  0.4872  0.0225 -0.0548
  688MOL0     C94812   0.079   3.339   4.317  0.5679 -0.4007 -0.1133
  688MOL0     C94813   0.008   3.368   4.437  0.8808  1.1945 -0.2833
  688MOL0     O94814  -0.117   3.403   4.421 -0.0137  0.2367  0.4468
  688MOL0     C94815  -0.192   3.412   4.550  0.5858  0.4434 -0.3444
  688MOL0     C94816  -0.344   3.428   4.523  0.5281  0.3031 -0.8878
  688MOL0     C94817  -0.376   3.564   4.466  0.0305  0.3775 -0.3282
  688MOL0     C94818  -0.526   3.593   4.465 -1.2842 -0.2772 -0.1005
  688MOL0     C94819  -0.544   3.737   4.399 -0.6159 -0.3427 -0.1894
  688MOL0     C94820  -0.686   3.790   4.413  0.0196  0.2094 -0.1631
  688MOL0     C94821  -0.771   3.730   4.309 -0.3529 -0.2523 -0.6782
  688MOL0     C94822  -0.913   3.801   4.285  0.1607 -0.0498 -0.0770
  688MOL0     N94823  -0.970   3.852   4.412 -0.0424 -0.1874 -0.0421
  688MOL0     C94824  -1.004   3.769   4.515  0.3898 -0.2968  0.4376
  688MOL0     C94825  -1.038   3.849   4.622 -1.2831  0.7393 -0.1270
  688MOL0     C94826  -1.083   3.796   4.758  0.2625  0.1984  0.0278
  688MOL0     C94827  -0.969   3.772   4.858 -0.0812 -0.1101 -0.8250
  688MOL0     C94828  -1.029   3.703   4.981 -0.2389 -0.1037 -0.5851
  688MOL0     C94829  -1.058   3.554   4.959  0.2677  0.0039 -0.3525
  688MOL0     O94830  -0.972   3.491   4.858 -0.4968 -0.0867 -0.2137
  688MOL0     C94831  -0.849   3.449   4.900  0.0307 -0.3325  0.2828
  688MOL0     C94832  -0.836   3.373   5.011  0.1873 -0.2287 -0.5141
  688MOL0     C94833  -0.708   3.322   5.051 -0.2201  0.1233  1.0096
  688MOL0     C94834  -0.708   3.233   5.171  0.4758  0.1031  0.2917
  688MOL0     C94835  -0.597   3.347   4.961 -0.4045  0.3386 -0.5991
  688MOL0     C94836  -0.463   3.284   4.985 -0.3743 -0.3470 -0.0089
  688MOL0     O94837  -0.386   3.286   4.875 -0.1476 -0.0150  0.1375
  688MOL0     C94838  -0.263   3.224   4.868  0.1397  1.1384 -0.8320
  688MOL0     C94839  -0.162   3.253   4.952 -0.0378  0.0581  0.0705
  688MOL0     C94840  -0.028   3.210   4.918  0.3442  0.3861  0.1749
  688MOL0     C94841   0.006   3.130   4.815  0.7478  0.4947 -1.0898
  688MOL0     O94842   0.142   3.096   4.807  0.1425  0.3789  0.1804
  688MOL0     C94843   0.176   3.017   4.693  0.1477  0.1582  0.3485
  688MOL0     C94844   0.178   2.871   4.719  0.1990 -0.1591 -0.2961
  688MOL0     C94845   0.219   2.793   4.601  0.2385 -0.6159 -0.1684
  688MOL0     C94846   0.098   2.721   4.532 -0.1237 -0.1976 -0.4686
  688MOL0     C94847   0.143   2.612   4.442 -0.9206  0.1909 -0.2362
  688MOL0     C94848   0.021   2.524   4.404  0.1325 -0.4901  0.3666
  688MOL0     C94849   0.064   2.412   4.304  0.2984  0.2314 -0.1835
  688MOL0     C94850   0.061   2.470   4.156 -0.5277 -0.6869  0.8099
  688MOL0    Cl94851  -0.116   2.499   4.105 -0.0323  0.6185  0.4538
  688MOL0     C94852  -0.100   3.091   4.737 -0.2898 -0.1928  0.4616
  688MOL0     C94853  -0.235   3.139   4.766  0.3270 -0.5120  1.2165
  688MOL0     O94854  -0.420   3.257   5.103  0.9716  0.0226 -0.3485
  688MOL0     C94855  -0.615   3.414   4.840 -1.4978 -0.5155 -1.1088
  688MOL0     C94856  -0.739   3.465   4.805  0.0487  0.1854 -0.3697
  688MOL0     N94857  -1.020   3.981   4.578  0.7751 -0.0601  0.4189
  688MOL0     N94858  -0.964   3.980   4.459  0.0976 -0.1522  0.1176
  688MOL0     C94859   0.078   3.358   4.556 -0.6435 -0.4384  0.0175
  688MOL0     C94860   0.215   3.331   4.555 -0.1417  0.0994  0.7966
  688MOL0     C94861   0.653   3.369   4.415 -0.2009 -0.3910 -0.1296
  688MOL0     C94862   0.740   3.269   4.470  0.4092 -0.3081  0.0217
  688MOL0     C94863   0.867   3.244   4.416  0.6830 -0.0974 -0.1664
  688MOL0     C94864   0.918   3.312   4.308  0.2981  0.3636 -0.4296
  688MOL0     O94865   1.029   3.272   4.237 -0.2275 -0.1995  0.3625
  688MOL0     C94866   1.158   3.319   4.277 -0.4072 -0.5511  0.3699
  688MOL0     C94867   1.169   3.474   4.247 -0.0941  0.8565 -0.4801
  688MOL0     C94868   1.191   3.500   4.098  0.3249 -0.0557  0.2708
  688MOL0     C94869   1.181   3.651   4.052  0.3621  0.4758 -0.5062
  688MOL0     C94870   1.044   3.705   4.047  0.4163  0.9548 -0.0211
  688MOL0     C94871   0.925   3.725   4.032  0.3482 -0.3533 -0.4876
  688MOL0     C94872   0.839   3.422   4.261 -0.6286  0.1742 -1.2022
  688MOL0     C94873   0.712   3.444   4.307 -0.4647 -0.3274  0.2772
  688MOL0     C94874   0.628   3.543   4.220  0.0765  0.1094 -0.2810
  688MOL0     H94875   0.265   3.322   4.224 -2.0057 -0.9649 -1.4786
  688MOL0     H94876   0.037   3.364   4.220 -1.0948  1.9778  1.1066
  688MOL0     H94877  -0.175   3.506   4.603 -0.9642  1.2717 -1.2835
  688MOL0     H94878  -0.173   3.330   4.621 -0.1619 -1.1230 -1.8935
  688MOL0     H94879  -0.390   3.351   4.460 -0.3726 -0.9306  1.1286
  688MOL0     H94880  -0.392   3.424   4.622 -0.6382 -0.6535 -1.4639
  688MOL0     H94881  -0.334   3.651   4.518  0.4797 -0.4418  0.7228
  688MOL0     H94882  -0.331   3.563   4.366 -0.0342  1.5488 -0.3802
  688MOL0     H94883  -0.581   3.514   4.412 -2.3803  1.1014 -1.0781
  688MOL0     H94884  -0.561   3.591   4.569 -1.6288  3.8717  0.0168
  688MOL0     H94885  -0.513   3.744   4.294 -1.0339 -1.9234 -0.4528
  688MOL0     H94886  -0.485   3.806   4.459  1.0492  1.5540 -3.6933
  688MOL0     H94887  -0.726   3.781   4.514  0.0873 -0.6565 -0.2046
  688MOL0     H94888  -0.689   3.898   4.393  2.0873  0.3707  0.1401
  688MOL0     H94889  -0.795   3.626   4.333  1.7880 -0.5155  0.6212
  688MOL0     H94890  -0.717   3.731   4.213 -0.3494 -2.2859 -0.7473
  688MOL0     H94891  -0.905   3.886   4.216  3.1182  2.1683  2.6902
  688MOL0     H94892  -0.990   3.727   4.258 -1.5195  0.9244  1.7776
  688MOL0     H94893  -0.993   3.662   4.533  0.6040  0.1437  3.4778
  688MOL0     H94894  -1.137   3.702   4.747 -1.1391  1.1129 -1.1867
  688MOL0     H94895  -1.152   3.871   4.797  0.3688  1.0219 -1.3235
  688MOL0     H94896  -0.903   3.694   4.818  0.4818 -1.0872  1.7990
  688MOL0     H94897  -0.912   3.862   4.882  1.3127 -0.0247 -3.9150
  688MOL0     H94898  -0.954   3.707   5.060 -0.5636  2.3274 -0.3131
  688MOL0     H94899  -1.111   3.765   5.018 -0.0086 -0.5629  0.7470
  688MOL0     H94900  -1.043   3.507   5.056 -1.5507  1.4602  0.7034
  688MOL0     H94901  -1.165   3.541   4.942  0.0828  1.2318 -0.1699
  688MOL0     H94902  -0.918   3.353   5.079  1.8072 -0.8866  1.3485
  688MOL0     H94903  -0.734   3.133   5.135 -1.0414  1.0071 -1.3398
  688MOL0     H94904  -0.788   3.269   5.236 -0.1823  1.1363 -1.0355
  688MOL0     H94905  -0.620   3.238   5.235  0.7431 -0.2578 -0.0408
  688MOL0     H94906  -0.175   3.326   5.030  2.3959  1.6742 -0.9340
  688MOL0     H94907   0.048   3.240   4.989 -0.6139  2.7525  0.2809
  688MOL0     H94908   0.117   3.033   4.602 -0.4004 -3.0867  0.0225
  688MOL0     H94909   0.280   3.047   4.679  0.0642 -0.4311 -1.9789
  688MOL0     H94910   0.254   2.869   4.797 -1.0682  1.4201  1.0547
  688MOL0     H94911   0.079   2.842   4.756  0.5030  0.4303  1.0380
  688MOL0     H94912   0.295   2.717   4.622  0.0588 -0.2413  2.0703
  688MOL0     H94913   0.260   2.861   4.526  0.7437 -0.7790 -0.0468
  688MOL0     H94914   0.050   2.800   4.474  0.3898  0.8296  0.4685
  688MOL0     H94915   0.031   2.668   4.599 -1.9346  1.2793 -1.0337
  688MOL0     H94916   0.190   2.655   4.353 -0.4630  1.5167  0.6221
  688MOL0     H94917   0.220   2.551   4.490 -0.6262 -0.1492 -1.1133
  688MOL0     H94918  -0.062   2.579   4.357  0.5701  0.9559  1.2388
  688MOL0     H94919  -0.026   2.466   4.484 -3.1679  0.8994 -0.3867
  688MOL0     H94920   0.007   2.319   4.300 -0.6473  0.7889  0.0480
  688MOL0     H94921   0.167   2.377   4.321  0.0758 -0.9533 -1.1421
  688MOL0     H94922   0.095   2.392   4.088 -4.3095 -0.2149 -1.9508
  688MOL0     H94923   0.129   2.556   4.144  2.0594 -2.3213  2.6699
  688MOL0     H94924  -0.085   3.030   4.648  0.2244 -0.2458  0.5771
  688MOL0     H94925  -0.313   3.111   4.696 -0.1606  1.7671  0.7744
  688MOL0     H94926  -0.531   3.432   4.775 -1.5982  1.9962 -0.6133
  688MOL0     H94927  -0.749   3.520   4.712  2.1230  2.4038  0.6167
  688MOL0     H94928   0.031   3.405   4.642 -3.2748 -0.3288 -1.3998
  688MOL0     H94929   0.269   3.331   4.649  1.0948 -2.6584  0.1870
  688MOL0     H94930   0.703   3.202   4.547  0.7264 -1.1852 -0.5891
  688MOL0     H94931   0.932   3.162   4.446 -0.0148 -0.2323  1.0119
  688MOL0     H94932   1.161   3.301   4.385 -1.0471 -2.9557  0.0445
  688MOL0     H94933   1.240   3.270   4.223  1.3116  3.2882 -0.8634
  688MOL0     H94934   1.256   3.504   4.306  1.3198  0.1793 -2.1349
  688MOL0     H94935   1.081   3.534   4.272  0.0197  0.4288  1.0896
  688MOL0     H94936   1.291   3.466   4.070  1.9765  2.9482  1.9064
  688MOL0     H94937   1.127   3.431   4.042  1.8162 -1.5267  0.2860
  688MOL0     H94938   1.219   3.658   3.950 -3.0177  0.8083 -1.8591
  688MOL0     H94939   1.243   3.718   4.113  0.3289  1.4221 -1.4731
  688MOL0     H94940   0.825   3.763   4.029  0.6373  0.3469 -1.6934
  688MOL0     H94941   0.872   3.475   4.173 -2.1064  3.2481 -0.0362
  688MOL0     H94942   0.606   3.636   4.274 -1.4520  1.2836 -2.7595
  688MOL0     H94943   0.672   3.571   4.124  1.0102 -1.7992 -0.4623
  688MOL0     H94944   0.534   3.492   4.198 -0.9787  2.3889 -1.4220
  689MOL0     O94945   2.981   7.065   9.000 -0.3878  0.4117 -0.0161
  689MOL0     C94946   3.102   7.075   9.014  0.2753 -0.2597  0.8259
  689MOL0     O94947   3.186   7.138   8.926 -0.3704  0.6518 -0.0849
  689MOL0     C94948   3.135   7.170   8.800  0.8107  0.3324 -0.5499
  689MOL0     C94949   3.081   7.302   8.795 -0.1101 -0.7553  0.5878
  689MOL0     C94950   3.020   7.349   8.678 -0.5018  0.2234  0.2923
  689MOL0     C94951   3.012   7.270   8.567  0.0327 -0.0890  0.4250
  689MOL0     O94952   2.956   7.303   8.445  0.2302 -0.5743  1.0749
  689MOL0     C94953   2.944   7.443   8.413 -0.4353  0.2642 -0.1764
  689MOL0     C94954   2.904   7.453   8.270  0.1528 -0.0021 -0.5566
  689MOL0     C94955   2.786   7.360   8.235  0.1592  0.2558  0.3062
  689MOL0     C94956   2.756   7.388   8.092  0.3289  0.2394  0.4404
  689MOL0     C94957   2.632   7.308   8.060 -0.1596  0.3236  0.2380
  689MOL0     C94958   2.571   7.372   7.928  1.1147 -0.7870  0.2062
  689MOL0     C94959   2.457   7.290   7.874 -0.2663  0.5051  0.0304
  689MOL0     C94960   2.399   7.369   7.757 -0.1743 -0.2604 -0.7680
  689MOL0     N94961   2.488   7.390   7.642 -0.3061  0.2069 -0.7602
  689MOL0     C94962   2.489   7.298   7.533  0.1777  0.2200  0.0021
  689MOL0     C94963   2.596   7.323   7.463 -0.3033  0.3494  0.6848
  689MOL0     C94964   2.640   7.253   7.331 -0.2382 -0.9197  0.3867
  689MOL0     C94965   2.546   7.298   7.216  0.1938 -0.2293  0.5983
  689MOL0     C94966   2.557   7.448   7.191 -0.6038 -1.1646 -0.4241
  689MOL0     C94967   2.477   7.497   7.067 -0.3323 -0.3771 -0.0467
  689MOL0     O94968   2.534   7.432   6.947  0.0025  0.4051 -0.0034
  689MOL0     C94969   2.458   7.434   6.830  0.0258  0.0437 -0.0280
  689MOL0     C94970   2.328   7.495   6.823 -0.6272  0.2649  0.2932
  689MOL0     C94971   2.266   7.504   6.698  0.0463 -0.6975 -0.0979
  689MOL0     C94972   2.132   7.573   6.695  0.0168 -0.2935 -0.6160
  689MOL0     C94973   2.323   7.440   6.584 -0.0732 -0.4987 -0.2057
  689MOL0     C94974   2.263   7.437   6.445 -0.6049 -0.5427  0.3971
  689MOL0     O94975   2.306   7.344   6.362 -0.4006 -0.1014  0.5025
  689MOL0     C94976   2.224   7.284   6.268 -0.3601 -0.1716  0.0771
  689MOL0     C94977   2.081   7.306   6.260 -1.0198 -0.4230 -0.2069
  689MOL0     C94978   2.014   7.245   6.158  0.5219  0.0013 -0.2380
  689MOL0     C94979   2.075   7.159   6.064 -0.5012  0.0459 -0.6772
  689MOL0     O94980   2.011   7.095   5.961  0.1214 -0.4499  0.1354
  689MOL0     C94981   1.880   7.049   5.975  0.5919 -0.5586  0.3276
  689MOL0     C94982   1.870   6.916   5.915 -1.0819  0.3397  0.2112
  689MOL0     C94983   1.741   6.833   5.925 -0.3979 -0.0334 -0.0571
  689MOL0     C94984   1.727   6.744   6.046 -0.2359  0.2654  0.1997
  689MOL0     C94985   1.596   6.665   6.060 -0.6832 -0.9262  0.1207
  689MOL0     C94986   1.582   6.560   5.949 -0.1755 -0.8467 -0.8579
  689MOL0     C94987   1.445   6.493   5.965  0.3751  0.6410 -0.0537
  689MOL0     C94988   1.411   6.378   5.868 -0.1489  0.6643 -0.4637
  689MOL0    Cl94989   1.487   6.221   5.909  0.2867 -0.3186 -0.0670
  689MOL0     C94990   2.211   7.131   6.077  0.7149 -0.3771  1.0141
  689MOL0     C94991   2.282   7.188   6.176 -0.1548 -0.7503 -0.9279
  689MOL0     O94992   2.172   7.519   6.420 -0.4355 -0.6576 -0.3971
  689MOL0     C94993   2.447   7.382   6.594 -1.0181 -1.2379  0.0274
  689MOL0     C94994   2.516   7.383   6.713 -0.8988  0.2495 -0.2883
  689MOL0     N94995   2.659   7.433   7.525 -0.1040  0.3251  0.5784
  689MOL0     N94996   2.590   7.475   7.631 -0.0739 -0.6869 -0.2443
  689MOL0     C94997   3.063   7.138   8.565  1.2001 -1.0559 -0.0756
  689MOL0     C94998   3.120   7.096   8.686  0.1106  0.3413 -0.0998
  689MOL0     C94999   3.162   6.991   9.123  0.7359  0.1053 -0.9408
  689MOL0     C95000   3.297   6.942   9.103 -0.0078 -0.5407  0.0324
  689MOL0     C95001   3.347   6.854   9.198 -0.1743  0.0903 -0.0888
  689MOL0     C95002   3.268   6.796   9.294  0.0169 -0.0042 -0.5227
  689MOL0     O95003   3.337   6.710   9.382 -0.9298  0.3067  0.2497
  689MOL0     C95004   3.271   6.590   9.423 -0.0918 -0.3327  0.6460
  689MOL0     C95005   3.323   6.457   9.367 -0.1318  0.1351  0.1301
  689MOL0     C95006   3.243   6.333   9.423 -0.2994  0.8096 -0.0527
  689MOL0     C95007   3.153   6.261   9.318 -1.1505 -0.8519 -0.4114
  689MOL0     C95008   3.043   6.352   9.280  0.5860 -0.2581  0.6132
  689MOL0     C95009   2.949   6.427   9.252 -0.5827 -0.2410 -0.2318
  689MOL0     C95010   3.137   6.837   9.315  0.1309 -0.0866 -0.9382
  689MOL0     C95011   3.089   6.941   9.237 -0.2669 -0.1204 -0.9238
  689MOL0     C95012   2.952   6.987   9.267  0.4473  0.1940 -0.6507
  689MOL0     H95013   3.087   7.359   8.887  1.6143  1.1436 -0.6121
  689MOL0     H95014   2.980   7.450   8.680 -0.3107  0.3310 -0.6518
  689MOL0     H95015   3.036   7.495   8.441  0.4112 -1.2884  0.0488
  689MOL0     H95016   2.869   7.495   8.473  0.0003  2.9707 -1.8075
  689MOL0     H95017   2.878   7.556   8.245 -1.2540 -0.6048 -1.7199
  689MOL0     H95018   2.986   7.429   8.203  0.3638 -2.5018  0.5025
  689MOL0     H95019   2.823   7.257   8.236  0.3483  0.3059 -0.7587
  689MOL0     H95020   2.704   7.370   8.307 -1.4287 -0.4214 -1.3375
  689MOL0     H95021   2.734   7.495   8.083 -0.0869  0.1748  0.6502
  689MOL0     H95022   2.843   7.378   8.027  0.4459 -0.4485  0.6966
  689MOL0     H95023   2.559   7.313   8.142  1.4237 -1.7667  1.8865
  689MOL0     H95024   2.648   7.200   8.048 -2.4039 -0.1967  1.2917
  689MOL0     H95025   2.549   7.477   7.946  0.9974 -1.1147  2.2764
  689MOL0     H95026   2.650   7.362   7.853  0.2872 -0.8055 -0.6739
  689MOL0     H95027   2.393   7.272   7.961 -0.0575 -1.0997 -0.1094
  689MOL0     H95028   2.500   7.193   7.845  3.8659  1.2063  2.9582
  689MOL0     H95029   2.315   7.312   7.715 -0.8485  0.8543 -0.9692
  689MOL0     H95030   2.353   7.460   7.797 -1.6952 -1.5323  0.5038
  689MOL0     H95031   2.413   7.221   7.527  0.8680 -0.5296  0.6570
  689MOL0     H95032   2.655   7.145   7.330  0.2557 -0.8626 -0.9921
  689MOL0     H95033   2.739   7.287   7.300 -1.4841 -0.3838 -3.5905
  689MOL0     H95034   2.587   7.251   7.127  3.7312  1.7076  0.9936
  689MOL0     H95035   2.448   7.275   7.258  1.0546 -1.9391  1.8183
  689MOL0     H95036   2.515   7.495   7.280  0.5516 -4.6848  2.1699
  689MOL0     H95037   2.662   7.478   7.184 -1.2701  1.7830  0.8605
  689MOL0     H95038   2.370   7.473   7.076 -0.4578 -1.4271 -3.1077
  689MOL0     H95039   2.492   7.605   7.062 -0.5449 -0.3659 -0.5346
  689MOL0     H95040   2.280   7.544   6.907  0.0555  1.6225 -0.0601
  689MOL0     H95041   2.066   7.503   6.643 -0.6668 -0.5370  0.5592
  689MOL0     H95042   2.146   7.667   6.640  2.9097 -0.9694 -1.2221
  689MOL0     H95043   2.107   7.604   6.797  3.5162  0.5520  0.1327
  689MOL0     H95044   2.029   7.356   6.341 -0.3125 -0.1174  0.0648
  689MOL0     H95045   1.906   7.261   6.155 -0.5046 -4.5139  2.6794
  689MOL0     H95046   1.840   7.051   6.077 -2.6943  0.4468 -0.8493
  689MOL0     H95047   1.823   7.119   5.914 -0.3239 -0.7661  0.9239
  689MOL0     H95048   1.900   6.917   5.810 -3.5979  1.0898 -0.5745
  689MOL0     H95049   1.934   6.857   5.981 -1.9236 -1.3431 -0.4121
  689MOL0     H95050   1.740   6.766   5.839 -0.4378  0.1336 -0.1885
  689MOL0     H95051   1.651   6.895   5.918 -2.2790 -2.2922  2.1009
  689MOL0     H95052   1.736   6.804   6.137 -3.7627  0.1304  0.7481
  689MOL0     H95053   1.815   6.679   6.034 -0.0635  0.6871 -1.0493
  689MOL0     H95054   1.592   6.615   6.157  4.5931 -1.8997  0.1512
  689MOL0     H95055   1.512   6.735   6.060 -0.7060 -0.9483 -0.4745
  689MOL0     H95056   1.665   6.489   5.948  2.7121  2.2106 -3.8187
  689MOL0     H95057   1.581   6.625   5.861 -1.8704 -1.8681 -1.6396
  689MOL0     H95058   1.370   6.568   5.939 -0.7020 -0.4363 -0.1078
  689MOL0     H95059   1.436   6.456   6.067 -2.2947  1.1773 -0.0452
  689MOL0     H95060   1.431   6.391   5.761  1.8066  0.3831 -0.1673
  689MOL0     H95061   1.306   6.352   5.887  0.0489  1.7428  2.7404
  689MOL0     H95062   2.262   7.071   6.002 -4.8613 -0.1361 -3.5849
  689MOL0     H95063   2.389   7.171   6.180 -0.1072 -0.5187  2.6652
  689MOL0     H95064   2.493   7.337   6.506 -1.8232 -1.8328 -0.0908
  689MOL0     H95065   2.602   7.318   6.719 -1.0946  0.1377  3.1533
  689MOL0     H95066   3.065   7.070   8.481 -0.3585 -2.5181  1.0046
  689MOL0     H95067   3.150   6.992   8.691  0.1567  0.3623  0.0614
  689MOL0     H95068   3.348   6.971   9.011 -1.0462  0.9873 -0.1031
  689MOL0     H95069   3.450   6.821   9.196  0.4227  1.8606 -1.5505
  689MOL0     H95070   3.276   6.587   9.532 -2.1955  0.3993  0.7999
  689MOL0     H95071   3.166   6.596   9.391 -0.1019  2.3261  0.9938
  689MOL0     H95072   3.428   6.450   9.399 -0.8292  1.8551  3.2121
  689MOL0     H95073   3.322   6.452   9.258  1.6639 -2.0226  0.1374
  689MOL0     H95074   3.313   6.259   9.463  0.4977  0.0357 -2.6378
  689MOL0     H95075   3.179   6.364   9.505 -1.2810 -1.2630  0.0221
  689MOL0     H95076   3.113   6.172   9.368  1.1433 -0.8091  1.7063
  689MOL0     H95077   3.202   6.232   9.224 -0.5990  0.0679 -0.4117
  689MOL0     H95078   2.877   6.500   9.221 -0.8610 -0.2864  0.2993
  689MOL0     H95079   3.079   6.790   9.394 -0.1485  1.0739 -0.4397
  689MOL0     H95080   2.923   6.942   9.362  2.2766 -2.1162 -1.0859
  689MOL0     H95081   2.928   7.094   9.270  1.0093  0.3290 -0.8279
  689MOL0     H95082   2.886   6.945   9.191  0.1811  1.6317 -1.2573
  690MOL0     O95083   9.559   0.621   0.843 -0.0404 -0.4969  0.4099
  690MOL0     C95084   9.537   0.596   0.724  0.2271 -0.1335 -0.0870
  690MOL0     O95085   9.637   0.556   0.636  0.3272 -1.0407 -0.6602
  690MOL0     C95086   9.768   0.581   0.667 -0.1731  0.5373 -0.4950
  690MOL0     C95087   9.870   0.490   0.618  1.1866  0.0631 -0.1498
  690MOL0     C95088  10.007   0.505   0.650 -0.5645  0.1714  0.8872
  690MOL0     C95089  10.044   0.612   0.737  0.1065  0.4889 -0.0576
  690MOL0     O95090  10.180   0.621   0.781 -0.2780  0.3272 -0.5303
  690MOL0     C95091  10.275   0.630   0.677 -1.0448 -0.8184  1.0207
  690MOL0     C95092  10.415   0.575   0.736  0.2279  0.2570  0.5167
  690MOL0     C95093  10.475   0.644   0.857  0.0110 -0.0150 -0.4010
  690MOL0     C95094  10.627   0.629   0.856  0.6723  0.0216  0.3601
  690MOL0     C95095  10.699   0.687   0.985  0.9415  0.6796  0.0641
  690MOL0     C95096  10.835   0.610   1.014 -0.1166 -0.5100 -0.0343
  690MOL0     C95097  10.923   0.687   1.107 -0.9909 -0.2660 -1.2981
  690MOL0     C95098  11.054   0.610   1.136  0.4294 -0.1980  0.1830
  690MOL0     N95099  11.137   0.656   1.241 -0.4418 -0.3249  0.2529
  690MOL0     C95100  11.105   0.696   1.371 -0.3629 -0.7835  0.3200
  690MOL0     C95101  11.217   0.720   1.442 -0.1424 -0.5253  0.1313
  690MOL0     C95102  11.236   0.739   1.595 -0.1751  0.5127  0.2259
  690MOL0     C95103  11.343   0.636   1.641 -0.1716 -0.2880 -0.0832
  690MOL0     C95104  11.404   0.668   1.776  0.2197 -0.2344  0.3135
  690MOL0     C95105  11.456   0.812   1.780 -0.0458  0.7403  0.0647
  690MOL0     O95106  11.573   0.824   1.865  0.1710  0.1053  0.4654
  690MOL0     C95107  11.594   0.959   1.900  0.1623  0.0435  0.7428
  690MOL0     C95108  11.664   1.048   1.819  0.6988 -1.3191  1.6649
  690MOL0     C95109  11.679   1.185   1.837  0.5122 -0.3070 -0.1921
  690MOL0     C95110  11.768   1.267   1.748 -0.4167 -0.1942 -0.3754
  690MOL0     C95111  11.620   1.240   1.953  0.1254 -0.4506 -0.0389
  690MOL0     C95112  11.638   1.384   1.998 -0.0855  0.8936 -0.0230
  690MOL0     O95113  11.665   1.479   1.909  1.1318 -0.0411 -0.2286
  690MOL0     C95114  11.691   1.613   1.949 -0.0178  0.2550 -0.1948
  690MOL0     C95115  11.776   1.650   2.059  0.3518 -1.0132  0.5110
  690MOL0     C95116  11.789   1.781   2.099  0.5064 -0.1200 -0.6616
  690MOL0     C95117  11.732   1.884   2.028  0.3391  0.1316  0.0558
  690MOL0     O95118  11.744   2.007   2.089 -0.1858 -0.1715 -0.0232
  690MOL0     C95119  11.761   2.109   2.000 -0.0048  0.4596  0.1998
  690MOL0     C95120  11.811   2.235   2.076 -0.3633  0.7964 -0.2310
  690MOL0     C95121  11.963   2.232   2.076  0.7485  0.1362  0.4966
  690MOL0     C95122  12.006   2.353   2.159 -0.2499 -0.8374  0.0117
  690MOL0     C95123  12.157   2.343   2.206 -0.0292  0.2518  0.2584
  690MOL0     C95124  12.199   2.229   2.308  0.1247 -0.2305 -0.4552
  690MOL0     C95125  12.346   2.218   2.345 -0.6450 -0.2969 -0.5170
  690MOL0     C95126  12.410   2.352   2.383  0.2996 -0.0951 -0.5029
  690MOL0    Cl95127  12.524   2.339   2.520  0.0686  0.1155 -0.0518
  690MOL0     C95128  11.660   1.850   1.916  0.3435 -0.2328 -0.3391
  690MOL0     C95129  11.642   1.721   1.874  0.4434 -0.0912 -0.0292
  690MOL0     O95130  11.616   1.407   2.118 -0.4150 -0.1059  0.1963
  690MOL0     C95131  11.540   1.153   2.033  0.1580 -0.2042  0.5929
  690MOL0     C95132  11.539   1.018   2.016 -0.2647  0.6110  0.9197
  690MOL0     N95133  11.322   0.687   1.352 -0.6757  0.0591 -0.1792
  690MOL0     N95134  11.271   0.659   1.236 -0.1477 -0.5372 -1.0478
  690MOL0     C95135   9.951   0.699   0.783  0.7445  0.0130 -0.8734
  690MOL0     C95136   9.816   0.692   0.747  0.0050 -0.9241 -0.7183
  690MOL0     C95137   9.389   0.597   0.675 -0.4430 -0.4768  0.4175
  690MOL0     C95138   9.369   0.561   0.537  0.0197  0.5685 -0.7716
  690MOL0     C95139   9.243   0.567   0.476  0.0408 -0.3610 -0.8529
  690MOL0     C95140   9.131   0.603   0.552 -1.0109  0.1654 -0.5758
  690MOL0     O95141   9.005   0.609   0.508 -0.8427 -0.8017 -0.5268
  690MOL0     C95142   8.997   0.639   0.369  0.5419  0.0159 -0.6721
  690MOL0     C95143   8.852   0.686   0.343 -0.2809 -0.2249  0.1977
  690MOL0     C95144   8.737   0.588   0.325 -0.5567  0.2162 -0.9777
  690MOL0     C95145   8.599   0.663   0.330 -0.2182  0.0578  0.8545
  690MOL0     C95146   8.556   0.749   0.218 -0.9674  0.4500  0.6488
  690MOL0     C95147   8.529   0.808   0.115 -0.1185 -0.1413 -0.7559
  690MOL0     C95148   9.147   0.640   0.684  0.3730 -0.1555  0.0357
  690MOL0     C95149   9.271   0.627   0.749 -1.3247  0.8870 -0.0768
  690MOL0     C95150   9.272   0.682   0.884 -0.6926 -1.2074 -0.2787
  690MOL0     H95151   9.843   0.405   0.557  0.1461 -1.7444  2.6000
  690MOL0     H95152  10.088   0.433   0.648 -0.0771  0.5754  3.4380
  690MOL0     H95153  10.281   0.738   0.662  2.6462 -1.0121  0.1171
  690MOL0     H95154  10.250   0.585   0.581  1.6740 -0.1208 -0.1058
  690MOL0     H95155  10.378   0.476   0.765 -0.6307  0.9684  1.9898
  690MOL0     H95156  10.493   0.567   0.660 -1.5444 -2.4036 -1.1812
  690MOL0     H95157  10.451   0.751   0.856  1.0005  0.2617  1.6152
  690MOL0     H95158  10.423   0.598   0.941 -2.0749 -1.0576 -2.1622
  690MOL0     H95159  10.660   0.525   0.848  0.6908  0.1368 -1.8328
  690MOL0     H95160  10.666   0.680   0.767  0.6773 -0.1954  0.2356
  690MOL0     H95161  10.634   0.680   1.072 -0.5444  0.9156 -0.9958
  690MOL0     H95162  10.717   0.794   0.966 -1.4926  0.7851 -2.2554
  690MOL0     H95163  10.814   0.508   1.048  1.6938 -1.3633 -1.3567
  690MOL0     H95164  10.895   0.610   0.923  0.9357 -1.0141  0.6443
  690MOL0     H95165  10.880   0.696   1.207  1.8184  1.2809 -0.1251
  690MOL0     H95166  10.938   0.790   1.075 -3.6687  0.9986  1.0873
  690MOL0     H95167  11.021   0.510   1.166 -0.1564 -0.1728 -0.3404
  690MOL0     H95168  11.108   0.612   1.041  1.2411  3.8191  0.5530
  690MOL0     H95169  11.007   0.698   1.417 -0.9247  1.1107 -0.8381
  690MOL0     H95170  11.144   0.714   1.649  0.1686 -2.5785 -0.4195
  690MOL0     H95171  11.261   0.845   1.609  1.3575  0.6500 -2.8096
  690MOL0     H95172  11.291   0.540   1.644  1.0431 -0.9488  0.8237
  690MOL0     H95173  11.426   0.632   1.570  0.5122 -0.1419  0.6816
  690MOL0     H95174  11.323   0.656   1.849  3.0835 -1.6182  3.5284
  690MOL0     H95175  11.486   0.597   1.793  1.1748  1.1059  1.5654
  690MOL0     H95176  11.470   0.847   1.677  2.1788  1.7804  0.6491
  690MOL0     H95177  11.380   0.875   1.827  0.7995  3.4741 -1.9236
  690MOL0     H95178  11.702   1.011   1.724 -2.0627  0.7473 -0.4443
  690MOL0     H95179  11.836   1.325   1.812 -1.7319  0.3084  0.6184
  690MOL0     H95180  11.709   1.329   1.680 -3.2387  0.3706  2.3601
  690MOL0     H95181  11.843   1.209   1.694  0.8033  0.3047  0.7107
  690MOL0     H95182  11.823   1.571   2.117 -0.6306 -1.9840  0.0074
  690MOL0     H95183  11.838   1.796   2.194 -1.3869 -3.4284  1.0109
  690MOL0     H95184  11.842   2.069   1.937 -0.9504 -0.0536 -0.7301
  690MOL0     H95185  11.670   2.129   1.942  0.5119 -2.4243 -1.8243
  690MOL0     H95186  11.772   2.328   2.034 -0.8016  1.6261  1.8787
  690MOL0     H95187  11.775   2.227   2.179 -0.4197  0.5298 -0.2719
  690MOL0     H95188  11.998   2.242   1.973  0.1557 -0.5137  0.2282
  690MOL0     H95189  12.008   2.136   2.105  2.8537  0.8028 -0.4176
  690MOL0     H95190  11.946   2.366   2.249  1.4504  0.5902  1.0250
  690MOL0     H95191  12.003   2.445   2.100 -0.0795 -0.5009  0.5160
  690MOL0     H95192  12.214   2.322   2.115 -0.1083 -1.6693  0.6141
  690MOL0     H95193  12.180   2.445   2.238 -0.4542  0.0758  1.1468
  690MOL0     H95194  12.167   2.138   2.256  1.1942 -0.2527 -1.1147
  690MOL0     H95195  12.158   2.244   2.408  4.5380  0.5541  1.5043
  690MOL0     H95196  12.407   2.186   2.260  1.9652  1.1684  0.6921
  690MOL0     H95197  12.358   2.148   2.428  1.6131 -0.9521 -1.3284
  690MOL0     H95198  12.333   2.429   2.389 -0.5723 -0.4341 -4.5836
  690MOL0     H95199  12.463   2.382   2.292 -1.5005  1.7549 -1.0168
  690MOL0     H95200  11.610   1.925   1.856 -0.7565 -0.8959 -0.2726
  690MOL0     H95201  11.571   1.703   1.794  0.6435  2.9972 -1.0420
  690MOL0     H95202  11.486   1.180   2.123 -0.3448  0.2141  0.1731
  690MOL0     H95203  11.504   0.937   2.079  0.1269  1.3850  2.1613
  690MOL0     H95204   9.977   0.784   0.847  0.1041 -0.0992 -0.4618
  690MOL0     H95205   9.747   0.773   0.766  0.2030 -0.8010 -0.5064
  690MOL0     H95206   9.448   0.535   0.467 -0.9722 -2.2377 -0.9907
  690MOL0     H95207   9.234   0.548   0.369 -2.4103 -2.0125 -0.4277
  690MOL0     H95208   9.064   0.720   0.337 -0.0242 -0.3310 -2.8794
  690MOL0     H95209   9.022   0.547   0.313  0.9365 -1.3246  1.5851
  690MOL0     H95210   8.855   0.734   0.245 -1.5295  1.9588  1.1672
  690MOL0     H95211   8.820   0.750   0.426 -1.6315 -1.5121  0.7054
  690MOL0     H95212   8.747   0.525   0.236  0.2609  0.7157 -1.2457
  690MOL0     H95213   8.727   0.520   0.410 -0.9801  2.7449  1.1256
  690MOL0     H95214   8.598   0.729   0.417  2.1630 -0.6266  1.4834
  690MOL0     H95215   8.530   0.578   0.338 -1.1013 -0.0509 -4.4706
  690MOL0     H95216   8.512   0.879   0.036 -0.7892 -0.5385 -0.9764
  690MOL0     H95217   9.059   0.676   0.736 -1.2489 -3.3410 -0.2628
  690MOL0     H95218   9.347   0.638   0.950 -0.3097  0.5008  0.4913
  690MOL0     H95219   9.292   0.790   0.881 -1.1537 -1.0688  0.8792
  690MOL0     H95220   9.175   0.666   0.932  0.4148 -0.0887  2.5970
  691MOL0     O95221   1.669   2.733   5.051 -0.2066  0.4306 -0.5134
  691MOL0     C95222   1.636   2.765   4.939  0.5498  0.1687 -0.0801
  691MOL0     O95223   1.675   2.875   4.875 -0.6696  0.9812 -0.2340
  691MOL0     C95224   1.786   2.949   4.905 -0.5441  0.1819  0.3197
  691MOL0     C95225   1.775   3.076   4.856 -0.7612 -0.2824  0.0947
  691MOL0     C95226   1.874   3.169   4.880 -0.4213 -0.1393  0.1805
  691MOL0     C95227   2.007   3.126   4.918 -0.6679 -0.1765  0.2543
  691MOL0     O95228   2.128   3.202   4.917  0.4995  0.2191  0.2379
  691MOL0     C95229   2.112   3.347   4.902 -0.4867  0.0105  0.3079
  691MOL0     C95230   2.249   3.428   4.915  0.7197  0.6634 -0.6784
  691MOL0     C95231   2.314   3.425   5.048  0.4310 -0.1113 -0.5482
  691MOL0     C95232   2.430   3.522   5.061 -0.2950  0.0857 -0.2964
  691MOL0     C95233   2.515   3.491   5.185  1.2162 -0.1629  0.2244
  691MOL0     C95234   2.634   3.578   5.212  0.3722 -0.2255 -0.0650
  691MOL0     C95235   2.609   3.722   5.254  0.3591 -0.8198  0.0289
  691MOL0     C95236   2.740   3.803   5.271  0.4619  0.2403  0.3479
  691MOL0     N95237   2.701   3.943   5.276  0.2253  0.5551  0.4637
  691MOL0     C95238   2.667   4.007   5.393 -0.7790 -0.2256  0.6327
  691MOL0     C95239   2.584   4.105   5.359 -0.5851 -0.4198 -0.5019
  691MOL0     C95240   2.520   4.206   5.444 -0.6281  1.2770  0.5334
  691MOL0     C95241   2.377   4.218   5.418  0.5122 -0.1664  0.2583
  691MOL0     C95242   2.299   4.106   5.478  0.7823 -0.1138  0.0386
  691MOL0     C95243   2.149   4.109   5.447 -0.6725  0.4236 -0.3955
  691MOL0     O95244   2.071   4.014   5.518  0.4838  0.2551 -0.0532
  691MOL0     C95245   1.961   3.954   5.459  0.2461 -0.4591 -0.1752
  691MOL0     C95246   1.884   3.866   5.532 -0.3232 -0.2736 -0.3723
  691MOL0     C95247   1.760   3.808   5.489 -0.3166  0.0860  1.2281
  691MOL0     C95248   1.693   3.717   5.590 -1.0419  0.9523  1.1983
  691MOL0     C95249   1.703   3.852   5.367 -0.0777 -0.0227 -0.3248
  691MOL0     C95250   1.575   3.795   5.316 -0.6163 -0.9596 -0.5875
  691MOL0     O95251   1.465   3.764   5.402  0.0032  0.2712 -0.2996
  691MOL0     C95252   1.340   3.739   5.351  0.5076  0.2329 -0.5596
  691MOL0     C95253   1.250   3.696   5.445  0.6204  0.0487 -0.1267
  691MOL0     C95254   1.118   3.659   5.420 -0.4075 -0.1010 -0.0258
  691MOL0     C95255   1.075   3.655   5.287  0.2033 -0.3978  0.5263
  691MOL0     O95256   0.949   3.605   5.269 -0.3406  0.2742  0.0162
  691MOL0     C95257   0.925   3.499   5.183  0.0850  0.2659 -0.3971
  691MOL0     C95258   0.892   3.365   5.261  0.7374 -0.5999  0.4110
  691MOL0     C95259   1.006   3.307   5.339  0.4383 -0.2842  0.9590
  691MOL0     C95260   0.952   3.177   5.416  0.3446  0.8108 -0.3091
  691MOL0     C95261   1.047   3.149   5.530 -0.6474  0.6283 -0.5820
  691MOL0     C95262   1.034   3.010   5.598  0.4946 -0.7656  0.4732
  691MOL0     C95263   0.891   2.993   5.643  0.9570 -0.2083  0.4069
  691MOL0     C95264   0.871   2.880   5.744 -0.2796 -0.2952  0.5131
  691MOL0    Cl95265   0.865   2.712   5.674 -0.2526  0.5416 -0.2052
  691MOL0     C95266   1.168   3.688   5.186 -0.5733  0.1708 -0.4536
  691MOL0     C95267   1.300   3.728   5.221  0.3635  0.7319  0.0300
  691MOL0     O95268   1.588   3.760   5.202  0.3955  0.1242  0.5103
  691MOL0     C95269   1.783   3.934   5.282  0.0037 -0.7098  0.3834
  691MOL0     C95270   1.904   3.983   5.327 -0.0792  0.1301 -0.4949
  691MOL0     N95271   2.590   4.125   5.216  0.8275 -0.1427 -0.1806
  691MOL0     N95272   2.654   4.017   5.171 -0.0455 -0.5737 -0.1513
  691MOL0     C95273   2.021   2.993   4.956  0.7376  0.0856 -0.2596
  691MOL0     C95274   1.907   2.902   4.957 -0.0903 -0.5009 -0.7189
  691MOL0     C95275   1.533   2.676   4.882  0.0317 -1.0583  0.8071
  691MOL0     C95276   1.427   2.739   4.811  0.1370  0.1139 -0.5475
  691MOL0     C95277   1.329   2.665   4.732  0.0610 -0.4358  0.0283
  691MOL0     C95278   1.348   2.525   4.724  0.3467  0.1113 -0.0334
  691MOL0     O95279   1.260   2.451   4.665  0.0691 -0.2824 -0.0444
  691MOL0     C95280   1.174   2.389   4.768  0.6114  0.5341  0.9067
  691MOL0     C95281   1.055   2.316   4.714  0.2263  0.4051 -0.9035
  691MOL0     C95282   1.110   2.181   4.646  0.1657 -0.6038 -0.0344
  691MOL0     C95283   1.001   2.101   4.588 -0.2113  1.2325 -0.1946
  691MOL0     C95284   1.054   1.974   4.555 -0.3576 -0.1459 -0.4605
  691MOL0     C95285   1.114   1.876   4.523  0.3680 -0.2273  1.1901
  691MOL0     C95286   1.445   2.459   4.801  0.0243 -0.4010 -0.1198
  691MOL0     C95287   1.534   2.536   4.883  1.2832  0.1663 -0.2497
  691MOL0     C95288   1.638   2.456   4.952 -0.1497 -0.7814 -1.4114
  691MOL0     H95289   1.687   3.101   4.798 -0.6284  0.0765  0.0416
  691MOL0     H95290   1.864   3.274   4.853 -0.9150 -0.7933 -2.4408
  691MOL0     H95291   2.038   3.386   4.973 -1.9642  1.7719 -2.0440
  691MOL0     H95292   2.077   3.368   4.800  0.7945  2.4970  0.3118
  691MOL0     H95293   2.316   3.394   4.835  0.3807 -0.4110 -0.5174
  691MOL0     H95294   2.238   3.534   4.890 -0.1150  0.4375 -1.3259
  691MOL0     H95295   2.232   3.460   5.111  0.8787  0.7228 -0.4154
  691MOL0     H95296   2.343   3.328   5.088  0.7601 -0.7643 -2.2886
  691MOL0     H95297   2.502   3.515   4.978 -3.8562 -1.0347 -3.5764
  691MOL0     H95298   2.395   3.625   5.069 -2.3435 -0.5328 -0.7069
  691MOL0     H95299   2.543   3.385   5.184 -2.0006 -1.1952  2.5950
  691MOL0     H95300   2.454   3.494   5.276 -3.6152 -0.6860 -2.6249
  691MOL0     H95301   2.688   3.525   5.291  0.0942 -0.0079  0.2745
  691MOL0     H95302   2.702   3.582   5.125  2.6911  1.1167  1.6752
  691MOL0     H95303   2.542   3.723   5.341 -1.8692 -2.4367 -1.5494
  691MOL0     H95304   2.544   3.769   5.181 -0.6266 -2.2525 -0.0556
  691MOL0     H95305   2.809   3.785   5.354 -0.4295 -1.2179  0.8072
  691MOL0     H95306   2.791   3.781   5.176 -1.9356 -0.1005 -0.9388
  691MOL0     H95307   2.706   3.980   5.490 -0.8359  1.7835  1.2630
  691MOL0     H95308   2.572   4.300   5.425  1.0547 -0.0170 -1.8003
  691MOL0     H95309   2.522   4.173   5.548 -1.8187 -2.5117 -0.4798
  691MOL0     H95310   2.346   4.310   5.467 -2.5149 -1.6331  1.3766
  691MOL0     H95311   2.353   4.231   5.312  0.9304 -3.0736 -0.2960
  691MOL0     H95312   2.340   4.009   5.451  1.7038  0.4469 -0.6443
  691MOL0     H95313   2.311   4.130   5.585 -2.6705  1.7661  0.1395
  691MOL0     H95314   2.097   4.202   5.469 -4.0317 -1.3707 -0.0387
  691MOL0     H95315   2.138   4.090   5.340 -1.8498 -1.4999  0.0173
  691MOL0     H95316   1.908   3.853   5.637 -0.8820  0.8813 -0.0881
  691MOL0     H95317   1.693   3.617   5.546  0.6793  1.8886 -1.1441
  691MOL0     H95318   1.588   3.738   5.613 -1.1564 -0.0520  1.6117
  691MOL0     H95319   1.757   3.722   5.678 -0.2697  3.8457  0.5764
  691MOL0     H95320   1.275   3.698   5.551 -2.9586 -1.1263  0.9187
  691MOL0     H95321   1.057   3.629   5.505 -0.9137 -0.4450 -0.5015
  691MOL0     H95322   0.838   3.506   5.117  0.5723 -0.6511 -1.1540
  691MOL0     H95323   1.011   3.467   5.124 -0.6178 -2.6731  0.0267
  691MOL0     H95324   0.811   3.384   5.332  2.5230  0.9169  2.1999
  691MOL0     H95325   0.861   3.292   5.187  1.1754  0.6389 -1.0547
  691MOL0     H95326   1.035   3.380   5.414 -1.3050  0.7805  0.6497
  691MOL0     H95327   1.092   3.278   5.278 -0.1492  0.6988 -0.3880
  691MOL0     H95328   0.949   3.092   5.347 -1.5667 -0.4465  1.2159
  691MOL0     H95329   0.849   3.183   5.452  0.9821 -1.0151  2.0935
  691MOL0     H95330   1.150   3.183   5.518 -1.3839  2.4163 -2.3804
  691MOL0     H95331   1.004   3.220   5.601 -0.1247 -0.2252  0.6192
  691MOL0     H95332   1.103   2.993   5.681 -0.3037 -1.2663  1.0410
  691MOL0     H95333   1.056   2.940   5.517 -2.9632  0.6293 -1.8916
  691MOL0     H95334   0.826   2.978   5.556  0.1728 -0.2796  0.9866
  691MOL0     H95335   0.848   3.081   5.692 -0.0625  0.5309 -1.7002
  691MOL0     H95336   0.774   2.877   5.795 -0.6359  0.5633 -0.0922
  691MOL0     H95337   0.938   2.893   5.829  0.1332 -0.3043  0.1892
  691MOL0     H95338   1.150   3.679   5.079  2.2558 -0.8117 -0.9121
  691MOL0     H95339   1.371   3.764   5.147 -1.7400  3.0605 -1.0059
  691MOL0     H95340   1.757   3.961   5.180  0.5945  3.0428  1.0809
  691MOL0     H95341   1.962   4.044   5.259  1.7377  0.8495  1.6315
  691MOL0     H95342   2.116   2.948   4.981  0.0696 -2.2487 -1.6017
  691MOL0     H95343   1.919   2.802   4.999  1.5480 -0.4712 -1.0748
  691MOL0     H95344   1.416   2.846   4.825 -1.7996  0.1423 -1.8407
  691MOL0     H95345   1.251   2.720   4.681 -0.8720 -3.8673 -2.5910
  691MOL0     H95346   1.228   2.322   4.835 -2.2317  0.0183  2.8402
  691MOL0     H95347   1.135   2.471   4.829 -2.8862 -1.3906  1.5133
  691MOL0     H95348   0.992   2.384   4.655 -0.2496  0.4935 -0.3034
  691MOL0     H95349   0.996   2.286   4.801  1.4361 -0.3299 -0.3109
  691MOL0     H95350   1.180   2.195   4.563 -0.1210  0.4075 -0.1173
  691MOL0     H95351   1.169   2.124   4.719  0.4598  0.4333  0.5622
  691MOL0     H95352   0.977   2.157   4.497 -0.7316 -0.8682 -1.4158
  691MOL0     H95353   0.907   2.090   4.644 -0.8882  0.9940 -1.3459
  691MOL0     H95354   1.161   1.785   4.488  0.1088  0.6543 -1.7377
  691MOL0     H95355   1.452   2.351   4.792  1.4522 -0.1651 -3.1417
  691MOL0     H95356   1.636   2.462   5.061  0.5309  1.1232 -1.4577
  691MOL0     H95357   1.637   2.350   4.925  0.7535 -0.7766 -1.4782
  691MOL0     H95358   1.728   2.509   4.919 -0.7610  1.2994  0.0557
  692MOL0     O95359   4.812   2.465   5.375  0.0676 -0.0475  0.7563
  692MOL0     C95360   4.838   2.362   5.309 -0.3117 -0.6880 -0.1671
  692MOL0     O95361   4.970   2.342   5.247 -0.6348  0.3247 -0.8419
  692MOL0     C95362   5.069   2.398   5.317 -0.5862 -0.1450 -0.7316
  692MOL0     C95363   5.085   2.398   5.456  1.0005 -1.0685 -0.7965
  692MOL0     C95364   5.200   2.455   5.512 -0.8354  0.5608 -0.0285
  692MOL0     C95365   5.298   2.511   5.434  0.1408 -0.5791 -0.0169
  692MOL0     O95366   5.407   2.555   5.498 -0.1429  0.0062  0.8892
  692MOL0     C95367   5.457   2.679   5.461 -0.4837 -0.0408  0.3498
  692MOL0     C95368   5.379   2.793   5.529  0.3968  0.3147  0.7106
  692MOL0     C95369   5.457   2.924   5.520 -0.2366  0.0215  0.8431
  692MOL0     C95370   5.374   3.023   5.601 -0.8807  0.3869 -0.1708
  692MOL0     C95371   5.466   3.131   5.659  0.1044 -0.5577 -0.4221
  692MOL0     C95372   5.496   3.242   5.549 -0.9621  0.4768 -0.0353
  692MOL0     C95373   5.385   3.329   5.515 -0.3953 -0.2259  0.1241
  692MOL0     C95374   5.413   3.451   5.437  0.2781 -0.1603  0.2707
  692MOL0     N95375   5.500   3.543   5.494 -0.0566  0.7688 -0.2796
  692MOL0     C95376   5.462   3.650   5.566 -0.7822 -0.1240  0.4167
  692MOL0     C95377   5.574   3.719   5.590  0.6619 -0.3723 -0.1656
  692MOL0     C95378   5.583   3.848   5.668 -0.2404  0.8850 -0.4334
  692MOL0     C95379   5.582   3.969   5.573 -0.0847 -0.1497 -0.1881
  692MOL0     C95380   5.715   4.056   5.572  0.2005 -0.1183  0.4124
  692MOL0     C95381   5.810   4.009   5.466  0.3684  0.8475 -0.0386
  692MOL0     O95382   5.923   4.095   5.467 -0.4762  0.1902  0.3372
  692MOL0     C95383   5.993   4.111   5.349 -0.3784  0.0362  0.3251
  692MOL0     C95384   6.008   4.008   5.250 -0.0314  0.0525  1.3051
  692MOL0     C95385   6.077   4.026   5.131 -0.0828  0.2022 -0.0372
  692MOL0     C95386   6.091   3.915   5.029 -0.6862 -0.1411  0.4465
  692MOL0     C95387   6.137   4.153   5.111  0.0716  0.3438  0.3128
  692MOL0     C95388   6.221   4.190   4.999  0.6408 -0.0458 -0.4938
  692MOL0     O95389   6.244   4.327   4.982 -0.1610 -0.0364  0.2116
  692MOL0     C95390   6.326   4.375   4.879 -0.4990  0.1499  0.4413
  692MOL0     C95391   6.319   4.504   4.852 -0.6557 -0.2344 -0.7047
  692MOL0     C95392   6.413   4.581   4.783 -0.3803 -0.7038 -0.6670
  692MOL0     C95393   6.521   4.508   4.730 -1.5447 -0.1799 -0.0405
  692MOL0     O95394   6.626   4.573   4.663  0.1578  0.3597  0.0036
  692MOL0     C95395   6.765   4.534   4.688  0.3568 -0.3802 -0.1525
  692MOL0     C95396   6.822   4.660   4.750 -0.8012  0.0195  0.3974
  692MOL0     C95397   6.976   4.668   4.724 -0.6695  0.7544  0.0140
  692MOL0     C95398   7.059   4.609   4.841 -0.5135  0.1572  0.7059
  692MOL0     C95399   7.197   4.581   4.800 -0.3928  0.3918 -0.2252
  692MOL0     C95400   7.281   4.690   4.732 -0.1851 -0.4586  0.2840
  692MOL0     C95401   7.317   4.808   4.826 -0.4761 -0.7050 -0.1021
  692MOL0     C95402   7.422   4.914   4.790  0.1056  0.3692  0.5260
  692MOL0    Cl95403   7.333   5.043   4.703 -0.2711  0.0802  0.4330
  692MOL0     C95404   6.533   4.379   4.752 -0.4405  0.2277 -0.5610
  692MOL0     C95405   6.444   4.310   4.831  1.3804  0.8997 -0.9222
  692MOL0     O95406   6.266   4.099   4.926  0.3586 -0.7149  0.2029
  692MOL0     C95407   6.122   4.257   5.202  0.2863  1.3793 -0.5652
  692MOL0     C95408   6.051   4.232   5.318 -0.0280 -0.1417  0.2030
  692MOL0     N95409   5.680   3.651   5.532  0.4601  0.1007 -0.7440
  692MOL0     N95410   5.635   3.542   5.479  0.2625  0.6072  0.0639
  692MOL0     C95411   5.289   2.507   5.294  0.8301  0.4008 -0.3547
  692MOL0     C95412   5.170   2.450   5.236  0.1909 -0.0110  0.6392
  692MOL0     C95413   4.729   2.255   5.276 -0.4006  0.5033 -0.2117
  692MOL0     C95414   4.778   2.141   5.202  0.2142 -0.5125  1.1607
  692MOL0     C95415   4.701   2.022   5.179 -0.4973 -0.0058 -0.5589
  692MOL0     C95416   4.583   2.010   5.255  1.0802 -0.2804 -0.1765
  692MOL0     O95417   4.513   1.898   5.254 -0.0563  0.3975  0.7624
  692MOL0     C95418   4.439   1.873   5.131  0.0840 -0.2241  0.6524
  692MOL0     C95419   4.315   1.963   5.130 -0.9135  0.3259 -0.1204
  692MOL0     C95420   4.211   1.887   5.205  0.4341 -0.2301  0.2654
  692MOL0     C95421   4.087   1.976   5.245 -0.1732 -0.1045  0.6830
  692MOL0     C95422   4.029   2.034   5.128 -0.3218 -0.1698 -0.0498
  692MOL0     C95423   3.958   2.065   5.032  0.1867 -0.1368 -0.7178
  692MOL0     C95424   4.538   2.108   5.334 -0.1281 -0.1844 -0.1446
  692MOL0     C95425   4.598   2.238   5.335  0.3582  0.7072  0.5940
  692MOL0     C95426   4.546   2.343   5.428 -0.9380 -0.2335  0.6338
  692MOL0     H95427   5.008   2.347   5.515 -1.5595 -0.3280 -3.2695
  692MOL0     H95428   5.223   2.456   5.618  0.1321 -1.3155 -0.1812
  692MOL0     H95429   5.455   2.690   5.352  3.0186 -0.4738  0.1269
  692MOL0     H95430   5.561   2.691   5.490 -0.8300 -1.7356  2.5648
  692MOL0     H95431   5.280   2.805   5.485  0.6391  0.3438  0.1567
  692MOL0     H95432   5.372   2.758   5.632 -0.2684 -0.6382  0.3563
  692MOL0     H95433   5.557   2.905   5.562  1.5690 -1.7574 -3.5963
  692MOL0     H95434   5.478   2.963   5.420  0.5346  1.5298  1.5593
  692MOL0     H95435   5.299   3.061   5.532 -1.2485  0.1329  0.0811
  692MOL0     H95436   5.315   2.969   5.677 -3.1245  1.9226 -0.7470
  692MOL0     H95437   5.565   3.085   5.670 -0.0626 -1.0324 -0.8691
  692MOL0     H95438   5.419   3.174   5.747 -0.6063  0.4819 -1.2874
  692MOL0     H95439   5.591   3.294   5.567 -0.6371 -0.0763 -0.1260
  692MOL0     H95440   5.520   3.180   5.461 -0.2999  0.9810 -0.2188
  692MOL0     H95441   5.348   3.363   5.612  0.9169  0.9896  0.2338
  692MOL0     H95442   5.314   3.266   5.461 -0.3133  0.9525 -1.3921
  692MOL0     H95443   5.450   3.418   5.340  0.1518  1.1634 -0.2565
  692MOL0     H95444   5.318   3.498   5.407  0.8649 -0.2784 -1.9496
  692MOL0     H95445   5.364   3.689   5.589  0.0572  2.3815  0.0618
  692MOL0     H95446   5.680   3.836   5.718 -1.4337 -1.8124  1.4205
  692MOL0     H95447   5.496   3.845   5.734  0.1141 -2.2880  0.0523
  692MOL0     H95448   5.555   3.948   5.469  2.2371 -0.9739 -0.6819
  692MOL0     H95449   5.501   4.031   5.613 -3.2676 -2.8922 -1.8836
  692MOL0     H95450   5.682   4.158   5.550 -0.7118 -0.3778  0.5241
  692MOL0     H95451   5.757   4.059   5.674 -0.1186 -0.9539  0.5776
  692MOL0     H95452   5.843   3.906   5.486 -3.2599 -0.6003 -0.5525
  692MOL0     H95453   5.752   4.007   5.373 -0.7570  2.8156  0.5717
  692MOL0     H95454   5.966   3.908   5.255  2.2518 -0.9232  3.4347
  692MOL0     H95455   6.027   3.829   5.049  0.6889 -1.6878 -1.4142
  692MOL0     H95456   6.193   3.876   5.022 -0.8862 -0.8846  1.4916
  692MOL0     H95457   6.054   3.952   4.933  0.3186  1.5890  0.6713
  692MOL0     H95458   6.242   4.556   4.907 -1.0219 -0.9746 -0.5051
  692MOL0     H95459   6.402   4.687   4.762  0.8652 -0.3130  0.5271
  692MOL0     H95460   6.768   4.448   4.756 -0.9838  0.5413  1.1365
  692MOL0     H95461   6.811   4.510   4.592  1.2806  0.3264  0.0957
  692MOL0     H95462   6.776   4.749   4.706 -1.1944  0.2952  1.3416
  692MOL0     H95463   6.804   4.661   4.858 -0.3255 -0.0035  0.4779
  692MOL0     H95464   6.997   4.776   4.719 -2.7269  1.1304 -2.9462
  692MOL0     H95465   7.014   4.640   4.626 -1.9775  0.7413 -0.5059
  692MOL0     H95466   7.013   4.513   4.865  0.1538 -0.5144 -0.6164
  692MOL0     H95467   7.071   4.675   4.928  1.6260  0.7291  0.0345
  692MOL0     H95468   7.257   4.526   4.873  0.6839  0.1830 -1.2338
  692MOL0     H95469   7.191   4.505   4.722 -0.7170  1.1298 -0.9396
  692MOL0     H95470   7.234   4.732   4.642  0.2887  0.7980  0.6151
  692MOL0     H95471   7.364   4.634   4.688  0.7955  0.5798  0.7742
  692MOL0     H95472   7.356   4.750   4.910  0.5720 -4.1996 -2.7394
  692MOL0     H95473   7.230   4.868   4.855 -1.3557 -2.1762  0.3996
  692MOL0     H95474   7.513   4.867   4.750  1.5495  3.4104 -0.0829
  692MOL0     H95475   7.458   4.949   4.888 -1.5216 -3.2738  2.6204
  692MOL0     H95476   6.610   4.318   4.706 -1.3827 -0.0386 -1.8359
  692MOL0     H95477   6.449   4.204   4.855 -2.4430  1.4129  3.6345
  692MOL0     H95478   6.154   4.360   5.187  0.2206  1.8096  1.9403
  692MOL0     H95479   6.048   4.314   5.389  0.6597 -0.9653  1.2189
  692MOL0     H95480   5.377   2.539   5.240  1.8303  2.2268  2.1705
  692MOL0     H95481   5.149   2.456   5.129  0.4673 -1.7936  0.4520
  692MOL0     H95482   4.873   2.134   5.151  0.0571  1.4828  0.4910
  692MOL0     H95483   4.742   1.937   5.125  0.1885  0.7635 -1.2710
  692MOL0     H95484   4.494   1.899   5.039 -0.1444  0.1289  0.6120
  692MOL0     H95485   4.425   1.765   5.119 -0.9569 -0.0595  0.2887
  692MOL0     H95486   4.285   1.987   5.028 -3.2701 -4.5898 -0.8927
  692MOL0     H95487   4.331   2.061   5.175  0.1173 -0.4286  1.2218
  692MOL0     H95488   4.189   1.798   5.146  1.6926  1.2150 -2.5810
  692MOL0     H95489   4.237   1.846   5.303 -6.3106 -0.5524  2.4104
  692MOL0     H95490   4.111   2.051   5.321  0.7503  1.2668 -0.8852
  692MOL0     H95491   4.015   1.910   5.294 -2.8826  1.4310 -0.9477
  692MOL0     H95492   3.886   2.109   4.966  1.3925 -0.0193 -2.0192
  692MOL0     H95493   4.462   2.087   5.408 -1.6456 -1.3341 -1.9085
  692MOL0     H95494   4.621   2.351   5.508  1.2244 -1.4671 -1.1812
  692MOL0     H95495   4.547   2.442   5.382 -0.2442 -0.4958  0.0640
  692MOL0     H95496   4.450   2.321   5.477 -1.7773 -0.2491 -0.9475
  693MOL0     O95497   6.220   4.396   8.456 -0.3438 -0.2117  0.2327
  693MOL0     C95498   6.104   4.385   8.415 -0.2100  0.2138 -0.9388
  693MOL0     O95499   6.069   4.392   8.287 -1.0488 -0.8612 -0.4701
  693MOL0     C95500   6.159   4.401   8.192 -0.3503 -0.7356  0.5782
  693MOL0     C95501   6.187   4.529   8.138  0.9060 -0.0934 -0.6637
  693MOL0     C95502   6.276   4.558   8.038 -1.0126 -0.4309  0.0773
  693MOL0     C95503   6.357   4.454   7.989  0.3162  0.1964 -0.7182
  693MOL0     O95504   6.437   4.465   7.878  0.4966  0.0357 -0.7418
  693MOL0     C95505   6.550   4.547   7.891 -1.1512 -0.1797  0.6724
  693MOL0     C95506   6.682   4.475   7.872  0.5890  0.7029 -1.0810
  693MOL0     C95507   6.673   4.404   7.742 -0.4876  0.4787  0.0888
  693MOL0     C95508   6.807   4.343   7.686  0.6810  1.0967  0.2923
  693MOL0     C95509   6.821   4.186   7.697 -1.0790 -0.4752  0.0935
  693MOL0     C95510   6.823   4.146   7.844  0.1111 -0.5665 -0.7737
  693MOL0     C95511   6.827   3.996   7.852 -0.4280 -0.4904 -0.5932
  693MOL0     C95512   6.714   3.931   7.932  0.1194 -0.4408 -0.1772
  693MOL0     N95513   6.727   3.785   7.956 -0.4757 -0.2551  0.5549
  693MOL0     C95514   6.694   3.694   7.857 -0.0117 -0.5379  0.0052
  693MOL0     C95515   6.701   3.572   7.917  0.2022  0.1080  0.1667
  693MOL0     C95516   6.669   3.445   7.838 -0.1520 -0.3946 -0.2123
  693MOL0     C95517   6.783   3.392   7.753 -0.1072  0.0255  0.2726
  693MOL0     C95518   6.915   3.350   7.830  0.3083 -0.2604  0.3128
  693MOL0     C95519   6.986   3.242   7.742  0.1948 -0.5373 -0.2457
  693MOL0     O95520   7.073   3.298   7.639  0.7912  0.0065  0.3339
  693MOL0     C95521   7.208   3.302   7.649  1.2097 -0.3502  0.0400
  693MOL0     C95522   7.280   3.357   7.544 -0.1607  0.2930 -0.9609
  693MOL0     C95523   7.427   3.360   7.545  0.6878  0.2789 -0.6460
  693MOL0     C95524   7.482   3.415   7.415  0.0386 -0.9163  0.0713
  693MOL0     C95525   7.499   3.309   7.651 -0.1702  0.5292  0.2092
  693MOL0     C95526   7.650   3.282   7.642  1.1625  0.3327  0.3919
  693MOL0     O95527   7.702   3.272   7.517  0.0820  0.2509 -0.1128
  693MOL0     C95528   7.840   3.291   7.510  0.2182  0.2421 -0.7913
  693MOL0     C95529   7.910   3.184   7.472  0.1333  0.4007 -0.3258
  693MOL0     C95530   8.046   3.184   7.472  0.3139 -0.8130 -0.1618
  693MOL0     C95531   8.119   3.297   7.520  0.4563 -0.2062  1.0554
  693MOL0     O95532   8.258   3.299   7.514 -0.2959  0.8444  0.8033
  693MOL0     C95533   8.325   3.419   7.454 -0.3289 -0.4821 -0.0713
  693MOL0     C95534   8.269   3.467   7.315  0.3822  0.4339 -0.2254
  693MOL0     C95535   8.363   3.579   7.256 -0.0306  0.4902  0.2158
  693MOL0     C95536   8.511   3.535   7.240  0.3172  0.3624  0.0499
  693MOL0     C95537   8.589   3.612   7.129  0.5368 -0.2234 -1.4178
  693MOL0     C95538   8.736   3.548   7.101  0.0343 -0.0082 -0.2799
  693MOL0     C95539   8.732   3.414   7.034 -0.4486  0.3473 -0.2195
  693MOL0     C95540   8.867   3.369   6.973 -0.9723 -0.6772  0.8236
  693MOL0    Cl95541   8.955   3.505   6.900 -0.5488 -0.3694  0.1288
  693MOL0     C95542   8.042   3.407   7.569  0.3836  0.2126 -0.0253
  693MOL0     C95543   7.902   3.405   7.563 -0.1822  0.0860 -0.8299
  693MOL0     O95544   7.710   3.265   7.747 -0.6975 -0.1006  0.5386
  693MOL0     C95545   7.425   3.253   7.761 -0.4283  0.0477  0.1016
  693MOL0     C95546   7.286   3.250   7.755 -0.1701  0.2185 -0.5405
  693MOL0     N95547   6.740   3.593   8.055  0.7008 -0.3613 -0.2203
  693MOL0     N95548   6.741   3.722   8.075  0.0044  0.2289  0.5587
  693MOL0     C95549   6.326   4.329   8.031  0.0196  0.7703 -0.8079
  693MOL0     C95550   6.232   4.290   8.132  0.3659  0.3398  0.0420
  693MOL0     C95551   5.996   4.367   8.524  0.2785 -0.9988  0.1664
  693MOL0     C95552   6.010   4.412   8.662 -1.0529 -0.1470  0.4480
  693MOL0     C95553   5.911   4.409   8.747 -0.2500  0.7384 -0.9893
  693MOL0     C95554   5.789   4.356   8.721  1.3340  0.4150 -0.1082
  693MOL0     O95555   5.677   4.342   8.804 -1.1468  0.0918 -0.1761
  693MOL0     C95556   5.676   4.438   8.906  0.5799 -0.6738 -0.0697
  693MOL0     C95557   5.631   4.571   8.833  0.1394  0.5838 -0.1179
  693MOL0     C95558   5.636   4.677   8.934  0.1862 -0.2350  0.0063
  693MOL0     C95559   5.603   4.815   8.868  0.2507 -0.7290  0.4866
  693MOL0     C95560   5.692   4.861   8.763 -0.5619  0.7305 -0.1511
  693MOL0     C95561   5.764   4.887   8.675 -0.1443 -1.1377  0.7032
  693MOL0     C95562   5.769   4.315   8.586  0.5441  0.2694 -0.3436
  693MOL0     C95563   5.868   4.313   8.487 -0.0849  0.9496 -0.7116
  693MOL0     C95564   5.840   4.229   8.362 -0.4347 -1.6384  0.8374
  693MOL0     H95565   6.141   4.616   8.184  1.8785 -0.6516  1.4532
  693MOL0     H95566   6.290   4.660   8.002 -0.7797  0.1281  1.6877
  693MOL0     H95567   6.565   4.596   7.987  1.5703 -0.6895  0.5763
  693MOL0     H95568   6.552   4.624   7.813  2.2977 -0.1568  0.6540
  693MOL0     H95569   6.756   4.554   7.861  2.7591 -1.4064 -2.5411
  693MOL0     H95570   6.700   4.406   7.955  0.0381  0.2753 -1.3090
  693MOL0     H95571   6.591   4.332   7.733  0.7599 -1.1237  1.1610
  693MOL0     H95572   6.658   4.487   7.672 -1.6165 -1.6117 -2.3277
  693MOL0     H95573   6.802   4.357   7.578 -0.7103 -2.8986 -0.3020
  693MOL0     H95574   6.892   4.399   7.726  2.7791 -0.2083 -2.0961
  693MOL0     H95575   6.911   4.154   7.645 -1.1691  0.1294 -0.4530
  693MOL0     H95576   6.733   4.143   7.648 -0.2127 -1.6498 -0.4664
  693MOL0     H95577   6.923   4.177   7.876  0.0690  1.4308 -2.3711
  693MOL0     H95578   6.739   4.188   7.899 -1.2966 -1.8661 -1.8498
  693MOL0     H95579   6.921   3.970   7.902  0.4143 -0.5572 -2.1522
  693MOL0     H95580   6.822   3.948   7.754  2.3520 -0.9847 -0.5752
  693MOL0     H95581   6.709   3.982   8.029  1.4696 -2.4127  1.0042
  693MOL0     H95582   6.620   3.950   7.879  0.1703  0.0272 -0.1051
  693MOL0     H95583   6.691   3.711   7.749  1.2489  0.8009  0.1388
  693MOL0     H95584   6.581   3.466   7.776  0.2303 -1.3010 -1.0891
  693MOL0     H95585   6.635   3.371   7.911 -2.4534 -2.8800 -3.4752
  693MOL0     H95586   6.746   3.305   7.697 -3.1794  1.5148 -0.2128
  693MOL0     H95587   6.810   3.472   7.683  1.1192  0.5153  1.2487
  693MOL0     H95588   6.983   3.434   7.843  2.8558 -1.4366 -3.5892
  693MOL0     H95589   6.894   3.307   7.928 -2.7937 -1.9909 -0.9396
  693MOL0     H95590   7.056   3.186   7.805 -0.0446 -0.1065  0.4090
  693MOL0     H95591   6.916   3.174   7.692 -1.1828  1.3861 -1.0310
  693MOL0     H95592   7.222   3.401   7.463 -1.9278 -0.0370  0.0652
  693MOL0     H95593   7.400   3.444   7.348  0.0814  1.9119  1.1036
  693MOL0     H95594   7.554   3.349   7.366  1.3681 -0.4220  1.2839
  693MOL0     H95595   7.539   3.503   7.443  0.3669 -0.3531 -2.1950
  693MOL0     H95596   7.857   3.093   7.445  2.8034 -0.6861 -2.3509
  693MOL0     H95597   8.095   3.100   7.423 -0.2652 -2.3358  1.7304
  693MOL0     H95598   8.318   3.499   7.528 -1.0028 -2.2661  1.8808
  693MOL0     H95599   8.429   3.400   7.427 -0.6177 -0.3189 -1.3781
  693MOL0     H95600   8.271   3.383   7.246  0.9388 -0.0666  0.3906
  693MOL0     H95601   8.167   3.506   7.311 -0.1347 -0.7163  1.0578
  693MOL0     H95602   8.359   3.663   7.326  1.9838  0.3724  0.5340
  693MOL0     H95603   8.320   3.629   7.169 -4.2569 -1.3722  0.9788
  693MOL0     H95604   8.521   3.432   7.207  2.9306  1.1821 -1.9703
  693MOL0     H95605   8.563   3.555   7.334 -0.1941  2.3321 -0.0468
  693MOL0     H95606   8.533   3.601   7.036  0.5818 -2.7238 -1.2351
  693MOL0     H95607   8.592   3.718   7.154 -3.3316 -0.5389  1.3412
  693MOL0     H95608   8.793   3.532   7.192  0.8076  0.5550 -0.6539
  693MOL0     H95609   8.785   3.616   7.031  1.3763 -0.3552  0.3097
  693MOL0     H95610   8.654   3.416   6.958  0.5802 -0.6728 -1.3427
  693MOL0     H95611   8.692   3.342   7.105  0.8700 -0.1747  0.0272
  693MOL0     H95612   8.851   3.286   6.904 -0.2016  0.2022 -0.4536
  693MOL0     H95613   8.938   3.335   7.049  1.1592  0.6894 -0.4525
  693MOL0     H95614   8.088   3.487   7.625 -2.1580  2.5267 -1.0478
  693MOL0     H95615   7.845   3.483   7.612 -1.1735 -0.7728 -0.5841
  693MOL0     H95616   7.471   3.212   7.851  0.1533  0.1030 -0.1655
  693MOL0     H95617   7.242   3.214   7.847 -0.8020 -1.0199 -1.2908
  693MOL0     H95618   6.372   4.236   7.997 -1.4278 -0.3500  0.1630
  693MOL0     H95619   6.220   4.185   8.158  0.2748  1.1265  3.6606
  693MOL0     H95620   6.107   4.451   8.692 -2.4662  1.2805  3.5907
  693MOL0     H95621   5.932   4.453   8.844 -0.1194  0.4748 -0.8964
  693MOL0     H95622   5.598   4.411   8.978 -1.4513 -0.6397 -2.1586
  693MOL0     H95623   5.769   4.455   8.961 -1.4472  2.6907  2.7885
  693MOL0     H95624   5.535   4.567   8.781 -1.6581  1.6872  2.8543
  693MOL0     H95625   5.700   4.589   8.750 -2.9811 -0.7696 -3.3042
  693MOL0     H95626   5.562   4.647   9.009 -0.7945  1.3050 -0.2978
  693MOL0     H95627   5.733   4.688   8.984  1.0264  0.6909 -1.7164
  693MOL0     H95628   5.585   4.882   8.952  0.5099 -0.4587  0.3257
  693MOL0     H95629   5.505   4.819   8.819 -0.2219 -0.9190  1.3822
  693MOL0     H95630   5.837   4.908   8.599 -0.2856 -1.4482  0.4770
  693MOL0     H95631   5.669   4.286   8.554 -0.9495  4.9402 -0.6672
  693MOL0     H95632   5.759   4.156   8.372 -1.3121 -0.5485  2.0327
  693MOL0     H95633   5.817   4.305   8.287  1.3030 -0.0104  1.8686
  693MOL0     H95634   5.933   4.176   8.335  0.6852  0.8667 -0.6058
  694MOL0     O95635   6.921   7.492   3.168 -0.5449 -0.0648 -0.1066
  694MOL0     C95636   6.836   7.503   3.087 -0.1752 -0.1926  0.9375
  694MOL0     O95637   6.852   7.531   2.952 -0.2557 -0.4509 -0.0592
  694MOL0     C95638   6.976   7.580   2.906 -0.2634  0.0412 -0.1595
  694MOL0     C95639   7.001   7.545   2.776 -0.0252  0.0289  0.5268
  694MOL0     C95640   7.113   7.586   2.703 -0.3570 -0.7227 -0.7984
  694MOL0     C95641   7.221   7.644   2.774  0.0768  0.2922 -0.2827
  694MOL0     O95642   7.330   7.669   2.692  0.4650 -0.1379  1.0175
  694MOL0     C95643   7.437   7.739   2.749  0.0578  0.5204  0.0409
  694MOL0     C95644   7.549   7.783   2.658  0.3503  1.0709  0.7759
  694MOL0     C95645   7.660   7.827   2.740 -0.0688  0.2224 -0.2250
  694MOL0     C95646   7.785   7.821   2.662 -0.3682  0.0399 -0.7110
  694MOL0     C95647   7.902   7.876   2.729  0.1181  0.4314  0.1057
  694MOL0     C95648   8.025   7.862   2.648  0.1750 -0.1190  0.5057
  694MOL0     C95649   8.146   7.900   2.727  0.7154 -0.7630 -0.4950
  694MOL0     C95650   8.260   7.893   2.634  0.0058  0.5737 -0.1363
  694MOL0     N95651   8.386   7.966   2.673 -0.4314  0.1021  0.5804
  694MOL0     C95652   8.416   8.104   2.670  0.3213 -0.0298  0.7549
  694MOL0     C95653   8.548   8.116   2.708  0.0769 -0.3009 -0.7959
  694MOL0     C95654   8.629   8.242   2.727 -0.0506  0.6537 -0.4601
  694MOL0     C95655   8.701   8.293   2.605 -0.1251 -0.5870  0.6256
  694MOL0     C95656   8.769   8.193   2.520 -0.2531 -0.0889 -0.7110
  694MOL0     C95657   8.885   8.135   2.598 -0.4631 -0.1006 -0.0346
  694MOL0     O95658   8.987   8.236   2.594  0.0350  0.2451 -1.0479
  694MOL0     C95659   9.119   8.212   2.622  1.4131  0.1812  0.3728
  694MOL0     C95660   9.225   8.298   2.589 -0.1233  0.7103  0.6306
  694MOL0     C95661   9.360   8.270   2.636 -1.1163 -0.1064 -0.7582
  694MOL0     C95662   9.462   8.383   2.620  0.1225  0.2563 -0.5061
  694MOL0     C95663   9.391   8.162   2.719  0.6999 -0.7691 -0.6274
  694MOL0     C95664   9.521   8.128   2.785 -0.4322  1.1847 -0.8635
  694MOL0     O95665   9.630   8.205   2.764  0.0708 -0.3461 -0.0640
  694MOL0     C95666   9.743   8.184   2.847  0.1172  0.5633  0.1860
  694MOL0     C95667   9.755   8.169   2.981  0.9422  0.1706 -0.5825
  694MOL0     C95668   9.877   8.146   3.048 -0.2142  0.2061 -0.8534
  694MOL0     C95669   9.999   8.148   2.980  0.0880  0.3380 -0.2203
  694MOL0     O95670  10.128   8.139   3.038  0.4512 -0.5953  0.2410
  694MOL0     C95671  10.130   8.152   3.180  0.7619 -0.0416 -0.7287
  694MOL0     C95672  10.091   8.293   3.238  0.6884  0.5928 -0.1066
  694MOL0     C95673  10.203   8.339   3.332  0.3509 -0.6037  0.4967
  694MOL0     C95674  10.165   8.450   3.429 -0.3176 -0.8014 -0.5299
  694MOL0     C95675  10.287   8.480   3.517  0.2602 -0.0662 -0.2432
  694MOL0     C95676  10.288   8.390   3.640 -0.1937 -0.9653 -0.2190
  694MOL0     C95677  10.396   8.435   3.740  0.5763  0.5061  0.3414
  694MOL0     C95678  10.390   8.340   3.860  0.6062  0.4339  1.1478
  694MOL0    Cl95679  10.322   8.430   4.000  0.3149  0.0243  0.2438
  694MOL0     C95680   9.995   8.169   2.845  0.2146  0.1122 -0.1113
  694MOL0     C95681   9.871   8.186   2.777  0.1718 -0.0719 -0.4420
  694MOL0     O95682   9.528   8.024   2.847  0.4130  0.2567 -0.2204
  694MOL0     C95683   9.277   8.082   2.751 -0.0788  0.8451  0.3587
  694MOL0     C95684   9.152   8.099   2.694  0.2414  0.0006 -0.5218
  694MOL0     N95685   8.588   7.989   2.754  0.6829 -0.3862 -0.0588
  694MOL0     N95686   8.493   7.904   2.728 -0.6452 -0.2126  0.4897
  694MOL0     C95687   7.200   7.673   2.909 -0.6138 -0.0427 -0.3291
  694MOL0     C95688   7.081   7.645   2.976  0.6745 -0.3075 -0.5313
  694MOL0     C95689   6.696   7.502   3.129 -0.0689  0.4026  0.1254
  694MOL0     C95690   6.599   7.458   3.029  0.1006  0.5002 -0.1944
  694MOL0     C95691   6.462   7.449   3.067 -1.3322 -0.1715  0.6643
  694MOL0     C95692   6.419   7.464   3.197 -0.3325  0.8208 -0.2352
  694MOL0     O95693   6.283   7.458   3.202  0.6394  0.5655  0.3317
  694MOL0     C95694   6.224   7.420   3.328  0.2449  0.8183 -0.0109
  694MOL0     C95695   6.181   7.544   3.406  0.5911  0.9672  0.0801
  694MOL0     C95696   6.090   7.489   3.518  0.9021  0.0515  0.2753
  694MOL0     C95697   6.012   7.584   3.612  0.3128 -0.3422 -0.0911
  694MOL0     C95698   5.947   7.512   3.729 -0.4004  0.2209  0.3738
  694MOL0     C95699   5.903   7.459   3.828  0.7807  0.5032 -0.1182
  694MOL0     C95700   6.514   7.493   3.291  0.3330  0.2076 -0.3899
  694MOL0     C95701   6.651   7.524   3.261  0.2170  0.0123 -0.0343
  694MOL0     C95702   6.728   7.582   3.373 -0.4505  0.3001  0.2772
  694MOL0     H95703   6.922   7.493   2.723  0.8681 -0.4605 -0.3714
  694MOL0     H95704   7.128   7.559   2.599  0.3424  2.1121 -1.5185
  694MOL0     H95705   7.489   7.666   2.813 -1.0080  0.4412  0.8275
  694MOL0     H95706   7.397   7.821   2.808 -1.6011  1.5846 -2.4025
  694MOL0     H95707   7.578   7.696   2.599  0.2265  0.4866  1.5717
  694MOL0     H95708   7.510   7.865   2.596  0.4112  1.5959  1.4238
  694MOL0     H95709   7.643   7.931   2.769  0.1575 -0.7245  3.8462
  694MOL0     H95710   7.662   7.787   2.841 -0.2529  0.8549  0.0322
  694MOL0     H95711   7.800   7.714   2.645  0.1337 -0.3678  1.9343
  694MOL0     H95712   7.768   7.877   2.569 -0.3402  0.9434 -0.1871
  694MOL0     H95713   7.900   7.813   2.818  2.0046  1.6371  1.0887
  694MOL0     H95714   7.881   7.979   2.761 -0.7014  0.4711 -0.5283
  694MOL0     H95715   8.040   7.764   2.602  3.2463  2.3712 -4.6739
  694MOL0     H95716   8.015   7.938   2.570 -1.9734  1.1371  1.9121
  694MOL0     H95717   8.172   7.846   2.818  0.7328 -0.3498 -0.2505
  694MOL0     H95718   8.143   8.002   2.767  2.5160  0.0760 -2.3485
  694MOL0     H95719   8.279   7.787   2.615  0.7846  0.6230  0.3056
  694MOL0     H95720   8.233   7.935   2.537  0.0266  0.8387 -0.0273
  694MOL0     H95721   8.346   8.176   2.629  0.3517 -0.6762 -0.4670
  694MOL0     H95722   8.711   8.209   2.792  1.0585 -2.8158 -3.2723
  694MOL0     H95723   8.572   8.324   2.773  0.4175  1.8346 -1.9208
  694MOL0     H95724   8.633   8.348   2.540  0.4967 -0.2448  0.2586
  694MOL0     H95725   8.767   8.373   2.637  0.3292 -0.0495 -1.5061
  694MOL0     H95726   8.703   8.108   2.501 -0.5475  0.1521 -0.7709
  694MOL0     H95727   8.799   8.230   2.421 -1.5011 -0.0457 -1.0868
  694MOL0     H95728   8.857   8.108   2.700 -0.5611  1.7400  0.4536
  694MOL0     H95729   8.921   8.044   2.549  0.8097  0.6863 -0.6149
  694MOL0     H95730   9.215   8.390   2.532  3.8310  2.8129  2.8276
  694MOL0     H95731   9.544   8.338   2.563  0.3715  2.7318 -2.2321
  694MOL0     H95732   9.488   8.415   2.721 -0.0802 -2.1135  0.3565
  694MOL0     H95733   9.432   8.475   2.569  2.7639  2.1165  1.0530
  694MOL0     H95734   9.665   8.164   3.041  0.0491  1.4589 -1.7550
  694MOL0     H95735   9.868   8.141   3.156 -0.2617  2.8507 -0.6744
  694MOL0     H95736  10.058   8.076   3.211 -1.6313  1.1621 -2.9521
  694MOL0     H95737  10.227   8.122   3.221  0.4851  3.2891  2.9072
  694MOL0     H95738  10.077   8.368   3.159  2.1167  3.9515  2.5549
  694MOL0     H95739   9.993   8.300   3.288 -0.4744 -1.4295 -1.9419
  694MOL0     H95740  10.294   8.353   3.272  0.8476 -5.7918 -0.5058
  694MOL0     H95741  10.235   8.256   3.396 -0.1656 -2.1039 -1.0779
  694MOL0     H95742  10.079   8.428   3.494 -1.1639  0.5378 -1.1530
  694MOL0     H95743  10.133   8.537   3.370  0.7200  0.0821  0.1597
  694MOL0     H95744  10.377   8.467   3.456  0.0582 -0.5063 -0.4434
  694MOL0     H95745  10.280   8.583   3.554 -2.4994 -0.4339  0.4705
  694MOL0     H95746  10.315   8.289   3.607 -1.8859 -1.4793 -0.1041
  694MOL0     H95747  10.193   8.392   3.693 -0.6406  2.4382 -0.9502
  694MOL0     H95748  10.378   8.542   3.758 -0.7946  1.1377 -3.7401
  694MOL0     H95749  10.497   8.436   3.698 -0.1201  2.8013 -1.5667
  694MOL0     H95750  10.492   8.310   3.889  0.5012  0.6700  1.7859
  694MOL0     H95751  10.325   8.257   3.830 -1.7615  2.1264  1.3297
  694MOL0     H95752  10.090   8.174   2.793  2.2735 -2.3908  2.9690
  694MOL0     H95753   9.865   8.180   2.669  1.1572 -1.2640 -0.4589
  694MOL0     H95754   9.299   8.000   2.818 -0.4807  0.9707  0.6464
  694MOL0     H95755   9.076   8.027   2.721  2.9995 -3.5794 -1.5489
  694MOL0     H95756   7.276   7.713   2.976 -2.3123 -0.8439  2.2328
  694MOL0     H95757   7.056   7.674   3.077 -0.3372  1.4171 -1.2346
  694MOL0     H95758   6.631   7.451   2.925 -1.0415  1.2434 -0.6156
  694MOL0     H95759   6.389   7.435   2.988 -0.4528 -2.5263  0.1985
  694MOL0     H95760   6.140   7.354   3.307  1.8648 -1.3815  0.0293
  694MOL0     H95761   6.299   7.362   3.383  0.5202  2.1638  1.0690
  694MOL0     H95762   6.138   7.620   3.340  1.0733  1.6177  0.4983
  694MOL0     H95763   6.273   7.585   3.449  2.3207 -2.3302 -0.1219
  694MOL0     H95764   6.011   7.429   3.473  0.5804  1.5075 -1.1536
  694MOL0     H95765   6.160   7.436   3.584  4.3981  0.6453 -2.6486
  694MOL0     H95766   5.934   7.643   3.562 -0.0536 -0.0807  0.7689
  694MOL0     H95767   6.075   7.669   3.641  1.1113 -1.0740  0.3691
  694MOL0     H95768   5.845   7.420   3.910  0.7710  0.9110  0.0746
  694MOL0     H95769   6.477   7.510   3.391 -1.0756 -0.9394 -0.6862
  694MOL0     H95770   6.773   7.678   3.349  1.1135  0.0617  2.0757
  694MOL0     H95771   6.664   7.585   3.461  2.5826 -0.0187  2.6626
  694MOL0     H95772   6.820   7.528   3.398  0.0151  1.6462  1.5952
  695MOL0     O95773   3.360  11.057  11.332  0.2432 -0.6647  0.1668
  695MOL0     C95774   3.411  11.165  11.339  0.0779  0.0260 -0.4478
  695MOL0     O95775   3.506  11.201  11.438 -0.1148 -0.0914 -0.6202
  695MOL0     C95776   3.507  11.127  11.557 -0.2019 -0.1121  0.9031
  695MOL0     C95777   3.389  11.127  11.635  0.4289 -0.2540  0.7266
  695MOL0     C95778   3.391  11.062  11.763  0.6445  0.8124 -0.1725
  695MOL0     C95779   3.498  10.974  11.803  0.6283 -0.9201 -0.2291
  695MOL0     O95780   3.514  10.902  11.918 -0.2065  0.1817  0.3504
  695MOL0     C95781   3.454  10.959  12.038  0.0335  0.3193  0.6673
  695MOL0     C95782   3.513  10.878  12.151  0.3232 -0.1148 -0.5778
  695MOL0     C95783   3.429  10.898  12.284 -0.7776 -0.3811 -0.3118
  695MOL0     C95784   3.510  10.839  12.402  0.0004  0.1884 -0.1587
  695MOL0     C95785   3.439  10.869  12.538  0.0298  0.3810  0.3601
  695MOL0     C95786   3.460  11.016  12.560  0.1938 -0.3996  0.1246
  695MOL0     C95787   3.460  11.055  12.716 -0.6147  0.6040  0.7286
  695MOL0     C95788   3.468  11.206  12.734 -0.3045 -1.2522  0.0860
  695MOL0     N95789   3.599  11.255  12.727 -0.1444 -0.5158  0.4058
  695MOL0     C95790   3.645  11.378  12.776  0.1841  0.6536  0.8748
  695MOL0     C95791   3.779  11.370  12.775 -1.0389 -0.0378  0.0655
  695MOL0     C95792   3.872  11.474  12.842 -0.0918  0.0776  0.2664
  695MOL0     C95793   3.967  11.403  12.946 -0.4192 -0.0502  0.3933
  695MOL0     C95794   4.024  11.510  13.045 -0.2524 -0.4669  0.1434
  695MOL0     C95795   4.140  11.448  13.131 -0.0350 -0.9527 -0.1237
  695MOL0     O95796   4.080  11.341  13.209  0.1947  0.0785 -0.1382
  695MOL0     C95797   4.176  11.287  13.291 -0.1776  0.1442  0.0964
  695MOL0     C95798   4.125  11.204  13.396 -0.8262  0.1756 -0.3865
  695MOL0     C95799   4.217  11.125  13.469 -1.0853 -0.2345  0.6206
  695MOL0     C95800   4.156  11.042  13.581 -0.1337  0.5683  0.2811
  695MOL0     C95801   4.357  11.151  13.461  0.0588 -0.0331 -0.3926
  695MOL0     C95802   4.456  11.081  13.533 -0.2475 -0.4352 -0.8074
  695MOL0     O95803   4.463  11.116  13.664 -0.1033 -0.1541  0.4509
  695MOL0     C95804   4.554  11.054  13.749  0.9094  0.1540  0.2369
  695MOL0     C95805   4.619  11.127  13.839  0.2873  0.1110 -0.5290
  695MOL0     C95806   4.710  11.068  13.928  0.7102  0.2544 -0.2589
  695MOL0     C95807   4.736  10.937  13.929  0.1734  0.6023  0.0247
  695MOL0     O95808   4.827  10.881  14.014  0.5454  0.2860 -0.1996
  695MOL0     C95809   4.806  10.735  14.041 -0.3601 -0.0625 -0.6638
  695MOL0     C95810   4.900  10.677  14.146 -0.6576 -0.2592  0.6197
  695MOL0     C95811   4.864  10.720  14.287 -0.1336 -0.0565 -0.8755
  695MOL0     C95812   4.909  10.858  14.334 -0.2604  0.0770  0.0800
  695MOL0     C95813   4.894  10.885  14.487  0.1755  0.2791 -0.2095
  695MOL0     C95814   4.752  10.872  14.537 -0.2337 -0.5891  0.4523
  695MOL0     C95815   4.734  10.903  14.686  0.8498 -0.3374  1.4314
  695MOL0     C95816   4.581  10.897  14.725 -0.9450  0.9384 -0.0523
  695MOL0    Cl95817   4.502  10.742  14.669  0.5598 -0.3815 -0.2092
  695MOL0     C95818   4.672  10.857  13.830 -0.2092  0.5155 -0.0813
  695MOL0     C95819   4.582  10.914  13.740 -0.5429 -0.7720 -0.3022
  695MOL0     O95820   4.518  10.991  13.481 -0.6176  0.1507  0.6090
  695MOL0     C95821   4.399  11.263  13.386  0.6946  0.4766 -0.0208
  695MOL0     C95822   4.314  11.322  13.298  0.1477  0.7407 -0.4482
  695MOL0     N95823   3.824  11.240  12.747 -0.5827 -0.6081  0.4317
  695MOL0     N95824   3.718  11.182  12.711  0.4405 -0.7301 -0.4817
  695MOL0     C95825   3.607  10.972  11.723  0.5227  0.8467 -0.5819
  695MOL0     C95826   3.607  11.040  11.600 -0.8541  0.1306 -0.4879
  695MOL0     C95827   3.328  11.268  11.279  0.1632  1.0048  1.0795
  695MOL0     C95828   3.343  11.401  11.318 -0.0049 -0.3077 -1.0518
  695MOL0     C95829   3.278  11.510  11.256 -0.1613 -0.5064 -0.1452
  695MOL0     C95830   3.198  11.482  11.148  0.3536 -0.1172 -0.6276
  695MOL0     O95831   3.139  11.592  11.087 -0.0114 -0.9799  0.1699
  695MOL0     C95832   2.995  11.585  11.064  0.5106  0.1531 -0.6432
  695MOL0     C95833   2.970  11.710  10.996  0.1960 -0.3612 -0.0304
  695MOL0     C95834   3.058  11.726  10.871  0.0019  0.2476 -0.1542
  695MOL0     C95835   3.005  11.840  10.792  0.8365 -0.7884 -1.1085
  695MOL0     C95836   3.095  11.888  10.691  1.0691  0.0278 -0.0244
  695MOL0     C95837   3.164  11.928  10.602 -0.9406  0.7385  0.3009
  695MOL0     C95838   3.176  11.355  11.107 -0.0277 -0.2357 -0.2581
  695MOL0     C95839   3.240  11.247  11.167 -0.1921 -0.4956  0.0643
  695MOL0     C95840   3.223  11.118  11.091  0.2098 -0.3690 -0.1817
  695MOL0     H95841   3.311  11.196  11.604  1.1170  0.4875  0.6416
  695MOL0     H95842   3.304  11.077  11.826  0.4951  2.1568 -0.6652
  695MOL0     H95843   3.346  10.946  12.035  0.1248 -0.4272 -0.1315
  695MOL0     H95844   3.480  11.065  12.044  0.4270  0.1397  3.0585
  695MOL0     H95845   3.509  10.773  12.123 -0.4006  0.4203 -2.6302
  695MOL0     H95846   3.620  10.898  12.160  0.8062 -2.7641  0.7037
  695MOL0     H95847   3.412  11.005  12.304 -1.5822 -1.0861  3.5532
  695MOL0     H95848   3.329  10.856  12.270 -0.4487 -0.6706 -2.1444
  695MOL0     H95849   3.521  10.733  12.378  0.7560 -0.2184  1.8340
  695MOL0     H95850   3.614  10.873  12.401 -0.4967  1.8916 -2.4811
  695MOL0     H95851   3.486  10.810  12.617 -0.6382 -1.2758 -0.4285
  695MOL0     H95852   3.335  10.836  12.529  1.1632 -4.5920  2.0101
  695MOL0     H95853   3.552  11.053  12.513 -1.0501  1.4027 -1.0177
  695MOL0     H95854   3.387  11.079  12.508  0.3655 -0.2299  0.0849
  695MOL0     H95855   3.544  11.006  12.767 -0.6218 -0.0437  0.1350
  695MOL0     H95856   3.369  11.010  12.756 -0.5729 -1.7931 -1.5776
  695MOL0     H95857   3.398  11.252  12.664  0.7984 -0.0033 -0.2304
  695MOL0     H95858   3.444  11.236  12.836  1.8325  3.6010 -0.5818
  695MOL0     H95859   3.596  11.473  12.793  0.1332  0.4251  2.0300
  695MOL0     H95860   3.809  11.536  12.906 -0.4574  0.9785 -0.9392
  695MOL0     H95861   3.937  11.526  12.771  0.2678 -1.3129 -0.4556
  695MOL0     H95862   3.910  11.323  12.994 -0.6160  0.9862  1.9589
  695MOL0     H95863   4.054  11.357  12.898 -0.6025 -0.4307  0.4220
  695MOL0     H95864   4.062  11.595  12.988  1.0664  0.0455  1.7096
  695MOL0     H95865   3.932  11.531  13.102 -0.0621  0.3926  0.1480
  695MOL0     H95866   4.226  11.428  13.067  1.0841  1.6257  0.4434
  695MOL0     H95867   4.167  11.521  13.208 -2.6469 -3.9918  4.1402
  695MOL0     H95868   4.021  11.171  13.405  0.3380 -3.5006  1.7520
  695MOL0     H95869   4.088  11.107  13.636 -0.9075  0.6159 -0.6920
  695MOL0     H95870   4.228  11.008  13.655 -1.2268 -2.2846  0.1662
  695MOL0     H95871   4.104  10.955  13.539  0.8828  1.0908 -2.3014
  695MOL0     H95872   4.595  11.233  13.834 -1.5010 -0.2664 -0.4082
  695MOL0     H95873   4.744  11.140  14.002 -1.8481  1.7639 -0.4138
  695MOL0     H95874   4.702  10.739  14.072 -0.4568 -2.5400 -0.4895
  695MOL0     H95875   4.818  10.673  13.951 -2.2767  2.4657 -2.8341
  695MOL0     H95876   4.886  10.569  14.138 -0.1208 -0.2043 -1.5351
  695MOL0     H95877   5.005  10.701  14.126 -0.4194 -1.9153 -0.2570
  695MOL0     H95878   4.906  10.640  14.350  1.1464 -0.4186 -2.1253
  695MOL0     H95879   4.757  10.734  14.305  0.0230  3.4232 -1.8783
  695MOL0     H95880   4.859  10.933  14.272 -0.9986 -0.0890  0.4640
  695MOL0     H95881   5.015  10.855  14.307 -0.3339 -2.1702 -0.0793
  695MOL0     H95882   4.971  10.820  14.530  1.1123  2.6886  2.0975
  695MOL0     H95883   4.924  10.987  14.513  0.5752  0.4359 -1.2376
  695MOL0     H95884   4.719  10.769  14.520 -1.8981  0.1765 -1.4239
  695MOL0     H95885   4.686  10.928  14.469  1.1337 -0.8821 -1.1914
  695MOL0     H95886   4.766  11.005  14.709 -1.1442  0.1998  2.0101
  695MOL0     H95887   4.795  10.834  14.745  0.9051  0.6340  2.5461
  695MOL0     H95888   4.514  10.978  14.695 -0.0364  2.0937  0.9779
  695MOL0     H95889   4.582  10.877  14.832 -2.6185 -3.1439 -0.6156
  695MOL0     H95890   4.705  10.756  13.805 -0.4600  0.6395 -0.9853
  695MOL0     H95891   4.535  10.852  13.665 -0.2610 -0.1602 -0.9877
  695MOL0     H95892   4.504  11.289  13.380  0.5712  0.9852 -0.0080
  695MOL0     H95893   4.352  11.399  13.232  0.0318 -0.0613 -1.4755
  695MOL0     H95894   3.686  10.908  11.762  1.6426  2.4628 -0.1077
  695MOL0     H95895   3.700  11.038  11.543 -1.3047 -0.5939 -1.2207
  695MOL0     H95896   3.408  11.416  11.403 -1.4688 -0.1679  0.0837
  695MOL0     H95897   3.283  11.611  11.296 -1.1372 -0.6745  0.4276
  695MOL0     H95898   2.960  11.500  11.005  0.8197  0.2160 -0.9194
  695MOL0     H95899   2.936  11.586  11.156 -0.9369 -1.0862 -1.5132
  695MOL0     H95900   2.992  11.784  11.074  0.9932 -0.4019 -0.2024
  695MOL0     H95901   2.868  11.723  10.959  0.5328  0.0003 -0.8638
  695MOL0     H95902   3.162  11.751  10.895  0.5554 -1.4791 -0.6056
  695MOL0     H95903   3.059  11.632  10.815 -0.4354  1.0334 -1.5176
  695MOL0     H95904   2.983  11.925  10.858  1.2461 -1.9505  0.5808
  695MOL0     H95905   2.909  11.811  10.749 -0.6957  0.0556  1.4701
  695MOL0     H95906   3.219  11.964  10.517  0.5303 -2.2658 -0.1980
  695MOL0     H95907   3.118  11.329  11.019  1.9410 -0.3283 -1.5744
  695MOL0     H95908   3.183  11.032  11.146 -0.6346 -0.3777 -0.8021
  695MOL0     H95909   3.166  11.120  10.998 -2.9195 -0.3055  1.6077
  695MOL0     H95910   3.329  11.094  11.074  1.3172  2.7611  1.4641
  696MOL0     O95911   6.717   3.653   9.363 -0.0526 -0.3483  0.2267
  696MOL0     C95912   6.758   3.768   9.337 -0.7368 -0.4363  0.5325
  696MOL0     O95913   6.765   3.865   9.425  0.4448  0.3024  0.1772
  696MOL0     C95914   6.691   3.867   9.536  0.9396  1.0537 -0.6710
  696MOL0     C95915   6.762   3.860   9.652 -0.1631 -1.0594  0.2029
  696MOL0     C95916   6.695   3.857   9.771  0.6229 -0.0428  0.1362
  696MOL0     C95917   6.561   3.867   9.782 -1.0207 -0.8090  0.2878
  696MOL0     O95918   6.496   3.856   9.897 -0.0316 -0.3977  0.3471
  696MOL0     C95919   6.431   3.723   9.893  0.0209  0.4222  0.8921
  696MOL0     C95920   6.461   3.658  10.028  0.1930 -0.0470  0.2271
  696MOL0     C95921   6.401   3.515  10.041 -0.2152  0.2931 -0.2628
  696MOL0     C95922   6.401   3.477  10.189  0.0056 -0.2775  0.4777
  696MOL0     C95923   6.385   3.317  10.209  0.0339 -0.0441 -0.6343
  696MOL0     C95924   6.419   3.272  10.349  0.6372 -0.3278  0.5348
  696MOL0     C95925   6.336   3.149  10.397  0.2921 -1.1128  0.1278
  696MOL0     C95926   6.357   3.143  10.554  0.4797 -0.1516  0.3258
  696MOL0     N95927   6.499   3.130  10.590  0.1850  0.9111  0.4115
  696MOL0     C95928   6.563   3.216  10.675  0.1776 -0.4588  0.6749
  696MOL0     C95929   6.683   3.162  10.682  0.0004  0.0467  0.6354
  696MOL0     C95930   6.794   3.225  10.758 -0.4441  0.2179  0.5525
  696MOL0     C95931   6.838   3.135  10.877 -0.5073 -0.3160  0.0346
  696MOL0     C95932   6.751   3.154  10.998  0.8183 -0.5535 -0.7891
  696MOL0     C95933   6.790   3.056  11.105  0.6167 -0.4693  0.2238
  696MOL0     O95934   6.900   3.096  11.183 -0.0441  0.2030  0.2376
  696MOL0     C95935   6.971   2.985  11.234  0.3183  0.9859 -0.1508
  696MOL0     C95936   6.912   2.931  11.345  0.1613  0.1834 -0.0467
  696MOL0     C95937   6.965   2.819  11.411 -0.9498 -1.3895 -0.3924
  696MOL0     C95938   6.874   2.753  11.511  0.9397 -0.2021 -0.4621
  696MOL0     C95939   7.092   2.759  11.365 -0.1619 -0.4043 -0.1748
  696MOL0     C95940   7.165   2.655  11.431 -0.2151 -0.4476  0.1766
  696MOL0     O95941   7.305   2.658  11.413  0.4872 -0.7187  0.4236
  696MOL0     C95942   7.365   2.541  11.464 -0.9962  0.2935  0.5124
  696MOL0     C95943   7.380   2.519  11.611 -0.9865 -0.0292  0.1635
  696MOL0     C95944   7.459   2.401  11.645 -0.2616 -0.7755  0.3293
  696MOL0     C95945   7.510   2.315  11.551 -0.6821 -0.7589  0.3175
  696MOL0     O95946   7.600   2.216  11.588  0.1017  0.5215  0.2807
  696MOL0     C95947   7.705   2.244  11.690 -0.1339  0.3213  0.6333
  696MOL0     C95948   7.837   2.175  11.643  0.0364  0.2143  0.1175
  696MOL0     C95949   7.956   2.178  11.748  0.1202 -0.4456 -0.8356
  696MOL0     C95950   8.089   2.154  11.670  0.2354 -0.2713 -0.9765
  696MOL0     C95951   8.192   2.107  11.771  0.7424 -0.7054 -0.1028
  696MOL0     C95952   8.218   1.957  11.804  0.6758  0.2443  0.0596
  696MOL0     C95953   8.264   1.882  11.679 -0.0891  0.8586  0.1075
  696MOL0     C95954   8.320   1.739  11.692 -0.1151 -1.0389  0.4539
  696MOL0    Cl95955   8.445   1.735  11.817 -0.3783 -0.3203 -0.0363
  696MOL0     C95956   7.482   2.329  11.413  0.5836 -0.0010 -0.5024
  696MOL0     C95957   7.414   2.446  11.366  0.3757  0.6285  0.2731
  696MOL0     O95958   7.106   2.578  11.508 -0.1331 -0.6400 -0.2530
  696MOL0     C95959   7.156   2.826  11.250 -0.3213  0.4549 -0.1613
  696MOL0     C95960   7.087   2.927  11.179  0.5774 -0.5510 -0.2863
  696MOL0     N95961   6.694   3.044  10.611 -0.8200 -0.3249 -0.8668
  696MOL0     N95962   6.581   3.022  10.556 -0.0120 -0.4689  0.6103
  696MOL0     C95963   6.491   3.887   9.667  1.0413  0.4377  0.0173
  696MOL0     C95964   6.552   3.885   9.542 -0.9439 -0.0801 -0.3233
  696MOL0     C95965   6.839   3.788   9.209  0.7502  0.3073  0.1007
  696MOL0     C95966   6.945   3.879   9.207  0.0118 -0.9364 -0.0080
  696MOL0     C95967   7.029   3.898   9.093 -0.0337 -0.2082  0.6315
  696MOL0     C95968   7.001   3.820   8.979  0.0068 -0.4736  0.8076
  696MOL0     O95969   7.095   3.821   8.873  0.3042 -0.4406 -0.3097
  696MOL0     C95970   7.075   3.949   8.799 -0.0994 -0.0458  0.7824
  696MOL0     C95971   6.939   3.975   8.736 -0.6571 -0.1299  0.0395
  696MOL0     C95972   6.930   3.924   8.585  0.1966 -1.0790  0.0545
  696MOL0     C95973   6.883   3.786   8.593  0.2848  0.3424  0.3616
  696MOL0     C95974   6.890   3.707   8.467  0.0946 -0.1140 -0.1449
  696MOL0     C95975   6.902   3.642   8.366 -0.6124  0.7679  0.5116
  696MOL0     C95976   6.886   3.744   8.973  0.8848  0.0636  0.0871
  696MOL0     C95977   6.813   3.716   9.092  0.4436  0.2339 -0.1423
  696MOL0     C95978   6.714   3.607   9.078  0.0464  0.4341  0.6750
  696MOL0     H95979   6.867   3.833   9.646 -0.0138 -0.3055 -0.9173
  696MOL0     H95980   6.741   3.837   9.868 -0.1710  0.8032  0.7006
  696MOL0     H95981   6.462   3.653   9.814  0.3250  0.2495  1.1612
  696MOL0     H95982   6.323   3.734   9.884 -0.3389 -2.4758  0.5972
  696MOL0     H95983   6.567   3.665  10.053  0.1391  2.5910  0.0329
  696MOL0     H95984   6.427   3.721  10.112 -1.2019  1.8118 -1.6302
  696MOL0     H95985   6.296   3.514  10.009 -0.2199  0.5270 -0.2575
  696MOL0     H95986   6.468   3.448   9.986 -2.7809 -1.6309 -1.2576
  696MOL0     H95987   6.487   3.505  10.250  1.2692  0.4595 -1.5430
  696MOL0     H95988   6.310   3.526  10.225 -1.2862  1.2003 -4.0986
  696MOL0     H95989   6.430   3.260  10.127  0.7267 -0.3762 -0.0235
  696MOL0     H95990   6.280   3.291  10.192  0.6885 -2.4464 -1.4543
  696MOL0     H95991   6.522   3.236  10.339 -0.4597 -3.8235  0.5802
  696MOL0     H95992   6.414   3.361  10.413  3.7091 -0.2123  0.7408
  696MOL0     H95993   6.375   3.060  10.347  2.4549  1.1921 -2.5948
  696MOL0     H95994   6.231   3.163  10.368  0.2371  1.1503  1.1715
  696MOL0     H95995   6.305   3.225  10.604 -1.8735 -1.1376 -0.3504
  696MOL0     H95996   6.302   3.054  10.589  0.7489  0.3651  2.2019
  696MOL0     H95997   6.541   3.317  10.708  0.9081 -0.2103  0.4235
  696MOL0     H95998   6.759   3.317  10.806 -0.4575  2.4495 -3.3571
  696MOL0     H95999   6.878   3.254  10.695  1.0841  1.9929  3.2048
  696MOL0     H96000   6.825   3.031  10.846  2.5653 -0.4040 -1.2564
  696MOL0     H96001   6.941   3.160  10.906 -0.4342 -0.6716  0.0806
  696MOL0     H96002   6.751   3.258  11.034  0.4734 -0.5772 -0.7139
  696MOL0     H96003   6.651   3.119  10.970  1.4626 -1.0659 -2.5650
  696MOL0     H96004   6.701   3.047  11.168  0.2717  0.5053 -0.1004
  696MOL0     H96005   6.802   2.952  11.075 -0.9299 -1.2644  2.1259
  696MOL0     H96006   6.824   2.982  11.383 -1.4321 -1.0468 -1.9221
  696MOL0     H96007   6.780   2.810  11.512  0.3485 -1.0932 -2.0520
  696MOL0     H96008   6.931   2.747  11.604  1.8037  0.7720 -0.9155
  696MOL0     H96009   6.862   2.651  11.475  0.1625 -0.5217  0.6333
  696MOL0     H96010   7.343   2.578  11.694 -0.6442 -1.0275  1.0511
  696MOL0     H96011   7.476   2.381  11.751  1.2309 -0.4823  0.1703
  696MOL0     H96012   7.722   2.351  11.706 -1.0223  0.1183  3.2832
  696MOL0     H96013   7.666   2.205  11.784 -2.2672  0.7371 -0.0151
  696MOL0     H96014   7.818   2.073  11.608 -1.3042  0.4945 -0.0411
  696MOL0     H96015   7.868   2.224  11.550  1.9709 -0.8424  0.1590
  696MOL0     H96016   7.939   2.093  11.815  0.8603  0.4566  0.5439
  696MOL0     H96017   7.963   2.269  11.807 -1.3005 -0.3943 -0.7021
  696MOL0     H96018   8.115   2.241  11.610 -0.1351 -2.7403 -5.1199
  696MOL0     H96019   8.068   2.074  11.597 -0.7204 -0.5900 -0.3745
  696MOL0     H96020   8.286   2.152  11.736  0.2239  0.5218  0.0256
  696MOL0     H96021   8.192   2.169  11.861 -0.6613  0.7618 -1.0594
  696MOL0     H96022   8.125   1.913  11.841  1.1835 -1.6807 -0.8597
  696MOL0     H96023   8.287   1.937  11.887  1.2181 -0.5821 -0.5743
  696MOL0     H96024   8.350   1.938  11.639  1.3364 -1.9233 -1.0052
  696MOL0     H96025   8.182   1.882  11.606 -0.3506  0.5829  0.3974
  696MOL0     H96026   8.363   1.714  11.594 -0.5647 -1.0538  0.2565
  696MOL0     H96027   8.241   1.666  11.711  0.6502 -1.9689  0.1443
  696MOL0     H96028   7.521   2.258  11.341 -0.5546  0.6520 -1.8194
  696MOL0     H96029   7.381   2.458  11.263 -2.0661  1.7489  1.1146
  696MOL0     H96030   7.255   2.792  11.221 -0.0996  0.6394  0.3759
  696MOL0     H96031   7.147   2.974  11.102  1.2788  1.7983  1.5444
  696MOL0     H96032   6.384   3.904   9.667  0.3131 -2.5850 -3.9207
  696MOL0     H96033   6.491   3.896   9.454 -2.8602 -1.6437  0.7331
  696MOL0     H96034   6.961   3.941   9.295  1.9099  3.7107 -3.2538
  696MOL0     H96035   7.115   3.964   9.091 -0.3472  0.2295  1.4207
  696MOL0     H96036   7.106   4.036   8.858  1.7645  2.0070 -2.9248
  696MOL0     H96037   7.151   3.951   8.721 -1.0187 -0.2974 -0.1481
  696MOL0     H96038   6.929   4.084   8.738 -0.5014 -0.1198  1.0172
  696MOL0     H96039   6.865   3.923   8.798 -2.8490 -0.9276 -3.0161
  696MOL0     H96040   6.859   3.974   8.519 -1.0098 -1.2779  1.1570
  696MOL0     H96041   7.028   3.940   8.538  2.0189 -1.8004  3.2669
  696MOL0     H96042   6.785   3.785   8.642 -0.0581  3.1339 -0.1365
  696MOL0     H96043   6.958   3.727   8.646  2.3166  1.8044 -0.7671
  696MOL0     H96044   6.902   3.582   8.277  2.9724  2.1486 -0.5806
  696MOL0     H96045   6.869   3.692   8.879  1.4273 -1.9073  1.0308
  696MOL0     H96046   6.691   3.591   8.972 -2.6780  2.1472  0.8955
  696MOL0     H96047   6.751   3.512   9.119  0.5814 -0.2620 -1.2975
  696MOL0     H96048   6.619   3.630   9.128 -0.9670  2.0226 -1.7897
  697MOL0     O96049   4.820   2.471   6.400  0.7614 -0.4606 -0.1185
  697MOL0     C96050   4.744   2.556   6.442  0.2170 -0.8144  0.6903
  697MOL0     O96051   4.779   2.661   6.525  0.0400  0.2541  0.3990
  697MOL0     C96052   4.908   2.677   6.569  0.0218  0.0759 -0.2000
  697MOL0     C96053   4.955   2.792   6.526 -0.6639 -0.4058 -0.2433
  697MOL0     C96054   5.087   2.823   6.541  0.2403 -0.1568 -0.5090
  697MOL0     C96055   5.175   2.733   6.605 -0.2292  0.4133  0.0207
  697MOL0     O96056   5.307   2.768   6.617  0.2682 -0.5213 -0.3467
  697MOL0     C96057   5.403   2.664   6.644 -0.0965  0.1994 -0.2269
  697MOL0     C96058   5.526   2.717   6.562  0.3556  0.5658  0.2487
  697MOL0     C96059   5.511   2.753   6.420 -0.0270  0.4819 -0.4058
  697MOL0     C96060   5.414   2.657   6.345  0.6229 -0.2849 -0.3135
  697MOL0     C96061   5.441   2.658   6.199  0.1804  0.3729  0.7470
  697MOL0     C96062   5.396   2.778   6.116  0.6004  0.4948  0.2715
  697MOL0     C96063   5.445   2.758   5.976 -0.0738  0.5323  0.0921
  697MOL0     C96064   5.477   2.880   5.889  1.1075  0.3379 -0.9241
  697MOL0     N96065   5.569   2.972   5.950  0.6530  0.1316 -0.0340
  697MOL0     C96066   5.704   2.973   5.926 -0.6229 -0.3614  0.6927
  697MOL0     C96067   5.752   3.094   5.967  0.0115  0.6748 -0.4373
  697MOL0     C96068   5.891   3.147   5.964 -0.0936  0.6627  0.6407
  697MOL0     C96069   5.882   3.281   5.877  0.4653 -0.2076  0.0803
  697MOL0     C96070   5.888   3.240   5.725 -0.0899 -0.3406 -1.4497
  697MOL0     C96071   5.955   3.348   5.636  0.1110 -0.6948  0.1644
  697MOL0     O96072   6.098   3.333   5.639  0.1114 -0.6253  1.1214
  697MOL0     C96073   6.177   3.417   5.559 -0.5281  1.2329  0.2067
  697MOL0     C96074   6.136   3.513   5.472  0.4271  0.0885 -0.2430
  697MOL0     C96075   6.216   3.594   5.378  0.5353  0.3924 -0.0357
  697MOL0     C96076   6.144   3.691   5.292  0.8542  0.1721  0.0759
  697MOL0     C96077   6.355   3.569   5.380 -0.1223  0.7991  0.0162
  697MOL0     C96078   6.451   3.638   5.298  0.1947  0.4678  0.1330
  697MOL0     O96079   6.437   3.776   5.271 -0.7686  0.2605  0.0147
  697MOL0     C96080   6.542   3.846   5.228 -0.2575 -0.3409 -1.2240
  697MOL0     C96081   6.511   3.967   5.164  0.4888 -0.7896  0.5016
  697MOL0     C96082   6.612   4.054   5.146 -0.9254 -0.0406  0.2487
  697MOL0     C96083   6.746   4.045   5.200  0.3765 -0.4926  0.6226
  697MOL0     O96084   6.835   4.149   5.203 -0.1642 -0.9732 -0.3174
  697MOL0     C96085   6.832   4.255   5.105 -0.8671 -0.4243 -0.1901
  697MOL0     C96086   6.945   4.344   5.146 -0.1787 -0.4594 -0.0580
  697MOL0     C96087   6.940   4.412   5.284 -0.3805 -0.2270  0.4048
  697MOL0     C96088   6.870   4.545   5.287 -0.5576 -0.1721 -0.0439
  697MOL0     C96089   6.800   4.587   5.413 -1.2994  0.1124  0.2156
  697MOL0     C96090   6.895   4.621   5.525  0.7736 -0.5037  0.2671
  697MOL0     C96091   6.825   4.665   5.648 -0.2009  0.4916 -0.0947
  697MOL0     C96092   6.895   4.630   5.775  0.1775  0.9888  0.5759
  697MOL0    Cl96093   7.062   4.703   5.758 -0.2670  0.3306 -0.4279
  697MOL0     C96094   6.771   3.922   5.265 -0.2503  0.9466 -0.1146
  697MOL0     C96095   6.673   3.829   5.276  0.6419 -0.3021  0.0189
  697MOL0     O96096   6.547   3.576   5.259  0.0779  0.3763  0.1972
  697MOL0     C96097   6.397   3.465   5.470  0.4006 -0.0847  0.1637
  697MOL0     C96098   6.315   3.397   5.557 -0.4834 -0.2932  0.5247
  697MOL0     N96099   5.643   3.159   6.022  0.7608 -0.3420  0.1518
  697MOL0     N96100   5.540   3.089   6.015  0.9536 -0.2960 -0.0538
  697MOL0     C96101   5.127   2.612   6.659  1.6184 -0.0628  0.0966
  697MOL0     C96102   4.992   2.590   6.641  0.4510  0.2441 -0.0884
  697MOL0     C96103   4.603   2.550   6.396 -0.3809  0.3159  0.5071
  697MOL0     C96104   4.508   2.634   6.455 -0.1243 -0.1568 -0.1804
  697MOL0     C96105   4.382   2.651   6.414  0.1745 -0.2975  0.7235
  697MOL0     C96106   4.326   2.554   6.329  0.8431 -0.2474  0.3782
  697MOL0     O96107   4.193   2.555   6.279  0.2378  0.3814 -0.7713
  697MOL0     C96108   4.109   2.667   6.292  1.1813 -0.9211  0.1425
  697MOL0     C96109   4.144   2.780   6.192 -1.1926  0.3766  0.5113
  697MOL0     C96110   4.096   2.925   6.226  0.3861  0.4173 -0.0300
  697MOL0     C96111   3.944   2.942   6.236 -0.2100 -0.9912 -0.5479
  697MOL0     C96112   3.881   2.875   6.123  0.6097 -0.0669 -0.4593
  697MOL0     C96113   3.844   2.810   6.024  0.2979 -0.3307 -0.1595
  697MOL0     C96114   4.408   2.465   6.272 -0.2677 -0.3266 -0.6312
  697MOL0     C96115   4.549   2.457   6.301  0.8963  0.6308  0.4198
  697MOL0     C96116   4.634   2.354   6.229 -0.3120  0.0181 -0.6446
  697MOL0     H96117   4.900   2.860   6.461 -0.6163 -0.8352 -0.7409
  697MOL0     H96118   5.127   2.917   6.504  1.0232 -0.3149 -0.0830
  697MOL0     H96119   5.374   2.569   6.597 -3.7068  0.4351  1.2210
  697MOL0     H96120   5.424   2.651   6.750  0.4511  2.8435  0.0615
  697MOL0     H96121   5.552   2.808   6.616  0.0014 -0.6133  2.5169
  697MOL0     H96122   5.607   2.643   6.562  1.1284  1.3863 -0.6222
  697MOL0     H96123   5.469   2.853   6.405 -2.7834 -0.6832 -1.0361
  697MOL0     H96124   5.608   2.751   6.371  0.0220  0.9227 -0.3395
  697MOL0     H96125   5.420   2.555   6.385 -2.7878  0.9649  4.2161
  697MOL0     H96126   5.309   2.675   6.370  1.0657  1.4123  0.4811
  697MOL0     H96127   5.384   2.579   6.149  2.3572  0.2684 -1.7684
  697MOL0     H96128   5.549   2.650   6.181  1.4656  6.0122  3.7321
  697MOL0     H96129   5.286   2.779   6.110  0.6370 -0.8683 -2.0317
  697MOL0     H96130   5.438   2.871   6.155 -2.2405  2.6179 -1.2974
  697MOL0     H96131   5.375   2.687   5.932 -0.4573  0.7289  0.3731
  697MOL0     H96132   5.542   2.707   5.985 -1.1862 -1.9102 -0.8388
  697MOL0     H96133   5.502   2.841   5.790 -1.8916 -2.5828 -0.7124
  697MOL0     H96134   5.389   2.945   5.878  0.8474 -0.0229 -0.9958
  697MOL0     H96135   5.763   2.891   5.887  2.2074  0.3292  3.1177
  697MOL0     H96136   5.955   3.068   5.924 -1.5918 -0.6697  0.7554
  697MOL0     H96137   5.938   3.172   6.059 -0.0451 -1.5374  1.2464
  697MOL0     H96138   5.801   3.354   5.883  0.6211  0.4345 -3.6336
  697MOL0     H96139   5.966   3.348   5.893  0.4990 -0.5903  1.7311
  697MOL0     H96140   5.936   3.142   5.714 -0.0254 -0.4966  0.0288
  697MOL0     H96141   5.784   3.225   5.695 -0.9871 -0.5575  1.4786
  697MOL0     H96142   5.909   3.335   5.537 -0.2021  0.1530  0.1885
  697MOL0     H96143   5.937   3.452   5.668  5.0772  1.0886 -1.8481
  697MOL0     H96144   6.029   3.529   5.474  0.5562  1.1165  2.1273
  697MOL0     H96145   6.189   3.791   5.289 -1.0827  1.1031 -0.0994
  697MOL0     H96146   6.040   3.691   5.328  0.3423  3.1650 -1.0528
  697MOL0     H96147   6.139   3.649   5.191 -4.1729  1.1313 -0.3327
  697MOL0     H96148   6.410   3.989   5.131 -0.5290 -0.5515  3.4469
  697MOL0     H96149   6.574   4.140   5.091  1.3186 -0.0163 -1.4093
  697MOL0     H96150   6.849   4.226   5.000  2.8653  1.9222 -0.4418
  697MOL0     H96151   6.734   4.303   5.113  0.1647  1.4964  2.8756
  697MOL0     H96152   7.042   4.293   5.150 -0.3841 -0.7829  3.1310
  697MOL0     H96153   6.962   4.412   5.062  1.7785  3.3093  3.0227
  697MOL0     H96154   7.043   4.422   5.317  0.9585 -0.6502 -3.1812
  697MOL0     H96155   6.885   4.346   5.352  0.6296  0.0032  1.4809
  697MOL0     H96156   6.787   4.531   5.217 -0.6928  4.3795 -1.0894
  697MOL0     H96157   6.932   4.629   5.253 -2.0463  2.1433  2.5592
  697MOL0     H96158   6.743   4.679   5.396  2.0041  1.8746 -2.4000
  697MOL0     H96159   6.728   4.506   5.431 -0.1702 -0.8179  0.6281
  697MOL0     H96160   6.954   4.706   5.490  2.5597 -1.0365  1.8195
  697MOL0     H96161   6.970   4.544   5.547  3.2848  0.9790 -2.3713
  697MOL0     H96162   6.724   4.625   5.658  0.9136 -1.8767  3.7378
  697MOL0     H96163   6.829   4.775   5.648  1.3611  0.5634  3.2050
  697MOL0     H96164   6.912   4.523   5.788 -2.4360  0.1912 -1.6792
  697MOL0     H96165   6.851   4.669   5.867 -2.5840 -0.5354  0.0114
  697MOL0     H96166   6.871   3.909   5.305 -0.5807  1.3446  0.8697
  697MOL0     H96167   6.712   3.738   5.321  2.9274  1.7903  2.5700
  697MOL0     H96168   6.505   3.454   5.470  0.8276  3.1679 -0.6076
  697MOL0     H96169   6.359   3.320   5.620  1.3089  1.6791  1.7797
  697MOL0     H96170   5.200   2.553   6.712  1.9998 -0.8777 -1.2796
  697MOL0     H96171   4.936   2.509   6.688  0.0090  1.4320  1.5059
  697MOL0     H96172   4.551   2.699   6.531  0.9526 -0.7462 -0.2615
  697MOL0     H96173   4.318   2.722   6.464 -1.2557 -0.4637 -0.7688
  697MOL0     H96174   4.008   2.632   6.268  1.0587  0.3380 -1.3575
  697MOL0     H96175   4.120   2.702   6.395  3.8567  4.4439 -1.5718
  697MOL0     H96176   4.119   2.751   6.089  2.5010  1.0179 -0.7394
  697MOL0     H96177   4.253   2.787   6.200 -0.8241 -0.4498 -2.5261
  697MOL0     H96178   4.139   2.962   6.320 -0.4518  1.2895  0.0342
  697MOL0     H96179   4.141   2.980   6.143  0.2102  1.0504  0.2875
  697MOL0     H96180   3.909   3.044   6.248  1.4559 -0.3201 -1.0983
  697MOL0     H96181   3.913   2.887   6.325  0.2260  0.6690  0.6791
  697MOL0     H96182   3.791   2.749   5.954 -1.1080 -0.7539  1.2244
  697MOL0     H96183   4.356   2.416   6.190 -2.6312  0.8846  0.0412
  697MOL0     H96184   4.683   2.289   6.301 -0.2188  0.6007 -0.1793
  697MOL0     H96185   4.571   2.290   6.166 -2.0680 -1.5355  2.4271
  697MOL0     H96186   4.712   2.414   6.181  2.3948  0.0021  3.3195
  698MOL0     O96187   1.621   5.214   3.679  0.4712  0.1797 -0.6583
  698MOL0     C96188   1.633   5.275   3.573  0.4522 -0.2467 -0.1242
  698MOL0     O96189   1.737   5.365   3.540 -0.2235  0.5634  0.3080
  698MOL0     C96190   1.836   5.367   3.625 -0.0323 -0.2564  0.1356
  698MOL0     C96191   1.949   5.298   3.591 -0.5157 -0.1593 -0.3051
  698MOL0     C96192   2.068   5.311   3.671 -0.9373  0.7732  0.6124
  698MOL0     C96193   2.057   5.387   3.788 -1.1280  0.2198 -0.1195
  698MOL0     O96194   2.181   5.405   3.845 -0.4377 -1.1548  0.2770
  698MOL0     C96195   2.224   5.503   3.941  0.1322  0.5743  0.3493
  698MOL0     C96196   2.376   5.498   3.962 -0.2270  0.2792 -0.1063
  698MOL0     C96197   2.411   5.360   4.014 -0.7325 -0.3937  0.8302
  698MOL0     C96198   2.562   5.323   4.007  0.0168 -0.0694 -0.1650
  698MOL0     C96199   2.600   5.181   4.070  0.0148  0.2303  0.1739
  698MOL0     C96200   2.746   5.154   4.061 -0.3312  0.0609  0.6171
  698MOL0     C96201   2.788   5.091   3.926  0.4257 -0.0726  0.2644
  698MOL0     C96202   2.935   5.052   3.924 -0.2871 -0.0027 -0.5991
  698MOL0     N96203   3.021   5.159   3.897 -0.3788 -0.0418  0.0541
  698MOL0     C96204   3.073   5.247   3.986  0.2107  0.9378  0.6000
  698MOL0     C96205   3.170   5.310   3.910 -0.6551  0.1671 -0.2419
  698MOL0     C96206   3.245   5.432   3.943 -0.7127  0.2668  0.3085
  698MOL0     C96207   3.369   5.404   4.026  0.2948  0.0239  0.1885
  698MOL0     C96208   3.335   5.416   4.172  0.1052 -0.0590  0.2965
  698MOL0     C96209   3.454   5.353   4.244  0.2156 -0.4299 -0.7187
  698MOL0     O96210   3.429   5.371   4.383 -0.0892 -0.5100 -0.2393
  698MOL0     C96211   3.530   5.363   4.471 -0.8048  0.1863 -0.2638
  698MOL0     C96212   3.509   5.403   4.601  0.1921 -0.7469 -0.2162
  698MOL0     C96213   3.602   5.377   4.704 -1.2976  0.0319 -0.7112
  698MOL0     C96214   3.562   5.405   4.852 -0.1844  0.6787 -0.6927
  698MOL0     C96215   3.733   5.325   4.678  0.1416  0.0874 -0.8892
  698MOL0     C96216   3.842   5.309   4.770  0.4509 -0.0957  0.8160
  698MOL0     O96217   3.911   5.189   4.776  0.1848  0.4425  0.5766
  698MOL0     C96218   4.044   5.185   4.818 -0.1565  0.0478  0.5934
  698MOL0     C96219   4.134   5.292   4.785  0.5452  0.4104  0.5965
  698MOL0     C96220   4.264   5.288   4.829  0.0737  0.2900  0.1200
  698MOL0     C96221   4.316   5.180   4.903 -0.5261 -0.1526 -0.2300
  698MOL0     O96222   4.449   5.171   4.935  0.0693 -0.2576  0.8905
  698MOL0     C96223   4.544   5.276   4.945 -0.4163  0.6272 -0.3125
  698MOL0     C96224   4.632   5.241   5.066  0.1300 -0.0244  0.5029
  698MOL0     C96225   4.751   5.152   5.011 -0.5266 -0.2712 -0.5049
  698MOL0     C96226   4.732   5.011   4.961  1.0939  0.4439 -0.1053
  698MOL0     C96227   4.655   4.923   5.064 -0.4435 -1.0689 -0.1241
  698MOL0     C96228   4.630   4.787   4.995 -0.1381 -0.7448 -0.3795
  698MOL0     C96229   4.546   4.701   5.083 -0.3148 -0.4683 -0.6672
  698MOL0     C96230   4.606   4.686   5.218  0.2626  0.0530 -0.5506
  698MOL0    Cl96231   4.617   4.518   5.257 -0.1193  0.3861  0.2200
  698MOL0     C96232   4.232   5.090   4.948 -0.8896 -0.3648  0.1427
  698MOL0     C96233   4.099   5.087   4.905 -0.5854  0.3411  0.5711
  698MOL0     O96234   3.874   5.411   4.832  0.0393  0.2251 -0.1967
  698MOL0     C96235   3.759   5.299   4.543  0.0871  0.6483  0.1818
  698MOL0     C96236   3.657   5.315   4.444 -0.3630 -0.6454  0.4362
  698MOL0     N96237   3.176   5.257   3.787  0.6253 -0.1700  0.2445
  698MOL0     N96238   3.089   5.163   3.782 -0.1939  0.0552 -0.7994
  698MOL0     C96239   1.938   5.459   3.826  0.5753 -0.5448 -0.1070
  698MOL0     C96240   1.828   5.440   3.742 -0.1271  0.6102 -1.0217
  698MOL0     C96241   1.522   5.287   3.476  0.0990 -0.1568  0.2806
  698MOL0     C96242   1.509   5.399   3.381  0.4878  0.3207 -0.7786
  698MOL0     C96243   1.405   5.409   3.283  0.2017  0.2587  0.0628
  698MOL0     C96244   1.309   5.299   3.272 -0.4735 -0.0024 -0.2201
  698MOL0     O96245   1.216   5.294   3.171  0.2701  0.7287 -0.0999
  698MOL0     C96246   1.144   5.420   3.150 -0.8637  0.4792 -0.2730
  698MOL0     C96247   1.054   5.455   3.267  0.7068 -0.4004  0.4852
  698MOL0     C96248   0.987   5.331   3.337 -0.3604  0.3780  0.2294
  698MOL0     C96249   0.906   5.242   3.238  0.1693 -0.7944  0.4450
  698MOL0     C96250   0.807   5.324   3.167  0.1400 -0.3579  0.1591
  698MOL0     C96251   0.728   5.372   3.086 -0.3609  0.9601  0.0890
  698MOL0     C96252   1.320   5.194   3.359  0.3613 -0.5372 -0.2787
  698MOL0     C96253   1.415   5.189   3.459  0.4194  0.6640  0.6679
  698MOL0     C96254   1.402   5.063   3.542  0.0028 -0.0461  0.0295
  698MOL0     H96255   1.948   5.232   3.504 -1.4698 -1.8154  0.8923
  698MOL0     H96256   2.156   5.255   3.638 -0.9016 -0.3813  2.5417
  698MOL0     H96257   2.178   5.483   4.038 -3.3001  2.4055 -0.7427
  698MOL0     H96258   2.190   5.598   3.901  1.9187  0.2584 -2.1755
  698MOL0     H96259   2.424   5.526   3.867  1.6921  4.8180  1.9026
  698MOL0     H96260   2.412   5.569   4.038  2.2410 -0.5159 -0.4404
  698MOL0     H96261   2.395   5.353   4.122  5.2373 -2.1993  1.9362
  698MOL0     H96262   2.356   5.286   3.955 -1.0347  0.2824  0.2537
  698MOL0     H96263   2.586   5.314   3.900  0.2174 -2.9185  0.0409
  698MOL0     H96264   2.621   5.398   4.061  1.5008 -0.1970 -1.5198
  698MOL0     H96265   2.551   5.100   4.015  1.3422 -0.8761  0.5539
  698MOL0     H96266   2.573   5.164   4.174 -1.8261  1.1132 -0.1168
  698MOL0     H96267   2.797   5.249   4.076  1.0369 -0.3314 -1.1582
  698MOL0     H96268   2.782   5.084   4.136  1.5089 -1.1757 -1.3008
  698MOL0     H96269   2.770   5.151   3.836  1.0529 -0.4160 -0.0955
  698MOL0     H96270   2.724   5.003   3.917  0.3266  0.0597 -0.3718
  698MOL0     H96271   2.946   4.998   4.018 -0.6765 -1.5351 -1.4133
  698MOL0     H96272   2.943   4.984   3.839  0.6066 -0.7945  0.0917
  698MOL0     H96273   3.048   5.274   4.088 -0.8113  0.6505  0.4359
  698MOL0     H96274   3.189   5.513   3.989  0.0900  0.1984  1.4695
  698MOL0     H96275   3.264   5.464   3.840  0.1501 -0.9064  0.0803
  698MOL0     H96276   3.399   5.304   3.994 -1.4350 -1.6991  3.4224
  698MOL0     H96277   3.438   5.484   3.997 -0.7526  0.6094 -0.7923
  698MOL0     H96278   3.311   5.519   4.199  0.5210  0.6728 -1.9484
  698MOL0     H96279   3.252   5.351   4.203 -1.5765  0.4612 -2.7542
  698MOL0     H96280   3.476   5.248   4.222  1.6395 -0.3677  0.2677
  698MOL0     H96281   3.552   5.392   4.217  1.1535  0.6190  3.4927
  698MOL0     H96282   3.405   5.432   4.614  0.5724 -0.3107  2.2996
  698MOL0     H96283   3.612   5.498   4.881  0.6891  0.0106  0.0222
  698MOL0     H96284   3.587   5.322   4.919  0.4713  1.2576 -0.2052
  698MOL0     H96285   3.453   5.407   4.854 -0.5543 -4.4365 -1.7169
  698MOL0     H96286   4.099   5.373   4.721  2.1411  0.7487  0.1241
  698MOL0     H96287   4.336   5.360   4.792 -0.8838  1.0381 -0.3352
  698MOL0     H96288   4.603   5.290   4.854 -0.3170 -1.5227 -0.6395
  698MOL0     H96289   4.481   5.365   4.952 -1.9690 -0.1835 -2.5757
  698MOL0     H96290   4.674   5.330   5.114  0.9995 -0.5141  0.6617
  698MOL0     H96291   4.578   5.186   5.144  2.0777 -2.7746  0.0584
  698MOL0     H96292   4.831   5.144   5.085 -1.1340  0.2939  0.2322
  698MOL0     H96293   4.800   5.200   4.927 -3.4234  0.9749 -1.5834
  698MOL0     H96294   4.822   4.951   4.941 -2.2440 -4.6182 -2.0271
  698MOL0     H96295   4.663   5.017   4.876 -0.2492 -3.3128  0.5140
  698MOL0     H96296   4.710   4.921   5.158 -0.3968  2.0339  0.0209
  698MOL0     H96297   4.552   4.951   5.090 -0.5554 -1.7628  0.2030
  698MOL0     H96298   4.723   4.742   4.961  0.4627 -0.0867  0.3568
  698MOL0     H96299   4.577   4.814   4.903 -1.6361 -2.1676  0.0186
  698MOL0     H96300   4.534   4.601   5.040  0.0329 -1.2082  0.8715
  698MOL0     H96301   4.450   4.752   5.076 -1.2531 -2.2411 -1.5347
  698MOL0     H96302   4.562   4.747   5.298  3.9825  0.9837  1.0421
  698MOL0     H96303   4.709   4.722   5.208  0.2408  0.5792  0.8016
  698MOL0     H96304   4.283   5.013   5.005  3.4247  1.7311 -0.4146
  698MOL0     H96305   4.047   4.994   4.926 -0.7838  0.3634  0.1852
  698MOL0     H96306   3.854   5.248   4.526  0.9056  1.3785  2.1777
  698MOL0     H96307   3.677   5.277   4.344 -2.7677 -0.1374 -0.3060
  698MOL0     H96308   1.931   5.532   3.906  1.7453 -1.0807  0.5093
  698MOL0     H96309   1.738   5.498   3.756  0.8294  1.5542  2.0540
  698MOL0     H96310   1.568   5.489   3.392 -0.1484  0.6758 -0.1668
  698MOL0     H96311   1.402   5.491   3.212 -2.8856 -1.7853 -2.4509
  698MOL0     H96312   1.216   5.502   3.143  0.3082 -0.4828  0.2562
  698MOL0     H96313   1.093   5.422   3.054 -3.2661 -0.6303  0.8757
  698MOL0     H96314   0.985   5.534   3.236 -0.5705 -1.9122 -0.7035
  698MOL0     H96315   1.114   5.503   3.345  1.6627  2.3939 -1.7974
  698MOL0     H96316   1.065   5.268   3.382  2.0930  4.1189  1.7062
  698MOL0     H96317   0.917   5.357   3.416 -1.0770 -5.7257  2.1013
  698MOL0     H96318   0.858   5.164   3.299  0.5493 -1.0343  0.4390
  698MOL0     H96319   0.972   5.193   3.167 -0.4142  0.4539 -1.0288
  698MOL0     H96320   0.649   5.396   3.018  1.2897  1.7861 -1.6370
  698MOL0     H96321   1.246   5.115   3.351  0.3599 -0.4972 -0.6864
  698MOL0     H96322   1.501   5.035   3.581  0.2801 -0.5013 -0.9790
  698MOL0     H96323   1.329   5.068   3.624 -0.8347 -2.0287 -0.5290
  698MOL0     H96324   1.373   4.974   3.485  0.5178  2.3372 -4.3614
  699MOL0     O96325   9.381   6.857   0.686 -0.6042 -0.2805 -0.3635
  699MOL0     C96326   9.303   6.821   0.603 -0.0443  0.1740  0.9653
  699MOL0     O96327   9.290   6.874   0.480  0.0374 -0.3203  0.2040
  699MOL0     C96328   9.349   6.992   0.452  0.0151 -0.9715 -0.2253
  699MOL0     C96329   9.268   7.113   0.430  0.0596  0.2489  0.0834
  699MOL0     C96330   9.322   7.240   0.402  1.5031 -0.2051  0.3010
  699MOL0     C96331   9.458   7.257   0.401  0.4026 -0.0649  0.0307
  699MOL0     O96332   9.511   7.381   0.378  1.1280  0.0674 -0.4195
  699MOL0     C96333   9.588   7.434   0.488 -0.9479  0.3868  0.3315
  699MOL0     C96334   9.732   7.477   0.454  0.6479  0.8379 -0.2021
  699MOL0     C96335   9.805   7.529   0.577  0.5543  0.4917 -0.0769
  699MOL0     C96336   9.931   7.602   0.537 -0.2882  0.1131  0.1666
  699MOL0     C96337   9.906   7.731   0.470 -0.1265 -0.4018 -0.0110
  699MOL0     C96338  10.029   7.811   0.437 -0.1267 -0.1306 -0.4103
  699MOL0     C96339  10.015   7.883   0.304  0.4570 -0.1920 -0.4785
  699MOL0     C96340   9.899   7.989   0.308 -0.2453  0.3630  0.1426
  699MOL0     N96341   9.766   7.931   0.298  0.0419  0.9017  0.9093
  699MOL0     C96342   9.725   7.858   0.186  0.0691  0.2339 -0.4041
  699MOL0     C96343   9.592   7.841   0.209  0.0994  0.6933 -0.4435
  699MOL0     C96344   9.486   7.811   0.119 -0.6256  0.8620  0.5720
  699MOL0     C96345   9.416   7.669   0.142 -0.5366  0.0088 -0.1746
  699MOL0     C96346   9.503   7.544   0.101 -0.5119 -0.2364 -0.1733
  699MOL0     C96347   9.545   7.526  -0.044 -0.4756 -0.4509  0.6681
  699MOL0     O96348   9.638   7.625  -0.097  0.1647 -0.1560 -0.4222
  699MOL0     C96349   9.772   7.609  -0.097  0.0051 -0.7040 -0.6735
  699MOL0     C96350   9.839   7.560   0.016 -0.9391 -0.1325 -0.2941
  699MOL0     C96351   9.977   7.568   0.029  0.0045 -0.5235  0.9320
  699MOL0     C96352  10.043   7.506   0.156  0.6699 -0.6720  0.6116
  699MOL0     C96353  10.047   7.634  -0.073 -0.1268 -0.5987 -0.4493
  699MOL0     C96354  10.197   7.629  -0.077  0.6473 -1.3507  0.3988
  699MOL0     O96355  10.266   7.518  -0.109 -1.1674  0.6452  0.0557
  699MOL0     C96356  10.390   7.533  -0.165 -0.3914 -0.4813 -0.3709
  699MOL0     C96357  10.518   7.543  -0.092  1.4391  0.1894  0.8901
  699MOL0     C96358  10.628   7.562  -0.167 -0.2531  0.3585  0.4891
  699MOL0     C96359  10.625   7.569  -0.306  0.0742 -0.6262  0.1873
  699MOL0     O96360  10.740   7.617  -0.372 -0.4343  0.2152 -0.6880
  699MOL0     C96361  10.733   7.758  -0.396  1.1012  0.4448  0.1757
  699MOL0     C96362  10.706   7.789  -0.545  0.2142  1.0795  0.2099
  699MOL0     C96363  10.786   7.706  -0.651 -0.1762 -0.5589 -0.6610
  699MOL0     C96364  10.768   7.756  -0.795 -0.7113 -0.2182  1.3606
  699MOL0     C96365  10.847   7.706  -0.913 -0.4498 -0.1344 -0.0731
  699MOL0     C96366  10.986   7.749  -0.915  0.1329 -0.0895 -0.8486
  699MOL0     C96367  11.076   7.683  -1.023 -0.2778  0.4345  0.2541
  699MOL0     C96368  11.226   7.731  -0.997 -0.4594 -0.2403  0.7999
  699MOL0    Cl96369  11.335   7.708  -1.133  0.1000  0.0947 -0.3912
  699MOL0     C96370  10.509   7.539  -0.376  0.2773 -0.4236 -0.4578
  699MOL0     C96371  10.391   7.534  -0.301 -0.6811 -0.0604 -0.1148
  699MOL0     O96372  10.252   7.739  -0.062  0.3860  0.5927 -0.3833
  699MOL0     C96373   9.983   7.685  -0.177 -0.5490 -0.4844  0.0561
  699MOL0     C96374   9.847   7.685  -0.193  1.0077 -0.4912 -0.2022
  699MOL0     N96375   9.559   7.891   0.331  0.4676 -0.1764 -0.1090
  699MOL0     N96376   9.660   7.949   0.385 -0.6442 -0.6698  0.2635
  699MOL0     C96377   9.543   7.145   0.430  0.4464 -0.0446  0.9844
  699MOL0     C96378   9.487   7.016   0.455  0.1610  0.5915  0.3380
  699MOL0     C96379   9.216   6.712   0.630  0.1168 -0.1827  0.6049
  699MOL0     C96380   9.071   6.651   0.491 -0.6384  0.3217 -0.4592
  699MOL0     C96381   8.941   6.490   0.530  0.1278  0.1117  0.0735
  699MOL0     C96382   8.955   6.387   0.715 -0.6543 -0.3788  1.1300
  699MOL0     O96383   8.897   6.268   0.750  0.7600  0.9931 -0.0516
  699MOL0     C96384   8.821   6.209   0.639 -1.0115 -1.2395  0.2142
  699MOL0     C96385   8.773   6.073   0.690  0.4344 -0.5847 -0.5695
  699MOL0     C96386   8.870   5.987   0.776  0.5205  0.4403 -0.7903
  699MOL0     C96387   9.012   5.980   0.721 -0.2975  0.2055 -0.2677
  699MOL0     C96388   9.064   5.852   0.763  0.0657 -0.5187 -0.7768
  699MOL0     C96389   9.097   5.755   0.820 -0.5393 -0.4311  0.0811
  699MOL0     C96390   9.100   6.441   0.855 -0.5323 -0.4695 -0.5763
  699MOL0     C96391   9.230   6.608   0.817 -0.1715  0.4920  0.4876
  699MOL0     C96392   9.334   6.640   0.924  0.1265 -0.0448 -0.7891
  699MOL0     H96393   9.162   7.121   0.448 -0.0192 -0.4677 -0.0180
  699MOL0     H96394   9.248   7.316   0.379  0.1767 -2.2477 -2.8615
  699MOL0     H96395   9.607   7.356   0.563  0.3699  0.0885 -0.2794
  699MOL0     H96396   9.533   7.510   0.543 -0.2854  0.6439  0.6529
  699MOL0     H96397   9.785   7.392   0.409  0.2839  0.4943  0.0057
  699MOL0     H96398   9.727   7.548   0.372 -0.5780  1.3622  0.2986
  699MOL0     H96399   9.739   7.588   0.642 -1.0041 -1.1049 -0.1549
  699MOL0     H96400   9.823   7.437   0.634 -4.7127  0.4448  2.0323
  699MOL0     H96401   9.987   7.612   0.631  0.3509 -0.6071 -0.1274
  699MOL0     H96402   9.987   7.538   0.468 -0.6492  0.1210 -0.1384
  699MOL0     H96403   9.831   7.780   0.533  0.1227  0.9690 -0.7584
  699MOL0     H96404   9.853   7.708   0.377 -0.9505 -0.7647  0.5398
  699MOL0     H96405  10.051   7.889   0.511  0.1973 -0.3394 -0.2842
  699MOL0     H96406  10.112   7.740   0.437  0.1421  0.1552  0.6802
  699MOL0     H96407   9.983   7.806   0.234 -1.6493 -0.3972  0.6443
  699MOL0     H96408  10.114   7.916   0.270  0.6819 -1.3763 -1.0257
  699MOL0     H96409   9.903   8.041   0.404 -3.8218 -1.2688  1.3583
  699MOL0     H96410   9.915   8.058   0.224  0.0530 -0.3225 -0.3743
  699MOL0     H96411   9.774   7.812   0.101 -1.7146  0.6932 -1.7290
  699MOL0     H96412   9.522   7.808   0.016  1.2843 -0.1095  1.2136
  699MOL0     H96413   9.399   7.876   0.133 -0.9571  0.3130  1.1458
  699MOL0     H96414   9.384   7.657   0.246 -2.0709  0.1051 -0.6198
  699MOL0     H96415   9.332   7.663   0.073  0.1331 -1.0561 -0.9278
  699MOL0     H96416   9.596   7.551   0.158  1.5431  0.9437 -3.4155
  699MOL0     H96417   9.445   7.458   0.137 -0.1443 -0.3828  0.0796
  699MOL0     H96418   9.598   7.431  -0.057  1.6152  0.7472 -0.1722
  699MOL0     H96419   9.457   7.534  -0.108 -1.5567  0.9030  2.2488
  699MOL0     H96420   9.792   7.521   0.107  4.1088 -2.1374  1.8296
  699MOL0     H96421  10.035   7.573   0.243  1.9378 -1.5387  1.4386
  699MOL0     H96422  10.147   7.476   0.140  0.9567  0.9482 -0.8281
  699MOL0     H96423  10.006   7.408   0.188 -0.7739  0.1990  1.7379
  699MOL0     H96424  10.517   7.547   0.017  0.7326  0.9943  0.8659
  699MOL0     H96425  10.717   7.589  -0.110 -1.2202  0.2232  2.1224
  699MOL0     H96426  10.647   7.800  -0.343 -1.9650 -2.3392 -2.1262
  699MOL0     H96427  10.832   7.801  -0.377  3.3859 -3.4650 -1.5982
  699MOL0     H96428  10.603   7.774  -0.576  0.5128 -0.0661 -0.2774
  699MOL0     H96429  10.733   7.894  -0.560 -0.7408  1.0668 -1.9531
  699MOL0     H96430  10.750   7.603  -0.642  1.2834 -0.9519  1.4249
  699MOL0     H96431  10.894   7.708  -0.630  0.1203 -2.7097 -1.6671
  699MOL0     H96432  10.786   7.864  -0.802  0.1025 -0.3815  0.8397
  699MOL0     H96433  10.665   7.742  -0.830  0.2830  0.0495 -2.0205
  699MOL0     H96434  10.833   7.598  -0.897 -4.0356  0.2542  0.1354
  699MOL0     H96435  10.805   7.739  -1.008 -1.6610 -0.7961  0.2131
  699MOL0     H96436  11.028   7.714  -0.820 -2.0392  3.5706  1.7143
  699MOL0     H96437  10.991   7.858  -0.927 -2.5690  0.1156 -0.7601
  699MOL0     H96438  11.036   7.720  -1.118 -0.7222  3.5601  1.5339
  699MOL0     H96439  11.067   7.575  -1.015  1.5940  0.3171  1.2459
  699MOL0     H96440  11.269   7.676  -0.913 -1.6968 -4.2355 -0.9612
  699MOL0     H96441  11.214   7.837  -0.970 -0.1732 -0.3506  1.3767
  699MOL0     H96442  10.516   7.565  -0.481  0.9474 -0.9670 -0.5553
  699MOL0     H96443  10.300   7.520  -0.358 -0.4466  0.0606 -0.5186
  699MOL0     H96444  10.044   7.735  -0.251 -0.9336  1.8219  1.1974
  699MOL0     H96445   9.817   7.730  -0.287  0.8447 -2.8786 -1.3672
  699MOL0     H96446   9.652   7.152   0.429  0.3453  3.0042 -0.3482
  699MOL0     H96447   9.556   6.940   0.488  1.1039  1.0193 -0.5840
  699MOL0     H96448   9.057   6.693   0.392  0.5307 -0.5797 -1.0287
  699MOL0     H96449   8.860   6.465   0.461  1.2659 -1.3127 -0.8055
  699MOL0     H96450   8.743   6.277   0.603  0.5653  1.9444  2.3514
  699MOL0     H96451   8.888   6.196   0.554 -2.1461 -1.1884 -0.7239
  699MOL0     H96452   8.750   6.015   0.599 -2.3819  0.1026 -0.3568
  699MOL0     H96453   8.681   6.095   0.744  2.2577  2.7162  1.5462
  699MOL0     H96454   8.872   6.018   0.881 -0.2843  2.1632 -1.2550
  699MOL0     H96455   8.829   5.885   0.778  0.8427  0.3156  0.1064
  699MOL0     H96456   9.076   6.059   0.763 -0.9853  0.5334  0.1705
  699MOL0     H96457   9.008   6.002   0.614 -2.0927  0.2259 -0.2184
  699MOL0     H96458   9.120   5.659   0.861  2.1734 -0.2247 -0.7780
  699MOL0     H96459   9.094   6.362   0.929 -1.1996  1.7748  1.9221
  699MOL0     H96460   9.373   6.742   0.910  0.9497  0.0133  1.4989
  699MOL0     H96461   9.282   6.631   1.019 -0.6003  0.5408 -1.1224
  699MOL0     H96462   9.417   6.569   0.920 -1.2965 -1.7720 -0.4470
  700MOL0     O96463   0.593   8.924   6.686 -0.5911  0.1496  0.1049
  700MOL0     C96464   0.659   9.024   6.721  0.1699 -0.0420 -0.0421
  700MOL0     O96465   0.629   9.157   6.698  0.6021  0.2488  0.4110
  700MOL0     C96466   0.533   9.211   6.612 -0.1417 -0.0167 -0.2450
  700MOL0     C96467   0.551   9.341   6.572 -0.1627  0.9506  0.5727
  700MOL0     C96468   0.473   9.399   6.466 -0.0540  0.0328  0.2048
  700MOL0     C96469   0.367   9.330   6.403 -0.2640 -0.0811 -0.2843
  700MOL0     O96470   0.294   9.397   6.306 -0.6631  0.9961  0.5332
  700MOL0     C96471   0.152   9.370   6.265 -0.2488  0.1235 -0.5928
  700MOL0     C96472   0.137   9.252   6.168 -0.1263  0.0908 -0.7103
  700MOL0     C96473   0.187   9.265   6.022  0.0874 -0.7550 -1.4701
  700MOL0     C96474   0.231   9.140   5.970 -0.1313  0.0385  0.9761
  700MOL0     C96475   0.234   9.145   5.815  0.3433  0.6733 -0.5703
  700MOL0     C96476   0.326   9.259   5.766  0.1744  0.5794 -0.8612
  700MOL0     C96477   0.332   9.251   5.611  0.3918  0.3251 -0.9061
  700MOL0     C96478   0.452   9.336   5.554  0.1929  0.2720  0.0122
  700MOL0     N96479   0.433   9.346   5.411 -0.5467  0.0422  0.4079
  700MOL0     C96480   0.436   9.235   5.331 -0.1569  0.1701  0.0222
  700MOL0     C96481   0.399   9.273   5.205 -0.2160  0.7262 -0.1315
  700MOL0     C96482   0.391   9.187   5.085  0.0615 -0.9773  0.5054
  700MOL0     C96483   0.530   9.146   5.041  0.2655 -0.3115 -0.0214
  700MOL0     C96484   0.532   9.056   4.915  0.0440  0.6064 -0.5926
  700MOL0     C96485   0.476   9.121   4.782  1.0526 -0.3985  0.5447
  700MOL0     O96486   0.333   9.108   4.768 -0.4052 -0.9576  0.4331
  700MOL0     C96487   0.275   9.146   4.640 -0.6759  0.8051 -0.1290
  700MOL0     C96488   0.341   9.229   4.550  0.4438 -0.3488 -0.3518
  700MOL0     C96489   0.284   9.262   4.427  0.6160 -0.0343  0.0198
  700MOL0     C96490   0.373   9.346   4.331 -0.3013 -0.0445  0.2600
  700MOL0     C96491   0.149   9.231   4.402 -0.4136  0.3579 -0.4700
  700MOL0     C96492   0.083   9.268   4.285  0.2283 -0.1227 -0.4181
  700MOL0     O96493   0.025   9.168   4.220  0.5737  0.0034  0.0092
  700MOL0     C96494  -0.019   9.199   4.088  0.2124  0.2618  0.4952
  700MOL0     C96495  -0.155   9.231   4.054  0.1536  0.8500 -0.0781
  700MOL0     C96496  -0.193   9.273   3.921 -1.2247 -0.5809 -0.6261
  700MOL0     C96497  -0.092   9.295   3.823  0.8443 -0.1937  0.6057
  700MOL0     O96498  -0.132   9.335   3.695  0.3377 -0.2464 -0.1377
  700MOL0     C96499  -0.032   9.368   3.597  0.2938  0.2838  0.3938
  700MOL0     C96500  -0.104   9.458   3.490  0.1804 -0.4419 -1.0159
  700MOL0     C96501  -0.179   9.382   3.375  0.0867 -0.1911 -0.1267
  700MOL0     C96502  -0.332   9.365   3.401 -0.5156 -0.4441  0.2995
  700MOL0     C96503  -0.385   9.293   3.270 -0.1102  0.8400 -0.6757
  700MOL0     C96504  -0.408   9.391   3.154 -1.0291 -0.1548 -0.0230
  700MOL0     C96505  -0.427   9.301   3.027 -0.0957  0.3064 -0.3020
  700MOL0     C96506  -0.562   9.231   3.028  0.3484  0.2646 -0.1392
  700MOL0    Cl96507  -0.692   9.348   3.050  0.0642 -0.2243  0.5156
  700MOL0     C96508   0.035   9.261   3.858  0.0563  0.1413  0.4262
  700MOL0     C96509   0.076   9.207   3.980 -0.1520  0.2660 -0.2006
  700MOL0     O96510   0.065   9.388   4.268  0.0842 -0.0211 -0.3303
  700MOL0     C96511   0.090   9.146   4.493  0.0765 -0.4605  0.3993
  700MOL0     C96512   0.153   9.100   4.608  0.3103  0.6872 -0.7084
  700MOL0     N96513   0.355   9.403   5.217  0.0259 -0.5682  0.5141
  700MOL0     N96514   0.378   9.449   5.341 -0.2416  0.4257 -0.0488
  700MOL0     C96515   0.342   9.200   6.451 -0.1895  0.2859  1.3055
  700MOL0     C96516   0.426   9.142   6.549  0.2346 -0.4963  0.2526
  700MOL0     C96517   0.785   9.001   6.797 -0.4589 -1.1018 -0.4451
  700MOL0     C96518   0.833   9.112   6.872 -0.3194  0.9468  0.7428
  700MOL0     C96519   0.949   9.110   6.932  0.4093  0.4778 -0.5632
  700MOL0     C96520   1.041   8.998   6.933 -0.2376  0.2543 -1.0262
  700MOL0     O96521   1.157   9.014   7.006  0.8253 -0.2040 -0.1488
  700MOL0     C96522   1.248   8.901   7.006  0.2714 -0.0287  0.5067
  700MOL0     C96523   1.378   8.956   6.939  0.3951 -0.1392 -0.0558
  700MOL0     C96524   1.500   8.865   6.966 -0.0830 -0.8803 -0.4999
  700MOL0     C96525   1.492   8.716   6.910 -0.4188  0.2849  0.0426
  700MOL0     C96526   1.475   8.735   6.766 -0.2442 -0.7248  0.2605
  700MOL0     C96527   1.476   8.749   6.642 -0.0230 -0.3450  0.0369
  700MOL0     C96528   0.989   8.880   6.868  0.3683  0.4964 -0.2693
  700MOL0     C96529   0.864   8.887   6.801 -0.0116  0.9435  0.5083
  700MOL0     C96530   0.829   8.753   6.726 -0.2185  0.1589  0.5924
  700MOL0     H96531   0.639   9.396   6.604  0.9367  1.2637 -2.6637
  700MOL0     H96532   0.495   9.497   6.425 -5.0951  0.6216 -1.7395
  700MOL0     H96533   0.107   9.454   6.212 -1.5369  0.1451  0.5097
  700MOL0     H96534   0.100   9.352   6.359  2.3928 -1.9351  0.5959
  700MOL0     H96535   0.183   9.164   6.214  3.0808  1.5203 -0.9342
  700MOL0     H96536   0.029   9.234   6.166 -0.2286  0.0979  1.6978
  700MOL0     H96537   0.109   9.311   5.960  0.8791 -0.4082 -2.2383
  700MOL0     H96538   0.278   9.326   6.013 -0.0017 -0.5601 -1.0463
  700MOL0     H96539   0.336   9.125   5.997  0.4266  2.9990  0.8251
  700MOL0     H96540   0.175   9.052   6.002  0.4660 -0.0552  1.7855
  700MOL0     H96541   0.138   9.176   5.773  0.3767  2.1041  0.3180
  700MOL0     H96542   0.263   9.046   5.778  2.2692  0.7357  0.6292
  700MOL0     H96543   0.292   9.358   5.795  0.5063  0.2946  0.5636
  700MOL0     H96544   0.429   9.245   5.800  1.5716 -2.1259 -5.2514
  700MOL0     H96545   0.240   9.291   5.567 -1.3314 -3.1978 -0.8318
  700MOL0     H96546   0.356   9.154   5.566 -2.3094  0.3750 -2.6513
  700MOL0     H96547   0.455   9.434   5.601  0.3425 -0.3065  1.2541
  700MOL0     H96548   0.542   9.277   5.572 -0.5020 -1.5171 -1.8847
  700MOL0     H96549   0.463   9.133   5.354 -2.7672 -1.0975 -2.0216
  700MOL0     H96550   0.339   9.238   5.004 -0.1536  0.4480  1.4910
  700MOL0     H96551   0.328   9.103   5.117  0.1423 -0.4127  2.2604
  700MOL0     H96552   0.589   9.235   5.019 -0.3013  0.4047  1.2611
  700MOL0     H96553   0.575   9.100   5.129 -0.5447  0.1941  0.6622
  700MOL0     H96554   0.632   9.016   4.896 -0.1112  0.6178 -1.4547
  700MOL0     H96555   0.474   8.969   4.947  2.2408 -1.2761 -1.5135
  700MOL0     H96556   0.506   9.226   4.772 -0.2500 -0.2612 -3.4850
  700MOL0     H96557   0.528   9.058   4.709  2.0013  0.9738  0.0047
  700MOL0     H96558   0.435   9.274   4.581  0.3838 -0.2083 -0.3774
  700MOL0     H96559   0.462   9.384   4.382  2.4991 -1.6224 -3.0136
  700MOL0     H96560   0.311   9.432   4.305  3.3946  2.3061 -1.6992
  700MOL0     H96561   0.410   9.302   4.238  0.2672  1.2039 -0.1336
  700MOL0     H96562  -0.234   9.203   4.123  0.5737  1.3232  0.6118
  700MOL0     H96563  -0.297   9.297   3.902 -1.5764 -1.9441 -0.5080
  700MOL0     H96564   0.050   9.430   3.636 -0.3008  0.4141  1.4677
  700MOL0     H96565  -0.001   9.275   3.549 -0.7248  0.7726 -1.2989
  700MOL0     H96566  -0.170   9.534   3.534  1.6860 -0.0814  0.7268
  700MOL0     H96567  -0.028   9.521   3.443 -1.7303  3.1946  0.3554
  700MOL0     H96568  -0.133   9.286   3.347  1.6282  1.0975 -2.4104
  700MOL0     H96569  -0.183   9.452   3.291 -1.9825 -1.7004 -1.3923
  700MOL0     H96570  -0.376   9.465   3.396  1.2851  0.3406 -2.6640
  700MOL0     H96571  -0.357   9.309   3.491 -1.6474  1.6381  1.3622
  700MOL0     H96572  -0.324   9.206   3.242 -0.8514  0.0697  0.0190
  700MOL0     H96573  -0.478   9.244   3.300 -0.0653  1.8901  1.3810
  700MOL0     H96574  -0.321   9.452   3.128 -2.5272  2.1917  0.2335
  700MOL0     H96575  -0.489   9.462   3.172  0.3999  1.9024 -1.2368
  700MOL0     H96576  -0.360   9.215   3.032  0.6120  0.7050 -2.0787
  700MOL0     H96577  -0.400   9.358   2.937 -1.6127  1.1581 -0.2539
  700MOL0     H96578  -0.568   9.163   3.114 -2.0790  1.6711  0.9130
  700MOL0     H96579  -0.574   9.172   2.937 -0.5557  0.4681 -0.1611
  700MOL0     H96580   0.105   9.287   3.779  1.6018  0.8012  1.9572
  700MOL0     H96581   0.181   9.189   4.001 -0.5114 -0.2294  1.2989
  700MOL0     H96582  -0.015   9.126   4.472  0.4686 -0.2109 -2.1497
  700MOL0     H96583   0.094   9.033   4.670  0.2826  2.5302  1.4342
  700MOL0     H96584   0.250   9.149   6.425 -0.9028  1.0061  2.3487
  700MOL0     H96585   0.419   9.038   6.577  1.1999 -0.8711 -0.8238
  700MOL0     H96586   0.778   9.205   6.874 -0.5402  0.9400 -1.6788
  700MOL0     H96587   0.986   9.196   6.986  0.1592  0.5462 -0.4990
  700MOL0     H96588   1.271   8.868   7.108 -0.8631  0.2180  0.8524
  700MOL0     H96589   1.220   8.816   6.944  4.6172  0.0104 -1.9081
  700MOL0     H96590   1.401   9.053   6.983  1.6499 -0.8966  1.0186
  700MOL0     H96591   1.370   8.962   6.830  1.7309  0.4999 -0.1349
  700MOL0     H96592   1.597   8.907   6.938  0.8186  0.4114  3.8568
  700MOL0     H96593   1.511   8.844   7.073  0.9055 -0.2745 -0.4733
  700MOL0     H96594   1.408   8.666   6.958 -0.6071  1.1966  0.6842
  700MOL0     H96595   1.586   8.663   6.928 -1.6103 -1.4233  1.5133
  700MOL0     H96596   1.474   8.751   6.535  0.3537 -2.0144 -0.0262
  700MOL0     H96597   1.047   8.789   6.868 -0.1339  0.0107  3.7341
  700MOL0     H96598   0.741   8.704   6.769 -1.8974  2.5456  0.1147
  700MOL0     H96599   0.814   8.781   6.622 -1.3530 -1.5335  0.2650
  700MOL0     H96600   0.908   8.678   6.727  0.1643  0.5542  0.1140
  701MOL0     O96601   3.706   0.459   7.032  0.2792 -0.7652 -0.3689
  701MOL0     C96602   3.642   0.551   6.970  0.9988 -0.4606 -0.0891
  701MOL0     O96603   3.681   0.686   6.974 -0.2643  0.7557  0.3252
  701MOL0     C96604   3.815   0.721   6.995 -1.4638  0.4153  0.2052
  701MOL0     C96605   3.910   0.642   6.932 -0.0184 -0.6030 -0.0099
  701MOL0     C96606   4.044   0.687   6.915  0.6589 -0.1948  0.4268
  701MOL0     C96607   4.087   0.808   6.970 -0.3360  0.7674  0.4811
  701MOL0     O96608   4.199   0.876   6.949  0.5108  0.2838 -0.3849
  701MOL0     C96609   4.315   0.793   6.913  0.6088  0.7332 -0.6123
  701MOL0     C96610   4.431   0.875   6.873 -0.4713  0.4595 -0.3468
  701MOL0     C96611   4.573   0.803   6.868  0.5796 -1.2561 -0.0420
  701MOL0     C96612   4.692   0.893   6.814 -0.1385 -0.5957  0.6530
  701MOL0     C96613   4.778   0.949   6.925 -0.6235  0.3710  0.0394
  701MOL0     C96614   4.887   0.839   6.961 -0.4173 -0.5302  0.6719
  701MOL0     C96615   4.971   0.890   7.079 -0.0950 -0.2838  0.6204
  701MOL0     C96616   5.120   0.837   7.091 -0.4410  0.0362 -0.1878
  701MOL0     N96617   5.206   0.918   7.175 -0.3234  0.7232  0.0838
  701MOL0     C96618   5.172   0.955   7.304  0.2250  0.0114  0.0857
  701MOL0     C96619   5.245   1.070   7.332  0.5541  0.5829  0.5008
  701MOL0     C96620   5.252   1.167   7.459 -0.3034  0.7668  0.3888
  701MOL0     C96621   5.115   1.201   7.518 -0.3465  0.2735 -0.5261
  701MOL0     C96622   5.040   1.302   7.429 -0.3621  0.2194  0.0913
  701MOL0     C96623   4.974   1.250   7.302  0.5812  0.2772  0.3176
  701MOL0     O96624   4.887   1.132   7.315  0.2366 -0.3756  0.1225
  701MOL0     C96625   4.754   1.155   7.325  1.7063 -0.0431 -0.0392
  701MOL0     C96626   4.669   1.039   7.302  0.5281 -0.7494 -0.0655
  701MOL0     C96627   4.524   1.049   7.310  0.6034 -0.2814  0.3643
  701MOL0     C96628   4.441   0.927   7.264  0.2372  0.0637 -0.2905
  701MOL0     C96629   4.469   1.171   7.354 -0.0808 -0.8296  0.2781
  701MOL0     C96630   4.330   1.190   7.377  0.5810 -0.7767  0.0295
  701MOL0     O96631   4.242   1.124   7.285  0.3793 -0.5656  0.4728
  701MOL0     C96632   4.112   1.106   7.319  0.2652 -0.6580 -0.1586
  701MOL0     C96633   4.085   0.976   7.371  0.2978  0.3543  0.0569
  701MOL0     C96634   3.965   0.949   7.432  0.1576  0.5112  0.2606
  701MOL0     C96635   3.864   1.040   7.418 -0.5718 -0.1592  0.3272
  701MOL0     O96636   3.740   1.009   7.481 -0.6451 -0.3386  0.9457
  701MOL0     C96637   3.621   1.076   7.429  0.1579 -0.0634 -0.5403
  701MOL0     C96638   3.493   0.988   7.446  0.3268  0.3942  0.4916
  701MOL0     C96639   3.375   1.080   7.421 -0.7640 -0.7026 -0.3398
  701MOL0     C96640   3.253   0.986   7.420 -0.2011 -1.1279 -0.0680
  701MOL0     C96641   3.133   1.077   7.416 -0.7582 -0.2576 -0.0913
  701MOL0     C96642   3.014   0.991   7.374 -0.9786  0.6351 -0.3833
  701MOL0     C96643   2.905   1.102   7.342 -0.2768  0.3164  0.2525
  701MOL0     C96644   2.773   1.043   7.294 -0.9798 -0.7144 -0.4226
  701MOL0    Cl96645   2.655   1.160   7.223  0.4042  0.1266  0.0206
  701MOL0     C96646   3.885   1.169   7.365 -0.3162  0.1417  1.6757
  701MOL0     C96647   4.012   1.206   7.314  0.2328 -0.1104  0.7906
  701MOL0     O96648   4.296   1.266   7.470 -0.9524 -0.2992 -0.3449
  701MOL0     C96649   4.557   1.284   7.380  0.1673 -0.6188 -0.3224
  701MOL0     C96650   4.693   1.276   7.366  0.0330  0.5746  0.4025
  701MOL0     N96651   5.323   1.101   7.226 -0.2754 -0.2117 -0.1510
  701MOL0     N96652   5.313   1.005   7.133  0.6969  0.2955 -0.0132
  701MOL0     C96653   3.994   0.871   7.049 -0.3287  0.1428  0.2156
  701MOL0     C96654   3.860   0.842   7.054 -0.3809  0.5817 -0.4992
  701MOL0     C96655   3.521   0.507   6.895 -0.3279  0.2850  0.8703
  701MOL0     C96656   3.462   0.607   6.807 -1.0366  0.5420  0.1223
  701MOL0     C96657   3.361   0.571   6.712  0.6438 -0.4705 -0.4826
  701MOL0     C96658   3.331   0.442   6.685  0.6362  0.0448  0.4355
  701MOL0     O96659   3.233   0.428   6.591 -0.4467  0.9370 -0.1543
  701MOL0     C96660   3.191   0.300   6.555 -0.5879 -0.3743  0.5594
  701MOL0     C96661   3.104   0.283   6.431 -0.1680 -0.1589 -0.7728
  701MOL0     C96662   2.963   0.336   6.455  0.0273 -0.7552 -0.2689
  701MOL0     C96663   2.839   0.291   6.363 -0.8181 -0.5446  0.4948
  701MOL0     C96664   2.875   0.189   6.260  0.5350  0.6172  0.1349
  701MOL0     C96665   2.900   0.098   6.181  0.4655 -0.5292  1.3830
  701MOL0     C96666   3.369   0.349   6.784  0.4296 -0.5214 -0.6245
  701MOL0     C96667   3.462   0.377   6.883 -0.6667  0.3336  0.1971
  701MOL0     C96668   3.487   0.265   6.986  1.0789  0.1388 -0.0894
  701MOL0     H96669   3.890   0.547   6.884  0.0098 -0.6019 -0.0242
  701MOL0     H96670   4.100   0.629   6.842 -3.6383 -2.1118 -1.7094
  701MOL0     H96671   4.300   0.732   6.824  1.3805 -1.1667  0.4994
  701MOL0     H96672   4.348   0.730   6.996 -1.9727 -2.0677 -1.5362
  701MOL0     H96673   4.425   0.927   6.777  2.7833  0.1982 -0.8134
  701MOL0     H96674   4.436   0.940   6.960  0.5498  0.7228 -0.5941
  701MOL0     H96675   4.607   0.768   6.966  1.8759  0.9127  0.3500
  701MOL0     H96676   4.568   0.717   6.801 -1.6143  1.4363 -3.6766
  701MOL0     H96677   4.754   0.838   6.743  3.2203  4.1241 -0.6249
  701MOL0     H96678   4.655   0.976   6.752  0.5022 -2.5524 -2.5434
  701MOL0     H96679   4.712   0.976   7.007 -1.4955  1.0859 -0.8663
  701MOL0     H96680   4.839   1.033   6.891  1.7724 -0.9949  0.7371
  701MOL0     H96681   4.842   0.741   6.979 -0.2597 -0.2991  2.5218
  701MOL0     H96682   4.946   0.826   6.870  0.1235 -1.1916  1.1124
  701MOL0     H96683   4.918   0.868   7.172 -0.6086 -1.1069  0.1477
  701MOL0     H96684   4.993   0.997   7.068  0.2902 -0.4853 -0.8082
  701MOL0     H96685   5.113   0.737   7.136 -0.2637 -0.7179 -1.7853
  701MOL0     H96686   5.160   0.822   6.991 -0.8502 -0.0536 -0.3425
  701MOL0     H96687   5.092   0.911   7.362 -1.4618 -0.5120 -2.4463
  701MOL0     H96688   5.304   1.260   7.435  0.6460  0.3240  0.6958
  701MOL0     H96689   5.326   1.116   7.521 -0.2742 -1.4802 -1.3688
  701MOL0     H96690   5.060   1.109   7.536  0.2645 -0.0393 -0.2371
  701MOL0     H96691   5.135   1.243   7.617 -0.3744  0.0010 -0.4057
  701MOL0     H96692   4.957   1.329   7.494  0.2913 -1.1565  1.5459
  701MOL0     H96693   5.107   1.388   7.415 -0.8135  0.7133  0.9063
  701MOL0     H96694   4.925   1.335   7.252 -0.3269 -0.3807  0.0586
  701MOL0     H96695   5.053   1.224   7.231  0.5486  1.2958 -0.1160
  701MOL0     H96696   4.710   0.948   7.260  0.8094 -0.6821  0.0633
  701MOL0     H96697   4.511   0.848   7.235  3.2943  2.4703  0.0924
  701MOL0     H96698   4.374   0.955   7.182  1.4917  0.6011 -1.1428
  701MOL0     H96699   4.368   0.907   7.344  0.5726  1.4027  0.3874
  701MOL0     H96700   4.157   0.898   7.394 -0.5634 -0.7084 -0.7443
  701MOL0     H96701   3.961   0.848   7.471  2.1908  0.3121  0.0894
  701MOL0     H96702   3.607   1.178   7.467 -1.2031 -0.0016 -1.1578
  701MOL0     H96703   3.640   1.090   7.322 -1.3059  1.2264 -0.6733
  701MOL0     H96704   3.499   0.912   7.368  0.6270 -2.2721  2.9486
  701MOL0     H96705   3.490   0.935   7.542 -1.6257  0.1595  0.3432
  701MOL0     H96706   3.380   1.135   7.327 -0.6728 -0.7691 -0.3744
  701MOL0     H96707   3.363   1.152   7.502 -3.5557  1.8491 -2.7879
  701MOL0     H96708   3.248   0.950   7.523 -2.2449  0.1098  0.3276
  701MOL0     H96709   3.247   0.910   7.342 -2.0346  0.0886 -1.1767
  701MOL0     H96710   3.130   1.123   7.516  0.9350  0.6729 -0.4228
  701MOL0     H96711   3.148   1.166   7.353 -1.5362  0.4595  0.7035
  701MOL0     H96712   2.994   0.915   7.450  3.1922 -1.6343 -1.2481
  701MOL0     H96713   3.037   0.928   7.287 -1.6209 -0.0122 -0.0974
  701MOL0     H96714   2.943   1.166   7.261 -0.8081  0.7449  0.3344
  701MOL0     H96715   2.894   1.167   7.429 -0.4709  0.8546 -0.1616
  701MOL0     H96716   2.720   1.013   7.385 -0.4338  0.7596  0.4302
  701MOL0     H96717   2.785   0.962   7.223 -1.0447 -0.8148 -0.3194
  701MOL0     H96718   3.805   1.242   7.365  1.7954  2.6856 -0.5632
  701MOL0     H96719   4.025   1.304   7.271  0.0290 -1.0552 -1.5856
  701MOL0     H96720   4.533   1.380   7.423  4.5304  0.5741 -0.0987
  701MOL0     H96721   4.742   1.373   7.370 -1.7259  1.6308 -1.5541
  701MOL0     H96722   4.009   0.965   7.101 -3.0895  0.7067  0.1511
  701MOL0     H96723   3.794   0.902   7.116  1.2629  1.3484  0.6031
  701MOL0     H96724   3.492   0.711   6.820 -0.3208  0.2048  1.3785
  701MOL0     H96725   3.317   0.644   6.645  0.1297 -0.0466  0.2982
  701MOL0     H96726   3.281   0.239   6.552  0.9656  1.7834  0.9044
  701MOL0     H96727   3.132   0.264   6.640 -0.3189  0.6705  1.2028
  701MOL0     H96728   3.103   0.175   6.418  1.8440 -0.0376 -2.3385
  701MOL0     H96729   3.136   0.319   6.333 -3.3793  1.7027 -1.2978
  701MOL0     H96730   2.942   0.329   6.562  2.4063 -0.6900  0.2663
  701MOL0     H96731   2.972   0.443   6.435  3.7497 -1.1474 -1.4340
  701MOL0     H96732   2.805   0.380   6.310 -1.0355  0.1268  1.7218
  701MOL0     H96733   2.760   0.264   6.435 -1.1289 -2.2384 -0.4310
  701MOL0     H96734   2.923   0.011   6.123  0.1930  0.2937  0.0073
  701MOL0     H96735   3.321   0.252   6.781 -0.5644 -0.1362  1.1590
  701MOL0     H96736   3.390   0.219   7.004 -0.0337  2.2793 -0.3001
  701MOL0     H96737   3.570   0.205   6.947  0.2780 -1.1099  0.0791
  701MOL0     H96738   3.518   0.309   7.081 -0.2956 -1.6688  1.2490
  702MOL0     O96739  10.139   8.270   5.260 -0.1968 -1.1265 -0.2795
  702MOL0     C96740  10.082   8.166   5.244  0.1966 -0.5233  0.8456
  702MOL0     O96741  10.138   8.057   5.175 -0.7156 -0.2628 -0.0152
  702MOL0     C96742  10.269   8.068   5.150  0.8493  0.2249  0.2793
  702MOL0     C96743  10.360   8.033   5.245  0.6193  0.7830 -0.1320
  702MOL0     C96744  10.497   8.030   5.213 -0.2254  0.1272  0.0353
  702MOL0     C96745  10.544   8.094   5.095  0.1290  1.5215  0.3883
  702MOL0     O96746  10.671   8.124   5.063  0.1198 -0.0397  0.5815
  702MOL0     C96747  10.785   8.090   5.140 -0.1445 -0.0116  0.3410
  702MOL0     C96748  10.800   8.174   5.271 -0.1692  0.3754  0.0388
  702MOL0     C96749  10.904   8.106   5.359  0.4692 -0.1153  0.0993
  702MOL0     C96750  10.950   8.197   5.471 -0.6355 -0.7175  0.8599
  702MOL0     C96751  11.080   8.150   5.543  0.3743 -0.3873 -0.3933
  702MOL0     C96752  11.208   8.180   5.469 -0.7684  0.5278  0.7310
  702MOL0     C96753  11.330   8.089   5.515  0.4375  0.6132 -0.2600
  702MOL0     C96754  11.360   8.113   5.662  0.5646 -0.4129  0.4066
  702MOL0     N96755  11.452   8.235   5.680 -0.0296 -0.2727 -0.4524
  702MOL0     C96756  11.566   8.270   5.615  0.4707 -0.3248 -0.0303
  702MOL0     C96757  11.599   8.398   5.656 -0.1101  0.8695 -0.3478
  702MOL0     C96758  11.698   8.506   5.601 -0.5431 -0.0485 -0.6447
  702MOL0     C96759  11.828   8.487   5.682  0.3977  0.1034 -0.7018
  702MOL0     C96760  11.921   8.359   5.659 -0.2085 -0.0447 -0.4847
  702MOL0     C96761  12.053   8.362   5.736 -0.0929 -0.9285 -0.4162
  702MOL0     O96762  12.110   8.491   5.710 -0.5798 -0.5903 -0.0780
  702MOL0     C96763  12.242   8.520   5.720  0.3036  0.0537  1.0475
  702MOL0     C96764  12.278   8.629   5.802 -0.0112 -0.3714  0.8299
  702MOL0     C96765  12.406   8.678   5.813  0.2032  0.0311  0.3262
  702MOL0     C96766  12.441   8.768   5.933 -0.2668 -0.5112 -0.4166
  702MOL0     C96767  12.508   8.624   5.727 -0.2311  0.2970  0.4315
  702MOL0     C96768  12.651   8.662   5.730  0.1270 -0.2840  0.0419
  702MOL0     O96769  12.739   8.561   5.680  0.0714 -0.4593 -0.1663
  702MOL0     C96770  12.875   8.586   5.649  0.2252 -0.6339  0.1703
  702MOL0     C96771  12.917   8.689   5.558  0.5789  1.3364  0.0060
  702MOL0     C96772  13.049   8.715   5.534 -0.0564 -0.1152  0.6547
  702MOL0     C96773  13.149   8.638   5.597 -0.1196  0.4090  0.3367
  702MOL0     O96774  13.275   8.666   5.550  0.5434 -0.4461 -0.2925
  702MOL0     C96775  13.375   8.662   5.651  0.1454  0.8526 -0.0763
  702MOL0     C96776  13.474   8.788   5.629  0.2265  0.4356  0.8317
  702MOL0     C96777  13.601   8.765   5.702  0.2843 -0.0692  0.0032
  702MOL0     C96778  13.588   8.745   5.853 -0.1540 -0.1796  0.9696
  702MOL0     C96779  13.721   8.688   5.912  0.6039  0.6934 -0.5527
  702MOL0     C96780  13.695   8.546   5.963  0.1967  0.7480  0.1972
  702MOL0     C96781  13.832   8.470   5.998  0.3202 -1.0684  0.0274
  702MOL0     C96782  13.830   8.415   6.142 -0.3771 -0.2810  0.3840
  702MOL0    Cl96783  13.714   8.284   6.161  0.3207 -0.1458  0.0094
  702MOL0     C96784  13.113   8.535   5.686 -0.0499 -0.1777  0.1467
  702MOL0     C96785  12.972   8.506   5.709 -0.3348 -0.1615 -0.4370
  702MOL0     O96786  12.681   8.779   5.761  1.0213 -0.1916  0.3937
  702MOL0     C96787  12.469   8.528   5.630 -0.5352 -0.1230 -0.7489
  702MOL0     C96788  12.334   8.471   5.629  0.2060  0.8243 -0.4466
  702MOL0     N96789  11.520   8.423   5.767 -0.5248 -0.1082 -0.5320
  702MOL0     N96790  11.428   8.327   5.779  0.0209  0.3517  0.5384
  702MOL0     C96791  10.456   8.140   5.000 -0.2141  0.1107  0.2027
  702MOL0     C96792  10.319   8.113   5.020 -0.9570 -0.2008  0.0018
  702MOL0     C96793   9.950   8.148   5.292  0.5541  0.3003 -0.7116
  702MOL0     C96794   9.891   8.026   5.306  0.4004 -0.5520 -0.4016
  702MOL0     C96795   9.762   8.008   5.365 -0.2709  0.3902  0.5776
  702MOL0     C96796   9.693   8.115   5.400  0.1522 -0.2912  0.1196
  702MOL0     O96797   9.568   8.090   5.447 -0.2309  0.1007 -0.8750
  702MOL0     C96798   9.458   8.135   5.370  0.3805  0.5516 -0.2913
  702MOL0     C96799   9.460   8.060   5.234 -0.1648  0.7069  0.9117
  702MOL0     C96800   9.344   8.111   5.142  0.0972  1.1723 -0.2091
  702MOL0     C96801   9.375   8.237   5.063  0.2092 -0.5064 -0.3505
  702MOL0     C96802   9.347   8.360   5.142 -1.1006  0.4174  0.2606
  702MOL0     C96803   9.334   8.459   5.213  0.3602 -0.3307 -0.2299
  702MOL0     C96804   9.739   8.244   5.388  1.1240  0.4716  0.4889
  702MOL0     C96805   9.859   8.260   5.327 -0.1634 -0.3119 -0.2283
  702MOL0     C96806   9.904   8.402   5.292  0.1750  0.0375 -0.3987
  702MOL0     H96807  10.329   7.995   5.341 -1.5204  0.2084 -0.9979
  702MOL0     H96808  10.572   7.999   5.285  1.6200 -0.4504 -2.0211
  702MOL0     H96809  10.871   8.102   5.074  1.4897  1.1833  2.5463
  702MOL0     H96810  10.776   7.983   5.156 -2.5196  0.3428  1.9208
  702MOL0     H96811  10.828   8.278   5.256  1.5003  0.1612  1.3065
  702MOL0     H96812  10.701   8.168   5.316 -0.2002 -2.2919 -0.2102
  702MOL0     H96813  10.867   8.008   5.389  2.3406 -1.1479 -0.8096
  702MOL0     H96814  10.988   8.087   5.292  3.0398  1.9244  2.4495
  702MOL0     H96815  10.969   8.298   5.434 -0.8360 -1.1248 -0.4103
  702MOL0     H96816  10.875   8.195   5.550 -2.4356 -1.6056 -0.7747
  702MOL0     H96817  11.066   8.049   5.584 -0.6568  0.8405  2.5481
  702MOL0     H96818  11.085   8.207   5.636  1.5476 -1.4777  0.2420
  702MOL0     H96819  11.193   8.169   5.361  0.8767  1.4893  0.3683
  702MOL0     H96820  11.238   8.284   5.485  0.0966  0.0066  2.8522
  702MOL0     H96821  11.418   8.116   5.456  0.5085  3.7220  1.0293
  702MOL0     H96822  11.305   7.983   5.506 -0.1283  0.7066  0.1326
  702MOL0     H96823  11.269   8.117   5.723  2.1994 -0.3397  3.0179
  702MOL0     H96824  11.398   8.026   5.716 -0.0942 -0.7049  0.4033
  702MOL0     H96825  11.605   8.213   5.531 -1.0136 -3.7108  1.4015
  702MOL0     H96826  11.662   8.607   5.619  1.0906  0.8443 -2.0824
  702MOL0     H96827  11.715   8.485   5.495 -1.1584 -1.2448 -0.5239
  702MOL0     H96828  11.879   8.583   5.666  1.5090 -0.1818  0.9039
  702MOL0     H96829  11.796   8.471   5.785 -0.4658  0.5253 -0.8964
  702MOL0     H96830  11.867   8.269   5.691 -0.9421  0.2922 -0.7407
  702MOL0     H96831  11.949   8.350   5.553  3.3776  0.0274  0.3337
  702MOL0     H96832  12.044   8.350   5.844 -0.7561  0.5637 -0.2844
  702MOL0     H96833  12.104   8.278   5.688 -1.4916 -2.5904  0.9078
  702MOL0     H96834  12.202   8.664   5.871 -2.3712  2.7332 -2.8931
  702MOL0     H96835  12.495   8.858   5.903 -0.7643 -0.8822 -2.6386
  702MOL0     H96836  12.517   8.715   5.992 -0.5108  0.0066  0.3798
  702MOL0     H96837  12.349   8.801   5.982  0.2915 -1.8560  1.6529
  702MOL0     H96838  12.838   8.743   5.507 -0.3023 -0.9847 -1.2507
  702MOL0     H96839  13.078   8.790   5.462  2.8767 -0.5471  1.2597
  702MOL0     H96840  13.337   8.667   5.753  2.6547 -1.7874  1.1169
  702MOL0     H96841  13.419   8.562   5.647 -2.7646 -0.5420  0.3057
  702MOL0     H96842  13.500   8.791   5.523  0.8818  0.0918  0.9813
  702MOL0     H96843  13.440   8.888   5.659  3.1252  2.0460 -0.8698
  702MOL0     H96844  13.650   8.862   5.692  0.5789 -0.1374  0.7055
  702MOL0     H96845  13.659   8.694   5.642 -1.0649 -0.8091 -0.4546
  702MOL0     H96846  13.511   8.675   5.885 -0.7376  0.3741  0.7962
  702MOL0     H96847  13.572   8.843   5.898  3.9289  0.5682  1.1965
  702MOL0     H96848  13.798   8.681   5.835 -1.2724 -0.9749 -2.3947
  702MOL0     H96849  13.756   8.756   5.990  1.9963  0.4028 -0.9074
  702MOL0     H96850  13.641   8.492   5.886  0.9594  0.1979  0.0321
  702MOL0     H96851  13.627   8.549   6.049 -1.5911 -0.5739 -1.0948
  702MOL0     H96852  13.918   8.536   5.983 -1.8748  2.2608  0.9029
  702MOL0     H96853  13.840   8.379   5.937  1.8447 -0.5171 -0.6503
  702MOL0     H96854  13.813   8.499   6.210 -2.0804  1.0376 -1.5562
  702MOL0     H96855  13.930   8.378   6.165  0.0030  2.0235  3.1145
  702MOL0     H96856  13.204   8.484   5.718 -0.5493 -1.0498  0.2110
  702MOL0     H96857  12.965   8.415   5.769  2.9195 -2.2077 -2.8272
  702MOL0     H96858  12.540   8.484   5.562 -0.7935 -1.0266 -0.4502
  702MOL0     H96859  12.305   8.400   5.553 -0.0863  0.9733 -0.4790
  702MOL0     H96860  10.493   8.193   4.913 -2.1072  2.2234  0.6019
  702MOL0     H96861  10.240   8.153   4.957  0.0606 -0.1103 -1.2514
  702MOL0     H96862   9.936   7.934   5.271 -0.8431 -0.9067 -1.1552
  702MOL0     H96863   9.708   7.914   5.372 -1.3711  1.0157  0.7354
  702MOL0     H96864   9.362   8.115   5.419 -0.5952 -0.2890 -2.4227
  702MOL0     H96865   9.455   8.244   5.360  0.6978  0.4236 -2.0169
  702MOL0     H96866   9.441   7.952   5.240  0.8781  0.2573 -2.1662
  702MOL0     H96867   9.556   8.062   5.181 -1.0090 -2.0437 -0.9663
  702MOL0     H96868   9.310   8.025   5.084 -1.4139  0.5197  1.5581
  702MOL0     H96869   9.260   8.130   5.210  1.3130  0.2382  1.6208
  702MOL0     H96870   9.313   8.234   4.972  0.6684 -0.2885 -0.6702
  702MOL0     H96871   9.478   8.235   5.028 -0.5064 -0.0725 -2.6449
  702MOL0     H96872   9.319   8.546   5.273  1.0844 -0.6970  0.5159
  702MOL0     H96873   9.682   8.325   5.433 -0.2877 -2.5813  4.8312
  702MOL0     H96874   9.956   8.405   5.196  3.8849 -1.6702  1.3318
  702MOL0     H96875   9.814   8.463   5.295  0.0111 -0.2391  0.9727
  702MOL0     H96876   9.975   8.446   5.364  2.4583  0.1813 -2.5992
  703MOL0     O96877   7.572   6.216   3.812 -0.6950 -0.3703  0.0288
  703MOL0     C96878   7.615   6.101   3.834 -0.2539  0.0884 -0.4860
  703MOL0     O96879   7.730   6.044   3.767  0.9156  0.9907 -0.4277
  703MOL0     C96880   7.797   6.100   3.656  0.6494 -0.3505 -0.0973
  703MOL0     C96881   7.786   6.227   3.602  0.5096  0.2608 -0.3258
  703MOL0     C96882   7.856   6.268   3.489  0.4477  0.0389 -0.0354
  703MOL0     C96883   7.928   6.172   3.418 -1.0398 -0.8430 -0.4161
  703MOL0     O96884   7.988   6.214   3.303 -0.4593  0.1092 -0.3928
  703MOL0     C96885   8.075   6.133   3.226  0.4176 -0.6147  0.5022
  703MOL0     C96886   8.092   6.221   3.107  0.1466 -0.3873 -0.6756
  703MOL0     C96887   8.184   6.165   3.004  0.2592 -0.4754  0.3105
  703MOL0     C96888   8.311   6.097   3.055  0.2599 -0.1382 -0.3616
  703MOL0     C96889   8.401   6.091   2.935  0.7205 -0.7402  0.5444
  703MOL0     C96890   8.535   6.019   2.966 -0.4946  0.2246  0.0992
  703MOL0     C96891   8.612   6.000   2.835  0.7807  0.5594 -0.0510
  703MOL0     C96892   8.722   5.899   2.870 -0.1144 -0.4529 -0.2496
  703MOL0     N96893   8.859   5.936   2.810  0.1854  0.3731  0.3850
  703MOL0     C96894   8.918   6.054   2.823  0.1236 -0.0896  0.1026
  703MOL0     C96895   9.031   6.038   2.757  0.2987 -0.4502  1.3846
  703MOL0     C96896   9.131   6.157   2.732  0.1750 -0.6604  0.3726
  703MOL0     C96897   9.071   6.278   2.664  1.2902 -0.0727  0.1051
  703MOL0     C96898   9.031   6.241   2.513 -0.5863 -0.2716  1.1671
  703MOL0     C96899   8.897   6.179   2.492 -0.2339  0.2325 -0.4581
  703MOL0     O96900   8.882   6.192   2.349 -0.0907  0.1118 -0.3958
  703MOL0     C96901   8.751   6.169   2.296 -0.4049 -0.0246  0.1138
  703MOL0     C96902   8.647   6.097   2.358  0.3726 -0.5871 -0.8887
  703MOL0     C96903   8.521   6.088   2.306  0.1025 -0.7553  0.3097
  703MOL0     C96904   8.421   6.003   2.387  0.7880  0.2665 -0.6136
  703MOL0     C96905   8.487   6.148   2.182 -0.1120  0.0674  0.3710
  703MOL0     C96906   8.345   6.155   2.125  0.3503  0.2928 -0.4716
  703MOL0     O96907   8.333   6.212   2.000  0.5576 -0.0455 -0.1014
  703MOL0     C96908   8.214   6.254   1.967 -0.6060  0.2894 -0.8745
  703MOL0     C96909   8.132   6.164   1.896 -0.3329  0.1143 -0.7071
  703MOL0     C96910   8.008   6.200   1.857  0.2447 -0.6471 -0.4305
  703MOL0     C96911   7.958   6.323   1.893  0.0096  0.6225 -0.8266
  703MOL0     O96912   7.822   6.354   1.883 -0.2131 -0.2310  0.0091
  703MOL0     C96913   7.781   6.487   1.880  0.5128 -0.1405  0.0229
  703MOL0     C96914   7.670   6.496   1.785 -0.3276  0.3768 -0.6508
  703MOL0     C96915   7.686   6.403   1.659  0.9262  0.1092 -1.0010
  703MOL0     C96916   7.582   6.436   1.553 -0.3147  0.1254 -0.2432
  703MOL0     C96917   7.554   6.312   1.474  0.7882  0.1135  0.2724
  703MOL0     C96918   7.444   6.342   1.371  0.6088 -0.4372  0.7652
  703MOL0     C96919   7.365   6.210   1.331 -0.6719 -0.4405 -0.3131
  703MOL0     C96920   7.225   6.242   1.269  0.0018 -0.2743 -0.2764
  703MOL0    Cl96921   7.224   6.265   1.091 -0.2490  0.2932  0.3112
  703MOL0     C96922   8.039   6.414   1.961  0.3395  0.4277 -0.6272
  703MOL0     C96923   8.173   6.381   1.995  0.1079  0.4253  0.2538
  703MOL0     O96924   8.248   6.117   2.198 -0.5489 -0.0256  0.0046
  703MOL0     C96925   8.595   6.209   2.110  0.4511 -0.0775  0.6076
  703MOL0     C96926   8.725   6.213   2.168  0.3423  0.5292  0.0512
  703MOL0     N96927   9.045   5.914   2.705 -0.1832 -0.3458  0.1331
  703MOL0     N96928   8.931   5.852   2.729 -0.8912 -0.4712  0.4504
  703MOL0     C96929   7.950   6.045   3.470 -0.1867 -0.0708  0.2550
  703MOL0     C96930   7.882   6.017   3.589  0.4493 -0.4080  0.3426
  703MOL0     C96931   7.579   6.024   3.949  0.0661  0.0025  0.4322
  703MOL0     C96932   7.680   5.962   4.031 -0.6815  0.4909  0.0588
  703MOL0     C96933   7.647   5.867   4.115 -0.3305  0.1175 -0.7313
  703MOL0     C96934   7.508   5.845   4.151 -0.3227 -0.1341 -0.6279
  703MOL0     O96935   7.460   5.760   4.250  0.0731 -0.2870  0.5903
  703MOL0     C96936   7.558   5.704   4.338  0.0897 -0.6040  0.2968
  703MOL0     C96937   7.485   5.621   4.444 -0.3338 -0.0040 -0.5966
  703MOL0     C96938   7.403   5.694   4.545 -0.7244 -0.5452 -0.9627
  703MOL0     C96939   7.373   5.623   4.679 -0.2348 -0.9290 -0.0636
  703MOL0     C96940   7.304   5.496   4.650 -0.1402 -1.0886 -0.2208
  703MOL0     C96941   7.243   5.395   4.640 -0.1246  0.9186 -0.1842
  703MOL0     C96942   7.410   5.906   4.077  0.6978  0.2993  0.2591
  703MOL0     C96943   7.446   5.988   3.969  0.2770 -0.3269  0.5947
  703MOL0     C96944   7.336   6.058   3.890 -0.7625  0.2953 -0.4808
  703MOL0     H96945   7.723   6.300   3.653  0.6049  0.5406 -0.6053
  703MOL0     H96946   7.847   6.372   3.458  3.4616  0.4552  0.1796
  703MOL0     H96947   8.033   6.036   3.197 -1.0319  0.0624  0.2731
  703MOL0     H96948   8.170   6.107   3.275  0.6365 -1.9533 -0.5556
  703MOL0     H96949   7.995   6.255   3.069 -0.5138  0.6009  1.7413
  703MOL0     H96950   8.128   6.320   3.137 -2.0805  0.5649 -0.9552
  703MOL0     H96951   8.131   6.089   2.946  0.2072  1.1959 -1.9812
  703MOL0     H96952   8.212   6.247   2.937 -1.1511  0.6254  1.0141
  703MOL0     H96953   8.350   6.171   3.126 -3.9532  2.0963 -0.0342
  703MOL0     H96954   8.290   6.003   3.108 -2.1154  1.9595  2.8009
  703MOL0     H96955   8.423   6.192   2.899 -0.0924 -0.7039  0.1334
  703MOL0     H96956   8.347   6.035   2.859 -2.3956 -0.9480  2.7104
  703MOL0     H96957   8.591   6.073   3.043  1.7912  0.8560 -1.8838
  703MOL0     H96958   8.501   5.922   3.002 -3.5619  1.5290  1.1213
  703MOL0     H96959   8.662   6.086   2.791 -0.5240  1.0667 -0.5712
  703MOL0     H96960   8.549   5.966   2.753  2.9639 -0.7898 -1.2888
  703MOL0     H96961   8.730   5.869   2.975  3.7158  1.7956  0.3102
  703MOL0     H96962   8.688   5.806   2.824 -0.5974 -0.3008 -0.2032
  703MOL0     H96963   8.887   6.141   2.881 -1.2202 -1.8765  2.2207
  703MOL0     H96964   9.206   6.115   2.664 -0.2398 -1.2594  0.2756
  703MOL0     H96965   9.176   6.194   2.825 -1.2596 -0.9430  1.2068
  703MOL0     H96966   8.991   6.317   2.726 -0.2443 -0.7343 -1.3737
  703MOL0     H96967   9.144   6.359   2.652 -1.4826  2.6670  0.5523
  703MOL0     H96968   9.051   6.335   2.460 -0.6426  0.7777  2.9322
  703MOL0     H96969   9.096   6.167   2.464 -1.1961 -1.0267  1.4923
  703MOL0     H96970   8.900   6.076   2.528 -1.5661  0.0202 -0.8961
  703MOL0     H96971   8.814   6.227   2.545 -0.8707 -1.1810 -0.1329
  703MOL0     H96972   8.665   6.065   2.460 -0.1520 -2.8494 -1.4488
  703MOL0     H96973   8.351   5.944   2.328 -1.4749  3.6309 -1.5762
  703MOL0     H96974   8.355   6.061   2.452 -0.8922 -2.2041  0.0311
  703MOL0     H96975   8.480   5.927   2.440  0.1069 -0.9815 -1.5996
  703MOL0     H96976   8.164   6.061   1.883 -1.5068 -0.5965  1.4858
  703MOL0     H96977   7.942   6.126   1.812 -0.8637  1.9280 -3.4017
  703MOL0     H96978   7.754   6.526   1.979  1.4079  1.1459 -0.2074
  703MOL0     H96979   7.854   6.554   1.834 -0.8517  0.8353 -0.7868
  703MOL0     H96980   7.581   6.471   1.843 -0.7661  3.4709  0.1818
  703MOL0     H96981   7.660   6.602   1.762  0.6067  0.7082  0.4078
  703MOL0     H96982   7.662   6.302   1.693 -5.5175  0.9692 -1.7536
  703MOL0     H96983   7.784   6.415   1.611  2.8590  0.7500  2.7341
  703MOL0     H96984   7.628   6.517   1.495 -3.9550  1.4675 -1.5362
  703MOL0     H96985   7.488   6.463   1.601 -0.8331  1.6286 -2.0017
  703MOL0     H96986   7.640   6.294   1.409 -0.1981  3.0800 -2.1082
  703MOL0     H96987   7.525   6.228   1.537 -0.3923  0.5169  0.2932
  703MOL0     H96988   7.480   6.402   1.287  0.3332  1.3494  1.8941
  703MOL0     H96989   7.371   6.399   1.429  0.7156 -2.9170  3.6042
  703MOL0     H96990   7.354   6.157   1.426 -0.2032 -1.3259 -0.7319
  703MOL0     H96991   7.432   6.150   1.268  0.8557  0.4448  0.4116
  703MOL0     H96992   7.185   6.334   1.312 -1.1868 -0.6917 -0.4569
  703MOL0     H96993   7.148   6.168   1.293  0.2889 -0.3897  0.3314
  703MOL0     H96994   8.011   6.516   1.986  0.1775  0.0327  0.8403
  703MOL0     H96995   8.240   6.456   2.035 -0.4971  0.3812  1.3876
  703MOL0     H96996   8.588   6.249   2.009  2.2452  2.4626  1.4069
  703MOL0     H96997   8.804   6.263   2.112  1.7529 -2.1309 -0.5653
  703MOL0     H96998   8.001   5.959   3.428  1.6683  1.6329 -1.1533
  703MOL0     H96999   7.896   5.914   3.621  1.1646 -0.0273  1.3348
  703MOL0     H97000   7.785   5.984   4.014 -0.3750  1.4443  2.6699
  703MOL0     H97001   7.720   5.811   4.173  0.9015  0.8966 -1.4897
  703MOL0     H97002   7.644   5.648   4.300  2.3049  1.1970  2.3488
  703MOL0     H97003   7.605   5.784   4.396  0.1162 -2.3335  2.8169
  703MOL0     H97004   7.554   5.557   4.500  0.7667  1.5469 -0.1120
  703MOL0     H97005   7.413   5.566   4.383 -1.5311  2.7816 -1.8365
  703MOL0     H97006   7.459   5.785   4.566 -0.1783 -0.7077 -1.6660
  703MOL0     H97007   7.309   5.731   4.502 -0.4995  1.0442 -0.1632
  703MOL0     H97008   7.331   5.693   4.753  3.6421  1.6118  0.0049
  703MOL0     H97009   7.468   5.600   4.728 -0.6123 -1.1057  0.6017
  703MOL0     H97010   7.201   5.297   4.639  1.3400  0.2554 -1.5800
  703MOL0     H97011   7.308   5.878   4.100  1.0338  0.1132  1.5950
  703MOL0     H97012   7.357   6.062   3.783  5.6104  3.1659  0.4289
  703MOL0     H97013   7.242   6.003   3.906 -0.6289  0.1535 -0.1627
  703MOL0     H97014   7.328   6.160   3.928 -0.2180  0.8380 -1.7733
  704MOL0     O97015  10.488   5.001   1.431  0.4058 -0.4353  0.0919
  704MOL0     C97016  10.538   4.926   1.520 -0.0631 -0.7437  0.0165
  704MOL0     O97017  10.482   4.815   1.586  0.0822 -0.5209 -0.4497
  704MOL0     C97018  10.351   4.795   1.562 -0.3079  0.2372 -0.0978
  704MOL0     C97019  10.307   4.661   1.566 -0.4536 -0.0473  0.2997
  704MOL0     C97020  10.167   4.637   1.570 -0.1178  0.2671  0.7914
  704MOL0     C97021  10.075   4.742   1.549 -0.0864 -0.2766 -0.5207
  704MOL0     O97022   9.939   4.741   1.540  0.3648  0.2949 -0.0888
  704MOL0     C97023   9.870   4.645   1.466  0.2199 -0.3735  0.2448
  704MOL0     C97024   9.722   4.666   1.434 -1.1628  0.3187  0.6793
  704MOL0     C97025   9.685   4.769   1.326 -0.0627 -0.0680 -0.6366
  704MOL0     C97026   9.761   4.756   1.196 -0.6014 -0.1456  0.5888
  704MOL0     C97027   9.671   4.814   1.086  0.5352  0.4132 -0.1727
  704MOL0     C97028   9.564   4.715   1.037  0.1486  0.5918  0.2870
  704MOL0     C97029   9.446   4.797   0.994 -0.6316  1.1866  0.4641
  704MOL0     C97030   9.328   4.709   0.983  0.4829 -0.2966  0.3283
  704MOL0     N97031   9.293   4.646   0.851 -0.0226 -0.1928 -0.0656
  704MOL0     C97032   9.242   4.704   0.739  0.4806 -0.1756 -0.3813
  704MOL0     C97033   9.249   4.605   0.646 -0.0964  0.6423  0.9987
  704MOL0     C97034   9.236   4.633   0.499 -0.2167  0.7731  0.4964
  704MOL0     C97035   9.373   4.647   0.435 -0.1817 -0.2187 -0.3380
  704MOL0     C97036   9.362   4.680   0.277  0.4467 -0.3069  0.0147
  704MOL0     C97037   9.500   4.690   0.214 -0.2131  0.2248 -0.0846
  704MOL0     O97038   9.500   4.718   0.067  0.6866  0.3880 -0.3213
  704MOL0     C97039   9.618   4.725   0.001  0.5592  0.0059 -1.0051
  704MOL0     C97040   9.732   4.655   0.046  0.3468  0.9052 -1.0201
  704MOL0     C97041   9.847   4.633  -0.026 -0.0433 -0.2307 -0.3538
  704MOL0     C97042   9.943   4.531   0.028  0.2414  0.3296  0.1390
  704MOL0     C97043   9.849   4.698  -0.158 -0.0994  0.0045  0.0455
  704MOL0     C97044   9.964   4.684  -0.245 -0.4151 -0.1451  0.3319
  704MOL0     O97045  10.091   4.658  -0.177  0.7612  0.7729 -0.5447
  704MOL0     C97046  10.202   4.649  -0.252 -0.6372 -0.7396 -0.0650
  704MOL0     C97047  10.218   4.590  -0.382  1.0882 -0.2020 -0.0706
  704MOL0     C97048  10.354   4.580  -0.439  0.3142  1.1837 -0.3757
  704MOL0     C97049  10.451   4.644  -0.371  0.7884  0.7626 -0.2168
  704MOL0     O97050  10.568   4.647  -0.444  0.6684 -0.5157 -0.8963
  704MOL0     C97051  10.672   4.718  -0.380  0.0974 -1.0618 -0.5076
  704MOL0     C97052  10.793   4.740  -0.469 -0.6579 -0.5754 -0.5704
  704MOL0     C97053  10.748   4.800  -0.603  0.8176 -0.4721  0.2717
  704MOL0     C97054  10.864   4.863  -0.661  0.3934 -0.5638  0.2493
  704MOL0     C97055  10.833   4.902  -0.802 -0.2831  0.1972  0.0344
  704MOL0     C97056  10.957   4.970  -0.865 -0.1127 -0.0526  0.5945
  704MOL0     C97057  10.928   5.008  -1.015 -0.6707 -0.0027 -1.2015
  704MOL0     C97058  11.002   5.121  -1.068 -0.1232 -0.0118  0.8390
  704MOL0    Cl97059  11.177   5.073  -1.086 -0.0995 -0.7446  0.4260
  704MOL0     C97060  10.430   4.706  -0.248 -0.2760  1.0256 -0.3732
  704MOL0     C97061  10.312   4.709  -0.187 -0.7088  0.1126 -0.2795
  704MOL0     O97062   9.948   4.711  -0.364 -0.0114 -1.1903 -0.4294
  704MOL0     C97063   9.739   4.768  -0.203 -0.8151 -0.2977  0.5014
  704MOL0     C97064   9.626   4.786  -0.122  0.0950  0.4276 -0.4575
  704MOL0     N97065   9.298   4.488   0.700 -0.5158 -0.5051 -0.6907
  704MOL0     N97066   9.319   4.514   0.827 -0.1590 -0.3124 -0.8914
  704MOL0     C97067  10.126   4.875   1.546 -0.5294  0.4654  0.4240
  704MOL0     C97068  10.261   4.894   1.547 -0.2793 -0.1797 -0.2655
  704MOL0     C97069  10.682   4.951   1.548  0.0818 -0.5970 -0.0163
  704MOL0     C97070  10.738   5.084   1.534 -0.1458  0.3150  0.3889
  704MOL0     C97071  10.865   5.117   1.580 -0.5374  0.0595  0.1598
  704MOL0     C97072  10.952   5.015   1.626  1.0773 -0.9599 -0.0256
  704MOL0     O97073  11.077   5.052   1.672  0.7552 -0.7808  0.3700
  704MOL0     C97074  11.147   4.985   1.772 -0.1395  0.8672 -0.2964
  704MOL0     C97075  11.266   5.077   1.797 -1.1550  0.0103  0.2343
  704MOL0     C97076  11.358   5.031   1.914  0.1997 -0.7937 -0.0254
  704MOL0     C97077  11.288   4.930   2.012 -0.8022  0.4089  0.3468
  704MOL0     C97078  11.359   4.924   2.144  0.0339 -0.7992  0.9859
  704MOL0     C97079  11.434   4.917   2.233 -0.5790 -0.2878 -0.0490
  704MOL0     C97080  10.903   4.882   1.641  0.9714 -0.2420 -0.0707
  704MOL0     C97081  10.768   4.851   1.605  0.1756 -0.1221 -0.0627
  704MOL0     C97082  10.747   4.690   1.590 -0.1418 -0.1759 -0.1810
  704MOL0     H97083  10.383   4.583   1.574  2.8408  3.0095  1.3308
  704MOL0     H97084  10.143   4.533   1.586  1.7016 -0.1041  1.3646
  704MOL0     H97085   9.888   4.551   1.519  3.4190  0.0257  0.0796
  704MOL0     H97086   9.915   4.633   1.367  2.0279 -0.2478  0.9965
  704MOL0     H97087   9.678   4.568   1.413 -0.0938 -0.2763  1.0698
  704MOL0     H97088   9.681   4.696   1.531  1.1981 -0.3413  1.9615
  704MOL0     H97089   9.577   4.767   1.304 -0.4431 -2.3140  1.0679
  704MOL0     H97090   9.707   4.869   1.363 -1.6991  1.0375 -2.4442
  704MOL0     H97091   9.850   4.818   1.210 -1.2359  0.8015  0.4733
  704MOL0     H97092   9.794   4.658   1.160  1.8245  0.8596 -0.1336
  704MOL0     H97093   9.741   4.845   1.008  0.4913  0.7638 -0.0757
  704MOL0     H97094   9.626   4.905   1.129 -0.1120 -0.3579  0.8264
  704MOL0     H97095   9.616   4.650   0.965  0.3207  1.3412 -0.2796
  704MOL0     H97096   9.534   4.651   1.120 -0.3169 -1.6936 -1.5173
  704MOL0     H97097   9.464   4.865   0.911  1.4065  1.4943  1.0945
  704MOL0     H97098   9.418   4.864   1.077 -0.3799  1.0170  0.6884
  704MOL0     H97099   9.325   4.642   1.069 -1.4980  0.2963  0.7787
  704MOL0     H97100   9.235   4.765   0.997 -0.1171 -1.5080  1.3874
  704MOL0     H97101   9.219   4.809   0.720  0.9397 -0.0008  0.0094
  704MOL0     H97102   9.176   4.722   0.476  2.1301  2.1795 -0.5451
  704MOL0     H97103   9.179   4.548   0.459  0.0932  1.1092 -0.7178
  704MOL0     H97104   9.432   4.726   0.483  0.3638 -1.3080  0.8397
  704MOL0     H97105   9.417   4.547   0.439 -3.6906 -1.9256 -0.9088
  704MOL0     H97106   9.299   4.598   0.241 -0.9131 -1.0699  3.6690
  704MOL0     H97107   9.297   4.764   0.255  0.1579 -0.0377  1.7445
  704MOL0     H97108   9.552   4.767   0.270 -1.3114 -0.2395  1.6523
  704MOL0     H97109   9.554   4.598   0.240  1.3986  1.0494 -0.3895
  704MOL0     H97110   9.732   4.609   0.145  4.8046 -0.6050 -1.5055
  704MOL0     H97111   9.889   4.471   0.102 -0.8993  2.0826  0.7720
  704MOL0     H97112  10.034   4.577   0.067  0.5311  2.6559 -2.9405
  704MOL0     H97113   9.976   4.474  -0.059 -2.4704  0.1231 -0.8594
  704MOL0     H97114  10.132   4.568  -0.445  1.4361  1.3347 -1.1522
  704MOL0     H97115  10.365   4.531  -0.535 -1.3541 -3.4732  1.4744
  704MOL0     H97116  10.645   4.822  -0.359 -0.1346 -1.8416  3.8195
  704MOL0     H97117  10.703   4.681  -0.282  0.1730 -1.2595 -0.6056
  704MOL0     H97118  10.877   4.792  -0.422  0.2160 -1.9388 -0.5944
  704MOL0     H97119  10.820   4.638  -0.497  0.0722 -0.6278  0.3002
  704MOL0     H97120  10.686   4.887  -0.579  0.3185 -1.1723  1.6810
  704MOL0     H97121  10.693   4.731  -0.667  0.6180  0.1393 -0.2278
  704MOL0     H97122  10.955   4.802  -0.660  0.8264  0.0824  1.2820
  704MOL0     H97123  10.894   4.946  -0.597 -4.6641 -0.4725  3.0115
  704MOL0     H97124  10.813   4.814  -0.864  0.2890 -1.9321  2.6893
  704MOL0     H97125  10.746   4.968  -0.799  0.6492  1.5174 -0.8589
  704MOL0     H97126  11.038   4.897  -0.873  1.7395  1.8120  1.3539
  704MOL0     H97127  10.995   5.053  -0.804  0.3587  0.6733 -0.6565
  704MOL0     H97128  10.825   5.045  -1.025 -0.8698 -0.1607  0.0427
  704MOL0     H97129  10.932   4.910  -1.063 -0.0969 -0.7808  0.3438
  704MOL0     H97130  10.997   5.199  -0.992  0.0509 -1.3074  2.2204
  704MOL0     H97131  10.966   5.156  -1.166  2.0994 -2.2515 -0.8935
  704MOL0     H97132  10.516   4.744  -0.194 -1.3056  0.5047  1.7608
  704MOL0     H97133  10.295   4.756  -0.091 -0.0210  2.5663 -1.2842
  704MOL0     H97134   9.734   4.816  -0.300 -3.7665  0.6685  1.0146
  704MOL0     H97135   9.532   4.829  -0.153 -0.4437 -0.3765  0.0177
  704MOL0     H97136  10.060   4.959   1.531 -0.0572  0.7178 -0.2937
  704MOL0     H97137  10.293   4.998   1.550  1.6715 -0.6781 -1.6316
  704MOL0     H97138  10.681   5.170   1.499  2.5687  1.8340 -0.5760
  704MOL0     H97139  10.885   5.223   1.590  1.0898  0.0852 -2.3167
  704MOL0     H97140  11.073   4.973   1.852 -0.3342  0.1402 -0.5750
  704MOL0     H97141  11.169   4.885   1.733 -0.3844  1.4920 -2.1509
  704MOL0     H97142  11.236   5.179   1.824  3.2055  2.6719 -3.5112
  704MOL0     H97143  11.330   5.101   1.712 -2.7946  0.9392 -0.8033
  704MOL0     H97144  11.448   4.991   1.866 -0.0154 -0.7576 -0.4612
  704MOL0     H97145  11.393   5.116   1.974 -0.5406 -2.1326  2.4488
  704MOL0     H97146  11.290   4.833   1.962  4.5642  0.2259  0.3590
  704MOL0     H97147  11.185   4.960   2.031 -1.4823 -1.9089  0.6363
  704MOL0     H97148  11.503   4.901   2.314 -1.2564  1.5221  0.9455
  704MOL0     H97149  10.961   4.797   1.676 -2.3261 -2.5079  0.2851
  704MOL0     H97150  10.844   4.639   1.582 -0.7725 -1.3427 -0.7528
  704MOL0     H97151  10.688   4.660   1.677 -2.7578  1.2333 -1.3596
  704MOL0     H97152  10.691   4.670   1.498 -0.2608  0.6349 -0.2946
  705MOL0     O97153   2.288   2.323   0.416  0.4326  0.3126 -0.1191
  705MOL0     C97154   2.341   2.376   0.317 -0.6203  0.5255 -0.8052
  705MOL0     O97155   2.448   2.333   0.240 -0.2071  0.2494  0.2183
  705MOL0     C97156   2.503   2.213   0.275 -0.5170  0.5337 -0.8331
  705MOL0     C97157   2.473   2.100   0.205 -0.4126  0.2023 -0.6296
  705MOL0     C97158   2.532   1.979   0.248  0.2570  0.2572 -0.6563
  705MOL0     C97159   2.613   1.972   0.362 -0.3661  0.4502 -1.1619
  705MOL0     O97160   2.683   1.859   0.404  0.1778 -0.9262 -0.9110
  705MOL0     C97161   2.671   1.825   0.545  0.4648  0.4250 -0.2851
  705MOL0     C97162   2.684   1.677   0.574  0.8983  0.3364  0.2221
  705MOL0     C97163   2.807   1.609   0.516 -0.6284 -0.1608 -0.4509
  705MOL0     C97164   2.790   1.454   0.537  0.1741  0.0487 -1.3559
  705MOL0     C97165   2.920   1.378   0.508  0.1851  0.2037  0.3000
  705MOL0     C97166   2.892   1.226   0.480 -0.8239  0.3774  0.5478
  705MOL0     C97167   3.013   1.166   0.424 -0.0402  0.1933  0.6164
  705MOL0     C97168   2.979   1.016   0.376 -0.7462  0.7116  0.5994
  705MOL0     N97169   3.094   0.936   0.338  0.9881  0.0415 -0.1528
  705MOL0     C97170   3.180   0.973   0.243  0.1837 -0.9849 -0.5468
  705MOL0     C97171   3.281   0.891   0.256 -0.7610  0.9793 -0.5903
  705MOL0     C97172   3.403   0.885   0.171 -0.3277  0.1753  0.3685
  705MOL0     C97173   3.419   0.740   0.120 -0.1406 -0.3657 -0.4228
  705MOL0     C97174   3.319   0.698   0.004 -0.9013 -0.7852  0.7677
  705MOL0     C97175   3.370   0.782  -0.117  0.3472  0.0391  0.3871
  705MOL0     O97176   3.305   0.728  -0.229  0.7512  0.3082 -0.8922
  705MOL0     C97177   3.362   0.620  -0.292  0.0101  0.4142  1.1369
  705MOL0     C97178   3.492   0.617  -0.339  0.9036  0.5876 -0.5930
  705MOL0     C97179   3.550   0.502  -0.409  1.0859  0.9248 -0.0331
  705MOL0     C97180   3.696   0.496  -0.424 -0.6133 -0.3309  0.6318
  705MOL0     C97181   3.466   0.385  -0.432  0.1330 -0.3957 -0.7424
  705MOL0     C97182   3.507   0.265  -0.505  0.8552  0.3540 -0.6257
  705MOL0     O97183   3.400   0.181  -0.526  0.3261 -0.1227 -0.3391
  705MOL0     C97184   3.387   0.125  -0.651  0.4916 -0.1590 -0.4657
  705MOL0     C97185   3.376   0.204  -0.766 -0.5751 -0.4197  0.1826
  705MOL0     C97186   3.330   0.145  -0.887  0.6367  0.8102  1.0285
  705MOL0     C97187   3.312   0.006  -0.905 -0.6199  0.4063  0.6342
  705MOL0     O97188   3.274  -0.057  -1.018  0.1929  1.1091 -0.0815
  705MOL0     C97189   3.347  -0.178  -1.054 -0.0053 -0.1833  0.0033
  705MOL0     C97190   3.338  -0.188  -1.208 -0.0067  0.5381 -0.2890
  705MOL0     C97191   3.190  -0.218  -1.244  0.7179  0.2743  0.3555
  705MOL0     C97192   3.177  -0.247  -1.387 -0.0877 -0.0315  0.4974
  705MOL0     C97193   3.044  -0.274  -1.450  0.5507  0.8362  0.4572
  705MOL0     C97194   2.922  -0.179  -1.433 -0.0008 -0.2302 -0.3726
  705MOL0     C97195   2.965  -0.041  -1.494 -0.1092  0.5461  0.3717
  705MOL0     C97196   2.851   0.058  -1.482  0.3394 -0.4690  0.5753
  705MOL0    Cl97197   2.698  -0.006  -1.559 -0.2156  0.1023  0.0506
  705MOL0     C97198   3.327  -0.069  -0.788  0.3851  0.4448  0.5961
  705MOL0     C97199   3.365  -0.014  -0.669 -0.7951 -0.0214 -0.2954
  705MOL0     O97200   3.624   0.237  -0.536 -0.1210 -0.5329  0.2923
  705MOL0     C97201   3.330   0.395  -0.385 -0.3119  0.2859  0.9193
  705MOL0     C97202   3.285   0.512  -0.322 -0.2376  1.2528  0.5569
  705MOL0     N97203   3.260   0.802   0.365 -0.3563  0.1349  0.1146
  705MOL0     N97204   3.140   0.833   0.409 -0.0022  0.6502  0.1463
  705MOL0     C97205   2.633   2.088   0.432 -0.1418  0.6933 -0.7092
  705MOL0     C97206   2.586   2.210   0.389 -0.7263  0.3607  1.0311
  705MOL0     C97207   2.268   2.497   0.264  0.0178 -0.6847  0.6142
  705MOL0     C97208   2.226   2.598   0.355 -0.3411 -0.2526  1.3971
  705MOL0     C97209   2.156   2.709   0.303  0.0276  0.2465 -0.4939
  705MOL0     C97210   2.114   2.720   0.174  0.1598  0.4449 -0.0531
  705MOL0     O97211   2.048   2.833   0.146 -0.1848 -0.4722 -0.7072
  705MOL0     C97212   2.010   2.852   0.012  0.2158 -0.9965  0.3638
  705MOL0     C97213   1.963   3.001  -0.012  0.1806  0.7816 -0.4299
  705MOL0     C97214   1.849   3.050   0.092 -0.8079  0.5627  0.5416
  705MOL0     C97215   1.731   2.962   0.084  0.5399  0.3834 -0.0466
  705MOL0     C97216   1.637   2.999  -0.025 -0.4570  0.9234 -0.2342
  705MOL0     C97217   1.569   3.022  -0.118  0.3008  0.0278 -0.6334
  705MOL0     C97218   2.151   2.622   0.081  0.4072 -0.2891  0.2454
  705MOL0     C97219   2.228   2.514   0.127 -0.5381 -0.3720 -0.8075
  705MOL0     C97220   2.271   2.415   0.030 -0.9945  0.7090  0.0180
  705MOL0     H97221   2.415   2.102   0.113 -3.2006  0.4155  1.0200
  705MOL0     H97222   2.507   1.890   0.191  0.8076  1.4006 -2.8010
  705MOL0     H97223   2.579   1.870   0.583  0.9270  0.1900  1.1792
  705MOL0     H97224   2.755   1.865   0.604  0.6661 -1.4749  0.8075
  705MOL0     H97225   2.669   1.646   0.678  2.1449 -1.9835 -0.2019
  705MOL0     H97226   2.589   1.644   0.532  0.3984  3.0545 -1.0075
  705MOL0     H97227   2.804   1.627   0.408 -0.6838  1.8648 -0.1490
  705MOL0     H97228   2.900   1.658   0.546  0.3838 -1.6315 -1.0195
  705MOL0     H97229   2.762   1.424   0.639  1.1532 -1.9303 -1.6297
  705MOL0     H97230   2.715   1.412   0.470 -0.8664 -2.7924  1.3529
  705MOL0     H97231   2.990   1.383   0.592  0.1102  1.6194  0.3050
  705MOL0     H97232   2.972   1.434   0.431 -2.2222  2.2644  0.0368
  705MOL0     H97233   2.881   1.179   0.578  1.0744 -1.7081 -0.1624
  705MOL0     H97234   2.812   1.219   0.405  0.8684 -1.6591 -1.1975
  705MOL0     H97235   3.098   1.173   0.493 -3.0391 -0.3502  4.7544
  705MOL0     H97236   3.031   1.213   0.327 -2.9163 -1.0255 -0.6258
  705MOL0     H97237   2.915   0.966   0.449  0.8124  3.9983  4.6086
  705MOL0     H97238   2.923   1.029   0.282  3.6985  0.3218 -2.4261
  705MOL0     H97239   3.176   1.056   0.173  0.1484 -2.2771 -2.1504
  705MOL0     H97240   3.483   0.911   0.240 -0.0687 -0.5939  0.3773
  705MOL0     H97241   3.399   0.954   0.087  2.0672  0.9161  0.7764
  705MOL0     H97242   3.519   0.716   0.083 -1.5863 -2.7048 -3.2996
  705MOL0     H97243   3.397   0.672   0.203 -1.1647  0.2834 -0.1505
  705MOL0     H97244   3.331   0.592  -0.023 -0.5562 -1.3151  2.8316
  705MOL0     H97245   3.215   0.697   0.035 -1.0756  0.5418  0.2920
  705MOL0     H97246   3.334   0.885  -0.105  2.4675  0.7584  1.0330
  705MOL0     H97247   3.478   0.779  -0.134  0.3189  0.5618  0.0988
  705MOL0     H97248   3.562   0.698  -0.321  5.7837 -3.1633 -0.4685
  705MOL0     H97249   3.737   0.598  -0.425  0.9564 -0.9267  1.4788
  705MOL0     H97250   3.730   0.452  -0.518 -1.5802 -2.4563  1.2120
  705MOL0     H97251   3.751   0.453  -0.340 -0.2681  1.4783  1.3877
  705MOL0     H97252   3.403   0.309  -0.757 -1.4977  0.0696 -1.9938
  705MOL0     H97253   3.310   0.205  -0.975  2.0125 -0.2782 -0.0800
  705MOL0     H97254   3.451  -0.161  -1.024 -0.6116  1.5314  1.2930
  705MOL0     H97255   3.313  -0.268  -1.000 -1.7037 -0.4243 -1.4048
  705MOL0     H97256   3.370  -0.094  -1.254 -0.5526 -0.1264 -2.1098
  705MOL0     H97257   3.420  -0.256  -1.229 -1.0850 -1.0982  0.5872
  705MOL0     H97258   3.113  -0.141  -1.232 -1.8582 -1.9424 -0.7405
  705MOL0     H97259   3.161  -0.300  -1.179  0.5208  0.3088  0.3137
  705MOL0     H97260   3.242  -0.333  -1.407  3.7920  2.0888  2.7873
  705MOL0     H97261   3.224  -0.168  -1.445 -0.2039  0.3166  0.8710
  705MOL0     H97262   3.060  -0.284  -1.558  0.9454 -2.2520  0.7226
  705MOL0     H97263   3.013  -0.371  -1.411 -1.5464  0.3762 -2.0444
  705MOL0     H97264   2.884  -0.180  -1.330  2.8907 -0.6260  0.8016
  705MOL0     H97265   2.842  -0.216  -1.498 -2.5436  0.4518  2.1603
  705MOL0     H97266   2.984  -0.055  -1.601  0.7387 -1.2734  0.7243
  705MOL0     H97267   3.052  -0.001  -1.442  1.4752 -0.7158 -1.1840
  705MOL0     H97268   2.895   0.143  -1.534  1.3227 -2.7201 -2.5867
  705MOL0     H97269   2.827   0.066  -1.376 -1.1809 -1.0037  0.3090
  705MOL0     H97270   3.324  -0.177  -0.789  0.7024  0.4240  1.0967
  705MOL0     H97271   3.372  -0.075  -0.580  0.6333  2.9763  1.7887
  705MOL0     H97272   3.264   0.309  -0.392  1.2623 -0.8574 -0.8466
  705MOL0     H97273   3.182   0.510  -0.287  0.2826 -1.2812  2.1917
  705MOL0     H97274   2.698   2.089   0.519  0.4173  5.4584 -0.9225
  705MOL0     H97275   2.594   2.295   0.457 -1.8210  1.1508  0.1990
  705MOL0     H97276   2.247   2.594   0.461 -2.1388 -0.8573  1.7551
  705MOL0     H97277   2.143   2.789   0.375  2.7760 -0.3721  0.8129
  705MOL0     H97278   2.092   2.829  -0.056 -0.9896 -5.2347  0.0376
  705MOL0     H97279   1.927   2.788  -0.019 -0.9921  1.6503 -2.3465
  705MOL0     H97280   1.933   3.014  -0.116  4.8417  0.3108 -2.0687
  705MOL0     H97281   2.047   3.069   0.006  0.3775  0.2335  0.8205
  705MOL0     H97282   1.894   3.050   0.192  0.4328  1.5741  0.0152
  705MOL0     H97283   1.810   3.147   0.061  1.0616  1.1722 -0.0334
  705MOL0     H97284   1.681   2.974   0.181  3.6452 -0.7737  1.8424
  705MOL0     H97285   1.767   2.859   0.088  0.3578  0.3197  3.1672
  705MOL0     H97286   1.527   3.059  -0.210  2.5459  0.7008 -1.4545
  705MOL0     H97287   2.136   2.626  -0.027  1.4191  0.5633  0.1158
  705MOL0     H97288   2.230   2.428  -0.071  0.1702  0.3275 -0.5291
  705MOL0     H97289   2.380   2.420   0.019 -1.0368  0.0434 -0.8953
  705MOL0     H97290   2.236   2.318   0.065 -0.7246  0.5399 -0.1672
  706MOL0     O97291   7.904   4.220   0.751  0.5699  0.7055 -0.3547
  706MOL0     C97292   7.876   4.339   0.715 -0.5634 -0.0486  0.2006
  706MOL0     O97293   7.958   4.418   0.639 -0.0594 -0.0488 -0.8927
  706MOL0     C97294   8.079   4.386   0.580  0.0053 -0.6418  0.4703
  706MOL0     C97295   8.133   4.479   0.489 -0.9725 -0.0533 -0.1210
  706MOL0     C97296   8.255   4.460   0.413  0.0809 -0.6183  0.2254
  706MOL0     C97297   8.318   4.331   0.426  0.2790  0.9266  0.4174
  706MOL0     O97298   8.425   4.306   0.341  0.4885  0.6845  0.2102
  706MOL0     C97299   8.492   4.181   0.349 -0.4080 -0.0474 -0.5790
  706MOL0     C97300   8.575   4.160   0.225 -0.3428 -0.2315  0.2127
  706MOL0     C97301   8.670   4.282   0.202 -0.5653 -0.2304  0.8914
  706MOL0     C97302   8.755   4.277   0.069  0.0000  0.3056  0.8073
  706MOL0     C97303   8.787   4.414   0.031 -0.4451  0.4672 -1.1334
  706MOL0     C97304   8.887   4.493   0.124  0.8007  0.0426  0.1184
  706MOL0     C97305   8.892   4.646   0.080 -0.4279  0.8910 -0.1493
  706MOL0     C97306   8.966   4.720   0.197 -1.0500 -0.1888  0.0187
  706MOL0     N97307   9.017   4.850   0.154  0.0775  0.5834  0.3680
  706MOL0     C97308   9.095   4.934   0.229  0.5536 -0.3969  0.2026
  706MOL0     C97309   9.138   5.036   0.148  0.8378 -0.8312 -0.7460
  706MOL0     C97310   9.215   5.165   0.194  0.1539  0.1780 -0.2218
  706MOL0     C97311   9.363   5.144   0.159  0.2678  0.6090 -0.5204
  706MOL0     C97312   9.398   5.118   0.015 -0.3201 -0.3625  0.0075
  706MOL0     C97313   9.540   5.161  -0.030  0.3191 -1.4395  0.0259
  706MOL0     O97314   9.644   5.098   0.043 -0.1295 -0.7091 -0.8649
  706MOL0     C97315   9.773   5.134   0.012  0.1247  0.5425  0.0008
  706MOL0     C97316   9.824   5.235  -0.064 -0.3072 -0.0562  0.4751
  706MOL0     C97317   9.957   5.261  -0.076 -1.6932 -0.6351 -0.0385
  706MOL0     C97318  10.002   5.384  -0.143 -0.2654 -0.2935  0.5024
  706MOL0     C97319  10.058   5.179  -0.008 -0.4363 -0.0509  0.6873
  706MOL0     C97320  10.211   5.186  -0.020  1.0970 -0.2678 -1.0576
  706MOL0     O97321  10.289   5.074  -0.005 -0.1975 -0.0287 -0.0125
  706MOL0     C97322  10.421   5.060  -0.034 -0.5979  0.3801 -0.0034
  706MOL0     C97323  10.512   5.155  -0.088 -0.4582  0.1489  0.1245
  706MOL0     C97324  10.655   5.142  -0.081  0.3759  0.0142 -0.4795
  706MOL0     C97325  10.710   5.022  -0.032  1.1072 -0.9719  0.8594
  706MOL0     O97326  10.840   4.991  -0.021  0.1980 -1.1618 -0.6159
  706MOL0     C97327  10.952   5.067  -0.077  0.1070 -0.3404  0.0241
  706MOL0     C97328  11.071   4.972  -0.123  0.1668 -0.0380  1.1153
  706MOL0     C97329  11.110   4.870  -0.018 -0.1708  0.0978 -0.1350
  706MOL0     C97330  11.247   4.801  -0.056 -0.0094  1.3113 -0.2446
  706MOL0     C97331  11.246   4.742  -0.194 -0.0789  0.0620  0.3346
  706MOL0     C97332  11.391   4.711  -0.240  0.3147  0.6501  0.0865
  706MOL0     C97333  11.409   4.621  -0.365 -0.2061 -0.1274  0.6200
  706MOL0     C97334  11.397   4.686  -0.507  0.4355 -0.8377  0.0198
  706MOL0    Cl97335  11.213   4.714  -0.510  0.2797 -0.1743  0.0249
  706MOL0     C97336  10.621   4.918   0.008 -0.8220 -0.6191 -0.2022
  706MOL0     C97337  10.486   4.937   0.003 -0.1595 -0.5032  0.5193
  706MOL0     O97338  10.253   5.302  -0.039  0.0858  0.0069 -0.4643
  706MOL0     C97339  10.002   5.075   0.060  0.1584 -0.3551 -1.0986
  706MOL0     C97340   9.866   5.056   0.070  0.0066  0.0989 -0.3639
  706MOL0     N97341   9.076   5.011   0.022 -0.8273  0.4479 -0.0063
  706MOL0     N97342   9.006   4.906   0.028  1.0031 -0.1437  0.1630
  706MOL0     C97343   8.263   4.239   0.520  0.5010 -1.0866 -0.3271
  706MOL0     C97344   8.147   4.267   0.588  0.5921  0.1047 -0.3110
  706MOL0     C97345   7.749   4.400   0.757  0.3337  0.2260 -0.6531
  706MOL0     C97346   7.666   4.464   0.661  0.4931 -1.2693 -0.0453
  706MOL0     C97347   7.539   4.524   0.696  0.0263  0.2149 -0.8025
  706MOL0     C97348   7.490   4.496   0.826 -0.3910  0.4702 -0.3083
  706MOL0     O97349   7.360   4.525   0.880  0.0312  0.1312  0.0897
  706MOL0     C97350   7.261   4.592   0.800  0.0861  0.6120 -0.3268
  706MOL0     C97351   7.203   4.490   0.699 -0.3826 -0.7991  0.4052
  706MOL0     C97352   7.105   4.392   0.760 -0.4252  0.4171  0.3779
  706MOL0     C97353   6.960   4.439   0.757  0.6181  0.3674  0.2005
  706MOL0     C97354   6.940   4.517   0.881 -0.9485  0.0860 -0.3565
  706MOL0     C97355   6.937   4.568   0.991 -0.4275 -1.0290  0.6804
  706MOL0     C97356   7.567   4.432   0.919  0.5214  0.1420  0.2550
  706MOL0     C97357   7.692   4.386   0.890  0.3907 -1.4716  0.6624
  706MOL0     C97358   7.773   4.336   1.002  0.2118 -0.6597  0.3170
  706MOL0     H97359   8.087   4.576   0.470  1.9017  1.5620  0.5135
  706MOL0     H97360   8.307   4.540   0.362  0.4062 -1.8224 -1.4269
  706MOL0     H97361   8.426   4.095   0.362  0.0478 -0.5682 -1.5883
  706MOL0     H97362   8.550   4.194   0.440 -0.7071  1.7312 -0.6022
  706MOL0     H97363   8.624   4.063   0.231  1.9159  0.8893  1.0068
  706MOL0     H97364   8.519   4.155   0.131  3.5148 -1.2549 -2.2683
  706MOL0     H97365   8.611   4.374   0.203  5.0358  3.8532  0.9471
  706MOL0     H97366   8.737   4.306   0.284  1.6011  0.8441 -1.0674
  706MOL0     H97367   8.842   4.213   0.091 -0.8066 -1.5951 -1.1536
  706MOL0     H97368   8.699   4.228  -0.011 -2.1794 -1.1649  3.0926
  706MOL0     H97369   8.689   4.462   0.022 -2.8823 -2.8973  3.2657
  706MOL0     H97370   8.839   4.400  -0.064  1.1667  0.3361 -0.2641
  706MOL0     H97371   8.850   4.480   0.226  1.2140 -0.0125  0.2621
  706MOL0     H97372   8.986   4.448   0.116  0.3217 -1.4267  1.8191
  706MOL0     H97373   8.790   4.684   0.076 -0.6035  0.5999  1.0785
  706MOL0     H97374   8.942   4.658  -0.017 -0.8659  0.7615 -0.3907
  706MOL0     H97375   8.916   4.745   0.291  1.5111  0.2932  1.3278
  706MOL0     H97376   9.049   4.660   0.236 -1.1721 -0.0246  0.5371
  706MOL0     H97377   9.107   4.913   0.335  1.9583 -3.1589 -0.4073
  706MOL0     H97378   9.186   5.170   0.299  0.3966  0.1106 -0.1513
  706MOL0     H97379   9.183   5.257   0.145  0.4722 -0.2782 -1.3409
  706MOL0     H97380   9.417   5.232   0.197 -1.2832  0.8937  1.1550
  706MOL0     H97381   9.396   5.062   0.225  1.0740  0.9925 -0.4342
  706MOL0     H97382   9.401   5.009   0.007  2.1649 -0.3609  0.1474
  706MOL0     H97383   9.313   5.148  -0.047 -1.5643  0.2857  1.9316
  706MOL0     H97384   9.562   5.133  -0.134 -1.5104 -1.5940 -0.3489
  706MOL0     H97385   9.552   5.268  -0.015 -0.9099 -1.3260  0.2911
  706MOL0     H97386   9.753   5.310  -0.098 -0.1985  1.2684  2.8774
  706MOL0     H97387  10.104   5.382  -0.183  0.3791  2.2639  1.7829
  706MOL0     H97388   9.988   5.469  -0.075  0.7260 -1.2520  1.9686
  706MOL0     H97389   9.947   5.413  -0.233  1.9458  1.8705 -0.2803
  706MOL0     H97390  10.481   5.253  -0.126 -2.6248 -0.3921  0.3386
  706MOL0     H97391  10.706   5.228  -0.121 -0.6154  1.3126  0.9124
  706MOL0     H97392  10.929   5.132  -0.162  2.8346  1.6078  0.6557
  706MOL0     H97393  10.977   5.141  -0.001 -2.9715  1.4848 -0.5564
  706MOL0     H97394  11.036   4.917  -0.211  1.0205  0.8404  0.1970
  706MOL0     H97395  11.156   5.028  -0.163 -0.9383  0.8517 -0.0727
  706MOL0     H97396  11.020   4.808  -0.015  0.0342 -0.1901  2.4582
  706MOL0     H97397  11.126   4.919   0.079  0.5940 -2.5202  1.1729
  706MOL0     H97398  11.269   4.714   0.006  1.0976  1.1787 -0.7999
  706MOL0     H97399  11.326   4.876  -0.044  3.1526 -1.5575 -1.6233
  706MOL0     H97400  11.197   4.645  -0.199  0.2046 -0.0460 -0.6143
  706MOL0     H97401  11.204   4.811  -0.268  0.6805 -1.4556 -1.5803
  706MOL0     H97402  11.446   4.667  -0.157 -2.3758  1.3192  2.3694
  706MOL0     H97403  11.444   4.805  -0.258  1.4716 -0.2337 -1.3291
  706MOL0     H97404  11.339   4.536  -0.360  1.7059 -1.9167 -0.9919
  706MOL0     H97405  11.508   4.575  -0.355  0.5660  1.2872 -0.2027
  706MOL0     H97406  11.423   4.616  -0.587  2.1297  0.2562 -0.4525
  706MOL0     H97407  11.456   4.778  -0.512  0.8196 -1.1572 -1.9655
  706MOL0     H97408  10.653   4.824   0.051 -1.5588 -0.7839  0.0038
  706MOL0     H97409  10.418   4.861   0.041 -1.1059 -1.0144 -1.9526
  706MOL0     H97410  10.057   5.006   0.124 -1.2376 -0.1103  0.4124
  706MOL0     H97411   9.831   4.970   0.125 -0.1511  0.0247 -0.5755
  706MOL0     H97412   8.303   4.139   0.535  1.5997 -0.5686  0.2588
  706MOL0     H97413   8.107   4.185   0.646  0.9713  0.3764  0.3496
  706MOL0     H97414   7.713   4.469   0.563  1.1243 -0.5671  0.2818
  706MOL0     H97415   7.470   4.575   0.631 -0.6721 -1.6945 -1.6320
  706MOL0     H97416   7.186   4.645   0.860 -1.3616 -2.3321  0.6338
  706MOL0     H97417   7.309   4.677   0.750  2.4443  1.3717  2.8649
  706MOL0     H97418   7.285   4.436   0.650 -0.4047 -1.5477  1.1762
  706MOL0     H97419   7.150   4.544   0.619  0.7157 -0.1421  0.0976
  706MOL0     H97420   7.117   4.302   0.699  0.7556  1.0103 -0.3032
  706MOL0     H97421   7.135   4.359   0.860 -0.1563 -1.7828 -0.3705
  706MOL0     H97422   6.900   4.347   0.753  2.9333 -1.3570  2.2122
  706MOL0     H97423   6.930   4.504   0.674  2.2113 -0.5024 -1.1031
  706MOL0     H97424   6.934   4.606   1.091  0.5818  0.7431  0.0853
  706MOL0     H97425   7.530   4.423   1.021 -1.5398 -2.2282 -0.5820
  706MOL0     H97426   7.830   4.420   1.042  1.1568 -1.6147  1.0063
  706MOL0     H97427   7.714   4.294   1.085  0.3165 -0.5667  0.4376
  706MOL0     H97428   7.837   4.253   0.972  0.3048 -0.3623 -0.3236
  707MOL0     O97429   1.044  11.134   6.853  0.3692 -0.3181  0.0684
  707MOL0     C97430   1.035  11.246   6.895 -0.1180  0.4270 -0.2129
  707MOL0     O97431   0.917  11.305   6.928 -0.1896  0.1494 -0.2435
  707MOL0     C97432   0.812  11.224   6.952  0.3982  0.1347  0.0647
  707MOL0     C97433   0.812  11.151   7.068 -0.0032  0.3112 -0.3933
  707MOL0     C97434   0.701  11.088   7.108  0.2663 -0.1085  0.4269
  707MOL0     C97435   0.582  11.093   7.038 -0.4836  0.5443  0.4948
  707MOL0     O97436   0.474  11.022   7.086  0.0212  0.2585  0.4923
  707MOL0     C97437   0.341  11.055   7.035 -0.3354 -0.9930  0.0009
  707MOL0     C97438   0.245  11.020   7.148 -0.3729  0.7607 -0.3876
  707MOL0     C97439   0.107  11.020   7.092  0.0748  0.3348  0.1027
  707MOL0     C97440   0.059  11.161   7.051  0.1469  0.0469  0.3791
  707MOL0     C97441  -0.094  11.163   7.055  0.4839  0.5323 -1.4750
  707MOL0     C97442  -0.160  11.130   6.922  0.1105  0.8234 -0.6532
  707MOL0     C97443  -0.316  11.113   6.920  0.9122  0.2589 -1.2263
  707MOL0     C97444  -0.366  10.994   7.016 -0.1282 -0.3667 -0.1053
  707MOL0     N97445  -0.514  10.991   7.027 -0.1119  0.1352  0.0018
  707MOL0     C97446  -0.596  10.967   6.915  0.9194 -0.1460 -0.4348
  707MOL0     C97447  -0.716  10.946   6.971  0.0164 -0.2390  0.2636
  707MOL0     C97448  -0.841  10.916   6.891  0.0962 -0.0148  0.6746
  707MOL0     C97449  -0.975  10.961   6.969  0.2124 -0.3290  1.0262
  707MOL0     C97450  -1.107  10.935   6.894 -0.1305 -0.5504 -0.6282
  707MOL0     C97451  -1.235  10.910   6.987  1.0110  0.4095  0.1699
  707MOL0     O97452  -1.345  10.849   6.907  0.0218 -0.0619  0.2223
  707MOL0     C97453  -1.471  10.822   6.951  0.9104  0.9358 -0.0564
  707MOL0     C97454  -1.564  10.759   6.867 -0.1391 -0.2570  0.5440
  707MOL0     C97455  -1.691  10.735   6.900 -0.1319 -0.3848 -0.8659
  707MOL0     C97456  -1.774  10.658   6.801  0.6266  0.8501  0.3484
  707MOL0     C97457  -1.742  10.776   7.028 -0.6978 -0.4191 -0.7500
  707MOL0     C97458  -1.880  10.737   7.076  1.1092  0.3065  0.3348
  707MOL0     O97459  -1.951  10.825   7.149  0.3688 -0.3444  0.4420
  707MOL0     C97460  -2.077  10.816   7.217 -0.8841 -0.2397 -0.0091
  707MOL0     C97461  -2.192  10.742   7.161 -0.2037  0.1345 -1.2266
  707MOL0     C97462  -2.303  10.702   7.240  0.1529 -0.3616  0.4051
  707MOL0     C97463  -2.315  10.754   7.370 -0.4286 -0.5281 -0.0048
  707MOL0     O97464  -2.411  10.706   7.453  0.0008  0.0425 -0.0069
  707MOL0     C97465  -2.473  10.784   7.555 -0.4478  0.1193 -0.8106
  707MOL0     C97466  -2.605  10.727   7.597  0.3337 -0.5609 -0.0342
  707MOL0     C97467  -2.661  10.794   7.725 -0.5859  0.1545  0.9423
  707MOL0     C97468  -2.771  10.716   7.802 -0.2892  0.1899  0.7228
  707MOL0     C97469  -2.820  10.805   7.913  0.3650  1.2411  1.2657
  707MOL0     C97470  -2.715  10.824   8.023 -0.4100 -0.3161 -0.2286
  707MOL0     C97471  -2.671  10.687   8.077  0.2605 -0.3014 -0.3017
  707MOL0     C97472  -2.622  10.714   8.223 -0.4040  0.2760 -0.3816
  707MOL0    Cl97473  -2.474  10.820   8.226 -0.0427  0.1483  0.1020
  707MOL0     C97474  -2.215  10.851   7.416 -0.3173 -1.2391 -0.4833
  707MOL0     C97475  -2.099  10.880   7.339  1.1743  0.0561 -0.5091
  707MOL0     O97476  -1.917  10.620   7.058  0.6189 -0.8389  0.0815
  707MOL0     C97477  -1.658  10.842   7.116  0.5519  0.2509  0.4511
  707MOL0     C97478  -1.529  10.865   7.076 -0.4249 -0.4681 -0.3073
  707MOL0     N97479  -0.705  10.951   7.109  0.8860 -0.6181 -0.3581
  707MOL0     N97480  -0.589  10.978   7.141  0.3688 -0.7767  0.4771
  707MOL0     C97481   0.583  11.162   6.919  1.0900  0.1123  0.0234
  707MOL0     C97482   0.696  11.227   6.874 -0.1449 -0.2291  0.0579
  707MOL0     C97483   1.163  11.324   6.936 -0.4796 -0.4939  0.2644
  707MOL0     C97484   1.135  11.456   6.973  0.0225  0.0367 -0.2234
  707MOL0     C97485   1.236  11.544   7.025 -0.0676  0.3348  0.3839
  707MOL0     C97486   1.366  11.498   7.042  0.3189  0.5687 -0.1038
  707MOL0     O97487   1.466  11.575   7.094 -0.1827 -0.2920 -0.1014
  707MOL0     C97488   1.519  11.658   6.987  0.6218 -0.8889 -0.3758
  707MOL0     C97489   1.520  11.810   7.024  0.0645 -0.3563 -0.6469
  707MOL0     C97490   1.581  11.884   6.908  1.0547  0.3850  0.8138
  707MOL0     C97491   1.574  12.028   6.938 -0.1340  0.5140  0.4730
  707MOL0     C97492   1.674  12.050   7.040  0.5335  0.1284  0.5360
  707MOL0     C97493   1.753  12.069   7.127  0.6206  0.6303 -0.0287
  707MOL0     C97494   1.392  11.366   7.000 -0.5179  0.0911 -0.9965
  707MOL0     C97495   1.298  11.281   6.945 -0.5689  0.2723 -0.1583
  707MOL0     C97496   1.346  11.140   6.906 -0.1970 -0.6576 -0.6092
  707MOL0     H97497   0.893  11.161   7.139 -1.2130 -0.8710  1.2201
  707MOL0     H97498   0.708  11.014   7.187  0.7454 -0.6875 -0.1560
  707MOL0     H97499   0.308  11.000   6.946 -1.2256 -1.6672  0.7175
  707MOL0     H97500   0.331  11.162   7.014 -0.1536 -0.6710  1.4461
  707MOL0     H97501   0.260  10.925   7.200 -3.0316  0.0431 -0.7559
  707MOL0     H97502   0.253  11.095   7.228  1.1958 -0.3366  0.5518
  707MOL0     H97503   0.105  10.949   7.009  1.0565  0.8851 -0.4067
  707MOL0     H97504   0.054  10.976   7.177  0.2110  0.3103  0.1759
  707MOL0     H97505   0.103  11.226   7.127  0.2986  0.5207 -0.1128
  707MOL0     H97506   0.101  11.188   6.954  0.0154 -0.3204  0.2176
  707MOL0     H97507  -0.121  11.266   7.080 -0.6878 -0.1813  0.3896
  707MOL0     H97508  -0.138  11.103   7.135 -0.3962  0.8054 -1.7440
  707MOL0     H97509  -0.128  11.199   6.845  5.2555 -0.0149  0.3483
  707MOL0     H97510  -0.105  11.041   6.889  2.2077  1.5042  0.7505
  707MOL0     H97511  -0.350  11.097   6.817 -2.0485  3.8623 -0.9973
  707MOL0     H97512  -0.359  11.210   6.944  1.9343  1.0329 -2.4250
  707MOL0     H97513  -0.333  10.903   6.965 -2.2123 -1.3874  0.2748
  707MOL0     H97514  -0.325  11.010   7.116  2.4261 -1.3644 -0.9160
  707MOL0     H97515  -0.573  10.973   6.809 -0.1257  0.7400 -0.6389
  707MOL0     H97516  -0.841  10.809   6.870  1.3079  0.1648 -0.3877
  707MOL0     H97517  -0.852  10.969   6.796 -0.2427 -0.7823  0.2766
  707MOL0     H97518  -0.974  10.889   7.052  3.2672 -2.8594 -0.9826
  707MOL0     H97519  -0.967  11.063   7.006  2.1898  0.5235 -1.5151
  707MOL0     H97520  -1.119  11.009   6.815 -2.8643 -2.5156 -2.2600
  707MOL0     H97521  -1.099  10.843   6.836  0.7585 -1.0944  0.3308
  707MOL0     H97522  -1.205  10.851   7.074 -0.3503  0.6546  0.8230
  707MOL0     H97523  -1.266  11.006   7.028 -0.4700  0.2351 -0.4715
  707MOL0     H97524  -1.531  10.725   6.769  0.0301  4.6755 -1.4048
  707MOL0     H97525  -1.802  10.564   6.850 -0.7492  1.1601  0.1954
  707MOL0     H97526  -1.726  10.647   6.703 -1.0499 -0.0105 -0.4255
  707MOL0     H97527  -1.871  10.707   6.784 -0.6389 -1.6449 -0.1705
  707MOL0     H97528  -2.189  10.709   7.057  2.4130 -0.7680 -0.9543
  707MOL0     H97529  -2.378  10.631   7.206 -0.4872  0.8230 -0.7255
  707MOL0     H97530  -2.409  10.788   7.644 -1.5236  1.5353 -0.0620
  707MOL0     H97531  -2.495  10.886   7.521 -2.8415  1.0433  2.9079
  707MOL0     H97532  -2.679  10.739   7.518  4.5573  1.9212 -4.1312
  707MOL0     H97533  -2.604  10.618   7.610 -4.0766 -0.9859 -1.6091
  707MOL0     H97534  -2.707  10.885   7.687 -2.4765 -0.9922  0.3120
  707MOL0     H97535  -2.582  10.817   7.797 -1.3769  3.4773  0.8731
  707MOL0     H97536  -2.736  10.617   7.831 -0.2608 -1.0839 -3.2235
  707MOL0     H97537  -2.854  10.701   7.733  0.1365  1.1474 -0.0220
  707MOL0     H97538  -2.839  10.904   7.872 -1.0963 -0.4343 -2.5413
  707MOL0     H97539  -2.913  10.766   7.955 -0.8144  0.4570 -1.8005
  707MOL0     H97540  -2.775  10.882   8.094  1.4889  1.4509  0.0120
  707MOL0     H97541  -2.628  10.880   7.988 -0.9454  0.3309 -0.5503
  707MOL0     H97542  -2.591  10.640   8.020  0.4589  0.1647 -0.4139
  707MOL0     H97543  -2.763  10.628   8.082 -0.3156  0.6876  2.5010
  707MOL0     H97544  -2.622  10.618   8.275 -4.6204  1.8299  3.1261
  707MOL0     H97545  -2.705  10.768   8.271 -0.0734 -0.4410  1.0298
  707MOL0     H97546  -2.210  10.909   7.508 -0.7905 -2.8905  0.6332
  707MOL0     H97547  -2.031  10.949   7.388  1.5070 -2.1147  2.2812
  707MOL0     H97548  -1.683  10.896   7.207  0.5333  2.4155 -0.7643
  707MOL0     H97549  -1.465  10.916   7.148 -0.8541 -1.2202  0.6261
  707MOL0     H97550   0.489  11.155   6.866  0.0888 -0.3394  1.7640
  707MOL0     H97551   0.691  11.280   6.779  2.0584  1.4539  0.7902
  707MOL0     H97552   1.041  11.510   6.983  1.9643  3.9382 -1.2435
  707MOL0     H97553   1.218  11.637   7.079  1.4778  0.8815 -0.0040
  707MOL0     H97554   1.621  11.621   6.975  0.7752 -1.4031  1.9289
  707MOL0     H97555   1.463  11.654   6.893 -0.5781  1.4260  0.1798
  707MOL0     H97556   1.589  11.831   7.106  1.5381 -4.0423 -0.7063
  707MOL0     H97557   1.419  11.842   7.048  0.0898 -0.6089 -0.1970
  707MOL0     H97558   1.680  11.854   6.872 -0.6193 -1.0178 -3.1191
  707MOL0     H97559   1.520  11.858   6.821  2.2057 -1.9231  0.6228
  707MOL0     H97560   1.473  12.064   6.961  0.6357  3.5174 -0.4394
  707MOL0     H97561   1.608  12.076   6.846  0.7703  1.7314  1.4286
  707MOL0     H97562   1.823  12.078   7.208 -1.4059 -0.6386  1.9794
  707MOL0     H97563   1.497  11.340   7.011 -0.4668  1.5427  4.5670
  707MOL0     H97564   1.301  11.111   6.811 -0.2178  0.8495 -1.0835
  707MOL0     H97565   1.455  11.131   6.897 -0.2737 -0.6299 -1.7657
  707MOL0     H97566   1.304  11.075   6.984  2.2390 -0.2758  1.1413
  708MOL0     O97567   3.496   0.684   9.600  0.0997 -0.0821 -0.1221
  708MOL0     C97568   3.534   0.576   9.552 -0.0057 -1.1568  0.8206
  708MOL0     O97569   3.649   0.514   9.592 -0.1477 -0.6645 -0.1912
  708MOL0     C97570   3.728   0.559   9.699  0.0558  0.3591 -0.4913
  708MOL0     C97571   3.816   0.670   9.685 -0.6957 -0.3216 -0.1281
  708MOL0     C97572   3.890   0.709   9.799 -0.5153  1.0919  1.0965
  708MOL0     C97573   3.874   0.653   9.917  0.8739 -0.2280 -0.5007
  708MOL0     O97574   3.940   0.709  10.027 -0.5031  0.1591 -0.6751
  708MOL0     C97575   3.950   0.642  10.153  0.1800 -0.3277  0.2620
  708MOL0     C97576   4.045   0.717  10.250 -0.6330  0.1291 -0.1938
  708MOL0     C97577   4.101   0.616  10.343 -0.2655 -0.6008 -0.3435
  708MOL0     C97578   4.009   0.572  10.454  0.1185 -0.0988  1.0502
  708MOL0     C97579   4.100   0.549  10.583  0.5441 -0.2443 -0.2893
  708MOL0     C97580   4.020   0.442  10.670 -0.5935 -0.1491  0.7586
  708MOL0     C97581   4.089   0.414  10.803  0.0443  0.2082 -0.4659
  708MOL0     C97582   4.018   0.299  10.866 -0.3504 -0.8810  0.2139
  708MOL0     N97583   4.048   0.281  11.011  0.3068  0.0031  0.4038
  708MOL0     C97584   3.953   0.263  11.105  0.5671 -0.4870 -0.0697
  708MOL0     C97585   4.015   0.268  11.224 -0.8022  0.8552  0.8019
  708MOL0     C97586   3.967   0.233  11.361  0.1178  0.3424 -0.2401
  708MOL0     C97587   4.086   0.234  11.467  0.1684  0.3210 -0.3850
  708MOL0     C97588   4.034   0.203  11.609  0.0404  0.0228 -0.3075
  708MOL0     C97589   4.147   0.187  11.715  0.1778 -0.3323  0.3846
  708MOL0     O97590   4.189   0.316  11.752 -0.1586 -0.3831 -0.2734
  708MOL0     C97591   4.303   0.323  11.825 -0.5230  0.1988  0.3941
  708MOL0     C97592   4.420   0.251  11.784  0.2014 -0.0071 -0.7256
  708MOL0     C97593   4.542   0.256  11.849 -0.3223  0.2581  0.2041
  708MOL0     C97594   4.656   0.177  11.775 -0.2192  0.4303 -0.5193
  708MOL0     C97595   4.564   0.351  11.950 -0.0424 -0.1177 -0.3094
  708MOL0     C97596   4.695   0.365  12.021 -0.3850  0.2666 -0.6685
  708MOL0     O97597   4.783   0.253  12.024 -0.3159  0.0024 -0.0757
  708MOL0     C97598   4.912   0.247  12.079 -0.5359  0.5161 -1.2485
  708MOL0     C97599   4.955   0.313  12.192  0.5074  0.0635 -0.9720
  708MOL0     C97600   5.081   0.287  12.249  0.1699 -0.1136 -0.4356
  708MOL0     C97601   5.164   0.190  12.194 -1.2219 -0.1619 -0.0651
  708MOL0     O97602   5.277   0.170  12.270  0.2190 -0.0549  0.1850
  708MOL0     C97603   5.388   0.100  12.203 -0.3568  0.9959  0.5130
  708MOL0     C97604   5.497   0.074  12.323 -0.9502  0.7192 -0.6214
  708MOL0     C97605   5.629   0.038  12.246 -0.4323  0.6941 -0.4555
  708MOL0     C97606   5.747   0.001  12.339 -1.1044 -0.3831 -0.9533
  708MOL0     C97607   5.880  -0.031  12.260 -0.3342  0.2041  0.0411
  708MOL0     C97608   5.999  -0.047  12.367  0.5767  0.0606 -0.0351
  708MOL0     C97609   6.134  -0.017  12.308 -0.0268 -0.3579  0.4602
  708MOL0     C97610   6.250  -0.100  12.362 -0.1280  0.2116 -0.0023
  708MOL0    Cl97611   6.244  -0.114  12.543 -0.1542 -0.1439 -0.1079
  708MOL0     C97612   5.126   0.130  12.076 -0.3591 -0.6336 -0.6220
  708MOL0     C97613   4.998   0.162  12.011  0.2554 -0.6185 -0.8101
  708MOL0     O97614   4.728   0.474  12.077 -0.1717 -0.2218 -0.0031
  708MOL0     C97615   4.451   0.433  11.985 -0.6646 -1.1843 -0.3170
  708MOL0     C97616   4.319   0.409  11.932  0.5904 -0.6322  0.2361
  708MOL0     N97617   4.150   0.292  11.193 -0.0372 -0.0722 -0.6199
  708MOL0     N97618   4.161   0.315  11.075  0.8733  0.2940 -0.2301
  708MOL0     C97619   3.780   0.545   9.935  0.2311  0.1174  0.1902
  708MOL0     C97620   3.707   0.496   9.823 -0.6810 -0.5928 -0.9536
  708MOL0     C97621   3.436   0.526   9.452 -0.4158 -0.3242 -0.5917
  708MOL0     C97622   3.329   0.618   9.419 -1.1359  0.9625 -0.6563
  708MOL0     C97623   3.216   0.564   9.348  0.1754  1.0582  0.5396
  708MOL0     C97624   3.224   0.434   9.294 -0.2176  0.1090 -0.9555
  708MOL0     O97625   3.132   0.379   9.216 -0.6154 -0.2499  0.4024
  708MOL0     C97626   3.100   0.433   9.087  0.2571 -0.0910 -0.3582
  708MOL0     C97627   3.124   0.332   8.977 -0.7458 -0.4866 -0.8329
  708MOL0     C97628   3.052   0.364   8.843 -0.2011  0.3376  0.1041
  708MOL0     C97629   3.126   0.307   8.717 -0.2484  0.6475  0.6998
  708MOL0     C97630   3.235   0.389   8.665  0.9501 -0.3693  0.2588
  708MOL0     C97631   3.336   0.453   8.633 -0.0165  0.8960  0.0457
  708MOL0     C97632   3.336   0.352   9.324  0.2533 -0.0410  0.7118
  708MOL0     C97633   3.434   0.390   9.416 -0.1881 -0.9438  0.0484
  708MOL0     C97634   3.529   0.281   9.454  0.4936 -0.6055 -0.2390
  708MOL0     H97635   3.825   0.712   9.585  1.7989  3.0549  1.3560
  708MOL0     H97636   3.955   0.796   9.804  0.0443  0.7316  0.2869
  708MOL0     H97637   3.989   0.542  10.131  1.2761 -0.3472  2.0631
  708MOL0     H97638   3.853   0.628  10.202 -1.0165  0.0778 -1.8831
  708MOL0     H97639   4.137   0.752  10.203 -3.5740  2.7721 -4.6776
  708MOL0     H97640   3.999   0.797  10.308 -1.2409 -1.5287  1.7117
  708MOL0     H97641   4.131   0.530  10.283  3.4023  0.7235 -0.6843
  708MOL0     H97642   4.193   0.657  10.386  0.6894 -1.3891 -1.5726
  708MOL0     H97643   3.933   0.650  10.467  0.7543  0.6321  0.4601
  708MOL0     H97644   3.965   0.477  10.422  1.2034 -0.2277 -0.1367
  708MOL0     H97645   4.109   0.647  10.630 -0.7373  1.6659 -3.6464
  708MOL0     H97646   4.199   0.510  10.558  1.8530  1.0185  2.5044
  708MOL0     H97647   3.919   0.480  10.688  0.0044  1.8411  0.1779
  708MOL0     H97648   4.011   0.351  10.611 -0.4887 -0.1199  0.6970
  708MOL0     H97649   4.065   0.503  10.860 -0.0950 -1.4485  2.2401
  708MOL0     H97650   4.197   0.396  10.801 -0.0382 -0.2499 -1.3271
  708MOL0     H97651   3.909   0.306  10.867 -0.3132  1.3029 -2.0226
  708MOL0     H97652   4.046   0.208  10.813 -0.3669  0.6390 -2.5727
  708MOL0     H97653   3.849   0.232  11.097 -0.8198  2.4925  3.4512
  708MOL0     H97654   3.929   0.131  11.366 -0.3142  0.5585  2.4323
  708MOL0     H97655   3.891   0.305  11.395 -0.4461 -0.9040  1.2737
  708MOL0     H97656   4.155   0.154  11.438 -0.9078 -1.0959  0.7981
  708MOL0     H97657   4.147   0.325  11.471 -0.2768  0.6579 -1.0093
  708MOL0     H97658   3.959   0.274  11.646 -0.3849  0.8982 -2.7075
  708MOL0     H97659   3.987   0.105  11.601  0.3550  0.0361 -4.3131
  708MOL0     H97660   4.120   0.133  11.806 -3.7733  2.5211  1.1561
  708MOL0     H97661   4.229   0.127  11.674  0.2953  0.3270 -0.3683
  708MOL0     H97662   4.410   0.187  11.697  1.8381 -0.4373 -0.6328
  708MOL0     H97663   4.622   0.166  11.671  0.6430 -0.3607 -0.7285
  708MOL0     H97664   4.672   0.077  11.816  0.0887  0.3794 -0.7638
  708MOL0     H97665   4.750   0.232  11.764  1.1241 -1.5176  0.6862
  708MOL0     H97666   4.897   0.389  12.243  1.6979  0.3027  0.0579
  708MOL0     H97667   5.126   0.336  12.335  0.7516 -1.2547 -0.0678
  708MOL0     H97668   5.380   0.004  12.150  2.8826  1.3711 -0.9165
  708MOL0     H97669   5.418   0.163  12.119 -3.1430 -0.9730 -2.1890
  708MOL0     H97670   5.514   0.163  12.384 -0.4164 -0.0401  0.3713
  708MOL0     H97671   5.472  -0.011  12.388  1.4308 -0.8166 -1.5816
  708MOL0     H97672   5.668   0.119  12.184 -1.0463  0.1397 -1.5826
  708MOL0     H97673   5.612  -0.045  12.177 -2.3039  1.0217 -0.4226
  708MOL0     H97674   5.724  -0.080  12.409 -3.5471  0.6787 -0.4247
  708MOL0     H97675   5.760   0.087  12.405  0.5055  0.2604 -2.0489
  708MOL0     H97676   5.868  -0.119  12.196  2.0374 -1.0513  1.1550
  708MOL0     H97677   5.904   0.047  12.188 -1.9910  1.5440  0.8902
  708MOL0     H97678   6.004  -0.149  12.408  4.7436 -0.8071 -2.1231
  708MOL0     H97679   5.984   0.013  12.457 -0.4138 -2.4419  1.5831
  708MOL0     H97680   6.157   0.087  12.334  1.5253 -0.6717  0.4137
  708MOL0     H97681   6.135  -0.025  12.199  2.5509  1.3388  0.2831
  708MOL0     H97682   6.340  -0.040  12.348  1.3274 -1.7384  0.5634
  708MOL0     H97683   6.257  -0.203  12.325 -0.9912 -1.1836  3.3724
  708MOL0     H97684   5.191   0.057  12.030 -1.8705 -1.8572 -0.8931
  708MOL0     H97685   4.973   0.126  11.912 -0.9806 -1.5946 -0.1673
  708MOL0     H97686   4.452   0.511  12.061 -0.5296 -2.0743  0.6167
  708MOL0     H97687   4.232   0.465  11.965  1.3846  0.0894  1.1908
  708MOL0     H97688   3.784   0.505  10.036 -3.0349  1.1186  0.8483
  708MOL0     H97689   3.637   0.414   9.833 -1.6698 -0.2995 -4.3827
  708MOL0     H97690   3.346   0.723   9.441  2.8881  0.5917 -1.2546
  708MOL0     H97691   3.134   0.628   9.317 -0.3532  0.1238 -0.0763
  708MOL0     H97692   2.995   0.464   9.088 -0.3123 -1.8591  1.6895
  708MOL0     H97693   3.162   0.521   9.069  1.0245  0.2801  3.3207
  708MOL0     H97694   3.091   0.233   9.010  1.8781 -0.5847  1.8285
  708MOL0     H97695   3.229   0.325   8.947 -1.2368 -0.5436 -2.6682
  708MOL0     H97696   2.953   0.318   8.840 -0.9248  1.8874 -1.0112
  708MOL0     H97697   3.034   0.471   8.836  0.7105  0.4614 -0.6257
  708MOL0     H97698   3.046   0.310   8.643 -0.9186  0.0495  1.3876
  708MOL0     H97699   3.166   0.206   8.727 -0.4520  0.5211  0.2391
  708MOL0     H97700   3.423   0.506   8.598  1.1179  0.3771  1.9026
  708MOL0     H97701   3.354   0.255   9.279 -2.1309 -0.8975  1.4644
  708MOL0     H97702   3.600   0.275   9.371 -1.1663  2.0917 -2.0181
  708MOL0     H97703   3.564   0.286   9.557  2.3448  0.0462 -0.8485
  708MOL0     H97704   3.470   0.189   9.451 -3.2087  1.5485  0.2512
  709MOL0     O97705   5.707   8.482   6.728 -0.3582  0.0078 -0.5226
  709MOL0     C97706   5.719   8.569   6.812 -1.0805 -0.3036 -0.1998
  709MOL0     O97707   5.833   8.647   6.833 -0.7679  0.0130  0.1312
  709MOL0     C97708   5.940   8.655   6.743 -0.6959 -0.4325 -0.5620
  709MOL0     C97709   6.066   8.703   6.790  0.5441  0.4024 -0.9126
  709MOL0     C97710   6.172   8.728   6.702 -0.6210  0.4110  0.9758
  709MOL0     C97711   6.172   8.687   6.569  1.3009  0.2372  0.2891
  709MOL0     O97712   6.277   8.708   6.492  0.2042 -0.0431  0.2307
  709MOL0     C97713   6.388   8.632   6.528 -0.7962 -0.0672 -0.2734
  709MOL0     C97714   6.486   8.640   6.408  0.1268 -0.0842  1.0726
  709MOL0     C97715   6.533   8.781   6.379 -0.6284  0.8206 -0.0131
  709MOL0     C97716   6.607   8.777   6.246  0.1341  1.3228 -0.3409
  709MOL0     C97717   6.643   8.914   6.187 -0.0376  0.1927 -0.0785
  709MOL0     C97718   6.701   9.012   6.292  1.0059 -0.4052 -0.0282
  709MOL0     C97719   6.753   9.134   6.224  0.6754 -0.5410  0.8572
  709MOL0     C97720   6.815   9.234   6.323 -0.1048 -0.2748 -0.1073
  709MOL0     N97721   6.929   9.175   6.393 -0.7040  0.3286  0.2507
  709MOL0     C97722   6.955   9.183   6.528 -0.6990  0.0706 -0.3090
  709MOL0     C97723   7.080   9.132   6.547  0.2280 -0.8075 -0.2466
  709MOL0     C97724   7.132   9.094   6.686  0.3892 -0.6848 -0.1860
  709MOL0     C97725   7.253   9.181   6.728 -0.4291 -0.8016  0.2668
  709MOL0     C97726   7.206   9.322   6.766  0.1447 -0.1541 -0.5227
  709MOL0     C97727   7.103   9.332   6.884 -0.3310  0.5539  0.4010
  709MOL0     O97728   7.152   9.244   6.985  0.3329  0.5257 -0.0971
  709MOL0     C97729   7.254   9.277   7.072 -0.2161 -0.2031 -1.1044
  709MOL0     C97730   7.344   9.388   7.065 -0.3770  0.1424  1.5892
  709MOL0     C97731   7.448   9.412   7.155 -0.3238  0.4335  0.1998
  709MOL0     C97732   7.548   9.521   7.118  0.2963  0.3453 -0.1004
  709MOL0     C97733   7.479   9.321   7.260  0.3438  0.0761 -0.1345
  709MOL0     C97734   7.602   9.329   7.341 -0.4194 -0.2682 -0.0424
  709MOL0     O97735   7.639   9.212   7.396  0.7229  0.0234  0.5109
  709MOL0     C97736   7.740   9.217   7.491  0.0050 -0.2854  0.6220
  709MOL0     C97737   7.832   9.115   7.495  0.1877  0.2576 -1.1469
  709MOL0     C97738   7.923   9.107   7.600  0.0120 -0.0810  0.2903
  709MOL0     C97739   7.917   9.192   7.716  0.1838  0.0083  1.2799
  709MOL0     O97740   8.009   9.167   7.812 -0.4088  0.0811 -0.2671
  709MOL0     C97741   8.043   9.272   7.901  0.5564  0.2490  0.3680
  709MOL0     C97742   8.154   9.219   8.003 -0.3898  0.0260  0.5823
  709MOL0     C97743   8.115   9.075   8.043  0.4701 -0.2948  0.1528
  709MOL0     C97744   8.201   9.030   8.159  0.0467 -0.2291  0.3932
  709MOL0     C97745   8.167   8.879   8.191  0.7161  0.0328  0.3320
  709MOL0     C97746   8.239   8.802   8.308  0.5683  0.6330 -0.0668
  709MOL0     C97747   8.183   8.819   8.443  0.6247 -0.5114  0.0512
  709MOL0     C97748   8.222   8.732   8.560 -0.5403 -1.1861  0.8901
  709MOL0    Cl97749   8.388   8.771   8.616  0.3513  0.0503 -0.3353
  709MOL0     C97750   7.820   9.297   7.712  0.2202  0.7249  0.1763
  709MOL0     C97751   7.732   9.293   7.606  0.1045 -0.2911 -0.7774
  709MOL0     O97752   7.663   9.437   7.350  0.5643  0.0229  0.1905
  709MOL0     C97753   7.396   9.211   7.267  0.7445 -0.3305  0.2023
  709MOL0     C97754   7.283   9.193   7.180 -0.0942  0.6182  0.8315
  709MOL0     N97755   7.132   9.096   6.419  0.2440 -0.1003 -0.2636
  709MOL0     N97756   7.046   9.132   6.330 -0.1286 -1.0569  0.1136
  709MOL0     C97757   6.049   8.640   6.517  0.3571  0.5523 -0.4077
  709MOL0     C97758   5.939   8.627   6.604 -0.0975  0.3546  0.2051
  709MOL0     C97759   5.602   8.587   6.897 -0.0119  0.2993 -0.7047
  709MOL0     C97760   5.481   8.588   6.834 -0.9740 -0.6705  0.3943
  709MOL0     C97761   5.368   8.613   6.900 -1.0283 -0.1935 -0.2462
  709MOL0     C97762   5.367   8.650   7.030 -0.0596  0.5012 -0.2519
  709MOL0     O97763   5.248   8.691   7.078 -0.2257  0.3105  0.3567
  709MOL0     C97764   5.252   8.815   7.151  0.2664  0.6378  0.5744
  709MOL0     C97765   5.105   8.866   7.167 -0.3056  0.5122  0.5906
  709MOL0     C97766   5.020   8.790   7.271 -0.7422  0.2027  0.2244
  709MOL0     C97767   4.889   8.855   7.306 -0.1074 -0.5113  0.2156
  709MOL0     C97768   4.926   8.977   7.386  0.6108  0.3769 -0.1891
  709MOL0     C97769   4.929   9.078   7.451 -0.2529 -0.5202  0.0234
  709MOL0     C97770   5.488   8.667   7.101  0.3515  0.2688  1.3980
  709MOL0     C97771   5.609   8.631   7.035  0.0007 -0.0733  0.0803
  709MOL0     C97772   5.739   8.663   7.097 -0.7655 -0.0451 -0.9596
  709MOL0     H97773   6.086   8.749   6.886  1.7003 -0.4792 -0.7120
  709MOL0     H97774   6.269   8.763   6.735  1.0379 -0.0433 -2.9759
  709MOL0     H97775   6.374   8.528   6.556 -0.3433  0.3991  1.9198
  709MOL0     H97776   6.439   8.681   6.612  2.0084 -1.1226 -1.2711
  709MOL0     H97777   6.571   8.572   6.421 -0.7734 -1.3633  0.4601
  709MOL0     H97778   6.444   8.600   6.315  1.9581  2.1610 -0.8240
  709MOL0     H97779   6.455   8.858   6.378 -2.2000 -0.6848  1.4364
  709MOL0     H97780   6.607   8.806   6.455  0.5068 -0.0419 -0.7976
  709MOL0     H97781   6.693   8.710   6.253 -0.4144  0.6231 -0.1832
  709MOL0     H97782   6.535   8.738   6.173  0.7804  1.7012 -1.1895
  709MOL0     H97783   6.544   8.959   6.173  0.0389  1.0208  1.7216
  709MOL0     H97784   6.712   8.905   6.102  1.2158 -0.6315  0.9997
  709MOL0     H97785   6.623   9.044   6.362  0.5034 -0.6724 -0.4576
  709MOL0     H97786   6.773   8.959   6.354  1.8077  0.2396 -0.3838
  709MOL0     H97787   6.665   9.183   6.181 -1.7277 -1.5358  4.2363
  709MOL0     H97788   6.830   9.102   6.154 -0.6546 -1.3682 -0.2775
  709MOL0     H97789   6.846   9.329   6.280  1.2995 -0.6355  0.0697
  709MOL0     H97790   6.728   9.256   6.386 -0.4798 -1.8233 -0.0377
  709MOL0     H97791   6.894   9.212   6.613  0.8761  1.6036  0.3782
  709MOL0     H97792   7.160   8.989   6.686 -1.8693 -1.3572 -0.6892
  709MOL0     H97793   7.051   9.082   6.759 -0.8601 -2.4716 -1.7467
  709MOL0     H97794   7.301   9.131   6.813  0.7811  0.6218  0.4774
  709MOL0     H97795   7.326   9.190   6.647  0.3503  0.4230  1.0549
  709MOL0     H97796   7.301   9.365   6.797  0.2148 -1.8052  1.8263
  709MOL0     H97797   7.170   9.380   6.680  0.7104  0.4627 -0.3481
  709MOL0     H97798   7.102   9.437   6.914 -0.1135  0.1737  1.8017
  709MOL0     H97799   6.999   9.310   6.857 -0.8683  4.4619 -1.3684
  709MOL0     H97800   7.327   9.458   6.984 -1.6811 -2.4016 -0.4729
  709MOL0     H97801   7.499   9.593   7.052  1.6420  2.4962  1.1142
  709MOL0     H97802   7.642   9.482   7.075 -0.1215 -3.7049  2.1585
  709MOL0     H97803   7.590   9.585   7.196  2.2466 -1.1295  0.1586
  709MOL0     H97804   7.838   9.050   7.408  0.8473 -0.6934 -0.4186
  709MOL0     H97805   8.004   9.034   7.607 -1.0586 -1.3713 -0.2486
  709MOL0     H97806   8.088   9.357   7.848  1.6570 -2.2052 -3.0282
  709MOL0     H97807   7.959   9.297   7.966  0.6176 -3.5941  2.1757
  709MOL0     H97808   8.257   9.222   7.964  0.2122 -1.0256  2.0296
  709MOL0     H97809   8.152   9.287   8.088  0.1070  1.1045 -0.2325
  709MOL0     H97810   8.115   9.006   7.958  1.1359 -0.2564  0.1148
  709MOL0     H97811   8.011   9.072   8.074 -0.2453 -2.0001 -2.0781
  709MOL0     H97812   8.193   9.095   8.247 -0.6835 -1.5279  1.3187
  709MOL0     H97813   8.305   9.040   8.128 -0.7489  1.9614 -1.8842
  709MOL0     H97814   8.062   8.887   8.222 -0.4501  1.1129 -3.4248
  709MOL0     H97815   8.179   8.823   8.098  0.4448  1.9095 -0.8863
  709MOL0     H97816   8.346   8.822   8.320  1.4090 -2.1960 -1.9681
  709MOL0     H97817   8.237   8.697   8.280  0.5952  1.2466 -2.5339
  709MOL0     H97818   8.074   8.826   8.439  0.6800 -0.2337 -2.5737
  709MOL0     H97819   8.210   8.921   8.473  0.9607 -1.1434  2.0314
  709MOL0     H97820   8.228   8.627   8.530  0.9145 -1.2880  1.4404
  709MOL0     H97821   8.159   8.757   8.646  0.9527  2.1181  1.2038
  709MOL0     H97822   7.795   9.367   7.791  2.8008  0.2783  1.4963
  709MOL0     H97823   7.646   9.359   7.596 -0.2188 -0.7441 -1.0064
  709MOL0     H97824   7.423   9.134   7.338  3.6359  0.2382 -0.1851
  709MOL0     H97825   7.228   9.099   7.179  0.0797  0.4941 -1.1825
  709MOL0     H97826   6.039   8.608   6.414 -1.3433  2.4958 -0.8992
  709MOL0     H97827   5.841   8.591   6.575  0.0808  0.6775 -0.8157
  709MOL0     H97828   5.472   8.567   6.728 -2.3238  2.2465 -0.1498
  709MOL0     H97829   5.280   8.595   6.840 -1.0842 -1.9803  0.3208
  709MOL0     H97830   5.287   8.805   7.254  2.5464 -1.0066 -0.2886
  709MOL0     H97831   5.313   8.895   7.107 -0.9929  1.5047  0.3531
  709MOL0     H97832   5.063   8.870   7.066  0.3044 -0.6871  0.2731
  709MOL0     H97833   5.108   8.969   7.203  0.6675 -0.6229  4.0471
  709MOL0     H97834   4.985   8.698   7.224 -0.2114 -0.5798  1.3108
  709MOL0     H97835   5.089   8.770   7.354 -3.4563  1.2796  2.9549
  709MOL0     H97836   4.818   8.790   7.358  0.8552 -0.6335  1.4131
  709MOL0     H97837   4.846   8.891   7.212 -0.9226  2.4706  1.6264
  709MOL0     H97838   4.917   9.167   7.508 -0.9568 -1.3783  1.2667
  709MOL0     H97839   5.482   8.698   7.204 -1.6247 -0.8271  1.6532
  709MOL0     H97840   5.738   8.671   7.206 -0.7403  1.4649 -1.0382
  709MOL0     H97841   5.810   8.586   7.066 -0.4560  1.0093 -3.1058
  709MOL0     H97842   5.766   8.762   7.057 -1.7428  1.1160  1.1021
  710MOL0     O97843   3.117   4.357   2.556  0.0092  0.3623  0.6229
  710MOL0     C97844   3.008   4.297   2.588  0.2771  0.2133  0.6695
  710MOL0     O97845   2.943   4.212   2.506 -0.1156  0.1210  0.6512
  710MOL0     C97846   3.006   4.159   2.392 -0.2324  0.1456 -0.2001
  710MOL0     C97847   3.115   4.067   2.405  0.5270 -0.9818 -0.7653
  710MOL0     C97848   3.178   4.017   2.293 -0.2884  0.8977 -0.5362
  710MOL0     C97849   3.138   4.045   2.161 -0.6463  0.2570  0.0630
  710MOL0     O97850   3.192   3.984   2.045  0.3891 -0.6868  0.1582
  710MOL0     C97851   3.251   3.854   2.045 -1.4672  0.3564  0.5680
  710MOL0     C97852   3.394   3.850   2.057 -0.2368 -0.2265  0.6929
  710MOL0     C97853   3.462   3.907   1.931 -0.2418  0.0048 -0.3298
  710MOL0     C97854   3.611   3.859   1.917  0.0211 -1.0839  0.1991
  710MOL0     C97855   3.707   3.964   1.850 -0.1231 -0.2562 -0.0657
  710MOL0     C97856   3.681   3.996   1.703 -0.5158  0.4216 -0.6795
  710MOL0     C97857   3.763   4.108   1.639 -1.0073  0.0771  0.5493
  710MOL0     C97858   3.733   4.130   1.495  0.5401 -0.3696  0.0076
  710MOL0     N97859   3.776   4.252   1.421 -0.6123  0.4648  0.9987
  710MOL0     C97860   3.908   4.308   1.419  0.2334  0.1954  0.6353
  710MOL0     C97861   3.900   4.421   1.348  0.2328 -0.4716 -0.8578
  710MOL0     C97862   4.007   4.528   1.334  0.6912  1.0179  0.4192
  710MOL0     C97863   4.089   4.511   1.212  0.0008  0.2451 -0.4514
  710MOL0     C97864   4.165   4.639   1.177 -0.0971 -0.1310  0.5068
  710MOL0     C97865   4.251   4.635   1.060  0.6488  0.2185  0.5528
  710MOL0     O97866   4.358   4.549   1.096  0.1316  0.1770 -0.4554
  710MOL0     C97867   4.446   4.516   0.996 -0.0032 -0.4521 -0.6298
  710MOL0     C97868   4.464   4.577   0.869  0.0559  1.0376  0.3343
  710MOL0     C97869   4.557   4.525   0.782  0.8087 -0.0286  0.2918
  710MOL0     C97870   4.559   4.578   0.648 -0.5477 -0.3011  0.2637
  710MOL0     C97871   4.653   4.432   0.817 -0.0088  0.1429  0.5450
  710MOL0     C97872   4.768   4.391   0.734 -0.9547 -0.6525 -0.2552
  710MOL0     O97873   4.871   4.336   0.807  0.8706  0.2676  0.1092
  710MOL0     C97874   4.981   4.290   0.732 -0.2794  0.2401  0.2868
  710MOL0     C97875   5.068   4.385   0.690  0.4774  0.2079 -0.3995
  710MOL0     C97876   5.184   4.352   0.619 -0.5162  0.0952  0.6701
  710MOL0     C97877   5.217   4.220   0.593 -0.3057  0.6432 -0.1119
  710MOL0     O97878   5.341   4.194   0.525 -0.0759 -0.0160  0.0821
  710MOL0     C97879   5.407   4.071   0.562 -0.2718 -0.3985 -0.2360
  710MOL0     C97880   5.559   4.079   0.537  0.6938  0.0019  0.4481
  710MOL0     C97881   5.595   4.061   0.386 -0.1807 -0.6643 -0.3677
  710MOL0     C97882   5.744   4.063   0.361  0.0588 -0.3103 -0.9475
  710MOL0     C97883   5.786   4.044   0.213  0.4424  0.2808  0.5196
  710MOL0     C97884   5.947   4.046   0.206 -1.2175  0.7082 -0.2841
  710MOL0     C97885   6.007   4.050   0.066 -0.0899  1.0028 -0.9392
  710MOL0     C97886   5.975   4.174  -0.016  0.2650 -0.2642  1.7273
  710MOL0    Cl97887   6.020   4.324   0.065 -0.5115 -0.3775 -0.5649
  710MOL0     C97888   5.131   4.120   0.636 -0.3423 -0.1447 -0.1386
  710MOL0     C97889   5.017   4.156   0.701  0.0926  0.1043  0.1949
  710MOL0     O97890   4.778   4.419   0.617 -0.3746 -0.9977 -0.0616
  710MOL0     C97891   4.638   4.376   0.940  0.6312 -0.5933  0.7668
  710MOL0     C97892   4.531   4.410   1.025  1.0833 -0.3805 -0.0743
  710MOL0     N97893   3.772   4.427   1.296 -0.3058 -0.5345 -0.5555
  710MOL0     N97894   3.693   4.340   1.346 -0.2890 -0.2852  0.8954
  710MOL0     C97895   3.031   4.138   2.148 -1.0773 -0.2838 -0.1371
  710MOL0     C97896   2.967   4.196   2.258 -0.2464  0.6071 -0.5461
  710MOL0     C97897   2.975   4.298   2.732  1.6092 -0.3692 -0.5949
  710MOL0     C97898   3.079   4.330   2.822 -0.1422 -0.0586  1.1957
  710MOL0     C97899   3.063   4.318   2.958  0.6788 -0.8342 -0.2107
  710MOL0     C97900   2.937   4.288   3.017  0.2911  0.6532 -0.4506
  710MOL0     O97901   2.918   4.289   3.150 -0.0696 -0.1832 -0.2632
  710MOL0     C97902   3.031   4.285   3.240 -0.0994 -0.1483 -1.1507
  710MOL0     C97903   2.977   4.248   3.376  1.3864  0.3677 -0.0765
  710MOL0     C97904   3.075   4.165   3.463  0.9160  0.8115 -0.7232
  710MOL0     C97905   3.179   4.253   3.530  0.1042 -0.0917 -0.6738
  710MOL0     C97906   3.222   4.190   3.654  1.0542  0.1359  0.3817
  710MOL0     C97907   3.260   4.151   3.762  0.0188 -0.0316  0.1903
  710MOL0     C97908   2.828   4.276   2.934 -0.7130  0.1608  0.1394
  710MOL0     C97909   2.843   4.269   2.794 -0.9736 -0.5589  0.5550
  710MOL0     C97910   2.716   4.245   2.718 -0.0583 -0.4565  0.3657
  710MOL0     H97911   3.140   4.042   2.508  0.1654  1.6159  0.0206
  710MOL0     H97912   3.259   3.946   2.305 -2.1875 -0.9864  2.1510
  710MOL0     H97913   3.244   3.791   1.957  4.4226 -3.8650  2.4710
  710MOL0     H97914   3.209   3.788   2.121  0.0609 -1.0245  0.2535
  710MOL0     H97915   3.428   3.895   2.151  0.9395 -1.8568  1.0905
  710MOL0     H97916   3.422   3.745   2.061  0.6177  0.0315  2.9051
  710MOL0     H97917   3.417   3.871   1.838  1.3126  0.0152 -1.1222
  710MOL0     H97918   3.463   4.016   1.940  0.1357 -0.0528  0.4335
  710MOL0     H97919   3.651   3.851   2.019  1.4236  0.9614 -0.1351
  710MOL0     H97920   3.618   3.755   1.883 -2.3060 -0.5836 -2.1575
  710MOL0     H97921   3.808   3.928   1.872  0.3366  1.6508  1.1906
  710MOL0     H97922   3.693   4.059   1.904  1.9232 -1.5087  2.9484
  710MOL0     H97923   3.718   3.901   1.661  1.8899 -1.7061  5.2559
  710MOL0     H97924   3.579   4.025   1.677  0.0553  1.2620 -2.0679
  710MOL0     H97925   3.872   4.096   1.634 -1.1266 -1.8713 -5.6291
  710MOL0     H97926   3.733   4.201   1.688 -2.6115 -0.2707  0.2866
  710MOL0     H97927   3.768   4.037   1.448  0.8165 -0.8835  1.1866
  710MOL0     H97928   3.625   4.128   1.480  0.8342 -1.4774 -2.4986
  710MOL0     H97929   3.996   4.270   1.471  0.2897 -1.1808 -0.3905
  710MOL0     H97930   4.070   4.541   1.423 -1.4400  0.9943  2.0405
  710MOL0     H97931   3.959   4.626   1.328 -0.2050  0.4995 -2.1139
  710MOL0     H97932   4.148   4.419   1.220 -2.0402 -0.9706  2.9091
  710MOL0     H97933   4.020   4.489   1.130  0.4292 -3.7898  0.0554
  710MOL0     H97934   4.103   4.727   1.156  0.3354  0.4044  1.3976
  710MOL0     H97935   4.227   4.672   1.261  0.1635  1.9045 -0.4285
  710MOL0     H97936   4.199   4.590   0.975  0.5217  2.3359 -0.5689
  710MOL0     H97937   4.290   4.734   1.034  0.9185 -0.6480 -2.9206
  710MOL0     H97938   4.394   4.656   0.842 -0.5316  1.4881  2.9246
  710MOL0     H97939   4.644   4.646   0.635  0.1035 -0.6877  2.2271
  710MOL0     H97940   4.465   4.632   0.630 -0.9088 -0.5227  1.4402
  710MOL0     H97941   4.574   4.500   0.573 -0.2848  1.5154 -1.6880
  710MOL0     H97942   5.039   4.488   0.711 -1.6003 -0.4858  0.3622
  710MOL0     H97943   5.236   4.435   0.572  1.3182 -2.9441 -3.1069
  710MOL0     H97944   5.391   4.043   0.667 -1.1520 -0.1679 -0.3034
  710MOL0     H97945   5.367   3.985   0.508 -0.6655  0.2348 -0.9547
  710MOL0     H97946   5.590   4.175   0.578  0.6567  1.8416 -3.4215
  710MOL0     H97947   5.604   4.004   0.603 -1.6139 -4.4253 -2.5119
  710MOL0     H97948   5.556   4.149   0.334  3.1346  1.2847  0.1771
  710MOL0     H97949   5.556   3.969   0.343 -3.5800 -0.3581  1.6920
  710MOL0     H97950   5.797   3.981   0.411  3.4045  2.4230  0.4300
  710MOL0     H97951   5.791   4.155   0.395  1.4065 -1.4330  0.3758
  710MOL0     H97952   5.733   3.954   0.181 -0.9821 -0.3038  4.1085
  710MOL0     H97953   5.749   4.132   0.160  3.1275  0.3599 -1.4784
  710MOL0     H97954   5.993   3.964   0.261  0.4745  2.1957  0.6467
  710MOL0     H97955   5.984   4.132   0.263  0.9291  0.0385 -0.5764
  710MOL0     H97956   5.968   3.970   0.002 -0.8634  1.7969 -1.4913
  710MOL0     H97957   6.116   4.040   0.075 -0.4601 -3.3294  1.3862
  710MOL0     H97958   5.870   4.167  -0.045  0.2839  2.1673  0.8661
  710MOL0     H97959   6.028   4.162  -0.111 -2.5032 -1.7012  0.2391
  710MOL0     H97960   5.154   4.017   0.608 -0.0190  0.5882 -2.8652
  710MOL0     H97961   4.950   4.079   0.737 -1.3218  0.7261 -0.9738
  710MOL0     H97962   4.714   4.301   0.960  0.0953 -2.5129 -3.3416
  710MOL0     H97963   4.523   4.362   1.123  2.8325  3.5939  2.2893
  710MOL0     H97964   3.013   4.164   2.044  2.7370 -0.5577 -1.0226
  710MOL0     H97965   2.891   4.273   2.245 -0.7562  0.2785  0.4215
  710MOL0     H97966   3.177   4.364   2.790 -1.4802  2.4277 -0.5880
  710MOL0     H97967   3.140   4.348   3.029  0.1677 -0.0272  0.0176
  710MOL0     H97968   3.114   4.217   3.215  0.6653 -0.5332  2.0068
  710MOL0     H97969   3.086   4.379   3.232  0.3309 -0.2762  0.1727
  710MOL0     H97970   2.880   4.203   3.352  2.0849  0.2093 -2.8755
  710MOL0     H97971   2.952   4.343   3.424  1.9145  0.9376 -0.9250
  710MOL0     H97972   3.013   4.119   3.541  1.3423 -1.4157 -1.6269
  710MOL0     H97973   3.120   4.081   3.410  0.8208  0.5387 -0.3767
  710MOL0     H97974   3.148   4.357   3.549  1.2723  0.5154 -1.9354
  710MOL0     H97975   3.265   4.281   3.470  1.0879  2.2170  1.5949
  710MOL0     H97976   3.285   4.106   3.856 -0.7829 -2.5065 -0.7084
  710MOL0     H97977   2.730   4.252   2.974  0.1104 -3.5039  0.3174
  710MOL0     H97978   2.729   4.238   2.610  0.2775 -4.7431  0.5093
  710MOL0     H97979   2.651   4.165   2.756 -3.4898  1.4431 -1.0533
  710MOL0     H97980   2.647   4.329   2.730 -0.6475 -0.5242 -2.0903
  711MOL0     O97981   9.665  10.681  11.436  0.3938 -0.4933 -0.2704
  711MOL0     C97982   9.686  10.803  11.415  0.4070  0.5579  0.7686
  711MOL0     O97983   9.713  10.900  11.509  0.8043  0.4352  0.7083
  711MOL0     C97984   9.682  10.863  11.637  0.6792  0.3100 -0.0268
  711MOL0     C97985   9.585  10.936  11.703 -0.5877 -0.8696  0.4726
  711MOL0     C97986   9.568  10.920  11.838 -0.0575  0.2445 -0.0150
  711MOL0     C97987   9.660  10.835  11.909 -0.2015  0.0772  0.1463
  711MOL0     O97988   9.657  10.834  12.044  0.4166  0.1256 -0.0485
  711MOL0     C97989   9.621  10.698  12.097  0.4495 -0.3737 -0.5837
  711MOL0     C97990   9.601  10.713  12.252 -0.7839 -0.8900  0.3857
  711MOL0     C97991   9.724  10.721  12.338 -1.6358  0.5138  0.2817
  711MOL0     C97992   9.702  10.760  12.482  0.2888  0.7392  0.9763
  711MOL0     C97993   9.663  10.640  12.566 -0.4043 -0.1000  0.7688
  711MOL0     C97994   9.601  10.693  12.705 -0.2221  0.6511 -0.9209
  711MOL0     C97995   9.713  10.763  12.786 -0.1076 -0.0615  0.1732
  711MOL0     C97996   9.642  10.828  12.903 -0.2768  0.3569  0.8523
  711MOL0     N97997   9.719  10.883  13.016 -0.0807 -0.0691 -0.8044
  711MOL0     C97998   9.816  10.814  13.082 -0.1082  0.2477  0.4128
  711MOL0     C97999   9.857  10.902  13.180 -0.0612 -0.4601  0.3571
  711MOL0     C98000   9.963  10.864  13.277 -0.4717 -0.2708 -0.0871
  711MOL0     C98001  10.098  10.816  13.213 -0.1425 -0.3241  0.2113
  711MOL0     C98002  10.184  10.914  13.136  0.1848 -0.3018  0.7275
  711MOL0     C98003  10.180  10.854  12.986  0.0322 -0.0567 -0.2276
  711MOL0     O98004  10.253  10.941  12.895  0.1479  0.2427  0.7885
  711MOL0     C98005  10.388  10.940  12.915 -1.0238 -0.2236  0.2335
  711MOL0     C98006  10.446  11.069  12.937 -0.8436  0.1659 -0.3607
  711MOL0     C98007  10.584  11.094  12.949  0.4804  0.0240 -1.0027
  711MOL0     C98008  10.628  11.230  12.983  0.0454  0.1601 -0.0527
  711MOL0     C98009  10.674  10.982  12.946  0.0434  0.3793 -0.9108
  711MOL0     C98010  10.826  10.989  12.980  1.0769  1.5679  0.1001
  711MOL0     O98011  10.886  10.866  12.973  0.5820  0.6000  0.0427
  711MOL0     C98012  11.024  10.857  12.974 -0.9828 -0.3418  0.2878
  711MOL0     C98013  11.088  10.770  13.060 -0.6139 -0.8705 -0.1515
  711MOL0     C98014  11.226  10.771  13.061  0.1411  0.3261 -0.6399
  711MOL0     C98015  11.298  10.838  12.969 -0.2930 -0.8288 -0.3853
  711MOL0     O98016  11.435  10.846  12.990  0.3928 -0.3925  0.1273
  711MOL0     C98017  11.517  10.879  12.876 -0.0256 -0.5737  1.0031
  711MOL0     C98018  11.664  10.848  12.923  0.0162  0.6094  0.4216
  711MOL0     C98019  11.750  10.899  12.810 -0.4957  0.2415 -0.2419
  711MOL0     C98020  11.900  10.898  12.835  0.0190  0.2332 -0.4015
  711MOL0     C98021  11.966  10.759  12.874  0.5263  0.6926  0.0494
  711MOL0     C98022  11.927  10.655  12.766 -0.3521  0.1879  0.1084
  711MOL0     C98023  12.009  10.523  12.784 -0.4655 -0.0102 -0.2842
  711MOL0     C98024  11.965  10.409  12.690  0.0453  0.4975  0.2532
  711MOL0    Cl98025  11.949  10.466  12.517  0.0433 -0.4016  0.3007
  711MOL0     C98026  11.238  10.918  12.871  0.3915  1.0263 -0.5786
  711MOL0     C98027  11.096  10.925  12.874  0.7486 -0.1990  0.4618
  711MOL0     O98028  10.885  11.098  12.989 -0.1160  0.1216 -0.6417
  711MOL0     C98029  10.614  10.854  12.929 -0.1727  0.1287 -0.4025
  711MOL0     C98030  10.478  10.837  12.895 -0.5809  0.1894 -0.8795
  711MOL0     N98031   9.795  11.020  13.163 -0.1061 -0.2125  0.8489
  711MOL0     N98032   9.715  11.009  13.069 -0.0498  0.1472  0.4928
  711MOL0     C98033   9.757  10.762  11.844 -0.3953 -0.7620 -1.1214
  711MOL0     C98034   9.768  10.778  11.708  0.3791  0.2197  0.3748
  711MOL0     C98035   9.692  10.835  11.269 -0.5523  0.0748 -0.3942
  711MOL0     C98036   9.668  10.731  11.170  0.0140  1.1942  0.2246
  711MOL0     C98037   9.670  10.770  11.033 -0.1513  0.2902  0.1532
  711MOL0     C98038   9.705  10.898  10.986 -0.7515 -0.1482 -0.6363
  711MOL0     O98039   9.715  10.927  10.853 -0.0157 -0.8458  0.0206
  711MOL0     C98040   9.730  11.065  10.809  0.4918  0.2140 -1.2536
  711MOL0     C98041   9.672  11.071  10.668 -0.5471  0.0088  0.0427
  711MOL0     C98042   9.732  10.968  10.573 -0.0695  0.8199 -0.4958
  711MOL0     C98043   9.877  10.997  10.529  0.5392 -0.2174  0.2677
  711MOL0     C98044   9.965  10.905  10.599  0.1649 -0.7210 -0.1647
  711MOL0     C98045  10.037  10.842  10.674 -0.2263  0.1018 -1.0734
  711MOL0     C98046   9.735  10.986  11.089 -0.2831 -0.1360  0.5558
  711MOL0     C98047   9.732  10.961  11.224  0.0350  0.0711 -0.4335
  711MOL0     C98048   9.793  11.066  11.310  0.0635  0.2866  0.2000
  711MOL0     H98049   9.527  11.002  11.639 -1.9769 -1.1239  1.4219
  711MOL0     H98050   9.486  10.967  11.891  1.0631  0.3405  1.6994
  711MOL0     H98051   9.692  10.621  12.065  0.9563  0.0298 -0.4548
  711MOL0     H98052   9.523  10.671  12.057 -0.5305 -2.2108  2.7100
  711MOL0     H98053   9.544  10.802  12.279  1.8380  0.4039  1.9619
  711MOL0     H98054   9.547  10.619  12.268 -1.1001 -0.8142 -0.1880
  711MOL0     H98055   9.787  10.633  12.329  2.9591  3.6005 -1.0370
  711MOL0     H98056   9.785  10.803  12.299  0.8791 -1.3016  0.1542
  711MOL0     H98057   9.796  10.801  12.519  2.7628 -3.4417 -0.0726
  711MOL0     H98058   9.620  10.831  12.496 -1.5495 -0.8048 -1.1095
  711MOL0     H98059   9.752  10.576  12.576  0.1945  0.0247 -2.7394
  711MOL0     H98060   9.579  10.581  12.530  1.0498 -2.4309  0.9569
  711MOL0     H98061   9.513  10.756  12.688 -0.6992  0.8272  1.7739
  711MOL0     H98062   9.567  10.607  12.764  1.6439 -0.1114 -0.8798
  711MOL0     H98063   9.769  10.833  12.724  1.1548 -2.7388 -1.9101
  711MOL0     H98064   9.789  10.689  12.810  0.0447  0.1045  0.2115
  711MOL0     H98065   9.575  10.906  12.867 -2.4587 -0.2876  3.2230
  711MOL0     H98066   9.582  10.750  12.952 -2.4227  2.3114  1.5065
  711MOL0     H98067   9.845  10.710  13.070 -1.4931 -0.1209  0.1061
  711MOL0     H98068   9.928  10.788  13.348 -3.3407  0.6506 -0.3830
  711MOL0     H98069   9.975  10.954  13.338 -2.6331  1.6334 -2.2323
  711MOL0     H98070  10.157  10.790  13.302 -1.4599 -0.1017  1.1807
  711MOL0     H98071  10.065  10.722  13.166 -1.9918 -0.8710  2.4196
  711MOL0     H98072  10.140  11.014  13.142 -2.2533 -0.8947 -3.4476
  711MOL0     H98073  10.289  10.910  13.167  1.4526  1.2656 -2.8309
  711MOL0     H98074  10.218  10.752  12.985 -1.1889 -0.5209 -0.5843
  711MOL0     H98075  10.078  10.849  12.947 -0.1730 -2.3630  0.4771
  711MOL0     H98076  10.373  11.146  12.962 -2.9660 -1.5436 -0.9607
  711MOL0     H98077  10.686  11.223  13.076 -1.0840 -2.8894  0.5435
  711MOL0     H98078  10.550  11.306  12.992  0.4219  0.7191 -1.3264
  711MOL0     H98079  10.696  11.280  12.913  0.4631  2.0345  1.5934
  711MOL0     H98080  11.028  10.712  13.129  0.8892  0.3956  2.3583
  711MOL0     H98081  11.271  10.699  13.129 -1.3822  0.9624  1.1129
  711MOL0     H98082  11.501  10.804  12.797 -0.8609 -1.9649  2.4443
  711MOL0     H98083  11.496  10.981  12.843 -0.4549 -0.6248  1.1058
  711MOL0     H98084  11.687  10.888  13.022 -0.3665  0.8145  0.4325
  711MOL0     H98085  11.665  10.739  12.928 -0.2839  0.5751 -0.1486
  711MOL0     H98086  11.723  11.005  12.812  1.7545  0.8769 -0.5370
  711MOL0     H98087  11.727  10.857  12.712  4.0452  1.5400 -2.1608
  711MOL0     H98088  11.918  10.966  12.919 -2.3197  0.6387 -0.1643
  711MOL0     H98089  11.947  10.948  12.750 -1.0387 -1.1624 -1.8495
  711MOL0     H98090  12.073  10.779  12.889  0.1777  1.3030  1.9173
  711MOL0     H98091  11.926  10.722  12.969  0.8603 -1.8182 -0.7113
  711MOL0     H98092  11.933  10.701  12.668  1.9621  1.4786  0.7743
  711MOL0     H98093  11.821  10.629  12.773 -0.0588 -0.5985  2.8704
  711MOL0     H98094  12.011  10.483  12.886 -2.5719 -0.6157 -0.4182
  711MOL0     H98095  12.108  10.565  12.763 -0.4972  2.5330  3.5718
  711MOL0     H98096  11.863  10.374  12.709  0.6848 -1.0644  0.9865
  711MOL0     H98097  12.034  10.325  12.701 -2.6202 -2.1138 -1.5925
  711MOL0     H98098  11.293  10.979  12.800  1.9374 -1.0694 -1.2525
  711MOL0     H98099  11.056  10.996  12.802 -1.0496 -1.3726  0.2344
  711MOL0     H98100  10.667  10.760  12.937 -0.5787  0.0609  3.1262
  711MOL0     H98101  10.432  10.740  12.881 -0.2523 -0.2082  0.5686
  711MOL0     H98102   9.825  10.704  11.906  0.6506 -0.5021 -1.9762
  711MOL0     H98103   9.844  10.722  11.654  1.4484  2.1688 -0.2563
  711MOL0     H98104   9.665  10.623  11.185 -1.3752  1.1634 -0.1321
  711MOL0     H98105   9.660  10.688  10.962 -0.0818 -0.3724  0.8879
  711MOL0     H98106   9.671  11.126  10.878  0.3166 -2.5729  1.2673
  711MOL0     H98107   9.836  11.090  10.814  0.7425 -0.9840  0.3113
  711MOL0     H98108   9.676  11.169  10.620  0.6881 -0.0612 -0.0300
  711MOL0     H98109   9.570  11.040  10.693 -1.0422  1.7967  0.3390
  711MOL0     H98110   9.723  10.863  10.603 -3.1520  1.7518  2.4855
  711MOL0     H98111   9.675  10.980  10.480  2.2163  1.9319 -1.8203
  711MOL0     H98112   9.911  11.099  10.551 -1.6995  0.1210  2.7725
  711MOL0     H98113   9.888  10.975  10.422 -2.0989  0.4989 -0.2265
  711MOL0     H98114  10.110  10.785  10.729 -1.0707  0.1661  0.1508
  711MOL0     H98115   9.756  11.087  11.056 -0.3613  0.6184  2.6567
  711MOL0     H98116   9.812  11.160  11.257 -2.1869  0.0030 -1.2794
  711MOL0     H98117   9.712  11.092  11.379 -1.3726 -0.9326 -0.9448
  711MOL0     H98118   9.879  11.019  11.357  0.1799 -0.0915 -0.3803
  712MOL0     O98119  11.328   5.694   1.231 -0.5440 -0.1882  0.2757
  712MOL0     C98120  11.220   5.735   1.281 -0.6130  0.0227 -0.7053
  712MOL0     O98121  11.199   5.751   1.413 -0.5480 -0.1763 -0.3153
  712MOL0     C98122  11.307   5.730   1.491  0.2735  0.4616 -1.0467
  712MOL0     C98123  11.396   5.819   1.559 -0.7207 -1.5275 -0.0432
  712MOL0     C98124  11.501   5.768   1.643  0.1058  0.0872  0.5252
  712MOL0     C98125  11.509   5.628   1.667  0.1287 -0.2765 -0.0980
  712MOL0     O98126  11.619   5.586   1.744  0.0286  0.2083 -0.0123
  712MOL0     C98127  11.615   5.459   1.819  0.0320 -0.9527  0.7128
  712MOL0     C98128  11.723   5.355   1.785  0.5777 -0.8506 -0.8557
  712MOL0     C98129  11.870   5.415   1.811 -0.5453 -1.1329  0.5877
  712MOL0     C98130  11.976   5.300   1.813 -0.8601  0.0902 -0.6781
  712MOL0     C98131  12.120   5.343   1.783  0.0267  0.6343 -0.4387
  712MOL0     C98132  12.170   5.442   1.882  0.4302  0.9325 -0.2638
  712MOL0     C98133  12.247   5.368   1.988 -0.6041 -0.3110 -0.1451
  712MOL0     C98134  12.386   5.319   1.928  0.1702  0.1199  0.0947
  712MOL0     N98135  12.483   5.293   2.039  0.0395  1.1567  0.0574
  712MOL0     C98136  12.567   5.190   2.037 -0.0983 -0.4232 -0.1632
  712MOL0     C98137  12.668   5.221   2.126  0.6839  0.1180  0.2414
  712MOL0     C98138  12.791   5.142   2.150 -0.4909  0.2143 -0.4378
  712MOL0     C98139  12.918   5.181   2.056 -0.5305 -0.1506  0.3171
  712MOL0     C98140  12.975   5.314   2.114  0.9213 -0.4679  0.6062
  712MOL0     C98141  13.091   5.355   2.024 -1.1296 -0.2993 -0.5498
  712MOL0     O98142  13.209   5.271   2.034  0.6772 -0.6108 -0.7074
  712MOL0     C98143  13.310   5.286   2.128  0.1895 -0.1307 -0.4315
  712MOL0     C98144  13.420   5.205   2.117 -0.1001 -0.5691 -0.2301
  712MOL0     C98145  13.522   5.207   2.217  0.4499 -0.6726  0.6065
  712MOL0     C98146  13.644   5.122   2.176  0.5486 -0.4960  0.6151
  712MOL0     C98147  13.502   5.268   2.339 -1.0899  0.2228  0.0714
  712MOL0     C98148  13.583   5.248   2.458 -1.0240  0.2082  0.4412
  712MOL0     O98149  13.577   5.332   2.561  0.9401  0.8570  0.6423
  712MOL0     C98150  13.657   5.315   2.671  0.5071  0.6569 -0.2331
  712MOL0     C98151  13.764   5.401   2.697 -0.1099  0.4502 -0.3874
  712MOL0     C98152  13.848   5.377   2.809 -0.1014 -0.0594  0.2782
  712MOL0     C98153  13.833   5.265   2.891  0.7404  0.4675  0.2225
  712MOL0     O98154  13.930   5.250   2.984 -0.0354  0.6268  0.2609
  712MOL0     C98155  13.923   5.134   3.074  0.3963 -0.0570 -0.9618
  712MOL0     C98156  14.063   5.132   3.141 -0.2733  1.3327 -0.1021
  712MOL0     C98157  14.065   5.232   3.249  0.2405  0.5734  0.3893
  712MOL0     C98158  14.209   5.256   3.307  0.0444  0.4647  0.5804
  712MOL0     C98159  14.306   5.322   3.204  0.3128 -1.6877  0.6400
  712MOL0     C98160  14.414   5.396   3.282 -0.7186 -0.9720  0.5700
  712MOL0     C98161  14.505   5.294   3.358  0.4578  0.4080 -0.4343
  712MOL0     C98162  14.629   5.364   3.420 -0.9542  0.2223 -0.4735
  712MOL0    Cl98163  14.613   5.522   3.506 -0.2036 -0.0769  0.2057
  712MOL0     C98164  13.721   5.183   2.868 -0.0577 -0.0477 -0.4686
  712MOL0     C98165  13.635   5.208   2.762 -0.2720 -0.3554  0.1607
  712MOL0     O98166  13.653   5.150   2.461  0.6557 -0.0247 -0.1880
  712MOL0     C98167  13.391   5.353   2.354 -0.5976  0.2222  0.4768
  712MOL0     C98168  13.293   5.354   2.253  0.6152 -1.2983 -0.2459
  712MOL0     N98169  12.633   5.339   2.179  0.6770  0.0374  0.2134
  712MOL0     N98170  12.536   5.387   2.120  0.0121  0.0429  0.5353
  712MOL0     C98171  11.406   5.547   1.620 -0.3993 -0.2291 -0.4584
  712MOL0     C98172  11.310   5.589   1.528  0.3567 -0.2553 -0.5284
  712MOL0     C98173  11.101   5.756   1.197 -0.2997  0.1286  0.2534
  712MOL0     C98174  10.975   5.756   1.257  0.1297  0.2126  0.0608
  712MOL0     C98175  10.852   5.763   1.192  0.0086 -0.7808  0.1509
  712MOL0     C98176  10.852   5.770   1.051 -0.6464 -0.2205  0.4992
  712MOL0     O98177  10.729   5.772   0.978  0.8589 -0.0896 -1.0449
  712MOL0     C98178  10.718   5.654   0.902  0.9700  0.0409  0.0703
  712MOL0     C98179  10.568   5.629   0.868  0.7380 -0.2013 -0.7553
  712MOL0     C98180  10.547   5.476   0.843  0.5015 -0.2239 -0.0069
  712MOL0     C98181  10.402   5.441   0.832  0.0693 -0.1590  0.0123
  712MOL0     C98182  10.405   5.299   0.806 -0.5076  0.3245 -0.2632
  712MOL0     C98183  10.408   5.176   0.794 -0.0593 -0.2770  0.3295
  712MOL0     C98184  10.973   5.772   0.981 -0.2004 -0.4376 -0.7636
  712MOL0     C98185  11.096   5.761   1.054  0.1952 -0.6349 -1.0429
  712MOL0     C98186  11.232   5.769   0.982 -0.2025 -0.1771  0.3638
  712MOL0     H98187  11.394   5.926   1.540  1.4414 -1.5116 -0.4535
  712MOL0     H98188  11.586   5.829   1.673 -0.4793  2.6784 -2.6461
  712MOL0     H98189  11.518   5.408   1.813 -0.2272 -0.8167  2.9738
  712MOL0     H98190  11.626   5.492   1.923 -1.4607  0.8050  0.3699
  712MOL0     H98191  11.700   5.275   1.856 -2.4870  1.4790  1.0185
  712MOL0     H98192  11.705   5.330   1.680 -2.0859 -1.7580 -0.2513
  712MOL0     H98193  11.902   5.482   1.732  2.1951 -3.2846 -0.2863
  712MOL0     H98194  11.884   5.473   1.903 -1.8500  2.4347 -1.2887
  712MOL0     H98195  11.984   5.261   1.915 -1.3171  1.4871 -0.0753
  712MOL0     H98196  11.933   5.231   1.741 -0.4028 -0.0931 -0.7813
  712MOL0     H98197  12.123   5.391   1.685  2.6553 -3.0562 -2.4333
  712MOL0     H98198  12.188   5.259   1.764  1.2030  1.6005 -0.6590
  712MOL0     H98199  12.232   5.524   1.846 -2.1071  3.6046  0.9640
  712MOL0     H98200  12.108   5.518   1.932  4.8601  4.2427  0.7978
  712MOL0     H98201  12.186   5.281   2.013 -2.4857  0.3974 -1.9495
  712MOL0     H98202  12.267   5.436   2.072  4.0866 -0.2138 -1.0939
  712MOL0     H98203  12.384   5.244   1.848 -0.7588  0.7223 -0.4717
  712MOL0     H98204  12.426   5.406   1.876 -0.4121 -0.4207 -1.3109
  712MOL0     H98205  12.569   5.103   1.973 -1.0559 -1.7638  1.5428
  712MOL0     H98206  12.765   5.037   2.129 -1.9624  0.5499 -0.3809
  712MOL0     H98207  12.806   5.159   2.256 -1.9864 -4.2563  0.7185
  712MOL0     H98208  12.993   5.101   2.060  1.0633  1.3231  2.5873
  712MOL0     H98209  12.884   5.186   1.953  0.9517 -1.8670 -0.3011
  712MOL0     H98210  12.902   5.395   2.105 -2.0286 -3.0658 -0.8414
  712MOL0     H98211  13.008   5.301   2.218  0.6049  0.3649  0.8195
  712MOL0     H98212  13.066   5.364   1.917 -2.0861 -2.2011 -0.5398
  712MOL0     H98213  13.117   5.454   2.062 -0.4708 -1.3413  1.9074
  712MOL0     H98214  13.420   5.146   2.026  2.4421  1.2011 -1.5112
  712MOL0     H98215  13.723   5.196   2.194 -0.4597  0.1907  2.4228
  712MOL0     H98216  13.638   5.109   2.068  0.5730  1.8023  0.3032
  712MOL0     H98217  13.650   5.032   2.238 -4.8820 -0.7658  1.1996
  712MOL0     H98218  13.786   5.474   2.619 -1.3498 -2.2744 -3.5608
  712MOL0     H98219  13.932   5.445   2.817  1.6593 -2.0835 -0.3865
  712MOL0     H98220  13.848   5.151   3.152  2.1618 -2.8363  1.5374
  712MOL0     H98221  13.906   5.040   3.021  2.0285 -0.2456 -1.2264
  712MOL0     H98222  14.076   5.034   3.187 -3.1723  0.1491 -1.5567
  712MOL0     H98223  14.138   5.162   3.067 -1.6633  2.2622 -1.1903
  712MOL0     H98224  13.995   5.205   3.328 -2.4821  1.5016 -1.5362
  712MOL0     H98225  14.033   5.330   3.211 -0.9041 -0.1943 -0.6894
  712MOL0     H98226  14.257   5.160   3.328 -0.2552 -0.0040 -0.7493
  712MOL0     H98227  14.206   5.318   3.397 -1.6970  0.4852  0.5499
  712MOL0     H98228  14.359   5.251   3.139  0.8234 -1.2145  0.5246
  712MOL0     H98229  14.255   5.405   3.155  0.1003 -2.1938 -0.0131
  712MOL0     H98230  14.370   5.468   3.352 -3.0894  0.1729 -1.9329
  712MOL0     H98231  14.469   5.453   3.207 -0.5344 -1.3121  0.4431
  712MOL0     H98232  14.536   5.207   3.298 -3.9347 -1.3981 -0.4439
  712MOL0     H98233  14.449   5.248   3.440  0.1210  3.4769  1.2102
  712MOL0     H98234  14.686   5.392   3.331 -0.9767 -0.8517 -0.8335
  712MOL0     H98235  14.681   5.294   3.485 -2.6090 -0.5951  0.0026
  712MOL0     H98236  13.700   5.101   2.936  1.0015  1.1242  1.3425
  712MOL0     H98237  13.557   5.136   2.741  0.6364 -1.2051 -0.3497
  712MOL0     H98238  13.377   5.409   2.445 -1.6908 -0.2817  0.6277
  712MOL0     H98239  13.208   5.419   2.271  0.3188 -1.8448  0.3987
  712MOL0     H98240  11.407   5.446   1.660  3.0272  0.3989  1.4209
  712MOL0     H98241  11.226   5.531   1.490 -1.0369  2.0631 -1.1905
  712MOL0     H98242  10.975   5.753   1.366 -1.2851 -0.1457  0.0741
  712MOL0     H98243  10.761   5.780   1.249  0.8240  1.0571  0.9562
  712MOL0     H98244  10.776   5.668   0.811 -1.6936 -1.6418 -2.0369
  712MOL0     H98245  10.762   5.576   0.966  2.0731  1.0120  0.5330
  712MOL0     H98246  10.528   5.683   0.782  0.3145 -1.8933 -1.6468
  712MOL0     H98247  10.512   5.664   0.956  0.4998 -2.2101 -0.0602
  712MOL0     H98248  10.606   5.451   0.755 -0.4205  2.7273 -1.6060
  712MOL0     H98249  10.592   5.434   0.934  0.7494 -3.9320 -1.6926
  712MOL0     H98250  10.378   5.504   0.746  1.6359  1.0864  0.4267
  712MOL0     H98251  10.345   5.476   0.918 -2.1982 -0.1510 -1.4075
  712MOL0     H98252  10.423   5.071   0.776  1.1071 -0.0748  0.0073
  712MOL0     H98253  10.986   5.792   0.875  0.3801  3.6802 -0.0901
  712MOL0     H98254  11.300   5.833   1.039 -0.6573 -1.7803  2.8502
  712MOL0     H98255  11.287   5.676   0.965  1.2443  0.2524  2.3968
  712MOL0     H98256  11.198   5.815   0.888  0.9158 -0.2294 -0.0711
  713MOL0     O98257   1.567   6.298   9.870 -0.5554 -0.9540  0.1740
  713MOL0     C98258   1.507   6.198   9.903 -0.4074  0.1549 -0.5571
  713MOL0     O98259   1.378   6.190   9.931  0.2542  0.0475  0.0565
  713MOL0     C98260   1.300   6.303   9.942  0.6964  0.3502 -0.6739
  713MOL0     C98261   1.161   6.283   9.932 -0.2700  0.3802  0.5200
  713MOL0     C98262   1.070   6.386   9.963  0.2791  0.8154 -0.0888
  713MOL0     C98263   1.118   6.509   9.999 -0.2243 -0.3889 -0.1544
  713MOL0     O98264   1.009   6.588  10.031 -0.0286 -0.3155  0.6991
  713MOL0     C98265   1.034   6.726  10.057 -0.4343  0.6603 -0.5808
  713MOL0     C98266   1.085   6.748  10.206 -0.0384  0.7162  0.3590
  713MOL0     C98267   0.978   6.741  10.313  0.6832 -0.3831 -1.2746
  713MOL0     C98268   0.864   6.843  10.316  0.9261  0.3732  0.2775
  713MOL0     C98269   0.778   6.815  10.433 -0.5054  0.5670  0.0758
  713MOL0     C98270   0.661   6.908  10.427  0.1552 -0.2807 -0.3710
  713MOL0     C98271   0.558   6.881  10.312  0.2557 -0.3039  1.0837
  713MOL0     C98272   0.424   6.947  10.325  0.6496  0.2902 -0.3077
  713MOL0     N98273   0.346   6.952  10.210 -0.6394 -0.0984  0.3327
  713MOL0     C98274   0.267   6.858  10.158  0.0228  0.5548 -0.0852
  713MOL0     C98275   0.195   6.918  10.055  1.0867  1.0912 -1.0985
  713MOL0     C98276   0.111   6.831   9.971  0.3418  0.1287  0.0132
  713MOL0     C98277   0.177   6.779   9.847  0.1467 -0.6337 -0.9715
  713MOL0     C98278   0.306   6.703   9.884  0.2391 -0.5802 -0.3637
  713MOL0     C98279   0.356   6.609   9.769 -0.3751  0.2360 -0.3576
  713MOL0     O98280   0.329   6.470   9.804  0.0781  0.5072 -0.1951
  713MOL0     C98281   0.406   6.398   9.893 -0.5284 -0.8191  0.0358
  713MOL0     C98282   0.506   6.453   9.979 -0.0622  0.5113  0.5300
  713MOL0     C98283   0.574   6.379  10.074 -0.3682 -0.6339  0.1902
  713MOL0     C98284   0.645   6.453  10.182  0.1830 -0.3853 -0.1560
  713MOL0     C98285   0.560   6.244  10.072 -0.2987 -0.1544 -0.2906
  713MOL0     C98286   0.646   6.148  10.152  0.0476  0.8650 -0.1043
  713MOL0     O98287   0.580   6.032  10.188  1.1843 -0.2801  0.0332
  713MOL0     C98288   0.653   5.957  10.274  0.5292  0.0616 -0.5248
  713MOL0     C98289   0.748   5.860  10.223 -0.2832 -0.6050 -0.5085
  713MOL0     C98290   0.810   5.778  10.313  0.0945 -0.0064 -0.4781
  713MOL0     C98291   0.795   5.797  10.453 -0.2714  0.2552 -0.3184
  713MOL0     O98292   0.866   5.719  10.545  0.1710  0.5061 -0.4616
  713MOL0     C98293   0.943   5.783  10.645  0.4178  0.8084 -0.6095
  713MOL0     C98294   1.083   5.828  10.605  0.3679  0.5801 -0.3864
  713MOL0     C98295   1.158   5.876  10.729  0.2528  0.0261  0.6800
  713MOL0     C98296   1.303   5.908  10.692 -0.3173  0.4773  0.2089
  713MOL0     C98297   1.375   5.929  10.821  0.3171  0.2295 -1.0078
  713MOL0     C98298   1.518   5.967  10.790  0.2206  1.1251  0.0450
  713MOL0     C98299   1.624   5.856  10.837 -0.7355  0.4908 -0.0108
  713MOL0     C98300   1.764   5.917  10.843  0.3388  0.2474 -0.1715
  713MOL0    Cl98301   1.810   5.961  10.678  0.1547 -0.0972 -0.5190
  713MOL0     C98302   0.708   5.892  10.499  0.1107  0.8819  0.3308
  713MOL0     C98303   0.644   5.974  10.408  0.7027 -0.1796  0.0692
  713MOL0     O98304   0.767   6.176  10.164 -0.3673  0.4249  0.2681
  713MOL0     C98305   0.465   6.179   9.981 -0.7101 -0.1080 -0.6417
  713MOL0     C98306   0.395   6.261   9.894 -0.1094 -0.1814 -0.3811
  713MOL0     N98307   0.219   7.049  10.052 -0.6216 -0.2210  0.5299
  713MOL0     N98308   0.316   7.071  10.140 -0.1293  0.1977 -0.5947
  713MOL0     C98309   1.257   6.534  10.004  0.6774  1.3259  0.3896
  713MOL0     C98310   1.347   6.429   9.977  1.3253 -0.1973 -0.0723
  713MOL0     C98311   1.586   6.075   9.916  1.1442 -0.0568 -0.0857
  713MOL0     C98312   1.520   5.946   9.891 -0.4045 -0.3570 -0.8375
  713MOL0     C98313   1.589   5.833   9.879 -0.4929 -0.3427 -0.7409
  713MOL0     C98314   1.731   5.834   9.901  0.8321 -0.7941  0.5035
  713MOL0     O98315   1.822   5.726   9.916 -0.2774  0.0035  0.3601
  713MOL0     C98316   1.764   5.597   9.898 -0.5143  0.7442  0.4052
  713MOL0     C98317   1.843   5.509   9.985  0.1367 -0.1327  1.5243
  713MOL0     C98318   1.981   5.487   9.934 -0.1513  0.2404  0.1485
  713MOL0     C98319   2.003   5.414   9.800 -0.0329 -0.1040 -0.3426
  713MOL0     C98320   2.145   5.409   9.769 -0.7136 -1.0130 -0.0591
  713MOL0     C98321   2.264   5.411   9.746  0.2300  0.1913 -1.1521
  713MOL0     C98322   1.796   5.959   9.936 -0.0439  0.6811  0.6803
  713MOL0     C98323   1.723   6.079   9.936 -0.6018 -1.4926 -0.2202
  713MOL0     C98324   1.803   6.194   9.975  0.0414 -0.8817  0.7934
  713MOL0     H98325   1.129   6.183   9.902 -0.5428 -0.4683  3.3273
  713MOL0     H98326   0.964   6.362   9.959  0.5038  0.0045 -1.7754
  713MOL0     H98327   0.943   6.786  10.057 -1.9956 -1.4581  2.2822
  713MOL0     H98328   1.110   6.765   9.989 -0.8851  0.6357 -1.1031
  713MOL0     H98329   1.168   6.679  10.221  1.1009  2.4779  2.8270
  713MOL0     H98330   1.142   6.841  10.218  1.1670 -0.0235  0.4703
  713MOL0     H98331   0.920   6.649  10.312 -0.6069  0.4123 -1.4823
  713MOL0     H98332   1.043   6.740  10.401  1.8787 -2.0738 -2.1401
  713MOL0     H98333   0.900   6.945  10.331  1.8156 -0.0125  0.8877
  713MOL0     H98334   0.816   6.844  10.217  1.8701  0.7075 -0.1959
  713MOL0     H98335   0.851   6.825  10.513  0.9782  1.3083 -1.3044
  713MOL0     H98336   0.745   6.712  10.417  3.6894 -0.6101 -2.4908
  713MOL0     H98337   0.611   6.891  10.522 -1.6826 -1.1754 -1.4339
  713MOL0     H98338   0.709   7.005  10.418  2.4031 -1.4572 -2.2166
  713MOL0     H98339   0.532   6.775  10.300 -1.4443  0.3662 -2.1828
  713MOL0     H98340   0.602   6.906  10.215  0.7754 -0.1519  1.3543
  713MOL0     H98341   0.361   6.886  10.391  1.7339 -3.7144 -2.6974
  713MOL0     H98342   0.439   7.049  10.361 -2.0008 -0.2315  2.7134
  713MOL0     H98343   0.273   6.750  10.159  1.4183  0.5300 -2.7361
  713MOL0     H98344   0.024   6.884   9.933  0.3297  0.4778  0.5258
  713MOL0     H98345   0.087   6.744  10.034  3.9531  1.0609  3.0532
  713MOL0     H98346   0.108   6.712   9.795 -0.2428  1.6678 -3.6164
  713MOL0     H98347   0.216   6.860   9.785  3.2383 -2.0037 -1.0070
  713MOL0     H98348   0.387   6.772   9.905  0.5179 -0.6466 -1.1901
  713MOL0     H98349   0.272   6.639   9.967 -0.0036  1.4445  1.1845
  713MOL0     H98350   0.310   6.633   9.673 -2.2392 -1.2508  0.0914
  713MOL0     H98351   0.465   6.616   9.771 -0.3238 -0.6043  1.0657
  713MOL0     H98352   0.519   6.560   9.964 -2.7258  1.2107  2.4232
  713MOL0     H98353   0.754   6.456  10.168  0.7072 -0.3580  3.1763
  713MOL0     H98354   0.635   6.398  10.276  2.6596 -0.2174  0.2639
  713MOL0     H98355   0.604   6.553  10.194  0.3198 -0.3403 -0.0703
  713MOL0     H98356   0.759   5.837  10.118  2.4697  0.9381 -0.6603
  713MOL0     H98357   0.885   5.707  10.281  0.0768 -0.2978  0.1063
  713MOL0     H98358   0.882   5.858  10.697 -0.7534 -0.6656  0.1947
  713MOL0     H98359   0.960   5.697  10.709 -1.0818  0.2602 -0.9177
  713MOL0     H98360   1.136   5.737  10.574 -2.3644 -1.7831  1.3276
  713MOL0     H98361   1.079   5.905  10.528  1.9672  0.2514 -0.8355
  713MOL0     H98362   1.157   5.797  10.805  2.5551 -1.7835 -1.0213
  713MOL0     H98363   1.104   5.961  10.772 -0.2977  1.1144 -1.9895
  713MOL0     H98364   1.315   5.987  10.618 -0.0064 -0.2766 -0.5602
  713MOL0     H98365   1.344   5.817  10.648 -1.1556  0.7914 -1.2894
  713MOL0     H98366   1.327   6.004  10.884  1.4344  0.4284 -0.3673
  713MOL0     H98367   1.388   5.838  10.881  3.0450  0.9933 -0.3293
  713MOL0     H98368   1.544   6.061  10.840  1.4396 -0.1348  1.9004
  713MOL0     H98369   1.523   5.977  10.681 -0.6590 -1.6956 -0.3527
  713MOL0     H98370   1.636   5.789  10.752  0.7004  2.2524 -1.2653
  713MOL0     H98371   1.597   5.806  10.931 -1.6872  3.6256  1.5111
  713MOL0     H98372   1.828   5.846  10.896 -0.1322  0.2918  0.4605
  713MOL0     H98373   1.758   6.010  10.901  3.0821  0.5098 -0.1629
  713MOL0     H98374   0.685   5.901  10.605 -1.0204  2.0261  0.0101
  713MOL0     H98375   0.571   6.041  10.454  1.4275 -0.1938  1.2779
  713MOL0     H98376   0.450   6.072   9.966 -1.4377 -0.4898  2.2034
  713MOL0     H98377   0.324   6.211   9.828 -0.7018  1.2436 -0.8578
  713MOL0     H98378   1.306   6.627  10.031  3.4625 -0.2207  1.1252
  713MOL0     H98379   1.452   6.454   9.988  1.8060 -2.1617  0.2333
  713MOL0     H98380   1.413   5.939   9.872 -0.5041  2.1167 -1.6166
  713MOL0     H98381   1.534   5.741   9.865 -3.6673  1.2123  0.5223
  713MOL0     H98382   1.657   5.583   9.916 -0.6763 -1.2919 -1.7391
  713MOL0     H98383   1.786   5.559   9.798 -0.7126 -1.7898  1.2571
  713MOL0     H98384   1.796   5.411  10.000  0.0662 -0.1768  1.0264
  713MOL0     H98385   1.852   5.560  10.081  0.8876  1.9683  0.3883
  713MOL0     H98386   2.036   5.581   9.924  1.0860 -0.5519 -0.7578
  713MOL0     H98387   2.034   5.442  10.018  0.2266  2.9584  1.4784
  713MOL0     H98388   1.961   5.472   9.717 -1.1492 -0.6738 -0.1856
  713MOL0     H98389   1.958   5.314   9.796 -0.6403  0.1994 -3.4368
  713MOL0     H98390   2.364   5.398   9.710  0.2193  2.3855 -2.1218
  713MOL0     H98391   1.901   5.960   9.964 -0.4216  1.8679  2.1835
  713MOL0     H98392   1.849   6.244   9.890 -0.8242  1.3072  1.5189
  713MOL0     H98393   1.745   6.267  10.033  1.3082  2.3240 -1.6580
  713MOL0     H98394   1.881   6.158  10.043  1.6354  0.6227 -0.1573
  714MOL0     O98395  10.164   5.705   8.105 -0.3601 -0.2119 -0.0357
  714MOL0     C98396  10.147   5.720   7.986 -0.2648  0.6056 -0.0126
  714MOL0     O98397  10.073   5.817   7.934  0.3876  0.1075  0.7616
  714MOL0     C98398  10.048   5.920   8.015  0.0317  0.1159 -0.3724
  714MOL0     C98399  10.136   6.030   8.048  0.0532 -0.3007  0.6424
  714MOL0     C98400  10.084   6.140   8.111  0.1068  1.3628  0.6982
  714MOL0     C98401   9.949   6.158   8.128 -0.1913 -0.3541 -0.5584
  714MOL0     O98402   9.911   6.264   8.209 -0.0291  0.1686 -0.2863
  714MOL0     C98403   9.778   6.274   8.259 -1.2299  0.7312 -0.2278
  714MOL0     C98404   9.769   6.370   8.378 -0.1780  0.5843 -0.0706
  714MOL0     C98405   9.827   6.512   8.371 -0.4835 -0.0622 -0.2894
  714MOL0     C98406   9.748   6.617   8.296  0.5868  0.3359 -0.2523
  714MOL0     C98407   9.832   6.721   8.236 -0.0587  0.6966  0.8035
  714MOL0     C98408   9.908   6.795   8.349  0.1606 -0.0926  0.7881
  714MOL0     C98409   9.955   6.931   8.295 -0.2099 -0.0622 -0.3532
  714MOL0     C98410  10.099   6.981   8.344 -0.1764 -0.3214 -0.4351
  714MOL0     N98411  10.115   6.996   8.485  0.2062 -0.3134 -0.3582
  714MOL0     C98412  10.230   7.021   8.553 -0.9320 -0.7901  0.1850
  714MOL0     C98413  10.198   7.046   8.679 -0.0495  0.0600  0.3973
  714MOL0     C98414  10.300   7.088   8.791 -0.7428  0.3115  0.3069
  714MOL0     C98415  10.360   6.971   8.878 -0.1775  0.2633 -0.1643
  714MOL0     C98416  10.431   6.866   8.799 -0.0489  0.7133  0.4130
  714MOL0     C98417  10.546   6.910   8.723  0.2987 -1.1115  0.9394
  714MOL0     O98418  10.611   6.818   8.639  0.1277 -0.7560  0.5120
  714MOL0     C98419  10.721   6.866   8.576  0.7959 -0.6084 -0.1669
  714MOL0     C98420  10.758   6.996   8.555  0.1903 -1.0313 -0.3826
  714MOL0     C98421  10.842   7.042   8.465 -0.5624 -0.1409  0.5040
  714MOL0     C98422  10.855   7.192   8.441  0.4513 -0.5239 -0.3623
  714MOL0     C98423  10.927   6.943   8.396  0.3317 -0.0737 -0.3058
  714MOL0     C98424  11.037   6.973   8.294 -0.3532 -0.7820  0.7482
  714MOL0     O98425  11.110   6.863   8.253 -0.3105  0.6814  0.0749
  714MOL0     C98426  11.219   6.879   8.175  0.4853 -0.3606  0.4125
  714MOL0     C98427  11.230   6.825   8.048  0.3776  0.2529  0.0778
  714MOL0     C98428  11.334   6.830   7.963  0.8178  0.1179 -0.6373
  714MOL0     C98429  11.445   6.896   8.007 -1.1900 -0.3129  0.0734
  714MOL0     O98430  11.551   6.884   7.920  0.3462 -1.0093 -0.0894
  714MOL0     C98431  11.673   6.902   7.984 -0.1005 -0.3219  0.0928
  714MOL0     C98432  11.723   6.786   8.068 -0.4332 -0.2750 -0.5244
  714MOL0     C98433  11.861   6.732   8.027  1.0594  0.7739 -0.8359
  714MOL0     C98434  11.989   6.820   8.056  0.5540  0.6559 -0.5936
  714MOL0     C98435  12.016   6.827   8.205  0.7342 -1.3393  0.9782
  714MOL0     C98436  12.135   6.922   8.228  0.3030 -0.3971  0.4915
  714MOL0     C98437  12.159   6.970   8.370 -0.3759 -0.2572  0.5078
  714MOL0     C98438  12.215   6.859   8.458  0.4222  0.0497 -0.4569
  714MOL0    Cl98439  12.374   6.801   8.393  0.1407 -0.5776  0.1862
  714MOL0     C98440  11.440   6.958   8.143  0.2148 -0.4819  1.1791
  714MOL0     C98441  11.325   6.941   8.221  0.0039 -0.0066 -0.8950
  714MOL0     O98442  11.065   7.087   8.259  0.5638  0.7835 -0.0132
  714MOL0     C98443  10.897   6.804   8.410 -0.0396 -0.4835 -0.3399
  714MOL0     C98444  10.792   6.771   8.506 -0.6241  0.0427  0.4260
  714MOL0     N98445  10.069   7.009   8.695 -0.6332  0.1487  0.0635
  714MOL0     N98446  10.012   7.013   8.581  0.7398  0.2927  0.1806
  714MOL0     C98447   9.856   6.058   8.086  0.0786  0.0786  1.3877
  714MOL0     C98448   9.908   5.936   8.032 -0.3438  0.1385 -0.3536
  714MOL0     C98449  10.226   5.633   7.888 -0.2710 -0.3905  0.6160
  714MOL0     C98450  10.221   5.664   7.745 -0.4350 -0.2726  0.6352
  714MOL0     C98451  10.293   5.591   7.652 -0.3583 -0.3014  0.0144
  714MOL0     C98452  10.368   5.478   7.693  1.1599  0.1016 -0.4872
  714MOL0     O98453  10.436   5.402   7.606  0.3442  0.5012  0.5211
  714MOL0     C98454  10.466   5.436   7.470 -0.3707  0.1497 -0.4347
  714MOL0     C98455  10.610   5.429   7.425 -1.1482  0.0903 -0.0462
  714MOL0     C98456  10.616   5.396   7.272 -0.2971 -0.3229 -0.3464
  714MOL0     C98457  10.752   5.349   7.232 -0.1087  0.3398 -0.0890
  714MOL0     C98458  10.764   5.304   7.096  0.1103 -0.5426 -0.1081
  714MOL0     C98459  10.782   5.285   6.974  0.4252 -0.0967 -0.0670
  714MOL0     C98460  10.367   5.446   7.833  0.0723  0.4819  0.2035
  714MOL0     C98461  10.305   5.528   7.927  0.3323  0.4056 -0.4848
  714MOL0     C98462  10.314   5.475   8.072 -1.5402  0.2236  0.1250
  714MOL0     H98463  10.243   6.025   8.027 -0.1918  1.7129 -1.4799
  714MOL0     H98464  10.149   6.218   8.149  2.2099 -1.6981  4.0267
  714MOL0     H98465   9.737   6.179   8.292  1.2100 -0.1133  0.5580
  714MOL0     H98466   9.719   6.324   8.181 -0.7001 -0.2016 -1.2408
  714MOL0     H98467   9.666   6.380   8.412  0.2036 -0.5606  1.5858
  714MOL0     H98468   9.814   6.316   8.462 -0.5099 -1.0897 -0.9395
  714MOL0     H98469   9.841   6.555   8.471  1.3570 -1.2572  0.0296
  714MOL0     H98470   9.926   6.495   8.326  1.9235  1.3944  3.8914
  714MOL0     H98471   9.699   6.566   8.213  0.7535  1.9833 -1.4064
  714MOL0     H98472   9.665   6.661   8.353 -1.6083 -3.5361 -0.0868
  714MOL0     H98473   9.766   6.788   8.182  0.4356  0.0502 -0.6588
  714MOL0     H98474   9.897   6.673   8.162 -1.7897 -1.0950  0.3538
  714MOL0     H98475   9.841   6.803   8.436 -0.8917 -0.3360  0.0265
  714MOL0     H98476   9.993   6.733   8.375 -2.1348 -3.1778  1.5350
  714MOL0     H98477   9.873   7.003   8.298 -0.8805 -0.7224 -1.7363
  714MOL0     H98478   9.973   6.918   8.187 -2.4648  1.9628 -1.0621
  714MOL0     H98479  10.174   6.913   8.303  2.0077  0.1075  2.5738
  714MOL0     H98480  10.125   7.075   8.296 -0.1649 -0.3663 -0.5175
  714MOL0     H98481  10.324   7.032   8.499  0.1150 -0.9863  1.9068
  714MOL0     H98482  10.262   7.166   8.857  0.0495  0.6840  0.3428
  714MOL0     H98483  10.385   7.136   8.741 -1.8391  2.0756  0.0577
  714MOL0     H98484  10.427   7.011   8.954 -0.7625  0.5058  0.2340
  714MOL0     H98485  10.268   6.933   8.923 -1.8171 -0.4643 -3.7408
  714MOL0     H98486  10.468   6.792   8.871  0.8151 -2.2566 -2.7733
  714MOL0     H98487  10.357   6.813   8.737 -0.8555  0.0254  1.9151
  714MOL0     H98488  10.517   6.994   8.659 -2.5470 -2.3405  0.4611
  714MOL0     H98489  10.622   6.939   8.796  1.7530 -0.6454 -0.6979
  714MOL0     H98490  10.704   7.073   8.609 -1.9291 -2.6673  0.0018
  714MOL0     H98491  10.824   7.245   8.532  1.5378  1.4827 -1.0990
  714MOL0     H98492  10.797   7.238   8.361  1.6648  1.0086 -0.4219
  714MOL0     H98493  10.959   7.222   8.428  0.0982  1.1566  0.3751
  714MOL0     H98494  11.134   6.787   8.013  0.6358 -2.9120  2.3564
  714MOL0     H98495  11.331   6.784   7.865 -3.5494 -2.2115  0.3267
  714MOL0     H98496  11.747   6.932   7.908 -1.5114  0.6108 -0.9713
  714MOL0     H98497  11.670   6.994   8.043 -1.2559  1.9602 -3.2151
  714MOL0     H98498  11.736   6.814   8.173 -0.5114  2.4359 -1.1546
  714MOL0     H98499  11.641   6.714   8.061 -1.7016  1.0973 -0.4678
  714MOL0     H98500  11.856   6.722   7.918  3.0021  1.4016 -1.0186
  714MOL0     H98501  11.874   6.632   8.070  3.5843  1.5622  0.4559
  714MOL0     H98502  11.986   6.914   8.001  2.9949 -0.5539 -3.0169
  714MOL0     H98503  12.074   6.766   8.013 -0.2017 -1.9407  0.9422
  714MOL0     H98504  11.931   6.874   8.256 -0.8953 -2.2340 -0.8119
  714MOL0     H98505  12.031   6.731   8.256  2.4276 -2.3887 -1.3498
  714MOL0     H98506  12.115   7.009   8.165 -2.5502 -2.5798 -1.8834
  714MOL0     H98507  12.229   6.878   8.192  0.4693  2.0757 -2.5171
  714MOL0     H98508  12.070   7.015   8.416  1.0902  2.4107  0.8871
  714MOL0     H98509  12.228   7.055   8.368  0.8038 -1.2067 -1.3334
  714MOL0     H98510  12.146   6.775   8.458 -1.3735  1.3911  1.8962
  714MOL0     H98511  12.240   6.902   8.555 -1.6378  1.8455 -0.6435
  714MOL0     H98512  11.528   7.009   8.181  1.0651 -0.4119 -0.7170
  714MOL0     H98513  11.315   6.984   8.320 -2.1231 -2.7289  0.2097
  714MOL0     H98514  10.949   6.734   8.345 -0.0024 -0.6572 -0.1251
  714MOL0     H98515  10.773   6.664   8.517  1.6145 -0.2807  1.6685
  714MOL0     H98516   9.751   6.084   8.094  0.8348  4.3138  0.2909
  714MOL0     H98517   9.844   5.850   8.012  1.3179 -1.5083  1.0263
  714MOL0     H98518  10.166   5.749   7.705  2.9909  1.5400 -0.6223
  714MOL0     H98519  10.274   5.622   7.550 -3.6074  1.7936  1.1241
  714MOL0     H98520  10.392   5.380   7.411 -0.1901 -0.7748  0.1906
  714MOL0     H98521  10.456   5.544   7.457 -2.9756  0.3362  2.1684
  714MOL0     H98522  10.663   5.341   7.463  2.8653  0.7844 -3.3379
  714MOL0     H98523  10.669   5.517   7.449 -1.2769  0.8231 -2.2064
  714MOL0     H98524  10.540   5.320   7.252 -0.0533 -0.2686 -1.5106
  714MOL0     H98525  10.578   5.484   7.219 -1.4756  0.4826  1.6901
  714MOL0     H98526  10.784   5.262   7.291  0.3573 -0.6059 -1.6704
  714MOL0     H98527  10.834   5.419   7.246  1.2538 -0.8449 -1.7790
  714MOL0     H98528  10.789   5.270   6.868 -0.2959  1.2777 -0.3407
  714MOL0     H98529  10.430   5.359   7.849  0.7570  1.1249  1.0635
  714MOL0     H98530  10.360   5.376   8.084  0.7304  0.9593 -1.8104
  714MOL0     H98531  10.368   5.547   8.134 -3.1185 -1.4516  3.7290
  714MOL0     H98532  10.218   5.450   8.118 -1.7996 -2.7581 -1.7452
  715MOL0     O98533   1.973   1.743   2.832 -0.7925 -0.3479  0.0203
  715MOL0     C98534   1.992   1.697   2.718 -0.5964 -0.2163 -0.2022
  715MOL0     O98535   2.015   1.562   2.689  0.1655 -0.1143 -0.6529
  715MOL0     C98536   1.987   1.448   2.766  0.9756  0.1740 -0.7719
  715MOL0     C98537   1.923   1.451   2.893 -0.4721 -0.7790 -0.3164
  715MOL0     C98538   1.902   1.335   2.967 -0.2003 -0.5487  0.1817
  715MOL0     C98539   1.934   1.208   2.918  0.2099  0.1698 -0.9075
  715MOL0     O98540   1.899   1.096   2.992  0.5026  0.2498  0.4290
  715MOL0     C98541   1.845   0.990   2.921 -1.0957  0.1634  0.4351
  715MOL0     C98542   1.770   0.895   3.014  0.0015  0.0923 -0.5718
  715MOL0     C98543   1.652   0.980   3.077  0.7297 -0.2581  0.6010
  715MOL0     C98544   1.571   0.894   3.182  0.1690 -0.0345  0.2597
  715MOL0     C98545   1.433   0.964   3.203 -0.1988  0.6310 -0.2013
  715MOL0     C98546   1.369   0.908   3.320 -0.0786  0.5426 -0.2561
  715MOL0     C98547   1.240   0.977   3.362 -0.0583 -0.0513  0.3710
  715MOL0     C98548   1.158   0.905   3.467 -0.0916 -0.0865  0.7666
  715MOL0     N98549   1.203   0.947   3.595  0.2548  0.0014  0.6012
  715MOL0     C98550   1.162   1.058   3.661  1.6187 -0.6294 -0.4449
  715MOL0     C98551   1.186   1.035   3.792  0.3942  0.1907  0.1981
  715MOL0     C98552   1.146   1.116   3.906  0.2160 -0.0644 -0.0015
  715MOL0     C98553   0.998   1.168   3.891  0.0097  0.5531  0.3689
  715MOL0     C98554   0.961   1.275   3.990  0.5750 -0.0506 -1.3025
  715MOL0     C98555   0.812   1.260   4.034  0.3863 -0.2228  0.2765
  715MOL0     O98556   0.737   1.304   3.922 -0.7901  0.6517  0.1563
  715MOL0     C98557   0.607   1.259   3.912  0.0839  0.3800 -0.4245
  715MOL0     C98558   0.571   1.200   3.789  0.5398  0.7603 -0.5935
  715MOL0     C98559   0.439   1.166   3.759 -0.3751  0.7795  0.8350
  715MOL0     C98560   0.416   1.139   3.617  0.0525  0.6148  0.5155
  715MOL0     C98561   0.337   1.175   3.862 -0.2637 -0.3343 -1.0872
  715MOL0     C98562   0.188   1.135   3.841  0.4384 -0.4260 -0.0662
  715MOL0     O98563   0.147   1.047   3.749  0.4687 -0.4481 -0.0109
  715MOL0     C98564   0.013   1.049   3.711 -0.0600 -0.7907 -0.4094
  715MOL0     C98565  -0.090   0.967   3.774 -0.2569  0.9139 -0.5942
  715MOL0     C98566  -0.224   0.981   3.726 -0.3793 -0.3633  0.4023
  715MOL0     C98567  -0.256   1.065   3.625  0.6233  0.3624 -0.0809
  715MOL0     O98568  -0.383   1.097   3.582 -0.2827 -0.1720  0.0362
  715MOL0     C98569  -0.496   1.066   3.657 -0.0073  0.4828  1.2758
  715MOL0     C98570  -0.621   1.109   3.578 -0.0176  0.3248  0.8256
  715MOL0     C98571  -0.750   1.072   3.654  0.9068  0.2210  0.4190
  715MOL0     C98572  -0.750   1.123   3.798 -0.3844  0.5211  0.0082
  715MOL0     C98573  -0.893   1.134   3.860  0.5103  0.2001  0.0760
  715MOL0     C98574  -0.968   1.255   3.808 -0.2527 -0.2230  0.5141
  715MOL0     C98575  -1.110   1.253   3.851  0.8929 -0.9228  0.0431
  715MOL0     C98576  -1.183   1.364   3.768  0.1983 -0.2345  0.5858
  715MOL0    Cl98577  -1.357   1.371   3.813  0.1402 -0.4517  0.0638
  715MOL0     C98578  -0.158   1.133   3.567  0.6147 -0.0159  0.7249
  715MOL0     C98579  -0.028   1.134   3.606  0.3255 -0.3520  0.1575
  715MOL0     O98580   0.111   1.206   3.901 -0.3739  0.1771  0.6364
  715MOL0     C98581   0.382   1.223   3.986 -0.1087  0.6192 -0.1803
  715MOL0     C98582   0.507   1.259   4.015 -0.4179 -0.2046 -0.0261
  715MOL0     N98583   1.248   0.913   3.809 -0.0363  0.1829  0.2961
  715MOL0     N98584   1.250   0.857   3.689 -0.4325 -0.1600 -0.5781
  715MOL0     C98585   1.988   1.206   2.786  0.3587  0.6500 -0.2905
  715MOL0     C98586   2.016   1.322   2.719 -0.1584  0.0211  0.1231
  715MOL0     C98587   1.996   1.792   2.602 -1.2091 -0.1940 -0.4409
  715MOL0     C98588   2.049   1.743   2.475 -0.4608  0.4528  1.3724
  715MOL0     C98589   2.070   1.831   2.366 -0.4024 -0.0772  0.4997
  715MOL0     C98590   2.021   1.957   2.369 -0.6435  0.3505 -0.5454
  715MOL0     O98591   2.015   2.041   2.259 -0.1680 -0.2548 -0.0534
  715MOL0     C98592   2.040   1.993   2.126 -1.2109 -0.9007  0.2427
  715MOL0     C98593   2.186   1.993   2.086  0.1705  0.5200  0.0639
  715MOL0     C98594   2.235   2.136   2.067  0.6127 -0.3623  0.5963
  715MOL0     C98595   2.363   2.138   1.988  0.3223  0.8379 -0.0255
  715MOL0     C98596   2.388   2.272   1.948 -0.7223 -0.5955 -0.6250
  715MOL0     C98597   2.429   2.383   1.925 -0.7458 -0.1422 -0.1215
  715MOL0     C98598   1.974   2.011   2.487 -0.4431 -0.5162 -0.2742
  715MOL0     C98599   1.964   1.931   2.608 -0.3728  0.4273 -0.0593
  715MOL0     C98600   1.909   2.003   2.734 -0.4205  0.0251  0.3676
  715MOL0     H98601   1.901   1.549   2.932  1.9368  0.1390 -1.0625
  715MOL0     H98602   1.882   1.356   3.072  2.4711  2.0678  0.2804
  715MOL0     H98603   1.934   0.941   2.881 -0.7624  0.1331  1.2062
  715MOL0     H98604   1.776   1.017   2.840 -0.7918  0.5165  0.2862
  715MOL0     H98605   1.726   0.809   2.963 -0.6800 -1.2763  2.1221
  715MOL0     H98606   1.837   0.854   3.091  2.1749  2.6754 -0.9143
  715MOL0     H98607   1.689   1.067   3.133 -0.6692 -0.8451  2.5352
  715MOL0     H98608   1.583   1.017   3.001  1.3683  2.6598  1.2964
  715MOL0     H98609   1.554   0.789   3.158 -2.0337  0.1631  0.7336
  715MOL0     H98610   1.630   0.885   3.274 -0.8844 -2.2273  0.7896
  715MOL0     H98611   1.381   0.919   3.118  0.0370  0.1801 -0.1087
  715MOL0     H98612   1.432   1.073   3.217 -3.7454  0.9224 -1.6934
  715MOL0     H98613   1.343   0.803   3.302  1.6071  0.3127 -1.7050
  715MOL0     H98614   1.440   0.904   3.403  1.3047  2.0149 -1.2864
  715MOL0     H98615   1.174   0.997   3.277 -1.9806 -2.2869  1.2059
  715MOL0     H98616   1.277   1.065   3.416  0.8272 -0.3720  0.2875
  715MOL0     H98617   1.052   0.930   3.450 -0.2882 -1.0285  0.5732
  715MOL0     H98618   1.173   0.798   3.477 -0.5430 -0.0528  1.9763
  715MOL0     H98619   1.113   1.148   3.626 -1.8809 -0.7765  3.2269
  715MOL0     H98620   1.208   1.203   3.928 -2.1317  1.2514  1.8999
  715MOL0     H98621   1.149   1.052   3.995  1.0227 -3.2576 -2.1176
  715MOL0     H98622   0.982   1.210   3.791 -2.1226  1.9567  1.2118
  715MOL0     H98623   0.929   1.083   3.895 -0.8002  1.0895 -0.9798
  715MOL0     H98624   1.023   1.269   4.080 -1.8824  1.0522  0.5768
  715MOL0     H98625   0.966   1.375   3.945 -1.6396 -0.7093 -3.2353
  715MOL0     H98626   0.791   1.155   4.052  2.5706 -1.4765 -3.3981
  715MOL0     H98627   0.791   1.327   4.118  4.0531  0.3615  0.8784
  715MOL0     H98628   0.651   1.196   3.716  0.5322  3.3768 -0.8505
  715MOL0     H98629   0.384   1.036   3.597  2.5996  0.3509 -3.3542
  715MOL0     H98630   0.510   1.155   3.563  0.2086 -1.1373  0.2055
  715MOL0     H98631   0.342   1.204   3.571  1.0413  0.6817 -1.0671
  715MOL0     H98632  -0.069   0.901   3.858  1.2166  1.3761 -0.5668
  715MOL0     H98633  -0.301   0.921   3.774 -2.6542  0.7119 -1.6940
  715MOL0     H98634  -0.503   0.959   3.679 -1.0392 -0.1965 -1.8745
  715MOL0     H98635  -0.488   1.120   3.752  5.4585  0.8355  0.9562
  715MOL0     H98636  -0.621   1.214   3.546 -1.9430 -0.0168 -0.4527
  715MOL0     H98637  -0.630   1.054   3.484  0.1276  1.8894 -0.1551
  715MOL0     H98638  -0.756   0.963   3.653  3.0615 -0.0523 -3.4388
  715MOL0     H98639  -0.832   1.122   3.603  0.6891  3.0687  3.2483
  715MOL0     H98640  -0.704   1.222   3.799  4.2629 -1.3639 -2.1915
  715MOL0     H98641  -0.682   1.065   3.862 -0.0539 -0.3105 -1.0724
  715MOL0     H98642  -0.942   1.038   3.846 -0.4711  0.4066  1.8272
  715MOL0     H98643  -0.879   1.146   3.968 -0.2019 -0.7430  0.2908
  715MOL0     H98644  -0.962   1.248   3.699  0.3223 -2.6454  0.6435
  715MOL0     H98645  -0.913   1.347   3.830  0.1857 -0.6082  1.0671
  715MOL0     H98646  -1.107   1.268   3.959 -0.3578 -0.2549  0.0057
  715MOL0     H98647  -1.154   1.154   3.833 -0.0760 -0.4026 -0.5314
  715MOL0     H98648  -1.176   1.346   3.661  1.5296  1.6454  0.3127
  715MOL0     H98649  -1.132   1.458   3.793 -0.9421  0.3220  0.8933
  715MOL0     H98650  -0.189   1.204   3.491 -0.0399  0.6903  1.6302
  715MOL0     H98651   0.047   1.195   3.557  0.5345  0.6921  1.7078
  715MOL0     H98652   0.311   1.219   4.068 -0.7642  1.8746 -0.6563
  715MOL0     H98653   0.520   1.287   4.119 -0.5613  0.6155 -0.2157
  715MOL0     H98654   2.010   1.115   2.731 -0.4500  0.4794 -0.3457
  715MOL0     H98655   2.066   1.321   2.622  2.0394  2.0123  1.1246
  715MOL0     H98656   2.084   1.641   2.484  0.5501  0.6460 -0.0618
  715MOL0     H98657   2.115   1.790   2.277 -0.4002 -1.4070  1.0810
  715MOL0     H98658   2.002   1.892   2.110  1.7009 -2.2335  1.1172
  715MOL0     H98659   1.987   2.068   2.067  1.2518  1.6774  1.1068
  715MOL0     H98660   2.183   1.935   1.993  2.2524 -1.7159  1.2686
  715MOL0     H98661   2.248   1.930   2.150 -0.2616 -0.2326 -0.2418
  715MOL0     H98662   2.157   2.196   2.019  0.8411  0.3767  1.1399
  715MOL0     H98663   2.252   2.174   2.168 -0.5266 -0.8552  0.9942
  715MOL0     H98664   2.345   2.082   1.896 -1.0659  1.1112  0.0567
  715MOL0     H98665   2.448   2.101   2.046  0.9886 -0.5368 -1.8005
  715MOL0     H98666   2.467   2.481   1.906 -1.1514 -0.3795 -2.5524
  715MOL0     H98667   1.932   2.111   2.482 -1.8484 -1.0863 -0.5139
  715MOL0     H98668   1.865   2.098   2.703  0.4350 -0.5441 -2.8744
  715MOL0     H98669   1.833   1.933   2.772 -0.4590  0.5745  1.3390
  715MOL0     H98670   1.975   2.010   2.821  1.4079  0.5480 -1.0317
  716MOL0     O98671   1.410   2.214   7.233  0.7201  0.6823  0.4171
  716MOL0     C98672   1.356   2.154   7.135 -0.6136 -0.6297  0.8282
  716MOL0     O98673   1.418   2.132   7.015 -0.0166  0.7222 -0.0365
  716MOL0     C98674   1.531   2.202   6.970  0.4868 -1.3692 -0.7734
  716MOL0     C98675   1.556   2.335   7.001  1.1540 -0.4208  0.1208
  716MOL0     C98676   1.659   2.407   6.952 -0.8853  0.5266  0.4061
  716MOL0     C98677   1.756   2.346   6.875  0.1301 -0.2584  0.5609
  716MOL0     O98678   1.860   2.428   6.837  0.0836 -0.5200  0.4689
  716MOL0     C98679   1.977   2.361   6.791  0.3151 -0.1310  0.4202
  716MOL0     C98680   2.090   2.464   6.759 -0.0980  0.8793  0.1798
  716MOL0     C98681   2.216   2.395   6.701  0.4432 -0.1834  0.0242
  716MOL0     C98682   2.287   2.288   6.787  0.1233  0.6053  0.2597
  716MOL0     C98683   2.429   2.249   6.753 -0.1492  0.5981 -0.6075
  716MOL0     C98684   2.451   2.218   6.604  0.3448  0.7328  0.0042
  716MOL0     C98685   2.359   2.103   6.547  1.1861  0.9298  1.0599
  716MOL0     C98686   2.342   2.127   6.398 -0.0135  0.2402  0.2591
  716MOL0     N98687   2.230   2.041   6.345 -0.1757  0.0588  0.6883
  716MOL0     C98688   2.231   1.921   6.273  0.3827 -0.6543 -0.0137
  716MOL0     C98689   2.099   1.885   6.257 -1.0632 -1.0598 -0.0893
  716MOL0     C98690   2.039   1.761   6.206  0.1546  0.4156  0.1172
  716MOL0     C98691   1.913   1.783   6.118 -0.1303  0.1833  0.8098
  716MOL0     C98692   1.851   1.648   6.092  0.6652 -0.4507  0.7834
  716MOL0     C98693   1.728   1.662   5.996 -0.1981  0.1850  0.5975
  716MOL0     O98694   1.618   1.744   6.042 -0.4998 -0.5815 -0.0535
  716MOL0     C98695   1.507   1.744   5.963  0.1933  0.1401  0.8031
  716MOL0     C98696   1.491   1.679   5.834  0.5678  0.0377  0.1909
  716MOL0     C98697   1.372   1.705   5.758  0.0065  0.2143  0.3537
  716MOL0     C98698   1.380   1.658   5.616  0.3207 -0.6671 -0.3391
  716MOL0     C98699   1.261   1.768   5.815  0.1046  0.3110 -0.0925
  716MOL0     C98700   1.124   1.782   5.752 -1.0296  0.3467 -0.1622
  716MOL0     O98701   1.030   1.845   5.832  0.0930  0.1775  0.4728
  716MOL0     C98702   0.903   1.830   5.792  0.3309 -0.3873 -0.2793
  716MOL0     C98703   0.845   1.703   5.771  0.5715  0.2405 -0.5554
  716MOL0     C98704   0.702   1.684   5.765  0.7314 -0.1437  0.9425
  716MOL0     C98705   0.621   1.800   5.733 -1.1790  0.8105  0.4063
  716MOL0     O98706   0.485   1.777   5.728 -0.3382  0.2180 -0.9406
  716MOL0     C98707   0.409   1.880   5.681  0.0884 -0.8131  0.2675
  716MOL0     C98708   0.269   1.811   5.683  0.8770 -0.4143 -0.0661
  716MOL0     C98709   0.154   1.910   5.634 -0.6870 -0.9340  0.0586
  716MOL0     C98710   0.008   1.846   5.608 -0.6826 -0.7139 -0.6481
  716MOL0     C98711  -0.076   1.941   5.525  0.5286 -0.8632  0.5016
  716MOL0     C98712  -0.220   1.887   5.515 -0.0743  0.2999 -0.1240
  716MOL0     C98713  -0.315   1.955   5.420  0.3474 -0.5276 -0.2377
  716MOL0     C98714  -0.285   2.108   5.398 -0.1718  0.1638 -0.4101
  716MOL0    Cl98715  -0.415   2.170   5.296 -0.3761  0.7222  0.2948
  716MOL0     C98716   0.687   1.923   5.734 -0.7078 -0.0633  0.8506
  716MOL0     C98717   0.823   1.945   5.765 -0.5989  0.4548  0.0816
  716MOL0     O98718   1.108   1.741   5.641  0.0328 -0.3647  0.5360
  716MOL0     C98719   1.270   1.816   5.949  0.1381 -0.5972 -0.2448
  716MOL0     C98720   1.390   1.801   6.015 -0.0693  0.6377  0.4845
  716MOL0     N98721   2.020   1.996   6.297 -0.2131 -0.0098  0.3895
  716MOL0     N98722   2.093   2.081   6.352 -0.5250  0.4700 -0.7929
  716MOL0     C98723   1.739   2.205   6.840 -0.0429 -0.7882 -0.7695
  716MOL0     C98724   1.620   2.144   6.887  0.6054  0.1336 -0.4470
  716MOL0     C98725   1.208   2.116   7.150  0.4738  0.0075  0.1150
  716MOL0     C98726   1.127   2.100   7.034 -0.3215  0.5509 -0.1972
  716MOL0     C98727   1.004   2.052   7.044  1.0005  0.2938 -0.2399
  716MOL0     C98728   0.942   2.033   7.170 -0.0669  0.1385 -0.3067
  716MOL0     O98729   0.815   1.992   7.174  0.0445 -0.0320 -0.6657
  716MOL0     C98730   0.722   2.057   7.269 -0.2099  0.5135  0.3765
  716MOL0     C98731   0.588   1.997   7.250 -0.5075  0.1723  0.6756
  716MOL0     C98732   0.525   2.024   7.107 -0.2498  0.2472  0.4662
  716MOL0     C98733   0.394   1.944   7.074 -0.5904 -0.1889 -0.5367
  716MOL0     C98734   0.359   1.934   6.932 -0.0802  0.1443  0.3927
  716MOL0     C98735   0.330   1.892   6.817  0.3821  0.0494  0.6490
  716MOL0     C98736   1.020   2.056   7.284  0.3131 -0.4322 -0.5325
  716MOL0     C98737   1.151   2.097   7.278  0.1841  0.8212  0.2134
  716MOL0     C98738   1.214   2.104   7.416  0.2986  0.6637  0.3179
  716MOL0     H98739   1.486   2.393   7.060 -0.5247  0.6926 -2.7921
  716MOL0     H98740   1.683   2.509   6.980  2.5399  0.0819 -0.4001
  716MOL0     H98741   1.943   2.312   6.699  0.5887 -0.0894  0.2976
  716MOL0     H98742   2.009   2.283   6.860 -1.7689  0.7661  2.5581
  716MOL0     H98743   2.049   2.527   6.679  2.5035 -3.0656 -4.8416
  716MOL0     H98744   2.117   2.507   6.856  1.7035 -2.3809  1.2663
  716MOL0     H98745   2.196   2.355   6.602  2.9225  2.5306 -1.7581
  716MOL0     H98746   2.290   2.471   6.673  0.0331  0.4088  0.5095
  716MOL0     H98747   2.289   2.320   6.891  1.4073 -0.1250  0.4931
  716MOL0     H98748   2.221   2.200   6.791  0.0532  0.7061  2.5154
  716MOL0     H98749   2.459   2.165   6.817  1.3619  2.5401  1.3670
  716MOL0     H98750   2.500   2.327   6.780  0.2858  2.2225 -5.4604
  716MOL0     H98751   2.424   2.306   6.544 -4.3954 -1.8326 -2.1894
  716MOL0     H98752   2.557   2.206   6.580  0.6119  1.2723  0.8600
  716MOL0     H98753   2.259   2.104   6.589  0.6468 -4.0317  0.4319
  716MOL0     H98754   2.396   2.001   6.558  0.0057  0.3763  0.1145
  716MOL0     H98755   2.307   2.230   6.397  0.0502  0.2680 -1.2230
  716MOL0     H98756   2.430   2.119   6.334 -1.6413  0.5590 -2.1385
  716MOL0     H98757   2.313   1.853   6.253  0.4035  0.1520 -3.1216
  716MOL0     H98758   1.998   1.706   6.291  0.0759  0.3638  0.0466
  716MOL0     H98759   2.120   1.697   6.169  1.9049  0.8163  2.9694
  716MOL0     H98760   1.836   1.848   6.160 -0.4278  0.5362 -0.2456
  716MOL0     H98761   1.940   1.826   6.021  2.2375  1.7754  2.0689
  716MOL0     H98762   1.920   1.581   6.039  1.4910  0.4228  0.7171
  716MOL0     H98763   1.811   1.600   6.181 -0.4850 -1.9855 -0.5105
  716MOL0     H98764   1.779   1.696   5.905  1.8076 -2.7438  0.4805
  716MOL0     H98765   1.688   1.562   5.977  1.2937 -0.1136 -1.3862
  716MOL0     H98766   1.574   1.630   5.785  0.7201  1.3790 -0.9779
  716MOL0     H98767   1.349   1.742   5.553 -0.1754  0.3619  1.2336
  716MOL0     H98768   1.310   1.576   5.599  0.4262 -0.5817 -1.2623
  716MOL0     H98769   1.476   1.618   5.580  0.2170 -0.9052 -0.3559
  716MOL0     H98770   0.905   1.614   5.790 -2.5980 -1.5793  2.0979
  716MOL0     H98771   0.650   1.589   5.777 -2.7956  1.1314 -2.0178
  716MOL0     H98772   0.406   1.970   5.744 -2.3828  0.0143 -0.8824
  716MOL0     H98773   0.444   1.903   5.580 -0.5867 -2.3814 -0.3511
  716MOL0     H98774   0.279   1.727   5.614  0.8143 -0.8752  0.4752
  716MOL0     H98775   0.246   1.782   5.786  1.0006 -0.9086 -0.1772
  716MOL0     H98776   0.189   1.955   5.541 -0.1547 -0.8796  0.2800
  716MOL0     H98777   0.134   1.986   5.710 -2.0772  0.6267 -1.7596
  716MOL0     H98778  -0.030   1.812   5.704  0.1576 -2.6444 -0.9330
  716MOL0     H98779   0.037   1.754   5.556  1.6688  1.0890 -2.8220
  716MOL0     H98780  -0.076   2.048   5.547 -0.4136 -0.4391 -1.3103
  716MOL0     H98781  -0.035   1.942   5.423  1.8885  2.9631  0.9157
  716MOL0     H98782  -0.250   1.877   5.620  2.3992  3.2048  1.0161
  716MOL0     H98783  -0.211   1.783   5.481  2.0683  1.1352 -2.3854
  716MOL0     H98784  -0.414   1.940   5.463  2.1244 -1.1005  4.2210
  716MOL0     H98785  -0.311   1.909   5.322 -2.5407 -1.4073 -0.0245
  716MOL0     H98786  -0.184   2.133   5.364  0.8445 -3.7050 -0.6079
  716MOL0     H98787  -0.300   2.148   5.498  2.7223  0.1661  0.1185
  716MOL0     H98788   0.623   2.011   5.736  0.3084  0.7076  3.2152
  716MOL0     H98789   0.877   2.038   5.776  2.4545 -1.3257  1.2588
  716MOL0     H98790   1.187   1.852   6.007  0.8999  2.1121 -0.6830
  716MOL0     H98791   1.392   1.835   6.118  0.7311  0.6468  0.4723
  716MOL0     H98792   1.811   2.144   6.786  0.5719 -1.6074  0.8913
  716MOL0     H98793   1.614   2.039   6.860  3.2455 -0.1718 -0.1277
  716MOL0     H98794   1.168   2.116   6.934 -1.9993 -0.9453 -1.1832
  716MOL0     H98795   0.938   2.033   6.960 -1.4700 -0.3549  1.7306
  716MOL0     H98796   0.742   2.045   7.375 -1.3437 -4.6780  0.2859
  716MOL0     H98797   0.704   2.162   7.243 -1.8710  0.4502  1.1209
  716MOL0     H98798   0.519   2.021   7.331 -1.2542 -2.5437  0.9088
  716MOL0     H98799   0.591   1.888   7.258 -0.7302  0.2301  1.6501
  716MOL0     H98800   0.503   2.131   7.104  0.1326  0.3312  0.5860
  716MOL0     H98801   0.597   1.990   7.033 -2.5320 -0.8356 -1.3855
  716MOL0     H98802   0.309   1.996   7.118 -2.4067 -2.7697 -0.7439
  716MOL0     H98803   0.394   1.845   7.121 -3.6680  0.8090  1.8845
  716MOL0     H98804   0.311   1.850   6.720  3.0179  2.4349 -1.0863
  716MOL0     H98805   0.970   2.044   7.380  2.1753  0.4817  0.6105
  716MOL0     H98806   1.303   2.041   7.418 -0.7780 -1.1132 -2.1024
  716MOL0     H98807   1.242   2.208   7.437  1.3714  0.4741 -0.1277
  716MOL0     H98808   1.154   2.060   7.496 -0.3084 -1.7975 -1.3724
  717MOL0     O98809  10.649   5.480   8.194  0.4439 -0.5164 -0.6451
  717MOL0     C98810  10.734   5.493   8.104  0.4567 -0.4200 -0.4175
  717MOL0     O98811  10.780   5.612   8.058 -0.6859  0.5461 -0.0029
  717MOL0     C98812  10.710   5.728   8.054 -0.7078 -0.2836  0.4147
  717MOL0     C98813  10.779   5.834   7.994 -0.2979 -0.7229  0.3391
  717MOL0     C98814  10.717   5.961   7.979  0.0995 -0.9598  0.6316
  717MOL0     C98815  10.575   5.977   8.004 -0.5581 -0.8411 -0.8165
  717MOL0     O98816  10.501   6.093   7.997  0.1096  0.4375  0.0630
  717MOL0     C98817  10.566   6.217   7.958 -0.5047 -0.9675 -0.7015
  717MOL0     C98818  10.473   6.345   7.944 -0.2995  0.0505 -0.6605
  717MOL0     C98819  10.422   6.390   8.082  1.2171  0.6184 -0.7496
  717MOL0     C98820  10.311   6.491   8.057  0.3332  0.2041  0.6421
  717MOL0     C98821  10.257   6.546   8.201  0.0228  0.3183  0.6961
  717MOL0     C98822  10.358   6.623   8.277 -0.6523  0.7671  0.0800
  717MOL0     C98823  10.401   6.747   8.209  0.8783 -0.5614 -0.4140
  717MOL0     C98824  10.477   6.838   8.309  0.0163  1.0077 -0.3105
  717MOL0     N98825  10.521   6.959   8.240  0.5792  0.0904  0.6472
  717MOL0     C98826  10.596   6.957   8.125 -0.1713 -0.6695  0.2684
  717MOL0     C98827  10.600   7.090   8.100 -0.4888 -0.2681 -0.0028
  717MOL0     C98828  10.673   7.148   7.982 -0.1298  0.1659 -0.3603
  717MOL0     C98829  10.831   7.127   8.017  0.9886  0.2987 -0.2727
  717MOL0     C98830  10.912   7.216   7.923  0.3411 -0.6775 -0.6676
  717MOL0     C98831  11.065   7.211   7.939 -0.9037 -0.3608 -0.4786
  717MOL0     O98832  11.131   7.292   7.837 -0.5679 -0.2968  0.2518
  717MOL0     C98833  11.265   7.294   7.814  0.2922 -0.0438  0.4441
  717MOL0     C98834  11.320   7.376   7.712 -0.2039 -0.1265  0.4182
  717MOL0     C98835  11.462   7.383   7.694 -0.0911 -0.5381  0.3748
  717MOL0     C98836  11.505   7.477   7.584 -0.5780 -1.1954 -1.5514
  717MOL0     C98837  11.554   7.306   7.768  0.3379  0.5584  0.2712
  717MOL0     C98838  11.702   7.303   7.747  1.0811  0.2521 -0.3263
  717MOL0     O98839  11.763   7.215   7.842 -0.4694 -0.0075 -1.0961
  717MOL0     C98840  11.893   7.186   7.814  0.2434  0.3035 -0.6407
  717MOL0     C98841  11.954   7.140   7.689  1.4573 -0.2522  0.4452
  717MOL0     C98842  12.089   7.131   7.678  0.0024 -0.2272  0.9441
  717MOL0     C98843  12.174   7.145   7.788  0.2455  0.2852  1.2159
  717MOL0     O98844  12.310   7.114   7.780  0.3580  0.0226 -0.4730
  717MOL0     C98845  12.363   7.070   7.908 -0.1753 -0.1724  1.1812
  717MOL0     C98846  12.498   7.007   7.891 -0.4580  0.2868  0.3074
  717MOL0     C98847  12.480   6.873   7.827  0.1720  0.4947  0.0280
  717MOL0     C98848  12.605   6.802   7.784 -0.3276  0.2885  0.4854
  717MOL0     C98849  12.662   6.862   7.651  0.2412 -0.0869  0.9358
  717MOL0     C98850  12.727   6.739   7.575  0.6801  0.0405  0.1178
  717MOL0     C98851  12.818   6.780   7.459 -0.5160  0.2086 -0.7479
  717MOL0     C98852  12.762   6.854   7.338  0.1922 -0.4131  0.3930
  717MOL0    Cl98853  12.771   7.039   7.362 -0.0156  0.3441  0.1484
  717MOL0     C98854  12.118   7.180   7.915  0.5323 -0.0147 -0.2760
  717MOL0     C98855  11.978   7.201   7.925  0.2041  0.4311 -0.3422
  717MOL0     O98856  11.766   7.360   7.658  0.7142  0.2534 -0.5432
  717MOL0     C98857  11.492   7.215   7.858  0.7584  0.6474  0.7751
  717MOL0     C98858  11.352   7.210   7.881 -0.6872 -1.1178 -0.9789
  717MOL0     N98859  10.530   7.167   8.193  0.0392  0.3840  0.2656
  717MOL0     N98860  10.486   7.083   8.281 -0.4878 -0.4480 -0.5021
  717MOL0     C98861  10.510   5.872   8.066 -0.5313  0.4222  0.3175
  717MOL0     C98862  10.574   5.754   8.077  0.5686 -1.2936 -0.2212
  717MOL0     C98863  10.810   5.372   8.049 -0.0979  0.1717  0.2354
  717MOL0     C98864  10.929   5.400   7.970  0.7807 -0.6864 -1.1252
  717MOL0     C98865  11.018   5.289   7.934 -0.1006 -0.5118 -0.2114
  717MOL0     C98866  10.991   5.156   7.963  0.4008 -1.0535 -0.1327
  717MOL0     O98867  11.070   5.054   7.914 -0.1749 -0.0270  0.6836
  717MOL0     C98868  11.021   4.921   7.907  0.0901  0.0107  0.8491
  717MOL0     C98869  11.032   4.836   8.038 -0.2968 -0.0586 -0.3714
  717MOL0     C98870  10.970   4.697   8.033  0.3771  0.5676  0.0471
  717MOL0     C98871  10.821   4.690   7.990 -0.2248  0.4066  0.3899
  717MOL0     C98872  10.743   4.752   8.099 -0.3565  0.5712  0.1230
  717MOL0     C98873  10.685   4.797   8.197  0.3768 -0.5859 -0.7351
  717MOL0     C98874  10.871   5.135   8.030  0.0305 -0.4860  0.0568
  717MOL0     C98875  10.782   5.236   8.076  0.2243 -0.0411 -0.8652
  717MOL0     C98876  10.661   5.194   8.156  0.1830 -0.4309  0.1532
  717MOL0     H98877  10.880   5.827   7.954 -0.8155  0.7823 -1.3559
  717MOL0     H98878  10.774   6.048   7.948  1.6213 -1.6506  1.4009
  717MOL0     H98879  10.624   6.198   7.868 -3.3090 -0.0049 -2.8449
  717MOL0     H98880  10.638   6.245   8.036 -1.3721  2.0247 -0.8263
  717MOL0     H98881  10.535   6.424   7.902 -0.4299  1.4580  1.6162
  717MOL0     H98882  10.384   6.305   7.894  1.3371 -3.5012 -1.0889
  717MOL0     H98883  10.392   6.305   8.144  1.1822  1.2596  0.1429
  717MOL0     H98884  10.503   6.423   8.147  0.5033 -2.0723  1.7076
  717MOL0     H98885  10.349   6.567   7.988  0.3335  0.1112  0.5387
  717MOL0     H98886  10.232   6.443   7.999  0.4052  1.0970 -0.2270
  717MOL0     H98887  10.213   6.470   8.267 -1.3306 -0.2013 -0.7502
  717MOL0     H98888  10.172   6.615   8.191 -1.8246 -1.8862  0.2969
  717MOL0     H98889  10.299   6.656   8.363  0.3809  0.3725  0.9525
  717MOL0     H98890  10.432   6.549   8.309 -0.2795  0.2862 -1.7775
  717MOL0     H98891  10.318   6.813   8.182  1.9885  1.8661  1.5732
  717MOL0     H98892  10.464   6.718   8.125  0.9441  1.1252 -0.9947
  717MOL0     H98893  10.422   6.859   8.401  1.9694  0.8745  0.9517
  717MOL0     H98894  10.573   6.794   8.336 -1.1466 -1.4457  0.1351
  717MOL0     H98895  10.634   6.874   8.066  0.7664  0.6831 -1.1095
  717MOL0     H98896  10.645   7.253   7.983 -1.1069 -0.0607  1.8447
  717MOL0     H98897  10.647   7.100   7.886  1.2687  0.3895 -0.8747
  717MOL0     H98898  10.853   7.173   8.113 -0.8473  1.5893 -0.4188
  717MOL0     H98899  10.859   7.022   8.004  0.4301  0.4073 -3.1905
  717MOL0     H98900  10.892   7.199   7.816 -2.6244 -1.0589 -0.1356
  717MOL0     H98901  10.888   7.320   7.948  2.2721 -0.3096 -0.2282
  717MOL0     H98902  11.079   7.258   8.037 -1.8566  0.1154 -0.5594
  717MOL0     H98903  11.115   7.114   7.942 -1.1914 -0.6146 -2.6384
  717MOL0     H98904  11.253   7.430   7.646 -0.5509 -0.4486  0.5006
  717MOL0     H98905  11.564   7.430   7.504 -1.7794 -2.5464 -1.6829
  717MOL0     H98906  11.553   7.564   7.629 -5.0875  0.5746  0.3650
  717MOL0     H98907  11.415   7.518   7.539 -2.3978 -0.9998  1.9499
  717MOL0     H98908  11.899   7.131   7.596  0.8198 -1.2237  0.8998
  717MOL0     H98909  12.131   7.113   7.579 -0.0119 -0.0958  0.9142
  717MOL0     H98910  12.371   7.157   7.974  1.3932 -0.7524  1.7933
  717MOL0     H98911  12.291   7.007   7.962  0.7402 -2.1395  0.2256
  717MOL0     H98912  12.570   7.061   7.829 -0.0806 -2.5215 -1.8795
  717MOL0     H98913  12.536   7.011   7.994 -0.6651  4.1060  0.4052
  717MOL0     H98914  12.410   6.882   7.744  1.3321  3.2859 -0.7478
  717MOL0     H98915  12.437   6.810   7.906 -1.7444  0.8836 -0.6487
  717MOL0     H98916  12.587   6.694   7.774 -1.5422  0.6073 -1.2466
  717MOL0     H98917  12.681   6.798   7.862  0.4651  1.0790 -0.2157
  717MOL0     H98918  12.582   6.905   7.591  1.4613  0.3516 -0.4279
  717MOL0     H98919  12.737   6.936   7.679 -1.3056  2.8453 -2.0803
  717MOL0     H98920  12.641   6.680   7.541  0.4643  2.3377 -4.0955
  717MOL0     H98921  12.783   6.679   7.646 -0.6030 -2.3505 -0.7778
  717MOL0     H98922  12.876   6.693   7.428  0.1101 -0.2651  1.5616
  717MOL0     H98923  12.895   6.844   7.502  2.2517 -2.2171 -1.7241
  717MOL0     H98924  12.662   6.818   7.311  1.4123 -1.9604 -2.4330
  717MOL0     H98925  12.824   6.829   7.252 -2.6654 -1.3257 -1.5672
  717MOL0     H98926  12.169   7.182   8.010 -1.8769 -2.7572  1.2295
  717MOL0     H98927  11.937   7.195   8.025  1.1138  0.0376  0.0226
  717MOL0     H98928  11.548   7.135   7.905  1.7779  1.0902  0.3404
  717MOL0     H98929  11.317   7.144   7.959 -0.7686  2.9040  2.8368
  717MOL0     H98930  10.405   5.863   8.093 -0.1557 -2.3167  1.1752
  717MOL0     H98931  10.526   5.665   8.115  0.8407 -1.2609  0.2166
  717MOL0     H98932  10.951   5.503   7.942  2.4756 -0.4788  0.7131
  717MOL0     H98933  11.102   5.323   7.874  0.7014  1.6726  1.9551
  717MOL0     H98934  10.917   4.911   7.874 -0.4068 -0.4204  2.4918
  717MOL0     H98935  11.074   4.861   7.831  0.3661 -0.8942  1.7355
  717MOL0     H98936  10.989   4.886   8.125  2.1358 -1.8790  2.0688
  717MOL0     H98937  11.136   4.820   8.067 -0.6278  1.6308  2.0694
  717MOL0     H98938  11.030   4.637   7.965  0.8800 -1.2053  1.9535
  717MOL0     H98939  10.979   4.649   8.131  0.8459  1.7098  0.5771
  717MOL0     H98940  10.804   4.582   7.980  0.5957  0.0787  2.1431
  717MOL0     H98941  10.803   4.735   7.892 -0.5651 -1.3478 -0.3882
  717MOL0     H98942  10.632   4.834   8.282 -2.7176  0.4392 -2.9017
  717MOL0     H98943  10.847   5.032   8.055  1.0307 -1.5626 -2.9620
  717MOL0     H98944  10.565   5.235   8.125  1.3932  1.3670 -1.4910
  717MOL0     H98945  10.639   5.087   8.157  1.3851 -0.6977  1.1052
  717MOL0     H98946  10.683   5.233   8.255 -1.7877  1.4270 -0.0725
  718MOL0     O98947  11.032   0.959   5.033 -0.0835  0.2642 -0.2554
  718MOL0     C98948  10.985   0.885   5.112 -0.2942 -0.2547 -0.6100
  718MOL0     O98949  11.046   0.774   5.177 -0.0470 -0.0029 -0.0475
  718MOL0     C98950  11.171   0.735   5.134 -0.0366  0.1472  0.0483
  718MOL0     C98951  11.277   0.824   5.095  0.2745 -0.3002  0.1250
  718MOL0     C98952  11.395   0.765   5.060 -0.5998  0.0244  0.4833
  718MOL0     C98953  11.422   0.630   5.052 -0.5001 -0.7885 -0.3214
  718MOL0     O98954  11.546   0.567   5.031  0.4865  0.1134  0.1875
  718MOL0     C98955  11.657   0.649   5.006 -0.8045  0.2527 -0.1362
  718MOL0     C98956  11.704   0.690   5.140  0.4990 -0.2705 -1.1447
  718MOL0     C98957  11.855   0.692   5.152 -1.3365 -0.3915 -0.1242
  718MOL0     C98958  11.900   0.751   5.288 -0.1022  0.2729 -0.4840
  718MOL0     C98959  12.048   0.724   5.317 -1.1546 -0.7453 -0.3611
  718MOL0     C98960  12.100   0.813   5.439  0.0861  0.7983  1.2937
  718MOL0     C98961  12.049   0.762   5.580  0.3071  0.0277  0.0624
  718MOL0     C98962  12.085   0.845   5.702  0.3509 -0.2925  0.0587
  718MOL0     N98963  12.214   0.798   5.751  0.1008 -0.1803 -0.7398
  718MOL0     C98964  12.325   0.862   5.714  0.2671 -0.8839  0.1613
  718MOL0     C98965  12.423   0.790   5.769 -0.8533 -1.0266 -0.7490
  718MOL0     C98966  12.562   0.833   5.749 -0.5836  0.8092  0.2134
  718MOL0     C98967  12.609   0.886   5.887 -0.6459  0.1167 -0.0413
  718MOL0     C98968  12.755   0.913   5.886 -0.4521 -0.6254  0.6809
  718MOL0     C98969  12.808   1.034   5.809 -0.1657  0.0147 -0.3547
  718MOL0     O98970  12.946   1.052   5.862  0.5609  0.1973 -0.6511
  718MOL0     C98971  13.018   1.160   5.817 -1.0342  0.1162  0.3459
  718MOL0     C98972  13.135   1.188   5.879 -0.3199 -0.4378 -0.0124
  718MOL0     C98973  13.216   1.292   5.835 -1.0557 -0.0582  0.4104
  718MOL0     C98974  13.353   1.296   5.909  0.0277  0.5977 -0.4834
  718MOL0     C98975  13.184   1.369   5.718  0.1309 -0.5083 -0.4192
  718MOL0     C98976  13.281   1.451   5.634  0.0660  1.3669 -0.3318
  718MOL0     O98977  13.267   1.439   5.499 -0.2507 -0.4294 -0.4330
  718MOL0     C98978  13.344   1.504   5.412  0.3096  0.6181  0.2101
  718MOL0     C98979  13.355   1.640   5.405  0.8566  0.0635  0.5208
  718MOL0     C98980  13.435   1.700   5.309 -0.3967  0.1873 -0.3672
  718MOL0     C98981  13.509   1.621   5.217  0.4976  0.3257 -0.3756
  718MOL0     O98982  13.584   1.680   5.122 -0.1370 -1.0339 -1.0448
  718MOL0     C98983  13.723   1.679   5.138 -1.1632 -0.6061  0.5921
  718MOL0     C98984  13.790   1.725   5.004 -0.2492 -0.1257 -0.2781
  718MOL0     C98985  13.942   1.773   5.025 -0.0598  0.0332  0.4073
  718MOL0     C98986  14.032   1.662   5.070  0.4139  0.2548  0.1326
  718MOL0     C98987  14.172   1.710   5.060  0.1438  0.0051 -0.0028
  718MOL0     C98988  14.271   1.613   5.133  0.0435 -0.4215 -0.9605
  718MOL0     C98989  14.414   1.660   5.128 -1.1433  0.3875  0.3349
  718MOL0     C98990  14.446   1.793   5.196  0.0481  0.7788 -0.1104
  718MOL0    Cl98991  14.453   1.763   5.377 -0.1765  0.1301  0.2559
  718MOL0     C98992  13.496   1.490   5.228 -0.1216  0.4819  0.4101
  718MOL0     C98993  13.422   1.428   5.323 -0.0977 -0.4101  0.0722
  718MOL0     O98994  13.370   1.517   5.694 -0.2680  0.2917 -0.1237
  718MOL0     C98995  13.053   1.350   5.664  0.3451  0.7218 -0.4627
  718MOL0     C98996  12.980   1.247   5.715 -0.3825  0.3814  0.0516
  718MOL0     N98997  12.375   0.699   5.862  0.0622  0.8796  0.2135
  718MOL0     N98998  12.246   0.691   5.841 -0.0153 -0.1178 -0.0241
  718MOL0     C98999  11.324   0.547   5.100  1.0226  0.7849  0.9436
  718MOL0     C99000  11.201   0.596   5.138  0.3773  0.2647 -0.5154
  718MOL0     C99001  10.857   0.920   5.165 -0.3224 -0.7436  0.0055
  718MOL0     C99002  10.828   0.891   5.303 -0.5507  0.1958  0.3622
  718MOL0     C99003  10.703   0.919   5.338  0.6876  0.7220 -0.1193
  718MOL0     C99004  10.604   0.990   5.264  0.7090 -0.0952 -0.2252
  718MOL0     O99005  10.481   1.046   5.308 -0.1081 -0.2133 -0.1098
  718MOL0     C99006  10.471   1.071   5.451  0.0679 -0.0637  0.8023
  718MOL0     C99007  10.421   0.946   5.525  0.0818 -0.0929 -0.3669
  718MOL0     C99008  10.275   0.907   5.510 -0.2921  0.5185  0.8457
  718MOL0     C99009  10.230   0.785   5.586  0.1644 -0.0473 -0.9612
  718MOL0     C99010  10.080   0.762   5.577  0.1753  0.7718  0.5710
  718MOL0     C99011   9.957   0.757   5.566  0.2913 -0.3589  0.5645
  718MOL0     C99012  10.629   1.011   5.135 -0.1530 -0.3334 -0.5176
  718MOL0     C99013  10.751   0.977   5.080 -0.5100  0.1954  0.7408
  718MOL0     C99014  10.761   0.995   4.929 -0.0604 -0.6010  0.0968
  718MOL0     H99015  11.268   0.932   5.099 -0.1736 -0.2885 -0.7378
  718MOL0     H99016  11.478   0.834   5.045 -1.0782  1.0208  2.1678
  718MOL0     H99017  11.647   0.737   4.941 -0.7348  0.4549  0.1274
  718MOL0     H99018  11.732   0.585   4.959  0.8670  1.5823  0.6188
  718MOL0     H99019  11.675   0.792   5.167 -0.1616 -1.3223  2.8142
  718MOL0     H99020  11.666   0.629   5.223 -1.3527  0.7155 -1.2032
  718MOL0     H99021  11.887   0.588   5.148 -2.6944 -0.8029 -1.6095
  718MOL0     H99022  11.900   0.736   5.063  0.5246 -1.8798  0.0137
  718MOL0     H99023  11.882   0.859   5.296 -2.3558 -0.0704 -0.2256
  718MOL0     H99024  11.847   0.697   5.368  1.0303  1.3173  1.0297
  718MOL0     H99025  12.107   0.760   5.232  0.0812  0.0981  0.8086
  718MOL0     H99026  12.088   0.623   5.329 -1.3647 -0.7948 -0.0823
  718MOL0     H99027  12.209   0.814   5.433  0.1975 -1.0703  2.1837
  718MOL0     H99028  12.053   0.911   5.427  0.3112  0.5235 -3.7912
  718MOL0     H99029  12.100   0.665   5.586  3.1613  1.4075 -0.1709
  718MOL0     H99030  11.941   0.747   5.577  0.3597 -2.5419  3.7741
  718MOL0     H99031  12.086   0.953   5.684 -1.4699 -0.4209 -1.1371
  718MOL0     H99032  12.003   0.826   5.772  0.3678  0.8145  0.4067
  718MOL0     H99033  12.329   0.940   5.639 -2.7691  0.7654  1.5263
  718MOL0     H99034  12.570   0.913   5.674 -1.2074  2.0098  1.3878
  718MOL0     H99035  12.630   0.752   5.719  1.0037  1.3127  2.1795
  718MOL0     H99036  12.559   0.981   5.907 -0.1037 -0.1979  3.4112
  718MOL0     H99037  12.586   0.816   5.968 -1.2462 -0.6335 -0.8298
  718MOL0     H99038  12.763   0.932   5.993 -1.2140 -0.8719  0.7829
  718MOL0     H99039  12.813   0.825   5.856  0.4084  0.0687  0.2372
  718MOL0     H99040  12.824   1.015   5.703  1.9251  1.3558 -0.3476
  718MOL0     H99041  12.744   1.120   5.828 -0.9917 -0.9130  1.2361
  718MOL0     H99042  13.166   1.128   5.964  4.1834  1.4768 -0.0205
  718MOL0     H99043  13.423   1.346   5.840  0.1846 -1.8001 -2.1775
  718MOL0     H99044  13.394   1.195   5.920 -0.6231  0.5955  3.4649
  718MOL0     H99045  13.352   1.351   6.004  2.0927  0.4717 -0.3358
  718MOL0     H99046  13.292   1.698   5.472  2.2555  0.2378  1.7300
  718MOL0     H99047  13.457   1.805   5.294  2.1051 -0.3867 -1.1050
  718MOL0     H99048  13.745   1.754   5.215  0.8947 -0.4238 -0.1114
  718MOL0     H99049  13.773   1.587   5.168 -0.3929  0.2203  1.9769
  718MOL0     H99050  13.786   1.650   4.924 -1.7978  0.6642 -0.9772
  718MOL0     H99051  13.738   1.809   4.959  2.2430  0.5279 -2.1845
  718MOL0     H99052  13.948   1.848   5.104 -1.4855 -1.3250  1.8834
  718MOL0     H99053  13.990   1.805   4.932  0.4004  1.8308  1.2185
  718MOL0     H99054  14.026   1.588   4.989  0.5400  1.6320 -1.1727
  718MOL0     H99055  13.999   1.629   5.169 -1.8457  3.1355  0.4697
  718MOL0     H99056  14.204   1.748   4.962 -2.4722  3.3304  0.2701
  718MOL0     H99057  14.184   1.807   5.109 -1.3780 -1.0339  2.5898
  718MOL0     H99058  14.262   1.510   5.097  0.1385 -0.9420  0.4348
  718MOL0     H99059  14.244   1.603   5.238  1.9338  1.1922 -0.2703
  718MOL0     H99060  14.444   1.665   5.023  1.4319 -1.6373  0.8832
  718MOL0     H99061  14.464   1.574   5.174 -3.2649 -0.9820  0.1980
  718MOL0     H99062  14.369   1.866   5.168  0.1080  0.1548 -2.0739
  718MOL0     H99063  14.539   1.843   5.169  0.3990  0.4258  0.4158
  718MOL0     H99064  13.549   1.426   5.159  0.0955 -0.5244  1.4903
  718MOL0     H99065  13.407   1.320   5.318  3.1333 -0.9503 -0.1869
  718MOL0     H99066  13.013   1.402   5.578  0.1306 -1.7926 -1.9921
  718MOL0     H99067  12.882   1.248   5.668  0.1027  1.4057 -0.9937
  718MOL0     H99068  11.337   0.440   5.111  1.5321  0.8295  0.8156
  718MOL0     H99069  11.128   0.520   5.163  0.4714 -0.4308 -2.1784
  718MOL0     H99070  10.890   0.850   5.381  2.2747  1.9656 -0.8281
  718MOL0     H99071  10.683   0.888   5.440  1.6642 -2.5504 -0.7981
  718MOL0     H99072  10.574   1.104   5.469  0.3658 -0.1866 -0.5475
  718MOL0     H99073  10.409   1.159   5.471 -1.4330 -0.9177  0.1201
  718MOL0     H99074  10.430   0.972   5.630 -0.5017  3.9466 -1.1666
  718MOL0     H99075  10.481   0.856   5.506 -0.5595 -0.3889 -1.0659
  718MOL0     H99076  10.207   0.990   5.533 -1.7808 -0.7170  1.0372
  718MOL0     H99077  10.256   0.889   5.404 -0.8527 -0.1828  1.0610
  718MOL0     H99078  10.266   0.796   5.689 -1.1930  0.4495 -0.5123
  718MOL0     H99079  10.280   0.691   5.560  0.7464 -0.6048  1.8486
  718MOL0     H99080   9.850   0.765   5.562  0.4359  3.4728  0.2663
  718MOL0     H99081  10.550   1.042   5.067  3.6253  1.4562 -4.5719
  718MOL0     H99082  10.677   0.947   4.878 -0.2981 -0.1227  0.0317
  718MOL0     H99083  10.749   1.101   4.906  0.2503  0.3423  3.6166
  718MOL0     H99084  10.853   0.961   4.881 -0.1693 -1.1674  0.2863
  719MOL0     O99085   0.397   3.254   6.813  0.1237 -0.5345 -0.5498
  719MOL0     C99086   0.312   3.252   6.721 -0.0622 -0.3071  0.0604
  719MOL0     O99087   0.344   3.225   6.585 -0.0883  0.3517 -0.3320
  719MOL0     C99088   0.463   3.164   6.565 -0.7448 -0.0939 -0.2885
  719MOL0     C99089   0.581   3.239   6.575  0.0031  0.7604 -0.6072
  719MOL0     C99090   0.705   3.173   6.556  0.6435  0.6063  0.7740
  719MOL0     C99091   0.715   3.034   6.522  0.0035 -0.1862 -0.1892
  719MOL0     O99092   0.824   2.956   6.497 -0.1142 -1.2856 -0.3920
  719MOL0     C99093   0.940   3.036   6.491  0.1419 -0.0991  0.1865
  719MOL0     C99094   1.066   2.953   6.473 -0.5033 -1.4286  0.1987
  719MOL0     C99095   1.057   2.878   6.350 -0.1552  0.8201 -0.2314
  719MOL0     C99096   1.159   2.768   6.329 -0.2764  1.0194  0.6594
  719MOL0     C99097   1.306   2.816   6.315 -0.0792  0.1557 -0.5064
  719MOL0     C99098   1.412   2.700   6.310  0.7271  0.0525 -0.3791
  719MOL0     C99099   1.418   2.638   6.449  0.2769 -0.5643  0.1524
  719MOL0     C99100   1.529   2.539   6.463  0.4515 -0.5826  0.1499
  719MOL0     N99101   1.656   2.611   6.442 -0.0197  0.7106  1.1144
  719MOL0     C99102   1.735   2.618   6.329  0.0193  0.6330 -0.6405
  719MOL0     C99103   1.858   2.655   6.375  0.2371  0.1435 -0.0949
  719MOL0     C99104   1.987   2.637   6.290  0.2939  0.3357  0.8113
  719MOL0     C99105   2.019   2.493   6.261  0.4329  0.4260 -0.0810
  719MOL0     C99106   2.147   2.483   6.168  0.0200 -0.3038 -1.1631
  719MOL0     C99107   2.169   2.331   6.140  0.6703 -0.4216  0.6408
  719MOL0     O99108   2.271   2.312   6.038  0.9163  0.1814  0.6898
  719MOL0     C99109   2.274   2.196   5.972 -0.1450  0.2087 -0.2022
  719MOL0     C99110   2.377   2.181   5.888  0.5647 -0.2466 -0.3417
  719MOL0     C99111   2.404   2.072   5.813 -0.4116 -0.1881  1.2065
  719MOL0     C99112   2.545   2.075   5.748  0.1621  0.0158 -0.0036
  719MOL0     C99113   2.319   1.955   5.819  1.1994 -0.4251  0.0667
  719MOL0     C99114   2.342   1.828   5.757 -0.0430 -0.0212  0.2464
  719MOL0     O99115   2.228   1.761   5.735 -1.0206  0.8350  0.2241
  719MOL0     C99116   2.246   1.629   5.706 -0.6744  0.3748  0.1134
  719MOL0     C99117   2.200   1.593   5.583  0.6007  1.3644  0.6386
  719MOL0     C99118   2.205   1.465   5.542  1.3731 -0.4098 -0.6806
  719MOL0     C99119   2.263   1.361   5.620  0.1994  0.3699  1.0686
  719MOL0     O99120   2.277   1.237   5.565 -0.0565  0.6897 -0.2042
  719MOL0     C99121   2.209   1.125   5.642  0.5888  0.3175  0.2693
  719MOL0     C99122   2.053   1.111   5.617  0.4025 -0.5572 -0.5895
  719MOL0     C99123   1.968   1.003   5.689  1.0650 -0.2402 -0.7892
  719MOL0     C99124   2.024   0.855   5.691  0.0359  0.0345 -0.4467
  719MOL0     C99125   1.929   0.769   5.786 -1.0240  0.4843  0.1028
  719MOL0     C99126   1.998   0.627   5.780 -1.0237  0.5201  0.0602
  719MOL0     C99127   1.925   0.515   5.872  0.3539 -0.5829  0.1203
  719MOL0     C99128   2.014   0.399   5.917  0.5086 -0.4855  0.3424
  719MOL0    Cl99129   2.060   0.302   5.787  0.7156  0.4640 -0.0267
  719MOL0     C99130   2.322   1.396   5.747  0.4150  0.3426  0.5727
  719MOL0     C99131   2.306   1.528   5.794  0.3019 -0.4871  0.1367
  719MOL0     O99132   2.457   1.785   5.738  0.0349  0.3588  0.2508
  719MOL0     C99133   2.199   1.973   5.897 -0.1563 -1.1451 -0.1182
  719MOL0     C99134   2.183   2.094   5.970  0.7805 -0.5634  0.1413
  719MOL0     N99135   1.858   2.678   6.505  1.3901 -0.7865 -0.7965
  719MOL0     N99136   1.739   2.638   6.549  0.9530 -0.2061 -1.2275
  719MOL0     C99137   0.590   2.963   6.512  0.1437 -0.3805 -0.0010
  719MOL0     C99138   0.466   3.026   6.531 -0.2330 -0.4674 -0.7458
  719MOL0     C99139   0.168   3.302   6.749  0.3240 -0.6641  0.7174
  719MOL0     C99140   0.072   3.292   6.643  0.2663 -0.0175 -0.2152
  719MOL0     C99141  -0.060   3.328   6.662  0.6121  0.5580  0.7036
  719MOL0     C99142  -0.099   3.390   6.780  0.0874 -1.2651  0.4217
  719MOL0     O99143  -0.227   3.437   6.789 -0.0165  1.0007 -0.1548
  719MOL0     C99144  -0.311   3.472   6.670  0.6092 -0.1990 -0.1393
  719MOL0     C99145  -0.248   3.578   6.583 -0.3863  0.8505  0.2876
  719MOL0     C99146  -0.227   3.712   6.658  0.4684  0.1956 -0.5467
  719MOL0     C99147  -0.118   3.726   6.758  0.3750 -0.4345 -0.5926
  719MOL0     C99148  -0.099   3.865   6.786 -0.9090 -0.0767  1.2830
  719MOL0     C99149  -0.078   3.984   6.808  0.9418  0.0888  0.7419
  719MOL0     C99150  -0.001   3.417   6.876  0.4482  0.0216 -0.0954
  719MOL0     C99151   0.121   3.357   6.871 -0.4479  0.0491  0.3387
  719MOL0     C99152   0.221   3.383   6.989  1.0389  0.9240  0.4346
  719MOL0     H99153   0.573   3.344   6.601  3.3703  0.8294  0.7169
  719MOL0     H99154   0.797   3.231   6.557  2.6484 -2.2349 -1.0397
  719MOL0     H99155   0.961   3.100   6.577  0.5154 -1.7936  1.4104
  719MOL0     H99156   0.926   3.101   6.404  0.3697  0.6790  0.7208
  719MOL0     H99157   1.150   3.022   6.463 -1.9535  0.2893 -0.7280
  719MOL0     H99158   1.082   2.893   6.564 -3.1527 -0.9047  1.1036
  719MOL0     H99159   0.964   2.820   6.357  0.3454  0.0436  0.1083
  719MOL0     H99160   1.041   2.940   6.262  1.7018 -0.4967 -1.5674
  719MOL0     H99161   1.159   2.694   6.409  1.9243 -2.2865 -2.0992
  719MOL0     H99162   1.128   2.723   6.234 -0.9504  1.3021  0.7393
  719MOL0     H99163   1.327   2.875   6.405  1.4269 -3.0220  1.4119
  719MOL0     H99164   1.324   2.881   6.229  4.0951  0.3905  0.2919
  719MOL0     H99165   1.367   2.627   6.242 -0.7402  2.4752 -2.2000
  719MOL0     H99166   1.508   2.736   6.272  0.0422  3.0362  0.4449
  719MOL0     H99167   1.328   2.577   6.460  1.8373 -2.7863  1.5110
  719MOL0     H99168   1.423   2.706   6.534 -1.4188  0.0354 -0.1953
  719MOL0     H99169   1.519   2.482   6.555 -2.8849  1.4279  1.2227
  719MOL0     H99170   1.526   2.462   6.385 -0.3606  1.9104 -2.4921
  719MOL0     H99171   1.711   2.589   6.227  0.9908  4.1437 -2.0302
  719MOL0     H99172   2.075   2.689   6.328  1.1219  1.3380 -2.1728
  719MOL0     H99173   1.958   2.683   6.194  0.6418 -0.8461  0.1173
  719MOL0     H99174   2.037   2.439   6.355  0.9907 -0.0176 -0.4402
  719MOL0     H99175   1.932   2.445   6.216 -0.1201  1.5983 -0.3073
  719MOL0     H99176   2.120   2.539   6.078 -0.7644 -0.9045 -1.3145
  719MOL0     H99177   2.234   2.529   6.217 -2.8745  2.7528  1.5589
  719MOL0     H99178   2.203   2.280   6.230 -0.9975 -1.6397  0.6288
  719MOL0     H99179   2.073   2.291   6.108  0.7171  1.4537 -2.2019
  719MOL0     H99180   2.443   2.267   5.891  1.0718 -0.5283  4.4139
  719MOL0     H99181   2.563   2.024   5.653  0.6423 -1.8698  1.0569
  719MOL0     H99182   2.619   2.035   5.816  0.9185 -0.1684 -0.9166
  719MOL0     H99183   2.582   2.175   5.724  5.5935 -1.9094 -0.9574
  719MOL0     H99184   2.159   1.673   5.523 -0.4764  1.3260  1.2901
  719MOL0     H99185   2.165   1.454   5.442  1.4268  0.6863 -0.8385
  719MOL0     H99186   2.265   1.032   5.631  0.3354  0.2148 -0.1977
  719MOL0     H99187   2.220   1.151   5.747 -1.8321 -2.2318  1.2880
  719MOL0     H99188   2.012   1.203   5.660  1.4780 -0.6760  0.7773
  719MOL0     H99189   2.044   1.101   5.509 -0.4546 -1.3799 -0.4595
  719MOL0     H99190   1.866   1.000   5.650 -0.1177  0.9131  1.9592
  719MOL0     H99191   1.956   1.029   5.794  1.9765  3.4332 -1.4561
  719MOL0     H99192   2.128   0.851   5.727 -0.3334 -0.5165  0.6089
  719MOL0     H99193   2.038   0.813   5.591  1.0963 -0.6388 -0.0464
  719MOL0     H99194   1.922   0.807   5.888  4.6865  0.3619  0.8441
  719MOL0     H99195   1.829   0.778   5.743 -0.1082  2.2621 -1.7811
  719MOL0     H99196   2.103   0.628   5.813 -0.8082 -2.6065 -0.1976
  719MOL0     H99197   2.011   0.588   5.679  2.3156  0.1967  0.4883
  719MOL0     H99198   1.844   0.467   5.816  1.4911 -3.0405  0.4263
  719MOL0     H99199   1.870   0.558   5.955  1.6114  0.7722  0.2875
  719MOL0     H99200   1.964   0.326   5.982 -1.2560 -0.3966 -0.8292
  719MOL0     H99201   2.104   0.444   5.960  0.2203  0.1512  0.2965
  719MOL0     H99202   2.384   1.328   5.805  1.4381 -0.7468 -1.6820
  719MOL0     H99203   2.351   1.551   5.890 -0.6770  1.1679  0.2295
  719MOL0     H99204   2.120   1.899   5.908 -1.1008 -0.2012 -0.3705
  719MOL0     H99205   2.093   2.116   6.028 -0.0949  0.1825 -1.4437
  719MOL0     H99206   0.582   2.859   6.483 -1.2715 -0.4590  0.5963
  719MOL0     H99207   0.371   2.975   6.519 -0.3642 -0.1501 -1.0723
  719MOL0     H99208   0.109   3.266   6.545 -3.7992  1.7093 -2.3982
  719MOL0     H99209  -0.125   3.313   6.576  1.7551 -0.8216  0.0503
  719MOL0     H99210  -0.332   3.389   6.602 -0.1957 -0.8283  0.8423
  719MOL0     H99211  -0.410   3.503   6.704  0.0329 -2.5853  0.5350
  719MOL0     H99212  -0.310   3.577   6.493  1.9075  0.7350 -1.3811
  719MOL0     H99213  -0.151   3.548   6.543 -1.0647 -1.2149  0.0674
  719MOL0     H99214  -0.215   3.793   6.585  1.7824  0.8312  0.3281
  719MOL0     H99215  -0.313   3.727   6.723  1.6349 -3.7868  2.3137
  719MOL0     H99216  -0.024   3.694   6.713 -0.2711 -2.5675 -0.5404
  719MOL0     H99217  -0.124   3.682   6.858 -0.6466  0.5557 -0.1995
  719MOL0     H99218  -0.061   4.088   6.826 -1.0826  0.4871  0.5999
  719MOL0     H99219  -0.020   3.479   6.963  1.5151  1.9192 -1.1360
  719MOL0     H99220   0.313   3.429   6.952  1.3637  1.0534  1.3740
  719MOL0     H99221   0.182   3.458   7.058 -0.3688 -0.1699  0.8681
  719MOL0     H99222   0.240   3.287   7.036 -1.4672 -0.2806 -0.8329
  720MOL0     O99223   3.799   7.107   3.441 -0.0578  0.1626 -0.5230
  720MOL0     C99224   3.815   7.231   3.447 -0.5203  0.2695 -0.3504
  720MOL0     O99225   3.725   7.321   3.407 -0.4482 -0.4594  0.0634
  720MOL0     C99226   3.597   7.285   3.374 -0.5816 -1.2566 -0.3308
  720MOL0     C99227   3.560   7.184   3.288  1.5572  0.6308 -0.0525
  720MOL0     C99228   3.429   7.165   3.234  0.7785  0.2389  0.6105
  720MOL0     C99229   3.321   7.245   3.276  0.1405 -1.0041  1.4807
  720MOL0     O99230   3.187   7.224   3.235 -0.3520 -0.2625  0.4926
  720MOL0     C99231   3.152   7.103   3.171  0.1584 -0.3810 -0.1801
  720MOL0     C99232   3.001   7.072   3.212  0.9113  0.3968  0.6351
  720MOL0     C99233   2.912   7.191   3.175  0.2513 -0.1534  0.8800
  720MOL0     C99234   2.887   7.198   3.024  0.3604 -0.3458 -0.4050
  720MOL0     C99235   2.816   7.327   3.000  0.1766  0.0112 -0.1782
  720MOL0     C99236   2.664   7.308   3.019  0.2977  0.6604 -1.0119
  720MOL0     C99237   2.605   7.443   2.976 -0.1545 -0.5071  0.2870
  720MOL0     C99238   2.458   7.445   2.960  0.0841 -0.3484 -0.1734
  720MOL0     N99239   2.404   7.581   2.964  0.8562 -0.7467  0.5237
  720MOL0     C99240   2.300   7.630   3.039 -0.3224 -0.5991  0.4727
  720MOL0     C99241   2.299   7.764   3.017  0.0373 -0.1557  0.2993
  720MOL0     C99242   2.190   7.854   3.080 -0.4964  0.1972 -0.1911
  720MOL0     C99243   2.112   7.919   2.972  0.4825 -0.2223  0.0208
  720MOL0     C99244   2.039   7.819   2.893  0.1062 -0.2166  0.9977
  720MOL0     C99245   1.941   7.884   2.793 -0.1858 -0.1200 -0.5581
  720MOL0     O99246   1.822   7.915   2.870 -0.7940 -0.2679  0.1376
  720MOL0     C99247   1.703   7.848   2.856  0.5528 -0.0739  0.0355
  720MOL0     C99248   1.603   7.900   2.937  0.6776  0.1162 -0.1708
  720MOL0     C99249   1.480   7.838   2.943  0.3574  0.0544  0.1670
  720MOL0     C99250   1.370   7.904   3.018  0.0581 -0.4523 -0.0599
  720MOL0     C99251   1.462   7.712   2.876 -0.0667  0.4768 -0.0129
  720MOL0     C99252   1.332   7.646   2.859  0.1538 -0.1610  0.0662
  720MOL0     O99253   1.224   7.728   2.844 -1.0258 -0.2298 -0.2728
  720MOL0     C99254   1.111   7.672   2.797 -0.3904  0.0097  0.7164
  720MOL0     C99255   1.065   7.687   2.665  0.5126  0.9441  0.3822
  720MOL0     C99256   0.945   7.620   2.628 -0.9831 -0.5280  0.9691
  720MOL0     C99257   0.865   7.567   2.728  0.4238 -0.2631 -0.7067
  720MOL0     O99258   0.742   7.538   2.682 -0.6153  0.6393 -0.2381
  720MOL0     C99259   0.646   7.464   2.762  0.2062 -0.7506  0.3160
  720MOL0     C99260   0.530   7.389   2.697 -0.1478  0.2517  0.0589
  720MOL0     C99261   0.456   7.291   2.784 -0.3602 -0.0608 -0.2074
  720MOL0     C99262   0.362   7.201   2.699  0.3105  0.5610 -0.4934
  720MOL0     C99263   0.263   7.128   2.796  0.4726  0.2590  0.3963
  720MOL0     C99264   0.197   7.004   2.731  0.9189 -0.1467  0.0090
  720MOL0     C99265   0.107   7.011   2.601 -0.6133  0.9817  0.4024
  720MOL0     C99266  -0.040   6.967   2.627 -0.3070  0.4370 -0.0639
  720MOL0    Cl99267  -0.044   6.803   2.691  0.1680 -0.0082  0.1599
  720MOL0     C99268   0.907   7.562   2.867 -0.1657  0.3221  0.6015
  720MOL0     C99269   1.039   7.602   2.895  0.3626 -0.3150  0.3871
  720MOL0     O99270   1.330   7.520   2.844  0.0088 -0.4397  0.8539
  720MOL0     C99271   1.559   7.665   2.788  0.6756 -0.8153  0.0252
  720MOL0     C99272   1.682   7.732   2.780 -0.0642  0.4375  1.0781
  720MOL0     N99273   2.393   7.798   2.921 -0.1215  0.3282 -0.5527
  720MOL0     N99274   2.454   7.687   2.894 -0.3456 -0.9553 -0.2564
  720MOL0     C99275   3.355   7.351   3.358 -0.1016  0.1112  0.2053
  720MOL0     C99276   3.490   7.377   3.400  0.5363 -0.3316 -0.3439
  720MOL0     C99277   3.956   7.294   3.466  0.1112  0.5546 -0.9119
  720MOL0     C99278   3.959   7.433   3.436  0.4585  0.0063 -0.3099
  720MOL0     C99279   4.077   7.506   3.429  0.0111 -0.3999 -0.6598
  720MOL0     C99280   4.195   7.443   3.446 -0.0262  0.5988  0.4524
  720MOL0     O99281   4.308   7.520   3.410 -0.1502 -0.1854  0.6943
  720MOL0     C99282   4.426   7.447   3.381 -1.0416  0.5164  0.1803
  720MOL0     C99283   4.545   7.539   3.338  0.3739 -0.5256 -0.5388
  720MOL0     C99284   4.524   7.573   3.189 -0.7771 -1.0447  0.8967
  720MOL0     C99285   4.661   7.630   3.128  0.0768 -0.4018  0.4127
  720MOL0     C99286   4.753   7.510   3.117 -0.1151 -1.0831  0.5378
  720MOL0     C99287   4.828   7.414   3.094 -0.7413  0.2960 -0.4629
  720MOL0     C99288   4.198   7.301   3.484  0.4602 -0.9108  0.2384
  720MOL0     C99289   4.074   7.228   3.501  0.5155 -0.1097 -0.7522
  720MOL0     C99290   4.091   7.086   3.558 -0.5054  0.3206 -0.4804
  720MOL0     H99291   3.641   7.117   3.260  0.7381 -0.5348  0.3121
  720MOL0     H99292   3.402   7.086   3.165 -1.7898  1.8763 -0.4070
  720MOL0     H99293   3.209   7.017   3.209 -3.2214 -1.7077  2.4510
  720MOL0     H99294   3.166   7.110   3.063 -2.8698  0.3390 -0.6012
  720MOL0     H99295   2.961   6.980   3.169 -0.9900  1.2002  0.6020
  720MOL0     H99296   2.993   7.068   3.321 -4.3316  1.0735  0.5315
  720MOL0     H99297   2.822   7.160   3.230  1.0041 -3.4288  0.4294
  720MOL0     H99298   2.955   7.286   3.208 -0.1603  0.4649 -0.2698
  720MOL0     H99299   2.983   7.199   2.971 -0.4868 -2.9736 -2.1689
  720MOL0     H99300   2.839   7.106   2.989  0.4949 -1.0202  1.1159
  720MOL0     H99301   2.826   7.342   2.892 -2.8689 -0.2317 -0.5873
  720MOL0     H99302   2.850   7.409   3.063  0.5788  0.7062 -1.2653
  720MOL0     H99303   2.635   7.228   2.949 -0.0813  0.8905 -1.1188
  720MOL0     H99304   2.637   7.284   3.122  0.5032 -1.4253 -1.3857
  720MOL0     H99305   2.640   7.473   2.877  0.2220 -0.5592  0.4020
  720MOL0     H99306   2.638   7.519   3.048 -4.6736  0.4487  1.7084
  720MOL0     H99307   2.421   7.406   2.864 -0.7933 -0.3394  0.1474
  720MOL0     H99308   2.419   7.385   3.042  1.3204 -0.9773 -0.0315
  720MOL0     H99309   2.237   7.582   3.114 -0.7168 -0.7946  0.0180
  720MOL0     H99310   2.231   7.936   3.139 -1.7580 -0.0671  1.1248
  720MOL0     H99311   2.122   7.800   3.147 -0.0634 -1.5807 -1.1325
  720MOL0     H99312   2.031   7.977   3.017 -0.9274 -1.3700 -0.9620
  720MOL0     H99313   2.180   7.977   2.909 -1.4310 -3.1556 -5.3971
  720MOL0     H99314   2.117   7.757   2.847 -0.0153  1.5470 -1.7906
  720MOL0     H99315   1.973   7.751   2.948  0.2246 -0.5130  0.7736
  720MOL0     H99316   1.995   7.964   2.743 -0.0959  1.3263  1.7183
  720MOL0     H99317   1.919   7.806   2.719  0.4716 -0.4641 -0.3961
  720MOL0     H99318   1.634   7.993   2.983 -0.9794  1.4201 -1.5744
  720MOL0     H99319   1.298   7.827   3.045 -0.8460  0.7781  1.1910
  720MOL0     H99320   1.309   7.965   2.950  3.3977  1.1688 -1.8531
  720MOL0     H99321   1.396   7.954   3.111 -2.4819  0.0834  0.4516
  720MOL0     H99322   1.129   7.730   2.588  0.5156 -0.6537 -0.5634
  720MOL0     H99323   0.916   7.609   2.524  0.4154 -4.1653  0.8324
  720MOL0     H99324   0.703   7.381   2.804  1.5129 -0.7816 -1.4442
  720MOL0     H99325   0.605   7.537   2.834 -2.3959 -0.6999 -1.0798
  720MOL0     H99326   0.452   7.461   2.666  0.2010  0.2591 -0.8428
  720MOL0     H99327   0.570   7.340   2.608  1.8324  1.2634  0.3479
  720MOL0     H99328   0.393   7.341   2.858 -3.0668  1.4496 -3.2570
  720MOL0     H99329   0.532   7.236   2.840 -0.1913  2.4467  2.2317
  720MOL0     H99330   0.412   7.127   2.637  1.5929  1.4879 -0.6016
  720MOL0     H99331   0.298   7.258   2.630 -2.2445 -1.3119  0.1602
  720MOL0     H99332   0.309   7.099   2.891 -0.6416  2.9160  1.8791
  720MOL0     H99333   0.191   7.206   2.823  0.6982  0.5785  0.0879
  720MOL0     H99334   0.144   6.967   2.819  1.2606 -2.2323 -0.6048
  720MOL0     H99335   0.277   6.933   2.711  0.2126 -1.0185  0.2238
  720MOL0     H99336   0.158   6.954   2.523  0.4534  0.3717  1.4979
  720MOL0     H99337   0.102   7.113   2.562  3.8114  1.2410  0.0020
  720MOL0     H99338  -0.092   6.979   2.531  0.0629  0.1660 -0.3035
  720MOL0     H99339  -0.079   7.037   2.701 -3.3921 -1.5522  0.3571
  720MOL0     H99340   0.846   7.500   2.933 -0.5839  1.1707  1.0356
  720MOL0     H99341   1.085   7.596   2.993  1.9537  1.0315 -0.2409
  720MOL0     H99342   1.551   7.575   2.729 -3.3105  1.3394 -3.2785
  720MOL0     H99343   1.756   7.673   2.727 -0.4078 -1.0075  2.1518
  720MOL0     H99344   3.279   7.426   3.375 -0.7209 -0.3593 -0.4671
  720MOL0     H99345   3.503   7.471   3.453  1.0733 -0.9340  0.6259
  720MOL0     H99346   3.875   7.493   3.403  1.6207  1.4139 -0.8358
  720MOL0     H99347   4.077   7.613   3.411  1.1673 -0.4919 -1.2941
  720MOL0     H99348   4.463   7.392   3.468  3.2988  0.5873 -1.3672
  720MOL0     H99349   4.408   7.371   3.305  0.4123 -0.8656  1.1471
  720MOL0     H99350   4.630   7.472   3.339  0.0793 -1.2217 -4.7196
  720MOL0     H99351   4.546   7.631   3.398 -3.7876  0.1330 -1.1671
  720MOL0     H99352   4.500   7.485   3.127 -2.3074 -0.6081  0.8200
  720MOL0     H99353   4.450   7.651   3.170  2.3732  1.1365 -4.4305
  720MOL0     H99354   4.712   7.698   3.197  2.6551 -2.6345  0.8846
  720MOL0     H99355   4.649   7.663   3.025 -0.4985  1.9704  1.1671
  720MOL0     H99356   4.893   7.330   3.079 -0.9184 -0.3929  2.1117
  720MOL0     H99357   4.294   7.251   3.497  1.2603  0.7348  0.8324
  720MOL0     H99358   4.172   7.082   3.631 -0.2754  0.8969 -0.6989
  720MOL0     H99359   4.003   7.047   3.610 -0.1312 -0.0787 -0.1369
  720MOL0     H99360   4.121   7.030   3.470  3.1772  1.6083 -0.2128
  721MOL0     O99361   2.277   4.624   0.244 -0.5870 -0.0345 -0.6682
  721MOL0     C99362   2.250   4.506   0.263 -0.1281 -0.4976 -0.8764
  721MOL0     O99363   2.285   4.400   0.189 -0.5884 -0.2847  0.3555
  721MOL0     C99364   2.369   4.423   0.078 -0.5592 -0.2784 -0.7568
  721MOL0     C99365   2.325   4.447  -0.051  0.0941  0.5135  0.1024
  721MOL0     C99366   2.417   4.469  -0.158  0.2660 -0.6509 -0.5770
  721MOL0     C99367   2.548   4.465  -0.137  0.1931  0.9723  0.1548
  721MOL0     O99368   2.637   4.484  -0.245  0.1709 -0.1434 -0.5300
  721MOL0     C99369   2.770   4.528  -0.198 -0.0033  1.1263  0.9609
  721MOL0     C99370   2.836   4.613  -0.299  0.8560  1.0955 -0.0662
  721MOL0     C99371   2.941   4.712  -0.253 -0.1155 -0.8336 -0.0095
  721MOL0     C99372   3.075   4.622  -0.229 -0.1927 -0.6673 -0.1758
  721MOL0     C99373   3.198   4.701  -0.194 -1.1104  0.0307  0.0076
  721MOL0     C99374   3.243   4.799  -0.301  0.8312 -1.0040  0.4965
  721MOL0     C99375   3.198   4.942  -0.260 -0.1305  0.0784  0.5710
  721MOL0     C99376   3.227   5.034  -0.378  0.5131 -0.6006  0.2977
  721MOL0     N99377   3.135   5.031  -0.493 -0.4829  0.1512  0.3559
  721MOL0     C99378   3.010   5.087  -0.500  0.4299  0.2020 -0.1530
  721MOL0     C99379   2.973   5.070  -0.632  0.7849  0.4193  0.5149
  721MOL0     C99380   2.837   5.096  -0.684  0.3013  0.8816  1.0886
  721MOL0     C99381   2.734   5.047  -0.584  0.5628  0.2765  0.2107
  721MOL0     C99382   2.716   4.901  -0.559 -0.6120  0.1576 -0.0844
  721MOL0     C99383   2.574   4.854  -0.542  0.2839 -0.2879 -0.0844
  721MOL0     O99384   2.554   4.705  -0.528 -0.3408 -0.1168  0.0669
  721MOL0     C99385   2.433   4.636  -0.523 -0.4947  0.1162 -0.1752
  721MOL0     C99386   2.431   4.495  -0.541  0.5833  0.2822  0.3448
  721MOL0     C99387   2.300   4.425  -0.543 -0.4441 -0.1863  0.5168
  721MOL0     C99388   2.305   4.278  -0.568  0.4830  0.1087 -0.3063
  721MOL0     C99389   2.187   4.492  -0.528 -1.1040  0.4193  0.5722
  721MOL0     C99390   2.052   4.427  -0.547  0.1169  0.0763 -0.7180
  721MOL0     O99391   1.961   4.466  -0.458  0.1075 -0.4830 -0.1228
  721MOL0     C99392   1.831   4.465  -0.494  0.2223  0.5895 -0.0855
  721MOL0     C99393   1.739   4.369  -0.443  0.0501  0.7716 -0.2552
  721MOL0     C99394   1.602   4.374  -0.471 -0.6800 -0.1475  0.1955
  721MOL0     C99395   1.563   4.472  -0.568  1.5055  0.4282  0.3626
  721MOL0     O99396   1.433   4.473  -0.608  0.2110  0.2180  0.2002
  721MOL0     C99397   1.393   4.371  -0.693 -0.2826 -0.9590  0.5316
  721MOL0     C99398   1.242   4.390  -0.730  0.2417 -0.2205 -0.0686
  721MOL0     C99399   1.220   4.409  -0.886  0.5811  0.0909 -0.5101
  721MOL0     C99400   1.070   4.421  -0.924 -0.4692 -0.1955 -0.1951
  721MOL0     C99401   1.062   4.487  -1.069  0.8244 -0.7114  0.2020
  721MOL0     C99402   1.123   4.414  -1.189  0.4976 -0.0651 -0.0546
  721MOL0     C99403   1.094   4.262  -1.192 -0.4176 -0.6372  0.5800
  721MOL0     C99404   1.165   4.190  -1.304  1.1309  0.0132  0.3160
  721MOL0    Cl99405   1.338   4.223  -1.298  0.0421 -0.3037  0.4388
  721MOL0     C99406   1.648   4.550  -0.637 -0.4370 -0.3424  0.3417
  721MOL0     C99407   1.782   4.552  -0.592 -0.1939  0.0475  0.3265
  721MOL0     O99408   2.025   4.366  -0.651  0.5763 -0.3763  0.8954
  721MOL0     C99409   2.190   4.625  -0.502 -0.6622 -0.4987 -0.5052
  721MOL0     C99410   2.307   4.698  -0.499  0.0063 -0.7989  0.3036
  721MOL0     N99411   3.079   5.025  -0.706  0.0369 -0.7215 -0.6646
  721MOL0     N99412   3.168   4.988  -0.626 -0.2710  0.2227  0.5498
  721MOL0     C99413   2.594   4.425  -0.008 -0.0566  0.1003 -0.8402
  721MOL0     C99414   2.500   4.408   0.094 -0.2486 -0.1806  0.0883
  721MOL0     C99415   2.169   4.473   0.381 -0.2127  0.5160  0.6747
  721MOL0     C99416   2.178   4.345   0.437 -0.3212 -0.6267  0.1754
  721MOL0     C99417   2.096   4.311   0.537 -0.3762 -0.4546 -0.1481
  721MOL0     C99418   2.004   4.398   0.601 -0.2301 -0.5532  0.2542
  721MOL0     O99419   1.913   4.362   0.699  0.3897 -0.0123 -0.8910
  721MOL0     C99420   1.935   4.250   0.785 -0.0666  0.5359  0.0896
  721MOL0     C99421   1.843   4.270   0.909 -0.1894 -0.2848  0.2146
  721MOL0     C99422   1.701   4.237   0.882  0.1284  0.6955 -0.2771
  721MOL0     C99423   1.627   4.251   1.010 -0.6392 -0.0197 -0.0631
  721MOL0     C99424   1.488   4.209   1.002 -0.2734  0.3400  0.1536
  721MOL0     C99425   1.383   4.149   0.979  0.4248  0.0142  0.2607
  721MOL0     C99426   2.003   4.533   0.563 -0.1221 -0.1867 -0.1777
  721MOL0     C99427   2.084   4.571   0.454 -0.2467  0.2191  0.2469
  721MOL0     C99428   2.053   4.712   0.402 -0.8398  0.4599 -0.0277
  721MOL0     H99429   2.219   4.447  -0.077  0.1672 -1.0426 -0.2454
  721MOL0     H99430   2.374   4.489  -0.256 -0.0771 -1.2833 -0.5555
  721MOL0     H99431   2.829   4.438  -0.179 -0.1653  0.8313  0.1081
  721MOL0     H99432   2.764   4.596  -0.112 -0.0817  2.1977  0.1424
  721MOL0     H99433   2.866   4.548  -0.382 -0.0132 -1.1179  1.2530
  721MOL0     H99434   2.752   4.664  -0.347  0.0728 -0.9399 -1.0221
  721MOL0     H99435   2.960   4.790  -0.327 -0.5905 -4.0896 -3.9620
  721MOL0     H99436   2.899   4.759  -0.164  1.0596  1.0133 -0.3851
  721MOL0     H99437   3.059   4.560  -0.140 -0.1759  2.6981  2.4029
  721MOL0     H99438   3.095   4.562  -0.318  3.3503 -1.9894  1.3402
  721MOL0     H99439   3.285   4.641  -0.167 -1.1810  0.1674  0.5427
  721MOL0     H99440   3.177   4.764  -0.107  1.6069 -0.3363  1.0154
  721MOL0     H99441   3.349   4.791  -0.325  0.5931  1.1318 -1.6706
  721MOL0     H99442   3.194   4.766  -0.393 -0.0191 -0.4203  0.7212
  721MOL0     H99443   3.258   4.979  -0.176  0.8702 -0.9955  0.3429
  721MOL0     H99444   3.091   4.956  -0.242  0.0866  1.5827  0.8018
  721MOL0     H99445   3.227   5.135  -0.337 -1.7183 -1.3348  2.2831
  721MOL0     H99446   3.329   5.006  -0.409  0.4823 -2.4776  1.7356
  721MOL0     H99447   2.951   5.137  -0.424  3.2568  1.7386  1.1911
  721MOL0     H99448   2.831   5.045  -0.780 -0.4822  3.4104 -0.3171
  721MOL0     H99449   2.833   5.205  -0.698 -0.5713  0.6795 -0.4026
  721MOL0     H99450   2.749   5.092  -0.485  0.6430  1.2998 -0.2572
  721MOL0     H99451   2.640   5.091  -0.620 -0.4243 -1.7515  0.1697
  721MOL0     H99452   2.750   4.831  -0.637 -1.9876 -0.9801  0.2980
  721MOL0     H99453   2.767   4.882  -0.464 -1.5144 -1.0284  0.1880
  721MOL0     H99454   2.530   4.907  -0.457 -1.4271 -1.5404 -0.1477
  721MOL0     H99455   2.516   4.888  -0.629  0.9368 -0.7709 -0.7222
  721MOL0     H99456   2.534   4.465  -0.559  1.2687  0.7183  3.0914
  721MOL0     H99457   2.390   4.223  -0.529  0.9048  1.1514  0.2616
  721MOL0     H99458   2.281   4.262  -0.674  0.7678 -2.1991 -0.0884
  721MOL0     H99459   2.231   4.226  -0.506  0.4718 -1.8555 -1.8410
  721MOL0     H99460   1.786   4.290  -0.385 -1.8400 -0.7602 -0.6723
  721MOL0     H99461   1.530   4.305  -0.430 -0.7480 -0.5853 -0.6276
  721MOL0     H99462   1.464   4.391  -0.774  0.7144  0.1279  1.6196
  721MOL0     H99463   1.409   4.272  -0.651  0.2876 -3.3653 -4.6066
  721MOL0     H99464   1.189   4.300  -0.694  0.6614  0.0795  1.3887
  721MOL0     H99465   1.212   4.480  -0.676 -0.3152 -0.4472  0.0181
  721MOL0     H99466   1.262   4.330  -0.948 -0.5072 -2.7494  2.1024
  721MOL0     H99467   1.263   4.504  -0.921  0.1168  0.8520  0.9114
  721MOL0     H99468   1.022   4.485  -0.850 -1.0678 -1.5346  0.6111
  721MOL0     H99469   1.012   4.328  -0.926 -0.5143 -0.1620 -0.9602
  721MOL0     H99470   0.956   4.492  -1.096  0.5309  0.9966  1.5478
  721MOL0     H99471   1.103   4.588  -1.068  2.2388 -1.2707  0.8859
  721MOL0     H99472   1.231   4.429  -1.200  0.0993  2.8489 -0.9223
  721MOL0     H99473   1.082   4.461  -1.279 -0.9884  2.0720  1.6306
  721MOL0     H99474   0.987   4.251  -1.215 -0.7698  0.4854  1.5241
  721MOL0     H99475   1.114   4.206  -1.100  1.2218 -1.1583 -0.0723
  721MOL0     H99476   1.128   4.231  -1.399 -1.1297 -0.3890  0.9806
  721MOL0     H99477   1.139   4.084  -1.292 -1.2499  0.6330  1.2031
  721MOL0     H99478   1.616   4.620  -0.713  1.2804 -0.2133 -0.3053
  721MOL0     H99479   1.852   4.622  -0.636 -1.4285  0.5111 -0.9678
  721MOL0     H99480   2.102   4.689  -0.497 -0.0458  0.5322 -1.8958
  721MOL0     H99481   2.297   4.799  -0.462  1.2431 -1.2302  1.9580
  721MOL0     H99482   2.691   4.384   0.017 -0.5549 -0.7231 -0.2011
  721MOL0     H99483   2.527   4.383   0.196  0.6356  3.2343  0.8251
  721MOL0     H99484   2.243   4.272   0.390  0.6028  0.5376 -0.4191
  721MOL0     H99485   2.093   4.204   0.551 -0.1353 -0.9474 -3.2262
  721MOL0     H99486   1.912   4.157   0.733 -0.0487  1.0779 -0.9099
  721MOL0     H99487   2.036   4.247   0.826 -0.5207 -2.1117  1.2176
  721MOL0     H99488   1.855   4.375   0.936  1.3331 -0.2171 -0.5810
  721MOL0     H99489   1.887   4.201   0.983  0.3180 -1.3037 -0.9960
  721MOL0     H99490   1.657   4.313   0.816  0.9682  1.8638  0.4596
  721MOL0     H99491   1.691   4.141   0.831  0.1972  1.3395 -1.5496
  721MOL0     H99492   1.631   4.358   1.035  1.6191 -0.6972  3.1130
  721MOL0     H99493   1.675   4.182   1.081  0.2442  0.4463 -0.1911
  721MOL0     H99494   1.287   4.102   0.975 -0.8073  2.4644 -3.0000
  721MOL0     H99495   1.940   4.610   0.606 -0.9636 -0.7641 -0.3459
  721MOL0     H99496   1.979   4.706   0.322 -1.0996  1.8860  0.0679
  721MOL0     H99497   2.011   4.780   0.477  0.5943  2.6781 -1.1065
  721MOL0     H99498   2.147   4.758   0.371 -1.1050  0.3314 -1.0538
  722MOL0     O99499  10.951  11.173   9.520 -0.4962  0.5934  0.3195
  722MOL0     C99500  10.851  11.176   9.447  0.5625  0.6029 -0.1482
  722MOL0     O99501  10.815  11.080   9.364 -0.3601 -0.4116  0.1830
  722MOL0     C99502  10.888  10.960   9.364 -0.9037 -0.5233  0.1999
  722MOL0     C99503  10.866  10.840   9.425 -0.0727 -0.1828 -0.1020
  722MOL0     C99504  10.960  10.732   9.409  0.8765 -0.8083  0.6116
  722MOL0     C99505  11.082  10.736   9.345 -0.2879  0.3057 -0.1711
  722MOL0     O99506  11.163  10.621   9.329 -0.8695 -0.3227  0.7003
  722MOL0     C99507  11.305  10.637   9.315  0.0751 -0.3060 -1.0553
  722MOL0     C99508  11.399  10.514   9.353 -0.4111 -0.1366  0.7250
  722MOL0     C99509  11.376  10.401   9.268 -0.0735  0.1672 -0.1667
  722MOL0     C99510  11.463  10.284   9.302 -0.1856 -1.0682 -0.3972
  722MOL0     C99511  11.429  10.162   9.218  1.2574  0.0667  0.3462
  722MOL0     C99512  11.499  10.025   9.249 -0.8681  0.3459 -0.1314
  722MOL0     C99513  11.651  10.033   9.219 -1.2598  0.7699  0.5222
  722MOL0     C99514  11.724   9.901   9.225 -0.0132  0.4622 -0.5755
  722MOL0     N99515  11.684   9.813   9.334  0.1615  0.3654  0.2580
  722MOL0     C99516  11.663   9.849   9.461 -0.9048 -0.8801  0.1146
  722MOL0     C99517  11.652   9.748   9.540 -0.6232  0.2068  0.7004
  722MOL0     C99518  11.633   9.740   9.684  0.2690 -0.2569  0.3495
  722MOL0     C99519  11.757   9.796   9.758  0.1121 -0.4361  0.1542
  722MOL0     C99520  11.883   9.704   9.743  0.2816 -0.0924  0.1159
  722MOL0     C99521  12.005   9.769   9.812  0.8838  0.1068  0.3703
  722MOL0     O99522  12.003   9.770   9.956 -0.3062  0.0949 -0.4491
  722MOL0     C99523  12.009   9.661  10.040  0.2138  0.4215 -0.2415
  722MOL0     C99524  11.995   9.682  10.178  0.2472 -0.7530 -0.1280
  722MOL0     C99525  11.992   9.568  10.268 -0.6967  0.1338 -0.7861
  722MOL0     C99526  11.953   9.617  10.409  0.3347 -0.0598  0.0366
  722MOL0     C99527  12.020   9.442  10.219 -0.4589 -1.3508  0.3794
  722MOL0     C99528  12.026   9.328  10.310  0.7443  0.2587 -0.0491
  722MOL0     O99529  11.907   9.310  10.383 -1.0208  0.3562  0.2548
  722MOL0     C99530  11.909   9.203  10.470  0.5895 -0.1376  0.4744
  722MOL0     C99531  11.901   9.229  10.609 -0.3551 -0.5345 -0.4155
  722MOL0     C99532  11.872   9.124  10.698 -1.0803  0.9349  0.1181
  722MOL0     C99533  11.859   8.995  10.649  0.1356  0.6782 -0.7144
  722MOL0     O99534  11.825   8.887  10.731 -0.4652 -0.4458 -0.0629
  722MOL0     C99535  11.874   8.896  10.868  0.0992 -0.2501  0.2610
  722MOL0     C99536  11.836   8.764  10.934 -0.1220 -0.6595  0.3669
  722MOL0     C99537  11.912   8.757  11.061 -0.0152 -0.1934  0.6153
  722MOL0     C99538  11.935   8.621  11.107  0.6718  0.5213  0.1749
  722MOL0     C99539  12.056   8.631  11.210  0.7819 -0.2611  0.2007
  722MOL0     C99540  12.056   8.517  11.314 -0.5083  0.4758 -0.3975
  722MOL0     C99541  12.185   8.521  11.400  0.1931 -0.2156 -0.7633
  722MOL0     C99542  12.177   8.423  11.514 -0.0395  0.1567 -0.1712
  722MOL0    Cl99543  12.054   8.471  11.633 -0.1280  0.1712 -0.0011
  722MOL0     C99544  11.891   8.965  10.519 -0.3417  0.3685  0.1292
  722MOL0     C99545  11.900   9.072  10.427 -0.2958  0.7473 -1.0755
  722MOL0     O99546  12.129   9.261  10.323  0.0382  0.7230  0.3846
  722MOL0     C99547  12.041   9.425  10.083  0.0046  0.3158 -0.6189
  722MOL0     C99548  12.033   9.529   9.997 -0.4698  0.0955  0.1622
  722MOL0     N99549  11.667   9.643   9.452 -0.3308 -0.4270 -0.2837
  722MOL0     N99550  11.690   9.683   9.329 -0.2257  0.3734 -0.1269
  722MOL0     C99551  11.097  10.854   9.274  0.0756  0.3371 -0.4652
  722MOL0     C99552  11.005  10.968   9.290 -0.2604 -0.9265 -0.0723
  722MOL0     C99553  10.751  11.292   9.454 -0.4664  0.5359 -0.7267
  722MOL0     C99554  10.667  11.312   9.348  0.1445  0.4140 -0.1984
  722MOL0     C99555  10.577  11.416   9.348 -0.4302 -0.1487 -0.7379
  722MOL0     C99556  10.555  11.495   9.458 -0.5628 -0.3074 -0.1382
  722MOL0     O99557  10.454  11.587   9.454  0.1662 -0.5374 -0.0837
  722MOL0     C99558  10.412  11.652   9.576 -0.2156  0.1700 -0.1856
  722MOL0     C99559  10.286  11.740   9.558 -0.7081 -0.8292  0.0725
  722MOL0     C99560  10.159  11.672   9.577  0.4645 -0.7524 -0.0033
  722MOL0     C99561  10.028  11.751   9.550 -0.1479 -0.2967  0.0657
  722MOL0     C99562  10.003  11.862   9.640  0.0212  0.2544 -0.9977
  722MOL0     C99563   9.978  11.952   9.724 -0.0580 -0.3777  0.7670
  722MOL0     C99564  10.647  11.486   9.560 -0.8004  0.4589 -0.0977
  722MOL0     C99565  10.751  11.387   9.554  0.4757  0.2512  0.0479
  722MOL0     C99566  10.839  11.379   9.677 -0.1026 -0.0936 -0.7623
  722MOL0     H99567  10.778  10.831   9.489  1.3296 -3.3305  1.5846
  722MOL0     H99568  10.936  10.636   9.453 -2.6213 -0.2313  0.2172
  722MOL0     H99569  11.336  10.722   9.377 -5.7700 -0.3002  2.5837
  722MOL0     H99570  11.320  10.663   9.210 -1.6613  1.3313 -0.9455
  722MOL0     H99571  11.505  10.543   9.347 -0.5876  1.2780  3.1887
  722MOL0     H99572  11.371  10.480   9.453 -0.8050 -0.8184  0.3894
  722MOL0     H99573  11.274  10.369   9.292  0.3098 -1.6999 -0.8534
  722MOL0     H99574  11.386  10.429   9.163 -1.2054  1.7042  0.0972
  722MOL0     H99575  11.565  10.311   9.270 -0.1556  2.1490  1.9073
  722MOL0     H99576  11.460  10.265   9.410  1.2114 -0.2595 -0.1879
  722MOL0     H99577  11.433  10.178   9.110 -0.4315 -2.4143 -0.1687
  722MOL0     H99578  11.321  10.146   9.230  0.9157 -0.2657 -2.5849
  722MOL0     H99579  11.501  10.018   9.358  0.9703 -1.4629 -0.2336
  722MOL0     H99580  11.458   9.939   9.195 -1.1603  0.1679  0.3794
  722MOL0     H99581  11.692  10.103   9.294 -2.3738 -0.8993  2.8202
  722MOL0     H99582  11.664  10.079   9.121  1.3996 -2.4207 -0.7999
  722MOL0     H99583  11.695   9.850   9.133  0.0869 -0.2751 -0.2071
  722MOL0     H99584  11.833   9.909   9.223  0.2033 -1.7485 -0.1920
  722MOL0     H99585  11.663   9.950   9.499  0.3134  0.0110 -2.0940
  722MOL0     H99586  11.608   9.638   9.713 -1.3147 -0.4282 -1.4374
  722MOL0     H99587  11.549   9.802   9.718 -0.4676  0.9093 -3.2176
  722MOL0     H99588  11.783   9.895   9.721  1.8238 -0.7919  0.3372
  722MOL0     H99589  11.741   9.785   9.866 -0.2906 -1.0130  0.0443
  722MOL0     H99590  11.858   9.610   9.793 -2.6721 -0.3893 -1.6719
  722MOL0     H99591  11.903   9.698   9.636 -0.9773  3.4120 -0.4539
  722MOL0     H99592  12.094   9.710   9.785  0.6644 -0.0256 -0.0693
  722MOL0     H99593  12.007   9.874   9.781 -0.2532  0.0441  0.0566
  722MOL0     H99594  11.973   9.783  10.210 -0.0575 -0.2897 -1.6868
  722MOL0     H99595  11.979   9.723  10.419  2.8357 -0.5240 -0.9455
  722MOL0     H99596  11.996   9.553  10.487  0.5163  1.9422  1.6597
  722MOL0     H99597  11.845   9.605  10.426  0.5380 -1.2006  0.6350
  722MOL0     H99598  11.909   9.329  10.649 -1.2993 -0.2476 -0.8903
  722MOL0     H99599  11.855   9.135  10.805 -0.2910 -1.2783  0.5277
  722MOL0     H99600  11.982   8.914  10.865  0.0834 -0.1449  0.3086
  722MOL0     H99601  11.809   8.973  10.912 -0.1243  0.0854 -0.6365
  722MOL0     H99602  11.730   8.772  10.958 -0.2790  1.1761 -0.7237
  722MOL0     H99603  11.841   8.673  10.874 -1.2481 -1.5004  1.4924
  722MOL0     H99604  11.851   8.811  11.133  1.5944  0.8675  1.2542
  722MOL0     H99605  12.000   8.822  11.057  0.4212 -0.8394 -2.5652
  722MOL0     H99606  11.964   8.545  11.034  0.9906 -0.6445  1.4677
  722MOL0     H99607  11.843   8.583  11.153  0.9433 -2.5610 -1.5855
  722MOL0     H99608  12.148   8.629  11.151  0.3113 -2.1641 -0.5360
  722MOL0     H99609  12.044   8.726  11.262 -1.0387 -0.8503  0.9399
  722MOL0     H99610  12.068   8.429  11.249 -1.0043  0.1682 -0.0768
  722MOL0     H99611  11.961   8.519  11.368  1.2643 -1.5498  3.1404
  722MOL0     H99612  12.212   8.620  11.439 -0.8365 -0.1859 -0.0856
  722MOL0     H99613  12.271   8.519  11.332  0.3442  0.7051 -0.6214
  722MOL0     H99614  12.273   8.409  11.564 -1.2294 -1.1605  1.8731
  722MOL0     H99615  12.141   8.326  11.478  0.2506 -0.7184  1.7875
  722MOL0     H99616  11.897   8.861  10.489  1.6293  0.4476  0.0931
  722MOL0     H99617  11.910   9.046  10.322  1.1489 -2.0195 -0.3431
  722MOL0     H99618  12.074   9.330  10.043 -1.3171 -0.3548 -0.1541
  722MOL0     H99619  12.064   9.519   9.894 -0.0460  0.2576  0.2712
  722MOL0     H99620  11.182  10.869   9.207  0.9961 -0.9319  0.3796
  722MOL0     H99621  11.039  11.063   9.250 -2.6054  0.8492  1.7810
  722MOL0     H99622  10.681  11.256   9.256  1.4438  3.4747 -2.0328
  722MOL0     H99623  10.502  11.433   9.271 -0.8444  3.2350  0.2439
  722MOL0     H99624  10.401  11.581   9.659 -2.0194 -0.2323 -0.7340
  722MOL0     H99625  10.498  11.715   9.603 -2.1560  3.0850 -0.3772
  722MOL0     H99626  10.294  11.780   9.456  0.0349 -0.4755  0.2662
  722MOL0     H99627  10.284  11.828   9.622 -0.2055 -1.2399  0.6597
  722MOL0     H99628  10.159  11.574   9.528 -2.6427 -1.2905  0.8195
  722MOL0     H99629  10.140  11.658   9.684 -1.2179 -0.4325 -0.2227
  722MOL0     H99630   9.939  11.687   9.557 -0.0778 -0.3075  1.0124
  722MOL0     H99631  10.028  11.791   9.449 -1.0309 -0.7829 -0.1365
  722MOL0     H99632   9.959  12.027   9.798 -0.6560  2.1270 -1.7438
  722MOL0     H99633  10.650  11.562   9.638  0.2373  0.4223 -0.0955
  722MOL0     H99634  10.944  11.370   9.648  0.4018 -2.2749  1.4121
  722MOL0     H99635  10.824  11.468   9.738 -2.0174 -0.6527 -0.3571
  722MOL0     H99636  10.827  11.290   9.740  3.1861 -1.4479 -1.8289
  723MOL0     O99637   7.767   1.755   0.801 -0.3504  0.2029  0.3137
  723MOL0     C99638   7.736   1.718   0.688  0.1488 -0.4395  0.1435
  723MOL0     O99639   7.818   1.654   0.608 -0.0908 -0.0716 -0.1804
  723MOL0     C99640   7.953   1.657   0.631  0.4575 -1.0254  0.2310
  723MOL0     C99641   8.029   1.548   0.686 -0.0446 -0.9393  0.5092
  723MOL0     C99642   8.164   1.549   0.708 -0.5879  0.0978 -0.2939
  723MOL0     C99643   8.236   1.658   0.662 -0.0832  0.0176 -0.6125
  723MOL0     O99644   8.367   1.655   0.680 -0.2258 -0.3389  0.6694
  723MOL0     C99645   8.450   1.768   0.662  0.2341 -0.9520 -0.1763
  723MOL0     C99646   8.597   1.727   0.664 -0.0515 -0.2650 -0.0766
  723MOL0     C99647   8.656   1.697   0.805 -0.3148 -0.0317 -0.5938
  723MOL0     C99648   8.802   1.651   0.778  0.5245  1.0222 -0.7704
  723MOL0     C99649   8.864   1.567   0.893 -0.1015 -0.7541  0.3062
  723MOL0     C99650   8.985   1.483   0.853 -0.2142 -0.0282 -0.0912
  723MOL0     C99651   9.026   1.388   0.967  0.9401  0.2927 -0.4769
  723MOL0     C99652   8.944   1.258   0.965  0.0623 -0.0221  0.5506
  723MOL0     N99653   9.005   1.154   1.044 -0.2153 -0.4457 -0.2808
  723MOL0     C99654   9.026   1.143   1.176 -0.4595  0.0500 -0.6336
  723MOL0     C99655   9.078   1.019   1.199  0.8190  0.0013 -0.1780
  723MOL0     C99656   9.090   0.969   1.342 -0.7734 -0.9079 -0.2613
  723MOL0     C99657   9.235   0.995   1.387 -0.4262  0.1842  0.0166
  723MOL0     C99658   9.257   0.919   1.526  0.3437 -0.1868  1.1849
  723MOL0     C99659   9.383   0.974   1.596  0.2496 -1.1429 -0.3414
  723MOL0     O99660   9.375   0.957   1.738 -0.0879  0.1720  0.0284
  723MOL0     C99661   9.462   0.867   1.798  0.0939 -0.5950  0.3195
  723MOL0     C99662   9.520   0.751   1.746  0.6113 -0.1936 -0.2299
  723MOL0     C99663   9.627   0.687   1.810  0.0425  0.1241  0.5151
  723MOL0     C99664   9.681   0.567   1.735  0.1952 -0.3381  0.3263
  723MOL0     C99665   9.676   0.733   1.930  0.5461 -0.2665 -0.3572
  723MOL0     C99666   9.795   0.665   2.000 -0.2654  0.1689 -0.3744
  723MOL0     O99667   9.805   0.525   1.994  0.1663 -0.7747 -0.6726
  723MOL0     C99668   9.867   0.465   2.099 -0.8702  0.4579  0.1467
  723MOL0     C99669   9.827   0.445   2.225  0.3831  0.1437 -0.6744
  723MOL0     C99670   9.901   0.397   2.333  0.5427  0.5164  0.0325
  723MOL0     C99671  10.028   0.357   2.304 -0.7585 -0.2993 -0.8016
  723MOL0     O99672  10.122   0.331   2.399  0.9382  0.0792 -0.3772
  723MOL0     C99673  10.126   0.409   2.515  0.4204  0.7544  0.2720
  723MOL0     C99674  10.278   0.444   2.541 -0.6187 -0.0367 -0.0787
  723MOL0     C99675  10.292   0.508   2.682  0.2981 -0.6140 -0.4288
  723MOL0     C99676  10.437   0.570   2.692  0.2153  0.3256  1.5365
  723MOL0     C99677  10.450   0.691   2.784  0.8344 -0.0842  0.6354
  723MOL0     C99678  10.578   0.766   2.763 -0.7467  0.3662  0.2825
  723MOL0     C99679  10.602   0.878   2.867  0.9840 -0.2411  0.2667
  723MOL0     C99680  10.728   0.952   2.844 -0.8655  0.2931 -0.0173
  723MOL0    Cl99681  10.871   0.851   2.875  0.3792 -0.1639  0.0234
  723MOL0     C99682  10.074   0.357   2.173 -0.1175 -0.0822 -0.5039
  723MOL0     C99683   9.992   0.405   2.072  0.7651  0.1170 -0.8208
  723MOL0     O99684   9.872   0.737   2.060  0.7991 -0.3152 -0.0772
  723MOL0     C99685   9.605   0.843   1.989  0.2364  0.0694  0.1020
  723MOL0     C99686   9.509   0.904   1.922  0.2116  0.0767  0.0313
  723MOL0     N99687   9.090   0.956   1.075  0.3283  0.5658 -0.3973
  723MOL0     N99688   9.057   1.043   0.991 -0.8916  0.0854  0.1708
  723MOL0     C99689   8.167   1.768   0.606  0.4110  0.5959  0.2668
  723MOL0     C99690   8.022   1.766   0.591 -0.3267 -0.8754 -0.6887
  723MOL0     C99691   7.595   1.739   0.651 -0.4639 -0.3382 -0.1062
  723MOL0     C99692   7.495   1.697   0.736  0.3777 -0.6551 -0.4807
  723MOL0     C99693   7.362   1.693   0.689  0.2137 -0.1212 -0.2063
  723MOL0     C99694   7.322   1.739   0.563  0.4799 -0.7892  0.1831
  723MOL0     O99695   7.199   1.712   0.523  0.7508 -0.6691 -0.3675
  723MOL0     C99696   7.148   1.782   0.416 -0.1766 -0.9258 -0.1924
  723MOL0     C99697   6.997   1.748   0.415 -0.0080 -0.3043  0.1976
  723MOL0     C99698   6.920   1.837   0.322 -0.5168 -0.2898  0.1522
  723MOL0     C99699   6.768   1.823   0.355 -0.2992  0.9296  0.5933
  723MOL0     C99700   6.689   1.930   0.293  0.7689 -0.0216 -0.2629
  723MOL0     C99701   6.603   2.008   0.251 -0.7052  0.2687  0.2438
  723MOL0     C99702   7.418   1.806   0.484  0.5708  0.1166 -0.1979
  723MOL0     C99703   7.558   1.796   0.517  0.0895  0.2018 -0.3173
  723MOL0     C99704   7.672   1.838   0.423 -0.0872  0.3184 -0.0472
  723MOL0     H99705   7.967   1.461   0.708 -2.0507 -0.3148 -2.1090
  723MOL0     H99706   8.223   1.473   0.758 -2.2150  0.5434  2.5480
  723MOL0     H99707   8.430   1.834   0.747 -2.1851 -1.7728 -0.0269
  723MOL0     H99708   8.417   1.830   0.578  0.4745 -0.3120  0.1912
  723MOL0     H99709   8.608   1.640   0.598 -0.8893 -0.5261  0.1181
  723MOL0     H99710   8.659   1.810   0.630  1.0067 -1.8216 -2.2184
  723MOL0     H99711   8.653   1.790   0.862 -0.0081  2.2035 -3.9588
  723MOL0     H99712   8.606   1.616   0.859 -1.2692  0.9935  0.0853
  723MOL0     H99713   8.801   1.580   0.695  1.3517 -2.3378  1.8635
  723MOL0     H99714   8.867   1.735   0.749 -0.4238  1.4331 -1.7934
  723MOL0     H99715   8.787   1.500   0.931 -0.8626  0.3086  0.6882
  723MOL0     H99716   8.881   1.631   0.980 -1.0438 -1.4265  0.9950
  723MOL0     H99717   8.959   1.429   0.762  1.3357 -0.3760 -0.3563
  723MOL0     H99718   9.074   1.541   0.826  0.6094 -0.5562  1.3807
  723MOL0     H99719   9.013   1.442   1.061  2.8179 -3.0536  1.9440
  723MOL0     H99720   9.126   1.359   0.932 -1.1446 -4.2435 -3.6561
  723MOL0     H99721   8.841   1.272   0.999 -0.6930  1.7132 -2.1577
  723MOL0     H99722   8.926   1.223   0.863 -0.7626 -0.7084  0.9179
  723MOL0     H99723   9.015   1.225   1.247 -2.0766 -0.1195 -0.6565
  723MOL0     H99724   9.061   0.863   1.347  0.4834 -1.3086 -0.9342
  723MOL0     H99725   9.026   1.022   1.413 -1.4181  1.5756 -2.5413
  723MOL0     H99726   9.308   0.959   1.314 -0.6857  3.1007 -1.7983
  723MOL0     H99727   9.259   1.100   1.405  2.0462 -0.5830  1.8303
  723MOL0     H99728   9.166   0.938   1.584 -0.3915  1.9072 -0.5057
  723MOL0     H99729   9.274   0.813   1.505  1.0391 -0.0429  1.0036
  723MOL0     H99730   9.468   0.915   1.559  0.6254 -1.9440  1.6788
  723MOL0     H99731   9.400   1.080   1.574  0.5066 -1.0318  0.3610
  723MOL0     H99732   9.492   0.721   1.645  0.1828 -0.6874  0.0330
  723MOL0     H99733   9.790   0.569   1.727  0.3598  0.6796  2.1817
  723MOL0     H99734   9.646   0.558   1.632 -1.7163  2.8008  0.5682
  723MOL0     H99735   9.640   0.478   1.785 -0.4369 -0.9243 -1.1874
  723MOL0     H99736   9.723   0.473   2.236 -0.3252 -1.1072 -3.2444
  723MOL0     H99737   9.874   0.399   2.438 -0.0109  4.2392 -0.0294
  723MOL0     H99738  10.080   0.506   2.494  0.1621  0.5017 -0.3672
  723MOL0     H99739  10.057   0.364   2.586 -0.9497 -0.1600 -1.5591
  723MOL0     H99740  10.329   0.348   2.548 -0.6607  0.0597  3.6603
  723MOL0     H99741  10.328   0.499   2.461  1.0808 -2.6457 -0.9194
  723MOL0     H99742  10.287   0.435   2.763  0.5079 -0.1948 -0.0348
  723MOL0     H99743  10.218   0.584   2.707  0.0576 -0.6693 -0.9467
  723MOL0     H99744  10.449   0.622   2.597 -4.2302 -2.6441 -0.9895
  723MOL0     H99745  10.515   0.494   2.704  1.6564  1.3132 -0.8015
  723MOL0     H99746  10.374   0.769   2.776  1.2840  0.4527  1.4725
  723MOL0     H99747  10.437   0.649   2.884 -3.2831 -1.7504 -0.4226
  723MOL0     H99748  10.570   0.825   2.671  1.9199  0.6233  0.1567
  723MOL0     H99749  10.667   0.705   2.747 -0.2863  0.9092  0.7258
  723MOL0     H99750  10.598   0.829   2.965  0.0356 -2.0669 -0.6212
  723MOL0     H99751  10.524   0.953   2.853 -0.3294 -1.2103  2.0141
  723MOL0     H99752  10.741   1.044   2.901  2.3500  1.1018 -1.7966
  723MOL0     H99753  10.727   0.976   2.737  0.1990  1.4639  0.2157
  723MOL0     H99754  10.180   0.345   2.151 -0.4985  0.0384 -2.5591
  723MOL0     H99755  10.037   0.398   1.973  4.8895  3.0345  0.5762
  723MOL0     H99756   9.633   0.895   2.080 -1.6530  0.9256  0.2392
  723MOL0     H99757   9.466   0.986   1.978  3.6257  0.8037  1.8793
  723MOL0     H99758   8.220   1.846   0.553  1.4856 -0.8179 -0.8079
  723MOL0     H99759   7.963   1.842   0.542 -0.8572 -0.1953  0.9425
  723MOL0     H99760   7.520   1.673   0.839  1.6207 -1.1687 -0.8769
  723MOL0     H99761   7.285   1.637   0.742 -3.0110  1.5399 -2.7681
  723MOL0     H99762   7.153   1.890   0.429  1.2596 -0.9223 -0.6108
  723MOL0     H99763   7.190   1.752   0.320  0.4189  1.7481 -0.8536
  723MOL0     H99764   6.963   1.771   0.516  1.1992  1.3188  0.2690
  723MOL0     H99765   6.975   1.643   0.393 -3.8066  0.5775 -0.9375
  723MOL0     H99766   6.943   1.942   0.343 -0.8355 -0.1166 -0.3436
  723MOL0     H99767   6.952   1.836   0.218  0.5816  2.5311  0.3914
  723MOL0     H99768   6.744   1.828   0.461 -3.7099  1.3513 -0.0819
  723MOL0     H99769   6.732   1.726   0.318 -0.9086  0.2849  2.7618
  723MOL0     H99770   6.514   2.065   0.233 -2.5904 -2.6313 -0.1162
  723MOL0     H99771   7.401   1.838   0.382 -0.2363 -1.1005 -0.4643
  723MOL0     H99772   7.734   1.893   0.495 -1.8900 -0.4529  2.2272
  723MOL0     H99773   7.736   1.759   0.383  0.7428  2.1528 -2.6083
  723MOL0     H99774   7.639   1.900   0.340  0.2183 -1.4454 -1.5512
  724MOL0     O99775   9.949   6.937  10.306  0.3419 -0.5148  0.4445
  724MOL0     C99776   9.920   6.966  10.192 -0.8712 -0.8658 -0.8305
  724MOL0     O99777   9.957   6.895  10.080 -0.1765 -0.0971 -0.2635
  724MOL0     C99778  10.061   6.804  10.078 -0.2670 -0.0493  1.4451
  724MOL0     C99779  10.160   6.790  10.171  0.1496 -0.8441  0.2807
  724MOL0     C99780  10.257   6.693  10.154 -0.0036  0.1316 -0.6553
  724MOL0     C99781  10.256   6.616  10.043  0.2261  0.4203  0.3627
  724MOL0     O99782  10.342   6.508  10.036  0.2198  0.2707 -0.3681
  724MOL0     C99783  10.448   6.527   9.940  0.4234 -0.1776 -1.4277
  724MOL0     C99784  10.528   6.398   9.919  0.3598 -0.3331 -0.4681
  724MOL0     C99785  10.626   6.409   9.797  0.4656  0.4639 -0.6037
  724MOL0     C99786  10.745   6.492   9.826 -0.7908 -0.6357 -0.1448
  724MOL0     C99787  10.854   6.482   9.711  0.3265 -0.1301 -0.0193
  724MOL0     C99788  10.971   6.589   9.709 -0.0495 -0.5971  0.0668
  724MOL0     C99789  11.035   6.621   9.845 -0.3532 -0.0420 -0.8625
  724MOL0     C99790  11.152   6.722   9.846 -0.0046 -0.0327  0.5440
  724MOL0     N99791  11.263   6.678   9.767  0.0778  0.0796 -0.0863
  724MOL0     C99792  11.336   6.564   9.783  0.5473  1.0398  0.8445
  724MOL0     C99793  11.380   6.529   9.656 -0.1107  0.5924 -0.5035
  724MOL0     C99794  11.451   6.399   9.601 -0.5657 -0.6722  0.0616
  724MOL0     C99795  11.575   6.419   9.522  0.1423 -0.1986  0.1343
  724MOL0     C99796  11.663   6.292   9.487  0.0357 -0.6436  0.2205
  724MOL0     C99797  11.792   6.348   9.426  0.9024  1.2374 -0.1299
  724MOL0     O99798  11.902   6.369   9.515 -0.9947  0.4835 -0.1464
  724MOL0     C99799  11.973   6.267   9.576 -0.6652  0.2548  0.3417
  724MOL0     C99800  11.931   6.131   9.575 -0.0168 -0.4046 -0.1926
  724MOL0     C99801  12.001   6.038   9.648 -0.5363 -0.0644 -0.5128
  724MOL0     C99802  11.936   5.900   9.670 -0.1126  1.4370 -0.0841
  724MOL0     C99803  12.130   6.071   9.704  0.2965 -0.3821  0.1286
  724MOL0     C99804  12.214   5.979   9.776 -0.5088 -0.2025  0.1446
  724MOL0     O99805  12.342   5.999   9.745 -0.4249  0.3402 -0.2610
  724MOL0     C99806  12.435   5.933   9.825 -0.2411  0.5377 -0.7742
  724MOL0     C99807  12.439   5.945   9.969 -0.4694  0.1787  0.6471
  724MOL0     C99808  12.542   5.887  10.044 -0.1905  1.3774 -0.5023
  724MOL0     C99809  12.659   5.835   9.981  0.5311 -1.0521  0.3007
  724MOL0     O99810  12.777   5.790  10.052  0.1359  0.0818  0.4030
  724MOL0     C99811  12.792   5.832  10.186 -0.2789  0.0025  0.0378
  724MOL0     C99812  12.940   5.789  10.221  0.3023 -0.5143  0.4750
  724MOL0     C99813  12.974   5.819  10.365  0.1047  0.9055  0.2407
  724MOL0     C99814  13.116   5.768  10.398 -0.5985  0.0285 -0.4093
  724MOL0     C99815  13.221   5.798  10.286  0.0383 -0.4869  1.0459
  724MOL0     C99816  13.373   5.774  10.304  0.1374 -0.3438  0.6310
  724MOL0     C99817  13.393   5.635  10.360 -0.0673 -0.1073 -0.6334
  724MOL0     C99818  13.532   5.590  10.375 -0.0916 -0.0861 -0.5284
  724MOL0    Cl99819  13.540   5.451  10.485 -0.6273 -0.1028 -0.3904
  724MOL0     C99820  12.646   5.807   9.847 -0.4230  0.3617 -0.0780
  724MOL0     C99821  12.541   5.849   9.764 -0.1095  0.2849  0.6324
  724MOL0     O99822  12.164   5.888   9.849  0.7234 -0.1796 -0.4881
  724MOL0     C99823  12.170   6.203   9.688  0.8317 -0.4584  0.3020
  724MOL0     C99824  12.091   6.297   9.636  0.3424 -1.1137 -0.5339
  724MOL0     N99825  11.350   6.633   9.576 -0.9487  0.6433  0.2153
  724MOL0     N99826  11.284   6.724   9.640 -0.2599  0.1983 -0.0585
  724MOL0     C99827  10.163   6.638   9.940 -0.1471 -0.3194 -0.1068
  724MOL0     C99828  10.066   6.733   9.956  0.6397 -0.0749  0.5882
  724MOL0     C99829   9.859   7.092  10.180  0.4304 -1.1055 -0.6438
  724MOL0     C99830   9.792   7.109  10.057 -0.1856  0.4728 -0.0974
  724MOL0     C99831   9.719   7.222  10.038 -1.2697  0.9028 -0.3939
  724MOL0     C99832   9.703   7.319  10.136  0.1138 -0.1229 -0.0879
  724MOL0     O99833   9.637   7.434  10.101  0.2309  0.1242  0.2589
  724MOL0     C99834   9.580   7.515  10.204 -0.4960  0.3933  0.1578
  724MOL0     C99835   9.456   7.580  10.150  0.0700 -0.1275  0.8273
  724MOL0     C99836   9.365   7.484  10.065  0.1551 -0.5959  0.4142
  724MOL0     C99837   9.410   7.486   9.911  0.5064 -0.1734 -0.6435
  724MOL0     C99838   9.335   7.584   9.834 -0.2242  0.1871  0.5736
  724MOL0     C99839   9.271   7.673   9.788 -0.6141 -0.2512  0.0511
  724MOL0     C99840   9.790   7.313  10.245 -0.4655  0.7513  0.5148
  724MOL0     C99841   9.870   7.204  10.275 -0.1402  0.6063  0.8713
  724MOL0     C99842   9.955   7.208  10.391  0.2357 -1.0500  0.1904
  724MOL0     H99843  10.157   6.856  10.257  0.9569 -0.1907 -0.1798
  724MOL0     H99844  10.338   6.684  10.225 -0.7075 -0.3419  0.1012
  724MOL0     H99845  10.516   6.606   9.973  0.9310 -0.1249 -2.5421
  724MOL0     H99846  10.407   6.562   9.845  0.0350  2.2680 -0.4187
  724MOL0     H99847  10.570   6.360  10.012 -1.3157 -1.5330 -0.1810
  724MOL0     H99848  10.447   6.336   9.880  0.0437  0.7409 -1.6141
  724MOL0     H99849  10.658   6.308   9.771  4.4147  1.7850 -1.5373
  724MOL0     H99850  10.577   6.446   9.706 -0.0118  1.9602  0.2286
  724MOL0     H99851  10.713   6.597   9.834  1.3592  0.1503 -1.1189
  724MOL0     H99852  10.800   6.473   9.918  1.0710  3.0827 -0.2848
  724MOL0     H99853  10.802   6.481   9.615  0.1445 -1.0981  0.0768
  724MOL0     H99854  10.896   6.381   9.714 -1.0461 -0.7385  3.3261
  724MOL0     H99855  11.046   6.549   9.641  0.1931 -0.5226  0.2905
  724MOL0     H99856  10.925   6.682   9.674 -0.3374 -0.3220  1.1367
  724MOL0     H99857  11.070   6.527   9.888 -0.5499  0.3291  0.1238
  724MOL0     H99858  10.962   6.658   9.918  0.3724 -0.3165  0.0219
  724MOL0     H99859  11.113   6.815   9.803  0.3084  0.4175  1.2166
  724MOL0     H99860  11.189   6.744   9.946  1.4868 -1.9143  0.4565
  724MOL0     H99861  11.338   6.505   9.874  1.0800 -0.4734 -0.1144
  724MOL0     H99862  11.384   6.348   9.531 -1.5361  0.8373 -0.1549
  724MOL0     H99863  11.477   6.331   9.682  0.8672 -1.4988 -1.0570
  724MOL0     H99864  11.550   6.454   9.421 -2.0165 -1.2529  0.2597
  724MOL0     H99865  11.642   6.482   9.580  0.8819 -0.6900 -0.1575
  724MOL0     H99866  11.675   6.246   9.585 -3.3307  0.5453  1.3599
  724MOL0     H99867  11.609   6.211   9.438  0.0094 -1.0372  0.8894
  724MOL0     H99868  11.818   6.271   9.353 -1.9572 -1.4910  1.5053
  724MOL0     H99869  11.779   6.431   9.355  1.6156  0.8430 -0.7435
  724MOL0     H99870  11.835   6.095   9.539 -0.9846  0.0955  1.7348
  724MOL0     H99871  11.853   5.890   9.600 -1.4326 -0.2980  1.6017
  724MOL0     H99872  11.894   5.894   9.771  2.4875  1.5375  1.1044
  724MOL0     H99873  12.005   5.815   9.679  0.9402  2.4568  3.4409
  724MOL0     H99874  12.360   6.002  10.018 -0.2640  0.1788  0.9780
  724MOL0     H99875  12.524   5.899  10.150  1.0718 -1.3322  0.1096
  724MOL0     H99876  12.768   5.939  10.190 -0.6096 -0.0878  0.7144
  724MOL0     H99877  12.714   5.787  10.248 -0.3291 -1.4506 -1.0237
  724MOL0     H99878  12.943   5.680  10.208  4.0213 -0.4847 -0.2062
  724MOL0     H99879  13.012   5.841  10.156  2.6986 -2.1134  1.6893
  724MOL0     H99880  12.907   5.775  10.439  1.5435 -0.3062  0.8863
  724MOL0     H99881  12.972   5.926  10.388  2.1651  1.0129  0.0866
  724MOL0     H99882  13.108   5.660  10.417  1.8424  0.1591  2.0315
  724MOL0     H99883  13.144   5.819  10.490  1.3547  1.4167 -1.7044
  724MOL0     H99884  13.193   5.737  10.199 -0.5200  0.9767  0.1579
  724MOL0     H99885  13.206   5.905  10.270 -0.3747  0.2093  5.0633
  724MOL0     H99886  13.413   5.862  10.356  0.8149  0.5209 -1.2526
  724MOL0     H99887  13.415   5.783  10.203  1.2733 -2.5834  0.8281
  724MOL0     H99888  13.356   5.552  10.298  0.3178 -0.8947  0.1723
  724MOL0     H99889  13.348   5.635  10.459  3.3303  0.6157  1.0349
  724MOL0     H99890  13.590   5.675  10.412 -0.1810  0.3711 -1.4121
  724MOL0     H99891  13.577   5.563  10.279  1.4443 -0.1283  0.1827
  724MOL0     H99892  12.732   5.759   9.800 -0.6630 -0.9500  0.7792
  724MOL0     H99893  12.543   5.833   9.657  0.2263  0.6493  0.5830
  724MOL0     H99894  12.266   6.231   9.732  1.0474  0.8111 -0.9063
  724MOL0     H99895  12.123   6.401   9.636  2.3420 -1.6570 -2.5722
  724MOL0     H99896  10.164   6.573   9.853  0.9212 -1.3229  0.6195
  724MOL0     H99897   9.987   6.745   9.884  2.4027  3.7092 -0.9744
  724MOL0     H99898   9.800   7.036   9.977 -0.3519  1.5351 -1.0960
  724MOL0     H99899   9.669   7.211   9.943 -2.0451 -2.5146  0.2714
  724MOL0     H99900   9.544   7.453  10.287  0.8894  1.5128  1.6593
  724MOL0     H99901   9.654   7.589  10.236  0.7516 -1.4680  1.8684
  724MOL0     H99902   9.485   7.672  10.097 -0.0834  0.3505  1.5569
  724MOL0     H99903   9.396   7.611  10.236 -1.3077  0.4997 -0.3280
  724MOL0     H99904   9.381   7.386  10.111  0.9209 -0.9420 -0.5533
  724MOL0     H99905   9.261   7.516  10.069  0.6588  1.2720 -0.2039
  724MOL0     H99906   9.391   7.392   9.857 -1.3752 -1.5254  2.1454
  724MOL0     H99907   9.518   7.504   9.906  1.2182 -2.2749  3.1399
  724MOL0     H99908   9.209   7.746   9.740  0.6276  1.0484  0.3141
  724MOL0     H99909   9.808   7.404  10.301 -0.1710  0.2314  1.2740
  724MOL0     H99910  10.060   7.223  10.364  0.0308  2.3498  0.8037
  724MOL0     H99911   9.930   7.290  10.459  1.0297  0.6085 -1.4092
  724MOL0     H99912   9.945   7.117  10.450 -0.3416  1.5120  4.4796
  725MOL0     O99913   9.437   4.303  10.137  0.2328 -0.3046 -0.3425
  725MOL0     C99914   9.551   4.339  10.118  0.1368 -0.2295  0.0961
  725MOL0     O99915   9.582   4.402  10.007  0.1436 -0.2059  0.0221
  725MOL0     C99916   9.499   4.425   9.895 -0.3126  0.5173 -0.5280
  725MOL0     C99917   9.364   4.443   9.896 -0.7846  0.3833 -0.7426
  725MOL0     C99918   9.295   4.496   9.776  0.0664 -0.1381  0.0612
  725MOL0     C99919   9.370   4.553   9.674  0.3851  0.2537  0.4371
  725MOL0     O99920   9.316   4.617   9.560  0.5060 -0.7163 -0.3820
  725MOL0     C99921   9.183   4.578   9.528 -0.3051  0.5499  0.1511
  725MOL0     C99922   9.163   4.617   9.375  0.3954  1.2478  0.1884
  725MOL0     C99923   9.245   4.526   9.283  0.0870 -0.7086  0.0461
  725MOL0     C99924   9.223   4.560   9.143  1.0856 -0.1961  1.1438
  725MOL0     C99925   9.310   4.466   9.060 -0.6841  0.0139  0.0154
  725MOL0     C99926   9.322   4.510   8.909 -0.3123  0.3402  0.1438
  725MOL0     C99927   9.182   4.535   8.854 -0.1957 -0.4495  0.5320
  725MOL0     C99928   9.181   4.532   8.703 -0.8085 -0.3198  0.1383
  725MOL0     N99929   9.276   4.615   8.629 -0.4253 -0.0172  0.0146
  725MOL0     C99930   9.301   4.754   8.638  0.5506  0.0284  0.8176
  725MOL0     C99931   9.364   4.794   8.529  0.0704 -0.5028  0.2677
  725MOL0     C99932   9.416   4.940   8.514  0.8371  0.1349  0.6057
  725MOL0     C99933   9.565   4.947   8.501  0.9263 -0.1362  0.3516
  725MOL0     C99934   9.612   5.081   8.455  0.1115  0.2638  0.4751
  725MOL0     C99935   9.721   5.158   8.539  1.0225  0.2850 -1.2442
  725MOL0     O99936   9.837   5.079   8.506 -0.5969 -1.3239  0.3907
  725MOL0     C99937   9.940   5.081   8.588 -0.1128 -0.3895 -0.4925
  725MOL0     C99938   9.957   5.179   8.691  0.2551 -0.2084  0.4958
  725MOL0     C99939  10.074   5.178   8.782  0.9350 -0.4012  0.0803
  725MOL0     C99940  10.070   5.263   8.907  0.4412 -0.8052 -1.3578
  725MOL0     C99941  10.179   5.080   8.748  0.9249  0.5914  0.8818
  725MOL0     C99942  10.307   5.064   8.822 -0.0260  0.0293  0.8872
  725MOL0     O99943  10.384   4.954   8.802 -0.5427 -0.0110  0.3197
  725MOL0     C99944  10.479   4.920   8.897 -0.5984  0.2728 -0.5945
  725MOL0     C99945  10.462   4.913   9.031  0.2899  0.2870 -0.0727
  725MOL0     C99946  10.553   4.858   9.118 -0.3576  0.1204 -0.0570
  725MOL0     C99947  10.678   4.825   9.069 -0.2666 -0.6576  0.1060
  725MOL0     O99948  10.760   4.772   9.164  0.0883  1.1396  0.1164
  725MOL0     C99949  10.868   4.699   9.101 -0.5982 -0.2117 -0.5393
  725MOL0     C99950  10.963   4.638   9.201 -0.0365 -0.6903 -0.0542
  725MOL0     C99951  11.084   4.564   9.131  0.0233  0.2422 -0.4795
  725MOL0     C99952  11.197   4.553   9.221 -0.0041 -0.4785 -1.2996
  725MOL0     C99953  11.299   4.457   9.168  0.8551 -0.5494 -0.7118
  725MOL0     C99954  11.422   4.442   9.255 -0.3252 -0.2667 -0.0364
  725MOL0     C99955  11.506   4.318   9.220  0.2521  0.6655 -0.6981
  725MOL0     C99956  11.659   4.341   9.221 -0.2640  1.0004  0.6666
  725MOL0    Cl99957  11.734   4.379   9.376  0.0068 -0.4876  0.2593
  725MOL0     C99958  10.702   4.837   8.931 -1.1697  0.1246 -0.2256
  725MOL0     C99959  10.604   4.885   8.846  0.9261 -0.2877 -0.6531
  725MOL0     O99960  10.318   5.140   8.916  0.1207  0.2084 -0.4439
  725MOL0     C99961  10.153   4.981   8.645 -0.1818 -1.3728 -0.7647
  725MOL0     C99962  10.045   4.989   8.565  0.0807 -0.3160 -0.0050
  725MOL0     N99963   9.376   4.681   8.455  0.2549 -0.5875  0.0797
  725MOL0     N99964   9.336   4.579   8.517 -0.9399 -0.8632 -0.0018
  725MOL0     C99965   9.506   4.534   9.678 -0.1257  0.1832 -0.4190
  725MOL0     C99966   9.568   4.466   9.782 -0.5000 -0.5401 -0.3990
  725MOL0     C99967   9.649   4.309  10.227 -0.4946 -0.8329  0.4975
  725MOL0     C99968   9.621   4.231  10.341 -0.5674  1.0861  0.3200
  725MOL0     C99969   9.717   4.195  10.435 -0.7450  0.4237  0.0696
  725MOL0     C99970   9.844   4.247  10.432 -1.2543 -0.3580 -0.5555
  725MOL0     O99971   9.934   4.215  10.530 -0.1408 -0.1402 -0.3261
  725MOL0     C99972  10.068   4.256  10.518  0.4206 -0.9951  0.2137
  725MOL0     C99973  10.148   4.164  10.417 -0.5786 -0.4030  0.2863
  725MOL0     C99974  10.298   4.195  10.412  0.6898  1.3242  0.1111
  725MOL0     C99975  10.365   4.086  10.497 -0.6553 -0.3662 -0.8401
  725MOL0     C99976  10.510   4.125  10.492  0.0750  0.1208 -0.0006
  725MOL0     C99977  10.624   4.161  10.496 -0.8554  0.1290 -0.3043
  725MOL0     C99978   9.875   4.331  10.323  1.8405 -0.8070  0.7010
  725MOL0     C99979   9.784   4.362  10.218  0.9928 -0.2131  0.0536
  725MOL0     C99980   9.839   4.448  10.102  0.0285 -0.2025 -0.9386
  725MOL0     H99981   9.303   4.426   9.984 -0.0157  0.7879 -0.1159
  725MOL0     H99982   9.186   4.493   9.783  0.0816 -0.8218  0.0436
  725MOL0     H99983   9.105   4.627   9.587  0.2442  0.8731  0.6258
  725MOL0     H99984   9.186   4.469   9.528  1.6421  0.5592  0.7256
  725MOL0     H99985   9.056   4.597   9.362  0.5839  0.3264 -0.0584
  725MOL0     H99986   9.200   4.719   9.361  1.6161  0.7346 -0.5669
  725MOL0     H99987   9.352   4.525   9.303  0.2346 -0.7764 -0.7179
  725MOL0     H99988   9.196   4.431   9.308 -0.5723 -0.3671  0.0851
  725MOL0     H99989   9.118   4.555   9.113  0.7796  0.0320  2.1611
  725MOL0     H99990   9.250   4.666   9.136 -1.3537  0.5406  2.1773
  725MOL0     H99991   9.277   4.363   9.079 -0.2825  0.4130  3.6030
  725MOL0     H99992   9.408   4.451   9.107 -0.5025 -0.8583 -0.6020
  725MOL0     H99993   9.376   4.605   8.898  2.6490 -1.1273  1.0046
  725MOL0     H99994   9.366   4.428   8.852 -0.9928  0.7822 -1.0546
  725MOL0     H99995   9.135   4.625   8.896 -3.2001 -1.4503 -0.4098
  725MOL0     H99996   9.112   4.456   8.883 -0.5155  0.0104  1.0401
  725MOL0     H99997   9.181   4.430   8.662  1.7196 -0.1410 -0.5015
  725MOL0     H99998   9.080   4.563   8.675 -0.2205  1.3794 -0.1904
  725MOL0     H99999   9.262   4.817   8.718 -0.0109  0.2193  0.3989
  725MOL0     H    0   9.385   5.007   8.594  1.9141 -0.2529  1.3623
  725MOL0     H    1   9.373   4.982   8.422 -1.4921  0.2528  1.6875
  725MOL0     H    2   9.610   4.936   8.600 -0.6393  0.7390  1.1966
  725MOL0     H    3   9.597   4.859   8.445  1.7478  0.2664  0.1699
  725MOL0     H    4   9.652   5.067   8.354 -3.0761 -0.0780 -0.8492
  725MOL0     H    5   9.527   5.149   8.455  1.3393  1.9043 -1.2847
  725MOL0     H    6   9.737   5.261   8.507  2.5815 -0.1715 -2.0523
  725MOL0     H    7   9.691   5.155   8.644  1.1659  1.3857 -1.1667
  725MOL0     H    8   9.872   5.241   8.716 -3.1818 -4.3928  0.2657
  725MOL0     H    9  10.148   5.340   8.906 -0.7073  0.4469 -0.0284
  725MOL0     H   10  10.064   5.214   9.004  1.5155  0.7442 -0.4578
  725MOL0     H   11   9.979   5.323   8.907 -0.5191 -2.2242 -0.5011
  725MOL0     H   12  10.371   4.956   9.072  1.0345  1.7136  0.1370
  725MOL0     H   13  10.525   4.842   9.222 -2.1176 -0.7648 -0.6187
  725MOL0     H   14  10.836   4.621   9.032 -0.2600  1.0902 -2.2422
  725MOL0     H   15  10.920   4.775   9.041 -2.3488  1.9757  0.5784
  725MOL0     H   16  10.989   4.714   9.275 -2.5536  0.2630 -0.0623
  725MOL0     H   17  10.913   4.565   9.264 -1.0612 -1.5017 -1.7370
  725MOL0     H   18  11.119   4.602   9.034 -0.1704  1.3549 -0.1252
  725MOL0     H   19  11.044   4.465   9.105 -0.6776  0.0254  1.3340
  725MOL0     H   20  11.165   4.525   9.322 -0.3935 -4.0361 -2.2736
  725MOL0     H   21  11.244   4.651   9.233  0.1031 -0.5720 -0.9288
  725MOL0     H   22  11.248   4.360   9.171  0.6741 -0.4328  1.4332
  725MOL0     H   23  11.320   4.480   9.063  2.9677  1.4667  0.0509
  725MOL0     H   24  11.401   4.443   9.362  1.0049  2.2545  0.2803
  725MOL0     H   25  11.483   4.528   9.228  0.5344 -0.3208  1.6239
  725MOL0     H   26  11.471   4.292   9.120 -1.3233 -0.1313  0.0259
  725MOL0     H   27  11.472   4.249   9.297 -0.0671  1.6861  0.1102
  725MOL0     H   28  11.697   4.419   9.154  1.9661 -0.0761  0.5802
  725MOL0     H   29  11.702   4.251   9.176 -0.0740  1.4206 -0.0240
  725MOL0     H   30  10.790   4.789   8.890 -0.6475  0.6717  0.2106
  725MOL0     H   31  10.610   4.880   8.738 -4.3443 -1.7587 -1.1590
  725MOL0     H   32  10.224   4.906   8.611  0.6339 -0.2646 -1.5913
  725MOL0     H   33  10.031   4.912   8.490  1.4407  0.2113 -0.8382
  725MOL0     H   34   9.561   4.573   9.593 -1.4683  0.9766 -0.9545
  725MOL0     H   35   9.676   4.467   9.776 -0.5149 -0.8075 -0.7634
  725MOL0     H   36   9.523   4.190  10.363 -0.0761 -1.0251 -1.0740
  725MOL0     H   37   9.703   4.111  10.503 -3.6570 -0.4291 -1.4507
  725MOL0     H   38  10.076   4.364  10.504  1.0643 -0.7602  2.1162
  725MOL0     H   39  10.108   4.244  10.620 -0.8734  2.1500  1.2206
  725MOL0     H   40  10.102   4.186  10.321  2.7235  2.7362 -0.8217
  725MOL0     H   41  10.125   4.058  10.424 -0.5353 -0.5307 -1.2389
  725MOL0     H   42  10.330   4.199  10.308  1.2589  3.1627  0.3320
  725MOL0     H   43  10.321   4.291  10.458  0.6831  0.7121  1.4729
  725MOL0     H   44  10.339   3.987  10.459 -0.7496 -0.9095  0.5950
  725MOL0     H   45  10.322   4.090  10.597 -0.3020 -1.4599 -0.6368
  725MOL0     H   46  10.726   4.190  10.511 -0.6562 -0.0266 -1.3153
  725MOL0     H   47   9.976   4.366  10.308  1.7778 -2.0178 -3.7492
  725MOL0     H   48   9.947   4.454  10.119  0.5445 -5.9110 -0.2660
  725MOL0     H   49   9.843   4.402  10.002  2.7346  1.7777 -1.8727
  725MOL0     H   50   9.800   4.548  10.085  0.4857  0.6913  2.4891
  726MOL0     O   51   1.054  10.316   8.764 -0.2141  0.6378 -0.2246
  726MOL0     C   52   1.007  10.404   8.697 -0.2316 -0.0009 -0.0806
  726MOL0     O   53   1.040  10.441   8.569 -0.1511  0.5446 -0.4612
  726MOL0     C   54   1.159  10.405   8.508  1.0722  0.2291  0.5558
  726MOL0     C   55   1.242  10.493   8.450 -1.0782  0.8151  0.1878
  726MOL0     C   56   1.361  10.449   8.395  0.0619 -0.2004 -0.1866
  726MOL0     C   57   1.394  10.315   8.378  1.7478  0.2416  0.0004
  726MOL0     O   58   1.501  10.270   8.305 -0.4960  0.4077  0.5189
  726MOL0     C   59   1.588  10.367   8.233  0.2761  0.0581 -0.7952
  726MOL0     C   60   1.708  10.307   8.154  0.0866  0.1179  0.8823
  726MOL0     C   61   1.847  10.389   8.172 -0.1610  0.0807 -0.4759
  726MOL0     C   62   1.949  10.349   8.063  0.5717  0.1340 -0.5118
  726MOL0     C   63   2.084  10.403   8.103 -0.8800 -0.5122  0.1431
  726MOL0     C   64   2.204  10.370   8.015  0.6218 -0.1038  0.1674
  726MOL0     C   65   2.353  10.423   8.056  0.3584  0.2467  0.1482
  726MOL0     C   66   2.363  10.574   8.029 -0.0128 -0.6535  0.2892
  726MOL0     N   67   2.492  10.640   8.063 -0.0612  0.5959  0.6783
  726MOL0     C   68   2.536  10.689   8.188  0.2306  0.2382  0.3448
  726MOL0     C   69   2.667  10.726   8.173  0.6223  0.0524  0.5459
  726MOL0     C   70   2.770  10.774   8.274  0.2428 -0.8346 -0.0919
  726MOL0     C   71   2.817  10.914   8.231 -0.4300  0.5201  0.4577
  726MOL0     C   72   2.861  10.998   8.344 -0.6074  0.1655 -0.4879
  726MOL0     C   73   2.761  11.059   8.436  0.0450  0.2602  0.8475
  726MOL0     O   74   2.659  11.127   8.365  0.1399 -0.2758  0.4844
  726MOL0     C   75   2.548  11.116   8.441 -0.0998  0.6251  0.4502
  726MOL0     C   76   2.536  11.163   8.567  0.0173 -1.3551  0.4949
  726MOL0     C   77   2.404  11.161   8.627 -1.1871 -0.1335  0.6831
  726MOL0     C   78   2.403  11.221   8.769  0.0030  0.1179  0.1241
  726MOL0     C   79   2.298  11.102   8.560 -0.0454  0.5798 -0.5121
  726MOL0     C   80   2.159  11.080   8.617  0.3451 -0.0224 -0.6258
  726MOL0     O   81   2.069  11.005   8.544  0.1214 -0.1699 -0.0112
  726MOL0     C   82   1.945  10.980   8.603 -0.9082  1.3468 -0.4841
  726MOL0     C   83   1.835  11.055   8.550  0.4238  0.3626  0.0841
  726MOL0     C   84   1.708  11.042   8.596 -0.5120  0.5125  0.5116
  726MOL0     C   85   1.677  10.938   8.685 -0.6425 -1.1151  0.2185
  726MOL0     O   86   1.551  10.907   8.719 -0.4345 -1.0350  0.3002
  726MOL0     C   87   1.518  10.788   8.795  0.8074  0.0606 -0.2558
  726MOL0     C   88   1.377  10.740   8.778 -0.0375  0.1111  0.0936
  726MOL0     C   89   1.273  10.858   8.783 -0.4637  0.2598 -0.1636
  726MOL0     C   90   1.278  10.935   8.913 -0.1329 -0.1992  0.0158
  726MOL0     C   91   1.269  10.840   9.035 -0.4108 -0.2616  0.7021
  726MOL0     C   92   1.141  10.754   9.036 -0.1656 -0.7510  0.1775
  726MOL0     C   93   1.148  10.665   9.145 -0.1763  0.4902 -0.7676
  726MOL0     C   94   1.036  10.559   9.145 -0.3997 -0.3020 -0.4496
  726MOL0    Cl   95   0.872  10.635   9.178 -0.2891 -0.0174 -0.5343
  726MOL0     C   96   1.787  10.882   8.750 -0.3588  0.3006 -0.2816
  726MOL0     C   97   1.920  10.900   8.710 -0.0393  0.1910  0.0979
  726MOL0     O   98   2.134  11.119   8.731  0.6269 -0.1936  0.4295
  726MOL0     C   99   2.324  11.046   8.439 -0.8923  1.0555  0.0547
  726MOL0     C  100   2.447  11.045   8.377 -0.3370 -0.0586 -0.2083
  726MOL0     N  101   2.700  10.707   8.035  0.3096  0.6280  0.4738
  726MOL0     N  102   2.600  10.650   7.973  0.2868 -0.2374 -0.1010
  726MOL0     C  103   1.303  10.215   8.423 -0.3470 -0.6121  0.2684
  726MOL0     C  104   1.194  10.264   8.493  0.4068 -0.3952 -0.1122
  726MOL0     C  105   0.891  10.474   8.757 -0.3825 -1.5284 -0.2637
  726MOL0     C  106   0.826  10.415   8.876 -0.6125 -0.2640 -0.2654
  726MOL0     C  107   0.716  10.477   8.936 -0.2166 -0.4392 -0.0624
  726MOL0     C  108   0.667  10.595   8.893  0.4717 -0.2621  0.4331
  726MOL0     O  109   0.562  10.647   8.965 -0.1234 -0.1204  0.0271
  726MOL0     C  110   0.511  10.782   8.963  0.3914  0.6340  0.2097
  726MOL0     C  111   0.590  10.880   9.045  0.9090  0.3802  1.7059
  726MOL0     C  112   0.510  11.017   9.054  0.2739 -0.1904  0.3732
  726MOL0     C  113   0.566  11.113   9.161 -0.9472 -0.6754  0.0110
  726MOL0     C  114   0.709  11.129   9.128 -0.0131 -0.3013  0.8060
  726MOL0     C  115   0.826  11.163   9.107 -0.2613 -0.2083 -0.0361
  726MOL0     C  116   0.732  10.658   8.782  0.6772 -0.2317 -0.3008
  726MOL0     C  117   0.839  10.598   8.715  0.1677 -0.2728 -0.2323
  726MOL0     C  118   0.892  10.676   8.593  0.8946 -0.0328 -0.6474
  726MOL0     H  119   1.207  10.596   8.454  0.9520  1.7369 -2.6902
  726MOL0     H  120   1.407  10.529   8.338 -3.6892  0.5181 -2.5310
  726MOL0     H  121   1.625  10.439   8.306 -0.2346 -0.7359  0.2905
  726MOL0     H  122   1.527  10.418   8.158 -3.0502 -0.4217  1.3572
  726MOL0     H  123   1.713  10.199   8.174 -0.5108  0.1153  1.0430
  726MOL0     H  124   1.673  10.311   8.051  0.7260  1.6322  0.7041
  726MOL0     H  125   1.837  10.498   8.169  0.2675  0.1058 -1.2562
  726MOL0     H  126   1.892  10.378   8.271  0.8846  0.4510 -0.8976
  726MOL0     H  127   1.942  10.243   8.037  2.0378 -0.5978  1.7593
  726MOL0     H  128   1.930  10.402   7.969  2.1421 -2.1664 -2.2274
  726MOL0     H  129   2.107  10.385   8.208  0.0988  0.0814  0.0386
  726MOL0     H  130   2.061  10.509   8.090 -2.8402 -0.9507 -0.3028
  726MOL0     H  131   2.200  10.262   8.006 -0.3922 -0.1525  1.0702
  726MOL0     H  132   2.178  10.420   7.921  0.9620  1.1014  0.6870
  726MOL0     H  133   2.423  10.383   7.982 -0.9525 -0.5201 -0.7258
  726MOL0     H  134   2.384  10.396   8.157  1.9971  0.7773 -0.1812
  726MOL0     H  135   2.353  10.590   7.922 -1.9594 -1.5939  0.3002
  726MOL0     H  136   2.281  10.632   8.072 -0.9467 -1.1346 -0.8275
  726MOL0     H  137   2.480  10.689   8.281  1.1124 -0.7257  0.8996
  726MOL0     H  138   2.854  10.704   8.280 -0.2209 -1.3390  0.8319
  726MOL0     H  139   2.724  10.777   8.373 -0.7728  0.1761 -0.5737
  726MOL0     H  140   2.896  10.892   8.159  1.9343  0.7963  2.8214
  726MOL0     H  141   2.743  10.971   8.174  1.0516  1.8851 -0.1930
  726MOL0     H  142   2.930  10.945   8.411 -1.0531  2.1261  1.6805
  726MOL0     H  143   2.915  11.079   8.293  0.6414 -1.9379 -2.7017
  726MOL0     H  144   2.723  10.978   8.500  2.2717  0.4281  2.5457
  726MOL0     H  145   2.813  11.122   8.509  2.4445 -2.3561  1.6210
  726MOL0     H  146   2.617  11.215   8.615 -0.0617 -0.0799 -0.6710
  726MOL0     H  147   2.328  11.178   8.837 -1.4980  1.5937 -0.5077
  726MOL0     H  148   2.388  11.329   8.759 -1.3133 -0.1478 -1.2283
  726MOL0     H  149   2.502  11.211   8.814  0.9996  2.2136 -1.4144
  726MOL0     H  150   1.863  11.133   8.480  0.9200  1.7535  1.7668
  726MOL0     H  151   1.628  11.102   8.553 -0.0681  1.7482  1.3585
  726MOL0     H  152   1.589  10.711   8.762  2.5233  2.3739 -2.3334
  726MOL0     H  153   1.542  10.806   8.900 -0.4217  2.3655 -0.3213
  726MOL0     H  154   1.374  10.702   8.675  3.4757 -0.4338  0.0521
  726MOL0     H  155   1.360  10.654   8.845 -1.5543  1.5274  1.6128
  726MOL0     H  156   1.173  10.818   8.761 -0.5658  1.6284 -2.4875
  726MOL0     H  157   1.274  10.934   8.704 -1.6654 -0.0446 -0.4926
  726MOL0     H  158   1.198  11.009   8.910 -0.6866 -0.8129 -0.9112
  726MOL0     H  159   1.371  10.990   8.930 -0.5353  0.1247  1.3346
  726MOL0     H  160   1.366  10.790   9.033 -0.1789  0.1466 -2.1661
  726MOL0     H  161   1.266  10.896   9.130 -1.4157  0.4007  0.3028
  726MOL0     H  162   1.134  10.699   8.942 -0.7909 -0.1644 -0.1323
  726MOL0     H  163   1.054  10.819   9.048  0.5074 -0.0589  1.4891
  726MOL0     H  164   1.145  10.722   9.238  2.3880  1.2598 -1.0767
  726MOL0     H  165   1.245  10.614   9.149 -0.0073  0.7974  3.1088
  726MOL0     H  166   1.054  10.488   9.226  0.9697 -0.7378 -1.0875
  726MOL0     H  167   1.033  10.499   9.054  0.6810 -1.2046  0.0870
  726MOL0     H  168   1.769  10.810   8.829 -1.7459  2.0477  1.0604
  726MOL0     H  169   2.004  10.861   8.767 -2.5950 -1.6170  2.9478
  726MOL0     H  170   2.247  10.989   8.388 -0.1548 -0.5740  0.6854
  726MOL0     H  171   2.457  10.999   8.279  2.1493 -0.3274  0.1089
  726MOL0     H  172   1.330  10.112   8.401 -0.0541  0.0961 -3.3234
  726MOL0     H  173   1.134  10.181   8.529 -0.5489 -0.2694 -1.3414
  726MOL0     H  174   0.863  10.320   8.914 -0.4122  0.0729  0.3998
  726MOL0     H  175   0.675  10.439   9.029  0.6138 -0.8161  0.1653
  726MOL0     H  176   0.520  10.818   8.860  6.4857 -4.4973 -1.6484
  726MOL0     H  177   0.412  10.787   9.010  1.4370  1.0792  2.5339
  726MOL0     H  178   0.686  10.897   8.997  0.7996 -0.2236  1.2620
  726MOL0     H  179   0.601  10.824   9.138 -1.4539 -3.4750 -0.0688
  726MOL0     H  180   0.512  11.065   8.956  4.6388 -2.3186 -0.8094
  726MOL0     H  181   0.407  11.001   9.088  0.0373  1.7441  0.6624
  726MOL0     H  182   0.555  11.060   9.256 -0.7136 -2.9820 -1.1722
  726MOL0     H  183   0.514  11.209   9.156 -1.6198 -0.8317  2.6909
  726MOL0     H  184   0.920  11.215   9.102  1.4151 -2.8862  1.3472
  726MOL0     H  185   0.699  10.760   8.764 -1.2664 -0.4085  1.7521
  726MOL0     H  186   0.872  10.780   8.622 -3.3810 -0.6454 -0.7982
  726MOL0     H  187   0.998  10.677   8.566  0.0357 -0.5520 -4.7562
  726MOL0     H  188   0.828  10.650   8.508 -0.5956 -1.6122  0.8737
  727MOL0     O  189   4.811   0.799   9.163 -0.3076  0.1095  0.3388
  727MOL0     C  190   4.771   0.685   9.122 -0.3343 -1.0467 -0.1065
  727MOL0     O  191   4.847   0.578   9.103 -0.2631 -0.5469  0.3565
  727MOL0     C  192   4.979   0.584   9.112 -0.2516  0.5484  0.1192
  727MOL0     C  193   5.047   0.584   9.237 -0.3984 -0.1258  1.0231
  727MOL0     C  194   5.185   0.585   9.254  1.5946  0.9722  1.2126
  727MOL0     C  195   5.259   0.573   9.128 -0.0026 -1.0592  0.3242
  727MOL0     O  196   5.395   0.570   9.151  0.3574  0.8760  0.3605
  727MOL0     C  197   5.474   0.511   9.048 -0.0487 -0.8537  0.1269
  727MOL0     C  198   5.625   0.503   9.092 -0.6792  0.1328  0.6919
  727MOL0     C  199   5.691   0.634   9.131  0.3353  0.0058 -0.6364
  727MOL0     C  200   5.842   0.612   9.178  0.9436  0.8593  0.1764
  727MOL0     C  201   5.839   0.506   9.286 -0.6748 -0.1249  0.1590
  727MOL0     C  202   5.748   0.531   9.410  0.2334  0.0367  0.0818
  727MOL0     C  203   5.774   0.426   9.512 -1.0337  0.0507  0.1831
  727MOL0     C  204   5.734   0.482   9.635  0.7338 -0.0261 -0.2860
  727MOL0     N  205   5.707   0.376   9.736 -0.4592 -0.2419 -0.3456
  727MOL0     C  206   5.615   0.272   9.735 -0.2424  0.6681 -0.8967
  727MOL0     C  207   5.662   0.173   9.817  0.8238 -0.6785 -0.9475
  727MOL0     C  208   5.580   0.053   9.865 -0.1712  0.2403  0.9410
  727MOL0     C  209   5.422   0.073   9.860  0.4512 -0.2597  0.2512
  727MOL0     C  210   5.342  -0.043   9.923  0.0141  0.7453 -0.8127
  727MOL0     C  211   5.204   0.006   9.966  0.1529 -0.5371 -0.0309
  727MOL0     O  212   5.114   0.042   9.862  0.7044  0.4895 -0.0938
  727MOL0     C  213   5.087  -0.061   9.769 -0.4307  0.2222  0.7232
  727MOL0     C  214   5.064  -0.193   9.803 -0.4886 -0.0899 -0.0813
  727MOL0     C  215   5.052  -0.293   9.704  0.9156 -0.3336 -0.3346
  727MOL0     C  216   5.062  -0.431   9.766  0.9509 -0.1171 -0.0802
  727MOL0     C  217   5.052  -0.254   9.567  0.8828 -0.7971 -0.2816
  727MOL0     C  218   5.039  -0.345   9.453  0.0165 -0.2170 -0.6744
  727MOL0     O  219   5.081  -0.293   9.330  0.0286 -0.3120 -0.0634
  727MOL0     C  220   5.074  -0.361   9.216 -0.7070 -0.2463 -0.5174
  727MOL0     C  221   4.973  -0.349   9.124  0.4179  0.1530  0.3263
  727MOL0     C  222   4.977  -0.411   9.003  0.7739 -0.2677 -0.2738
  727MOL0     C  223   5.075  -0.507   8.970 -0.3059  0.7776  0.4870
  727MOL0     O  224   5.074  -0.566   8.840 -0.3271  0.0407 -0.2806
  727MOL0     C  225   4.958  -0.578   8.760 -0.0636  1.1886  0.0818
  727MOL0     C  226   4.836  -0.640   8.828 -0.2277 -0.3917  0.0792
  727MOL0     C  227   4.710  -0.608   8.752 -0.9330  0.6571  0.6260
  727MOL0     C  228   4.702  -0.637   8.604 -0.1038 -1.0845 -0.1981
  727MOL0     C  229   4.716  -0.781   8.565 -0.4069 -0.5591  0.2290
  727MOL0     C  230   4.690  -0.794   8.421 -0.2040  0.1671  0.0026
  727MOL0     C  231   4.798  -0.732   8.326  0.8929  0.3640  0.2139
  727MOL0     C  232   4.839  -0.820   8.212  0.7533 -0.1512  0.4090
  727MOL0    Cl  233   4.949  -0.944   8.274  0.3448  0.2974 -0.5572
  727MOL0     C  234   5.175  -0.527   9.073 -0.0613 -0.1244  0.8519
  727MOL0     C  235   5.181  -0.452   9.188  0.0996 -0.4279  0.0554
  727MOL0     O  236   5.007  -0.460   9.474  0.2715  0.0433  0.0219
  727MOL0     C  237   5.049  -0.117   9.535 -0.2521  0.2117 -0.6620
  727MOL0     C  238   5.059  -0.020   9.634  0.1768 -0.1259 -0.2062
  727MOL0     N  239   5.774   0.229   9.876 -0.5325  0.6858 -0.3431
  727MOL0     N  240   5.799   0.343   9.834 -0.5098  0.2694  0.5588
  727MOL0     C  241   5.197   0.582   9.004 -0.4952  0.7487 -0.8281
  727MOL0     C  242   5.061   0.583   8.996  0.3809  0.3513 -0.3306
  727MOL0     C  243   4.626   0.657   9.097 -0.3359  0.1213  0.9907
  727MOL0     C  244   4.592   0.544   9.012  0.4897  0.1456  0.0905
  727MOL0     C  245   4.461   0.501   8.980  0.1255 -0.3971 -0.6367
  727MOL0     C  246   4.355   0.579   9.034  0.4635 -0.3361 -0.4813
  727MOL0     O  247   4.226   0.542   9.012  0.2016  0.8625 -0.1689
  727MOL0     C  248   4.121   0.639   9.023  0.4881 -0.3213 -0.0168
  727MOL0     C  249   4.066   0.644   9.167  0.4880  0.4000 -0.3068
  727MOL0     C  250   3.963   0.530   9.176 -0.6307 -0.5884 -0.0865
  727MOL0     C  251   3.872   0.550   9.292  0.3879 -0.0044  0.6562
  727MOL0     C  252   3.756   0.642   9.285 -0.0008 -0.6811  0.1306
  727MOL0     C  253   3.658   0.712   9.275 -0.0222  0.4739  0.4818
  727MOL0     C  254   4.387   0.680   9.126  0.2535 -0.3172 -0.0702
  727MOL0     C  255   4.516   0.721   9.149 -0.2473 -0.7615  0.0899
  727MOL0     C  256   4.534   0.837   9.247 -0.2267  0.6557 -0.0324
  727MOL0     H  257   5.000   0.589   9.335  1.5129  3.6210  1.9572
  727MOL0     H  258   5.237   0.590   9.349  1.1960 -0.4742  1.5168
  727MOL0     H  259   5.486   0.576   8.960  1.9196  0.6460  1.4233
  727MOL0     H  260   5.435   0.413   9.020  1.1260 -0.8753 -1.5815
  727MOL0     H  261   5.633   0.441   9.182  1.7088  0.9799  1.1409
  727MOL0     H  262   5.689   0.457   9.016 -4.5418 -0.7952 -2.3380
  727MOL0     H  263   5.695   0.688   9.036  1.3553 -0.6812 -1.0005
  727MOL0     H  264   5.639   0.697   9.203  0.9229  1.7348 -1.6601
  727MOL0     H  265   5.907   0.575   9.098 -1.8762  0.8897 -2.3052
  727MOL0     H  266   5.884   0.703   9.222  0.3418 -0.2282  3.2629
  727MOL0     H  267   5.939   0.506   9.330 -1.1551 -2.0190  1.3532
  727MOL0     H  268   5.828   0.412   9.232  0.7483  1.3365 -2.9501
  727MOL0     H  269   5.780   0.623   9.459  1.5171 -0.0151 -0.6140
  727MOL0     H  270   5.641   0.535   9.390  0.2555 -0.9173 -0.2978
  727MOL0     H  271   5.880   0.401   9.514 -1.2490 -1.0520 -0.7901
  727MOL0     H  272   5.713   0.338   9.489 -1.9608  0.5631  0.5879
  727MOL0     H  273   5.810   0.556   9.660 -1.5604  3.4112 -2.5794
  727MOL0     H  274   5.638   0.530   9.615  0.5823 -0.9179 -1.9145
  727MOL0     H  275   5.532   0.252   9.668  0.1152 -0.5403 -0.9917
  727MOL0     H  276   5.611   0.026   9.967 -0.8548  3.1698  2.0305
  727MOL0     H  277   5.607  -0.030   9.799  1.9972  1.9900 -0.4968
  727MOL0     H  278   5.398   0.157   9.926  0.5137 -1.7867  2.3134
  727MOL0     H  279   5.386   0.101   9.761  2.4339 -1.4676 -0.8741
  727MOL0     H  280   5.324  -0.118   9.845  2.4961  0.2200 -0.9766
  727MOL0     H  281   5.398  -0.076  10.011 -1.9045  0.0379  0.1923
  727MOL0     H  282   5.152  -0.063  10.033  0.0153 -0.2284  0.1810
  727MOL0     H  283   5.223   0.095  10.027  0.0443 -1.4221  1.3543
  727MOL0     H  284   5.092  -0.229   9.902  0.6052 -0.4626 -0.5058
  727MOL0     H  285   4.980  -0.439   9.839  0.3573  0.0040 -0.7220
  727MOL0     H  286   5.155  -0.437   9.822  0.3621  1.8467  1.2376
  727MOL0     H  287   5.053  -0.519   9.701  0.8201  0.3123 -0.6487
  727MOL0     H  288   4.908  -0.262   9.133 -1.4178 -1.1594  0.2487
  727MOL0     H  289   4.905  -0.390   8.925  2.2203  2.5358 -1.0039
  727MOL0     H  290   4.919  -0.483   8.722 -0.8635  0.0193 -2.1863
  727MOL0     H  291   4.976  -0.636   8.669 -2.3292  1.9308 -0.9066
  727MOL0     H  292   4.862  -0.746   8.833  4.7436  0.5342 -0.4879
  727MOL0     H  293   4.828  -0.609   8.933  4.1741  2.4411 -0.1549
  727MOL0     H  294   4.706  -0.499   8.744  1.4157  0.6832 -1.2975
  727MOL0     H  295   4.628  -0.656   8.806  0.4365 -0.0804  2.1519
  727MOL0     H  296   4.783  -0.575   8.567 -2.4426  0.9308 -2.2870
  727MOL0     H  297   4.615  -0.588   8.561  0.1599 -1.1642 -0.8243
  727MOL0     H  298   4.818  -0.813   8.588 -0.0748  1.5233  1.9729
  727MOL0     H  299   4.647  -0.843   8.625 -0.0610 -1.2616 -0.0856
  727MOL0     H  300   4.597  -0.739   8.403  0.0476  0.8577  0.7611
  727MOL0     H  301   4.671  -0.900   8.401  0.3283 -0.3026  1.8220
  727MOL0     H  302   4.884  -0.711   8.390 -0.6113  1.7494  1.8786
  727MOL0     H  303   4.752  -0.644   8.282  0.4250 -0.5139 -1.1288
  727MOL0     H  304   4.888  -0.768   8.129 -0.3224 -0.4239 -0.4204
  727MOL0     H  305   4.752  -0.871   8.169 -1.3218  2.9297  0.5893
  727MOL0     H  306   5.259  -0.596   9.067  1.6617  1.9536 -0.4620
  727MOL0     H  307   5.264  -0.460   9.258 -0.2389 -0.6380  0.4424
  727MOL0     H  308   5.038  -0.077   9.434 -1.3619  1.5010 -0.0667
  727MOL0     H  309   5.055   0.084   9.603  0.8472  0.0905  0.4071
  727MOL0     H  310   5.256   0.564   8.915  1.5115 -2.4242  0.9586
  727MOL0     H  311   5.008   0.588   8.901 -1.4343  1.2104  0.6765
  727MOL0     H  312   4.677   0.489   8.973 -0.1699 -0.5872 -0.3271
  727MOL0     H  313   4.441   0.421   8.910  0.8169  0.7241 -2.1622
  727MOL0     H  314   4.167   0.735   8.996  1.0697 -0.7500 -0.5973
  727MOL0     H  315   4.046   0.628   8.944 -0.1276 -0.7956  0.6290
  727MOL0     H  316   4.011   0.739   9.178  0.3280  0.3398 -0.5631
  727MOL0     H  317   4.148   0.634   9.238  0.8834  1.6965 -0.5511
  727MOL0     H  318   3.901   0.545   9.087  1.8232  5.7835 -1.2547
  727MOL0     H  319   4.014   0.434   9.185  1.1000  0.3736  0.8059
  727MOL0     H  320   3.939   0.570   9.376  3.0530 -1.6031 -0.9079
  727MOL0     H  321   3.831   0.450   9.308 -0.8654  0.4769  0.5164
  727MOL0     H  322   3.569   0.770   9.280 -0.1442  0.1500  2.8284
  727MOL0     H  323   4.308   0.739   9.172  0.0388  0.0250 -0.8529
  727MOL0     H  324   4.607   0.807   9.322 -1.5373 -1.8547  0.3762
  727MOL0     H  325   4.575   0.923   9.194  2.7311 -1.4845 -1.4827
  727MOL0     H  326   4.440   0.852   9.302 -0.8617 -1.8406 -0.3076
  728MOL0     O  327   8.417   4.040   3.345 -0.5336  0.3743 -0.4435
  728MOL0     C  328   8.396   4.068   3.232  0.6883  0.0076  0.3577
  728MOL0     O  329   8.330   4.191   3.200  0.0194  0.4691  0.0580
  728MOL0     C  330   8.329   4.284   3.309  0.8266  1.3776  0.0678
  728MOL0     C  331   8.221   4.290   3.404  0.1425 -0.8167 -1.0762
  728MOL0     C  332   8.227   4.395   3.502  0.2080  0.4966 -0.2071
  728MOL0     C  333   8.347   4.480   3.511 -0.3987 -0.1824  1.1213
  728MOL0     O  334   8.366   4.575   3.610  0.1505  0.1405  0.9009
  728MOL0     C  335   8.387   4.706   3.559  0.2647 -0.6352  0.1027
  728MOL0     C  336   8.503   4.780   3.622 -0.2579 -0.4439 -0.1027
  728MOL0     C  337   8.490   4.794   3.782  0.2553 -0.7411  1.2280
  728MOL0     C  338   8.367   4.877   3.812  0.0781 -0.8123 -0.0034
  728MOL0     C  339   8.352   4.897   3.962 -0.8550 -0.8218 -0.2126
  728MOL0     C  340   8.344   4.765   4.042  0.3243  0.5248 -0.4237
  728MOL0     C  341   8.309   4.792   4.185 -0.1112  0.0776  0.3559
  728MOL0     C  342   8.385   4.720   4.293 -0.2668  1.4517  0.4817
  728MOL0     N  343   8.360   4.775   4.432 -0.6339 -0.1895  0.0810
  728MOL0     C  344   8.399   4.712   4.550  1.1278  0.0803  0.6951
  728MOL0     C  345   8.318   4.764   4.644  0.4720  0.1152 -0.0180
  728MOL0     C  346   8.300   4.712   4.793 -0.2016 -0.7219  0.6508
  728MOL0     C  347   8.245   4.572   4.784  0.3984 -0.2068 -0.0240
  728MOL0     C  348   8.139   4.544   4.885 -1.0113  0.5243  0.2497
  728MOL0     C  349   8.186   4.553   5.028 -0.3373  0.1826 -1.2344
  728MOL0     O  350   8.179   4.686   5.083  0.0034  0.3197  0.7166
  728MOL0     C  351   8.263   4.705   5.187 -0.5908  0.0572 -0.3631
  728MOL0     C  352   8.318   4.828   5.204  0.3859 -0.2766  0.6198
  728MOL0     C  353   8.412   4.865   5.302 -0.0861 -0.3857 -0.0278
  728MOL0     C  354   8.441   5.013   5.315  0.5800 -0.3407 -0.5749
  728MOL0     C  355   8.461   4.762   5.385 -0.1191 -0.2388  0.4766
  728MOL0     C  356   8.569   4.781   5.496  0.0588 -0.2678 -0.1040
  728MOL0     O  357   8.589   4.672   5.575 -0.0967  0.0890  0.0421
  728MOL0     C  358   8.672   4.689   5.689 -0.1126  0.0001  0.9732
  728MOL0     C  359   8.619   4.736   5.806  0.1684 -0.3378  0.5948
  728MOL0     C  360   8.699   4.757   5.918 -0.0819  0.5211  0.0650
  728MOL0     C  361   8.835   4.729   5.920 -0.1473 -0.3831 -0.6246
  728MOL0     O  362   8.919   4.749   6.029  0.2023  0.0173  0.0227
  728MOL0     C  363   8.875   4.822   6.140  0.0671 -0.1405  0.0985
  728MOL0     C  364   8.972   4.874   6.244 -0.4260  0.2161 -0.2034
  728MOL0     C  365   9.072   4.769   6.294 -0.6092  1.1807  0.5247
  728MOL0     C  366   9.179   4.831   6.377  0.5129  0.0715 -0.0359
  728MOL0     C  367   9.286   4.734   6.433  0.0453 -0.3638  0.6581
  728MOL0     C  368   9.409   4.797   6.508  0.4761  0.3911 -0.0351
  728MOL0     C  369   9.440   4.936   6.462 -0.4348  0.3835  0.5872
  728MOL0     C  370   9.594   4.979   6.485  0.8121 -0.0104  0.0512
  728MOL0    Cl  371   9.665   4.981   6.321  0.1096  0.1381 -0.3546
  728MOL0     C  372   8.890   4.680   5.802  0.3332  0.1600 -0.1237
  728MOL0     C  373   8.815   4.665   5.680  0.1996 -0.8862  0.7201
  728MOL0     O  374   8.616   4.891   5.512  0.3219 -0.7328  0.0031
  728MOL0     C  375   8.403   4.637   5.370 -0.2352 -0.2403  0.1294
  728MOL0     C  376   8.315   4.603   5.274  0.6521 -0.3704  0.9483
  728MOL0     N  377   8.243   4.866   4.586 -0.4042  0.1580 -0.1218
  728MOL0     N  378   8.271   4.866   4.459 -0.5474 -0.6530 -0.1075
  728MOL0     C  379   8.455   4.457   3.419  0.6280 -0.3800 -0.1311
  728MOL0     C  380   8.443   4.358   3.322 -0.1620 -0.1963 -0.0586
  728MOL0     C  381   8.400   3.957   3.137 -0.7670  0.6785 -0.4078
  728MOL0     C  382   8.400   3.999   3.001  1.0446 -0.6593  0.1678
  728MOL0     C  383   8.409   3.909   2.898  0.3996 -0.2124  0.3315
  728MOL0     C  384   8.428   3.775   2.917 -1.4959 -0.3463 -0.9545
  728MOL0     O  385   8.422   3.703   2.804 -0.1718  0.3213 -0.4439
  728MOL0     C  386   8.478   3.569   2.801 -0.1310  0.3342  0.1148
  728MOL0     C  387   8.627   3.565   2.825 -0.4101 -0.3872 -0.5716
  728MOL0     C  388   8.695   3.649   2.722 -1.0093 -0.2038 -0.4151
  728MOL0     C  389   8.851   3.628   2.721 -0.4573  0.4473 -0.1437
  728MOL0     C  390   8.887   3.497   2.661 -0.1165 -0.4098 -0.1801
  728MOL0     C  391   8.920   3.386   2.622  0.0811 -0.8367  0.3758
  728MOL0     C  392   8.441   3.734   3.047 -0.1045  0.2447 -0.4657
  728MOL0     C  393   8.433   3.819   3.158 -0.4463 -0.0735 -0.2975
  728MOL0     C  394   8.447   3.760   3.298 -0.0164 -1.1631  0.3260
  728MOL0     H  395   8.132   4.228   3.387 -1.5077  1.4462 -1.1169
  728MOL0     H  396   8.153   4.410   3.580  0.0730  0.7451 -0.3782
  728MOL0     H  397   8.305   4.776   3.580  0.8723  0.7605 -1.8414
  728MOL0     H  398   8.397   4.702   3.450  2.1267 -0.3108  0.2199
  728MOL0     H  399   8.597   4.727   3.605  1.1332  1.9761 -0.4003
  728MOL0     H  400   8.517   4.879   3.577 -1.8929 -0.5832 -1.0240
  728MOL0     H  401   8.485   4.695   3.829 -1.2039 -0.5222  1.5739
  728MOL0     H  402   8.582   4.846   3.811  0.7525 -0.0355 -1.4009
  728MOL0     H  403   8.364   4.970   3.753 -2.0410 -0.3188  0.8038
  728MOL0     H  404   8.278   4.819   3.787 -1.7300  1.6658  0.3342
  728MOL0     H  405   8.259   4.951   3.982 -0.0245  1.5684 -2.2693
  728MOL0     H  406   8.440   4.951   3.998 -1.0788 -0.2380 -0.5269
  728MOL0     H  407   8.271   4.698   3.996 -1.2302  1.0515  1.1822
  728MOL0     H  408   8.440   4.715   4.050 -0.4253 -0.8101  0.5434
  728MOL0     H  409   8.201   4.779   4.197 -0.6190  0.5693 -2.8385
  728MOL0     H  410   8.330   4.897   4.206 -0.0923  0.1993 -0.2610
  728MOL0     H  411   8.359   4.614   4.282 -2.1102  1.6935  2.0499
  728MOL0     H  412   8.490   4.731   4.265 -0.6240  1.7771 -0.7746
  728MOL0     H  413   8.458   4.621   4.547  0.5932 -0.2388 -1.0584
  728MOL0     H  414   8.231   4.779   4.845 -2.2012 -0.3835 -2.1793
  728MOL0     H  415   8.389   4.707   4.856  1.5790  0.5744 -1.6048
  728MOL0     H  416   8.205   4.554   4.684 -1.3018  0.2518  0.5401
  728MOL0     H  417   8.337   4.513   4.793  1.2840  1.1918  0.3396
  728MOL0     H  418   8.051   4.607   4.869 -2.8016 -2.1161 -1.1151
  728MOL0     H  419   8.103   4.444   4.859 -2.3463  1.0691 -0.0769
  728MOL0     H  420   8.117   4.488   5.083  0.3766 -3.8187 -4.5651
  728MOL0     H  421   8.285   4.506   5.035 -0.3966  0.2128  0.0943
  728MOL0     H  422   8.285   4.910   5.140 -2.9054 -0.1829  2.2103
  728MOL0     H  423   8.532   5.043   5.261 -0.5696  1.9523 -1.3422
  728MOL0     H  424   8.448   5.034   5.422  0.5180 -0.0006 -0.6363
  728MOL0     H  425   8.355   5.072   5.283  1.0836 -0.4380 -2.1795
  728MOL0     H  426   8.517   4.769   5.817 -0.1784 -1.0789 -0.2423
  728MOL0     H  427   8.649   4.781   6.011 -2.4839 -2.0815 -0.4243
  728MOL0     H  428   8.837   4.917   6.101  1.0870 -0.0294 -0.6535
  728MOL0     H  429   8.787   4.771   6.182 -2.0858  3.3789  0.3100
  728MOL0     H  430   9.016   4.956   6.186  1.6202  0.9497  2.2172
  728MOL0     H  431   8.920   4.924   6.327 -1.4760 -1.3105  0.1028
  728MOL0     H  432   9.123   4.711   6.216  0.8091  1.0302  1.5335
  728MOL0     H  433   9.014   4.702   6.357 -0.6960  0.1481 -0.6181
  728MOL0     H  434   9.124   4.864   6.466 -0.9747 -3.1481  0.3858
  728MOL0     H  435   9.214   4.917   6.319 -1.0389 -0.0555 -1.2218
  728MOL0     H  436   9.237   4.680   6.515 -0.3595 -2.8288 -1.0910
  728MOL0     H  437   9.319   4.659   6.360 -3.2518 -2.6134  1.2815
  728MOL0     H  438   9.483   4.719   6.487  2.6457  2.2101  0.4253
  728MOL0     H  439   9.390   4.800   6.615 -4.9077 -1.0739 -0.6550
  728MOL0     H  440   9.378   5.015   6.504 -1.6049 -0.1009 -0.1774
  728MOL0     H  441   9.422   4.932   6.354  0.5214  0.1841  0.4229
  728MOL0     H  442   9.632   4.898   6.548  1.1502  1.2306  1.4934
  728MOL0     H  443   9.597   5.070   6.545  1.4694 -0.1213  0.1895
  728MOL0     H  444   8.992   4.645   5.790  0.2588 -0.2630  0.4243
  728MOL0     H  445   8.872   4.626   5.596 -1.0122  1.9091 -1.5562
  728MOL0     H  446   8.437   4.558   5.437  4.1756  0.7471 -0.6209
  728MOL0     H  447   8.286   4.498   5.271 -0.4839 -0.0453 -1.5226
  728MOL0     H  448   8.551   4.502   3.442  0.7195 -0.5748 -0.1203
  728MOL0     H  449   8.529   4.326   3.265 -0.9961 -1.8815 -0.4469
  728MOL0     H  450   8.389   4.102   2.968  0.1244 -0.5754  0.6945
  728MOL0     H  451   8.401   3.938   2.794 -1.5581 -1.9551 -0.0716
  728MOL0     H  452   8.439   3.491   2.867  3.2917 -2.7857 -1.2081
  728MOL0     H  453   8.454   3.527   2.703 -3.8543 -0.0873  1.0876
  728MOL0     H  454   8.662   3.462   2.814  1.3665  0.0315  0.7394
  728MOL0     H  455   8.645   3.594   2.929  0.5570 -2.5703 -0.0667
  728MOL0     H  456   8.652   3.622   2.625 -2.1237 -1.3354  0.3756
  728MOL0     H  457   8.675   3.754   2.746 -0.1264 -0.4532  1.5701
  728MOL0     H  458   8.881   3.637   2.826 -2.4242  0.2525  0.4934
  728MOL0     H  459   8.898   3.708   2.664  1.1198  1.7783  2.8291
  728MOL0     H  460   8.958   3.292   2.588  3.1305  0.5952 -0.5223
  728MOL0     H  461   8.455   3.627   3.062  2.2052  0.7083  1.3266
  728MOL0     H  462   8.448   3.651   3.296  0.4277 -1.1883 -2.8308
  728MOL0     H  463   8.542   3.798   3.336  0.7844 -0.7320 -1.9153
  728MOL0     H  464   8.365   3.792   3.363 -0.1990  2.3429 -1.4202
  729MOL0     O  465   6.208   4.857   1.474 -0.2663 -0.5563  0.1827
  729MOL0     C  466   6.186   4.839   1.594  0.5767 -1.1337 -0.4093
  729MOL0     O  467   6.220   4.930   1.695 -0.1467  0.7601 -0.1746
  729MOL0     C  468   6.331   5.015   1.683  1.3771 -0.5080  0.3716
  729MOL0     C  469   6.441   4.970   1.604  0.7408 -0.4678  0.5757
  729MOL0     C  470   6.563   5.043   1.615 -0.6260  0.1701 -0.2435
  729MOL0     C  471   6.580   5.159   1.692  0.5034  1.0566 -1.3719
  729MOL0     O  472   6.710   5.208   1.703 -0.1706 -0.1774  0.6833
  729MOL0     C  473   6.719   5.346   1.750  0.1798  1.1280 -0.5971
  729MOL0     C  474   6.872   5.380   1.739 -0.9975  0.0981  0.1704
  729MOL0     C  475   6.933   5.358   1.593 -0.4504 -0.4362 -0.2717
  729MOL0     C  476   7.043   5.460   1.553 -0.0272 -0.6011  0.7636
  729MOL0     C  477   7.109   5.415   1.416  0.6899  0.8439 -0.3183
  729MOL0     C  478   7.158   5.545   1.340  0.1892  0.8278 -0.3897
  729MOL0     C  479   7.209   5.516   1.198 -0.0253 -0.4750 -0.3673
  729MOL0     C  480   7.324   5.423   1.201 -0.3105  0.0932  0.1080
  729MOL0     N  481   7.374   5.411   1.062 -0.6128  0.2008 -0.3034
  729MOL0     C  482   7.421   5.297   1.007  0.3414  0.4528 -0.3086
  729MOL0     C  483   7.500   5.334   0.907  1.2908 -0.2335  0.7933
  729MOL0     C  484   7.562   5.241   0.810  0.2887  0.1211  0.2965
  729MOL0     C  485   7.455   5.161   0.726  0.2989 -0.8714 -0.7184
  729MOL0     C  486   7.512   5.058   0.627 -0.0069 -1.0129 -0.3258
  729MOL0     C  487   7.539   4.940   0.713 -0.6230  0.1543 -0.1751
  729MOL0     O  488   7.599   4.835   0.638 -0.0562  0.2218  0.3877
  729MOL0     C  489   7.733   4.845   0.625  0.5720  1.1234 -0.5796
  729MOL0     C  490   7.796   4.892   0.508 -0.0567  0.1846  0.7701
  729MOL0     C  491   7.938   4.902   0.500  0.4111 -0.1092  0.6105
  729MOL0     C  492   7.995   4.965   0.379  0.0736 -0.1903  0.5512
  729MOL0     C  493   8.018   4.852   0.603 -0.3084 -0.0833  0.7274
  729MOL0     C  494   8.161   4.860   0.602 -0.1803  0.1338 -1.4475
  729MOL0     O  495   8.222   4.845   0.726  0.4561 -0.4755 -0.7274
  729MOL0     C  496   8.313   4.939   0.775 -0.9367  0.4490 -0.0377
  729MOL0     C  497   8.352   5.054   0.705  0.9779  0.0211 -0.4707
  729MOL0     C  498   8.440   5.152   0.759  0.6049  0.0186 -0.4461
  729MOL0     C  499   8.494   5.122   0.888  0.4205 -0.0460  0.8716
  729MOL0     O  500   8.583   5.215   0.950  0.3954  0.8007  1.1518
  729MOL0     C  501   8.508   5.329   0.987 -0.5800 -0.1662 -0.1311
  729MOL0     C  502   8.602   5.433   1.041 -0.7240 -0.1700  0.1046
  729MOL0     C  503   8.695   5.369   1.155  0.6067 -0.4580 -0.6859
  729MOL0     C  504   8.758   5.491   1.223  0.3904  0.0330  0.4103
  729MOL0     C  505   8.837   5.462   1.344  0.3082 -0.1595  0.8186
  729MOL0     C  506   8.900   5.594   1.395  0.2035  0.1805  0.6791
  729MOL0     C  507   8.990   5.571   1.519  0.6952 -0.1623  0.3626
  729MOL0     C  508   9.040   5.713   1.557  0.2541 -0.2973 -0.5023
  729MOL0    Cl  509   9.157   5.717   1.693  0.3750  0.6221  0.2454
  729MOL0     C  510   8.460   5.000   0.957 -0.4581 -1.5969  0.3544
  729MOL0     C  511   8.372   4.906   0.899  1.0264  0.5629 -0.2862
  729MOL0     O  512   8.222   4.868   0.500  0.4220 -0.1585  0.3193
  729MOL0     C  513   7.956   4.807   0.717  0.2420  0.0828 -0.1093
  729MOL0     C  514   7.815   4.798   0.727  0.4526 -0.1901  0.1196
  729MOL0     N  515   7.477   5.464   0.880 -0.3672 -0.2301 -0.1725
  729MOL0     N  516   7.411   5.506   0.975 -0.9277 -0.1394 -0.5366
  729MOL0     C  517   6.473   5.195   1.765 -0.6186 -0.0204 -0.1942
  729MOL0     C  518   6.347   5.131   1.760  0.4365  0.1525 -0.2752
  729MOL0     C  519   6.080   4.746   1.631 -0.0074 -0.1302  0.5278
  729MOL0     C  520   6.014   4.689   1.519 -0.2891  0.0164  0.0469
  729MOL0     C  521   5.913   4.599   1.545 -0.5574 -0.0820  0.6992
  729MOL0     C  522   5.868   4.551   1.672 -0.7468  0.9310  0.4430
  729MOL0     O  523   5.766   4.463   1.693  0.6067 -0.4624  0.0095
  729MOL0     C  524   5.708   4.401   1.580  0.1785  0.0977 -0.7220
  729MOL0     C  525   5.627   4.281   1.630 -0.3813  0.5842 -0.1166
  729MOL0     C  526   5.514   4.308   1.735 -0.3900  0.9164 -0.0328
  729MOL0     C  527   5.413   4.187   1.746  0.6955  0.1975  0.0047
  729MOL0     C  528   5.332   4.159   1.630  0.6451 -0.1642  0.0055
  729MOL0     C  529   5.260   4.153   1.534  0.4337  0.7681 -0.0009
  729MOL0     C  530   5.935   4.614   1.776 -0.6912  0.0534 -0.6765
  729MOL0     C  531   6.033   4.710   1.758  0.5612 -0.5378  0.0819
  729MOL0     C  532   6.089   4.765   1.886 -0.2988  0.0080  0.0784
  729MOL0     H  533   6.436   4.879   1.545 -1.0355  1.1716 -2.0350
  729MOL0     H  534   6.650   5.007   1.561  0.0809 -1.5657  1.9134
  729MOL0     H  535   6.685   5.344   1.854  1.5222 -2.2782 -0.0726
  729MOL0     H  536   6.661   5.416   1.689  1.6815 -0.1938 -3.7900
  729MOL0     H  537   6.884   5.482   1.777 -2.3734 -0.1399  1.3280
  729MOL0     H  538   6.930   5.315   1.806  0.1879  1.0933  0.1379
  729MOL0     H  539   6.972   5.256   1.586  2.8910  0.8035 -1.4212
  729MOL0     H  540   6.849   5.362   1.522 -2.1988  0.0005  1.7178
  729MOL0     H  541   7.007   5.562   1.540  1.7758 -0.0047  0.0927
  729MOL0     H  542   7.120   5.460   1.631 -0.8942  0.1914  1.6550
  729MOL0     H  543   7.034   5.369   1.351  1.1799  0.7441 -0.8225
  729MOL0     H  544   7.192   5.345   1.433  1.8923  2.3980  0.5389
  729MOL0     H  545   7.074   5.614   1.331  0.8280  1.5355 -0.9454
  729MOL0     H  546   7.235   5.593   1.401  0.3482 -0.2058  0.2611
  729MOL0     H  547   7.243   5.611   1.155 -0.4158  0.5877  1.5307
  729MOL0     H  548   7.133   5.478   1.130 -0.6931 -0.0814  0.1408
  729MOL0     H  549   7.407   5.470   1.256 -0.9561  2.3368 -0.7083
  729MOL0     H  550   7.304   5.322   1.237 -0.8011  0.9750  2.5676
  729MOL0     H  551   7.404   5.197   1.047 -1.8508  1.1625  0.7345
  729MOL0     H  552   7.620   5.167   0.866  0.9658  0.7709  0.4518
  729MOL0     H  553   7.625   5.290   0.736 -0.7742 -2.0730 -2.2462
  729MOL0     H  554   7.371   5.125   0.788 -1.7160  2.1460 -1.4363
  729MOL0     H  555   7.407   5.236   0.663 -1.0550  1.1218  2.4294
  729MOL0     H  556   7.439   5.040   0.547 -1.2227 -0.1543  0.5633
  729MOL0     H  557   7.604   5.095   0.580 -1.3853  0.1491 -2.2662
  729MOL0     H  558   7.605   4.969   0.794  0.7576  0.4253 -1.3500
  729MOL0     H  559   7.444   4.904   0.754  0.3029 -0.9207  1.1147
  729MOL0     H  560   7.732   4.938   0.434 -1.6656  0.3370  2.1795
  729MOL0     H  561   8.075   5.034   0.406 -0.3635  0.1106  1.0992
  729MOL0     H  562   7.910   5.012   0.328 -1.3955 -2.5830  0.6253
  729MOL0     H  563   8.019   4.889   0.304 -1.8831  0.0559 -0.4016
  729MOL0     H  564   8.297   5.087   0.618  0.5686  0.0006 -0.2226
  729MOL0     H  565   8.455   5.237   0.693 -1.4624 -1.0976 -2.5150
  729MOL0     H  566   8.458   5.372   0.899 -1.2370 -2.8475 -1.1740
  729MOL0     H  567   8.431   5.294   1.057 -0.4083 -1.3703 -0.5073
  729MOL0     H  568   8.659   5.469   0.955 -1.6997  1.4206  0.0798
  729MOL0     H  569   8.547   5.516   1.086  0.5825  1.0022 -0.3983
  729MOL0     H  570   8.776   5.300   1.129  1.1429 -0.7593  1.5480
  729MOL0     H  571   8.627   5.323   1.227 -2.2779  0.9141 -2.3629
  729MOL0     H  572   8.682   5.563   1.255 -0.4228 -1.0398  0.9555
  729MOL0     H  573   8.825   5.535   1.149  1.5386  0.4977  1.6681
  729MOL0     H  574   8.764   5.416   1.412 -0.0070 -1.2877 -0.2490
  729MOL0     H  575   8.911   5.384   1.327  1.0216  1.1426 -3.1618
  729MOL0     H  576   8.815   5.652   1.432  0.3871 -0.6248  2.4693
  729MOL0     H  577   8.951   5.651   1.317 -1.4163  1.6999  0.6772
  729MOL0     H  578   9.074   5.503   1.504  0.1016 -1.8162  3.5352
  729MOL0     H  579   8.936   5.529   1.605 -0.5817 -0.8245 -0.7253
  729MOL0     H  580   8.961   5.784   1.581  1.0717  0.7872 -0.9136
  729MOL0     H  581   9.090   5.758   1.470  2.2351 -1.3538  0.0160
  729MOL0     H  582   8.503   4.991   1.056  0.1773  0.0502  0.2615
  729MOL0     H  583   8.332   4.832   0.968 -2.2365  1.3459 -1.1388
  729MOL0     H  584   8.017   4.771   0.799 -0.7534 -1.1664  0.1095
  729MOL0     H  585   7.760   4.760   0.813 -1.2817 -0.4938 -1.0763
  729MOL0     H  586   6.476   5.288   1.821 -1.5707  0.6081 -1.1678
  729MOL0     H  587   6.270   5.179   1.820 -0.8040 -1.8805 -0.1301
  729MOL0     H  588   6.048   4.720   1.420 -0.2425  6.0569  1.5578
  729MOL0     H  589   5.868   4.553   1.458  0.5354  1.3005 -0.6225
  729MOL0     H  590   5.641   4.469   1.527 -1.3055  1.9165  3.1329
  729MOL0     H  591   5.782   4.373   1.504  1.1634  0.0215  0.2397
  729MOL0     H  592   5.694   4.209   1.677 -1.6583  1.0791  2.7035
  729MOL0     H  593   5.595   4.233   1.537 -1.9669 -1.2524  1.2917
  729MOL0     H  594   5.553   4.336   1.833 -0.1251  1.0649 -0.1818
  729MOL0     H  595   5.445   4.391   1.715 -0.6576  0.2993 -1.8662
  729MOL0     H  596   5.345   4.209   1.829 -0.7511  2.9572 -1.7458
  729MOL0     H  597   5.454   4.095   1.788 -5.4494 -2.1687  1.9671
  729MOL0     H  598   5.193   4.159   1.450  0.7564  3.6616 -0.1303
  729MOL0     H  599   5.913   4.569   1.872  0.6854  1.5889  0.4228
  729MOL0     H  600   6.065   4.870   1.900 -1.3924  0.0331 -1.6395
  729MOL0     H  601   6.048   4.715   1.974 -1.8054  0.9506 -0.0566
  729MOL0     H  602   6.199   4.761   1.878  0.0205  3.9169  0.8143
  730MOL0     O  603   6.539   5.352   7.044 -0.0186 -0.2924 -0.3669
  730MOL0     C  604   6.653   5.354   7.090 -0.1772  0.0631 -0.4953
  730MOL0     O  605   6.692   5.271   7.194 -0.7221 -0.3321  0.0843
  730MOL0     C  606   6.601   5.204   7.255 -0.3626  0.4921 -0.6615
  730MOL0     C  607   6.525   5.273   7.345  0.2783 -0.2997  0.4238
  730MOL0     C  608   6.426   5.212   7.407  0.0616 -0.2589  0.0841
  730MOL0     C  609   6.402   5.072   7.393  0.5390 -0.1468 -0.0126
  730MOL0     O  610   6.291   5.027   7.453  0.2800  0.4342  0.3923
  730MOL0     C  611   6.262   4.887   7.439  1.0311  0.5851 -0.1982
  730MOL0     C  612   6.154   4.846   7.539 -0.5625  0.2538  0.7230
  730MOL0     C  613   6.190   4.850   7.682 -0.6176 -0.0048 -0.2738
  730MOL0     C  614   6.068   4.856   7.780 -0.2430 -0.8316  0.0657
  730MOL0     C  615   6.007   4.996   7.776 -0.1659 -0.1181  0.2222
  730MOL0     C  616   5.892   5.015   7.875 -0.8409 -0.4547 -0.1922
  730MOL0     C  617   5.812   5.150   7.841 -0.0352 -0.3014 -0.5699
  730MOL0     C  618   5.672   5.162   7.914  0.4282 -0.3518 -0.7310
  730MOL0     N  619   5.607   5.267   7.841  0.4234 -0.5873  0.3567
  730MOL0     C  620   5.649   5.395   7.825 -0.5885  0.4162  0.3547
  730MOL0     C  621   5.566   5.443   7.729 -0.6228  0.1229  0.3583
  730MOL0     C  622   5.570   5.591   7.686 -0.7116  0.2218 -0.4806
  730MOL0     C  623   5.447   5.673   7.731  0.1134  0.3770 -0.4244
  730MOL0     C  624   5.445   5.688   7.883 -0.3161 -0.3046 -0.3205
  730MOL0     C  625   5.321   5.762   7.910 -0.1262 -0.1898  0.6255
  730MOL0     O  626   5.315   5.896   7.852  1.1948 -0.5239 -0.0958
  730MOL0     C  627   5.377   6.001   7.913 -0.8673  0.7391  0.5531
  730MOL0     C  628   5.462   5.992   8.021  0.0913 -0.7273 -0.1470
  730MOL0     C  629   5.526   6.102   8.067  0.2612  0.0642 -0.1322
  730MOL0     C  630   5.616   6.081   8.192 -0.2708 -0.3035 -0.8321
  730MOL0     C  631   5.483   6.231   8.023  0.5997 -0.6240  0.1972
  730MOL0     C  632   5.532   6.362   8.068  0.8404  0.0033 -0.4462
  730MOL0     O  633   5.522   6.470   7.983 -0.5059  0.2704  0.4490
  730MOL0     C  634   5.544   6.600   8.028 -0.3325  0.1187  0.5383
  730MOL0     C  635   5.659   6.632   8.092 -0.3423  0.4293 -0.0708
  730MOL0     C  636   5.679   6.758   8.145 -0.2179  0.2018 -0.4635
  730MOL0     C  637   5.587   6.859   8.117 -0.5529  0.1885 -0.0533
  730MOL0     O  638   5.604   6.990   8.156  0.2185  1.2069  0.1796
  730MOL0     C  639   5.692   7.053   8.064  0.4379  0.1640  0.4170
  730MOL0     C  640   5.615   7.104   7.939  0.0437  0.1595  0.4581
  730MOL0     C  641   5.476   7.176   7.961 -0.3082 -0.1477  0.1411
  730MOL0     C  642   5.410   7.215   7.829 -0.3506 -0.1189  0.5091
  730MOL0     C  643   5.297   7.309   7.855  0.3123 -0.4402 -0.4179
  730MOL0     C  644   5.174   7.224   7.876  0.1106  0.4610  0.1879
  730MOL0     C  645   5.062   7.317   7.911 -0.7263 -0.1715  0.3028
  730MOL0     C  646   4.933   7.236   7.924  0.1844 -0.1757  0.2540
  730MOL0    Cl  647   4.804   7.351   7.883  0.1133 -0.3352  0.0797
  730MOL0     C  648   5.481   6.829   8.033 -0.2147  0.3012 -1.0879
  730MOL0     C  649   5.453   6.700   8.003 -0.6895 -0.4674 -0.8465
  730MOL0     O  650   5.580   6.365   8.179  0.0851  0.3722 -0.9199
  730MOL0     C  651   5.391   6.242   7.915 -0.2913  0.6097  0.0316
  730MOL0     C  652   5.345   6.124   7.856 -0.1995 -0.2275 -0.8819
  730MOL0     N  653   5.483   5.340   7.684  0.5015 -1.3027  0.7033
  730MOL0     N  654   5.510   5.234   7.750  0.2103  0.4006  0.2305
  730MOL0     C  655   6.476   5.001   7.297 -0.7165 -0.2894 -0.6374
  730MOL0     C  656   6.582   5.069   7.232  0.9092  0.5149 -0.4207
  730MOL0     C  657   6.738   5.454   7.031  0.3336 -0.0472  0.6985
  730MOL0     C  658   6.865   5.453   7.077  0.2343 -0.6677 -0.3159
  730MOL0     C  659   6.967   5.535   7.040 -0.1888 -0.0324 -0.3587
  730MOL0     C  660   6.943   5.633   6.939 -1.0287  0.9946  0.6393
  730MOL0     O  661   7.045   5.715   6.899  0.1805  0.9360 -0.5709
  730MOL0     C  662   7.019   5.842   6.837 -0.4600 -0.0112 -0.0470
  730MOL0     C  663   7.148   5.925   6.812 -0.1603  0.6191 -0.0749
  730MOL0     C  664   7.243   5.939   6.930 -0.7634 -0.0938 -1.2264
  730MOL0     C  665   7.204   6.045   7.041 -0.0723 -0.1018  0.6935
  730MOL0     C  666   7.086   6.010   7.118  1.3226 -0.5444 -0.1435
  730MOL0     C  667   6.979   6.010   7.179  0.3088  0.4358  1.3714
  730MOL0     C  668   6.810   5.641   6.891 -0.1218  0.5442  0.1613
  730MOL0     C  669   6.710   5.558   6.940  0.8364  0.2406  0.3376
  730MOL0     C  670   6.566   5.579   6.878 -0.2480  0.2896 -0.8524
  730MOL0     H  671   6.545   5.380   7.355  2.4833 -0.8673  3.4249
  730MOL0     H  672   6.358   5.276   7.462  0.6374 -0.0726  0.5969
  730MOL0     H  673   6.356   4.832   7.457  1.2663  0.8259 -0.6718
  730MOL0     H  674   6.230   4.857   7.339  0.4173 -2.1287  0.7155
  730MOL0     H  675   6.071   4.907   7.502 -1.3417 -2.1421 -1.9193
  730MOL0     H  676   6.114   4.749   7.507 -2.8493  1.8534 -1.7467
  730MOL0     H  677   6.255   4.764   7.699 -1.4018 -1.0886 -2.4186
  730MOL0     H  678   6.249   4.941   7.696  2.6044 -1.5582 -2.4090
  730MOL0     H  679   5.999   4.782   7.738 -0.0731 -0.4616 -0.8760
  730MOL0     H  680   6.093   4.820   7.881  0.1953  2.0055  1.0502
  730MOL0     H  681   5.976   5.011   7.672  1.8535  0.1313 -0.3953
  730MOL0     H  682   6.078   5.077   7.796  1.5999 -1.2569 -1.1546
  730MOL0     H  683   5.823   4.932   7.859 -0.6598 -0.7202  0.3900
  730MOL0     H  684   5.940   5.014   7.974  0.8353 -0.4053 -0.9736
  730MOL0     H  685   5.791   5.165   7.735 -0.6356  4.7133  0.0029
  730MOL0     H  686   5.869   5.238   7.873 -3.6172  2.4733 -1.2320
  730MOL0     H  687   5.613   5.071   7.898 -0.0945  0.3711 -3.4515
  730MOL0     H  688   5.676   5.202   8.016  3.4271 -1.0514 -0.5023
  730MOL0     H  689   5.726   5.453   7.875  1.8847 -2.0134 -0.4084
  730MOL0     H  690   5.576   5.597   7.577 -1.5478  3.5674 -0.4556
  730MOL0     H  691   5.659   5.644   7.722 -0.1039  0.2057 -1.8906
  730MOL0     H  692   5.430   5.758   7.664 -0.7062  0.1396 -0.5386
  730MOL0     H  693   5.360   5.611   7.706  1.2539 -1.4630 -0.0067
  730MOL0     H  694   5.450   5.589   7.930  3.0633 -1.7620 -3.2895
  730MOL0     H  695   5.530   5.751   7.909  0.4186 -1.5762  0.4453
  730MOL0     H  696   5.230   5.713   7.876  1.0766  0.2870 -3.8821
  730MOL0     H  697   5.310   5.762   8.019 -0.0083 -0.3406  0.6376
  730MOL0     H  698   5.485   5.892   8.057 -0.6408 -1.0621 -0.5917
  730MOL0     H  699   5.566   6.093   8.288  1.7936 -2.0241  0.5399
  730MOL0     H  700   5.701   6.148   8.179  0.6081 -0.4301  3.1162
  730MOL0     H  701   5.653   5.978   8.194 -1.3390 -0.6876  0.1248
  730MOL0     H  702   5.727   6.550   8.110 -2.8296 -1.4302  1.4747
  730MOL0     H  703   5.771   6.773   8.200  0.2735 -3.0377 -0.2193
  730MOL0     H  704   5.739   7.136   8.117  2.6703 -0.9521  0.3081
  730MOL0     H  705   5.780   6.994   8.036 -0.1301 -0.8511  0.6937
  730MOL0     H  706   5.689   7.156   7.877 -1.0934  1.1428 -0.1107
  730MOL0     H  707   5.586   7.018   7.878  2.0045 -1.6990  2.0032
  730MOL0     H  708   5.501   7.262   8.023  1.6216 -1.2148  0.9239
  730MOL0     H  709   5.407   7.115   8.019 -0.1579  0.5479  1.0701
  730MOL0     H  710   5.393   7.129   7.763 -0.0413 -0.5541  0.9984
  730MOL0     H  711   5.485   7.270   7.771 -0.7532 -1.1123 -1.0324
  730MOL0     H  712   5.311   7.380   7.936 -0.3235  0.4910 -1.0974
  730MOL0     H  713   5.278   7.382   7.776 -1.0274  1.5252  1.5966
  730MOL0     H  714   5.188   7.159   7.963 -1.1464  3.1674  2.5769
  730MOL0     H  715   5.159   7.164   7.785 -0.3912  0.8824 -0.0107
  730MOL0     H  716   5.052   7.383   7.824  0.6729  1.0153  1.0101
  730MOL0     H  717   5.078   7.372   8.004  0.2323  0.3361 -0.1512
  730MOL0     H  718   4.920   7.206   8.029  2.0927  0.8424  0.8269
  730MOL0     H  719   4.940   7.137   7.878  2.5746 -1.6478  3.3355
  730MOL0     H  720   5.417   6.915   8.015  0.4617  0.9379 -0.5305
  730MOL0     H  721   5.358   6.674   7.958 -1.0501  0.6963 -0.7887
  730MOL0     H  722   5.360   6.337   7.872 -1.1140 -0.4395 -1.7932
  730MOL0     H  723   5.277   6.136   7.772 -1.9398  1.0715  0.6255
  730MOL0     H  724   6.468   4.895   7.276  1.9570 -0.3410 -1.8828
  730MOL0     H  725   6.640   5.021   7.153  2.7503 -0.1549  1.2353
  730MOL0     H  726   6.900   5.389   7.158  1.0132 -0.1351 -0.2266
  730MOL0     H  727   7.059   5.536   7.098 -0.1580  0.4607 -0.4141
  730MOL0     H  728   6.976   5.836   6.736  0.3546  1.5120 -0.5171
  730MOL0     H  729   6.952   5.898   6.903  0.1311  0.1139  0.4506
  730MOL0     H  730   7.116   6.023   6.775  0.2328  0.6596 -0.3143
  730MOL0     H  731   7.205   5.871   6.735 -0.5519 -1.3899  0.9621
  730MOL0     H  732   7.253   5.839   6.973 -2.2748  0.6943  1.1554
  730MOL0     H  733   7.334   5.973   6.879 -0.9596 -0.3933 -1.7843
  730MOL0     H  734   7.192   6.147   7.001  1.2669  0.1201  0.8076
  730MOL0     H  735   7.272   6.043   7.126  0.5155 -0.6659  0.2204
  730MOL0     H  736   6.880   6.007   7.220 -1.4124 -0.9147 -2.4273
  730MOL0     H  737   6.795   5.724   6.823  1.9684 -0.1248 -1.2174
  730MOL0     H  738   6.557   5.649   6.795 -1.6129  1.0174 -0.1238
  730MOL0     H  739   6.526   5.482   6.849  0.7630 -0.9070  1.4573
  730MOL0     H  740   6.506   5.626   6.956  1.3952 -0.9676  1.2985
  731MOL0     O  741   5.175   5.600   8.145  0.1166  0.6729 -0.7287
  731MOL0     C  742   5.063   5.632   8.112 -1.3393 -0.7111  0.3426
  731MOL0     O  743   4.985   5.720   8.171 -0.1561  0.2775 -0.1288
  731MOL0     C  744   5.038   5.822   8.248  0.2686 -0.0084 -0.0141
  731MOL0     C  745   5.076   5.936   8.180  0.0853 -0.1835  0.4762
  731MOL0     C  746   5.142   6.035   8.249 -0.4069  0.0307 -0.1651
  731MOL0     C  747   5.157   6.033   8.390 -0.6022  0.4759  0.5041
  731MOL0     O  748   5.225   6.127   8.463 -0.0378  0.6138  0.1954
  731MOL0     C  749   5.256   6.256   8.415 -0.0854 -0.2038  0.2538
  731MOL0     C  750   5.317   6.328   8.539 -0.2569 -0.5067  0.0763
  731MOL0     C  751   5.392   6.463   8.498  1.2091  0.5659 -0.2992
  731MOL0     C  752   5.309   6.568   8.417 -0.2479  0.2643 -0.3686
  731MOL0     C  753   5.380   6.697   8.387  0.6753  0.4538 -0.2199
  731MOL0     C  754   5.394   6.801   8.496 -0.1636 -0.1342 -1.2161
  731MOL0     C  755   5.438   6.936   8.448 -0.4389  0.2446 -0.3117
  731MOL0     C  756   5.473   7.016   8.582 -0.5637  0.4874 -0.6212
  731MOL0     N  757   5.488   7.155   8.546  0.5025 -1.0440  0.6113
  731MOL0     C  758   5.590   7.194   8.455  0.7902 -0.7289  0.6460
  731MOL0     C  759   5.631   7.317   8.504  0.2580  0.8176  0.6996
  731MOL0     C  760   5.738   7.405   8.451  0.4356  0.5034  0.1551
  731MOL0     C  761   5.749   7.539   8.521 -0.2892 -0.1992 -0.4610
  731MOL0     C  762   5.884   7.612   8.488 -0.1400 -0.3375  0.4947
  731MOL0     C  763   5.931   7.708   8.603  0.5956  0.0185 -0.1910
  731MOL0     O  764   5.825   7.808   8.620  0.0986 -0.2876  0.3332
  731MOL0     C  765   5.849   7.927   8.549  0.2563  0.6461  0.4344
  731MOL0     C  766   5.778   7.946   8.433  0.2169 -0.4904  0.1347
  731MOL0     C  767   5.795   8.062   8.344  0.5235  0.4092  0.2741
  731MOL0     C  768   5.713   8.059   8.216 -0.0347  0.4392  0.8941
  731MOL0     C  769   5.886   8.166   8.372 -0.2043  0.2759  0.1230
  731MOL0     C  770   5.905   8.296   8.291 -0.4707 -0.7421 -0.4543
  731MOL0     O  771   5.823   8.348   8.196 -0.0926  0.3562 -0.7112
  731MOL0     C  772   5.829   8.467   8.146 -0.2511  0.0743  0.3520
  731MOL0     C  773   5.865   8.475   8.015  0.1844  0.7303  0.2318
  731MOL0     C  774   5.867   8.602   7.956 -0.5749  0.5217 -0.1589
  731MOL0     C  775   5.846   8.715   8.031 -0.3701 -0.8898  0.3823
  731MOL0     O  776   5.839   8.842   7.977  0.2236 -1.0151 -0.1215
  731MOL0     C  777   5.894   8.946   8.049 -0.3759 -0.3127  0.2777
  731MOL0     C  778   6.024   8.984   7.987 -0.4825 -0.3814 -0.0743
  731MOL0     C  779   6.111   9.078   8.078 -0.7121  0.0564 -0.2234
  731MOL0     C  780   6.112   9.217   8.010 -0.4169  0.0476 -0.4412
  731MOL0     C  781   6.180   9.327   8.098 -0.4223  0.1927  0.2969
  731MOL0     C  782   6.213   9.452   8.021 -0.1680 -1.2484  0.1777
  731MOL0     C  783   6.287   9.556   8.115  0.3617  0.1588 -0.0946
  731MOL0     C  784   6.360   9.674   8.040 -0.0840 -0.4040  0.5284
  731MOL0    Cl  785   6.243   9.769   7.946 -0.3738  0.7392  0.1869
  731MOL0     C  786   5.815   8.705   8.169 -0.1778 -0.0450 -0.5822
  731MOL0     C  787   5.809   8.579   8.228  0.7377 -0.5808  0.0366
  731MOL0     O  788   6.003   8.358   8.334  0.1322  0.3358 -0.7588
  731MOL0     C  789   5.942   8.149   8.503 -0.3760  0.3025 -0.1743
  731MOL0     C  790   5.935   8.030   8.586 -1.3203 -0.4495  0.0927
  731MOL0     N  791   5.548   7.347   8.607 -0.2189 -0.5882  0.3922
  731MOL0     N  792   5.460   7.258   8.632  0.4583  0.0804  0.1564
  731MOL0     C  793   5.113   5.915   8.456  0.8691  0.2390 -0.6810
  731MOL0     C  794   5.055   5.813   8.383  0.0093  0.4831 -0.3189
  731MOL0     C  795   4.993   5.538   8.023  0.5556 -0.5728 -1.2011
  731MOL0     C  796   4.782   5.556   8.007 -0.2062 -0.2031 -0.6334
  731MOL0     C  797   4.668   5.408   7.900 -0.1874  0.0055  0.8164
  731MOL0     C  798   4.774   5.250   7.806  0.8847 -0.6693 -0.6317
  731MOL0     O  799   4.717   5.174   7.714 -0.0124  0.4720  0.3032
  731MOL0     C  800   4.571   5.177   7.693 -0.3765  0.1811 -0.5253
  731MOL0     C  801   4.544   5.265   7.567 -1.2253 -1.1280  0.3066
  731MOL0     C  802   4.392   5.285   7.537 -0.2149 -0.2980 -0.5262
  731MOL0     C  803   4.325   5.376   7.639 -0.6096  0.6433  1.2126
  731MOL0     C  804   4.359   5.516   7.626  0.0298  1.2836 -0.0212
  731MOL0     C  805   4.394   5.629   7.616 -0.6981  0.2639  0.1940
  731MOL0     C  806   4.988   5.234   7.829  0.7855 -0.6314  0.1494
  731MOL0     C  807   5.090   5.380   7.937  0.8136  0.4615 -0.3254
  731MOL0     C  808   5.233   5.361   7.937  0.4625  0.0883 -0.1022
  731MOL0     H  809   5.063   5.940   8.072  1.2940 -2.5980  0.1632
  731MOL0     H  810   5.170   6.115   8.180 -0.1950 -0.3485 -0.5225
  731MOL0     H  811   5.169   6.307   8.373  1.5335  1.4359 -1.3314
  731MOL0     H  812   5.322   6.272   8.330 -0.0284  2.9953  0.7655
  731MOL0     H  813   5.241   6.353   8.613 -0.0071 -1.6076  0.7358
  731MOL0     H  814   5.391   6.258   8.579  0.9403 -0.1608 -1.4493
  731MOL0     H  815   5.429   6.505   8.591 -3.1236  1.3869  1.2712
  731MOL0     H  816   5.473   6.444   8.427  1.3957  2.6577 -0.7003
  731MOL0     H  817   5.275   6.522   8.324  2.0276  0.7129 -1.4938
  731MOL0     H  818   5.218   6.590   8.474  0.5183 -2.2321  2.0342
  731MOL0     H  819   5.321   6.737   8.304  1.3521  0.6283 -0.6241
  731MOL0     H  820   5.478   6.668   8.347  0.8745  1.7141 -0.7025
  731MOL0     H  821   5.302   6.815   8.553 -0.7087 -1.3874 -1.7509
  731MOL0     H  822   5.480   6.773   8.558  1.2826  5.5674 -0.1226
  731MOL0     H  823   5.354   6.980   8.393 -1.3270 -0.7151  0.2367
  731MOL0     H  824   5.533   6.932   8.394  2.6375 -1.8566  4.4825
  731MOL0     H  825   5.393   7.019   8.657  0.6490  1.1522  0.6974
  731MOL0     H  826   5.557   6.972   8.637 -0.3737  1.7906  0.1630
  731MOL0     H  827   5.641   7.137   8.379  2.4042  2.8215 -1.2147
  731MOL0     H  828   5.734   7.413   8.342  0.0180  2.0982  0.2699
  731MOL0     H  829   5.831   7.356   8.480  0.8552 -0.3180 -2.4042
  731MOL0     H  830   5.659   7.593   8.492 -1.0914 -1.0564  0.3717
  731MOL0     H  831   5.750   7.525   8.630  2.2017 -1.8619 -0.6020
  731MOL0     H  832   5.960   7.536   8.471  2.1087  0.5115  5.0582
  731MOL0     H  833   5.865   7.670   8.397 -0.3501 -1.0163  0.1036
  731MOL0     H  834   5.936   7.657   8.700  0.7576 -0.7782 -0.6068
  731MOL0     H  835   6.033   7.738   8.577  1.4816 -2.6919 -0.2413
  731MOL0     H  836   5.717   7.873   8.381  0.1119  0.5635 -1.2881
  731MOL0     H  837   5.691   7.959   8.179  3.0706  0.2538 -0.7658
  731MOL0     H  838   5.778   8.096   8.136 -1.2203 -1.4651 -1.0635
  731MOL0     H  839   5.618   8.110   8.232 -1.0631 -1.6253  1.7009
  731MOL0     H  840   5.891   8.384   7.961  0.3160  1.3177 -0.7205
  731MOL0     H  841   5.880   8.617   7.849  1.3280  1.6732  0.1965
  731MOL0     H  842   5.836   9.037   8.033  1.8818  1.1608  0.0582
  731MOL0     H  843   5.920   8.930   8.154  1.6982  1.7243  0.1729
  731MOL0     H  844   6.079   8.892   7.965  2.1081  0.5129  2.0997
  731MOL0     H  845   6.001   9.031   7.891 -0.1379 -0.6861 -0.3079
  731MOL0     H  846   6.213   9.041   8.085 -0.3415  1.1989  0.7537
  731MOL0     H  847   6.072   9.079   8.181  1.0702 -1.3924  0.5145
  731MOL0     H  848   6.009   9.249   7.991 -0.4502  0.6467  0.6798
  731MOL0     H  849   6.173   9.209   7.919 -1.2323 -0.3209 -0.9637
  731MOL0     H  850   6.108   9.341   8.178  0.1903 -0.8678  1.0530
  731MOL0     H  851   6.264   9.277   8.147  0.6085  0.3222 -1.2600
  731MOL0     H  852   6.120   9.497   7.986  0.5390  1.7266  1.8354
  731MOL0     H  853   6.270   9.429   7.930  0.4646  0.4461  0.1059
  731MOL0     H  854   6.365   9.508   8.175 -0.2974  0.7985  1.2973
  731MOL0     H  855   6.214   9.597   8.185  0.6993 -0.6117  0.7152
  731MOL0     H  856   6.447   9.648   7.979 -0.5209  1.7963 -1.1505
  731MOL0     H  857   6.393   9.737   8.123 -1.2137 -1.4344  1.8013
  731MOL0     H  858   5.786   8.790   8.230  1.6009 -0.6413  1.2174
  731MOL0     H  859   5.798   8.557   8.334 -0.4038  0.2652  0.1086
  731MOL0     H  860   5.997   8.229   8.552  1.4377 -0.6008 -0.6536
  731MOL0     H  861   5.990   8.009   8.677  0.0958 -1.1270 -0.8827
  731MOL0     H  862   5.118   5.901   8.563 -1.8509 -0.0232 -0.5099
  731MOL0     H  863   5.029   5.716   8.424  2.2430 -0.2295 -0.4487
  731MOL0     H  864   4.728   5.636   8.054  0.7777  0.2895 -0.3127
  731MOL0     H  865   4.561   5.424   7.893 -0.4522 -1.1713  1.8490
  731MOL0     H  866   4.540   5.076   7.664  0.2996  0.4534 -2.3538
  731MOL0     H  867   4.523   5.208   7.786  0.6475  1.1317 -0.2833
  731MOL0     H  868   4.595   5.231   7.477  1.1754 -0.6256  1.3857
  731MOL0     H  869   4.596   5.357   7.597  0.1790 -2.2911  1.6041
  731MOL0     H  870   4.376   5.311   7.432 -2.2603 -1.0161 -0.4348
  731MOL0     H  871   4.345   5.186   7.542 -2.1169  0.6267  2.1138
  731MOL0     H  872   4.347   5.332   7.737  1.3765  0.6506  0.8059
  731MOL0     H  873   4.216   5.373   7.631 -0.5777  2.4331 -0.6479
  731MOL0     H  874   4.433   5.729   7.610 -0.3579  0.5170  4.0202
  731MOL0     H  875   5.023   5.146   7.776 -1.8793 -2.3501  1.0544
  731MOL0     H  876   5.258   5.302   7.848 -0.0224 -0.0864 -0.1253
  731MOL0     H  877   5.284   5.457   7.953 -0.3206  0.3495  0.9317
  731MOL0     H  878   5.258   5.304   8.027 -0.8455  0.8808  0.7937
  732MOL0     O  879   6.933   1.066  11.141  0.3033  0.0661  0.1739
  732MOL0     C  880   6.815   1.107  11.145 -0.7026  0.0495  0.6850
  732MOL0     O  881   6.700   1.031  11.139  0.2970 -0.4412  0.8765
  732MOL0     C  882   6.721   0.900  11.162  0.4860 -0.6776 -0.6476
  732MOL0     C  883   6.685   0.859  11.289  0.3171  0.3124 -0.9349
  732MOL0     C  884   6.703   0.728  11.336  0.6014 -0.0234  0.2141
  732MOL0     C  885   6.769   0.641  11.246  0.6726  0.5310  0.2274
  732MOL0     O  886   6.789   0.505  11.269 -0.8149 -0.4291  0.1778
  732MOL0     C  887   6.695   0.430  11.352 -0.1947 -0.4942  0.0174
  732MOL0     C  888   6.754   0.298  11.394 -0.1659 -0.4385 -0.9125
  732MOL0     C  889   6.807   0.229  11.273  1.1390  0.0208  0.6940
  732MOL0     C  890   6.845   0.084  11.316  0.6573 -1.2651  0.3036
  732MOL0     C  891   6.892   0.009  11.195  0.7667 -0.4326  1.3235
  732MOL0     C  892   6.880  -0.143  11.223 -0.0424  0.5642  0.4836
  732MOL0     C  893   6.918  -0.236  11.106 -0.0024  0.5732 -0.5014
  732MOL0     C  894   6.864  -0.211  10.965  0.1374  0.4687  0.8805
  732MOL0     N  895   6.717  -0.224  10.958  0.2386  0.4965 -0.2499
  732MOL0     C  896   6.649  -0.334  11.002  0.6512 -0.2490 -0.3643
  732MOL0     C  897   6.519  -0.311  10.956 -0.7411  0.4911  0.1222
  732MOL0     C  898   6.409  -0.415  10.985 -0.3821  0.2037  0.4279
  732MOL0     C  899   6.378  -0.510  10.873 -0.0363 -0.8079  0.4268
  732MOL0     C  900   6.257  -0.597  10.888 -0.0143 -0.3573 -1.1415
  732MOL0     C  901   6.121  -0.535  10.885  0.1047 -1.0141 -0.3394
  732MOL0     O  902   6.054  -0.569  10.766 -0.5102 -0.0788  0.0022
  732MOL0     C  903   6.074  -0.500  10.644 -0.6127 -0.9324 -0.3605
  732MOL0     C  904   6.011  -0.559  10.540 -0.9566 -0.6724  0.4180
  732MOL0     C  905   6.025  -0.505  10.407 -0.1601  0.1572  0.6638
  732MOL0     C  906   5.939  -0.571  10.303  0.2035  0.1086 -0.5086
  732MOL0     C  907   6.102  -0.389  10.381  0.1883  0.0852 -1.0200
  732MOL0     C  908   6.142  -0.328  10.248 -1.8306  0.2456 -0.9858
  732MOL0     O  909   6.212  -0.209  10.254 -0.2739  1.3311  0.8930
  732MOL0     C  910   6.211  -0.132  10.143 -0.1065 -0.6567 -0.9006
  732MOL0     C  911   6.109  -0.106  10.048 -0.4788  0.4580  0.0155
  732MOL0     C  912   6.120   0.000   9.962  1.3209 -0.3879 -0.1420
  732MOL0     C  913   6.234   0.087   9.955  0.3075 -0.3918 -1.2706
  732MOL0     O  914   6.256   0.202   9.878 -0.2872  0.0305  0.3281
  732MOL0     C  915   6.139   0.236   9.804 -0.2371  0.0923  0.1032
  732MOL0     C  916   6.132   0.389   9.771 -0.1487  0.0206 -0.2264
  732MOL0     C  917   6.182   0.480   9.880  0.0885  0.5202  0.2383
  732MOL0     C  918   6.200   0.628   9.828  0.6617 -0.1644  0.6494
  732MOL0     C  919   6.205   0.724   9.951  0.1480 -0.4714 -0.0556
  732MOL0     C  920   6.225   0.867   9.905 -0.2970 -0.0186  0.6988
  732MOL0     C  921   6.090   0.920   9.850  0.9157  0.9979 -0.2423
  732MOL0     C  922   6.079   1.075   9.849  0.1503  0.0963  0.0366
  732MOL0    Cl  923   6.114   1.136  10.016 -0.0006  0.2900  0.3389
  732MOL0     C  924   6.339   0.054  10.043  0.0379  0.8398 -0.0070
  732MOL0     C  925   6.327  -0.055  10.137 -0.3926  0.8400 -0.0410
  732MOL0     O  926   6.124  -0.396  10.150  0.2028  0.4113 -0.1607
  732MOL0     C  927   6.165  -0.331  10.495  0.5415 -0.3808 -0.3559
  732MOL0     C  928   6.154  -0.383  10.621 -0.0712  0.9005  1.1437
  732MOL0     N  929   6.516  -0.197  10.885 -0.0044 -0.0260 -0.4312
  732MOL0     N  930   6.631  -0.143  10.894  0.7358  0.1577  0.1672
  732MOL0     C  931   6.822   0.688  11.127  0.3498  0.0147 -0.5271
  732MOL0     C  932   6.792   0.816  11.075  0.0467 -0.0295 -0.7070
  732MOL0     C  933   6.794   1.255  11.143 -0.2777 -0.3635 -0.1646
  732MOL0     C  934   6.860   1.338  11.049 -0.2394  0.7273 -0.6211
  732MOL0     C  935   6.837   1.476  11.045 -0.7501  0.4172  0.5820
  732MOL0     C  936   6.732   1.535  11.125  0.6781 -0.3118  0.3720
  732MOL0     O  937   6.698   1.671  11.128 -0.1742 -0.3171 -0.5119
  732MOL0     C  938   6.778   1.775  11.070  0.3574  0.3227  0.0693
  732MOL0     C  939   6.688   1.890  11.026  0.2389  0.1617  0.4216
  732MOL0     C  940   6.584   1.852  10.913  0.0322 -0.2323  0.3293
  732MOL0     C  941   6.458   1.781  10.968 -0.1794  0.3536 -0.1229
  732MOL0     C  942   6.335   1.817  10.894  0.0240 -0.1422  0.9570
  732MOL0     C  943   6.232   1.844  10.838  0.3001  0.3924 -0.0138
  732MOL0     C  944   6.666   1.456  11.211  0.9852 -0.3312  0.1606
  732MOL0     C  945   6.690   1.319  11.226 -0.1473  0.3642  0.2369
  732MOL0     C  946   6.639   1.239  11.343 -0.8118 -0.3026 -0.0520
  732MOL0     H  947   6.620   0.928  11.341 -3.1647 -0.6827 -3.5983
  732MOL0     H  948   6.647   0.695  11.423  0.0992  0.5307  0.1028
  732MOL0     H  949   6.606   0.395  11.300  0.3108 -0.5162 -0.8598
  732MOL0     H  950   6.671   0.482  11.445  1.1390 -3.2855  2.0691
  732MOL0     H  951   6.841   0.318  11.458  2.3817 -2.0986 -3.6166
  732MOL0     H  952   6.693   0.237  11.461 -0.4495  2.5109  1.7665
  732MOL0     H  953   6.732   0.223  11.194  1.5439 -0.2322  0.3270
  732MOL0     H  954   6.888   0.285  11.226  2.0301 -2.3403 -0.7611
  732MOL0     H  955   6.933   0.080  11.382  1.2845 -0.2091 -0.4215
  732MOL0     H  956   6.758   0.047  11.370 -0.2223  2.2548  1.5999
  732MOL0     H  957   6.989   0.039  11.154 -0.8764 -0.6778 -3.4101
  732MOL0     H  958   6.831   0.028  11.107  0.8834 -0.6086  1.2016
  732MOL0     H  959   6.936  -0.167  11.314  0.3946  1.1832  0.3873
  732MOL0     H  960   6.771  -0.152  11.232 -0.4135  1.5411 -2.2203
  732MOL0     H  961   6.891  -0.337  11.137 -0.3674  0.6687 -0.5012
  732MOL0     H  962   7.024  -0.217  11.088 -0.0741  0.5741 -0.9156
  732MOL0     H  963   6.878  -0.108  10.932  0.3307  0.9954  2.5188
  732MOL0     H  964   6.918  -0.280  10.899  0.8045  1.9967 -0.2187
  732MOL0     H  965   6.675  -0.419  11.064 -0.4001 -0.5876 -0.3799
  732MOL0     H  966   6.319  -0.366  11.024 -0.7393 -1.3872  1.7136
  732MOL0     H  967   6.455  -0.479  11.060 -0.8739  1.0422  1.4725
  732MOL0     H  968   6.372  -0.454  10.779 -0.2369 -1.4942  0.0208
  732MOL0     H  969   6.467  -0.573  10.864 -1.5363 -3.2574  1.5129
  732MOL0     H  970   6.253  -0.664  10.802 -0.6380  3.1874 -4.0820
  732MOL0     H  971   6.263  -0.646  10.986 -2.0296  2.1562  0.3635
  732MOL0     H  972   6.074  -0.578  10.974  2.9250 -0.8979  1.3389
  732MOL0     H  973   6.114  -0.429  10.908  0.4083 -1.1999  0.6794
  732MOL0     H  974   5.956  -0.650  10.562 -1.8876 -0.3521 -0.4705
  732MOL0     H  975   5.864  -0.633  10.353  0.5853  3.3785  4.8395
  732MOL0     H  976   6.004  -0.636  10.244  0.7692  0.0960  0.1174
  732MOL0     H  977   5.887  -0.512  10.226 -1.0777 -1.2795 -0.7557
  732MOL0     H  978   6.014  -0.159  10.042 -0.6352  0.8726 -4.0043
  732MOL0     H  979   6.025   0.019   9.912  1.9464 -0.3911 -1.3808
  732MOL0     H  980   6.128   0.175   9.714 -0.7768  0.5260 -0.1338
  732MOL0     H  981   6.043   0.222   9.855 -1.1995  0.7056 -1.4569
  732MOL0     H  982   6.203   0.408   9.690  0.1877 -0.5890 -0.0754
  732MOL0     H  983   6.029   0.409   9.740 -0.8315 -1.5907  0.8636
  732MOL0     H  984   6.281   0.448   9.914  0.4446  0.4758 -0.7947
  732MOL0     H  985   6.109   0.481   9.961  0.0248  3.0632  0.2221
  732MOL0     H  986   6.114   0.651   9.764  0.3804  2.4070  1.8263
  732MOL0     H  987   6.283   0.637   9.758 -0.8995 -0.3317 -1.3203
  732MOL0     H  988   6.120   0.700  10.015  2.4020 -2.2873  2.4992
  732MOL0     H  989   6.292   0.681  10.002  0.0218 -0.4666  0.1649
  732MOL0     H  990   6.297   0.849   9.825 -0.2594 -2.2628  1.1615
  732MOL0     H  991   6.264   0.932   9.983 -0.8217 -0.4094  1.2978
  732MOL0     H  992   6.001   0.879   9.897  0.7037  1.7649  0.0333
  732MOL0     H  993   6.079   0.899   9.743 -1.9917 -0.5743  0.2707
  732MOL0     H  994   5.977   1.105   9.825  0.0418 -0.8089 -0.7303
  732MOL0     H  995   6.149   1.134   9.790  0.3719 -0.6965 -0.5081
  732MOL0     H  996   6.425   0.119  10.047  2.1952 -1.8502  0.1421
  732MOL0     H  997   6.402  -0.085  10.210  0.9996 -0.3563 -1.8938
  732MOL0     H  998   6.239  -0.251  10.494  1.9166 -1.5542  0.9873
  732MOL0     H  999   6.204  -0.336  10.705  1.4619 -0.7528  1.2109
  732MOL0     H 1000   6.875   0.604  11.081  1.0765 -1.7031  3.0184
  732MOL0     H 1001   6.821   0.852  10.977 -0.3133  5.1266  0.7809
  732MOL0     H 1002   6.941   1.298  10.988  0.5059  0.2943  0.6158
  732MOL0     H 1003   6.887   1.527  10.964 -3.9712  4.1651  0.6538
  732MOL0     H 1004   6.853   1.795  11.147  2.5150 -0.1935 -1.7768
  732MOL0     H 1005   6.837   1.747  10.982  0.5560 -1.1200  0.6318
  732MOL0     H 1006   6.733   1.972  10.969 -0.1710 -1.6437 -2.8043
  732MOL0     H 1007   6.636   1.923  11.116  0.5082 -0.1321  0.6825
  732MOL0     H 1008   6.555   1.951  10.879  0.4159  0.6749  2.4914
  732MOL0     H 1009   6.628   1.807  10.823  0.0827  3.2284 -1.5537
  732MOL0     H 1010   6.435   1.820  11.067 -1.8235  0.5855 -0.5731
  732MOL0     H 1011   6.470   1.673  10.968 -0.6392  0.2721 -1.6915
  732MOL0     H 1012   6.138   1.864  10.792  0.2050  0.6409  0.2874
  732MOL0     H 1013   6.584   1.506  11.261 -2.7108 -2.3831 -3.3009
  732MOL0     H 1014   6.704   1.157  11.374 -0.4751 -0.5479 -1.3594
  732MOL0     H 1015   6.637   1.313  11.423 -1.0094  1.3993 -1.5551
  732MOL0     H 1016   6.535   1.208  11.326  0.0628 -2.1360 -2.6582
  733MOL0     O 1017   1.544   7.020   4.940  0.6682 -0.4678 -0.4730
  733MOL0     C 1018   1.593   6.997   5.052  0.1422  0.9211  0.4802
  733MOL0     O 1019   1.654   7.085   5.137 -0.2524  0.0680 -0.3091
  733MOL0     C 1020   1.652   7.225   5.108  0.1494 -0.2578 -0.7002
  733MOL0     C 1021   1.559   7.290   5.030 -0.7341 -0.4407 -0.1597
  733MOL0     C 1022   1.591   7.424   5.023 -0.3167  0.4408 -0.6077
  733MOL0     C 1023   1.696   7.494   5.088  0.0169 -0.2923 -0.0984
  733MOL0     O 1024   1.705   7.627   5.062  0.4501  0.2034 -0.1196
  733MOL0     C 1025   1.798   7.706   5.137  1.0989 -0.5397 -0.0065
  733MOL0     C 1026   1.763   7.740   5.282  0.4325  0.1040  0.3190
  733MOL0     C 1027   1.882   7.782   5.358  0.6985  0.0511  0.4714
  733MOL0     C 1028   1.844   7.772   5.503 -0.4427  0.0920  1.1682
  733MOL0     C 1029   1.965   7.819   5.589 -0.1731  0.0267  0.3498
  733MOL0     C 1030   2.004   7.970   5.577  0.6678  0.8802 -0.9246
  733MOL0     C 1031   2.123   7.987   5.671  1.1948 -0.6161 -0.5537
  733MOL0     C 1032   2.172   8.139   5.685 -0.2969 -0.0037  0.6320
  733MOL0     N 1033   2.065   8.230   5.748 -0.3040  0.3345  0.5347
  733MOL0     C 1034   2.027   8.232   5.883 -0.7004 -0.6019  0.4077
  733MOL0     C 1035   1.921   8.310   5.894 -0.2006 -0.7897  0.0738
  733MOL0     C 1036   1.850   8.350   6.018 -0.4644  0.6304  0.3377
  733MOL0     C 1037   1.793   8.227   6.097 -0.6775 -0.3267 -0.1945
  733MOL0     C 1038   1.708   8.265   6.218  0.2509  0.0829  0.6916
  733MOL0     C 1039   1.557   8.285   6.183 -0.0919  0.0961  0.6574
  733MOL0     O 1040   1.504   8.158   6.137  0.4661 -0.7495  0.4014
  733MOL0     C 1041   1.381   8.152   6.074  0.1095 -0.5615 -0.8643
  733MOL0     C 1042   1.294   8.255   6.076 -1.6176  0.4635  0.6379
  733MOL0     C 1043   1.165   8.240   6.025 -0.3444  0.3359  0.2209
  733MOL0     C 1044   1.082   8.364   6.026 -0.5691 -0.3614  0.2661
  733MOL0     C 1045   1.122   8.118   5.969  0.1243 -0.1628 -0.9463
  733MOL0     C 1046   0.998   8.098   5.912  0.6623 -0.0384 -0.2982
  733MOL0     O 1047   0.964   7.970   5.887  0.4512  0.1917 -1.0276
  733MOL0     C 1048   0.844   7.949   5.829 -0.1245  0.3528  0.0881
  733MOL0     C 1049   0.857   7.861   5.719  0.0134  1.1008 -0.6129
  733MOL0     C 1050   0.746   7.837   5.640 -0.5490  0.4795  0.5570
  733MOL0     C 1051   0.623   7.900   5.661  1.7691  0.6844  0.1844
  733MOL0     O 1052   0.523   7.864   5.571  0.2872  0.2193 -0.4409
  733MOL0     C 1053   0.398   7.859   5.642  0.0597 -0.5403 -1.0894
  733MOL0     C 1054   0.287   7.826   5.540 -0.2158 -0.6352  0.4764
  733MOL0     C 1055   0.264   7.941   5.439  0.4363 -0.1709  0.1002
  733MOL0     C 1056   0.168   7.891   5.330  0.0906 -0.4739 -0.5761
  733MOL0     C 1057   0.169   7.994   5.217 -0.4259  0.1685  0.6485
  733MOL0     C 1058   0.067   7.959   5.101  0.4343 -0.5016  1.4433
  733MOL0     C 1059  -0.078   7.955   5.145  0.2251 -0.1729  1.1162
  733MOL0     C 1060  -0.169   8.028   5.043 -0.6905 -0.1206 -0.4219
  733MOL0    Cl 1061  -0.338   7.962   5.027 -0.2257  0.1107  0.3119
  733MOL0     C 1062   0.612   7.994   5.767 -0.3353 -0.7841  1.5619
  733MOL0     C 1063   0.718   8.019   5.848  0.3757  0.7939 -1.2749
  733MOL0     O 1064   0.926   8.193   5.877 -0.3111 -0.0427 -0.0374
  733MOL0     C 1065   1.217   8.011   5.956  0.1927 -0.2348 -0.0685
  733MOL0     C 1066   1.337   8.031   6.027 -0.8322 -0.5347 -0.2797
  733MOL0     N 1067   1.896   8.350   5.765 -0.1746  0.3562  0.1845
  733MOL0     N 1068   1.967   8.289   5.676 -0.3570 -0.1400 -0.8479
  733MOL0     C 1069   1.787   7.422   5.160 -0.9168  0.4510  0.1497
  733MOL0     C 1070   1.757   7.287   5.172 -0.6125 -0.4754 -0.0823
  733MOL0     C 1071   1.583   6.853   5.089  0.5246  0.0918 -0.1361
  733MOL0     C 1072   1.699   6.786   5.134  0.1816 -0.5728 -0.8235
  733MOL0     C 1073   1.702   6.650   5.154 -0.5674 -0.5532 -0.8826
  733MOL0     C 1074   1.585   6.579   5.134  0.9105 -0.3548  0.0636
  733MOL0     O 1075   1.579   6.439   5.134  0.4062  0.2022 -0.6681
  733MOL0     C 1076   1.670   6.363   5.214 -0.3458 -0.4200 -0.4208
  733MOL0     C 1077   1.629   6.356   5.367 -0.0227  1.3607 -0.4714
  733MOL0     C 1078   1.697   6.238   5.439 -0.3268 -0.7849 -0.7664
  733MOL0     C 1079   1.673   6.233   5.587  0.4641  0.5350 -0.8869
  733MOL0     C 1080   1.725   6.355   5.645 -0.1775 -0.2589 -0.0388
  733MOL0     C 1081   1.750   6.468   5.685  0.1314 -0.8435 -0.0656
  733MOL0     C 1082   1.467   6.643   5.087 -0.4018  0.7582 -1.7772
  733MOL0     C 1083   1.467   6.779   5.065 -0.4694  0.1581  0.0275
  733MOL0     C 1084   1.332   6.837   5.020  0.1741  0.8362 -0.8586
  733MOL0     H 1085   1.478   7.238   4.980  0.4946 -0.4812 -2.2194
  733MOL0     H 1086   1.514   7.490   4.982 -0.8274  0.5798  0.5427
  733MOL0     H 1087   1.794   7.798   5.079 -0.7188  0.5008  1.6341
  733MOL0     H 1088   1.897   7.659   5.142  1.2941 -0.0820  0.4416
  733MOL0     H 1089   1.686   7.818   5.285 -1.2967 -1.5508  1.5030
  733MOL0     H 1090   1.721   7.652   5.331  0.7891 -0.0772  0.3022
  733MOL0     H 1091   1.965   7.714   5.336  1.3727  1.0646 -0.1918
  733MOL0     H 1092   1.897   7.883   5.320  0.4418 -0.1469 -0.1727
  733MOL0     H 1093   1.759   7.837   5.526  0.8979  2.8510 -1.0302
  733MOL0     H 1094   1.825   7.666   5.521  4.3334 -1.7490 -2.3962
  733MOL0     H 1095   2.049   7.751   5.570  1.4595  2.6088 -2.7836
  733MOL0     H 1096   1.924   7.798   5.688 -4.3376 -1.7631 -1.5233
  733MOL0     H 1097   2.028   7.981   5.471 -0.4186 -0.4956 -1.3365
  733MOL0     H 1098   1.919   8.033   5.603  1.5583  2.1819 -1.0443
  733MOL0     H 1099   2.208   7.921   5.649  0.5934 -0.5882 -3.2457
  733MOL0     H 1100   2.073   7.962   5.765  0.2031  0.4776 -0.7661
  733MOL0     H 1101   2.253   8.148   5.758 -1.5363  1.8081  1.8694
  733MOL0     H 1102   2.194   8.175   5.584  0.7734  0.4576  1.0107
  733MOL0     H 1103   2.073   8.179   5.966  0.8392 -0.1627 -0.1259
  733MOL0     H 1104   1.767   8.419   5.999  0.1383  0.5895 -3.0592
  733MOL0     H 1105   1.927   8.400   6.078 -0.6108  0.9056  0.3003
  733MOL0     H 1106   1.743   8.148   6.041 -1.4037 -0.6220  0.8540
  733MOL0     H 1107   1.885   8.178   6.133 -1.1137 -0.8847  0.1715
  733MOL0     H 1108   1.707   8.189   6.297 -3.3630 -1.7180 -0.8503
  733MOL0     H 1109   1.742   8.356   6.268  1.2448  0.4685 -0.6280
  733MOL0     H 1110   1.501   8.321   6.270 -0.3943 -0.7485  0.8143
  733MOL0     H 1111   1.542   8.360   6.104 -5.3265 -1.7891 -0.5201
  733MOL0     H 1112   1.322   8.350   6.121 -0.1798  1.4739 -2.1447
  733MOL0     H 1113   1.058   8.382   5.921 -1.6016 -0.9200  0.3987
  733MOL0     H 1114   1.131   8.460   6.045 -0.3020 -0.2326 -0.9893
  733MOL0     H 1115   0.988   8.351   6.080 -1.4009 -1.8969 -1.4794
  733MOL0     H 1116   0.954   7.821   5.691 -0.6202  0.6602 -2.3316
  733MOL0     H 1117   0.739   7.771   5.554  3.3632 -0.1344  0.5446
  733MOL0     H 1118   0.384   7.789   5.725  3.5248 -1.1975 -0.9131
  733MOL0     H 1119   0.365   7.956   5.681  0.6425 -1.9590  3.4496
  733MOL0     H 1120   0.312   7.736   5.483 -1.0043  0.5718 -1.9094
  733MOL0     H 1121   0.192   7.811   5.592 -0.0410  1.6940  1.5553
  733MOL0     H 1122   0.359   7.969   5.392  1.2732  2.2998  2.9875
  733MOL0     H 1123   0.230   8.024   5.502 -1.5074 -0.7605 -0.1076
  733MOL0     H 1124   0.072   7.873   5.379 -0.8522  0.0796 -2.1500
  733MOL0     H 1125   0.193   7.788   5.305 -1.2687 -1.5873  2.1803
  733MOL0     H 1126   0.142   8.094   5.252  0.7535  2.1075 -3.3412
  733MOL0     H 1127   0.273   8.006   5.185 -0.5733 -2.8553 -1.3557
  733MOL0     H 1128   0.073   7.859   5.057 -2.4565 -1.0766  2.1860
  733MOL0     H 1129   0.077   8.038   5.025 -4.0979 -0.4586  0.6594
  733MOL0     H 1130  -0.098   7.994   5.245 -0.2095  0.1096  0.9252
  733MOL0     H 1131  -0.104   7.849   5.145  2.3882 -0.9419 -3.6031
  733MOL0     H 1132  -0.123   8.026   4.943 -0.2242  2.3811 -0.3282
  733MOL0     H 1133  -0.166   8.136   5.058 -0.6974 -0.2610  0.6513
  733MOL0     H 1134   0.526   8.061   5.772 -2.0502 -2.4221 -2.0818
  733MOL0     H 1135   0.715   8.107   5.912 -0.3400 -1.3630  1.9010
  733MOL0     H 1136   1.205   7.914   5.907  0.5422  1.0353 -2.8881
  733MOL0     H 1137   1.409   7.949   6.026 -0.2934 -0.0838  0.4982
  733MOL0     H 1138   1.871   7.455   5.221 -0.0548 -2.3029  0.6215
  733MOL0     H 1139   1.820   7.211   5.216 -1.8694 -1.4149  0.1596
  733MOL0     H 1140   1.795   6.836   5.131 -0.3053  0.4458  0.1391
  733MOL0     H 1141   1.793   6.599   5.184 -0.8767 -1.1734 -0.9863
  733MOL0     H 1142   1.676   6.261   5.175 -1.2442 -0.9503  0.7562
  733MOL0     H 1143   1.774   6.395   5.202 -0.7609  0.8535 -0.7917
  733MOL0     H 1144   1.521   6.343   5.381  0.1785 -1.1844 -0.7249
  733MOL0     H 1145   1.663   6.450   5.410  0.3955  0.8333  0.3893
  733MOL0     H 1146   1.674   6.140   5.397  2.8915 -1.7994 -0.4017
  733MOL0     H 1147   1.801   6.265   5.418 -0.9560  2.2433 -0.4333
  733MOL0     H 1148   1.719   6.150   5.642 -0.6461  1.1671  1.1078
  733MOL0     H 1149   1.567   6.217   5.606  0.2966  1.1687 -1.2615
  733MOL0     H 1150   1.779   6.567   5.712 -0.2295 -0.5428 -0.7544
  733MOL0     H 1151   1.376   6.593   5.057  0.4987  0.0217 -3.4239
  733MOL0     H 1152   1.255   6.761   5.039 -0.3882  1.6283  0.1587
  733MOL0     H 1153   1.300   6.915   5.089 -1.4504 -0.0985 -0.5099
  733MOL0     H 1154   1.314   6.873   4.918 -0.5542 -0.7890 -1.3401
  734MOL0     O 1155   7.260   7.323  10.346 -0.0002  0.3943  0.1959
  734MOL0     C 1156   7.237   7.403  10.263  0.5982 -1.4327  0.3017
  734MOL0     O 1157   7.290   7.405  10.144 -0.3208 -0.2196 -0.2056
  734MOL0     C 1158   7.380   7.304  10.113  0.0642  0.3421  0.0379
  734MOL0     C 1159   7.484   7.342  10.035  0.1243  0.1400  0.0113
  734MOL0     C 1160   7.564   7.257   9.965 -0.5112  0.2324  0.1125
  734MOL0     C 1161   7.550   7.117   9.979 -0.5588 -0.7281  0.1899
  734MOL0     O 1162   7.642   7.037   9.913  0.4416  0.1310 -0.1986
  734MOL0     C 1163   7.601   6.894   9.908 -0.1032  0.4499  0.0495
  734MOL0     C 1164   7.686   6.830   9.805 -0.0273 -0.1451  0.2028
  734MOL0     C 1165   7.614   6.701   9.763 -0.0103 -0.2948  0.2036
  734MOL0     C 1166   7.699   6.623   9.667  0.4622  1.1559  0.3356
  734MOL0     C 1167   7.617   6.509   9.597 -0.0980 -0.0776  0.4623
  734MOL0     C 1168   7.532   6.568   9.485  0.1816  0.2598 -0.4295
  734MOL0     C 1169   7.463   6.440   9.429  0.5689  0.1633  0.9051
  734MOL0     C 1170   7.356   6.459   9.319  0.3316  0.7720  0.0318
  734MOL0     N 1171   7.264   6.557   9.351  0.5333 -0.5119  0.3665
  734MOL0     C 1172   7.247   6.681   9.293  0.4088  1.0714  0.1194
  734MOL0     C 1173   7.117   6.712   9.298  0.4366 -0.0824 -0.1798
  734MOL0     C 1174   7.089   6.855   9.272 -0.0772 -0.3335 -0.5577
  734MOL0     C 1175   7.079   6.947   9.399  0.5293 -0.2754  0.7829
  734MOL0     C 1176   7.213   7.003   9.437 -0.2570  0.3611  0.1937
  734MOL0     C 1177   7.283   7.058   9.313  0.4830  0.4811 -0.3779
  734MOL0     O 1178   7.201   7.132   9.215 -0.0533 -0.0885 -0.3406
  734MOL0     C 1179   7.274   7.171   9.111 -0.0117 -0.0153 -0.4312
  734MOL0     C 1180   7.381   7.113   9.059 -0.1045 -0.7287  0.6686
  734MOL0     C 1181   7.469   7.184   8.972  0.5866 -0.2588  0.3913
  734MOL0     C 1182   7.577   7.100   8.915  0.6975  0.5568  0.3033
  734MOL0     C 1183   7.439   7.312   8.926  0.7786 -0.2660  0.6846
  734MOL0     C 1184   7.512   7.382   8.814  0.5591  0.0639 -0.6239
  734MOL0     O 1185   7.452   7.488   8.754 -0.1916 -1.2169  0.9146
  734MOL0     C 1186   7.517   7.548   8.644 -0.6198  0.1494  0.0869
  734MOL0     C 1187   7.524   7.692   8.642 -0.1099  0.0023 -0.1388
  734MOL0     C 1188   7.599   7.756   8.540  0.3283  0.6680  0.7577
  734MOL0     C 1189   7.655   7.687   8.432  0.4957  0.0565  1.0330
  734MOL0     O 1190   7.735   7.751   8.338 -0.0586  0.6821 -0.3990
  734MOL0     C 1191   7.664   7.809   8.226 -0.1018 -0.0047 -0.4533
  734MOL0     C 1192   7.758   7.815   8.109  0.3031 -0.7264  0.1515
  734MOL0     C 1193   7.817   7.681   8.057  0.2193 -0.2465  0.7263
  734MOL0     C 1194   7.714   7.593   7.992  0.2106  0.2280  0.5636
  734MOL0     C 1195   7.778   7.469   7.923 -0.1527  0.1360 -0.5158
  734MOL0     C 1196   7.678   7.390   7.837  0.0257 -0.1274 -0.5156
  734MOL0     C 1197   7.738   7.291   7.739 -0.2047  0.0547  0.1573
  734MOL0     C 1198   7.737   7.366   7.600  0.4037 -0.0552  0.1481
  734MOL0    Cl 1199   7.800   7.261   7.484  0.4402 -0.4642 -0.3757
  734MOL0     C 1200   7.627   7.545   8.419  0.0774 -0.1369 -0.0934
  734MOL0     C 1201   7.560   7.485   8.530 -0.4588  0.2465  0.5372
  734MOL0     O 1202   7.626   7.342   8.785  0.2450 -0.7171 -0.3301
  734MOL0     C 1203   7.312   7.363   8.972  0.5486 -0.0551 -0.5189
  734MOL0     C 1204   7.227   7.291   9.052 -0.5891 -0.0279  0.1242
  734MOL0     N 1205   7.046   6.624   9.373 -0.3691  0.6161  0.6284
  734MOL0     N 1206   7.138   6.538   9.402 -0.4520  0.2060 -0.3323
  734MOL0     C 1207   7.447   7.072  10.072 -0.0292 -0.3379 -0.2570
  734MOL0     C 1208   7.361   7.164  10.134  0.2580  0.0975  0.0671
  734MOL0     C 1209   7.142   7.511  10.296 -0.5382 -0.8780 -0.2912
  734MOL0     C 1210   7.041   7.494  10.395  1.3304 -0.0046 -0.0812
  734MOL0     C 1211   6.950   7.594  10.425  0.1099  0.3579 -0.1659
  734MOL0     C 1212   6.964   7.726  10.373  0.1195 -0.3547  0.6633
  734MOL0     O 1213   6.887   7.840  10.394 -0.1275  0.4353 -0.5318
  734MOL0     C 1214   6.782   7.820  10.492 -0.5949 -0.2144 -0.5232
  734MOL0     C 1215   6.705   7.949  10.539  0.3447  0.2529 -0.1785
  734MOL0     C 1216   6.572   7.921  10.611  0.4029 -0.5153 -0.0174
  734MOL0     C 1217   6.498   8.062  10.645 -0.1287  0.5590  0.7179
  734MOL0     C 1218   6.525   8.130  10.767  0.5922  0.0315 -1.0532
  734MOL0     C 1219   6.528   8.210  10.865 -0.0023  0.3656 -0.3538
  734MOL0     C 1220   7.065   7.746  10.280 -1.4988  0.4095 -0.0105
  734MOL0     C 1221   7.159   7.644  10.245  0.4572 -0.9340 -0.2655
  734MOL0     C 1222   7.269   7.687  10.156  0.4386  0.3695 -0.9826
  734MOL0     H 1223   7.489   7.446  10.006  1.2601  0.2208  0.4707
  734MOL0     H 1224   7.645   7.296   9.905 -0.3604 -0.4580 -0.1340
  734MOL0     H 1225   7.496   6.886   9.877 -0.7178  1.5661  1.6532
  734MOL0     H 1226   7.609   6.842  10.004  1.7014  1.6287  0.5785
  734MOL0     H 1227   7.679   6.896   9.718 -0.6006 -0.1086  0.2687
  734MOL0     H 1228   7.787   6.826   9.845 -0.5751 -0.6406  1.5863
  734MOL0     H 1229   7.597   6.640   9.853  2.5586 -0.7007  0.4963
  734MOL0     H 1230   7.519   6.730   9.718 -0.1560  0.0232  0.7004
  734MOL0     H 1231   7.738   6.694   9.593 -1.3562 -2.1892 -4.3375
  734MOL0     H 1232   7.777   6.577   9.726  0.3544  0.5358 -0.0014
  734MOL0     H 1233   7.567   6.444   9.669  0.6098 -2.0018 -0.7331
  734MOL0     H 1234   7.700   6.454   9.553  2.7155  2.2259  2.5307
  734MOL0     H 1235   7.451   6.633   9.522  1.6708  1.7673  0.3211
  734MOL0     H 1236   7.598   6.632   9.425  1.3895  0.2916  0.8672
  734MOL0     H 1237   7.416   6.380   9.507  0.1989 -0.3738  0.2694
  734MOL0     H 1238   7.538   6.367   9.397  0.7633  0.6295  0.2752
  734MOL0     H 1239   7.397   6.478   9.220  1.9802 -4.4488 -0.5612
  734MOL0     H 1240   7.300   6.366   9.310 -0.4356  1.2958 -0.6956
  734MOL0     H 1241   7.327   6.736   9.245 -1.6400  2.9378 -1.3670
  734MOL0     H 1242   6.990   6.848   9.226  0.0621 -3.4334 -0.5977
  734MOL0     H 1243   7.148   6.896   9.189 -1.1071  0.5359 -0.8929
  734MOL0     H 1244   7.022   7.036   9.371  0.7409  0.0596  1.4029
  734MOL0     H 1245   7.022   6.893   9.476 -0.0183 -1.6889 -0.5534
  734MOL0     H 1246   7.212   7.076   9.518  0.7938 -0.6088  1.1286
  734MOL0     H 1247   7.285   6.927   9.470 -0.7328 -1.4885 -2.6786
  734MOL0     H 1248   7.359   7.132   9.341 -0.9966  0.9464  2.7987
  734MOL0     H 1249   7.333   6.975   9.263 -1.6062 -0.6819 -0.6202
  734MOL0     H 1250   7.398   7.008   9.081 -0.0746 -0.4995  1.8061
  734MOL0     H 1251   7.578   7.102   8.805  1.9740  0.0784  0.2866
  734MOL0     H 1252   7.563   6.994   8.938 -0.5650  0.3615 -1.1860
  734MOL0     H 1253   7.677   7.131   8.946  1.2803  0.3291 -1.2413
  734MOL0     H 1254   7.479   7.731   8.732 -1.3230 -2.3173  0.3524
  734MOL0     H 1255   7.632   7.860   8.542  0.8638  0.4818  2.4697
  734MOL0     H 1256   7.571   7.754   8.210 -0.1287 -1.4712  3.5389
  734MOL0     H 1257   7.628   7.909   8.252  0.8196  0.2242 -0.0062
  734MOL0     H 1258   7.718   7.864   8.019 -0.1806 -0.2258  0.6315
  734MOL0     H 1259   7.840   7.881   8.139  0.7846 -2.3480  2.6659
  734MOL0     H 1260   7.866   7.632   8.142 -0.4664 -0.5433  0.9533
  734MOL0     H 1261   7.884   7.702   7.973  1.7464 -1.5434  1.5519
  734MOL0     H 1262   7.663   7.663   7.925  1.3616  1.4330  0.9021
  734MOL0     H 1263   7.641   7.565   8.068 -3.9589 -3.1923 -4.0591
  734MOL0     H 1264   7.862   7.502   7.861  0.1891 -0.4084 -0.3551
  734MOL0     H 1265   7.817   7.395   7.994  2.8032  0.7265 -1.3767
  734MOL0     H 1266   7.611   7.467   7.797  0.2143  0.9953  1.2256
  734MOL0     H 1267   7.615   7.327   7.900 -0.6697 -0.0501 -1.1209
  734MOL0     H 1268   7.680   7.198   7.729 -2.6757  1.6797 -1.8425
  734MOL0     H 1269   7.844   7.274   7.759  0.3001  3.7648  1.3228
  734MOL0     H 1270   7.796   7.458   7.608 -0.9651  0.7923  1.1095
  734MOL0     H 1271   7.634   7.386   7.570 -0.0790 -0.1029  1.6696
  734MOL0     H 1272   7.678   7.482   8.348 -3.1632 -2.7435 -0.3708
  734MOL0     H 1273   7.553   7.377   8.530 -0.2347  0.1526  3.8636
  734MOL0     H 1274   7.279   7.459   8.934  0.7260  1.8013  3.5824
  734MOL0     H 1275   7.134   7.334   9.090 -0.4549  0.2221  0.1661
  734MOL0     H 1276   7.426   6.970  10.100  0.4352  0.2679  2.7024
  734MOL0     H 1277   7.277   7.129  10.192  0.5855 -0.2507  0.3349
  734MOL0     H 1278   7.039   7.393  10.434  1.2296 -0.9226 -2.3322
  734MOL0     H 1279   6.878   7.575  10.504  1.2455  3.3521  1.7571
  734MOL0     H 1280   6.704   7.751  10.459 -0.0663 -2.6421  2.8376
  734MOL0     H 1281   6.820   7.776  10.585 -0.7083  2.6537  0.9877
  734MOL0     H 1282   6.664   8.012  10.460 -0.8593  1.2541  1.1889
  734MOL0     H 1283   6.770   8.011  10.600 -1.8672 -1.0345  3.8518
  734MOL0     H 1284   6.514   7.867  10.536  0.8136  0.7702 -1.3057
  734MOL0     H 1285   6.584   7.858  10.700  4.8309 -1.2119 -0.8652
  734MOL0     H 1286   6.393   8.031  10.644  0.0430 -0.3784  3.1512
  734MOL0     H 1287   6.503   8.132  10.562  3.1306 -1.0269 -0.5704
  734MOL0     H 1288   6.551   8.270  10.951  0.4225 -0.4294  0.0959
  734MOL0     H 1289   7.074   7.847  10.242 -1.4890  0.6307  0.5652
  734MOL0     H 1290   7.367   7.653  10.192  0.1358 -0.0320 -0.5186
  734MOL0     H 1291   7.260   7.644  10.056  1.5321 -2.5156  0.0518
  734MOL0     H 1292   7.260   7.795  10.147 -0.7299  0.1697 -2.6585
  735MOL0     O 1293   0.472   8.132   6.926 -0.3709  0.1812 -0.6108
  735MOL0     C 1294   0.404   8.160   7.024  0.1329 -0.4262 -0.9790
  735MOL0     O 1295   0.453   8.224   7.135 -0.2607  0.3111 -0.9505
  735MOL0     C 1296   0.576   8.184   7.185 -0.0982 -0.2776  1.0472
  735MOL0     C 1297   0.630   8.277   7.272 -0.7210 -0.2069 -0.5868
  735MOL0     C 1298   0.748   8.248   7.341  0.2643  0.3225  0.5628
  735MOL0     C 1299   0.807   8.117   7.341 -0.0354 -0.2002 -0.1584
  735MOL0     O 1300   0.894   8.088   7.444  0.3730  0.1200  0.4667
  735MOL0     C 1301   0.976   7.979   7.428  0.2846  0.4059  0.7775
  735MOL0     C 1302   1.110   8.011   7.350 -0.4831  0.1096  0.6662
  735MOL0     C 1303   1.163   8.152   7.365 -0.6536  0.4454 -0.1755
  735MOL0     C 1304   1.308   8.172   7.322  0.5107 -0.3370 -0.2405
  735MOL0     C 1305   1.344   8.323   7.312  0.2247  0.4909 -0.6602
  735MOL0     C 1306   1.484   8.338   7.262 -0.2452  0.1845  0.5728
  735MOL0     C 1307   1.515   8.489   7.240 -0.9656 -0.1141 -0.0546
  735MOL0     C 1308   1.536   8.560   7.371 -0.3903  0.3951 -0.4462
  735MOL0     N 1309   1.553   8.695   7.334 -0.3283 -0.4977 -0.6946
  735MOL0     C 1310   1.467   8.793   7.388  0.4282 -0.6238  0.3748
  735MOL0     C 1311   1.519   8.909   7.355  0.9498 -1.1259  0.3589
  735MOL0     C 1312   1.476   9.041   7.380  0.5064  0.5192  0.7807
  735MOL0     C 1313   1.391   9.089   7.263  0.1298 -0.4182  0.1206
  735MOL0     C 1314   1.360   9.234   7.264  0.0318 -0.3210  0.0763
  735MOL0     C 1315   1.253   9.272   7.367 -0.3213 -0.1772  0.1687
  735MOL0     O 1316   1.133   9.195   7.368 -0.0246  0.3905 -0.4224
  735MOL0     C 1317   1.018   9.232   7.301  0.3356 -0.1557  0.6388
  735MOL0     C 1318   1.007   9.347   7.215  0.3026  0.3977  0.2827
  735MOL0     C 1319   0.885   9.382   7.158  0.0247  0.3337  0.1983
  735MOL0     C 1320   0.890   9.482   7.057 -0.3270 -0.6393 -0.3218
  735MOL0     C 1321   0.771   9.291   7.171  0.3221 -0.0479  0.4157
  735MOL0     C 1322   0.635   9.304   7.105 -0.1832 -0.4997 -0.0023
  735MOL0     O 1323   0.539   9.212   7.150 -0.4319  0.1350  0.5288
  735MOL0     C 1324   0.414   9.199   7.098 -0.6431  0.1302  0.0013
  735MOL0     C 1325   0.304   9.228   7.183 -0.3232  0.0461  0.1588
  735MOL0     C 1326   0.175   9.211   7.128 -0.4124 -0.0085 -0.3354
  735MOL0     C 1327   0.153   9.173   6.999  0.9758 -0.0785  0.4755
  735MOL0     O 1328   0.037   9.191   6.926  0.3308 -1.1523  0.5526
  735MOL0     C 1329  -0.080   9.161   6.990  0.5909 -0.1272 -0.5789
  735MOL0     C 1330  -0.095   9.008   7.033 -0.3158 -0.8749  0.3643
  735MOL0     C 1331  -0.239   8.961   7.022  0.6767 -0.1973  0.4655
  735MOL0     C 1332  -0.275   8.923   6.879 -0.4275 -0.0110  0.3887
  735MOL0     C 1333  -0.416   8.892   6.879  1.0628  0.3567  0.1375
  735MOL0     C 1334  -0.458   8.844   6.744 -0.5037 -0.5895 -0.7268
  735MOL0     C 1335  -0.602   8.806   6.730  0.5801 -0.4029 -0.2811
  735MOL0     C 1336  -0.643   8.802   6.577  0.2930  0.5293 -0.8409
  735MOL0    Cl 1337  -0.661   8.956   6.507 -0.1588 -0.0799  0.5772
  735MOL0     C 1338   0.266   9.143   6.913 -0.1969 -0.9798 -0.4236
  735MOL0     C 1339   0.396   9.152   6.971  0.0211 -0.4808  0.0424
  735MOL0     O 1340   0.615   9.387   7.012 -0.1485 -0.1428  0.4310
  735MOL0     C 1341   0.798   9.178   7.248  0.1786  0.0802 -0.4062
  735MOL0     C 1342   0.911   9.146   7.318 -0.7405 -0.5502 -0.0539
  735MOL0     N 1343   1.627   8.890   7.277  0.0364  0.6057 -0.0141
  735MOL0     N 1344   1.651   8.761   7.262  0.0254  0.1920 -0.1810
  735MOL0     C 1345   0.747   8.026   7.253  0.5498 -0.0862 -0.2315
  735MOL0     C 1346   0.641   8.062   7.167  0.5961 -0.4498 -0.5623
  735MOL0     C 1347   0.254   8.147   7.016 -0.3742 -0.5818  0.5731
  735MOL0     C 1348   0.181   8.172   7.140 -0.6031 -0.0496  0.4037
  735MOL0     C 1349   0.039   8.170   7.142 -1.4143  1.4057  0.3405
  735MOL0     C 1350  -0.027   8.120   7.040 -0.5393  0.2492 -0.1252
  735MOL0     O 1351  -0.160   8.082   7.056  0.5165  0.2583  0.1541
  735MOL0     C 1352  -0.238   8.138   6.950 -0.0059  0.0694 -0.1480
  735MOL0     C 1353  -0.387   8.135   6.978 -0.1285 -0.3518  0.8464
  735MOL0     C 1354  -0.435   7.994   7.010  0.3499  0.3155  0.2414
  735MOL0     C 1355  -0.583   7.983   7.049  0.3211 -0.7617 -0.5923
  735MOL0     C 1356  -0.610   7.864   7.118 -0.2243  0.1373  0.1716
  735MOL0     C 1357  -0.638   7.756   7.171 -0.2714 -0.1434  0.5324
  735MOL0     C 1358   0.040   8.085   6.917 -0.2543 -0.2381  0.5693
  735MOL0     C 1359   0.180   8.098   6.906 -0.4038  0.0620  0.4729
  735MOL0     C 1360   0.242   8.064   6.778  1.2066 -0.4301 -0.1742
  735MOL0     H 1361   0.559   8.358   7.285 -1.9102 -1.1801 -0.7896
  735MOL0     H 1362   0.792   8.323   7.406  0.9385 -0.7144  1.3479
  735MOL0     H 1363   0.930   7.889   7.386 -3.1819  2.0443  0.7240
  735MOL0     H 1364   0.994   7.943   7.530 -1.3891 -3.3181 -0.0592
  735MOL0     H 1365   1.182   7.936   7.384 -1.8524 -1.0498  1.1024
  735MOL0     H 1366   1.100   8.005   7.242 -0.9694  2.8340  0.4773
  735MOL0     H 1367   1.097   8.212   7.302 -3.3385 -0.9479  1.1359
  735MOL0     H 1368   1.148   8.186   7.467  0.9416  2.3801 -0.5180
  735MOL0     H 1369   1.372   8.125   7.397 -0.0606 -0.1411  0.3846
  735MOL0     H 1370   1.315   8.138   7.218  1.8196  1.6626 -0.8584
  735MOL0     H 1371   1.339   8.381   7.404 -0.7252 -1.8483  0.8671
  735MOL0     H 1372   1.270   8.372   7.248 -0.2708  0.2679 -0.2650
  735MOL0     H 1373   1.566   8.303   7.326  1.2350  0.6799 -0.9724
  735MOL0     H 1374   1.491   8.299   7.160  0.6112 -0.1408  0.7497
  735MOL0     H 1375   1.428   8.531   7.188 -0.8416 -0.2767 -0.3925
  735MOL0     H 1376   1.610   8.485   7.187  0.5400  0.4569  2.4642
  735MOL0     H 1377   1.455   8.543   7.442  1.2999 -3.7871  0.7823
  735MOL0     H 1378   1.625   8.519   7.419  0.1660  1.1731 -0.7877
  735MOL0     H 1379   1.377   8.783   7.448  0.9766 -0.2013  1.2930
  735MOL0     H 1380   1.565   9.102   7.398  0.4926  0.9428 -0.4515
  735MOL0     H 1381   1.421   9.030   7.474  2.1183  0.7450  1.7845
  735MOL0     H 1382   1.442   9.067   7.168 -0.0222 -1.1522  0.1975
  735MOL0     H 1383   1.302   9.024   7.267 -0.2904  0.2304  2.4842
  735MOL0     H 1384   1.454   9.280   7.296 -0.4423  0.9545 -0.3183
  735MOL0     H 1385   1.326   9.266   7.165 -0.2184 -1.0243 -0.0797
  735MOL0     H 1386   1.295   9.260   7.467 -1.1106 -0.1761  0.5058
  735MOL0     H 1387   1.238   9.380   7.354 -2.2021 -0.5002 -0.5940
  735MOL0     H 1388   1.079   9.428   7.211  0.5070  0.2360  0.5780
  735MOL0     H 1389   0.965   9.558   7.083 -0.1271 -1.2757  1.0637
  735MOL0     H 1390   0.796   9.535   7.041 -0.3263 -0.5593 -0.0707
  735MOL0     H 1391   0.927   9.438   6.964 -1.3056 -0.3634 -0.8508
  735MOL0     H 1392   0.311   9.263   7.286 -1.2492 -2.4407  1.1434
  735MOL0     H 1393   0.086   9.232   7.186 -1.0591 -1.7363 -0.6545
  735MOL0     H 1394  -0.088   9.221   7.082 -1.1541 -0.7594 -0.2941
  735MOL0     H 1395  -0.163   9.190   6.926  0.5915 -0.9996 -0.9867
  735MOL0     H 1396  -0.029   8.953   6.965 -2.4113  1.3548 -3.9194
  735MOL0     H 1397  -0.067   8.997   7.138  0.6712 -3.8407 -0.1261
  735MOL0     H 1398  -0.309   9.037   7.057 -1.2909 -1.2891 -0.9492
  735MOL0     H 1399  -0.239   8.874   7.087  2.4392 -0.7951 -0.2661
  735MOL0     H 1400  -0.220   8.832   6.851  0.3429 -0.7475  3.8302
  735MOL0     H 1401  -0.265   9.013   6.818 -0.8485  0.2190  0.6565
  735MOL0     H 1402  -0.439   8.808   6.945 -2.1486 -0.0084 -1.2913
  735MOL0     H 1403  -0.470   8.982   6.910  1.2105 -0.3702  2.7337
  735MOL0     H 1404  -0.392   8.759   6.723  0.0937  0.1174 -1.8212
  735MOL0     H 1405  -0.427   8.926   6.679  2.7905 -0.4330  0.8399
  735MOL0     H 1406  -0.662   8.883   6.778 -0.1811  0.4555 -2.4780
  735MOL0     H 1407  -0.624   8.712   6.782 -2.2931 -0.8079 -2.0108
  735MOL0     H 1408  -0.739   8.752   6.568 -0.4841  2.1080 -1.8792
  735MOL0     H 1409  -0.573   8.743   6.518  0.9423  1.5210 -1.0953
  735MOL0     H 1410   0.255   9.105   6.812  0.2244 -1.8706 -0.1443
  735MOL0     H 1411   0.481   9.129   6.907  1.5279  0.3102  1.6764
  735MOL0     H 1412   0.717   9.107   7.255 -1.9517  2.5745  1.9477
  735MOL0     H 1413   0.915   9.054   7.374 -0.5024 -0.2820  0.3729
  735MOL0     H 1414   0.778   7.922   7.253 -0.2157 -0.4757 -4.2573
  735MOL0     H 1415   0.606   7.990   7.094  1.5421 -2.0190  0.4589
  735MOL0     H 1416   0.233   8.200   7.231 -1.7173 -0.4418  1.1879
  735MOL0     H 1417  -0.018   8.201   7.229 -0.3691  1.0389  1.1769
  735MOL0     H 1418  -0.205   8.241   6.928  1.0034 -0.0199  0.8735
  735MOL0     H 1419  -0.212   8.075   6.865 -0.2598 -0.8166  0.4239
  735MOL0     H 1420  -0.435   8.177   6.889 -1.0145 -2.4644  0.2673
  735MOL0     H 1421  -0.394   8.193   7.070  0.0606  1.2070 -0.0755
  735MOL0     H 1422  -0.421   7.931   6.921  2.7722 -0.1825  0.8868
  735MOL0     H 1423  -0.371   7.969   7.096 -1.6557 -0.1698  1.6588
  735MOL0     H 1424  -0.650   7.989   6.963 -0.3771  0.1270  0.0008
  735MOL0     H 1425  -0.589   8.069   7.116  3.7234 -2.5983  2.4145
  735MOL0     H 1426  -0.662   7.661   7.213 -2.4395 -0.1658 -0.6279
  735MOL0     H 1427  -0.014   8.041   6.834 -0.6061 -0.3621  0.8598
  735MOL0     H 1428   0.164   8.024   6.713  1.2327 -1.1544  0.2301
  735MOL0     H 1429   0.283   8.154   6.731  0.4342  0.2650  0.4344
  735MOL0     H 1430   0.326   7.994   6.785  2.1863  0.6492 -0.7074
  736MOL0     O 1431   4.861   7.922   6.572 -0.3424  0.3728 -0.1563
  736MOL0     C 1432   4.844   8.044   6.601  1.2289  0.7853  1.0149
  736MOL0     O 1433   4.904   8.141   6.533 -0.2569 -0.7883 -0.2219
  736MOL0     C 1434   4.995   8.095   6.439  0.8767  0.2097 -0.0335
  736MOL0     C 1435   5.112   8.035   6.485  0.3726  0.3406 -0.5537
  736MOL0     C 1436   5.212   7.995   6.393  0.4118  0.1878 -0.7081
  736MOL0     C 1437   5.184   7.999   6.255 -0.4290  0.2226  0.0941
  736MOL0     O 1438   5.273   7.953   6.156  0.3825 -0.2448 -0.0200
  736MOL0     C 1439   5.412   7.957   6.170  0.5852 -0.4471  0.3946
  736MOL0     C 1440   5.474   7.919   6.032  0.4060  0.4897  0.6766
  736MOL0     C 1441   5.624   7.908   6.031  0.5308  0.7406  0.2730
  736MOL0     C 1442   5.688   7.865   5.900  0.7728  0.6487 -0.1702
  736MOL0     C 1443   5.824   7.906   5.883 -0.3824 -0.6652 -1.2041
  736MOL0     C 1444   5.900   7.838   5.762  0.0027 -0.1864 -0.3857
  736MOL0     C 1445   5.805   7.788   5.652 -0.6650  0.8991  0.1015
  736MOL0     C 1446   5.886   7.747   5.534 -0.4741 -0.4966  0.1414
  736MOL0     N 1447   5.900   7.853   5.435 -0.1681  0.5108  0.7247
  736MOL0     C 1448   5.937   7.976   5.464  0.3692  0.0821 -0.4629
  736MOL0     C 1449   5.968   8.037   5.345 -0.2014 -0.0889 -0.1168
  736MOL0     C 1450   6.035   8.168   5.341  0.5515 -0.6343 -0.2215
  736MOL0     C 1451   5.945   8.259   5.257  0.1249 -0.1597  0.4244
  736MOL0     C 1452   5.968   8.413   5.286  0.5656 -0.1956  0.1199
  736MOL0     C 1453   5.877   8.498   5.198 -0.1470 -0.2660  0.4534
  736MOL0     O 1454   5.895   8.486   5.053  0.6193  0.4343  0.1176
  736MOL0     C 1455   6.005   8.539   4.990  0.5011 -0.0963  0.4053
  736MOL0     C 1456   6.088   8.637   5.043 -0.4434 -0.4097 -0.3963
  736MOL0     C 1457   6.194   8.696   4.970 -0.2744  0.5189 -0.1124
  736MOL0     C 1458   6.289   8.786   5.045 -0.2364  0.2488 -0.3668
  736MOL0     C 1459   6.213   8.651   4.835  0.2531 -0.6784 -0.6617
  736MOL0     C 1460   6.305   8.705   4.732 -0.2719  0.0632 -0.7538
  736MOL0     O 1461   6.294   8.658   4.600 -0.0960  0.9799 -0.1201
  736MOL0     C 1462   6.387   8.689   4.502 -0.8201  0.2976 -0.2349
  736MOL0     C 1463   6.399   8.607   4.398 -0.3976  0.1807 -0.9343
  736MOL0     C 1464   6.471   8.630   4.280  0.8336 -0.1532  0.5586
  736MOL0     C 1465   6.549   8.754   4.271 -0.5597  0.3373 -0.1149
  736MOL0     O 1466   6.623   8.798   4.162  0.0060 -0.1306 -0.2646
  736MOL0     C 1467   6.552   8.767   4.037 -0.2256  0.5595 -0.1432
  736MOL0     C 1468   6.643   8.809   3.916  0.3144 -0.7632 -0.9341
  736MOL0     C 1469   6.589   8.760   3.778 -0.3166 -0.7464  0.2295
  736MOL0     C 1470   6.669   8.835   3.671  0.1307 -1.0864 -0.1477
  736MOL0     C 1471   6.676   8.748   3.544 -1.0958 -1.0550  0.3266
  736MOL0     C 1472   6.731   8.834   3.430  0.5646 -0.0568  0.7207
  736MOL0     C 1473   6.708   8.764   3.293 -0.9078  0.1047 -0.1264
  736MOL0     C 1474   6.739   8.855   3.167  0.0694  0.3427 -0.1694
  736MOL0    Cl 1475   6.646   9.014   3.176  0.3487 -0.1932  0.0831
  736MOL0     C 1476   6.540   8.836   4.385 -0.1183 -1.0006 -0.1608
  736MOL0     C 1477   6.459   8.809   4.493 -0.3347  0.1770  0.3315
  736MOL0     O 1478   6.393   8.787   4.775  0.3117  0.3265 -0.2571
  736MOL0     C 1479   6.133   8.546   4.785 -1.0565  1.6177 -0.0798
  736MOL0     C 1480   6.036   8.494   4.861  0.0183 -0.2308  0.2178
  736MOL0     N 1481   5.941   7.950   5.248  0.2721 -0.2800  0.8187
  736MOL0     N 1482   5.900   7.839   5.307 -0.1083 -0.4991 -0.0786
  736MOL0     C 1483   5.075   8.060   6.211  0.2253 -0.1523  0.2021
  736MOL0     C 1484   4.979   8.105   6.300  0.2206  0.3738  0.6804
  736MOL0     C 1485   4.757   8.089   6.716  0.0697 -0.8974 -0.9699
  736MOL0     C 1486   4.720   8.221   6.723  0.2261 -0.1219  0.3707
  736MOL0     C 1487   4.632   8.276   6.808  1.1357 -0.2505 -0.2914
  736MOL0     C 1488   4.582   8.202   6.915  0.3108  0.8922 -0.4583
  736MOL0     O 1489   4.474   8.264   6.983  0.1010  0.5385 -0.0608
  736MOL0     C 1490   4.402   8.175   7.072 -0.0528  0.8593  0.1709
  736MOL0     C 1491   4.274   8.247   7.122 -0.2047 -0.6857 -0.4048
  736MOL0     C 1492   4.176   8.271   7.000 -0.8826  0.3995 -0.4130
  736MOL0     C 1493   4.097   8.405   7.018  0.1330 -0.2393  0.1310
  736MOL0     C 1494   3.993   8.424   6.931 -0.1760 -0.6478 -0.2507
  736MOL0     C 1495   3.913   8.407   6.846 -0.1301  0.3487  0.2813
  736MOL0     C 1496   4.621   8.070   6.927 -0.2123  0.4556  0.2410
  736MOL0     C 1497   4.703   8.016   6.825  0.6723  0.5446 -0.5301
  736MOL0     C 1498   4.749   7.874   6.856  0.7136 -0.7342 -0.6674
  736MOL0     H 1499   5.137   8.027   6.591 -0.3979 -0.1686 -0.4030
  736MOL0     H 1500   5.302   7.950   6.433  0.6174  0.0275 -1.3406
  736MOL0     H 1501   5.449   7.888   6.247 -1.0230 -1.9285 -0.1254
  736MOL0     H 1502   5.452   8.055   6.200 -1.1334 -0.2059  2.0912
  736MOL0     H 1503   5.435   7.825   5.993  1.3313  1.4253 -2.8513
  736MOL0     H 1504   5.443   7.995   5.960  2.4326  1.0083  0.3036
  736MOL0     H 1505   5.679   7.992   6.075 -0.8349  3.3673 -2.6215
  736MOL0     H 1506   5.639   7.820   6.094 -1.5241  0.7055  0.8071
  736MOL0     H 1507   5.675   7.757   5.896  0.9488  0.6760 -3.0373
  736MOL0     H 1508   5.627   7.897   5.815  1.8296  1.2526 -0.7215
  736MOL0     H 1509   5.881   7.884   5.974  2.2633 -0.5145 -2.7431
  736MOL0     H 1510   5.829   8.014   5.863 -2.7401  0.3022  2.3992
  736MOL0     H 1511   5.965   7.921   5.732 -1.1507  2.6466  3.9222
  736MOL0     H 1512   5.956   7.750   5.795  1.5009  0.0715 -2.0779
  736MOL0     H 1513   5.727   7.857   5.619  1.1383  2.5973 -0.8204
  736MOL0     H 1514   5.753   7.698   5.686  0.4374  0.5566  0.9496
  736MOL0     H 1515   5.978   7.705   5.576 -0.1307  0.2573  0.1748
  736MOL0     H 1516   5.835   7.667   5.481 -1.6062  1.3681 -1.7562
  736MOL0     H 1517   5.942   8.026   5.560 -1.6472 -1.6326  0.6298
  736MOL0     H 1518   6.135   8.163   5.295  1.4970 -0.0029  1.6609
  736MOL0     H 1519   6.061   8.206   5.440 -1.1163 -1.9397  0.7740
  736MOL0     H 1520   5.961   8.234   5.151 -2.4105 -0.2009 -0.0110
  736MOL0     H 1521   5.838   8.238   5.267 -0.5526  2.3045 -0.5994
  736MOL0     H 1522   5.934   8.414   5.390  0.8813 -2.3768  0.2894
  736MOL0     H 1523   6.069   8.448   5.261 -0.2696  0.6634 -2.3589
  736MOL0     H 1524   5.770   8.489   5.222 -0.3471  3.1128  1.3333
  736MOL0     H 1525   5.902   8.600   5.230  2.1900 -0.0127 -1.8414
  736MOL0     H 1526   6.064   8.665   5.145 -3.0137 -0.5330 -0.8893
  736MOL0     H 1527   6.313   8.880   4.994  0.3712  0.4557  0.2914
  736MOL0     H 1528   6.388   8.743   5.060 -0.1258  0.1001 -1.4135
  736MOL0     H 1529   6.243   8.810   5.141  0.5098 -1.9253  0.5860
  736MOL0     H 1530   6.342   8.515   4.408  1.2245 -0.6531  2.1938
  736MOL0     H 1531   6.476   8.553   4.203  0.0452  0.2349  0.1089
  736MOL0     H 1532   6.538   8.660   4.021 -3.3869  1.1030 -1.8538
  736MOL0     H 1533   6.454   8.814   4.030  0.3519  1.8121 -0.1532
  736MOL0     H 1534   6.652   8.918   3.918 -0.9480 -0.6065 -2.2181
  736MOL0     H 1535   6.736   8.758   3.942 -1.2141 -1.0781  5.3836
  736MOL0     H 1536   6.481   8.778   3.769 -0.5692 -2.0156  0.5296
  736MOL0     H 1537   6.612   8.653   3.782  0.0928 -0.6422  0.9389
  736MOL0     H 1538   6.770   8.858   3.706 -0.7130  1.3634  0.9274
  736MOL0     H 1539   6.625   8.934   3.657 -0.7033 -1.4576 -0.2129
  736MOL0     H 1540   6.736   8.657   3.553  0.9474  0.3848  2.1911
  736MOL0     H 1541   6.574   8.727   3.511 -1.1925  1.8758 -1.6967
  736MOL0     H 1542   6.840   8.845   3.437  0.6691 -0.7491  0.3411
  736MOL0     H 1543   6.684   8.932   3.439 -0.4420 -0.4989  0.4046
  736MOL0     H 1544   6.601   8.744   3.294 -0.6682 -1.3890 -1.3393
  736MOL0     H 1545   6.771   8.675   3.296 -0.4218  0.4493  0.0844
  736MOL0     H 1546   6.715   8.792   3.081  2.0911  0.4454 -0.8615
  736MOL0     H 1547   6.847   8.868   3.162  0.3157 -1.8021 -2.0516
  736MOL0     H 1548   6.579   8.937   4.386 -4.0223  0.6947  2.1964
  736MOL0     H 1549   6.444   8.877   4.577  0.5518 -2.1662  2.5089
  736MOL0     H 1550   6.152   8.496   4.691  0.7303 -2.1442  2.0288
  736MOL0     H 1551   5.976   8.408   4.832 -2.8474  0.2791  3.8460
  736MOL0     H 1552   5.054   8.078   6.106  0.4663 -2.7608 -0.3614
  736MOL0     H 1553   4.901   8.172   6.265  2.1443  3.1971  1.4730
  736MOL0     H 1554   4.751   8.294   6.649 -1.5973 -0.3202 -0.6593
  736MOL0     H 1555   4.611   8.382   6.793  3.5818  0.3387 -0.0527
  736MOL0     H 1556   4.385   8.080   7.020  3.3236  1.0038 -1.4712
  736MOL0     H 1557   4.477   8.147   7.147  2.2534  2.0537 -1.5739
  736MOL0     H 1558   4.312   8.341   7.164  2.9265 -1.4079 -1.2902
  736MOL0     H 1559   4.226   8.181   7.195  1.3490 -2.7959 -1.1741
  736MOL0     H 1560   4.226   8.264   6.903 -1.2418  1.5595 -0.7007
  736MOL0     H 1561   4.095   8.199   7.014  0.7731 -1.1308  2.0604
  736MOL0     H 1562   4.165   8.482   6.980 -0.7729  0.4005 -0.2251
  736MOL0     H 1563   4.067   8.436   7.118 -0.0635 -0.5469  0.1684
  736MOL0     H 1564   3.846   8.388   6.764  3.8632 -3.3662 -2.5800
  736MOL0     H 1565   4.592   8.005   7.009 -0.7881  0.9375  0.4280
  736MOL0     H 1566   4.796   7.889   6.954  1.0058  1.5281 -1.1075
  736MOL0     H 1567   4.669   7.800   6.854 -0.4814  0.3039  2.3883
  736MOL0     H 1568   4.834   7.846   6.793  0.9786 -0.6798 -0.3395
  737MOL0     O 1569   5.036   8.253   2.238  0.4605  0.4452 -0.3860
  737MOL0     C 1570   5.004   8.310   2.343 -0.1338 -0.3304  0.1734
  737MOL0     O 1571   4.930   8.246   2.452  0.2161  0.5535  0.2210
  737MOL0     C 1572   4.862   8.134   2.422  0.9823  0.1491  0.4810
  737MOL0     C 1573   4.725   8.121   2.422  0.5937  0.7634 -0.1041
  737MOL0     C 1574   4.653   8.001   2.419 -1.0140 -0.0835  0.0621
  737MOL0     C 1575   4.719   7.877   2.415 -0.4354  0.8457 -0.0307
  737MOL0     O 1576   4.663   7.757   2.431  0.0320  0.5562  0.0297
  737MOL0     C 1577   4.544   7.743   2.505 -0.5435 -0.0296  0.7601
  737MOL0     C 1578   4.577   7.736   2.649  0.2590  0.1911  0.2563
  737MOL0     C 1579   4.472   7.661   2.740 -0.4889  0.6398  0.1549
  737MOL0     C 1580   4.348   7.749   2.761 -0.0582 -0.6932 -0.4168
  737MOL0     C 1581   4.293   7.740   2.901 -0.3917  0.4904 -0.2844
  737MOL0     C 1582   4.169   7.828   2.901 -0.0848 -0.5853 -0.1091
  737MOL0     C 1583   4.113   7.874   3.048 -0.5277  0.3011 -0.2137
  737MOL0     C 1584   4.058   7.765   3.141 -0.6002  0.1333 -0.4854
  737MOL0     N 1585   3.970   7.803   3.253 -0.5465  0.5539  0.5298
  737MOL0     C 1586   3.990   7.876   3.367 -0.3124  0.0439 -0.0624
  737MOL0     C 1587   3.875   7.873   3.431  0.2235  0.1291  0.1864
  737MOL0     C 1588   3.849   7.936   3.562  0.5471 -0.0801 -0.2727
  737MOL0     C 1589   3.706   7.897   3.620 -0.4206  0.4706  1.1452
  737MOL0     C 1590   3.683   7.936   3.766  0.5489  0.0284 -0.3438
  737MOL0     C 1591   3.528   7.933   3.797  0.3291 -0.2604  0.0770
  737MOL0     O 1592   3.456   8.033   3.727  0.2520 -0.2626 -0.0417
  737MOL0     C 1593   3.322   8.014   3.716 -0.0462  0.5269 -0.4866
  737MOL0     C 1594   3.256   8.115   3.648 -0.1735 -0.1703 -0.9462
  737MOL0     C 1595   3.117   8.115   3.620 -0.5636 -0.2377 -0.0702
  737MOL0     C 1596   3.054   8.233   3.550  0.1853 -0.7521 -0.3551
  737MOL0     C 1597   3.049   8.003   3.672  0.3097  0.0268  0.3511
  737MOL0     C 1598   2.905   7.996   3.649  1.8176  0.1949  0.3238
  737MOL0     O 1599   2.836   8.109   3.673  0.2349  0.5085  0.0748
  737MOL0     C 1600   2.704   8.109   3.640 -0.5769 -0.1893 -0.0257
  737MOL0     C 1601   2.670   8.141   3.508  0.7272 -0.2307  0.8404
  737MOL0     C 1602   2.531   8.174   3.486 -0.4313  1.4980  0.1866
  737MOL0     C 1603   2.440   8.172   3.584 -0.4346 -0.8074 -0.5610
  737MOL0     O 1604   2.311   8.215   3.581  0.1823 -0.0372 -0.2760
  737MOL0     C 1605   2.268   8.273   3.457  0.3034 -0.4897 -0.7383
  737MOL0     C 1606   2.223   8.175   3.352  0.0763  0.5038 -0.0967
  737MOL0     C 1607   2.099   8.092   3.391 -0.0578 -0.3642  0.3672
  737MOL0     C 1608   2.144   7.986   3.487  1.1049  0.4953  0.4252
  737MOL0     C 1609   2.018   7.897   3.505 -1.1185  0.3299 -0.2230
  737MOL0     C 1610   2.058   7.755   3.560  0.1958 -0.7965 -0.3756
  737MOL0     C 1611   2.087   7.655   3.439 -0.2359 -0.3740  0.3815
  737MOL0     C 1612   2.159   7.529   3.472 -0.2222  0.9788  0.2722
  737MOL0    Cl 1613   2.057   7.433   3.597  0.0109 -0.1637 -0.1031
  737MOL0     C 1614   2.485   8.144   3.718  0.0535  0.5077  0.9158
  737MOL0     C 1615   2.612   8.111   3.746 -0.9202  1.0551 -0.2695
  737MOL0     O 1616   2.856   7.887   3.613 -0.5263  0.0781  0.3458
  737MOL0     C 1617   3.112   7.895   3.732 -0.1732  0.1512 -0.8913
  737MOL0     C 1618   3.249   7.908   3.769 -0.9475 -0.1003  0.7356
  737MOL0     N 1619   3.793   7.785   3.364 -0.2765 -0.5440 -0.2426
  737MOL0     N 1620   3.847   7.751   3.255  0.2880 -0.5438 -0.8194
  737MOL0     C 1621   4.859   7.889   2.392  0.2992  0.4651  0.3751
  737MOL0     C 1622   4.924   8.012   2.395 -0.9483  0.9817 -0.1399
  737MOL0     C 1623   5.061   8.444   2.376  0.2505  0.3132  0.3392
  737MOL0     C 1624   5.027   8.516   2.500 -0.0523  0.5313 -0.1888
  737MOL0     C 1625   5.072   8.646   2.524 -0.0802  0.5045 -0.1400
  737MOL0     C 1626   5.157   8.708   2.437  0.3267 -0.4716 -0.4824
  737MOL0     O 1627   5.206   8.838   2.448 -0.1386  0.4545  0.9000
  737MOL0     C 1628   5.268   8.870   2.575 -1.1143 -0.1374 -1.0804
  737MOL0     C 1629   5.399   8.793   2.588 -1.1562 -0.7925  0.9869
  737MOL0     C 1630   5.516   8.874   2.513 -0.0036 -0.0130  0.1107
  737MOL0     C 1631   5.556   9.006   2.575 -0.5109 -0.1250  0.2144
  737MOL0     C 1632   5.554   9.020   2.715  0.4127 -0.3192 -0.0100
  737MOL0     C 1633   5.540   9.030   2.837 -0.3035  0.0387  0.1449
  737MOL0     C 1634   5.192   8.643   2.323 -0.3031  0.5173 -0.4106
  737MOL0     C 1635   5.139   8.521   2.289 -1.0873  0.1186  0.0178
  737MOL0     C 1636   5.164   8.482   2.148  0.1137 -0.6251 -0.2228
  737MOL0     H 1637   4.667   8.212   2.437  1.3344  1.4162 -1.0348
  737MOL0     H 1638   4.545   8.008   2.429 -1.1211  0.7446 -1.3437
  737MOL0     H 1639   4.507   7.649   2.464 -0.9378  0.6031 -0.3847
  737MOL0     H 1640   4.464   7.813   2.478 -1.0231 -1.3093 -1.3640
  737MOL0     H 1641   4.667   7.674   2.652 -0.3048 -0.6638 -0.1546
  737MOL0     H 1642   4.600   7.835   2.689  2.0555 -0.4084  0.8151
  737MOL0     H 1643   4.437   7.564   2.703 -2.0255  1.1425  0.2333
  737MOL0     H 1644   4.514   7.636   2.838  0.4148  1.8218  0.0973
  737MOL0     H 1645   4.391   7.849   2.757  1.0885 -1.0584  1.4692
  737MOL0     H 1646   4.268   7.732   2.687 -1.8620  1.2083  0.9877
  737MOL0     H 1647   4.369   7.765   2.976  1.0841 -1.3672 -1.0826
  737MOL0     H 1648   4.259   7.637   2.916  2.6585 -1.0242 -2.6953
  737MOL0     H 1649   4.200   7.918   2.848  1.1165 -0.0362  1.4756
  737MOL0     H 1650   4.089   7.769   2.854 -1.0471 -0.6578  1.5454
  737MOL0     H 1651   4.021   7.929   3.026  0.1317  1.2334 -0.7261
  737MOL0     H 1652   4.179   7.945   3.099 -1.5981  1.6415 -0.6535
  737MOL0     H 1653   4.005   7.690   3.081 -1.8327  1.1122 -0.6763
  737MOL0     H 1654   4.149   7.724   3.186 -1.8339  0.0065  2.0768
  737MOL0     H 1655   4.074   7.933   3.405 -1.8719  2.7046 -0.3556
  737MOL0     H 1656   3.845   8.043   3.542 -2.3244 -0.4852 -2.7828
  737MOL0     H 1657   3.923   7.911   3.638 -0.1954  0.1449  0.5342
  737MOL0     H 1658   3.635   7.946   3.552 -0.3517 -2.0268 -0.8728
  737MOL0     H 1659   3.680   7.791   3.610  1.2292 -0.2210  3.5474
  737MOL0     H 1660   3.731   7.862   3.831 -0.2602 -0.8712 -0.7442
  737MOL0     H 1661   3.719   8.035   3.795 -0.9109  0.2950  0.6746
  737MOL0     H 1662   3.491   7.834   3.768 -1.6000 -0.7616  3.7337
  737MOL0     H 1663   3.510   7.952   3.903  1.3660  1.3250  0.0055
  737MOL0     H 1664   3.313   8.195   3.602 -0.7072 -0.3023 -1.8529
  737MOL0     H 1665   3.005   8.184   3.465  0.7107 -3.1500  0.6316
  737MOL0     H 1666   3.135   8.296   3.514  1.1985 -3.7276 -3.9258
  737MOL0     H 1667   2.983   8.298   3.603  2.5816  0.5135  1.5337
  737MOL0     H 1668   2.743   8.140   3.427  1.0460 -2.0501  1.1051
  737MOL0     H 1669   2.513   8.214   3.387 -1.2317 -0.7082 -0.6279
  737MOL0     H 1670   2.184   8.337   3.486 -1.0516 -2.2090 -0.7444
  737MOL0     H 1671   2.341   8.345   3.420 -0.9161  0.5277 -1.2678
  737MOL0     H 1672   2.206   8.230   3.260  1.0399  0.9439 -0.0280
  737MOL0     H 1673   2.305   8.104   3.344  0.1128  0.6822 -1.5793
  737MOL0     H 1674   2.066   8.054   3.293  0.4058  0.5308 -0.1439
  737MOL0     H 1675   2.013   8.146   3.433 -0.2860 -0.6581  0.2852
  737MOL0     H 1676   2.163   8.028   3.586  0.6136 -1.1022  1.2342
  737MOL0     H 1677   2.227   7.926   3.447  0.0162 -1.4403  0.9097
  737MOL0     H 1678   1.946   7.935   3.578 -1.9703  1.1145 -1.4311
  737MOL0     H 1679   1.964   7.875   3.413 -0.8175 -0.9145 -0.1247
  737MOL0     H 1680   1.980   7.704   3.616  0.5903 -0.7547  0.2267
  737MOL0     H 1681   2.149   7.769   3.619 -0.5684  1.7085  0.3462
  737MOL0     H 1682   2.137   7.708   3.358 -1.0062  0.5742  0.4971
  737MOL0     H 1683   1.993   7.631   3.390  0.0745 -1.9990  0.5467
  737MOL0     H 1684   2.261   7.541   3.509  0.1853  1.7056 -1.0354
  737MOL0     H 1685   2.165   7.469   3.381  1.5912  0.5756  0.6315
  737MOL0     H 1686   2.410   8.162   3.794  0.2873  1.7840  0.8702
  737MOL0     H 1687   2.641   8.108   3.850 -0.2380 -0.4368 -0.4735
  737MOL0     H 1688   3.050   7.819   3.777  0.2461  0.7434  0.7574
  737MOL0     H 1689   3.302   7.833   3.827 -0.8496  1.1301  2.3215
  737MOL0     H 1690   4.920   7.801   2.375 -0.0652  0.4417 -0.9107
  737MOL0     H 1691   5.033   8.011   2.403 -1.0420 -0.6527  1.7890
  737MOL0     H 1692   4.958   8.474   2.572  2.2042 -0.1877  1.6831
  737MOL0     H 1693   5.023   8.685   2.613 -2.6749 -3.0961  0.2281
  737MOL0     H 1694   5.284   8.978   2.572  0.3218 -0.2969  0.0928
  737MOL0     H 1695   5.208   8.849   2.664  4.8022 -1.9684  3.1189
  737MOL0     H 1696   5.397   8.694   2.542  3.5696 -0.9023  0.5152
  737MOL0     H 1697   5.428   8.767   2.690 -2.3631 -0.3813  1.4590
  737MOL0     H 1698   5.610   8.818   2.515 -1.1798 -2.0878  0.6811
  737MOL0     H 1699   5.492   8.884   2.407 -0.3261 -0.6035  0.1219
  737MOL0     H 1700   5.483   9.078   2.537  0.6080 -0.5834 -3.1768
  737MOL0     H 1701   5.654   9.042   2.544 -1.0457  1.9068  0.7778
  737MOL0     H 1702   5.524   9.037   2.943 -2.3748  2.1198 -0.2192
  737MOL0     H 1703   5.261   8.687   2.252  1.8425 -0.5286  0.9099
  737MOL0     H 1704   5.067   8.465   2.102 -0.2440 -0.2878  0.4006
  737MOL0     H 1705   5.213   8.562   2.092  1.6345 -1.3959 -0.0742
  737MOL0     H 1706   5.229   8.395   2.136  1.1223  0.2197 -1.1179
  738MOL0     O 1707   0.850  10.259   9.364 -0.7255 -0.0556 -0.4960
  738MOL0     C 1708   0.795  10.336   9.441  0.0946 -0.0175 -0.3493
  738MOL0     O 1709   0.857  10.440   9.497 -0.6852  0.2991 -0.1801
  738MOL0     C 1710   0.992  10.444   9.494 -0.5284 -0.9419  0.0784
  738MOL0     C 1711   1.071  10.328   9.526  0.5849 -0.1941 -0.4802
  738MOL0     C 1712   1.213  10.327   9.521 -1.0363 -0.9621  0.4391
  738MOL0     C 1713   1.272  10.460   9.520  0.7907 -0.3143  0.3352
  738MOL0     O 1714   1.404  10.468   9.514 -0.5749  0.1855  0.0755
  738MOL0     C 1715   1.481  10.414   9.620  0.0067  0.5563  0.3730
  738MOL0     C 1716   1.608  10.333   9.575 -0.1810 -0.5793 -0.3068
  738MOL0     C 1717   1.675  10.251   9.687  0.2653  0.4125  0.6423
  738MOL0     C 1718   1.816  10.199   9.626 -0.3448  0.3412  1.0249
  738MOL0     C 1719   1.917  10.165   9.725  0.7871  0.4982  0.5280
  738MOL0     C 1720   1.886  10.044   9.813  0.4224 -0.5342 -0.9379
  738MOL0     C 1721   1.899   9.909   9.747 -0.1768 -0.2910  0.1865
  738MOL0     C 1722   1.814   9.811   9.832  0.3682  0.8472  0.2512
  738MOL0     N 1723   1.858   9.794   9.974  0.3062 -0.3004 -0.3389
  738MOL0     C 1724   1.780   9.746  10.075  0.4720 -0.0001 -0.0107
  738MOL0     C 1725   1.854   9.739  10.187 -0.1858  1.2305  0.2451
  738MOL0     C 1726   1.817   9.690  10.318  0.4848  0.0716  0.0849
  738MOL0     C 1727   1.819   9.543  10.339  0.0738 -0.0044 -0.3826
  738MOL0     C 1728   1.787   9.498  10.485 -0.4341  1.3017 -0.3761
  738MOL0     C 1729   1.792   9.348  10.499 -0.3594  0.1243  0.5426
  738MOL0     O 1730   1.716   9.278  10.396 -0.0453 -0.5234 -0.1842
  738MOL0     C 1731   1.733   9.143  10.389 -0.7422  0.1173  0.0423
  738MOL0     C 1732   1.656   9.092  10.292  0.7045 -0.5456 -0.2576
  738MOL0     C 1733   1.650   8.954  10.268 -0.9244 -0.9333 -0.3252
  738MOL0     C 1734   1.554   8.910  10.157  0.5033 -0.3447 -0.0554
  738MOL0     C 1735   1.746   8.874  10.333  0.1783  0.3715 -0.2124
  738MOL0     C 1736   1.783   8.741  10.293 -0.4228 -0.9254 -0.8532
  738MOL0     O 1737   1.916   8.699  10.300 -0.0252 -0.3573  0.3255
  738MOL0     C 1738   1.947   8.569  10.277 -0.3450  0.4183  0.3617
  738MOL0     C 1739   1.934   8.473  10.384  0.2148  0.1805 -0.7192
  738MOL0     C 1740   1.957   8.334  10.350 -0.7755 -0.3651  0.0184
  738MOL0     C 1741   1.983   8.292  10.217 -0.4312 -1.3895 -0.3763
  738MOL0     O 1742   2.018   8.169  10.174 -0.7347  0.5246  0.6142
  738MOL0     C 1743   2.010   8.053  10.259  0.7507 -0.1442 -0.3039
  738MOL0     C 1744   2.152   8.027  10.299 -0.9540  0.3098 -0.2557
  738MOL0     C 1745   2.155   7.940  10.423 -0.6223 -0.2143  0.1395
  738MOL0     C 1746   2.184   8.010  10.550  0.6742 -0.3535 -1.1431
  738MOL0     C 1747   2.208   7.906  10.670  0.2730 -0.2413 -0.4955
  738MOL0     C 1748   2.268   7.976  10.790 -0.6063 -1.8468  0.4141
  738MOL0     C 1749   2.286   7.886  10.917 -0.4343 -0.2040  0.3592
  738MOL0     C 1750   2.344   7.965  11.037  0.2118  0.4740  0.4846
  738MOL0    Cl 1751   2.228   8.088  11.107 -0.1355  0.1699 -0.2486
  738MOL0     C 1752   1.990   8.391  10.119  0.5991 -0.5078  0.9393
  738MOL0     C 1753   1.967   8.528  10.147 -0.3355 -0.3546 -0.9131
  738MOL0     O 1754   1.689   8.670  10.262  0.0813  0.4041 -0.0326
  738MOL0     C 1755   1.834   8.927  10.429  0.4826  0.3854  0.3923
  738MOL0     C 1756   1.821   9.062  10.456 -0.1943 -0.2556  0.0462
  738MOL0     N 1757   1.979   9.786  10.154  0.9825  0.4187 -0.5159
  738MOL0     N 1758   1.985   9.814  10.028  0.1180  0.1892  0.0769
  738MOL0     C 1759   1.192  10.574   9.489  0.0578 -0.2589 -0.2212
  738MOL0     C 1760   1.052  10.567   9.476  0.2044  0.4319 -0.6210
  738MOL0     C 1761   0.655  10.304   9.495  0.6694  0.1544 -0.0935
  738MOL0     C 1762   0.617  10.383   9.604 -1.0478  1.0409  0.4136
  738MOL0     C 1763   0.487  10.354   9.661 -0.3295  0.6168  0.2879
  738MOL0     C 1764   0.388  10.283   9.592 -0.0520 -0.4918 -0.3063
  738MOL0     O 1765   0.253  10.299   9.610  0.8126  0.1894  0.2067
  738MOL0     C 1766   0.201  10.418   9.671 -0.2282  0.5766 -0.2062
  738MOL0     C 1767   0.232  10.539   9.584 -0.2138  0.3122  0.1975
  738MOL0     C 1768   0.139  10.662   9.599 -0.1304  0.5567 -0.0481
  738MOL0     C 1769   0.169  10.740   9.729  0.1995 -0.0083  1.2423
  738MOL0     C 1770   0.302  10.786   9.735 -0.1323  0.5971  0.3239
  738MOL0     C 1771   0.417  10.831   9.748 -0.4913 -0.3908  0.1551
  738MOL0     C 1772   0.426  10.207   9.482 -0.3739  0.3320  0.4062
  738MOL0     C 1773   0.557  10.216   9.430 -0.7204  0.3872  0.1250
  738MOL0     C 1774   0.599  10.129   9.314 -0.4193 -0.7858 -0.4255
  738MOL0     H 1775   1.028  10.236   9.564 -0.3607  0.8896  1.1776
  738MOL0     H 1776   1.273  10.237   9.530 -0.0126 -0.5399 -1.4919
  738MOL0     H 1777   1.423  10.353   9.689 -0.3426  0.8644  0.3512
  738MOL0     H 1778   1.510  10.501   9.679 -0.7770 -0.4272  2.2726
  738MOL0     H 1779   1.586  10.261   9.496 -1.0007  1.8544 -2.4162
  738MOL0     H 1780   1.675  10.411   9.538  0.2010 -0.2307  1.0726
  738MOL0     H 1781   1.684  10.310   9.779 -2.6519 -0.5077  1.6321
  738MOL0     H 1782   1.616  10.162   9.706 -1.1306  1.3925  1.0771
  738MOL0     H 1783   1.794  10.114   9.560  2.5726  3.1222 -4.2341
  738MOL0     H 1784   1.858  10.282   9.568 -0.9961  0.2552  0.4143
  738MOL0     H 1785   1.935  10.249   9.792  0.7496 -2.2887  4.3317
  738MOL0     H 1786   2.012  10.145   9.674 -0.8467  0.6652 -2.9211
  738MOL0     H 1787   1.967  10.048   9.886 -0.0383  0.5891 -0.4515
  738MOL0     H 1788   1.795  10.058   9.872  1.5239  1.9131  0.3567
  738MOL0     H 1789   2.004   9.881   9.737  0.7580  2.8374  0.2910
  738MOL0     H 1790   1.851   9.908   9.648  3.6590 -2.0412 -1.8740
  738MOL0     H 1791   1.708   9.839   9.830  0.4649  1.3603  1.2362
  738MOL0     H 1792   1.802   9.710   9.792 -0.8698  0.6971  0.9360
  738MOL0     H 1793   1.677   9.712  10.069  0.7086 -0.5440 -1.3931
  738MOL0     H 1794   1.713   9.720  10.331  1.1524  2.1330  1.0831
  738MOL0     H 1795   1.871   9.739  10.399  0.7236  1.3543 -0.8369
  738MOL0     H 1796   1.748   9.498  10.269 -1.8424  2.1788  0.0330
  738MOL0     H 1797   1.917   9.501  10.314  0.1665 -1.4014  2.0904
  738MOL0     H 1798   1.875   9.533  10.539  0.4674  0.4792 -1.2875
  738MOL0     H 1799   1.691   9.541  10.517 -0.6296  1.3444 -1.0158
  738MOL0     H 1800   1.896   9.319  10.482 -1.4356 -3.3192 -1.0413
  738MOL0     H 1801   1.757   9.314  10.597 -0.9441  2.9790  1.4112
  738MOL0     H 1802   1.598   9.163  10.235  1.9566 -0.0105 -0.8866
  738MOL0     H 1803   1.486   8.993  10.135  1.7087  0.2025 -2.0475
  738MOL0     H 1804   1.502   8.818  10.186 -1.0937  0.6871  0.4776
  738MOL0     H 1805   1.598   8.903  10.057  0.1454  1.2083 -0.3582
  738MOL0     H 1806   1.929   8.512  10.486 -0.0020 -1.3019 -0.1398
  738MOL0     H 1807   1.953   8.261  10.430  1.0475 -0.3204  0.2034
  738MOL0     H 1808   1.946   8.065  10.347 -0.7895 -1.5518 -1.1939
  738MOL0     H 1809   1.961   7.973  10.204 -0.8949 -0.7175  1.8779
  738MOL0     H 1810   2.191   7.974  10.211 -1.7665  0.8411 -0.9568
  738MOL0     H 1811   2.212   8.117  10.314 -1.8012  0.8909 -0.2817
  738MOL0     H 1812   2.229   7.862  10.404 -0.7307  0.5021 -4.2062
  738MOL0     H 1813   2.056   7.895  10.429 -0.2848 -1.7292 -3.4182
  738MOL0     H 1814   2.092   8.066  10.569 -1.0743 -2.4537 -2.9366
  738MOL0     H 1815   2.277   8.068  10.547 -0.0198  0.7336 -2.7711
  738MOL0     H 1816   2.112   7.859  10.692 -0.6423  0.4112 -2.7663
  738MOL0     H 1817   2.280   7.831  10.638 -1.6930 -2.1889 -0.6109
  738MOL0     H 1818   2.220   8.065  10.832  2.5434 -0.6483  1.8197
  738MOL0     H 1819   2.366   8.019  10.765  1.1183 -2.1821  5.4735
  738MOL0     H 1820   2.357   7.814  10.876 -0.3443  0.9816 -1.7269
  738MOL0     H 1821   2.190   7.843  10.946  0.5886 -2.3399  0.7674
  738MOL0     H 1822   2.443   8.005  11.010  1.0024 -2.4785 -1.5556
  738MOL0     H 1823   2.356   7.883  11.108  0.4056 -0.6394 -0.7929
  738MOL0     H 1824   2.017   8.361  10.019  0.9470 -1.5429  1.3251
  738MOL0     H 1825   1.967   8.610  10.076 -2.6487  1.1063  0.6466
  738MOL0     H 1826   1.914   8.869  10.474  0.9237 -4.3312 -5.1974
  738MOL0     H 1827   1.880   9.095  10.541 -1.2441  0.2496  0.6030
  738MOL0     H 1828   1.249  10.666   9.475 -0.5797  0.4199  1.3840
  738MOL0     H 1829   0.983  10.648   9.452 -0.0041 -0.1988 -2.2796
  738MOL0     H 1830   0.697  10.436   9.656 -1.5015  0.2237  2.0069
  738MOL0     H 1831   0.466  10.405   9.754 -0.2778  2.2470 -0.5731
  738MOL0     H 1832   0.093  10.403   9.677 -0.1525  0.6139  3.4731
  738MOL0     H 1833   0.226  10.424   9.777  1.4045 -2.9037 -0.2285
  738MOL0     H 1834   0.221  10.513   9.478  0.7994  2.1094 -0.4068
  738MOL0     H 1835   0.338  10.568   9.590 -0.5169  1.2146  1.5461
  738MOL0     H 1836   0.153  10.718   9.506  0.3161 -0.5118 -0.6523
  738MOL0     H 1837   0.038  10.619   9.601 -0.0568  0.3981  1.6075
  738MOL0     H 1838   0.151  10.678   9.817 -1.0118  0.6326  1.4725
  738MOL0     H 1839   0.102  10.826   9.735  1.2202  1.0039 -0.8035
  738MOL0     H 1840   0.512  10.880   9.752 -0.3087 -0.7899  0.7442
  738MOL0     H 1841   0.352  10.150   9.427  0.5227 -2.2443  1.7011
  738MOL0     H 1842   0.670  10.051   9.343 -0.4072 -0.7388 -0.3278
  738MOL0     H 1843   0.513  10.072   9.278  0.4228 -1.4895 -1.3868
  738MOL0     H 1844   0.630  10.189   9.228  0.0410 -0.7649 -0.2495
  739MOL0     O 1845   4.163   5.187   5.903 -0.0015 -0.6569  0.2309
  739MOL0     C 1846   4.140   5.184   5.780  0.2911 -0.0017 -0.0927
  739MOL0     O 1847   4.226   5.145   5.683 -0.1492  0.6486 -0.1488
  739MOL0     C 1848   4.358   5.115   5.725 -0.1774  0.2797  0.6800
  739MOL0     C 1849   4.402   4.987   5.730 -0.2374 -0.4779 -0.4176
  739MOL0     C 1850   4.540   4.962   5.763  0.6597  0.1779 -0.0942
  739MOL0     C 1851   4.620   5.066   5.804 -0.1535 -0.7723  0.0746
  739MOL0     O 1852   4.755   5.044   5.834 -0.3813  0.1444  0.0117
  739MOL0     C 1853   4.797   5.076   5.962 -0.9243  0.2287  0.1040
  739MOL0     C 1854   4.894   4.973   6.016  0.0499 -0.1578 -0.4621
  739MOL0     C 1855   5.026   4.971   5.928  0.2770 -0.2637 -0.1370
  739MOL0     C 1856   5.144   4.922   6.002 -0.6084  0.1293  0.8339
  739MOL0     C 1857   5.170   4.773   6.013  0.0495 -0.8111 -1.1449
  739MOL0     C 1858   5.164   4.707   5.875 -0.3937 -1.0037 -1.0604
  739MOL0     C 1859   5.303   4.700   5.807 -0.4119 -0.0677  0.9333
  739MOL0     C 1860   5.299   4.582   5.707  0.3116 -0.3083 -0.6576
  739MOL0     N 1861   5.413   4.586   5.614  0.0503  0.2588  0.5604
  739MOL0     C 1862   5.545   4.542   5.634 -0.0831  0.3268 -0.0870
  739MOL0     C 1863   5.612   4.572   5.526 -0.1749 -0.2190  0.5997
  739MOL0     C 1864   5.761   4.536   5.505  0.7218  0.2538 -0.2308
  739MOL0     C 1865   5.809   4.544   5.358 -0.1367 -0.0582  0.0825
  739MOL0     C 1866   5.733   4.444   5.272  0.3717 -0.5678  0.1343
  739MOL0     C 1867   5.778   4.457   5.132 -0.0334 -0.2794 -0.8505
  739MOL0     O 1868   5.772   4.587   5.078  0.0052  0.0690 -0.2964
  739MOL0     C 1869   5.848   4.604   4.968  0.0212  0.8607 -0.1855
  739MOL0     C 1870   5.868   4.505   4.869  0.2639  0.0565  0.7007
  739MOL0     C 1871   5.936   4.531   4.749 -0.1770  1.2124 -0.6482
  739MOL0     C 1872   5.971   4.402   4.669  0.6378 -0.0702 -0.6686
  739MOL0     C 1873   5.993   4.661   4.724  0.2384  0.1833 -0.0726
  739MOL0     C 1874   6.071   4.695   4.596 -0.0442 -0.2904 -0.7925
  739MOL0     O 1875   6.169   4.788   4.598 -0.8535 -0.6671 -0.4131
  739MOL0     C 1876   6.222   4.813   4.472 -0.4527 -0.1039 -0.2147
  739MOL0     C 1877   6.163   4.912   4.390  0.0824 -0.7976  0.2054
  739MOL0     C 1878   6.197   4.930   4.248  0.7289  0.6083  0.1042
  739MOL0     C 1879   6.297   4.843   4.199 -0.0679 -0.2197  0.0920
  739MOL0     O 1880   6.373   4.871   4.086 -0.1395 -0.5489 -0.4394
  739MOL0     C 1881   6.314   4.866   3.949  0.0176 -0.0892 -0.6303
  739MOL0     C 1882   6.419   4.879   3.833  0.3092 -0.1275  0.1258
  739MOL0     C 1883   6.527   4.991   3.837 -0.1218 -0.1951 -0.6607
  739MOL0     C 1884   6.590   5.009   3.706  0.6738 -0.2087 -0.2362
  739MOL0     C 1885   6.694   5.123   3.701 -0.3696 -0.1345 -0.4443
  739MOL0     C 1886   6.707   5.186   3.569 -0.2313  0.5094 -0.6616
  739MOL0     C 1887   6.827   5.280   3.557  0.0489 -0.1163  0.4460
  739MOL0     C 1888   6.963   5.212   3.525  0.8151  0.7190 -0.6056
  739MOL0    Cl 1889   7.098   5.313   3.488 -0.2481  0.1504  0.0809
  739MOL0     C 1890   6.357   4.758   4.286 -0.9592 -0.0588 -0.5738
  739MOL0     C 1891   6.317   4.735   4.418 -0.5701  0.7626 -0.3883
  739MOL0     O 1892   6.034   4.622   4.497 -0.1080 -0.0744 -0.1935
  739MOL0     C 1893   5.973   4.752   4.826  1.2750 -0.5456  1.3730
  739MOL0     C 1894   5.898   4.728   4.943 -0.3271 -0.1758 -0.4806
  739MOL0     N 1895   5.530   4.639   5.437  0.3221 -0.2197  0.8052
  739MOL0     N 1896   5.409   4.640   5.489  0.0691 -0.9854  0.7176
  739MOL0     C 1897   4.572   5.196   5.801  0.0397  0.6243  0.6946
  739MOL0     C 1898   4.442   5.222   5.757 -0.5291 -0.1762  0.2079
  739MOL0     C 1899   3.997   5.206   5.739  0.0979 -0.8499 -1.0890
  739MOL0     C 1900   3.975   5.211   5.600  0.6197  0.2558 -0.4190
  739MOL0     C 1901   3.856   5.253   5.554 -0.0288 -0.6625  0.9883
  739MOL0     C 1902   3.753   5.293   5.639  0.5490  0.2916  0.5614
  739MOL0     O 1903   3.643   5.340   5.585  0.5323 -0.4035  0.5618
  739MOL0     C 1904   3.603   5.477   5.609  0.3763  0.2033 -0.1429
  739MOL0     C 1905   3.708   5.585   5.619  0.2188 -0.2553  0.0668
  739MOL0     C 1906   3.804   5.601   5.500 -0.3275 -0.1379  0.9051
  739MOL0     C 1907   3.741   5.591   5.360  0.3972 -0.1769  0.1054
  739MOL0     C 1908   3.685   5.717   5.314  0.4550 -0.4292 -0.6720
  739MOL0     C 1909   3.618   5.816   5.278  0.7246 -0.4865 -0.4863
  739MOL0     C 1910   3.773   5.288   5.778  0.1874  0.0557  0.3285
  739MOL0     C 1911   3.895   5.247   5.832 -0.2731 -0.5284  0.2134
  739MOL0     C 1912   3.899   5.241   5.978  0.1486  0.5613 -0.6713
  739MOL0     H 1913   4.333   4.906   5.706 -1.4683  1.0374 -2.2882
  739MOL0     H 1914   4.570   4.858   5.775  3.2595  0.9292  0.5717
  739MOL0     H 1915   4.716   5.087   6.035 -0.4157  0.7756  0.5989
  739MOL0     H 1916   4.842   5.176   5.956 -2.0038  1.2207  4.5247
  739MOL0     H 1917   4.912   5.006   6.119 -1.7927  0.9194 -0.4437
  739MOL0     H 1918   4.839   4.879   6.027 -0.0938  0.0706  1.0997
  739MOL0     H 1919   5.009   4.911   5.838 -0.9015  0.0773 -0.1651
  739MOL0     H 1920   5.061   5.067   5.888 -1.0386  1.0612  1.7182
  739MOL0     H 1921   5.234   4.955   5.949 -1.7711  1.0099 -0.6732
  739MOL0     H 1922   5.151   4.959   6.105  1.4266 -0.3304  0.9105
  739MOL0     H 1923   5.084   4.747   6.076  0.2436  4.8583  2.1375
  739MOL0     H 1924   5.265   4.757   6.065 -1.3008 -0.9603  1.4456
  739MOL0     H 1925   5.128   4.604   5.882  1.9880 -1.9797 -1.9383
  739MOL0     H 1926   5.090   4.752   5.809 -0.9891  1.4848  1.1293
  739MOL0     H 1927   5.388   4.678   5.872  0.8700 -0.1447 -0.7297
  739MOL0     H 1928   5.332   4.794   5.760 -0.8930 -0.7124 -0.7126
  739MOL0     H 1929   5.294   4.487   5.761  0.4367  0.9296  1.7079
  739MOL0     H 1930   5.204   4.592   5.654 -0.8244  0.5682  1.4020
  739MOL0     H 1931   5.575   4.480   5.718 -0.1008  2.5236  1.6358
  739MOL0     H 1932   5.772   4.432   5.536  0.4885  0.2431 -0.1846
  739MOL0     H 1933   5.822   4.603   5.565 -0.3711  1.8383 -0.8318
  739MOL0     H 1934   5.788   4.648   5.334 -0.3623  0.8484  3.6590
  739MOL0     H 1935   5.917   4.528   5.348 -0.5758 -2.3526 -2.2680
  739MOL0     H 1936   5.726   4.341   5.310  0.5226 -0.2063  1.1530
  739MOL0     H 1937   5.627   4.471   5.262  0.7505 -0.0695 -4.0461
  739MOL0     H 1938   5.883   4.427   5.129  0.7520  2.0468  0.4129
  739MOL0     H 1939   5.717   4.389   5.072  0.7227 -1.5465 -0.2363
  739MOL0     H 1940   5.818   4.409   4.878  2.1620 -1.4015 -2.4784
  739MOL0     H 1941   5.967   4.306   4.722 -0.5531  0.6954  0.6800
  739MOL0     H 1942   6.075   4.415   4.637  0.6163  1.6000 -0.1510
  739MOL0     H 1943   5.913   4.401   4.577  0.4858  1.7458 -0.6210
  739MOL0     H 1944   6.087   4.972   4.439  2.1310  1.6943  0.5606
  739MOL0     H 1945   6.147   5.009   4.193 -1.9431 -0.4005  0.9149
  739MOL0     H 1946   6.260   4.772   3.937  2.9927 -1.9091 -0.7209
  739MOL0     H 1947   6.244   4.949   3.939  1.9033  1.3970 -2.7252
  739MOL0     H 1948   6.454   4.778   3.809  1.6531  0.3600 -0.0077
  739MOL0     H 1949   6.352   4.906   3.750 -1.7577 -0.2457  1.6759
  739MOL0     H 1950   6.604   4.964   3.909  1.6478  1.9158 -1.6712
  739MOL0     H 1951   6.474   5.079   3.875  0.6548  0.5873 -1.3509
  739MOL0     H 1952   6.512   5.029   3.632  1.1490 -3.7632 -1.8853
  739MOL0     H 1953   6.637   4.914   3.680 -1.5718 -0.8891 -2.2207
  739MOL0     H 1954   6.674   5.205   3.770 -0.6963  0.1792 -0.9048
  739MOL0     H 1955   6.792   5.079   3.723 -0.4328 -0.1470 -0.1964
  739MOL0     H 1956   6.618   5.249   3.557  0.2317  1.4153  0.4184
  739MOL0     H 1957   6.709   5.113   3.489  2.3341  2.1134 -2.2038
  739MOL0     H 1958   6.837   5.343   3.646 -1.0302  0.3719  0.2380
  739MOL0     H 1959   6.793   5.350   3.480 -4.0558 -2.5486 -0.2796
  739MOL0     H 1960   6.938   5.156   3.434 -1.9887  2.0106 -0.7505
  739MOL0     H 1961   6.996   5.132   3.591  0.8062  1.1789 -0.0390
  739MOL0     H 1962   6.439   4.701   4.243 -0.5244 -0.5218  0.7962
  739MOL0     H 1963   6.377   4.666   4.476 -0.0720  0.7145 -0.9502
  739MOL0     H 1964   6.013   4.852   4.814  4.2595 -1.4362  2.8219
  739MOL0     H 1965   5.889   4.806   5.019  1.1701  0.6867 -1.1319
  739MOL0     H 1966   4.641   5.275   5.832  0.5401  0.5941 -0.3005
  739MOL0     H 1967   4.413   5.326   5.764  3.4283  1.1330 -0.5166
  739MOL0     H 1968   4.047   5.172   5.529 -1.7813 -3.2062 -1.2366
  739MOL0     H 1969   3.847   5.249   5.446 -0.4371  1.0974  0.9245
  739MOL0     H 1970   3.540   5.513   5.527  0.7743 -0.2651 -0.6638
  739MOL0     H 1971   3.558   5.479   5.708 -0.1833 -1.9048 -0.3186
  739MOL0     H 1972   3.754   5.575   5.718 -1.6292 -2.2249  0.8104
  739MOL0     H 1973   3.654   5.679   5.635 -2.4635 -1.8059  0.7476
  739MOL0     H 1974   3.854   5.698   5.510 -0.5036 -0.0652  1.0849
  739MOL0     H 1975   3.886   5.528   5.511  0.7479  0.6311 -1.2890
  739MOL0     H 1976   3.657   5.520   5.365 -0.2394  0.5354 -0.3239
  739MOL0     H 1977   3.810   5.558   5.283  1.7662  2.1148  0.2760
  739MOL0     H 1978   3.559   5.904   5.266  0.6792 -0.2895  0.9967
  739MOL0     H 1979   3.697   5.324   5.846  0.2843 -1.7121  1.4391
  739MOL0     H 1980   3.947   5.321   6.036  0.7093 -1.8717  2.4988
  739MOL0     H 1981   3.793   5.241   6.007 -0.1643 -0.2908 -1.7408
  739MOL0     H 1982   3.963   5.160   6.014  2.1323  1.7611 -1.3962
  740MOL0     O 1983  11.390   6.260   5.683  0.1766 -0.0267 -0.5537
  740MOL0     C 1984  11.345   6.353   5.614  0.0269  0.0638 -0.1051
  740MOL0     O 1985  11.394   6.476   5.608  0.2733 -0.0977  0.0806
  740MOL0     C 1986  11.523   6.503   5.667 -0.4357  0.3141 -0.5597
  740MOL0     C 1987  11.564   6.475   5.797 -0.0572  0.2994 -0.2993
  740MOL0     C 1988  11.695   6.495   5.843 -0.5543  0.4662  0.4782
  740MOL0     C 1989  11.799   6.550   5.756  0.4264  0.7786 -0.2198
  740MOL0     O 1990  11.922   6.581   5.790 -0.9205 -1.2400 -0.5239
  740MOL0     C 1991  11.983   6.569   5.923 -0.8356 -0.4706  0.0282
  740MOL0     C 1992  11.977   6.702   5.999  0.4402  0.0350 -0.2827
  740MOL0     C 1993  12.063   6.694   6.127 -0.3704  0.2289 -0.3711
  740MOL0     C 1994  11.988   6.645   6.251 -0.4035  0.1216 -0.3651
  740MOL0     C 1995  12.086   6.566   6.355  0.2809  0.0940  0.3236
  740MOL0     C 1996  12.217   6.646   6.379 -0.2241 -0.1104 -0.1850
  740MOL0     C 1997  12.201   6.780   6.447  0.1867  0.2006  0.2864
  740MOL0     C 1998  12.190   6.772   6.591 -0.3314  0.8183  0.0607
  740MOL0     N 1999  12.184   6.905   6.633  0.0199 -0.1149 -0.1245
  740MOL0     C 2000  12.073   6.992   6.620 -0.2710  0.0634 -0.0148
  740MOL0     C 2001  12.094   7.108   6.683 -0.9034 -0.3261  0.0952
  740MOL0     C 2002  12.003   7.221   6.703 -0.3682  0.3013 -0.1312
  740MOL0     C 2003  11.974   7.272   6.850  0.4940  0.6395 -0.8273
  740MOL0     C 2004  11.917   7.414   6.873  0.5027 -0.2295 -0.3856
  740MOL0     C 2005  11.777   7.418   6.808 -0.2700 -0.0754  0.4244
  740MOL0     O 2006  11.702   7.528   6.861 -0.3167 -0.4890  0.3369
  740MOL0     C 2007  11.567   7.518   6.833 -0.1345  0.3572  0.5470
  740MOL0     C 2008  11.525   7.642   6.795 -0.3086 -0.2580 -0.3818
  740MOL0     C 2009  11.394   7.669   6.749  0.4287  0.1068  0.5911
  740MOL0     C 2010  11.365   7.812   6.697  0.0456  0.1657 -0.1795
  740MOL0     C 2011  11.304   7.564   6.748 -0.2182 -0.2323  0.6315
  740MOL0     C 2012  11.168   7.582   6.714 -0.1439  0.7402  0.9303
  740MOL0     O 2013  11.101   7.696   6.751 -0.7811 -0.2380  0.3942
  740MOL0     C 2014  10.968   7.683   6.746 -0.2969  0.4678 -0.7615
  740MOL0     C 2015  10.890   7.726   6.638 -0.0259 -0.8426  0.8310
  740MOL0     C 2016  10.746   7.715   6.645 -0.3305 -0.0120  1.0275
  740MOL0     C 2017  10.685   7.675   6.769  0.2471 -0.5182  0.3985
  740MOL0     O 2018  10.548   7.671   6.785  0.7207  0.1677 -0.6180
  740MOL0     C 2019  10.455   7.676   6.668 -0.0152  0.1978  0.3157
  740MOL0     C 2020  10.311   7.662   6.723 -0.5592 -0.7081 -0.2945
  740MOL0     C 2021  10.213   7.632   6.612  0.2309  1.3278  0.1152
  740MOL0     C 2022  10.081   7.586   6.667  0.6185 -0.6135 -0.7030
  740MOL0     C 2023   9.985   7.534   6.559  0.6913  0.0873 -0.9052
  740MOL0     C 2024   9.887   7.637   6.513 -0.2339 -0.6688  0.1423
  740MOL0     C 2025   9.773   7.587   6.428 -0.1839 -0.0211 -0.1482
  740MOL0     C 2026   9.820   7.508   6.304  0.1240 -0.2967 -0.3064
  740MOL0    Cl 2027   9.692   7.493   6.182 -0.2589 -0.0615  0.4973
  740MOL0     C 2028  10.768   7.647   6.877  0.4639  0.4539  0.0887
  740MOL0     C 2029  10.907   7.642   6.871  0.4528 -0.5784  0.5780
  740MOL0     O 2030  11.116   7.482   6.656  0.2365  0.3050 -0.3107
  740MOL0     C 2031  11.351   7.430   6.774  0.3619 -0.3314 -0.0323
  740MOL0     C 2032  11.485   7.406   6.811 -0.2543  0.5841  0.5286
  740MOL0     N 2033  12.217   7.095   6.734  0.1536  0.4023  0.3216
  740MOL0     N 2034  12.279   6.985   6.698  0.5426  0.0269 -0.0577
  740MOL0     C 2035  11.752   6.587   5.631 -0.1820 -0.5197 -0.1414
  740MOL0     C 2036  11.618   6.570   5.587  0.3234  0.4687  0.1205
  740MOL0     C 2037  11.216   6.332   5.538  1.2014 -0.2321  0.2663
  740MOL0     C 2038  11.138   6.445   5.502 -0.0226 -0.2600 -0.4321
  740MOL0     C 2039  11.007   6.426   5.446  0.0050  0.3772 -1.2924
  740MOL0     C 2040  10.955   6.293   5.428  0.4814 -0.0741  0.4808
  740MOL0     O 2041  10.826   6.290   5.378  0.5420 -0.8722  0.3811
  740MOL0     C 2042  10.776   6.173   5.319 -0.2542 -0.2714 -0.0729
  740MOL0     C 2043  10.864   6.135   5.202  0.1021  0.7900 -0.6392
  740MOL0     C 2044  10.875   6.243   5.101 -0.6830  0.6493 -0.6896
  740MOL0     C 2045  10.751   6.284   5.019  0.1792  0.1048 -0.0047
  740MOL0     C 2046  10.778   6.369   4.902 -0.1176 -0.7751 -1.1712
  740MOL0     C 2047  10.792   6.441   4.804  0.4324 -0.3480 -0.6869
  740MOL0     C 2048  11.028   6.191   5.470 -0.8222 -0.6560  0.6000
  740MOL0     C 2049  11.159   6.201   5.514  0.4090  1.3687 -1.0721
  740MOL0     C 2050  11.223   6.064   5.544  0.9864  0.5949 -0.0479
  740MOL0     H 2051  11.496   6.427   5.867  0.3095  1.9732  1.2846
  740MOL0     H 2052  11.721   6.469   5.945  0.4529  0.0001  0.1188
  740MOL0     H 2053  12.090   6.555   5.905 -0.1962 -0.6821  3.3774
  740MOL0     H 2054  11.956   6.475   5.971 -3.0294 -1.2007 -2.4379
  740MOL0     H 2055  12.012   6.782   5.934  0.0597  0.5936  0.1824
  740MOL0     H 2056  11.877   6.735   6.031  0.6518 -0.1903  0.6403
  740MOL0     H 2057  12.140   6.623   6.096  1.2380  2.0690 -0.8385
  740MOL0     H 2058  12.126   6.783   6.138 -1.0207  0.7472 -0.7609
  740MOL0     H 2059  11.927   6.727   6.290  3.0821  4.1553 -2.5034
  740MOL0     H 2060  11.912   6.577   6.213 -0.4058  0.0654 -0.2617
  740MOL0     H 2061  12.118   6.475   6.304 -2.7319 -1.9333  1.7406
  740MOL0     H 2062  12.034   6.543   6.449  2.4561 -1.6348  1.1796
  740MOL0     H 2063  12.283   6.583   6.438  0.2368  0.0109 -0.5609
  740MOL0     H 2064  12.268   6.652   6.283 -2.8566 -0.0889 -1.6965
  740MOL0     H 2065  12.116   6.830   6.400 -1.5424 -3.5736 -0.9747
  740MOL0     H 2066  12.291   6.840   6.428 -0.4704  1.5612  1.3682
  740MOL0     H 2067  12.108   6.712   6.632  0.4052  1.1517  2.1417
  740MOL0     H 2068  12.284   6.723   6.616 -0.0685  0.6534 -1.2128
  740MOL0     H 2069  11.990   6.958   6.560  0.7265 -0.6763 -1.0375
  740MOL0     H 2070  11.912   7.205   6.644 -0.7850 -1.2308  0.8759
  740MOL0     H 2071  12.050   7.307   6.653 -0.4447 -0.3024 -1.2862
  740MOL0     H 2072  11.906   7.200   6.898  0.4441  1.7918  0.9112
  740MOL0     H 2073  12.065   7.263   6.911 -0.6362 -3.1560  0.6393
  740MOL0     H 2074  11.916   7.433   6.981 -0.4809  1.2009 -0.6235
  740MOL0     H 2075  11.985   7.491   6.836  0.1435 -0.4911 -1.6379
  740MOL0     H 2076  11.790   7.438   6.701 -2.3232  2.9443  0.6264
  740MOL0     H 2077  11.721   7.324   6.811  0.5086 -0.5713  0.0480
  740MOL0     H 2078  11.602   7.718   6.806  0.9112 -1.8007  3.6026
  740MOL0     H 2079  11.459   7.867   6.689  2.0380 -2.9636  0.0461
  740MOL0     H 2080  11.302   7.865   6.768  1.9893 -0.2664  1.9821
  740MOL0     H 2081  11.331   7.805   6.593  0.2598 -0.9797 -0.1875
  740MOL0     H 2082  10.957   7.759   6.560 -0.9853  0.1706  0.4094
  740MOL0     H 2083  10.690   7.744   6.556  1.2317 -0.4570 -0.1385
  740MOL0     H 2084  10.474   7.763   6.605 -2.3554 -0.6625 -1.7526
  740MOL0     H 2085  10.481   7.582   6.617  0.2816 -1.3264  3.0588
  740MOL0     H 2086  10.304   7.586   6.801 -0.6188 -0.9778 -0.5584
  740MOL0     H 2087  10.288   7.763   6.757 -0.1819 -1.0922  1.1636
  740MOL0     H 2088  10.258   7.552   6.553  2.1411  1.8173  0.8067
  740MOL0     H 2089  10.181   7.716   6.549 -3.0046  0.5498  0.5396
  740MOL0     H 2090  10.034   7.659   6.733  1.2728  1.0100 -1.9690
  740MOL0     H 2091  10.115   7.503   6.730 -1.0266 -0.3164  0.6415
  740MOL0     H 2092  10.047   7.492   6.479 -0.1625 -1.2241 -0.8945
  740MOL0     H 2093   9.924   7.455   6.604  0.4941  1.2991  1.1035
  740MOL0     H 2094   9.939   7.713   6.453 -1.4806  0.2530  0.1966
  740MOL0     H 2095   9.841   7.699   6.590 -0.6337  1.7759 -1.9428
  740MOL0     H 2096   9.710   7.672   6.400  1.6620  1.8791  1.2050
  740MOL0     H 2097   9.698   7.524   6.478 -0.5180  0.7762  0.3644
  740MOL0     H 2098   9.861   7.411   6.336 -1.6841 -1.2439 -0.7344
  740MOL0     H 2099   9.900   7.568   6.258  1.6710 -2.8967 -1.2261
  740MOL0     H 2100  10.708   7.636   6.967 -1.5908  0.3768 -1.2467
  740MOL0     H 2101  10.975   7.617   6.951 -1.5592 -1.4829  2.0861
  740MOL0     H 2102  11.283   7.347   6.758 -0.6580  0.8689 -2.5096
  740MOL0     H 2103  11.514   7.303   6.833  1.9263  1.5397  2.6444
  740MOL0     H 2104  11.818   6.632   5.558  0.4114 -0.9222  0.1357
  740MOL0     H 2105  11.579   6.605   5.492 -0.5070  1.0410  0.6611
  740MOL0     H 2106  11.179   6.545   5.505  1.0343 -0.5651 -2.6551
  740MOL0     H 2107  10.955   6.518   5.424  0.3835  1.0708  0.5165
  740MOL0     H 2108  10.773   6.092   5.393  0.2800 -0.1342  0.1072
  740MOL0     H 2109  10.673   6.195   5.290 -0.3671  0.6030  0.9401
  740MOL0     H 2110  10.832   6.045   5.150 -0.8406  2.1222 -2.5112
  740MOL0     H 2111  10.964   6.107   5.235  0.0094  1.3337  0.1215
  740MOL0     H 2112  10.910   6.334   5.151 -1.4006  0.1019  0.8581
  740MOL0     H 2113  10.953   6.211   5.031  0.8457 -0.1141  1.2658
  740MOL0     H 2114  10.685   6.347   5.080  1.0403  2.3994 -1.3371
  740MOL0     H 2115  10.699   6.194   4.985 -0.9468 -0.0045  1.8270
  740MOL0     H 2116  10.796   6.518   4.729  2.7313  1.6329  1.2840
  740MOL0     H 2117  10.995   6.087   5.466  1.0443 -1.2590 -0.1307
  740MOL0     H 2118  11.271   6.028   5.453 -1.5979  1.0496 -1.7181
  740MOL0     H 2119  11.287   6.058   5.632 -0.2467  4.8794  1.3926
  740MOL0     H 2120  11.141   5.998   5.573  1.2075 -0.9580 -2.6722
  741MOL0     O 2121   9.307   6.836   7.280 -0.2476  0.4422 -0.1261
  741MOL0     C 2122   9.264   6.797   7.170 -0.5299  0.3258 -0.2342
  741MOL0     O 2123   9.172   6.866   7.097 -0.9142 -0.0284 -0.0730
  741MOL0     C 2124   9.068   6.945   7.144  0.2054  0.1436  0.2803
  741MOL0     C 2125   8.989   7.009   7.046  0.1405  0.6802 -0.7243
  741MOL0     C 2126   8.870   7.063   7.067 -0.7365 -0.1804 -0.5109
  741MOL0     C 2127   8.830   7.076   7.206 -0.0790 -0.1372  0.8065
  741MOL0     O 2128   8.729   7.160   7.252  0.0116 -0.0056 -0.9320
  741MOL0     C 2129   8.652   7.240   7.157 -0.0097  1.2824 -0.2350
  741MOL0     C 2130   8.548   7.161   7.074 -0.5436  1.0326 -0.2913
  741MOL0     C 2131   8.438   7.237   7.009  0.3990 -0.7675 -0.1596
  741MOL0     C 2132   8.328   7.145   6.961 -0.9709 -0.4940  0.1366
  741MOL0     C 2133   8.241   7.191   6.841  0.2042  1.1132  0.2126
  741MOL0     C 2134   8.114   7.094   6.846  0.4509 -0.2590  0.3424
  741MOL0     C 2135   8.019   7.110   6.728 -0.6610  0.3059  0.1752
  741MOL0     C 2136   7.917   7.000   6.719  0.1405  0.0559 -0.4453
  741MOL0     N 2137   7.970   6.865   6.686  0.3871 -0.1043  0.4608
  741MOL0     C 2138   7.973   6.819   6.559  0.3421  0.1221 -0.2073
  741MOL0     C 2139   7.994   6.684   6.584 -0.7968 -0.5819  0.4060
  741MOL0     C 2140   7.996   6.579   6.473  0.5513  0.3623 -0.7756
  741MOL0     C 2141   8.122   6.579   6.381  0.1908  0.0960  0.0374
  741MOL0     C 2142   8.097   6.495   6.252 -0.4154  0.3440  0.1669
  741MOL0     C 2143   8.202   6.508   6.145  0.2179  0.1926  0.8531
  741MOL0     O 2144   8.315   6.442   6.191 -0.5065  0.2233 -0.6831
  741MOL0     C 2145   8.421   6.529   6.241  1.4188  0.3583  1.9469
  741MOL0     C 2146   8.484   6.512   6.363  0.2093  1.2516  0.4639
  741MOL0     C 2147   8.594   6.589   6.415 -0.0462  0.1710 -0.2576
  741MOL0     C 2148   8.633   6.577   6.559  0.5214  0.2057  0.0830
  741MOL0     C 2149   8.649   6.685   6.328  1.0376  0.0507  0.5079
  741MOL0     C 2150   8.751   6.779   6.358 -0.5497 -0.4041 -1.0507
  741MOL0     O 2151   8.731   6.902   6.309  0.9038  0.5121 -0.1621
  741MOL0     C 2152   8.832   6.994   6.298 -0.2528  0.7510 -0.2777
  741MOL0     C 2153   8.974   6.971   6.281  0.3273  0.1270 -0.3210
  741MOL0     C 2154   9.065   7.071   6.278 -0.5696  1.4064 -0.3236
  741MOL0     C 2155   9.024   7.208   6.295  0.2048 -0.7696 -0.1467
  741MOL0     O 2156   9.114   7.315   6.298 -0.9219 -0.2874 -0.0651
  741MOL0     C 2157   9.230   7.291   6.385  0.4809 -0.1564  0.5910
  741MOL0     C 2158   9.363   7.297   6.318 -0.4031  0.8623 -0.0347
  741MOL0     C 2159   9.474   7.249   6.405 -0.2149 -0.2657 -0.3763
  741MOL0     C 2160   9.513   7.116   6.360 -0.2849 -0.4539 -0.3088
  741MOL0     C 2161   9.614   7.044   6.451  0.3825 -0.1989  0.0840
  741MOL0     C 2162   9.755   7.102   6.422  0.3579 -1.1675 -0.5320
  741MOL0     C 2163   9.864   7.025   6.485 -0.2677 -0.8182  1.0714
  741MOL0     C 2164   9.869   7.021   6.640  0.4247  0.8261  0.0528
  741MOL0    Cl 2165   9.884   7.183   6.707 -0.3972  0.1894  0.4265
  741MOL0     C 2166   8.888   7.240   6.293  0.0973  0.2020  1.4202
  741MOL0     C 2167   8.797   7.131   6.303  0.2355  0.0038  0.6782
  741MOL0     O 2168   8.857   6.743   6.427  0.1010  0.6511  0.4826
  741MOL0     C 2169   8.599   6.698   6.194  0.1870 -0.0411  0.2240
  741MOL0     C 2170   8.486   6.621   6.156  0.2744 -0.6584 -0.0879
  741MOL0     N 2171   8.030   6.668   6.712  0.2290 -0.4138 -0.0842
  741MOL0     N 2172   8.020   6.770   6.775 -0.3083 -0.0342  0.5513
  741MOL0     C 2173   8.911   7.024   7.310 -0.6482  0.1684 -0.4385
  741MOL0     C 2174   9.032   6.957   7.282  0.8619  0.1037  0.5106
  741MOL0     C 2175   9.314   6.668   7.104  0.9239  0.4694 -0.4240
  741MOL0     C 2176   9.266   6.633   6.972 -0.0736  0.6999  0.1082
  741MOL0     C 2177   9.311   6.515   6.917 -0.8518 -0.6738 -0.5198
  741MOL0     C 2178   9.402   6.425   6.982  0.1664 -0.0816  0.2757
  741MOL0     O 2179   9.454   6.306   6.921 -0.1638 -0.5976  0.0121
  741MOL0     C 2180   9.447   6.302   6.774 -0.4672 -0.0521  0.0378
  741MOL0     C 2181   9.539   6.196   6.725  0.3399  0.3150  0.3320
  741MOL0     C 2182   9.692   6.225   6.716 -0.3782 -0.8477 -0.6826
  741MOL0     C 2183   9.782   6.139   6.622  0.2779  0.6290 -0.3925
  741MOL0     C 2184   9.786   5.992   6.658  0.2831  0.6033 -0.3507
  741MOL0     C 2185   9.787   5.869   6.666 -1.1739 -0.1787  0.2971
  741MOL0     C 2186   9.443   6.459   7.112  0.5147  0.1583 -0.4832
  741MOL0     C 2187   9.402   6.577   7.173  0.5901  0.4945 -0.7619
  741MOL0     C 2188   9.453   6.593   7.309 -0.4568  0.2418  0.4891
  741MOL0     H 2189   9.031   7.019   6.946 -0.6745  4.3807 -0.8126
  741MOL0     H 2190   8.810   7.119   6.996 -0.4338  1.5853  0.5589
  741MOL0     H 2191   8.711   7.306   7.093 -2.6544  2.5398 -1.5568
  741MOL0     H 2192   8.597   7.312   7.218 -0.6667  0.3950  0.2561
  741MOL0     H 2193   8.593   7.081   7.014  0.6795  0.1063  1.7354
  741MOL0     H 2194   8.516   7.090   7.151  2.1080  0.9030  0.8024
  741MOL0     H 2195   8.403   7.315   7.077 -3.0134 -0.9363 -1.5408
  741MOL0     H 2196   8.478   7.288   6.921 -1.7790 -0.3236 -0.9618
  741MOL0     H 2197   8.373   7.049   6.935 -0.6856 -0.7665  1.5817
  741MOL0     H 2198   8.268   7.127   7.050 -0.8959  1.4447  0.6252
  741MOL0     H 2199   8.269   7.173   6.737 -1.4299 -1.8747  0.1671
  741MOL0     H 2200   8.229   7.298   6.858 -0.8405  1.0604 -0.1110
  741MOL0     H 2201   8.144   6.989   6.844 -3.4415 -1.6350 -4.8255
  741MOL0     H 2202   8.060   7.107   6.941  1.9327  1.9276  0.9811
  741MOL0     H 2203   8.075   7.103   6.635 -1.6076 -1.1287 -0.3284
  741MOL0     H 2204   7.962   7.203   6.737 -1.3051 -0.1108  0.5012
  741MOL0     H 2205   7.873   6.982   6.818  3.2159  0.5813  1.1319
  741MOL0     H 2206   7.843   7.032   6.646 -0.5484 -1.2229 -0.3486
  741MOL0     H 2207   7.963   6.871   6.465 -0.4605  1.4446  0.5900
  741MOL0     H 2208   7.909   6.602   6.412  1.2642  2.4826 -1.0563
  741MOL0     H 2209   7.988   6.482   6.524  3.4975  1.4898  2.1968
  741MOL0     H 2210   8.133   6.683   6.350 -2.0890  0.2012 -0.5542
  741MOL0     H 2211   8.214   6.544   6.428  1.6008  0.8121 -2.0169
  741MOL0     H 2212   8.085   6.387   6.270 -0.7563  0.4588  0.6622
  741MOL0     H 2213   8.015   6.529   6.188 -1.1342 -1.6275 -0.0443
  741MOL0     H 2214   8.175   6.458   6.052  0.8569  2.3100 -0.5581
  741MOL0     H 2215   8.217   6.613   6.118 -3.5415  1.2204  2.0584
  741MOL0     H 2216   8.434   6.446   6.433 -1.7540 -1.2487 -3.0102
  741MOL0     H 2217   8.718   6.509   6.570 -1.4849 -2.5084 -0.1222
  741MOL0     H 2218   8.558   6.519   6.613 -1.1627 -2.9099 -5.0023
  741MOL0     H 2219   8.658   6.672   6.609  1.7939 -1.1986  2.2790
  741MOL0     H 2220   9.009   6.869   6.276 -0.1888 -0.0164 -1.2455
  741MOL0     H 2221   9.169   7.040   6.288 -0.6088  1.5103  0.5154
  741MOL0     H 2222   9.225   7.375   6.456  0.6091  2.1601 -1.9834
  741MOL0     H 2223   9.218   7.200   6.445 -1.1178  2.0079  3.8688
  741MOL0     H 2224   9.356   7.230   6.232 -0.2899  1.0301 -0.1733
  741MOL0     H 2225   9.376   7.394   6.269 -0.1934  0.3401 -1.0378
  741MOL0     H 2226   9.444   7.256   6.510 -1.5845  0.9970 -0.8279
  741MOL0     H 2227   9.559   7.317   6.392 -0.6718  0.6804  1.2858
  741MOL0     H 2228   9.553   7.135   6.260  0.0327 -0.0701 -0.1108
  741MOL0     H 2229   9.423   7.054   6.353 -0.2887 -0.3695 -1.0903
  741MOL0     H 2230   9.600   7.051   6.559 -1.2254  1.7027 -0.2003
  741MOL0     H 2231   9.616   6.939   6.419  3.3882 -0.7102  1.5469
  741MOL0     H 2232   9.759   7.205   6.459  2.3719 -1.9453  1.6361
  741MOL0     H 2233   9.771   7.102   6.313 -2.7771  1.2195 -1.1396
  741MOL0     H 2234   9.955   7.070   6.444 -1.1235 -0.3606 -0.4105
  741MOL0     H 2235   9.857   6.919   6.457  0.8923 -0.7672  0.5222
  741MOL0     H 2236   9.955   6.959   6.663 -0.1236 -0.3116 -0.8494
  741MOL0     H 2237   9.784   6.960   6.672  0.1797  0.1882 -1.6776
  741MOL0     H 2238   8.846   7.339   6.303  0.9211  0.5511  1.5198
  741MOL0     H 2239   8.689   7.145   6.305  0.5062  2.6480  2.3262
  741MOL0     H 2240   8.647   6.760   6.118  3.2597 -0.6580  1.5074
  741MOL0     H 2241   8.456   6.632   6.052 -0.8081  2.2253  0.4404
  741MOL0     H 2242   8.878   7.017   7.413  2.4866 -1.2096  0.5967
  741MOL0     H 2243   9.083   6.915   7.368  1.4697 -1.7538 -0.6889
  741MOL0     H 2244   9.189   6.681   6.912 -0.1198  0.3861 -0.0840
  741MOL0     H 2245   9.272   6.509   6.816  0.5828  0.5073 -1.1862
  741MOL0     H 2246   9.347   6.288   6.733 -1.0302 -0.6795  1.5705
  741MOL0     H 2247   9.477   6.403   6.743 -2.6799  1.6071  2.7692
  741MOL0     H 2248   9.503   6.170   6.625  1.2088  0.9302 -0.1529
  741MOL0     H 2249   9.509   6.105   6.776  1.1426  1.0090  2.1114
  741MOL0     H 2250   9.706   6.322   6.667 -0.4930 -0.8604 -0.7380
  741MOL0     H 2251   9.732   6.207   6.816 -2.0534 -3.2388 -0.3532
  741MOL0     H 2252   9.887   6.169   6.636  0.7489  0.0820 -2.3784
  741MOL0     H 2253   9.750   6.155   6.518 -0.7039  0.6421 -0.0882
  741MOL0     H 2254   9.787   5.761   6.667  2.6119 -0.3432 -1.5969
  741MOL0     H 2255   9.507   6.397   7.174  1.6082  1.1997 -0.5294
  741MOL0     H 2256   9.369   6.579   7.377  0.5055 -0.8500  1.5065
  741MOL0     H 2257   9.533   6.528   7.347  0.0616 -0.6202 -1.8786
  741MOL0     H 2258   9.496   6.693   7.320 -0.1387  0.3534 -1.3909
  742MOL0     O 2259   7.291   9.304   8.813  0.2937  0.2187 -0.7923
  742MOL0     C 2260   7.369   9.242   8.880  1.4340  0.4999  0.1204
  742MOL0     O 2261   7.348   9.207   9.020  0.1759  0.0998  0.4680
  742MOL0     C 2262   7.222   9.219   9.076  0.7085  0.5974 -0.5392
  742MOL0     C 2263   7.215   9.229   9.215  0.0627  0.0579 -0.0560
  742MOL0     C 2264   7.088   9.238   9.277 -0.7876  0.1396  0.0051
  742MOL0     C 2265   6.963   9.235   9.204 -0.8585 -0.0009  0.6560
  742MOL0     O 2266   6.844   9.251   9.266 -0.0182  0.6877 -0.2208
  742MOL0     C 2267   6.747   9.332   9.198 -0.3074  0.5641 -0.5656
  742MOL0     C 2268   6.634   9.348   9.294  0.1471  0.4420 -0.2752
  742MOL0     C 2269   6.554   9.213   9.320 -0.3604 -0.9591 -0.0081
  742MOL0     C 2270   6.422   9.221   9.238  0.1113  0.1176 -1.0885
  742MOL0     C 2271   6.349   9.085   9.238  0.4130  0.1509  0.2125
  742MOL0     C 2272   6.379   9.016   9.108  0.4476  0.0682 -0.4705
  742MOL0     C 2273   6.269   8.910   9.056 -0.1453 -0.2810 -1.2988
  742MOL0     C 2274   6.265   8.793   9.155  0.5858  0.3397  0.3497
  742MOL0     N 2275   6.400   8.730   9.177  0.6517 -0.2172  0.4965
  742MOL0     C 2276   6.465   8.719   9.300  0.0311 -0.1231  0.0257
  742MOL0     C 2277   6.570   8.642   9.269 -0.3373 -0.2436  0.0694
  742MOL0     C 2278   6.662   8.591   9.365  0.5874  0.2736  0.1809
  742MOL0     C 2279   6.795   8.540   9.304 -0.9182 -0.2565 -0.0604
  742MOL0     C 2280   6.887   8.660   9.254 -0.2431  0.6805 -0.1028
  742MOL0     C 2281   6.885   8.797   9.318 -0.1005  0.7292 -0.9754
  742MOL0     O 2282   6.932   8.769   9.453  0.1244  0.0758  0.1692
  742MOL0     C 2283   6.961   8.870   9.548  0.4624  0.3254  0.9370
  742MOL0     C 2284   6.933   9.008   9.531  0.8807 -0.1350 -1.4487
  742MOL0     C 2285   6.968   9.098   9.648 -1.1672 -0.9784 -0.1204
  742MOL0     C 2286   6.907   9.240   9.655  0.2314 -0.3428  0.3461
  742MOL0     C 2287   7.039   9.043   9.761 -0.3880 -0.2461 -0.4365
  742MOL0     C 2288   7.094   9.126   9.878 -0.0868  0.0239  0.3757
  742MOL0     O 2289   7.219   9.088   9.928  0.3922  0.5982 -0.6546
  742MOL0     C 2290   7.258   9.146  10.049 -0.3644 -0.6766 -0.7228
  742MOL0     C 2291   7.344   9.259  10.036  0.5719  0.3354 -0.8389
  742MOL0     C 2292   7.383   9.314  10.152  0.0221 -0.5333 -0.6521
  742MOL0     C 2293   7.354   9.263  10.284  0.9172 -0.7489 -0.6883
  742MOL0     O 2294   7.379   9.323  10.411 -0.2073  0.7548 -0.1132
  742MOL0     C 2295   7.469   9.432  10.425  0.3841 -0.3565  0.3366
  742MOL0     C 2296   7.612   9.383  10.397 -0.2262  0.1988 -0.5834
  742MOL0     C 2297   7.679   9.331  10.519 -0.1239  0.6128 -0.4346
  742MOL0     C 2298   7.830   9.314  10.520 -0.2653 -1.2628 -0.1605
  742MOL0     C 2299   7.878   9.224  10.424  0.2975 -0.3397  1.0637
  742MOL0     C 2300   8.030   9.230  10.432  0.4161  0.0490  0.6517
  742MOL0     C 2301   8.090   9.130  10.336  0.7162  0.3792 -0.3258
  742MOL0     C 2302   8.236   9.112  10.366 -0.4173  0.3422 -0.0573
  742MOL0    Cl 2303   8.325   9.045  10.221 -0.0954 -0.0793 -0.0986
  742MOL0     C 2304   7.271   9.156  10.286  0.4001 -0.4336  0.6490
  742MOL0     C 2305   7.213   9.102  10.173 -0.2330  0.0550  0.8155
  742MOL0     O 2306   7.025   9.228   9.911  0.4365 -0.9932  0.3601
  742MOL0     C 2307   7.080   8.911   9.764 -0.2502  0.3811  0.0673
  742MOL0     C 2308   7.033   8.827   9.653 -0.5782  0.3273 -0.5637
  742MOL0     N 2309   6.547   8.583   9.139  0.5044  0.4486  0.6606
  742MOL0     N 2310   6.447   8.643   9.082 -0.6425 -0.6013 -0.8738
  742MOL0     C 2311   6.982   9.205   9.065 -0.0349 -0.3210 -0.0522
  742MOL0     C 2312   7.102   9.201   9.002 -0.3474 -0.5330  1.0279
  742MOL0     C 2313   7.489   9.183   8.824  0.2893 -0.4206 -1.0667
  742MOL0     C 2314   7.482   9.148   8.687  0.1320  0.8750 -1.1908
  742MOL0     C 2315   7.591   9.091   8.625 -0.3966 -0.1517  0.2872
  742MOL0     C 2316   7.707   9.064   8.693 -0.3488  0.0917 -0.0605
  742MOL0     O 2317   7.815   9.037   8.619 -0.2617  0.0605 -0.3462
  742MOL0     C 2318   7.896   9.145   8.578 -0.5694 -1.2910 -0.0236
  742MOL0     C 2319   8.028   9.130   8.648 -0.7109 -0.5114 -0.9328
  742MOL0     C 2320   8.135   9.227   8.608  0.0868 -0.3248  0.2932
  742MOL0     C 2321   8.120   9.372   8.676 -0.1170 -0.0283  0.2458
  742MOL0     C 2322   8.187   9.476   8.607 -0.6957 -0.9674 -0.0291
  742MOL0     C 2323   8.237   9.568   8.544 -0.1698  0.3147 -0.4529
  742MOL0     C 2324   7.716   9.098   8.830 -0.2684 -0.4937 -0.4485
  742MOL0     C 2325   7.604   9.162   8.897  0.5985  0.0416  0.0873
  742MOL0     C 2326   7.625   9.226   9.036  0.0007  0.0039  0.0451
  742MOL0     H 2327   7.309   9.239   9.268 -0.7785  1.3277  1.2956
  742MOL0     H 2328   7.072   9.263   9.381 -0.8230 -1.3584  0.3701
  742MOL0     H 2329   6.724   9.270   9.110 -0.6151  1.2161 -0.9524
  742MOL0     H 2330   6.790   9.428   9.169  1.6168  0.3690  1.3582
  742MOL0     H 2331   6.676   9.405   9.378 -0.2087  3.2533 -1.8489
  742MOL0     H 2332   6.552   9.412   9.259 -2.0771 -1.7934  0.5393
  742MOL0     H 2333   6.618   9.134   9.280  0.8439  0.9691 -2.0586
  742MOL0     H 2334   6.533   9.200   9.427 -0.7035  3.0145  0.5726
  742MOL0     H 2335   6.350   9.272   9.303  1.9304 -0.7685  1.7947
  742MOL0     H 2336   6.435   9.260   9.137  0.4604 -0.6252 -1.3367
  742MOL0     H 2337   6.242   9.103   9.252  0.2299  0.0720 -1.0459
  742MOL0     H 2338   6.396   9.027   9.319 -0.4985 -2.3232 -0.9181
  742MOL0     H 2339   6.388   9.092   9.031  3.3892  0.8961  0.5590
  742MOL0     H 2340   6.483   8.981   9.115  0.5574  0.4805  0.0350
  742MOL0     H 2341   6.309   8.877   8.960  0.9365 -2.3409 -0.2187
  742MOL0     H 2342   6.169   8.954   9.055  0.6739  2.1028  1.9967
  742MOL0     H 2343   6.194   8.798   9.238 -3.2825  0.0295 -2.6498
  742MOL0     H 2344   6.214   8.712   9.103  2.0553 -0.2591 -0.2255
  742MOL0     H 2345   6.440   8.760   9.397  1.4761 -2.6430  1.5820
  742MOL0     H 2346   6.611   8.505   9.411 -1.4197  0.6227 -1.2364
  742MOL0     H 2347   6.675   8.661   9.447  0.1412 -1.0898  1.4664
  742MOL0     H 2348   6.835   8.483   9.388  0.5056 -1.9550 -1.7864
  742MOL0     H 2349   6.785   8.464   9.225  0.4008  0.0357 -0.5410
  742MOL0     H 2350   6.992   8.633   9.242 -0.7276 -0.2668 -2.9224
  742MOL0     H 2351   6.862   8.672   9.149  1.3914 -1.4115 -0.7999
  742MOL0     H 2352   6.945   8.873   9.267 -1.4213  0.7681 -2.5471
  742MOL0     H 2353   6.778   8.822   9.322 -0.3377 -0.1882 -1.3502
  742MOL0     H 2354   6.876   9.048   9.448  0.1943  1.6776 -0.1727
  742MOL0     H 2355   6.865   9.260   9.556 -1.2894 -2.4596  0.4816
  742MOL0     H 2356   6.992   9.307   9.671  0.6048 -0.7567  0.1394
  742MOL0     H 2357   6.835   9.254   9.736 -0.5490  0.6268 -0.4816
  742MOL0     H 2358   7.375   9.295   9.939  0.5738  0.7795 -0.6734
  742MOL0     H 2359   7.444   9.404  10.144 -0.9771  0.5138  2.2091
  742MOL0     H 2360   7.446   9.515  10.357 -1.1327  1.5229  2.9546
  742MOL0     H 2361   7.459   9.472  10.527  0.8204  3.1693 -0.8678
  742MOL0     H 2362   7.626   9.317  10.311  0.7824 -2.6778  1.6090
  742MOL0     H 2363   7.677   9.464  10.364  0.7750 -0.8478 -1.2476
  742MOL0     H 2364   7.642   9.230  10.540 -1.8843  0.7530 -2.4718
  742MOL0     H 2365   7.660   9.385  10.612  1.6566  0.1915  0.2208
  742MOL0     H 2366   7.862   9.262  10.611 -0.2177  0.3645  0.8001
  742MOL0     H 2367   7.869   9.416  10.514 -2.5890 -0.3464 -1.0655
  742MOL0     H 2368   7.834   9.126  10.446  1.4055 -1.1646 -0.1924
  742MOL0     H 2369   7.854   9.247  10.320  0.2420 -0.6222  1.0126
  742MOL0     H 2370   8.066   9.212  10.534  4.0968  1.7547 -0.1632
  742MOL0     H 2371   8.064   9.329  10.401 -1.2498  0.2244 -0.8077
  742MOL0     H 2372   8.073   9.161  10.232 -1.3554 -1.5911 -0.6475
  742MOL0     H 2373   8.048   9.030  10.347  1.6162 -0.2036 -1.8280
  742MOL0     H 2374   8.249   9.048  10.453 -1.2912 -0.9328 -0.8366
  742MOL0     H 2375   8.287   9.199  10.408 -1.8560  0.3762  1.7302
  742MOL0     H 2376   7.242   9.107  10.379  0.5517 -0.9749  0.4135
  742MOL0     H 2377   7.148   9.015  10.170  0.6500 -0.6200  0.7802
  742MOL0     H 2378   7.142   8.864   9.839  0.0971  1.3723  0.4152
  742MOL0     H 2379   7.066   8.724   9.655 -2.7364 -0.3981 -0.5176
  742MOL0     H 2380   6.905   9.177   8.994 -1.6173  0.5092  1.2517
  742MOL0     H 2381   7.100   9.178   8.896 -0.4366  0.7616  0.7373
  742MOL0     H 2382   7.394   9.169   8.626  0.2857 -0.0148 -1.7307
  742MOL0     H 2383   7.584   9.074   8.518 -1.3741 -3.9957  0.8311
  742MOL0     H 2384   7.902   9.144   8.469  1.3391  0.5022  0.0021
  742MOL0     H 2385   7.853   9.238   8.615 -1.1184  0.4017 -4.2989
  742MOL0     H 2386   8.053   9.026   8.623 -1.7381 -0.5581 -1.8245
  742MOL0     H 2387   8.004   9.134   8.755 -0.5389 -2.6936 -0.7625
  742MOL0     H 2388   8.234   9.183   8.626  0.2848 -0.5850 -1.2779
  742MOL0     H 2389   8.117   9.238   8.501  1.3447  0.2764  0.1183
  742MOL0     H 2390   8.149   9.384   8.781 -1.7884  1.2072  0.5972
  742MOL0     H 2391   8.017   9.406   8.684  0.6225  1.8872  2.7376
  742MOL0     H 2392   8.269   9.646   8.479 -1.2879  2.8566  1.8824
  742MOL0     H 2393   7.811   9.086   8.880  0.6895  2.0033 -1.4852
  742MOL0     H 2394   7.588   9.152   9.107  2.1790  0.3864  1.7176
  742MOL0     H 2395   7.730   9.242   9.064  0.4131 -1.5231 -0.5341
  742MOL0     H 2396   7.573   9.322   9.043 -1.2305 -0.5124 -1.4578
  743MOL0     O 2397   8.782   4.261   8.400  0.1635  0.5619  0.9805
  743MOL0     C 2398   8.871   4.184   8.438 -0.1561 -0.0207  0.6633
  743MOL0     O 2399   8.990   4.177   8.381 -0.8873 -0.0112 -0.1320
  743MOL0     C 2400   9.015   4.271   8.280  0.1280  0.0238 -0.6369
  743MOL0     C 2401   9.083   4.387   8.308 -0.4840 -0.1677  0.1147
  743MOL0     C 2402   9.121   4.476   8.204  0.2767 -0.6656  0.5000
  743MOL0     C 2403   9.089   4.448   8.071 -1.5047  0.4803 -0.4856
  743MOL0     O 2404   9.130   4.529   7.969 -0.3454  0.0796  0.3089
  743MOL0     C 2405   9.033   4.568   7.869 -0.2667 -0.4520 -0.4624
  743MOL0     C 2406   9.096   4.690   7.806 -1.1066  0.2698 -0.5766
  743MOL0     C 2407   8.993   4.760   7.715  1.0336  0.3617 -0.0140
  743MOL0     C 2408   9.051   4.875   7.630 -0.5236 -0.0399 -0.1245
  743MOL0     C 2409   8.941   4.962   7.570  0.3259 -0.0764  0.7030
  743MOL0     C 2410   8.872   4.896   7.454 -0.2399 -0.5439  0.2670
  743MOL0     C 2411   8.947   4.897   7.319 -0.3535 -0.8329 -0.3829
  743MOL0     C 2412   8.883   4.808   7.212  0.2985  0.8962 -0.1125
  743MOL0     N 2413   8.758   4.864   7.152 -0.3641  0.0577  0.7676
  743MOL0     C 2414   8.750   4.988   7.098 -0.0268  0.2263 -0.7414
  743MOL0     C 2415   8.612   5.012   7.095 -0.3530 -0.5621 -0.5001
  743MOL0     C 2416   8.540   5.138   7.046  0.3383  0.1129 -0.2223
  743MOL0     C 2417   8.545   5.165   6.894  0.2373  0.3055  0.4661
  743MOL0     C 2418   8.492   5.054   6.803  0.3160 -0.1328  1.1812
  743MOL0     C 2419   8.349   4.998   6.808 -0.0607 -0.8788 -0.4238
  743MOL0     O 2420   8.341   4.912   6.694  0.1941  0.1920  0.1586
  743MOL0     C 2421   8.405   4.794   6.697  0.1428  0.9300  0.0060
  743MOL0     C 2422   8.467   4.766   6.577 -0.4527 -0.0617  0.2841
  743MOL0     C 2423   8.530   4.644   6.555 -0.5114 -0.2787  0.1338
  743MOL0     C 2424   8.577   4.589   6.421  0.2887  1.0160  0.7631
  743MOL0     C 2425   8.532   4.547   6.662  0.0965 -0.8284  0.2187
  743MOL0     C 2426   8.573   4.407   6.652 -0.4006  0.0186 -0.1432
  743MOL0     O 2427   8.690   4.384   6.587  0.4874 -0.6999  0.7677
  743MOL0     C 2428   8.753   4.265   6.599 -0.3249 -0.3608 -0.2499
  743MOL0     C 2429   8.734   4.164   6.690  0.3667 -0.5720  0.1938
  743MOL0     C 2430   8.816   4.057   6.688  0.1342 -0.4780  0.7100
  743MOL0     C 2431   8.917   4.039   6.581  0.5147 -0.6812  0.0342
  743MOL0     O 2432   9.000   3.934   6.563 -0.2668  0.0627  0.9852
  743MOL0     C 2433   8.952   3.812   6.627  0.3181  0.5933  0.4533
  743MOL0     C 2434   9.033   3.687   6.567  0.1355  0.1215  0.9714
  743MOL0     C 2435   9.086   3.701   6.426  0.2428  0.0861 -0.3030
  743MOL0     C 2436   9.150   3.571   6.383  0.3944 -0.0105 -0.1645
  743MOL0     C 2437   9.237   3.563   6.258 -0.0605 -0.2829  0.0838
  743MOL0     C 2438   9.312   3.425   6.236  0.2750  0.8895  0.6138
  743MOL0     C 2439   9.413   3.429   6.119 -0.3848  0.0344 -0.4641
  743MOL0     C 2440   9.423   3.284   6.063  0.0773  0.3882  0.0385
  743MOL0    Cl 2441   9.482   3.296   5.893 -0.2065 -0.1406  0.4699
  743MOL0     C 2442   8.936   4.144   6.490  0.0719 -0.1589  0.0007
  743MOL0     C 2443   8.852   4.253   6.506 -0.3507  0.1650  0.3701
  743MOL0     O 2444   8.499   4.322   6.701  0.0534  0.1808  0.2197
  743MOL0     C 2445   8.483   4.587   6.784  0.4295 -0.5079  0.0165
  743MOL0     C 2446   8.409   4.703   6.802 -0.5521  0.1598  0.5283
  743MOL0     N 2447   8.542   4.906   7.140 -0.3173  0.4278  0.2225
  743MOL0     N 2448   8.632   4.817   7.171 -0.0571  0.5957 -0.1930
  743MOL0     C 2449   9.029   4.330   8.045 -1.1366  0.7507  0.0295
  743MOL0     C 2450   8.987   4.243   8.152  0.2067 -0.2044 -0.2948
  743MOL0     C 2451   8.844   4.097   8.553 -0.9312 -0.0050 -0.2941
  743MOL0     C 2452   8.719   4.106   8.619 -0.4460 -0.7470  1.1435
  743MOL0     C 2453   8.676   4.016   8.719 -0.2807 -0.7897  0.1986
  743MOL0     C 2454   8.772   3.923   8.761  0.1787  0.1705  0.2228
  743MOL0     O 2455   8.719   3.834   8.852  0.7244 -0.9445  0.5205
  743MOL0     C 2456   8.798   3.800   8.961 -0.8243  0.3667 -0.6107
  743MOL0     C 2457   8.750   3.664   9.017  0.3497 -0.0559 -0.5495
  743MOL0     C 2458   8.831   3.624   9.143  0.0481 -1.1702 -0.4324
  743MOL0     C 2459   8.795   3.480   9.189  0.0914  0.9660 -0.1810
  743MOL0     C 2460   8.677   3.483   9.276 -0.2381 -0.3225  0.7637
  743MOL0     C 2461   8.598   3.482   9.368 -0.1110  0.0166 -0.1799
  743MOL0     C 2462   8.893   3.905   8.703 -0.7533 -0.0460  0.5397
  743MOL0     C 2463   8.933   3.992   8.596 -0.6731 -0.1252 -0.9755
  743MOL0     C 2464   9.073   3.963   8.534 -0.6182  0.8815 -0.0852
  743MOL0     H 2465   9.121   4.391   8.410  0.5389 -5.2324  0.1717
  743MOL0     H 2466   9.180   4.563   8.231 -3.3414  1.2716  2.9601
  743MOL0     H 2467   8.949   4.595   7.933  2.0161 -2.0606  3.6062
  743MOL0     H 2468   9.001   4.488   7.802 -2.4508 -0.1327  0.1288
  743MOL0     H 2469   9.121   4.757   7.889  0.8145 -0.4491 -0.5460
  743MOL0     H 2470   9.187   4.671   7.749 -0.6608  4.4286 -1.5609
  743MOL0     H 2471   8.946   4.681   7.655  1.1429  1.4656 -1.6089
  743MOL0     H 2472   8.909   4.796   7.776  0.1900 -1.6097  0.0771
  743MOL0     H 2473   9.105   4.942   7.697  0.4932  0.7916 -1.7144
  743MOL0     H 2474   9.123   4.828   7.562  0.7476 -2.3335  2.5741
  743MOL0     H 2475   8.984   5.051   7.523  2.9357 -2.2866 -1.4335
  743MOL0     H 2476   8.864   4.981   7.646 -0.1717  1.8353 -0.2006
  743MOL0     H 2477   8.850   4.789   7.466  2.8420 -1.2796  0.0682
  743MOL0     H 2478   8.778   4.950   7.439 -1.0189 -1.8558  0.3113
  743MOL0     H 2479   9.045   4.851   7.328  0.1315  0.4843  1.7219
  743MOL0     H 2480   8.969   4.999   7.287  4.2404 -1.8469 -1.1256
  743MOL0     H 2481   8.958   4.786   7.135  2.9465 -0.9053  2.7768
  743MOL0     H 2482   8.863   4.710   7.255  1.7952  1.1974  1.3745
  743MOL0     H 2483   8.826   5.054   7.058 -0.3403  0.9050 -0.2305
  743MOL0     H 2484   8.591   5.218   7.100  1.6952 -0.8133 -0.0934
  743MOL0     H 2485   8.434   5.122   7.067  0.2718 -4.2673 -2.5818
  743MOL0     H 2486   8.477   5.250   6.885 -0.4962 -0.2581  0.5466
  743MOL0     H 2487   8.650   5.190   6.873  1.0058  0.0437  3.5792
  743MOL0     H 2488   8.502   5.083   6.698 -0.2410 -3.2700  0.1636
  743MOL0     H 2489   8.543   4.960   6.826 -0.3926 -0.4355  1.5367
  743MOL0     H 2490   8.321   4.956   6.905  0.0916  0.3813  0.1921
  743MOL0     H 2491   8.284   5.084   6.788  1.2124 -0.1605 -1.6763
  743MOL0     H 2492   8.473   4.846   6.504 -1.5086 -0.2581 -0.0391
  743MOL0     H 2493   8.557   4.669   6.349 -2.5620  0.7161  1.1005
  743MOL0     H 2494   8.526   4.500   6.383  1.1720  1.3637 -1.3627
  743MOL0     H 2495   8.685   4.569   6.427  0.0924 -0.5862 -0.3453
  743MOL0     H 2496   8.663   4.166   6.772 -0.0013  2.2935 -0.1084
  743MOL0     H 2497   8.812   3.999   6.780  0.0912 -0.2296  0.8646
  743MOL0     H 2498   8.966   3.818   6.735  0.5689  0.1486  0.4461
  743MOL0     H 2499   8.853   3.784   6.590  0.7088  0.2545 -0.3595
  743MOL0     H 2500   9.125   3.686   6.627  1.7140 -0.7628 -1.3304
  743MOL0     H 2501   8.974   3.595   6.574 -4.1768  2.5069 -0.7088
  743MOL0     H 2502   9.166   3.775   6.417  0.6995 -0.4446 -0.6772
  743MOL0     H 2503   8.997   3.733   6.372 -1.4823 -0.9697  1.7708
  743MOL0     H 2504   9.077   3.490   6.379  2.9904 -2.5597  1.1504
  743MOL0     H 2505   9.213   3.545   6.468 -2.3748  1.8079  2.6576
  743MOL0     H 2506   9.165   3.578   6.177  4.1971 -1.3347 -4.3545
  743MOL0     H 2507   9.313   3.641   6.268  3.0048 -3.3010  2.8896
  743MOL0     H 2508   9.239   3.347   6.211  2.6820 -1.3902  0.2753
  743MOL0     H 2509   9.371   3.390   6.321  2.1477  0.3033 -0.8465
  743MOL0     H 2510   9.510   3.457   6.160 -0.7345 -0.9243  1.0905
  743MOL0     H 2511   9.392   3.506   6.044  0.2299  1.1935  0.5072
  743MOL0     H 2512   9.332   3.224   6.068  0.8154 -1.1882 -3.0418
  743MOL0     H 2513   9.505   3.237   6.120 -1.7464 -2.8649  0.2234
  743MOL0     H 2514   9.007   4.139   6.408  0.7959  1.7206  0.4448
  743MOL0     H 2515   8.861   4.333   6.433 -0.7866  0.3086  0.4753
  743MOL0     H 2516   8.493   4.533   6.877  0.5068 -1.2602 -0.4218
  743MOL0     H 2517   8.368   4.723   6.901 -1.6652  0.2219  0.0697
  743MOL0     H 2518   9.017   4.288   7.946  0.1833 -1.1163  0.5983
  743MOL0     H 2519   8.947   4.145   8.127 -1.0117  0.7716 -2.4533
  743MOL0     H 2520   8.646   4.183   8.595  0.3228 -0.9087 -2.2625
  743MOL0     H 2521   8.578   4.010   8.766 -0.1561  1.0551  0.7833
  743MOL0     H 2522   8.898   3.774   8.926 -1.2620 -1.5963 -0.5337
  743MOL0     H 2523   8.797   3.882   9.033 -1.7726  0.7065 -0.9909
  743MOL0     H 2524   8.761   3.580   8.948 -0.7745 -0.9164  0.2806
  743MOL0     H 2525   8.647   3.666   9.056  0.2859 -4.2618 -0.0781
  743MOL0     H 2526   8.938   3.644   9.132  0.4950 -2.6423  1.0651
  743MOL0     H 2527   8.809   3.697   9.221 -0.9317 -0.6551 -1.1594
  743MOL0     H 2528   8.882   3.434   9.236  0.2016  1.3412 -0.0134
  743MOL0     H 2529   8.771   3.423   9.099  0.8735 -0.4757  0.4912
  743MOL0     H 2530   8.535   3.479   9.454 -0.6225 -1.8460 -0.5716
  743MOL0     H 2531   8.967   3.836   8.741 -1.2544 -0.3342  1.0169
  743MOL0     H 2532   9.103   3.859   8.553 -1.6764  0.2069 -1.8108
  743MOL0     H 2533   9.066   3.956   8.425  2.0783 -0.6851 -0.2520
  743MOL0     H 2534   9.143   4.038   8.571 -1.5123  0.7636  1.9803
  744MOL0     O 2535   9.198   6.349  10.965 -0.6109  0.6612  0.7010
  744MOL0     C 2536   9.118   6.440  10.949 -0.0028 -0.3128  0.4937
  744MOL0     O 2537   9.152   6.573  10.955 -0.2533 -0.4457 -0.0964
  744MOL0     C 2538   9.278   6.607  10.988  0.2148 -0.3591 -0.1153
  744MOL0     C 2539   9.385   6.594  10.896  1.3100 -0.4000  0.1746
  744MOL0     C 2540   9.512   6.640  10.926  0.6880  0.4977  0.9689
  744MOL0     C 2541   9.531   6.703  11.045  0.6922  0.8504  0.5337
  744MOL0     O 2542   9.662   6.754  11.069  0.1810 -0.0729  0.3645
  744MOL0     C 2543   9.712   6.720  11.197 -0.9940  0.6960 -0.4680
  744MOL0     C 2544   9.859   6.696  11.202 -0.6199  0.3518 -0.0474
  744MOL0     C 2545   9.895   6.650  11.347  0.3185  0.1371  0.6154
  744MOL0     C 2546   9.893   6.755  11.459  0.0630 -0.0119  0.6454
  744MOL0     C 2547  10.020   6.765  11.539  0.4996  0.3421  0.6940
  744MOL0     C 2548  10.043   6.643  11.633  0.5824 -0.2633 -0.2719
  744MOL0     C 2549  10.166   6.682  11.729 -0.3525 -0.9489 -0.1824
  744MOL0     C 2550  10.212   6.560  11.803 -0.3609  1.2405 -0.0514
  744MOL0     N 2551  10.336   6.568  11.878 -0.3465 -0.3688  0.2191
  744MOL0     C 2552  10.349   6.611  12.009  0.2299 -0.7150  0.2972
  744MOL0     C 2553  10.479   6.639  12.020 -0.0107  0.8617  0.1505
  744MOL0     C 2554  10.564   6.681  12.134 -0.2128  0.4448 -0.1968
  744MOL0     C 2555  10.641   6.557  12.195 -0.0731 -0.6514  0.5970
  744MOL0     C 2556  10.759   6.614  12.267  0.4118  0.1272 -0.5933
  744MOL0     C 2557  10.817   6.502  12.341  0.5652  1.0416  0.8180
  744MOL0     O 2558  10.934   6.560  12.388 -0.8576 -0.5447 -0.2088
  744MOL0     C 2559  10.998   6.478  12.474 -0.2891 -0.2665 -0.9362
  744MOL0     C 2560  10.965   6.345  12.508 -0.2939 -0.3077  0.0403
  744MOL0     C 2561  11.052   6.276  12.591  1.1808 -0.8167 -0.0529
  744MOL0     C 2562  11.025   6.125  12.595  0.4355 -0.7541  0.7476
  744MOL0     C 2563  11.164   6.337  12.652  0.1715  0.2955  0.2249
  744MOL0     C 2564  11.265   6.268  12.747 -0.4172  0.4458 -0.2215
  744MOL0     O 2565  11.378   6.339  12.783 -0.3452  0.4696 -0.6236
  744MOL0     C 2566  11.490   6.285  12.843 -0.0385  0.4306  1.5367
  744MOL0     C 2567  11.485   6.180  12.934 -0.9001  0.0796  0.3773
  744MOL0     C 2568  11.602   6.122  12.980 -0.2367  0.2083 -0.5380
  744MOL0     C 2569  11.726   6.165  12.923  0.1445  0.0111 -0.9739
  744MOL0     O 2570  11.843   6.106  12.963 -0.8144 -0.3785  0.5762
  744MOL0     C 2571  11.972   6.133  12.903 -0.1199 -0.4040  0.6684
  744MOL0     C 2572  12.052   6.218  13.000 -0.2885 -0.1232  0.0053
  744MOL0     C 2573  12.187   6.281  12.935 -0.1439  0.3842 -0.1284
  744MOL0     C 2574  12.301   6.186  12.901 -0.2093  0.3128 -0.8175
  744MOL0     C 2575  12.418   6.253  12.851 -0.2402  0.1264 -0.1642
  744MOL0     C 2576  12.537   6.160  12.834  0.6884 -0.1518  0.2862
  744MOL0     C 2577  12.640   6.202  12.727  0.9637 -0.4078  0.0885
  744MOL0     C 2578  12.695   6.344  12.738  0.0799 -1.0517  0.4421
  744MOL0    Cl 2579  12.845   6.357  12.643 -0.2018  0.4286  0.1463
  744MOL0     C 2580  11.727   6.275  12.842  0.0814 -0.3978 -0.1521
  744MOL0     C 2581  11.608   6.335  12.801  0.2974 -0.1876  0.4538
  744MOL0     O 2582  11.235   6.162  12.797  0.7506  0.4159 -0.6284
  744MOL0     C 2583  11.186   6.474  12.628 -1.2690 -0.1982  0.4173
  744MOL0     C 2584  11.104   6.545  12.533 -0.7219 -0.2064  0.5635
  744MOL0     N 2585  10.532   6.612  11.899  0.2270  0.2592 -0.1140
  744MOL0     N 2586  10.449   6.554  11.822  0.7188 -0.1646  0.0739
  744MOL0     C 2587   9.426   6.729  11.132 -0.2268  0.6395  0.1328
  744MOL0     C 2588   9.297   6.687  11.100 -0.2775  0.2537  0.3552
  744MOL0     C 2589   8.975   6.413  10.909 -0.0106 -0.0039 -0.9567
  744MOL0     C 2590   8.898   6.514  10.849 -0.3781  0.5231  0.0096
  744MOL0     C 2591   8.767   6.499  10.817  0.3516 -0.1905  0.2318
  744MOL0     C 2592   8.705   6.378  10.843  0.1148  0.5351 -0.4839
  744MOL0     O 2593   8.569   6.353  10.826 -0.4701 -0.6212 -0.2863
  744MOL0     C 2594   8.492   6.456  10.758 -0.1901  0.9391 -0.1633
  744MOL0     C 2595   8.400   6.536  10.848 -0.2920  0.2226  0.2446
  744MOL0     C 2596   8.284   6.452  10.906  0.0108 -0.2188  0.0365
  744MOL0     C 2597   8.207   6.525  11.019 -0.3494 -0.3498  0.6788
  744MOL0     C 2598   8.149   6.654  10.966 -0.7570  0.4920  0.8958
  744MOL0     C 2599   8.094   6.756  10.929 -0.1658  0.1140 -0.8403
  744MOL0     C 2600   8.774   6.279  10.914 -0.3159 -1.2655 -0.0886
  744MOL0     C 2601   8.916   6.287  10.941  0.0229 -0.1615 -0.3510
  744MOL0     C 2602   8.980   6.170  11.016 -0.1071 -0.4081 -0.0661
  744MOL0     H 2603   9.374   6.537  10.804 -1.4656  1.1209 -0.5565
  744MOL0     H 2604   9.594   6.626  10.856 -1.2561 -1.4235 -1.0867
  744MOL0     H 2605   9.656   6.631  11.228  0.6103  0.5406  2.2412
  744MOL0     H 2606   9.681   6.803  11.260  0.6204  2.5638 -2.0147
  744MOL0     H 2607   9.886   6.627  11.122 -0.5514  1.3424 -0.9094
  744MOL0     H 2608   9.902   6.797  11.193  0.9455 -0.3017 -0.1884
  744MOL0     H 2609   9.822   6.575  11.380  1.2652 -1.1459 -0.1378
  744MOL0     H 2610   9.993   6.605  11.332  0.0739 -0.5698  1.0220
  744MOL0     H 2611   9.870   6.855  11.420  1.0966  0.0454  0.1632
  744MOL0     H 2612   9.807   6.729  11.522 -2.0611 -0.4205 -2.2410
  744MOL0     H 2613   9.998   6.850  11.605 -2.4790  0.5142 -0.3534
  744MOL0     H 2614  10.107   6.781  11.475  1.2513 -0.3364  1.5179
  744MOL0     H 2615   9.951   6.630  11.691 -1.0603  1.8116 -2.2192
  744MOL0     H 2616  10.060   6.551  11.577 -1.9332  0.4541 -2.4749
  744MOL0     H 2617  10.141   6.767  11.794  0.8777 -2.0876  1.8978
  744MOL0     H 2618  10.259   6.708  11.678 -1.0188  1.6125 -0.2326
  744MOL0     H 2619  10.133   6.518  11.865  0.8229 -4.8607 -1.9934
  744MOL0     H 2620  10.227   6.483  11.727 -1.5381  0.6787  0.2545
  744MOL0     H 2621  10.274   6.623  12.086 -0.9625  1.5618 -1.1379
  744MOL0     H 2622  10.504   6.730  12.211 -3.4300 -1.8664 -1.0076
  744MOL0     H 2623  10.633   6.758  12.098  1.2278  1.4915  4.1996
  744MOL0     H 2624  10.581   6.496  12.263 -2.2985  0.9131  0.1678
  744MOL0     H 2625  10.680   6.488  12.120  0.8548 -0.7886  1.1993
  744MOL0     H 2626  10.836   6.652  12.199  0.5366  0.7115 -0.1365
  744MOL0     H 2627  10.728   6.690  12.340  0.8863 -0.4179  0.1970
  744MOL0     H 2628  10.750   6.471  12.423 -1.1123  2.3274 -0.0087
  744MOL0     H 2629  10.840   6.418  12.275 -2.0272  1.9745 -1.4067
  744MOL0     H 2630  10.875   6.295  12.474 -1.6975 -0.3206  3.3160
  744MOL0     H 2631  10.963   6.092  12.511 -0.1583 -1.2535  1.3662
  744MOL0     H 2632  10.985   6.089  12.691  0.5782 -1.1771  0.6506
  744MOL0     H 2633  11.121   6.073  12.584  1.4762  1.1611  0.4197
  744MOL0     H 2634  11.390   6.150  12.977 -1.5805  1.9244  0.2930
  744MOL0     H 2635  11.610   6.045  13.056 -0.3493  1.3400  0.6458
  744MOL0     H 2636  12.029   6.040  12.893 -0.1198 -0.4932  1.4527
  744MOL0     H 2637  11.975   6.180  12.804 -0.3985  2.2248  1.8370
  744MOL0     H 2638  11.979   6.290  13.040 -0.6921  0.1797 -1.2438
  744MOL0     H 2639  12.085   6.160  13.087  2.6752 -0.1496 -1.0477
  744MOL0     H 2640  12.227   6.343  13.017  1.8179 -1.5702  0.5184
  744MOL0     H 2641  12.163   6.339  12.846  0.6141  2.4032  0.9186
  744MOL0     H 2642  12.262   6.115  12.828  2.0019 -0.0999 -1.6670
  744MOL0     H 2643  12.330   6.134  12.993 -0.8648  0.9486 -0.2330
  744MOL0     H 2644  12.389   6.298  12.756 -1.1811  1.7789  0.8632
  744MOL0     H 2645  12.452   6.336  12.914 -1.4199 -1.7788  3.2707
  744MOL0     H 2646  12.499   6.059  12.817 -1.1666  0.0877  2.5735
  744MOL0     H 2647  12.592   6.159  12.928  2.3174 -0.9613 -0.6169
  744MOL0     H 2648  12.587   6.202  12.631  0.4116 -1.1287  0.3766
  744MOL0     H 2649  12.721   6.129  12.724 -1.1023 -2.8654 -0.2802
  744MOL0     H 2650  12.725   6.378  12.837 -1.9260  1.0510  0.3961
  744MOL0     H 2651  12.629   6.420  12.695  0.5722  1.9080  4.3832
  744MOL0     H 2652  11.824   6.320  12.819 -0.5266  0.2422 -1.5991
  744MOL0     H 2653  11.601   6.420  12.735  3.5550  0.9245  1.3433
  744MOL0     H 2654  11.280   6.520  12.659  0.6860 -2.8995 -0.9703
  744MOL0     H 2655  11.123   6.649  12.508 -0.5860 -0.5754 -0.9638
  744MOL0     H 2656   9.435   6.779  11.228  1.5440  0.4448  0.1066
  744MOL0     H 2657   9.201   6.706  11.149  0.2777  3.5976  0.3919
  744MOL0     H 2658   8.942   6.609  10.818  1.5196 -0.6887 -1.2075
  744MOL0     H 2659   8.706   6.586  10.795  0.4218 -0.1330  0.2641
  744MOL0     H 2660   8.541   6.521  10.686 -3.0242  3.3116 -0.1509
  744MOL0     H 2661   8.429   6.402  10.687  0.2647  3.5576 -2.7331
  744MOL0     H 2662   8.367   6.632  10.806  2.0877  1.0229  0.0660
  744MOL0     H 2663   8.455   6.564  10.938 -2.7572 -0.2546  2.0274
  744MOL0     H 2664   8.226   6.418  10.820  2.3483 -0.7511 -1.4073
  744MOL0     H 2665   8.308   6.358  10.957 -1.4310 -0.2776  0.6437
  744MOL0     H 2666   8.272   6.541  11.105  0.5485 -4.1604  0.8579
  744MOL0     H 2667   8.119   6.464  11.042 -0.6776 -0.8721 -1.7032
  744MOL0     H 2668   8.050   6.845  10.890  0.0964 -0.2980 -2.1309
  744MOL0     H 2669   8.715   6.194  10.946  0.8668 -1.9291  0.4096
  744MOL0     H 2670   8.914   6.083  11.020  1.6155 -2.0883 -3.6279
  744MOL0     H 2671   9.079   6.146  10.975  1.7928  3.9510  1.3200
  744MOL0     H 2672   8.991   6.209  11.118 -1.4194  1.4483 -0.5741
  745MOL0     O 2673   9.779   4.192   1.505  0.2561  1.1607 -0.1276
  745MOL0     C 2674   9.688   4.266   1.539 -0.6048  0.1252  0.9233
  745MOL0     O 2675   9.694   4.354   1.635 -0.0973  1.3364 -0.1999
  745MOL0     C 2676   9.803   4.381   1.716  0.7336 -0.4289 -0.2226
  745MOL0     C 2677   9.777   4.496   1.794  0.0938  0.3578  0.1356
  745MOL0     C 2678   9.877   4.538   1.887  1.2248  0.3976  0.3744
  745MOL0     C 2679   9.989   4.465   1.905  0.5358  0.3108 -0.2484
  745MOL0     O 2680  10.069   4.495   2.016  0.2222  0.8356  0.8543
  745MOL0     C 2681  10.198   4.549   1.971  0.6116  0.4488  0.1048
  745MOL0     C 2682  10.180   4.696   1.957 -0.4870  0.0508  0.5170
  745MOL0     C 2683  10.312   4.757   1.934  0.3622 -0.2981 -0.7462
  745MOL0     C 2684  10.315   4.912   1.938 -0.5802  0.5804  0.3607
  745MOL0     C 2685  10.446   4.980   1.959 -0.2917  0.0641  0.5258
  745MOL0     C 2686  10.445   5.129   1.929 -0.9727 -0.4204  0.1069
  745MOL0     C 2687  10.576   5.195   1.969  0.5885  0.2945  0.0201
  745MOL0     C 2688  10.572   5.353   1.956 -0.3950  0.2148 -0.0921
  745MOL0     N 2689  10.696   5.410   2.008 -0.0106  0.8046 -1.3868
  745MOL0     C 2690  10.818   5.396   1.951  0.1866 -0.1751  0.5287
  745MOL0     C 2691  10.907   5.448   2.033 -0.5175  0.7698 -0.2408
  745MOL0     C 2692  11.049   5.448   2.002 -0.4837 -0.6182  0.7090
  745MOL0     C 2693  11.098   5.540   1.885  0.3420 -0.7468  0.0357
  745MOL0     C 2694  11.056   5.692   1.905 -0.1087  0.1654 -0.3844
  745MOL0     C 2695  11.080   5.774   1.774  0.1999  0.3680  0.5393
  745MOL0     O 2696  11.008   5.704   1.673  0.7615 -0.8519 -0.3065
  745MOL0     C 2697  10.871   5.730   1.653  0.6386 -0.1856  0.0893
  745MOL0     C 2698  10.796   5.624   1.603 -0.8286  0.1250  0.5682
  745MOL0     C 2699  10.659   5.632   1.591 -0.2948  0.2374 -0.3301
  745MOL0     C 2700  10.588   5.506   1.551  0.2281 -0.3569 -0.2126
  745MOL0     C 2701  10.584   5.742   1.645 -0.6155 -0.7006  0.5458
  745MOL0     C 2702  10.443   5.754   1.666  1.0794 -0.1989 -0.4108
  745MOL0     O 2703  10.357   5.680   1.585  0.4376 -0.4732  0.3840
  745MOL0     C 2704  10.224   5.694   1.603  1.3974  0.3744 -0.6257
  745MOL0     C 2705  10.162   5.588   1.665  0.5139 -0.8634 -0.2088
  745MOL0     C 2706  10.028   5.587   1.701  0.6344  0.0491 -0.2581
  745MOL0     C 2707   9.939   5.702   1.679 -0.2445 -0.2631  0.1255
  745MOL0     O 2708   9.810   5.710   1.717  0.1580  0.2133 -0.4073
  745MOL0     C 2709   9.738   5.597   1.779  0.2302  0.2673  0.3966
  745MOL0     C 2710   9.672   5.516   1.665  0.6961 -0.1606  0.4781
  745MOL0     C 2711   9.579   5.611   1.585 -0.5827 -0.6135 -0.1572
  745MOL0     C 2712   9.548   5.542   1.465 -0.1149  0.5268 -0.2055
  745MOL0     C 2713   9.450   5.617   1.380 -0.3057  1.1657 -0.0655
  745MOL0     C 2714   9.353   5.501   1.331 -0.0149  0.6736 -1.0816
  745MOL0     C 2715   9.261   5.540   1.216 -0.1644  0.9929  0.0223
  745MOL0     C 2716   9.195   5.412   1.150 -0.3190 -0.9603  0.3702
  745MOL0    Cl 2717   9.067   5.456   1.042 -0.2066 -0.0584 -0.6016
  745MOL0     C 2718  10.004   5.803   1.620  0.0639 -0.3497 -0.5226
  745MOL0     C 2719  10.144   5.806   1.586 -0.8083  0.2866  0.4592
  745MOL0     O 2720  10.403   5.822   1.760 -0.1837 -0.7231 -0.7062
  745MOL0     C 2721  10.663   5.848   1.697  0.1755 -0.4716 -0.0460
  745MOL0     C 2722  10.801   5.836   1.708  0.4503 -0.4792  0.2262
  745MOL0     N 2723  10.842   5.496   2.146  0.0897 -0.3130  0.3157
  745MOL0     N 2724  10.723   5.469   2.131  0.5895  0.0179  1.0759
  745MOL0     C 2725  10.019   4.353   1.824  0.7692  0.0437 -0.4721
  745MOL0     C 2726   9.928   4.315   1.727 -0.8316 -0.2560  0.2880
  745MOL0     C 2727   9.558   4.264   1.464 -0.1724 -0.2286  0.2433
  745MOL0     C 2728   9.469   4.374   1.498 -0.1880  0.7028 -0.1490
  745MOL0     C 2729   9.344   4.379   1.434 -0.4125 -0.1984  0.0222
  745MOL0     C 2730   9.309   4.294   1.330  0.7896  0.1468  0.1899
  745MOL0     O 2731   9.181   4.312   1.274  0.6406  0.0885  0.5268
  745MOL0     C 2732   9.197   4.342   1.127  0.3547  0.5311  0.5904
  745MOL0     C 2733   9.066   4.387   1.069  0.7950  0.0319 -0.1084
  745MOL0     C 2734   8.975   4.260   1.036 -0.1164  0.4762 -0.8881
  745MOL0     C 2735   9.003   4.199   0.900  0.2220  0.7543  0.2925
  745MOL0     C 2736   8.944   4.065   0.896 -0.3106 -0.8041 -0.8086
  745MOL0     C 2737   8.881   3.967   0.894  0.0878  0.2771  0.2333
  745MOL0     C 2738   9.399   4.207   1.278  0.2666 -1.0036 -0.5639
  745MOL0     C 2739   9.524   4.184   1.348 -0.9963 -0.6254  0.0379
  745MOL0     C 2740   9.627   4.089   1.291 -1.1164 -0.0024  0.0051
  745MOL0     H 2741   9.681   4.545   1.780  0.3024  0.9792  0.8546
  745MOL0     H 2742   9.850   4.627   1.942 -0.5225  0.2519 -0.1624
  745MOL0     H 2743  10.233   4.516   1.873 -1.0312  1.2995 -0.8021
  745MOL0     H 2744  10.279   4.533   2.043  1.4286 -2.1454 -1.2803
  745MOL0     H 2745  10.116   4.740   1.880 -0.4013  1.0540  0.9889
  745MOL0     H 2746  10.149   4.730   2.057  4.2070 -1.3942  2.7712
  745MOL0     H 2747  10.378   4.727   2.016 -0.6967 -0.7179 -0.0223
  745MOL0     H 2748  10.353   4.715   1.841  0.3897  1.0063 -1.3442
  745MOL0     H 2749  10.265   4.947   1.847  0.2546  0.2138 -0.2445
  745MOL0     H 2750  10.249   4.930   2.024 -1.7103  1.6523 -0.6890
  745MOL0     H 2751  10.517   4.923   1.898 -0.5278  1.8021 -1.4740
  745MOL0     H 2752  10.478   4.972   2.064  1.2137  0.5361  0.1267
  745MOL0     H 2753  10.426   5.141   1.822 -1.2781 -1.8025 -0.0189
  745MOL0     H 2754  10.360   5.185   1.969  1.0849  3.8619 -0.9573
  745MOL0     H 2755  10.654   5.161   1.900 -0.6591 -0.3650 -1.1102
  745MOL0     H 2756  10.595   5.157   2.070  0.6401 -1.2908 -0.5480
  745MOL0     H 2757  10.554   5.374   1.850  2.4040  1.7935 -0.3502
  745MOL0     H 2758  10.490   5.378   2.024  1.1564 -0.0189  1.9416
  745MOL0     H 2759  10.841   5.353   1.854  3.6463 -3.4970  2.5409
  745MOL0     H 2760  11.083   5.348   1.972 -0.1606 -0.7215  1.3995
  745MOL0     H 2761  11.097   5.488   2.092  2.3817 -1.8675 -0.1221
  745MOL0     H 2762  11.205   5.528   1.870  0.2263 -0.2536 -1.3027
  745MOL0     H 2763  11.059   5.491   1.796 -0.7486 -0.0832  0.1259
  745MOL0     H 2764  10.949   5.700   1.922 -0.4526  0.2339 -2.4120
  745MOL0     H 2765  11.102   5.742   1.991  0.4948  0.0587 -0.6342
  745MOL0     H 2766  11.035   5.872   1.791  1.7567  0.7839  2.7082
  745MOL0     H 2767  11.180   5.787   1.733 -0.6756 -1.9211 -2.7971
  745MOL0     H 2768  10.853   5.539   1.566 -0.2701  1.6935 -2.4806
  745MOL0     H 2769  10.658   5.431   1.512 -2.1125 -1.6223 -2.2398
  745MOL0     H 2770  10.523   5.525   1.466  1.2273  1.2234 -0.6626
  745MOL0     H 2771  10.528   5.462   1.631  0.3964 -0.2812 -0.0424
  745MOL0     H 2772  10.228   5.511   1.704  3.2546  2.6609  2.8776
  745MOL0     H 2773  10.006   5.500   1.762  0.5356  0.5829  0.4711
  745MOL0     H 2774   9.813   5.532   1.827 -0.1301 -2.7048 -2.6712
  745MOL0     H 2775   9.671   5.635   1.856  0.7479 -3.1936  2.8071
  745MOL0     H 2776   9.755   5.470   1.610  0.3257 -0.5010  0.1941
  745MOL0     H 2777   9.603   5.442   1.705 -0.0932 -0.1184 -0.7471
  745MOL0     H 2778   9.628   5.701   1.547 -1.1421  1.0769  2.8010
  745MOL0     H 2779   9.489   5.628   1.644  0.2063 -2.5135  1.7124
  745MOL0     H 2780   9.515   5.441   1.495  1.8690 -0.8838 -2.4447
  745MOL0     H 2781   9.636   5.532   1.401 -1.5777  0.5312 -2.3239
  745MOL0     H 2782   9.390   5.692   1.432 -3.6082 -1.1010 -0.3350
  745MOL0     H 2783   9.500   5.670   1.299 -2.5788  1.0722 -1.6187
  745MOL0     H 2784   9.293   5.468   1.416  1.5337  0.8283  0.1087
  745MOL0     H 2785   9.411   5.420   1.287 -0.7619  1.0805 -2.9070
  745MOL0     H 2786   9.329   5.599   1.154 -0.8154  4.2039  2.1025
  745MOL0     H 2787   9.193   5.610   1.266  3.0683  3.5093  1.2528
  745MOL0     H 2788   9.164   5.343   1.229  1.5055  0.7874  2.7271
  745MOL0     H 2789   9.268   5.368   1.080 -1.4222  3.3061 -4.0281
  745MOL0     H 2790   9.948   5.887   1.579  1.8922  0.6143 -1.1637
  745MOL0     H 2791  10.178   5.888   1.524 -1.4499  2.4626  2.8030
  745MOL0     H 2792  10.613   5.941   1.722  1.6651  0.8445 -1.6571
  745MOL0     H 2793  10.856   5.920   1.749 -0.1534  1.3114 -2.3568
  745MOL0     H 2794  10.108   4.291   1.833  1.1186  0.4626 -0.9678
  745MOL0     H 2795   9.957   4.230   1.666  0.4497  0.3840 -0.0410
  745MOL0     H 2796   9.499   4.457   1.561  0.1786  1.1288 -0.8621
  745MOL0     H 2797   9.278   4.461   1.461 -0.9751 -0.8343  0.6541
  745MOL0     H 2798   9.272   4.421   1.116  0.3092  0.4631 -0.2343
  745MOL0     H 2799   9.232   4.257   1.068 -0.2323  0.9823 -0.4183
  745MOL0     H 2800   9.092   4.446   0.981 -1.4081  0.4264 -0.5539
  745MOL0     H 2801   9.015   4.442   1.149 -1.5595 -0.0690 -1.4559
  745MOL0     H 2802   8.973   4.191   1.120 -0.8166  3.4258  1.6780
  745MOL0     H 2803   8.870   4.290   1.024 -0.2891  0.1087 -0.2777
  745MOL0     H 2804   9.112   4.197   0.888  0.2735  0.5103  0.7592
  745MOL0     H 2805   8.981   4.255   0.809  2.8052 -0.5119 -1.2436
  745MOL0     H 2806   8.832   3.872   0.895 -1.1359  0.9034  0.7502
  745MOL0     H 2807   9.383   4.141   1.194  0.5866 -2.0908  0.2148
  745MOL0     H 2808   9.585   4.054   1.196  0.9115 -2.7200  0.0065
  745MOL0     H 2809   9.722   4.136   1.263  0.0858 -2.9546 -1.2946
  745MOL0     H 2810   9.639   3.995   1.344  0.6846 -1.0190 -2.0411
  746MOL0     O 2811   9.705   8.913   7.188  0.9268  0.1329  0.4633
  746MOL0     C 2812   9.697   8.825   7.095 -0.5144  0.1432  0.1245
  746MOL0     O 2813   9.693   8.848   6.963  0.5767 -0.0829 -0.0898
  746MOL0     C 2814   9.740   8.967   6.913 -0.2113  0.9714 -0.7818
  746MOL0     C 2815   9.670   9.087   6.932 -0.0224 -0.2973  0.0291
  746MOL0     C 2816   9.728   9.206   6.895  0.7540 -0.7212 -0.5758
  746MOL0     C 2817   9.849   9.203   6.828  0.8317  0.0181 -0.5718
  746MOL0     O 2818   9.918   9.322   6.790 -0.1112 -0.4386 -0.5922
  746MOL0     C 2819   9.897   9.444   6.858  0.7069  0.0696  0.6917
  746MOL0     C 2820  10.017   9.536   6.825 -0.7826  0.3166 -0.8244
  746MOL0     C 2821  10.001   9.667   6.901 -0.6172  0.8289  0.0667
  746MOL0     C 2822  10.130   9.725   6.936 -0.5903  0.1010  0.3125
  746MOL0     C 2823  10.120   9.846   7.019  0.3837 -0.2705 -0.0480
  746MOL0     C 2824  10.260   9.880   7.069 -0.1907 -0.3791  0.1090
  746MOL0     C 2825  10.321   9.781   7.176 -0.0689 -0.3783  0.4094
  746MOL0     C 2826  10.459   9.821   7.219 -0.2160 -0.6350  0.4531
  746MOL0     N 2827  10.548   9.843   7.106  0.2708 -0.3226 -0.5632
  746MOL0     C 2828  10.597   9.746   7.024  0.4282  0.6869 -0.3940
  746MOL0     C 2829  10.713   9.795   6.977 -0.1013 -0.7605  0.2223
  746MOL0     C 2830  10.809   9.708   6.899 -0.1197  0.3519 -0.4306
  746MOL0     C 2831  10.953   9.713   6.952  0.1206 -0.5716 -0.6524
  746MOL0     C 2832  11.020   9.838   6.889 -0.4825 -0.3533 -0.1281
  746MOL0     C 2833  11.173   9.841   6.911 -0.7079 -0.7236 -0.3584
  746MOL0     O 2834  11.222   9.775   7.033 -0.3235 -0.1869 -0.6181
  746MOL0     C 2835  11.354   9.787   7.075 -0.4756 -0.6311  0.8013
  746MOL0     C 2836  11.369   9.780   7.214 -0.0225  0.1890 -0.5007
  746MOL0     C 2837  11.490   9.795   7.285 -0.0663 -1.9765  0.0288
  746MOL0     C 2838  11.483   9.787   7.434  0.2089 -0.1222  0.5814
  746MOL0     C 2839  11.601   9.831   7.215  0.1349 -0.8652 -0.2305
  746MOL0     C 2840  11.733   9.883   7.274 -0.0761 -0.9873  0.3372
  746MOL0     O 2841  11.722   9.943   7.397 -0.2017 -0.0376 -0.3910
  746MOL0     C 2842  11.820   9.950   7.491 -0.3885  0.9136 -0.4549
  746MOL0     C 2843  11.929   9.872   7.497 -0.4821 -0.9666 -0.5886
  746MOL0     C 2844  12.020   9.867   7.599  0.7013 -0.5241  0.2484
  746MOL0     C 2845  11.994   9.954   7.705 -0.3193 -0.4368  0.8452
  746MOL0     O 2846  12.095   9.943   7.801  0.6518  0.1191 -0.8051
  746MOL0     C 2847  12.052   9.984   7.938 -0.7150  0.3253 -1.3194
  746MOL0     C 2848  12.146   9.931   8.050  0.0362 -0.6962 -0.2834
  746MOL0     C 2849  12.292   9.972   8.037  0.2731  0.2337  0.9387
  746MOL0     C 2850  12.391   9.874   8.104 -0.1093 -0.4984  0.1428
  746MOL0     C 2851  12.418   9.762   8.008  0.2525  0.4569 -0.2770
  746MOL0     C 2852  12.511   9.643   8.055  0.4725 -0.4918 -0.3613
  746MOL0     C 2853  12.455   9.559   8.170 -0.0764 -0.1022  0.0605
  746MOL0     C 2854  12.552   9.436   8.182 -1.0571  0.0716 -0.4029
  746MOL0    Cl 2855  12.549   9.401   8.355  0.1732 -0.9275  0.4349
  746MOL0     C 2856  11.886  10.038   7.708 -0.0810  0.3808  0.1234
  746MOL0     C 2857  11.805  10.042   7.594 -0.0600 -0.6302  0.2091
  746MOL0     O 2858  11.839   9.868   7.206  0.4354 -0.4736 -0.2112
  746MOL0     C 2859  11.597   9.834   7.074  0.7467 -0.2313  0.0382
  746MOL0     C 2860  11.477   9.816   7.006  0.3459 -0.0262 -0.6040
  746MOL0     N 2861  10.726   9.922   7.019 -0.4819 -0.7877  0.3483
  746MOL0     N 2862  10.635   9.956   7.099  0.2186 -0.2670 -0.5335
  746MOL0     C 2863   9.911   9.084   6.790 -0.0125  0.2818 -0.4911
  746MOL0     C 2864   9.854   8.961   6.833 -0.2708  0.7394 -0.2419
  746MOL0     C 2865   9.685   8.689   7.144 -0.1723 -0.6285  0.3589
  746MOL0     C 2866   9.786   8.621   7.204 -0.2273 -0.0192 -0.5350
  746MOL0     C 2867   9.763   8.488   7.250 -0.2482 -0.3671  0.0084
  746MOL0     C 2868   9.647   8.423   7.228 -1.1764  0.2581 -0.2196
  746MOL0     O 2869   9.638   8.288   7.246  0.9033 -0.4883 -0.4488
  746MOL0     C 2870   9.596   8.249   7.379 -0.4315  0.8711 -0.3256
  746MOL0     C 2871   9.510   8.118   7.370  0.4712  0.7600 -0.5871
  746MOL0     C 2872   9.379   8.161   7.313  0.3936 -0.5814  0.0724
  746MOL0     C 2873   9.274   8.063   7.261  0.1259 -0.1762  0.2626
  746MOL0     C 2874   9.308   8.008   7.128 -0.4851 -0.2982  0.1410
  746MOL0     C 2875   9.330   7.951   7.027  0.0960  0.1552 -0.4895
  746MOL0     C 2876   9.547   8.495   7.163 -0.3870  0.2650 -0.6359
  746MOL0     C 2877   9.562   8.621   7.114 -0.5602  0.9630 -0.8307
  746MOL0     C 2878   9.452   8.693   7.045 -0.1984  0.3188 -0.2093
  746MOL0     H 2879   9.575   9.083   6.983  0.1707 -0.5682  0.3677
  746MOL0     H 2880   9.678   9.303   6.900  1.4443 -0.2301 -2.5184
  746MOL0     H 2881   9.893   9.417   6.964  0.1576  0.0355  0.6655
  746MOL0     H 2882   9.800   9.483   6.829 -0.1630  0.1417  3.3774
  746MOL0     H 2883  10.107   9.483   6.859 -1.6304  0.2482  1.5013
  746MOL0     H 2884  10.032   9.564   6.720 -1.1987  3.4099 -0.1645
  746MOL0     H 2885   9.936   9.730   6.840 -1.5785 -0.2971 -0.1183
  746MOL0     H 2886   9.956   9.637   6.996 -0.2920 -0.0649 -0.0518
  746MOL0     H 2887  10.183   9.651   6.997 -0.8951 -0.9538 -0.6644
  746MOL0     H 2888  10.190   9.739   6.846 -0.9133  1.0992  0.2409
  746MOL0     H 2889  10.049   9.845   7.103  0.8656  2.6202  0.5255
  746MOL0     H 2890  10.074   9.923   6.957 -0.6893 -1.6261 -1.0052
  746MOL0     H 2891  10.319   9.882   6.977  1.1820 -0.6330  0.9628
  746MOL0     H 2892  10.269   9.979   7.115 -1.4834 -0.3858  0.4259
  746MOL0     H 2893  10.328   9.677   7.144 -0.0755  0.1663 -1.4554
  746MOL0     H 2894  10.260   9.775   7.267  1.0197 -1.3000  1.1052
  746MOL0     H 2895  10.463   9.903   7.291 -0.8334 -1.8101  1.8743
  746MOL0     H 2896  10.494   9.734   7.276  1.9018 -1.6350 -2.1238
  746MOL0     H 2897  10.567   9.642   7.033  0.1619  0.7717 -0.2943
  746MOL0     H 2898  10.810   9.729   6.791 -1.8679 -0.9266 -0.7376
  746MOL0     H 2899  10.773   9.606   6.909 -1.3199  0.9960  3.4492
  746MOL0     H 2900  10.949   9.705   7.061  1.1731  0.5401 -0.5112
  746MOL0     H 2901  11.007   9.621   6.924 -0.8676 -1.5037  0.4081
  746MOL0     H 2902  11.000   9.843   6.781  1.5168  0.9364 -0.4890
  746MOL0     H 2903  10.991   9.932   6.937  1.6944  0.3238 -0.0507
  746MOL0     H 2904  11.222   9.791   6.827  1.4015  2.1424 -0.9774
  746MOL0     H 2905  11.206   9.945   6.913  0.1460 -0.9921  0.1136
  746MOL0     H 2906  11.286   9.745   7.275  1.6104 -3.7267 -0.2321
  746MOL0     H 2907  11.579   9.744   7.464  0.4954 -1.9695 -2.4925
  746MOL0     H 2908  11.412   9.705   7.454 -0.2653  0.7169  2.5678
  746MOL0     H 2909  11.463   9.877   7.493  1.3073  0.2762  0.3680
  746MOL0     H 2910  11.950   9.808   7.412 -1.4176  2.4649 -3.6797
  746MOL0     H 2911  12.117   9.820   7.603  2.9580  3.4804 -1.3371
  746MOL0     H 2912  12.032  10.091   7.947 -1.4604 -0.0048  2.8684
  746MOL0     H 2913  11.955   9.937   7.959 -0.9637  1.0395 -0.8287
  746MOL0     H 2914  12.112   9.981   8.141  0.3710 -3.9898  1.8417
  746MOL0     H 2915  12.144   9.822   8.063 -1.8722 -0.7121 -0.4291
  746MOL0     H 2916  12.309  10.063   8.096 -1.7078 -0.2125  2.2707
  746MOL0     H 2917  12.318   9.981   7.931  0.0658 -1.3795  0.7308
  746MOL0     H 2918  12.351   9.838   8.200 -5.0073  0.9924 -1.0507
  746MOL0     H 2919  12.484   9.931   8.119 -0.4203  0.2700 -0.7568
  746MOL0     H 2920  12.327   9.721   7.963  0.8458  2.5513 -3.7214
  746MOL0     H 2921  12.462   9.824   7.930 -0.3422  0.6376 -0.4809
  746MOL0     H 2922  12.606   9.690   8.085  1.2890 -1.1496 -1.8359
  746MOL0     H 2923  12.548   9.586   7.970  2.4446  0.0765  0.0665
  746MOL0     H 2924  12.356   9.518   8.151  0.4553 -2.0570  1.2394
  746MOL0     H 2925  12.438   9.627   8.254 -3.3714  0.8716 -1.2458
  746MOL0     H 2926  12.654   9.453   8.146 -1.6455 -0.5836 -2.5148
  746MOL0     H 2927  12.517   9.354   8.119  3.3722 -2.2989 -0.2109
  746MOL0     H 2928  11.855  10.097   7.794  0.6651 -0.5531  1.0513
  746MOL0     H 2929  11.721  10.110   7.604  1.0982  0.6872  1.2595
  746MOL0     H 2930  11.677   9.861   7.006  1.5843 -2.8397 -0.1206
  746MOL0     H 2931  11.480   9.819   6.897 -0.0567 -1.3954 -0.6702
  746MOL0     H 2932  10.002   9.089   6.731 -0.2358  1.7527 -0.7374
  746MOL0     H 2933   9.907   8.867   6.822 -1.3684 -0.0365  0.9062
  746MOL0     H 2934   9.878   8.675   7.223  0.4475 -0.9395 -1.0991
  746MOL0     H 2935   9.841   8.442   7.310  0.6712  1.1080 -0.0215
  746MOL0     H 2936   9.690   8.228   7.431 -0.4899  2.4992  0.5178
  746MOL0     H 2937   9.554   8.327   7.443  2.9527  3.4995 -1.0316
  746MOL0     H 2938   9.489   8.078   7.470  2.9432  1.4993  0.3219
  746MOL0     H 2939   9.568   8.048   7.309  0.9304  2.3159 -2.0140
  746MOL0     H 2940   9.334   8.230   7.384  1.5332  0.7150 -0.4034
  746MOL0     H 2941   9.395   8.227   7.227 -2.2630 -0.5276 -0.4538
  746MOL0     H 2942   9.173   8.106   7.254  0.7277  1.0422 -2.3814
  746MOL0     H 2943   9.276   7.967   7.312  2.9264 -0.9354 -1.0879
  746MOL0     H 2944   9.356   7.892   6.941  1.7175 -1.8552  1.2724
  746MOL0     H 2945   9.460   8.430   7.156 -0.5654 -0.0220  2.5583
  746MOL0     H 2946   9.443   8.790   7.093  1.3306  0.5865 -0.4103
  746MOL0     H 2947   9.468   8.713   6.939 -1.1412 -1.2419 -0.6915
  746MOL0     H 2948   9.365   8.628   7.054 -0.7745  0.5572 -3.0752
  747MOL0     O 2949   0.257  10.891   0.958  0.0619  0.7116 -0.0728
  747MOL0     C 2950   0.306  11.004   0.969 -0.0875 -0.0119  1.1452
  747MOL0     O 2951   0.256  11.116   1.027  0.4849 -0.0138 -0.6335
  747MOL0     C 2952   0.127  11.138   1.041  0.3531 -0.6397 -0.2262
  747MOL0     C 2953   0.081  11.190   1.168 -0.4438 -0.6449  1.1256
  747MOL0     C 2954  -0.056  11.211   1.194 -0.2774 -0.2171  0.5898
  747MOL0     C 2955  -0.149  11.174   1.096 -0.1657 -0.1868 -0.3177
  747MOL0     O 2956  -0.283  11.164   1.118  0.5405 -0.5408 -0.9674
  747MOL0     C 2957  -0.334  11.301   1.142 -0.3494 -0.5740  0.3252
  747MOL0     C 2958  -0.469  11.291   1.212 -0.0775  0.2615 -0.2795
  747MOL0     C 2959  -0.577  11.264   1.108 -0.5852  0.3645  0.5930
  747MOL0     C 2960  -0.724  11.263   1.152 -0.3722 -0.0452  0.3442
  747MOL0     C 2961  -0.813  11.210   1.036  0.8427 -0.6705 -0.1431
  747MOL0     C 2962  -0.948  11.159   1.096 -0.0820 -0.1505  0.2699
  747MOL0     C 2963  -1.029  11.267   1.173  0.1860  0.1717 -0.6112
  747MOL0     C 2964  -1.078  11.374   1.079  0.3506 -0.2149 -0.4413
  747MOL0     N 2965  -0.989  11.489   1.064  0.1024  0.6164 -0.3058
  747MOL0     C 2966  -0.940  11.558   1.164 -0.2156 -0.7053 -0.4734
  747MOL0     C 2967  -0.873  11.657   1.097  1.9149 -0.7673 -0.3099
  747MOL0     C 2968  -0.798  11.756   1.182  0.2474 -0.3116  0.0203
  747MOL0     C 2969  -0.646  11.736   1.193  0.1501  0.1019  0.2937
  747MOL0     C 2970  -0.580  11.730   1.049  0.0586 -0.3890  0.6945
  747MOL0     C 2971  -0.438  11.684   1.056 -1.2298 -0.2902 -0.3873
  747MOL0     O 2972  -0.347  11.761   1.135 -0.1414 -0.0884  0.8172
  747MOL0     C 2973  -0.228  11.713   1.179  0.1888  0.5290  1.1191
  747MOL0     C 2974  -0.179  11.773   1.288  0.7869 -0.2563 -0.4434
  747MOL0     C 2975  -0.058  11.748   1.348 -0.2127  0.2210  0.4174
  747MOL0     C 2976  -0.028  11.829   1.479 -0.4669  0.1020  0.4740
  747MOL0     C 2977   0.029  11.648   1.287  0.8682 -1.3302 -0.0315
  747MOL0     C 2978   0.162  11.604   1.338  0.4531 -1.0075  0.2919
  747MOL0     O 2979   0.194  11.474   1.313 -0.1236  1.0620  0.0445
  747MOL0     C 2980   0.317  11.422   1.306 -0.7051 -0.3498  0.5165
  747MOL0     C 2981   0.360  11.332   1.403  0.9115  0.1198  0.3371
  747MOL0     C 2982   0.486  11.279   1.389 -0.6130  0.1903  0.6867
  747MOL0     C 2983   0.562  11.299   1.264  0.4491  0.0988 -0.4799
  747MOL0     O 2984   0.689  11.246   1.246  0.0338 -0.0595  0.3703
  747MOL0     C 2985   0.732  11.131   1.321 -0.5210 -1.7575  0.4400
  747MOL0     C 2986   0.878  11.123   1.297  0.5982 -0.4711 -0.8213
  747MOL0     C 2987   0.908  10.968   1.322  0.6090 -0.1458  0.2430
  747MOL0     C 2988   1.051  10.942   1.366  0.7948 -0.7037  0.3087
  747MOL0     C 2989   1.092  10.946   1.516  0.1352 -0.1920 -0.6593
  747MOL0     C 2990   1.238  10.912   1.541 -0.1013  0.0818 -0.2107
  747MOL0     C 2991   1.279  10.910   1.678  0.0594 -0.5726 -0.4811
  747MOL0     C 2992   1.432  10.914   1.695 -0.2896  0.3682  0.1360
  747MOL0    Cl 2993   1.494  10.750   1.635 -0.1357 -0.4809  0.1787
  747MOL0     C 2994   0.508  11.365   1.168  0.2454 -0.0533  0.3087
  747MOL0     C 2995   0.393  11.442   1.183  0.0262  0.3082 -0.4693
  747MOL0     O 2996   0.229  11.693   1.393  0.0838  0.3625  1.0292
  747MOL0     C 2997  -0.029  11.580   1.178  0.6230 -0.2443 -0.0627
  747MOL0     C 2998  -0.156  11.610   1.120  1.0218  0.3389  0.0335
  747MOL0     N 2999  -0.878  11.652   0.960 -0.6512  0.4540 -0.3745
  747MOL0     N 3000  -0.952  11.542   0.943 -0.1081  0.2044 -0.3776
  747MOL0     C 3001  -0.104  11.128   0.974 -0.6496  0.2577 -0.4032
  747MOL0     C 3002   0.028  11.114   0.939  0.3276 -0.4821 -0.7470
  747MOL0     C 3003   0.451  10.992   0.919 -0.0576 -0.6498  0.0451
  747MOL0     C 3004   0.557  11.043   1.003  0.1869 -0.1271 -0.2515
  747MOL0     C 3005   0.691  11.044   0.974  0.0448 -0.2256  1.1650
  747MOL0     C 3006   0.733  10.988   0.855 -0.2232  0.3356  0.0469
  747MOL0     O 3007   0.875  10.981   0.840 -0.3799  0.7797  1.1260
  747MOL0     C 3008   0.932  10.863   0.780  0.2137  0.8751 -0.3513
  747MOL0     C 3009   1.082  10.857   0.819 -1.1815  0.4217  1.2998
  747MOL0     C 3010   1.107  10.884   0.974 -0.9370  0.0033  0.4538
  747MOL0     C 3011   1.252  10.835   1.020 -0.8463  0.0091 -0.1685
  747MOL0     C 3012   1.314  10.723   0.947  0.6117  0.6270  0.5945
  747MOL0     C 3013   1.374  10.639   0.884  0.6655  0.7968 -0.3948
  747MOL0     C 3014   0.637  10.939   0.767  0.1064  0.2768  0.2678
  747MOL0     C 3015   0.493  10.936   0.799 -0.6451 -0.0549 -0.1789
  747MOL0     C 3016   0.413  10.888   0.682 -0.7429  0.0296  0.0334
  747MOL0     H 3017   0.154  11.206   1.246 -0.1272  0.5943  0.5919
  747MOL0     H 3018  -0.092  11.254   1.287 -1.1363 -0.3362  0.3225
  747MOL0     H 3019  -0.340  11.354   1.047 -1.7744 -3.3850 -1.3072
  747MOL0     H 3020  -0.258  11.354   1.199  1.6490 -1.3931 -1.4427
  747MOL0     H 3021  -0.465  11.223   1.298  1.8288  0.0764 -0.4846
  747MOL0     H 3022  -0.496  11.386   1.259 -2.2853 -1.2238  1.7248
  747MOL0     H 3023  -0.565  11.339   1.029 -0.9572  0.7119  0.8599
  747MOL0     H 3024  -0.558  11.168   1.060 -1.4849 -0.6981  2.2565
  747MOL0     H 3025  -0.732  11.198   1.240  2.6950  0.0033  0.7656
  747MOL0     H 3026  -0.755  11.366   1.173  0.2937  0.2078  0.1025
  747MOL0     H 3027  -0.759  11.126   0.994  2.4494 -0.2072  0.8883
  747MOL0     H 3028  -0.829  11.292   0.965 -2.2286  0.2876  1.4710
  747MOL0     H 3029  -1.016  11.105   1.029 -1.5621  0.2886  1.3789
  747MOL0     H 3030  -0.923  11.078   1.165  0.6521  0.6957  1.0222
  747MOL0     H 3031  -0.958  11.311   1.243 -0.3318 -0.7870  0.5441
  747MOL0     H 3032  -1.111  11.224   1.230  1.2942  0.2467  1.0934
  747MOL0     H 3033  -1.095  11.328   0.981  1.3680 -0.2369 -0.6210
  747MOL0     H 3034  -1.174  11.418   1.108  0.7131  0.7172 -0.6360
  747MOL0     H 3035  -0.962  11.542   1.269 -0.6938 -0.7010 -0.5683
  747MOL0     H 3036  -0.839  11.772   1.282  2.7870  0.3600  1.0405
  747MOL0     H 3037  -0.802  11.851   1.127 -0.5457 -0.9689 -1.0932
  747MOL0     H 3038  -0.601  11.813   1.257 -1.9148  2.2649 -0.6942
  747MOL0     H 3039  -0.620  11.640   1.239  2.3830 -0.5145 -2.0175
  747MOL0     H 3040  -0.633  11.650   0.996  0.2898  0.2484 -0.5636
  747MOL0     H 3041  -0.585  11.823   0.991 -3.2749 -0.6757  0.3463
  747MOL0     H 3042  -0.434  11.577   1.080 -0.7857  0.3328  2.7923
  747MOL0     H 3043  -0.410  11.695   0.951 -0.3490 -1.0388 -0.2418
  747MOL0     H 3044  -0.249  11.845   1.330 -1.8585 -1.5120 -2.4136
  747MOL0     H 3045   0.010  11.768   1.562  0.8866  0.5697  0.2271
  747MOL0     H 3046  -0.123  11.875   1.506 -0.4287 -0.5560  1.8386
  747MOL0     H 3047   0.039  11.912   1.455 -1.0600  0.6024  0.5401
  747MOL0     H 3048   0.293  11.305   1.484 -0.8800  2.5046 -0.2264
  747MOL0     H 3049   0.525  11.211   1.464  1.4381 -0.9005 -1.2526
  747MOL0     H 3050   0.719  11.127   1.429  1.8899 -3.9496  0.7561
  747MOL0     H 3051   0.675  11.046   1.284 -0.2701 -1.4621 -0.6673
  747MOL0     H 3052   0.905  11.155   1.196  1.5050  2.0946  0.1473
  747MOL0     H 3053   0.926  11.190   1.369 -2.6712 -1.3362  2.4477
  747MOL0     H 3054   0.879  10.904   1.237 -0.1712 -1.6516  1.5883
  747MOL0     H 3055   0.844  10.928   1.401 -1.7841 -3.0476 -2.8418
  747MOL0     H 3056   1.110  11.002   1.296 -0.1003 -2.5489 -2.1758
  747MOL0     H 3057   1.080  10.843   1.328  0.7173  0.1269 -2.0856
  747MOL0     H 3058   1.071  11.050   1.545 -1.9501 -0.3608 -1.3954
  747MOL0     H 3059   1.035  10.881   1.583  1.7199  0.3534  1.3047
  747MOL0     H 3060   1.298  10.993   1.499  0.4074 -0.4195 -0.4639
  747MOL0     H 3061   1.259  10.814   1.496 -2.7782 -0.4090 -0.5822
  747MOL0     H 3062   1.244  10.815   1.719  0.8716 -1.2563 -1.3275
  747MOL0     H 3063   1.237  11.002   1.721  0.6976 -0.3060 -0.4163
  747MOL0     H 3064   1.455  10.922   1.801 -3.7216 -1.7814  1.2031
  747MOL0     H 3065   1.489  10.994   1.646  0.4387  0.3294  0.9088
  747MOL0     H 3066   0.561  11.373   1.073  0.5958  0.3409  0.5335
  747MOL0     H 3067   0.337  11.509   1.118  0.1943  1.6661  0.7289
  747MOL0     H 3068   0.036  11.506   1.133  2.0891  0.1210  1.3486
  747MOL0     H 3069  -0.200  11.556   1.036  2.0142 -0.3922 -0.0283
  747MOL0     H 3070  -0.188  11.102   0.911 -0.4674 -2.0871  0.2381
  747MOL0     H 3071   0.065  11.093   0.839  1.1557 -0.2711 -0.5002
  747MOL0     H 3072   0.531  11.096   1.094 -0.7094 -3.1852  1.4086
  747MOL0     H 3073   0.753  11.091   1.049  0.6603  0.9542 -0.0278
  747MOL0     H 3074   0.888  10.770   0.817 -0.6598  1.4365  0.0673
  747MOL0     H 3075   0.922  10.864   0.671  1.2318 -0.8335 -0.4894
  747MOL0     H 3076   1.138  10.939   0.772 -1.6571 -0.1205 -0.2951
  747MOL0     H 3077   1.127  10.764   0.782 -1.7315  0.6608 -0.0180
  747MOL0     H 3078   1.090  10.990   0.997 -1.3424 -0.2775  1.5248
  747MOL0     H 3079   1.036  10.829   1.037 -3.3693  0.4584 -1.7443
  747MOL0     H 3080   1.262  10.809   1.126 -0.7006  0.9004  0.0459
  747MOL0     H 3081   1.328  10.914   1.021  1.4847 -2.0971  0.8178
  747MOL0     H 3082   1.435  10.559   0.848 -0.6117  0.0587 -0.9957
  747MOL0     H 3083   0.656  10.890   0.672 -1.1667 -1.0706  0.6777
  747MOL0     H 3084   0.454  10.796   0.640 -1.6103 -0.6494  0.6505
  747MOL0     H 3085   0.308  10.878   0.712 -0.7974  2.1515  0.7271
  747MOL0     H 3086   0.413  10.960   0.599 -1.7821 -0.2037 -0.1788
  748MOL0     O 3087  10.773   3.827  11.065 -0.8764 -0.5742 -0.4699
  748MOL0     C 3088  10.812   3.763  11.173  0.3382 -1.0709 -0.0558
  748MOL0     O 3089  10.736   3.663  11.238  0.6117 -0.0845 -1.0143
  748MOL0     C 3090  10.605   3.652  11.199  0.7221 -0.3423  0.0543
  748MOL0     C 3091  10.503   3.729  11.265 -0.3981 -0.0534  0.2449
  748MOL0     C 3092  10.372   3.728  11.211 -0.4428  0.1048 -0.2761
  748MOL0     C 3093  10.332   3.650  11.106 -0.0509 -0.2311  0.2984
  748MOL0     O 3094  10.205   3.651  11.072  0.3118  0.1398  0.2252
  748MOL0     C 3095  10.157   3.531  11.004 -0.9311 -0.6087  1.2525
  748MOL0     C 3096  10.009   3.543  10.990  0.4244  0.6655 -0.9087
  748MOL0     C 3097   9.930   3.535  11.126 -0.5477 -0.3977  0.2053
  748MOL0     C 3098   9.782   3.562  11.094 -0.2542 -0.3535 -0.3511
  748MOL0     C 3099   9.691   3.538  11.210 -0.5092 -0.9103 -0.3382
  748MOL0     C 3100   9.653   3.386  11.239 -0.6136 -0.5573  0.4099
  748MOL0     C 3101   9.552   3.382  11.353 -0.6942  0.9758 -0.2247
  748MOL0     C 3102   9.565   3.247  11.433  0.2293  0.4026 -0.6536
  748MOL0     N 3103   9.453   3.230  11.527 -0.3897 -0.3226  0.3639
  748MOL0     C 3104   9.322   3.237  11.483 -1.0749 -0.5077 -1.1672
  748MOL0     C 3105   9.249   3.254  11.596 -0.1217  0.0930  0.1096
  748MOL0     C 3106   9.097   3.270  11.591  0.2608  0.5625  0.3424
  748MOL0     C 3107   9.061   3.412  11.558 -0.8307  0.1951 -1.2046
  748MOL0     C 3108   9.092   3.499  11.689 -0.3363 -0.1411  0.0025
  748MOL0     C 3109   9.033   3.642  11.671  0.5506  0.0399  0.4709
  748MOL0     O 3110   9.083   3.693  11.545 -0.3509 -0.2712  0.3744
  748MOL0     C 3111   9.217   3.711  11.532 -0.0295  0.7467  0.1179
  748MOL0     C 3112   9.298   3.763  11.639  0.2837  0.3753  0.7102
  748MOL0     C 3113   9.437   3.786  11.619 -0.2915  0.2753  1.0229
  748MOL0     C 3114   9.511   3.845  11.736  0.2126 -1.4164  0.4585
  748MOL0     C 3115   9.496   3.778  11.490 -0.4944 -0.6464 -0.0615
  748MOL0     C 3116   9.638   3.819  11.455 -1.5936  0.8433 -0.1882
  748MOL0     O 3117   9.744   3.814  11.545 -0.5715 -0.2289  0.1505
  748MOL0     C 3118   9.845   3.903  11.529 -0.6286  0.8563  0.2126
  748MOL0     C 3119   9.850   4.015  11.437 -0.7658 -0.2995  0.3004
  748MOL0     C 3120   9.964   4.096  11.425  0.0172  0.6801  0.1116
  748MOL0     C 3121  10.073   4.074  11.507  0.5852  1.1610 -0.6684
  748MOL0     O 3122  10.208   4.123  11.497  0.3644 -0.0390  0.3739
  748MOL0     C 3123  10.239   4.183  11.375  0.3388  0.1426 -0.2546
  748MOL0     C 3124  10.385   4.249  11.375 -0.4387  0.3724  0.0684
  748MOL0     C 3125  10.497   4.132  11.365 -0.0960 -0.5370  0.2685
  748MOL0     C 3126  10.642   4.200  11.348  0.2960  0.3930 -0.9662
  748MOL0     C 3127  10.753   4.087  11.346  1.2822  0.1834  0.2347
  748MOL0     C 3128  10.886   4.127  11.406 -0.4585 -0.3126 -0.0069
  748MOL0     C 3129  10.939   4.257  11.334 -0.9058  0.1969 -0.1192
  748MOL0     C 3130  10.960   4.247  11.180  0.1052  0.8011  0.3736
  748MOL0    Cl 3131  11.063   4.386  11.118 -0.3779 -0.1909  0.5474
  748MOL0     C 3132  10.060   3.967  11.601  0.2013 -0.5429  0.7817
  748MOL0     C 3133   9.952   3.884  11.612 -0.2192 -0.2333 -0.3345
  748MOL0     O 3134   9.654   3.826  11.334  0.0012  0.3764 -0.0704
  748MOL0     C 3135   9.412   3.723  11.390  0.4043  0.2298  0.9104
  748MOL0     C 3136   9.278   3.682  11.405  0.0905 -0.2242  0.9068
  748MOL0     N 3137   9.333   3.256  11.705 -0.0071  0.1513  0.0758
  748MOL0     N 3138   9.459   3.238  11.663 -0.7458  0.7382 -0.2924
  748MOL0     C 3139  10.433   3.580  11.045 -0.2743 -0.4136  0.3082
  748MOL0     C 3140  10.567   3.575  11.097 -0.1250 -0.2039  0.2541
  748MOL0     C 3141  10.960   3.768  11.208  0.6147 -0.2186  0.0148
  748MOL0     C 3142  11.050   3.769  11.103  0.4963 -0.5365  0.2911
  748MOL0     C 3143  11.186   3.782  11.123  0.2186 -0.2074 -0.5900
  748MOL0     C 3144  11.236   3.792  11.249  0.6339  0.5926  0.1994
  748MOL0     O 3145  11.378   3.797  11.263 -0.5314  0.0944 -0.5879
  748MOL0     C 3146  11.423   3.932  11.248  0.0066 -0.7939 -0.9503
  748MOL0     C 3147  11.399   4.027  11.370 -0.1482  0.0813 -0.4337
  748MOL0     C 3148  11.426   4.170  11.323  0.5514  0.2315 -0.6793
  748MOL0     C 3149  11.343   4.258  11.403 -0.4057 -0.0881 -0.9540
  748MOL0     C 3150  11.408   4.285  11.536 -0.0513 -0.4626 -0.9057
  748MOL0     C 3151  11.464   4.312  11.641  0.2536 -0.7700  0.8859
  748MOL0     C 3152  11.150   3.773  11.352 -0.0290  0.8209  1.4165
  748MOL0     C 3153  11.012   3.767  11.340  0.0011  1.0584 -0.0820
  748MOL0     C 3154  10.940   3.751  11.474  0.2386  0.4216  0.1841
  748MOL0     H 3155  10.541   3.792  11.346  2.6872  2.0078 -2.5422
  748MOL0     H 3156  10.293   3.792  11.249 -0.2213 -1.1144  2.5352
  748MOL0     H 3157  10.190   3.439  11.054  3.3270 -0.4877 -0.8996
  748MOL0     H 3158  10.199   3.515  10.905  2.4917  3.4527  1.7694
  748MOL0     H 3159   9.975   3.633  10.938 -1.2458  0.5812 -0.0407
  748MOL0     H 3160   9.962   3.466  10.929  0.5179  0.9289 -1.3134
  748MOL0     H 3161   9.937   3.434  11.167  2.0783  0.6498  2.6240
  748MOL0     H 3162   9.967   3.619  11.185 -1.8862  2.8411 -3.1914
  748MOL0     H 3163   9.766   3.665  11.062 -0.2255  0.2007  1.3327
  748MOL0     H 3164   9.735   3.497  11.019  0.1531  0.7958 -1.6305
  748MOL0     H 3165   9.597   3.594  11.200  0.8852  1.7700  0.6509
  748MOL0     H 3166   9.738   3.580  11.299 -0.7271 -0.3890 -0.4655
  748MOL0     H 3167   9.602   3.332  11.159 -0.0012 -2.5854  1.3281
  748MOL0     H 3168   9.749   3.336  11.257 -0.3074 -2.2137 -4.4280
  748MOL0     H 3169   9.452   3.404  11.312  0.0265  2.1686 -1.4398
  748MOL0     H 3170   9.580   3.454  11.429  2.4773  1.2478 -1.4871
  748MOL0     H 3171   9.563   3.168  11.358 -1.1228 -0.2691  0.0523
  748MOL0     H 3172   9.656   3.230  11.491  0.0574 -1.0396 -0.7787
  748MOL0     H 3173   9.281   3.252  11.384 -0.5979 -2.5527 -1.7129
  748MOL0     H 3174   9.043   3.234  11.679  2.7654  1.1613  2.2584
  748MOL0     H 3175   9.075   3.206  11.505  0.5941  1.2306 -0.2492
  748MOL0     H 3176   9.130   3.441  11.479  0.4651  0.0051 -0.1825
  748MOL0     H 3177   8.959   3.430  11.525 -0.7944  2.8474 -0.1238
  748MOL0     H 3178   9.042   3.455  11.777 -0.2001 -1.5608 -0.5960
  748MOL0     H 3179   9.197   3.507  11.717 -0.3776 -0.6899  0.3460
  748MOL0     H 3180   8.924   3.628  11.662  0.2221 -0.4113  3.8206
  748MOL0     H 3181   9.052   3.712  11.753 -0.0022 -1.0252  1.5500
  748MOL0     H 3182   9.254   3.770  11.738 -0.7582  0.0810  0.2739
  748MOL0     H 3183   9.589   3.773  11.760  0.2762 -2.3381 -2.2062
  748MOL0     H 3184   9.448   3.857  11.825  0.5642 -1.5488  0.7304
  748MOL0     H 3185   9.543   3.947  11.715  2.0054 -2.3217 -1.5586
  748MOL0     H 3186   9.769   4.034  11.367  0.8680 -1.0251 -1.8958
  748MOL0     H 3187   9.963   4.171  11.346  0.5559  1.3096  0.6836
  748MOL0     H 3188  10.244   4.106  11.297 -0.0291  0.2005 -0.3347
  748MOL0     H 3189  10.159   4.254  11.353 -0.2509 -1.0431 -2.2992
  748MOL0     H 3190  10.392   4.307  11.283 -2.7586 -0.7748 -0.9079
  748MOL0     H 3191  10.412   4.319  11.455 -1.1693  0.6348  0.0929
  748MOL0     H 3192  10.476   4.051  11.295 -0.3801 -0.3240  0.1021
  748MOL0     H 3193  10.491   4.077  11.459 -0.8248 -1.8773 -0.5449
  748MOL0     H 3194  10.657   4.260  11.438  0.7824 -0.2817 -0.5838
  748MOL0     H 3195  10.649   4.257  11.255  1.3060  1.0724 -0.4908
  748MOL0     H 3196  10.710   4.004  11.402  2.6072 -0.2188  0.6885
  748MOL0     H 3197  10.754   4.050  11.243  0.6544 -1.6035  0.8190
  748MOL0     H 3198  10.956   4.045  11.390 -0.8362 -0.7004  0.2804
  748MOL0     H 3199  10.883   4.145  11.514 -0.6421 -2.4078  0.3809
  748MOL0     H 3200  11.038   4.285  11.371 -0.7463  3.5014 -2.5668
  748MOL0     H 3201  10.878   4.344  11.360  1.1753  1.3594  1.2101
  748MOL0     H 3202  10.864   4.240  11.128  0.4811  1.7561 -0.4671
  748MOL0     H 3203  11.006   4.152  11.150 -1.2857  0.1159  0.3021
  748MOL0     H 3204  10.142   3.948  11.670  0.5665 -2.6902 -0.1841
  748MOL0     H 3205   9.939   3.799  11.678 -3.6796 -0.8016 -1.5385
  748MOL0     H 3206   9.442   3.704  11.288 -3.0494  0.3703 -0.2467
  748MOL0     H 3207   9.222   3.664  11.313  3.8529 -3.0843 -1.0868
  748MOL0     H 3208  10.409   3.525  10.954 -1.6042 -1.2725  1.1421
  748MOL0     H 3209  10.651   3.520  11.055  1.3337  1.1753  1.2434
  748MOL0     H 3210  11.014   3.777  11.001 -4.2215 -0.1739  1.7386
  748MOL0     H 3211  11.242   3.785  11.029  0.2566  1.2289 -0.5531
  748MOL0     H 3212  11.531   3.928  11.232  0.4576 -1.5119  1.7617
  748MOL0     H 3213  11.360   3.977  11.171 -0.9240  0.4733  0.4920
  748MOL0     H 3214  11.463   3.991  11.451  0.6410  1.1685 -0.5558
  748MOL0     H 3215  11.295   4.006  11.398 -0.4487 -1.9876 -2.8011
  748MOL0     H 3216  11.530   4.200  11.338  0.0353  0.7633  2.3507
  748MOL0     H 3217  11.384   4.186  11.223 -2.5199  2.1620  0.7653
  748MOL0     H 3218  11.245   4.209  11.410  0.0851 -1.0855 -0.9422
  748MOL0     H 3219  11.329   4.351  11.348  1.3782  1.2755  0.7508
  748MOL0     H 3220  11.507   4.329  11.738  2.6575  0.9958 -0.3768
  748MOL0     H 3221  11.201   3.779  11.448 -0.5444 -1.3407  1.8922
  748MOL0     H 3222  10.882   3.659  11.466  1.6644 -0.5307  0.4727
  748MOL0     H 3223  11.009   3.763  11.558  1.9139 -0.6747 -0.9772
  748MOL0     H 3224  10.861   3.824  11.493  0.8886  0.9541  0.9367
  749MOL0     O 3225   4.874   0.736   5.268 -0.3111  0.3488 -0.0574
  749MOL0     C 3226   4.875   0.730   5.144  0.0989 -0.7801 -1.3897
  749MOL0     O 3227   4.952   0.799   5.061  0.1807 -0.8736 -0.4690
  749MOL0     C 3228   5.013   0.916   5.087 -0.1368 -0.3169 -0.6169
  749MOL0     C 3229   5.157   0.926   5.086  0.0721 -0.0487  0.0815
  749MOL0     C 3230   5.219   1.049   5.107 -0.4742  0.0873 -0.2875
  749MOL0     C 3231   5.142   1.170   5.127  0.2876 -0.3714 -0.3012
  749MOL0     O 3232   5.190   1.297   5.142  0.0623  0.6992  0.0270
  749MOL0     C 3233   5.335   1.325   5.121 -0.3221  0.3980  0.2044
  749MOL0     C 3234   5.365   1.471   5.113  0.8785 -0.1627 -0.3440
  749MOL0     C 3235   5.279   1.553   5.022  0.6530 -0.7254  0.1668
  749MOL0     C 3236   5.280   1.506   4.874 -0.2433  0.3302  0.1572
  749MOL0     C 3237   5.246   1.622   4.776 -0.2487 -0.3991 -0.2959
  749MOL0     C 3238   5.101   1.661   4.784 -0.0575  0.1074  0.2628
  749MOL0     C 3239   5.001   1.568   4.713 -0.0690 -0.0505 -0.0318
  749MOL0     C 3240   4.864   1.615   4.713  0.1648  0.6942  0.5365
  749MOL0     N 3241   4.796   1.593   4.844 -0.1152  0.6239  0.4253
  749MOL0     C 3242   4.712   1.487   4.869 -0.0289  0.2720 -0.6240
  749MOL0     C 3243   4.640   1.517   4.979  0.2326 -0.1203  0.0916
  749MOL0     C 3244   4.526   1.439   5.033 -0.3594  0.7396  0.0543
  749MOL0     C 3245   4.385   1.487   5.001  0.6942 -0.0607 -0.3427
  749MOL0     C 3246   4.349   1.454   4.855 -0.0029  0.1605  0.1077
  749MOL0     C 3247   4.203   1.499   4.836  0.3496  0.6132  0.3032
  749MOL0     O 3248   4.107   1.440   4.918 -0.3458  0.2048 -0.0378
  749MOL0     C 3249   3.986   1.494   4.896  0.2342 -0.2186  0.0190
  749MOL0     C 3250   3.929   1.596   4.978 -0.2984 -0.9013 -0.4589
  749MOL0     C 3251   3.791   1.634   4.966  0.2251  0.1838  0.6402
  749MOL0     C 3252   3.728   1.727   5.072 -0.2414  0.2296 -0.2271
  749MOL0     C 3253   3.711   1.574   4.861 -0.2675  0.3163 -0.0945
  749MOL0     C 3254   3.579   1.617   4.832  0.1796 -0.8231 -0.6902
  749MOL0     O 3255   3.489   1.521   4.806  0.5586  0.2179 -0.1814
  749MOL0     C 3256   3.354   1.541   4.782  0.4393  0.3229 -1.3113
  749MOL0     C 3257   3.280   1.655   4.804  0.3002 -0.3846 -0.4115
  749MOL0     C 3258   3.139   1.642   4.804  0.2524 -0.2033 -1.1655
  749MOL0     C 3259   3.070   1.531   4.755  0.2494 -0.5493  0.0103
  749MOL0     O 3260   2.932   1.540   4.749  0.6952  0.0282  0.3273
  749MOL0     C 3261   2.867   1.423   4.708  0.0106 -0.0152  0.2886
  749MOL0     C 3262   2.720   1.439   4.748 -0.0402  0.1782 -0.1631
  749MOL0     C 3263   2.638   1.524   4.650 -0.0238 -0.2580  0.8830
  749MOL0     C 3264   2.491   1.481   4.623 -0.0015 -1.0484  0.3349
  749MOL0     C 3265   2.425   1.545   4.504 -0.1956 -0.5346 -0.1784
  749MOL0     C 3266   2.447   1.472   4.368 -0.0785 -0.6811 -0.4456
  749MOL0     C 3267   2.315   1.433   4.306  0.1922  0.1989 -0.6286
  749MOL0     C 3268   2.348   1.360   4.183 -0.1079 -0.2231 -0.5481
  749MOL0    Cl 3269   2.412   1.199   4.236  0.1568 -0.1495  0.3912
  749MOL0     C 3270   3.151   1.420   4.713  0.7676  0.7653  0.1925
  749MOL0     C 3271   3.289   1.429   4.738  1.1706 -0.4090  0.8265
  749MOL0     O 3272   3.557   1.737   4.815  0.2523 -0.3229  0.1158
  749MOL0     C 3273   3.768   1.473   4.783  0.8436  0.0615  0.4817
  749MOL0     C 3274   3.898   1.433   4.806  0.1359  0.7751  0.4397
  749MOL0     N 3275   4.696   1.634   5.021  1.4732 -0.3923 -0.3467
  749MOL0     N 3276   4.780   1.680   4.942 -0.9209 -0.7170  1.0045
  749MOL0     C 3277   5.001   1.155   5.141 -0.4892 -0.1634 -0.0499
  749MOL0     C 3278   4.943   1.035   5.113  0.0912 -0.2137 -0.1414
  749MOL0     C 3279   4.784   0.625   5.079  0.4486 -0.3238  0.5900
  749MOL0     C 3280   4.783   0.629   4.937 -0.4394 -1.1728 -0.4864
  749MOL0     C 3281   4.681   0.562   4.867 -0.0762  0.1822  0.2105
  749MOL0     C 3282   4.600   0.473   4.933  0.1222  0.0308 -0.0235
  749MOL0     O 3283   4.496   0.398   4.869  0.4130 -0.9079  0.1989
  749MOL0     C 3284   4.432   0.448   4.749 -0.3006 -0.2119  0.1711
  749MOL0     C 3285   4.304   0.372   4.703  0.7052 -0.3611  0.3087
  749MOL0     C 3286   4.353   0.231   4.649  0.3427 -0.4981 -0.3298
  749MOL0     C 3287   4.238   0.149   4.600 -0.1099 -0.0078 -0.3226
  749MOL0     C 3288   4.289   0.011   4.586  0.5899  0.9087  0.3907
  749MOL0     C 3289   4.340  -0.105   4.579 -0.4713  0.2151  0.2854
  749MOL0     C 3290   4.616   0.448   5.067 -0.4603  0.1312  0.6475
  749MOL0     C 3291   4.705   0.529   5.140  0.4233  1.6364 -0.0126
  749MOL0     C 3292   4.709   0.494   5.290 -0.4254 -0.6896  0.5095
  749MOL0     H 3293   5.214   0.834   5.086  0.9677  0.4893  1.3124
  749MOL0     H 3294   5.326   1.061   5.110 -0.7028  2.4063  2.3090
  749MOL0     H 3295   5.365   1.275   5.028 -1.4473 -0.1519  0.1092
  749MOL0     H 3296   5.394   1.285   5.204 -3.1069 -3.6311  0.5699
  749MOL0     H 3297   5.349   1.507   5.215  0.3217 -1.3978  0.0221
  749MOL0     H 3298   5.469   1.479   5.081  0.4084  0.4367 -1.8024
  749MOL0     H 3299   5.174   1.547   5.052 -0.2144 -0.1099 -2.4034
  749MOL0     H 3300   5.306   1.659   5.026 -0.2703 -0.4653 -0.1737
  749MOL0     H 3301   5.374   1.454   4.853 -2.2404 -3.3430 -0.6891
  749MOL0     H 3302   5.204   1.427   4.878 -0.5679  0.5083 -1.5556
  749MOL0     H 3303   5.271   1.594   4.673 -1.5317  0.6373 -0.9242
  749MOL0     H 3304   5.302   1.713   4.798 -0.1609 -0.1106 -1.6127
  749MOL0     H 3305   5.082   1.672   4.891 -0.6857 -0.2036  0.1886
  749MOL0     H 3306   5.089   1.763   4.747  1.1085  1.3843  3.1270
  749MOL0     H 3307   5.016   1.469   4.756 -0.0313 -0.7168 -1.5397
  749MOL0     H 3308   5.019   1.571   4.605 -0.9373 -0.4245 -0.1928
  749MOL0     H 3309   4.860   1.719   4.680 -1.6059  0.8140  1.0498
  749MOL0     H 3310   4.801   1.573   4.634  0.5260 -0.8618  1.0279
  749MOL0     H 3311   4.686   1.397   4.814 -1.2075  2.3855 -3.7809
  749MOL0     H 3312   4.539   1.448   5.142  1.6429 -2.5378  0.2366
  749MOL0     H 3313   4.537   1.330   5.026  0.9514  0.8598 -0.0726
  749MOL0     H 3314   4.315   1.434   5.067 -4.0809  0.2527 -4.5850
  749MOL0     H 3315   4.381   1.593   5.025  1.8844 -0.3973  1.6709
  749MOL0     H 3316   4.414   1.515   4.792  1.7064  0.6756  2.2655
  749MOL0     H 3317   4.374   1.351   4.830  1.3609  0.5554 -0.2297
  749MOL0     H 3318   4.200   1.608   4.849  0.4174  0.9418 -2.0195
  749MOL0     H 3319   4.168   1.499   4.732 -1.2400 -1.1525  0.7920
  749MOL0     H 3320   3.996   1.637   5.054 -1.5584 -0.3000  0.3523
  749MOL0     H 3321   3.738   1.832   5.041 -1.5010  0.6620  0.7470
  749MOL0     H 3322   3.782   1.724   5.166 -1.0133 -0.0585  0.2168
  749MOL0     H 3323   3.624   1.699   5.091 -0.3759  0.9090  0.0626
  749MOL0     H 3324   3.318   1.756   4.817 -2.4503  0.5851  0.9615
  749MOL0     H 3325   3.077   1.732   4.803  0.1291 -0.2727 -0.5068
  749MOL0     H 3326   2.876   1.414   4.599 -1.1182 -1.5467  0.2891
  749MOL0     H 3327   2.897   1.323   4.738 -0.5784 -0.4203 -0.4375
  749MOL0     H 3328   2.666   1.345   4.766 -2.2814  1.7666  2.3002
  749MOL0     H 3329   2.712   1.486   4.847  0.0679  2.0536 -1.0191
  749MOL0     H 3330   2.683   1.525   4.550 -1.1977 -2.9794  0.2401
  749MOL0     H 3331   2.638   1.628   4.684 -0.3135 -0.4295  1.4352
  749MOL0     H 3332   2.440   1.502   4.717  0.6780 -2.4890  1.0492
  749MOL0     H 3333   2.493   1.377   4.589  1.9229 -0.2605 -2.3693
  749MOL0     H 3334   2.317   1.550   4.521 -0.3113 -0.8585 -0.7654
  749MOL0     H 3335   2.467   1.645   4.493  0.7707 -0.9888 -0.8105
  749MOL0     H 3336   2.510   1.383   4.373  2.7506  1.2162 -0.4913
  749MOL0     H 3337   2.495   1.547   4.304 -0.6857 -1.7805 -2.2735
  749MOL0     H 3338   2.266   1.528   4.280  5.0098  1.9094 -5.3454
  749MOL0     H 3339   2.251   1.378   4.376 -0.8383  2.7917  0.6187
  749MOL0     H 3340   2.430   1.413   4.132  0.5770  0.3006  1.0308
  749MOL0     H 3341   2.261   1.361   4.117 -0.7360  0.1807  0.2676
  749MOL0     H 3342   3.108   1.328   4.675  1.8654  0.9694 -1.6686
  749MOL0     H 3343   3.352   1.346   4.708 -0.2474 -0.8563 -1.1258
  749MOL0     H 3344   3.714   1.418   4.706 -3.7624  3.7867  0.5988
  749MOL0     H 3345   3.949   1.355   4.750 -0.3881  1.4609 -1.0455
  749MOL0     H 3346   4.934   1.238   5.160 -1.3701 -1.5580  3.8554
  749MOL0     H 3347   4.836   1.040   5.127  0.3310  2.3677  1.5784
  749MOL0     H 3348   4.861   0.686   4.888  0.5991 -0.7710  1.5174
  749MOL0     H 3349   4.682   0.584   4.760 -1.8104  1.2970  0.3975
  749MOL0     H 3350   4.401   0.552   4.765 -0.5183 -0.1700 -0.4710
  749MOL0     H 3351   4.502   0.429   4.667  1.5757 -1.8409  2.0416
  749MOL0     H 3352   4.259   0.424   4.618  1.6158 -0.8279 -0.4759
  749MOL0     H 3353   4.226   0.375   4.780 -1.5988 -1.3086 -1.8476
  749MOL0     H 3354   4.430   0.243   4.572 -1.0170 -0.8872 -1.8124
  749MOL0     H 3355   4.410   0.185   4.730  0.8655 -2.4000 -1.7096
  749MOL0     H 3356   4.215   0.178   4.496  0.2452 -0.9764 -0.6816
  749MOL0     H 3357   4.153   0.155   4.668 -0.0961 -0.1539 -0.2936
  749MOL0     H 3358   4.401  -0.193   4.575 -0.9538 -0.2266  1.8315
  749MOL0     H 3359   4.558   0.368   5.111  1.4021 -1.3551  0.5558
  749MOL0     H 3360   4.811   0.474   5.325 -0.5227 -0.4784  0.9225
  749MOL0     H 3361   4.659   0.575   5.343  0.0661 -0.3245  0.4214
  749MOL0     H 3362   4.661   0.398   5.313  1.8225 -1.7933  0.9346
  750MOL0     O 3363   3.417   2.888   8.599  0.5415  0.4024 -0.4670
  750MOL0     C 3364   3.302   2.850   8.581 -0.3391  0.8752 -0.0300
  750MOL0     O 3365   3.243   2.745   8.643  0.4475 -0.5303  0.0520
  750MOL0     C 3366   3.328   2.677   8.722  0.4079  0.4180 -0.4569
  750MOL0     C 3367   3.349   2.726   8.853 -0.0771 -0.4724 -0.2008
  750MOL0     C 3368   3.429   2.651   8.944  0.1940 -0.4521  0.5172
  750MOL0     C 3369   3.484   2.528   8.903 -1.3410 -0.1372 -0.4385
  750MOL0     O 3370   3.557   2.470   9.005 -0.0380  0.2352 -0.3676
  750MOL0     C 3371   3.666   2.375   8.987 -0.1092  0.2233 -0.6207
  750MOL0     C 3372   3.798   2.431   8.938 -0.0305  0.5412  0.4705
  750MOL0     C 3373   3.885   2.474   9.049 -0.5912 -0.6279  0.3242
  750MOL0     C 3374   3.828   2.574   9.142  0.4906 -0.1183  0.4595
  750MOL0     C 3375   3.896   2.611   9.274  0.3956  1.0563 -0.4628
  750MOL0     C 3376   4.047   2.590   9.267  0.0332  0.4643  0.0957
  750MOL0     C 3377   4.121   2.650   9.392  0.1281 -0.4038  0.1144
  750MOL0     C 3378   4.267   2.650   9.382 -0.1286 -1.4203  0.2476
  750MOL0     N 3379   4.334   2.658   9.508  0.0631 -1.4916 -0.6299
  750MOL0     C 3380   4.430   2.575   9.565  0.2367 -0.0971  0.1065
  750MOL0     C 3381   4.492   2.651   9.655 -1.0310  0.4461 -0.0412
  750MOL0     C 3382   4.618   2.619   9.725  0.9175 -0.3961 -0.2826
  750MOL0     C 3383   4.707   2.744   9.735  0.4063  0.1294  1.5929
  750MOL0     C 3384   4.853   2.714   9.758  0.4304  0.4445 -0.4878
  750MOL0     C 3385   4.926   2.839   9.783 -0.4023 -1.1816  0.6536
  750MOL0     O 3386   4.940   2.914   9.663  0.5298  1.1925  0.4364
  750MOL0     C 3387   5.042   2.893   9.566 -0.2848 -0.3632 -0.2348
  750MOL0     C 3388   5.035   2.973   9.460  0.6549  0.7333  0.5008
  750MOL0     C 3389   5.145   2.981   9.369 -0.8276  0.1437  1.1594
  750MOL0     C 3390   5.144   3.083   9.252 -0.6371 -0.0411 -0.3849
  750MOL0     C 3391   5.266   2.896   9.392  0.1208  0.1936 -0.4407
  750MOL0     C 3392   5.393   2.897   9.314 -0.6569  0.0917 -0.0363
  750MOL0     O 3393   5.394   2.926   9.179 -0.2081  0.0159 -0.1398
  750MOL0     C 3394   5.502   2.878   9.114  0.5743 -0.0359  0.0600
  750MOL0     C 3395   5.629   2.942   9.098  0.1849 -0.4554 -0.1513
  750MOL0     C 3396   5.740   2.885   9.027  0.7132 -0.7343 -0.0589
  750MOL0     C 3397   5.715   2.759   8.965 -0.2646 -0.1206 -0.6648
  750MOL0     O 3398   5.814   2.682   8.899 -0.7134 -0.5597  0.0653
  750MOL0     C 3399   5.950   2.711   8.928  0.2645 -0.4860  0.7305
  750MOL0     C 3400   6.033   2.594   8.888 -0.4674  0.1248 -0.0123
  750MOL0     C 3401   6.183   2.620   8.929  0.2693  0.1080  1.1552
  750MOL0     C 3402   6.276   2.523   8.876 -0.8078 -0.0024 -0.3245
  750MOL0     C 3403   6.420   2.532   8.929  1.4749 -0.4963 -0.4743
  750MOL0     C 3404   6.502   2.474   8.815  1.1158  0.0024 -0.1804
  750MOL0     C 3405   6.648   2.498   8.846  0.1061 -0.1818 -0.6204
  750MOL0     C 3406   6.732   2.426   8.737 -0.7761  0.1181  0.1591
  750MOL0    Cl 3407   6.881   2.356   8.806 -0.0884  0.2200 -0.0489
  750MOL0     C 3408   5.592   2.691   8.987  0.1517 -0.5005  0.6559
  750MOL0     C 3409   5.489   2.752   9.060  0.5734 -0.6979 -0.4332
  750MOL0     O 3410   5.494   2.890   9.384 -0.6045 -0.1186 -0.5274
  750MOL0     C 3411   5.264   2.816   9.499 -0.0261  0.5184 -0.2826
  750MOL0     C 3412   5.151   2.805   9.586  0.0697 -0.3830 -0.1376
  750MOL0     N 3413   4.421   2.766   9.675  0.3088 -0.2738  0.2142
  750MOL0     N 3414   4.331   2.774   9.589 -0.1561  0.0910  0.4687
  750MOL0     C 3415   3.459   2.480   8.767 -0.6719 -0.7708  0.1485
  750MOL0     C 3416   3.398   2.568   8.677  0.0709 -0.2781 -0.5166
  750MOL0     C 3417   3.216   2.937   8.501  0.2619  0.7350  0.2898
  750MOL0     C 3418   3.265   3.060   8.460 -0.0127 -0.7694  0.1933
  750MOL0     C 3419   3.189   3.152   8.382  0.4156  0.8557  0.4813
  750MOL0     C 3420   3.068   3.122   8.332  0.1377  0.2951 -0.5488
  750MOL0     O 3421   2.987   3.209   8.263 -0.4272  0.2184 -0.6049
  750MOL0     C 3422   3.043   3.322   8.189  0.7842 -0.6339  0.5301
  750MOL0     C 3423   3.037   3.446   8.276 -0.5153 -0.1870  0.2357
  750MOL0     C 3424   2.893   3.469   8.333 -0.5948  1.0272 -0.5667
  750MOL0     C 3425   2.880   3.595   8.427 -0.3808  0.2338 -0.2545
  750MOL0     C 3426   2.984   3.604   8.531  0.2114  0.2233 -0.1836
  750MOL0     C 3427   3.063   3.625   8.628  0.6641  0.7742  0.6617
  750MOL0     C 3428   3.021   2.996   8.367 -0.5870  0.0311 -0.3560
  750MOL0     C 3429   3.090   2.905   8.452  0.1659  0.1324  0.2965
  750MOL0     C 3430   3.023   2.779   8.485 -0.5689 -0.4557  0.1517
  750MOL0     H 3431   3.296   2.816   8.882  0.0397 -1.3028  2.9174
  750MOL0     H 3432   3.447   2.697   9.040 -1.6190 -0.6760  1.0097
  750MOL0     H 3433   3.621   2.296   8.926 -1.0642  0.4478 -0.2275
  750MOL0     H 3434   3.681   2.321   9.081  0.3211  1.7327  0.2048
  750MOL0     H 3435   3.855   2.358   8.880  0.9810 -0.0125  2.0676
  750MOL0     H 3436   3.769   2.504   8.863 -1.6696 -1.2688 -0.7482
  750MOL0     H 3437   3.926   2.389   9.104  0.1960  0.0602  0.8152
  750MOL0     H 3438   3.978   2.515   9.009  0.4255 -1.4332  1.7459
  750MOL0     H 3439   3.807   2.661   9.079  1.0879 -1.9676 -2.4837
  750MOL0     H 3440   3.728   2.536   9.166 -0.6574  0.0956 -3.3159
  750MOL0     H 3441   3.854   2.542   9.348  3.1155 -1.6629 -1.2470
  750MOL0     H 3442   3.874   2.717   9.291 -1.8991  0.8494 -1.8169
  750MOL0     H 3443   4.071   2.483   9.265  1.8591  0.8570 -1.4091
  750MOL0     H 3444   4.086   2.632   9.174 -1.6009  0.8123 -0.4516
  750MOL0     H 3445   4.082   2.608   9.485 -1.5197  1.5193  0.3657
  750MOL0     H 3446   4.105   2.758   9.383  1.0436 -0.3319 -0.7955
  750MOL0     H 3447   4.302   2.559   9.332 -2.2159 -0.9738 -2.2596
  750MOL0     H 3448   4.299   2.736   9.322 -1.3008 -0.5292  0.8669
  750MOL0     H 3449   4.469   2.484   9.521 -0.7468 -0.0483 -0.8864
  750MOL0     H 3450   4.667   2.534   9.675 -2.8972 -1.3735 -2.8849
  750MOL0     H 3451   4.592   2.574   9.821 -0.5641 -0.5669 -0.7307
  750MOL0     H 3452   4.685   2.797   9.642 -0.4320 -3.3967 -0.3944
  750MOL0     H 3453   4.672   2.793   9.826  0.8823 -0.5055  2.1326
  750MOL0     H 3454   4.877   2.644   9.838  1.4996 -0.9640 -1.9779
  750MOL0     H 3455   4.890   2.672   9.664  0.2846  1.4247 -0.9916
  750MOL0     H 3456   4.886   2.904   9.862  1.5475  0.8726  0.0749
  750MOL0     H 3457   5.030   2.832   9.817 -0.9204  1.7138  3.3117
  750MOL0     H 3458   4.945   3.033   9.451 -2.5937 -3.5695  1.1722
  750MOL0     H 3459   5.048   3.136   9.249  0.5650  2.5194  2.0889
  750MOL0     H 3460   5.177   3.030   9.162  0.1255  0.1836 -0.2421
  750MOL0     H 3461   5.213   3.167   9.258 -0.5391 -0.0794 -0.9072
  750MOL0     H 3462   5.628   3.046   9.129 -1.4990 -0.3825 -0.3583
  750MOL0     H 3463   5.832   2.941   9.020  0.6026 -0.7523 -2.3850
  750MOL0     H 3464   5.986   2.792   8.864 -3.6247 -0.7568 -2.1264
  750MOL0     H 3465   5.970   2.745   9.030  0.0047  2.1337 -0.0191
  750MOL0     H 3466   5.983   2.503   8.921  1.0662  0.2422  2.9537
  750MOL0     H 3467   6.025   2.581   8.780  0.8950  2.6662 -0.5048
  750MOL0     H 3468   6.182   2.609   9.038 -1.1633  0.5833  1.2068
  750MOL0     H 3469   6.207   2.719   8.889  0.5848 -0.4579 -0.0872
  750MOL0     H 3470   6.270   2.537   8.767  1.7071 -0.0256 -0.5276
  750MOL0     H 3471   6.246   2.420   8.898 -0.6098 -0.2292 -1.0819
  750MOL0     H 3472   6.437   2.640   8.935 -1.4805  0.0147  0.5419
  750MOL0     H 3473   6.430   2.497   9.032 -0.6559  0.9769  0.3287
  750MOL0     H 3474   6.479   2.524   8.721 -0.8387 -2.7034 -1.2802
  750MOL0     H 3475   6.488   2.368   8.794 -1.1027  0.3982 -0.9726
  750MOL0     H 3476   6.666   2.462   8.948  0.5953 -1.4231 -1.1177
  750MOL0     H 3477   6.669   2.605   8.843  1.6619 -0.4857 -1.5133
  750MOL0     H 3478   6.759   2.494   8.656  1.4485 -1.8032 -0.8164
  750MOL0     H 3479   6.673   2.359   8.674 -1.1217  2.0814 -1.7179
  750MOL0     H 3480   5.584   2.591   8.946  1.6125  0.1193 -1.3111
  750MOL0     H 3481   5.395   2.699   9.062  0.7754 -1.0451  0.9002
  750MOL0     H 3482   5.336   2.738   9.521 -1.7366 -1.1659 -0.2710
  750MOL0     H 3483   5.150   2.738   9.671 -0.0071  0.9644  0.9535
  750MOL0     H 3484   3.511   2.388   8.743 -1.3556 -1.2942  0.6386
  750MOL0     H 3485   3.392   2.547   8.571 -1.6106  1.8068 -0.9189
  750MOL0     H 3486   3.363   3.095   8.491 -1.1478  0.0295  3.1976
  750MOL0     H 3487   3.242   3.244   8.359 -0.4267  1.2053 -0.1201
  750MOL0     H 3488   3.149   3.317   8.161  0.2027  0.9733 -2.3018
  750MOL0     H 3489   2.979   3.347   8.104 -0.3146  2.1453  2.0414
  750MOL0     H 3490   3.071   3.536   8.223 -0.6095  0.8232  1.8278
  750MOL0     H 3491   3.105   3.440   8.361 -0.8923 -2.0432  0.4519
  750MOL0     H 3492   2.815   3.467   8.256 -1.9103  0.3085  0.7362
  750MOL0     H 3493   2.871   3.383   8.397 -1.5322 -0.4304 -2.7409
  750MOL0     H 3494   2.781   3.590   8.473 -0.4952 -0.5928 -0.5650
  750MOL0     H 3495   2.878   3.690   8.372  1.3772  1.0495  1.0258
  750MOL0     H 3496   3.135   3.645   8.705  1.1162 -4.0147  1.8062
  750MOL0     H 3497   2.921   2.967   8.338 -0.3714 -3.1239  1.6096
  750MOL0     H 3498   3.001   2.776   8.592 -1.0844 -0.3308  0.0511
  750MOL0     H 3499   2.930   2.768   8.429 -0.2173  2.1198 -1.0686
  750MOL0     H 3500   3.095   2.697   8.474 -1.1481 -1.9586  5.0708
  751MOL0     O 3501   7.960  10.608   9.917  0.2204 -0.5231 -0.4892
  751MOL0     C 3502   7.870  10.567   9.991 -0.0101 -0.9863  0.9173
  751MOL0     O 3503   7.841  10.625  10.110 -0.0799  0.3562 -0.0223
  751MOL0     C 3504   7.934  10.697  10.180  0.4958  0.1530  0.6818
  751MOL0     C 3505   8.073  10.673  10.181 -0.0876 -0.3595  0.8250
  751MOL0     C 3506   8.147  10.748  10.259 -0.0991  0.4182  0.0114
  751MOL0     C 3507   8.104  10.838  10.344 -0.0747 -0.7128  0.1613
  751MOL0     O 3508   8.197  10.921  10.410 -0.0714 -0.2453 -0.0022
  751MOL0     C 3509   8.177  11.049  10.468  0.5479  0.7727  0.4723
  751MOL0     C 3510   8.283  11.098  10.568 -0.3998  0.3012 -0.8130
  751MOL0     C 3511   8.255  11.230  10.641  0.2532  0.1923 -0.6426
  751MOL0     C 3512   8.378  11.254  10.731 -0.1594  0.4464 -0.6032
  751MOL0     C 3513   8.399  11.396  10.776 -0.0368 -0.4111 -0.1442
  751MOL0     C 3514   8.285  11.448  10.868 -0.2369  0.6876 -0.2862
  751MOL0     C 3515   8.214  11.560  10.790 -0.1053  0.4209 -0.9978
  751MOL0     C 3516   8.103  11.636  10.871  0.2759  0.0158  0.7454
  751MOL0     N 3517   8.161  11.745  10.950 -0.2736  0.9216 -0.5986
  751MOL0     C 3518   8.262  11.748  11.054  0.2443 -0.3734 -0.5053
  751MOL0     C 3519   8.279  11.878  11.088 -0.7193  1.0676  0.1619
  751MOL0     C 3520   8.378  11.929  11.190 -0.1670  0.1009 -0.4661
  751MOL0     C 3521   8.511  11.933  11.126 -1.5168 -0.2389 -0.3191
  751MOL0     C 3522   8.599  12.006  11.221  0.1125 -0.3498 -0.4729
  751MOL0     C 3523   8.660  11.912  11.332  0.5318 -0.2096  0.0534
  751MOL0     O 3524   8.688  11.782  11.284  0.2893  0.3989  0.4126
  751MOL0     C 3525   8.800  11.755  11.210  0.4391 -0.2396 -0.3117
  751MOL0     C 3526   8.900  11.856  11.189  1.0595  0.0840 -0.6248
  751MOL0     C 3527   9.022  11.817  11.138  0.8579 -0.0632  0.5112
  751MOL0     C 3528   9.127  11.930  11.136  0.0742  0.2328  0.3768
  751MOL0     C 3529   9.037  11.678  11.099 -0.3254 -0.0166  1.3274
  751MOL0     C 3530   9.160  11.625  11.031 -0.6193  0.2647 -0.1900
  751MOL0     O 3531   9.212  11.505  11.082  0.9078  0.8761  0.9742
  751MOL0     C 3532   9.341  11.458  11.050 -0.4503 -0.0292 -0.3315
  751MOL0     C 3533   9.402  11.379  11.152  0.5894 -0.5522  0.4081
  751MOL0     C 3534   9.537  11.335  11.131  0.4253  0.7675 -0.0469
  751MOL0     C 3535   9.603  11.372  11.011 -0.7324  0.5513 -0.4349
  751MOL0     O 3536   9.739  11.334  11.000 -0.9435  0.2308 -0.2965
  751MOL0     C 3537   9.828  11.412  10.921 -0.4884 -0.1650  0.4032
  751MOL0     C 3538   9.941  11.445  10.998  0.3216  0.5236 -0.1603
  751MOL0     C 3539  10.051  11.525  10.929  0.2642 -0.0937  0.0761
  751MOL0     C 3540  10.163  11.560  11.027 -0.2977 -0.0966 -0.7577
  751MOL0     C 3541  10.281  11.625  10.966 -0.9265 -0.0508  1.4354
  751MOL0     C 3542  10.246  11.765  10.907 -1.0124  0.2596 -0.7438
  751MOL0     C 3543  10.364  11.820  10.816 -1.2321  1.2712  0.7268
  751MOL0     C 3544  10.339  11.962  10.793 -0.7484  0.9730  0.8196
  751MOL0    Cl 3545  10.202  11.964  10.688 -0.1248 -0.0141 -0.3534
  751MOL0     C 3546   9.539  11.443  10.908 -0.1819  0.8410  0.6065
  751MOL0     C 3547   9.410  11.479  10.924  0.0806  1.7091 -0.2874
  751MOL0     O 3548   9.213  11.695  10.947  0.5293  0.1466  0.4702
  751MOL0     C 3549   8.932  11.591  11.109  0.0506 -1.2297  0.3127
  751MOL0     C 3550   8.815  11.626  11.176 -0.8103  0.7266  0.4934
  751MOL0     N 3551   8.188  11.953  11.014 -0.1416 -0.1758  0.2086
  751MOL0     N 3552   8.122  11.871  10.933 -0.4393 -1.1315  0.4052
  751MOL0     C 3553   7.964  10.846  10.369  0.3990 -0.3862 -0.3993
  751MOL0     C 3554   7.879  10.775  10.286  0.7365  0.7059 -0.2839
  751MOL0     C 3555   7.785  10.447   9.937  0.6043 -0.6621  0.1441
  751MOL0     C 3556   7.827  10.393   9.816 -0.1420  0.4414 -1.1743
  751MOL0     C 3557   7.745  10.292   9.762  0.7096  0.4938  0.1548
  751MOL0     C 3558   7.622  10.249   9.811 -0.2558  0.2975  0.6814
  751MOL0     O 3559   7.553  10.152   9.746 -0.3159 -0.4535 -0.5839
  751MOL0     C 3560   7.421  10.117   9.791 -0.3932 -0.3922 -1.0511
  751MOL0     C 3561   7.358  10.009   9.707 -0.1248  1.1101  0.2860
  751MOL0     C 3562   7.363  10.044   9.561  0.4764 -0.1624 -0.5494
  751MOL0     C 3563   7.262  10.164   9.533 -0.1605  0.2186  0.6363
  751MOL0     C 3564   7.247  10.168   9.380  0.3294 -1.0002  0.1252
  751MOL0     C 3565   7.251  10.174   9.256 -0.1106 -0.1580  0.7460
  751MOL0     C 3566   7.585  10.306   9.933 -0.5286  0.4150 -0.4245
  751MOL0     C 3567   7.670  10.399  10.004 -0.2833  0.1424 -0.2489
  751MOL0     C 3568   7.631  10.443  10.140 -0.2723  0.4435 -0.1206
  751MOL0     H 3569   8.112  10.609  10.102 -1.8042  0.0185 -0.3944
  751MOL0     H 3570   8.255  10.737  10.254 -0.1172 -0.0685  0.6494
  751MOL0     H 3571   8.082  11.044  10.522  1.0773 -1.9726  1.3124
  751MOL0     H 3572   8.182  11.131  10.395 -0.2089  2.2628  2.0330
  751MOL0     H 3573   8.306  11.020  10.641  5.4068 -1.4749 -3.9045
  751MOL0     H 3574   8.377  11.104  10.511  0.9053 -1.0115  1.0729
  751MOL0     H 3575   8.238  11.310  10.567 -0.7320 -0.4638 -1.1420
  751MOL0     H 3576   8.170  11.224  10.709  1.3383 -0.9643  0.6617
  751MOL0     H 3577   8.369  11.189  10.819 -1.3934  1.4272  0.0275
  751MOL0     H 3578   8.460  11.222  10.667 -0.9623 -1.7045 -0.6659
  751MOL0     H 3579   8.427  11.467  10.697  0.6392  0.3114  0.7221
  751MOL0     H 3580   8.490  11.390  10.836 -0.4615 -0.1220  0.5371
  751MOL0     H 3581   8.215  11.368  10.890 -2.3893  2.3618 -0.6781
  751MOL0     H 3582   8.314  11.501  10.960 -1.2939  2.9267 -1.1572
  751MOL0     H 3583   8.171  11.512  10.702  0.5429 -1.0155 -0.5551
  751MOL0     H 3584   8.293  11.630  10.759 -0.1996  0.3860 -1.3152
  751MOL0     H 3585   8.038  11.681  10.795  0.8355 -0.1391  0.1684
  751MOL0     H 3586   8.032  11.578  10.931 -1.8052 -0.1745 -1.7094
  751MOL0     H 3587   8.309  11.666  11.108 -0.6996 -1.0527 -0.6964
  751MOL0     H 3588   8.387  11.860  11.274 -0.4164  0.8058  0.1483
  751MOL0     H 3589   8.347  12.023  11.236  3.0051  0.7552  0.5877
  751MOL0     H 3590   8.548  11.837  11.091  0.2267  1.5600 -4.0283
  751MOL0     H 3591   8.505  11.991  11.033 -1.5175  0.7532  0.2834
  751MOL0     H 3592   8.690  12.045  11.173  0.8937 -1.6209 -0.0784
  751MOL0     H 3593   8.553  12.097  11.262  1.4422 -0.9860  2.7422
  751MOL0     H 3594   8.735  11.961  11.395 -0.5912  0.9480  0.5408
  751MOL0     H 3595   8.582  11.885  11.404  1.1507 -0.4823  0.6356
  751MOL0     H 3596   8.887  11.962  11.211  2.0983  0.2767 -0.9010
  751MOL0     H 3597   9.095  12.017  11.078  2.0823  1.0651  0.4431
  751MOL0     H 3598   9.227  11.901  11.104 -0.0527  0.3093 -0.0956
  751MOL0     H 3599   9.134  11.976  11.236  0.4772  2.2591 -0.5335
  751MOL0     H 3600   9.352  11.343  11.242  3.1922 -2.1791  1.3289
  751MOL0     H 3601   9.600  11.283  11.201  2.1661  2.7191 -0.0596
  751MOL0     H 3602   9.851  11.349  10.835  3.1826 -3.5435  3.4926
  751MOL0     H 3603   9.781  11.507  10.892 -2.4790 -0.8129  1.3022
  751MOL0     H 3604   9.907  11.494  11.089 -0.4129 -2.0785  1.0639
  751MOL0     H 3605   9.978  11.344  11.020  1.5082  0.5120 -1.9610
  751MOL0     H 3606  10.008  11.621  10.899 -1.0207  0.1833  2.5378
  751MOL0     H 3607  10.087  11.468  10.843  1.6060 -2.4146  2.0420
  751MOL0     H 3608  10.204  11.463  11.059 -0.6637  0.5975  2.0750
  751MOL0     H 3609  10.123  11.615  11.113 -0.9121 -1.8121  0.1000
  751MOL0     H 3610  10.365  11.628  11.035 -0.7299  0.2643  1.1882
  751MOL0     H 3611  10.327  11.562  10.889  0.9921  0.9407  1.7043
  751MOL0     H 3612  10.219  11.835  10.988 -0.4516 -1.1034  0.6697
  751MOL0     H 3613  10.162  11.752  10.838 -1.1916  0.2134 -0.5192
  751MOL0     H 3614  10.371  11.763  10.722  2.4212  0.7862  1.1632
  751MOL0     H 3615  10.458  11.805  10.869 -2.1448 -0.3055  1.9853
  751MOL0     H 3616  10.420  12.025  10.754 -0.2464  1.4059  2.4815
  751MOL0     H 3617  10.328  12.004  10.893 -0.6086 -0.4918  1.4656
  751MOL0     H 3618   9.589  11.468  10.815  1.1594 -0.8631  0.8267
  751MOL0     H 3619   9.362  11.524  10.837 -1.0722  0.1607 -0.4878
  751MOL0     H 3620   8.939  11.490  11.069 -3.4189 -1.0759 -1.0244
  751MOL0     H 3621   8.733  11.555  11.183  1.2471 -1.9712 -1.0037
  751MOL0     H 3622   7.929  10.905  10.453  1.9121 -3.3145  2.5096
  751MOL0     H 3623   7.773  10.771  10.308  1.0016 -1.6491  0.8382
  751MOL0     H 3624   7.925  10.418   9.775  0.4743  1.4347  0.7851
  751MOL0     H 3625   7.791  10.235   9.681 -1.4181 -2.0341  0.5919
  751MOL0     H 3626   7.429  10.070   9.890  0.4419  2.1396  0.1491
  751MOL0     H 3627   7.360  10.206   9.808  2.5072  1.1385  2.7056
  751MOL0     H 3628   7.259   9.987   9.748 -1.1324  1.2788 -1.9594
  751MOL0     H 3629   7.422   9.922   9.727  0.4432  1.9532  2.4923
  751MOL0     H 3630   7.461  10.070   9.520  1.4381 -2.9189 -0.2211
  751MOL0     H 3631   7.327   9.955   9.509 -1.7014  0.0452  0.4902
  751MOL0     H 3632   7.307  10.258   9.565 -0.6803  1.0958 -1.0740
  751MOL0     H 3633   7.169  10.144   9.587  1.0321 -1.4729  2.1910
  751MOL0     H 3634   7.234  10.181   9.150  0.9559 -0.8531  0.5066
  751MOL0     H 3635   7.484  10.285   9.968  0.0149 -2.6448 -0.4467
  751MOL0     H 3636   7.582  10.358  10.190 -2.5167  1.9232  0.3224
  751MOL0     H 3637   7.722  10.460  10.198 -0.0076  1.3319 -0.7704
  751MOL0     H 3638   7.565  10.530  10.137 -0.2399  0.4553 -0.6009
  752MOL0     O 3639   4.897   9.340   6.238  0.0747 -0.5818 -0.2422
  752MOL0     C 3640   4.987   9.319   6.322  0.3953  0.1105  0.0031
  752MOL0     O 3641   4.994   9.192   6.389  0.4430 -0.8379 -0.1706
  752MOL0     C 3642   4.874   9.134   6.422 -0.1282  0.1198 -0.4944
  752MOL0     C 3643   4.763   9.205   6.469  1.0090  0.1029 -0.5334
  752MOL0     C 3644   4.644   9.130   6.506  0.0294 -0.0822  0.1833
  752MOL0     C 3645   4.644   8.996   6.505 -0.3471 -0.1620  0.1035
  752MOL0     O 3646   4.533   8.938   6.554  0.3981 -1.2431 -0.1032
  752MOL0     C 3647   4.529   8.800   6.574 -0.1696 -0.2860 -0.2248
  752MOL0     C 3648   4.416   8.759   6.665  0.2074  0.5662 -0.5637
  752MOL0     C 3649   4.303   8.691   6.580 -0.1216  0.8601 -0.5337
  752MOL0     C 3650   4.190   8.646   6.679  0.1737  0.3610 -0.6378
  752MOL0     C 3651   4.057   8.624   6.606 -0.2911  0.3883  0.0781
  752MOL0     C 3652   4.074   8.501   6.509  0.2762  0.4586  0.1242
  752MOL0     C 3653   3.938   8.457   6.444  0.1945  0.1567 -0.4141
  752MOL0     C 3654   3.922   8.302   6.479  0.0400  0.5896 -0.8307
  752MOL0     N 3655   3.792   8.252   6.467  0.5757  0.4438 -1.0713
  752MOL0     C 3656   3.738   8.215   6.347 -0.2392  0.0561  0.3431
  752MOL0     C 3657   3.607   8.197   6.373 -0.4048  0.3908 -0.5250
  752MOL0     C 3658   3.498   8.164   6.267  0.2832  0.3205 -1.2853
  752MOL0     C 3659   3.414   8.285   6.228 -0.1372 -0.2038  0.2614
  752MOL0     C 3660   3.452   8.348   6.088  0.3436 -0.2764 -0.1272
  752MOL0     C 3661   3.580   8.435   6.091  0.0866  0.3266  0.2563
  752MOL0     O 3662   3.693   8.373   6.035  0.8448  0.1698 -1.0244
  752MOL0     C 3663   3.818   8.418   6.060 -0.8610 -1.0317  0.3359
  752MOL0     C 3664   3.848   8.552   6.095 -0.8979 -0.6037  0.1827
  752MOL0     C 3665   3.982   8.593   6.119  0.0104 -0.8931 -0.9557
  752MOL0     C 3666   4.015   8.734   6.166  0.6186  0.1364 -0.1384
  752MOL0     C 3667   4.094   8.507   6.093  0.4459 -0.0894 -1.1701
  752MOL0     C 3668   4.237   8.554   6.104 -0.1965 -0.1163  0.2043
  752MOL0     O 3669   4.319   8.569   5.986  0.1528 -0.5254 -0.2526
  752MOL0     C 3670   4.435   8.639   5.993 -0.5409  0.0279 -0.8324
  752MOL0     C 3671   4.448   8.765   6.054 -0.4470 -0.3173 -0.5714
  752MOL0     C 3672   4.569   8.829   6.059  0.4386  0.8966 -1.1936
  752MOL0     C 3673   4.680   8.771   6.003 -0.3906 -0.2029  0.3793
  752MOL0     O 3674   4.800   8.839   6.004  0.6466 -0.8030 -0.6029
  752MOL0     C 3675   4.859   8.875   5.884  0.2634  0.3259 -0.0433
  752MOL0     C 3676   4.929   9.013   5.901  0.2894 -0.7545 -0.0226
  752MOL0     C 3677   5.072   8.997   5.948  0.0178  0.1961 -0.6455
  752MOL0     C 3678   5.141   9.128   5.986  0.2945 -0.1908  0.4928
  752MOL0     C 3679   5.161   9.234   5.874 -0.1218 -0.5946  0.0912
  752MOL0     C 3680   5.288   9.230   5.787 -0.1482  0.4099  0.3014
  752MOL0     C 3681   5.297   9.373   5.705 -0.3512  0.1917 -0.0925
  752MOL0     C 3682   5.442   9.387   5.666 -0.0067  0.0028  0.7911
  752MOL0    Cl 3683   5.506   9.250   5.563  0.1937  0.1495  0.0120
  752MOL0     C 3684   4.669   8.648   5.934 -0.6532 -0.0380 -0.4554
  752MOL0     C 3685   4.545   8.580   5.932  0.5904  0.4247  0.0327
  752MOL0     O 3686   4.272   8.595   6.213 -0.0177 -0.1134 -0.7968
  752MOL0     C 3687   4.065   8.381   6.055 -0.4447 -0.6588  0.1942
  752MOL0     C 3688   3.927   8.333   6.046 -0.8002  0.0860  0.8524
  752MOL0     N 3689   3.580   8.202   6.509 -0.4819  0.4713  0.1470
  752MOL0     N 3690   3.693   8.237   6.557 -0.0836 -0.1435 -0.3121
  752MOL0     C 3691   4.741   8.926   6.433 -0.1498 -0.2340  0.6162
  752MOL0     C 3692   4.854   8.998   6.389  0.1371  0.0029  0.1777
  752MOL0     C 3693   5.099   9.410   6.342 -0.3412  0.6728  0.1263
  752MOL0     C 3694   5.178   9.380   6.459  0.6284  0.1819  0.4374
  752MOL0     C 3695   5.282   9.466   6.488  0.2324 -0.8858  1.1355
  752MOL0     C 3696   5.293   9.601   6.429  0.6113  0.1716  0.9058
  752MOL0     O 3697   5.382   9.699   6.466  0.8465  0.2224  0.2418
  752MOL0     C 3698   5.434   9.689   6.604 -0.1225 -0.4746 -0.7912
  752MOL0     C 3699   5.476   9.822   6.663  1.0254  0.0791  0.7632
  752MOL0     C 3700   5.592   9.884   6.575  0.2571  0.0593  0.8327
  752MOL0     C 3701   5.724   9.816   6.593 -0.2289  0.1267 -0.0046
  752MOL0     C 3702   5.817   9.813   6.473  0.7302  0.9354  0.2483
  752MOL0     C 3703   5.903   9.805   6.387  0.0790  0.1754 -0.5807
  752MOL0     C 3704   5.220   9.617   6.308 -0.1977  0.9917 -0.0989
  752MOL0     C 3705   5.126   9.521   6.266 -0.6770 -0.3456 -0.2092
  752MOL0     C 3706   5.055   9.551   6.140  1.1765 -0.6505  0.2740
  752MOL0     H 3707   4.754   9.309   6.497  0.0909 -0.3842  1.0986
  752MOL0     H 3708   4.560   9.180   6.552 -0.8542 -2.5388  1.4187
  752MOL0     H 3709   4.620   8.767   6.624 -0.1968  1.9403  1.4620
  752MOL0     H 3710   4.525   8.748   6.479  1.1999 -1.5343  0.3720
  752MOL0     H 3711   4.443   8.684   6.741 -2.9723 -0.3368 -0.1608
  752MOL0     H 3712   4.375   8.850   6.711 -0.1976  0.1375 -0.0496
  752MOL0     H 3713   4.273   8.757   6.498 -1.9888  0.6272 -0.0779
  752MOL0     H 3714   4.335   8.595   6.537  0.0579  0.3835  0.6241
  752MOL0     H 3715   4.222   8.554   6.730 -0.5773 -0.1890 -1.1390
  752MOL0     H 3716   4.175   8.717   6.761 -2.3037  1.2411 -1.7583
  752MOL0     H 3717   4.022   8.711   6.551  1.3923  2.1727  1.6488
  752MOL0     H 3718   3.981   8.601   6.681  0.1239 -3.1947 -0.3793
  752MOL0     H 3719   4.136   8.534   6.424  0.2937  1.4128  0.5035
  752MOL0     H 3720   4.117   8.420   6.568 -3.2449 -2.6957 -1.2091
  752MOL0     H 3721   3.946   8.454   6.335 -1.1436 -4.5739 -0.5919
  752MOL0     H 3722   3.862   8.525   6.483 -0.3103  0.7713 -2.3470
  752MOL0     H 3723   3.969   8.253   6.394  1.7400 -0.1417  0.4585
  752MOL0     H 3724   3.957   8.263   6.575  0.4958 -2.0547 -1.9811
  752MOL0     H 3725   3.776   8.203   6.246 -0.1587  1.0583  0.2440
  752MOL0     H 3726   3.433   8.103   6.330 -0.0373  1.2174 -0.7242
  752MOL0     H 3727   3.541   8.102   6.187  2.0361 -0.3296  0.0730
  752MOL0     H 3728   3.308   8.259   6.219 -0.3775  0.2546  1.5927
  752MOL0     H 3729   3.412   8.358   6.310 -0.3629  0.5075 -0.3662
  752MOL0     H 3730   3.445   8.277   6.005 -0.1406 -0.1226 -0.2238
  752MOL0     H 3731   3.371   8.417   6.062  1.1647 -0.4540 -3.6456
  752MOL0     H 3732   3.548   8.516   6.026  0.1425 -0.2247 -0.4665
  752MOL0     H 3733   3.601   8.476   6.190  1.7705  1.7961 -0.6446
  752MOL0     H 3734   3.773   8.630   6.100 -1.4800 -1.0391 -1.4212
  752MOL0     H 3735   4.017   8.721   6.275 -2.6975 -1.0534 -0.1024
  752MOL0     H 3736   3.947   8.814   6.137  0.9210 -0.3763 -2.4811
  752MOL0     H 3737   4.112   8.773   6.135  1.2292 -2.0742 -1.1871
  752MOL0     H 3738   4.364   8.819   6.098  0.9675  2.8686 -1.4877
  752MOL0     H 3739   4.592   8.910   6.127  1.7313 -1.4774  1.4284
  752MOL0     H 3740   4.921   8.791   5.852 -2.4881 -1.9841  0.3853
  752MOL0     H 3741   4.783   8.883   5.806 -0.7967  0.9911  1.0369
  752MOL0     H 3742   4.937   9.065   5.805  0.8004 -1.9114 -0.6328
  752MOL0     H 3743   4.876   9.072   5.976 -1.3300 -4.6655  2.1962
  752MOL0     H 3744   5.121   8.931   5.875 -0.7599 -2.5825  1.1698
  752MOL0     H 3745   5.071   8.945   6.045 -0.7318  0.5378 -0.4673
  752MOL0     H 3746   5.243   9.115   6.022  0.5217  1.1604  0.3885
  752MOL0     H 3747   5.076   9.177   6.059  0.8819 -4.1222  4.0348
  752MOL0     H 3748   5.071   9.236   5.811 -1.2875 -1.1854  1.6740
  752MOL0     H 3749   5.170   9.335   5.915  5.3088 -0.0057 -1.7553
  752MOL0     H 3750   5.286   9.145   5.718 -1.8809 -1.5957  2.6620
  752MOL0     H 3751   5.376   9.215   5.850  0.5207 -1.8431 -1.0567
  752MOL0     H 3752   5.276   9.454   5.775 -4.0368 -1.1720  0.6275
  752MOL0     H 3753   5.233   9.388   5.617 -0.4308 -1.9541 -0.4656
  752MOL0     H 3754   5.508   9.392   5.753 -1.3429  2.2531  1.7513
  752MOL0     H 3755   5.443   9.480   5.608 -1.9002 -0.7221 -0.4738
  752MOL0     H 3756   4.756   8.619   5.876  0.3090 -0.7990  1.2881
  752MOL0     H 3757   4.526   8.498   5.864 -1.3580  0.5858  0.3407
  752MOL0     H 3758   4.146   8.317   6.020 -1.0487  0.0260 -2.7101
  752MOL0     H 3759   3.911   8.226   6.032  1.1992  0.0944 -2.4328
  752MOL0     H 3760   4.724   8.823   6.404 -2.7058  0.3923 -0.4527
  752MOL0     H 3761   4.941   8.956   6.339  0.3564 -0.2032  0.7238
  752MOL0     H 3762   5.160   9.298   6.527 -0.4807 -1.2083 -1.4468
  752MOL0     H 3763   5.357   9.451   6.565  2.3668  2.7448 -0.0133
  752MOL0     H 3764   5.360   9.638   6.667  0.2019  2.7231  2.5526
  752MOL0     H 3765   5.525   9.630   6.610  0.6139  0.5545 -1.5448
  752MOL0     H 3766   5.508   9.807   6.767  0.2002 -2.0064  0.7584
  752MOL0     H 3767   5.400   9.901   6.660  0.1652 -0.6820  1.6856
  752MOL0     H 3768   5.559   9.879   6.471  1.4028  2.2578  0.2998
  752MOL0     H 3769   5.595   9.990   6.599 -1.2003  0.2884  0.0703
  752MOL0     H 3770   5.715   9.718   6.640 -0.8214  0.9297  1.6673
  752MOL0     H 3771   5.779   9.862   6.676  0.5902  0.3627 -0.6596
  752MOL0     H 3772   5.987   9.796   6.321 -0.0620 -2.2205 -0.5116
  752MOL0     H 3773   5.242   9.707   6.252 -4.2547  1.2282 -1.6054
  752MOL0     H 3774   5.073   9.469   6.070 -0.6201 -1.2889  0.5289
  752MOL0     H 3775   4.947   9.553   6.157  0.9706 -0.7071 -0.9752
  752MOL0     H 3776   5.083   9.655   6.119  2.8435 -0.8907  1.1168
  753MOL0     O 3777   6.715  10.595   7.743  0.3265 -0.5475  0.3558
  753MOL0     C 3778   6.602  10.593   7.788 -0.5438 -0.9759 -0.5785
  753MOL0     O 3779   6.553  10.694   7.862  0.1259 -0.0112  0.2197
  753MOL0     C 3780   6.644  10.794   7.884  0.5954  0.6728  0.0254
  753MOL0     C 3781   6.692  10.883   7.790  0.4154 -0.2396  0.1874
  753MOL0     C 3782   6.767  10.986   7.833 -0.2640 -0.0523  0.4039
  753MOL0     C 3783   6.818  11.003   7.968  0.2946 -0.7174  0.3038
  753MOL0     O 3784   6.896  11.120   7.991  0.4449  0.2567 -0.6162
  753MOL0     C 3785   6.922  11.148   8.127 -0.4673  0.2703 -0.6542
  753MOL0     C 3786   7.022  11.260   8.139 -0.6368  0.2650 -0.4858
  753MOL0     C 3787   7.030  11.296   8.287 -0.2336 -0.4056 -0.7001
  753MOL0     C 3788   7.175  11.322   8.319  0.2064  0.0014  0.1039
  753MOL0     C 3789   7.199  11.386   8.451 -0.1138 -0.8881 -0.4955
  753MOL0     C 3790   7.354  11.388   8.481  0.0505 -0.5028  0.4370
  753MOL0     C 3791   7.377  11.428   8.633  0.1774 -1.0277  0.2230
  753MOL0     C 3792   7.322  11.564   8.682  0.6242 -0.2651 -0.4574
  753MOL0     N 3793   7.392  11.656   8.596  1.1722 -0.0815 -0.4421
  753MOL0     C 3794   7.341  11.726   8.491 -0.0264  0.1111 -0.1060
  753MOL0     C 3795   7.451  11.787   8.429  0.2967 -0.2573  0.3008
  753MOL0     C 3796   7.462  11.870   8.308 -0.1925  0.2832  0.7974
  753MOL0     C 3797   7.593  11.809   8.243 -0.7668  0.0526  0.2364
  753MOL0     C 3798   7.599  11.847   8.094  0.8948 -0.5095  0.6589
  753MOL0     C 3799   7.729  11.813   8.034 -0.1781 -0.0153  1.1294
  753MOL0     O 3800   7.737  11.679   7.991 -0.1400  0.5461  0.8044
  753MOL0     C 3801   7.860  11.633   7.945 -0.5941 -0.0069  0.7990
  753MOL0     C 3802   7.971  11.717   7.918  0.0620 -0.3020  0.8748
  753MOL0     C 3803   8.088  11.673   7.860 -0.0484 -0.3490  0.2719
  753MOL0     C 3804   8.208  11.769   7.842 -0.1759 -0.2840 -0.9859
  753MOL0     C 3805   8.099  11.528   7.824 -0.2732 -0.7781 -0.8664
  753MOL0     C 3806   8.224  11.462   7.763  0.0875 -0.5414 -0.5502
  753MOL0     O 3807   8.199  11.351   7.688 -0.0026 -0.0826 -0.3191
  753MOL0     C 3808   8.304  11.298   7.618  0.0756 -0.4275  0.5893
  753MOL0     C 3809   8.361  11.180   7.672 -0.6112  0.8678 -0.1550
  753MOL0     C 3810   8.465  11.117   7.603 -0.3986  0.7652 -0.0439
  753MOL0     C 3811   8.503  11.167   7.476  0.1822  0.6236  1.0333
  753MOL0     O 3812   8.596  11.094   7.415 -0.6696  0.3300 -0.1827
  753MOL0     C 3813   8.603  11.106   7.272  0.2923  0.2472 -0.1064
  753MOL0     C 3814   8.711  11.018   7.217  0.1731 -0.3789 -0.6535
  753MOL0     C 3815   8.853  11.041   7.271 -0.1802  0.2383 -0.2415
  753MOL0     C 3816   8.926  11.164   7.207 -0.4475 -0.7550 -0.2863
  753MOL0     C 3817   9.080  11.180   7.227 -0.2916  0.0120 -0.1374
  753MOL0     C 3818   9.110  11.190   7.374 -0.7621 -0.1964 -0.5601
  753MOL0     C 3819   9.045  11.307   7.450 -0.4464  0.5857 -0.4217
  753MOL0     C 3820   9.083  11.444   7.398  0.4567  0.2525 -0.1276
  753MOL0    Cl 3821   9.258  11.483   7.357 -0.1264 -0.1281 -0.3167
  753MOL0     C 3822   8.434  11.273   7.421 -0.2828 -1.1407 -0.3828
  753MOL0     C 3823   8.340  11.348   7.494  0.8739  0.2688  0.0936
  753MOL0     O 3824   8.335  11.516   7.776 -0.1737  0.1355 -0.3727
  753MOL0     C 3825   7.992  11.450   7.856 -0.5737  0.5208  0.9288
  753MOL0     C 3826   7.880  11.502   7.916  1.3516 -0.8494  0.5246
  753MOL0     N 3827   7.556  11.760   8.510 -0.9027  0.0120  0.1936
  753MOL0     N 3828   7.518  11.694   8.617  0.1320  1.0606 -0.0016
  753MOL0     C 3829   6.780  10.909   8.064  0.0376  0.3853  1.4626
  753MOL0     C 3830   6.696  10.805   8.015 -0.0530  0.3823  0.4236
  753MOL0     C 3831   6.508  10.488   7.758 -0.3020  0.4902 -0.3027
  753MOL0     C 3832   6.522  10.361   7.815 -0.5659  0.5242  0.2319
  753MOL0     C 3833   6.437  10.259   7.780  0.9283 -0.3811  0.7876
  753MOL0     C 3834   6.323  10.294   7.700 -0.4955 -0.3226  0.2519
  753MOL0     O 3835   6.227  10.200   7.672 -0.2846  0.0481 -0.6074
  753MOL0     C 3836   6.234  10.070   7.734 -1.0274 -0.1640 -0.4350
  753MOL0     C 3837   6.116   9.997   7.686 -0.2626 -0.0863  0.5047
  753MOL0     C 3838   5.995  10.042   7.764 -0.1552  0.0547  0.5711
  753MOL0     C 3839   5.868  10.053   7.676 -1.1188 -0.3440  0.6347
  753MOL0     C 3840   5.751  10.093   7.753 -0.2530  0.4421 -0.3756
  753MOL0     C 3841   5.668  10.160   7.815 -0.6790 -0.3220  0.2524
  753MOL0     C 3842   6.303  10.426   7.645 -0.9780  0.3285  0.4803
  753MOL0     C 3843   6.402  10.523   7.664  0.1751  0.0915  0.4091
  753MOL0     C 3844   6.382  10.657   7.596  0.1079 -0.1836  0.2900
  753MOL0     H 3845   6.667  10.889   7.685  1.8046  1.5272 -0.1062
  753MOL0     H 3846   6.795  11.071   7.773  1.5858  0.1878  1.5385
  753MOL0     H 3847   6.973  11.067   8.181 -0.3476  0.5123 -0.4011
  753MOL0     H 3848   6.830  11.171   8.182  0.0870  0.1556  0.3423
  753MOL0     H 3849   7.120  11.231   8.100 -0.2530 -1.4893  1.5575
  753MOL0     H 3850   6.982  11.337   8.073 -3.6662 -0.4209  0.4051
  753MOL0     H 3851   6.969  11.384   8.308 -1.5146 -1.2084 -0.9205
  753MOL0     H 3852   6.994  11.219   8.356 -0.5078  0.5819  0.2744
  753MOL0     H 3853   7.238  11.235   8.298  3.2638  2.5097 -2.1854
  753MOL0     H 3854   7.215  11.387   8.241  3.2398 -2.5132 -0.6550
  753MOL0     H 3855   7.164  11.324   8.534 -1.7244 -1.5190 -1.5950
  753MOL0     H 3856   7.165  11.489   8.464 -1.6643 -1.2674 -1.3180
  753MOL0     H 3857   7.396  11.291   8.455 -2.4367 -0.6187 -4.3002
  753MOL0     H 3858   7.389  11.462   8.408  0.2365 -2.2345 -1.3368
  753MOL0     H 3859   7.483  11.443   8.657 -0.5014  1.4502  2.1961
  753MOL0     H 3860   7.335  11.339   8.681 -1.9632  0.3786  1.1019
  753MOL0     H 3861   7.214  11.559   8.670  0.4415  0.5164  0.7068
  753MOL0     H 3862   7.356  11.582   8.785  1.1006  0.9660 -0.8080
  753MOL0     H 3863   7.236  11.713   8.468 -1.3910  1.6816  4.1704
  753MOL0     H 3864   7.471  11.979   8.309  0.5640  0.5741 -4.9667
  753MOL0     H 3865   7.377  11.852   8.242 -0.5788  2.0705  0.7714
  753MOL0     H 3866   7.687  11.841   8.288 -1.0546  1.3597 -0.0541
  753MOL0     H 3867   7.597  11.700   8.246  3.2357  0.0962  1.2094
  753MOL0     H 3868   7.518  11.800   8.038  0.5100  2.8254 -1.8305
  753MOL0     H 3869   7.576  11.954   8.096  0.9597 -0.4717 -0.3262
  753MOL0     H 3870   7.747  11.881   7.950  0.5637 -0.5624  0.8346
  753MOL0     H 3871   7.809  11.834   8.105  0.0872  0.1080  0.7953
  753MOL0     H 3872   7.958  11.823   7.934  3.8745  1.0828 -3.0613
  753MOL0     H 3873   8.259  11.750   7.746  2.0789  1.4111 -0.2150
  753MOL0     H 3874   8.288  11.766   7.917  1.1213  1.3497 -2.1949
  753MOL0     H 3875   8.172  11.872   7.829  1.7938  0.2303 -3.0217
  753MOL0     H 3876   8.329  11.144   7.769 -2.2184  3.7523  0.5085
  753MOL0     H 3877   8.522  11.037   7.648 -0.7908  1.7406  2.3494
  753MOL0     H 3878   8.514  11.078   7.215  2.1926  0.4042 -3.4387
  753MOL0     H 3879   8.635  11.208   7.246  0.1039  0.0265 -1.2436
  753MOL0     H 3880   8.669  10.919   7.237  0.1340 -0.5130 -1.3771
  753MOL0     H 3881   8.688  11.029   7.111  0.1982  1.3603 -0.4993
  753MOL0     H 3882   8.922  10.957   7.253  2.7013  2.2620  0.5871
  753MOL0     H 3883   8.843  11.047   7.380  0.9756 -2.2139  0.0818
  753MOL0     H 3884   8.863  11.244   7.245 -3.4826 -1.9345 -2.4108
  753MOL0     H 3885   8.908  11.156   7.099 -1.1981 -2.1225 -0.0776
  753MOL0     H 3886   9.127  11.089   7.191  1.3755  0.7604  0.0608
  753MOL0     H 3887   9.125  11.258   7.165 -1.2497  2.2470  1.8375
  753MOL0     H 3888   9.216  11.207   7.394 -0.8918  1.0256 -0.8423
  753MOL0     H 3889   9.081  11.097   7.423 -0.0434  0.1131  0.4858
  753MOL0     H 3890   9.078  11.293   7.553  0.4101  0.3740 -0.7197
  753MOL0     H 3891   8.936  11.292   7.450 -0.2981 -0.5894 -0.5912
  753MOL0     H 3892   9.051  11.518   7.471 -0.1587  0.7636 -0.9047
  753MOL0     H 3893   9.028  11.455   7.304  0.3700  1.1197  0.0170
  753MOL0     H 3894   8.459  11.319   7.326  1.3163 -0.6204  0.2564
  753MOL0     H 3895   8.279  11.433   7.464 -0.2491 -0.1825  1.0212
  753MOL0     H 3896   7.992  11.344   7.835  0.6612  0.4516  1.1527
  753MOL0     H 3897   7.796  11.434   7.921 -1.4058  2.2273 -0.2167
  753MOL0     H 3898   6.804  10.908   8.170  0.3525 -0.4380  1.3910
  753MOL0     H 3899   6.658  10.727   8.080 -4.3432  1.2878 -0.6693
  753MOL0     H 3900   6.604  10.349   7.885  0.3800  1.9541 -0.5806
  753MOL0     H 3901   6.454  10.158   7.816 -0.0166  0.1384  2.8357
  753MOL0     H 3902   6.322  10.009   7.711  0.2510  0.1592  2.9803
  753MOL0     H 3903   6.231  10.067   7.843 -1.8265 -0.4814 -0.4639
  753MOL0     H 3904   6.119   9.887   7.690 -2.2037 -0.1659  0.5630
  753MOL0     H 3905   6.101  10.020   7.580 -0.6208 -0.8083  0.3899
  753MOL0     H 3906   5.980   9.968   7.843 -1.8848  1.4330  1.5949
  753MOL0     H 3907   6.014  10.141   7.806  2.1668  0.9287 -2.2126
  753MOL0     H 3908   5.856   9.958   7.624 -1.5689 -0.1264  0.3300
  753MOL0     H 3909   5.887  10.115   7.588 -2.0677  0.8264  1.2169
  753MOL0     H 3910   5.605  10.224   7.873 -3.1836 -1.4820 -1.0533
  753MOL0     H 3911   6.215  10.438   7.583  0.9444  0.9236 -2.3648
  753MOL0     H 3912   6.421  10.737   7.659 -1.0414  1.7787 -1.3357
  753MOL0     H 3913   6.434  10.663   7.499  1.7313 -0.5695  1.1106
  753MOL0     H 3914   6.277  10.684   7.580  0.3085 -0.0636 -0.9771
  754MOL0     O 3915   8.786   5.849   8.587 -0.0903  0.6558 -0.7438
  754MOL0     C 3916   8.714   5.815   8.690 -0.9166  0.4256 -0.3430
  754MOL0     O 3917   8.652   5.904   8.773 -0.9606 -0.4711 -0.0393
  754MOL0     C 3918   8.706   6.025   8.782  0.1386 -0.8221 -0.7688
  754MOL0     C 3919   8.748   6.072   8.913  0.5558 -0.0559 -0.7745
  754MOL0     C 3920   8.775   6.203   8.936 -0.3921  0.4836  0.5025
  754MOL0     C 3921   8.773   6.288   8.823  0.2435  0.4055 -0.0806
  754MOL0     O 3922   8.786   6.426   8.834 -1.1473  0.1701  0.0452
  754MOL0     C 3923   8.751   6.489   8.963  0.0853 -0.3486 -0.1887
  754MOL0     C 3924   8.726   6.639   8.944  0.3643  0.3983 -1.0056
  754MOL0     C 3925   8.855   6.723   8.954  0.2465  0.1124 -0.1514
  754MOL0     C 3926   8.965   6.670   8.852 -0.2727 -0.5991 -0.4678
  754MOL0     C 3927   9.064   6.784   8.821 -0.4456  0.4533  0.3719
  754MOL0     C 3928   9.150   6.739   8.705 -0.9631 -0.2301  0.1853
  754MOL0     C 3929   9.239   6.849   8.650  0.3114  0.1770 -0.0309
  754MOL0     C 3930   9.322   6.799   8.534 -0.0001  0.3298  1.1047
  754MOL0     N 3931   9.422   6.900   8.494  0.1043  0.2046 -0.4246
  754MOL0     C 3932   9.439   7.031   8.539  0.1131  0.5977 -0.1027
  754MOL0     C 3933   9.529   7.083   8.461  0.0841  0.3412  0.4270
  754MOL0     C 3934   9.606   7.203   8.481 -0.2961 -0.0522 -0.2146
  754MOL0     C 3935   9.521   7.330   8.483 -0.1198  0.1773  0.5888
  754MOL0     C 3936   9.606   7.456   8.496  0.5492 -1.0688 -0.5516
  754MOL0     C 3937   9.515   7.585   8.490 -0.1003  0.2595 -0.8436
  754MOL0     O 3938   9.585   7.701   8.528  0.6608 -0.1114  0.8321
  754MOL0     C 3939   9.500   7.805   8.560 -0.2988 -0.7291  0.3226
  754MOL0     C 3940   9.363   7.825   8.533 -0.3922 -0.7447  1.4814
  754MOL0     C 3941   9.297   7.946   8.572 -0.8822 -0.4292 -1.1292
  754MOL0     C 3942   9.155   7.959   8.542 -0.1412  0.1880  0.0746
  754MOL0     C 3943   9.365   8.039   8.651 -0.6713  0.5018  0.3343
  754MOL0     C 3944   9.309   8.160   8.696  0.4642  0.3356 -0.0272
  754MOL0     O 3945   9.243   8.241   8.605  0.0736  0.4112  0.0414
  754MOL0     C 3946   9.194   8.360   8.640  0.8911  0.5061 -0.7867
  754MOL0     C 3947   9.254   8.490   8.618  0.5416  0.1304 -0.2486
  754MOL0     C 3948   9.185   8.604   8.653  0.6387 -0.2080 -0.1116
  754MOL0     C 3949   9.064   8.596   8.730  0.9659  0.0526  0.5087
  754MOL0     O 3950   9.011   8.716   8.760 -0.5913 -0.8905  0.1102
  754MOL0     C 3951   8.869   8.729   8.782 -1.2071  0.5880 -0.0662
  754MOL0     C 3952   8.829   8.874   8.778 -0.3765 -0.2484  0.1372
  754MOL0     C 3953   8.812   8.934   8.634  0.5216 -1.0287 -0.5489
  754MOL0     C 3954   8.740   9.072   8.634  0.0554 -0.0065  0.3584
  754MOL0     C 3955   8.733   9.123   8.486  0.1777  0.2730 -0.5894
  754MOL0     C 3956   8.661   9.258   8.494  0.7160 -0.3348 -0.3264
  754MOL0     C 3957   8.613   9.321   8.364  0.4493 -0.8136  1.0437
  754MOL0     C 3958   8.515   9.445   8.379  0.7976  0.5865  0.1395
  754MOL0    Cl 3959   8.483   9.514   8.207 -0.0368 -0.2082  0.0222
  754MOL0     C 3960   9.009   8.475   8.762  0.2508  0.0775  0.7919
  754MOL0     C 3961   9.075   8.363   8.716  0.6743  0.0497  0.7050
  754MOL0     O 3962   9.321   8.189   8.815 -0.7518  0.2105  0.3988
  754MOL0     C 3963   9.499   8.020   8.683  0.7774 -0.6755  0.4413
  754MOL0     C 3964   9.561   7.911   8.633 -0.6806 -0.1499 -0.0497
  754MOL0     N 3965   9.565   6.989   8.368  0.1743  0.1162 -0.7459
  754MOL0     N 3966   9.502   6.880   8.388  0.1657 -0.1333  0.0554
  754MOL0     C 3967   8.747   6.237   8.696  0.3921  0.0564 -0.9285
  754MOL0     C 3968   8.700   6.105   8.666  0.3411 -0.1047  0.4316
  754MOL0     C 3969   8.709   5.679   8.716  0.2454 -0.6442 -0.1518
  754MOL0     C 3970   8.668   5.590   8.608  0.4204  0.0965  0.1438
  754MOL0     C 3971   8.656   5.448   8.632 -1.2778  0.7207 -1.2724
  754MOL0     C 3972   8.703   5.389   8.758 -0.4458 -0.3937  0.5528
  754MOL0     O 3973   8.718   5.260   8.774  0.5156  0.5684  0.3035
  754MOL0     C 3974   8.611   5.178   8.731 -0.5920  1.0262 -0.0036
  754MOL0     C 3975   8.498   5.172   8.843 -1.1971 -0.0615 -0.2751
  754MOL0     C 3976   8.530   5.077   8.957 -1.4366  0.2849  0.0054
  754MOL0     C 3977   8.445   5.098   9.083 -0.6166 -0.4386 -0.5533
  754MOL0     C 3978   8.481   5.222   9.149  0.1290  0.2073 -0.0781
  754MOL0     C 3979   8.521   5.321   9.205 -0.2492  1.0417 -0.2802
  754MOL0     C 3980   8.731   5.485   8.859 -0.5822  0.2898 -0.6360
  754MOL0     C 3981   8.735   5.626   8.843  0.6970  0.5139 -0.0467
  754MOL0     C 3982   8.770   5.708   8.964 -0.1538  0.1687 -0.0501
  754MOL0     H 3983   8.740   5.999   8.994  0.0081  0.1418 -0.6471
  754MOL0     H 3984   8.811   6.243   9.030 -0.7403  0.4014  0.6737
  754MOL0     H 3985   8.829   6.477   9.040 -0.6431 -1.4070  0.4047
  754MOL0     H 3986   8.668   6.433   9.006  0.7254 -2.5071 -1.6121
  754MOL0     H 3987   8.685   6.653   8.844  1.0705  1.1414 -1.2041
  754MOL0     H 3988   8.652   6.671   9.019  1.7868  0.8288  0.2676
  754MOL0     H 3989   8.832   6.830   8.951 -2.2524 -0.3366  0.5914
  754MOL0     H 3990   8.902   6.717   9.053 -1.5858  1.4744  0.8615
  754MOL0     H 3991   9.022   6.584   8.887 -1.4538 -2.3640 -2.6867
  754MOL0     H 3992   8.907   6.647   8.762 -0.7854  1.6788 -0.7883
  754MOL0     H 3993   9.121   6.816   8.908 -0.7368  2.0649 -0.0018
  754MOL0     H 3994   9.015   6.877   8.794  0.4544  1.5343  2.2711
  754MOL0     H 3995   9.212   6.652   8.726  1.3850  0.6384 -2.5945
  754MOL0     H 3996   9.078   6.714   8.627 -1.5183 -0.0550  0.6269
  754MOL0     H 3997   9.300   6.887   8.732  1.6391  0.7388 -1.2302
  754MOL0     H 3998   9.176   6.931   8.616 -1.3731 -0.2529  1.8785
  754MOL0     H 3999   9.362   6.700   8.555 -2.3688 -1.5230 -2.2617
  754MOL0     H 4000   9.263   6.790   8.443 -0.1223  0.5509  1.1627
  754MOL0     H 4001   9.393   7.082   8.624 -2.7457 -3.1656  0.8939
  754MOL0     H 4002   9.696   7.205   8.419  0.4457 -0.4984  0.8209
  754MOL0     H 4003   9.639   7.201   8.585 -2.1135  0.6316  0.4157
  754MOL0     H 4004   9.462   7.340   8.392  0.5063 -0.9872  0.0214
  754MOL0     H 4005   9.459   7.324   8.573  2.9579 -0.1031  2.8617
  754MOL0     H 4006   9.641   7.469   8.599 -0.5335  1.1526 -0.3897
  754MOL0     H 4007   9.690   7.464   8.426  1.7838 -2.3378  0.6984
  754MOL0     H 4008   9.465   7.585   8.393 -1.3125 -3.3011 -0.3957
  754MOL0     H 4009   9.438   7.566   8.565 -0.2934 -1.0176 -1.3403
  754MOL0     H 4010   9.317   7.751   8.469  0.7913 -0.2580  0.0357
  754MOL0     H 4011   9.147   8.049   8.479  0.7577 -0.5505 -1.1426
  754MOL0     H 4012   9.103   7.982   8.635 -0.8439 -1.8690  0.2182
  754MOL0     H 4013   9.112   7.877   8.484 -1.4597  0.7490  0.2205
  754MOL0     H 4014   9.347   8.501   8.563  1.0068  0.2306  0.5370
  754MOL0     H 4015   9.222   8.703   8.628 -0.9174  0.6067  0.6759
  754MOL0     H 4016   8.814   8.656   8.721 -0.8278 -1.7736  2.2345
  754MOL0     H 4017   8.856   8.686   8.882 -3.6273 -2.8472 -1.6457
  754MOL0     H 4018   8.733   8.887   8.830 -1.9027  0.2587 -2.6066
  754MOL0     H 4019   8.899   8.922   8.846  0.6650 -2.0547  0.4004
  754MOL0     H 4020   8.768   8.856   8.571  0.6104 -0.8524 -0.8315
  754MOL0     H 4021   8.911   8.939   8.587  1.2323 -1.6941  0.8215
  754MOL0     H 4022   8.813   9.130   8.692  0.6390  0.8396 -1.1503
  754MOL0     H 4023   8.645   9.069   8.688  0.3611  1.6599  1.0648
  754MOL0     H 4024   8.832   9.136   8.441  0.6762 -1.8703 -0.2208
  754MOL0     H 4025   8.681   9.048   8.427  2.9655 -1.4206 -1.0727
  754MOL0     H 4026   8.732   9.313   8.557 -0.8680  0.3903  0.9124
  754MOL0     H 4027   8.573   9.253   8.559  0.0880  0.0541 -1.1345
  754MOL0     H 4028   8.572   9.243   8.300  1.1642  2.7671 -4.4526
  754MOL0     H 4029   8.707   9.360   8.324  0.1974  0.8587  1.9927
  754MOL0     H 4030   8.549   9.524   8.446 -1.5319  0.5706  1.4590
  754MOL0     H 4031   8.424   9.403   8.423  2.3234 -2.6409  0.5662
  754MOL0     H 4032   8.915   8.469   8.816  0.4988 -0.6234  1.1539
  754MOL0     H 4033   9.025   8.268   8.728  0.8383  0.0703  1.5997
  754MOL0     H 4034   9.554   8.088   8.747 -0.7276 -0.4081  1.5044
  754MOL0     H 4035   9.668   7.899   8.645  0.0361  1.6440 -3.3692
  754MOL0     H 4036   8.734   6.307   8.614 -0.9606  2.1668  0.9709
  754MOL0     H 4037   8.674   6.072   8.566 -0.3172 -0.9103  0.8562
  754MOL0     H 4038   8.643   5.629   8.510 -1.5947 -3.8925 -1.1766
  754MOL0     H 4039   8.621   5.396   8.543  0.8617  0.9807 -2.3141
  754MOL0     H 4040   8.558   5.213   8.642  0.6221  2.4241 -0.1959
  754MOL0     H 4041   8.651   5.076   8.722 -1.0108  0.8805 -0.2564
  754MOL0     H 4042   8.401   5.145   8.799 -0.1018 -0.9250 -2.2891
  754MOL0     H 4043   8.483   5.271   8.886  2.1534  0.1333  0.6673
  754MOL0     H 4044   8.509   4.978   8.916 -1.3272  0.7383 -1.1819
  754MOL0     H 4045   8.638   5.083   8.976 -1.5807  2.0125  0.4759
  754MOL0     H 4046   8.464   5.012   9.147 -1.5185  0.2808  0.7489
  754MOL0     H 4047   8.337   5.098   9.063 -1.2766  1.1755  2.4094
  754MOL0     H 4048   8.562   5.403   9.261 -0.2225 -0.2196  1.6366
  754MOL0     H 4049   8.778   5.441   8.947 -1.2005 -0.1186 -0.4967
  754MOL0     H 4050   8.824   5.647   9.037 -1.6032  0.1106  0.9915
  754MOL0     H 4051   8.835   5.794   8.944  0.6335  0.4153  3.0378
  754MOL0     H 4052   8.677   5.744   9.007 -1.3415 -0.0720 -2.2839
  755MOL0     O 4053   9.834   8.170   9.590  0.5538 -0.0139  0.0494
  755MOL0     C 4054   9.886   8.229   9.493 -0.2921 -0.5950 -0.2152
  755MOL0     O 4055  10.001   8.195   9.426 -0.3070 -0.6097  0.3698
  755MOL0     C 4056  10.064   8.086   9.478  0.6471 -0.0373 -0.0129
  755MOL0     C 4057  10.184   8.107   9.546  0.1820  0.3475  0.3318
  755MOL0     C 4058  10.242   7.997   9.601 -0.9646 -0.7694 -0.1070
  755MOL0     C 4059  10.198   7.866   9.586  0.3971 -0.5994  0.4165
  755MOL0     O 4060  10.267   7.766   9.645 -0.0380 -0.1012  0.0861
  755MOL0     C 4061  10.255   7.631   9.594 -0.7876  0.6682  0.4608
  755MOL0     C 4062  10.379   7.555   9.642 -0.1581 -1.5577  0.5515
  755MOL0     C 4063  10.376   7.403   9.602  0.8527  0.8596 -0.0074
  755MOL0     C 4064  10.518   7.347   9.624  0.7569 -0.1122  0.5542
  755MOL0     C 4065  10.532   7.201   9.573 -0.1646 -0.4567  0.1135
  755MOL0     C 4066  10.663   7.128   9.622 -0.3437 -0.0217 -0.1829
  755MOL0     C 4067  10.649   6.971   9.631 -0.7524 -0.6429  0.0368
  755MOL0     C 4068  10.591   6.904   9.764 -0.4556  1.0125  0.6916
  755MOL0     N 4069  10.686   6.936   9.872 -0.7085  0.1471 -0.0233
  755MOL0     C 4070  10.691   7.055   9.949  0.0419 -0.0793  0.4086
  755MOL0     C 4071  10.814   7.064  10.009  0.2851 -0.1859 -0.4153
  755MOL0     C 4072  10.870   7.181  10.086  0.6489  0.1261 -0.8313
  755MOL0     C 4073  10.924   7.290   9.990 -0.5751 -0.0580  0.4997
  755MOL0     C 4074  10.998   7.399  10.060  0.5286 -0.1276 -0.6157
  755MOL0     C 4075  10.903   7.482  10.141  0.5978 -1.0184 -0.2044
  755MOL0     O 4076  10.803   7.528  10.050  0.4255  0.3955 -0.1151
  755MOL0     C 4077  10.670   7.551  10.103 -0.2089  0.1148  0.5035
  755MOL0     C 4078  10.639   7.573  10.243 -0.3374 -0.2843 -0.5679
  755MOL0     C 4079  10.512   7.603  10.283 -0.5653  0.4185  0.0532
  755MOL0     C 4080  10.484   7.641  10.426 -0.2631 -0.2339 -0.4511
  755MOL0     C 4081  10.409   7.609  10.191 -0.6178 -0.1242 -0.5938
  755MOL0     C 4082  10.270   7.641  10.212 -0.0483  0.1470  0.6830
  755MOL0     O 4083  10.203   7.719  10.124 -0.0167  0.5196 -0.0237
  755MOL0     C 4084  10.073   7.767  10.132  0.2325 -0.5005 -0.1366
  755MOL0     C 4085  10.002   7.785  10.255 -0.6613  0.1815  0.3701
  755MOL0     C 4086   9.876   7.851  10.263  0.6742  0.5985 -0.3692
  755MOL0     C 4087   9.812   7.893  10.141  0.0246  0.3810 -0.4718
  755MOL0     O 4088   9.686   7.943  10.129 -0.5309 -0.2535  0.0019
  755MOL0     C 4089   9.612   8.012  10.229  0.1082  0.3005  0.4007
  755MOL0     C 4090   9.654   8.154  10.247 -0.1573  0.4507  0.1269
  755MOL0     C 4091   9.658   8.233  10.121 -0.1381  0.2547 -0.2295
  755MOL0     C 4092   9.708   8.374  10.137 -0.1408  0.3742  0.1856
  755MOL0     C 4093   9.618   8.460  10.225  0.2133 -0.1152  1.0384
  755MOL0     C 4094   9.685   8.600  10.229  0.0088 -0.0246 -0.0459
  755MOL0     C 4095   9.629   8.692  10.334 -0.2496  0.6486  0.2015
  755MOL0     C 4096   9.643   8.834  10.294 -0.5327  0.0772 -0.3509
  755MOL0    Cl 4097   9.541   8.866  10.165 -0.0093  0.3510 -0.2665
  755MOL0     C 4098   9.891   7.891  10.024  0.2581 -0.2453  0.5258
  755MOL0     C 4099  10.017   7.830  10.015 -0.7098 -0.0533 -0.1911
  755MOL0     O 4100  10.211   7.581  10.297  0.3804  0.3894 -1.0613
  755MOL0     C 4101  10.432   7.582  10.058  0.4164 -1.0555 -0.3688
  755MOL0     C 4102  10.560   7.559  10.015  0.0742 -0.2824 -0.0278
  755MOL0     N 4103  10.886   6.954   9.975  0.2360 -0.9744  0.5930
  755MOL0     N 4104  10.808   6.880   9.892 -0.2792 -0.3125 -0.2528
  755MOL0     C 4105  10.075   7.846   9.519  0.0819 -0.5789 -0.4739
  755MOL0     C 4106  10.004   7.958   9.466 -0.4783 -0.4036  0.3773
  755MOL0     C 4107   9.829   8.362   9.454 -0.0015  0.3685 -0.2573
  755MOL0     C 4108   9.920   8.466   9.432 -0.4700  0.5968  0.3878
  755MOL0     C 4109   9.872   8.583   9.377 -0.1012 -0.7853  0.6744
  755MOL0     C 4110   9.737   8.608   9.353 -0.3330  0.3652  1.0512
  755MOL0     O 4111   9.702   8.734   9.315 -0.2939  0.1044 -0.6249
  755MOL0     C 4112   9.645   8.809   9.423 -0.2185 -0.2587  0.0215
  755MOL0     C 4113   9.564   8.926   9.374 -0.3331  0.4535 -0.0152
  755MOL0     C 4114   9.651   9.028   9.303 -0.2426 -0.6991  0.0942
  755MOL0     C 4115   9.689   8.987   9.160 -0.0259  0.9804  0.6464
  755MOL0     C 4116   9.754   9.106   9.108 -0.1906 -0.6782 -0.1552
  755MOL0     C 4117   9.815   9.211   9.080  0.1589  0.5202 -0.0279
  755MOL0     C 4118   9.650   8.512   9.376 -0.4062  0.3665  0.0983
  755MOL0     C 4119   9.694   8.380   9.417  0.0970 -0.8057 -0.4989
  755MOL0     C 4120   9.581   8.274   9.435 -0.5725 -0.2360 -0.6915
  755MOL0     H 4121  10.239   8.198   9.568  0.4731 -0.1171  1.6378
  755MOL0     H 4122  10.329   8.014   9.662 -0.8556  2.0218 -0.9232
  755MOL0     H 4123  10.261   7.616   9.486  2.6635  0.3098  0.5776
  755MOL0     H 4124  10.164   7.581   9.628 -0.0388 -0.5166  0.8063
  755MOL0     H 4125  10.467   7.607   9.605 -0.3797 -0.1391  1.8868
  755MOL0     H 4126  10.390   7.569   9.750 -0.7816  1.1226  0.3338
  755MOL0     H 4127  10.312   7.348   9.672  1.4640  0.8793  0.5789
  755MOL0     H 4128  10.337   7.393   9.501  1.3394 -0.8191 -0.0575
  755MOL0     H 4129  10.582   7.410   9.562  0.0210 -0.9710 -1.1215
  755MOL0     H 4130  10.545   7.353   9.730  1.6546  0.4086  0.3069
  755MOL0     H 4131  10.518   7.182   9.466 -1.3097 -5.9265  0.9234
  755MOL0     H 4132  10.446   7.142   9.609 -2.0868  0.2616 -2.9612
  755MOL0     H 4133  10.727   7.154   9.538 -1.5402 -5.6635 -3.3672
  755MOL0     H 4134  10.706   7.172   9.712  4.2346 -1.9573 -1.1321
  755MOL0     H 4135  10.751   6.933   9.616 -0.1469  1.1163 -0.6639
  755MOL0     H 4136  10.577   6.936   9.557  0.3497  0.0937 -1.4570
  755MOL0     H 4137  10.493   6.945   9.788 -1.0100  1.1185 -1.5311
  755MOL0     H 4138  10.583   6.796   9.749 -1.0070  0.9636  1.3101
  755MOL0     H 4139  10.607   7.122   9.936 -0.0268 -0.5704 -2.0796
  755MOL0     H 4140  10.943   7.130  10.149 -0.6573 -0.5024  0.2413
  755MOL0     H 4141  10.796   7.211  10.161  2.1948  1.3411  0.2745
  755MOL0     H 4142  10.984   7.242   9.913  0.8023 -0.7097  1.9065
  755MOL0     H 4143  10.839   7.340   9.943  1.0423  1.8095 -0.5719
  755MOL0     H 4144  11.084   7.360  10.115  0.8737  0.3868 -0.7874
  755MOL0     H 4145  11.048   7.471   9.995 -1.7041  1.9805 -0.1284
  755MOL0     H 4146  10.851   7.434  10.224 -0.7975  0.8976  0.1222
  755MOL0     H 4147  10.968   7.565  10.171  0.6130  0.9543 -4.7965
  755MOL0     H 4148  10.723   7.571  10.312  1.6928 -1.3801 -2.9353
  755MOL0     H 4149  10.399   7.589  10.469 -0.4006 -0.0049 -0.4466
  755MOL0     H 4150  10.472   7.749  10.440  0.7179 -0.3186  1.3811
  755MOL0     H 4151  10.564   7.616  10.496  0.0084  1.5928 -0.0550
  755MOL0     H 4152  10.051   7.752  10.346  0.8904  3.5813  0.9169
  755MOL0     H 4153   9.818   7.850  10.354  2.0064 -0.1321  0.5106
  755MOL0     H 4154   9.509   8.019  10.191  0.1055 -3.4510 -0.6852
  755MOL0     H 4155   9.602   7.959  10.324  2.4149  0.0999  0.5932
  755MOL0     H 4156   9.581   8.194  10.318 -0.9503 -0.7231 -0.0072
  755MOL0     H 4157   9.750   8.166  10.298 -0.6753 -2.3038  1.9832
  755MOL0     H 4158   9.557   8.235  10.078  0.0028  1.7584 -0.5417
  755MOL0     H 4159   9.713   8.176  10.046 -0.5970  1.9616 -1.9291
  755MOL0     H 4160   9.715   8.422  10.039 -0.2977  0.6423  0.3066
  755MOL0     H 4161   9.812   8.369  10.170 -0.3606  0.9372  0.9847
  755MOL0     H 4162   9.518   8.473  10.182  0.9792  1.2270 -0.4459
  755MOL0     H 4163   9.620   8.429  10.330 -0.1699  5.6447  3.1121
  755MOL0     H 4164   9.669   8.653  10.134 -0.7020  0.5536  0.3849
  755MOL0     H 4165   9.792   8.588  10.250 -0.1134  0.3758  0.8432
  755MOL0     H 4166   9.666   8.663  10.433  0.5184 -0.0609 -0.2894
  755MOL0     H 4167   9.520   8.681  10.335 -0.3240  0.9091 -1.4741
  755MOL0     H 4168   9.747   8.850  10.263  0.4256 -0.3934  2.3755
  755MOL0     H 4169   9.638   8.910  10.373  1.2194 -0.2319  0.1087
  755MOL0     H 4170   9.841   7.948   9.946 -1.6307 -2.7960 -0.2871
  755MOL0     H 4171  10.087   7.820   9.933  1.9344 -1.2879  2.0192
  755MOL0     H 4172  10.350   7.580   9.986 -1.5975  1.6671  1.6171
  755MOL0     H 4173  10.596   7.535   9.915 -0.6545  1.4048 -0.7315
  755MOL0     H 4174  10.028   7.748   9.508 -0.9589  0.0118 -1.4993
  755MOL0     H 4175   9.911   7.954   9.410  0.9712  4.6751 -3.1268
  755MOL0     H 4176  10.026   8.449   9.440 -0.6652 -0.7515  0.2549
  755MOL0     H 4177   9.950   8.657   9.363 -0.1363 -0.9298 -0.3493
  755MOL0     H 4178   9.577   8.749   9.485 -1.9416 -1.1587 -2.5792
  755MOL0     H 4179   9.736   8.843   9.474 -0.1798  1.6075 -1.1871
  755MOL0     H 4180   9.531   8.992   9.454 -1.3579  0.6881 -0.6214
  755MOL0     H 4181   9.480   8.901   9.309 -0.3133  0.9639 -0.2440
  755MOL0     H 4182   9.597   9.123   9.295 -1.9687 -1.2626  3.3196
  755MOL0     H 4183   9.745   9.059   9.347 -0.5831  0.4638  0.0234
  755MOL0     H 4184   9.600   8.983   9.097  0.5559  1.2215 -0.2048
  755MOL0     H 4185   9.748   8.895   9.151 -1.5017  0.1620 -1.2286
  755MOL0     H 4186   9.867   9.297   9.041 -1.1281  1.1371 -0.4338
  755MOL0     H 4187   9.544   8.533   9.363 -0.3236  0.3687 -0.6433
  755MOL0     H 4188   9.498   8.301   9.370 -0.4491  0.0777 -0.7155
  755MOL0     H 4189   9.622   8.177   9.404  1.0056  0.1803 -0.0176
  755MOL0     H 4190   9.541   8.279   9.537 -0.2163  3.6597 -0.6135
  756MOL0     O 4191   6.369   7.529   2.700  0.4544 -0.2063  0.2049
  756MOL0     C 4192   6.299   7.591   2.779  0.1708  1.1284 -0.4853
  756MOL0     O 4193   6.175   7.552   2.831 -1.0933 -0.3757  0.4522
  756MOL0     C 4194   6.094   7.464   2.766  0.1258 -0.2875  0.0901
  756MOL0     C 4195   6.108   7.324   2.790  0.5132 -0.6586 -0.0241
  756MOL0     C 4196   6.010   7.242   2.727 -0.0252  0.1877  0.3616
  756MOL0     C 4197   5.921   7.290   2.634  0.6396  0.2009  0.3036
  756MOL0     O 4198   5.851   7.198   2.552 -0.2745 -0.4677  0.1749
  756MOL0     C 4199   5.941   7.115   2.479 -0.3640  0.5682  0.1927
  756MOL0     C 4200   5.869   7.040   2.354 -0.6777  0.3277  0.1489
  756MOL0     C 4201   5.880   7.126   2.221  0.7132 -0.1899  0.8291
  756MOL0     C 4202   5.740   7.145   2.152  0.2616 -0.2738 -0.3338
  756MOL0     C 4203   5.758   7.205   2.014 -0.2302  0.0229  1.1144
  756MOL0     C 4204   5.637   7.170   1.914 -0.7263  0.3438 -0.4551
  756MOL0     C 4205   5.685   7.217   1.772 -0.1152 -0.1115 -1.2044
  756MOL0     C 4206   5.570   7.204   1.675 -0.2494  0.2335  0.6617
  756MOL0     N 4207   5.494   7.078   1.674  0.2395 -1.1291 -0.4307
  756MOL0     C 4208   5.364   7.057   1.720  0.0461 -0.4438 -0.9184
  756MOL0     C 4209   5.336   6.928   1.718  0.2048 -0.1869 -0.9289
  756MOL0     C 4210   5.205   6.870   1.757 -0.2758 -0.2558 -0.6883
  756MOL0     C 4211   5.091   6.883   1.665  0.4272 -0.7796 -0.2883
  756MOL0     C 4212   5.132   6.859   1.519 -1.0313 -0.0938  0.0496
  756MOL0     C 4213   5.193   6.719   1.488  0.9487  0.0479 -0.3626
  756MOL0     O 4214   5.119   6.607   1.537 -0.0404 -0.1078 -0.0205
  756MOL0     C 4215   5.067   6.538   1.432  0.9338 -0.5457  0.0065
  756MOL0     C 4216   4.957   6.595   1.359 -0.6171  0.0399  0.1471
  756MOL0     C 4217   4.888   6.528   1.258 -0.2906  0.1188  0.1708
  756MOL0     C 4218   4.764   6.599   1.208 -0.4010 -0.3206  0.0098
  756MOL0     C 4219   4.925   6.392   1.232 -0.1277  0.2351 -0.2891
  756MOL0     C 4220   4.860   6.298   1.137  0.0479 -0.7459  0.1594
  756MOL0     O 4221   4.929   6.174   1.111  0.1916 -0.5420  0.3394
  756MOL0     C 4222   4.845   6.087   1.049 -0.7943  0.5916 -0.2641
  756MOL0     C 4223   4.803   5.984   1.130 -0.5548  0.0853 -1.0719
  756MOL0     C 4224   4.724   5.888   1.078  0.0541  1.5235  0.1495
  756MOL0     C 4225   4.706   5.866   0.938 -0.0503  0.3067 -0.0464
  756MOL0     O 4226   4.634   5.768   0.874  0.0390  0.4551  0.5069
  756MOL0     C 4227   4.555   5.689   0.964  0.5287  0.7989  0.0326
  756MOL0     C 4228   4.500   5.571   0.878 -0.5133  0.5256  0.3778
  756MOL0     C 4229   4.415   5.475   0.955 -0.0117  0.4742  0.1410
  756MOL0     C 4230   4.446   5.319   0.930 -0.6860 -0.7773 -0.0932
  756MOL0     C 4231   4.354   5.221   1.004 -0.1307  0.6070  0.0286
  756MOL0     C 4232   4.363   5.228   1.161  0.6160 -0.2452  0.4750
  756MOL0     C 4233   4.348   5.096   1.233  0.1328 -0.0969  0.5643
  756MOL0     C 4234   4.203   5.045   1.228 -0.9924 -0.5770  0.6471
  756MOL0    Cl 4235   4.209   4.912   1.349  0.1098  0.5364 -0.1070
  756MOL0     C 4236   4.772   5.960   0.860  0.1551  0.5968  0.0592
  756MOL0     C 4237   4.836   6.074   0.912  0.1888  0.7584 -0.7911
  756MOL0     O 4238   4.754   6.334   1.086  0.4495  0.6232 -1.0494
  756MOL0     C 4239   5.041   6.348   1.298 -0.1870  0.2245  0.0330
  756MOL0     C 4240   5.113   6.411   1.400  0.1853  1.0066 -0.3307
  756MOL0     N 4241   5.448   6.865   1.654  0.4040 -0.4536 -0.7461
  756MOL0     N 4242   5.531   6.954   1.634  0.0452  1.0430  0.0157
  756MOL0     C 4243   5.915   7.425   2.607  0.4481 -0.0099  0.2749
  756MOL0     C 4244   5.988   7.511   2.689  0.0679 -0.5622  0.1991
  756MOL0     C 4245   6.378   7.694   2.852  0.5168  0.0536 -1.0785
  756MOL0     C 4246   6.329   7.736   2.975  0.1443  0.2535 -0.2909
  756MOL0     C 4247   6.402   7.826   3.058  0.3330  0.1503  0.1442
  756MOL0     C 4248   6.517   7.890   3.015 -0.2417 -1.0945  0.2750
  756MOL0     O 4249   6.583   7.990   3.087 -0.1368 -0.0274 -0.5707
  756MOL0     C 4250   6.661   7.933   3.188 -0.2476  0.2342  0.7115
  756MOL0     C 4251   6.785   8.014   3.207 -0.6681 -0.3055  0.5945
  756MOL0     C 4252   6.758   8.161   3.231  0.0637  0.1325  0.1419
  756MOL0     C 4253   6.877   8.227   3.312 -0.5886  1.2418 -0.8472
  756MOL0     C 4254   7.014   8.214   3.250 -0.8416  0.6349  0.0461
  756MOL0     C 4255   7.119   8.223   3.190 -0.8131  0.7307 -0.1781
  756MOL0     C 4256   6.564   7.859   2.890  0.5030 -0.3502  0.4276
  756MOL0     C 4257   6.494   7.764   2.810 -0.1969  0.4702 -0.5448
  756MOL0     C 4258   6.568   7.728   2.684 -0.0268 -0.7338  0.3233
  756MOL0     H 4259   6.191   7.280   2.843  2.3654 -1.0642 -3.0598
  756MOL0     H 4260   6.003   7.135   2.748 -2.1371  0.6420  2.3595
  756MOL0     H 4261   5.990   7.039   2.542  2.7598  0.2992 -2.2907
  756MOL0     H 4262   6.034   7.165   2.449  0.3275  1.1876  3.0323
  756MOL0     H 4263   5.925   6.947   2.342 -1.7065 -0.4182  0.9405
  756MOL0     H 4264   5.762   7.023   2.373 -1.6076  2.2157 -2.6416
  756MOL0     H 4265   5.927   7.221   2.249 -1.1792  1.1932 -0.4250
  756MOL0     H 4266   5.939   7.074   2.146 -1.0023  1.4652 -1.8359
  756MOL0     H 4267   5.693   7.048   2.135  2.0295 -1.0696 -0.9947
  756MOL0     H 4268   5.672   7.215   2.202 -4.2092 -2.8905 -2.2246
  756MOL0     H 4269   5.850   7.152   1.987  0.0207 -0.9836  3.6317
  756MOL0     H 4270   5.776   7.313   2.012  0.8065 -0.1280  1.6506
  756MOL0     H 4271   5.625   7.062   1.917 -1.5735  0.1881 -4.2519
  756MOL0     H 4272   5.544   7.203   1.960 -0.2728 -2.0481  2.4520
  756MOL0     H 4273   5.764   7.147   1.744 -0.9286 -1.1786 -0.9211
  756MOL0     H 4274   5.722   7.319   1.770 -2.3356  0.7464 -2.5765
  756MOL0     H 4275   5.507   7.287   1.708  1.0192  1.3575  0.3288
  756MOL0     H 4276   5.610   7.212   1.573 -3.7314  0.5571 -0.8108
  756MOL0     H 4277   5.295   7.131   1.761 -0.1479 -1.0454 -0.1353
  756MOL0     H 4278   5.168   6.921   1.847  0.3703  1.3168 -1.2686
  756MOL0     H 4279   5.225   6.766   1.783 -1.3340 -0.1942  0.4575
  756MOL0     H 4280   5.024   6.802   1.695  0.4727 -0.6166  0.2658
  756MOL0     H 4281   5.036   6.977   1.674 -0.0072 -1.1607  1.4719
  756MOL0     H 4282   5.054   6.870   1.443  0.3645 -0.4523 -1.5027
  756MOL0     H 4283   5.201   6.938   1.489  0.9324 -1.0862  1.6837
  756MOL0     H 4284   5.210   6.719   1.380  1.7388 -0.8646 -0.2492
  756MOL0     H 4285   5.292   6.712   1.533  1.0733 -2.1346 -0.8771
  756MOL0     H 4286   4.915   6.690   1.391 -2.3912  0.0605 -2.0116
  756MOL0     H 4287   4.769   6.618   1.101  0.8711  1.5187  0.3574
  756MOL0     H 4288   4.742   6.693   1.260 -0.1008 -0.6977  0.8401
  756MOL0     H 4289   4.687   6.526   1.237  0.3411 -0.4597  1.7396
  756MOL0     H 4290   4.816   5.991   1.238  1.5672 -0.0934 -1.2811
  756MOL0     H 4291   4.683   5.831   1.160 -0.2770 -2.4043 -2.4722
  756MOL0     H 4292   4.609   5.634   1.042  0.7563 -0.1299 -0.7713
  756MOL0     H 4293   4.471   5.752   0.995 -1.5620  0.8711 -4.8608
  756MOL0     H 4294   4.448   5.614   0.792  1.8496  2.5055 -0.1643
  756MOL0     H 4295   4.592   5.522   0.845  0.3155  1.4870  1.1749
  756MOL0     H 4296   4.314   5.491   0.915  0.3442 -0.4754 -1.2114
  756MOL0     H 4297   4.427   5.493   1.062  1.3029  0.2160  0.0515
  756MOL0     H 4298   4.553   5.308   0.950 -0.9351  0.6311  2.3407
  756MOL0     H 4299   4.438   5.285   0.826 -2.5093 -0.4530 -0.0923
  756MOL0     H 4300   4.252   5.246   0.975 -0.1884 -0.9063 -1.1774
  756MOL0     H 4301   4.380   5.120   0.972  0.9895  0.4271  1.3749
  756MOL0     H 4302   4.280   5.296   1.180 -0.0610 -0.2091 -2.1968
  756MOL0     H 4303   4.457   5.270   1.197  2.7683 -3.0852 -1.3531
  756MOL0     H 4304   4.363   5.122   1.338  1.7475  0.5037  0.2211
  756MOL0     H 4305   4.419   5.022   1.195  0.4384 -0.8768  2.5208
  756MOL0     H 4306   4.173   5.025   1.125  2.9925  1.7038 -1.1906
  756MOL0     H 4307   4.137   5.121   1.272  0.6422  0.6797  1.0535
  756MOL0     H 4308   4.761   5.952   0.752 -0.6355  2.3167 -0.0340
  756MOL0     H 4309   4.900   6.134   0.849 -0.2752  0.4403 -1.5912
  756MOL0     H 4310   5.062   6.245   1.269 -1.7260  0.2737 -1.4221
  756MOL0     H 4311   5.183   6.346   1.453 -2.0454 -3.0159 -1.9322
  756MOL0     H 4312   5.853   7.462   2.526 -0.1488 -0.0459  0.7078
  756MOL0     H 4313   5.980   7.619   2.678  0.2258 -0.6106 -0.4935
  756MOL0     H 4314   6.244   7.686   3.021  2.0592 -2.1267  0.9116
  756MOL0     H 4315   6.356   7.843   3.155  1.8113 -0.7194  1.0360
  756MOL0     H 4316   6.605   7.923   3.281 -0.3610 -0.4661  0.5763
  756MOL0     H 4317   6.693   7.830   3.167 -1.5056 -0.0211 -0.0744
  756MOL0     H 4318   6.844   8.000   3.116  2.6390  0.0370  2.5200
  756MOL0     H 4319   6.849   7.965   3.281  0.1531  2.2193  1.6881
  756MOL0     H 4320   6.753   8.209   3.132 -1.9212  3.2934  1.6252
  756MOL0     H 4321   6.660   8.174   3.278 -1.2360 -0.0827 -2.3069
  756MOL0     H 4322   6.876   8.185   3.413  1.6426 -0.0174 -1.2855
  756MOL0     H 4323   6.850   8.332   3.330  1.8619  1.8035 -0.1093
  756MOL0     H 4324   7.205   8.202   3.130 -1.7415 -1.9610 -0.7059
  756MOL0     H 4325   6.659   7.899   2.854 -1.0389  0.7185 -2.7719
  756MOL0     H 4326   6.506   7.676   2.610 -1.5763 -0.0622  1.1115
  756MOL0     H 4327   6.621   7.817   2.649 -0.6742  1.5185  4.4778
  756MOL0     H 4328   6.646   7.654   2.706  0.1668 -1.9945 -3.8497
  757MOL0     O 4329   5.502   0.256  11.305  0.1770 -0.3137  0.6643
  757MOL0     C 4330   5.466   0.141  11.317  0.9128 -0.0664  0.6916
  757MOL0     O 4331   5.553   0.035  11.331  0.7168  0.1867  0.3196
  757MOL0     C 4332   5.676   0.057  11.393  0.1406  0.4592 -0.5054
  757MOL0     C 4333   5.693   0.150  11.502  0.1288  0.0953 -0.5397
  757MOL0     C 4334   5.808   0.144  11.575 -0.1752 -0.5360 -0.3224
  757MOL0     C 4335   5.910   0.066  11.540  0.3588 -0.5961  0.0022
  757MOL0     O 4336   6.020   0.041  11.615  0.4870  0.3745  0.2522
  757MOL0     C 4337   6.057   0.115  11.724 -0.5476 -0.8518  0.2612
  757MOL0     C 4338   6.188   0.057  11.783 -0.1718  0.2218  0.1576
  757MOL0     C 4339   6.271   0.171  11.839  0.0000  0.2885 -0.2894
  757MOL0     C 4340   6.373   0.120  11.939 -0.7972  0.0932  0.3214
  757MOL0     C 4341   6.395   0.221  12.046 -0.0983 -0.0360 -0.3162
  757MOL0     C 4342   6.492   0.185  12.163 -0.6293  0.3053  0.0621
  757MOL0     C 4343   6.640   0.224  12.114  0.2019 -0.4937 -0.3238
  757MOL0     C 4344   6.679   0.365  12.168 -0.0293  0.1628 -0.4041
  757MOL0     N 4345   6.820   0.383  12.201  0.0813 -0.4141 -0.2988
  757MOL0     C 4346   6.893   0.312  12.294 -0.0750 -0.2251  0.3863
  757MOL0     C 4347   7.020   0.370  12.294 -0.3730  1.1074  0.5037
  757MOL0     C 4348   7.139   0.352  12.386 -0.5730  0.0854  0.5406
  757MOL0     C 4349   7.127   0.460  12.485 -0.6183  0.0410 -0.8017
  757MOL0     C 4350   7.237   0.463  12.598 -0.2845  0.4753 -0.7052
  757MOL0     C 4351   7.378   0.487  12.539 -0.0504  1.1858  0.4163
  757MOL0     O 4352   7.464   0.399  12.613 -0.3006  0.4525 -0.1366
  757MOL0     C 4353   7.588   0.378  12.562 -0.7701 -0.5070 -0.8636
  757MOL0     C 4354   7.614   0.351  12.430 -0.5586  0.9209 -0.4106
  757MOL0     C 4355   7.743   0.318  12.380 -0.3722 -0.3740 -0.3845
  757MOL0     C 4356   7.753   0.298  12.228  0.5848  0.6921 -0.5203
  757MOL0     C 4357   7.859   0.316  12.463  1.3399  0.1423 -0.2067
  757MOL0     C 4358   7.993   0.290  12.414 -0.4325  0.3366 -0.4886
  757MOL0     O 4359   8.085   0.322  12.510 -0.1488  0.3096  0.4231
  757MOL0     C 4360   8.217   0.313  12.480  0.1764 -0.5505 -0.2705
  757MOL0     C 4361   8.274   0.192  12.449 -0.4378  0.0682 -0.0412
  757MOL0     C 4362   8.393   0.184  12.392 -0.4300  0.1249  1.1643
  757MOL0     C 4363   8.487   0.296  12.406 -0.0502 -0.3585  0.3761
  757MOL0     O 4364   8.616   0.279  12.358 -0.0853  0.6408  0.1080
  757MOL0     C 4365   8.716   0.275  12.462 -0.5504  1.0816  0.0719
  757MOL0     C 4366   8.855   0.285  12.391  0.1313  0.2508  0.4448
  757MOL0     C 4367   8.973   0.288  12.486  0.7124  0.3522 -0.2679
  757MOL0     C 4368   9.095   0.319  12.402  0.0114 -0.7464  0.5493
  757MOL0     C 4369   9.224   0.311  12.489 -0.9528  0.0389  0.0022
  757MOL0     C 4370   9.279   0.175  12.499 -0.4130  0.4940 -0.4274
  757MOL0     C 4371   9.423   0.166  12.563  0.7773  0.4902 -0.1236
  757MOL0     C 4372   9.476   0.018  12.587  0.2479  0.2046 -0.0194
  757MOL0    Cl 4373   9.609   0.034  12.699 -0.6973  0.1979 -0.0833
  757MOL0     C 4374   8.439   0.419  12.445  0.5688 -0.5314 -0.4051
  757MOL0     C 4375   8.304   0.431  12.473  0.0485 -1.0177 -0.0553
  757MOL0     O 4376   8.025   0.230  12.308 -0.5036  0.0821  0.1305
  757MOL0     C 4377   7.833   0.353  12.603  0.5442  0.5608  0.5616
  757MOL0     C 4378   7.695   0.373  12.647 -0.5532 -0.6979 -0.0085
  757MOL0     N 4379   7.025   0.464  12.190  0.2618  0.1712 -0.5406
  757MOL0     N 4380   6.901   0.472  12.139 -0.9596 -0.3846 -0.0894
  757MOL0     C 4381   5.900  -0.022  11.436  0.5108 -0.7018 -0.2995
  757MOL0     C 4382   5.774  -0.036  11.368 -0.0377  0.0324 -0.7567
  757MOL0     C 4383   5.325   0.108  11.320  0.9330 -0.2974  0.4497
  757MOL0     C 4384   5.281   0.009  11.408 -0.0037  0.5149  0.4761
  757MOL0     C 4385   5.143  -0.030  11.410  0.9395 -0.2334  0.5798
  757MOL0     C 4386   5.048   0.035  11.331 -0.5101  0.1991 -0.6379
  757MOL0     O 4387   4.914   0.001  11.355 -0.8676 -0.2552  0.5047
  757MOL0     C 4388   4.841  -0.007  11.232 -0.5992  0.1703  0.1890
  757MOL0     C 4389   4.701  -0.055  11.277 -0.5030 -0.0646 -0.4160
  757MOL0     C 4390   4.617   0.061  11.336 -0.3296  0.5004 -0.5464
  757MOL0     C 4391   4.484   0.011  11.384  0.5363  0.5381 -0.4013
  757MOL0     C 4392   4.487  -0.078  11.510  0.5539  0.9740  0.3433
  757MOL0     C 4393   4.473  -0.157  11.601 -0.0969 -0.4307  0.8139
  757MOL0     C 4394   5.095   0.131  11.243 -0.2303 -0.1664  0.3250
  757MOL0     C 4395   5.231   0.165  11.233 -0.5343  0.0416  0.0255
  757MOL0     C 4396   5.266   0.253  11.113 -0.3059 -0.1837 -0.4921
  757MOL0     H 4397   5.606   0.198  11.544  0.0651 -1.1377  0.8189
  757MOL0     H 4398   5.814   0.201  11.667  1.6640  0.6357 -1.0898
  757MOL0     H 4399   5.987   0.113  11.808  2.8552 -2.4386  3.3624
  757MOL0     H 4400   6.079   0.220  11.702 -0.8420 -1.4808 -3.9281
  757MOL0     H 4401   6.171  -0.014  11.864  1.1410  0.8699  1.0398
  757MOL0     H 4402   6.245   0.010  11.702 -0.3169 -1.9543  1.2330
  757MOL0     H 4403   6.338   0.213  11.764 -0.4648 -0.3704 -1.0773
  757MOL0     H 4404   6.205   0.244  11.888 -1.4049 -1.0916 -0.0367
  757MOL0     H 4405   6.345   0.024  11.984  0.8020 -0.8557 -0.6196
  757MOL0     H 4406   6.466   0.105  11.884 -1.8248  3.1553 -2.6300
  757MOL0     H 4407   6.299   0.252  12.089 -0.7321 -3.9625  1.5070
  757MOL0     H 4408   6.441   0.309  11.998 -0.4477  0.1993 -0.2256
  757MOL0     H 4409   6.465   0.255  12.243 -1.6901 -0.2639  0.2255
  757MOL0     H 4410   6.470   0.082  12.193 -1.1585  1.1622  2.9501
  757MOL0     H 4411   6.651   0.219  12.005 -0.7871  2.6793 -0.7013
  757MOL0     H 4412   6.711   0.146  12.141  2.9680  1.9312 -0.1516
  757MOL0     H 4413   6.641   0.442  12.100 -3.2050  0.9852  2.0564
  757MOL0     H 4414   6.620   0.377  12.259 -0.5372  1.7208 -0.9099
  757MOL0     H 4415   6.854   0.234  12.358 -0.3030 -0.2934  0.1670
  757MOL0     H 4416   7.231   0.367  12.328 -1.3426 -2.8167 -1.7173
  757MOL0     H 4417   7.146   0.261  12.446  0.7758  1.4451  2.5448
  757MOL0     H 4418   7.131   0.553  12.427 -1.7112 -0.7934 -2.3060
  757MOL0     H 4419   7.033   0.445  12.538 -0.2191 -0.5873 -0.2648
  757MOL0     H 4420   7.210   0.541  12.669  1.8174  0.8478 -0.2368
  757MOL0     H 4421   7.239   0.362  12.642 -0.9373  0.1041 -1.5087
  757MOL0     H 4422   7.390   0.459  12.434 -0.2851 -1.3004  0.9850
  757MOL0     H 4423   7.399   0.592  12.561  0.3534  1.0919  0.5020
  757MOL0     H 4424   7.542   0.349  12.348 -1.7482 -1.2118  0.5921
  757MOL0     H 4425   7.819   0.373  12.185  1.9207  0.5272  1.1478
  757MOL0     H 4426   7.660   0.302  12.170  0.9365  0.4477 -1.1120
  757MOL0     H 4427   7.793   0.200  12.201 -0.0995  0.0923  0.5599
  757MOL0     H 4428   8.212   0.103  12.438  1.4279 -1.1457 -1.4158
  757MOL0     H 4429   8.434   0.093  12.350  2.0547  0.0339  3.4830
  757MOL0     H 4430   8.698   0.355  12.535 -0.9861  4.0099 -3.0247
  757MOL0     H 4431   8.710   0.180  12.517  2.3135  1.7957  1.7957
  757MOL0     H 4432   8.858   0.206  12.315 -0.4543  0.2747  0.3890
  757MOL0     H 4433   8.854   0.386  12.348  0.2291  1.2153  2.5732
  757MOL0     H 4434   8.989   0.200  12.550 -1.8896  3.1089  4.7181
  757MOL0     H 4435   8.957   0.366  12.560  0.5069 -0.8772  1.0171
  757MOL0     H 4436   9.095   0.424  12.369 -2.2520 -0.8071  0.1568
  757MOL0     H 4437   9.113   0.250  12.319 -1.4094 -0.9933  0.4076
  757MOL0     H 4438   9.300   0.374  12.442 -2.0813  0.3148 -1.5387
  757MOL0     H 4439   9.213   0.347  12.591 -2.0583  2.3716 -0.8644
  757MOL0     H 4440   9.291   0.137  12.396  1.3092 -1.9413  0.5672
  757MOL0     H 4441   9.201   0.113  12.543 -2.0375  0.0847 -3.5452
  757MOL0     H 4442   9.420   0.222  12.657  0.0827  3.1752 -1.6579
  757MOL0     H 4443   9.491   0.225  12.501  1.4139  1.2787  1.2700
  757MOL0     H 4444   9.508  -0.042  12.502 -2.8912 -0.7256 -0.6903
  757MOL0     H 4445   9.399  -0.047  12.629 -1.3981  0.2042 -2.8021
  757MOL0     H 4446   8.511   0.500  12.438 -0.1192  0.0013 -1.6351
  757MOL0     H 4447   8.274   0.535  12.474  4.1834  0.3464  0.0075
  757MOL0     H 4448   7.908   0.324  12.677  0.5196 -1.1038 -0.0329
  757MOL0     H 4449   7.665   0.393  12.750  2.2864 -0.7987  0.9329
  757MOL0     H 4450   5.987  -0.080  11.408  0.4398 -1.7808  1.5400
  757MOL0     H 4451   5.759  -0.099  11.281  5.3883 -0.3764 -1.7992
  757MOL0     H 4452   5.352  -0.035  11.477  0.2005 -1.2864 -0.7991
  757MOL0     H 4453   5.102  -0.106  11.476  2.1203 -1.3897  0.0315
  757MOL0     H 4454   4.825   0.086  11.178  0.2957 -0.7177 -1.7094
  757MOL0     H 4455   4.889  -0.081  11.167  0.9347 -0.2084  1.6527
  757MOL0     H 4456   4.726  -0.133  11.349 -0.0661  1.2102  0.8537
  757MOL0     H 4457   4.647  -0.096  11.191 -0.7589  1.8262 -1.1882
  757MOL0     H 4458   4.667   0.095  11.427  1.2339  0.0930 -1.2177
  757MOL0     H 4459   4.600   0.145  11.268 -1.8978  0.6928  0.0344
  757MOL0     H 4460   4.439  -0.053  11.307 -0.5436  1.4535 -0.5505
  757MOL0     H 4461   4.429   0.103  11.404  0.4931  0.1889  1.2167
  757MOL0     H 4462   4.458  -0.216  11.690 -1.9857  0.7817  1.3676
  757MOL0     H 4463   5.029   0.181  11.174  2.1221  1.9983 -0.4850
  757MOL0     H 4464   5.184   0.285  11.049  0.3871 -0.7086 -1.6638
  757MOL0     H 4465   5.316   0.343  11.150 -0.6838  0.4491 -1.5002
  757MOL0     H 4466   5.341   0.203  11.052 -1.3965 -1.8189 -0.5635
  758MOL0     O 4467   9.441   0.426   1.548 -0.6228 -0.1205 -1.2708
  758MOL0     C 4468   9.497   0.320   1.499  0.9304  0.5579 -0.7134
  758MOL0     O 4469   9.464   0.190   1.530 -0.6094  0.0153 -0.4398
  758MOL0     C 4470   9.347   0.178   1.600  0.2490 -0.2046 -0.1781
  758MOL0     C 4471   9.238   0.119   1.537 -0.2733 -0.1438 -0.1586
  758MOL0     C 4472   9.121   0.089   1.613  0.9434  0.5738 -0.2284
  758MOL0     C 4473   9.123   0.116   1.756  0.3436  0.4555  0.0367
  758MOL0     O 4474   9.028   0.082   1.850 -0.4753 -0.1832  0.5047
  758MOL0     C 4475   8.896   0.056   1.800  0.6713  0.5117  0.4938
  758MOL0     C 4476   8.817   0.183   1.773  0.3276  0.1930  0.7067
  758MOL0     C 4477   8.668   0.144   1.760  0.6584 -0.2515  1.9662
  758MOL0     C 4478   8.597   0.278   1.761 -0.9467 -0.6115  1.0151
  758MOL0     C 4479   8.465   0.252   1.829  1.0848 -0.2085  0.5151
  758MOL0     C 4480   8.462   0.232   1.981 -0.0455  0.5121 -0.3391
  758MOL0     C 4481   8.332   0.179   2.033  0.2528  0.5760  0.9584
  758MOL0     C 4482   8.339   0.154   2.188 -1.1501 -0.1233 -0.0276
  758MOL0     N 4483   8.403   0.032   2.228 -0.1841  1.8900 -0.0949
  758MOL0     C 4484   8.538  -0.011   2.207  0.1844 -0.7517  0.3130
  758MOL0     C 4485   8.550  -0.140   2.243  0.2001 -0.0330  0.2156
  758MOL0     C 4486   8.670  -0.236   2.253  0.6974 -0.1513 -0.2601
  758MOL0     C 4487   8.743  -0.271   2.123 -0.5187  0.3103  0.6331
  758MOL0     C 4488   8.652  -0.298   2.011  0.2129  1.1627  0.4546
  758MOL0     C 4489   8.710  -0.346   1.878  0.0684 -0.7245 -0.4752
  758MOL0     O 4490   8.828  -0.265   1.862  0.2255  0.0183 -0.7336
  758MOL0     C 4491   8.921  -0.308   1.768 -1.0327  0.0285 -0.2552
  758MOL0     C 4492   9.048  -0.242   1.773 -0.5779 -1.3343  0.4450
  758MOL0     C 4493   9.148  -0.276   1.681  0.9168  0.2376  0.2512
  758MOL0     C 4494   9.283  -0.215   1.692 -0.6884 -0.2166 -0.3171
  758MOL0     C 4495   9.113  -0.386   1.595 -0.6518  1.0637 -0.6927
  758MOL0     C 4496   9.218  -0.437   1.512  0.3133 -0.2272  0.1243
  758MOL0     O 4497   9.210  -0.393   1.381 -0.0866  0.5541  0.9618
  758MOL0     C 4498   9.330  -0.404   1.316  0.6096  0.2907  0.1172
  758MOL0     C 4499   9.449  -0.345   1.362 -0.0722 -0.2695 -0.7680
  758MOL0     C 4500   9.561  -0.333   1.271  0.1765  0.4667  0.2709
  758MOL0     C 4501   9.545  -0.385   1.134  0.4215 -0.5559 -0.2804
  758MOL0     O 4502   9.628  -0.372   1.028 -0.2078  0.0594  0.2055
  758MOL0     C 4503   9.750  -0.308   1.038 -0.1131 -1.0180 -0.4433
  758MOL0     C 4504   9.818  -0.329   0.895  0.1105  0.6374  0.6057
  758MOL0     C 4505   9.724  -0.279   0.783 -0.9586  0.7409 -0.3673
  758MOL0     C 4506   9.802  -0.305   0.655  0.1613  0.1668  0.9781
  758MOL0     C 4507   9.725  -0.260   0.532  0.5664 -0.2699 -0.6175
  758MOL0     C 4508   9.812  -0.207   0.415 -1.0736  0.3964  0.4746
  758MOL0     C 4509   9.883  -0.329   0.327  0.1874 -0.5953  0.5253
  758MOL0     C 4510  10.001  -0.271   0.246  0.4707  0.1336 -0.8078
  758MOL0    Cl 4511  10.090  -0.400   0.165  0.0538  0.1618 -0.2610
  758MOL0     C 4512   9.425  -0.459   1.103  1.2488  0.3615  0.1363
  758MOL0     C 4513   9.318  -0.464   1.187  0.3554  0.2956  0.0577
  758MOL0     O 4514   9.303  -0.512   1.560  0.8917  0.2393 -0.4844
  758MOL0     C 4515   8.977  -0.431   1.574 -0.4171 -0.5081 -0.7584
  758MOL0     C 4516   8.882  -0.391   1.664  0.3429 -0.1076 -0.0222
  758MOL0     N 4517   8.427  -0.181   2.273  0.8429  0.0501 -0.8718
  758MOL0     N 4518   8.341  -0.080   2.268  0.0235  0.6060  0.1222
  758MOL0     C 4519   9.236   0.180   1.810  1.1955  0.3967  0.6466
  758MOL0     C 4520   9.351   0.204   1.737 -0.0047 -0.1549  0.1067
  758MOL0     C 4521   9.607   0.336   1.398  0.7490  0.0922  0.2396
  758MOL0     C 4522   9.724   0.256   1.393 -0.2358 -0.3585 -0.9450
  758MOL0     C 4523   9.819   0.269   1.292  0.6674  0.3840 -0.0645
  758MOL0     C 4524   9.796   0.356   1.182  0.9482  0.4163 -0.1764
  758MOL0     O 4525   9.888   0.365   1.077  0.6378 -0.3034  0.6653
  758MOL0     C 4526   9.932   0.498   1.064 -0.0666  0.5170 -0.0929
  758MOL0     C 4527  10.071   0.510   1.126  0.3846 -1.1192  0.3197
  758MOL0     C 4528  10.105   0.644   1.196 -0.3924  0.3008 -0.7741
  758MOL0     C 4529  10.244   0.698   1.168 -1.2091  0.0697 -0.4942
  758MOL0     C 4530  10.349   0.599   1.219 -0.1343  1.0677  0.0519
  758MOL0     C 4531  10.432   0.519   1.260 -0.3666  0.2107  0.0078
  758MOL0     C 4532   9.680   0.422   1.175  0.4815 -0.3552  0.8089
  758MOL0     C 4533   9.579   0.406   1.279  0.0751  0.1523 -0.9411
  758MOL0     C 4534   9.458   0.497   1.262  0.1342  0.2727 -0.3103
  758MOL0     H 4535   9.250   0.104   1.430  0.1843  0.5276 -0.2040
  758MOL0     H 4536   9.049   0.023   1.567 -0.3948 -2.8713  5.6865
  758MOL0     H 4537   8.852   0.003   1.885 -1.2140  2.4328  0.7994
  758MOL0     H 4538   8.893  -0.015   1.716 -3.2469 -0.8510  1.5587
  758MOL0     H 4539   8.833   0.259   1.849 -1.8437  1.7857 -0.3411
  758MOL0     H 4540   8.849   0.222   1.676  0.5799 -0.4835  0.5142
  758MOL0     H 4541   8.652   0.097   1.663  1.8567  0.1643  1.5374
  758MOL0     H 4542   8.641   0.078   1.843 -0.7978 -2.5534 -0.2022
  758MOL0     H 4543   8.648   0.354   1.821 -0.0822  0.7744 -1.3325
  758MOL0     H 4544   8.587   0.310   1.657  1.8519 -0.4165  0.7442
  758MOL0     H 4545   8.437   0.161   1.775  2.1391  0.1744 -0.7365
  758MOL0     H 4546   8.383   0.316   1.794 -0.0930 -2.1099 -0.4207
  758MOL0     H 4547   8.544   0.164   2.007 -0.4427 -0.3453 -1.2361
  758MOL0     H 4548   8.477   0.334   2.017  0.1402  0.2993  0.1916
  758MOL0     H 4549   8.297   0.088   1.984 -0.5336  1.5031 -0.2583
  758MOL0     H 4550   8.254   0.254   2.019 -1.4015 -1.0895  0.8533
  758MOL0     H 4551   8.393   0.236   2.236 -3.9740  1.9742 -0.1954
  758MOL0     H 4552   8.237   0.157   2.228 -0.9343  0.8172  0.4721
  758MOL0     H 4553   8.629   0.045   2.187  1.1369 -1.7649  1.6858
  758MOL0     H 4554   8.634  -0.334   2.285 -1.1880  0.4381 -0.4639
  758MOL0     H 4555   8.737  -0.189   2.326  1.2601  2.0936 -2.1220
  758MOL0     H 4556   8.811  -0.189   2.097  0.5600 -0.6027  0.4825
  758MOL0     H 4557   8.814  -0.354   2.134 -2.2375 -1.3983 -0.5063
  758MOL0     H 4558   8.584  -0.378   2.041 -0.0857 -0.2360 -3.4863
  758MOL0     H 4559   8.587  -0.213   1.988 -1.4100  0.8500  3.3625
  758MOL0     H 4560   8.734  -0.452   1.891 -1.0548 -1.0913 -1.2672
  758MOL0     H 4561   8.634  -0.337   1.800  1.9367 -0.9731 -2.4265
  758MOL0     H 4562   9.059  -0.170   1.852 -0.9064 -2.8910  1.9700
  758MOL0     H 4563   9.295  -0.163   1.787  1.3279  2.7254 -2.0279
  758MOL0     H 4564   9.298  -0.134   1.620  1.0005  5.0387  5.1147
  758MOL0     H 4565   9.362  -0.290   1.679  0.0666  0.8684 -2.4857
  758MOL0     H 4566   9.447  -0.299   1.460  0.0257 -0.3407 -0.7334
  758MOL0     H 4567   9.651  -0.272   1.284  0.7722 -0.0328 -1.1859
  758MOL0     H 4568   9.722  -0.205   1.062 -2.6259 -2.1258  1.8968
  758MOL0     H 4569   9.806  -0.350   1.123  1.9874  1.1882 -0.6305
  758MOL0     H 4570   9.913  -0.277   0.882 -1.2703  2.8257 -1.8309
  758MOL0     H 4571   9.841  -0.433   0.870 -2.1880  0.7405 -2.4885
  758MOL0     H 4572   9.707  -0.171   0.792  1.5785  1.2201 -0.5696
  758MOL0     H 4573   9.635  -0.341   0.790  0.9761 -2.1128  1.1547
  758MOL0     H 4574   9.818  -0.412   0.634 -1.7495  0.4128 -2.3434
  758MOL0     H 4575   9.898  -0.253   0.665  0.4183 -0.1768  0.3722
  758MOL0     H 4576   9.658  -0.340   0.499 -1.2630  0.1496  1.7932
  758MOL0     H 4577   9.660  -0.177   0.559  0.1963 -0.9424  0.6223
  758MOL0     H 4578   9.886  -0.139   0.459  0.2523 -0.8089  0.1725
  758MOL0     H 4579   9.747  -0.145   0.351 -1.5839 -2.2378 -1.7433
  758MOL0     H 4580   9.815  -0.370   0.252  1.9956  0.6091 -1.8916
  758MOL0     H 4581   9.927  -0.401   0.397  0.8419  0.4025  1.1743
  758MOL0     H 4582  10.076  -0.229   0.314 -0.6443  0.9190 -0.0230
  758MOL0     H 4583   9.956  -0.198   0.178 -1.1271 -1.0396 -1.0634
  758MOL0     H 4584   9.442  -0.505   1.007  1.3041  1.5990 -0.4609
  758MOL0     H 4585   9.218  -0.495   1.159  0.4138 -1.2083  1.3302
  758MOL0     H 4586   8.960  -0.496   1.489 -0.4206  2.5630 -3.2811
  758MOL0     H 4587   8.783  -0.432   1.649  0.5698 -1.0909  1.0729
  758MOL0     H 4588   9.242   0.192   1.918 -1.6947  1.5924  0.7777
  758MOL0     H 4589   9.445   0.238   1.781 -0.4006  0.2541  0.6471
  758MOL0     H 4590   9.751   0.182   1.468  0.0565  0.3602 -0.3315
  758MOL0     H 4591   9.907   0.206   1.302 -0.9420 -2.3475 -1.9779
  758MOL0     H 4592   9.944   0.537   0.963  1.8117 -0.4659 -0.2889
  758MOL0     H 4593   9.875   0.573   1.121 -0.1140  1.1793 -0.9870
  758MOL0     H 4594  10.142   0.484   1.046 -0.6136 -1.6763 -0.4152
  758MOL0     H 4595  10.092   0.432   1.200  4.0759  0.2076  0.8724
  758MOL0     H 4596  10.037   0.721   1.157 -0.4840 -0.0218 -1.2696
  758MOL0     H 4597  10.085   0.629   1.302 -2.0135  3.0573 -0.5952
  758MOL0     H 4598  10.267   0.797   1.207  0.5659 -0.2704 -0.5768
  758MOL0     H 4599  10.253   0.704   1.060 -0.1909  1.0488 -0.3725
  758MOL0     H 4600  10.492   0.451   1.318 -1.0275  1.2986  2.0967
  758MOL0     H 4601   9.661   0.490   1.093 -1.5613  1.4052  2.6213
  758MOL0     H 4602   9.455   0.554   1.169  0.4691  0.1555 -0.3913
  758MOL0     H 4603   9.366   0.438   1.273  0.1959  0.3909  1.0360
  758MOL0     H 4604   9.467   0.571   1.343  2.5110 -1.4568  1.1450
  759MOL0     O 4605   9.673   4.324   3.445  0.7457 -0.0076  0.1825
  759MOL0     C 4606   9.638   4.395   3.348  0.5242 -0.5603  0.3124
  759MOL0     O 4607   9.725   4.467   3.272 -0.0811 -0.2629 -0.2545
  759MOL0     C 4608   9.863   4.448   3.305  0.8611 -0.6284 -0.1148
  759MOL0     C 4609   9.937   4.557   3.365 -0.3612 -0.3879  0.1112
  759MOL0     C 4610  10.073   4.546   3.400 -0.4929 -0.1897 -0.7039
  759MOL0     C 4611  10.135   4.423   3.381  0.0229  0.5797  0.1269
  759MOL0     O 4612  10.261   4.401   3.422 -0.7939 -0.4444  0.0082
  759MOL0     C 4613  10.359   4.508   3.446  0.0151  0.3433  1.2845
  759MOL0     C 4614  10.493   4.449   3.465  0.5110 -0.1595 -0.7436
  759MOL0     C 4615  10.596   4.559   3.473 -0.5472 -0.9357 -1.1981
  759MOL0     C 4616  10.716   4.515   3.561 -0.1579  0.6662 -0.1327
  759MOL0     C 4617  10.823   4.623   3.578 -0.3996 -0.4330  0.3500
  759MOL0     C 4618  10.941   4.557   3.641 -0.8452  0.8803 -1.2808
  759MOL0     C 4619  11.067   4.639   3.676 -0.4457  0.7113 -0.5821
  759MOL0     C 4620  11.174   4.641   3.574 -1.0687  0.5155 -0.5225
  759MOL0     N 4621  11.291   4.558   3.624 -0.6491  0.3174 -0.2768
  759MOL0     C 4622  11.392   4.598   3.702 -0.0995  0.6183  0.4092
  759MOL0     C 4623  11.452   4.486   3.754 -0.0686  0.6695 -0.1614
  759MOL0     C 4624  11.576   4.473   3.839  0.5413 -0.3235 -0.7025
  759MOL0     C 4625  11.695   4.394   3.771  0.2512  0.0156  0.1841
  759MOL0     C 4626  11.815   4.396   3.864 -0.0992 -0.6688 -0.5190
  759MOL0     C 4627  11.809   4.274   3.959  0.1184  0.3624 -0.3334
  759MOL0     O 4628  11.821   4.151   3.881  0.4169  0.0010  0.0016
  759MOL0     C 4629  11.951   4.121   3.830 -0.4129  0.8463 -0.1366
  759MOL0     C 4630  12.067   4.147   3.905 -1.0464  0.9448 -0.4051
  759MOL0     C 4631  12.198   4.103   3.870  0.2522 -0.6542 -0.3219
  759MOL0     C 4632  12.318   4.127   3.963  0.1418 -0.0418  0.0407
  759MOL0     C 4633  12.214   4.054   3.742 -0.1773  1.1040 -0.5283
  759MOL0     C 4634  12.343   4.018   3.688  0.4056 -0.2984  0.3544
  759MOL0     O 4635  12.387   3.888   3.683  0.1791  0.3665  0.2389
  759MOL0     C 4636  12.505   3.865   3.632 -0.2338 -0.6750  1.1039
  759MOL0     C 4637  12.622   3.903   3.706  0.2348 -0.1508 -0.5913
  759MOL0     C 4638  12.743   3.864   3.670 -0.0072  0.4261  0.2669
  759MOL0     C 4639  12.756   3.788   3.550  0.4617 -0.4117  0.3801
  759MOL0     O 4640  12.884   3.764   3.515  0.1129 -0.1967  0.2270
  759MOL0     C 4641  12.930   3.687   3.405 -0.3281  0.4205 -0.0151
  759MOL0     C 4642  13.076   3.641   3.412 -0.4537 -0.7265  0.1573
  759MOL0     C 4643  13.171   3.769   3.398  0.7093 -0.9003  0.1808
  759MOL0     C 4644  13.166   3.861   3.520 -0.0123  0.2265 -0.2759
  759MOL0     C 4645  13.284   3.949   3.530  0.1264  1.0646 -0.7368
  759MOL0     C 4646  13.273   4.062   3.634 -0.4095  0.3376  0.3347
  759MOL0     C 4647  13.412   4.138   3.607 -0.0551 -0.5714  0.4086
  759MOL0     C 4648  13.452   4.229   3.715 -1.0349  0.4274 -0.6433
  759MOL0    Cl 4649  13.506   4.165   3.876  0.2355 -0.1826  0.3519
  759MOL0     C 4650  12.642   3.744   3.477 -0.3934  0.0742 -0.2703
  759MOL0     C 4651  12.519   3.777   3.517 -1.1345 -0.1912 -0.4477
  759MOL0     O 4652  12.407   4.113   3.641  1.1453  0.3882 -0.8483
  759MOL0     C 4653  12.099   4.005   3.675 -0.8253 -0.0755 -1.1895
  759MOL0     C 4654  11.972   4.039   3.719  0.0617 -0.1351  0.1612
  759MOL0     N 4655  11.379   4.383   3.706  0.0738  0.1843  0.7806
  759MOL0     N 4656  11.279   4.421   3.638  0.3265 -0.5533 -0.4127
  759MOL0     C 4657  10.065   4.314   3.326  0.9737 -0.3916  0.0691
  759MOL0     C 4658   9.928   4.327   3.288 -0.0806 -1.2592 -1.2150
  759MOL0     C 4659   9.499   4.438   3.320  0.4509  0.0975  0.0958
  759MOL0     C 4660   9.475   4.561   3.264 -0.6957  0.2598 -0.4202
  759MOL0     C 4661   9.345   4.613   3.258  0.8747  0.1979 -0.8579
  759MOL0     C 4662   9.233   4.543   3.302 -0.3273  0.8820 -0.5899
  759MOL0     O 4663   9.111   4.604   3.299  0.5660  0.6101  0.3618
  759MOL0     C 4664   8.998   4.507   3.332 -0.3061  0.2103 -0.8744
  759MOL0     C 4665   8.862   4.577   3.303  0.5345 -0.0232  0.5672
  759MOL0     C 4666   8.828   4.696   3.386  0.1152  0.3003 -0.3458
  759MOL0     C 4667   8.734   4.808   3.327 -0.0738 -0.7799  0.3331
  759MOL0     C 4668   8.617   4.770   3.250 -0.6435 -0.0384 -0.2014
  759MOL0     C 4669   8.529   4.718   3.191  1.0421  0.4418  0.6027
  759MOL0     C 4670   9.257   4.415   3.361  0.8740  0.3902 -0.2885
  759MOL0     C 4671   9.382   4.362   3.359 -0.2466  1.1845  0.1308
  759MOL0     C 4672   9.395   4.214   3.389  0.1482  0.6263 -0.3207
  759MOL0     H 4673   9.886   4.652   3.376 -2.3721 -0.9233 -3.2700
  759MOL0     H 4674  10.124   4.634   3.437 -2.3189  0.9046 -0.6681
  759MOL0     H 4675  10.348   4.576   3.530  1.3717  1.4738  0.5909
  759MOL0     H 4676  10.353   4.570   3.356 -1.5992  0.4513  1.4428
  759MOL0     H 4677  10.486   4.396   3.561 -1.1996  1.9715  0.3903
  759MOL0     H 4678  10.507   4.374   3.387  0.1711  1.7628 -2.7337
  759MOL0     H 4679  10.629   4.563   3.368  2.4377 -4.1791 -0.6067
  759MOL0     H 4680  10.562   4.658   3.504  0.9935 -0.6953 -0.1633
  759MOL0     H 4681  10.680   4.492   3.662 -2.1004  0.3985 -0.8606
  759MOL0     H 4682  10.763   4.429   3.511 -0.1716  0.5783  0.0040
  759MOL0     H 4683  10.766   4.689   3.643 -3.6513 -2.8102  0.2049
  759MOL0     H 4684  10.843   4.673   3.483 -1.2745  0.9924  0.8935
  759MOL0     H 4685  10.899   4.516   3.734  1.0283 -1.7147 -1.4659
  759MOL0     H 4686  10.967   4.476   3.572 -3.3764 -0.1757 -1.1009
  759MOL0     H 4687  11.102   4.610   3.775  0.1288 -4.0765 -1.9209
  759MOL0     H 4688  11.031   4.742   3.683  1.3637  1.2541  2.7297
  759MOL0     H 4689  11.131   4.606   3.480 -0.4479  1.8083 -1.3160
  759MOL0     H 4690  11.206   4.745   3.573  1.7296 -0.1742  1.7445
  759MOL0     H 4691  11.420   4.702   3.718  0.3695  0.6245 -0.3988
  759MOL0     H 4692  11.552   4.426   3.934  2.0276  0.7570  0.2644
  759MOL0     H 4693  11.606   4.576   3.863  2.4112 -0.8541 -0.6016
  759MOL0     H 4694  11.672   4.290   3.746 -1.9122  0.3422  0.6188
  759MOL0     H 4695  11.721   4.446   3.678  3.1012 -0.3358  0.7225
  759MOL0     H 4696  11.913   4.402   3.815  0.6557 -0.2225  0.9909
  759MOL0     H 4697  11.812   4.492   3.917 -0.5609  0.2427 -2.1051
  759MOL0     H 4698  11.880   4.287   4.041  1.4574  2.1943 -1.7076
  759MOL0     H 4699  11.713   4.271   4.011  0.7457 -1.3643  0.8340
  759MOL0     H 4700  12.048   4.190   4.003 -3.6948  0.1790 -0.4888
  759MOL0     H 4701  12.368   4.225   3.961  0.5617 -0.1343  2.6281
  759MOL0     H 4702  12.393   4.047   3.955  0.5887  0.4267 -0.5410
  759MOL0     H 4703  12.285   4.126   4.068  0.7849 -3.2686  0.3029
  759MOL0     H 4704  12.599   3.964   3.793 -1.9037 -2.0522  0.2762
  759MOL0     H 4705  12.833   3.901   3.719  1.2139  2.0335 -2.8812
  759MOL0     H 4706  12.869   3.597   3.391  1.7264 -1.0179 -0.2150
  759MOL0     H 4707  12.917   3.751   3.317 -1.6917  1.2237  0.7304
  759MOL0     H 4708  13.101   3.595   3.508  3.2548  0.0031 -0.2999
  759MOL0     H 4709  13.106   3.572   3.333  0.6561  1.1605 -1.1451
  759MOL0     H 4710  13.132   3.838   3.322  0.9191  0.7313  1.4907
  759MOL0     H 4711  13.274   3.732   3.387 -0.0400 -3.3955  0.9740
  759MOL0     H 4712  13.134   3.804   3.609  0.8738  0.6522  0.3278
  759MOL0     H 4713  13.084   3.933   3.509  0.5981  0.8802 -0.5893
  759MOL0     H 4714  13.366   3.879   3.549 -0.2610  0.4963 -1.1278
  759MOL0     H 4715  13.301   3.993   3.431 -4.0371 -0.3850 -2.3379
  759MOL0     H 4716  13.280   4.027   3.737 -0.1980 -1.2331 -0.1929
  759MOL0     H 4717  13.187   4.128   3.616  0.9380  1.8291 -1.0565
  759MOL0     H 4718  13.419   4.182   3.508  1.7621 -1.7129 -0.0285
  759MOL0     H 4719  13.494   4.065   3.598 -0.3912 -0.8488 -0.4333
  759MOL0     H 4720  13.371   4.292   3.752 -0.7448 -0.4834  1.6622
  759MOL0     H 4721  13.540   4.284   3.680  0.5570 -0.6010  1.5261
  759MOL0     H 4722  12.647   3.688   3.384 -0.8419  1.2524 -1.0295
  759MOL0     H 4723  12.438   3.726   3.466 -0.2427 -1.8151 -0.3025
  759MOL0     H 4724  12.114   3.965   3.575 -0.3306  1.6346 -1.8312
  759MOL0     H 4725  11.882   4.019   3.662 -0.9590  0.6846  1.4116
  759MOL0     H 4726  10.103   4.213   3.318  0.3435 -0.7591  1.5090
  759MOL0     H 4727   9.877   4.234   3.265  0.2411 -1.3162 -1.7099
  759MOL0     H 4728   9.558   4.616   3.220 -0.2134 -0.5496 -0.5420
  759MOL0     H 4729   9.323   4.715   3.227  0.5097  0.3285 -0.1727
  759MOL0     H 4730   9.009   4.422   3.264  1.1148 -0.3294 -0.0216
  759MOL0     H 4731   9.001   4.482   3.439 -3.9014  0.3177 -0.6163
  759MOL0     H 4732   8.786   4.498   3.303  0.0667  0.4070  1.7095
  759MOL0     H 4733   8.862   4.600   3.196 -2.4715  1.1146  0.7132
  759MOL0     H 4734   8.799   4.659   3.485 -0.5577 -0.7588 -0.9271
  759MOL0     H 4735   8.918   4.755   3.406 -0.5782  1.0828  0.5807
  759MOL0     H 4736   8.799   4.876   3.270 -0.1260 -1.2589 -0.3128
  759MOL0     H 4737   8.696   4.870   3.408 -0.2667 -1.1789  0.5468
  759MOL0     H 4738   8.446   4.674   3.139 -0.2438  2.0104  1.2627
  759MOL0     H 4739   9.176   4.356   3.404  0.5574  0.8236 -0.2890
  759MOL0     H 4740   9.418   4.203   3.495 -2.5377  1.6592  0.4565
  759MOL0     H 4741   9.299   4.165   3.371 -0.9272  2.1076  1.1149
  759MOL0     H 4742   9.474   4.175   3.324 -0.8182 -0.5548 -0.8352
  760MOL0     O 4743   3.726   4.836   4.001  0.3388 -0.3661 -0.4633
  760MOL0     C 4744   3.723   4.888   4.113  0.9812 -0.1370  1.0122
  760MOL0     O 4745   3.693   5.022   4.132 -0.0958  0.3255  0.1647
  760MOL0     C 4746   3.685   5.115   4.027 -0.4806  0.0167 -0.8143
  760MOL0     C 4747   3.602   5.087   3.918  0.3952 -0.0951  0.2599
  760MOL0     C 4748   3.594   5.189   3.821  0.1375 -0.3331  1.0979
  760MOL0     C 4749   3.677   5.306   3.828 -0.0768 -0.1493  1.1151
  760MOL0     O 4750   3.668   5.405   3.733  0.4802  0.4561  0.4707
  760MOL0     C 4751   3.551   5.482   3.711  0.3538 -1.2976 -0.0967
  760MOL0     C 4752   3.551   5.553   3.574  0.0680  0.1722  0.2588
  760MOL0     C 4753   3.515   5.465   3.452  0.2408  0.7813  0.3233
  760MOL0     C 4754   3.588   5.503   3.330  0.1820  0.4825  0.6356
  760MOL0     C 4755   3.545   5.446   3.196  0.6847  0.3651  0.3871
  760MOL0     C 4756   3.655   5.460   3.086  0.8476 -0.9893  0.1973
  760MOL0     C 4757   3.611   5.364   2.966  0.6115  0.5761 -0.2607
  760MOL0     C 4758   3.719   5.382   2.857 -0.5495 -0.1673  0.6316
  760MOL0     N 4759   3.710   5.504   2.774  0.2340 -1.1676 -0.2770
  760MOL0     C 4760   3.625   5.526   2.667 -0.6924  0.4163  0.0775
  760MOL0     C 4761   3.648   5.650   2.625 -0.0007 -0.6806  0.2529
  760MOL0     C 4762   3.573   5.706   2.511  0.6797  0.0334  0.1832
  760MOL0     C 4763   3.657   5.777   2.405 -0.4653 -0.9835  0.2504
  760MOL0     C 4764   3.564   5.845   2.288 -0.3420  0.0867  0.2085
  760MOL0     C 4765   3.640   5.937   2.201 -0.1180 -0.0057  1.1446
  760MOL0     O 4766   3.748   5.872   2.131  0.6939 -0.6398 -0.5914
  760MOL0     C 4767   3.784   5.920   2.001  0.8093 -0.3453  0.1639
  760MOL0     C 4768   3.835   5.828   1.914 -0.3826 -0.2503 -0.3783
  760MOL0     C 4769   3.881   5.864   1.787 -0.3381 -0.4683 -0.5481
  760MOL0     C 4770   3.919   5.759   1.691  0.0320  1.2165 -0.6928
  760MOL0     C 4771   3.891   6.005   1.753 -0.2927 -0.8415 -0.3829
  760MOL0     C 4772   3.956   6.065   1.624  0.5857  0.2357 -0.6179
  760MOL0     O 4773   3.927   6.193   1.600  0.4475 -0.4044 -0.3634
  760MOL0     C 4774   4.002   6.263   1.509 -0.3868  0.1194  0.4677
  760MOL0     C 4775   4.146   6.266   1.485 -0.0238 -0.2316  0.3870
  760MOL0     C 4776   4.197   6.354   1.390 -0.1581 -0.4853 -0.5118
  760MOL0     C 4777   4.115   6.443   1.312  0.9714  0.0312  0.3372
  760MOL0     O 4778   4.141   6.523   1.203  0.0173  0.0542 -0.3349
  760MOL0     C 4779   4.282   6.530   1.173  0.0935  0.0232 -0.2572
  760MOL0     C 4780   4.308   6.625   1.063 -0.2194 -0.2848 -0.2208
  760MOL0     C 4781   4.227   6.601   0.945  0.0626 -0.1268  0.7592
  760MOL0     C 4782   4.305   6.625   0.817 -0.2836 -0.4756 -0.6378
  760MOL0     C 4783   4.224   6.630   0.691 -0.4291 -0.0660  0.4214
  760MOL0     C 4784   4.326   6.616   0.580  0.4474 -1.1028  0.9962
  760MOL0     C 4785   4.248   6.592   0.459  0.3529  0.5510 -0.8093
  760MOL0     C 4786   4.143   6.703   0.408 -0.8056 -0.0365 -0.0509
  760MOL0    Cl 4787   4.093   6.670   0.240 -0.4258 -0.2581 -0.1384
  760MOL0     C 4788   3.982   6.435   1.339  0.4869 -0.1800 -1.1329
  760MOL0     C 4789   3.931   6.353   1.446  0.4916  0.3300  0.1084
  760MOL0     O 4790   4.039   5.996   1.566 -1.1283  0.0656 -0.3047
  760MOL0     C 4791   3.824   6.100   1.839 -0.2161 -0.5571 -0.4806
  760MOL0     C 4792   3.773   6.055   1.959 -0.4805  0.0583  0.1108
  760MOL0     N 4793   3.739   5.710   2.714 -0.1479 -0.6612  0.5866
  760MOL0     N 4794   3.777   5.626   2.800 -0.9900 -0.0712  0.6110
  760MOL0     C 4795   3.755   5.330   3.942 -0.2221  0.0052  0.2676
  760MOL0     C 4796   3.760   5.233   4.044  0.6732 -0.2668 -0.2337
  760MOL0     C 4797   3.739   4.783   4.215 -0.5855  0.1744  0.5534
  760MOL0     C 4798   3.721   4.645   4.177  0.3286 -0.1047  0.5881
  760MOL0     C 4799   3.728   4.540   4.274  0.2282 -0.2618 -0.5761
  760MOL0     C 4800   3.747   4.570   4.410 -0.6032  1.1079 -0.7463
  760MOL0     O 4801   3.739   4.462   4.493  0.8179 -0.0361  0.5213
  760MOL0     C 4802   3.786   4.484   4.624 -0.3816  0.6985 -0.7431
  760MOL0     C 4803   3.794   4.342   4.687 -0.7870  0.8627 -0.4499
  760MOL0     C 4804   3.892   4.260   4.599 -0.8270  0.3111 -1.0116
  760MOL0     C 4805   3.926   4.125   4.653 -0.0613  0.0604  0.2783
  760MOL0     C 4806   3.822   4.029   4.674 -0.8462  1.0000  0.2720
  760MOL0     C 4807   3.749   3.938   4.668 -0.1200 -0.3218  0.6391
  760MOL0     C 4808   3.770   4.704   4.453 -0.1917 -0.2413  0.2072
  760MOL0     C 4809   3.766   4.807   4.355  0.3219  0.2831 -0.1276
  760MOL0     C 4810   3.801   4.947   4.407 -0.1353 -0.4193  0.4876
  760MOL0     H 4811   3.547   4.994   3.909 -0.6060  0.6218 -1.9550
  760MOL0     H 4812   3.533   5.176   3.732  2.8586 -1.9042 -0.6679
  760MOL0     H 4813   3.545   5.555   3.792  5.9450  1.6647 -1.8128
  760MOL0     H 4814   3.465   5.414   3.717  0.2606 -1.2576 -0.9406
  760MOL0     H 4815   3.476   5.633   3.577 -0.1236  0.1918 -2.4715
  760MOL0     H 4816   3.650   5.597   3.561  0.1091  0.3032  0.9672
  760MOL0     H 4817   3.540   5.360   3.472 -0.2951  0.7425  0.8306
  760MOL0     H 4818   3.407   5.466   3.433 -0.2491  0.1116  2.6602
  760MOL0     H 4819   3.581   5.612   3.318  0.6658  0.3905 -0.6332
  760MOL0     H 4820   3.692   5.473   3.347 -0.1428 -1.8279 -0.9707
  760MOL0     H 4821   3.458   5.508   3.173  1.1065  1.0698  0.6807
  760MOL0     H 4822   3.513   5.342   3.208 -1.3369  1.0025  0.9708
  760MOL0     H 4823   3.651   5.562   3.046 -1.6886 -1.8652 -2.0779
  760MOL0     H 4824   3.757   5.442   3.121  0.2220 -4.0410  0.7733
  760MOL0     H 4825   3.515   5.382   2.918  0.6843 -0.5980 -0.8727
  760MOL0     H 4826   3.614   5.262   3.006  0.9961  1.4538  2.1675
  760MOL0     H 4827   3.816   5.384   2.908 -0.7924 -2.7631  1.3425
  760MOL0     H 4828   3.730   5.290   2.799  1.7659  0.1599  0.4480
  760MOL0     H 4829   3.573   5.444   2.619  0.1915 -1.2317  1.7943
  760MOL0     H 4830   3.490   5.770   2.540 -0.1626 -1.2145  0.6059
  760MOL0     H 4831   3.532   5.628   2.446 -0.2800  0.4224  0.3048
  760MOL0     H 4832   3.712   5.855   2.459 -2.8254  1.1766 -0.2511
  760MOL0     H 4833   3.734   5.717   2.357  0.6220  3.8007 -5.0596
  760MOL0     H 4834   3.534   5.760   2.227  2.2772 -1.6652  1.1419
  760MOL0     H 4835   3.480   5.902   2.328  0.5989  0.5907  1.5561
  760MOL0     H 4836   3.572   5.988   2.131 -0.0246  0.4976  1.4123
  760MOL0     H 4837   3.681   6.023   2.255  1.6580  0.3732 -0.7077
  760MOL0     H 4838   3.833   5.726   1.951  0.9796 -0.0795  0.2288
  760MOL0     H 4839   3.845   5.678   1.687  1.4418 -0.1584 -0.2020
  760MOL0     H 4840   4.012   5.718   1.732 -0.2437 -0.8658 -2.0161
  760MOL0     H 4841   3.926   5.793   1.587 -0.0545  1.6615 -0.5532
  760MOL0     H 4842   4.213   6.202   1.542  0.3304  1.3861  1.8568
  760MOL0     H 4843   4.306   6.363   1.385  0.1224 -3.4206 -1.8608
  760MOL0     H 4844   4.331   6.565   1.264  0.9366 -2.3677  0.2778
  760MOL0     H 4845   4.323   6.434   1.140  2.2659  0.7883  0.0324
  760MOL0     H 4846   4.289   6.731   1.085  0.0057 -0.1945 -0.4626
  760MOL0     H 4847   4.415   6.626   1.042 -0.3140  0.2227 -0.7346
  760MOL0     H 4848   4.143   6.671   0.953  2.0618  2.7233 -1.0857
  760MOL0     H 4849   4.178   6.504   0.949 -0.9341  0.2989 -0.3617
  760MOL0     H 4850   4.400   6.571   0.824  0.0184  0.2388  1.4825
  760MOL0     H 4851   4.344   6.727   0.825  0.9906 -1.0265  0.8423
  760MOL0     H 4852   4.154   6.547   0.686  1.6946 -1.9367 -0.1268
  760MOL0     H 4853   4.152   6.711   0.680 -1.8778 -1.4574 -0.7571
  760MOL0     H 4854   4.379   6.522   0.596 -0.5981 -2.1937 -1.4817
  760MOL0     H 4855   4.401   6.694   0.566  0.2838 -1.2130 -0.6745
  760MOL0     H 4856   4.201   6.493   0.464  3.4664 -0.9741  0.3639
  760MOL0     H 4857   4.307   6.590   0.367  2.0884 -0.1001  0.2876
  760MOL0     H 4858   4.198   6.798   0.409  1.6147 -1.2296 -3.4120
  760MOL0     H 4859   4.056   6.702   0.474  0.4984 -0.4199  1.7398
  760MOL0     H 4860   3.909   6.497   1.287  0.6432  0.2921 -0.8005
  760MOL0     H 4861   3.826   6.354   1.474  0.7117 -0.5279  0.9975
  760MOL0     H 4862   3.814   6.204   1.808  1.2946 -0.6855 -1.5318
  760MOL0     H 4863   3.733   6.132   2.024  0.2646  4.4102 -4.0322
  760MOL0     H 4864   3.801   5.428   3.954 -3.3899  1.6170  0.3632
  760MOL0     H 4865   3.819   5.248   4.134  1.6615 -0.7158 -0.8016
  760MOL0     H 4866   3.692   4.602   4.081  1.4654  0.5869 -0.0902
  760MOL0     H 4867   3.735   4.436   4.244 -0.2289 -0.9933  1.7090
  760MOL0     H 4868   3.887   4.524   4.633  1.0667 -2.5719 -0.9281
  760MOL0     H 4869   3.722   4.552   4.681  1.6044  0.7923  1.5496
  760MOL0     H 4870   3.697   4.291   4.686 -0.4758  0.2568 -0.7153
  760MOL0     H 4871   3.819   4.350   4.793  3.0637  1.3090 -1.2514
  760MOL0     H 4872   3.849   4.239   4.500  0.0168  0.4825 -1.4189
  760MOL0     H 4873   3.979   4.325   4.582 -0.0833  0.4616  2.6655
  760MOL0     H 4874   3.982   4.135   4.746  0.8959 -0.7666 -0.1773
  760MOL0     H 4875   3.996   4.081   4.581  1.8133  1.0587  1.4041
  760MOL0     H 4876   3.687   3.851   4.667 -1.7051  0.7625  0.4287
  760MOL0     H 4877   3.783   4.738   4.555 -1.6665  1.1294 -0.0440
  760MOL0     H 4878   3.837   5.014   4.328 -3.4923 -1.0401 -1.7713
  760MOL0     H 4879   3.707   4.982   4.449 -0.0909 -0.7843  0.8888
  760MOL0     H 4880   3.877   4.934   4.484  0.6285 -0.7073 -0.2919
  761MOL0     O 4881   2.071   8.151   6.951  0.6698  0.0114 -0.0537
  761MOL0     C 4882   2.130   8.169   7.056  1.3443 -0.0723 -0.6543
  761MOL0     O 4883   2.116   8.280   7.131  0.5715 -0.0722  0.0449
  761MOL0     C 4884   2.092   8.401   7.080  0.6897 -0.0043  0.1917
  761MOL0     C 4885   2.193   8.491   7.046 -0.0714 -0.1513 -0.6049
  761MOL0     C 4886   2.165   8.618   6.985 -0.3677  0.2198 -0.0032
  761MOL0     C 4887   2.030   8.664   6.977  0.4094 -0.7023  0.1000
  761MOL0     O 4888   2.014   8.783   6.921  0.8365 -0.0469 -0.4724
  761MOL0     C 4889   1.881   8.835   6.916 -0.8119  0.0333  0.7293
  761MOL0     C 4890   1.902   8.952   6.826  0.6608 -0.8308 -0.6770
  761MOL0     C 4891   1.927   8.914   6.677 -0.2380 -0.3245 -0.6789
  761MOL0     C 4892   2.075   8.928   6.633 -0.7576 -0.1070  0.6679
  761MOL0     C 4893   2.112   8.821   6.520 -0.3445 -0.4400  0.4007
  761MOL0     C 4894   2.136   8.682   6.583  0.4043  0.0119 -0.9610
  761MOL0     C 4895   2.176   8.574   6.477 -0.1588 -0.6000 -0.2418
  761MOL0     C 4896   2.220   8.447   6.548  0.2835 -0.3935  0.2443
  761MOL0     N 4897   2.339   8.451   6.646 -0.6855  0.8408  0.9435
  761MOL0     C 4898   2.347   8.368   6.757  0.1850  0.8627  1.0244
  761MOL0     C 4899   2.471   8.396   6.804  0.2056 -0.1884 -0.7163
  761MOL0     C 4900   2.534   8.324   6.919  0.2818  0.7469 -0.2344
  761MOL0     C 4901   2.636   8.231   6.870  0.1033  0.9191  0.0438
  761MOL0     C 4902   2.712   8.167   6.992  0.5609  0.5972 -0.0509
  761MOL0     C 4903   2.800   8.259   7.083 -0.1593 -0.0703 -0.0763
  761MOL0     O 4904   2.885   8.172   7.155 -0.2762  0.1976  0.0518
  761MOL0     C 4905   3.004   8.227   7.195 -0.4493 -0.0626  0.5978
  761MOL0     C 4906   3.110   8.136   7.212 -0.2937 -0.0961  0.2696
  761MOL0     C 4907   3.239   8.182   7.246 -0.2675 -0.1876  0.4411
  761MOL0     C 4908   3.351   8.075   7.235  0.3833 -0.1275  0.1480
  761MOL0     C 4909   3.263   8.321   7.275  0.5453  0.5668 -0.5196
  761MOL0     C 4910   3.392   8.376   7.341  0.6215  0.2095  0.3606
  761MOL0     O 4911   3.419   8.510   7.326 -0.5060  0.5898  0.1103
  761MOL0     C 4912   3.527   8.574   7.384  0.2603  0.0275 -0.2910
  761MOL0     C 4913   3.649   8.547   7.333 -0.3462  0.3037 -0.3279
  761MOL0     C 4914   3.765   8.602   7.383  0.4190  0.1570 -0.3881
  761MOL0     C 4915   3.765   8.690   7.490  0.2531 -0.4210  0.3657
  761MOL0     O 4916   3.868   8.764   7.523  0.2238  0.2067 -0.4779
  761MOL0     C 4917   3.969   8.690   7.595 -1.0303 -0.0177 -0.8613
  761MOL0     C 4918   4.113   8.740   7.560  0.2939 -0.5953 -0.0866
  761MOL0     C 4919   4.116   8.896   7.555 -0.0474 -0.2877 -0.5784
  761MOL0     C 4920   4.249   8.971   7.519 -1.2449  0.3650 -0.2067
  761MOL0     C 4921   4.349   8.935   7.633  0.7259 -0.4028 -0.0756
  761MOL0     C 4922   4.472   9.035   7.609 -0.3220  0.4172 -0.0143
  761MOL0     C 4923   4.573   9.045   7.731  0.4789  0.4085 -0.7984
  761MOL0     C 4924   4.638   8.913   7.774  0.2138 -0.8141  0.5829
  761MOL0    Cl 4925   4.739   8.843   7.636 -0.0602 -0.4107  0.1097
  761MOL0     C 4926   3.635   8.719   7.542 -0.3126  0.3980 -0.5793
  761MOL0     C 4927   3.523   8.665   7.484  0.2198 -0.2324 -0.4789
  761MOL0     O 4928   3.464   8.295   7.408 -0.3147  0.1571 -0.2996
  761MOL0     C 4929   3.159   8.409   7.263  0.5700 -0.3429  0.2494
  761MOL0     C 4930   3.032   8.366   7.221  0.4195 -0.2914  0.2632
  761MOL0     N 4931   2.525   8.493   6.733 -0.2459  0.6682 -0.7448
  761MOL0     N 4932   2.448   8.529   6.635 -0.5344 -0.4026  0.1988
  761MOL0     C 4933   1.927   8.574   7.008  0.1493 -0.7407 -0.0326
  761MOL0     C 4934   1.959   8.446   7.072  0.1926  0.5225  0.6813
  761MOL0     C 4935   2.227   8.068   7.100  0.2810  0.7657  1.1870
  761MOL0     C 4936   2.321   8.109   7.200 -0.2653 -0.1924  0.2224
  761MOL0     C 4937   2.414   8.022   7.255  0.1209 -0.9723  0.3663
  761MOL0     C 4938   2.429   7.890   7.208 -0.2544 -0.2018  0.2393
  761MOL0     O 4939   2.525   7.799   7.260  0.2989  0.1251  0.3704
  761MOL0     C 4940   2.617   7.833   7.368 -0.0531 -1.3928  0.0030
  761MOL0     C 4941   2.759   7.863   7.327 -0.1061  0.4216  0.0227
  761MOL0     C 4942   2.858   7.884   7.435  0.4214  0.1749  0.6071
  761MOL0     C 4943   2.841   8.026   7.497 -1.3227 -0.0492 -0.1709
  761MOL0     C 4944   2.962   8.052   7.576 -0.5566  0.2703 -0.3372
  761MOL0     C 4945   3.066   8.039   7.642  0.1791  1.6012 -0.5914
  761MOL0     C 4946   2.345   7.851   7.108  0.3448 -0.6308 -0.1258
  761MOL0     C 4947   2.250   7.936   7.045  0.1557  0.0364  0.3702
  761MOL0     C 4948   2.161   7.894   6.928 -0.0236  0.5814 -0.0647
  761MOL0     H 4949   2.298   8.474   7.065  0.5434  1.1603 -2.5483
  761MOL0     H 4950   2.249   8.682   6.958  1.0175 -0.6335  1.9995
  761MOL0     H 4951   1.855   8.867   7.017  0.0436  2.6709  0.2131
  761MOL0     H 4952   1.817   8.756   6.876 -0.6864 -0.1931  0.9709
  761MOL0     H 4953   1.817   9.020   6.817  1.5301  0.1154 -1.9882
  761MOL0     H 4954   1.981   9.011   6.874 -0.3715  0.7893 -0.8890
  761MOL0     H 4955   1.888   8.814   6.654 -0.5290 -0.0273 -1.5037
  761MOL0     H 4956   1.869   8.980   6.613  1.8878  2.8508  0.4433
  761MOL0     H 4957   2.087   9.022   6.578  1.8773 -0.7593 -0.0179
  761MOL0     H 4958   2.149   8.922   6.713 -2.0746 -1.5859  1.8563
  761MOL0     H 4959   2.200   8.852   6.463  0.3721 -2.6113  0.2395
  761MOL0     H 4960   2.032   8.810   6.446 -0.3799  2.8875 -0.2126
  761MOL0     H 4961   2.213   8.682   6.661  0.7336 -0.8021 -1.2794
  761MOL0     H 4962   2.042   8.644   6.623  0.4369 -1.1546 -1.9377
  761MOL0     H 4963   2.249   8.606   6.402 -1.7245 -0.5469 -1.8360
  761MOL0     H 4964   2.081   8.544   6.432 -2.8907  0.4540  4.2526
  761MOL0     H 4965   2.135   8.397   6.597 -1.2848  0.8353 -1.1234
  761MOL0     H 4966   2.238   8.377   6.466 -1.2029  0.4197 -0.8184
  761MOL0     H 4967   2.283   8.284   6.782  2.3619 -1.5493 -0.9466
  761MOL0     H 4968   2.458   8.271   6.977 -0.2444 -0.2772 -1.8053
  761MOL0     H 4969   2.589   8.393   6.984  0.0347 -0.6204  1.5425
  761MOL0     H 4970   2.584   8.154   6.812 -1.3058  1.4161  0.6198
  761MOL0     H 4971   2.719   8.270   6.810  0.1185 -0.3046 -0.7690
  761MOL0     H 4972   2.641   8.126   7.065 -0.6275 -0.3460 -1.6821
  761MOL0     H 4973   2.778   8.090   6.952  0.3320  1.6689 -2.6827
  761MOL0     H 4974   2.854   8.328   7.017 -2.0996  1.1369 -0.4841
  761MOL0     H 4975   2.745   8.325   7.151 -1.1199 -1.7323  0.8166
  761MOL0     H 4976   3.087   8.031   7.205  0.9415 -0.3285 -0.7415
  761MOL0     H 4977   3.317   7.972   7.239 -0.6460  0.0284 -2.7992
  761MOL0     H 4978   3.420   8.089   7.320 -1.5727 -2.3289  2.2448
  761MOL0     H 4979   3.393   8.091   7.136 -0.8383  1.6912 -0.1245
  761MOL0     H 4980   3.657   8.461   7.268 -2.5255 -0.5314  0.4343
  761MOL0     H 4981   3.857   8.572   7.334  1.9063  0.0480  2.2814
  761MOL0     H 4982   3.951   8.705   7.701  0.6480 -4.1079  0.1913
  761MOL0     H 4983   3.967   8.582   7.578  0.4874 -0.1638 -0.2899
  761MOL0     H 4984   4.175   8.694   7.637  1.0051  1.3602  0.5525
  761MOL0     H 4985   4.144   8.704   7.461 -0.1925  0.0067 -0.4676
  761MOL0     H 4986   4.085   8.935   7.653  0.1593 -1.3142 -0.0895
  761MOL0     H 4987   4.053   8.922   7.469  1.7094  3.2492 -1.0039
  761MOL0     H 4988   4.228   9.078   7.521 -1.5504  0.3051 -0.0041
  761MOL0     H 4989   4.284   8.937   7.421 -1.9956 -0.0632 -0.3389
  761MOL0     H 4990   4.318   8.959   7.735  1.9492 -0.2131  0.2735
  761MOL0     H 4991   4.389   8.833   7.632  1.4921 -0.1106  0.3067
  761MOL0     H 4992   4.435   9.136   7.590  0.5408  0.6927 -0.2676
  761MOL0     H 4993   4.530   9.005   7.522  1.2661 -1.8324  1.7013
  761MOL0     H 4994   4.516   9.084   7.816  0.9727 -1.8641  0.6379
  761MOL0     H 4995   4.651   9.115   7.701  3.1806 -1.5502  1.2120
  761MOL0     H 4996   4.552   8.850   7.801  0.6303 -0.9068  1.7613
  761MOL0     H 4997   4.701   8.925   7.863  2.3693  4.2365 -1.2651
  761MOL0     H 4998   3.615   8.799   7.613 -2.4299 -0.1187 -0.5168
  761MOL0     H 4999   3.431   8.696   7.532  1.4212  0.2436  1.6183
  761MOL0     H 5000   3.163   8.516   7.280 -0.3487 -0.2032 -0.3113
  761MOL0     H 5001   2.949   8.435   7.213 -0.1228 -0.7323  1.7734
  761MOL0     H 5002   1.821   8.598   7.010  0.4713  0.9028 -0.5455
  761MOL0     H 5003   1.879   8.388   7.117 -2.5936  1.8470 -2.1732
  761MOL0     H 5004   2.313   8.207   7.246 -1.6031 -0.3560  0.4064
  761MOL0     H 5005   2.479   8.050   7.337  0.5895 -1.4248  0.1579
  761MOL0     H 5006   2.582   7.919   7.425 -3.5982 -1.7123 -1.4656
  761MOL0     H 5007   2.605   7.747   7.436 -1.9608 -2.5599 -1.7180
  761MOL0     H 5008   2.765   7.949   7.260  1.3298 -0.4633 -1.0488
  761MOL0     H 5009   2.793   7.778   7.267  2.6366  0.7249  1.0126
  761MOL0     H 5010   2.858   7.808   7.514  0.9539 -2.5206 -1.8118
  761MOL0     H 5011   2.957   7.866   7.393  0.7151  0.6018  1.1117
  761MOL0     H 5012   2.750   8.031   7.558 -0.9219 -0.9856  0.5117
  761MOL0     H 5013   2.846   8.107   7.423  2.8455  0.1630  0.1405
  761MOL0     H 5014   3.144   8.047   7.715 -1.4505  2.2226  1.1741
  761MOL0     H 5015   2.356   7.749   7.072  0.9264 -2.1807  3.8922
  761MOL0     H 5016   2.180   7.955   6.839 -1.1496  1.2222  0.1251
  761MOL0     H 5017   2.196   7.794   6.902  1.8209  1.7736 -2.6693
  761MOL0     H 5018   2.054   7.891   6.949 -0.1337  0.3721 -0.6310
  762MOL0     O 5019   1.848   4.381   5.493  0.5904 -0.3022 -0.0709
  762MOL0     C 5020   1.838   4.432   5.382  0.1543  0.0364 -0.2379
  762MOL0     O 5021   1.927   4.516   5.331  0.2417  0.0373 -0.4236
  762MOL0     C 5022   2.044   4.540   5.401 -0.3217 -0.0001  0.1230
  762MOL0     C 5023   2.059   4.543   5.539 -0.2496  0.9004  0.2102
  762MOL0     C 5024   2.190   4.568   5.596  0.2522  0.5861 -0.3691
  762MOL0     C 5025   2.298   4.598   5.508 -0.9846  0.6487 -0.4403
  762MOL0     O 5026   2.415   4.632   5.567 -0.7194  0.7094  0.1121
  762MOL0     C 5027   2.537   4.655   5.498 -0.6620 -1.1076  0.3903
  762MOL0     C 5028   2.634   4.730   5.589  0.2733  0.3994 -0.3186
  762MOL0     C 5029   2.748   4.813   5.533  0.1573 -0.2338  0.1846
  762MOL0     C 5030   2.846   4.884   5.625  0.4129 -0.1459 -0.5564
  762MOL0     C 5031   2.928   4.803   5.713  0.2697  0.8209 -0.3042
  762MOL0     C 5032   3.002   4.696   5.637 -0.7331  0.1932  1.0370
  762MOL0     C 5033   3.096   4.627   5.737 -0.0847  0.9676 -0.3881
  762MOL0     C 5034   3.195   4.533   5.681  0.7053  0.8950  0.3235
  762MOL0     N 5035   3.281   4.471   5.786  0.0326 -0.4296 -0.3119
  762MOL0     C 5036   3.359   4.359   5.763 -0.1952 -0.1880 -0.0726
  762MOL0     C 5037   3.426   4.339   5.880 -0.1530 -0.1057  0.8673
  762MOL0     C 5038   3.534   4.232   5.891  0.1321  0.2323 -0.4925
  762MOL0     C 5039   3.638   4.256   6.000  0.0003  0.1983 -0.0313
  762MOL0     C 5040   3.714   4.390   5.978  0.7269 -0.5812 -0.1709
  762MOL0     C 5041   3.803   4.440   6.088  0.2336  0.4901 -0.5200
  762MOL0     O 5042   3.910   4.349   6.121  0.3714 -0.0438 -0.1533
  762MOL0     C 5043   4.010   4.414   6.192  0.2891 -0.5674  0.7077
  762MOL0     C 5044   4.004   4.540   6.260 -0.1530  0.2708 -0.3870
  762MOL0     C 5045   4.119   4.588   6.334  0.9914 -0.9499  1.0041
  762MOL0     C 5046   4.101   4.725   6.389 -0.2618  0.3129  0.3903
  762MOL0     C 5047   4.235   4.510   6.353  0.9872 -0.5700  0.0934
  762MOL0     C 5048   4.352   4.548   6.444  0.4944  0.5394  0.5509
  762MOL0     O 5049   4.453   4.460   6.434 -0.0996 -0.5733  0.4782
  762MOL0     C 5050   4.557   4.460   6.520  0.3502 -0.4791 -0.1540
  762MOL0     C 5051   4.575   4.529   6.643 -0.0345 -0.5713  0.3922
  762MOL0     C 5052   4.689   4.505   6.724  0.7966  0.3493 -0.5659
  762MOL0     C 5053   4.789   4.417   6.683  0.0372 -0.5397 -0.5495
  762MOL0     O 5054   4.908   4.394   6.745  0.6911  0.0678 -0.0156
  762MOL0     C 5055   4.917   4.428   6.889  0.3946 -0.1174 -0.1089
  762MOL0     C 5056   5.033   4.356   6.952  0.5770 -0.3275  0.2757
  762MOL0     C 5057   5.167   4.416   6.910  0.0260  0.0884 -0.5648
  762MOL0     C 5058   5.174   4.570   6.896 -0.1456  0.2251  0.7105
  762MOL0     C 5059   5.315   4.615   6.888 -0.5309 -0.5200 -0.0822
  762MOL0     C 5060   5.325   4.768   6.879  0.0727 -0.1593  0.1969
  762MOL0     C 5061   5.474   4.808   6.906  0.8551  0.3022  0.0107
  762MOL0     C 5062   5.472   4.921   7.015  0.4562  0.0590  0.6562
  762MOL0    Cl 5063   5.618   5.038   7.027 -0.0777  0.1235  0.2369
  762MOL0     C 5064   4.767   4.345   6.566 -0.2163 -0.2287  0.3815
  762MOL0     C 5065   4.651   4.363   6.489 -0.2913  0.0274 -0.7876
  762MOL0     O 5066   4.343   4.638   6.524 -0.3793  0.9311 -0.0833
  762MOL0     C 5067   4.241   4.387   6.281 -0.2070  0.1836 -0.0049
  762MOL0     C 5068   4.131   4.352   6.202  0.6266  0.3877  0.3996
  762MOL0     N 5069   3.400   4.442   5.968 -0.0706 -1.0191  0.2198
  762MOL0     N 5070   3.310   4.521   5.917 -0.0690 -0.2821  0.4704
  762MOL0     C 5071   2.283   4.590   5.365  0.6361  0.4055 -0.3926
  762MOL0     C 5072   2.154   4.557   5.321  0.3899 -0.7546 -0.5663
  762MOL0     C 5073   1.712   4.387   5.308  0.1623 -0.0509  0.1872
  762MOL0     C 5074   1.639   4.276   5.365 -0.2509  0.1602  0.7628
  762MOL0     C 5075   1.531   4.229   5.297 -0.3172 -0.6859  0.3814
  762MOL0     C 5076   1.463   4.307   5.202 -0.7599  0.4522 -0.7466
  762MOL0     O 5077   1.342   4.267   5.151  0.6614 -0.0524 -0.3989
  762MOL0     C 5078   1.271   4.154   5.209 -0.1979  0.3092  0.3485
  762MOL0     C 5079   1.224   4.177   5.353  0.7087 -0.0852  1.0893
  762MOL0     C 5080   1.105   4.264   5.348  0.0820 -0.1891  0.7314
  762MOL0     C 5081   0.980   4.233   5.436 -0.6969  0.5821 -0.7325
  762MOL0     C 5082   0.911   4.101   5.412  0.0233 -0.5020 -0.1913
  762MOL0     C 5083   0.853   4.004   5.367 -0.7038  0.0600 -0.3296
  762MOL0     C 5084   1.528   4.419   5.158 -0.2989  0.4873 -0.1342
  762MOL0     C 5085   1.651   4.464   5.211  0.5008 -0.0887 -0.4799
  762MOL0     C 5086   1.721   4.584   5.155  0.2767  0.8284  0.0593
  762MOL0     H 5087   1.973   4.540   5.604 -0.8986  1.8078 -0.5763
  762MOL0     H 5088   2.214   4.569   5.702  1.5362  1.4362 -0.6541
  762MOL0     H 5089   2.520   4.704   5.402 -0.4323 -2.6574 -0.4776
  762MOL0     H 5090   2.578   4.556   5.477 -0.9957 -1.0190 -0.7474
  762MOL0     H 5091   2.588   4.801   5.660  2.4867 -2.9136  5.0504
  762MOL0     H 5092   2.684   4.665   5.661 -1.1065  2.7694  3.0714
  762MOL0     H 5093   2.804   4.744   5.469 -0.6725 -1.0304  0.2887
  762MOL0     H 5094   2.705   4.885   5.464 -0.1650 -1.1440 -0.5865
  762MOL0     H 5095   2.909   4.953   5.567  1.9341 -2.1366 -1.4028
  762MOL0     H 5096   2.786   4.945   5.693  0.7217 -2.0766  1.5748
  762MOL0     H 5097   2.869   4.752   5.790 -1.8199  0.8395 -1.8014
  762MOL0     H 5098   3.003   4.868   5.760 -0.6583  1.1211  0.8112
  762MOL0     H 5099   2.930   4.622   5.600 -1.3157  0.9846  0.5437
  762MOL0     H 5100   3.044   4.745   5.549 -3.2576 -0.7737 -0.8295
  762MOL0     H 5101   3.029   4.569   5.802  4.1522 -2.8967  0.9943
  762MOL0     H 5102   3.156   4.700   5.793 -0.1749  1.7174 -1.2327
  762MOL0     H 5103   3.137   4.460   5.624 -0.9948  2.5218 -0.1591
  762MOL0     H 5104   3.265   4.592   5.622 -0.1704  2.4239  0.7527
  762MOL0     H 5105   3.381   4.305   5.671  3.7577 -0.6956  1.0071
  762MOL0     H 5106   3.582   4.218   5.793 -0.1100 -0.1894 -0.5511
  762MOL0     H 5107   3.488   4.135   5.910 -0.3996  0.6702  0.5494
  762MOL0     H 5108   3.585   4.260   6.095  0.6739 -3.8095  0.7013
  762MOL0     H 5109   3.709   4.175   6.018  1.2950  1.3772  0.2627
  762MOL0     H 5110   3.760   4.390   5.878 -1.3533 -3.4642 -1.2721
  762MOL0     H 5111   3.628   4.458   5.983 -0.2292 -1.7167 -0.6996
  762MOL0     H 5112   3.839   4.535   6.048  2.8428 -0.1665  0.0804
  762MOL0     H 5113   3.743   4.450   6.178 -1.6094 -3.6419 -1.0548
  762MOL0     H 5114   3.914   4.600   6.248 -0.7864 -0.7317 -0.6987
  762MOL0     H 5115   4.193   4.783   6.381 -0.1541  0.0043 -0.9516
  762MOL0     H 5116   4.065   4.717   6.492  0.5037 -0.1180  0.6303
  762MOL0     H 5117   4.028   4.781   6.330 -2.4029 -0.7441  1.8931
  762MOL0     H 5118   4.499   4.602   6.672 -1.6818 -2.0675  0.0237
  762MOL0     H 5119   4.699   4.554   6.821  0.3984  0.4983 -0.5966
  762MOL0     H 5120   4.918   4.537   6.891 -0.3948 -0.0230 -2.1912
  762MOL0     H 5121   4.820   4.397   6.929 -0.7621 -2.0090 -3.8525
  762MOL0     H 5122   5.021   4.366   7.061 -1.1903  0.9658  0.0053
  762MOL0     H 5123   5.035   4.249   6.927  0.8025 -1.0269  2.9622
  762MOL0     H 5124   5.186   4.376   6.810 -0.2349 -0.1613 -0.5169
  762MOL0     H 5125   5.244   4.378   6.977 -0.2355 -1.7260 -1.2310
  762MOL0     H 5126   5.118   4.621   6.975 -2.8053 -0.4532 -0.5956
  762MOL0     H 5127   5.119   4.607   6.808 -0.4616  1.1986  1.3025
  762MOL0     H 5128   5.379   4.582   6.971 -1.9373 -1.2999  0.7206
  762MOL0     H 5129   5.364   4.564   6.804 -0.0593 -1.5773  0.8123
  762MOL0     H 5130   5.251   4.815   6.943  0.7741 -2.5751  3.0200
  762MOL0     H 5131   5.288   4.797   6.780  0.9704 -2.9351 -1.0691
  762MOL0     H 5132   5.507   4.836   6.806  2.3300 -0.3731  0.2713
  762MOL0     H 5133   5.535   4.724   6.941  2.2949  0.3576 -2.1884
  762MOL0     H 5134   5.442   4.880   7.112 -3.1392  3.0726  1.0722
  762MOL0     H 5135   5.386   4.985   6.993  0.5660 -0.7009 -2.4850
  762MOL0     H 5136   4.836   4.265   6.540 -1.1254 -0.5910 -1.0085
  762MOL0     H 5137   4.633   4.319   6.392  0.3605  2.1026 -1.9211
  762MOL0     H 5138   4.323   4.316   6.294  1.2235  1.9031  0.9061
  762MOL0     H 5139   4.133   4.255   6.154 -0.3869  1.4351 -1.9096
  762MOL0     H 5140   2.363   4.609   5.293  0.3406  0.6875 -0.6499
  762MOL0     H 5141   2.135   4.534   5.217 -0.9227  0.4841 -0.6332
  762MOL0     H 5142   1.684   4.213   5.441  2.8417  2.5418  1.0881
  762MOL0     H 5143   1.504   4.134   5.343  1.6273 -1.1484  0.6686
  762MOL0     H 5144   1.180   4.120   5.158 -0.0007 -4.0100  2.3957
  762MOL0     H 5145   1.328   4.061   5.206 -2.1521 -0.9699  0.8569
  762MOL0     H 5146   1.302   4.225   5.413  0.1558  1.4155  0.6605
  762MOL0     H 5147   1.192   4.079   5.388 -0.0048  0.0015  0.6899
  762MOL0     H 5148   1.141   4.366   5.367  1.3598 -0.4257 -0.2990
  762MOL0     H 5149   1.072   4.274   5.245  0.0246 -1.5333  0.6078
  762MOL0     H 5150   0.906   4.310   5.416  0.5876  2.1395  0.2704
  762MOL0     H 5151   1.006   4.230   5.542 -1.4932  1.2077 -0.5130
  762MOL0     H 5152   0.788   3.938   5.314 -0.2320  0.2049 -1.0964
  762MOL0     H 5153   1.481   4.477   5.079 -0.1025 -1.1634 -1.5090
  762MOL0     H 5154   1.815   4.559   5.105 -0.5750 -1.9410 -0.3118
  762MOL0     H 5155   1.657   4.633   5.081  1.1656  3.6663  1.0250
  762MOL0     H 5156   1.737   4.663   5.229  0.5233  0.0638  0.8333
  763MOL0     O 5157   5.369   6.113   4.975 -0.3465  0.6420  0.0179
  763MOL0     C 5158   5.448   6.162   4.895  0.2610  0.0045 -0.1830
  763MOL0     O 5159   5.428   6.160   4.761 -0.6529 -0.2723  0.2538
  763MOL0     C 5160   5.410   6.041   4.703 -0.1183  0.4994  0.7915
  763MOL0     C 5161   5.499   5.938   4.730 -0.4336  0.4621 -0.5362
  763MOL0     C 5162   5.481   5.810   4.673 -0.0237  0.8149  0.8952
  763MOL0     C 5163   5.375   5.785   4.583 -0.5996 -0.0964  0.7341
  763MOL0     O 5164   5.356   5.671   4.500 -0.9805 -0.1008 -0.7179
  763MOL0     C 5165   5.423   5.549   4.536 -0.0914  0.2281  0.2731
  763MOL0     C 5166   5.392   5.433   4.441 -0.0238 -0.1184  0.5763
  763MOL0     C 5167   5.258   5.357   4.453  0.7206 -0.0527 -0.1008
  763MOL0     C 5168   5.162   5.393   4.335  0.4328  0.1686  0.0758
  763MOL0     C 5169   5.086   5.522   4.355  0.1445  0.9411 -0.4714
  763MOL0     C 5170   4.982   5.558   4.252  0.0893  0.0025 -0.2434
  763MOL0     C 5171   4.880   5.666   4.308 -0.4783 -0.3019 -0.2177
  763MOL0     C 5172   4.956   5.789   4.353 -0.8686  0.6915  0.4337
  763MOL0     N 5173   4.865   5.901   4.376 -0.4791  0.0695  0.3999
  763MOL0     C 5174   4.850   6.014   4.307 -0.3186 -0.4771  0.0340
  763MOL0     C 5175   4.738   6.082   4.363 -0.4730  0.9094  0.4201
  763MOL0     C 5176   4.668   6.208   4.309  0.3425 -0.4488 -0.0364
  763MOL0     C 5177   4.652   6.313   4.423  0.2397  0.4236  0.0945
  763MOL0     C 5178   4.532   6.288   4.510 -0.6218  0.5331  0.1301
  763MOL0     C 5179   4.389   6.304   4.467 -0.1476  0.1130  0.5395
  763MOL0     O 5180   4.346   6.190   4.390  0.3640  0.3443  0.0630
  763MOL0     C 5181   4.278   6.187   4.273  0.6855 -0.4984 -0.3767
  763MOL0     C 5182   4.200   6.293   4.224  0.1958  0.4709  0.1621
  763MOL0     C 5183   4.145   6.295   4.092 -0.1900 -0.9942  0.2058
  763MOL0     C 5184   4.096   6.432   4.037  0.1854  0.0904  0.1788
  763MOL0     C 5185   4.155   6.181   4.006 -0.8188  0.1001 -0.6623
  763MOL0     C 5186   4.120   6.169   3.863  0.2460  0.2850 -0.0089
  763MOL0     O 5187   4.085   6.285   3.802 -0.1043  0.4285 -0.1955
  763MOL0     C 5188   4.005   6.273   3.688 -0.5731  0.0232 -0.4914
  763MOL0     C 5189   3.867   6.290   3.695  0.0248  0.5715 -0.6920
  763MOL0     C 5190   3.782   6.293   3.584  0.0725 -0.6189  0.6129
  763MOL0     C 5191   3.832   6.270   3.454  0.9182 -0.5122  0.9525
  763MOL0     O 5192   3.759   6.282   3.344  0.7831 -0.1317  0.4635
  763MOL0     C 5193   3.826   6.346   3.231 -0.0639  0.6489 -0.1113
  763MOL0     C 5194   3.817   6.263   3.099 -0.0929  0.5244 -0.6063
  763MOL0     C 5195   3.938   6.303   3.011  0.4819  0.8494  0.7218
  763MOL0     C 5196   3.951   6.452   2.979 -0.2533  0.6171 -0.2239
  763MOL0     C 5197   4.083   6.478   2.912  0.7785  0.4049 -0.0406
  763MOL0     C 5198   4.095   6.425   2.766 -0.0503 -0.1113  0.2620
  763MOL0     C 5199   4.234   6.470   2.710  0.1401 -0.2292 -0.3743
  763MOL0     C 5200   4.277   6.385   2.600  0.1346  0.3585  0.0370
  763MOL0    Cl 5201   4.408   6.474   2.521 -0.0994 -0.2411 -0.0043
  763MOL0     C 5202   3.975   6.240   3.449  0.2480  0.4553  0.5020
  763MOL0     C 5203   4.062   6.243   3.554  0.6003  0.3785 -0.8503
  763MOL0     O 5204   4.117   6.058   3.817  0.1853  0.0420  0.1568
  763MOL0     C 5205   4.202   6.063   4.076 -0.6554 -0.5294 -0.7050
  763MOL0     C 5206   4.260   6.068   4.203  0.5510 -0.0162 -1.2231
  763MOL0     N 5207   4.688   5.998   4.460  0.0044  0.1804 -0.7086
  763MOL0     N 5208   4.770   5.895   4.471  0.2609 -0.0807  0.9896
  763MOL0     C 5209   5.289   5.885   4.557  0.4251 -0.0217 -0.4619
  763MOL0     C 5210   5.303   6.015   4.619  0.3437 -0.6334 -0.5301
  763MOL0     C 5211   5.572   6.215   4.953 -1.1806  0.3729  0.3482
  763MOL0     C 5212   5.679   6.246   4.859 -0.6763  0.3547 -0.0065
  763MOL0     C 5213   5.798   6.313   4.903  0.3543  0.3647 -0.5140
  763MOL0     C 5214   5.820   6.331   5.039 -0.5222  0.3325 -0.1924
  763MOL0     O 5215   5.944   6.364   5.095  0.4151  0.4623  0.1799
  763MOL0     C 5216   6.054   6.398   5.014 -0.4836  0.1413 -0.1148
  763MOL0     C 5217   6.164   6.485   5.086  0.6490 -0.2166  0.0343
  763MOL0     C 5218   6.095   6.595   5.163 -0.4005 -0.1377 -0.6076
  763MOL0     C 5219   6.193   6.669   5.250 -0.8284  0.0038 -0.3775
  763MOL0     C 5220   6.125   6.762   5.342 -0.4900  0.1987  0.5066
  763MOL0     C 5221   6.064   6.829   5.423 -0.6525 -0.1805  0.4976
  763MOL0     C 5222   5.717   6.311   5.127  0.5904  0.7410 -0.2075
  763MOL0     C 5223   5.593   6.260   5.088  0.4353  0.0555 -0.4341
  763MOL0     C 5224   5.486   6.248   5.202 -0.1751 -0.1890  0.1943
  763MOL0     H 5225   5.590   5.939   4.790 -0.2759  3.2802 -0.6858
  763MOL0     H 5226   5.564   5.741   4.685 -0.4782  0.0642 -0.1595
  763MOL0     H 5227   5.384   5.507   4.629 -0.2251  1.4615  0.7983
  763MOL0     H 5228   5.529   5.570   4.556  0.1386 -0.6345  0.0212
  763MOL0     H 5229   5.414   5.468   4.340 -2.3709  0.3365  0.1656
  763MOL0     H 5230   5.462   5.350   4.449 -0.8973 -1.1086 -1.3371
  763MOL0     H 5231   5.277   5.249   4.443 -0.7790 -0.1704 -3.1021
  763MOL0     H 5232   5.209   5.375   4.549  1.1280  0.6073 -0.0153
  763MOL0     H 5233   5.214   5.399   4.239 -0.0231 -1.2763 -0.2844
  763MOL0     H 5234   5.088   5.313   4.324  3.2979 -2.7222  0.3959
  763MOL0     H 5235   5.156   5.605   4.370  0.3334  0.2733  3.3402
  763MOL0     H 5236   5.029   5.510   4.447 -0.4981  0.1726 -0.9530
  763MOL0     H 5237   5.051   5.603   4.180  2.4223 -0.2721  1.6929
  763MOL0     H 5238   4.931   5.478   4.197  1.3693 -1.0867  0.0880
  763MOL0     H 5239   4.820   5.625   4.391 -0.9943 -1.6333 -1.2062
  763MOL0     H 5240   4.808   5.706   4.236  0.8359  0.6785 -1.0306
  763MOL0     H 5241   5.010   5.764   4.444 -0.1264  0.4368 -0.0639
  763MOL0     H 5242   5.034   5.813   4.280 -2.0033 -0.9889 -1.4500
  763MOL0     H 5243   4.919   6.060   4.235 -1.3160  0.8732 -0.1102
  763MOL0     H 5244   4.575   6.190   4.255 -0.2035  1.7665  0.0736
  763MOL0     H 5245   4.731   6.244   4.226 -0.0212  1.4885  0.4623
  763MOL0     H 5246   4.751   6.295   4.467  0.9106 -1.8100 -2.0811
  763MOL0     H 5247   4.650   6.419   4.396 -0.3486  0.8365  1.6547
  763MOL0     H 5248   4.537   6.189   4.558 -2.3892  1.4097  2.2871
  763MOL0     H 5249   4.534   6.365   4.587  0.0388  0.8837 -0.2347
  763MOL0     H 5250   4.324   6.312   4.554  0.5323  1.0580  0.9746
  763MOL0     H 5251   4.380   6.399   4.413  0.5752 -0.1993 -0.1562
  763MOL0     H 5252   4.179   6.371   4.297  1.2889 -1.4054  2.6211
  763MOL0     H 5253   3.995   6.427   3.995  0.3251 -0.3871 -0.1067
  763MOL0     H 5254   4.168   6.469   3.963  0.0291  0.9054  0.4272
  763MOL0     H 5255   4.090   6.509   4.115 -3.9794  0.2063 -0.0066
  763MOL0     H 5256   3.832   6.305   3.797 -0.7398  0.6240 -0.9519
  763MOL0     H 5257   3.676   6.313   3.594  0.2535 -0.0156  1.3965
  763MOL0     H 5258   3.780   6.443   3.207 -3.3410  0.1689  3.1380
  763MOL0     H 5259   3.927   6.376   3.261 -0.0734 -2.4553  3.9885
  763MOL0     H 5260   3.839   6.159   3.124  1.4841  0.7864 -0.8367
  763MOL0     H 5261   3.722   6.267   3.045  0.2891  0.2440 -1.3000
  763MOL0     H 5262   3.923   6.244   2.920 -1.1796  2.4818 -0.1284
  763MOL0     H 5263   4.021   6.271   3.075 -0.2919 -0.5748  1.0533
  763MOL0     H 5264   3.957   6.504   3.075  1.7543  0.4727 -0.2374
  763MOL0     H 5265   3.880   6.492   2.906 -0.4447 -2.0024 -1.6021
  763MOL0     H 5266   4.098   6.586   2.927 -0.3517  0.1914  3.5466
  763MOL0     H 5267   4.165   6.439   2.973 -0.9197 -2.2583  0.7155
  763MOL0     H 5268   4.012   6.451   2.700  1.2879  1.4020 -0.9111
  763MOL0     H 5269   4.101   6.316   2.768 -1.5929 -0.2074  1.3263
  763MOL0     H 5270   4.308   6.471   2.790  0.1155  0.8023 -0.3606
  763MOL0     H 5271   4.238   6.574   2.677  1.4457 -1.2355 -3.8583
  763MOL0     H 5272   4.202   6.365   2.524  0.6409  4.1541 -1.7363
  763MOL0     H 5273   4.317   6.293   2.643  0.3973  0.2517 -0.4357
  763MOL0     H 5274   4.016   6.216   3.351 -2.6534  0.7925 -0.9176
  763MOL0     H 5275   4.169   6.224   3.546  0.3167 -0.7754 -2.4131
  763MOL0     H 5276   4.202   5.964   4.034 -0.5273 -1.3676  1.1653
  763MOL0     H 5277   4.302   5.977   4.246  1.2291 -0.1766 -2.1940
  763MOL0     H 5278   5.205   5.855   4.495  1.6389 -0.5058 -1.9252
  763MOL0     H 5279   5.220   6.083   4.602 -0.2929 -0.4898  2.5452
  763MOL0     H 5280   5.662   6.236   4.752 -1.6279 -1.1471  0.2624
  763MOL0     H 5281   5.875   6.338   4.831  1.3863  0.1010  0.4803
  763MOL0     H 5282   6.105   6.307   4.983 -0.0499  0.8402 -1.5201
  763MOL0     H 5283   6.020   6.453   4.926 -3.5361 -0.5712  0.5097
  763MOL0     H 5284   6.232   6.529   5.013 -1.1202  2.6388 -0.0343
  763MOL0     H 5285   6.214   6.414   5.151  0.5016  0.7307  1.2070
  763MOL0     H 5286   6.035   6.667   5.108  0.2592  1.8771  1.1737
  763MOL0     H 5287   6.030   6.548   5.237  3.1589  1.9963  4.4106
  763MOL0     H 5288   6.251   6.727   5.178  1.0094 -1.2042  0.0462
  763MOL0     H 5289   6.258   6.606   5.311  1.7279  1.1355 -1.7725
  763MOL0     H 5290   5.996   6.864   5.498 -2.3164 -2.9618  0.4231
  763MOL0     H 5291   5.746   6.331   5.230  2.5987 -0.0326 -0.5604
  763MOL0     H 5292   5.402   6.311   5.168 -0.8180 -1.7947 -1.3407
  763MOL0     H 5293   5.436   6.152   5.219  0.8797 -0.3607  2.7455
  763MOL0     H 5294   5.526   6.281   5.298  2.3582  2.7053 -1.6724
  764MOL0     O 5295   7.334   7.510   2.123 -0.1917 -0.6815 -0.1221
  764MOL0     C 5296   7.284   7.556   2.015 -0.4893 -0.2667 -0.0851
  764MOL0     O 5297   7.358   7.575   1.900 -0.3779  0.0650  0.2902
  764MOL0     C 5298   7.492   7.588   1.907  0.2274  0.1900 -0.0347
  764MOL0     C 5299   7.576   7.480   1.914 -0.0800  0.3965 -0.7092
  764MOL0     C 5300   7.712   7.511   1.916  1.0923 -0.5246  0.1754
  764MOL0     C 5301   7.768   7.641   1.910  0.1989  0.2210  0.2578
  764MOL0     O 5302   7.907   7.663   1.888 -0.1655  0.5962 -0.0117
  764MOL0     C 5303   7.998   7.573   1.937 -0.3301  0.3416  0.2657
  764MOL0     C 5304   8.142   7.621   1.928  0.6867 -0.6180 -0.5269
  764MOL0     C 5305   8.266   7.535   1.956  0.1012  0.1532 -0.0820
  764MOL0     C 5306   8.383   7.638   1.964  0.0280 -0.0640  0.4032
  764MOL0     C 5307   8.513   7.565   1.981 -0.2892  0.3247  0.6415
  764MOL0     C 5308   8.521   7.452   2.086 -0.1286  0.9762  0.7421
  764MOL0     C 5309   8.653   7.449   2.171  0.0295  1.4748  0.3883
  764MOL0     C 5310   8.770   7.387   2.084 -0.3901  0.5351 -0.1288
  764MOL0     N 5311   8.882   7.365   2.170 -0.9091  0.6040  0.2880
  764MOL0     C 5312   8.961   7.460   2.226  0.9315 -0.2247 -0.0320
  764MOL0     C 5313   9.058   7.396   2.292 -1.3759  0.3644 -0.1974
  764MOL0     C 5314   9.187   7.464   2.350  0.2159  0.9027 -0.1046
  764MOL0     C 5315   9.314   7.378   2.340  0.0021  0.1881  0.0281
  764MOL0     C 5316   9.422   7.473   2.404  1.0802 -0.1464 -1.1203
  764MOL0     C 5317   9.549   7.420   2.353 -0.6065 -0.2720 -0.2913
  764MOL0     O 5318   9.584   7.429   2.215  0.0880 -0.3514  0.5170
  764MOL0     C 5319   9.716   7.418   2.179 -0.2754 -0.0597  0.6319
  764MOL0     C 5320   9.811   7.350   2.248 -0.2535  0.9323 -1.2237
  764MOL0     C 5321   9.945   7.339   2.211  0.2889  0.1467  0.8375
  764MOL0     C 5322  10.039   7.267   2.297 -0.1576  0.4835  0.5175
  764MOL0     C 5323   9.993   7.410   2.099 -0.0098  0.8610  0.2037
  764MOL0     C 5324  10.126   7.405   2.037 -0.8551 -1.0793 -0.7636
  764MOL0     O 5325  10.158   7.497   1.936  0.5417  0.0924  0.0662
  764MOL0     C 5326  10.242   7.437   1.837  0.4400  0.8685 -0.6325
  764MOL0     C 5327  10.192   7.390   1.719 -0.3577  0.6331  0.2471
  764MOL0     C 5328  10.272   7.334   1.617  0.7855  0.3935 -0.2228
  764MOL0     C 5329  10.411   7.336   1.629 -0.0364  0.7326 -0.2344
  764MOL0     O 5330  10.500   7.295   1.533  0.5372  0.6133  0.6540
  764MOL0     C 5331  10.445   7.258   1.396  0.2422 -0.0524 -0.4039
  764MOL0     C 5332  10.565   7.190   1.317 -0.5922  0.7090 -0.0430
  764MOL0     C 5333  10.565   7.035   1.306  0.2953 -0.7583 -0.1020
  764MOL0     C 5334  10.676   6.977   1.214  0.1179 -0.0609 -0.9020
  764MOL0     C 5335  10.657   6.833   1.189 -0.3742  0.9615 -0.2730
  764MOL0     C 5336  10.787   6.768   1.131  0.7088  0.4866  0.0846
  764MOL0     C 5337  10.891   6.749   1.235  0.1912 -0.6137 -0.2075
  764MOL0     C 5338  10.892   6.614   1.296 -0.3540 -0.9094  0.6956
  764MOL0    Cl 5339  10.749   6.609   1.403 -0.0478 -0.4520 -0.0230
  764MOL0     C 5340  10.462   7.394   1.745 -0.1086 -0.5817 -0.7202
  764MOL0     C 5341  10.379   7.442   1.850 -0.0684  0.2152  0.4531
  764MOL0     O 5342  10.200   7.316   2.072  0.0386  0.4954 -0.1544
  764MOL0     C 5343   9.896   7.483   2.032 -0.1301 -0.1988  0.4389
  764MOL0     C 5344   9.761   7.473   2.056  0.4200  0.9157 -0.4488
  764MOL0     N 5345   9.034   7.265   2.269  0.1335  0.6631  0.1759
  764MOL0     N 5346   8.929   7.238   2.203  1.0094 -0.4048  0.1339
  764MOL0     C 5347   7.677   7.743   1.904  0.1810 -1.4393 -0.1173
  764MOL0     C 5348   7.540   7.715   1.891 -0.1606 -0.1941  0.1598
  764MOL0     C 5349   7.143   7.592   2.002 -0.1067  0.0737 -0.0313
  764MOL0     C 5350   7.103   7.624   1.878  0.9327 -1.4583  0.9171
  764MOL0     C 5351   6.965   7.639   1.852  0.1653 -0.4545  0.3303
  764MOL0     C 5352   6.868   7.628   1.951 -0.2626 -0.5803  0.4563
  764MOL0     O 5353   6.732   7.636   1.920 -0.0525  0.5394 -0.6355
  764MOL0     C 5354   6.703   7.735   1.818 -0.2742  0.0806 -0.3168
  764MOL0     C 5355   6.560   7.773   1.806  1.2579 -0.4104  0.5166
  764MOL0     C 5356   6.478   7.653   1.774  0.9835 -0.3434  0.1674
  764MOL0     C 5357   6.330   7.692   1.797  0.7553 -0.8439  0.3984
  764MOL0     C 5358   6.276   7.784   1.698 -0.4654 -0.3228 -0.5558
  764MOL0     C 5359   6.245   7.845   1.599 -0.6214 -0.3301 -0.2536
  764MOL0     C 5360   6.914   7.607   2.086 -0.1335  0.3349  0.9432
  764MOL0     C 5361   7.053   7.581   2.109  0.1408 -0.0901 -0.0423
  764MOL0     C 5362   7.085   7.555   2.255 -0.8906  0.0257  0.3778
  764MOL0     H 5363   7.530   7.382   1.907  0.6858 -0.0122 -0.2213
  764MOL0     H 5364   7.786   7.431   1.924  2.6999  1.0720  3.0710
  764MOL0     H 5365   7.984   7.486   1.873 -0.0158 -1.8557  3.0082
  764MOL0     H 5366   7.968   7.547   2.039  4.0089 -2.0671  1.1553
  764MOL0     H 5367   8.148   7.643   1.822 -2.8479 -1.9228 -1.1492
  764MOL0     H 5368   8.153   7.721   1.970  0.8066  0.1846 -2.4147
  764MOL0     H 5369   8.255   7.482   2.051 -0.3313  0.8537  0.2656
  764MOL0     H 5370   8.287   7.470   1.871 -0.2688  3.0221 -2.5507
  764MOL0     H 5371   8.391   7.703   1.877  0.0965 -2.3443 -1.3819
  764MOL0     H 5372   8.374   7.701   2.053 -0.6235 -1.1622  1.1472
  764MOL0     H 5373   8.586   7.646   1.988 -0.6328  0.9619 -2.0654
  764MOL0     H 5374   8.525   7.522   1.881 -3.2859  1.2837 -0.2593
  764MOL0     H 5375   8.437   7.479   2.151  0.9136  1.0259  2.1098
  764MOL0     H 5376   8.501   7.357   2.036  3.4036 -0.3440  1.5450
  764MOL0     H 5377   8.637   7.387   2.260  1.1873  0.2667 -0.2097
  764MOL0     H 5378   8.679   7.550   2.202  1.7256  1.2720 -0.2739
  764MOL0     H 5379   8.737   7.287   2.054  3.0007 -1.6513  2.6936
  764MOL0     H 5380   8.804   7.449   2.000  1.6857 -0.6693 -0.2403
  764MOL0     H 5381   8.949   7.567   2.208  0.7715  0.4463  3.3846
  764MOL0     H 5382   9.162   7.493   2.452  2.2243 -0.1043  0.7365
  764MOL0     H 5383   9.203   7.553   2.289  1.0842 -0.1467 -1.4712
  764MOL0     H 5384   9.303   7.287   2.400  3.2077 -0.7819 -0.6719
  764MOL0     H 5385   9.334   7.360   2.234  0.4948  0.7725  0.0143
  764MOL0     H 5386   9.418   7.573   2.361  0.8702  0.9027  1.2006
  764MOL0     H 5387   9.405   7.493   2.510 -3.0047 -1.5207 -1.3407
  764MOL0     H 5388   9.625   7.477   2.408  0.5313 -1.0885 -0.9872
  764MOL0     H 5389   9.570   7.320   2.391 -1.0842 -0.3766 -0.3038
  764MOL0     H 5390   9.786   7.295   2.338  0.1153 -0.0764 -1.7177
  764MOL0     H 5391  10.079   7.173   2.260  1.3052  1.1860  0.2517
  764MOL0     H 5392   9.996   7.234   2.392 -0.2231  0.6865  0.5612
  764MOL0     H 5393  10.130   7.323   2.319  1.0037 -1.5077  0.9918
  764MOL0     H 5394  10.084   7.392   1.712 -0.3611  0.4223  0.2418
  764MOL0     H 5395  10.212   7.300   1.533 -0.0699  0.5593  0.3092
  764MOL0     H 5396  10.362   7.187   1.405  0.7430 -0.6498 -0.3317
  764MOL0     H 5397  10.407   7.351   1.354  0.2239  1.2829  2.3714
  764MOL0     H 5398  10.564   7.232   1.216  1.6601  1.6371  0.2424
  764MOL0     H 5399  10.655   7.237   1.360 -1.2693  1.0940  0.9966
  764MOL0     H 5400  10.469   7.001   1.266 -0.4006 -0.6329  1.3902
  764MOL0     H 5401  10.574   6.992   1.406  0.1255 -1.3998 -0.3555
  764MOL0     H 5402  10.765   7.001   1.273  0.3724  0.7172 -1.5821
  764MOL0     H 5403  10.680   7.036   1.122  2.3305  1.1007 -0.1506
  764MOL0     H 5404  10.626   6.780   1.280 -0.3675  0.0204 -0.8077
  764MOL0     H 5405  10.585   6.817   1.108  0.6999 -0.0894 -1.0725
  764MOL0     H 5406  10.827   6.830   1.050  0.8455  1.1430  0.6457
  764MOL0     H 5407  10.761   6.671   1.089  1.1070  0.2898  0.2783
  764MOL0     H 5408  10.896   6.831   1.308 -1.1440 -1.0174  0.3721
  764MOL0     H 5409  10.987   6.766   1.186 -0.2198  4.2530  0.1885
  764MOL0     H 5410  10.986   6.582   1.342  0.9985 -3.5923 -3.3745
  764MOL0     H 5411  10.880   6.537   1.219  2.3140 -1.5443  0.8146
  764MOL0     H 5412  10.570   7.404   1.747  0.0141 -1.5671  1.9582
  764MOL0     H 5413  10.412   7.494   1.939 -0.3863  0.4720  0.4235
  764MOL0     H 5414   9.915   7.550   1.949 -2.0926  0.5618  0.5358
  764MOL0     H 5415   9.695   7.531   1.992  2.1173  0.8530 -2.3446
  764MOL0     H 5416   7.709   7.847   1.904  1.7554 -1.7992 -3.5156
  764MOL0     H 5417   7.479   7.803   1.877 -0.2249 -0.3904 -0.8855
  764MOL0     H 5418   7.165   7.654   1.795  1.3487 -1.7930  1.1016
  764MOL0     H 5419   6.938   7.662   1.749  1.0309 -1.8145 -0.2249
  764MOL0     H 5420   6.760   7.826   1.836  0.3983 -0.4195  0.1810
  764MOL0     H 5421   6.731   7.711   1.715 -0.7833  4.1304 -1.5511
  764MOL0     H 5422   6.548   7.858   1.738  1.7132 -0.3366  0.5243
  764MOL0     H 5423   6.526   7.804   1.906  0.4136 -0.7154  0.3279
  764MOL0     H 5424   6.480   7.624   1.668 -2.1612 -1.3024  0.2920
  764MOL0     H 5425   6.498   7.564   1.835 -0.2140 -2.6848 -2.6356
  764MOL0     H 5426   6.318   7.730   1.898 -3.6020 -2.5880  0.7355
  764MOL0     H 5427   6.266   7.603   1.789 -0.1724 -0.0313 -2.1086
  764MOL0     H 5428   6.195   7.890   1.515 -0.8783  0.3797  0.2673
  764MOL0     H 5429   6.836   7.600   2.162 -1.8817  0.3175 -0.7657
  764MOL0     H 5430   6.995   7.567   2.315 -1.0559 -0.3207  0.2000
  764MOL0     H 5431   7.136   7.463   2.283  1.0019  0.2150 -2.0832
  764MOL0     H 5432   7.155   7.638   2.274  0.0774 -0.5401 -0.5859
  765MOL0     O 5433   2.941   5.285   1.349  0.1174 -0.5185  0.1427
  765MOL0     C 5434   2.845   5.337   1.405 -0.2804  0.5380  0.5666
  765MOL0     O 5435   2.816   5.320   1.545 -0.6481 -0.4275 -0.3629
  765MOL0     C 5436   2.923   5.295   1.630 -0.1240 -0.1892  0.7723
  765MOL0     C 5437   3.011   5.401   1.669 -0.2735  0.5964 -0.4990
  765MOL0     C 5438   3.115   5.363   1.755 -0.5894  0.2325 -0.9286
  765MOL0     C 5439   3.127   5.233   1.803  1.0304 -0.1127 -0.5521
  765MOL0     O 5440   3.233   5.207   1.892 -0.0116  0.3681  0.4675
  765MOL0     C 5441   3.304   5.083   1.870  0.3182  0.3427 -1.1319
  765MOL0     C 5442   3.418   5.077   1.968 -0.5051  0.0438 -0.1814
  765MOL0     C 5443   3.498   4.948   1.971  0.4408  0.8138 -0.3730
  765MOL0     C 5444   3.447   4.831   2.059 -0.5728  0.2899 -0.2766
  765MOL0     C 5445   3.549   4.721   2.088  0.2343 -0.3284 -0.0609
  765MOL0     C 5446   3.651   4.772   2.192  0.1209 -0.8824 -0.6203
  765MOL0     C 5447   3.754   4.679   2.217 -0.1843  0.1266  0.3935
  765MOL0     C 5448   3.862   4.734   2.302 -0.6357 -0.1504 -0.7134
  765MOL0     N 5449   3.959   4.625   2.324  0.9950  0.3332  0.5624
  765MOL0     C 5450   3.948   4.524   2.414 -0.1143  0.9069 -0.4048
  765MOL0     C 5451   4.049   4.437   2.393  0.0489  0.4771  0.3209
  765MOL0     C 5452   4.083   4.313   2.469 -0.2857 -0.3558 -0.7313
  765MOL0     C 5453   4.084   4.190   2.377 -0.2879  0.8603  0.0658
  765MOL0     C 5454   4.220   4.113   2.365 -0.7644  0.0500 -0.3855
  765MOL0     C 5455   4.225   4.041   2.233 -0.2901 -0.5060 -0.1290
  765MOL0     O 5456   4.109   3.963   2.193 -0.5741  0.1526 -0.0360
  765MOL0     C 5457   4.070   3.845   2.252 -0.5845  0.1746 -0.2010
  765MOL0     C 5458   3.940   3.809   2.221 -0.6763  0.4020  0.7988
  765MOL0     C 5459   3.883   3.685   2.270 -0.3999  0.2849 -1.6028
  765MOL0     C 5460   3.747   3.657   2.200  0.9835  0.5265 -0.5102
  765MOL0     C 5461   3.955   3.606   2.367 -0.2964  0.2335  0.5893
  765MOL0     C 5462   3.912   3.467   2.405  0.5750 -0.2517 -0.5474
  765MOL0     O 5463   4.017   3.389   2.460  0.6752  0.5741  0.5107
  765MOL0     C 5464   3.998   3.288   2.550  0.5117  0.2364  0.6015
  765MOL0     C 5465   4.070   3.178   2.532 -0.5004  0.2032 -0.0585
  765MOL0     C 5466   4.066   3.071   2.625  0.7480  0.3236 -0.9980
  765MOL0     C 5467   3.971   3.062   2.722  1.0465 -0.3318 -0.3879
  765MOL0     O 5468   3.965   2.953   2.805  0.4841  0.1274 -0.0407
  765MOL0     C 5469   3.892   2.973   2.931  0.0240  0.5509  0.1496
  765MOL0     C 5470   3.908   2.856   3.026 -0.0711  0.2244 -0.6780
  765MOL0     C 5471   3.813   2.739   2.998 -1.1268 -0.2913  0.5556
  765MOL0     C 5472   3.830   2.655   2.876 -0.1178  0.9315 -0.4419
  765MOL0     C 5473   3.792   2.511   2.907 -0.2251 -0.6690  0.2042
  765MOL0     C 5474   3.801   2.414   2.796 -0.3696  0.4104  0.4873
  765MOL0     C 5475   3.691   2.421   2.684  0.4703 -0.0243  0.2332
  765MOL0     C 5476   3.561   2.357   2.727  0.5514  0.4968  0.4400
  765MOL0    Cl 5477   3.560   2.178   2.677  0.2385  0.1946  0.2743
  765MOL0     C 5478   3.891   3.178   2.732 -0.4961 -0.2091 -0.1038
  765MOL0     C 5479   3.902   3.288   2.649  0.5118  0.0127 -0.7650
  765MOL0     O 5480   3.793   3.432   2.411 -0.2781 -0.2917  0.0507
  765MOL0     C 5481   4.084   3.659   2.410 -0.0200 -0.7993  0.3587
  765MOL0     C 5482   4.135   3.774   2.353  0.2002 -0.7085  0.4522
  765MOL0     N 5483   4.124   4.496   2.292 -0.1116  0.1162  0.1378
  765MOL0     N 5484   4.062   4.600   2.240  0.4746 -0.3979  0.1641
  765MOL0     C 5485   3.036   5.133   1.767  0.3304  0.0560  0.1428
  765MOL0     C 5486   2.932   5.164   1.679 -0.1240 -0.3725 -0.1750
  765MOL0     C 5487   2.745   5.389   1.315 -0.0157  0.8108 -0.8896
  765MOL0     C 5488   2.632   5.312   1.295  0.2971 -0.1472  0.3854
  765MOL0     C 5489   2.538   5.351   1.203 -0.0146 -0.3869  0.1076
  765MOL0     C 5490   2.549   5.471   1.135 -0.7867 -1.4732 -0.1513
  765MOL0     O 5491   2.460   5.515   1.046  1.0199  0.4208  0.0093
  765MOL0     C 5492   2.458   5.649   0.999  0.0852  0.5425 -0.4267
  765MOL0     C 5493   2.328   5.674   0.922 -0.2460 -0.5162 -0.3228
  765MOL0     C 5494   2.331   5.621   0.783 -0.6015  0.0376  0.2627
  765MOL0     C 5495   2.341   5.469   0.765  0.5357 -0.3142  0.1173
  765MOL0     C 5496   2.320   5.446   0.621 -0.1295 -0.0535  0.4952
  765MOL0     C 5497   2.296   5.434   0.503 -0.5366 -0.1499 -0.3027
  765MOL0     C 5498   2.660   5.549   1.154  0.1017  0.9516  0.2567
  765MOL0     C 5499   2.759   5.509   1.242  0.2516 -0.0430 -0.3709
  765MOL0     C 5500   2.890   5.586   1.235 -0.2680 -0.7071 -0.3898
  765MOL0     H 5501   3.000   5.501   1.628  0.4195  1.2005  0.7396
  765MOL0     H 5502   3.181   5.442   1.789 -0.2362 -0.8898  1.1418
  765MOL0     H 5503   3.337   5.068   1.767  1.5357  0.1863 -0.7339
  765MOL0     H 5504   3.237   5.000   1.895  0.7420  0.3297  0.0085
  765MOL0     H 5505   3.481   5.164   1.948 -0.2322 -0.0915  0.0873
  765MOL0     H 5506   3.390   5.092   2.072  0.0869 -1.7241  0.2656
  765MOL0     H 5507   3.521   4.922   1.867  0.2572 -1.1055  0.0209
  765MOL0     H 5508   3.590   4.982   2.021  1.4274 -0.0838 -1.5109
  765MOL0     H 5509   3.414   4.869   2.157  0.2741  2.0457 -0.6350
  765MOL0     H 5510   3.359   4.797   2.003 -1.6947  0.1950  1.4479
  765MOL0     H 5511   3.586   4.692   1.989 -1.2044  0.6201 -0.9267
  765MOL0     H 5512   3.504   4.631   2.129  1.3549 -0.0227  1.9464
  765MOL0     H 5513   3.713   4.854   2.154  0.9082 -1.0758  0.1897
  765MOL0     H 5514   3.606   4.800   2.287 -0.9595  1.3373 -1.7076
  765MOL0     H 5515   3.804   4.654   2.123 -0.5236  1.6543 -0.2225
  765MOL0     H 5516   3.709   4.585   2.251  1.1298 -0.9757 -0.7665
  765MOL0     H 5517   3.909   4.812   2.242  0.8419 -0.2920  0.2323
  765MOL0     H 5518   3.828   4.784   2.393  0.2514  2.3670 -1.6825
  765MOL0     H 5519   3.872   4.510   2.490  0.9950  2.0746  0.9700
  765MOL0     H 5520   4.013   4.305   2.553 -0.2592 -0.2978 -0.7042
  765MOL0     H 5521   4.178   4.330   2.522 -0.6115 -0.0991 -0.2203
  765MOL0     H 5522   4.016   4.124   2.433  1.5694  0.8276  2.4317
  765MOL0     H 5523   4.056   4.222   2.276  2.8377 -1.1395 -1.6195
  765MOL0     H 5524   4.308   4.178   2.366  0.8729 -2.0619  0.0196
  765MOL0     H 5525   4.225   4.045   2.450  1.9910  1.5941  0.8077
  765MOL0     H 5526   4.245   4.126   2.167 -1.4513  1.0376  1.4036
  765MOL0     H 5527   4.312   3.975   2.229 -1.7275 -2.4372 -1.7128
  765MOL0     H 5528   3.902   3.869   2.139 -0.0591 -0.5492 -0.2146
  765MOL0     H 5529   3.680   3.738   2.232 -1.3364 -1.9490  1.3142
  765MOL0     H 5530   3.713   3.558   2.231  1.1488  0.3757 -0.8004
  765MOL0     H 5531   3.748   3.668   2.091 -1.6515  2.5445 -0.4290
  765MOL0     H 5532   4.151   3.178   2.459  0.3419  1.8230  0.8037
  765MOL0     H 5533   4.138   2.989   2.631 -1.8555 -2.0103  2.3605
  765MOL0     H 5534   3.931   3.062   2.981  1.3169 -0.9628  1.9829
  765MOL0     H 5535   3.785   2.990   2.914  0.0032  1.8876  1.3958
  765MOL0     H 5536   4.013   2.828   3.029  0.7518  3.0558  2.8200
  765MOL0     H 5537   3.897   2.902   3.124  1.5692  1.1981 -0.9186
  765MOL0     H 5538   3.706   2.763   2.995 -0.9061  0.6304 -1.6051
  765MOL0     H 5539   3.837   2.670   3.079 -0.3521  0.7100  1.2031
  765MOL0     H 5540   3.936   2.659   2.849  1.2742  0.7422  4.1816
  765MOL0     H 5541   3.756   2.694   2.805 -2.3421 -0.0300  1.2222
  765MOL0     H 5542   3.856   2.475   2.988 -1.6488 -1.6888  0.9060
  765MOL0     H 5543   3.690   2.517   2.945 -0.1907  1.1894  0.1006
  765MOL0     H 5544   3.795   2.315   2.843  2.0007 -0.0240 -0.0236
  765MOL0     H 5545   3.899   2.415   2.749 -0.6771  1.3755 -0.1629
  765MOL0     H 5546   3.729   2.376   2.592 -0.6924 -0.6933  0.0588
  765MOL0     H 5547   3.666   2.524   2.660 -1.9590 -0.7913 -0.8241
  765MOL0     H 5548   3.483   2.409   2.671  0.2952 -1.0055 -0.6611
  765MOL0     H 5549   3.518   2.383   2.824 -2.4347  3.7017 -1.5164
  765MOL0     H 5550   3.816   3.166   2.810 -0.1031 -3.0340 -0.0826
  765MOL0     H 5551   3.833   3.369   2.672  0.7940 -0.0497  0.3475
  765MOL0     H 5552   4.145   3.605   2.481  0.2670 -0.1784  0.5993
  765MOL0     H 5553   4.233   3.806   2.386  0.1773 -1.9390  1.8657
  765MOL0     H 5554   3.040   5.030   1.800  4.0178  0.3241  0.9716
  765MOL0     H 5555   2.858   5.088   1.655 -0.3734 -0.1282 -0.1947
  765MOL0     H 5556   2.622   5.220   1.353 -1.3415 -0.0625  0.2902
  765MOL0     H 5557   2.454   5.285   1.184  1.2715 -1.3678 -2.6536
  765MOL0     H 5558   2.455   5.713   1.087 -1.5427  0.3189 -0.2931
  765MOL0     H 5559   2.545   5.676   0.937  0.6104 -0.2150 -0.0296
  765MOL0     H 5560   2.327   5.783   0.915  1.6668 -0.5636 -2.6280
  765MOL0     H 5561   2.236   5.645   0.973 -0.4230  1.0153  0.2711
  765MOL0     H 5562   2.254   5.663   0.717  0.8570  1.5059 -0.5800
  765MOL0     H 5563   2.425   5.651   0.735 -1.4646 -1.7324 -2.8167
  765MOL0     H 5564   2.264   5.421   0.826  0.0410  0.0104 -0.2437
  765MOL0     H 5565   2.437   5.428   0.798  1.9651  1.0507 -2.0395
  765MOL0     H 5566   2.289   5.402   0.401 -0.2486 -0.6736 -0.1659
  765MOL0     H 5567   2.676   5.640   1.097 -0.1007  0.3386 -0.8074
  765MOL0     H 5568   2.956   5.514   1.187  1.0217 -0.4114  0.8521
  765MOL0     H 5569   2.891   5.685   1.188 -2.5559  0.0509  0.9537
  765MOL0     H 5570   2.923   5.604   1.338 -1.6121  2.5203 -0.3886
  766MOL0     O 5571  10.537   5.017   8.452 -0.1104  0.0515  0.3986
  766MOL0     C 5572  10.514   5.136   8.466  0.2510 -0.1691  0.2191
  766MOL0     O 5573  10.606   5.219   8.508 -0.0643 -0.5430 -0.3678
  766MOL0     C 5574  10.701   5.180   8.602 -1.3944  0.3345  0.0677
  766MOL0     C 5575  10.794   5.091   8.557 -0.2804  0.2221  0.5877
  766MOL0     C 5576  10.898   5.059   8.644  0.6086  0.7676  0.7380
  766MOL0     C 5577  10.913   5.115   8.771 -0.4370  0.2870  0.7805
  766MOL0     O 5578  11.014   5.099   8.853  0.0452 -0.4927 -0.3921
  766MOL0     C 5579  11.092   4.984   8.834 -0.3082  0.0995  0.0006
  766MOL0     C 5580  11.166   4.964   8.962  0.4764  0.1748 -0.8999
  766MOL0     C 5581  11.247   5.086   9.000 -0.3337 -0.8644  0.6739
  766MOL0     C 5582  11.327   5.071   9.132  0.2337 -0.1068  0.1820
  766MOL0     C 5583  11.427   5.188   9.157 -0.2839  0.2687  0.6472
  766MOL0     C 5584  11.489   5.204   9.295 -0.3785 -0.4792  0.4866
  766MOL0     C 5585  11.605   5.099   9.321  0.5387 -0.4271  0.8475
  766MOL0     C 5586  11.661   5.099   9.464  0.2417  0.6684 -0.2365
  766MOL0     N 5587  11.722   5.222   9.510 -0.6095 -0.3156  0.4526
  766MOL0     C 5588  11.857   5.243   9.504  0.0889 -0.0916 -0.3022
  766MOL0     C 5589  11.867   5.371   9.547  0.0319  0.5320  0.0071
  766MOL0     C 5590  11.988   5.460   9.559 -0.5515 -0.1784  0.2125
  766MOL0     C 5591  12.061   5.440   9.694  0.3527 -1.3662  1.2311
  766MOL0     C 5592  12.186   5.528   9.706 -0.2255 -0.7402 -0.8799
  766MOL0     C 5593  12.233   5.560   9.850 -0.3618  0.7132  0.1712
  766MOL0     O 5594  12.282   5.454   9.933  0.8181 -0.4591  0.7014
  766MOL0     C 5595  12.419   5.430   9.926 -0.1513  0.1535  0.7556
  766MOL0     C 5596  12.483   5.419  10.045  0.3208  0.6972 -0.8248
  766MOL0     C 5597  12.623   5.388  10.066 -0.1221 -0.2798 -0.3329
  766MOL0     C 5598  12.684   5.388  10.205  0.4657 -0.1650  0.4017
  766MOL0     C 5599  12.697   5.370   9.947  0.7277  0.0679  0.3913
  766MOL0     C 5600  12.837   5.335   9.952 -0.1639 -0.2249  0.0353
  766MOL0     O 5601  12.873   5.228  10.035  0.1013  0.4343  0.4451
  766MOL0     C 5602  12.996   5.194  10.042  0.0625  0.6185 -0.6203
  766MOL0     C 5603  13.072   5.208  10.159  0.3135  0.0358 -0.1630
  766MOL0     C 5604  13.199   5.160  10.166 -0.7340  0.1935 -0.1404
  766MOL0     C 5605  13.258   5.093  10.059 -0.0403 -0.4214 -0.0236
  766MOL0     O 5606  13.385   5.046  10.065 -0.0649  0.3345 -0.2799
  766MOL0     C 5607  13.404   4.943  10.162  0.4316 -0.3219 -0.0034
  766MOL0     C 5608  13.555   4.912  10.184 -0.1961 -0.2372  0.2324
  766MOL0     C 5609  13.629   4.861  10.059 -0.4696  0.0938 -0.9491
  766MOL0     C 5610  13.570   4.731  10.008 -0.2291  0.8873 -1.0590
  766MOL0     C 5611  13.666   4.682   9.903 -1.0227  0.4918  0.0921
  766MOL0     C 5612  13.654   4.759   9.771 -0.6213 -0.0714 -0.2275
  766MOL0     C 5613  13.754   4.706   9.663  1.3431  0.0164  0.8223
  766MOL0     C 5614  13.771   4.552   9.648 -0.3519  0.0552  0.4098
  766MOL0    Cl 5615  13.897   4.541   9.523  0.1024  0.4306  0.3610
  766MOL0     C 5616  13.189   5.081   9.940 -0.3424 -0.1061 -0.5770
  766MOL0     C 5617  13.064   5.136   9.931 -0.8160 -0.8086  0.4102
  766MOL0     O 5618  12.912   5.397   9.875  0.2529  0.2187 -1.2029
  766MOL0     C 5619  12.632   5.389   9.824  0.4482 -0.7876  0.2062
  766MOL0     C 5620  12.499   5.422   9.810 -0.7523 -0.0206 -0.6238
  766MOL0     N 5621  11.738   5.410   9.589  0.0615 -0.3066  0.5920
  766MOL0     N 5622  11.651   5.326   9.543 -0.3190 -0.1511 -0.0845
  766MOL0     C 5623  10.821   5.209   8.814 -0.1756  0.5872  0.3090
  766MOL0     C 5624  10.713   5.239   8.735 -0.0035 -0.6177  0.3129
  766MOL0     C 5625  10.374   5.195   8.438 -0.0569  0.7116  0.1724
  766MOL0     C 5626  10.335   5.311   8.498  0.0807  0.1559 -0.2342
  766MOL0     C 5627  10.206   5.366   8.482  0.0446  0.0997  0.0135
  766MOL0     C 5628  10.112   5.303   8.399 -0.4971 -0.1457  0.3838
  766MOL0     O 5629   9.990   5.356   8.366  0.0749  0.5058  0.2203
  766MOL0     C 5630   9.941   5.475   8.426  0.1239 -0.4490 -0.0278
  766MOL0     C 5631   9.816   5.537   8.354 -0.2841  0.2847 -0.7021
  766MOL0     C 5632   9.839   5.581   8.210  0.2170  0.0035  0.0494
  766MOL0     C 5633   9.701   5.614   8.145  0.9128 -0.0843 -1.0437
  766MOL0     C 5634   9.637   5.733   8.205  0.6677  0.4943  0.1155
  766MOL0     C 5635   9.585   5.829   8.267  0.8786  0.6619  0.8037
  766MOL0     C 5636  10.150   5.189   8.331 -0.3011 -0.4958 -0.6272
  766MOL0     C 5637  10.274   5.125   8.354 -0.2816  0.8931  0.2093
  766MOL0     C 5638  10.296   4.997   8.276  0.5320  0.0194 -0.2974
  766MOL0     H 5639  10.798   5.043   8.460 -2.1952  3.0999 -1.0719
  766MOL0     H 5640  10.959   4.975   8.612 -2.2421 -1.1361 -0.1220
  766MOL0     H 5641  11.166   4.989   8.753 -0.4331  0.0827 -0.1148
  766MOL0     H 5642  11.022   4.901   8.822 -0.9669  0.8597 -1.6507
  766MOL0     H 5643  11.094   4.937   9.039  1.3579 -0.5220 -0.3044
  766MOL0     H 5644  11.226   4.874   8.947 -1.2989 -1.4721  1.3141
  766MOL0     H 5645  11.321   5.111   8.924  1.8658 -0.9268  2.6830
  766MOL0     H 5646  11.186   5.175   9.019  2.1925  0.9102  1.0257
  766MOL0     H 5647  11.259   5.075   9.218  0.1015 -1.6538  0.1748
  766MOL0     H 5648  11.376   4.974   9.137  1.8518  0.5669 -1.4210
  766MOL0     H 5649  11.379   5.283   9.131  1.2481  0.8228 -0.3088
  766MOL0     H 5650  11.512   5.170   9.090 -0.3409  0.8779  0.4019
  766MOL0     H 5651  11.534   5.303   9.308 -2.3688  0.4675  0.5936
  766MOL0     H 5652  11.412   5.197   9.372 -1.4152 -0.5398 -0.5343
  766MOL0     H 5653  11.690   5.116   9.254  0.9869 -1.0379  1.2423
  766MOL0     H 5654  11.563   4.998   9.312  3.2997 -1.5212 -1.2423
  766MOL0     H 5655  11.578   5.078   9.532  0.7955  1.6901  0.8039
  766MOL0     H 5656  11.737   5.020   9.464 -0.9121 -0.5361  1.9498
  766MOL0     H 5657  11.939   5.181   9.469 -0.5684  0.0744 -2.2226
  766MOL0     H 5658  11.955   5.564   9.549 -0.7899 -0.0931  1.6833
  766MOL0     H 5659  12.064   5.434   9.484  2.8595  0.5906  3.1368
  766MOL0     H 5660  11.999   5.471   9.778  2.9600  1.2956  2.3450
  766MOL0     H 5661  12.083   5.334   9.707 -0.9449 -1.5306  2.2967
  766MOL0     H 5662  12.272   5.488   9.652  1.5829  2.8389 -0.9570
  766MOL0     H 5663  12.171   5.629   9.666  4.0447 -0.1230 -1.4560
  766MOL0     H 5664  12.319   5.628   9.855  2.5878 -2.8109  2.6528
  766MOL0     H 5665  12.160   5.624   9.901  1.6031  1.2535  2.5165
  766MOL0     H 5666  12.419   5.426  10.132  0.6004 -2.0389 -0.3220
  766MOL0     H 5667  12.736   5.482  10.224 -2.3622  1.6532 -0.2380
  766MOL0     H 5668  12.751   5.304  10.225  0.6503  0.0462  0.6892
  766MOL0     H 5669  12.595   5.380  10.270 -1.0513 -2.6368 -1.7806
  766MOL0     H 5670  13.020   5.243  10.248 -1.2353 -1.5425 -0.3854
  766MOL0     H 5671  13.257   5.168  10.257  1.3400  1.1003 -1.4597
  766MOL0     H 5672  13.364   4.980  10.257  2.0788 -0.4335  0.7640
  766MOL0     H 5673  13.360   4.846  10.136 -0.8501 -0.6574  3.0687
  766MOL0     H 5674  13.601   4.998  10.234 -0.9336 -0.7874  1.9580
  766MOL0     H 5675  13.567   4.843  10.269 -1.0875 -0.5390  0.1278
  766MOL0     H 5676  13.733   4.841  10.086 -0.9909 -0.0719  1.0872
  766MOL0     H 5677  13.623   4.941   9.985  3.4562  1.3835 -0.0805
  766MOL0     H 5678  13.468   4.738   9.967 -0.4299  2.2562 -0.3748
  766MOL0     H 5679  13.570   4.661  10.092 -1.4966  2.5715  0.4293
  766MOL0     H 5680  13.770   4.678   9.938  0.5530 -2.8687 -3.9088
  766MOL0     H 5681  13.638   4.577   9.889  1.4433  0.0707 -2.8051
  766MOL0     H 5682  13.672   4.865   9.793 -0.5138 -0.2826  0.7485
  766MOL0     H 5683  13.558   4.736   9.726  0.2632 -5.6120 -0.0024
  766MOL0     H 5684  13.849   4.750   9.693  0.5393  0.9187  2.1334
  766MOL0     H 5685  13.719   4.736   9.564 -0.5662 -0.7238  1.2371
  766MOL0     H 5686  13.682   4.499   9.613  0.3144 -1.9735  1.6152
  766MOL0     H 5687  13.791   4.498   9.741  0.4846  1.0995  0.8615
  766MOL0     H 5688  13.231   5.034   9.852 -1.1333  1.4816 -1.8706
  766MOL0     H 5689  13.019   5.131   9.832  1.8881  2.1942 -1.1759
  766MOL0     H 5690  12.697   5.381   9.737  2.2781 -3.4520  1.6818
  766MOL0     H 5691  12.465   5.440   9.709 -0.5743  1.1787 -0.4847
  766MOL0     H 5692  10.833   5.249   8.914  1.7134  0.7651  0.0426
  766MOL0     H 5693  10.641   5.314   8.767 -1.1072 -1.5557  0.1078
  766MOL0     H 5694  10.412   5.353   8.562 -2.7406  2.8791  1.6968
  766MOL0     H 5695  10.190   5.464   8.525  2.1165  0.0882  0.8905
  766MOL0     H 5696   9.928   5.444   8.530  2.5806 -3.6795 -0.5168
  766MOL0     H 5697  10.023   5.547   8.429  0.2524 -0.6182  0.7329
  766MOL0     H 5698   9.780   5.624   8.409 -0.7241 -0.6450  0.5131
  766MOL0     H 5699   9.743   5.456   8.353  2.3832 -2.2615 -0.2912
  766MOL0     H 5700   9.899   5.673   8.208  1.1184 -0.5467  1.0037
  766MOL0     H 5701   9.889   5.501   8.156  2.0311 -0.3281  2.0869
  766MOL0     H 5702   9.633   5.529   8.155  0.9433  0.0479  0.5162
  766MOL0     H 5703   9.726   5.633   8.040 -1.3408  1.8514 -1.3206
  766MOL0     H 5704   9.524   5.897   8.323  0.9541  1.4215 -0.0158
  766MOL0     H 5705  10.085   5.145   8.256 -0.5115 -0.2478 -0.5881
  766MOL0     H 5706  10.293   4.911   8.344  0.9336  0.3511  0.1480
  766MOL0     H 5707  10.219   4.988   8.198 -2.2997  1.2929  2.1299
  766MOL0     H 5708  10.394   4.997   8.228  1.3625 -3.8076  1.0746
  767MOL0     O 5709   6.949   1.827  11.357 -0.7133 -0.2032 -0.7980
  767MOL0     C 5710   6.981   1.748  11.449 -0.2971 -0.1981 -0.3752
  767MOL0     O 5711   7.101   1.747  11.501  0.7844  0.0707  0.0685
  767MOL0     C 5712   7.202   1.801  11.435 -0.5855  0.3475 -0.6028
  767MOL0     C 5713   7.245   1.779  11.306  0.8422 -0.0364  0.3621
  767MOL0     C 5714   7.375   1.813  11.265  0.2278  0.9231  0.3905
  767MOL0     C 5715   7.465   1.873  11.347  0.1635  0.2292  0.1173
  767MOL0     O 5716   7.583   1.903  11.293 -0.1568  0.2244  0.0166
  767MOL0     C 5717   7.671   1.987  11.368 -0.4307 -0.1220  0.9454
  767MOL0     C 5718   7.805   1.960  11.297 -0.0764  0.3923  0.1923
  767MOL0     C 5719   7.872   1.841  11.358 -0.7894 -0.1533 -0.1822
  767MOL0     C 5720   8.015   1.829  11.312  0.9940 -0.1355  0.2085
  767MOL0     C 5721   8.091   1.693  11.343  0.1354 -0.5755  0.9706
  767MOL0     C 5722   8.228   1.686  11.271 -0.1085  0.1406  0.4029
  767MOL0     C 5723   8.287   1.549  11.304 -0.8202 -0.6125 -0.9825
  767MOL0     C 5724   8.393   1.509  11.202  0.4891 -1.1264 -1.2244
  767MOL0     N 5725   8.344   1.444  11.084  0.4359  0.2616  0.7580
  767MOL0     C 5726   8.277   1.327  11.075  0.2025 -0.2528  0.4198
  767MOL0     C 5727   8.256   1.316  10.939 -0.2753 -0.2111 -0.3851
  767MOL0     C 5728   8.165   1.221  10.874 -0.5542  0.3044  0.4898
  767MOL0     C 5729   8.199   1.211  10.728  0.4335 -0.4928  0.5961
  767MOL0     C 5730   8.122   1.106  10.648 -0.2297  0.7052  0.1164
  767MOL0     C 5731   7.967   1.123  10.632 -0.9080  0.6876 -0.7723
  767MOL0     O 5732   7.932   1.066  10.511  0.3824 -0.0972 -0.0401
  767MOL0     C 5733   7.794   1.064  10.481  0.1730  0.8852 -0.0871
  767MOL0     C 5734   7.685   1.120  10.551 -0.0306 -0.5102  0.2010
  767MOL0     C 5735   7.553   1.134  10.491 -0.5453 -0.6756  0.8903
  767MOL0     C 5736   7.438   1.188  10.570  0.4745  0.5714  0.2083
  767MOL0     C 5737   7.539   1.078  10.360 -0.8049 -0.0780  0.3597
  767MOL0     C 5738   7.413   1.060  10.282  0.2444 -0.0041  0.3763
  767MOL0     O 5739   7.299   1.069  10.356 -0.7966  0.4488  1.2181
  767MOL0     C 5740   7.170   1.085  10.304  0.5057 -0.7059 -0.5470
  767MOL0     C 5741   7.128   1.115  10.170  0.3488 -0.4587 -0.5355
  767MOL0     C 5742   6.992   1.133  10.143  0.4490 -1.0426  0.6288
  767MOL0     C 5743   6.896   1.100  10.242 -0.0535 -0.5490 -0.5725
  767MOL0     O 5744   6.763   1.100  10.209 -0.5883  0.1623 -0.0415
  767MOL0     C 5745   6.674   1.143  10.309 -0.3668  0.6519  0.4777
  767MOL0     C 5746   6.557   1.210  10.240  1.4941 -0.4378  0.2632
  767MOL0     C 5747   6.590   1.334  10.161 -0.6964 -0.4735 -0.2026
  767MOL0     C 5748   6.456   1.377  10.110 -0.1728  0.5167 -0.4571
  767MOL0     C 5749   6.464   1.484   9.996  0.4837  0.0173 -0.0689
  767MOL0     C 5750   6.340   1.548   9.952  0.1982  0.4488 -0.5547
  767MOL0     C 5751   6.248   1.448   9.864  0.0788 -0.1421  0.2218
  767MOL0     C 5752   6.147   1.531   9.785  0.0302 -0.0217  0.5302
  767MOL0    Cl 5753   6.225   1.650   9.669 -0.1911  0.5456  0.2061
  767MOL0     C 5754   6.940   1.076  10.377  0.5990  0.4621 -1.4555
  767MOL0     C 5755   7.073   1.078  10.408 -0.3471  0.8722 -1.1032
  767MOL0     O 5756   7.417   1.046  10.157 -0.6673 -0.9399  0.7034
  767MOL0     C 5757   7.651   1.036  10.292  0.4678  0.2593  0.1250
  767MOL0     C 5758   7.768   1.015  10.357 -0.8850  0.3489  0.1970
  767MOL0     N 5759   8.305   1.427  10.885 -0.4370 -0.1379 -0.7336
  767MOL0     N 5760   8.352   1.508  10.967  0.2320  0.6474 -0.4149
  767MOL0     C 5761   7.427   1.895  11.475  1.0467 -0.7167 -0.5844
  767MOL0     C 5762   7.298   1.861  11.523  0.1929  0.0319  1.0114
  767MOL0     C 5763   6.871   1.664  11.511 -1.0587 -0.2424  0.5874
  767MOL0     C 5764   6.912   1.558  11.593 -0.3328  0.0338 -0.8241
  767MOL0     C 5765   6.820   1.481  11.667 -0.0319 -0.4371 -0.3132
  767MOL0     C 5766   6.680   1.508  11.653 -0.1870  0.7745  0.3830
  767MOL0     O 5767   6.591   1.427  11.719 -0.4074  0.3820 -0.2973
  767MOL0     C 5768   6.584   1.469  11.858  0.6839 -0.0210  0.3985
  767MOL0     C 5769   6.484   1.589  11.879 -0.0424 -0.5749 -0.0739
  767MOL0     C 5770   6.330   1.568  11.846  0.5827  0.4902 -0.2655
  767MOL0     C 5771   6.239   1.628  11.955 -0.0111  0.0114 -0.4324
  767MOL0     C 5772   6.265   1.767  11.973 -0.3775 -0.7715 -0.2695
  767MOL0     C 5773   6.283   1.890  11.980 -0.1118  0.6784  1.2343
  767MOL0     C 5774   6.644   1.623  11.580 -0.5134  0.7526  0.1439
  767MOL0     C 5775   6.734   1.704  11.504  0.5233  0.6008  0.3365
  767MOL0     C 5776   6.664   1.814  11.430 -0.3604 -0.3603  0.5778
  767MOL0     H 5777   7.172   1.730  11.242  1.7456 -1.7101  0.5431
  767MOL0     H 5778   7.400   1.794  11.162  0.7422 -2.8143  1.0778
  767MOL0     H 5779   7.673   1.951  11.471  1.7072  0.2249  1.0804
  767MOL0     H 5780   7.653   2.095  11.365  2.5346  0.5007  2.0874
  767MOL0     H 5781   7.798   1.946  11.189  6.4998  0.8594 -0.6988
  767MOL0     H 5782   7.874   2.043  11.317 -0.1749  0.6111 -0.3652
  767MOL0     H 5783   7.892   1.846  11.465 -0.5027 -1.8537 -0.1371
  767MOL0     H 5784   7.817   1.749  11.334  0.6620 -0.7901 -1.1933
  767MOL0     H 5785   8.017   1.846  11.204 -1.2510 -0.0802  0.1285
  767MOL0     H 5786   8.070   1.908  11.363  1.7585 -1.9082  2.3282
  767MOL0     H 5787   8.028   1.612  11.307  1.6423 -1.0171 -0.8594
  767MOL0     H 5788   8.112   1.695  11.450 -0.7222 -0.0552  1.1360
  767MOL0     H 5789   8.207   1.690  11.163 -3.0132 -2.6575  0.6994
  767MOL0     H 5790   8.292   1.772  11.292 -0.8792  0.9662 -0.5330
  767MOL0     H 5791   8.211   1.470  11.310  0.8430 -2.2848 -1.0287
  767MOL0     H 5792   8.336   1.565  11.400  1.3198  0.5179 -2.2029
  767MOL0     H 5793   8.457   1.593  11.173  0.6590 -0.0333  1.9183
  767MOL0     H 5794   8.455   1.435  11.252  2.4686  1.4303  0.3916
  767MOL0     H 5795   8.220   1.269  11.148 -2.7474  1.3764 -0.4002
  767MOL0     H 5796   8.062   1.255  10.886 -0.5904 -0.0336  1.2397
  767MOL0     H 5797   8.179   1.122  10.920  2.0484  0.3192 -0.1252
  767MOL0     H 5798   8.186   1.304  10.673 -0.5613 -0.3527  1.0381
  767MOL0     H 5799   8.304   1.182  10.722  1.1406  1.9841  0.3759
  767MOL0     H 5800   8.162   1.100  10.546 -0.2108 -2.4544  0.2230
  767MOL0     H 5801   8.131   1.005  10.689 -3.9410  0.6069  1.0512
  767MOL0     H 5802   7.917   1.084  10.721  3.0335  0.0273  1.3784
  767MOL0     H 5803   7.931   1.226  10.621 -1.5925  0.2838 -2.8447
  767MOL0     H 5804   7.700   1.153  10.653  4.1083  2.5917 -1.1464
  767MOL0     H 5805   7.486   1.237  10.655  1.0712  1.8400 -0.8235
  767MOL0     H 5806   7.372   1.114  10.617  0.4384  2.1787  2.8634
  767MOL0     H 5807   7.388   1.256  10.500  2.6665 -0.1699 -2.2439
  767MOL0     H 5808   7.195   1.138  10.088 -2.4747  1.8477 -2.4210
  767MOL0     H 5809   6.959   1.134  10.039  1.1856 -0.2538  0.3876
  767MOL0     H 5810   6.629   1.066  10.372 -1.2279 -1.0254 -1.9974
  767MOL0     H 5811   6.727   1.213  10.374  2.2247  0.6499 -1.4240
  767MOL0     H 5812   6.509   1.139  10.172 -0.4325  1.0153  0.0263
  767MOL0     H 5813   6.495   1.231  10.326  3.2734 -2.4188  2.1603
  767MOL0     H 5814   6.652   1.308  10.075 -3.1469 -0.2381 -2.1697
  767MOL0     H 5815   6.630   1.414  10.225 -1.6458  1.7571 -2.2330
  767MOL0     H 5816   6.392   1.407  10.194 -2.9500 -4.3166 -0.4932
  767MOL0     H 5817   6.402   1.299  10.056 -1.3590  2.1390 -1.7450
  767MOL0     H 5818   6.532   1.558  10.039 -1.2266  0.6861  1.6856
  767MOL0     H 5819   6.504   1.444   9.903 -0.9830  1.5026 -1.4145
  767MOL0     H 5820   6.355   1.635   9.887 -1.9478 -0.4334 -2.3574
  767MOL0     H 5821   6.288   1.593  10.037 -3.4885 -0.1840 -2.2911
  767MOL0     H 5822   6.209   1.364   9.922 -2.0320  1.6353  1.5607
  767MOL0     H 5823   6.302   1.401   9.781  1.8970 -0.1702  1.3550
  767MOL0     H 5824   6.090   1.593   9.855  0.2812 -2.6800  3.3312
  767MOL0     H 5825   6.079   1.467   9.728 -0.9793  1.3431  0.1579
  767MOL0     H 5826   6.884   1.039  10.462  1.1374  1.8775 -0.4481
  767MOL0     H 5827   7.109   1.044  10.505  1.7699  1.0268 -1.7851
  767MOL0     H 5828   7.640   0.992  10.194  1.2638 -1.4069  0.7408
  767MOL0     H 5829   7.845   0.972  10.293 -2.5381 -1.1308 -0.8863
  767MOL0     H 5830   7.483   1.951  11.549 -3.9081  1.6004  1.9448
  767MOL0     H 5831   7.274   1.887  11.626  0.3594  3.1160  0.3646
  767MOL0     H 5832   7.018   1.536  11.602 -0.3811 -0.9052 -2.2713
  767MOL0     H 5833   6.852   1.406  11.738  0.5717 -0.2025 -0.3398
  767MOL0     H 5834   6.540   1.389  11.917 -4.5530  1.3832 -1.0327
  767MOL0     H 5835   6.684   1.496  11.892 -0.4937  2.5864  2.1050
  767MOL0     H 5836   6.518   1.681  11.831  0.9361 -1.6255 -1.4661
  767MOL0     H 5837   6.495   1.608  11.986  2.3176  1.8364 -0.6433
  767MOL0     H 5838   6.309   1.603  11.744  0.4749 -1.2611 -0.8829
  767MOL0     H 5839   6.306   1.462  11.857 -4.1737  1.5396  2.3451
  767MOL0     H 5840   6.245   1.571  12.048  2.9409  1.0739  0.1352
  767MOL0     H 5841   6.140   1.622  11.909 -0.3246  2.8534 -0.2931
  767MOL0     H 5842   6.289   1.995  12.003  1.1818  0.0878  4.0107
  767MOL0     H 5843   6.538   1.649  11.576 -0.8968 -0.4676  1.4914
  767MOL0     H 5844   6.733   1.884  11.381 -1.2945  0.1744  0.0118
  767MOL0     H 5845   6.602   1.771  11.351  2.3007 -2.2144 -0.6863
  767MOL0     H 5846   6.604   1.868  11.503  0.3996  0.7561  0.4009
  768MOL0     O 5847   3.657   5.368   1.373 -0.0485 -0.1612 -0.3374
  768MOL0     C 5848   3.578   5.289   1.336  0.2778  0.8375  0.3855
  768MOL0     O 5849   3.552   5.173   1.400  0.5993 -0.5956 -0.1177
  768MOL0     C 5850   3.646   5.115   1.483 -1.2497  0.1905 -0.8184
  768MOL0     C 5851   3.610   5.099   1.619  0.6513  0.7784  0.2258
  768MOL0     C 5852   3.711   5.047   1.702 -0.1900  0.5129 -0.0863
  768MOL0     C 5853   3.839   5.003   1.648  0.3161  0.7031 -0.2739
  768MOL0     O 5854   3.935   4.955   1.736  0.5417  0.3870  0.1764
  768MOL0     C 5855   4.062   4.920   1.692 -0.1199  0.1236 -0.4641
  768MOL0     C 5856   4.144   4.875   1.819  0.5029  0.0515  0.1243
  768MOL0     C 5857   4.283   4.868   1.783 -0.1224  0.0705  0.2951
  768MOL0     C 5858   4.375   4.843   1.910 -0.0179 -0.7697  0.3233
  768MOL0     C 5859   4.350   4.713   1.996 -0.6173 -0.7414 -0.0881
  768MOL0     C 5860   4.361   4.587   1.907 -0.6677 -0.4345  0.2462
  768MOL0     C 5861   4.365   4.474   2.003 -0.8907  0.7019 -0.4746
  768MOL0     C 5862   4.330   4.336   1.936  0.8136  0.7556  0.3701
  768MOL0     N 5863   4.191   4.344   1.874  0.3021  0.0134  0.2572
  768MOL0     C 5864   4.081   4.417   1.914  0.7293 -0.2608  0.3262
  768MOL0     C 5865   3.997   4.434   1.810  0.0183  0.8203 -0.4232
  768MOL0     C 5866   3.878   4.518   1.822 -0.1624 -0.4952  0.9365
  768MOL0     C 5867   3.811   4.546   1.686 -0.4963  0.3493 -0.4829
  768MOL0     C 5868   3.696   4.648   1.699  0.1925  0.0043  0.0179
  768MOL0     C 5869   3.620   4.671   1.571  0.1968 -0.3969 -0.3143
  768MOL0     O 5870   3.520   4.774   1.582  0.0733  0.1033 -0.0017
  768MOL0     C 5871   3.426   4.796   1.479 -0.5971  0.3633 -0.5501
  768MOL0     C 5872   3.462   4.787   1.347  0.1410  0.5978  0.2568
  768MOL0     C 5873   3.366   4.805   1.248  0.5325 -0.7283  0.2460
  768MOL0     C 5874   3.414   4.777   1.102  0.5127  1.0353  0.2753
  768MOL0     C 5875   3.231   4.857   1.280 -0.4387 -0.1300 -0.1525
  768MOL0     C 5876   3.135   4.892   1.182 -0.2155 -0.1248  0.1440
  768MOL0     O 5877   3.017   4.940   1.239  0.4161  0.8105  0.4134
  768MOL0     C 5878   2.904   4.941   1.152  0.8067  0.4015 -1.0609
  768MOL0     C 5879   2.879   4.842   1.057 -0.9222 -0.4101  0.1771
  768MOL0     C 5880   2.774   4.851   0.968  0.1847  0.9342  0.5111
  768MOL0     C 5881   2.693   4.965   0.968 -0.3561 -0.1268 -0.2706
  768MOL0     O 5882   2.584   4.988   0.884  0.3818  0.0600  0.2771
  768MOL0     C 5883   2.623   4.990   0.741  0.1396  0.4830 -1.0706
  768MOL0     C 5884   2.499   4.994   0.660  0.8994  0.1303 -0.0269
  768MOL0     C 5885   2.504   4.992   0.511 -0.8820  0.5858 -0.4756
  768MOL0     C 5886   2.566   4.861   0.452 -0.2839  0.2073  0.8729
  768MOL0     C 5887   2.532   4.859   0.312  0.3521  0.6217  0.6226
  768MOL0     C 5888   2.577   4.737   0.229 -0.7825 -0.2082  0.0270
  768MOL0     C 5889   2.717   4.736   0.189  0.2469  0.7295 -0.2454
  768MOL0     C 5890   2.749   4.841   0.082 -0.5927  0.3082  0.2299
  768MOL0    Cl 5891   2.929   4.869   0.087  0.1996 -0.1761 -0.1720
  768MOL0     C 5892   2.714   5.062   1.061 -0.2721 -0.2026 -0.4780
  768MOL0     C 5893   2.820   5.052   1.154 -0.1447  0.5509 -0.0274
  768MOL0     O 5894   3.153   4.892   1.062  0.2740  0.3667  0.9368
  768MOL0     C 5895   3.206   4.878   1.417 -0.0247 -1.2279 -0.2677
  768MOL0     C 5896   3.299   4.845   1.520  0.9095 -0.0635  1.0795
  768MOL0     N 5897   4.045   4.346   1.711  0.7787  0.0855  0.6134
  768MOL0     N 5898   4.165   4.307   1.739 -0.6628 -1.1051  0.1105
  768MOL0     C 5899   3.866   5.022   1.513  0.0064 -0.4909  0.1838
  768MOL0     C 5900   3.765   5.074   1.433  0.4453  0.4059 -0.5121
  768MOL0     C 5901   3.518   5.297   1.201  0.3461  0.8638 -0.5413
  768MOL0     C 5902   3.411   5.210   1.176  0.0907  0.5900  0.0986
  768MOL0     C 5903   3.341   5.218   1.056  1.1984 -0.2871  0.1679
  768MOL0     C 5904   3.372   5.314   0.958  0.0152 -0.4340  0.6879
  768MOL0     O 5905   3.302   5.338   0.841 -0.1613  0.1015  0.3438
  768MOL0     C 5906   3.167   5.295   0.825  0.0229  0.7158 -0.8495
  768MOL0     C 5907   3.156   5.167   0.737  0.3495 -0.1823  0.3431
  768MOL0     C 5908   3.013   5.108   0.750 -0.4424  0.0035  0.0931
  768MOL0     C 5909   3.018   4.971   0.679 -0.1594 -0.2475 -0.2248
  768MOL0     C 5910   3.046   4.981   0.533  0.6522  0.7195  0.0613
  768MOL0     C 5911   3.068   4.991   0.409 -1.1328  0.9782 -0.8385
  768MOL0     C 5912   3.490   5.390   0.979 -0.4211  0.3050 -0.2556
  768MOL0     C 5913   3.566   5.387   1.099  0.4082 -0.2049  0.7189
  768MOL0     C 5914   3.682   5.478   1.121  0.5744  0.1057  0.6554
  768MOL0     H 5915   3.510   5.134   1.644 -0.0022 -0.9035  0.1388
  768MOL0     H 5916   3.700   5.040   1.810  3.5017  2.1728  0.5636
  768MOL0     H 5917   4.105   5.001   1.631 -3.0704  2.5290  0.4224
  768MOL0     H 5918   4.052   4.841   1.617 -0.5241  1.2824 -1.6675
  768MOL0     H 5919   4.123   4.960   1.885 -6.1471 -1.0615  0.0843
  768MOL0     H 5920   4.097   4.784   1.857  0.7514  0.1836  0.7488
  768MOL0     H 5921   4.291   4.784   1.714 -1.8193 -0.8244  1.1310
  768MOL0     H 5922   4.322   4.958   1.734  0.3306  0.3060  1.0692
  768MOL0     H 5923   4.484   4.849   1.897  0.2303 -0.9024  2.1003
  768MOL0     H 5924   4.353   4.921   1.983  1.8030  0.4130 -0.2937
  768MOL0     H 5925   4.253   4.731   2.042 -0.5961  1.7117 -0.8500
  768MOL0     H 5926   4.416   4.715   2.083 -1.7413 -0.2940  0.7814
  768MOL0     H 5927   4.272   4.578   1.843 -1.3819  0.6840  1.0484
  768MOL0     H 5928   4.453   4.584   1.848  0.3625 -1.8308  1.8613
  768MOL0     H 5929   4.291   4.493   2.081 -1.8070 -1.3761 -0.7849
  768MOL0     H 5930   4.465   4.480   2.045 -0.9334  0.7469 -0.3785
  768MOL0     H 5931   4.400   4.326   1.853 -0.2158  0.2302 -0.4594
  768MOL0     H 5932   4.349   4.247   1.997  2.9512 -0.7328 -2.2711
  768MOL0     H 5933   4.057   4.452   2.014  2.7191  3.9855 -0.4606
  768MOL0     H 5934   3.901   4.615   1.867  0.3763  1.5138 -3.2106
  768MOL0     H 5935   3.805   4.477   1.892 -0.8105  0.2988  0.7375
  768MOL0     H 5936   3.886   4.578   1.613 -1.5680 -1.9639 -2.7713
  768MOL0     H 5937   3.768   4.453   1.648  0.7092 -0.8933  1.0318
  768MOL0     H 5938   3.619   4.604   1.763  1.1221 -2.0593 -0.2096
  768MOL0     H 5939   3.722   4.748   1.735  1.3472 -0.5399  0.7624
  768MOL0     H 5940   3.698   4.720   1.512 -1.3948  1.0066 -1.3289
  768MOL0     H 5941   3.587   4.581   1.520  1.8253 -1.1085 -0.1858
  768MOL0     H 5942   3.563   4.763   1.318  0.4695  0.5396  1.4175
  768MOL0     H 5943   3.501   4.711   1.096  1.0248  1.8086 -2.5409
  768MOL0     H 5944   3.438   4.868   1.045  1.0360 -0.6068 -2.3199
  768MOL0     H 5945   3.339   4.723   1.044  0.5611  1.0285  0.2188
  768MOL0     H 5946   2.928   4.745   1.053  0.2138  0.1698 -0.6168
  768MOL0     H 5947   2.760   4.779   0.888  1.4962  1.6612 -0.4152
  768MOL0     H 5948   2.704   5.062   0.732  0.6909  0.5531  2.8529
  768MOL0     H 5949   2.671   4.895   0.716 -0.3338 -1.3153  3.7027
  768MOL0     H 5950   2.423   4.925   0.698 -1.6917  1.6476 -2.1396
  768MOL0     H 5951   2.459   5.094   0.677  1.1615  0.2222  0.0515
  768MOL0     H 5952   2.557   5.085   0.489 -0.1387  1.0347  2.7459
  768MOL0     H 5953   2.402   5.001   0.474 -2.1372 -2.9283  1.6232
  768MOL0     H 5954   2.522   4.784   0.516  0.8503 -1.3465 -0.1624
  768MOL0     H 5955   2.675   4.857   0.452 -0.0033  3.3000 -2.5573
  768MOL0     H 5956   2.423   4.850   0.309  0.4610 -1.0072 -3.2051
  768MOL0     H 5957   2.561   4.951   0.262 -0.8599 -0.5740 -2.5539
  768MOL0     H 5958   2.515   4.726   0.140  0.6647 -0.3594 -1.0104
  768MOL0     H 5959   2.572   4.645   0.287  0.9151  0.0365  0.6308
  768MOL0     H 5960   2.735   4.638   0.143 -1.0269  0.5541 -0.4010
  768MOL0     H 5961   2.779   4.741   0.280 -3.9155 -1.0673  3.0388
  768MOL0     H 5962   2.693   4.932   0.103 -2.1831 -0.8372  1.1527
  768MOL0     H 5963   2.721   4.791  -0.011 -2.0352 -0.5610  1.0953
  768MOL0     H 5964   2.654   5.152   1.060  0.8610  0.6056  0.7414
  768MOL0     H 5965   2.833   5.130   1.228  0.3556  2.1907 -1.7677
  768MOL0     H 5966   3.108   4.913   1.448 -1.6177 -4.4652 -1.2089
  768MOL0     H 5967   3.275   4.864   1.624 -0.3491  0.3421  0.7328
  768MOL0     H 5968   3.965   5.014   1.471  0.9888 -0.2746  2.3374
  768MOL0     H 5969   3.779   5.084   1.326 -0.0800 -1.1091 -0.7456
  768MOL0     H 5970   3.377   5.137   1.249  0.9334  2.0203  1.9992
  768MOL0     H 5971   3.253   5.155   1.064 -0.2301  1.1858 -2.7320
  768MOL0     H 5972   3.118   5.289   0.923 -0.5497  1.7257 -1.0666
  768MOL0     H 5973   3.114   5.381   0.785 -0.6422  2.7522  3.7561
  768MOL0     H 5974   3.232   5.099   0.775 -0.1940 -0.7214  0.4769
  768MOL0     H 5975   3.176   5.185   0.631  1.9121 -1.3806  0.3931
  768MOL0     H 5976   2.985   5.090   0.854 -1.0876  0.2395 -0.0364
  768MOL0     H 5977   2.942   5.173   0.696  0.9179  0.9242 -0.6516
  768MOL0     H 5978   2.925   4.915   0.690 -0.5103  0.0989 -1.2846
  768MOL0     H 5979   3.094   4.912   0.731  0.5083  1.4895  0.8648
  768MOL0     H 5980   3.121   4.991   0.316  1.7188 -2.4411  0.5528
  768MOL0     H 5981   3.522   5.463   0.904  1.3093  1.4410  1.5155
  768MOL0     H 5982   3.653   5.550   1.197 -0.3471  0.2608  0.1669
  768MOL0     H 5983   3.776   5.424   1.135 -0.1396 -2.1460 -2.2875
  768MOL0     H 5984   3.705   5.539   1.033  2.0579  1.0983  1.6691
  769MOL0     O 5985   2.471   4.015   9.026 -0.1244 -0.5002 -0.2897
  769MOL0     C 5986   2.574   4.069   8.998  0.2754  0.3588 -0.2187
  769MOL0     O 5987   2.638   4.063   8.884 -0.0768 -0.6106 -0.3776
  769MOL0     C 5988   2.595   3.971   8.799 -0.9701 -0.2770 -0.3595
  769MOL0     C 5989   2.693   3.872   8.773  0.1652  0.2702  0.0621
  769MOL0     C 5990   2.664   3.770   8.675 -0.4838 -0.0431 -0.1010
  769MOL0     C 5991   2.555   3.787   8.590  0.2601  0.1036 -0.8323
  769MOL0     O 5992   2.534   3.692   8.497  0.8351 -0.0969  0.4735
  769MOL0     C 5993   2.460   3.707   8.374 -0.1505  0.0719 -0.5327
  769MOL0     C 5994   2.554   3.665   8.263  0.3643  0.1838  0.0122
  769MOL0     C 5995   2.484   3.625   8.131 -0.3427 -0.0309 -0.4816
  769MOL0     C 5996   2.569   3.543   8.029 -0.7340  0.6454  0.2062
  769MOL0     C 5997   2.561   3.398   8.055  0.2050 -0.4175 -0.0702
  769MOL0     C 5998   2.621   3.317   7.952 -0.4766 -0.1500  0.4193
  769MOL0     C 5999   2.664   3.173   8.002  0.2512  0.0044  0.9379
  769MOL0     C 6000   2.735   3.106   7.883 -0.0290 -0.0340 -0.8989
  769MOL0     N 6001   2.765   2.964   7.916 -0.3922  0.0868 -0.2736
  769MOL0     C 6002   2.780   2.876   7.813 -1.1869 -0.6935 -0.3670
  769MOL0     C 6003   2.802   2.758   7.870  0.4484  0.1023  0.1711
  769MOL0     C 6004   2.825   2.628   7.792  0.3417  0.8526 -0.1202
  769MOL0     C 6005   2.971   2.630   7.748 -1.0376 -0.0787  0.8969
  769MOL0     C 6006   2.985   2.718   7.622 -0.8130 -0.4816  0.3926
  769MOL0     C 6007   3.123   2.712   7.563  0.5465 -0.3354  0.4027
  769MOL0     O 6008   3.205   2.806   7.627  0.3338  0.3784  0.6116
  769MOL0     C 6009   3.336   2.757   7.642 -0.0951 -0.0076 -0.3747
  769MOL0     C 6010   3.382   2.680   7.751 -0.5853 -0.7023 -0.7935
  769MOL0     C 6011   3.514   2.627   7.768 -0.0760  0.3071 -0.1794
  769MOL0     C 6012   3.516   2.529   7.877  0.5749  0.5201 -0.3192
  769MOL0     C 6013   3.612   2.662   7.676  0.1292 -0.8134  0.2026
  769MOL0     C 6014   3.748   2.598   7.657 -0.2831  0.3590 -0.1489
  769MOL0     O 6015   3.817   2.634   7.560 -0.6252 -0.4339  0.5919
  769MOL0     C 6016   3.948   2.597   7.561  0.7960  0.1029  0.4103
  769MOL0     C 6017   4.045   2.640   7.645  0.1045 -0.6537  0.5279
  769MOL0     C 6018   4.170   2.585   7.662  0.1206 -0.6545  0.5752
  769MOL0     C 6019   4.208   2.485   7.569  0.2477 -0.2032  0.3871
  769MOL0     O 6020   4.341   2.436   7.574  0.1654 -0.1474  0.8066
  769MOL0     C 6021   4.439   2.499   7.485 -0.5150  0.5755  0.3363
  769MOL0     C 6022   4.584   2.495   7.522 -0.7622 -0.4355 -1.1402
  769MOL0     C 6023   4.677   2.540   7.412 -0.6883  0.5653  0.8911
  769MOL0     C 6024   4.685   2.691   7.408  1.5010  0.2939  0.6800
  769MOL0     C 6025   4.735   2.760   7.275 -0.2029  0.4467 -0.2661
  769MOL0     C 6026   4.659   2.720   7.151  0.1155  0.0069  0.3503
  769MOL0     C 6027   4.736   2.778   7.026  0.1780 -0.0707  0.2852
  769MOL0     C 6028   4.713   2.687   6.905 -0.1084  0.1606  0.8949
  769MOL0    Cl 6029   4.549   2.690   6.819 -0.4361 -0.0661  0.0966
  769MOL0     C 6030   4.117   2.441   7.467  0.0469  0.2730  0.1746
  769MOL0     C 6031   3.983   2.488   7.473  0.1451 -0.3183 -0.4209
  769MOL0     O 6032   3.792   2.536   7.754 -0.6038  0.2480 -0.3372
  769MOL0     C 6033   3.563   2.742   7.568  0.0203  0.0686  0.8244
  769MOL0     C 6034   3.437   2.777   7.550 -0.1667 -0.2562 -0.2451
  769MOL0     N 6035   2.822   2.777   8.006  1.9011 -0.6785 -0.2539
  769MOL0     N 6036   2.813   2.910   8.031 -0.1555  0.5809  0.4408
  769MOL0     C 6037   2.461   3.890   8.621 -0.3106  0.6902  0.1951
  769MOL0     C 6038   2.480   3.979   8.722 -1.0296 -0.4080 -0.7123
  769MOL0     C 6039   2.633   4.164   9.095  0.1569 -0.4787 -1.6069
  769MOL0     C 6040   2.560   4.255   9.173 -0.2327  0.0034 -0.2444
  769MOL0     C 6041   2.619   4.362   9.251  0.8448  0.8460  0.2362
  769MOL0     C 6042   2.758   4.383   9.253  0.7118 -0.2766 -0.0304
  769MOL0     O 6043   2.821   4.492   9.307  0.3505 -0.0984 -0.1648
  769MOL0     C 6044   2.741   4.610   9.350 -0.0680 -0.0749 -0.9437
  769MOL0     C 6045   2.832   4.740   9.349  0.8502 -0.4460  0.0641
  769MOL0     C 6046   2.747   4.850   9.421 -0.0137  0.3030 -0.0596
  769MOL0     C 6047   2.798   4.990   9.392 -0.5121  0.5741 -1.3837
  769MOL0     C 6048   2.910   5.015   9.489  0.9517  0.0238  0.4869
  769MOL0     C 6049   3.012   5.041   9.539  0.6085 -0.2787  0.8074
  769MOL0     C 6050   2.831   4.284   9.189  0.3619  0.6576  0.5220
  769MOL0     C 6051   2.770   4.168   9.123  1.4420 -0.5153 -0.8081
  769MOL0     C 6052   2.866   4.065   9.072 -0.3847 -0.0060  0.1598
  769MOL0     H 6053   2.784   3.865   8.832  1.1928 -0.6096 -1.5679
  769MOL0     H 6054   2.729   3.685   8.661 -1.0126 -0.0928 -2.7379
  769MOL0     H 6055   2.432   3.810   8.348 -1.6192 -0.4192 -0.9728
  769MOL0     H 6056   2.376   3.639   8.364 -0.1346 -0.4658  2.2429
  769MOL0     H 6057   2.608   3.758   8.244 -0.2036  1.0346  2.2857
  769MOL0     H 6058   2.621   3.584   8.293  1.2668  1.0729  0.4554
  769MOL0     H 6059   2.393   3.569   8.151 -1.1666  1.0651 -1.0914
  769MOL0     H 6060   2.450   3.717   8.083 -1.4773  0.0116  0.3641
  769MOL0     H 6061   2.530   3.557   7.928 -0.7213 -2.5384 -0.3556
  769MOL0     H 6062   2.673   3.576   8.026 -0.6561  0.4073  0.2676
  769MOL0     H 6063   2.459   3.363   8.076  0.4708 -2.1755 -1.4536
  769MOL0     H 6064   2.609   3.373   8.150 -0.3291 -1.7636 -0.1212
  769MOL0     H 6065   2.547   3.310   7.871 -1.4471 -1.0677  1.3530
  769MOL0     H 6066   2.711   3.364   7.914 -0.7415  0.7307  0.8500
  769MOL0     H 6067   2.584   3.109   8.039 -0.3465  0.0218 -0.2799
  769MOL0     H 6068   2.723   3.187   8.093  0.6854  0.5185  0.5909
  769MOL0     H 6069   2.671   3.100   7.795 -1.3753 -0.0851  0.0542
  769MOL0     H 6070   2.835   3.149   7.873 -0.1626 -0.2304 -3.7685
  769MOL0     H 6071   2.780   2.892   7.705  2.2093 -0.8414 -0.5040
  769MOL0     H 6072   2.751   2.612   7.713  1.6723 -3.1792 -0.7891
  769MOL0     H 6073   2.813   2.536   7.850  2.4509  0.5709 -0.0411
  769MOL0     H 6074   3.033   2.660   7.833  1.3949  1.4102 -1.2913
  769MOL0     H 6075   3.009   2.531   7.723  2.1898  1.2378  0.0938
  769MOL0     H 6076   2.910   2.693   7.546  0.4188 -2.3888 -0.2615
  769MOL0     H 6077   2.970   2.825   7.642 -2.6264 -0.6896  0.3869
  769MOL0     H 6078   3.172   2.615   7.560  0.7504 -0.1927 -1.8000
  769MOL0     H 6079   3.116   2.743   7.459  0.9071 -3.1640 -0.5245
  769MOL0     H 6080   3.315   2.634   7.823  1.4929 -0.3645  1.4809
  769MOL0     H 6081   3.416   2.496   7.908  0.0303  2.5287  0.2066
  769MOL0     H 6082   3.574   2.565   7.963 -0.3774 -1.4907  1.2445
  769MOL0     H 6083   3.565   2.440   7.837  1.7055  1.0102 -0.0386
  769MOL0     H 6084   4.017   2.723   7.708  0.6183  2.2971 -2.8087
  769MOL0     H 6085   4.238   2.632   7.733  1.8145  1.2590 -2.1137
  769MOL0     H 6086   4.423   2.465   7.382 -1.5313  0.2454  0.5917
  769MOL0     H 6087   4.411   2.605   7.486  0.5865  1.2589 -5.1469
  769MOL0     H 6088   4.599   2.556   7.611 -2.4055 -0.6862 -0.6539
  769MOL0     H 6089   4.614   2.396   7.560  0.7960  0.9425  1.5339
  769MOL0     H 6090   4.642   2.497   7.317 -1.2971  0.5620  1.1138
  769MOL0     H 6091   4.780   2.508   7.433  0.2834  2.0437 -1.2033
  769MOL0     H 6092   4.755   2.725   7.485  2.4371 -0.3257  0.1207
  769MOL0     H 6093   4.591   2.737   7.440  1.0370  0.0814 -0.3386
  769MOL0     H 6094   4.733   2.869   7.284 -1.3711  0.4131  0.0690
  769MOL0     H 6095   4.836   2.718   7.274  0.4320  1.9347 -1.0800
  769MOL0     H 6096   4.563   2.771   7.165 -0.3036 -0.8792  0.7983
  769MOL0     H 6097   4.642   2.613   7.141 -0.7801 -0.0312  1.9401
  769MOL0     H 6098   4.843   2.797   7.040 -0.1440  2.8055 -0.5757
  769MOL0     H 6099   4.694   2.877   7.010  1.0810  0.4000  0.7645
  769MOL0     H 6100   4.744   2.585   6.933  2.5785  0.9156  0.9684
  769MOL0     H 6101   4.786   2.721   6.830  1.0386 -2.6008  0.6313
  769MOL0     H 6102   4.158   2.371   7.395  1.1185  0.8750  0.1703
  769MOL0     H 6103   3.893   2.448   7.428 -0.1021 -1.0890  0.7156
  769MOL0     H 6104   3.634   2.779   7.495 -2.2908  1.4265 -0.8764
  769MOL0     H 6105   3.410   2.841   7.466 -2.8318 -0.7805  0.1261
  769MOL0     H 6106   2.375   3.898   8.556 -0.9954 -2.5075  0.5700
  769MOL0     H 6107   2.413   4.064   8.730 -0.4002  0.0028  0.5079
  769MOL0     H 6108   2.453   4.241   9.172 -0.3360  0.6833  0.4864
  769MOL0     H 6109   2.566   4.430   9.317  0.8812 -2.0121  3.5471
  769MOL0     H 6110   2.656   4.622   9.281 -1.0628 -1.1176  0.0723
  769MOL0     H 6111   2.701   4.577   9.446 -0.1288 -0.2693 -1.0358
  769MOL0     H 6112   2.844   4.769   9.244 -1.6446  1.1183  0.1346
  769MOL0     H 6113   2.927   4.725   9.402 -0.0907 -2.3431  1.3237
  769MOL0     H 6114   2.651   4.844   9.369  1.3283  1.3108 -2.8821
  769MOL0     H 6115   2.728   4.829   9.526 -0.3933 -0.4991 -0.2825
  769MOL0     H 6116   2.721   5.066   9.406  0.5415  1.8310 -2.0787
  769MOL0     H 6117   2.837   4.993   9.289 -0.2698  0.4309 -1.2974
  769MOL0     H 6118   3.102   5.093   9.568  0.8314  0.6520 -1.3928
  769MOL0     H 6119   2.937   4.305   9.192  0.4238  0.4391 -0.0165
  769MOL0     H 6120   2.967   4.107   9.074 -1.0335  1.6221  0.2921
  769MOL0     H 6121   2.874   3.981   9.141 -0.0706  0.4580  0.7015
  769MOL0     H 6122   2.840   4.018   8.977  1.3610 -0.0178 -0.3464
  770MOL0     O 6123   7.735  10.234   2.617  0.1467  0.4774  1.5081
  770MOL0     C 6124   7.735  10.121   2.573  0.1713 -0.2762  1.6701
  770MOL0     O 6125   7.840  10.049   2.547  0.9757 -0.7357  0.0623
  770MOL0     C 6126   7.964  10.093   2.587 -0.3931  0.3870 -0.0231
  770MOL0     C 6127   8.031  10.021   2.690 -0.6498 -0.5475 -0.7660
  770MOL0     C 6128   8.163  10.041   2.725 -0.6201 -0.7986 -0.1795
  770MOL0     C 6129   8.250  10.125   2.652  0.9609 -0.5109  0.8116
  770MOL0     O 6130   8.385  10.149   2.674 -0.2094  1.2926 -0.2190
  770MOL0     C 6131   8.403  10.261   2.765  0.6272  0.4362  0.6882
  770MOL0     C 6132   8.560  10.270   2.769  0.1651 -0.3994 -0.2055
  770MOL0     C 6133   8.620  10.359   2.880  0.1645 -0.7645 -1.0048
  770MOL0     C 6134   8.772  10.357   2.873  0.3024  0.3950 -0.7120
  770MOL0     C 6135   8.837  10.359   3.017 -0.0201 -0.1555 -0.1206
  770MOL0     C 6136   8.989  10.359   3.003  0.0239 -0.2309  0.3198
  770MOL0     C 6137   9.055  10.356   3.141  0.1486  0.2288 -0.0624
  770MOL0     C 6138   9.155  10.469   3.163  0.5197 -0.8701 -0.7373
  770MOL0     N 6139   9.223  10.476   3.294 -0.6137 -0.3168 -0.1550
  770MOL0     C 6140   9.304  10.371   3.345  0.1968  0.2336  0.3389
  770MOL0     C 6141   9.340  10.412   3.475 -0.8858 -0.5990 -0.1909
  770MOL0     C 6142   9.427  10.342   3.573  0.1402  0.7880 -0.8909
  770MOL0     C 6143   9.402  10.191   3.617 -0.6952  0.0802 -0.1237
  770MOL0     C 6144   9.535  10.138   3.680 -0.2611 -0.5022  0.8836
  770MOL0     C 6145   9.529   9.984   3.685 -0.4309 -0.3305  0.7794
  770MOL0     O 6146   9.640   9.923   3.752  0.8038 -0.0846  0.0876
  770MOL0     C 6147   9.648   9.786   3.746  0.3732 -0.4066  0.6196
  770MOL0     C 6148   9.547   9.701   3.693 -0.2436  0.3869 -0.8586
  770MOL0     C 6149   9.580   9.567   3.664  0.4513 -0.2569 -0.2443
  770MOL0     C 6150   9.485   9.482   3.586  0.3539 -0.1059  0.6211
  770MOL0     C 6151   9.711   9.521   3.695  0.2393 -0.3717 -0.2199
  770MOL0     C 6152   9.754   9.383   3.655 -0.0014  0.7246 -0.8236
  770MOL0     O 6153   9.863   9.358   3.571 -0.0041 -0.8932  0.2256
  770MOL0     C 6154   9.905   9.467   3.500 -0.1222  0.6243  0.2603
  770MOL0     C 6155   9.833   9.530   3.396 -0.5170  0.3318 -0.1247
  770MOL0     C 6156   9.895   9.646   3.346 -0.3553 -1.3401  0.2169
  770MOL0     C 6157  10.008   9.713   3.399  0.3996 -0.4840 -0.5570
  770MOL0     O 6158  10.067   9.827   3.362 -0.1991  0.4365  0.9769
  770MOL0     C 6159  10.015   9.879   3.235 -0.0779  1.3018 -0.3623
  770MOL0     C 6160  10.120   9.979   3.188  0.0258 -0.0840  0.3428
  770MOL0     C 6161  10.107  10.030   3.049  0.3883  0.5022  0.0637
  770MOL0     C 6162   9.972  10.111   3.039  0.9779 -0.1134 -0.3362
  770MOL0     C 6163   9.948  10.154   2.890 -0.1843 -0.2265 -0.8108
  770MOL0     C 6164   9.823  10.242   2.879 -0.6860  0.4895 -1.0501
  770MOL0     C 6165   9.815  10.383   2.955 -0.4059 -0.6979 -0.1182
  770MOL0     C 6166   9.902  10.495   2.890  0.6921  0.1930  0.3584
  770MOL0    Cl 6167   9.820  10.524   2.728  0.1229 -0.2437 -0.3418
  770MOL0     C 6168  10.080   9.641   3.493 -0.1311 -0.1390 -0.2979
  770MOL0     C 6169  10.029   9.515   3.539 -0.8897  0.9979 -1.5673
  770MOL0     O 6170   9.699   9.303   3.724 -0.1579 -0.4251 -0.3834
  770MOL0     C 6171   9.803   9.605   3.764 -0.2788 -0.0595  0.9831
  770MOL0     C 6172   9.772   9.736   3.787  0.2277  0.1302 -0.0884
  770MOL0     N 6173   9.264  10.527   3.503 -0.1619 -1.2613 -0.0960
  770MOL0     N 6174   9.215  10.572   3.397  0.1562  0.3141  0.6381
  770MOL0     C 6175   8.181  10.191   2.549  0.6400 -0.3431 -0.2257
  770MOL0     C 6176   8.040  10.182   2.517  0.1605  0.1237  0.7277
  770MOL0     C 6177   7.604  10.083   2.511 -0.9925 -0.4027 -0.0256
  770MOL0     C 6178   7.597  10.043   2.379  1.0440  0.8485  0.8127
  770MOL0     C 6179   7.477  10.009   2.315 -0.5155 -0.0546  0.1504
  770MOL0     C 6180   7.362  10.019   2.387  0.2481  0.3167 -0.4013
  770MOL0     O 6181   7.235   9.979   2.340  0.3798  0.0797 -0.4825
  770MOL0     C 6182   7.229   9.870   2.247 -0.5730 -0.7018 -0.5492
  770MOL0     C 6183   7.087   9.813   2.250  0.1132 -0.2479 -0.0444
  770MOL0     C 6184   7.070   9.749   2.386 -0.5263 -1.0231  0.9388
  770MOL0     C 6185   6.930   9.693   2.412 -0.4040 -0.0346 -0.1469
  770MOL0     C 6186   6.881   9.595   2.307  0.7511  0.2421 -0.3741
  770MOL0     C 6187   6.849   9.518   2.223  0.4659  0.6192  0.7734
  770MOL0     C 6188   7.367  10.068   2.522 -0.3493 -0.2577  0.3434
  770MOL0     C 6189   7.485  10.093   2.588  0.2052 -0.1334  0.6280
  770MOL0     C 6190   7.480  10.168   2.720  0.1060 -0.4968  0.1810
  770MOL0     H 6191   7.966   9.947   2.735  2.9732 -3.7971 -0.4258
  770MOL0     H 6192   8.201   9.984   2.810 -0.7099  1.3827  1.4088
  770MOL0     H 6193   8.370  10.236   2.866 -0.7114  0.4590  0.2681
  770MOL0     H 6194   8.344  10.352   2.750 -3.1896 -1.5208  2.5296
  770MOL0     H 6195   8.611  10.173   2.775 -0.2205 -0.7519 -2.0384
  770MOL0     H 6196   8.585  10.296   2.665  0.7349 -0.7490 -0.1655
  770MOL0     H 6197   8.589  10.464   2.875  0.4887 -0.4856  1.4784
  770MOL0     H 6198   8.579  10.333   2.978  1.1733 -0.1066 -0.3906
  770MOL0     H 6199   8.803  10.263   2.826 -1.3676  0.6811 -2.5009
  770MOL0     H 6200   8.806  10.445   2.817 -3.6673  1.0439 -2.4289
  770MOL0     H 6201   8.810  10.265   3.067 -1.4043 -0.1945 -0.8671
  770MOL0     H 6202   8.800  10.445   3.074 -2.5660 -1.7409  0.8270
  770MOL0     H 6203   9.007  10.270   2.943 -1.7481 -1.0461  0.9160
  770MOL0     H 6204   9.023  10.446   2.946 -0.3587 -1.1058 -1.2832
  770MOL0     H 6205   9.106  10.260   3.154  2.1496  1.1723 -0.5325
  770MOL0     H 6206   8.977  10.357   3.217 -0.6003 -3.7999 -0.5177
  770MOL0     H 6207   9.234  10.469   3.087  1.5354  2.4525  0.1188
  770MOL0     H 6208   9.114  10.569   3.146  3.2077  0.4151 -0.3751
  770MOL0     H 6209   9.346  10.278   3.306 -1.3912 -1.5750  2.6780
  770MOL0     H 6210   9.441  10.406   3.661 -0.2199  0.7740 -0.8233
  770MOL0     H 6211   9.530  10.335   3.536  1.1537 -2.9421  1.9708
  770MOL0     H 6212   9.322  10.189   3.692 -2.3200 -1.5963 -1.7982
  770MOL0     H 6213   9.363  10.137   3.531 -1.3178  3.4636 -2.1309
  770MOL0     H 6214   9.623  10.170   3.624 -1.7901 -1.1852 -2.0866
  770MOL0     H 6215   9.542  10.173   3.784  0.4546 -0.7269  0.9154
  770MOL0     H 6216   9.433   9.958   3.730 -2.8185  3.3817 -1.5875
  770MOL0     H 6217   9.525   9.946   3.582  4.5406  0.4826 -0.0113
  770MOL0     H 6218   9.449   9.737   3.665  0.7048  3.3257 -0.7484
  770MOL0     H 6219   9.412   9.428   3.647 -0.4412 -0.3130 -0.4842
  770MOL0     H 6220   9.537   9.401   3.533 -4.1669 -1.4541 -2.2549
  770MOL0     H 6221   9.417   9.539   3.523 -0.9410 -0.3700  1.7220
  770MOL0     H 6222   9.738   9.495   3.358  0.4370 -2.5971 -0.0528
  770MOL0     H 6223   9.830   9.683   3.267  0.3100 -1.3769 -0.3584
  770MOL0     H 6224   9.986   9.802   3.163  1.6943  1.7948 -1.6976
  770MOL0     H 6225   9.926   9.936   3.260 -0.3950  0.3694  0.7007
  770MOL0     H 6226  10.118  10.065   3.255 -1.7742 -0.6438  1.0816
  770MOL0     H 6227  10.216   9.926   3.187 -0.7844 -1.6101 -1.4311
  770MOL0     H 6228  10.111   9.946   2.979  1.6292  0.4181  0.2029
  770MOL0     H 6229  10.191  10.090   3.011  0.4092  0.5824  0.2377
  770MOL0     H 6230   9.967  10.193   3.111 -2.5526 -2.7892  2.9146
  770MOL0     H 6231   9.889  10.041   3.053  0.5493  0.0811 -1.7726
  770MOL0     H 6232  10.036  10.217   2.872 -0.8786  1.1922  0.4706
  770MOL0     H 6233   9.961  10.073   2.817  0.4521  0.6781 -1.7407
  770MOL0     H 6234   9.743  10.178   2.916  0.5731 -0.7766 -0.4111
  770MOL0     H 6235   9.805  10.255   2.772 -1.8955 -1.3904 -1.1126
  770MOL0     H 6236   9.833  10.373   3.063  0.0954 -0.2449 -0.1542
  770MOL0     H 6237   9.709  10.405   2.943 -0.0575  2.0013  0.9763
  770MOL0     H 6238  10.004  10.460   2.872  0.4247  0.3130 -1.5725
  770MOL0     H 6239   9.899  10.588   2.946 -0.7096  0.4859 -0.1631
  770MOL0     H 6240  10.167   9.688   3.537 -0.9154  0.9796  0.1186
  770MOL0     H 6241  10.068   9.454   3.619  0.6143 -0.2395 -3.1736
  770MOL0     H 6242   9.901   9.565   3.792 -1.1440 -3.1448  0.0001
  770MOL0     H 6243   9.844   9.806   3.829 -1.7329  1.5411  1.0635
  770MOL0     H 6244   8.243  10.263   2.497  0.7607 -1.1723 -1.2698
  770MOL0     H 6245   7.999  10.248   2.441  1.6600 -1.5377 -1.6927
  770MOL0     H 6246   7.687  10.036   2.318 -0.8638 -0.0136 -2.1225
  770MOL0     H 6247   7.483   9.980   2.210  0.0439  0.8863 -0.0934
  770MOL0     H 6248   7.253   9.906   2.146 -1.4471 -1.9037 -1.2265
  770MOL0     H 6249   7.297   9.788   2.270 -2.5903 -2.4409 -0.3886
  770MOL0     H 6250   7.081   9.743   2.167  2.1669 -0.0112 -0.4394
  770MOL0     H 6251   7.009   9.885   2.221  0.4335 -0.1522 -0.6795
  770MOL0     H 6252   7.151   9.677   2.398  0.3971  0.0083  1.0163
  770MOL0     H 6253   7.090   9.826   2.460  0.2868  1.8246 -1.9938
  770MOL0     H 6254   6.857   9.774   2.412 -1.4433 -0.8591  2.1851
  770MOL0     H 6255   6.927   9.658   2.516 -0.3811 -0.0051 -0.1362
  770MOL0     H 6256   6.807   9.478   2.133 -0.1611  2.1431  0.3705
  770MOL0     H 6257   7.279  10.082   2.584 -0.1085  0.7043  0.4765
  770MOL0     H 6258   7.500  10.276   2.718  2.2234 -0.7684  2.3932
  770MOL0     H 6259   7.381  10.165   2.767 -0.4395  1.0494 -0.7728
  770MOL0     H 6260   7.558  10.134   2.788  1.2083  0.4292 -0.5602
  771MOL0     O 6261   6.755   9.136  10.622  0.2863  0.2759 -0.0982
  771MOL0     C 6262   6.635   9.097  10.613 -0.7166 -0.4327  0.5318
  771MOL0     O 6263   6.583   8.987  10.678  0.7160 -0.4491 -0.0782
  771MOL0     C 6264   6.666   8.886  10.710 -0.7739 -0.5121 -0.4051
  771MOL0     C 6265   6.719   8.808  10.608 -0.6016  0.5406  0.4319
  771MOL0     C 6266   6.799   8.696  10.630  0.7121 -0.0680  0.4663
  771MOL0     C 6267   6.830   8.667  10.764 -0.4617  0.5861 -1.1460
  771MOL0     O 6268   6.923   8.579  10.785 -1.9158  0.2305  0.7813
  771MOL0     C 6269   7.051   8.624  10.837 -0.2332  0.2476  0.6456
  771MOL0     C 6270   7.142   8.500  10.842 -1.0171 -0.1379  0.8818
  771MOL0     C 6271   7.175   8.447  10.698  0.0519  0.4509 -0.0982
  771MOL0     C 6272   7.310   8.373  10.716  0.3657  0.8461 -0.1675
  771MOL0     C 6273   7.357   8.334  10.570 -0.7891  0.4204 -1.0014
  771MOL0     C 6274   7.491   8.260  10.568  0.9556 -0.9388 -0.7469
  771MOL0     C 6275   7.558   8.291  10.443  0.4779  0.5803  0.9149
  771MOL0     C 6276   7.691   8.217  10.445 -0.1732  0.5264 -0.6616
  771MOL0     N 6277   7.676   8.083  10.396  0.5789 -0.4338  0.9277
  771MOL0     C 6278   7.778   7.994  10.389 -0.0085  0.7113 -0.9197
  771MOL0     C 6279   7.725   7.879  10.333 -0.0862  0.3167  0.2374
  771MOL0     C 6280   7.789   7.755  10.278  0.5058 -0.4345 -0.1357
  771MOL0     C 6281   7.716   7.729  10.143 -0.6398  1.1512  0.4505
  771MOL0     C 6282   7.806   7.655  10.050  0.3039 -0.2239 -0.1635
  771MOL0     C 6283   7.849   7.518  10.103 -0.2581  0.4944 -1.0481
  771MOL0     O 6284   7.879   7.440   9.989  0.6727 -0.1126  0.1057
  771MOL0     C 6285   7.919   7.314  10.009  0.5057  0.4923  0.0045
  771MOL0     C 6286   7.920   7.240  10.130  0.2948  0.4253  0.4070
  771MOL0     C 6287   7.942   7.097  10.134  0.3579 -0.5024  0.7625
  771MOL0     C 6288   7.933   7.036  10.267 -0.3782  0.7154 -1.6514
  771MOL0     C 6289   7.982   7.030  10.007  0.7787  0.0263 -0.3859
  771MOL0     C 6290   8.021   6.897   9.989 -0.4442  0.9182  0.2502
  771MOL0     O 6291   8.058   6.860   9.865  0.2442 -0.3300  0.2450
  771MOL0     C 6292   8.096   6.726   9.845 -1.3014 -0.0443 -0.7295
  771MOL0     C 6293   8.004   6.630   9.866  0.2076  0.4082 -0.0737
  771MOL0     C 6294   8.035   6.493   9.829 -0.0473 -0.2469  0.6090
  771MOL0     C 6295   8.162   6.466   9.773 -0.1766  0.0659  0.2606
  771MOL0     O 6296   8.204   6.345   9.729 -0.2340  0.1392  0.7807
  771MOL0     C 6297   8.113   6.279   9.646  0.7448 -0.1876 -0.8275
  771MOL0     C 6298   8.165   6.159   9.569 -0.3306  1.2872  0.5087
  771MOL0     C 6299   8.054   6.063   9.519 -0.1358 -0.4846  0.1985
  771MOL0     C 6300   8.089   5.959   9.414 -0.3185  0.8331 -0.1556
  771MOL0     C 6301   7.964   5.871   9.386 -0.8660 -0.2906  0.2494
  771MOL0     C 6302   7.980   5.765   9.282 -0.3774  0.1189  0.1135
  771MOL0     C 6303   7.854   5.703   9.247 -0.2715  0.2177  0.8846
  771MOL0     C 6304   7.843   5.666   9.098 -0.3426  0.6427  0.3052
  771MOL0    Cl 6305   7.682   5.602   9.059  0.4285 -0.3601 -0.1264
  771MOL0     C 6306   8.253   6.578   9.755 -0.1136  0.7020  0.4282
  771MOL0     C 6307   8.220   6.705   9.797 -0.1491 -0.2216  0.3309
  771MOL0     O 6308   8.007   6.819  10.082  0.2238  0.8567 -0.1549
  771MOL0     C 6309   7.974   7.109   9.891  0.3546 -0.0913  0.3878
  771MOL0     C 6310   7.950   7.244   9.892 -0.1558 -0.7522  0.5118
  771MOL0     N 6311   7.589   7.897  10.310 -0.5913  0.2459  0.5372
  771MOL0     N 6312   7.563   8.018  10.350 -0.5093 -0.0053  0.4914
  771MOL0     C 6313   6.780   8.744  10.868  0.2334  0.5243 -0.3076
  771MOL0     C 6314   6.691   8.853  10.840  0.3717  0.9700 -0.0027
  771MOL0     C 6315   6.535   9.174  10.533 -0.7327 -1.3668 -0.3514
  771MOL0     C 6316   6.581   9.308  10.490 -0.0342  0.3278 -0.1020
  771MOL0     C 6317   6.486   9.399  10.439  0.8405 -0.0532 -0.1664
  771MOL0     C 6318   6.351   9.352  10.419 -0.3657  0.2711  1.2793
  771MOL0     O 6319   6.247   9.432  10.360  0.6376 -0.4266  0.6123
  771MOL0     C 6320   6.272   9.556  10.293  0.4125 -0.0726  0.3215
  771MOL0     C 6321   6.152   9.650  10.316  0.5775 -0.0456  0.3897
  771MOL0     C 6322   6.017   9.585  10.263 -0.6999 -0.2159 -0.8784
  771MOL0     C 6323   5.877   9.656  10.272  0.6005 -0.2528  0.1639
  771MOL0     C 6324   5.847   9.708  10.408 -0.4009 -0.0800  1.0978
  771MOL0     C 6325   5.824   9.768  10.508  0.3936  0.0256  0.1501
  771MOL0     C 6326   6.316   9.222  10.456  1.2846 -0.6570 -0.4039
  771MOL0     C 6327   6.401   9.130  10.512  0.2120  0.9204 -0.0635
  771MOL0     C 6328   6.348   8.987  10.533 -0.4426 -0.1033 -0.2945
  771MOL0     H 6329   6.701   8.830  10.503 -0.9973 -0.8544  0.1903
  771MOL0     H 6330   6.850   8.646  10.549  0.5346 -1.7587  1.3695
  771MOL0     H 6331   7.038   8.669  10.936 -0.1909  0.3783  0.5927
  771MOL0     H 6332   7.089   8.702  10.770  0.6184 -0.4959  0.2390
  771MOL0     H 6333   7.231   8.530  10.900 -2.5667 -1.2157  4.0510
  771MOL0     H 6334   7.089   8.416  10.886 -1.2279  0.0913  1.0687
  771MOL0     H 6335   7.096   8.378  10.667  0.1731  1.1259 -2.0359
  771MOL0     H 6336   7.187   8.526  10.623  0.0654  0.2786 -0.2767
  771MOL0     H 6337   7.387   8.438  10.758  0.5767  1.4177 -1.4116
  771MOL0     H 6338   7.292   8.278  10.769  3.6352  0.0777 -0.2472
  771MOL0     H 6339   7.359   8.426  10.510 -0.5397  2.2883  1.7044
  771MOL0     H 6340   7.269   8.281  10.533 -1.6412 -0.2784  1.8051
  771MOL0     H 6341   7.548   8.304  10.650 -0.5261  2.2694 -1.2705
  771MOL0     H 6342   7.485   8.152  10.588  0.6042 -0.2881  3.8350
  771MOL0     H 6343   7.566   8.400  10.439  0.0607  0.5943 -1.5566
  771MOL0     H 6344   7.494   8.264  10.358  0.7924 -1.0237  1.1602
  771MOL0     H 6345   7.762   8.277  10.387  1.8145 -0.4082  0.6849
  771MOL0     H 6346   7.726   8.202  10.547  1.9785  2.0814 -1.1021
  771MOL0     H 6347   7.885   8.001  10.408  0.3479 -1.6331 -1.6531
  771MOL0     H 6348   7.780   7.682  10.359 -1.1021  2.3152  2.3811
  771MOL0     H 6349   7.897   7.769  10.269  0.2450  1.9720 -0.2758
  771MOL0     H 6350   7.632   7.663  10.167  0.2659  0.2984  1.3820
  771MOL0     H 6351   7.691   7.823  10.094  1.2951  2.0056  1.0148
  771MOL0     H 6352   7.758   7.636   9.953 -1.4990  0.0487  0.6433
  771MOL0     H 6353   7.902   7.704  10.029 -0.4504  2.5871  2.3634
  771MOL0     H 6354   7.940   7.519  10.164 -0.4590 -2.9646 -0.4792
  771MOL0     H 6355   7.763   7.467  10.147  2.0585 -1.1103  2.0768
  771MOL0     H 6356   7.891   7.293  10.220 -2.0801  1.2559 -0.7476
  771MOL0     H 6357   7.876   7.090  10.343 -0.7461  0.8197 -2.0007
  771MOL0     H 6358   8.030   7.003  10.306 -1.7915 -0.4824  1.1225
  771MOL0     H 6359   7.870   6.947  10.256 -1.4696  1.1273  0.6100
  771MOL0     H 6360   7.907   6.648   9.912 -2.5850 -0.5797 -4.8402
  771MOL0     H 6361   7.969   6.407   9.834  1.1598 -1.2097  0.1959
  771MOL0     H 6362   8.024   6.244   9.700  0.6755  0.0278 -0.7980
  771MOL0     H 6363   8.076   6.354   9.575  1.2943  0.8544 -0.0415
  771MOL0     H 6364   8.231   6.190   9.487  0.9651 -0.5864  0.7696
  771MOL0     H 6365   8.234   6.109   9.638  2.4913  1.2705 -2.0804
  771MOL0     H 6366   7.963   6.114   9.486 -1.4269 -1.3025  2.3000
  771MOL0     H 6367   8.016   6.007   9.606  0.4304  2.4237  2.4654
  771MOL0     H 6368   8.171   5.896   9.449  0.2344  1.3079 -0.5766
  771MOL0     H 6369   8.120   6.008   9.322  2.5521  0.6214  0.6154
  771MOL0     H 6370   7.931   5.823   9.478 -2.4407 -1.7737 -1.0166
  771MOL0     H 6371   7.876   5.931   9.362 -0.1729  0.7155  0.1618
  771MOL0     H 6372   8.046   5.687   9.320 -1.2169  0.2651  1.9862
  771MOL0     H 6373   8.031   5.805   9.194 -2.2374 -0.3710 -1.2590
  771MOL0     H 6374   7.765   5.762   9.270 -1.8716 -1.1632 -1.2628
  771MOL0     H 6375   7.843   5.609   9.302 -1.1842 -0.8179 -0.9576
  771MOL0     H 6376   7.922   5.595   9.071 -1.9908 -1.1523 -0.0148
  771MOL0     H 6377   7.846   5.762   9.045  1.5431 -1.5946 -4.2154
  771MOL0     H 6378   8.344   6.549   9.705 -0.4426 -1.9880  1.2360
  771MOL0     H 6379   8.296   6.782   9.799  0.9839 -1.2311 -1.3154
  771MOL0     H 6380   7.979   7.072   9.789  2.1064  2.6016 -0.6041
  771MOL0     H 6381   7.932   7.302   9.803  0.3425  1.4405  1.7623
  771MOL0     H 6382   6.802   8.722  10.972  1.9589 -1.4501 -1.0152
  771MOL0     H 6383   6.671   8.927  10.917 -0.2166  2.5213 -1.5859
  771MOL0     H 6384   6.681   9.343  10.514  0.2830 -2.9313  4.8344
  771MOL0     H 6385   6.516   9.499  10.411  0.4952  0.2652  0.5599
  771MOL0     H 6386   6.365   9.603  10.327 -1.3385  2.1127  2.4521
  771MOL0     H 6387   6.282   9.535  10.186  1.4793 -0.2611  0.4516
  771MOL0     H 6388   6.174   9.740  10.258 -2.0249  0.0009 -0.6702
  771MOL0     H 6389   6.147   9.688  10.418 -0.8223  0.5506  0.1375
  771MOL0     H 6390   6.042   9.565  10.158  2.3282 -3.1248  0.1975
  771MOL0     H 6391   6.001   9.486  10.307 -1.5473 -0.4432 -1.6776
  771MOL0     H 6392   5.803   9.583  10.237  1.3441 -1.1521  0.3986
  771MOL0     H 6393   5.882   9.742  10.206  4.3891  0.5504  1.2248
  771MOL0     H 6394   5.811   9.833  10.593 -1.5298  0.8805 -0.7295
  771MOL0     H 6395   6.216   9.184  10.438  1.2729 -0.9720  0.2954
  771MOL0     H 6396   6.413   8.908  10.494 -2.6018 -1.5231 -1.2164
  771MOL0     H 6397   6.327   8.973  10.640  1.6244  1.4170  0.3774
  771MOL0     H 6398   6.254   8.977  10.478 -0.6340 -0.0754  0.0273
  772MOL0     O 6399   9.362  10.104   3.093 -0.3501  0.4982 -0.2449
  772MOL0     C 6400   9.466  10.155   3.048  0.3666  0.0699 -0.5006
  772MOL0     O 6401   9.497  10.171   2.922  0.3425 -1.3822  0.2668
  772MOL0     C 6402   9.392  10.159   2.836 -0.3207  0.6536  0.4006
  772MOL0     C 6403   9.270  10.222   2.835  0.0840 -0.2936  0.0177
  772MOL0     C 6404   9.174  10.193   2.744  0.4468  0.2551  0.2585
  772MOL0     C 6405   9.193  10.081   2.653 -0.2664  0.4234 -0.8292
  772MOL0     O 6406   9.097  10.033   2.571 -0.0794  0.1917 -0.1784
  772MOL0     C 6407   9.018  10.133   2.506 -0.4202 -0.7051  1.2995
  772MOL0     C 6408   8.887  10.067   2.464  0.0139 -0.3926 -0.5553
  772MOL0     C 6409   8.797  10.157   2.388 -0.2734 -0.4567  0.7723
  772MOL0     C 6410   8.648  10.117   2.386 -0.1199  0.4088 -0.0529
  772MOL0     C 6411   8.561  10.223   2.321 -0.3975  0.3822  0.5417
  772MOL0     C 6412   8.602  10.270   2.179 -0.2627  0.4814  0.1534
  772MOL0     C 6413   8.503  10.381   2.131 -0.0917  0.3273 -0.1142
  772MOL0     C 6414   8.503  10.414   1.984 -0.2645  0.5228  0.7487
  772MOL0     N 6415   8.635  10.448   1.927  0.3072 -0.2899  0.4709
  772MOL0     C 6416   8.738  10.521   1.982 -0.9691  0.1507 -0.4339
  772MOL0     C 6417   8.857  10.473   1.927  0.0521  0.0520 -0.0654
  772MOL0     C 6418   8.994  10.539   1.945  0.1202  0.3170 -0.7186
  772MOL0     C 6419   9.036  10.526   2.091  0.6273 -0.0581 -1.0692
  772MOL0     C 6420   9.079  10.377   2.124 -1.1049  0.3687 -0.3102
  772MOL0     C 6421   9.147  10.381   2.258 -0.1881 -0.0230  0.3376
  772MOL0     O 6422   9.048  10.410   2.365 -0.3097  0.8535  0.0652
  772MOL0     C 6423   9.096  10.482   2.470  0.8276 -0.6579  0.1383
  772MOL0     C 6424   9.007  10.554   2.556 -0.4158 -0.2365 -0.9122
  772MOL0     C 6425   9.053  10.612   2.680 -0.6673 -0.5306  0.9916
  772MOL0     C 6426   8.956  10.685   2.775  0.2951  0.4543 -0.6624
  772MOL0     C 6427   9.190  10.596   2.711 -0.4757  0.5875  0.1493
  772MOL0     C 6428   9.261  10.646   2.836 -0.4821 -0.0107  0.7704
  772MOL0     O 6429   9.396  10.645   2.832 -0.4957 -0.6565 -0.0864
  772MOL0     C 6430   9.476  10.712   2.917  0.4857  1.4134 -0.4996
  772MOL0     C 6431   9.593  10.765   2.858 -0.0025 -0.6418 -0.3124
  772MOL0     C 6432   9.683  10.828   2.940 -0.6372 -0.2200 -0.8459
  772MOL0     C 6433   9.658  10.853   3.076  0.7054 -0.0269 -0.3835
  772MOL0     O 6434   9.741  10.932   3.153 -0.1563 -0.9191  0.2911
  772MOL0     C 6435   9.881  10.950   3.125  0.8950  0.0676  0.4679
  772MOL0     C 6436   9.949  11.017   3.244  0.4702 -0.2331 -0.6678
  772MOL0     C 6437  10.100  11.016   3.240 -0.5373 -0.5320  0.4205
  772MOL0     C 6438  10.165  10.885   3.258 -0.8407  0.2182  0.6853
  772MOL0     C 6439  10.143  10.823   3.393  0.5634  0.1515  0.6452
  772MOL0     C 6440  10.281  10.796   3.467 -0.1864  0.7066 -0.5681
  772MOL0     C 6441  10.242  10.736   3.603  0.1460  0.1193  0.1020
  772MOL0     C 6442  10.354  10.677   3.687  0.0460 -0.1289 -0.5567
  772MOL0    Cl 6443  10.413  10.527   3.606 -0.0451  0.3271 -0.1924
  772MOL0     C 6444   9.536  10.812   3.133 -0.7167 -0.2169  0.2286
  772MOL0     C 6445   9.447  10.732   3.060 -0.2134  0.4235 -0.0906
  772MOL0     O 6446   9.190  10.684   2.934 -0.5919  0.0302  0.6394
  772MOL0     C 6447   9.273  10.534   2.622  0.1142 -0.2050  0.2074
  772MOL0     C 6448   9.222  10.472   2.516 -0.1030 -0.1050  0.1691
  772MOL0     N 6449   8.820  10.376   1.838 -0.5587  0.3026 -0.3493
  772MOL0     N 6450   8.689  10.362   1.839  0.3223 -0.1556  0.3529
  772MOL0     C 6451   9.312  10.010   2.656 -0.7457 -0.0851 -1.0814
  772MOL0     C 6452   9.409  10.051   2.746  0.6181  0.3814  1.8673
  772MOL0     C 6453   9.561  10.199   3.153  0.0933 -0.6873  0.1798
  772MOL0     C 6454   9.581  10.341   3.182  0.9500 -0.6646 -0.9859
  772MOL0     C 6455   9.660  10.379   3.282  0.6852 -0.3411 -0.9536
  772MOL0     C 6456   9.732  10.287   3.354  0.5967  0.1032 -0.0669
  772MOL0     O 6457   9.821  10.319   3.458  0.2093 -0.2858  0.5948
  772MOL0     C 6458   9.846  10.452   3.499 -0.5849  0.6670 -0.0546
  772MOL0     C 6459   9.930  10.432   3.632 -0.2130 -0.1779 -0.6075
  772MOL0     C 6460   9.840  10.374   3.747 -0.1782  0.2295  0.3455
  772MOL0     C 6461   9.730  10.458   3.785  0.2564 -0.2446 -0.2626
  772MOL0     C 6462   9.662  10.405   3.910 -0.1289 -0.0045 -0.5228
  772MOL0     C 6463   9.621  10.325   3.998 -0.3015 -0.7272 -0.6874
  772MOL0     C 6464   9.718  10.150   3.324  0.9614 -0.1323  0.0586
  772MOL0     C 6465   9.628  10.104   3.231  0.7291 -0.4973 -0.2928
  772MOL0     C 6466   9.611   9.956   3.196 -0.2992  1.0410 -0.2022
  772MOL0     H 6467   9.254  10.294   2.916  0.8140 -1.9533  1.7265
  772MOL0     H 6468   9.073  10.232   2.744 -0.1735 -1.1881 -1.9685
  772MOL0     H 6469   9.074  10.161   2.416 -0.0433 -0.3330  1.6436
  772MOL0     H 6470   9.001  10.227   2.558  3.4547  0.4250  0.8642
  772MOL0     H 6471   8.905   9.982   2.398  2.4377 -1.7663  1.6849
  772MOL0     H 6472   8.833  10.040   2.554 -1.6063  1.5017 -0.8851
  772MOL0     H 6473   8.807  10.262   2.418 -2.4979  0.4012 -1.1051
  772MOL0     H 6474   8.825  10.159   2.282  1.5433 -0.7368  1.2230
  772MOL0     H 6475   8.632  10.034   2.317 -1.6278  1.0145 -0.4732
  772MOL0     H 6476   8.607  10.101   2.486 -0.6874 -3.6920 -0.7528
  772MOL0     H 6477   8.586  10.310   2.382 -0.0951  0.3559  0.4582
  772MOL0     H 6478   8.458  10.189   2.324 -0.4032  0.3609  0.2043
  772MOL0     H 6479   8.702  10.315   2.180  0.0207 -0.1030 -0.7615
  772MOL0     H 6480   8.601  10.190   2.105  3.3877  2.5462 -2.4437
  772MOL0     H 6481   8.538  10.470   2.184  0.2920 -0.1590  0.4622
  772MOL0     H 6482   8.400  10.356   2.157  0.9398 -1.8090  2.3846
  772MOL0     H 6483   8.446  10.335   1.934  0.6157 -1.5031  2.7599
  772MOL0     H 6484   8.434  10.498   1.969 -0.7595  0.0275  0.2132
  772MOL0     H 6485   8.729  10.592   2.064  0.2564 -1.4521  1.1630
  772MOL0     H 6486   8.990  10.648   1.932  2.9746  0.6695  0.4740
  772MOL0     H 6487   9.068  10.496   1.877  1.8944  2.2198 -0.1102
  772MOL0     H 6488   9.118  10.596   2.109 -1.2613  2.1318 -0.5098
  772MOL0     H 6489   8.958  10.562   2.158  1.3184 -0.0903 -0.2213
  772MOL0     H 6490   8.995  10.310   2.104  1.4183 -2.4783 -2.3155
  772MOL0     H 6491   9.162  10.349   2.058  0.7106 -3.4508  3.1667
  772MOL0     H 6492   9.198  10.288   2.284 -0.1512  0.1581  0.9365
  772MOL0     H 6493   9.230  10.453   2.256 -1.6335  1.8151  1.8593
  772MOL0     H 6494   8.901  10.554   2.535 -0.5748 -2.9743 -0.3840
  772MOL0     H 6495   8.970  10.654   2.879  3.9016 -0.0245 -1.1610
  772MOL0     H 6496   8.854  10.649   2.754  0.7900 -1.1830 -0.4370
  772MOL0     H 6497   8.954  10.793   2.763 -2.2969  0.2653 -2.9074
  772MOL0     H 6498   9.614  10.747   2.753  1.7792 -1.3329  0.1439
  772MOL0     H 6499   9.782  10.855   2.906  0.3966 -0.7932  1.5296
  772MOL0     H 6500   9.922  10.849   3.117  2.9573  0.7432  1.6099
  772MOL0     H 6501   9.908  11.006   3.035 -2.1087  0.5260 -0.2526
  772MOL0     H 6502   9.912  11.120   3.244  1.2085  0.0473  0.0840
  772MOL0     H 6503   9.905  10.966   3.330 -0.2964 -3.9116 -2.9993
  772MOL0     H 6504  10.139  11.085   3.315  1.3688 -1.1718  0.0753
  772MOL0     H 6505  10.138  11.043   3.141  0.2890 -2.6517  0.1132
  772MOL0     H 6506  10.271  10.904   3.239 -0.6212  0.5353  2.0848
  772MOL0     H 6507  10.127  10.817   3.181 -0.6822  1.2726 -0.3494
  772MOL0     H 6508  10.073  10.884   3.451 -0.7345 -1.5553  0.9438
  772MOL0     H 6509  10.085  10.731   3.380 -2.8820  2.1875  0.4358
  772MOL0     H 6510  10.336  10.890   3.481 -0.9932  1.3170 -1.2967
  772MOL0     H 6511  10.340  10.722   3.414  2.0535  2.5539 -0.8182
  772MOL0     H 6512  10.164  10.659   3.595  0.2144 -0.1826  1.8332
  772MOL0     H 6513  10.200  10.820   3.659 -1.4593 -1.8877  2.1362
  772MOL0     H 6514  10.318  10.642   3.784 -0.5480 -1.9197 -1.3803
  772MOL0     H 6515  10.430  10.756   3.695 -0.3166  0.0749  1.3071
  772MOL0     H 6516   9.523  10.852   3.233  3.0374  1.3143  0.2670
  772MOL0     H 6517   9.357  10.695   3.109 -0.6147 -1.0993 -1.8652
  772MOL0     H 6518   9.380  10.524   2.631  0.0121 -0.7908  0.8802
  772MOL0     H 6519   9.295  10.418   2.456 -0.2221  2.2179 -2.2975
  772MOL0     H 6520   9.339   9.924   2.595  3.5110  1.6502 -2.0027
  772MOL0     H 6521   9.503   9.996   2.754  1.3405  0.3542 -3.2820
  772MOL0     H 6522   9.530  10.411   3.116  0.2647 -2.1944 -2.1320
  772MOL0     H 6523   9.674  10.485   3.302 -1.3777 -0.2802  0.4907
  772MOL0     H 6524   9.896  10.507   3.419 -1.6916  1.2374 -0.3695
  772MOL0     H 6525   9.757  10.511   3.521 -1.1709 -0.7319  1.5789
  772MOL0     H 6526   9.953  10.536   3.657 -1.5646 -0.1417  0.6528
  772MOL0     H 6527  10.024  10.379   3.619 -2.3425 -4.0091 -1.7783
  772MOL0     H 6528   9.803  10.276   3.713 -2.9796  2.4218 -3.7097
  772MOL0     H 6529   9.912  10.353   3.827  1.5249  0.9055 -0.9386
  772MOL0     H 6530   9.654  10.493   3.716  0.6266  5.3615  1.6939
  772MOL0     H 6531   9.775  10.551   3.819 -3.1237  1.6648 -0.5832
  772MOL0     H 6532   9.583  10.250   4.065 -0.6487  1.2043  1.3937
  772MOL0     H 6533   9.784  10.076   3.368 -1.9423 -1.9103  1.7512
  772MOL0     H 6534   9.683   9.898   3.254 -1.4324 -0.6867 -0.4567
  772MOL0     H 6535   9.509   9.924   3.222  1.3387 -4.9372  0.3681
  772MOL0     H 6536   9.629   9.931   3.091  0.8370  0.1680  0.1789
  773MOL0     O 6537   7.715  11.245   4.278  0.4003  0.2844 -0.7445
  773MOL0     C 6538   7.710  11.313   4.174  0.0389 -0.8662 -1.2066
  773MOL0     O 6539   7.808  11.331   4.074 -0.6748  0.4925 -0.0515
  773MOL0     C 6540   7.927  11.264   4.094  0.3104 -1.3249  0.1789
  773MOL0     C 6541   8.047  11.335   4.070 -0.3998 -1.0673  0.7068
  773MOL0     C 6542   8.175  11.281   4.071 -0.0841  0.7241 -0.2427
  773MOL0     C 6543   8.189  11.141   4.089  0.1415 -0.0483  0.3900
  773MOL0     O 6544   8.304  11.064   4.076  0.3184  1.1466 -0.2290
  773MOL0     C 6545   8.418  11.108   4.135  0.4576 -0.0892  0.0748
  773MOL0     C 6546   8.533  11.119   4.039  0.4308 -0.2673  0.0779
  773MOL0     C 6547   8.664  11.131   4.123  0.7182 -0.0609  0.5082
  773MOL0     C 6548   8.709  10.978   4.159 -0.1064  0.0908 -0.0318
  773MOL0     C 6549   8.818  10.994   4.263  0.6263  0.3992 -0.1418
  773MOL0     C 6550   8.877  10.858   4.309  0.5232  0.3662 -0.0906
  773MOL0     C 6551   8.956  10.884   4.433  0.8238 -0.2243 -0.1785
  773MOL0     C 6552   8.862  10.893   4.558  0.0084 -0.3993  0.3343
  773MOL0     N 6553   8.939  10.930   4.673 -0.0225  0.4651 -0.7468
  773MOL0     C 6554   9.015  11.046   4.688  0.3417 -0.6664 -0.0337
  773MOL0     C 6555   9.080  11.022   4.808 -0.7372 -0.0351  0.8459
  773MOL0     C 6556   9.198  11.104   4.867  0.0921  0.2457 -0.2448
  773MOL0     C 6557   9.124  11.209   4.952  0.6444  0.2882  0.2878
  773MOL0     C 6558   9.115  11.155   5.095  0.1676  0.3107  0.0526
  773MOL0     C 6559   9.020  11.247   5.179 -0.4808  0.1452 -0.1211
  773MOL0     O 6560   9.072  11.375   5.222  0.0618  1.2938 -0.0880
  773MOL0     C 6561   8.979  11.461   5.267 -0.2943 -0.9846 -0.9737
  773MOL0     C 6562   9.020  11.596   5.268  0.5523 -0.9495  0.3913
  773MOL0     C 6563   8.942  11.704   5.319  0.4862 -0.0845 -0.1838
  773MOL0     C 6564   8.989  11.852   5.297 -0.3013  0.5617  0.2868
  773MOL0     C 6565   8.809  11.668   5.366 -0.8100 -0.0137 -0.8381
  773MOL0     C 6566   8.696  11.765   5.398  0.0313  0.4014 -0.2144
  773MOL0     O 6567   8.723  11.897   5.403 -0.5189 -0.2050  0.0681
  773MOL0     C 6568   8.617  11.983   5.395  0.1709 -1.0749 -0.4514
  773MOL0     C 6569   8.598  12.057   5.277 -0.0979 -0.7417  0.0821
  773MOL0     C 6570   8.497  12.150   5.268  0.3347 -0.2840 -0.0191
  773MOL0     C 6571   8.407  12.170   5.370  0.8743  0.1248  1.6631
  773MOL0     O 6572   8.298  12.251   5.330  0.1840 -0.3189  0.2565
  773MOL0     C 6573   8.184  12.263   5.416  0.0865  0.4921  0.1581
  773MOL0     C 6574   8.059  12.168   5.409 -0.3757  0.0824 -0.1310
  773MOL0     C 6575   8.009  12.158   5.263 -0.7296 -0.9836  0.5579
  773MOL0     C 6576   7.895  12.047   5.257 -0.4126  0.1726  0.4429
  773MOL0     C 6577   7.799  12.079   5.147  0.7892 -0.0337  0.5590
  773MOL0     C 6578   7.660  12.018   5.157  0.5079 -0.1634  0.6628
  773MOL0     C 6579   7.665  11.882   5.103  0.5904 -0.6260  0.5780
  773MOL0     C 6580   7.533  11.811   5.131 -0.3655 -0.5485 -0.1366
  773MOL0    Cl 6581   7.533  11.735   5.290  0.2141  0.1790 -0.0374
  773MOL0     C 6582   8.415  12.085   5.489 -0.1010  0.3757 -0.5221
  773MOL0     C 6583   8.520  11.988   5.501 -0.2574 -0.1152  0.8780
  773MOL0     O 6584   8.584  11.720   5.428 -0.5203 -0.0936  0.0176
  773MOL0     C 6585   8.772  11.529   5.365  0.5282  0.5326 -0.3161
  773MOL0     C 6586   8.857  11.430   5.315 -0.9471 -0.0543 -0.1617
  773MOL0     N 6587   9.031  10.906   4.862  0.6455  0.7652  0.7109
  773MOL0     N 6588   8.951  10.846   4.777  0.7004  1.1139 -0.7430
  773MOL0     C 6589   8.075  11.071   4.120 -0.4826  0.2960 -0.7386
  773MOL0     C 6590   7.938  11.123   4.125  0.4029 -0.9375  0.4374
  773MOL0     C 6591   7.575  11.365   4.152 -0.4199  0.2605 -0.3752
  773MOL0     C 6592   7.526  11.365   4.018  1.1305 -0.6076  0.3003
  773MOL0     C 6593   7.406  11.415   3.972  0.0264  0.1555 -0.0593
  773MOL0     C 6594   7.315  11.468   4.069 -0.0216  0.6493  0.4693
  773MOL0     O 6595   7.185  11.500   4.039  0.2817  0.0304  0.5951
  773MOL0     C 6596   7.176  11.645   4.013  0.1395 -0.5002 -0.8295
  773MOL0     C 6597   7.220  11.688   3.870 -0.0085 -0.7369 -0.0098
  773MOL0     C 6598   7.212  11.841   3.840 -0.1181  0.3169  0.1435
  773MOL0     C 6599   7.250  11.944   3.956 -0.3740 -0.2343 -0.3528
  773MOL0     C 6600   7.274  12.082   3.896 -0.6322 -0.3148 -1.2506
  773MOL0     C 6601   7.312  12.178   3.837  0.7609 -0.8046 -0.0410
  773MOL0     C 6602   7.361  11.465   4.201 -1.0696 -0.4974 -0.2173
  773MOL0     C 6603   7.486  11.419   4.244 -0.2255 -0.3953 -0.8083
  773MOL0     C 6604   7.514  11.424   4.389  0.4673  0.4249 -0.7780
  773MOL0     H 6605   8.039  11.441   4.052 -0.6626 -1.1027  0.6051
  773MOL0     H 6606   8.263  11.343   4.056  2.1557 -1.5937  2.2628
  773MOL0     H 6607   8.438  11.032   4.211 -0.0269 -0.4041 -0.1067
  773MOL0     H 6608   8.401  11.199   4.193  1.5889 -0.4688  1.0425
  773MOL0     H 6609   8.533  11.042   3.962 -1.4712 -0.6728  0.4224
  773MOL0     H 6610   8.508  11.210   3.983 -1.6654 -2.0349 -2.0565
  773MOL0     H 6611   8.729  11.182   4.051 -0.6649 -0.2136 -0.9019
  773MOL0     H 6612   8.661  11.196   4.211 -0.6153  1.0282 -0.2936
  773MOL0     H 6613   8.628  10.914   4.193 -0.2452 -0.6096 -1.5839
  773MOL0     H 6614   8.750  10.926   4.072  0.6232 -0.7743  0.8084
  773MOL0     H 6615   8.768  11.046   4.345 -0.1584  0.4377 -0.6295
  773MOL0     H 6616   8.892  11.069   4.234  0.3202 -0.0511 -2.2812
  773MOL0     H 6617   8.795  10.791   4.336  0.5730  1.2646  2.4850
  773MOL0     H 6618   8.944  10.823   4.229  0.7855  4.3456 -1.8265
  773MOL0     H 6619   9.023  10.970   4.423 -0.1626  0.9959  2.6141
  773MOL0     H 6620   9.013  10.791   4.447 -2.5156 -2.7505 -1.8748
  773MOL0     H 6621   8.800  10.981   4.542 -0.0335 -0.4804  0.0408
  773MOL0     H 6622   8.811  10.800   4.585  1.1954 -1.3514 -0.5523
  773MOL0     H 6623   9.033  11.128   4.620 -0.3301  0.8874  1.5830
  773MOL0     H 6624   9.253  11.154   4.786  0.9119 -0.8171 -0.3702
  773MOL0     H 6625   9.258  11.035   4.927  1.7990  3.5900  2.1875
  773MOL0     H 6626   9.162  11.312   4.945  2.9105 -0.4493  0.9858
  773MOL0     H 6627   9.021  11.217   4.917  1.1648 -1.4348 -1.8629
  773MOL0     H 6628   9.069  11.056   5.102 -0.6666  0.7384  0.8870
  773MOL0     H 6629   9.216  11.151   5.135  0.4763  0.2896 -0.7078
  773MOL0     H 6630   8.925  11.261   5.126 -1.0045  1.8731  1.1559
  773MOL0     H 6631   9.008  11.193   5.274  1.3936 -2.0710 -1.0481
  773MOL0     H 6632   9.111  11.617   5.213  0.8576  1.6144  1.7261
  773MOL0     H 6633   8.972  11.911   5.388 -4.9409  3.2507 -1.9538
  773MOL0     H 6634   8.937  11.913   5.223  0.1161  0.8003  0.1865
  773MOL0     H 6635   9.089  11.861   5.254 -1.7618  3.7439 -2.9280
  773MOL0     H 6636   8.651  12.036   5.185 -0.8612  1.0101 -0.7992
  773MOL0     H 6637   8.481  12.205   5.176 -0.2880  0.4352  0.5065
  773MOL0     H 6638   8.224  12.273   5.517  0.9612  3.2336 -0.3831
  773MOL0     H 6639   8.151  12.361   5.379 -0.6194 -0.8733 -3.1882
  773MOL0     H 6640   8.091  12.071   5.447  1.0285 -0.7677 -3.1730
  773MOL0     H 6641   7.976  12.206   5.469  0.0484  0.4163  0.2468
  773MOL0     H 6642   8.091  12.132   5.196 -1.2106  1.3195 -1.0446
  773MOL0     H 6643   7.974  12.256   5.230 -0.9243 -0.8646  1.1082
  773MOL0     H 6644   7.841  12.043   5.352 -0.4665  0.2920  0.4175
  773MOL0     H 6645   7.947  11.954   5.232  1.3848  0.6268  2.1729
  773MOL0     H 6646   7.795  12.188   5.153 -2.5661 -0.1008  1.1917
  773MOL0     H 6647   7.827  12.055   5.044  3.7343 -0.0341  1.2731
  773MOL0     H 6648   7.592  12.069   5.087  1.1519 -0.3625 -0.1298
  773MOL0     H 6649   7.622  12.013   5.259  0.8101 -1.3508  0.7303
  773MOL0     H 6650   7.743  11.825   5.154  1.9562  2.9739  2.9407
  773MOL0     H 6651   7.681  11.889   4.995 -2.7431  1.6547  0.0745
  773MOL0     H 6652   7.527  11.725   5.064  1.1599 -1.1305  0.4399
  773MOL0     H 6653   7.458  11.889   5.113  1.8700  1.1414 -3.2299
  773MOL0     H 6654   8.345  12.080   5.571 -0.4245  1.4898 -0.7151
  773MOL0     H 6655   8.524  11.919   5.585 -1.6702 -0.1581  0.9399
  773MOL0     H 6656   8.672  11.502   5.396 -0.8576  2.1594 -2.9739
  773MOL0     H 6657   8.831  11.325   5.314  0.0792 -0.3408 -1.9019
  773MOL0     H 6658   8.084  10.964   4.106  1.7869  0.7999 -4.4590
  773MOL0     H 6659   7.856  11.054   4.142  1.3395 -2.1730  0.0929
  773MOL0     H 6660   7.577  11.310   3.939 -0.9689  1.9334 -3.1116
  773MOL0     H 6661   7.383  11.401   3.867 -2.3911  3.2480 -0.0929
  773MOL0     H 6662   7.075  11.686   4.021  0.2572  0.0951 -2.2259
  773MOL0     H 6663   7.241  11.697   4.084 -0.4419 -1.2351  0.2718
  773MOL0     H 6664   7.156  11.634   3.799 -1.7368 -0.8471  1.5318
  773MOL0     H 6665   7.322  11.653   3.853  0.8635  1.5908  0.0457
  773MOL0     H 6666   7.281  11.860   3.757 -2.2125  1.1031 -1.5397
  773MOL0     H 6667   7.111  11.867   3.805 -1.2306  0.3918  3.1304
  773MOL0     H 6668   7.351  11.915   3.987  0.3842  2.9078  0.5157
  773MOL0     H 6669   7.194  11.939   4.050  0.6271  2.1118  0.4392
  773MOL0     H 6670   7.356  12.272   3.808 -2.2149  1.4327  2.0857
  773MOL0     H 6671   7.284  11.488   4.273 -1.1276  0.7050 -0.6304
  773MOL0     H 6672   7.612  11.466   4.411  0.4870 -0.2928  0.6847
  773MOL0     H 6673   7.458  11.510   4.428  2.2568  3.6372 -4.5898
  773MOL0     H 6674   7.499  11.329   4.441  1.2026  1.0547  0.6563
  774MOL0     O 6675   8.559   3.946   0.558  1.2022  0.3227  0.2866
  774MOL0     C 6676   8.608   3.863   0.635  0.0418 -0.8703  0.1551
  774MOL0     O 6677   8.741   3.825   0.642 -0.0133  0.2294  0.3742
  774MOL0     C 6678   8.842   3.892   0.575 -0.6941  0.5401  0.2705
  774MOL0     C 6679   8.831   4.011   0.504 -0.3468  0.2683  0.5867
  774MOL0     C 6680   8.946   4.066   0.445 -0.2618  0.1849 -0.3404
  774MOL0     C 6681   9.074   4.000   0.455  0.4758 -0.3845  0.0512
  774MOL0     O 6682   9.185   4.037   0.379  0.8113 -0.3021 -0.5869
  774MOL0     C 6683   9.184   4.143   0.274  0.3562 -0.6623 -0.6255
  774MOL0     C 6684   9.308   4.166   0.185 -0.0388  0.5591 -0.1039
  774MOL0     C 6685   9.428   4.200   0.273 -0.0387  0.5864 -0.4621
  774MOL0     C 6686   9.558   4.220   0.196 -0.4479  0.3826  0.9070
  774MOL0     C 6687   9.672   4.267   0.280 -0.4326 -0.0837  0.0366
  774MOL0     C 6688   9.715   4.179   0.399  0.0482  0.2666  0.0945
  774MOL0     C 6689   9.789   4.049   0.356  1.1031 -0.4038  0.3211
  774MOL0     C 6690   9.826   3.955   0.465  0.4925 -0.4515 -0.5004
  774MOL0     N 6691   9.950   3.975   0.526  0.1894  0.2306 -1.0356
  774MOL0     C 6692   9.979   4.065   0.621  0.5746  0.6501 -1.5944
  774MOL0     C 6693  10.110   4.056   0.652  0.2424 -0.1050 -0.0833
  774MOL0     C 6694  10.179   4.144   0.759 -0.1920 -0.3947  0.3200
  774MOL0     C 6695  10.246   4.073   0.875 -0.8957 -0.3026 -0.3824
  774MOL0     C 6696  10.379   4.014   0.822 -1.4448 -0.0742 -0.1748
  774MOL0     C 6697  10.465   3.940   0.932 -0.3203  0.0245  0.0750
  774MOL0     O 6698  10.480   4.035   1.038  0.0438 -0.2195  0.3733
  774MOL0     C 6699  10.597   4.020   1.110  1.5026  0.6748  0.3003
  774MOL0     C 6700  10.677   3.906   1.115  1.0316  0.2775  0.4832
  774MOL0     C 6701  10.810   3.926   1.176 -0.6743  0.1723  0.0231
  774MOL0     C 6702  10.907   3.808   1.178  0.1294  0.2618  0.6207
  774MOL0     C 6703  10.857   4.053   1.228  0.4136 -0.3354 -0.1781
  774MOL0     C 6704  10.980   4.082   1.302 -0.1334  1.1140 -0.4124
  774MOL0     O 6705  10.972   4.174   1.397 -0.3562  0.1327 -0.3327
  774MOL0     C 6706  11.091   4.195   1.459  0.7187 -0.1483  0.8655
  774MOL0     C 6707  11.122   4.129   1.576  0.0172  0.1987  0.1446
  774MOL0     C 6708  11.243   4.155   1.644 -0.8151 -0.2411  0.2248
  774MOL0     C 6709  11.343   4.234   1.588 -0.1466  0.5233  0.0337
  774MOL0     O 6710  11.471   4.253   1.636 -0.0559 -0.4737 -0.4293
  774MOL0     C 6711  11.551   4.140   1.687  0.1141 -0.0069 -0.3814
  774MOL0     C 6712  11.673   4.200   1.762 -0.7096 -0.5626 -0.0922
  774MOL0     C 6713  11.646   4.312   1.851  0.0939  0.3363  0.1759
  774MOL0     C 6714  11.777   4.378   1.892 -0.0163  1.1976  0.7426
  774MOL0     C 6715  11.774   4.498   1.986 -0.9424 -0.5896 -0.5890
  774MOL0     C 6716  11.701   4.459   2.120  0.1059  0.6683 -0.5410
  774MOL0     C 6717  11.681   4.587   2.210 -0.1531 -0.0275 -0.1917
  774MOL0     C 6718  11.815   4.639   2.274  0.4635 -0.3125  0.5670
  774MOL0    Cl 6719  11.789   4.793   2.347  0.5452 -0.4125  0.1113
  774MOL0     C 6720  11.314   4.301   1.472  0.0753 -0.5827  0.1583
  774MOL0     C 6721  11.185   4.288   1.408  0.0467  0.4105  0.4221
  774MOL0     O 6722  11.076   4.004   1.291 -0.0766  0.4669  0.5721
  774MOL0     C 6723  10.760   4.156   1.229 -0.2440 -0.1963  0.5724
  774MOL0     C 6724  10.632   4.140   1.175  0.4103  0.3792  0.3392
  774MOL0     N 6725  10.155   3.939   0.597  0.0711  0.9450 -0.2692
  774MOL0     N 6726  10.059   3.896   0.513  0.2114 -0.4157 -0.6735
  774MOL0     C 6727   9.081   3.887   0.533  0.4818 -0.3245  1.1520
  774MOL0     C 6728   8.970   3.832   0.595  0.4230  0.0298  0.6206
  774MOL0     C 6729   8.526   3.818   0.755 -0.1626  0.8074  0.5825
  774MOL0     C 6730   8.503   3.918   0.849  0.9489 -0.3620  0.6858
  774MOL0     C 6731   8.475   3.888   0.984 -0.1692 -0.3002  0.6408
  774MOL0     C 6732   8.443   3.759   1.018  0.3439 -0.1179  0.6901
  774MOL0     O 6733   8.431   3.736   1.152  0.1402  0.8388 -0.2408
  774MOL0     C 6734   8.499   3.611   1.204 -0.6710 -0.5818 -0.4650
  774MOL0     C 6735   8.574   3.645   1.331  0.5733 -0.8178  0.7339
  774MOL0     C 6736   8.480   3.678   1.444 -0.1140 -0.4819  0.8147
  774MOL0     C 6737   8.571   3.719   1.559  0.1924 -0.2271  0.4361
  774MOL0     C 6738   8.505   3.767   1.680 -0.1675 -0.5095  0.2687
  774MOL0     C 6739   8.439   3.805   1.775 -0.8138 -0.8837 -0.0540
  774MOL0     C 6740   8.437   3.654   0.921  0.0800 -0.1028  0.6173
  774MOL0     C 6741   8.485   3.686   0.789  0.7694 -0.4114  0.4505
  774MOL0     C 6742   8.507   3.566   0.696  0.0756  0.4828  0.9976
  774MOL0     H 6743   8.735   4.060   0.489 -0.5646 -0.2377  0.2783
  774MOL0     H 6744   8.931   4.156   0.386  0.4700  1.7176  1.7105
  774MOL0     H 6745   9.172   4.244   0.314  0.0850 -0.3806 -1.3899
  774MOL0     H 6746   9.089   4.127   0.221 -1.3401  2.6191  1.1362
  774MOL0     H 6747   9.327   4.077   0.123  1.1672  0.7264 -0.0109
  774MOL0     H 6748   9.291   4.256   0.126  0.8657  1.4112  0.8797
  774MOL0     H 6749   9.400   4.278   0.344  1.1621  3.9497 -3.4128
  774MOL0     H 6750   9.442   4.118   0.344 -1.3852  0.6626 -0.0809
  774MOL0     H 6751   9.590   4.129   0.145 -3.1059 -0.7342  1.0715
  774MOL0     H 6752   9.548   4.290   0.113 -3.3948 -0.0244  0.7993
  774MOL0     H 6753   9.643   4.368   0.312 -1.9923  0.1635 -1.9124
  774MOL0     H 6754   9.757   4.285   0.214 -0.3640 -1.4851 -0.2787
  774MOL0     H 6755   9.780   4.226   0.474  0.1750 -0.7689  0.6552
  774MOL0     H 6756   9.629   4.149   0.460  0.8859 -2.3195  0.1125
  774MOL0     H 6757   9.871   4.081   0.291 -1.2635 -0.4402 -2.9551
  774MOL0     H 6758   9.724   3.989   0.292 -1.0653  0.9346  1.1793
  774MOL0     H 6759   9.742   3.946   0.534  0.6299  1.6350 -0.0004
  774MOL0     H 6760   9.825   3.857   0.416 -0.2634 -1.7981  2.0366
  774MOL0     H 6761   9.912   4.133   0.673  0.9345 -0.1650  0.0192
  774MOL0     H 6762  10.103   4.212   0.798 -1.0173 -0.9357 -0.3238
  774MOL0     H 6763  10.259   4.207   0.718 -0.9270  0.1174 -0.3656
  774MOL0     H 6764  10.263   4.147   0.955 -1.6368 -0.5277 -0.0125
  774MOL0     H 6765  10.182   3.991   0.907 -0.3731 -1.3696 -1.9820
  774MOL0     H 6766  10.359   3.934   0.750 -0.2343  0.1616 -0.7830
  774MOL0     H 6767  10.437   4.093   0.774 -1.8856  0.3650  0.0001
  774MOL0     H 6768  10.420   3.847   0.970  1.3601 -1.1056 -0.6125
  774MOL0     H 6769  10.557   3.911   0.882 -0.3085 -0.7397  0.5220
  774MOL0     H 6770  10.635   3.809   1.090  0.3373  0.8104 -0.4662
  774MOL0     H 6771  10.853   3.715   1.161  1.2481 -0.5819  1.5109
  774MOL0     H 6772  10.952   3.792   1.277 -0.5269  1.6905  1.1873
  774MOL0     H 6773  10.989   3.831   1.109  0.7603  0.1468  1.3151
  774MOL0     H 6774  11.041   4.066   1.610 -0.3382 -0.0978 -1.1981
  774MOL0     H 6775  11.258   4.102   1.737 -0.9253 -0.7708 -0.0531
  774MOL0     H 6776  11.494   4.078   1.757 -2.6164  0.5542 -1.9788
  774MOL0     H 6777  11.575   4.066   1.610 -0.0541  0.3010 -0.7334
  774MOL0     H 6778  11.733   4.121   1.810  0.0140  0.1205  0.1486
  774MOL0     H 6779  11.737   4.229   1.678 -1.6222 -0.1117 -0.6384
  774MOL0     H 6780  11.585   4.279   1.936 -1.3654 -0.5603 -1.1433
  774MOL0     H 6781  11.576   4.386   1.811  1.9982  1.0097 -2.1253
  774MOL0     H 6782  11.827   4.403   1.799 -3.3520  0.7831 -1.3265
  774MOL0     H 6783  11.840   4.307   1.946  0.8560  0.3604 -1.3098
  774MOL0     H 6784  11.876   4.534   2.004 -1.8483  1.8977  0.0066
  774MOL0     H 6785  11.728   4.585   1.939  2.0639  1.3044 -0.2779
  774MOL0     H 6786  11.754   4.390   2.187 -1.3707 -1.0268 -1.0472
  774MOL0     H 6787  11.606   4.408   2.105 -0.2518  1.5506 -1.3374
  774MOL0     H 6788  11.606   4.564   2.286  0.9547  3.2343  2.1057
  774MOL0     H 6789  11.632   4.659   2.143 -1.7296 -0.5274  0.3777
  774MOL0     H 6790  11.892   4.646   2.196  2.3619  0.6480  2.4193
  774MOL0     H 6791  11.848   4.559   2.342 -0.4923 -1.2435 -0.0434
  774MOL0     H 6792  11.394   4.356   1.423  0.8493 -1.1114  0.8074
  774MOL0     H 6793  11.162   4.339   1.315 -0.1310  0.7651  0.6552
  774MOL0     H 6794  10.786   4.248   1.279 -0.7240 -0.7916  1.9605
  774MOL0     H 6795  10.558   4.219   1.165  0.0727  0.0491  0.2077
  774MOL0     H 6796   9.172   3.828   0.540  0.5451 -0.3098  0.5121
  774MOL0     H 6797   8.984   3.741   0.652 -0.9551 -0.5252  0.1003
  774MOL0     H 6798   8.523   4.020   0.819 -1.1782 -0.3058 -0.8230
  774MOL0     H 6799   8.488   3.960   1.064  2.7010 -2.2821  2.0859
  774MOL0     H 6800   8.417   3.540   1.223  0.4714 -1.4528  1.6466
  774MOL0     H 6801   8.571   3.568   1.134  0.2786  0.3478 -0.0762
  774MOL0     H 6802   8.635   3.733   1.307 -1.8728 -0.1730 -4.3958
  774MOL0     H 6803   8.638   3.564   1.367  0.3898 -0.9540  0.7584
  774MOL0     H 6804   8.417   3.766   1.424  2.3200  1.8364  2.6688
  774MOL0     H 6805   8.418   3.590   1.465 -0.5278 -0.5102 -0.3901
  774MOL0     H 6806   8.636   3.799   1.523 -1.0228 -0.1540 -1.7856
  774MOL0     H 6807   8.642   3.639   1.582  0.4818  0.9320  4.1329
  774MOL0     H 6808   8.378   3.850   1.851 -0.6745 -0.8551  0.0426
  774MOL0     H 6809   8.405   3.554   0.946 -2.3607  0.6490  0.6892
  774MOL0     H 6810   8.466   3.599   0.600 -1.9172  1.0596  1.9995
  774MOL0     H 6811   8.612   3.533   0.690 -0.5935 -1.9811  1.7657
  774MOL0     H 6812   8.451   3.477   0.724  1.0326 -0.8858 -1.1345
  775MOL0     O 6813   3.553   7.909   0.883 -0.0389  0.5931  0.4262
  775MOL0     C 6814   3.637   7.845   0.956 -1.1470 -0.2327  0.6073
  775MOL0     O 6815   3.769   7.832   0.932 -0.5906  0.0686 -0.9224
  775MOL0     C 6816   3.818   7.853   0.808  0.4696  0.5076 -0.1394
  775MOL0     C 6817   3.941   7.903   0.806  0.3406  0.3473 -0.3234
  775MOL0     C 6818   4.012   7.928   0.684  0.0074  0.3156 -0.5163
  775MOL0     C 6819   3.940   7.900   0.565 -0.6239  0.0605  1.3895
  775MOL0     O 6820   4.006   7.925   0.450  1.0441  0.3007  0.5594
  775MOL0     C 6821   3.971   7.872   0.320 -0.5209  0.1613  0.3715
  775MOL0     C 6822   4.071   7.765   0.271 -0.8315  0.9152  1.0940
  775MOL0     C 6823   4.038   7.699   0.141 -0.8326  0.7600 -0.0295
  775MOL0     C 6824   4.162   7.615   0.084  0.3975  0.3601 -0.3767
  775MOL0     C 6825   4.123   7.547  -0.055  0.6369 -0.3240 -0.4862
  775MOL0     C 6826   4.229   7.433  -0.104  0.1277  0.2435 -0.2364
  775MOL0     C 6827   4.204   7.365  -0.236 -0.1704 -0.3922  0.0576
  775MOL0     C 6828   4.074   7.287  -0.240  0.0295 -0.8594 -0.5016
  775MOL0     N 6829   4.053   7.218  -0.370  0.7856  0.4512  0.3473
  775MOL0     C 6830   4.016   7.283  -0.493 -1.1773 -0.2350 -0.6016
  775MOL0     C 6831   4.040   7.186  -0.586  0.6599  0.2734  0.3586
  775MOL0     C 6832   4.008   7.209  -0.734  0.0407 -0.4036 -0.8823
  775MOL0     C 6833   4.121   7.221  -0.826 -0.2605  0.2636 -0.0557
  775MOL0     C 6834   4.147   7.358  -0.885  0.5588 -0.4784 -0.2301
  775MOL0     C 6835   4.269   7.353  -0.964  0.7806  0.9817  0.5150
  775MOL0     O 6836   4.273   7.466  -1.048 -0.2260 -0.2628  0.1886
  775MOL0     C 6837   4.390   7.513  -1.073 -1.5059  1.0258 -0.0459
  775MOL0     C 6838   4.487   7.447  -1.148 -0.5606  0.6608 -0.3619
  775MOL0     C 6839   4.619   7.489  -1.163 -0.7780  0.2654  0.9977
  775MOL0     C 6840   4.710   7.404  -1.257  0.6829 -0.2449 -0.1520
  775MOL0     C 6841   4.656   7.616  -1.115  0.2617 -0.6363  1.1029
  775MOL0     C 6842   4.782   7.691  -1.136 -0.5933 -0.4987 -0.0099
  775MOL0     O 6843   4.793   7.817  -1.070  0.5056 -0.3907  0.0674
  775MOL0     C 6844   4.896   7.908  -1.068 -1.1459  0.2809  0.4112
  775MOL0     C 6845   5.033   7.862  -1.080  0.0842  0.2083 -0.7773
  775MOL0     C 6846   5.133   7.957  -1.099 -0.5438 -0.0777 -0.2348
  775MOL0     C 6847   5.104   8.095  -1.097  0.2142  1.0012 -0.8131
  775MOL0     O 6848   5.198   8.197  -1.111  0.0799 -0.4614  0.2335
  775MOL0     C 6849   5.338   8.176  -1.117 -0.0826  0.6179 -0.3155
  775MOL0     C 6850   5.409   8.128  -1.244  0.6564 -1.2287 -1.1089
  775MOL0     C 6851   5.556   8.197  -1.245 -0.4318  0.2413  0.7653
  775MOL0     C 6852   5.616   8.173  -1.386  0.4376 -0.0260  1.0123
  775MOL0     C 6853   5.766   8.208  -1.384 -0.5349  0.9819 -0.3394
  775MOL0     C 6854   5.802   8.337  -1.306 -0.0412  0.0428 -0.5937
  775MOL0     C 6855   5.958   8.359  -1.314 -0.3815 -0.1083  0.8829
  775MOL0     C 6856   6.013   8.432  -1.196  0.9489  0.0852 -0.4361
  775MOL0    Cl 6857   5.936   8.598  -1.177  0.2135  0.0690 -0.1331
  775MOL0     C 6858   4.975   8.133  -1.078  0.0955  0.2562 -0.4258
  775MOL0     C 6859   4.871   8.040  -1.060 -0.2821 -0.2136 -0.3736
  775MOL0     O 6860   4.870   7.645  -1.204  0.7195 -0.6600  0.3322
  775MOL0     C 6861   4.550   7.686  -1.036 -1.3585 -0.4776  0.4244
  775MOL0     C 6862   4.426   7.631  -1.014  0.3107  0.3012 -0.4916
  775MOL0     N 6863   4.092   7.071  -0.530  0.3210  0.3855 -0.3963
  775MOL0     N 6864   4.103   7.092  -0.401  0.6334  0.0192  0.0272
  775MOL0     C 6865   3.812   7.844   0.568  0.4351 -0.4377  0.4449
  775MOL0     C 6866   3.753   7.820   0.693 -0.0237 -0.3749  0.7257
  775MOL0     C 6867   3.578   7.774   1.081  0.0526  0.0879 -0.1320
  775MOL0     C 6868   3.443   7.808   1.123  0.0950 -0.7510  0.1893
  775MOL0     C 6869   3.394   7.779   1.250  0.4409 -0.2711 -0.0767
  775MOL0     C 6870   3.476   7.721   1.347  0.5529  1.2593 -0.5722
  775MOL0     O 6871   3.436   7.676   1.469 -0.5051 -0.0139 -0.2161
  775MOL0     C 6872   3.306   7.711   1.523  0.9915  0.2397  0.3865
  775MOL0     C 6873   3.311   7.842   1.603 -0.5920 -0.4347 -1.0340
  775MOL0     C 6874   3.374   7.814   1.749  0.0222 -0.3286 -0.0286
  775MOL0     C 6875   3.370   7.940   1.835  0.3168 -0.4142 -0.6063
  775MOL0     C 6876   3.228   7.967   1.884 -0.1584 -0.1092  0.2185
  775MOL0     C 6877   3.113   8.003   1.915 -0.9610 -0.5218  0.3946
  775MOL0     C 6878   3.608   7.691   1.306 -0.0951  0.2074 -0.5611
  775MOL0     C 6879   3.654   7.703   1.174  0.2597  0.2368 -0.2695
  775MOL0     C 6880   3.793   7.646   1.153 -0.7541 -0.3117 -0.4929
  775MOL0     H 6881   4.008   7.929   0.887  1.5577 -0.0850 -1.1596
  775MOL0     H 6882   4.110   7.975   0.686  0.7326 -1.1397  1.6800
  775MOL0     H 6883   3.979   7.956   0.250  0.9115 -1.6925 -1.8567
  775MOL0     H 6884   3.869   7.833   0.306  0.5736 -2.2145 -1.8675
  775MOL0     H 6885   4.174   7.803   0.261  0.2740 -1.4625  2.5656
  775MOL0     H 6886   4.079   7.692   0.352 -0.0984 -0.0648  0.1712
  775MOL0     H 6887   3.962   7.622   0.158 -0.3253  0.4387  0.8485
  775MOL0     H 6888   3.995   7.767   0.067 -0.2881  0.6897 -0.4187
  775MOL0     H 6889   4.248   7.681   0.066  0.4332  0.3122 -0.3850
  775MOL0     H 6890   4.196   7.540   0.156 -1.6808  0.4087  0.7163
  775MOL0     H 6891   4.121   7.620  -0.136 -1.7412 -1.2136 -1.3068
  775MOL0     H 6892   4.024   7.505  -0.037 -0.3227  2.7603  2.6117
  775MOL0     H 6893   4.329   7.476  -0.113  0.2118 -0.3568 -3.1538
  775MOL0     H 6894   4.224   7.347  -0.037 -0.8414 -0.5091 -1.2284
  775MOL0     H 6895   4.290   7.301  -0.257 -0.1934 -1.5225  2.9656
  775MOL0     H 6896   4.199   7.452  -0.302  2.0725  1.2959  1.9220
  775MOL0     H 6897   4.088   7.217  -0.157  0.6293  0.3892  0.4711
  775MOL0     H 6898   3.988   7.347  -0.210  0.1433  0.4821 -2.6975
  775MOL0     H 6899   3.991   7.388  -0.499 -0.2551  0.4364  3.9928
  775MOL0     H 6900   3.940   7.295  -0.738 -0.5539 -0.9074 -1.9745
  775MOL0     H 6901   3.945   7.125  -0.764  0.1807 -0.5607 -0.7341
  775MOL0     H 6902   4.216   7.187  -0.783 -1.1438 -2.2486  0.0873
  775MOL0     H 6903   4.096   7.147  -0.903 -2.1215  0.8542 -0.0518
  775MOL0     H 6904   4.061   7.371  -0.951 -0.3039  0.2291  0.9856
  775MOL0     H 6905   4.148   7.437  -0.810  0.4563  0.6252 -1.3692
  775MOL0     H 6906   4.351   7.349  -0.892  1.3004 -0.2614 -0.1127
  775MOL0     H 6907   4.262   7.259  -1.021  3.6857  0.8452  0.2596
  775MOL0     H 6908   4.445   7.353  -1.184 -2.4622  0.0214  3.0798
  775MOL0     H 6909   4.787   7.360  -1.192  1.5547  2.3400  0.6953
  775MOL0     H 6910   4.765   7.467  -1.327  1.2096 -0.4794  0.0424
  775MOL0     H 6911   4.650   7.328  -1.308 -0.4575 -1.5554  2.8997
  775MOL0     H 6912   5.055   7.756  -1.081 -0.3787 -0.0367  2.7033
  775MOL0     H 6913   5.233   7.923  -1.122 -0.8306 -1.7967  0.8458
  775MOL0     H 6914   5.372   8.279  -1.109  1.7468 -0.0536  2.1611
  775MOL0     H 6915   5.359   8.113  -1.029  1.0816 -1.5084 -2.0151
  775MOL0     H 6916   5.424   8.019  -1.243 -0.2155 -1.3933 -3.1066
  775MOL0     H 6917   5.346   8.158  -1.328 -0.7679 -1.6402 -0.2252
  775MOL0     H 6918   5.620   8.158  -1.166 -0.4306 -0.0790  0.6084
  775MOL0     H 6919   5.549   8.303  -1.218 -0.3465  0.2226  0.8569
  775MOL0     H 6920   5.559   8.221  -1.467  1.0251  4.2290  2.8069
  775MOL0     H 6921   5.618   8.065  -1.398  1.4200 -0.0909  1.6667
  775MOL0     H 6922   5.813   8.121  -1.337  1.4739  0.4591 -3.0157
  775MOL0     H 6923   5.801   8.217  -1.488 -0.2798  1.0301 -0.2506
  775MOL0     H 6924   5.771   8.333  -1.201  1.1703  0.5221 -0.1941
  775MOL0     H 6925   5.742   8.415  -1.354  0.0788 -0.1482 -1.0513
  775MOL0     H 6926   5.983   8.427  -1.396  0.0181 -0.2938  0.8520
  775MOL0     H 6927   6.008   8.263  -1.324 -1.3317 -0.5787  0.5062
  775MOL0     H 6928   6.121   8.449  -1.207  0.6305  1.7304 -1.5187
  775MOL0     H 6929   5.993   8.382  -1.101  0.4512  0.4626 -0.3418
  775MOL0     H 6930   4.954   8.240  -1.080  0.4698  0.4939  2.8483
  775MOL0     H 6931   4.777   8.094  -1.056  1.0601  2.3490 -1.0276
  775MOL0     H 6932   4.564   7.781  -0.985  1.5517 -0.6518  0.0895
  775MOL0     H 6933   4.354   7.684  -0.952  0.2417 -1.4494  0.9953
  775MOL0     H 6934   3.756   7.824   0.477 -0.9393 -0.8039  1.3498
  775MOL0     H 6935   3.656   7.772   0.682  0.7368 -1.7786 -0.3083
  775MOL0     H 6936   3.385   7.864   1.051  1.8145  0.0826 -0.5851
  775MOL0     H 6937   3.289   7.796   1.273 -0.0324 -1.9823 -0.7616
  775MOL0     H 6938   3.230   7.708   1.445 -0.9385 -5.5381  2.0310
  775MOL0     H 6939   3.276   7.632   1.592 -0.2995 -1.4210 -1.9587
  775MOL0     H 6940   3.217   7.895   1.617  0.2341  1.4593 -2.2256
  775MOL0     H 6941   3.367   7.921   1.552  2.3584 -0.7897  1.3608
  775MOL0     H 6942   3.335   7.728   1.804  1.2827 -1.0137 -0.1725
  775MOL0     H 6943   3.482   7.802   1.736  1.0749  4.7849  1.5543
  775MOL0     H 6944   3.404   8.029   1.781  2.2926  0.9767  2.6280
  775MOL0     H 6945   3.429   7.931   1.927 -1.3936  2.8475  1.0141
  775MOL0     H 6946   3.018   8.045   1.941 -0.4493  1.3504 -0.5629
  775MOL0     H 6947   3.673   7.641   1.377  0.0510 -1.0561 -1.5398
  775MOL0     H 6948   3.818   7.568   1.226 -1.2053 -0.6803 -0.7251
  775MOL0     H 6949   3.808   7.596   1.057  0.0866  0.0052 -0.5336
  775MOL0     H 6950   3.869   7.723   1.171 -0.9573  0.7014 -3.4627
  776MOL0     O 6951   4.747   4.320   2.842 -0.1955  0.1877  0.0122
  776MOL0     C 6952   4.645   4.321   2.772 -0.0476  0.3230 -0.3712
  776MOL0     O 6953   4.587   4.209   2.716 -0.3491 -0.6189  0.1021
  776MOL0     C 6954   4.643   4.081   2.730  0.1301  0.5390  0.5250
  776MOL0     C 6955   4.681   4.028   2.852  0.1151 -0.1133 -0.2494
  776MOL0     C 6956   4.738   3.896   2.865  0.0776 -0.0366 -0.2024
  776MOL0     C 6957   4.766   3.824   2.750  0.2931  0.6163  0.6844
  776MOL0     O 6958   4.842   3.707   2.776 -0.3952  0.1244 -0.1161
  776MOL0     C 6959   4.832   3.596   2.693 -0.3319  0.2731 -0.1658
  776MOL0     C 6960   4.912   3.476   2.753 -0.1604 -0.3393 -0.2208
  776MOL0     C 6961   4.879   3.437   2.900 -0.4701 -0.0445 -0.4031
  776MOL0     C 6962   4.738   3.384   2.918  0.2336 -1.0547 -1.3511
  776MOL0     C 6963   4.724   3.308   3.057  0.4023  0.3175 -0.3518
  776MOL0     C 6964   4.594   3.230   3.056 -0.0573 -0.0464  0.5524
  776MOL0     C 6965   4.588   3.161   3.193 -0.0541 -0.6475 -0.1547
  776MOL0     C 6966   4.640   3.018   3.186  0.7423  0.0281  0.4179
  776MOL0     N 6967   4.620   2.928   3.297 -0.8592 -0.4365 -0.6462
  776MOL0     C 6968   4.660   2.957   3.427 -0.5594 -0.7183  0.8754
  776MOL0     C 6969   4.659   2.840   3.499  0.0695 -0.3284 -0.3978
  776MOL0     C 6970   4.679   2.840   3.653 -0.1940 -0.2797  1.0397
  776MOL0     C 6971   4.586   2.928   3.731  0.3889  0.4720 -0.9898
  776MOL0     C 6972   4.431   2.910   3.704  0.5429 -0.2872  0.2426
  776MOL0     C 6973   4.356   3.009   3.798  0.5257  0.0877  1.4312
  776MOL0     O 6974   4.380   2.984   3.936 -0.3017  0.5930 -0.2117
  776MOL0     C 6975   4.305   2.899   4.016  0.5028 -0.1512 -0.9501
  776MOL0     C 6976   4.195   2.829   3.974 -0.2916  0.7191  0.2543
  776MOL0     C 6977   4.128   2.735   4.055  0.1981 -1.0727 -0.0122
  776MOL0     C 6978   3.991   2.677   4.005 -0.0465 -0.9468 -0.4618
  776MOL0     C 6979   4.170   2.717   4.192 -0.3083  0.3331  0.3011
  776MOL0     C 6980   4.106   2.619   4.279  0.2374  0.6479 -0.2652
  776MOL0     O 6981   4.036   2.511   4.229 -0.6106 -0.4276  0.2217
  776MOL0     C 6982   3.956   2.426   4.302 -0.1724  0.1743  0.0966
  776MOL0     C 6983   3.889   2.464   4.424 -0.6507  0.1605 -0.1002
  776MOL0     C 6984   3.807   2.385   4.503  0.3819  1.0977 -0.1418
  776MOL0     C 6985   3.792   2.246   4.462  0.3804  0.2184 -0.5781
  776MOL0     O 6986   3.717   2.154   4.524 -0.0559  0.7777  0.2187
  776MOL0     C 6987   3.675   2.172   4.655 -0.7232 -0.0322  0.2353
  776MOL0     C 6988   3.564   2.099   4.712  0.9796  0.4014  0.1993
  776MOL0     C 6989   3.433   2.142   4.644  0.4572 -0.1190 -0.7593
  776MOL0     C 6990   3.311   2.077   4.704  0.3764  0.8133 -0.2306
  776MOL0     C 6991   3.179   2.109   4.639 -0.2599 -0.3738  0.5239
  776MOL0     C 6992   3.081   1.992   4.657  0.8743 -0.1566  0.2250
  776MOL0     C 6993   2.934   2.034   4.648  0.7912  0.9181  0.5430
  776MOL0     C 6994   2.849   1.911   4.676 -0.3628 -0.1870  0.3182
  776MOL0    Cl 6995   2.680   1.955   4.653 -0.0923  0.4114  0.3774
  776MOL0     C 6996   3.847   2.210   4.337  0.4750  0.0032  0.2339
  776MOL0     C 6997   3.917   2.297   4.252 -0.2736 -0.5106  0.7043
  776MOL0     O 6998   4.120   2.636   4.402  0.4204  0.4734  0.2174
  776MOL0     C 6999   4.276   2.791   4.235 -0.8184  0.6506  0.2534
  776MOL0     C 7000   4.343   2.884   4.159 -0.0471 -0.1704  1.0948
  776MOL0     N 7001   4.644   2.734   3.414 -0.0531  0.5295 -0.4303
  776MOL0     N 7002   4.614   2.791   3.296  0.4899 -0.0221 -0.2417
  776MOL0     C 7003   4.736   3.877   2.625 -0.2714 -0.5390  0.3184
  776MOL0     C 7004   4.672   4.002   2.620  0.4042  0.0661  0.1992
  776MOL0     C 7005   4.599   4.447   2.714 -0.7302 -0.2538 -0.0076
  776MOL0     C 7006   4.495   4.448   2.613  0.4438  0.5980 -0.4332
  776MOL0     C 7007   4.445   4.559   2.548  0.2021  0.8606 -0.0819
  776MOL0     C 7008   4.495   4.685   2.580 -0.5741 -0.1569  0.7847
  776MOL0     O 7009   4.471   4.793   2.507 -0.1658 -0.8610 -0.1990
  776MOL0     C 7010   4.337   4.807   2.453  0.2928 -0.1953 -0.2050
  776MOL0     C 7011   4.319   4.923   2.355 -0.0688  0.5686 -0.7193
  776MOL0     C 7012   4.175   4.958   2.334 -0.0678  0.3864  0.6102
  776MOL0     C 7013   4.160   5.091   2.258  0.1132  0.1322  0.6697
  776MOL0     C 7014   4.035   5.111   2.178  1.2307  0.3657  0.6500
  776MOL0     C 7015   3.934   5.098   2.113 -0.3526 -0.2780  1.5701
  776MOL0     C 7016   4.579   4.699   2.691 -0.5795  0.3200 -0.3134
  776MOL0     C 7017   4.628   4.579   2.757 -0.2227 -0.3182 -0.3827
  776MOL0     C 7018   4.699   4.606   2.887 -0.0749 -0.2058  0.2046
  776MOL0     H 7019   4.646   4.090   2.934  0.0034  0.4365 -0.7043
  776MOL0     H 7020   4.771   3.857   2.961  1.9082 -0.4716 -0.9646
  776MOL0     H 7021   4.885   3.612   2.598 -0.3779  1.7992  0.0312
  776MOL0     H 7022   4.729   3.565   2.675  0.4386 -2.4126 -0.3067
  776MOL0     H 7023   4.904   3.387   2.690 -0.8802  0.4254 -1.2210
  776MOL0     H 7024   5.014   3.515   2.757  0.3063 -1.6123  1.8031
  776MOL0     H 7025   4.956   3.370   2.939  0.3427  0.8422 -0.4385
  776MOL0     H 7026   4.893   3.523   2.967 -1.8103 -1.0629  1.2425
  776MOL0     H 7027   4.671   3.470   2.922 -0.3261 -1.3307 -3.6641
  776MOL0     H 7028   4.704   3.318   2.838 -2.0287 -1.4060 -0.1884
  776MOL0     H 7029   4.723   3.373   3.145  1.6933 -1.0387  0.7200
  776MOL0     H 7030   4.811   3.243   3.059  1.0618  1.1785 -0.4274
  776MOL0     H 7031   4.522   3.311   3.040 -0.1876 -0.1294  0.7253
  776MOL0     H 7032   4.581   3.165   2.969 -0.6574  0.2926  0.3848
  776MOL0     H 7033   4.483   3.156   3.224 -0.7404 -1.9803 -2.4653
  776MOL0     H 7034   4.652   3.201   3.272  0.1173  0.1690 -0.6857
  776MOL0     H 7035   4.577   2.975   3.107  1.4077  2.6021 -1.6064
  776MOL0     H 7036   4.745   3.018   3.156  0.4579  3.3521 -0.9038
  776MOL0     H 7037   4.680   3.060   3.452 -1.6431 -0.8098  2.2762
  776MOL0     H 7038   4.782   2.874   3.666 -0.2153  0.1733  0.0560
  776MOL0     H 7039   4.683   2.738   3.694  0.7293 -0.6699  0.0048
  776MOL0     H 7040   4.607   2.907   3.836  0.7138  2.5962 -0.5902
  776MOL0     H 7041   4.620   3.031   3.715  4.1773 -0.5578 -0.6086
  776MOL0     H 7042   4.411   2.939   3.600  1.5071  1.3558  0.4817
  776MOL0     H 7043   4.403   2.804   3.711 -1.7498 -0.0589 -3.0763
  776MOL0     H 7044   4.379   3.111   3.767 -1.5890  0.1315 -0.1820
  776MOL0     H 7045   4.250   3.007   3.772  0.8029  1.7486 -0.0213
  776MOL0     H 7046   4.168   2.840   3.869  0.6201  1.4707  0.0875
  776MOL0     H 7047   3.971   2.705   3.901  1.1856 -1.9047 -0.9815
  776MOL0     H 7048   3.917   2.720   4.072  4.9417  1.7660  4.1375
  776MOL0     H 7049   3.996   2.568   4.008  1.2609 -0.9087 -0.5353
  776MOL0     H 7050   3.906   2.562   4.469  0.3380 -0.8475  1.8638
  776MOL0     H 7051   3.773   2.426   4.598  1.9004 -0.3061  1.0638
  776MOL0     H 7052   3.763   2.163   4.720  0.1541 -0.5032 -0.9592
  776MOL0     H 7053   3.637   2.273   4.671 -1.0888 -0.3499  1.4680
  776MOL0     H 7054   3.577   1.992   4.695 -0.9255  0.4011 -1.6767
  776MOL0     H 7055   3.572   2.114   4.820 -1.7432 -2.2316  0.9056
  776MOL0     H 7056   3.452   2.127   4.537  1.6392  1.3680 -0.8075
  776MOL0     H 7057   3.420   2.249   4.665 -0.8575 -0.4397  0.1666
  776MOL0     H 7058   3.301   2.116   4.806 -0.2426 -0.0423  0.0468
  776MOL0     H 7059   3.320   1.969   4.716 -2.6010  0.2559 -2.0156
  776MOL0     H 7060   3.136   2.200   4.681 -0.7952 -0.0403 -0.7172
  776MOL0     H 7061   3.195   2.124   4.532  2.3483  0.7201  0.9975
  776MOL0     H 7062   3.099   1.950   4.756  1.3145 -3.2855 -1.0927
  776MOL0     H 7063   3.105   1.912   4.587  0.3566  0.0494 -0.1876
  776MOL0     H 7064   2.930   2.061   4.542 -1.6177 -0.0847  0.3205
  776MOL0     H 7065   2.904   2.130   4.691  1.9132  2.0820 -1.1433
  776MOL0     H 7066   2.867   1.882   4.780  2.7199 -3.6289 -0.9471
  776MOL0     H 7067   2.879   1.822   4.621 -1.5080 -0.7025  0.5232
  776MOL0     H 7068   3.825   2.118   4.283 -3.1135 -0.5276  2.2887
  776MOL0     H 7069   3.960   2.254   4.162  0.1905  0.1540  0.5983
  776MOL0     H 7070   4.316   2.769   4.333 -1.3808  0.2632  0.3978
  776MOL0     H 7071   4.434   2.936   4.188  1.3136 -0.0475 -2.7686
  776MOL0     H 7072   4.782   3.825   2.541  0.5966 -0.2786  0.6215
  776MOL0     H 7073   4.659   4.040   2.519  1.8247 -1.1252 -0.4688
  776MOL0     H 7074   4.452   4.350   2.593  0.7194  0.1039  1.1862
  776MOL0     H 7075   4.364   4.531   2.481 -1.1456  0.4626  1.6059
  776MOL0     H 7076   4.301   4.719   2.400 -0.7582  0.3831 -0.4828
  776MOL0     H 7077   4.265   4.814   2.535 -0.0011 -0.0268 -0.4739
  776MOL0     H 7078   4.367   4.896   2.260 -2.6914 -1.8944 -1.4983
  776MOL0     H 7079   4.370   5.010   2.396 -0.9908 -0.5329  3.1532
  776MOL0     H 7080   4.143   4.874   2.271  2.2132 -2.4650  2.9856
  776MOL0     H 7081   4.124   4.956   2.430  0.3357  1.5609  0.8666
  776MOL0     H 7082   4.248   5.113   2.196 -0.8177  2.0355 -0.0686
  776MOL0     H 7083   4.155   5.162   2.342  0.0407 -0.3115  1.0420
  776MOL0     H 7084   3.853   5.084   2.045  2.1685 -2.0095 -1.3501
  776MOL0     H 7085   4.597   4.795   2.738  2.3495 -1.8829  3.6543
  776MOL0     H 7086   4.657   4.539   2.963  1.2496  0.0556  1.1910
  776MOL0     H 7087   4.805   4.588   2.870  0.5521  2.6916  0.5423
  776MOL0     H 7088   4.696   4.710   2.921  1.0981 -0.5391  1.4215
  777MOL0     O 7089   7.692   6.951   1.995  0.4087 -0.2806 -0.3147
  777MOL0     C 7090   7.637   7.040   2.064 -0.4843 -0.0978 -0.0070
  777MOL0     O 7091   7.700   7.125   2.156  0.3216  0.4904 -0.6021
  777MOL0     C 7092   7.839   7.119   2.172 -0.0513 -0.1427 -0.3023
  777MOL0     C 7093   7.905   7.023   2.245 -0.1147  1.0919 -0.3692
  777MOL0     C 7094   8.042   7.022   2.262 -1.0202  0.7661 -0.0084
  777MOL0     C 7095   8.120   7.119   2.196  0.4841  0.2255 -0.3739
  777MOL0     O 7096   8.254   7.137   2.203 -0.4674 -0.3547 -1.1844
  777MOL0     C 7097   8.325   7.078   2.312  0.3352  0.1599  0.7514
  777MOL0     C 7098   8.475   7.092   2.283 -0.1828 -0.1540 -0.3272
  777MOL0     C 7099   8.546   7.010   2.389 -0.1628  0.1527 -0.6076
  777MOL0     C 7100   8.686   7.056   2.420 -0.0235 -0.0538 -0.0078
  777MOL0     C 7101   8.772   6.955   2.499 -0.0804  0.4981  0.0747
  777MOL0     C 7102   8.924   7.000   2.513  0.9831  0.3665  0.1570
  777MOL0     C 7103   8.941   7.062   2.654  0.1207  0.7145 -0.3126
  777MOL0     C 7104   9.080   7.126   2.654  1.0418 -0.0260  0.4381
  777MOL0     N 7105   9.110   7.219   2.759  0.8551 -0.6899  0.3945
  777MOL0     C 7106   9.078   7.211   2.885 -0.5942 -0.3754 -0.3251
  777MOL0     C 7107   9.104   7.330   2.945 -0.6789  0.0725  0.2404
  777MOL0     C 7108   9.052   7.359   3.090  0.0002 -0.4113 -0.1068
  777MOL0     C 7109   9.168   7.323   3.186 -0.3314  0.1537  0.0263
  777MOL0     C 7110   9.122   7.313   3.332 -0.1488 -0.5603 -0.7244
  777MOL0     C 7111   9.237   7.305   3.431 -0.1956  0.5511 -0.3609
  777MOL0     O 7112   9.302   7.177   3.414  0.0621  0.1343  0.3747
  777MOL0     C 7113   9.415   7.156   3.491 -0.5578  0.6410  0.1389
  777MOL0     C 7114   9.534   7.109   3.432  0.6625 -0.2623 -0.4290
  777MOL0     C 7115   9.658   7.096   3.498 -0.1919  0.0863 -0.3398
  777MOL0     C 7116   9.785   7.059   3.435  0.4405 -0.1741 -0.4765
  777MOL0     C 7117   9.649   7.133   3.643 -0.5391 -0.4035  0.3107
  777MOL0     C 7118   9.764   7.123   3.735 -0.6485  0.1007 -0.2306
  777MOL0     O 7119   9.888   7.142   3.692 -0.2858 -0.6605  0.0576
  777MOL0     C 7120   9.977   7.152   3.795 -0.0025  0.1992  0.0409
  777MOL0     C 7121  10.064   7.048   3.822 -0.1217  0.9411  0.1003
  777MOL0     C 7122  10.172   7.075   3.911 -0.5644 -0.8549  0.0014
  777MOL0     C 7123  10.193   7.202   3.972  0.1388  0.1036  0.3384
  777MOL0     O 7124  10.290   7.211   4.065 -0.5536  0.1774 -0.1481
  777MOL0     C 7125  10.282   7.301   4.183 -0.9587  0.0085  0.1733
  777MOL0     C 7126  10.357   7.235   4.300  0.0587  0.1551  0.4998
  777MOL0     C 7127  10.280   7.117   4.364 -0.0405 -0.0026 -0.3870
  777MOL0     C 7128  10.367   7.037   4.460 -0.4950  0.5385  0.0612
  777MOL0     C 7129  10.302   6.923   4.537 -1.1225  0.6729  0.5336
  777MOL0     C 7130  10.235   6.807   4.450 -0.9560  0.3936 -0.7987
  777MOL0     C 7131  10.330   6.740   4.350 -0.2597  0.2977  0.7449
  777MOL0     C 7132  10.252   6.621   4.294  0.0192 -0.3990 -0.5364
  777MOL0    Cl 7133  10.334   6.524   4.170 -0.4921  0.8340  0.1087
  777MOL0     C 7134  10.106   7.307   3.933  0.0183  0.0023 -0.1091
  777MOL0     C 7135   9.996   7.276   3.851 -0.3243  0.0232 -0.3798
  777MOL0     O 7136   9.733   7.084   3.846 -0.0182  0.6255  0.0989
  777MOL0     C 7137   9.531   7.181   3.704  0.7990 -0.7972  1.0878
  777MOL0     C 7138   9.414   7.196   3.625  0.2952 -0.3070 -0.1464
  777MOL0     N 7139   9.148   7.413   2.842 -0.6245 -0.0949  0.0928
  777MOL0     N 7140   9.145   7.355   2.735 -0.3588 -0.2500  0.2563
  777MOL0     C 7141   8.054   7.219   2.123  1.0729  0.3519 -0.1308
  777MOL0     C 7142   7.914   7.212   2.105 -0.6447 -0.5045  0.5044
  777MOL0     C 7143   7.490   7.033   2.073  1.0535  0.5676  0.1852
  777MOL0     C 7144   7.414   7.153   2.095  0.2371  0.3252  0.0340
  777MOL0     C 7145   7.279   7.161   2.096 -0.1851 -0.7194  0.1403
  777MOL0     C 7146   7.206   7.044   2.085  0.5349 -0.5522 -0.7533
  777MOL0     O 7147   7.067   7.028   2.083  0.1742  0.6144 -0.3252
  777MOL0     C 7148   6.980   7.141   2.059  1.3934 -0.1306  0.0748
  777MOL0     C 7149   6.869   7.135   2.158  0.5259  0.2640 -0.2529
  777MOL0     C 7150   6.793   7.267   2.181  0.1746 -0.6281  0.5853
  777MOL0     C 7151   6.732   7.267   2.320 -0.2264 -0.8609 -0.2240
  777MOL0     C 7152   6.661   7.393   2.328  1.3897 -0.2585  0.2537
  777MOL0     C 7153   6.592   7.499   2.328 -0.3645 -0.2653  0.3070
  777MOL0     C 7154   7.267   6.923   2.063  0.0078 -0.9295  0.7430
  777MOL0     C 7155   7.408   6.915   2.059  0.4099 -0.7073  0.3342
  777MOL0     C 7156   7.456   6.781   2.030  0.6998  0.1205 -0.1100
  777MOL0     H 7157   7.839   6.950   2.291  1.4459  0.4087  0.8742
  777MOL0     H 7158   8.092   6.951   2.327 -1.4848  0.6765  0.2553
  777MOL0     H 7159   8.298   6.972   2.321 -2.8956  0.7709 -0.3050
  777MOL0     H 7160   8.300   7.120   2.409 -1.6953  1.2691 -0.2024
  777MOL0     H 7161   8.513   7.062   2.185  2.5778  0.9372  0.3218
  777MOL0     H 7162   8.503   7.198   2.289  4.2269 -1.1722 -0.2597
  777MOL0     H 7163   8.492   7.034   2.481 -1.1913 -0.8207 -0.9363
  777MOL0     H 7164   8.537   6.901   2.380  0.3035 -0.0388  0.8789
  777MOL0     H 7165   8.730   7.073   2.321  1.7781 -0.1562  0.7356
  777MOL0     H 7166   8.683   7.153   2.471  0.0661  0.3197 -0.6883
  777MOL0     H 7167   8.766   6.856   2.454  0.0319  0.9192 -0.8790
  777MOL0     H 7168   8.731   6.952   2.601 -0.9829  1.4917 -0.2367
  777MOL0     H 7169   8.993   6.917   2.491 -0.0128 -0.4024 -0.1500
  777MOL0     H 7170   8.936   7.071   2.431  0.1866 -0.6280 -0.8565
  777MOL0     H 7171   8.926   6.984   2.729 -0.0243  1.3728  0.3567
  777MOL0     H 7172   8.874   7.147   2.674 -0.6615  0.0642 -0.1103
  777MOL0     H 7173   9.148   7.040   2.658  1.1592  0.0985  1.4272
  777MOL0     H 7174   9.093   7.185   2.563 -0.7616  1.7801  1.2679
  777MOL0     H 7175   9.030   7.126   2.933 -2.1254  0.6741  0.0764
  777MOL0     H 7176   8.976   7.280   3.098  0.2832 -0.7083 -0.3158
  777MOL0     H 7177   8.989   7.447   3.107 -2.1606 -1.6455 -1.2549
  777MOL0     H 7178   9.218   7.231   3.155  2.3111  1.5280 -0.1354
  777MOL0     H 7179   9.244   7.402   3.185  1.4820 -1.5162  0.5110
  777MOL0     H 7180   9.063   7.402   3.356  0.4523 -0.5250  0.7338
  777MOL0     H 7181   9.063   7.222   3.345  0.0702 -0.8541 -1.7143
  777MOL0     H 7182   9.303   7.388   3.405  2.8795 -0.4866  3.2159
  777MOL0     H 7183   9.197   7.310   3.533 -1.0611 -3.9234 -0.2778
  777MOL0     H 7184   9.532   7.065   3.332  2.9885 -1.4883 -0.0179
  777MOL0     H 7185   9.774   7.044   3.327 -0.4270  2.1219 -0.7738
  777MOL0     H 7186   9.822   6.971   3.488 -0.3879  0.9683  2.1420
  777MOL0     H 7187   9.853   7.142   3.459  1.0305  0.3554 -3.5976
  777MOL0     H 7188  10.053   6.949   3.778  0.1304 -0.6090  3.2487
  777MOL0     H 7189  10.251   7.002   3.927 -0.0653  0.0828  1.9890
  777MOL0     H 7190  10.317   7.396   4.141  0.2417 -0.3758  0.2647
  777MOL0     H 7191  10.177   7.309   4.212 -1.2462 -0.2434 -0.7544
  777MOL0     H 7192  10.455   7.206   4.263 -1.1144 -1.4410 -1.6102
  777MOL0     H 7193  10.375   7.307   4.380  0.5296  1.7595 -0.9888
  777MOL0     H 7194  10.252   7.051   4.281 -1.9330  0.3647 -0.0779
  777MOL0     H 7195  10.182   7.140   4.406 -0.8063 -2.6488 -0.5554
  777MOL0     H 7196  10.409   7.113   4.526  0.1953  0.9453 -0.8197
  777MOL0     H 7197  10.456   6.999   4.410  0.6078  2.8944  0.0848
  777MOL0     H 7198  10.387   6.878   4.588 -0.2481  0.4465 -1.0374
  777MOL0     H 7199  10.240   6.973   4.612 -0.5093 -0.1017  1.5758
  777MOL0     H 7200  10.147   6.859   4.410 -1.5673  0.5718  0.7201
  777MOL0     H 7201  10.200   6.733   4.521 -1.5222 -1.1611 -2.6044
  777MOL0     H 7202  10.418   6.701   4.402 -2.1922 -1.4176  2.9301
  777MOL0     H 7203  10.359   6.811   4.272  0.8001  0.0088  0.8680
  777MOL0     H 7204  10.151   6.653   4.267 -0.5357  0.6186  2.3334
  777MOL0     H 7205  10.239   6.566   4.388  4.3568  1.0661  1.1861
  777MOL0     H 7206  10.120   7.406   3.974  1.9169  0.1060 -0.8619
  777MOL0     H 7207   9.919   7.344   3.816 -1.4490  0.2929  2.3357
  777MOL0     H 7208   9.516   7.205   3.808 -0.4075 -0.0681  0.7660
  777MOL0     H 7209   9.325   7.218   3.682  0.2494 -0.6082 -0.1005
  777MOL0     H 7210   8.108   7.303   2.079  3.2495 -0.0389  1.5915
  777MOL0     H 7211   7.883   7.284   2.030  1.4366 -0.3849 -0.3082
  777MOL0     H 7212   7.462   7.248   2.118 -0.8016  0.9197 -0.2250
  777MOL0     H 7213   7.232   7.257   2.113 -0.8960 -0.8413 -1.0245
  777MOL0     H 7214   7.032   7.236   2.067 -2.0354  1.9322 -0.0504
  777MOL0     H 7215   6.949   7.138   1.954  0.4515 -3.0318  0.3215
  777MOL0     H 7216   6.919   7.111   2.251 -0.5957  0.8599  0.5277
  777MOL0     H 7217   6.800   7.056   2.126  0.3586  0.7197 -1.0503
  777MOL0     H 7218   6.860   7.354   2.179 -2.1269  1.2517  0.7237
  777MOL0     H 7219   6.732   7.291   2.094  0.0354  1.3442  1.1834
  777MOL0     H 7220   6.811   7.274   2.395 -0.2325 -0.7786 -0.2250
  777MOL0     H 7221   6.670   7.181   2.346 -1.2227  0.4687  2.2088
  777MOL0     H 7222   6.522   7.580   2.327 -0.5589 -0.4145 -1.4134
  777MOL0     H 7223   7.202   6.836   2.055 -1.4978 -0.2427  3.7859
  777MOL0     H 7224   7.378   6.706   2.016  1.4546 -0.5375 -0.9539
  777MOL0     H 7225   7.505   6.795   1.933 -3.2034  1.6930 -2.0921
  777MOL0     H 7226   7.524   6.745   2.108 -0.4996 -0.0532  0.8732
  778MOL0     O 7227   1.437   3.600   8.123 -0.1522  0.3838 -0.0068
  778MOL0     C 7228   1.418   3.476   8.125 -0.6993  0.1328  0.1757
  778MOL0     O 7229   1.513   3.379   8.095 -0.1569 -0.4217 -0.1278
  778MOL0     C 7230   1.644   3.422   8.072 -0.7348 -0.0437 -1.0600
  778MOL0     C 7231   1.717   3.359   7.974 -0.0168  0.1398 -0.5096
  778MOL0     C 7232   1.857   3.371   7.962 -0.4622 -0.4548 -0.1649
  778MOL0     C 7233   1.922   3.460   8.039  0.0807  0.6354 -0.7880
  778MOL0     O 7234   2.057   3.468   8.009 -0.1474 -0.2689  0.4672
  778MOL0     C 7235   2.127   3.581   8.048 -0.4913 -0.4210 -0.5766
  778MOL0     C 7236   2.088   3.704   7.973  0.0101 -0.2851  0.1288
  778MOL0     C 7237   2.137   3.702   7.831 -0.0782 -0.5924  0.0462
  778MOL0     C 7238   2.275   3.640   7.800  0.0864 -0.6156 -0.1186
  778MOL0     C 7239   2.326   3.663   7.663  0.2399 -0.2284 -0.6410
  778MOL0     C 7240   2.220   3.624   7.547  0.6157  0.9384  0.4898
  778MOL0     C 7241   2.283   3.634   7.415 -0.5369 -0.1566 -0.5942
  778MOL0     C 7242   2.188   3.587   7.303  0.0437  0.3988 -0.5747
  778MOL0     N 7243   2.268   3.536   7.188 -0.7934 -0.2832  0.0518
  778MOL0     C 7244   2.303   3.411   7.178 -0.1110  0.6406 -0.2812
  778MOL0     C 7245   2.361   3.407   7.057 -0.0900  0.5401  0.9521
  778MOL0     C 7246   2.405   3.279   7.003 -0.7165 -0.5458 -0.3196
  778MOL0     C 7247   2.329   3.252   6.871 -0.5007 -0.3720  0.5464
  778MOL0     C 7248   2.380   3.324   6.747  0.6506  0.1395  0.3254
  778MOL0     C 7249   2.528   3.312   6.712  0.5354 -0.9414  0.0496
  778MOL0     O 7250   2.560   3.360   6.584  0.1897 -0.3349  0.1021
  778MOL0     C 7251   2.687   3.407   6.550  0.1690 -0.0404  0.4070
  778MOL0     C 7252   2.706   3.480   6.438 -0.1927  0.9950  0.3604
  778MOL0     C 7253   2.826   3.547   6.409  0.4147 -0.7496 -0.7961
  778MOL0     C 7254   2.831   3.624   6.283  0.3992  1.0085 -0.2196
  778MOL0     C 7255   2.930   3.533   6.497 -0.3833  0.1237 -0.5696
  778MOL0     C 7256   3.065   3.599   6.489  0.3243 -0.2948 -0.0162
  778MOL0     O 7257   3.150   3.558   6.582 -0.5561  0.1095  0.3694
  778MOL0     C 7258   3.279   3.596   6.573  0.4161  0.5652 -0.8901
  778MOL0     C 7259   3.308   3.720   6.637 -0.2576  0.6359 -0.3247
  778MOL0     C 7260   3.452   3.751   6.650 -0.2902  0.4307  0.6755
  778MOL0     C 7261   3.549   3.662   6.592 -0.5847  0.3026  0.0536
  778MOL0     O 7262   3.686   3.681   6.602  0.8536 -0.0566  0.4923
  778MOL0     C 7263   3.740   3.711   6.735 -0.6934  0.2410  0.2839
  778MOL0     C 7264   3.856   3.816   6.729  0.4132  0.6570  0.4662
  778MOL0     C 7265   3.794   3.956   6.701 -0.0207 -0.9945  1.0622
  778MOL0     C 7266   3.898   4.065   6.737  0.3349 -1.0429  0.4973
  778MOL0     C 7267   3.997   4.068   6.618  0.3750 -0.0036 -0.3251
  778MOL0     C 7268   4.094   4.188   6.634  0.3305  0.6379  0.3077
  778MOL0     C 7269   4.184   4.173   6.764  0.4353  0.4892  0.1985
  778MOL0     C 7270   4.312   4.256   6.761  0.0972 -0.7683  1.1755
  778MOL0    Cl 7271   4.399   4.232   6.928  0.4268 -0.3521  0.1859
  778MOL0     C 7272   3.505   3.543   6.537  0.4137  0.0085 -0.1373
  778MOL0     C 7273   3.368   3.511   6.525 -0.2997 -0.3442 -0.2780
  778MOL0     O 7274   3.081   3.690   6.410 -0.6053 -0.2697 -0.9542
  778MOL0     C 7275   2.917   3.455   6.613  0.0973  0.1776  0.7203
  778MOL0     C 7276   2.794   3.396   6.640 -0.3157 -0.1102 -0.7102
  778MOL0     N 7277   2.379   3.536   7.002  1.4872  0.2055  0.3521
  778MOL0     N 7278   2.326   3.616   7.092  0.1368  0.1920 -0.6078
  778MOL0     C 7279   1.855   3.537   8.140  1.2660  0.3079  0.1452
  778MOL0     C 7280   1.716   3.507   8.157 -0.1273  0.0289 -0.8035
  778MOL0     C 7281   1.273   3.421   8.141 -0.4428 -0.5582  0.7736
  778MOL0     C 7282   1.243   3.293   8.092  0.1650  0.6488 -0.3894
  778MOL0     C 7283   1.109   3.246   8.097  0.1567  0.0478  0.0332
  778MOL0     C 7284   1.004   3.317   8.157  0.0796  0.4692 -0.4543
  778MOL0     O 7285   0.871   3.273   8.143 -0.2402  0.1555 -0.7647
  778MOL0     C 7286   0.765   3.371   8.134  0.1710 -0.4371 -0.4578
  778MOL0     C 7287   0.679   3.369   8.263 -0.2057  0.5906 -0.3270
  778MOL0     C 7288   0.620   3.232   8.302  0.4682 -0.1716  0.6235
  778MOL0     C 7289   0.569   3.241   8.444 -0.7562 -0.1013  0.2068
  778MOL0     C 7290   0.471   3.138   8.469  0.8852 -0.3935  0.1495
  778MOL0     C 7291   0.384   3.060   8.509 -0.1169  0.5399  0.5114
  778MOL0     C 7292   1.037   3.442   8.211 -0.4858 -0.4858  0.1730
  778MOL0     C 7293   1.169   3.491   8.210  0.3539  0.9304  0.0278
  778MOL0     C 7294   1.195   3.626   8.272 -0.9115 -0.2399 -0.4731
  778MOL0     H 7295   1.675   3.301   7.892  2.4603 -1.7455 -0.5652
  778MOL0     H 7296   1.915   3.318   7.886  0.5359 -1.4651  1.2498
  778MOL0     H 7297   2.235   3.566   8.038  0.0683  2.6116 -0.2672
  778MOL0     H 7298   2.111   3.591   8.155  2.2453 -2.0216  0.0848
  778MOL0     H 7299   1.982   3.727   7.986  0.6378  3.2427 -0.2430
  778MOL0     H 7300   2.129   3.797   8.012 -3.4103  1.6955 -0.5498
  778MOL0     H 7301   2.068   3.650   7.764  3.3237 -1.2029 -3.4183
  778MOL0     H 7302   2.131   3.808   7.804  0.6510 -0.6105 -0.2311
  778MOL0     H 7303   2.350   3.689   7.862  0.9681 -1.8422 -0.1950
  778MOL0     H 7304   2.276   3.531   7.813  0.1208 -0.5740  0.2399
  778MOL0     H 7305   2.422   3.612   7.653 -0.8468 -1.9366 -3.8697
  778MOL0     H 7306   2.342   3.771   7.656  0.1466 -0.2313 -0.9499
  778MOL0     H 7307   2.167   3.528   7.553 -1.6948  1.9962 -1.3552
  778MOL0     H 7308   2.140   3.697   7.534  1.8965  1.8452 -3.8556
  778MOL0     H 7309   2.368   3.565   7.420 -0.1659  0.3271 -0.0688
  778MOL0     H 7310   2.318   3.733   7.386  0.8331 -0.4611 -0.0632
  778MOL0     H 7311   2.109   3.516   7.331 -1.1344  2.4216  1.5801
  778MOL0     H 7312   2.125   3.671   7.272 -0.1094 -0.8762 -4.1238
  778MOL0     H 7313   2.270   3.325   7.235  0.7731 -0.1478 -0.9272
  778MOL0     H 7314   2.386   3.200   7.075  1.9913 -0.1737  0.9042
  778MOL0     H 7315   2.514   3.270   6.999 -0.7565 -0.7837 -0.9404
  778MOL0     H 7316   2.327   3.145   6.848  4.3031 -1.1625  2.6173
  778MOL0     H 7317   2.226   3.279   6.894 -1.2604  0.1042 -2.8680
  778MOL0     H 7318   2.338   3.281   6.655 -0.4665  0.1355  0.8199
  778MOL0     H 7319   2.354   3.430   6.752 -0.7669  0.2151 -4.1499
  778MOL0     H 7320   2.589   3.359   6.789 -0.6558 -0.8208  0.9578
  778MOL0     H 7321   2.545   3.204   6.718 -4.0042 -1.8457  0.2572
  778MOL0     H 7322   2.620   3.499   6.375 -0.6733 -0.2855  0.6051
  778MOL0     H 7323   2.763   3.591   6.204  1.1093 -0.9572 -0.0521
  778MOL0     H 7324   2.936   3.609   6.253  1.3189  2.6081  1.9567
  778MOL0     H 7325   2.812   3.727   6.314 -0.3846  0.6991  0.3645
  778MOL0     H 7326   3.229   3.793   6.652  0.1698  0.7990  1.2712
  778MOL0     H 7327   3.486   3.842   6.699 -1.0815  1.7264 -1.0510
  778MOL0     H 7328   3.670   3.755   6.807 -0.8600  2.4017 -1.1071
  778MOL0     H 7329   3.767   3.617   6.784 -4.1907  0.7357  3.6816
  778MOL0     H 7330   3.907   3.825   6.825 -0.5445  1.0570  0.9454
  778MOL0     H 7331   3.919   3.776   6.649  0.0736  0.4794  0.2815
  778MOL0     H 7332   3.703   3.969   6.761 -0.0074 -1.6014  1.2182
  778MOL0     H 7333   3.773   3.956   6.593  1.6997 -1.6025  0.7019
  778MOL0     H 7334   3.950   4.061   6.833  0.0138  1.3654  0.8396
  778MOL0     H 7335   3.830   4.151   6.744  2.2157  0.4831  1.0599
  778MOL0     H 7336   4.058   3.978   6.611 -2.3669 -1.9697 -0.6018
  778MOL0     H 7337   3.944   4.068   6.522  0.6885 -0.7531 -0.5046
  778MOL0     H 7338   4.035   4.280   6.638  0.1763  0.5012  1.3972
  778MOL0     H 7339   4.160   4.195   6.547  0.3856 -1.0248  0.1773
  778MOL0     H 7340   4.213   4.067   6.770 -0.6733  0.2328  1.8650
  778MOL0     H 7341   4.136   4.206   6.857 -0.0201  0.7012 -0.1127
  778MOL0     H 7342   4.279   4.357   6.737  0.9130 -1.4371 -3.9039
  778MOL0     H 7343   4.372   4.230   6.673  1.0494 -0.6401  1.7696
  778MOL0     H 7344   3.580   3.465   6.526  0.8084  0.3587  0.0426
  778MOL0     H 7345   3.338   3.418   6.479 -1.1200  0.5710 -1.6994
  778MOL0     H 7346   2.997   3.435   6.683 -0.4737  1.5297  1.8187
  778MOL0     H 7347   2.782   3.329   6.725 -1.0448 -0.7326 -1.2803
  778MOL0     H 7348   1.910   3.597   8.211 -1.5958  0.8769  2.0380
  778MOL0     H 7349   1.672   3.554   8.244 -0.2067 -1.7570  0.1637
  778MOL0     H 7350   1.324   3.234   8.050 -1.1272 -0.5887 -1.2593
  778MOL0     H 7351   1.104   3.145   8.060  1.0904 -0.0516  0.1570
  778MOL0     H 7352   0.806   3.469   8.106  2.0534 -0.5446  1.5508
  778MOL0     H 7353   0.700   3.343   8.051 -4.2306  0.5271  2.3317
  778MOL0     H 7354   0.592   3.434   8.250 -1.0556 -0.0046  1.9352
  778MOL0     H 7355   0.739   3.409   8.345 -2.6305 -0.5135  2.1100
  778MOL0     H 7356   0.530   3.199   8.248 -2.7108  0.8456  4.8153
  778MOL0     H 7357   0.702   3.161   8.293  1.1007  0.7435 -1.6951
  778MOL0     H 7358   0.515   3.336   8.454  0.7539  0.7122  1.0457
  778MOL0     H 7359   0.652   3.231   8.515 -1.1208 -0.8544  0.5355
  778MOL0     H 7360   0.321   2.982   8.547  2.6523 -0.5541  3.3055
  778MOL0     H 7361   0.955   3.501   8.251 -1.0931 -1.3867  0.2920
  778MOL0     H 7362   1.142   3.622   8.367  0.3870  1.4504  0.3723
  778MOL0     H 7363   1.300   3.643   8.297 -0.4889  1.1568 -2.8323
  778MOL0     H 7364   1.150   3.705   8.210 -2.7136 -1.2586 -0.5266
  779MOL0     O 7365   2.949   9.095   5.226 -0.0785 -0.3366  0.3416
  779MOL0     C 7366   2.942   9.169   5.327  0.8823  0.4393  0.4506
  779MOL0     O 7367   3.026   9.275   5.363 -0.2181  0.2914  0.5907
  779MOL0     C 7368   3.103   9.345   5.269  0.6547  0.4479 -0.2254
  779MOL0     C 7369   3.054   9.375   5.138 -0.0380 -0.3719 -0.8830
  779MOL0     C 7370   3.136   9.444   5.051  0.4176  0.2129  0.7434
  779MOL0     C 7371   3.268   9.474   5.082 -0.7292 -0.0077 -0.8832
  779MOL0     O 7372   3.336   9.540   4.979  0.4643 -0.2996 -0.3367
  779MOL0     C 7373   3.322   9.504   4.836 -0.6420 -0.8389  0.4950
  779MOL0     C 7374   3.384   9.373   4.798 -0.1017 -0.0063  0.4211
  779MOL0     C 7375   3.529   9.362   4.836 -0.1692 -0.1253  0.0197
  779MOL0     C 7376   3.578   9.222   4.853 -0.3192 -0.1296 -0.1493
  779MOL0     C 7377   3.596   9.143   4.715 -0.0904  0.5586 -0.6728
  779MOL0     C 7378   3.672   9.219   4.611  0.0016 -0.4529 -1.3038
  779MOL0     C 7379   3.693   9.133   4.494 -0.0111  0.0913 -0.5184
  779MOL0     C 7380   3.746   9.208   4.376 -0.1931 -0.5095  1.2727
  779MOL0     N 7381   3.868   9.277   4.410 -0.3546  0.2982 -0.1766
  779MOL0     C 7382   3.989   9.217   4.407 -0.3483  0.4243  0.7208
  779MOL0     C 7383   4.068   9.319   4.463 -0.1134  0.0536  0.0466
  779MOL0     C 7384   4.216   9.294   4.463  0.7635  0.5148  0.7625
  779MOL0     C 7385   4.294   9.385   4.554  0.2087  0.6705 -0.2006
  779MOL0     C 7386   4.440   9.347   4.538  0.1484 -0.2701  0.0302
  779MOL0     C 7387   4.529   9.429   4.640 -0.5639 -0.0079  0.7880
  779MOL0     O 7388   4.505   9.399   4.773  0.5778  0.2425 -0.8329
  779MOL0     C 7389   4.559   9.484   4.874 -0.3185  0.5773  0.9194
  779MOL0     C 7390   4.609   9.423   4.987 -0.2247  0.2372  0.3492
  779MOL0     C 7391   4.687   9.498   5.079 -0.1603 -0.2860 -0.3900
  779MOL0     C 7392   4.723   9.427   5.209  0.6504 -0.1814  0.1495
  779MOL0     C 7393   4.716   9.636   5.057  0.5603 -0.1567 -0.2559
  779MOL0     C 7394   4.788   9.714   5.147  0.8018  0.0821 -0.7601
  779MOL0     O 7395   4.746   9.849   5.148  0.4211 -0.3415 -0.3198
  779MOL0     C 7396   4.823   9.940   5.214 -0.6502  0.1719 -0.1435
  779MOL0     C 7397   4.881   9.917   5.340 -0.0947 -0.0249  0.2154
  779MOL0     C 7398   4.954  10.010   5.413 -0.6990  0.1083  0.6662
  779MOL0     C 7399   4.971  10.134   5.352 -0.5184 -0.2740 -0.1152
  779MOL0     O 7400   5.043  10.225   5.419 -0.1007  0.1798  0.1120
  779MOL0     C 7401   5.184  10.201   5.443 -0.6418  0.6768  0.2151
  779MOL0     C 7402   5.229  10.182   5.591  1.2309 -0.0856  0.1171
  779MOL0     C 7403   5.374  10.192   5.605  0.1503  0.2693  0.0197
  779MOL0     C 7404   5.423  10.140   5.742 -0.8515  0.8225  0.8668
  779MOL0     C 7405   5.563  10.190   5.765 -0.3133 -0.9449 -0.4646
  779MOL0     C 7406   5.592  10.170   5.916 -0.1234  0.1389 -0.1502
  779MOL0     C 7407   5.738  10.168   5.947  0.3370 -0.4054  0.4949
  779MOL0     C 7408   5.793  10.315   5.924 -0.1767 -0.2984  0.7162
  779MOL0    Cl 7409   5.971  10.316   5.983  0.2042 -0.0116 -0.4644
  779MOL0     C 7410   4.920  10.160   5.223 -0.6490  0.3155  0.0121
  779MOL0     C 7411   4.852  10.062   5.151  0.7766 -0.1442 -0.3397
  779MOL0     O 7412   4.900   9.678   5.182 -0.1148 -0.0346 -0.3036
  779MOL0     C 7413   4.651   9.696   4.945 -0.6194 -0.1999 -0.2074
  779MOL0     C 7414   4.578   9.618   4.850  0.1797  0.0980  0.1861
  779MOL0     N 7415   3.996   9.423   4.496 -0.8002  0.1254 -0.1538
  779MOL0     N 7416   3.877   9.398   4.463 -0.3664 -0.1618  0.1152
  779MOL0     C 7417   3.308   9.455   5.216  0.2867 -0.0747  0.0237
  779MOL0     C 7418   3.223   9.394   5.311  0.1684 -1.1828 -0.1543
  779MOL0     C 7419   2.848   9.135   5.434 -0.0164  0.0381  0.5991
  779MOL0     C 7420   2.831   9.224   5.544 -0.3654  0.1718  0.2718
  779MOL0     C 7421   2.760   9.179   5.657  0.4169  0.1276 -0.3450
  779MOL0     C 7422   2.690   9.060   5.666  0.2593  0.4092 -0.2487
  779MOL0     O 7423   2.624   9.010   5.771  0.1208  0.2410 -1.0274
  779MOL0     C 7424   2.622   9.090   5.890 -0.4036  0.0153 -0.4108
  779MOL0     C 7425   2.518   9.047   5.994 -0.4298  0.2468 -0.1850
  779MOL0     C 7426   2.369   9.060   5.968 -0.1492  0.2669  0.5676
  779MOL0     C 7427   2.325   9.086   5.822 -0.4997  0.0564  0.2859
  779MOL0     C 7428   2.186   9.117   5.825 -0.2605 -0.0404  0.0169
  779MOL0     C 7429   2.071   9.139   5.830 -0.2631 -0.3509  0.3325
  779MOL0     C 7430   2.708   8.976   5.558 -0.7360 -0.5344  0.0598
  779MOL0     C 7431   2.780   9.006   5.440 -0.2042 -0.6458 -0.5294
  779MOL0     C 7432   2.766   8.910   5.325  0.2236 -0.2096 -0.6553
  779MOL0     H 7433   2.958   9.332   5.109 -0.8644  2.0215 -1.9721
  779MOL0     H 7434   3.088   9.461   4.955  0.5446  1.0895  0.8289
  779MOL0     H 7435   3.378   9.580   4.781 -1.8731 -0.8254 -0.7937
  779MOL0     H 7436   3.223   9.513   4.790  0.0538 -0.1616 -0.9359
  779MOL0     H 7437   3.333   9.282   4.832 -0.3513 -0.1913 -0.4103
  779MOL0     H 7438   3.373   9.361   4.689 -4.7604 -0.5950  0.7590
  779MOL0     H 7439   3.587   9.413   4.759 -2.9829  0.4611 -1.8313
  779MOL0     H 7440   3.541   9.405   4.936  2.6010 -0.9019  0.1021
  779MOL0     H 7441   3.663   9.243   4.919 -2.3293  1.2004  2.2113
  779MOL0     H 7442   3.504   9.171   4.915  0.4752  0.4029  1.2957
  779MOL0     H 7443   3.491   9.135   4.685 -1.1437  2.3924  2.1452
  779MOL0     H 7444   3.635   9.043   4.737  2.1390  1.6829  0.7542
  779MOL0     H 7445   3.616   9.309   4.585 -1.0111 -1.2568 -1.9719
  779MOL0     H 7446   3.774   9.245   4.643 -0.6442  1.7465 -0.8894
  779MOL0     H 7447   3.601   9.084   4.463 -0.4231  0.1003  0.6324
  779MOL0     H 7448   3.764   9.052   4.510  1.8003  1.9131  1.2277
  779MOL0     H 7449   3.764   9.136   4.296 -0.3922  2.8836 -2.0928
  779MOL0     H 7450   3.675   9.286   4.348  0.6567  0.3045  1.3421
  779MOL0     H 7451   4.024   9.125   4.362 -0.2860  0.9586 -0.3406
  779MOL0     H 7452   4.259   9.303   4.363  1.3816  1.3550  1.0843
  779MOL0     H 7453   4.228   9.188   4.488 -0.5173  0.5317  1.5334
  779MOL0     H 7454   4.277   9.492   4.534 -1.4240  0.2020 -1.6366
  779MOL0     H 7455   4.260   9.364   4.655  0.1325  0.1209 -0.3363
  779MOL0     H 7456   4.458   9.241   4.560 -1.2113 -0.8460 -1.4187
  779MOL0     H 7457   4.478   9.364   4.436 -0.7124  0.9346 -0.1051
  779MOL0     H 7458   4.636   9.417   4.623 -0.9275  0.4423 -2.3543
  779MOL0     H 7459   4.496   9.531   4.618 -0.5090 -0.4151 -1.3378
  779MOL0     H 7460   4.592   9.316   4.996  0.3791 -0.1449 -2.3175
  779MOL0     H 7461   4.636   9.366   5.236 -1.0574  3.4783  4.0912
  779MOL0     H 7462   4.738   9.505   5.284  0.8408  2.0500 -2.0922
  779MOL0     H 7463   4.812   9.364   5.209  0.8654  0.0951  1.3874
  779MOL0     H 7464   4.883   9.819   5.386  1.2881  1.6377  4.1055
  779MOL0     H 7465   4.998   9.992   5.511 -3.3113  3.1604  2.6032
  779MOL0     H 7466   5.208  10.111   5.386 -0.4995 -1.3624  3.2920
  779MOL0     H 7467   5.251  10.280   5.407  1.8149 -1.9258 -1.3802
  779MOL0     H 7468   5.163  10.257   5.636 -1.0217  0.3072 -3.3775
  779MOL0     H 7469   5.202  10.087   5.637  1.0771  1.5459  3.6962
  779MOL0     H 7470   5.401  10.297   5.593  3.1523 -0.5198 -0.9358
  779MOL0     H 7471   5.420  10.127   5.529 -1.9522  1.5763 -2.5561
  779MOL0     H 7472   5.432  10.031   5.740  0.1472  0.9075  0.2109
  779MOL0     H 7473   5.358  10.163   5.827  1.0505 -0.4827  2.7859
  779MOL0     H 7474   5.635  10.131   5.708  0.6779  0.5352 -0.8029
  779MOL0     H 7475   5.575  10.292   5.727  2.3121 -2.1377 -3.2888
  779MOL0     H 7476   5.547  10.078   5.955  0.8936 -1.0875 -1.7215
  779MOL0     H 7477   5.547  10.256   5.966 -0.1976  1.4711 -2.3960
  779MOL0     H 7478   5.780  10.085   5.890  0.9145 -0.6590  1.2614
  779MOL0     H 7479   5.749  10.137   6.052 -1.8259 -2.4492  0.2015
  779MOL0     H 7480   5.729  10.384   5.980 -0.8204 -0.0767 -0.2870
  779MOL0     H 7481   5.792  10.340   5.818  1.3337  3.3612  1.3796
  779MOL0     H 7482   4.939  10.251   5.167  0.0238 -1.2451 -2.4859
  779MOL0     H 7483   4.819  10.085   5.050 -0.1358 -0.0966 -0.0393
  779MOL0     H 7484   4.647   9.803   4.934 -2.1589 -0.1490  0.5245
  779MOL0     H 7485   4.532   9.675   4.770 -2.7832  0.1199  1.7540
  779MOL0     H 7486   3.398   9.506   5.249  0.8818 -1.1193  0.0842
  779MOL0     H 7487   3.245   9.373   5.416 -2.8866  0.1391  0.8430
  779MOL0     H 7488   2.885   9.317   5.532  1.8853 -1.3751 -3.2530
  779MOL0     H 7489   2.731   9.248   5.735  0.0614 -1.3721  0.8953
  779MOL0     H 7490   2.718   9.086   5.941 -1.5003  1.4447  1.9255
  779MOL0     H 7491   2.589   9.190   5.859 -3.5091 -1.5344 -2.6789
  779MOL0     H 7492   2.545   9.093   6.089 -2.2246  2.0379 -0.4617
  779MOL0     H 7493   2.531   8.940   6.014  2.1448  0.7881  1.5747
  779MOL0     H 7494   2.325   8.972   6.014  0.9517  0.7464  2.6831
  779MOL0     H 7495   2.334   9.142   6.031  0.5413 -0.0550  1.3922
  779MOL0     H 7496   2.333   9.006   5.748  2.9771  1.2189 -0.7952
  779MOL0     H 7497   2.381   9.166   5.772 -2.0399  1.3267  0.5564
  779MOL0     H 7498   1.968   9.169   5.834  0.3811  2.4559 -1.0133
  779MOL0     H 7499   2.650   8.885   5.563 -0.4544 -0.6963  0.4455
  779MOL0     H 7500   2.684   8.841   5.345  2.3239 -2.0068  2.8393
  779MOL0     H 7501   2.742   8.963   5.233 -1.6601 -0.8276 -0.5547
  779MOL0     H 7502   2.859   8.852   5.315 -0.1682 -1.1911  0.9330
  780MOL0     O 7503   4.788   7.321   0.858  0.4710 -0.0358 -0.1177
  780MOL0     C 7504   4.689   7.249   0.887 -0.2926  1.3524  1.1645
  780MOL0     O 7505   4.653   7.136   0.826 -0.9079 -0.0255 -0.8114
  780MOL0     C 7506   4.726   7.077   0.718 -0.1001  0.0527  0.0239
  780MOL0     C 7507   4.867   7.076   0.707 -0.5522 -0.7339  0.3873
  780MOL0     C 7508   4.939   7.011   0.603  0.6112  0.2841 -0.0371
  780MOL0     C 7509   4.877   6.928   0.510  0.3046  0.5210  0.2390
  780MOL0     O 7510   4.940   6.878   0.395  0.4181  0.2334 -0.8875
  780MOL0     C 7511   4.866   6.855   0.270 -0.7894  0.3257  0.0524
  780MOL0     C 7512   4.932   6.937   0.156 -0.8099 -0.1915  0.3426
  780MOL0     C 7513   4.899   6.860   0.028 -0.0031 -0.4097 -1.1552
  780MOL0     C 7514   4.906   6.954  -0.089 -0.6480 -1.0206  0.1104
  780MOL0     C 7515   4.906   6.870  -0.221 -0.9438 -0.3143  0.0472
  780MOL0     C 7516   4.932   6.973  -0.333 -0.2571  0.2077 -0.3418
  780MOL0     C 7517   4.946   6.904  -0.471  0.3834  0.1857 -0.0931
  780MOL0     C 7518   5.022   6.987  -0.571  1.5169 -0.9856  0.0039
  780MOL0     N 7519   5.063   6.926  -0.697 -0.4215 -0.2857 -0.6095
  780MOL0     C 7520   5.010   6.945  -0.821  0.8607  0.4908  0.4176
  780MOL0     C 7521   5.103   6.891  -0.897  0.2403  0.1778 -0.0933
  780MOL0     C 7522   5.082   6.858  -1.041  0.4534  0.1389 -0.2055
  780MOL0     C 7523   5.050   6.976  -1.138 -0.0995 -1.2000  0.0489
  780MOL0     C 7524   4.994   6.937  -1.274  0.7206 -1.1070 -0.4095
  780MOL0     C 7525   4.967   7.056  -1.363 -0.1327 -0.4366 -0.2387
  780MOL0     O 7526   4.823   7.083  -1.376 -0.0143  0.1000 -0.2194
  780MOL0     C 7527   4.756   7.012  -1.465  1.3207 -0.1959  0.3267
  780MOL0     C 7528   4.744   7.052  -1.597  0.5177  0.0237  1.0528
  780MOL0     C 7529   4.649   7.001  -1.688 -0.4986 -0.2175 -0.5665
  780MOL0     C 7530   4.652   7.057  -1.834 -0.2701 -0.0208 -0.3128
  780MOL0     C 7531   4.557   6.905  -1.643  0.4099  0.4383 -0.5259
  780MOL0     C 7532   4.442   6.850  -1.724  0.0311 -0.6933 -0.6342
  780MOL0     O 7533   4.403   6.724  -1.683  0.6094  0.1609  0.4448
  780MOL0     C 7534   4.321   6.658  -1.778 -0.5362  0.1915 -0.6813
  780MOL0     C 7535   4.375   6.564  -1.873  0.5950  0.4071 -0.0897
  780MOL0     C 7536   4.283   6.507  -1.960 -0.1124 -0.2126 -0.4018
  780MOL0     C 7537   4.147   6.536  -1.965 -0.7352 -0.0708 -0.8257
  780MOL0     O 7538   4.054   6.486  -2.053 -0.1275  0.0141 -0.4459
  780MOL0     C 7539   4.068   6.356  -2.117  0.0764  0.4933  0.0545
  780MOL0     C 7540   3.931   6.323  -2.188  0.5994 -0.0653  0.4922
  780MOL0     C 7541   3.876   6.439  -2.272  0.2342 -0.4413  0.7757
  780MOL0     C 7542   3.979   6.492  -2.381 -0.5557 -0.5604 -0.0542
  780MOL0     C 7543   3.910   6.498  -2.517 -0.8322  0.1020 -0.1470
  780MOL0     C 7544   3.886   6.362  -2.578  0.4170 -1.3877  0.0885
  780MOL0     C 7545   3.806   6.377  -2.702  0.6117 -0.0284 -0.2576
  780MOL0     C 7546   3.796   6.249  -2.785 -0.0826 -0.8217  0.0169
  780MOL0    Cl 7547   3.654   6.256  -2.911  0.0806  0.3073 -0.0681
  780MOL0     C 7548   4.104   6.626  -1.867  0.8876 -0.0173 -0.9722
  780MOL0     C 7549   4.182   6.688  -1.780 -0.0263 -1.0336 -0.6968
  780MOL0     O 7550   4.379   6.921  -1.805 -0.8765  0.7840 -0.2423
  780MOL0     C 7551   4.578   6.863  -1.508 -0.4092 -0.3065 -0.0082
  780MOL0     C 7552   4.682   6.906  -1.419  0.1788 -0.6133 -0.3432
  780MOL0     N 7553   5.206   6.848  -0.824 -0.0871  0.1900  0.1940
  780MOL0     N 7554   5.187   6.874  -0.705  0.1561  0.4294  0.1819
  780MOL0     C 7555   4.737   6.914   0.532 -0.3641 -0.1227  0.0111
  780MOL0     C 7556   4.667   6.987   0.628  0.0846 -0.3164 -0.8799
  780MOL0     C 7557   4.610   7.299   0.996  0.0841 -0.7982 -0.2648
  780MOL0     C 7558   4.591   7.437   1.009  0.1076 -0.7357  0.0526
  780MOL0     C 7559   4.501   7.497   1.102 -0.4065  0.2939  0.1742
  780MOL0     C 7560   4.430   7.413   1.188 -0.0776  0.3642  0.0127
  780MOL0     O 7561   4.359   7.469   1.290  0.2516 -0.3811  0.2735
  780MOL0     C 7562   4.281   7.388   1.385  0.7733 -0.0135 -0.0051
  780MOL0     C 7563   4.197   7.473   1.483  0.2278  0.2671 -0.7944
  780MOL0     C 7564   4.087   7.541   1.406 -0.2267  1.1631  0.0568
  780MOL0     C 7565   4.000   7.620   1.501 -1.0503  0.8246 -0.4767
  780MOL0     C 7566   4.080   7.719   1.573  0.8793  0.5020 -0.0002
  780MOL0     C 7567   4.156   7.796   1.631 -0.1545  0.0012 -0.0181
  780MOL0     C 7568   4.455   7.274   1.186  0.0590 -0.5589 -0.5893
  780MOL0     C 7569   4.543   7.217   1.095 -0.3959 -0.5892 -0.7089
  780MOL0     C 7570   4.560   7.063   1.091 -0.2253 -0.1867 -0.6935
  780MOL0     H 7571   4.923   7.126   0.785  0.6329 -1.2849 -0.0783
  780MOL0     H 7572   5.047   7.025   0.603  0.6196  0.2459  0.3584
  780MOL0     H 7573   4.757   6.858   0.279 -0.7240  1.3601  0.6515
  780MOL0     H 7574   4.905   6.755   0.253 -2.2216 -0.1772 -0.3728
  780MOL0     H 7575   4.886   7.036   0.165  1.4331  0.6959  5.1125
  780MOL0     H 7576   5.037   6.961   0.170 -0.6015 -0.6255 -0.4263
  780MOL0     H 7577   4.970   6.779   0.006  1.1409  0.8591 -2.2951
  780MOL0     H 7578   4.798   6.821   0.046 -1.1663  2.3499 -1.2964
  780MOL0     H 7579   4.822   7.024  -0.088 -3.5286 -4.2120  0.6352
  780MOL0     H 7580   4.994   7.015  -0.070  0.2854 -2.6819  1.3627
  780MOL0     H 7581   4.811   6.818  -0.235 -0.5205 -0.5835 -2.0941
  780MOL0     H 7582   4.988   6.797  -0.216  1.2451  2.0928  1.7033
  780MOL0     H 7583   4.853   7.049  -0.330  0.9147  1.4389  0.8230
  780MOL0     H 7584   5.031   7.018  -0.319 -0.3543  0.0747  0.8367
  780MOL0     H 7585   4.843   6.877  -0.498 -1.4166  5.6186  0.0982
  780MOL0     H 7586   4.992   6.806  -0.457  0.0573 -0.2528 -1.7807
  780MOL0     H 7587   4.961   7.076  -0.590  0.5276 -2.3757 -4.6796
  780MOL0     H 7588   5.116   7.019  -0.524  1.9141 -0.1464 -1.3028
  780MOL0     H 7589   4.911   6.979  -0.850 -0.3293 -0.6983  2.7794
  780MOL0     H 7590   4.998   6.790  -1.056 -1.2847  1.8747  1.1445
  780MOL0     H 7591   5.166   6.801  -1.082  1.6172  0.3021  1.8388
  780MOL0     H 7592   4.979   7.046  -1.093 -1.1416  1.0637 -4.5603
  780MOL0     H 7593   5.140   7.037  -1.149 -0.9550  0.7934  2.9680
  780MOL0     H 7594   5.069   6.867  -1.312  1.9056 -0.3766  0.4720
  780MOL0     H 7595   4.901   6.881  -1.269 -0.3829  0.6086 -0.7367
  780MOL0     H 7596   5.013   7.147  -1.323 -1.4501 -0.2537  0.9890
  780MOL0     H 7597   5.009   7.027  -1.459  1.1472 -1.7442  0.6624
  780MOL0     H 7598   4.812   7.131  -1.629  1.3279 -1.7924 -2.0856
  780MOL0     H 7599   4.663   7.164  -1.819 -0.6695 -0.2062  1.5718
  780MOL0     H 7600   4.569   7.042  -1.904 -0.5992  3.0258 -0.7047
  780MOL0     H 7601   4.748   7.020  -1.870 -0.9411 -0.5735 -1.6167
  780MOL0     H 7602   4.478   6.532  -1.880  0.5004  0.3817 -2.2362
  780MOL0     H 7603   4.318   6.435  -2.033 -1.0189 -2.0602  0.9258
  780MOL0     H 7604   4.153   6.359  -2.186  0.2685  0.6978  0.3025
  780MOL0     H 7605   4.086   6.275  -2.045  0.3686  2.1826  1.9603
  780MOL0     H 7606   3.933   6.238  -2.258 -1.9892  0.7953 -0.7295
  780MOL0     H 7607   3.860   6.297  -2.109  0.8381  0.6599  0.9510
  780MOL0     H 7608   3.840   6.521  -2.209 -3.3445 -0.0703 -1.4865
  780MOL0     H 7609   3.783   6.402  -2.316  0.8666 -2.5160  1.0883
  780MOL0     H 7610   4.079   6.450  -2.380 -0.0725  0.3819 -2.2942
  780MOL0     H 7611   3.996   6.596  -2.351  1.6040 -0.7424 -0.4842
  780MOL0     H 7612   3.823   6.565  -2.512  0.3147  1.9499 -2.7415
  780MOL0     H 7613   3.980   6.544  -2.586 -1.6704  0.0424 -1.0635
  780MOL0     H 7614   3.831   6.296  -2.511  1.1056 -1.3890  0.6724
  780MOL0     H 7615   3.984   6.312  -2.581  1.8475  1.1427  1.3227
  780MOL0     H 7616   3.848   6.455  -2.766 -2.4797  0.5136 -1.8637
  780MOL0     H 7617   3.710   6.419  -2.670  0.1150 -0.4259 -1.1775
  780MOL0     H 7618   3.767   6.168  -2.718  1.2478 -2.1694 -0.9586
  780MOL0     H 7619   3.893   6.227  -2.831 -1.3521  0.3836 -3.6569
  780MOL0     H 7620   4.001   6.659  -1.863  0.6596 -0.8004  0.0560
  780MOL0     H 7621   4.146   6.764  -1.712  0.5505 -0.7559 -0.7003
  780MOL0     H 7622   4.519   6.776  -1.480  1.1960 -1.9254 -1.4324
  780MOL0     H 7623   4.684   6.859  -1.321  0.9402  2.5313  1.3185
  780MOL0     H 7624   4.674   6.858   0.464  0.0421 -4.8769  3.1410
  780MOL0     H 7625   4.560   6.972   0.614  0.2493 -0.7471 -1.7186
  780MOL0     H 7626   4.627   7.509   0.935  2.6982 -1.4772  0.4886
  780MOL0     H 7627   4.489   7.604   1.101  1.8940  0.6098  0.8445
  780MOL0     H 7628   4.210   7.320   1.337 -3.3726  1.9101  2.6979
  780MOL0     H 7629   4.348   7.322   1.441  0.3399  1.8647  2.9748
  780MOL0     H 7630   4.258   7.546   1.537 -2.7417  1.9540  0.5818
  780MOL0     H 7631   4.148   7.409   1.557 -0.1156  0.6758 -0.6645
  780MOL0     H 7632   4.130   7.617   1.340 -0.7421 -0.7053 -2.5859
  780MOL0     H 7633   4.030   7.474   1.342  4.3263 -1.4023 -1.8383
  780MOL0     H 7634   3.967   7.546   1.575  3.9107 -1.1856  0.1916
  780MOL0     H 7635   3.916   7.664   1.447 -1.2213 -0.1244 -1.0062
  780MOL0     H 7636   4.226   7.864   1.675 -0.0027  0.6247 -1.1769
  780MOL0     H 7637   4.408   7.201   1.252 -0.1961 -1.3326 -1.6127
  780MOL0     H 7638   4.533   7.013   0.998 -3.0495 -0.4680  0.1895
  780MOL0     H 7639   4.668   7.044   1.097  0.0423  1.6073  1.2621
  780MOL0     H 7640   4.509   7.013   1.173 -0.4413  0.1081 -0.6465
  781MOL0     O 7641   7.016   0.510  10.718 -0.1730  0.3512 -0.0794
  781MOL0     C 7642   6.947   0.610  10.708  0.5879  0.9714 -0.4478
  781MOL0     O 7643   6.991   0.739  10.668 -0.0004  0.3547 -0.0302
  781MOL0     C 7644   7.130   0.754  10.656 -0.3558 -0.1510 -0.7066
  781MOL0     C 7645   7.203   0.794  10.767 -0.2630  0.5144  0.4140
  781MOL0     C 7646   7.343   0.830  10.752  0.2961  0.0171  0.0698
  781MOL0     C 7647   7.404   0.829  10.628  0.6460  0.4799 -0.3958
  781MOL0     O 7648   7.537   0.852  10.627 -0.1627  0.8990  0.4756
  781MOL0     C 7649   7.609   0.727  10.597  0.8048 -0.0713  0.5146
  781MOL0     C 7650   7.763   0.733  10.615  0.3780  0.3493 -0.3431
  781MOL0     C 7651   7.799   0.784  10.759  0.9624  0.1014 -0.1034
  781MOL0     C 7652   7.947   0.785  10.784  0.2059  0.1491  0.0182
  781MOL0     C 7653   7.984   0.845  10.926 -0.2040  0.2549 -0.6503
  781MOL0     C 7654   7.916   0.766  11.049 -0.1594 -0.4223  0.1044
  781MOL0     C 7655   7.962   0.825  11.185 -0.1445  0.3934  0.1414
  781MOL0     C 7656   8.104   0.767  11.208  0.3232  0.0080  0.7043
  781MOL0     N 7657   8.156   0.804  11.342 -0.2504 -0.5244 -0.9812
  781MOL0     C 7658   8.103   0.775  11.469 -0.3297 -0.6529 -0.2237
  781MOL0     C 7659   8.167   0.861  11.555  1.0861  0.6779  0.7684
  781MOL0     C 7660   8.132   0.868  11.699 -0.3359 -0.5870 -0.1116
  781MOL0     C 7661   8.138   1.008  11.764  0.5307 -0.1523  0.3511
  781MOL0     C 7662   8.131   1.010  11.916 -0.3288  0.5963 -0.6456
  781MOL0     C 7663   8.101   1.144  11.992 -0.3136  0.6907 -0.4613
  781MOL0     O 7664   8.094   1.121  12.130  0.2708 -0.1129 -0.2650
  781MOL0     C 7665   8.197   1.156  12.218 -0.1105 -0.4413 -0.0283
  781MOL0     C 7666   8.331   1.187  12.187  0.5455  0.7158 -0.7441
  781MOL0     C 7667   8.429   1.228  12.284 -0.3655 -1.0317  0.1330
  781MOL0     C 7668   8.564   1.269  12.226  0.7634 -0.8617 -0.0872
  781MOL0     C 7669   8.392   1.235  12.421 -0.4599  0.1610 -0.5986
  781MOL0     C 7670   8.480   1.263  12.534 -0.9361  0.0215  0.0627
  781MOL0     O 7671   8.431   1.234  12.661  0.6704  0.1057  0.3401
  781MOL0     C 7672   8.529   1.235  12.758 -0.4072 -0.1567 -0.3828
  781MOL0     C 7673   8.517   1.302  12.878  0.3322  0.0118  0.3042
  781MOL0     C 7674   8.598   1.281  12.983  0.6226  0.6555 -0.2405
  781MOL0     C 7675   8.709   1.198  12.973  0.0703  0.1357 -0.5995
  781MOL0     O 7676   8.793   1.160  13.072 -0.0500 -0.5530 -0.0412
  781MOL0     C 7677   8.757   1.204  13.204 -0.8436  0.3202  0.0465
  781MOL0     C 7678   8.875   1.164  13.287  0.6184  0.4657 -0.4978
  781MOL0     C 7679   9.004   1.225  13.247 -0.7491 -0.3702 -0.6015
  781MOL0     C 7680   9.107   1.231  13.362  0.0366  0.0799 -0.2891
  781MOL0     C 7681   9.224   1.325  13.326  0.2794 -0.9083  0.2378
  781MOL0     C 7682   9.312   1.326  13.453 -0.2824 -0.1138  0.4596
  781MOL0     C 7683   9.424   1.433  13.448  0.7763  0.2915  0.1374
  781MOL0     C 7684   9.510   1.434  13.320  0.1265  1.1991  0.7219
  781MOL0    Cl 7685   9.608   1.279  13.309 -0.2974 -0.3500 -0.3444
  781MOL0     C 7686   8.731   1.135  12.852  0.2815 -0.4958  0.0277
  781MOL0     C 7687   8.641   1.143  12.749  0.1519 -0.3466  0.3714
  781MOL0     O 7688   8.601   1.286  12.505  0.1294  0.3558  0.5586
  781MOL0     C 7689   8.255   1.204  12.452 -0.5467 -0.2980 -0.5866
  781MOL0     C 7690   8.168   1.163  12.352  0.8399  0.2441  0.2948
  781MOL0     N 7691   8.263   0.935  11.485  0.6454  0.7169  0.0097
  781MOL0     N 7692   8.255   0.898  11.357 -0.0738 -0.7024 -0.2860
  781MOL0     C 7693   7.324   0.786  10.515 -0.0676  0.8820 -0.2837
  781MOL0     C 7694   7.192   0.749  10.529 -0.2025 -0.3868  0.5017
  781MOL0     C 7695   6.805   0.595  10.726 -0.8768  0.0583 -0.9939
  781MOL0     C 7696   6.725   0.706  10.682 -0.1615 -0.0218  0.3562
  781MOL0     C 7697   6.588   0.695  10.704 -0.4680 -0.1788  0.0508
  781MOL0     C 7698   6.525   0.580  10.753 -0.1700 -0.3137 -1.0305
  781MOL0     O 7699   6.385   0.554  10.758  0.6583 -0.2327 -1.1752
  781MOL0     C 7700   6.295   0.660  10.735  0.6621  1.0361 -0.4126
  781MOL0     C 7701   6.147   0.619  10.736 -0.6921  1.0844 -1.2376
  781MOL0     C 7702   6.077   0.749  10.716  0.2002 -0.4888  0.2109
  781MOL0     C 7703   5.924   0.725  10.711  0.1179 -0.0702  0.3766
  781MOL0     C 7704   5.865   0.727  10.843 -0.2610 -0.3813 -0.2230
  781MOL0     C 7705   5.832   0.714  10.959  0.2485 -0.3140  0.2835
  781MOL0     C 7706   6.601   0.468  10.778  0.5674 -0.6474  0.3597
  781MOL0     C 7707   6.739   0.476  10.769  0.2077  0.4280  0.2014
  781MOL0     C 7708   6.803   0.351  10.807  0.1680  0.5718 -0.5627
  781MOL0     H 7709   7.165   0.798  10.869 -0.2660 -1.5474  0.5400
  781MOL0     H 7710   7.389   0.866  10.843 -0.9177  2.2504 -0.1106
  781MOL0     H 7711   7.594   0.686  10.496  0.5200 -0.0797  0.5582
  781MOL0     H 7712   7.569   0.650  10.664 -1.1363 -0.6150 -1.1607
  781MOL0     H 7713   7.797   0.631  10.591 -3.1612 -0.8471 -0.7954
  781MOL0     H 7714   7.797   0.809  10.544  0.8916  0.4545  0.0090
  781MOL0     H 7715   7.754   0.884  10.761  1.6995  0.4269  0.8812
  781MOL0     H 7716   7.755   0.716  10.833  0.8308 -0.8419 -1.0212
  781MOL0     H 7717   7.979   0.680  10.782  1.4910  0.4402  1.9591
  781MOL0     H 7718   8.004   0.843  10.711  1.0389 -0.2580  0.3329
  781MOL0     H 7719   7.949   0.949  10.934 -3.8546 -0.9839  2.3042
  781MOL0     H 7720   8.093   0.832  10.922  0.0794  2.4654 -3.6789
  781MOL0     H 7721   7.807   0.770  11.047 -0.1800 -1.0000 -0.2312
  781MOL0     H 7722   7.938   0.659  11.057  3.0647  0.0182 -1.1368
  781MOL0     H 7723   7.899   0.788  11.267 -0.3059 -2.1363 -1.0028
  781MOL0     H 7724   7.958   0.934  11.180 -0.9063  0.3283 -3.3960
  781MOL0     H 7725   8.105   0.660  11.184  0.0504  0.5411 -1.8539
  781MOL0     H 7726   8.173   0.808  11.133 -0.3473 -3.3942 -2.0232
  781MOL0     H 7727   8.027   0.702  11.497  0.6850 -1.6102  0.0953
  781MOL0     H 7728   8.202   0.801  11.750 -0.9868  0.4196  2.2165
  781MOL0     H 7729   8.030   0.832  11.712 -0.4542  0.2393  1.5267
  781MOL0     H 7730   8.232   1.054  11.733 -0.2396  1.3827  0.1812
  781MOL0     H 7731   8.051   1.062  11.725  0.4958 -1.3861 -1.3825
  781MOL0     H 7732   8.046   0.948  11.944 -0.2562  0.1950 -1.3062
  781MOL0     H 7733   8.227   0.967  11.947  0.5598  0.2332 -3.6080
  781MOL0     H 7734   8.178   1.217  11.967  0.6759 -0.3595 -0.6073
  781MOL0     H 7735   8.007   1.176  11.947 -0.4743 -0.8031 -1.2799
  781MOL0     H 7736   8.359   1.188  12.082 -2.5348  1.0771 -1.6640
  781MOL0     H 7737   8.593   1.359  12.282 -0.0966 -2.3686  2.9868
  781MOL0     H 7738   8.565   1.285  12.118  0.7234 -0.0633  0.0209
  781MOL0     H 7739   8.632   1.187  12.248  0.6936 -0.8707  0.1011
  781MOL0     H 7740   8.441   1.378  12.894  2.2322  2.6240 -2.0760
  781MOL0     H 7741   8.571   1.337  13.071  1.4582  0.7269 -0.0163
  781MOL0     H 7742   8.744   1.312  13.213 -1.2702  0.3367 -0.6688
  781MOL0     H 7743   8.665   1.148  13.228 -0.2396 -1.7594 -2.1033
  781MOL0     H 7744   8.845   1.187  13.390  5.5824  1.5363  0.9736
  781MOL0     H 7745   8.890   1.056  13.293  1.0740  0.5498 -0.0831
  781MOL0     H 7746   8.990   1.330  13.218  0.3814 -0.2643 -0.8107
  781MOL0     H 7747   9.042   1.174  13.158  1.4695  2.5386 -1.5201
  781MOL0     H 7748   9.130   1.127  13.387 -0.5208  0.5795  2.7773
  781MOL0     H 7749   9.055   1.260  13.454  0.0776  1.1290 -0.5832
  781MOL0     H 7750   9.281   1.277  13.245  2.5538  1.0110  0.5811
  781MOL0     H 7751   9.186   1.421  13.291  0.5422 -1.2484 -1.0204
  781MOL0     H 7752   9.343   1.222  13.468 -1.2055 -0.2803  1.3099
  781MOL0     H 7753   9.249   1.361  13.535 -0.2335  0.2857  0.3262
  781MOL0     H 7754   9.494   1.416  13.531  0.4896 -1.8811 -0.0024
  781MOL0     H 7755   9.377   1.531  13.455  0.7387  0.4798 -2.1611
  781MOL0     H 7756   9.577   1.520  13.325 -0.4897  1.8605 -1.3618
  781MOL0     H 7757   9.450   1.431  13.228  3.8155  1.7702 -1.9297
  781MOL0     H 7758   8.819   1.074  12.832 -0.7197 -2.2301  0.6551
  781MOL0     H 7759   8.645   1.096  12.651 -1.9584 -0.3846  0.2676
  781MOL0     H 7760   8.223   1.211  12.555 -0.2314 -1.9543 -0.3566
  781MOL0     H 7761   8.070   1.130  12.386  1.8141 -3.9530 -0.4495
  781MOL0     H 7762   7.373   0.779  10.418  3.7503 -0.1803  1.5234
  781MOL0     H 7763   7.134   0.716  10.444 -0.1291 -0.8877  0.6430
  781MOL0     H 7764   6.770   0.796  10.642  2.1974 -1.7772 -1.2457
  781MOL0     H 7765   6.533   0.782  10.670  0.9217  0.9281  0.5649
  781MOL0     H 7766   6.310   0.731  10.817  2.2388 -1.0060  1.1742
  781MOL0     H 7767   6.312   0.712  10.640 -1.6834  1.4453 -0.6724
  781MOL0     H 7768   6.131   0.570  10.833 -2.3685  0.9431 -1.5574
  781MOL0     H 7769   6.129   0.549  10.654  0.8837  0.8576 -1.4153
  781MOL0     H 7770   6.109   0.826  10.787 -0.5596 -1.7683  2.0162
  781MOL0     H 7771   6.112   0.800  10.626  0.6595  3.2750  2.3289
  781MOL0     H 7772   5.903   0.651  10.633 -0.1823  1.8745 -1.4896
  781MOL0     H 7773   5.894   0.822  10.670  0.1296 -0.8524 -1.5967
  781MOL0     H 7774   5.791   0.711  11.057 -0.4967 -0.9282 -0.0367
  781MOL0     H 7775   6.558   0.372  10.801 -0.6821  0.2593  2.0146
  781MOL0     H 7776   6.893   0.370  10.867  0.4043 -0.8955 -0.4015
  781MOL0     H 7777   6.737   0.301  10.879 -2.0429  0.3279 -2.6460
  781MOL0     H 7778   6.837   0.291  10.723  1.0545  2.2968 -1.4863
  782MOL0     O 7779   7.196  11.050  10.159 -0.0292  0.0840  0.1965
  782MOL0     C 7780   7.097  11.105  10.204 -0.4951 -0.3797 -0.0632
  782MOL0     O 7781   6.965  11.059  10.195 -0.5493  0.0028 -0.8916
  782MOL0     C 7782   6.959  10.926  10.182  0.2603 -0.3077  0.0208
  782MOL0     C 7783   6.936  10.846  10.294 -0.4008  0.7238 -0.1713
  782MOL0     C 7784   6.930  10.710  10.282 -0.6147 -0.1408 -0.1776
  782MOL0     C 7785   6.961  10.654  10.159  0.4522  0.1162 -0.7176
  782MOL0     O 7786   6.951  10.524  10.141 -0.2014  0.0456 -0.2304
  782MOL0     C 7787   6.974  10.461  10.011  0.0634  0.7687  0.0226
  782MOL0     C 7788   7.012  10.318  10.047  0.4927 -0.4835 -0.5734
  782MOL0     C 7789   6.962  10.202   9.954  0.0717  0.2351 -0.0455
  782MOL0     C 7790   7.000  10.072  10.024  0.7443  0.5051  0.2529
  782MOL0     C 7791   6.971   9.951   9.925 -0.1211 -0.4072 -0.5063
  782MOL0     C 7792   6.937   9.828  10.012  0.7533  0.4050  0.0678
  782MOL0     C 7793   6.899   9.699   9.930 -0.2042  0.3547  0.1614
  782MOL0     C 7794   6.764   9.700   9.850  0.2699 -0.0560  0.5140
  782MOL0     N 7795   6.648   9.732   9.941  1.0894  0.0076  0.1704
  782MOL0     C 7796   6.613   9.859   9.979  0.7763 -0.3605 -0.7219
  782MOL0     C 7797   6.536   9.837  10.094 -0.3336 -0.5638 -0.2163
  782MOL0     C 7798   6.486   9.952  10.176  0.8240 -0.5806  0.2105
  782MOL0     C 7799   6.481   9.936  10.329 -0.5567  0.7100 -0.4708
  782MOL0     C 7800   6.351  10.008  10.390  0.5559  0.9286  0.1634
  782MOL0     C 7801   6.351  10.158  10.408 -1.3337  0.6887 -0.3760
  782MOL0     O 7802   6.480  10.204  10.430 -1.0541 -0.0840 -0.5336
  782MOL0     C 7803   6.487  10.335  10.457  1.1715 -0.8714 -0.0087
  782MOL0     C 7804   6.374  10.422  10.464 -0.0304 -0.0502 -0.0575
  782MOL0     C 7805   6.382  10.564  10.483 -0.0381 -0.5618 -1.4544
  782MOL0     C 7806   6.242  10.631  10.494 -0.0345 -0.1332  0.1811
  782MOL0     C 7807   6.511  10.628  10.494 -0.5241  0.3960  0.1737
  782MOL0     C 7808   6.526  10.776  10.488 -0.0040 -0.3237 -0.6939
  782MOL0     O 7809   6.648  10.832  10.492  0.4649  0.3625  0.2667
  782MOL0     C 7810   6.645  10.965  10.480 -0.2571 -0.1822  0.4819
  782MOL0     C 7811   6.664  11.025  10.351 -0.8003  1.5727 -0.3072
  782MOL0     C 7812   6.648  11.166  10.336 -0.6205 -0.5532  0.4502
  782MOL0     C 7813   6.639  11.246  10.452  0.2053 -0.6006 -0.7547
  782MOL0     O 7814   6.632  11.382  10.433 -0.0094 -0.5654  0.0211
  782MOL0     C 7815   6.523  11.441  10.495  0.3854  0.7507  0.3944
  782MOL0     C 7816   6.550  11.590  10.495 -0.1161 -0.4099 -1.0280
  782MOL0     C 7817   6.556  11.666  10.372 -0.1040 -0.6290  0.4607
  782MOL0     C 7818   6.540  11.819  10.409 -1.3155 -0.6598  0.0308
  782MOL0     C 7819   6.564  11.907  10.284  0.4070 -0.1158 -0.8799
  782MOL0     C 7820   6.574  12.052  10.322  0.0999 -0.1395 -0.2241
  782MOL0     C 7821   6.556  12.150  10.203 -0.9399 -0.0027 -0.8806
  782MOL0     C 7822   6.582  12.292  10.253  0.5018 -0.8131  1.2748
  782MOL0    Cl 7823   6.454  12.357  10.363 -0.0559  0.3319 -0.0878
  782MOL0     C 7824   6.628  11.188  10.579 -0.1705 -0.2469  0.7368
  782MOL0     C 7825   6.631  11.050  10.599  0.5447 -0.5664  1.1822
  782MOL0     O 7826   6.422  10.841  10.473 -0.2019  0.1654 -0.4717
  782MOL0     C 7827   6.625  10.530  10.492 -0.7986  0.8615 -0.0563
  782MOL0     C 7828   6.611  10.394  10.474 -0.1566 -0.2798 -0.1413
  782MOL0     N 7829   6.531   9.703  10.112  0.3067  0.0762  0.0053
  782MOL0     N 7830   6.592   9.636  10.020 -0.2533 -0.2143 -0.6485
  782MOL0     C 7831   6.984  10.738  10.050 -0.1924 -0.6105 -0.3578
  782MOL0     C 7832   6.981  10.871  10.063  0.1521 -0.1278 -0.9077
  782MOL0     C 7833   7.116  11.243  10.257  0.2272 -0.2163 -0.4815
  782MOL0     C 7834   7.010  11.305  10.316  0.8117  0.4032  0.8173
  782MOL0     C 7835   7.021  11.421  10.393 -0.2793  0.2321  0.4532
  782MOL0     C 7836   7.138  11.495  10.401 -0.6171 -0.2522  0.3946
  782MOL0     O 7837   7.151  11.604  10.478  0.0536 -0.3915 -0.7746
  782MOL0     C 7838   7.047  11.699  10.480 -0.2821  0.3078 -0.3610
  782MOL0     C 7839   7.034  11.763  10.338 -0.2694 -0.2694  0.2308
  782MOL0     C 7840   6.960  11.899  10.333 -0.1793 -0.2237 -0.3535
  782MOL0     C 7841   6.951  11.952  10.195  0.0679 -1.0239 -0.4032
  782MOL0     C 7842   6.938  12.100  10.189 -0.5538 -0.5159  0.7148
  782MOL0     C 7843   6.939  12.218  10.172  0.0632 -0.2631  0.6333
  782MOL0     C 7844   7.255  11.448  10.323 -0.2219 -0.0099  0.1969
  782MOL0     C 7845   7.240  11.319  10.266 -0.6754 -0.5726 -0.4824
  782MOL0     C 7846   7.361  11.262  10.197  0.0583 -0.3564  0.0923
  782MOL0     H 7847   6.917  10.881  10.395  0.7347  0.0114  0.3007
  782MOL0     H 7848   6.895  10.636  10.353  0.4150 -1.9115 -1.4266
  782MOL0     H 7849   7.055  10.502   9.951  2.1837  1.4246  3.0876
  782MOL0     H 7850   6.884  10.450   9.950  2.0326 -1.8120 -2.7149
  782MOL0     H 7851   7.121  10.311  10.055  0.4143  0.4145  2.9796
  782MOL0     H 7852   6.965  10.287  10.141  0.6148 -0.2756 -0.4442
  782MOL0     H 7853   6.856  10.202   9.926 -0.7378  0.3248  2.7563
  782MOL0     H 7854   7.021  10.204   9.861  1.4445 -1.2709  0.7512
  782MOL0     H 7855   7.106  10.085  10.046  1.2946  1.8577 -2.6680
  782MOL0     H 7856   6.944  10.046  10.115  0.9859 -2.3816 -0.3102
  782MOL0     H 7857   7.059   9.923   9.867  0.9968  0.3517  0.7511
  782MOL0     H 7858   6.889   9.978   9.858  1.7170  2.4682 -1.8077
  782MOL0     H 7859   7.025   9.813  10.075  1.3515  0.4636 -0.7465
  782MOL0     H 7860   6.852   9.855  10.075 -0.0923 -0.7902 -0.5092
  782MOL0     H 7861   6.910   9.609   9.993  2.3431 -0.5384 -1.4116
  782MOL0     H 7862   6.973   9.698   9.849 -0.2299  3.5328  0.0036
  782MOL0     H 7863   6.770   9.778   9.774  3.4184  0.0811  0.7827
  782MOL0     H 7864   6.747   9.604   9.800 -1.9337  0.9915 -0.8663
  782MOL0     H 7865   6.651   9.954   9.943  0.0164 -0.5212 -2.0168
  782MOL0     H 7866   6.387   9.973  10.136  1.6139  0.5420 -1.2501
  782MOL0     H 7867   6.538  10.046  10.156 -3.0530  1.6081 -0.6488
  782MOL0     H 7868   6.492   9.830  10.355  2.3033  0.4599 -2.2924
  782MOL0     H 7869   6.573   9.988  10.359 -0.9916  1.2167 -0.0048
  782MOL0     H 7870   6.258   9.984  10.337  2.2523 -2.0083 -1.7788
  782MOL0     H 7871   6.332   9.957  10.484 -3.4387 -1.6288 -1.7299
  782MOL0     H 7872   6.316  10.204  10.315  1.1572  1.1949 -1.1430
  782MOL0     H 7873   6.289  10.191  10.492 -0.6509 -1.0290  0.8678
  782MOL0     H 7874   6.272  10.384  10.460 -1.1236  2.5562  0.7409
  782MOL0     H 7875   6.153  10.569  10.483 -2.0185  1.9372  3.0142
  782MOL0     H 7876   6.224  10.712  10.424 -0.5106  0.5019  1.0145
  782MOL0     H 7877   6.230  10.681  10.591 -1.6164  3.8443 -1.8598
  782MOL0     H 7878   6.675  10.971  10.257  1.0472  0.5643  0.4390
  782MOL0     H 7879   6.645  11.215  10.240  6.3389  0.9865  0.5005
  782MOL0     H 7880   6.424  11.428  10.449 -0.0557  0.1726  1.4975
  782MOL0     H 7881   6.515  11.412  10.600  0.9754  3.2405  1.1994
  782MOL0     H 7882   6.475  11.637  10.558  1.8063  1.4286  0.0328
  782MOL0     H 7883   6.649  11.595  10.542  0.0308  0.9177 -1.4495
  782MOL0     H 7884   6.486  11.634  10.294  0.6663 -0.2651 -0.4002
  782MOL0     H 7885   6.654  11.657  10.324  1.0259  0.7737  2.3835
  782MOL0     H 7886   6.617  11.841  10.484  0.1701 -4.0853 -0.2950
  782MOL0     H 7887   6.439  11.826  10.449 -2.1334 -1.1941 -1.8407
  782MOL0     H 7888   6.644  11.876  10.216  1.2389 -0.0414  0.0381
  782MOL0     H 7889   6.476  11.887  10.223  0.8611 -2.5467 -0.8434
  782MOL0     H 7890   6.669  12.062  10.376 -0.9137 -0.7310  1.7714
  782MOL0     H 7891   6.492  12.076  10.390  0.2299 -0.5768  0.0906
  782MOL0     H 7892   6.457  12.139  10.159 -3.0085  3.2122  2.4238
  782MOL0     H 7893   6.631  12.121  10.129  1.1606 -0.4558  1.2870
  782MOL0     H 7894   6.587  12.356  10.164 -2.4440  0.0489  1.6119
  782MOL0     H 7895   6.673  12.315  10.308  0.5088 -3.1070  2.3192
  782MOL0     H 7896   6.607  11.251  10.665  0.1456 -1.3076  1.6142
  782MOL0     H 7897   6.611  11.007  10.697 -4.3910 -1.0712  0.1919
  782MOL0     H 7898   6.728  10.563  10.496 -1.1054  1.7399  2.0627
  782MOL0     H 7899   6.694  10.323  10.477  0.7358  0.7472 -0.1716
  782MOL0     H 7900   7.021  10.704   9.953 -0.8133 -0.5059 -0.6330
  782MOL0     H 7901   6.995  10.922   9.969 -0.7855  0.7905 -0.5741
  782MOL0     H 7902   6.918  11.247  10.306  2.4541 -1.9729 -2.7355
  782MOL0     H 7903   6.932  11.461  10.439 -0.5991  1.4822 -1.1540
  782MOL0     H 7904   6.950  11.663  10.515 -0.0452  1.7212  1.9950
  782MOL0     H 7905   7.077  11.778  10.549 -2.0466  1.5009 -0.8788
  782MOL0     H 7906   6.992  11.691  10.267  1.5164 -0.1281 -1.0379
  782MOL0     H 7907   7.137  11.775  10.303 -1.4077  1.6595 -2.9291
  782MOL0     H 7908   6.861  11.869  10.368  0.0057 -1.2655 -0.6797
  782MOL0     H 7909   6.995  11.969  10.409 -0.7417 -3.5137  3.2205
  782MOL0     H 7910   6.867  11.904  10.145 -1.2701  0.0391  0.7061
  782MOL0     H 7911   7.037  11.932  10.132 -0.0903 -1.1698 -0.5714
  782MOL0     H 7912   6.949  12.324  10.166 -0.8724 -0.1303  1.3620
  782MOL0     H 7913   7.345  11.508  10.329 -0.6408  0.5410  1.0123
  782MOL0     H 7914   7.347  11.258  10.089 -0.2689  1.3539  0.0447
  782MOL0     H 7915   7.438  11.338  10.217 -3.2490  3.2909  0.0805
  782MOL0     H 7916   7.385  11.164  10.239  0.3572  0.4063  1.7954
  783MOL0     O 7917   0.300   1.895   8.857  0.7758 -0.0103  0.4122
  783MOL0     C 7918   0.252   1.795   8.808  0.7654  0.5202 -0.5928
  783MOL0     O 7919   0.316   1.708   8.731  0.2269 -0.3278 -0.4530
  783MOL0     C 7920   0.446   1.735   8.696  0.5699  0.6532 -0.0215
  783MOL0     C 7921   0.485   1.796   8.578 -0.2025  0.0277 -0.6562
  783MOL0     C 7922   0.621   1.819   8.555 -0.1182 -1.1165 -0.6738
  783MOL0     C 7923   0.721   1.763   8.641  0.0924 -0.0526  0.5761
  783MOL0     O 7924   0.859   1.782   8.621  0.0539 -0.0465 -0.3102
  783MOL0     C 7925   0.895   1.876   8.515 -0.6934  0.9087  0.0939
  783MOL0     C 7926   1.054   1.902   8.528  0.6494 -0.2828 -0.2613
  783MOL0     C 7927   1.143   1.783   8.514 -0.4219 -0.7802 -1.1115
  783MOL0     C 7928   1.295   1.820   8.511  0.1852  0.0412 -0.4891
  783MOL0     C 7929   1.353   1.828   8.654 -0.2588 -0.0337 -0.4350
  783MOL0     C 7930   1.506   1.862   8.643 -0.1738 -0.7155  0.4872
  783MOL0     C 7931   1.582   1.857   8.776 -0.3060  0.3803 -0.4584
  783MOL0     C 7932   1.630   1.708   8.809  0.1711  0.3486 -0.2313
  783MOL0     N 7933   1.737   1.711   8.912 -0.0971 -0.7753  0.2368
  783MOL0     C 7934   1.874   1.693   8.889 -0.3080  0.5577  0.1575
  783MOL0     C 7935   1.929   1.679   9.011 -0.4181  0.3250  0.2509
  783MOL0     C 7936   2.073   1.673   9.037  0.4016 -0.0025 -1.4719
  783MOL0     C 7937   2.114   1.527   9.060 -0.3282 -0.1120  0.3266
  783MOL0     C 7938   2.064   1.444   9.180  0.1958  0.2433  0.1444
  783MOL0     C 7939   2.137   1.499   9.305  0.6713 -0.1509 -0.6489
  783MOL0     O 7940   2.099   1.424   9.422 -0.1170  0.3113 -0.3284
  783MOL0     C 7941   2.172   1.433   9.534  0.2879 -0.2092  0.8228
  783MOL0     C 7942   2.260   1.542   9.552 -0.0842 -0.2138  0.8076
  783MOL0     C 7943   2.346   1.542   9.665  0.7549  0.1551 -0.4437
  783MOL0     C 7944   2.437   1.656   9.686 -0.2197 -0.3844  0.3572
  783MOL0     C 7945   2.335   1.437   9.761  0.5101  0.3859 -0.1817
  783MOL0     C 7946   2.440   1.421   9.871 -0.5446 -0.1082  0.0743
  783MOL0     O 7947   2.405   1.348   9.985  0.1829 -0.1785 -0.3212
  783MOL0     C 7948   2.466   1.370  10.100 -0.2854  0.3581 -0.6164
  783MOL0     C 7949   2.523   1.495  10.136 -0.3572  0.3556 -0.2364
  783MOL0     C 7950   2.598   1.510  10.256  0.0333  0.1310  0.3050
  783MOL0     C 7951   2.604   1.405  10.348 -0.1693 -1.0059  0.1136
  783MOL0     O 7952   2.677   1.428  10.462  0.8749  0.4539  0.3227
  783MOL0     C 7953   2.722   1.313  10.532 -1.1082 -0.0858 -0.2474
  783MOL0     C 7954   2.685   1.320  10.680 -0.5733  0.3957  0.5436
  783MOL0     C 7955   2.536   1.300  10.697  0.3574  0.4458  0.5450
  783MOL0     C 7956   2.506   1.249  10.836  0.0514 -1.4051  0.3809
  783MOL0     C 7957   2.354   1.264  10.868 -0.5479 -0.5840  0.4210
  783MOL0     C 7958   2.302   1.191  10.985 -0.5566 -0.0967  0.1187
  783MOL0     C 7959   2.154   1.193  10.976  0.6912 -0.9556  0.9682
  783MOL0     C 7960   2.092   1.080  11.058  0.0348 -0.3699  0.0487
  783MOL0    Cl 7961   1.920   1.094  11.056 -0.1039  0.1567 -0.0086
  783MOL0     C 7962   2.533   1.288  10.313 -0.3006 -0.6085 -0.9214
  783MOL0     C 7963   2.463   1.270  10.192 -0.3033  0.3292  0.7162
  783MOL0     O 7964   2.550   1.451   9.845 -0.4673  0.6301 -0.3861
  783MOL0     C 7965   2.245   1.330   9.743  0.6522 -0.4601 -0.6818
  783MOL0     C 7966   2.162   1.334   9.625  0.5048  0.4229  0.0810
  783MOL0     N 7967   1.831   1.685   9.105  0.8672  0.0636 -0.2625
  783MOL0     N 7968   1.720   1.716   9.044  0.1303  0.3576 -0.5720
  783MOL0     C 7969   0.681   1.694   8.751 -0.1284  0.3147  0.5678
  783MOL0     C 7970   0.548   1.688   8.781  0.2281 -0.2826  0.7656
  783MOL0     C 7971   0.116   1.751   8.848  0.2944 -0.6006 -0.0901
  783MOL0     C 7972   0.066   1.635   8.780 -0.4217  0.2914 -0.7522
  783MOL0     C 7973  -0.064   1.603   8.802 -0.1520 -0.7780 -0.4904
  783MOL0     C 7974  -0.137   1.662   8.907  1.1433 -0.2197  0.4058
  783MOL0     O 7975  -0.268   1.630   8.944 -0.1681  0.0266  0.6606
  783MOL0     C 7976  -0.356   1.546   8.856 -0.2098  0.0305  0.7906
  783MOL0     C 7977  -0.465   1.491   8.942 -0.1808 -0.1983 -0.0758
  783MOL0     C 7978  -0.416   1.395   9.057 -0.9068  0.3450  0.8581
  783MOL0     C 7979  -0.462   1.426   9.199  0.1291 -0.9844  0.3330
  783MOL0     C 7980  -0.599   1.363   9.221  0.5050  0.5436 -0.0162
  783MOL0     C 7981  -0.708   1.310   9.246  0.1008  0.6319 -0.5909
  783MOL0     C 7982  -0.089   1.763   8.982 -0.9819 -0.2608 -0.4698
  783MOL0     C 7983   0.041   1.812   8.949 -0.3665  1.1447 -0.3247
  783MOL0     C 7984   0.084   1.940   9.027 -0.3968  0.9835 -0.1807
  783MOL0     H 7985   0.407   1.821   8.507 -0.8907  1.4415  0.5619
  783MOL0     H 7986   0.642   1.873   8.464 -0.7613  1.7624  0.7817
  783MOL0     H 7987   0.845   1.972   8.527  0.2443  1.6403 -1.5790
  783MOL0     H 7988   0.870   1.833   8.418 -1.3417 -0.7642  0.9430
  783MOL0     H 7989   1.082   1.965   8.444  0.9298 -1.1096 -0.7971
  783MOL0     H 7990   1.063   1.956   8.623 -1.7201 -0.7236  0.2971
  783MOL0     H 7991   1.126   1.709   8.593  1.2280  1.5173  1.5760
  783MOL0     H 7992   1.121   1.739   8.416 -0.7014  2.5122 -2.6423
  783MOL0     H 7993   1.345   1.745   8.449  2.0439  0.2304  0.7235
  783MOL0     H 7994   1.300   1.913   8.454  0.4057 -0.3550 -1.1330
  783MOL0     H 7995   1.329   1.744   8.720  1.8973 -1.6732 -1.6142
  783MOL0     H 7996   1.306   1.909   8.711 -0.6912 -0.8542  0.4064
  783MOL0     H 7997   1.552   1.792   8.572  1.0648  0.2230  0.3416
  783MOL0     H 7998   1.517   1.965   8.608 -1.2924 -0.9140 -0.5133
  783MOL0     H 7999   1.525   1.891   8.864 -1.0844 -4.0175  1.0018
  783MOL0     H 8000   1.669   1.921   8.762 -0.6336  1.1920  0.9643
  783MOL0     H 8001   1.548   1.644   8.842  1.1484  0.1825  2.0596
  783MOL0     H 8002   1.660   1.669   8.711 -0.6848  1.8253 -1.1163
  783MOL0     H 8003   1.930   1.690   8.797  0.4362 -0.4805  0.6267
  783MOL0     H 8004   2.100   1.720   9.132 -0.6824 -0.2323 -1.0357
  783MOL0     H 8005   2.128   1.725   8.959 -1.9751  0.6575 -2.8179
  783MOL0     H 8006   2.090   1.483   8.963 -0.4353 -1.7084  1.0428
  783MOL0     H 8007   2.224   1.525   9.064 -0.2875  2.0401  2.7968
  783MOL0     H 8008   1.959   1.464   9.204 -0.8232 -2.1248 -1.8357
  783MOL0     H 8009   2.084   1.338   9.162 -2.5809  0.0679 -2.9338
  783MOL0     H 8010   2.245   1.488   9.293  0.7483 -1.8560  1.1198
  783MOL0     H 8011   2.111   1.604   9.322 -1.2785 -0.6874 -0.0946
  783MOL0     H 8012   2.257   1.629   9.487 -0.8918 -0.7004  0.1645
  783MOL0     H 8013   2.404   1.738   9.621 -0.9519  0.3444  1.6058
  783MOL0     H 8014   2.540   1.621   9.673 -0.2450 -0.9927  1.6775
  783MOL0     H 8015   2.430   1.699   9.786  3.3635  0.5150  0.3447
  783MOL0     H 8016   2.518   1.584  10.075  1.2588  2.3605  2.3107
  783MOL0     H 8017   2.649   1.605  10.265  1.9549 -0.5287 -2.2912
  783MOL0     H 8018   2.707   1.215  10.486  3.7461 -1.1400 -0.0313
  783MOL0     H 8019   2.831   1.308  10.532 -1.0910 -0.2170  1.3368
  783MOL0     H 8020   2.743   1.244  10.734  0.2377 -0.9379 -2.0391
  783MOL0     H 8021   2.715   1.416  10.724  2.0328  1.2242 -2.6629
  783MOL0     H 8022   2.502   1.228  10.622  0.8333  2.4114 -1.6635
  783MOL0     H 8023   2.484   1.395  10.683 -1.2396 -0.2541  1.4770
  783MOL0     H 8024   2.558   1.311  10.909  0.2147  0.7034 -1.4134
  783MOL0     H 8025   2.542   1.147  10.853  0.5879 -0.8722  2.7664
  783MOL0     H 8026   2.326   1.369  10.880 -0.5706 -0.7094  1.5349
  783MOL0     H 8027   2.305   1.228  10.777 -1.0322 -0.7528  0.7485
  783MOL0     H 8028   2.321   1.221  11.088  1.3756  0.0577 -0.2514
  783MOL0     H 8029   2.333   1.087  10.985  3.1008  0.8110  2.3491
  783MOL0     H 8030   2.127   1.183  10.871  2.5959  0.8331  0.2352
  783MOL0     H 8031   2.119   1.292  11.007  1.6677 -0.1324 -0.4290
  783MOL0     H 8032   2.124   1.102  11.161 -4.5187 -0.7336  1.8181
  783MOL0     H 8033   2.131   0.981  11.036  0.9711  0.0601 -0.2438
  783MOL0     H 8034   2.527   1.196  10.369  2.4164 -1.6024 -2.0843
  783MOL0     H 8035   2.419   1.174  10.169 -0.8893  0.4067  1.4665
  783MOL0     H 8036   2.233   1.243   9.807 -0.9043 -1.2126 -1.9025
  783MOL0     H 8037   2.097   1.248   9.609  0.4644  0.3083  0.8552
  783MOL0     H 8038   0.755   1.665   8.826  0.7690  1.7109  0.2636
  783MOL0     H 8039   0.522   1.661   8.883 -3.1675 -1.0766 -0.1891
  783MOL0     H 8040   0.124   1.596   8.697 -0.8385 -1.0146 -0.4589
  783MOL0     H 8041  -0.106   1.531   8.733  2.3416  0.3349 -3.3703
  783MOL0     H 8042  -0.394   1.621   8.787  0.5300 -1.9351 -1.9230
  783MOL0     H 8043  -0.311   1.465   8.798  0.3382  1.6441 -1.1495
  783MOL0     H 8044  -0.536   1.438   8.878 -0.9303 -0.7182  1.1394
  783MOL0     H 8045  -0.518   1.574   8.990  0.4870  0.4533 -0.4528
  783MOL0     H 8046  -0.430   1.291   9.026 -2.9950  0.8022  0.0822
  783MOL0     H 8047  -0.308   1.408   9.065 -0.4711 -2.1428 -0.1431
  783MOL0     H 8048  -0.478   1.534   9.210 -1.7432 -0.9025 -2.3693
  783MOL0     H 8049  -0.388   1.385   9.269  2.6716  3.2449  0.5244
  783MOL0     H 8050  -0.796   1.255   9.272  0.8517 -0.0932  0.4988
  783MOL0     H 8051  -0.141   1.824   9.055 -0.3882 -0.7106  0.3542
  783MOL0     H 8052   0.015   1.957   9.110 -2.1296  1.8418 -1.7178
  783MOL0     H 8053   0.188   1.929   9.061 -0.9561 -0.2439  1.2051
  783MOL0     H 8054   0.081   2.030   8.964 -0.7200  1.0405 -0.0841
  784MOL0     O 8055   6.678   4.915  11.320  0.5942 -0.3647  0.0335
  784MOL0     C 8056   6.589   4.983  11.266  0.5770  0.7193 -0.6996
  784MOL0     O 8057   6.584   5.017  11.132  0.1533 -0.2052 -0.2043
  784MOL0     C 8058   6.715   5.010  11.072 -0.5539 -0.0548 -0.4370
  784MOL0     C 8059   6.815   5.099  11.106 -0.5811  0.3717 -0.5243
  784MOL0     C 8060   6.943   5.091  11.047  0.6494 -0.1328 -0.3080
  784MOL0     C 8061   6.953   4.998  10.938  0.2943  0.2493  0.4524
  784MOL0     O 8062   7.084   4.978  10.884  0.3814  0.3176  0.3789
  784MOL0     C 8063   7.090   4.903  10.764 -0.1009 -0.7407  0.1270
  784MOL0     C 8064   7.237   4.877  10.714 -0.1021 -0.2832 -0.2194
  784MOL0     C 8065   7.288   4.997  10.650 -0.2464 -0.4337 -0.4895
  784MOL0     C 8066   7.337   5.106  10.745  0.8160  0.7641  0.7505
  784MOL0     C 8067   7.427   5.213  10.679  0.3857 -0.1585  0.8978
  784MOL0     C 8068   7.463   5.316  10.787  0.6279  0.5426  0.6086
  784MOL0     C 8069   7.549   5.428  10.730 -0.2179 -0.1984 -0.1681
  784MOL0     C 8070   7.590   5.522  10.839 -0.3273 -0.1164 -0.6671
  784MOL0     N 8071   7.691   5.612  10.781 -0.1415 -0.6104 -0.4310
  784MOL0     C 8072   7.829   5.580  10.783  0.0123 -0.6409 -0.2748
  784MOL0     C 8073   7.882   5.694  10.722 -0.5556  1.2118 -0.8866
  784MOL0     C 8074   8.033   5.696  10.692 -0.6992 -0.0165  0.4978
  784MOL0     C 8075   8.118   5.751  10.799  0.5503  0.8837 -1.2050
  784MOL0     C 8076   8.097   5.905  10.798  0.2770 -0.4460  0.5929
  784MOL0     C 8077   8.157   5.960  10.931  0.1447 -0.0312  0.2040
  784MOL0     O 8078   8.285   5.918  10.969 -0.0365 -0.1296  0.2697
  784MOL0     C 8079   8.368   6.000  11.041  0.5004  1.0113  0.2617
  784MOL0     C 8080   8.325   6.120  11.108 -0.6523 -0.1554 -0.3261
  784MOL0     C 8081   8.413   6.181  11.193 -1.4214  0.4235 -0.0901
  784MOL0     C 8082   8.371   6.302  11.271  0.3964 -0.5577 -0.2549
  784MOL0     C 8083   8.548   6.129  11.213  0.0201 -0.4759  0.4131
  784MOL0     C 8084   8.638   6.191  11.312 -0.5737  0.6825 -0.4549
  784MOL0     O 8085   8.758   6.239  11.261 -0.1561  0.3448  0.2500
  784MOL0     C 8086   8.834   6.332  11.328  0.6411 -0.1608  0.2071
  784MOL0     C 8087   8.892   6.441  11.256  0.8253  0.4670 -0.0091
  784MOL0     C 8088   8.956   6.556  11.315  0.8089  0.6557 -1.0024
  784MOL0     C 8089   8.969   6.563  11.456 -0.4258  0.1118  0.2850
  784MOL0     O 8090   9.022   6.663  11.523  1.0847 -0.2475  0.3503
  784MOL0     C 8091   9.113   6.751  11.448  0.3206  0.4145  0.4391
  784MOL0     C 8092   9.200   6.827  11.546 -0.1196 -0.0080  1.0358
  784MOL0     C 8093   9.289   6.936  11.472 -0.9899 -0.0114  0.6915
  784MOL0     C 8094   9.368   7.028  11.564 -0.4985  0.3405 -0.0608
  784MOL0     C 8095   9.488   7.102  11.511 -0.3751  0.4227  0.4099
  784MOL0     C 8096   9.616   7.019  11.488  0.7137  0.1394  0.2810
  784MOL0     C 8097   9.682   7.006  11.624 -0.1709  0.3493  0.0821
  784MOL0     C 8098   9.775   7.124  11.662 -0.1833  0.2304  0.3111
  784MOL0    Cl 8099   9.927   7.129  11.555 -0.0797  0.3307  0.1848
  784MOL0     C 8100   8.915   6.457  11.531 -0.3375  0.4036  0.2659
  784MOL0     C 8101   8.844   6.347  11.466 -0.2835  0.0936 -0.5857
  784MOL0     O 8102   8.607   6.189  11.427 -0.2456 -0.7134 -0.5245
  784MOL0     C 8103   8.589   6.025  11.143  0.0827  0.3994  0.4551
  784MOL0     C 8104   8.500   5.960  11.056  0.5615  0.2535  0.2300
  784MOL0     N 8105   7.783   5.774  10.690 -0.1508 -0.0430  0.3667
  784MOL0     N 8106   7.669   5.727  10.722  0.4557  0.6578  0.4444
  784MOL0     C 8107   6.848   4.906  10.909 -0.2845 -0.8099  0.5768
  784MOL0     C 8108   6.734   4.907  10.981  1.1695 -0.2132 -0.2177
  784MOL0     C 8109   6.471   5.044  11.347 -0.1060 -0.2026 -0.8059
  784MOL0     C 8110   6.372   5.116  11.283  0.0310  0.3125  0.7554
  784MOL0     C 8111   6.270   5.175  11.353  0.4408  0.3696  0.4826
  784MOL0     C 8112   6.251   5.164  11.489 -0.0208  0.0324 -0.5362
  784MOL0     O 8113   6.142   5.212  11.562  0.1667 -0.2881  0.8349
  784MOL0     C 8114   6.062   5.118  11.641 -0.1928 -0.3633  0.5026
  784MOL0     C 8115   5.986   5.172  11.757 -0.8044  0.8386 -0.0472
  784MOL0     C 8116   5.891   5.287  11.722 -0.2883  0.4450  0.3958
  784MOL0     C 8117   5.805   5.330  11.842 -0.4619 -0.6380  0.3361
  784MOL0     C 8118   5.879   5.408  11.948  0.1003  0.2311 -0.5150
  784MOL0     C 8119   5.926   5.492  12.025  0.0419  1.5023  0.2287
  784MOL0     C 8120   6.351   5.090  11.559 -0.2461  0.6574  0.2357
  784MOL0     C 8121   6.462   5.036  11.491  0.2606  0.1161 -1.1407
  784MOL0     C 8122   6.561   4.967  11.583  0.3897 -0.2838  0.5975
  784MOL0     H 8123   6.784   5.171  11.181  2.5744  0.6030  0.7334
  784MOL0     H 8124   7.013   5.165  11.084 -2.4409  3.7189 -1.5615
  784MOL0     H 8125   7.030   4.946  10.683  1.3907  0.0915 -0.5658
  784MOL0     H 8126   7.053   4.801  10.777 -3.0457  0.2973  0.7083
  784MOL0     H 8127   7.299   4.859  10.803  2.1407  4.3693 -0.5531
  784MOL0     H 8128   7.238   4.791  10.646 -3.7001 -0.7174  0.1248
  784MOL0     H 8129   7.366   4.970  10.579  0.7687  1.1880 -0.0501
  784MOL0     H 8130   7.214   5.054  10.593  2.7744  1.5779 -2.7570
  784MOL0     H 8131   7.252   5.152  10.796 -0.5690 -0.9850  0.1350
  784MOL0     H 8132   7.402   5.057  10.818  1.2106 -0.7920 -0.5921
  784MOL0     H 8133   7.377   5.268  10.598  2.3003  0.3706 -0.0012
  784MOL0     H 8134   7.509   5.171  10.620 -0.2105  1.9994 -1.7067
  784MOL0     H 8135   7.370   5.355  10.829 -1.9814 -1.9743 -2.2819
  784MOL0     H 8136   7.525   5.266  10.861  1.2871  0.2547 -0.1238
  784MOL0     H 8137   7.499   5.484  10.650  3.2082  1.7091 -1.1616
  784MOL0     H 8138   7.638   5.378  10.691 -1.1591 -2.5211  0.4804
  784MOL0     H 8139   7.500   5.579  10.862 -1.2989 -1.0944 -1.9540
  784MOL0     H 8140   7.614   5.472  10.934 -1.1958 -1.9207 -1.3589
  784MOL0     H 8141   7.881   5.492  10.819  1.9424 -1.0632 -3.6649
  784MOL0     H 8142   8.047   5.756  10.601  1.6763 -0.8829  0.2224
  784MOL0     H 8143   8.075   5.596  10.678 -0.5206 -0.0787  1.4303
  784MOL0     H 8144   8.069   5.703  10.884  0.4852  0.7196 -1.3343
  784MOL0     H 8145   8.217   5.708  10.781  0.0029 -0.8803 -0.2591
  784MOL0     H 8146   8.148   5.958  10.718  0.0415 -0.3954  0.4758
  784MOL0     H 8147   7.992   5.935  10.792  0.9229  2.1787  0.8866
  784MOL0     H 8148   8.133   6.067  10.933 -0.1316 -0.0970  0.8496
  784MOL0     H 8149   8.103   5.930  11.021  0.5772  1.1828  0.9019
  784MOL0     H 8150   8.219   6.146  11.106 -0.3843  1.0631  0.4190
  784MOL0     H 8151   8.383   6.289  11.379 -0.9507  3.1874  0.5067
  784MOL0     H 8152   8.266   6.331  11.270 -0.3540 -2.8969  1.3903
  784MOL0     H 8153   8.428   6.393  11.249 -1.8266  0.9383 -0.1323
  784MOL0     H 8154   8.887   6.434  11.147 -0.5469 -2.8368  0.1386
  784MOL0     H 8155   9.002   6.627  11.247  1.4795 -1.6101 -3.0903
  784MOL0     H 8156   9.177   6.697  11.377  1.2491  2.0354 -0.0166
  784MOL0     H 8157   9.055   6.829  11.397 -1.7236 -0.9086  0.6119
  784MOL0     H 8158   9.140   6.884  11.618 -2.5534 -0.1004 -0.7854
  784MOL0     H 8159   9.268   6.753  11.589 -0.5156 -0.2733  1.2002
  784MOL0     H 8160   9.223   7.003  11.415  1.2452  0.6416 -1.2895
  784MOL0     H 8161   9.355   6.877  11.408 -0.9801  1.3332 -0.5849
  784MOL0     H 8162   9.398   6.965  11.648 -0.0880 -1.1229 -1.2575
  784MOL0     H 8163   9.297   7.101  11.603 -0.8537 -0.7799  1.4783
  784MOL0     H 8164   9.465   7.150  11.415 -2.4261 -0.9567  0.1555
  784MOL0     H 8165   9.512   7.181  11.582 -1.7026  1.8188 -0.6230
  784MOL0     H 8166   9.691   7.055  11.417  0.7314  5.1470  2.4227
  784MOL0     H 8167   9.579   6.921  11.458 -2.9779  2.0133 -2.1113
  784MOL0     H 8168   9.747   6.918  11.618  0.2432  0.6169  0.5322
  784MOL0     H 8169   9.607   6.984  11.701  0.7250  0.1373  0.9172
  784MOL0     H 8170   9.807   7.102  11.764 -2.7816  2.8644  1.8522
  784MOL0     H 8171   9.711   7.211  11.675  1.0572  0.8925  2.2502
  784MOL0     H 8172   8.941   6.445  11.636  1.0634 -5.0203 -0.3684
  784MOL0     H 8173   8.804   6.278  11.540 -0.9334  1.3954  0.3137
  784MOL0     H 8174   8.694   6.000  11.147 -0.0183  0.1500  2.0687
  784MOL0     H 8175   8.523   5.889  10.977 -1.8193 -0.4453  0.0753
  784MOL0     H 8176   6.856   4.834  10.828  1.2002  0.2500 -0.2728
  784MOL0     H 8177   6.664   4.824  10.972  1.1902 -0.2233 -0.2794
  784MOL0     H 8178   6.380   5.135  11.176 -3.0048  2.6960  0.8351
  784MOL0     H 8179   6.188   5.225  11.303 -1.2955 -1.6202  1.1553
  784MOL0     H 8180   6.003   5.073  11.561  0.8395 -1.8810  0.5523
  784MOL0     H 8181   6.136   5.045  11.676  1.3226 -0.4872 -2.6428
  784MOL0     H 8182   6.066   5.200  11.826  0.6634  0.0022 -1.3349
  784MOL0     H 8183   5.923   5.090  11.793 -0.3832 -2.1294 -5.0576
  784MOL0     H 8184   5.946   5.362  11.663  1.0770  0.0977  1.2118
  784MOL0     H 8185   5.822   5.254  11.643 -0.5038  0.3028  0.6415
  784MOL0     H 8186   5.750   5.247  11.886 -0.6936 -0.5816  0.1554
  784MOL0     H 8187   5.728   5.404  11.817 -1.0212  0.2311  3.9572
  784MOL0     H 8188   5.963   5.568  12.091 -1.1309  1.2587  1.2070
  784MOL0     H 8189   6.339   5.076  11.666 -0.8948 -1.8836 -0.1158
  784MOL0     H 8190   6.531   4.966  11.689  1.5690  3.1653  1.0734
  784MOL0     H 8191   6.570   4.864  11.546 -0.1560 -0.0608 -0.1715
  784MOL0     H 8192   6.654   5.022  11.571 -0.0908  0.4593  0.2301
  785MOL0     O 8193   5.386   0.823   5.837 -0.1860 -0.3973 -0.0688
  785MOL0     C 8194   5.362   0.788   5.723  0.3223 -0.4820  0.4150
  785MOL0     O 8195   5.415   0.683   5.660 -0.4722  0.3674  0.6062
  785MOL0     C 8196   5.508   0.605   5.734  0.3144 -0.1859  0.8264
  785MOL0     C 8197   5.640   0.635   5.713  0.3632 -0.2658 -0.3089
  785MOL0     C 8198   5.740   0.561   5.788  0.4544 -0.3576 -0.1194
  785MOL0     C 8199   5.700   0.448   5.866  0.0525 -2.0951  0.0318
  785MOL0     O 8200   5.795   0.373   5.927 -0.4296  0.1721 -0.3261
  785MOL0     C 8201   5.865   0.437   6.035 -0.6320  0.0621  0.5347
  785MOL0     C 8202   6.005   0.396   6.040  0.1609  0.3551  0.0715
  785MOL0     C 8203   6.093   0.413   5.918 -0.4133  0.5796 -0.1646
  785MOL0     C 8204   6.169   0.550   5.934  1.2350  0.8970  0.0590
  785MOL0     C 8205   6.228   0.576   5.801 -0.4228 -0.1456  0.2134
  785MOL0     C 8206   6.288   0.724   5.801  0.7765  0.4775 -0.4759
  785MOL0     C 8207   6.350   0.764   5.670  0.2521  0.6340 -0.5559
  785MOL0     C 8208   6.245   0.807   5.570 -0.0704  0.3227  0.2870
  785MOL0     N 8209   6.312   0.819   5.435  1.0749  0.0767  0.4030
  785MOL0     C 8210   6.286   0.735   5.329 -0.4965 -0.4351  0.3994
  785MOL0     C 8211   6.343   0.796   5.221 -0.6097 -0.3607  0.0074
  785MOL0     C 8212   6.356   0.763   5.071 -0.3360  0.0871  0.0205
  785MOL0     C 8213   6.484   0.699   5.011 -0.5630 -0.9980 -0.5513
  785MOL0     C 8214   6.476   0.698   4.859 -0.1030  0.0142  0.2891
  785MOL0     C 8215   6.362   0.601   4.804  0.2613  0.2797 -0.4754
  785MOL0     O 8216   6.396   0.461   4.808  0.7388 -0.1188 -0.1002
  785MOL0     C 8217   6.361   0.374   4.910  0.9873 -0.1835  0.2256
  785MOL0     C 8218   6.276   0.403   5.018 -0.6969  0.0787 -0.2087
  785MOL0     C 8219   6.244   0.309   5.118  0.7450  0.0822 -0.1874
  785MOL0     C 8220   6.167   0.357   5.237 -0.3173  1.3106 -0.1045
  785MOL0     C 8221   6.285   0.182   5.105  0.2352 -0.1169  0.0678
  785MOL0     C 8222   6.263   0.073   5.198 -0.4958  0.3582 -0.9913
  785MOL0     O 8223   6.353  -0.024   5.198  0.4022  0.0128  0.5045
  785MOL0     C 8224   6.373  -0.108   5.313 -0.4689  0.5475  0.5218
  785MOL0     C 8225   6.390  -0.249   5.300 -0.4596 -0.8642 -0.0405
  785MOL0     C 8226   6.402  -0.334   5.409  0.5230  0.1244 -0.1661
  785MOL0     C 8227   6.401  -0.284   5.540  0.5001  0.4287  0.4874
  785MOL0     O 8228   6.427  -0.382   5.636  0.6111  0.1522  0.0697
  785MOL0     C 8229   6.440  -0.343   5.779  0.0187  0.4925  0.9228
  785MOL0     C 8230   6.449  -0.482   5.846 -0.7467  0.0728 -0.1083
  785MOL0     C 8231   6.562  -0.568   5.796 -0.2074  0.2751  0.6335
  785MOL0     C 8232   6.583  -0.663   5.920  0.7626 -0.8346  0.6900
  785MOL0     C 8233   6.703  -0.754   5.890 -0.0495 -0.4695 -0.3597
  785MOL0     C 8234   6.718  -0.846   6.011 -0.5173  0.2591  0.2442
  785MOL0     C 8235   6.837  -0.933   5.996  0.1612  0.3329  0.2388
  785MOL0     C 8236   6.858  -1.038   6.118  0.8261  1.2026  0.6160
  785MOL0    Cl 8237   7.033  -1.096   6.122 -0.0382  0.2194  0.0338
  785MOL0     C 8238   6.373  -0.149   5.563 -0.2979 -0.5591  0.9468
  785MOL0     C 8239   6.379  -0.058   5.447 -0.6891  0.7023  0.2103
  785MOL0     O 8240   6.166   0.073   5.272  0.6822 -0.1518 -0.1049
  785MOL0     C 8241   6.373   0.153   5.000 -0.2670 -0.0859 -0.9615
  785MOL0     C 8242   6.413   0.254   4.904  0.3010 -0.2109  0.6619
  785MOL0     N 8243   6.407   0.909   5.267  0.1584 -0.2838 -0.2710
  785MOL0     N 8244   6.392   0.923   5.395 -0.6621 -0.2277  0.9161
  785MOL0     C 8245   5.563   0.418   5.886  0.2860 -0.4945  0.3946
  785MOL0     C 8246   5.471   0.501   5.822 -0.1285  0.3109  0.0573
  785MOL0     C 8247   5.254   0.867   5.654 -0.4310 -0.2374 -1.2746
  785MOL0     C 8248   5.143   0.917   5.728 -0.1198  0.2210 -0.3570
  785MOL0     C 8249   5.042   0.999   5.671 -0.4220  0.5588 -0.4719
  785MOL0     C 8250   5.054   1.027   5.530  0.1539 -1.0563  0.5002
  785MOL0     O 8251   4.985   1.122   5.457  0.6459 -0.0464  0.9610
  785MOL0     C 8252   4.875   1.192   5.518  1.0027 -0.9247  0.6973
  785MOL0     C 8253   4.869   1.340   5.465 -0.1959  0.0760  0.0991
  785MOL0     C 8254   4.989   1.413   5.509 -0.8146 -0.5266  0.7038
  785MOL0     C 8255   4.953   1.566   5.483  1.0312 -0.0802 -0.1665
  785MOL0     C 8256   4.954   1.608   5.345  0.2884  0.2896 -0.0045
  785MOL0     C 8257   4.978   1.638   5.226  0.2236 -0.2794  0.2098
  785MOL0     C 8258   5.156   0.970   5.467 -0.1396  0.2358 -0.3710
  785MOL0     C 8259   5.258   0.890   5.520 -0.6238 -0.2817  0.8030
  785MOL0     C 8260   5.351   0.819   5.411  1.0511 -0.9318 -0.1362
  785MOL0     H 8261   5.672   0.722   5.656 -1.0192  1.3160  1.2139
  785MOL0     H 8262   5.846   0.578   5.802  0.2438  2.2158 -1.1602
  785MOL0     H 8263   5.819   0.425   6.134  2.1663  2.0142  2.2234
  785MOL0     H 8264   5.854   0.544   6.015 -0.9959  0.2212  1.5147
  785MOL0     H 8265   6.048   0.451   6.124  2.2368 -1.7041  0.4713
  785MOL0     H 8266   5.996   0.291   6.066 -1.7856  0.6438  0.6800
  785MOL0     H 8267   6.159   0.326   5.913 -1.7350 -0.4544  0.0478
  785MOL0     H 8268   6.041   0.412   5.821  2.6719 -2.1346 -2.0180
  785MOL0     H 8269   6.092   0.626   5.949  1.3602  1.1646 -0.6388
  785MOL0     H 8270   6.242   0.556   6.015 -2.1138  3.9627  3.2155
  785MOL0     H 8271   6.153   0.562   5.722  1.6185  2.6928 -2.4743
  785MOL0     H 8272   6.314   0.511   5.783  0.2296  1.3023 -2.3071
  785MOL0     H 8273   6.202   0.785   5.830  2.2168  1.5265  2.0332
  785MOL0     H 8274   6.353   0.744   5.887  1.1317  2.6910 -1.2004
  785MOL0     H 8275   6.420   0.685   5.641 -0.8844 -0.4319 -0.4788
  785MOL0     H 8276   6.416   0.851   5.682 -0.9565  2.3511 -4.4395
  785MOL0     H 8277   6.167   0.732   5.560  0.6974 -0.1855 -3.4527
  785MOL0     H 8278   6.203   0.902   5.606 -0.0229 -0.4919  2.6519
  785MOL0     H 8279   6.233   0.641   5.332  0.1661 -0.9234 -1.7879
  785MOL0     H 8280   6.346   0.861   5.023  1.6801  0.9151  1.1687
  785MOL0     H 8281   6.266   0.709   5.041 -0.8338  1.8892 -1.9990
  785MOL0     H 8282   6.569   0.764   5.034 -1.0551  0.1435 -1.8093
  785MOL0     H 8283   6.492   0.595   5.044 -0.9801 -0.6594  0.6325
  785MOL0     H 8284   6.463   0.802   4.829  4.2461  0.6737  0.1123
  785MOL0     H 8285   6.572   0.668   4.816  0.3561  0.9644  0.6284
  785MOL0     H 8286   6.269   0.617   4.860  0.8160  0.5312  0.3902
  785MOL0     H 8287   6.344   0.628   4.700  1.3037 -0.5810 -0.8984
  785MOL0     H 8288   6.243   0.504   5.039  0.0879 -0.1466  2.4785
  785MOL0     H 8289   6.074   0.299   5.230  0.3783  0.2118 -0.4748
  785MOL0     H 8290   6.143   0.464   5.235  0.6160  1.5915  1.6493
  785MOL0     H 8291   6.216   0.339   5.333 -0.9473 -3.0137 -0.3855
  785MOL0     H 8292   6.396  -0.292   5.200  3.6116 -1.1642  0.1479
  785MOL0     H 8293   6.408  -0.441   5.395  0.2832  0.0728  0.1397
  785MOL0     H 8294   6.527  -0.281   5.799 -0.9524  1.4134  2.3856
  785MOL0     H 8295   6.343  -0.304   5.811 -0.5617 -0.0056 -0.1468
  785MOL0     H 8296   6.459  -0.464   5.954  4.8949  2.1008 -0.6480
  785MOL0     H 8297   6.356  -0.538   5.834  0.0425 -0.8822 -2.2288
  785MOL0     H 8298   6.653  -0.509   5.780  0.0594 -0.0924  0.7811
  785MOL0     H 8299   6.546  -0.626   5.704  2.3932 -0.6553  0.6761
  785MOL0     H 8300   6.499  -0.731   5.939 -0.1586  0.0816  0.0524
  785MOL0     H 8301   6.608  -0.608   6.011  3.1677 -1.2022  0.3020
  785MOL0     H 8302   6.691  -0.805   5.794 -0.7953 -1.4604  0.2448
  785MOL0     H 8303   6.791  -0.690   5.883 -1.4976  2.0166  2.0858
  785MOL0     H 8304   6.630  -0.908   6.031  0.0052 -0.0295  1.8287
  785MOL0     H 8305   6.735  -0.779   6.096  1.1582  1.1919 -0.7922
  785MOL0     H 8306   6.929  -0.876   5.984 -0.9287  1.8658 -1.4088
  785MOL0     H 8307   6.834  -0.992   5.903  0.1614 -2.7358  2.0373
  785MOL0     H 8308   6.786  -1.118   6.101  3.2007 -0.8621 -0.2834
  785MOL0     H 8309   6.832  -0.993   6.215  1.5151  1.0110  0.8958
  785MOL0     H 8310   6.377  -0.121   5.668 -0.1337 -1.2023  1.1165
  785MOL0     H 8311   6.358   0.049   5.452 -2.1237  0.4123  0.8366
  785MOL0     H 8312   6.402   0.051   4.976  0.0574  0.5904 -3.8929
  785MOL0     H 8313   6.473   0.225   4.818 -1.1826  0.4630 -0.6478
  785MOL0     H 8314   5.529   0.334   5.946 -1.3740 -1.1105 -1.3012
  785MOL0     H 8315   5.365   0.478   5.824 -0.4396  1.6769  1.2674
  785MOL0     H 8316   5.137   0.897   5.834 -2.1944  3.9264  0.3787
  785MOL0     H 8317   4.964   1.035   5.737  0.7977 -1.4803  2.2360
  785MOL0     H 8318   4.780   1.143   5.495  1.9951 -1.3539 -3.2599
  785MOL0     H 8319   4.878   1.201   5.627  0.6205 -0.3272  0.6624
  785MOL0     H 8320   4.781   1.382   5.515 -1.1792 -2.1868  0.3874
  785MOL0     H 8321   4.863   1.343   5.356  0.3304  0.9802  0.0777
  785MOL0     H 8322   5.015   1.393   5.614 -1.0650 -1.8910  0.5229
  785MOL0     H 8323   5.076   1.395   5.445 -2.8425 -0.7037 -2.2131
  785MOL0     H 8324   5.007   1.629   5.553 -0.0794 -0.6886  1.2986
  785MOL0     H 8325   4.848   1.581   5.510  1.2437  0.6066  0.2880
  785MOL0     H 8326   4.986   1.674   5.126  0.5243 -0.7951  0.0410
  785MOL0     H 8327   5.166   0.992   5.361 -1.2929  1.7750 -0.1867
  785MOL0     H 8328   5.449   0.814   5.458  1.4603  1.2555 -0.6433
  785MOL0     H 8329   5.314   0.719   5.387 -1.3009 -0.3632  0.7475
  785MOL0     H 8330   5.360   0.864   5.312  1.2619 -3.2200 -1.2306
  786MOL0     O 8331   7.983   8.761   4.155  1.3998  0.2134 -0.7699
  786MOL0     C 8332   8.024   8.648   4.118 -0.5103 -0.5665  0.1144
  786MOL0     O 8333   8.149   8.624   4.080 -0.0270 -0.4304 -0.0442
  786MOL0     C 8334   8.246   8.722   4.050 -0.5803  0.5463  0.3893
  786MOL0     C 8335   8.376   8.666   4.024 -0.2135 -0.1961 -0.0196
  786MOL0     C 8336   8.485   8.742   3.996  0.0332  0.3724 -0.7500
  786MOL0     C 8337   8.465   8.882   3.983 -0.5091 -0.4488  0.0332
  786MOL0     O 8338   8.582   8.950   3.949  0.0212  0.4681  0.0332
  786MOL0     C 8339   8.618   9.036   4.053 -0.0873 -0.7040 -0.3530
  786MOL0     C 8340   8.756   9.099   4.035  0.1728 -0.8664  0.7460
  786MOL0     C 8341   8.867   8.992   4.059 -0.4841  1.4086 -0.3380
  786MOL0     C 8342   9.008   9.060   4.031 -0.3565  0.5434  0.9085
  786MOL0     C 8343   9.128   8.967   4.033 -0.5349  0.4437  0.9092
  786MOL0     C 8344   9.133   8.868   4.150  0.1643  0.2019  0.3276
  786MOL0     C 8345   9.130   8.934   4.290 -0.9200  0.0339  0.2598
  786MOL0     C 8346   9.243   9.034   4.320  0.0078 -0.7404 -0.2769
  786MOL0     N 8347   9.357   8.958   4.376  0.1530  0.4802  0.0490
  786MOL0     C 8348   9.452   8.901   4.293  0.3459  0.1075 -0.1794
  786MOL0     C 8349   9.537   8.829   4.373  0.0647  0.4180  0.3946
  786MOL0     C 8350   9.670   8.769   4.332 -1.0018 -0.3110 -0.3449
  786MOL0     C 8351   9.772   8.764   4.439 -0.0443  0.5405  0.0683
  786MOL0     C 8352   9.917   8.765   4.390 -0.1190 -0.2146 -0.2758
  786MOL0     C 8353   9.971   8.619   4.356  1.3027  0.4470  0.1788
  786MOL0     O 8354  10.113   8.619   4.338  0.2205  0.4154  0.2748
  786MOL0     C 8355  10.183   8.514   4.384 -0.1408  0.7271 -0.7082
  786MOL0     C 8356  10.140   8.383   4.400  0.1058  0.1201 -0.1210
  786MOL0     C 8357  10.226   8.279   4.431 -0.6838  0.8708 -0.1210
  786MOL0     C 8358  10.161   8.145   4.437  0.6261  0.1547  0.1726
  786MOL0     C 8359  10.357   8.306   4.469 -0.3680 -0.5001  0.4445
  786MOL0     C 8360  10.459   8.202   4.510  0.1656 -0.5301 -0.3136
  786MOL0     O 8361  10.582   8.252   4.544 -0.2401  0.5908 -0.6824
  786MOL0     C 8362  10.682   8.161   4.575  0.3241 -0.0458  0.4655
  786MOL0     C 8363  10.745   8.078   4.485 -0.2179  0.1761 -0.4197
  786MOL0     C 8364  10.838   7.976   4.520  0.4443  0.9964  0.3701
  786MOL0     C 8365  10.878   7.966   4.654 -0.1086 -0.1365 -0.1064
  786MOL0     O 8366  10.968   7.878   4.701  0.5774 -0.5114 -0.0150
  786MOL0     C 8367  11.007   7.763   4.621 -0.5592  0.1099 -0.1725
  786MOL0     C 8368  11.095   7.659   4.694  0.2918  0.7721  0.6003
  786MOL0     C 8369  11.006   7.533   4.748 -0.5637  0.1108 -0.2378
  786MOL0     C 8370  10.906   7.584   4.858 -0.4906  0.3610  0.4237
  786MOL0     C 8371  10.856   7.470   4.946 -0.1256  0.1919  0.1936
  786MOL0     C 8372  10.746   7.526   5.034 -0.1026  0.0448  0.1275
  786MOL0     C 8373  10.663   7.407   5.093  0.0788 -0.3584 -0.6763
  786MOL0     C 8374  10.540   7.453   5.177  0.3584  0.1179  0.1216
  786MOL0    Cl 8375  10.579   7.512   5.339  0.0837  0.1211 -0.3854
  786MOL0     C 8376  10.823   8.058   4.750  0.3159  0.0430  0.3500
  786MOL0     C 8377  10.729   8.156   4.709  0.0164 -0.7433 -0.5538
  786MOL0     O 8378  10.436   8.081   4.504  0.0985  0.1252 -0.7671
  786MOL0     C 8379  10.401   8.442   4.458  0.7661  0.7555  0.1983
  786MOL0     C 8380  10.315   8.541   4.419 -0.3866 -0.7298  0.8205
  786MOL0     N 8381   9.496   8.838   4.504  0.8154  0.1358  0.6817
  786MOL0     N 8382   9.397   8.910   4.502 -0.0492  0.5533 -0.0513
  786MOL0     C 8383   8.341   8.940   4.005 -0.6294 -0.2643 -0.1671
  786MOL0     C 8384   8.237   8.856   4.047  0.9390 -0.0922 -0.3086
  786MOL0     C 8385   7.927   8.538   4.120  0.1206  0.0181 -0.1322
  786MOL0     C 8386   7.939   8.441   4.218  0.4201  0.1454 -0.9215
  786MOL0     C 8387   7.859   8.324   4.227  0.2752  0.1620  0.1183
  786MOL0     C 8388   7.738   8.326   4.152 -0.0815  0.0449 -0.8626
  786MOL0     O 8389   7.657   8.216   4.158  0.7921 -0.7370 -0.6357
  786MOL0     C 8390   7.536   8.209   4.079 -0.2803 -0.2803  0.3505
  786MOL0     C 8391   7.468   8.069   4.092 -0.7498  0.3593 -0.7147
  786MOL0     C 8392   7.383   8.032   3.973  0.5305 -0.8397 -0.6302
  786MOL0     C 8393   7.373   7.880   3.975  0.5064 -0.4035 -0.4205
  786MOL0     C 8394   7.491   7.807   3.936 -0.2485  0.4434  0.9818
  786MOL0     C 8395   7.598   7.749   3.911  0.0040 -0.0908  0.3270
  786MOL0     C 8396   7.722   8.425   4.059 -0.6262 -0.6448 -0.3842
  786MOL0     C 8397   7.811   8.531   4.039 -0.2679 -0.1165  0.2996
  786MOL0     C 8398   7.782   8.641   3.939 -0.0768 -0.3381 -0.4576
  786MOL0     H 8399   8.390   8.559   4.027  1.4887 -0.0383  3.7077
  786MOL0     H 8400   8.584   8.700   3.981 -0.4776 -1.6741  1.0356
  786MOL0     H 8401   8.631   8.983   4.148 -0.3950 -0.3582 -0.1182
  786MOL0     H 8402   8.543   9.113   4.069 -1.0835 -2.2065  3.1747
  786MOL0     H 8403   8.772   9.137   3.934  3.5050 -1.5324  0.9229
  786MOL0     H 8404   8.756   9.191   4.094 -1.2191 -0.4096  0.0765
  786MOL0     H 8405   8.864   8.937   4.154  1.6316 -0.6123 -1.3277
  786MOL0     H 8406   8.859   8.909   3.988  1.3418 -0.4131  1.4659
  786MOL0     H 8407   9.012   9.112   3.935  0.8064  1.9968  1.7092
  786MOL0     H 8408   9.027   9.134   4.109 -1.1419 -0.8990  2.5370
  786MOL0     H 8409   9.219   9.029   4.031  1.0122 -1.6884 -2.4492
  786MOL0     H 8410   9.140   8.907   3.943 -1.6280 -1.0774  1.7327
  786MOL0     H 8411   9.042   8.806   4.147 -1.2313  2.1920 -0.9077
  786MOL0     H 8412   9.225   8.809   4.145  2.2747  3.1983  1.4264
  786MOL0     H 8413   9.127   8.853   4.363 -2.2381 -1.4648 -1.3579
  786MOL0     H 8414   9.039   8.995   4.291 -1.8858 -1.1904 -2.6944
  786MOL0     H 8415   9.267   9.101   4.237 -1.2705  1.4401  1.0210
  786MOL0     H 8416   9.206   9.098   4.400  0.9665  0.0459 -0.4374
  786MOL0     H 8417   9.463   8.914   4.185 -0.1049  1.4977 -0.0886
  786MOL0     H 8418   9.710   8.832   4.252 -0.0569  0.6779  0.8557
  786MOL0     H 8419   9.665   8.667   4.293  2.3845 -0.4014 -0.7925
  786MOL0     H 8420   9.758   8.850   4.504 -3.7398 -0.3205  0.6697
  786MOL0     H 8421   9.750   8.685   4.512 -1.2210 -1.5222 -2.3564
  786MOL0     H 8422   9.939   8.834   4.308  1.7239 -1.6414 -1.0633
  786MOL0     H 8423   9.965   8.803   4.481 -0.8280  1.2852 -0.4997
  786MOL0     H 8424   9.950   8.549   4.437 -0.7912 -4.5247 -4.0897
  786MOL0     H 8425   9.915   8.578   4.271  0.5714  1.5847  0.0836
  786MOL0     H 8426  10.046   8.348   4.357  1.1192 -1.8165 -0.8867
  786MOL0     H 8427  10.052   8.153   4.432  0.6029  0.2750  0.7655
  786MOL0     H 8428  10.184   8.095   4.531  2.7291 -1.1008 -0.9293
  786MOL0     H 8429  10.201   8.083   4.356 -0.7121  1.1685 -1.3313
  786MOL0     H 8430  10.702   8.080   4.385 -1.0838  1.5221 -0.0389
  786MOL0     H 8431  10.863   7.906   4.441 -0.7884  0.3706  0.5145
  786MOL0     H 8432  10.921   7.713   4.577 -0.5153 -1.7300  1.6804
  786MOL0     H 8433  11.075   7.809   4.548 -1.0093  1.0843 -0.0035
  786MOL0     H 8434  11.170   7.618   4.626 -0.6760 -0.6993  0.3861
  786MOL0     H 8435  11.156   7.692   4.779  1.1623 -3.0123  1.6225
  786MOL0     H 8436  11.069   7.454   4.790 -2.0729  0.2400  2.5596
  786MOL0     H 8437  10.955   7.488   4.663 -0.7623 -2.5702  1.1962
  786MOL0     H 8438  10.816   7.629   4.813 -0.3328  1.6077  1.3150
  786MOL0     H 8439  10.956   7.655   4.924  1.6337 -0.5551 -0.1261
  786MOL0     H 8440  10.818   7.391   4.881 -0.0025 -0.9011  1.3955
  786MOL0     H 8441  10.939   7.433   5.008 -0.6446 -0.3480  0.5884
  786MOL0     H 8442  10.685   7.604   4.988  1.1769  1.4888  0.7697
  786MOL0     H 8443  10.800   7.577   5.115 -2.4476  0.5171  1.4750
  786MOL0     H 8444  10.729   7.344   5.154  0.6457  1.0594  0.2322
  786MOL0     H 8445  10.636   7.350   5.004  3.2893  2.3367 -3.6312
  786MOL0     H 8446  10.470   7.370   5.185 -0.9549  1.0945 -0.9275
  786MOL0     H 8447  10.480   7.533   5.132  0.4932  1.4216  2.1426
  786MOL0     H 8448  10.864   8.057   4.851  3.5925 -0.2825 -0.8810
  786MOL0     H 8449  10.691   8.215   4.792 -1.9245 -1.3555 -0.9635
  786MOL0     H 8450  10.504   8.469   4.478  1.0723  0.5126 -0.9596
  786MOL0     H 8451  10.357   8.640   4.405  0.6408 -1.2706 -0.0655
  786MOL0     H 8452   8.336   9.043   3.970  2.9765 -0.1790 -0.7843
  786MOL0     H 8453   8.144   8.907   4.069  1.2630  1.0368 -1.4485
  786MOL0     H 8454   8.015   8.440   4.295 -0.5004 -2.2036  0.0469
  786MOL0     H 8455   7.891   8.244   4.292 -1.8477 -0.7126  0.1877
  786MOL0     H 8456   7.460   8.279   4.115 -1.1166 -0.9040 -0.1651
  786MOL0     H 8457   7.551   8.223   3.972 -2.7649 -1.3358 -0.1982
  786MOL0     H 8458   7.402   8.066   4.179 -0.9691 -2.4490 -0.8879
  786MOL0     H 8459   7.551   7.999   4.101 -2.6550 -2.1112 -1.2051
  786MOL0     H 8460   7.286   8.081   3.988  0.4057 -1.8279  2.4790
  786MOL0     H 8461   7.434   8.058   3.879  2.2729 -1.3687  0.1222
  786MOL0     H 8462   7.289   7.850   3.912 -0.7723  2.0479 -0.0011
  786MOL0     H 8463   7.341   7.847   4.074 -2.1068 -0.4745 -1.2312
  786MOL0     H 8464   7.694   7.706   3.890 -0.6199 -0.7586 -1.3000
  786MOL0     H 8465   7.635   8.432   3.994 -1.3481 -0.8964  0.5356
  786MOL0     H 8466   7.873   8.667   3.884 -0.7898 -0.4317 -1.7218
  786MOL0     H 8467   7.705   8.623   3.863  0.5592  0.2246 -1.2561
  786MOL0     H 8468   7.739   8.725   3.996 -3.3583 -0.7534 -2.0534
  787MOL0     O 8469   6.443   2.753   5.821 -0.6947  0.5058 -0.2535
  787MOL0     C 8470   6.502   2.648   5.865  0.7099 -0.0540  0.2009
  787MOL0     O 8471   6.473   2.522   5.821  0.3054 -0.7311 -0.3168
  787MOL0     C 8472   6.406   2.514   5.699  0.6459 -0.2822 -0.2693
  787MOL0     C 8473   6.262   2.518   5.688 -0.2765  0.0476  0.3487
  787MOL0     C 8474   6.190   2.496   5.566 -0.6186  0.3530 -0.8103
  787MOL0     C 8475   6.264   2.486   5.449 -0.0953  0.1124  1.0686
  787MOL0     O 8476   6.193   2.489   5.323 -0.3805  0.0357  0.0916
  787MOL0     C 8477   6.267   2.510   5.206 -0.1594 -0.6265  0.4442
  787MOL0     C 8478   6.315   2.656   5.181 -0.0481 -0.1948 -1.0683
  787MOL0     C 8479   6.435   2.663   5.082 -0.3283 -0.6580  0.2193
  787MOL0     C 8480   6.557   2.701   5.154 -0.8873  0.1279 -0.3765
  787MOL0     C 8481   6.670   2.752   5.068  0.1671 -0.5994 -0.5752
  787MOL0     C 8482   6.706   2.641   4.967 -0.3109 -0.7568 -0.5733
  787MOL0     C 8483   6.841   2.681   4.893 -0.1795  0.2238 -0.5795
  787MOL0     C 8484   6.971   2.642   4.961 -0.1014 -0.2214  0.1263
  787MOL0     N 8485   7.080   2.677   4.874  0.0151  0.5595 -0.6158
  787MOL0     C 8486   7.115   2.806   4.831 -0.2404  0.2444  0.6575
  787MOL0     C 8487   7.213   2.798   4.740 -0.5418  0.2445  0.6979
  787MOL0     C 8488   7.286   2.917   4.688  0.2530 -0.6716 -0.8850
  787MOL0     C 8489   7.198   3.002   4.599 -0.1866 -0.7307 -0.7801
  787MOL0     C 8490   7.279   3.084   4.506  0.2712  0.2245 -0.7644
  787MOL0     C 8491   7.387   3.172   4.568  1.2551  0.0243 -0.0206
  787MOL0     O 8492   7.417   3.277   4.469  0.1083 -0.3828 -0.4651
  787MOL0     C 8493   7.538   3.335   4.482  0.2232  0.0191 -0.0892
  787MOL0     C 8494   7.614   3.337   4.598 -0.1750 -0.3848 -0.1087
  787MOL0     C 8495   7.729   3.412   4.612 -0.0155  0.4057 -0.6137
  787MOL0     C 8496   7.799   3.417   4.754  0.2500 -0.6113  0.5662
  787MOL0     C 8497   7.781   3.481   4.495  0.1548  0.2663  0.3087
  787MOL0     C 8498   7.907   3.561   4.484 -0.8769 -0.8184  0.2539
  787MOL0     O 8499   7.939   3.628   4.364  0.0936  1.2162 -0.0977
  787MOL0     C 8500   8.062   3.684   4.337  0.1780  0.1820  0.3555
  787MOL0     C 8501   8.189   3.680   4.397  0.1439  0.2828 -0.1402
  787MOL0     C 8502   8.299   3.745   4.342 -0.2923 -0.1662 -0.0060
  787MOL0     C 8503   8.295   3.816   4.223  0.1238  0.1530 -0.2112
  787MOL0     O 8504   8.405   3.876   4.165 -0.5579 -0.1496  0.0404
  787MOL0     C 8505   8.538   3.838   4.216  0.0427  0.0812  0.7802
  787MOL0     C 8506   8.624   3.822   4.080  0.2248  0.3724  0.1196
  787MOL0     C 8507   8.772   3.861   4.118 -0.0900 -1.0821  0.7866
  787MOL0     C 8508   8.864   3.870   3.990 -0.4685 -0.4163  0.5931
  787MOL0     C 8509   9.002   3.936   4.031 -0.5497 -0.2134  0.2971
  787MOL0     C 8510   9.114   3.916   3.931  0.1079  0.0234 -0.4103
  787MOL0     C 8511   9.092   4.002   3.814 -0.0242 -0.1659 -0.0265
  787MOL0     C 8512   9.200   3.979   3.699 -0.7154  0.4779 -0.1668
  787MOL0    Cl 8513   9.353   4.042   3.771 -0.4383  0.4625 -0.2727
  787MOL0     C 8514   8.166   3.834   4.173  0.2188 -0.0230  0.0276
  787MOL0     C 8515   8.057   3.772   4.234 -0.0678  0.1735 -0.1901
  787MOL0     O 8516   7.986   3.553   4.576 -0.1912  0.3622 -0.1573
  787MOL0     C 8517   7.701   3.481   4.379  0.9138  0.1276  0.2997
  787MOL0     C 8518   7.579   3.420   4.377  0.1563 -0.1833  0.0482
  787MOL0     N 8519   7.241   2.666   4.736  0.4175  0.2211 -0.0222
  787MOL0     N 8520   7.166   2.595   4.811  0.2270  0.6453  0.1777
  787MOL0     C 8521   6.410   2.477   5.460 -0.9605 -0.2428 -1.7374
  787MOL0     C 8522   6.470   2.491   5.585  0.4579  0.3280 -0.4983
  787MOL0     C 8523   6.590   2.655   5.985  1.0569 -0.7533  0.5757
  787MOL0     C 8524   6.616   2.550   6.067 -0.1731  0.5296 -0.6727
  787MOL0     C 8525   6.715   2.544   6.166 -0.8261  0.5108  0.6244
  787MOL0     C 8526   6.779   2.665   6.211 -0.0166  0.1306  0.6515
  787MOL0     O 8527   6.872   2.664   6.309 -0.3603 -0.0879  0.6121
  787MOL0     C 8528   6.870   2.783   6.399  0.5169  0.5648 -0.6394
  787MOL0     C 8529   6.973   2.753   6.514 -0.8316 -0.1636  0.0795
  787MOL0     C 8530   7.120   2.768   6.467 -0.2452 -0.0855  0.6251
  787MOL0     C 8531   7.229   2.729   6.578  0.0897 -0.1501  0.1872
  787MOL0     C 8532   7.216   2.827   6.688 -0.2536  0.3210 -0.1956
  787MOL0     C 8533   7.203   2.914   6.776  0.1183  0.2493 -0.1316
  787MOL0     C 8534   6.754   2.773   6.127 -0.6127 -0.8225 -0.3675
  787MOL0     C 8535   6.654   2.780   6.031  0.4794  0.8281  0.2125
  787MOL0     C 8536   6.636   2.915   5.969 -0.2509 -0.2000 -0.2409
  787MOL0     H 8537   6.207   2.529   5.781  0.9930 -2.3048  1.4849
  787MOL0     H 8538   6.082   2.488   5.571 -0.4889 -1.3818 -0.1739
  787MOL0     H 8539   6.199   2.492   5.122 -3.3996  1.3148  2.4505
  787MOL0     H 8540   6.346   2.437   5.189  1.4903  0.6931  1.9868
  787MOL0     H 8541   6.225   2.709   5.146  0.2242  0.8112 -0.2854
  787MOL0     H 8542   6.336   2.710   5.274 -0.7769  1.6814 -1.9295
  787MOL0     H 8543   6.437   2.568   5.028  3.1415 -0.6235  0.1039
  787MOL0     H 8544   6.404   2.741   5.012 -3.1195 -0.8923  1.0378
  787MOL0     H 8545   6.529   2.779   5.226  2.9862 -0.3773  1.9817
  787MOL0     H 8546   6.598   2.616   5.209 -0.3601  0.0461 -0.9001
  787MOL0     H 8547   6.762   2.784   5.118 -0.2782  1.9740 -1.2613
  787MOL0     H 8548   6.641   2.836   5.004 -0.1181 -1.5885 -1.7755
  787MOL0     H 8549   6.701   2.543   5.015  1.7501  0.3889  2.2633
  787MOL0     H 8550   6.632   2.643   4.886 -0.1365  1.6772 -0.7351
  787MOL0     H 8551   6.834   2.787   4.868 -1.8624  0.6724  1.5123
  787MOL0     H 8552   6.846   2.630   4.796  1.2189  0.1521 -0.4915
  787MOL0     H 8553   6.982   2.694   5.057  0.5735  0.9168 -0.5452
  787MOL0     H 8554   6.967   2.534   4.974  1.7335 -0.1627  1.7020
  787MOL0     H 8555   7.072   2.898   4.869 -3.1184 -0.8118  0.1491
  787MOL0     H 8556   7.379   2.899   4.633  0.4256 -0.5602 -0.6344
  787MOL0     H 8557   7.315   2.980   4.772  1.5658 -0.5726 -1.3905
  787MOL0     H 8558   7.129   2.938   4.544  1.4669 -1.8079 -1.6815
  787MOL0     H 8559   7.147   3.076   4.661  1.0932 -0.2982 -0.2119
  787MOL0     H 8560   7.328   3.010   4.442  4.0043  1.6318  0.1969
  787MOL0     H 8561   7.216   3.146   4.441  1.7550 -0.1849 -2.6839
  787MOL0     H 8562   7.361   3.225   4.660  3.5600 -2.3076  2.1231
  787MOL0     H 8563   7.470   3.108   4.597 -0.5249 -2.5757 -0.2974
  787MOL0     H 8564   7.585   3.289   4.692 -0.9581 -0.3230 -0.3159
  787MOL0     H 8565   7.818   3.523   4.773 -3.2689  0.9960 -3.2515
  787MOL0     H 8566   7.891   3.357   4.749 -0.6400 -2.2559  2.4047
  787MOL0     H 8567   7.739   3.376   4.836  0.2271 -2.2064 -0.1980
  787MOL0     H 8568   8.218   3.613   4.478 -1.2741 -0.9644 -0.6324
  787MOL0     H 8569   8.391   3.733   4.397  0.7458  0.9008 -1.4284
  787MOL0     H 8570   8.573   3.923   4.275 -0.5801  2.2548 -1.8302
  787MOL0     H 8571   8.557   3.747   4.274  0.3772 -0.3534  0.0066
  787MOL0     H 8572   8.613   3.717   4.051  0.2824 -0.4832  2.8780
  787MOL0     H 8573   8.583   3.888   4.003 -0.1611  0.4415  0.3806
  787MOL0     H 8574   8.813   3.782   4.181  1.4151 -0.2536  0.8895
  787MOL0     H 8575   8.779   3.954   4.175 -3.8385 -0.8248  1.1231
  787MOL0     H 8576   8.812   3.920   3.908 -1.1612 -1.1767  0.5547
  787MOL0     H 8577   8.874   3.768   3.953 -2.9788 -1.2202  1.8528
  787MOL0     H 8578   8.991   4.039   4.067 -0.9834  0.0181 -0.4665
  787MOL0     H 8579   9.056   3.884   4.111  0.3043 -1.6519 -1.1596
  787MOL0     H 8580   9.114   3.810   3.905 -1.8580 -0.8255  2.5465
  787MOL0     H 8581   9.211   3.937   3.979  0.3442  3.6485 -2.1230
  787MOL0     H 8582   9.081   4.107   3.843 -0.1533  0.1621 -1.2243
  787MOL0     H 8583   8.996   3.978   3.767 -0.8624  2.7224  0.0288
  787MOL0     H 8584   9.176   4.037   3.609  3.4463  1.1752 -1.0420
  787MOL0     H 8585   9.206   3.873   3.675  1.1971  1.0919 -2.9196
  787MOL0     H 8586   8.159   3.884   4.077  2.5810 -2.5670 -1.6406
  787MOL0     H 8587   7.962   3.787   4.182  0.6983  0.8689 -1.4449
  787MOL0     H 8588   7.734   3.525   4.285 -1.1679 -0.1125 -0.5877
  787MOL0     H 8589   7.512   3.438   4.293 -0.6217 -2.1325  0.1835
  787MOL0     H 8590   6.473   2.449   5.377  0.1336 -4.2456  0.1525
  787MOL0     H 8591   6.573   2.461   5.601 -0.0812 -1.2298  0.2567
  787MOL0     H 8592   6.557   2.462   6.042 -3.2280  2.3289 -0.2799
  787MOL0     H 8593   6.737   2.446   6.207 -0.9761  0.3741  0.3789
  787MOL0     H 8594   6.887   2.880   6.353 -4.0703  2.0300  0.2065
  787MOL0     H 8595   6.770   2.794   6.443 -0.9638 -2.4443 -2.9019
  787MOL0     H 8596   6.963   2.647   6.539  0.1462 -0.1631  0.5282
  787MOL0     H 8597   6.963   2.816   6.603  2.3079 -0.1962  0.5781
  787MOL0     H 8598   7.147   2.700   6.386 -1.0468 -2.3589  2.1582
  787MOL0     H 8599   7.135   2.865   6.420  3.2754 -1.6724 -1.9471
  787MOL0     H 8600   7.331   2.741   6.540  0.9121  1.9504  2.6848
  787MOL0     H 8601   7.208   2.630   6.620 -2.8102 -0.0178 -0.7152
  787MOL0     H 8602   7.186   2.979   6.859  0.3091 -0.3527  0.3829
  787MOL0     H 8603   6.803   2.870   6.125  0.2133 -1.2076 -3.3703
  787MOL0     H 8604   6.682   2.998   6.022  0.0633 -1.3821  1.4390
  787MOL0     H 8605   6.666   2.925   5.864 -0.7576  3.4018 -0.1506
  787MOL0     H 8606   6.531   2.943   5.961 -0.1731  1.5970  3.2420
  788MOL0     O 8607   0.571   2.672   8.334  0.4562  0.1675 -0.2091
  788MOL0     C 8608   0.519   2.744   8.255 -0.2147 -0.5885  0.2624
  788MOL0     O 8609   0.585   2.851   8.192 -0.2444 -0.5893 -0.4990
  788MOL0     C 8610   0.713   2.879   8.227 -0.0589 -0.0598  0.6411
  788MOL0     C 8611   0.817   2.891   8.138  0.0050  0.7560 -0.5296
  788MOL0     C 8612   0.947   2.905   8.190 -0.5965 -0.1930  0.3838
  788MOL0     C 8613   0.964   2.953   8.325 -1.0454  0.1443 -0.1374
  788MOL0     O 8614   1.099   2.988   8.363  0.7504  0.4447 -0.0352
  788MOL0     C 8615   1.133   3.057   8.478  0.2101  0.3734  0.2472
  788MOL0     C 8616   1.286   3.064   8.468 -0.6082 -1.7127  0.2362
  788MOL0     C 8617   1.349   3.206   8.454  0.6798 -0.1741 -0.2026
  788MOL0     C 8618   1.498   3.191   8.417 -0.7416  0.1371 -0.0753
  788MOL0     C 8619   1.568   3.314   8.459  0.5686  0.1087  1.1012
  788MOL0     C 8620   1.716   3.301   8.455 -0.5364 -0.0080 -0.4428
  788MOL0     C 8621   1.793   3.426   8.526  0.6673 -0.3277  0.2068
  788MOL0     C 8622   1.934   3.372   8.529  1.1563  0.2862 -0.3605
  788MOL0     N 8623   2.025   3.477   8.574 -0.0205  0.2796  0.1570
  788MOL0     C 8624   2.018   3.540   8.697 -0.0643 -0.0890 -0.8960
  788MOL0     C 8625   2.107   3.642   8.697 -0.1567  0.0460 -0.2116
  788MOL0     C 8626   2.138   3.738   8.813  0.1422 -0.2741 -0.3085
  788MOL0     C 8627   2.286   3.730   8.849  0.5466 -0.1000 -0.0644
  788MOL0     C 8628   2.316   3.625   8.952 -0.6176  0.1667  0.3305
  788MOL0     C 8629   2.470   3.595   8.972 -0.1664 -0.2586  0.0403
  788MOL0     O 8630   2.485   3.495   9.077 -0.0129 -0.5785  0.4115
  788MOL0     C 8631   2.612   3.471   9.130 -0.2911  0.0830 -0.1989
  788MOL0     C 8632   2.727   3.493   9.056 -0.6900  0.3415  0.2895
  788MOL0     C 8633   2.857   3.451   9.104 -0.6681 -1.1165 -0.2019
  788MOL0     C 8634   2.962   3.439   8.999 -0.3564  0.2974  0.4167
  788MOL0     C 8635   2.868   3.387   9.230 -0.2962  0.8249 -0.5061
  788MOL0     C 8636   2.991   3.337   9.296 -0.6951  0.6800  0.0774
  788MOL0     O 8637   2.984   3.224   9.374  0.4506  0.6128  0.1069
  788MOL0     C 8638   3.090   3.149   9.416  0.4776 -0.0739  0.4616
  788MOL0     C 8639   3.187   3.122   9.322 -0.4225  0.4134  0.4435
  788MOL0     C 8640   3.300   3.058   9.358  0.4738 -0.3054  0.1957
  788MOL0     C 8641   3.321   3.002   9.488  0.4287 -0.2839  0.6901
  788MOL0     O 8642   3.429   2.931   9.533  0.0463 -0.4255  0.2567
  788MOL0     C 8643   3.506   2.875   9.429 -0.6707  0.1666  0.9098
  788MOL0     C 8644   3.571   2.742   9.475  0.8376 -0.1579  0.4058
  788MOL0     C 8645   3.685   2.784   9.553 -0.0959  0.3152 -0.2860
  788MOL0     C 8646   3.739   2.661   9.624  0.7798  0.2960  0.6348
  788MOL0     C 8647   3.851   2.694   9.717 -0.7183  0.1097 -0.1300
  788MOL0     C 8648   3.941   2.568   9.739  0.1085 -0.7938  0.0035
  788MOL0     C 8649   4.071   2.608   9.807  0.4500  0.7794 -0.0308
  788MOL0     C 8650   4.150   2.489   9.864 -0.0623  0.0410 -0.6101
  788MOL0    Cl 8651   4.304   2.556   9.946  0.5614 -0.1284 -0.1251
  788MOL0     C 8652   3.213   3.016   9.574 -0.0952  0.1707  0.0270
  788MOL0     C 8653   3.098   3.090   9.546 -0.3449 -0.6570  1.1228
  788MOL0     O 8654   3.098   3.399   9.274 -0.0401 -0.1047 -0.3963
  788MOL0     C 8655   2.753   3.368   9.311 -0.1080 -0.4507  0.3513
  788MOL0     C 8656   2.629   3.411   9.257  0.2981 -0.5330 -0.3095
  788MOL0     N 8657   2.159   3.650   8.569  1.1875 -0.1124 -0.2105
  788MOL0     N 8658   2.102   3.556   8.493  0.3998 -0.3271 -0.0112
  788MOL0     C 8659   0.850   2.953   8.416  0.1420 -0.5159 -0.1919
  788MOL0     C 8660   0.727   2.918   8.360 -0.0128 -0.4888  0.6649
  788MOL0     C 8661   0.373   2.728   8.226 -0.2114 -0.3948 -0.4394
  788MOL0     C 8662   0.315   2.824   8.132  0.3326 -0.3589 -0.1965
  788MOL0     C 8663   0.175   2.825   8.116 -0.1921 -0.3419 -0.0528
  788MOL0     C 8664   0.098   2.727   8.172  0.1282 -0.5268  0.1922
  788MOL0     O 8665  -0.036   2.743   8.158 -0.7056 -0.7478  0.2853
  788MOL0     C 8666  -0.127   2.654   8.212 -0.4753  0.6091 -0.3869
  788MOL0     C 8667  -0.269   2.681   8.150  0.3151  0.1573 -0.3165
  788MOL0     C 8668  -0.261   2.683   7.998  0.3349 -0.0306 -0.5756
  788MOL0     C 8669  -0.401   2.666   7.926  0.2275  0.1351 -0.4360
  788MOL0     C 8670  -0.486   2.771   7.975 -0.2836  0.1388 -0.0500
  788MOL0     C 8671  -0.561   2.865   7.991 -0.9640 -0.3984 -0.1665
  788MOL0     C 8672   0.155   2.633   8.263  0.2029 -0.3487 -1.3176
  788MOL0     C 8673   0.288   2.645   8.295 -0.0964  0.6264 -0.6281
  788MOL0     C 8674   0.338   2.540   8.396 -0.9132 -0.3900  0.4249
  788MOL0     H 8675   0.798   2.862   8.035  0.3456  0.2517 -0.4491
  788MOL0     H 8676   1.038   2.898   8.130  0.4703  1.2743  1.7507
  788MOL0     H 8677   1.093   3.011   8.569 -1.2209  1.1269  0.0203
  788MOL0     H 8678   1.085   3.155   8.473  0.6205  0.5236 -1.0350
  788MOL0     H 8679   1.336   3.014   8.551  0.5752  0.0658  0.6574
  788MOL0     H 8680   1.318   3.011   8.377 -1.8520 -0.5911 -0.8969
  788MOL0     H 8681   1.302   3.267   8.377  0.0557  1.3970  1.3583
  788MOL0     H 8682   1.338   3.260   8.549 -0.7963  0.1626 -0.5440
  788MOL0     H 8683   1.548   3.108   8.468  0.3170  0.1056 -1.1416
  788MOL0     H 8684   1.512   3.167   8.311 -0.5853  1.1517 -0.2869
  788MOL0     H 8685   1.544   3.331   8.564 -0.4059 -2.0833  1.2925
  788MOL0     H 8686   1.539   3.403   8.402  0.9235 -0.7295 -0.4448
  788MOL0     H 8687   1.725   3.209   8.513 -1.5670 -0.6069 -1.1973
  788MOL0     H 8688   1.745   3.286   8.350 -0.7780  0.3668 -0.5610
  788MOL0     H 8689   1.754   3.455   8.623  0.5915  1.7642 -0.4057
  788MOL0     H 8690   1.775   3.515   8.465  0.0078 -0.6296 -0.0571
  788MOL0     H 8691   1.944   3.276   8.581 -0.0390 -0.3596 -1.2772
  788MOL0     H 8692   1.956   3.350   8.424  3.1483  2.4066 -0.4544
  788MOL0     H 8693   1.950   3.505   8.775  0.7939 -3.4558 -1.5021
  788MOL0     H 8694   2.083   3.720   8.906  1.5560 -4.2921 -0.0633
  788MOL0     H 8695   2.104   3.837   8.783 -0.8394 -0.5851 -0.2564
  788MOL0     H 8696   2.345   3.711   8.759  1.9197 -0.5633  0.8919
  788MOL0     H 8697   2.318   3.823   8.897  2.6239 -1.5243  1.5526
  788MOL0     H 8698   2.271   3.655   9.047 -0.8165  2.5896 -0.4534
  788MOL0     H 8699   2.276   3.533   8.909  0.8811 -0.4579  0.2391
  788MOL0     H 8700   2.522   3.570   8.880  1.2371  4.0292 -0.5557
  788MOL0     H 8701   2.500   3.690   9.018 -1.5975  0.2127  0.0832
  788MOL0     H 8702   2.718   3.533   8.956 -0.1264  3.5659  1.4183
  788MOL0     H 8703   3.053   3.494   9.027  0.2631  0.0231 -0.9890
  788MOL0     H 8704   2.931   3.473   8.900 -3.6297 -2.2815  0.3892
  788MOL0     H 8705   2.986   3.335   8.979 -1.2778  0.5622 -2.4431
  788MOL0     H 8706   3.179   3.153   9.218 -1.8139 -1.2245 -0.0012
  788MOL0     H 8707   3.374   3.056   9.279 -0.7334  3.4450 -1.2778
  788MOL0     H 8708   3.439   2.845   9.348  0.6667  2.3000 -1.0965
  788MOL0     H 8709   3.577   2.950   9.392 -0.9487  0.0128  0.0412
  788MOL0     H 8710   3.498   2.688   9.536 -2.7369  0.9101 -2.5284
  788MOL0     H 8711   3.601   2.665   9.404 -2.5512 -1.7708  0.5212
  788MOL0     H 8712   3.658   2.857   9.630 -0.5660 -0.2373  0.0829
  788MOL0     H 8713   3.770   2.813   9.491  0.0834  0.4820  0.0406
  788MOL0     H 8714   3.762   2.581   9.553 -0.3028  0.3500  0.2069
  788MOL0     H 8715   3.658   2.621   9.686  0.4625  2.6797  1.8800
  788MOL0     H 8716   3.905   2.767   9.656 -1.5736 -0.5276 -1.7091
  788MOL0     H 8717   3.813   2.739   9.809 -0.5062 -0.4426  0.2316
  788MOL0     H 8718   3.973   2.521   9.646 -0.1186  0.6033 -0.8013
  788MOL0     H 8719   3.890   2.498   9.806 -2.2167  1.1906  0.4507
  788MOL0     H 8720   4.044   2.664   9.898 -1.5201 -1.9919  1.2306
  788MOL0     H 8721   4.129   2.672   9.740  0.0422  1.3464  0.1450
  788MOL0     H 8722   4.184   2.431   9.778  0.9614  0.5469 -0.5629
  788MOL0     H 8723   4.104   2.420   9.936 -0.3135  0.9308  0.0964
  788MOL0     H 8724   3.215   2.969   9.672 -3.2826 -1.7185 -0.6642
  788MOL0     H 8725   3.014   3.106   9.613  1.2261 -0.0991  3.0692
  788MOL0     H 8726   2.758   3.331   9.413  1.5906 -1.1068  0.0652
  788MOL0     H 8727   2.534   3.409   9.310  0.0285  0.1770 -0.7560
  788MOL0     H 8728   0.862   2.971   8.522 -3.2468  2.6300 -0.1429
  788MOL0     H 8729   0.640   2.925   8.424 -2.2332 -0.2955 -2.1637
  788MOL0     H 8730   0.368   2.908   8.089  0.3830 -0.2508  0.0815
  788MOL0     H 8731   0.132   2.905   8.058 -1.4127 -1.2195 -0.4015
  788MOL0     H 8732  -0.092   2.552   8.193  2.0478  0.3877  4.1014
  788MOL0     H 8733  -0.134   2.658   8.321 -0.4639 -2.3735 -0.1950
  788MOL0     H 8734  -0.300   2.783   8.175  2.5495  1.9422 -4.0356
  788MOL0     H 8735  -0.344   2.612   8.189  0.1445 -0.1389 -1.1419
  788MOL0     H 8736  -0.205   2.772   7.967  3.1222 -1.9293 -1.4412
  788MOL0     H 8737  -0.211   2.597   7.953 -2.0322 -0.5488 -2.3690
  788MOL0     H 8738  -0.446   2.573   7.959  0.0232 -0.3464 -1.9845
  788MOL0     H 8739  -0.385   2.670   7.818  4.5156  6.6223 -0.1138
  788MOL0     H 8740  -0.630   2.946   7.999 -1.7916 -1.0119 -0.9843
  788MOL0     H 8741   0.099   2.548   8.300  0.0316  0.3644  0.0912
  788MOL0     H 8742   0.381   2.591   8.482 -1.4901  2.3748 -0.8142
  788MOL0     H 8743   0.256   2.474   8.428 -0.1019 -0.9981  1.2858
  788MOL0     H 8744   0.419   2.480   8.352 -0.4392 -1.2065  2.3253
  789MOL0     O 8745   8.898   1.653   1.465  0.0801  0.4684  0.2228
  789MOL0     C 8746   8.858   1.577   1.380  0.9227 -0.1351 -0.1908
  789MOL0     O 8747   8.939   1.502   1.292  0.0462  0.1869  0.3976
  789MOL0     C 8748   9.067   1.481   1.321 -0.1741  0.1163 -0.2590
  789MOL0     C 8749   9.173   1.521   1.241 -1.1609  0.6405  0.1919
  789MOL0     C 8750   9.306   1.484   1.279 -0.0185  0.0071  0.4451
  789MOL0     C 8751   9.328   1.401   1.386  0.3505  0.4226 -0.6107
  789MOL0     O 8752   9.456   1.357   1.417  0.1093 -0.7764  0.3137
  789MOL0     C 8753   9.567   1.346   1.324  0.1672  0.1884 -0.0011
  789MOL0     C 8754   9.601   1.193   1.313 -0.1088 -0.2748  0.0932
  789MOL0     C 8755   9.685   1.150   1.435  0.3412  0.1193  0.2727
  789MOL0     C 8756   9.707   1.002   1.417 -0.0966 -0.1425  0.7735
  789MOL0     C 8757   9.793   0.921   1.515 -0.3351 -0.5945 -0.2203
  789MOL0     C 8758   9.916   0.994   1.577 -0.0820 -0.3432  0.0642
  789MOL0     C 8759   9.988   0.904   1.675  0.3664 -0.2055  0.3505
  789MOL0     C 8760  10.120   0.858   1.615 -0.4714  0.2327  0.0681
  789MOL0     N 8761  10.197   0.791   1.718 -0.1111 -0.2858  0.6633
  789MOL0     C 8762  10.163   0.735   1.841  0.1654  0.4617 -1.4821
  789MOL0     C 8763  10.282   0.715   1.905 -0.0049  0.0487 -0.0549
  789MOL0     C 8764  10.303   0.658   2.039  0.1923 -0.4810  0.1237
  789MOL0     C 8765  10.424   0.720   2.114 -0.3735  0.2009  0.3014
  789MOL0     C 8766  10.457   0.662   2.252 -0.0695  0.9862 -0.9736
  789MOL0     C 8767  10.535   0.538   2.247 -0.0431  0.6816 -0.6688
  789MOL0     O 8768  10.450   0.432   2.198 -0.6157  0.8830 -0.2418
  789MOL0     C 8769  10.522   0.324   2.171  0.2343 -0.2617 -0.1158
  789MOL0     C 8770  10.621   0.316   2.072 -1.0684  0.2631 -1.3866
  789MOL0     C 8771  10.680   0.190   2.054 -0.0962  0.3018 -0.2311
  789MOL0     C 8772  10.785   0.184   1.941 -0.4215 -0.1020  0.1446
  789MOL0     C 8773  10.647   0.077   2.129 -0.8092 -0.6318 -0.3820
  789MOL0     C 8774  10.708  -0.063   2.116 -0.4821 -0.2851  0.8907
  789MOL0     O 8775  10.790  -0.089   2.010  0.0410 -0.0239 -0.9822
  789MOL0     C 8776  10.876  -0.194   2.011  0.5885 -0.1350 -0.5338
  789MOL0     C 8777  10.901  -0.251   1.887  0.2879 -0.5018 -0.7546
  789MOL0     C 8778  10.998  -0.350   1.877  0.1267 -0.4606  0.2037
  789MOL0     C 8779  11.069  -0.399   1.993  0.1451 -0.8693 -0.2437
  789MOL0     O 8780  11.152  -0.505   2.005 -1.0382 -0.2120 -0.3236
  789MOL0     C 8781  11.287  -0.484   1.989 -0.2536  0.2978 -0.0361
  789MOL0     C 8782  11.368  -0.609   2.034 -0.2005 -0.1815 -0.3890
  789MOL0     C 8783  11.465  -0.587   2.155  0.4932  0.0399  0.8209
  789MOL0     C 8784  11.396  -0.556   2.286  0.3925 -0.3231 -0.8523
  789MOL0     C 8785  11.474  -0.497   2.396  0.4160 -0.2743  0.5717
  789MOL0     C 8786  11.393  -0.490   2.530 -0.0565 -1.0423  0.2185
  789MOL0     C 8787  11.454  -0.381   2.622  0.1463 -0.2105 -0.2818
  789MOL0     C 8788  11.543  -0.450   2.734  0.3780  0.6897  0.6017
  789MOL0    Cl 8789  11.675  -0.555   2.672 -0.2892  0.0084 -0.2445
  789MOL0     C 8790  11.041  -0.346   2.119  0.4939  0.0347 -0.4995
  789MOL0     C 8791  10.954  -0.240   2.127  0.6168 -0.4366 -0.5198
  789MOL0     O 8792  10.672  -0.143   2.195  0.2735  0.0348  0.2792
  789MOL0     C 8793  10.558   0.097   2.231 -0.1497 -0.4875  0.4904
  789MOL0     C 8794  10.499   0.220   2.261  0.0358  0.2984  0.0139
  789MOL0     N 8795  10.382   0.745   1.820 -0.6837  0.1751  1.0968
  789MOL0     N 8796  10.330   0.793   1.706  0.1250 -0.4176 -0.2847
  789MOL0     C 8797   9.230   1.367   1.466  0.3473  0.3767  0.6019
  789MOL0     C 8798   9.098   1.394   1.429 -0.0294 -0.7559  0.6937
  789MOL0     C 8799   8.713   1.595   1.345 -0.7342  0.2528  0.0377
  789MOL0     C 8800   8.678   1.559   1.213 -0.5587  0.3540  0.5847
  789MOL0     C 8801   8.549   1.580   1.161  1.2209 -0.0966 -0.0284
  789MOL0     C 8802   8.447   1.624   1.248  0.4132  0.4305 -0.5157
  789MOL0     O 8803   8.308   1.621   1.225  0.1101  0.1593 -0.2112
  789MOL0     C 8804   8.268   1.622   1.089 -0.2825 -0.1998  0.0170
  789MOL0     C 8805   8.121   1.685   1.076 -0.6293  0.2107  0.8044
  789MOL0     C 8806   8.134   1.837   1.079  0.9834  0.0081  0.3777
  789MOL0     C 8807   8.016   1.902   1.021  0.7979  0.0048  0.1091
  789MOL0     C 8808   8.023   2.052   1.034  0.6409 -0.2126  0.0115
  789MOL0     C 8809   8.020   2.173   1.058 -0.0305  0.1025  0.7149
  789MOL0     C 8810   8.478   1.648   1.383 -0.4775  0.3119 -0.0554
  789MOL0     C 8811   8.611   1.644   1.432  0.3992 -0.1085 -0.1851
  789MOL0     C 8812   8.625   1.691   1.583  0.8812 -0.1709 -0.0530
  789MOL0     H 8813   9.152   1.579   1.152 -1.0041  0.4026 -0.0004
  789MOL0     H 8814   9.379   1.509   1.204  1.2019  0.0887  1.6242
  789MOL0     H 8815   9.660   1.394   1.356  0.6309  0.2956 -1.4538
  789MOL0     H 8816   9.543   1.381   1.223  2.7380 -0.6405 -0.9976
  789MOL0     H 8817   9.505   1.141   1.322  0.0829 -0.3253  2.5566
  789MOL0     H 8818   9.652   1.167   1.220 -0.4329  1.8087 -0.7118
  789MOL0     H 8819   9.782   1.200   1.428  1.1709 -1.3735  0.6102
  789MOL0     H 8820   9.644   1.182   1.531 -0.8172 -1.8437  0.5009
  789MOL0     H 8821   9.610   0.952   1.407  0.1184 -0.1775 -1.5548
  789MOL0     H 8822   9.754   0.987   1.320 -2.1522  0.3410 -0.3642
  789MOL0     H 8823   9.819   0.822   1.475  0.9611  0.0319 -0.9849
  789MOL0     H 8824   9.735   0.890   1.603  2.7449  0.5348  2.4062
  789MOL0     H 8825   9.977   1.021   1.491 -0.9775  1.8329  0.0271
  789MOL0     H 8826   9.869   1.085   1.616  0.2247 -0.7405  1.4356
  789MOL0     H 8827   9.931   0.810   1.677  1.2833 -0.8693 -1.4887
  789MOL0     H 8828  10.009   0.950   1.772 -1.3446 -1.9535  1.6092
  789MOL0     H 8829  10.110   0.794   1.527  0.0276  2.5394 -1.7988
  789MOL0     H 8830  10.180   0.947   1.593  1.0203 -1.2298 -2.1626
  789MOL0     H 8831  10.063   0.711   1.876 -0.1812  3.3412 -0.2547
  789MOL0     H 8832  10.320   0.551   2.034  0.4889 -0.6200  2.6371
  789MOL0     H 8833  10.218   0.681   2.105 -1.9920  1.8622 -3.1694
  789MOL0     H 8834  10.506   0.707   2.043  0.0005 -3.4887  1.1945
  789MOL0     H 8835  10.400   0.826   2.126  2.1691  0.7000  1.8129
  789MOL0     H 8836  10.517   0.734   2.308  0.6704  0.5347 -1.1606
  789MOL0     H 8837  10.361   0.650   2.303  0.0657 -0.3305 -0.9874
  789MOL0     H 8838  10.631   0.546   2.197 -0.4574 -1.0436 -1.8224
  789MOL0     H 8839  10.572   0.522   2.349  0.1317  0.5723 -0.7488
  789MOL0     H 8840  10.646   0.398   2.006  0.6271 -1.0901 -2.5413
  789MOL0     H 8841  10.878   0.144   1.984 -0.3295 -0.4663 -0.3721
  789MOL0     H 8842  10.806   0.284   1.902  0.4120  0.3011  1.5671
  789MOL0     H 8843  10.750   0.108   1.871  0.1280 -2.1065  1.9337
  789MOL0     H 8844  10.845  -0.222   1.799 -0.1157  3.7198  0.6888
  789MOL0     H 8845  11.017  -0.399   1.782 -1.1271  0.1414 -0.3900
  789MOL0     H 8846  11.294  -0.446   1.886 -2.6625  1.3308  0.0984
  789MOL0     H 8847  11.316  -0.398   2.050  0.3805  1.5192 -1.9445
  789MOL0     H 8848  11.305  -0.695   2.057  0.9032 -1.0350 -0.4658
  789MOL0     H 8849  11.426  -0.643   1.948 -0.2881 -0.1469 -0.4619
  789MOL0     H 8850  11.532  -0.503   2.135  0.8674  0.0177  1.9026
  789MOL0     H 8851  11.525  -0.677   2.169 -1.2788 -1.3441 -0.2066
  789MOL0     H 8852  11.341  -0.642   2.323  0.2641 -0.1249 -0.5761
  789MOL0     H 8853  11.316  -0.483   2.267  0.2420  0.0769  1.1352
  789MOL0     H 8854  11.567  -0.551   2.416  0.9281 -1.1547 -3.3552
  789MOL0     H 8855  11.499  -0.396   2.363 -0.5956  0.6150  2.3692
  789MOL0     H 8856  11.378  -0.585   2.583 -1.1789 -0.1903  1.4801
  789MOL0     H 8857  11.291  -0.462   2.502 -0.3421 -2.0519  0.1908
  789MOL0     H 8858  11.371  -0.328   2.670  1.3406  1.4790  0.0113
  789MOL0     H 8859  11.530  -0.322   2.570  1.4091 -0.6463  1.0017
  789MOL0     H 8860  11.479  -0.521   2.787  2.3820 -1.0659  0.8090
  789MOL0     H 8861  11.582  -0.378   2.807  1.8457  0.0856  0.4605
  789MOL0     H 8862  11.089  -0.385   2.208 -1.9545  1.3648  1.5492
  789MOL0     H 8863  10.934  -0.202   2.226  1.0203 -0.1983 -0.5279
  789MOL0     H 8864  10.535   0.013   2.296  0.6180 -0.4265  0.8511
  789MOL0     H 8865  10.435   0.215   2.349  1.5293 -1.1545  1.0692
  789MOL0     H 8866   9.250   1.296   1.546  2.8197 -0.4709 -0.6680
  789MOL0     H 8867   9.013   1.356   1.485 -0.1437 -0.3759  0.7805
  789MOL0     H 8868   8.755   1.517   1.148  0.5800 -1.0758  2.7185
  789MOL0     H 8869   8.539   1.549   1.058 -1.5726 -2.2710  0.7655
  789MOL0     H 8870   8.332   1.683   1.024 -0.2660 -1.0428 -0.7767
  789MOL0     H 8871   8.265   1.517   1.059  0.9308 -0.7863  1.7978
  789MOL0     H 8872   8.044   1.654   1.148 -2.1394 -1.0025 -1.2169
  789MOL0     H 8873   8.086   1.652   0.978 -0.3796 -1.6021  1.2829
  789MOL0     H 8874   8.173   1.872   1.175 -1.3542  0.1392  1.3457
  789MOL0     H 8875   8.219   1.864   1.015  2.7659 -1.0608  2.2064
  789MOL0     H 8876   7.924   1.875   1.073  0.3327  3.9429  1.6728
  789MOL0     H 8877   8.002   1.873   0.916  0.8225 -1.0319  0.3827
  789MOL0     H 8878   8.004   2.274   1.088 -0.8828 -0.0300  0.7273
  789MOL0     H 8879   8.408   1.678   1.461 -1.9703 -1.4388 -0.6519
  789MOL0     H 8880   8.535   1.692   1.644 -0.6586  1.4352 -2.2262
  789MOL0     H 8881   8.697   1.633   1.642 -1.9236 -1.6840  2.1615
  789MOL0     H 8882   8.669   1.791   1.581  1.1614 -0.0288  4.2111
  790MOL0     O 8883   9.661   5.508   0.679  0.8975  0.6510  0.4487
  790MOL0     C 8884   9.555   5.566   0.707  0.6003 -0.6284  0.4561
  790MOL0     O 8885   9.467   5.538   0.814  0.6039 -0.3350 -0.0495
  790MOL0     C 8886   9.523   5.444   0.900 -0.7037 -0.8163 -0.3582
  790MOL0     C 8887   9.508   5.302   0.878  0.1847 -0.1204  0.6935
  790MOL0     C 8888   9.577   5.216   0.956  1.5237  0.2414  0.2786
  790MOL0     C 8889   9.661   5.266   1.060  0.4178 -0.6384  0.6053
  790MOL0     O 8890   9.737   5.173   1.119 -0.6160 -0.2840 -0.1045
  790MOL0     C 8891   9.863   5.216   1.183 -0.4263 -0.5457  0.6180
  790MOL0     C 8892   9.956   5.099   1.224  0.4834  0.4278  0.1243
  790MOL0     C 8893  10.034   5.018   1.114 -0.1893 -0.2736 -0.4141
  790MOL0     C 8894  10.123   4.920   1.174 -0.2780  0.0114  0.1024
  790MOL0     C 8895  10.152   4.804   1.082  0.4804  0.0683 -0.5676
  790MOL0     C 8896  10.218   4.682   1.166 -0.1554 -0.0537  0.7695
  790MOL0     C 8897  10.357   4.710   1.215 -0.4133 -0.5065 -0.6000
  790MOL0     C 8898  10.456   4.708   1.089 -0.2708 -0.1623 -1.8993
  790MOL0     N 8899  10.599   4.718   1.137 -0.2946 -0.4281 -0.0415
  790MOL0     C 8900  10.680   4.829   1.164  0.5428  0.4769  0.4487
  790MOL0     C 8901  10.798   4.777   1.203  0.3423  0.3225  0.1663
  790MOL0     C 8902  10.910   4.867   1.240  0.3333  0.5402  0.1205
  790MOL0     C 8903  11.031   4.804   1.316  0.6444 -0.1673 -0.5115
  790MOL0     C 8904  11.147   4.919   1.319  0.1401  0.9318 -0.6621
  790MOL0     C 8905  11.258   4.860   1.393 -0.2947  0.3010  1.3979
  790MOL0     O 8906  11.341   4.965   1.429 -0.0063  0.3008  0.7253
  790MOL0     C 8907  11.467   4.944   1.487 -0.0342 -0.4744 -0.0739
  790MOL0     C 8908  11.503   4.830   1.547 -0.0127  0.0334  0.3218
  790MOL0     C 8909  11.624   4.810   1.625  0.1442  0.0887  0.5838
  790MOL0     C 8910  11.639   4.671   1.692 -0.1637  0.6830 -0.6017
  790MOL0     C 8911  11.725   4.918   1.622 -0.8191  0.6184  0.0974
  790MOL0     C 8912  11.853   4.912   1.685 -0.2793 -0.0450  0.4310
  790MOL0     O 8913  11.951   4.991   1.640  0.2317 -0.0678  0.2209
  790MOL0     C 8914  12.085   4.973   1.667  0.0318 -0.4578 -0.3097
  790MOL0     C 8915  12.127   4.962   1.807 -0.5136  0.0136  0.3144
  790MOL0     C 8916  12.264   4.959   1.837  0.8134 -0.1386 -0.2010
  790MOL0     C 8917  12.363   4.954   1.742  0.3800 -0.2277  0.0781
  790MOL0     O 8918  12.495   4.961   1.787 -0.1103  0.3128 -0.8788
  790MOL0     C 8919  12.590   4.906   1.692 -0.5207  0.2214  0.3622
  790MOL0     C 8920  12.724   4.887   1.755 -0.4665  0.5144 -0.4693
  790MOL0     C 8921  12.746   4.774   1.859 -1.0045  0.1729  0.2260
  790MOL0     C 8922  12.890   4.728   1.903  0.1622 -0.3162  0.3604
  790MOL0     C 8923  12.990   4.838   1.947  0.4843  0.0403  0.5766
  790MOL0     C 8924  13.129   4.798   1.906  0.4307  0.6288 -0.3657
  790MOL0     C 8925  13.222   4.921   1.924 -0.5151 -0.2959  0.6286
  790MOL0     C 8926  13.351   4.892   1.837 -0.0220 -0.1271  0.6010
  790MOL0    Cl 8927  13.283   4.913   1.668 -0.0587  0.5571  0.1704
  790MOL0     C 8928  12.325   4.959   1.610 -0.0478 -0.4383 -0.4316
  790MOL0     C 8929  12.191   4.966   1.569  0.0396  0.4397  0.5806
  790MOL0     O 8930  11.871   4.824   1.770 -0.0384  0.3990 -0.0481
  790MOL0     C 8931  11.683   5.039   1.574 -0.0126 -0.2239 -0.0712
  790MOL0     C 8932  11.556   5.051   1.508  0.7720 -1.0132  0.3001
  790MOL0     N 8933  10.782   4.643   1.196 -0.2024 -0.4104  0.3215
  790MOL0     N 8934  10.669   4.604   1.155  0.3601 -0.5012 -0.4322
  790MOL0     C 8935   9.660   5.400   1.094  0.6406  1.6142 -1.1994
  790MOL0     C 8936   9.584   5.486   1.020  0.0933  0.2287 -0.4055
  790MOL0     C 8937   9.509   5.670   0.615  0.7885 -0.6099  0.1233
  790MOL0     C 8938   9.411   5.760   0.665 -0.8033  1.0959 -0.2599
  790MOL0     C 8939   9.346   5.845   0.578 -0.0226  0.2717  0.4421
  790MOL0     C 8940   9.377   5.847   0.441  0.7715 -1.1868  0.9496
  790MOL0     O 8941   9.321   5.942   0.356  0.0493  0.8245 -0.0853
  790MOL0     C 8942   9.232   6.051   0.403 -0.5684  0.2318  0.2525
  790MOL0     C 8943   9.299   6.173   0.470  0.3292 -0.4470  0.3846
  790MOL0     C 8944   9.194   6.268   0.512 -0.0466  0.3861 -0.0541
  790MOL0     C 8945   9.250   6.394   0.570 -0.6568 -0.8421 -0.6905
  790MOL0     C 8946   9.153   6.486   0.635  0.8003  0.3930  0.2738
  790MOL0     C 8947   9.021   6.609   0.713 -1.0714 -0.8189 -0.2142
  790MOL0     C 8948   9.477   5.761   0.390  0.1154  0.0718  0.4747
  790MOL0     C 8949   9.544   5.678   0.480 -0.8927  0.5765 -0.1439
  790MOL0     C 8950   9.655   5.592   0.411 -0.8227 -0.4719 -0.4481
  790MOL0     H 8951   9.447   5.268   0.795  0.0493  0.2230  0.6481
  790MOL0     H 8952   9.578   5.111   0.933 -0.7916  0.2266 -0.0326
  790MOL0     H 8953   9.823   5.268   1.271  0.8018  0.0467  0.8384
  790MOL0     H 8954   9.921   5.292   1.129 -0.9486  2.0748  3.4662
  790MOL0     H 8955  10.041   5.147   1.272 -0.0389  1.0856  0.4033
  790MOL0     H 8956   9.893   5.035   1.286 -1.6552  0.1928 -2.1388
  790MOL0     H 8957   9.955   4.975   1.051 -1.0471 -0.4049  0.7316
  790MOL0     H 8958  10.087   5.085   1.045 -1.9987 -0.4481 -2.0671
  790MOL0     H 8959  10.220   4.963   1.201  1.6005 -2.3896 -2.2931
  790MOL0     H 8960  10.082   4.878   1.267 -0.6661  0.1795  0.0074
  790MOL0     H 8961  10.214   4.830   0.995 -1.2751  1.3631 -1.5021
  790MOL0     H 8962  10.055   4.770   1.046  0.4881  0.4438 -0.9464
  790MOL0     H 8963  10.158   4.655   1.253  2.1478 -2.4748  1.7750
  790MOL0     H 8964  10.224   4.587   1.111  2.1881 -1.3299  2.9735
  790MOL0     H 8965  10.380   4.630   1.287 -2.0749 -1.3788 -0.9658
  790MOL0     H 8966  10.363   4.806   1.267 -1.2626 -0.5147 -0.4689
  790MOL0     H 8967  10.440   4.611   1.042 -1.9115 -0.3221 -1.0768
  790MOL0     H 8968  10.428   4.792   1.025  1.1759 -0.2105 -2.6370
  790MOL0     H 8969  10.650   4.933   1.155  1.2736  0.6494 -0.0982
  790MOL0     H 8970  10.871   4.949   1.302 -1.5921  1.1187 -1.7301
  790MOL0     H 8971  10.950   4.888   1.141 -0.6516 -2.0452 -0.9067
  790MOL0     H 8972  10.992   4.777   1.414  0.1983  2.0211 -0.0313
  790MOL0     H 8973  11.065   4.715   1.262  1.2351 -0.2794  0.0437
  790MOL0     H 8974  11.183   4.953   1.221  0.5552  2.3643 -0.0288
  790MOL0     H 8975  11.120   5.008   1.376  0.3441  1.4746 -1.3995
  790MOL0     H 8976  11.209   4.824   1.484 -3.3028 -2.1985 -0.9661
  790MOL0     H 8977  11.309   4.775   1.346  0.9815  1.5247  0.4984
  790MOL0     H 8978  11.423   4.761   1.526 -1.3417  2.0506 -1.7363
  790MOL0     H 8979  11.605   4.667   1.796  3.8732  2.6882  1.0094
  790MOL0     H 8980  11.744   4.641   1.691 -0.1694  0.5871 -2.4802
  790MOL0     H 8981  11.591   4.588   1.639  2.7061  0.9723 -4.0483
  790MOL0     H 8982  12.057   4.983   1.887 -1.2970  0.2386 -0.4152
  790MOL0     H 8983  12.292   4.959   1.942  0.7307 -0.3343 -0.1801
  790MOL0     H 8984  12.546   4.812   1.658  1.0031 -0.3924  0.0149
  790MOL0     H 8985  12.610   4.974   1.609 -0.3974  0.3208  0.4733
  790MOL0     H 8986  12.794   4.861   1.675  0.6159  0.4599  0.4714
  790MOL0     H 8987  12.762   4.980   1.798  1.5779 -1.2476  1.8340
  790MOL0     H 8988  12.683   4.692   1.823  0.8084 -0.7738 -0.8978
  790MOL0     H 8989  12.687   4.813   1.943 -1.0029  0.7252 -0.0251
  790MOL0     H 8990  12.941   4.684   1.817  3.6512  0.1589  2.0470
  790MOL0     H 8991  12.877   4.651   1.979  3.2773 -1.4154 -0.1046
  790MOL0     H 8992  12.964   4.929   1.894 -1.5040 -0.6383  0.3051
  790MOL0     H 8993  12.980   4.852   2.055 -0.6077  0.0226  0.4897
  790MOL0     H 8994  13.134   4.763   1.802  0.1118  1.9445 -0.8418
  790MOL0     H 8995  13.159   4.721   1.977 -1.6451  1.0390  1.0200
  790MOL0     H 8996  13.251   4.930   2.029  1.4540  2.4435 -0.0221
  790MOL0     H 8997  13.172   5.013   1.894 -1.4253 -0.5523  1.3280
  790MOL0     H 8998  13.392   4.793   1.859  1.6046 -0.4723 -3.2446
  790MOL0     H 8999  13.429   4.967   1.851 -0.3896  0.8778 -2.1842
  790MOL0     H 9000  12.403   4.964   1.534  1.7159  2.7989  1.3881
  790MOL0     H 9001  12.158   4.964   1.466  1.2299  1.8650  0.1275
  790MOL0     H 9002  11.759   5.117   1.577 -1.3982  1.3187 -2.1175
  790MOL0     H 9003  11.533   5.153   1.480 -0.6149 -0.6262  2.5972
  790MOL0     H 9004   9.719   5.430   1.180 -2.3112 -0.4558  1.7854
  790MOL0     H 9005   9.595   5.593   1.039 -0.8462  0.6159 -1.8833
  790MOL0     H 9006   9.390   5.753   0.771  2.8637 -2.5159  0.4794
  790MOL0     H 9007   9.265   5.906   0.619 -0.0168  0.1747  0.5998
  790MOL0     H 9008   9.167   6.073   0.317 -2.1008  2.2341  1.8323
  790MOL0     H 9009   9.163   6.013   0.479  1.3744  0.3276  2.1316
  790MOL0     H 9010   9.362   6.225   0.397  1.6237 -0.0132  1.7517
  790MOL0     H 9011   9.365   6.135   0.549  1.5877  0.8910  0.0234
  790MOL0     H 9012   9.141   6.291   0.419  0.4511  1.7180 -0.0348
  790MOL0     H 9013   9.127   6.220   0.583  2.7321 -2.6595  0.7866
  790MOL0     H 9014   9.295   6.445   0.484 -0.0183 -3.1450 -1.8090
  790MOL0     H 9015   9.333   6.380   0.641  0.1875  3.5443 -0.5176
  790MOL0     H 9016   8.943   6.671   0.753  1.1925  1.7831  0.5680
  790MOL0     H 9017   9.513   5.761   0.287  0.6683  0.6130  0.6589
  790MOL0     H 9018   9.646   5.594   0.302  1.9177  1.2861 -0.7481
  790MOL0     H 9019   9.748   5.646   0.430 -0.9784 -0.5424  0.5358
  790MOL0     H 9020   9.646   5.486   0.435  0.0309 -0.6954 -1.0583
  791MOL0     O 9021   8.477   3.146   6.908 -0.2206  0.3848  0.4702
  791MOL0     C 9022   8.396   3.230   6.882  0.5521 -0.1713 -0.2253
  791MOL0     O 9023   8.277   3.234   6.943 -0.2341 -0.2051 -0.4263
  791MOL0     C 9024   8.233   3.128   7.013  0.6203  0.3973  0.2428
  791MOL0     C 9025   8.280   3.090   7.141 -1.1383 -0.5187  0.4838
  791MOL0     C 9026   8.215   2.991   7.208  0.3134 -0.2279  0.6388
  791MOL0     C 9027   8.121   2.905   7.151 -0.7246  0.5094  0.3374
  791MOL0     O 9028   8.060   2.797   7.201  0.5535  0.1090  0.9724
  791MOL0     C 9029   8.100   2.742   7.322 -0.0593 -0.4757  1.4151
  791MOL0     C 9030   7.994   2.758   7.421  0.4356  0.0930 -0.4830
  791MOL0     C 9031   8.052   2.726   7.567 -0.6626 -0.6372  0.0791
  791MOL0     C 9032   7.961   2.659   7.662 -1.0889 -0.1323 -0.8953
  791MOL0     C 9033   8.014   2.657   7.809 -1.0097 -0.1704  0.4101
  791MOL0     C 9034   8.131   2.562   7.835  1.1495  0.9864  0.0134
  791MOL0     C 9035   8.181   2.576   7.974 -0.6533  0.8935 -0.9073
  791MOL0     C 9036   8.300   2.488   8.016  0.0323 -0.0324  0.1198
  791MOL0     N 9037   8.427   2.531   7.966 -0.1608  0.4163 -0.1123
  791MOL0     C 9038   8.492   2.462   7.865 -0.4658  0.4581  0.2536
  791MOL0     C 9039   8.609   2.526   7.854  0.6485  0.1291  0.4352
  791MOL0     C 9040   8.722   2.508   7.761  0.4438  1.2622  0.1028
  791MOL0     C 9041   8.809   2.633   7.722  0.4066  1.1967 -0.2403
  791MOL0     C 9042   8.926   2.602   7.633 -0.1064  0.5036 -0.8868
  791MOL0     C 9043   9.003   2.716   7.589 -0.3960  0.0764 -0.0669
  791MOL0     O 9044   9.012   2.827   7.686 -0.1502 -0.5161  0.0839
  791MOL0     C 9045   9.027   2.956   7.643  1.3682 -0.6115 -0.3787
  791MOL0     C 9046   8.963   3.050   7.717  0.1898  0.1627 -0.5422
  791MOL0     C 9047   8.967   3.187   7.679  0.3519  0.7018  0.0388
  791MOL0     C 9048   8.898   3.278   7.769  0.4675 -0.0698 -0.5052
  791MOL0     C 9049   9.048   3.227   7.574  0.2895  0.1972 -0.1427
  791MOL0     C 9050   9.048   3.363   7.517  0.6268  0.0324 -0.2123
  791MOL0     O 9051   9.158   3.393   7.443  0.3083 -0.4145  0.2666
  791MOL0     C 9052   9.165   3.515   7.374 -0.1649  1.2467 -0.0158
  791MOL0     C 9053   9.269   3.607   7.410  1.1821  0.6621  0.1306
  791MOL0     C 9054   9.292   3.719   7.322  0.2246  0.3392 -0.6581
  791MOL0     C 9055   9.213   3.739   7.209 -0.3054  0.3435  0.8281
  791MOL0     O 9056   9.242   3.850   7.136 -0.5165  0.3351  0.4734
  791MOL0     C 9057   9.137   3.914   7.068 -0.7496  0.6999 -0.5943
  791MOL0     C 9058   9.202   4.028   6.983  0.1905 -0.0343 -0.4569
  791MOL0     C 9059   9.287   3.970   6.876 -0.1545  0.0210  0.0121
  791MOL0     C 9060   9.342   4.090   6.797  0.6398  0.4713 -0.5033
  791MOL0     C 9061   9.450   4.049   6.691  0.0498 -0.3882 -0.2050
  791MOL0     C 9062   9.385   3.990   6.576  0.6331  0.7807  0.1053
  791MOL0     C 9063   9.480   3.961   6.460 -0.0053  0.2938  1.3406
  791MOL0     C 9064   9.414   3.907   6.331 -0.2610  0.5606  0.3336
  791MOL0    Cl 9065   9.324   4.039   6.261  0.1425  0.4606 -0.0517
  791MOL0     C 9066   9.114   3.639   7.179 -0.1826  0.6539  0.8411
  791MOL0     C 9067   9.093   3.524   7.257  0.2107 -0.2100  0.3909
  791MOL0     O 9068   8.941   3.424   7.506  0.4434 -0.1981  0.2534
  791MOL0     C 9069   9.124   3.135   7.498 -0.3308 -0.1163 -0.7196
  791MOL0     C 9070   9.110   3.002   7.529  0.6607  0.6304  0.0806
  791MOL0     N 9071   8.623   2.628   7.956  0.1266  0.4247 -0.0542
  791MOL0     N 9072   8.507   2.623   8.012 -0.5752  0.2881  0.5795
  791MOL0     C 9073   8.078   2.938   7.023 -0.4434 -0.1374  0.6513
  791MOL0     C 9074   8.138   3.043   6.946  0.3527  0.5824 -0.6583
  791MOL0     C 9075   8.440   3.355   6.819 -0.4865  0.6266 -0.7876
  791MOL0     C 9076   8.362   3.469   6.840  0.2784  0.4637  0.5715
  791MOL0     C 9077   8.375   3.585   6.773 -1.2132 -0.4861  0.3369
  791MOL0     C 9078   8.483   3.589   6.683  0.4613  0.5639 -0.6953
  791MOL0     O 9079   8.515   3.698   6.608  0.2343 -0.4401 -0.2533
  791MOL0     C 9080   8.443   3.822   6.632 -0.2178 -0.1681 -0.6666
  791MOL0     C 9081   8.484   3.934   6.535  0.4935 -0.3039  0.0080
  791MOL0     C 9082   8.425   3.918   6.394  0.1801  0.4713  0.1117
  791MOL0     C 9083   8.513   3.999   6.298  0.1580 -0.0180  0.0603
  791MOL0     C 9084   8.485   3.988   6.154  0.5754 -1.0143  0.5005
  791MOL0     C 9085   8.462   3.980   6.036  0.2147 -0.0888  0.2995
  791MOL0     C 9086   8.568   3.475   6.660  0.8048 -0.1448  0.3343
  791MOL0     C 9087   8.545   3.356   6.728 -0.0990 -0.5667  0.3100
  791MOL0     C 9088   8.633   3.246   6.683 -0.2779  0.0722 -0.1033
  791MOL0     H 9089   8.356   3.149   7.192 -0.2828 -1.3826  0.2247
  791MOL0     H 9090   8.237   2.971   7.313  0.5595  1.2647  0.8985
  791MOL0     H 9091   8.198   2.780   7.353  0.3426  0.0552 -0.3722
  791MOL0     H 9092   8.131   2.638   7.309 -0.6306 -0.4330 -0.7731
  791MOL0     H 9093   7.956   2.861   7.417 -1.6976 -0.5525  1.3394
  791MOL0     H 9094   7.913   2.691   7.391 -1.8042  2.3742  0.0842
  791MOL0     H 9095   8.139   2.660   7.556  0.6737  1.2558 -1.1637
  791MOL0     H 9096   8.088   2.821   7.608  1.6569 -1.4084 -0.0240
  791MOL0     H 9097   7.865   2.711   7.656  0.0812  2.4958  0.9453
  791MOL0     H 9098   7.953   2.554   7.631  0.1038 -0.8292  0.9910
  791MOL0     H 9099   7.928   2.634   7.872 -2.0380  3.7405  0.7408
  791MOL0     H 9100   8.040   2.759   7.841  0.2846  0.2440 -1.7282
  791MOL0     H 9101   8.101   2.460   7.811 -1.1187  2.0868 -2.2678
  791MOL0     H 9102   8.216   2.583   7.769  1.2385  0.3114 -0.0983
  791MOL0     H 9103   8.111   2.538   8.049  0.6007 -2.6041 -1.3308
  791MOL0     H 9104   8.222   2.675   7.996  1.0569 -0.0354  0.3552
  791MOL0     H 9105   8.303   2.483   8.125  0.8660 -1.5520  0.0455
  791MOL0     H 9106   8.270   2.388   7.983 -0.7454  0.4283 -0.6156
  791MOL0     H 9107   8.459   2.367   7.825  0.7897 -0.3504  1.0645
  791MOL0     H 9108   8.690   2.448   7.676  0.3013 -2.5333  2.5866
  791MOL0     H 9109   8.785   2.443   7.823  1.2092 -0.1333 -2.0413
  791MOL0     H 9110   8.743   2.698   7.664  0.9041  1.8405 -0.0951
  791MOL0     H 9111   8.842   2.684   7.814  1.7486 -0.2491  0.1187
  791MOL0     H 9112   8.997   2.530   7.675 -0.8427 -0.1026 -0.6763
  791MOL0     H 9113   8.879   2.562   7.543  1.0587 -0.7638 -0.9634
  791MOL0     H 9114   9.099   2.672   7.562 -0.9030 -1.4613  0.5614
  791MOL0     H 9115   8.952   2.760   7.503 -0.4978  2.9568  1.3185
  791MOL0     H 9116   8.906   3.016   7.804 -0.1697 -4.8533 -2.4184
  791MOL0     H 9117   8.800   3.298   7.726 -0.3948 -4.3904 -1.0390
  791MOL0     H 9118   8.955   3.371   7.777 -0.0940  0.1388  3.0645
  791MOL0     H 9119   8.883   3.234   7.869 -0.3971 -0.7904 -0.9411
  791MOL0     H 9120   9.329   3.595   7.500  1.9168  1.0560 -0.2958
  791MOL0     H 9121   9.376   3.777   7.359 -0.5902 -0.5496  2.9925
  791MOL0     H 9122   9.091   3.847   6.995  1.6080 -3.9532  1.7594
  791MOL0     H 9123   9.056   3.953   7.131 -2.7058 -0.9683 -1.9287
  791MOL0     H 9124   9.120   4.085   6.937 -0.0298 -1.0059 -1.3066
  791MOL0     H 9125   9.274   4.085   7.042  0.7242 -1.1058 -0.0560
  791MOL0     H 9126   9.224   3.910   6.809 -5.2367  3.3017  1.3586
  791MOL0     H 9127   9.358   3.897   6.916 -1.0496  0.7174  3.1234
  791MOL0     H 9128   9.387   4.160   6.868  2.0194 -0.8109 -0.0638
  791MOL0     H 9129   9.259   4.143   6.749  1.0249  1.0376 -0.5419
  791MOL0     H 9130   9.511   4.134   6.659  0.2904 -0.8029 -0.8650
  791MOL0     H 9131   9.513   3.980   6.747 -3.1521 -2.0253  1.7255
  791MOL0     H 9132   9.307   4.060   6.544 -0.3456  0.0628  0.8448
  791MOL0     H 9133   9.335   3.899   6.609 -2.5959  1.8877 -1.2342
  791MOL0     H 9134   9.561   3.892   6.485  0.6854  0.5293 -0.1074
  791MOL0     H 9135   9.534   4.049   6.422  2.4728 -0.6275  2.5037
  791MOL0     H 9136   9.352   3.819   6.348 -2.2634  1.3663 -2.2512
  791MOL0     H 9137   9.495   3.873   6.265 -1.6575 -0.3167 -0.9744
  791MOL0     H 9138   9.040   3.641   7.100 -1.7711 -0.9012  2.2037
  791MOL0     H 9139   9.016   3.453   7.229  0.0506  0.7611 -1.9206
  791MOL0     H 9140   9.165   3.153   7.399 -2.6550  0.5863 -1.6157
  791MOL0     H 9141   9.165   2.920   7.484 -0.4828  0.6277 -1.4259
  791MOL0     H 9142   8.000   2.879   6.976 -0.7329  0.8504 -0.1330
  791MOL0     H 9143   8.109   3.058   6.842 -0.0103 -2.3614 -1.0610
  791MOL0     H 9144   8.277   3.454   6.907 -1.5215 -1.2878 -1.9132
  791MOL0     H 9145   8.306   3.668   6.787 -0.7221  0.2240 -1.1829
  791MOL0     H 9146   8.338   3.799   6.650 -0.2990  0.4585 -0.3178
  791MOL0     H 9147   8.472   3.862   6.730 -0.8022  0.8224 -0.8889
  791MOL0     H 9148   8.592   3.923   6.530  0.5855  0.4166  0.2673
  791MOL0     H 9149   8.470   4.032   6.583 -4.7192  0.0921 -1.6337
  791MOL0     H 9150   8.416   3.814   6.362  0.5675  1.1468 -2.3906
  791MOL0     H 9151   8.323   3.955   6.394 -0.4915 -1.2902 -0.0246
  791MOL0     H 9152   8.616   3.962   6.309 -0.1079 -1.3398 -1.4884
  791MOL0     H 9153   8.512   4.104   6.328  1.0296  0.0264 -0.0184
  791MOL0     H 9154   8.420   3.962   5.939 -0.6583  0.6616  0.5273
  791MOL0     H 9155   8.635   3.482   6.575 -0.9797 -2.2672 -1.3436
  791MOL0     H 9156   8.716   3.261   6.615 -0.0073  1.3958  0.4872
  791MOL0     H 9157   8.685   3.204   6.770  0.0463  1.3029  0.3056
  791MOL0     H 9158   8.574   3.166   6.635 -0.3178 -0.6176  1.0462
  792MOL0     O 9159   3.725   8.751   1.016 -0.3412 -0.2614 -0.0209
  792MOL0     C 9160   3.768   8.666   1.092 -0.0125  0.7136  1.2700
  792MOL0     O 9161   3.690   8.607   1.188  0.0109  0.1597 -0.4745
  792MOL0     C 9162   3.565   8.651   1.219  0.3022  0.2042  0.3060
  792MOL0     C 9163   3.523   8.653   1.351 -0.4030 -0.1339  0.0610
  792MOL0     C 9164   3.402   8.707   1.395 -0.3211  0.9900  0.3481
  792MOL0     C 9165   3.307   8.740   1.304  0.3876  0.2158  0.3863
  792MOL0     O 9166   3.178   8.785   1.341 -0.5573 -0.3887  1.1397
  792MOL0     C 9167   3.117   8.707   1.443  0.0115  0.3173 -0.2012
  792MOL0     C 9168   2.967   8.691   1.406  0.5880 -0.1134 -0.5121
  792MOL0     C 9169   2.903   8.584   1.491  1.0193 -1.1740 -0.3546
  792MOL0     C 9170   2.752   8.566   1.449 -0.6932 -0.5313 -0.8817
  792MOL0     C 9171   2.674   8.498   1.563  0.2370 -0.5885 -0.3909
  792MOL0     C 9172   2.655   8.589   1.691 -0.0874  0.6336 -0.4600
  792MOL0     C 9173   2.538   8.536   1.773  0.4975  0.4908 -0.0350
  792MOL0     C 9174   2.575   8.407   1.842 -0.4762  0.6887  0.2501
  792MOL0     N 9175   2.476   8.365   1.937 -0.4389  0.3743 -0.1617
  792MOL0     C 9176   2.501   8.367   2.069  0.7016  0.3168  0.1372
  792MOL0     C 9177   2.393   8.283   2.112 -0.2500 -0.1310 -0.4634
  792MOL0     C 9178   2.371   8.247   2.268 -0.2443 -0.3535 -0.1560
  792MOL0     C 9179   2.330   8.100   2.287 -0.2524 -0.9051  0.2968
  792MOL0     C 9180   2.313   8.072   2.429 -0.3755  0.3236 -0.3918
  792MOL0     C 9181   2.262   7.936   2.461  0.1064  0.2085 -0.1805
  792MOL0     O 9182   2.333   7.832   2.385  0.1590  0.9858  0.7416
  792MOL0     C 9183   2.451   7.778   2.437  0.2428  0.7013 -0.2022
  792MOL0     C 9184   2.510   7.673   2.363 -0.3571 -0.2098  0.0120
  792MOL0     C 9185   2.613   7.591   2.407 -0.3219 -0.6860 -0.5347
  792MOL0     C 9186   2.653   7.474   2.316 -0.1549 -0.3008 -0.3672
  792MOL0     C 9187   2.664   7.617   2.536  0.6932  0.2298  0.3886
  792MOL0     C 9188   2.765   7.542   2.601  0.0882  0.2735  0.6781
  792MOL0     O 9189   2.868   7.618   2.654  0.4186 -0.2139  0.1429
  792MOL0     C 9190   2.992   7.570   2.686  0.5164 -0.3103 -0.1073
  792MOL0     C 9191   3.052   7.600   2.810  1.0445  0.6416 -0.8133
  792MOL0     C 9192   3.169   7.545   2.852 -0.3402 -0.0200 -0.1415
  792MOL0     C 9193   3.243   7.470   2.758 -0.0159  0.5312  0.4943
  792MOL0     O 9194   3.373   7.422   2.793 -0.8806 -0.8691 -0.3300
  792MOL0     C 9195   3.408   7.430   2.931  0.3390 -0.2807  1.4849
  792MOL0     C 9196   3.540   7.356   2.937  0.5953  0.7792 -0.1552
  792MOL0     C 9197   3.659   7.437   2.906  0.2299  0.2017  0.3083
  792MOL0     C 9198   3.793   7.370   2.920  0.3885 -0.2957 -0.3164
  792MOL0     C 9199   3.826   7.340   3.070  0.1220  0.9860 -0.3643
  792MOL0     C 9200   3.918   7.220   3.088  0.6467  0.8298 -0.0652
  792MOL0     C 9201   4.054   7.224   3.021  1.4851 -0.1813  0.2226
  792MOL0     C 9202   4.125   7.356   3.064 -0.1635  0.4434 -0.3150
  792MOL0    Cl 9203   4.252   7.359   2.948  0.5430  0.3712  0.4429
  792MOL0     C 9204   3.192   7.441   2.633  0.6819  0.0471 -0.0474
  792MOL0     C 9205   3.064   7.488   2.594  0.4109 -0.2121 -0.3073
  792MOL0     O 9206   2.763   7.415   2.592 -0.3630 -0.1741 -0.0022
  792MOL0     C 9207   2.611   7.719   2.614  0.2236 -0.7144  0.4945
  792MOL0     C 9208   2.512   7.802   2.562 -0.6792 -0.3741 -0.4365
  792MOL0     N 9209   2.309   8.251   2.002  0.2065 -1.1713 -1.1535
  792MOL0     N 9210   2.364   8.300   1.901  0.6672  0.3500 -0.1045
  792MOL0     C 9211   3.338   8.725   1.171  0.0644 -0.4423  0.1789
  792MOL0     C 9212   3.466   8.683   1.128 -1.1386  0.7130  0.0633
  792MOL0     C 9213   3.911   8.632   1.077  0.0254 -0.0515  0.1562
  792MOL0     C 9214   3.969   8.652   0.949 -0.4729  0.3948 -0.0540
  792MOL0     C 9215   4.096   8.625   0.933 -0.2908  0.1638  0.5519
  792MOL0     C 9216   4.177   8.566   1.027 -0.4055  0.1635 -0.1105
  792MOL0     O 9217   4.297   8.519   0.973  0.3298  0.2741 -0.7833
  792MOL0     C 9218   4.395   8.486   1.069  0.4072  0.1588 -0.0396
  792MOL0     C 9219   4.527   8.481   0.989 -0.1265  0.3110  0.4599
  792MOL0     C 9220   4.548   8.345   0.923 -0.2790 -0.2171 -0.6668
  792MOL0     C 9221   4.619   8.226   1.003 -0.0342  0.0874  0.2976
  792MOL0     C 9222   4.744   8.261   1.066 -0.1930  0.2335  0.9917
  792MOL0     C 9223   4.857   8.273   1.101 -0.6279 -0.7047  0.6291
  792MOL0     C 9224   4.125   8.542   1.149  0.7839  0.1390  0.7174
  792MOL0     C 9225   3.993   8.578   1.180  0.1494  0.7959  0.2628
  792MOL0     C 9226   3.943   8.540   1.318 -0.3771 -0.7858 -0.6093
  792MOL0     H 9227   3.593   8.623   1.429 -0.0153  2.1020  0.6654
  792MOL0     H 9228   3.393   8.721   1.503  1.3515  1.5433  0.4420
  792MOL0     H 9229   3.129   8.765   1.535 -0.6162 -2.1931  1.5609
  792MOL0     H 9230   3.163   8.611   1.467 -0.2173  0.7071  1.9726
  792MOL0     H 9231   2.907   8.780   1.427  0.6510 -0.2400  0.2317
  792MOL0     H 9232   2.965   8.670   1.299  1.9938  2.6490 -1.1492
  792MOL0     H 9233   2.955   8.488   1.477  2.4158 -0.7160  1.2600
  792MOL0     H 9234   2.910   8.608   1.598  1.5026 -2.6373 -0.0359
  792MOL0     H 9235   2.700   8.655   1.411 -0.2952 -0.9350 -2.4577
  792MOL0     H 9236   2.754   8.495   1.366  3.0504 -1.4740 -0.1354
  792MOL0     H 9237   2.726   8.403   1.580  1.4781  0.2320  0.4973
  792MOL0     H 9238   2.576   8.466   1.525  0.3082 -0.8909 -0.3255
  792MOL0     H 9239   2.740   8.598   1.760 -0.9834  2.8906  0.4371
  792MOL0     H 9240   2.648   8.691   1.653 -0.2425  0.3298 -1.2826
  792MOL0     H 9241   2.448   8.523   1.712  0.6443 -0.9704  0.0264
  792MOL0     H 9242   2.516   8.619   1.841 -0.8617  0.3432 -0.2715
  792MOL0     H 9243   2.585   8.325   1.771  2.0549  2.7915 -2.0527
  792MOL0     H 9244   2.670   8.421   1.894 -0.7215  0.5864  0.7401
  792MOL0     H 9245   2.579   8.419   2.124  0.9146 -1.7541  1.9391
  792MOL0     H 9246   2.298   8.316   2.313 -0.9815 -1.6295  0.6573
  792MOL0     H 9247   2.473   8.253   2.307 -0.1285  1.2922 -0.6157
  792MOL0     H 9248   2.241   8.079   2.227  0.3837 -0.3224 -0.8791
  792MOL0     H 9249   2.406   8.036   2.242 -0.2092 -2.0175  1.8539
  792MOL0     H 9250   2.401   8.086   2.491  0.2002  0.4776 -1.2247
  792MOL0     H 9251   2.242   8.148   2.463 -1.5692  0.0829 -2.2148
  792MOL0     H 9252   2.253   7.916   2.568 -1.1900 -0.2809 -0.3588
  792MOL0     H 9253   2.159   7.936   2.423 -0.5478  0.8849  1.5241
  792MOL0     H 9254   2.457   7.656   2.269  0.4774 -2.4920 -0.1147
  792MOL0     H 9255   2.613   7.381   2.358 -0.8197  0.0146 -0.2839
  792MOL0     H 9256   2.762   7.471   2.319 -0.1616  0.0976  0.3774
  792MOL0     H 9257   2.620   7.497   2.214  0.8993  1.3529 -0.3684
  792MOL0     H 9258   2.998   7.660   2.882 -0.1769 -0.0203 -1.1499
  792MOL0     H 9259   3.207   7.579   2.948  0.9974  1.6216 -1.1826
  792MOL0     H 9260   3.414   7.532   2.971  2.3688 -0.3337  1.4092
  792MOL0     H 9261   3.331   7.381   2.992 -0.4243 -0.5098  0.3809
  792MOL0     H 9262   3.556   7.305   3.033  2.1716 -1.2358 -1.3921
  792MOL0     H 9263   3.527   7.272   2.868  2.5576 -1.8752  2.4286
  792MOL0     H 9264   3.657   7.528   2.967  1.7972  0.8116 -0.5009
  792MOL0     H 9265   3.631   7.479   2.810 -4.7039  3.4708  2.7722
  792MOL0     H 9266   3.873   7.428   2.873 -1.0715  3.7784  1.7665
  792MOL0     H 9267   3.791   7.277   2.862  3.6036  0.1649 -1.4038
  792MOL0     H 9268   3.863   7.429   3.122 -0.5951  0.4836  1.0588
  792MOL0     H 9269   3.730   7.319   3.118  1.2383 -2.6575  0.6228
  792MOL0     H 9270   3.863   7.133   3.051  0.7585 -0.1318  1.8954
  792MOL0     H 9271   3.941   7.207   3.194 -1.5991 -0.4905  0.3260
  792MOL0     H 9272   4.042   7.206   2.913  1.8637  2.5570 -0.3471
  792MOL0     H 9273   4.105   7.137   3.061 -1.4426 -1.1833  2.0890
  792MOL0     H 9274   4.165   7.366   3.165  3.3360  0.9079 -1.5949
  792MOL0     H 9275   4.052   7.436   3.055 -2.7158 -1.6452  0.5807
  792MOL0     H 9276   3.249   7.381   2.563  1.0097 -1.4778  1.4609
  792MOL0     H 9277   3.034   7.471   2.491  0.8612 -0.0082 -0.4732
  792MOL0     H 9278   2.671   7.737   2.703  0.5805 -2.0458  0.5433
  792MOL0     H 9279   2.483   7.893   2.614 -0.0914 -1.2284  1.4739
  792MOL0     H 9280   3.259   8.748   1.100 -0.2161 -0.8525  0.3553
  792MOL0     H 9281   3.485   8.670   1.022 -0.6246  0.8978  0.1276
  792MOL0     H 9282   3.906   8.702   0.876 -1.2773 -0.3731  0.0977
  792MOL0     H 9283   4.142   8.647   0.837  3.8836 -0.8452  2.0827
  792MOL0     H 9284   4.388   8.573   1.135 -1.7013 -0.2883  0.3954
  792MOL0     H 9285   4.373   8.391   1.121 -2.3610  0.4431 -0.5429
  792MOL0     H 9286   4.601   8.505   1.066  0.6345  1.1820 -0.5222
  792MOL0     H 9287   4.544   8.556   0.912  3.3628 -1.5784 -0.8342
  792MOL0     H 9288   4.450   8.301   0.904 -0.0663 -2.0836  1.9763
  792MOL0     H 9289   4.609   8.352   0.832  0.8841 -0.5770  0.0621
  792MOL0     H 9290   4.630   8.138   0.939 -0.2501  0.8329 -0.7956
  792MOL0     H 9291   4.548   8.197   1.081 -2.6897  0.5286 -1.8057
  792MOL0     H 9292   4.956   8.292   1.137 -1.2011 -0.9628  2.4290
  792MOL0     H 9293   4.184   8.491   1.225  1.7855  1.4248  0.8399
  792MOL0     H 9294   3.918   8.633   1.372 -1.6353 -0.5649 -1.5358
  792MOL0     H 9295   3.855   8.477   1.302  0.0220 -0.9710 -2.2604
  792MOL0     H 9296   4.018   8.481   1.372  2.0755  2.4229 -0.1771
  793MOL0     O 9297   7.350  10.463  10.654  0.2801  0.3812  0.4633
  793MOL0     C 9298   7.372  10.527  10.551 -1.1061 -1.0341 -1.2045
  793MOL0     O 9299   7.329  10.496  10.429 -0.2409  0.1800  0.2955
  793MOL0     C 9300   7.253  10.380  10.412 -0.0959 -0.0996  0.3811
  793MOL0     C 9301   7.118  10.385  10.382  0.5798 -0.2979  1.1908
  793MOL0     C 9302   7.038  10.274  10.370 -0.2564  0.0732 -0.2489
  793MOL0     C 9303   7.100  10.140  10.376  0.2889  0.6400  0.1367
  793MOL0     O 9304   7.042  10.027  10.339  0.4148 -0.0411  0.1818
  793MOL0     C 9305   6.912   9.993  10.372 -0.7668  0.3371  0.1445
  793MOL0     C 9306   6.878   9.982  10.516  0.2788 -0.0926 -0.2920
  793MOL0     C 9307   6.974   9.881  10.578  0.6995 -0.2251 -0.3654
  793MOL0     C 9308   6.902   9.792  10.685 -0.0550 -0.8023  0.2136
  793MOL0     C 9309   6.996   9.689  10.764  0.2669 -0.1063  0.5853
  793MOL0     C 9310   7.023   9.561  10.684 -0.1334 -1.8255 -0.1299
  793MOL0     C 9311   7.119   9.474  10.762 -0.4697 -0.1277  0.1381
  793MOL0     C 9312   7.183   9.377  10.659  0.4302  0.5944 -0.3705
  793MOL0     N 9313   7.272   9.278  10.713 -0.1200  0.2537  0.3155
  793MOL0     C 9314   7.235   9.159  10.767  0.6398 -1.0160  0.3983
  793MOL0     C 9315   7.342   9.093  10.813 -0.3079  0.3067 -0.7825
  793MOL0     C 9316   7.342   8.974  10.904 -0.5831 -0.0639  0.6956
  793MOL0     C 9317   7.462   8.979  10.998  0.4028  1.3853 -0.7168
  793MOL0     C 9318   7.466   8.854  11.092 -0.8021 -0.4827  0.2322
  793MOL0     C 9319   7.602   8.823  11.151  0.4489  0.5679  0.0110
  793MOL0     O 9320   7.608   8.712  11.239  0.0884  0.5350 -0.0772
  793MOL0     C 9321   7.558   8.721  11.363  0.2378 -0.7613 -0.2721
  793MOL0     C 9322   7.545   8.602  11.442 -0.3843  0.1615 -0.8806
  793MOL0     C 9323   7.495   8.597  11.571  0.2836 -0.0666  0.8206
  793MOL0     C 9324   7.494   8.456  11.638  0.0342 -0.1514  0.2957
  793MOL0     C 9325   7.453   8.714  11.624  0.0885 -1.1420  0.5509
  793MOL0     C 9326   7.393   8.724  11.754 -0.8390 -0.2525 -0.4885
  793MOL0     O 9327   7.439   8.837  11.827  0.5716 -0.2895 -0.4721
  793MOL0     C 9328   7.388   8.852  11.953  0.2627 -0.6898 -0.1443
  793MOL0     C 9329   7.249   8.847  11.995  0.7131 -0.2687 -0.0698
  793MOL0     C 9330   7.219   8.879  12.123  0.0351  0.4276 -0.7178
  793MOL0     C 9331   7.309   8.925  12.221 -0.1903  0.1062 -0.9017
  793MOL0     O 9332   7.284   8.953  12.356 -0.1312  0.2817  0.2531
  793MOL0     C 9333   7.150   8.954  12.399 -0.6582 -0.5286  0.0703
  793MOL0     C 9334   7.134   8.971  12.557  0.3235 -0.1520  0.5498
  793MOL0     C 9335   6.988   8.988  12.592  0.5353 -0.1042  0.1518
  793MOL0     C 9336   6.973   9.033  12.739  0.5608  0.7866 -0.6622
  793MOL0     C 9337   6.832   9.024  12.796 -0.4566 -0.2148 -0.4515
  793MOL0     C 9338   6.835   9.064  12.946 -0.7221  0.7329 -0.4129
  793MOL0     C 9339   6.700   9.030  12.999  0.2642 -0.2183 -0.4416
  793MOL0     C 9340   6.698   9.023  13.152  0.5601  0.0920  0.2434
  793MOL0    Cl 9341   6.522   9.000  13.176  0.1333 -0.0732 -0.4936
  793MOL0     C 9342   7.442   8.927  12.183  0.1426 -0.6172 -0.5602
  793MOL0     C 9343   7.475   8.891  12.050  0.2166  0.0642 -0.9203
  793MOL0     O 9344   7.328   8.629  11.791  0.7147  0.8423 -0.5546
  793MOL0     C 9345   7.469   8.833  11.556  0.0766 -1.0033  0.4791
  793MOL0     C 9346   7.512   8.839  11.420  0.1327  0.4265 -0.1529
  793MOL0     N 9347   7.451   9.174  10.778  0.0992 -0.7537 -0.1057
  793MOL0     N 9348   7.407   9.274  10.710  0.4566  0.2711  0.9290
  793MOL0     C 9349   7.242  10.133  10.396 -0.0489 -0.5051 -0.1597
  793MOL0     C 9350   7.308  10.253  10.406  0.3333 -1.1181 -0.1154
  793MOL0     C 9351   7.454  10.651  10.564 -0.4011 -0.7918 -0.0129
  793MOL0     C 9352   7.536  10.671  10.683  1.0898  0.3972  0.0046
  793MOL0     C 9353   7.621  10.774  10.697  0.0602 -0.0616  0.0681
  793MOL0     C 9354   7.633  10.867  10.594  0.5743  0.5276  0.6183
  793MOL0     O 9355   7.715  10.981  10.599 -0.6062  0.8531  0.4640
  793MOL0     C 9356   7.773  11.018  10.719 -0.3741 -0.5694 -0.0915
  793MOL0     C 9357   7.834  11.159  10.691 -0.2398 -0.4125  0.0324
  793MOL0     C 9358   7.731  11.269  10.684 -0.2416  0.0571  0.8139
  793MOL0     C 9359   7.805  11.406  10.693  0.4048 -0.0222 -0.0264
  793MOL0     C 9360   7.880  11.433  10.567 -0.0294 -0.4278  0.1682
  793MOL0     C 9361   7.919  11.453  10.455  1.1162 -0.1720 -0.6506
  793MOL0     C 9362   7.554  10.857  10.475 -0.0194  0.3843  0.5668
  793MOL0     C 9363   7.459  10.750  10.466  0.1924 -0.1734 -0.8788
  793MOL0     C 9364   7.362  10.752  10.350 -0.3084  0.1718  0.1195
  793MOL0     H 9365   7.070  10.482  10.380  0.3661 -0.4063  1.0730
  793MOL0     H 9366   6.938  10.305  10.341 -0.0655  1.4508  0.4803
  793MOL0     H 9367   6.887   9.898  10.324  0.8519 -0.9685  1.7735
  793MOL0     H 9368   6.844  10.061  10.319 -0.6596  0.1537 -0.2321
  793MOL0     H 9369   6.890  10.081  10.562 -1.9122  0.9504 -1.7955
  793MOL0     H 9370   6.775   9.946  10.524  0.7288 -1.0210  3.0585
  793MOL0     H 9371   7.014   9.809  10.506 -1.0369 -1.0103 -0.6027
  793MOL0     H 9372   7.057   9.935  10.624  0.6980 -1.6216  1.3685
  793MOL0     H 9373   6.853   9.849  10.765  1.6412 -0.6842  1.2074
  793MOL0     H 9374   6.822   9.739  10.633 -0.8290  0.1343  0.4169
  793MOL0     H 9375   6.955   9.647  10.856  3.8558 -4.8858  0.3954
  793MOL0     H 9376   7.087   9.744  10.792 -0.6192  1.2966  0.8153
  793MOL0     H 9377   6.925   9.513  10.687 -2.2328  2.1514  1.5927
  793MOL0     H 9378   7.074   9.587  10.591  0.0952 -1.0026  0.2248
  793MOL0     H 9379   7.073   9.419  10.844  1.1039  1.2580  2.0550
  793MOL0     H 9380   7.192   9.528  10.823  0.4486 -0.6779 -0.4419
  793MOL0     H 9381   7.121   9.302  10.609  1.8844 -1.0670  0.2020
  793MOL0     H 9382   7.238   9.422  10.576  0.9489  0.6864  0.0118
  793MOL0     H 9383   7.133   9.131  10.791 -0.2945  1.0753 -0.9068
  793MOL0     H 9384   7.345   8.881  10.845  0.8206  0.7608 -0.6143
  793MOL0     H 9385   7.249   8.969  10.960 -0.4962 -1.0186  0.7728
  793MOL0     H 9386   7.561   8.980  10.952  1.3415 -0.9465  1.0100
  793MOL0     H 9387   7.450   9.070  11.058  1.1102  1.1593 -0.2046
  793MOL0     H 9388   7.392   8.862  11.173 -1.9237  1.8094 -0.9198
  793MOL0     H 9389   7.447   8.771  11.025 -0.7736  1.1464 -1.8879
  793MOL0     H 9390   7.671   8.799  11.069  0.4878  2.4210 -0.5429
  793MOL0     H 9391   7.635   8.911  11.208 -3.2083  1.7327  0.5716
  793MOL0     H 9392   7.584   8.521  11.381  1.2160  0.1382  0.1206
  793MOL0     H 9393   7.564   8.455  11.722  2.0429 -2.9761 -1.2478
  793MOL0     H 9394   7.519   8.363  11.586 -0.0345 -2.1212  3.4859
  793MOL0     H 9395   7.391   8.445  11.672 -1.0479  2.5014 -1.7620
  793MOL0     H 9396   7.167   8.821  11.929  0.9757  2.7202 -1.7371
  793MOL0     H 9397   7.115   8.854  12.142  0.3677  0.2690  0.9934
  793MOL0     H 9398   7.095   9.031  12.344 -2.0540 -0.5884  1.3183
  793MOL0     H 9399   7.102   8.865  12.357 -2.6621  1.3388 -1.8802
  793MOL0     H 9400   7.163   8.875  12.600 -1.8168 -1.3105 -0.4600
  793MOL0     H 9401   7.192   9.046  12.612 -1.9110  0.7154  1.8319
  793MOL0     H 9402   6.936   8.899  12.555  0.6616 -1.0443  2.1269
  793MOL0     H 9403   6.943   9.074  12.541 -1.3775 -2.0418 -1.6001
  793MOL0     H 9404   7.013   9.135  12.750  1.4207  0.3019  1.0839
  793MOL0     H 9405   7.040   8.966  12.794 -0.0855 -1.0127 -1.9791
  793MOL0     H 9406   6.754   9.069  12.734  1.6823 -3.4085 -6.2455
  793MOL0     H 9407   6.802   8.918  12.794 -0.6517 -0.2766  2.0502
  793MOL0     H 9408   6.850   9.169  12.973 -1.7987  0.9280 -0.5175
  793MOL0     H 9409   6.906   9.000  13.000 -0.2089  2.8164  1.5592
  793MOL0     H 9410   6.656   8.942  12.953 -1.9315 -2.0015  4.3038
  793MOL0     H 9411   6.640   9.118  12.971  0.1166 -0.5214 -1.0886
  793MOL0     H 9412   6.720   9.114  13.208  0.3602  1.9671 -2.4952
  793MOL0     H 9413   6.753   8.941  13.197 -1.8503 -2.3205 -0.8882
  793MOL0     H 9414   7.523   8.969  12.242 -0.5571 -0.7755  0.5457
  793MOL0     H 9415   7.577   8.885  12.014  0.7810  2.0400  0.1837
  793MOL0     H 9416   7.423   8.922  11.600 -0.9121 -0.8942 -0.7379
  793MOL0     H 9417   7.500   8.939  11.379 -1.3074  0.0494 -0.6991
  793MOL0     H 9418   7.296  10.040  10.381  2.5075  0.9344 -0.4910
  793MOL0     H 9419   7.417  10.250  10.402  0.4805  0.1178  1.7098
  793MOL0     H 9420   7.527  10.602  10.766  1.9549  2.3031  1.7448
  793MOL0     H 9421   7.677  10.772  10.790 -1.1354  1.0992  0.8568
  793MOL0     H 9422   7.697  11.024  10.797 -1.0179  2.1529 -0.8288
  793MOL0     H 9423   7.859  10.956  10.749  0.0472 -1.3382 -2.6767
  793MOL0     H 9424   7.882  11.162  10.593  0.8475  0.6707  0.5632
  793MOL0     H 9425   7.908  11.172  10.770 -1.8783  2.3577  1.2638
  793MOL0     H 9426   7.668  11.263  10.595  2.6688  1.2593 -1.4966
  793MOL0     H 9427   7.659  11.251  10.764 -1.5374  0.5452 -0.1969
  793MOL0     H 9428   7.877  11.415  10.774  1.3671 -0.6407 -0.7864
  793MOL0     H 9429   7.727  11.482  10.707  1.8412  1.1393  2.1841
  793MOL0     H 9430   7.972  11.475  10.365  1.4963 -0.2135 -0.4373
  793MOL0     H 9431   7.558  10.939  10.405 -0.7579 -1.5292 -1.8320
  793MOL0     H 9432   7.343  10.853  10.313 -2.7896  0.0245  0.8346
  793MOL0     H 9433   7.401  10.678  10.279 -2.3476 -0.9630  0.1168
  793MOL0     H 9434   7.259  10.721  10.370  0.0598 -0.4035  1.1848
  794MOL0     O 9435   4.845   3.774   8.812 -0.3994 -0.4661 -1.1496
  794MOL0     C 9436   4.759   3.779   8.906  0.2637  0.2684 -0.6667
  794MOL0     O 9437   4.783   3.735   9.034  0.9722  0.6395  0.1297
  794MOL0     C 9438   4.893   3.662   9.044 -0.4065 -0.4000 -0.3128
  794MOL0     C 9439   4.979   3.709   9.148  0.5836  0.2039  0.7364
  794MOL0     C 9440   5.091   3.632   9.172 -0.7061 -0.5366  0.3170
  794MOL0     C 9441   5.123   3.523   9.095 -0.5038 -0.3127 -0.1816
  794MOL0     O 9442   5.240   3.465   9.118 -0.4051 -0.1616 -0.0257
  794MOL0     C 9443   5.307   3.384   9.016  0.0916  0.4217  0.2876
  794MOL0     C 9444   5.448   3.339   9.045 -0.4740  1.2008  0.6585
  794MOL0     C 9445   5.541   3.449   9.085 -0.3079  0.5823  0.8696
  794MOL0     C 9446   5.681   3.377   9.073  1.0504 -0.0923 -0.5609
  794MOL0     C 9447   5.786   3.478   9.119  0.1113  0.8391 -0.3201
  794MOL0     C 9448   5.935   3.441   9.122  0.4125 -0.4340  0.2800
  794MOL0     C 9449   5.969   3.287   9.167  0.2484 -0.1408  0.3860
  794MOL0     C 9450   5.964   3.186   9.049 -0.2600  1.4125  0.1922
  794MOL0     N 9451   6.061   3.071   9.066  0.5675  0.0375 -0.8444
  794MOL0     C 9452   6.074   3.002   9.182  0.4650 -0.8786 -0.1788
  794MOL0     C 9453   6.185   2.925   9.162 -0.0414  1.1597 -0.2240
  794MOL0     C 9454   6.243   2.810   9.244 -0.1950 -0.2205 -0.1187
  794MOL0     C 9455   6.349   2.867   9.339 -0.7772  1.0713  0.0210
  794MOL0     C 9456   6.479   2.931   9.283 -0.0750 -1.0538  0.6589
  794MOL0     C 9457   6.574   2.819   9.237 -0.3479  0.9240  1.1719
  794MOL0     O 9458   6.708   2.852   9.282 -0.5203 -0.0692  0.8894
  794MOL0     C 9459   6.808   2.757   9.273  0.0439 -0.4799  0.3031
  794MOL0     C 9460   6.919   2.775   9.353  0.5349  0.7474 -0.7955
  794MOL0     C 9461   7.023   2.677   9.357 -0.0255 -1.1174  0.1981
  794MOL0     C 9462   7.135   2.692   9.460 -0.0001 -0.3202  0.4357
  794MOL0     C 9463   7.017   2.560   9.266 -0.4312  0.0034 -0.8991
  794MOL0     C 9464   7.136   2.469   9.247  0.0790 -0.1386 -0.6254
  794MOL0     O 9465   7.108   2.349   9.180  0.1826 -0.1510  0.2477
  794MOL0     C 9466   7.215   2.271   9.153 -0.3304 -1.0669 -1.1119
  794MOL0     C 9467   7.308   2.229   9.252  0.4311  0.5140  0.9697
  794MOL0     C 9468   7.422   2.140   9.214 -0.6558 -0.0109 -0.4238
  794MOL0     C 9469   7.442   2.102   9.080  0.7943  0.0566 -0.0349
  794MOL0     O 9470   7.539   2.016   9.027 -0.1889  0.6715 -0.1670
  794MOL0     C 9471   7.644   1.981   9.116  0.2528 -0.2030  0.6822
  794MOL0     C 9472   7.757   1.905   9.044 -0.4373 -0.8776 -0.3931
  794MOL0     C 9473   7.720   1.762   9.021  0.7388  0.4321  0.1905
  794MOL0     C 9474   7.843   1.684   8.967  0.4949  0.1329  0.5773
  794MOL0     C 9475   7.848   1.527   8.984  0.4929  0.2574 -0.9489
  794MOL0     C 9476   7.715   1.463   8.947 -0.3391  0.6271 -0.7277
  794MOL0     C 9477   7.709   1.303   8.955  0.2810 -0.1007 -0.4167
  794MOL0     C 9478   7.579   1.256   8.899  0.1338 -0.4277  0.0106
  794MOL0    Cl 9479   7.598   1.074   8.916  0.0929  0.2632  0.1991
  794MOL0     C 9480   7.340   2.141   8.982 -0.5800 -0.3585 -0.5455
  794MOL0     C 9481   7.234   2.230   9.028  0.7122  0.5349  0.5979
  794MOL0     O 9482   7.248   2.507   9.284 -0.5351  0.4536 -0.7607
  794MOL0     C 9483   6.908   2.548   9.189  1.1011  0.1930 -0.0593
  794MOL0     C 9484   6.797   2.633   9.210  0.1486 -0.1234  0.5881
  794MOL0     N 9485   6.242   2.954   9.038 -0.4956 -0.4216  0.2601
  794MOL0     N 9486   6.161   3.036   8.981  0.5305 -0.0390 -0.7664
  794MOL0     C 9487   5.043   3.481   8.990  1.5907  0.5051 -0.6208
  794MOL0     C 9488   4.918   3.545   8.974 -0.1354 -0.2158 -0.7202
  794MOL0     C 9489   4.633   3.862   8.895 -0.7021  0.0999 -0.3353
  794MOL0     C 9490   4.605   3.933   9.012 -0.6253 -0.4551 -0.9766
  794MOL0     C 9491   4.488   3.996   9.017 -0.7827 -0.0420  0.3308
  794MOL0     C 9492   4.409   4.007   8.906 -0.4178 -0.3442  0.7791
  794MOL0     O 9493   4.284   4.061   8.925 -0.3017  0.2571  0.1237
  794MOL0     C 9494   4.171   3.972   8.919  0.2215  0.2789  0.6406
  794MOL0     C 9495   4.162   3.855   9.011 -0.3365  0.1183  0.5959
  794MOL0     C 9496   4.139   3.903   9.157 -0.3669 -0.3442  0.1784
  794MOL0     C 9497   4.097   3.779   9.238  0.5395 -0.0765 -0.5064
  794MOL0     C 9498   4.120   3.792   9.391  0.0255 -0.0510  0.7167
  794MOL0     C 9499   4.149   3.788   9.511 -0.0362 -0.1470 -0.3460
  794MOL0     C 9500   4.458   3.954   8.784  0.1591 -0.2635 -0.1256
  794MOL0     C 9501   4.572   3.876   8.777  0.5049  0.8874 -0.2783
  794MOL0     C 9502   4.605   3.800   8.652  0.2661  0.4211 -0.1958
  794MOL0     H 9503   4.963   3.803   9.201 -1.0450 -0.0495  0.7523
  794MOL0     H 9504   5.161   3.643   9.255 -0.0711 -0.0338 -0.2788
  794MOL0     H 9505   5.318   3.441   8.924 -0.9422  0.4915  0.1925
  794MOL0     H 9506   5.240   3.301   8.992 -0.0945  0.2016  1.4861
  794MOL0     H 9507   5.451   3.260   9.120  2.1256  0.2814 -0.2952
  794MOL0     H 9508   5.486   3.292   8.954 -0.3521 -1.1516  1.8589
  794MOL0     H 9509   5.535   3.541   9.026  0.4938  0.2152  0.1955
  794MOL0     H 9510   5.528   3.469   9.192 -2.1323 -0.1623  0.8270
  794MOL0     H 9511   5.678   3.283   9.128 -1.2384 -2.5435 -4.3956
  794MOL0     H 9512   5.694   3.357   8.966  0.3157 -1.2209 -0.4504
  794MOL0     H 9513   5.765   3.508   9.222  0.6481  2.7319 -0.7186
  794MOL0     H 9514   5.773   3.556   9.044 -0.8377 -2.7711 -4.2519
  794MOL0     H 9515   5.984   3.461   9.026  1.4991 -0.2222  0.8647
  794MOL0     H 9516   5.978   3.513   9.191 -2.6327  1.6681  0.1909
  794MOL0     H 9517   5.900   3.254   9.245 -0.7701  0.3375 -0.2884
  794MOL0     H 9518   6.076   3.288   9.189 -0.1537 -0.3456  2.6192
  794MOL0     H 9519   5.861   3.149   9.046  0.4361 -0.6040 -2.1275
  794MOL0     H 9520   6.001   3.235   8.959 -0.6480  0.9384 -0.2253
  794MOL0     H 9521   5.998   2.996   9.260  0.0211 -0.0590 -0.5349
  794MOL0     H 9522   6.278   2.731   9.177 -4.6691 -1.7638 -1.0294
  794MOL0     H 9523   6.162   2.759   9.297 -0.2620  1.7771  1.8616
  794MOL0     H 9524   6.297   2.939   9.403 -0.8009  2.4120 -1.4493
  794MOL0     H 9525   6.372   2.785   9.408 -2.3235  2.8685  2.8773
  794MOL0     H 9526   6.453   2.996   9.199 -4.6159 -0.3198  2.3814
  794MOL0     H 9527   6.537   2.996   9.349 -0.5915 -1.0498  1.1058
  794MOL0     H 9528   6.553   2.726   9.289  0.9560 -0.6466 -0.9459
  794MOL0     H 9529   6.560   2.784   9.134  0.5856  1.6856  0.7687
  794MOL0     H 9530   6.932   2.849   9.431 -0.4904 -0.5997  0.6976
  794MOL0     H 9531   7.225   2.728   9.409  1.1787 -2.9373  0.5259
  794MOL0     H 9532   7.161   2.598   9.509  3.1422 -0.9243 -2.0692
  794MOL0     H 9533   7.106   2.768   9.534 -0.1517  0.7439 -0.6663
  794MOL0     H 9534   7.310   2.270   9.353 -0.9076 -1.7507  2.0206
  794MOL0     H 9535   7.493   2.128   9.295  1.5824  1.3626 -2.0687
  794MOL0     H 9536   7.684   2.073   9.160  1.5115 -0.7769  0.7720
  794MOL0     H 9537   7.614   1.915   9.199  0.4474 -1.2505 -0.0604
  794MOL0     H 9538   7.798   1.955   8.956  0.7176 -1.2441 -0.0822
  794MOL0     H 9539   7.843   1.907   9.111  0.9044  1.6514 -2.0505
  794MOL0     H 9540   7.632   1.752   8.957  0.5725 -1.9944  0.6825
  794MOL0     H 9541   7.692   1.722   9.119 -2.0863  0.5725 -0.4882
  794MOL0     H 9542   7.940   1.713   9.008  2.2120 -3.9238 -0.1313
  794MOL0     H 9543   7.843   1.715   8.862  0.0842  1.0243  0.8256
  794MOL0     H 9544   7.929   1.491   8.920 -1.0669 -1.1583 -2.2396
  794MOL0     H 9545   7.887   1.488   9.079  1.3857 -2.3097 -2.2444
  794MOL0     H 9546   7.706   1.496   8.844  0.5738  4.1680  0.1918
  794MOL0     H 9547   7.644   1.508   9.017 -0.4468  0.3088 -0.6307
  794MOL0     H 9548   7.717   1.272   9.060  1.3959  2.3476  0.2824
  794MOL0     H 9549   7.788   1.259   8.893 -1.3786 -2.5349 -0.9569
  794MOL0     H 9550   7.559   1.289   8.797  0.2801  0.6927  0.3293
  794MOL0     H 9551   7.497   1.296   8.960  1.4223 -1.8311  2.8423
  794MOL0     H 9552   7.352   2.098   8.883  1.9068  0.8818 -0.8709
  794MOL0     H 9553   7.171   2.286   8.959  0.4380 -0.3950  0.0710
  794MOL0     H 9554   6.883   2.462   9.127 -0.9656 -0.2846  1.3298
  794MOL0     H 9555   6.700   2.607   9.168 -0.7490  0.0711  2.4448
  794MOL0     H 9556   5.072   3.404   8.918 -0.5610 -0.3734 -0.6155
  794MOL0     H 9557   4.848   3.497   8.905 -0.0079 -1.4441 -0.0169
  794MOL0     H 9558   4.662   3.924   9.104 -1.4059  2.6391 -0.0590
  794MOL0     H 9559   4.450   4.029   9.113  0.1734 -1.4101  1.2205
  794MOL0     H 9560   4.072   4.017   8.935 -2.0022 -3.5402 -0.9305
  794MOL0     H 9561   4.169   3.925   8.820  0.0030  1.1559  0.2129
  794MOL0     H 9562   4.260   3.807   9.013  1.2282  2.7759 -2.5427
  794MOL0     H 9563   4.079   3.792   8.980 -0.4031  0.7001 -0.4719
  794MOL0     H 9564   4.234   3.941   9.196 -0.8560 -1.2549  2.4303
  794MOL0     H 9565   4.058   3.976   9.160  0.1824  0.2610  0.5062
  794MOL0     H 9566   4.160   3.693   9.213  2.1370 -0.1403  2.9958
  794MOL0     H 9567   3.999   3.741   9.210  0.1811  0.5714 -0.1672
  794MOL0     H 9568   4.179   3.798   9.613  1.9849  0.2675 -0.9388
  794MOL0     H 9569   4.402   3.977   8.694 -1.8029  1.3667  1.4247
  794MOL0     H 9570   4.643   3.700   8.677  0.4872  0.2844 -1.0532
  794MOL0     H 9571   4.519   3.780   8.586 -0.6367  0.2657  0.9928
  794MOL0     H 9572   4.685   3.848   8.596  1.0740 -2.0105 -1.2771
  795MOL0     O 9573   6.512   2.449   2.868 -0.4806 -0.6647 -0.4947
  795MOL0     C 9574   6.597   2.425   2.789  1.0293  0.0705  0.4063
  795MOL0     O 9575   6.711   2.494   2.775  0.0557  0.0065 -0.1839
  795MOL0     C 9576   6.743   2.584   2.871 -0.6002 -0.4172  0.1500
  795MOL0     C 9577   6.769   2.559   3.012  0.3640  0.3623  1.0883
  795MOL0     C 9578   6.817   2.660   3.092 -0.9284  0.2545 -0.4088
  795MOL0     C 9579   6.832   2.785   3.044  0.3207 -0.5544  0.9197
  795MOL0     O 9580   6.879   2.892   3.117 -0.2377 -0.0755  0.2455
  795MOL0     C 9581   6.987   2.860   3.205 -0.0290 -0.1198  1.4437
  795MOL0     C 9582   7.115   2.831   3.128  0.7205 -0.5182  0.5048
  795MOL0     C 9583   7.169   2.952   3.049 -0.3050  0.7458  0.8219
  795MOL0     C 9584   7.271   2.904   2.945 -0.0467  0.8088  0.6731
  795MOL0     C 9585   7.320   3.032   2.869 -0.3107  0.8217 -0.1195
  795MOL0     C 9586   7.443   2.987   2.790  0.2920  0.9655 -0.9657
  795MOL0     C 9587   7.402   2.921   2.657 -0.2177 -0.2218  0.3237
  795MOL0     C 9588   7.332   3.015   2.555 -0.1785 -0.2012 -0.4432
  795MOL0     N 9589   7.310   2.942   2.428  0.4323 -0.5491 -0.0392
  795MOL0     C 9590   7.194   2.878   2.394 -0.1560  0.0797  0.0503
  795MOL0     C 9591   7.204   2.856   2.265 -0.3374  0.5634 -0.2227
  795MOL0     C 9592   7.100   2.784   2.183  0.3471 -0.0999  0.4506
  795MOL0     C 9593   6.953   2.801   2.237 -0.1360  0.1464  0.6244
  795MOL0     C 9594   6.860   2.767   2.122  0.4643 -0.1704 -0.0565
  795MOL0     C 9595   6.837   2.620   2.086 -0.0383  0.8337  0.3998
  795MOL0     O 9596   6.781   2.608   1.956 -0.3955  0.4961  0.0589
  795MOL0     C 9597   6.649   2.637   1.937 -0.5365  0.1675  0.0142
  795MOL0     C 9598   6.598   2.622   1.803 -0.9118  1.4415 -0.4384
  795MOL0     C 9599   6.461   2.621   1.779  0.2213 -0.1342 -0.0161
  795MOL0     C 9600   6.416   2.585   1.640  0.2757 -0.6806 -0.3280
  795MOL0     C 9601   6.366   2.662   1.873 -0.3716 -0.0685 -0.2829
  795MOL0     C 9602   6.214   2.659   1.854 -0.2685 -0.1481 -0.1900
  795MOL0     O 9603   6.144   2.627   1.974 -0.8476  1.2287 -0.1527
  795MOL0     C 9604   6.018   2.578   1.957 -0.4330  0.0102 -0.0804
  795MOL0     C 9605   5.999   2.467   1.874  0.9249 -0.0050  0.5317
  795MOL0     C 9606   5.869   2.425   1.849 -0.0422 -0.2349 -0.5390
  795MOL0     C 9607   5.762   2.477   1.922 -0.0976 -0.4643 -0.5607
  795MOL0     O 9608   5.631   2.426   1.927  0.4881 -0.3154  0.1340
  795MOL0     C 9609   5.609   2.293   1.897 -0.5754  0.5161 -0.2562
  795MOL0     C 9610   5.462   2.259   1.900 -0.4617 -0.1505 -0.0974
  795MOL0     C 9611   5.412   2.266   2.047  0.2383 -0.6594  0.3433
  795MOL0     C 9612   5.292   2.368   2.041 -0.4726  0.5764  0.2690
  795MOL0     C 9613   5.220   2.382   2.173  0.0378  0.4330 -0.4893
  795MOL0     C 9614   5.124   2.500   2.166  0.3709 -0.4324  0.0051
  795MOL0     C 9615   5.041   2.500   2.288 -0.4239 -0.9855 -0.2844
  795MOL0     C 9616   4.917   2.584   2.266  0.6992  0.5588 -0.0308
  795MOL0    Cl 9617   4.946   2.756   2.302  0.6026  0.1190  0.2606
  795MOL0     C 9618   5.794   2.581   2.019 -0.3925 -0.1729 -0.5295
  795MOL0     C 9619   5.917   2.635   2.025 -0.5513 -0.2365  0.4599
  795MOL0     O 9620   6.159   2.686   1.749 -0.9213  0.7101  0.1319
  795MOL0     C 9621   6.421   2.705   2.001  0.5385 -0.7945 -1.1995
  795MOL0     C 9622   6.556   2.688   2.036 -0.5585  0.8106  1.2016
  795MOL0     N 9623   7.315   2.915   2.220  0.3566 -0.7976 -0.1230
  795MOL0     N 9624   7.392   2.955   2.323  0.4594 -0.2717 -0.3875
  795MOL0     C 9625   6.822   2.808   2.907  0.2140  0.5382  0.1069
  795MOL0     C 9626   6.788   2.705   2.817 -0.6357  0.0117 -0.7098
  795MOL0     C 9627   6.575   2.298   2.708 -0.2203 -0.6983 -0.4585
  795MOL0     C 9628   6.646   2.283   2.583 -0.1474 -0.2102 -0.0098
  795MOL0     C 9629   6.649   2.154   2.510 -0.6902  0.9214  0.0701
  795MOL0     C 9630   6.574   2.055   2.565 -0.7042 -0.4623 -0.7758
  795MOL0     O 9631   6.545   1.932   2.510 -0.1168 -0.0070  0.7893
  795MOL0     C 9632   6.599   1.888   2.383 -0.2755 -0.5064  0.0294
  795MOL0     C 9633   6.585   1.735   2.356  0.4572  0.7632 -0.0794
  795MOL0     C 9634   6.671   1.688   2.243 -0.6468  0.3815  0.5676
  795MOL0     C 9635   6.820   1.712   2.269  0.6732 -0.4313 -0.9140
  795MOL0     C 9636   6.896   1.688   2.144 -0.5472 -0.8245  0.9207
  795MOL0     C 9637   6.935   1.646   2.039  0.4796  1.2032 -0.6412
  795MOL0     C 9638   6.504   2.074   2.683  0.4428  0.2882  0.2906
  795MOL0     C 9639   6.504   2.187   2.762  0.8778  0.8008  0.3337
  795MOL0     C 9640   6.427   2.176   2.889  0.8485 -0.7599 -0.6289
  795MOL0     H 9641   6.746   2.465   3.061 -2.1231  0.7868  0.8344
  795MOL0     H 9642   6.838   2.648   3.198  1.1243 -0.2061 -0.8277
  795MOL0     H 9643   6.961   2.785   3.280  1.7654  0.4542  2.7223
  795MOL0     H 9644   7.009   2.954   3.258 -1.9710 -0.1336  2.3909
  795MOL0     H 9645   7.189   2.813   3.206  0.9671 -1.3370  0.0925
  795MOL0     H 9646   7.104   2.738   3.072 -0.5731 -0.3566  0.4556
  795MOL0     H 9647   7.081   2.980   2.991  0.0206 -0.0406 -0.0756
  795MOL0     H 9648   7.220   3.023   3.116  1.4446 -0.4981  0.8841
  795MOL0     H 9649   7.354   2.872   3.008  0.4157 -0.2904 -0.4695
  795MOL0     H 9650   7.223   2.831   2.879  0.1151  1.5478 -0.2897
  795MOL0     H 9651   7.360   3.107   2.938  2.1518 -1.6362  1.3072
  795MOL0     H 9652   7.233   3.074   2.817 -1.7423 -0.9824  0.7015
  795MOL0     H 9653   7.520   3.065   2.782  0.2828  1.1076  0.0930
  795MOL0     H 9654   7.490   2.909   2.851 -0.1329  0.5269 -1.1905
  795MOL0     H 9655   7.330   2.839   2.672  0.2755 -1.1020 -1.8138
  795MOL0     H 9656   7.493   2.883   2.610  0.8930  0.4118  1.8746
  795MOL0     H 9657   7.240   3.063   2.590  1.0771  2.1385 -0.1978
  795MOL0     H 9658   7.398   3.101   2.543 -0.1981 -0.1991 -0.5382
  795MOL0     H 9659   7.103   2.871   2.453  1.7425  1.1607  3.3985
  795MOL0     H 9660   7.109   2.675   2.183  2.2083  0.0127  1.4796
  795MOL0     H 9661   7.108   2.820   2.080 -2.4280  0.7355  0.4392
  795MOL0     H 9662   6.938   2.737   2.324  2.0173  0.5851  1.3557
  795MOL0     H 9663   6.946   2.907   2.264  3.3741  0.4941  0.6191
  795MOL0     H 9664   6.764   2.815   2.141  0.4680  0.6986 -1.9555
  795MOL0     H 9665   6.896   2.825   2.036  1.8002  0.2221  0.7346
  795MOL0     H 9666   6.935   2.578   2.060  0.4050  2.5644 -0.9801
  795MOL0     H 9667   6.779   2.560   2.156 -2.1157 -0.9138 -2.5581
  795MOL0     H 9668   6.666   2.598   1.723 -1.7202  0.6299 -0.9110
  795MOL0     H 9669   6.392   2.680   1.591 -1.1066  0.3071  2.0920
  795MOL0     H 9670   6.331   2.518   1.630  1.6336 -2.6574  0.6788
  795MOL0     H 9671   6.506   2.540   1.596 -0.9732  1.3218 -5.6618
  795MOL0     H 9672   6.083   2.430   1.816  1.0232 -0.1416  0.7602
  795MOL0     H 9673   5.864   2.330   1.797 -1.7091 -0.7400  0.4446
  795MOL0     H 9674   5.643   2.265   1.797 -0.1884  2.2933 -0.6493
  795MOL0     H 9675   5.648   2.223   1.972  2.9173 -0.6171 -2.8404
  795MOL0     H 9676   5.413   2.325   1.829 -0.1624 -0.0027 -0.1676
  795MOL0     H 9677   5.442   2.157   1.867 -0.6660 -0.0740 -0.2125
  795MOL0     H 9678   5.498   2.297   2.107  2.0834 -1.0619 -1.9826
  795MOL0     H 9679   5.379   2.169   2.086  1.4487 -0.5035  1.8450
  795MOL0     H 9680   5.218   2.328   1.970  0.3275  0.0712 -0.3023
  795MOL0     H 9681   5.340   2.458   2.001  0.5576  0.4100  1.0955
  795MOL0     H 9682   5.152   2.299   2.198 -0.4828  1.6241  2.5185
  795MOL0     H 9683   5.289   2.395   2.257 -0.0497  1.2476 -0.5399
  795MOL0     H 9684   5.063   2.482   2.077 -0.2775  0.6896  0.1986
  795MOL0     H 9685   5.180   2.593   2.151 -1.3520  0.9797  1.7557
  795MOL0     H 9686   5.094   2.530   2.380 -1.1025 -1.4359  0.2657
  795MOL0     H 9687   5.005   2.399   2.309  0.0908 -1.1165 -0.0067
  795MOL0     H 9688   4.842   2.551   2.338  0.1708 -2.5194 -1.8341
  795MOL0     H 9689   4.874   2.565   2.167  2.6819 -2.3976 -0.4358
  795MOL0     H 9690   5.717   2.633   2.074  1.2593  3.2552 -1.1490
  795MOL0     H 9691   5.940   2.712   2.098  4.2613 -1.8763  1.0745
  795MOL0     H 9692   6.358   2.745   2.079  2.0032  0.9305 -0.8374
  795MOL0     H 9693   6.584   2.720   2.136  1.3280  2.7144  0.1230
  795MOL0     H 9694   6.834   2.913   2.880  0.5802  0.9090  1.6288
  795MOL0     H 9695   6.779   2.718   2.709 -0.4587  3.0621 -0.4302
  795MOL0     H 9696   6.697   2.365   2.534  1.2402 -1.0040  0.0521
  795MOL0     H 9697   6.700   2.147   2.414 -1.1633 -1.7167 -0.0508
  795MOL0     H 9698   6.548   1.940   2.302  0.4604 -1.0849 -0.8280
  795MOL0     H 9699   6.704   1.920   2.387  0.2346 -1.8477 -1.4956
  795MOL0     H 9700   6.479   1.710   2.341  0.5952  0.6921 -1.0124
  795MOL0     H 9701   6.621   1.687   2.448 -4.8067 -1.5688  1.1238
  795MOL0     H 9702   6.668   1.581   2.224 -0.5556  0.5952 -0.7416
  795MOL0     H 9703   6.642   1.745   2.154  3.9280  1.3809 -0.5200
  795MOL0     H 9704   6.845   1.640   2.348 -3.8408  1.6169  2.9019
  795MOL0     H 9705   6.855   1.810   2.302  2.9642 -1.7725  0.9492
  795MOL0     H 9706   6.972   1.632   1.940  0.7005  1.5817 -0.6155
  795MOL0     H 9707   6.451   1.986   2.717  1.5522 -0.6832 -0.4180
  795MOL0     H 9708   6.487   2.218   2.970 -0.3709 -0.4362  0.1317
  795MOL0     H 9709   6.338   2.239   2.892  0.0849 -1.7320 -1.9425
  795MOL0     H 9710   6.390   2.075   2.910 -0.1162 -0.0733  1.1833
  796MOL0     O 9711   6.529   0.548   0.398 -0.3062 -0.3923  0.1395
  796MOL0     C 9712   6.568   0.494   0.293  0.8559 -0.4918 -0.2015
  796MOL0     O 9713   6.490   0.454   0.190 -0.4856  0.7963  0.7052
  796MOL0     C 9714   6.360   0.504   0.180 -0.2042  0.6383  0.5606
  796MOL0     C 9715   6.317   0.635   0.220  0.4401 -0.8593 -0.2134
  796MOL0     C 9716   6.165   0.661   0.207 -0.2604  0.5974 -0.6833
  796MOL0     C 9717   6.079   0.570   0.133  0.5020  0.2513  0.0017
  796MOL0     O 9718   5.945   0.589   0.123 -0.2118  0.0597 -0.6619
  796MOL0     C 9719   5.888   0.568  -0.007 -1.0346  0.9439  0.6161
  796MOL0     C 9720   5.738   0.618  -0.004 -0.5764 -0.2680  0.4486
  796MOL0     C 9721   5.660   0.599  -0.121  0.4044 -0.1821  0.3278
  796MOL0     C 9722   5.512   0.648  -0.091 -1.0203  0.1678 -0.1652
  796MOL0     C 9723   5.427   0.636  -0.217 -1.7548 -0.4808  0.4121
  796MOL0     C 9724   5.279   0.678  -0.198 -0.1180 -0.2347 -0.6765
  796MOL0     C 9725   5.221   0.670  -0.337  0.4939 -1.3209  0.0110
  796MOL0     C 9726   5.067   0.667  -0.341  0.7610  0.0862 -0.0648
  796MOL0     N 9727   5.022   0.644  -0.480  0.3583  0.1743  0.4746
  796MOL0     C 9728   5.005   0.732  -0.581  0.2177  0.7177 -0.0559
  796MOL0     C 9729   4.940   0.663  -0.678  0.8178  0.2543  0.4667
  796MOL0     C 9730   4.896   0.728  -0.816  0.1601 -0.5973 -0.5337
  796MOL0     C 9731   4.745   0.770  -0.810 -0.5737 -0.7852 -0.5708
  796MOL0     C 9732   4.709   0.849  -0.938  0.3048  0.1908 -0.1371
  796MOL0     C 9733   4.561   0.870  -0.932 -0.1709  0.4417  0.4506
  796MOL0     O 9734   4.495   0.924  -1.050 -0.0320  0.0396  0.0696
  796MOL0     C 9735   4.471   0.843  -1.158  0.2402  0.6345 -0.3514
  796MOL0     C 9736   4.435   0.899  -1.279  0.1064 -0.4564 -0.1609
  796MOL0     C 9737   4.418   0.824  -1.400  0.3112  0.5031 -0.2718
  796MOL0     C 9738   4.359   0.895  -1.516  0.7342 -0.1284  0.9517
  796MOL0     C 9739   4.440   0.677  -1.388  0.0643  0.1960 -0.2672
  796MOL0     C 9740   4.388   0.575  -1.487 -0.2869  0.1358 -0.6950
  796MOL0     O 9741   4.352   0.604  -1.607 -0.5895  0.2112 -0.6649
  796MOL0     C 9742   4.304   0.512  -1.693 -0.0889 -0.0006  0.5187
  796MOL0     C 9743   4.374   0.396  -1.736  0.1744  0.3047  0.0074
  796MOL0     C 9744   4.324   0.304  -1.829  0.5215 -0.0046 -0.8746
  796MOL0     C 9745   4.196   0.334  -1.879  0.3025 -0.2589  0.1129
  796MOL0     O 9746   4.120   0.243  -1.959  0.3588 -0.0891 -0.3356
  796MOL0     C 9747   4.180   0.120  -1.988 -0.6307  0.0961  0.1441
  796MOL0     C 9748   4.089   0.040  -2.087  1.1644 -0.5059  0.7055
  796MOL0     C 9749   4.059   0.111  -2.227  0.6823 -0.3826 -0.3332
  796MOL0     C 9750   4.170   0.112  -2.330  0.6866  0.1481 -0.4552
  796MOL0     C 9751   4.156   0.199  -2.450  0.1190 -0.7721  0.2171
  796MOL0     C 9752   4.048   0.150  -2.553 -0.2931  0.7031  0.7965
  796MOL0     C 9753   4.060   0.005  -2.611  1.1699 -0.0553 -0.5685
  796MOL0     C 9754   3.947  -0.037  -2.701  1.0122 -0.3846  0.2147
  796MOL0    Cl 9755   3.915   0.071  -2.844  0.2825  0.2773 -0.3938
  796MOL0     C 9756   4.130   0.451  -1.847  0.1242  0.4556  0.0256
  796MOL0     C 9757   4.182   0.536  -1.753 -1.1246 -0.0783 -0.1344
  796MOL0     O 9758   4.381   0.462  -1.435  0.2722 -0.3269  0.1806
  796MOL0     C 9759   4.488   0.627  -1.269  0.3222  0.0173 -0.8289
  796MOL0     C 9760   4.506   0.706  -1.151 -0.2730  0.5432 -0.4761
  796MOL0     N 9761   4.913   0.534  -0.632 -0.6550  0.4845  0.7623
  796MOL0     N 9762   4.966   0.528  -0.518  0.4238 -0.2615 -0.0033
  796MOL0     C 9763   6.136   0.444   0.092  0.1167 -0.0182  0.3267
  796MOL0     C 9764   6.268   0.419   0.120  0.4270  0.5485  0.3154
  796MOL0     C 9765   6.707   0.442   0.305  0.5929  0.8965  0.5116
  796MOL0     C 9766   6.726   0.310   0.257  0.1701 -0.6270  0.7565
  796MOL0     C 9767   6.851   0.264   0.252  1.0311  0.6563 -0.6407
  796MOL0     C 9768   6.962   0.339   0.294  0.3734  0.0228  1.0490
  796MOL0     O 9769   7.090   0.291   0.276  0.9475  0.3958  0.0177
  796MOL0     C 9770   7.200   0.344   0.349 -0.3317  0.0683 -0.7108
  796MOL0     C 9771   7.300   0.229   0.332  0.1785 -0.8876 -0.5115
  796MOL0     C 9772   7.433   0.270   0.404 -0.4420 -0.2348  0.3178
  796MOL0     C 9773   7.522   0.360   0.321  0.9416 -0.2137 -0.0709
  796MOL0     C 9774   7.660   0.341   0.375  0.5260  0.5574  0.0321
  796MOL0     C 9775   7.781   0.331   0.403  0.0351  0.1269 -0.3188
  796MOL0     C 9776   6.943   0.470   0.337  0.7297 -0.0321 -0.0783
  796MOL0     C 9777   6.814   0.523   0.339 -0.3946 -0.4700 -0.1355
  796MOL0     C 9778   6.803   0.666   0.388 -0.2263  0.2181  0.7865
  796MOL0     H 9779   6.379   0.703   0.279 -1.0117  0.4382 -0.1173
  796MOL0     H 9780   6.102   0.746   0.232 -2.0518 -0.5155 -1.2050
  796MOL0     H 9781   5.893   0.465  -0.045 -3.4754  1.1828 -0.5401
  796MOL0     H 9782   5.942   0.632  -0.077 -0.5928 -0.7431 -0.6725
  796MOL0     H 9783   5.699   0.565   0.083  2.5281  0.1401  2.2658
  796MOL0     H 9784   5.755   0.723   0.021  1.4941 -0.0565 -1.4869
  796MOL0     H 9785   5.700   0.650  -0.210  0.2446 -1.9712 -0.8192
  796MOL0     H 9786   5.640   0.494  -0.146 -0.4664  0.1135 -0.2661
  796MOL0     H 9787   5.478   0.594  -0.002  2.9946 -1.9364  0.3553
  796MOL0     H 9788   5.505   0.752  -0.061 -1.9448 -0.4053  1.7780
  796MOL0     H 9789   5.437   0.539  -0.266 -0.4975 -0.3187  0.3202
  796MOL0     H 9790   5.455   0.717  -0.284 -1.5508 -0.2122  0.8154
  796MOL0     H 9791   5.225   0.613  -0.128 -0.6460  0.6544 -0.2525
  796MOL0     H 9792   5.269   0.773  -0.145  0.8282 -2.3210  3.8164
  796MOL0     H 9793   5.254   0.582  -0.394 -0.7276 -1.2765 -0.8080
  796MOL0     H 9794   5.265   0.750  -0.397 -1.4272  0.4941  0.9029
  796MOL0     H 9795   5.029   0.588  -0.276  0.1685 -0.9615 -1.6236
  796MOL0     H 9796   5.030   0.766  -0.311 -2.0005 -0.0810 -2.4482
  796MOL0     H 9797   5.028   0.837  -0.595  1.0437  0.3320 -1.9555
  796MOL0     H 9798   4.909   0.650  -0.892  1.4103 -1.9954  1.0193
  796MOL0     H 9799   4.954   0.818  -0.836 -0.5428 -0.0046  0.0287
  796MOL0     H 9800   4.682   0.682  -0.794  2.1917 -3.1025 -1.5514
  796MOL0     H 9801   4.743   0.839  -0.726  0.2319 -0.1522 -1.0645
  796MOL0     H 9802   4.763   0.944  -0.935  4.0778 -1.8312  0.9879
  796MOL0     H 9803   4.728   0.790  -1.028 -3.4059 -0.2961 -0.7978
  796MOL0     H 9804   4.506   0.790  -0.881 -1.1504  0.9124  0.1612
  796MOL0     H 9805   4.549   0.955  -0.863  3.7451  2.4191 -0.9798
  796MOL0     H 9806   4.440   1.007  -1.279 -0.3426 -0.2884  4.1177
  796MOL0     H 9807   4.424   0.864  -1.599 -1.1021  0.1313 -0.6277
  796MOL0     H 9808   4.344   1.002  -1.499  1.8803  0.1192  0.5484
  796MOL0     H 9809   4.267   0.852  -1.556  0.7716  0.3940  0.2950
  796MOL0     H 9810   4.467   0.372  -1.685 -1.0462  0.4776  2.4550
  796MOL0     H 9811   4.365   0.203  -1.829 -0.0367 -0.2677  0.7158
  796MOL0     H 9812   4.280   0.131  -2.031 -1.1010  1.7831 -0.5892
  796MOL0     H 9813   4.184   0.061  -1.895  0.7585 -1.2744 -0.7246
  796MOL0     H 9814   4.124  -0.059  -2.117 -3.6707 -1.6978 -2.1247
  796MOL0     H 9815   3.990   0.028  -2.041 -0.6143  0.0060 -2.6691
  796MOL0     H 9816   4.039   0.217  -2.209 -2.6557 -0.7455 -1.1874
  796MOL0     H 9817   3.967   0.072  -2.271 -0.2091 -0.1972  1.2769
  796MOL0     H 9818   4.178   0.009  -2.364 -3.0874 -0.6191  0.6078
  796MOL0     H 9819   4.262   0.145  -2.280 -1.6223 -0.7954  5.0896
  796MOL0     H 9820   4.140   0.300  -2.412 -0.3405 -0.4981 -0.6889
  796MOL0     H 9821   4.246   0.191  -2.510  1.5751 -0.5995  2.2575
  796MOL0     H 9822   4.025   0.225  -2.629 -3.1047  1.1158  1.9272
  796MOL0     H 9823   3.948   0.158  -2.510 -1.2179  0.5531 -1.2298
  796MOL0     H 9824   4.066  -0.056  -2.521 -0.2150 -0.7786 -0.9359
  796MOL0     H 9825   4.154  -0.011  -2.665  0.5399 -0.8258 -1.4868
  796MOL0     H 9826   3.855  -0.047  -2.642  1.5620 -1.7559  0.8708
  796MOL0     H 9827   3.979  -0.133  -2.742  1.7456  0.8323 -2.2501
  796MOL0     H 9828   4.038   0.477  -1.897  0.4463 -3.1520 -2.8892
  796MOL0     H 9829   4.131   0.631  -1.746  1.4016  1.5764 -2.1144
  796MOL0     H 9830   4.522   0.524  -1.267  0.7848  0.1498  1.6569
  796MOL0     H 9831   4.539   0.659  -1.058  0.3392 -0.9157 -1.3979
  796MOL0     H 9832   6.074   0.372   0.041  0.3854  1.1977 -1.8287
  796MOL0     H 9833   6.298   0.323   0.079  1.1558 -0.0121  2.0889
  796MOL0     H 9834   6.646   0.250   0.215 -1.2872  2.5607 -1.4430
  796MOL0     H 9835   6.877   0.165   0.216 -1.5566 -0.7643  1.0321
  796MOL0     H 9836   7.237   0.439   0.307  1.0005  0.1900  0.6305
  796MOL0     H 9837   7.192   0.359   0.457  3.2725 -1.5827 -0.0492
  796MOL0     H 9838   7.309   0.208   0.225 -2.6844  0.7500 -1.2014
  796MOL0     H 9839   7.253   0.146   0.385 -2.7852  0.1077 -1.3895
  796MOL0     H 9840   7.422   0.311   0.505  1.4293  0.1353  0.3993
  796MOL0     H 9841   7.488   0.176   0.417  3.5540  1.9111  0.3050
  796MOL0     H 9842   7.484   0.462   0.328 -1.3633 -0.9065 -1.4532
  796MOL0     H 9843   7.527   0.319   0.220  0.6030 -1.6729  0.4838
  796MOL0     H 9844   7.886   0.319   0.419 -0.2677 -1.5760  0.5114
  796MOL0     H 9845   7.017   0.540   0.376 -1.6189  4.2707 -2.5862
  796MOL0     H 9846   6.718   0.664   0.456  0.7291 -0.7509  2.0076
  796MOL0     H 9847   6.885   0.696   0.453  0.6100  0.7086 -0.4614
  796MOL0     H 9848   6.781   0.743   0.314 -3.9114  0.7793  2.2348
  797MOL0     O 9849   1.578   6.477   1.968  0.4755  0.3616  0.0764
  797MOL0     C 9850   1.490   6.397   1.995 -0.2240  1.1217 -0.5245
  797MOL0     O 9851   1.449   6.296   1.918 -0.0757  0.3563  0.4469
  797MOL0     C 9852   1.474   6.285   1.785 -1.0934  0.5333  0.2823
  797MOL0     C 9853   1.583   6.345   1.718 -0.2101 -0.4749  0.0833
  797MOL0     C 9854   1.622   6.302   1.588 -0.1523  0.1463  0.5648
  797MOL0     C 9855   1.547   6.200   1.518 -0.9490  0.2843 -0.8302
  797MOL0     O 9856   1.585   6.161   1.391  0.6793  0.0954 -0.6338
  797MOL0     C 9857   1.667   6.241   1.311 -1.4450  0.2786 -0.0102
  797MOL0     C 9858   1.685   6.183   1.180  0.1092 -0.2067  0.6344
  797MOL0     C 9859   1.578   6.075   1.154  0.5267 -0.1655  1.0576
  797MOL0     C 9860   1.589   6.033   0.997 -0.1461 -1.2398 -0.9783
  797MOL0     C 9861   1.481   5.935   0.956 -0.0272 -0.0842 -0.6801
  797MOL0     C 9862   1.481   5.790   1.021 -0.1953 -0.2129  0.4121
  797MOL0     C 9863   1.614   5.723   0.992 -0.9035  0.5394  0.2091
  797MOL0     C 9864   1.605   5.575   0.997  0.8717  0.3450 -1.3110
  797MOL0     N 9865   1.738   5.519   1.018  0.0767 -0.2811 -0.3589
  797MOL0     C 9866   1.782   5.443   1.119  0.2345  0.1241  1.5113
  797MOL0     C 9867   1.911   5.411   1.085 -0.4947 -0.2054  0.3758
  797MOL0     C 9868   2.008   5.360   1.184  0.4579  0.1988  0.0276
  797MOL0     C 9869   2.100   5.465   1.221 -0.4642 -0.4087 -1.2237
  797MOL0     C 9870   2.195   5.440   1.331 -0.0865  0.9019 -0.4473
  797MOL0     C 9871   2.285   5.565   1.355 -0.0499  0.4542 -0.8222
  797MOL0     O 9872   2.393   5.540   1.453  0.1739  0.5584  0.5654
  797MOL0     C 9873   2.495   5.635   1.475 -0.7628 -0.5137 -0.2551
  797MOL0     C 9874   2.501   5.758   1.406 -0.4307 -0.0118  0.4465
  797MOL0     C 9875   2.610   5.848   1.401 -0.0254  0.5716  1.3068
  797MOL0     C 9876   2.608   5.980   1.320  0.9463 -0.7465  0.2015
  797MOL0     C 9877   2.714   5.816   1.490 -0.2898  0.1945  0.0823
  797MOL0     C 9878   2.816   5.914   1.536 -0.5643  1.0515  0.4777
  797MOL0     O 9879   2.932   5.867   1.600 -0.8863 -0.0706  0.4116
  797MOL0     C 9880   3.027   5.960   1.631  0.5239  0.0591 -0.3394
  797MOL0     C 9881   3.004   6.069   1.716  1.0880  0.2096  0.1988
  797MOL0     C 9882   3.107   6.158   1.749  0.0700  0.0010 -0.1498
  797MOL0     C 9883   3.232   6.148   1.683 -0.8205  0.6814 -0.0819
  797MOL0     O 9884   3.338   6.227   1.712  0.6626  1.3363 -0.5719
  797MOL0     C 9885   3.331   6.297   1.837 -0.3932 -0.1796 -0.2679
  797MOL0     C 9886   3.479   6.342   1.863 -0.0013  0.0867 -0.3656
  797MOL0     C 9887   3.524   6.442   1.769 -0.6792  0.5364 -0.0031
  797MOL0     C 9888   3.653   6.502   1.819 -0.0247  0.1923 -0.2537
  797MOL0     C 9889   3.737   6.558   1.720  0.1791  0.8482  0.3160
  797MOL0     C 9890   3.703   6.700   1.668  0.5828  0.5522  0.4483
  797MOL0     C 9891   3.785   6.734   1.547  0.2986 -0.3643 -0.3993
  797MOL0     C 9892   3.773   6.879   1.500 -0.0168  0.3458  0.6800
  797MOL0    Cl 9893   3.789   6.993   1.634 -0.1185 -0.0661  0.1626
  797MOL0     C 9894   3.256   6.047   1.589 -0.0580  0.7964  0.2018
  797MOL0     C 9895   3.156   5.948   1.574  0.2736  0.0008 -0.3572
  797MOL0     O 9896   2.781   6.032   1.540  0.0440 -0.1739 -0.1440
  797MOL0     C 9897   2.721   5.691   1.552 -0.3480  0.3772 -0.0834
  797MOL0     C 9898   2.617   5.600   1.544 -0.3194  0.0300 -0.4360
  797MOL0     N 9899   1.937   5.456   0.955 -0.0843 -0.2315 -0.3860
  797MOL0     N 9900   1.826   5.502   0.914 -0.1115  0.1770 -0.6574
  797MOL0     C 9901   1.438   6.144   1.584  0.0907  0.3018 -0.1081
  797MOL0     C 9902   1.404   6.184   1.713  0.3755 -0.1266  0.0340
  797MOL0     C 9903   1.444   6.394   2.129  1.3843 -0.4538  0.0948
  797MOL0     C 9904   1.451   6.268   2.199  0.6131 -0.0135  0.6617
  797MOL0     C 9905   1.403   6.264   2.326 -0.8943 -0.1600 -0.0634
  797MOL0     C 9906   1.351   6.376   2.396  0.5251 -0.1828  0.8141
  797MOL0     O 9907   1.308   6.354   2.521  0.0672  0.6984 -0.1182
  797MOL0     C 9908   1.402   6.413   2.614 -0.3943  0.0713  0.2304
  797MOL0     C 9909   1.539   6.347   2.614  0.5080 -0.2408 -0.0958
  797MOL0     C 9910   1.521   6.208   2.671 -0.2191  0.0277 -0.0498
  797MOL0     C 9911   1.652   6.121   2.660  1.1107  0.5735  0.1178
  797MOL0     C 9912   1.655   6.058   2.525 -0.6920  0.3158  0.1006
  797MOL0     C 9913   1.673   6.012   2.416 -0.7153 -0.1284  0.5190
  797MOL0     C 9914   1.337   6.501   2.330  0.3653  0.6754 -0.2083
  797MOL0     C 9915   1.392   6.506   2.201 -0.0616  0.3621 -0.1353
  797MOL0     C 9916   1.399   6.642   2.143  0.4167 -0.1663  0.0461
  797MOL0     H 9917   1.654   6.416   1.760  0.6397 -1.6717  0.7417
  797MOL0     H 9918   1.709   6.344   1.540 -0.7213 -1.0454 -1.6350
  797MOL0     H 9919   1.768   6.240   1.355 -1.7739  0.2861  0.7689
  797MOL0     H 9920   1.626   6.342   1.300 -0.8119  0.6881  1.1429
  797MOL0     H 9921   1.679   6.265   1.108  1.5568 -0.9486 -0.3883
  797MOL0     H 9922   1.781   6.137   1.157  0.1970 -0.1979  0.9816
  797MOL0     H 9923   1.598   5.979   1.200  1.3161 -0.7932 -0.4996
  797MOL0     H 9924   1.479   6.107   1.187  0.0247 -3.3240  3.0282
  797MOL0     H 9925   1.577   6.127   0.941  0.2530 -0.9048 -0.5119
  797MOL0     H 9926   1.687   5.997   0.967 -0.6373 -1.8436 -1.9169
  797MOL0     H 9927   1.491   5.909   0.851 -1.3812 -1.2658 -0.5461
  797MOL0     H 9928   1.382   5.980   0.954 -0.9140 -1.9720 -1.2527
  797MOL0     H 9929   1.465   5.793   1.129  0.8425  0.7340  0.5497
  797MOL0     H 9930   1.403   5.732   0.970 -1.3694  0.0078  1.8796
  797MOL0     H 9931   1.685   5.763   1.065 -1.7971  3.3965 -0.3672
  797MOL0     H 9932   1.658   5.738   0.893  0.1721  1.3164  0.7828
  797MOL0     H 9933   1.547   5.536   1.081  1.5627 -1.6815 -1.7141
  797MOL0     H 9934   1.569   5.522   0.908 -0.7079 -0.8600 -0.0224
  797MOL0     H 9935   1.734   5.418   1.213 -1.0852  1.5809  1.2544
  797MOL0     H 9936   2.071   5.288   1.131  1.8962  1.5011 -0.1006
  797MOL0     H 9937   1.954   5.313   1.267 -2.1884  1.6913 -0.7253
  797MOL0     H 9938   2.155   5.495   1.131 -0.5079 -1.8362 -1.7476
  797MOL0     H 9939   2.031   5.543   1.256 -0.7614 -0.7757 -0.9864
  797MOL0     H 9940   2.147   5.402   1.421  4.3883 -2.7034  0.8475
  797MOL0     H 9941   2.272   5.363   1.314  0.6973  1.6562 -0.3735
  797MOL0     H 9942   2.325   5.585   1.256  1.7789 -0.0186 -0.2145
  797MOL0     H 9943   2.234   5.654   1.395 -0.4916  0.4573 -1.3786
  797MOL0     H 9944   2.431   5.783   1.327  2.2818 -1.3509 -2.6052
  797MOL0     H 9945   2.711   6.004   1.291  1.0093 -1.3175 -0.0544
  797MOL0     H 9946   2.557   6.068   1.360 -0.7562 -0.4859 -2.2597
  797MOL0     H 9947   2.547   5.960   1.232  1.8615  1.2676 -0.9700
  797MOL0     H 9948   2.900   6.072   1.747  0.9899 -1.0511  0.0497
  797MOL0     H 9949   3.073   6.232   1.821 -1.8764  0.6513 -1.6437
  797MOL0     H 9950   3.258   6.379   1.834 -1.2661 -0.9382 -0.1731
  797MOL0     H 9951   3.302   6.234   1.921 -1.2539 -2.5138 -2.1908
  797MOL0     H 9952   3.479   6.384   1.965  1.0127 -0.4082 -0.1527
  797MOL0     H 9953   3.553   6.263   1.877  0.6564  0.7386 -0.1475
  797MOL0     H 9954   3.453   6.523   1.750 -0.3260  0.3163 -2.6619
  797MOL0     H 9955   3.551   6.383   1.680 -2.0867 -1.3891  0.7707
  797MOL0     H 9956   3.705   6.424   1.874  0.1978  0.2205 -0.4246
  797MOL0     H 9957   3.631   6.583   1.890  2.4230 -1.7176  2.9510
  797MOL0     H 9958   3.839   6.555   1.759  0.5063 -3.0235 -0.4165
  797MOL0     H 9959   3.728   6.483   1.641  1.3760 -1.4303  2.2053
  797MOL0     H 9960   3.730   6.761   1.754  2.9173 -0.2539  0.3453
  797MOL0     H 9961   3.595   6.708   1.650  0.4517 -0.1175  0.9085
  797MOL0     H 9962   3.751   6.670   1.464 -3.7586  0.6071  0.2793
  797MOL0     H 9963   3.891   6.718   1.566  0.1392 -0.6389  0.2680
  797MOL0     H 9964   3.672   6.892   1.459  0.7491 -0.2554 -1.5511
  797MOL0     H 9965   3.843   6.899   1.418 -0.2950 -2.0746 -0.2144
  797MOL0     H 9966   3.351   6.029   1.538 -1.4928 -1.8508 -1.8456
  797MOL0     H 9967   3.169   5.869   1.500 -0.0712 -0.4650  0.0745
  797MOL0     H 9968   2.799   5.652   1.617 -2.6872 -0.7752  2.2344
  797MOL0     H 9969   2.615   5.502   1.590  4.5581 -0.2863 -0.3838
  797MOL0     H 9970   1.383   6.071   1.525 -0.7469  0.6444  0.2398
  797MOL0     H 9971   1.331   6.127   1.770 -1.2229 -0.5701 -2.2882
  797MOL0     H 9972   1.492   6.178   2.154  1.0080  0.7308 -0.5255
  797MOL0     H 9973   1.410   6.167   2.375  1.1810 -0.3411 -0.5955
  797MOL0     H 9974   1.416   6.517   2.586 -2.4263 -0.1672 -1.9602
  797MOL0     H 9975   1.363   6.410   2.716  1.0929 -1.4983  0.8233
  797MOL0     H 9976   1.597   6.403   2.688 -2.3345  2.0657  0.6035
  797MOL0     H 9977   1.591   6.344   2.518  1.2541  1.2894  0.2279
  797MOL0     H 9978   1.491   6.219   2.775 -0.7129  0.0798 -0.1966
  797MOL0     H 9979   1.436   6.159   2.622 -3.2948  1.4445  3.4157
  797MOL0     H 9980   1.653   6.037   2.729 -1.3280 -1.7916 -2.4973
  797MOL0     H 9981   1.737   6.189   2.676  1.6472  0.4864 -1.9871
  797MOL0     H 9982   1.676   5.968   2.319 -1.2207  0.7861  0.0796
  797MOL0     H 9983   1.292   6.582   2.386 -0.1077 -0.4764  1.1138
  797MOL0     H 9984   1.496   6.691   2.157 -0.2341  1.8736 -1.8828
  797MOL0     H 9985   1.373   6.635   2.037 -1.0511 -0.1803  0.3922
  797MOL0     H 9986   1.316   6.695   2.189 -0.6688 -1.9462  0.2178
  798MOL0     O 9987   1.808   9.359   5.845  0.2710  0.0515  0.3141
  798MOL0     C 9988   1.841   9.435   5.755  0.0454 -0.2564 -0.3272
  798MOL0     O 9989   1.950   9.521   5.753  0.3653 -0.6416 -0.7383
  798MOL0     C 9990   2.024   9.548   5.872  0.1909  0.6288 -0.1374
  798MOL0     C 9991   2.164   9.541   5.848  0.1663  0.3749  0.2074
  798MOL0     C 9992   2.253   9.569   5.958 -0.4036 -1.3948  0.3158
  798MOL0     C 9993   2.209   9.599   6.086 -0.1394  0.4240 -0.7826
  798MOL0     O 9994   2.305   9.612   6.186  0.1993  0.3564 -0.1151
  798MOL0     C 9995   2.277   9.661   6.322 -0.4015  1.2632  0.2727
  798MOL0     C 9996   2.399   9.706   6.395  0.2334 -0.6268 -0.2792
  798MOL0     C 9997   2.535   9.687   6.324  0.1910  0.0062  0.6005
  798MOL0     C 9998   2.548   9.770   6.189  0.3240 -0.4392 -0.5144
  798MOL0     C 9999   2.678   9.742   6.113  0.1033 -0.9406 -0.4693
  798MOL0     C10000   2.708   9.591   6.099 -0.7908  0.2521  0.1424
  798MOL0     C10001   2.838   9.568   6.022  0.7058  0.1065  0.6945
  798MOL0     C10002   2.820   9.590   5.869  0.6153 -0.0917 -0.5591
  798MOL0     N10003   2.944   9.568   5.799  0.0043  0.1260 -0.2468
  798MOL0     C10004   3.033   9.669   5.752  0.7996 -0.4466 -0.2241
  798MOL0     C10005   3.110   9.600   5.667 -0.1519  0.3442 -0.4441
  798MOL0     C10006   3.226   9.657   5.603 -0.2244 -0.4995 -0.0091
  798MOL0     C10007   3.251   9.813   5.639 -1.1778  0.5380  0.0152
  798MOL0     C10008   3.355   9.874   5.547 -0.2117  0.3868 -0.5815
  798MOL0     C10009   3.397  10.010   5.604 -0.9790 -0.3456 -0.2070
  798MOL0     O10010   3.476   9.971   5.722 -0.6185  0.1985  1.6307
  798MOL0     C10011   3.509  10.064   5.809 -0.4778  0.6096  0.6001
  798MOL0     C10012   3.442  10.182   5.831  0.3607 -0.3739  0.2890
  798MOL0     C10013   3.488  10.273   5.931 -0.1675  0.4713  0.3777
  798MOL0     C10014   3.389  10.382   5.950 -0.2128  0.1883  0.7637
  798MOL0     C10015   3.606  10.251   6.005  0.0534 -0.6862 -0.1742
  798MOL0     C10016   3.658  10.338   6.116 -0.6002 -0.1807  0.1016
  798MOL0     O10017   3.761  10.286   6.190 -0.0708  0.8831  0.3243
  798MOL0     C10018   3.811  10.364   6.290 -0.0009  0.8237  0.6696
  798MOL0     C10019   3.754  10.476   6.362 -0.4734  0.5695  0.6059
  798MOL0     C10020   3.835  10.547   6.462 -0.6899  0.3333  0.0078
  798MOL0     C10021   3.961  10.511   6.485 -0.1862  0.1564 -0.6364
  798MOL0     O10022   4.038  10.584   6.569  0.0937  0.2343 -0.0224
  798MOL0     C10023   4.078  10.513   6.679  0.1502  0.0754 -0.8464
  798MOL0     C10024   4.227  10.516   6.699  0.3857 -0.0303  0.0331
  798MOL0     C10025   4.279  10.654   6.716 -0.1891 -0.8227 -0.3122
  798MOL0     C10026   4.429  10.656   6.745 -0.4675  0.6308 -0.5865
  798MOL0     C10027   4.513  10.749   6.656 -0.4423 -0.6455 -0.7670
  798MOL0     C10028   4.661  10.768   6.682 -0.0477  0.4187 -0.6356
  798MOL0     C10029   4.709  10.821   6.816 -0.1431  0.8747 -0.3996
  798MOL0     C10030   4.825  10.741   6.869 -0.9783  0.3693 -0.0078
  798MOL0    Cl10031   4.966  10.756   6.752  0.0313  0.1277 -0.0875
  798MOL0     C10032   4.023  10.403   6.413  0.7567  0.3955 -0.2753
  798MOL0     C10033   3.946  10.334   6.318  0.9957 -0.4251  0.8272
  798MOL0     O10034   3.624  10.449   6.121  0.2804 -0.5678 -0.3418
  798MOL0     C10035   3.677  10.131   5.965 -0.5304  0.1235  0.4153
  798MOL0     C10036   3.624  10.038   5.876 -0.4991 -0.0224 -0.1815
  798MOL0     N10037   3.077   9.470   5.666 -0.5368 -0.3446  0.4430
  798MOL0     N10038   2.975   9.451   5.738  0.7804 -0.8263 -0.5075
  798MOL0     C10039   2.072   9.613   6.102  0.5147  0.4365 -0.3792
  798MOL0     C10040   1.978   9.584   5.997 -0.4419 -0.0998  0.0439
  798MOL0     C10041   1.768   9.439   5.625  0.3648 -0.5864 -0.1633
  798MOL0     C10042   1.719   9.566   5.573  0.0438 -0.4594 -0.6599
  798MOL0     C10043   1.637   9.575   5.457  0.5509  0.1455 -1.0447
  798MOL0     C10044   1.607   9.450   5.393  0.3202  0.3349 -1.5420
  798MOL0     O10045   1.528   9.441   5.283  0.6753  0.6894  0.2665
  798MOL0     C10046   1.454   9.538   5.211 -0.1458  0.0372 -0.3609
  798MOL0     C10047   1.321   9.559   5.293 -0.6476  0.2859 -0.3608
  798MOL0     C10048   1.234   9.443   5.261 -0.2431 -0.0104  0.0399
  798MOL0     C10049   1.096   9.434   5.326  0.0755  0.0669  1.2516
  798MOL0     C10050   0.998   9.375   5.229  1.1929 -0.6705 -0.4453
  798MOL0     C10051   0.925   9.350   5.137  0.9693  0.9191  0.2458
  798MOL0     C10052   1.634   9.338   5.457 -0.6896  1.1018  1.1574
  798MOL0     C10053   1.723   9.319   5.563  0.0447 -0.1557 -0.1905
  798MOL0     C10054   1.738   9.173   5.603  0.2065  0.4005 -1.5508
  798MOL0     H10055   2.193   9.524   5.745 -0.7190 -0.5093  0.0953
  798MOL0     H10056   2.359   9.557   5.940  0.0679 -0.0603  1.9004
  798MOL0     H10057   2.229   9.581   6.378 -0.8046 -0.0359 -1.8387
  798MOL0     H10058   2.201   9.740   6.317 -2.3246 -0.4424  1.2224
  798MOL0     H10059   2.399   9.813   6.417 -1.3184 -0.4464 -1.0325
  798MOL0     H10060   2.404   9.654   6.491  1.9184  2.3287  1.4006
  798MOL0     H10061   2.622   9.702   6.388 -0.0221 -0.2904  0.9623
  798MOL0     H10062   2.534   9.581   6.300  1.1582 -0.4296  2.3359
  798MOL0     H10063   2.469   9.776   6.113  0.7780  0.7158 -0.9179
  798MOL0     H10064   2.553   9.871   6.230 -1.1343 -2.0523  4.2074
  798MOL0     H10065   2.766   9.784   6.162 -1.5568  1.0358  1.0235
  798MOL0     H10066   2.669   9.772   6.008  0.3295 -2.6992 -1.0243
  798MOL0     H10067   2.716   9.552   6.201 -1.8596  1.3865  0.6953
  798MOL0     H10068   2.623   9.547   6.046 -2.0634  0.7897  1.6293
  798MOL0     H10069   2.858   9.460   6.025  1.8930  0.1330 -2.6910
  798MOL0     H10070   2.913   9.637   6.061  0.9193  0.0670  0.3523
  798MOL0     H10071   2.738   9.527   5.832 -2.0133  0.6256  3.4483
  798MOL0     H10072   2.785   9.694   5.864 -1.8620 -0.8360 -0.1854
  798MOL0     H10073   3.036   9.772   5.789  3.4224 -0.0649 -1.2695
  798MOL0     H10074   3.206   9.647   5.496 -1.8989 -0.9702  0.3209
  798MOL0     H10075   3.308   9.592   5.636 -0.0204  0.0126  0.5165
  798MOL0     H10076   3.165   9.879   5.625 -0.3802  2.0531  1.9014
  798MOL0     H10077   3.277   9.819   5.745 -0.2919  0.7932 -0.2115
  798MOL0     H10078   3.445   9.814   5.534  1.1949  2.4740 -1.0473
  798MOL0     H10079   3.310   9.886   5.448 -1.4594 -0.0808 -0.0925
  798MOL0     H10080   3.460  10.065   5.533 -0.7003 -0.2902  0.0789
  798MOL0     H10081   3.312  10.074   5.628 -1.2110 -0.4976 -0.6272
  798MOL0     H10082   3.355  10.209   5.771 -0.6497  1.1010  2.2746
  798MOL0     H10083   3.300  10.379   5.886  0.9862  1.2569 -1.0659
  798MOL0     H10084   3.442  10.473   5.920 -0.1569  0.4480  1.6298
  798MOL0     H10085   3.364  10.382   6.056  0.1293 -4.6251  1.0731
  798MOL0     H10086   3.654  10.511   6.342 -1.4153 -2.1960  0.0357
  798MOL0     H10087   3.783  10.631   6.506 -0.5885  1.0402 -1.1732
  798MOL0     H10088   4.023  10.550   6.766 -2.0633 -1.3635 -1.5634
  798MOL0     H10089   4.041  10.410   6.675  0.0953  0.1169 -1.5221
  798MOL0     H10090   4.249  10.463   6.793 -1.6846  1.8502  1.6997
  798MOL0     H10091   4.259  10.461   6.610  0.9410 -1.2862  0.9742
  798MOL0     H10092   4.234  10.690   6.809 -1.8836  1.8165 -2.0325
  798MOL0     H10093   4.240  10.728   6.646 -0.9801  0.2852  1.2267
  798MOL0     H10094   4.475  10.558   6.728  0.5399  1.0209 -0.1672
  798MOL0     H10095   4.440  10.681   6.850 -3.7499 -1.7130  0.4726
  798MOL0     H10096   4.495  10.729   6.550 -0.9392 -0.0395 -0.8069
  798MOL0     H10097   4.469  10.848   6.676  0.3031 -0.3972 -0.3302
  798MOL0     H10098   4.698  10.834   6.602 -0.2782  0.2091 -0.9210
  798MOL0     H10099   4.701  10.668   6.667  0.3703  0.5843 -0.6331
  798MOL0     H10100   4.629  10.811   6.889  0.2243  0.9590  0.0231
  798MOL0     H10101   4.736  10.927   6.809  0.9812  0.9360  2.9451
  798MOL0     H10102   4.802  10.637   6.893 -0.7127  0.8069  2.4312
  798MOL0     H10103   4.850  10.796   6.961  0.4523  0.3659 -0.3767
  798MOL0     H10104   4.125  10.379   6.439  0.1271  1.0971  3.3429
  798MOL0     H10105   3.988  10.247   6.269 -0.7822  0.0665 -1.8066
  798MOL0     H10106   3.781  10.112   5.991  0.0267  0.6243 -1.3177
  798MOL0     H10107   3.672   9.944   5.852 -1.7221 -0.2386 -1.9995
  798MOL0     H10108   2.035   9.630   6.203 -1.5393  0.4154 -1.0747
  798MOL0     H10109   1.874   9.562   6.017 -1.1828  1.6214 -1.6337
  798MOL0     H10110   1.742   9.655   5.631  3.3821 -1.8592  0.3654
  798MOL0     H10111   1.622   9.672   5.411 -0.1841  0.6681  0.2543
  798MOL0     H10112   1.510   9.631   5.197  0.1790  0.3031  2.1994
  798MOL0     H10113   1.438   9.491   5.114 -1.4245  0.2087 -0.2399
  798MOL0     H10114   1.272   9.651   5.260  0.8451  0.7943 -1.2453
  798MOL0     H10115   1.338   9.563   5.401 -1.9953 -3.8037  0.1641
  798MOL0     H10116   1.225   9.438   5.152  0.9200 -0.1192 -0.0593
  798MOL0     H10117   1.282   9.346   5.279 -0.4880 -0.4702 -1.5968
  798MOL0     H10118   1.065   9.535   5.351 -3.4960 -0.3128 -0.8858
  798MOL0     H10119   1.090   9.372   5.415 -1.0372 -1.2241  0.3265
  798MOL0     H10120   0.856   9.342   5.055  1.9513  2.2614 -0.7711
  798MOL0     H10121   1.598   9.255   5.397  0.4585  1.4501 -0.0575
  798MOL0     H10122   1.654   9.156   5.669  0.8407 -2.6332 -1.3937
  798MOL0     H10123   1.738   9.103   5.518  1.4773  1.0503 -2.1188
  798MOL0     H10124   1.829   9.160   5.663 -0.1659 -1.2795 -1.3027
  799MOL0     O10125   3.148   2.105   5.097 -0.1849  0.4787  0.0268
  799MOL0     C10126   3.197   2.169   5.185 -1.2296  0.0412 -1.1742
  799MOL0     O10127   3.130   2.236   5.277 -0.2041  0.4225 -0.4976
  799MOL0     C10128   2.995   2.217   5.276 -0.1307  0.4900 -0.0539
  799MOL0     C10129   2.931   2.105   5.340 -0.4174 -0.1500 -0.9966
  799MOL0     C10130   2.784   2.082   5.326  0.1903  0.2534  0.8700
  799MOL0     C10131   2.712   2.172   5.255  0.0280  0.3051  0.2355
  799MOL0     O10132   2.574   2.162   5.237 -0.1149 -0.4861  0.3132
  799MOL0     C10133   2.510   2.084   5.344  0.2214 -0.3616 -0.1112
  799MOL0     C10134   2.362   2.104   5.316 -0.0420 -0.0181  0.1314
  799MOL0     C10135   2.288   2.009   5.422 -0.2437 -0.1666 -0.2064
  799MOL0     C10136   2.140   2.049   5.437 -0.1095 -0.5417  0.3223
  799MOL0     C10137   2.075   1.963   5.545 -0.5576 -0.6935 -0.0916
  799MOL0     C10138   1.933   2.008   5.560  0.2138 -0.6831 -0.4522
  799MOL0     C10139   1.845   1.934   5.665 -0.0773 -0.5278 -0.2606
  799MOL0     C10140   1.791   2.035   5.774  0.0486 -0.3009  0.5855
  799MOL0     N10141   1.672   2.101   5.712  0.1424  0.7138 -0.0784
  799MOL0     C10142   1.553   2.035   5.677  0.0808  0.4766  0.1403
  799MOL0     C10143   1.487   2.119   5.591 -0.3293  0.0942 -0.8502
  799MOL0     C10144   1.354   2.099   5.527 -0.5259 -0.0050  1.4689
  799MOL0     C10145   1.233   2.103   5.617 -0.1241 -0.7516 -0.0459
  799MOL0     C10146   1.211   2.240   5.676  0.2059  0.3364 -0.0334
  799MOL0     C10147   1.072   2.240   5.740  0.2826  0.1323 -0.6925
  799MOL0     O10148   0.975   2.256   5.636 -0.2156  0.6607 -0.1905
  799MOL0     C10149   0.839   2.283   5.674  0.2235  0.0452  0.3908
  799MOL0     C10150   0.781   2.264   5.799  0.5507 -0.0987 -0.3953
  799MOL0     C10151   0.641   2.301   5.819  0.2280 -0.5534  0.1917
  799MOL0     C10152   0.577   2.288   5.950  0.8036  0.4235 -0.1131
  799MOL0     C10153   0.561   2.336   5.708 -0.4879  0.2884 -0.2238
  799MOL0     C10154   0.419   2.347   5.712 -0.4834 -1.0533  0.1499
  799MOL0     O10155   0.358   2.464   5.650  0.4422  0.4992 -0.0950
  799MOL0     C10156   0.221   2.459   5.626 -0.3589 -0.2889 -0.0395
  799MOL0     C10157   0.158   2.368   5.536  0.0110  0.4768  0.5173
  799MOL0     C10158   0.017   2.379   5.514  0.9659  0.1405  0.3598
  799MOL0     C10159  -0.062   2.479   5.573  0.3638 -0.5641 -0.8189
  799MOL0     O10160  -0.197   2.484   5.548  0.5273 -0.7083  0.0537
  799MOL0     C10161  -0.251   2.612   5.526 -0.3536 -0.5814 -0.4528
  799MOL0     C10162  -0.401   2.625   5.548  0.5957 -0.7270  0.4522
  799MOL0     C10163  -0.481   2.551   5.442 -0.0362  0.1163  0.6161
  799MOL0     C10164  -0.628   2.547   5.461  0.4635 -0.1255  0.4020
  799MOL0     C10165  -0.701   2.492   5.344  0.1939  0.0717  0.0696
  799MOL0     C10166  -0.799   2.376   5.371 -0.4430  0.4324 -0.0874
  799MOL0     C10167  -0.900   2.414   5.480 -0.4458 -0.5126 -0.2214
  799MOL0     C10168  -0.978   2.551   5.439 -0.4407 -0.3032 -0.0216
  799MOL0    Cl10169  -1.039   2.544   5.264 -0.0132 -0.3625 -0.4026
  799MOL0     C10170   0.007   2.567   5.659 -0.5088 -0.1520  0.1938
  799MOL0     C10171   0.141   2.553   5.690  0.0559  0.4735 -0.4446
  799MOL0     O10172   0.363   2.240   5.735  0.6472  0.0787 -0.4258
  799MOL0     C10173   0.621   2.346   5.585  0.7660 -0.7651  0.0923
  799MOL0     C10174   0.757   2.320   5.570  0.1369  0.2770  0.2694
  799MOL0     N10175   1.555   2.239   5.583  0.1074  0.5259  0.0153
  799MOL0     N10176   1.657   2.222   5.661 -0.5496 -0.1190  0.3737
  799MOL0     C10177   2.774   2.279   5.199  0.2344  0.3191  0.2622
  799MOL0     C10178   2.911   2.304   5.214 -0.5515  0.0208 -0.0118
  799MOL0     C10179   3.345   2.187   5.190  0.0967  1.0286  0.4264
  799MOL0     C10180   3.392   2.300   5.238  0.0160 -0.3622  0.4523
  799MOL0     C10181   3.531   2.327   5.240  0.2322  0.1900 -0.4288
  799MOL0     C10182   3.619   2.232   5.202 -0.0064 -0.0515 -0.1353
  799MOL0     O10183   3.761   2.237   5.224  0.3302  0.1591 -0.3794
  799MOL0     C10184   3.801   2.336   5.320 -0.7905 -0.7812 -0.2651
  799MOL0     C10185   3.939   2.316   5.351 -0.7432  0.7059 -0.2166
  799MOL0     C10186   4.042   2.359   5.239 -0.9882  0.2694  0.5080
  799MOL0     C10187   4.183   2.331   5.293 -0.9711  0.4032 -0.1603
  799MOL0     C10188   4.278   2.411   5.210  0.4282  0.4820  0.6022
  799MOL0     C10189   4.341   2.497   5.154  0.3349  0.4863 -1.4223
  799MOL0     C10190   3.571   2.109   5.158 -0.0274  0.5871 -0.3932
  799MOL0     C10191   3.434   2.081   5.150 -0.2488 -0.7622 -0.8241
  799MOL0     C10192   3.396   1.943   5.113 -1.1968  0.0894 -0.0992
  799MOL0     H10193   2.996   2.047   5.405  1.8477  2.4794 -0.7485
  799MOL0     H10194   2.741   1.992   5.369 -1.2786 -0.4281 -1.7624
  799MOL0     H10195   2.537   2.108   5.447  2.1260  1.9091 -1.0285
  799MOL0     H10196   2.535   1.978   5.334 -0.0120 -0.3972 -0.3489
  799MOL0     H10197   2.331   2.209   5.318  1.3374  0.4493 -1.3265
  799MOL0     H10198   2.334   2.066   5.218 -0.6132  0.4399  0.1115
  799MOL0     H10199   2.286   1.900   5.407 -1.0158 -0.4802  1.8121
  799MOL0     H10200   2.331   2.032   5.520  1.5269  3.1677 -1.6273
  799MOL0     H10201   2.129   2.157   5.448  0.8700 -0.5336  1.5387
  799MOL0     H10202   2.094   2.023   5.341  2.0170  0.3862 -1.0287
  799MOL0     H10203   2.133   1.971   5.637 -0.1520 -2.4104 -0.1803
  799MOL0     H10204   2.068   1.857   5.520  0.3409 -1.2430  1.7961
  799MOL0     H10205   1.933   2.116   5.576  2.6974 -0.0421 -3.5743
  799MOL0     H10206   1.880   2.007   5.464 -1.0696  2.2918  0.1111
  799MOL0     H10207   1.901   1.850   5.707  0.4876  0.1536  0.3873
  799MOL0     H10208   1.759   1.890   5.616  0.9164 -2.3725 -0.4250
  799MOL0     H10209   1.760   1.965   5.852  3.0775 -3.4911 -0.8234
  799MOL0     H10210   1.861   2.114   5.802  0.3631  0.5153 -2.2433
  799MOL0     H10211   1.519   1.934   5.699 -3.8371  1.2415 -1.5077
  799MOL0     H10212   1.350   2.000   5.481 -5.8654 -0.0463  1.4016
  799MOL0     H10213   1.340   2.172   5.447  0.8259  0.3161  1.5041
  799MOL0     H10214   1.143   2.090   5.555 -1.2443 -0.3047  1.4392
  799MOL0     H10215   1.248   2.029   5.696  2.7172 -0.8955 -0.6191
  799MOL0     H10216   1.286   2.271   5.749  0.5769  0.6266 -0.5339
  799MOL0     H10217   1.216   2.309   5.592  1.2746  2.2991  1.5533
  799MOL0     H10218   1.060   2.149   5.800 -1.4103  1.9714  2.0215
  799MOL0     H10219   1.070   2.329   5.805  1.9262 -0.0310 -0.3728
  799MOL0     H10220   0.839   2.227   5.883  1.9595 -1.3592 -1.8633
  799MOL0     H10221   0.481   2.337   5.964  1.2111  0.6218  2.4877
  799MOL0     H10222   0.643   2.322   6.031  0.9337 -0.5190  0.1959
  799MOL0     H10223   0.558   2.181   5.964  0.7533  0.4724  0.1974
  799MOL0     H10224   0.225   2.298   5.489  1.1161  0.2261  2.3517
  799MOL0     H10225  -0.034   2.308   5.450  1.8571  0.3029 -0.5423
  799MOL0     H10226  -0.211   2.682   5.601 -1.2218 -2.0480  1.4772
  799MOL0     H10227  -0.219   2.651   5.430  0.0585 -0.1145 -0.1315
  799MOL0     H10228  -0.424   2.585   5.647 -0.1404  0.9167  0.9928
  799MOL0     H10229  -0.427   2.731   5.544 -0.2181 -0.8197  2.5105
  799MOL0     H10230  -0.449   2.447   5.438  1.7088  0.6398  0.1283
  799MOL0     H10231  -0.457   2.598   5.346 -0.2802 -2.2805 -0.6817
  799MOL0     H10232  -0.654   2.653   5.469  0.0441 -0.0997 -1.0295
  799MOL0     H10233  -0.661   2.496   5.552 -2.2319 -0.2895 -0.5678
  799MOL0     H10234  -0.763   2.570   5.299 -3.0131 -2.7901 -0.8853
  799MOL0     H10235  -0.626   2.454   5.274  0.0108 -1.3287  0.5985
  799MOL0     H10236  -0.738   2.292   5.409 -2.7770 -0.6469  1.4817
  799MOL0     H10237  -0.855   2.336   5.287  0.1861 -1.2323  0.2280
  799MOL0     H10238  -0.856   2.417   5.580  1.3476 -1.7266 -0.9273
  799MOL0     H10239  -0.975   2.335   5.485 -0.7913 -0.2235 -0.7358
  799MOL0     H10240  -0.918   2.640   5.460  0.0955 -0.5433 -0.4754
  799MOL0     H10241  -1.065   2.559   5.504  0.3234 -0.3697  1.0295
  799MOL0     H10242  -0.039   2.656   5.701  1.3177  0.7738  0.3286
  799MOL0     H10243   0.176   2.620   5.769  0.3462 -0.4070  0.1908
  799MOL0     H10244   0.554   2.343   5.500  1.5412  2.5908 -0.7606
  799MOL0     H10245   0.795   2.330   5.469  2.6409  1.1565  1.1994
  799MOL0     H10246   2.718   2.341   5.129  0.1414 -1.4231 -1.2741
  799MOL0     H10247   2.949   2.397   5.174 -0.4320  0.2046  0.5198
  799MOL0     H10248   3.326   2.383   5.258 -1.8051 -0.8097 -2.9514
  799MOL0     H10249   3.568   2.422   5.278 -2.0457  0.7119  0.6683
  799MOL0     H10250   3.791   2.433   5.270  0.2916 -1.5802 -2.1350
  799MOL0     H10251   3.748   2.344   5.415  0.8341 -0.2087  0.6322
  799MOL0     H10252   3.954   2.212   5.382 -0.5916  1.7222  3.7766
  799MOL0     H10253   3.962   2.370   5.444 -3.3241  0.8964  0.3990
  799MOL0     H10254   4.028   2.311   5.141  0.7620 -2.8907  1.6821
  799MOL0     H10255   4.040   2.469   5.235 -1.8013  0.2402 -0.2184
  799MOL0     H10256   4.215   2.227   5.286  0.1481  0.7537 -0.3619
  799MOL0     H10257   4.193   2.359   5.399 -2.2395 -1.7586  0.5794
  799MOL0     H10258   4.395   2.579   5.110  1.7701  1.0490  1.2296
  799MOL0     H10259   3.639   2.025   5.147 -2.6715 -1.6103 -1.0801
  799MOL0     H10260   3.483   1.876   5.120 -0.5979  0.7004 -1.3935
  799MOL0     H10261   3.326   1.911   5.190 -0.4438  0.0368  0.5758
  799MOL0     H10262   3.349   1.935   5.015 -1.4283  1.5828 -0.1283
  800MOL0     O10263   0.424   7.259   8.308 -0.2354  0.3262 -0.2606
  800MOL0     C10264   0.393   7.330   8.402  0.7143  0.0427  0.3564
  800MOL0     O10265   0.462   7.447   8.439  0.5321  0.1006  0.4372
  800MOL0     C10266   0.593   7.472   8.427 -0.2532 -0.4384  0.1475
  800MOL0     C10267   0.641   7.594   8.478  0.5589  0.2589 -0.0673
  800MOL0     C10268   0.775   7.629   8.473  0.5404 -0.6036 -0.0147
  800MOL0     C10269   0.864   7.548   8.404  0.0615 -0.1352 -0.7902
  800MOL0     O10270   0.991   7.587   8.387 -0.4546 -0.7797  0.3255
  800MOL0     C10271   1.091   7.498   8.434 -0.4649 -0.5138  0.2853
  800MOL0     C10272   1.192   7.575   8.514 -0.0443  0.4075  0.5627
  800MOL0     C10273   1.165   7.573   8.665 -0.3691 -0.2891 -0.3135
  800MOL0     C10274   1.052   7.674   8.705 -0.2722  0.8354 -0.1970
  800MOL0     C10275   1.029   7.675   8.854  0.7565  0.1718 -0.0125
  800MOL0     C10276   0.912   7.755   8.895  0.1377  0.0874  0.3865
  800MOL0     C10277   0.928   7.908   8.888 -0.9240 -0.6073  0.0862
  800MOL0     C10278   0.800   7.976   8.934 -0.2734  0.5584  0.0442
  800MOL0     N10279   0.829   8.122   8.951  0.0828 -0.7981  0.3104
  800MOL0     C10280   0.812   8.230   8.860  0.9575 -0.9529  0.3832
  800MOL0     C10281   0.897   8.334   8.901  0.8407  0.6754  0.8387
  800MOL0     C10282   0.925   8.458   8.831  0.0223 -0.5814  0.3819
  800MOL0     C10283   0.993   8.576   8.910 -0.4991 -0.4657  0.4420
  800MOL0     C10284   0.904   8.621   9.031 -0.4128 -0.0591  0.1364
  800MOL0     C10285   0.965   8.713   9.144 -0.4896  0.0657  0.0470
  800MOL0     O10286   0.990   8.831   9.075 -0.5217  0.8345 -0.3626
  800MOL0     C10287   1.103   8.906   9.115 -0.2435  0.4821  0.3292
  800MOL0     C10288   1.153   8.995   9.020  0.7028 -0.3033  0.3310
  800MOL0     C10289   1.276   9.056   9.039 -0.6206  0.2808  0.7385
  800MOL0     C10290   1.331   9.137   8.919  0.1625 -0.4266  0.5474
  800MOL0     C10291   1.336   9.052   9.169  0.4712  0.2687 -0.4710
  800MOL0     C10292   1.469   9.119   9.205  0.1582 -0.6491  0.2371
  800MOL0     O10293   1.496   9.124   9.342  0.3718  0.1376  0.8423
  800MOL0     C10294   1.624   9.095   9.378 -0.4706  0.5215  0.5634
  800MOL0     C10295   1.664   8.963   9.400  0.0699 -0.1274 -0.3331
  800MOL0     C10296   1.795   8.929   9.448 -0.6215  0.5525 -0.4085
  800MOL0     C10297   1.886   9.030   9.465  0.7395  0.5812  0.9228
  800MOL0     O10298   2.011   9.000   9.507 -0.0033 -0.0950  0.7525
  800MOL0     C10299   2.085   8.907   9.430 -0.7147  0.9307 -0.4161
  800MOL0     C10300   2.194   8.848   9.518 -0.4801  0.5525 -0.2964
  800MOL0     C10301   2.315   8.824   9.447 -0.1162 -0.1357  0.1545
  800MOL0     C10302   2.415   8.765   9.551 -0.4072 -0.3699  0.0603
  800MOL0     C10303   2.552   8.746   9.472  0.4280  0.0571  0.2536
  800MOL0     C10304   2.672   8.765   9.559 -0.1167 -1.4806 -0.7624
  800MOL0     C10305   2.799   8.756   9.480 -0.2005 -0.2637 -0.3166
  800MOL0     C10306   2.924   8.822   9.553 -0.3796 -0.4322  0.5787
  800MOL0    Cl10307   2.892   8.997   9.589  0.1560  0.2395  0.1991
  800MOL0     C10308   1.847   9.158   9.435 -0.1055 -0.7534  0.0978
  800MOL0     C10309   1.724   9.188   9.388 -0.3387  0.1112 -0.6902
  800MOL0     O10310   1.544   9.155   9.117  0.2403  0.7322  0.5317
  800MOL0     C10311   1.284   8.968   9.269  0.3500  0.0584  0.4823
  800MOL0     C10312   1.166   8.890   9.234  0.2218 -1.3242 -0.8414
  800MOL0     N10313   0.955   8.284   9.012  0.2414 -0.2279  0.0828
  800MOL0     N10314   0.919   8.165   9.047 -0.1912  0.6708  0.0232
  800MOL0     C10315   0.821   7.424   8.349  0.7508 -0.1827  0.1382
  800MOL0     C10316   0.687   7.383   8.362  0.8766 -0.4867  0.9670
  800MOL0     C10317   0.269   7.302   8.477  0.5742 -0.0449  0.3789
  800MOL0     C10318   0.202   7.409   8.542  0.0064  0.2699 -0.4516
  800MOL0     C10319   0.078   7.396   8.610  1.3681  0.8784 -0.5093
  800MOL0     C10320   0.016   7.277   8.612  0.6214 -0.7662  0.9057
  800MOL0     O10321  -0.101   7.277   8.679  0.5702  0.3276 -0.1414
  800MOL0     C10322  -0.178   7.157   8.691  0.4513 -0.6219 -0.7168
  800MOL0     C10323  -0.306   7.194   8.743  0.5551 -0.6183 -0.5636
  800MOL0     C10324  -0.402   7.077   8.793  0.3168 -0.2712 -0.3722
  800MOL0     C10325  -0.499   7.131   8.906 -0.0254  0.6921 -0.8313
  800MOL0     C10326  -0.563   7.014   8.963 -0.8437 -0.5768 -0.8691
  800MOL0     C10327  -0.614   6.911   9.007  0.2287 -0.2639 -0.0683
  800MOL0     C10328   0.076   7.173   8.543  0.4107  0.6286  0.2311
  800MOL0     C10329   0.204   7.177   8.479  0.5769  0.4932  0.4524
  800MOL0     C10330   0.252   7.045   8.412  0.3672 -0.8908  0.1290
  800MOL0     H10331   0.576   7.668   8.523  3.4609  4.0117 -1.4900
  800MOL0     H10332   0.820   7.724   8.501  1.3565 -0.2729 -2.2136
  800MOL0     H10333   1.142   7.457   8.346  0.4092 -0.1292  0.5984
  800MOL0     H10334   1.050   7.411   8.486  1.5531 -0.6062  1.8421
  800MOL0     H10335   1.290   7.531   8.494  0.0069  1.1660 -0.9984
  800MOL0     H10336   1.197   7.679   8.481  0.7313  0.6642  1.4234
  800MOL0     H10337   1.129   7.475   8.698  1.0636 -0.8237 -0.2265
  800MOL0     H10338   1.259   7.587   8.719 -0.1779  0.4662 -0.8231
  800MOL0     H10339   1.076   7.771   8.660 -1.8185  0.9222 -0.8725
  800MOL0     H10340   0.958   7.633   8.669 -1.5965  2.9472  0.6816
  800MOL0     H10341   1.120   7.710   8.903  1.4853 -1.4661 -0.1353
  800MOL0     H10342   1.015   7.573   8.890  0.7174  0.3250  0.4162
  800MOL0     H10343   0.826   7.727   8.833 -0.0643  1.5172 -0.0242
  800MOL0     H10344   0.874   7.718   8.991 -4.2745 -1.3829 -1.6256
  800MOL0     H10345   0.964   7.936   8.788  0.4162  1.1896  1.0251
  800MOL0     H10346   1.016   7.941   8.945  0.4857  0.3956 -2.4678
  800MOL0     H10347   0.732   7.959   8.850 -1.2440 -1.2379  1.1238
  800MOL0     H10348   0.763   7.930   9.026  2.8692  0.8452  1.5598
  800MOL0     H10349   0.758   8.223   8.767  0.5136  2.3228  0.2523
  800MOL0     H10350   0.839   8.494   8.775  2.7282  1.4393 -2.8887
  800MOL0     H10351   1.003   8.443   8.756  1.2277  1.1277  1.2198
  800MOL0     H10352   1.087   8.536   8.950  0.6743  1.8000  0.0980
  800MOL0     H10353   1.019   8.661   8.846  3.2164 -0.6192  1.5012
  800MOL0     H10354   0.818   8.666   8.981  0.5804  0.7566 -0.9096
  800MOL0     H10355   0.873   8.529   9.079 -0.0737 -0.9403 -1.2649
  800MOL0     H10356   0.898   8.736   9.226 -0.1901 -0.5630  0.4782
  800MOL0     H10357   1.056   8.666   9.184 -0.1217  2.4096  2.1800
  800MOL0     H10358   1.103   9.015   8.925 -0.0518  0.4531  0.8750
  800MOL0     H10359   1.271   9.116   8.831 -0.1979  2.1500  0.0902
  800MOL0     H10360   1.435   9.109   8.899  0.1093 -2.1695  2.3772
  800MOL0     H10361   1.327   9.246   8.929 -0.2294 -0.4602  0.7594
  800MOL0     H10362   1.589   8.887   9.387  0.2315 -0.0930 -1.5061
  800MOL0     H10363   1.804   8.824   9.474 -2.4602  0.5158  0.2872
  800MOL0     H10364   2.024   8.822   9.395  0.7721 -0.5123  0.3460
  800MOL0     H10365   2.136   8.952   9.345  0.2193  0.4929 -0.1053
  800MOL0     H10366   2.206   8.914   9.605 -0.3431 -1.7297  1.5160
  800MOL0     H10367   2.157   8.754   9.560  2.5613  0.5566  2.8092
  800MOL0     H10368   2.357   8.916   9.406  0.1654 -1.1618 -2.0163
  800MOL0     H10369   2.290   8.742   9.379 -1.0891 -1.1387  1.6302
  800MOL0     H10370   2.375   8.666   9.578 -1.3359 -1.2152 -3.7997
  800MOL0     H10371   2.409   8.824   9.643 -3.0259  0.6820 -0.7081
  800MOL0     H10372   2.547   8.643   9.436 -3.5640  0.0358  0.4551
  800MOL0     H10373   2.559   8.811   9.384  1.4154 -3.2102 -2.2462
  800MOL0     H10374   2.676   8.693   9.642 -1.0682 -1.1247 -0.3959
  800MOL0     H10375   2.645   8.860   9.607 -1.3876 -2.8263  1.3167
  800MOL0     H10376   2.784   8.774   9.373 -2.2442 -3.0103 -0.6206
  800MOL0     H10377   2.829   8.651   9.490 -0.7647 -0.6400 -2.2140
  800MOL0     H10378   3.017   8.812   9.497  1.6635 -2.1244  3.9650
  800MOL0     H10379   2.935   8.776   9.652 -1.8039  0.2013  1.0665
  800MOL0     H10380   1.923   9.234   9.449 -0.2057 -0.6917  0.3344
  800MOL0     H10381   1.698   9.291   9.368  0.3982  1.2335  3.2697
  800MOL0     H10382   1.332   8.948   9.364  2.1118  2.5907  0.2123
  800MOL0     H10383   1.142   8.808   9.301  2.8083 -0.5517  1.1709
  800MOL0     H10384   0.899   7.361   8.307  0.9935  0.3629 -0.2423
  800MOL0     H10385   0.662   7.286   8.319  0.6794  0.2547 -0.6802
  800MOL0     H10386   0.257   7.502   8.553  0.9533 -0.1332 -1.5630
  800MOL0     H10387   0.042   7.481   8.667  1.1093  0.2116  0.3641
  800MOL0     H10388  -0.186   7.105   8.595 -1.7816  0.8985 -1.4273
  800MOL0     H10389  -0.124   7.091   8.759 -0.8132 -0.5869  0.3756
  800MOL0     H10390  -0.359   7.244   8.661  2.9450  2.0365 -0.6453
  800MOL0     H10391  -0.300   7.258   8.832  0.1311 -1.6834  0.2572
  800MOL0     H10392  -0.461   7.037   8.710 -1.1833  1.5488 -0.2663
  800MOL0     H10393  -0.336   7.000   8.833 -1.6118 -2.5824 -1.3755
  800MOL0     H10394  -0.575   7.196   8.864 -1.1388  1.7181  2.4258
  800MOL0     H10395  -0.439   7.179   8.984 -0.0185 -0.9209  0.2104
  800MOL0     H10396  -0.663   6.818   9.024  0.1277  0.0395  1.4519
  800MOL0     H10397   0.019   7.081   8.536  1.0274  0.3082 -0.7359
  800MOL0     H10398   0.231   7.040   8.305  1.6782 -2.8652 -0.0810
  800MOL0     H10399   0.360   7.039   8.428  0.5122 -0.4513 -0.6369
  800MOL0     H10400   0.222   6.948   8.453 -3.3760 -0.4292 -1.1437
  801MOL0     O10401   3.783   5.915   7.671 -0.1450 -0.2062  0.0497
  801MOL0     C10402   3.829   5.808   7.710 -0.3138 -0.0939 -0.6980
  801MOL0     O10403   3.917   5.798   7.817  0.8232  0.2870 -0.2462
  801MOL0     C10404   3.917   5.868   7.936  0.5201 -0.6251  0.1425
  801MOL0     C10405   4.019   5.836   8.026  0.1190 -0.4154 -0.6878
  801MOL0     C10406   4.030   5.908   8.150  0.4633  0.7052 -0.0567
  801MOL0     C10407   3.934   6.003   8.179  0.8406 -0.1643 -0.2428
  801MOL0     O10408   3.953   6.077   8.290 -0.8136  0.0848  0.1658
  801MOL0     C10409   3.955   6.221   8.254  0.2447  0.2087  0.4428
  801MOL0     C10410   3.980   6.311   8.372 -1.2370  0.1604 -0.1695
  801MOL0     C10411   4.126   6.296   8.426  0.5455 -0.1004  0.0026
  801MOL0     C10412   4.153   6.363   8.566 -0.5985  0.0307  0.7445
  801MOL0     C10413   4.296   6.330   8.606 -0.5976 -0.4220 -1.1966
  801MOL0     C10414   4.354   6.404   8.724 -0.1593 -0.9272 -0.0055
  801MOL0     C10415   4.475   6.321   8.767  0.0476  0.6131  0.4177
  801MOL0     C10416   4.582   6.407   8.838  0.0746 -0.1450 -0.6173
  801MOL0     N10417   4.539   6.475   8.971  0.0286  0.9024  0.5987
  801MOL0     C10418   4.429   6.565   8.974  0.3384  0.1071  0.0124
  801MOL0     C10419   4.418   6.599   9.104  0.9344  1.2462  0.2208
  801MOL0     C10420   4.313   6.684   9.177 -0.5502 -0.4162 -0.1629
  801MOL0     C10421   4.368   6.791   9.278 -0.1559 -0.0559 -0.0383
  801MOL0     C10422   4.317   6.940   9.238  0.2708 -0.0488 -0.2639
  801MOL0     C10423   4.359   7.044   9.348  0.6549  0.3156 -0.5021
  801MOL0     O10424   4.321   7.174   9.299  0.4188  0.4153  0.1253
  801MOL0     C10425   4.371   7.289   9.363  0.5290 -0.5868 -0.7406
  801MOL0     C10426   4.384   7.403   9.282  0.9427  0.5557 -0.2668
  801MOL0     C10427   4.451   7.510   9.338 -0.1211  0.7504 -0.9288
  801MOL0     C10428   4.488   7.620   9.238  0.7496  0.1009  0.0861
  801MOL0     C10429   4.492   7.515   9.479  0.3545 -0.3243  0.2537
  801MOL0     C10430   4.544   7.635   9.552 -0.4925 -0.5271  1.7261
  801MOL0     O10431   4.601   7.619   9.675 -0.0848 -0.1116 -0.1527
  801MOL0     C10432   4.668   7.722   9.737  0.1697 -0.8692  0.8941
  801MOL0     C10433   4.760   7.812   9.672  0.5427  0.3215 -0.0150
  801MOL0     C10434   4.823   7.917   9.742 -0.1165  0.5587 -0.4892
  801MOL0     C10435   4.811   7.933   9.885 -0.0618  0.5984  0.5058
  801MOL0     O10436   4.880   8.026   9.963 -0.8999 -0.0812  0.7428
  801MOL0     C10437   5.006   8.081   9.903 -0.1174  0.7357 -0.0019
  801MOL0     C10438   5.064   8.183  10.001 -0.4174 -0.3304 -0.5892
  801MOL0     C10439   4.984   8.258  10.098 -0.3637 -0.5145 -0.2345
  801MOL0     C10440   4.889   8.353  10.023  1.0718 -0.1888  0.8611
  801MOL0     C10441   4.781   8.430  10.107 -0.8348 -0.1006 -0.1923
  801MOL0     C10442   4.684   8.336  10.182  0.7197  0.3575 -0.1725
  801MOL0     C10443   4.581   8.403  10.287  0.2175 -0.4690  0.5576
  801MOL0     C10444   4.549   8.554  10.270 -0.8300  0.2604  0.9384
  801MOL0    Cl10445   4.450   8.582  10.128 -0.4849 -0.4058 -0.2468
  801MOL0     C10446   4.718   7.848   9.938 -0.3832 -0.0633 -0.3816
  801MOL0     C10447   4.652   7.748   9.864 -0.6934 -0.4543 -0.3752
  801MOL0     O10448   4.512   7.747   9.504 -0.2085  0.1009  0.0272
  801MOL0     C10449   4.470   7.401   9.557 -0.7476  0.3351 -0.8187
  801MOL0     C10450   4.417   7.287   9.498  0.2155  0.7466 -0.1382
  801MOL0     N10451   4.529   6.544   9.166  0.5700  0.2248 -0.2225
  801MOL0     N10452   4.593   6.469   9.094  0.8489 -0.1570 -0.7685
  801MOL0     C10453   3.826   6.020   8.096  0.4280  0.5949  0.4332
  801MOL0     C10454   3.811   5.956   7.972 -1.2130 -0.6700 -0.1103
  801MOL0     C10455   3.810   5.673   7.637 -0.4512 -0.3521  0.1392
  801MOL0     C10456   3.876   5.558   7.689  0.1640  0.0046 -0.1905
  801MOL0     C10457   3.842   5.430   7.629  1.4894 -0.3608  0.2460
  801MOL0     C10458   3.788   5.426   7.500  0.1653  0.8653  0.1361
  801MOL0     O10459   3.790   5.302   7.449  0.7825  0.1297  0.0179
  801MOL0     C10460   3.768   5.288   7.307  0.2575  0.1249 -0.5943
  801MOL0     C10461   3.629   5.318   7.259  1.2778  0.5732 -0.3552
  801MOL0     C10462   3.553   5.205   7.179 -0.1901 -0.2415 -0.1384
  801MOL0     C10463   3.422   5.258   7.112  0.0088  0.2218 -0.3857
  801MOL0     C10464   3.346   5.150   7.052 -0.1382 -0.3528 -0.0530
  801MOL0     C10465   3.288   5.051   7.005 -0.2833 -0.7394  0.3789
  801MOL0     C10466   3.753   5.543   7.433 -0.8664 -0.4477  0.7596
  801MOL0     C10467   3.752   5.664   7.506  0.1880 -0.3310  0.5107
  801MOL0     C10468   3.711   5.778   7.416 -0.4920 -0.2490  0.3180
  801MOL0     H10469   4.085   5.756   7.992 -1.5276 -1.6776 -1.0706
  801MOL0     H10470   4.118   5.887   8.210  2.2101  1.5245 -2.1892
  801MOL0     H10471   3.852   6.248   8.231  1.4619  2.1295 -3.5302
  801MOL0     H10472   4.020   6.235   8.168 -3.2331 -1.6361 -2.7710
  801MOL0     H10473   3.969   6.410   8.328 -0.4907 -0.8993 -3.0209
  801MOL0     H10474   3.905   6.283   8.446 -1.5177  2.4780  0.4747
  801MOL0     H10475   4.140   6.188   8.432 -0.9433 -0.2558  1.3980
  801MOL0     H10476   4.198   6.340   8.357  1.2909 -0.0999  0.7715
  801MOL0     H10477   4.126   6.469   8.558  0.6463  0.3411  0.5392
  801MOL0     H10478   4.089   6.315   8.641 -1.5074  0.4520  0.2654
  801MOL0     H10479   4.365   6.369   8.530  2.9407 -0.1149  1.8467
  801MOL0     H10480   4.304   6.221   8.609 -0.2688 -0.3856 -0.3339
  801MOL0     H10481   4.375   6.504   8.685  0.0006 -0.8483  0.2789
  801MOL0     H10482   4.282   6.413   8.807  1.7378  2.5787  1.4468
  801MOL0     H10483   4.522   6.281   8.677  0.2540 -0.5995  1.0376
  801MOL0     H10484   4.441   6.235   8.825  0.0217 -0.2141 -0.7901
  801MOL0     H10485   4.673   6.350   8.862 -0.0386 -0.2369 -0.4040
  801MOL0     H10486   4.627   6.489   8.781  1.8386 -0.7316 -0.1334
  801MOL0     H10487   4.353   6.583   8.899  0.7110  0.2453 -0.3422
  801MOL0     H10488   4.259   6.602   9.226 -0.0312  0.3752  1.8662
  801MOL0     H10489   4.245   6.734   9.108  0.1962  2.2726  0.9333
  801MOL0     H10490   4.329   6.768   9.378  0.8993  0.0608  0.4060
  801MOL0     H10491   4.477   6.786   9.275 -0.1172  0.9536 -0.9676
  801MOL0     H10492   4.350   6.967   9.137 -2.1297  1.3903 -0.7685
  801MOL0     H10493   4.210   6.956   9.217  0.1392 -0.4005  0.1096
  801MOL0     H10494   4.314   7.012   9.442  0.8878  2.4570  0.3988
  801MOL0     H10495   4.468   7.050   9.355  0.6193  2.6857 -0.9393
  801MOL0     H10496   4.349   7.403   9.180  0.6060  1.5455 -0.1607
  801MOL0     H10497   4.492   7.585   9.134 -0.2693  2.5006 -0.8590
  801MOL0     H10498   4.581   7.672   9.265  0.3493  1.9529 -1.8028
  801MOL0     H10499   4.420   7.705   9.232  0.7472  0.0563 -0.7446
  801MOL0     H10500   4.767   7.807   9.564  2.1543 -1.0551  0.1093
  801MOL0     H10501   4.887   7.984   9.686 -1.1539  0.7690 -1.4595
  801MOL0     H10502   5.078   8.001   9.886 -0.8521  0.6081 -2.9036
  801MOL0     H10503   4.981   8.136   9.812 -6.2559 -1.0694  0.1507
  801MOL0     H10504   5.140   8.130  10.060  1.1858  1.1274 -1.2565
  801MOL0     H10505   5.122   8.257   9.945 -1.1618  0.1357 -0.7559
  801MOL0     H10506   5.051   8.318  10.161  1.0912 -1.2965 -1.0182
  801MOL0     H10507   4.933   8.190  10.167  0.1270 -1.1008 -0.4534
  801MOL0     H10508   4.840   8.290   9.948  1.1944 -2.1178  2.3353
  801MOL0     H10509   4.952   8.429   9.976  3.4526 -1.7397  1.3761
  801MOL0     H10510   4.823   8.498  10.182 -1.1218 -1.3603  1.1832
  801MOL0     H10511   4.721   8.496  10.044  0.5527  1.4573  0.0840
  801MOL0     H10512   4.746   8.268  10.241 -1.3905 -1.8909 -0.3764
  801MOL0     H10513   4.628   8.276  10.110  1.8742  0.7731 -1.4448
  801MOL0     H10514   4.619   8.403  10.390 -0.9619  1.3674  1.0323
  801MOL0     H10515   4.487   8.347  10.282  0.2555 -0.5287  0.4866
  801MOL0     H10516   4.643   8.610  10.283  0.8317 -1.9562 -0.7563
  801MOL0     H10517   4.490   8.583  10.358 -1.0546  1.5358  0.4001
  801MOL0     H10518   4.703   7.857  10.045  1.3602 -3.2211  0.2291
  801MOL0     H10519   4.591   7.671   9.912 -0.4482  0.1863  1.0066
  801MOL0     H10520   4.496   7.396   9.662 -0.5816  0.7069 -0.8389
  801MOL0     H10521   4.413   7.202   9.565  1.2333  1.1731  0.4861
  801MOL0     H10522   3.739   6.082   8.115 -1.1379 -1.9521  2.1383
  801MOL0     H10523   3.735   5.991   7.903 -0.8687 -0.2063 -0.2564
  801MOL0     H10524   3.917   5.569   7.789 -3.6421  0.4400  1.4846
  801MOL0     H10525   3.874   5.341   7.681  2.9999  1.6260  2.9564
  801MOL0     H10526   3.835   5.353   7.251  1.0856 -0.5619 -0.4261
  801MOL0     H10527   3.793   5.189   7.268 -1.3110  1.1723 -4.7481
  801MOL0     H10528   3.642   5.404   7.191  3.0934  0.0888 -0.6756
  801MOL0     H10529   3.564   5.350   7.341 -1.2336 -0.9725 -1.6023
  801MOL0     H10530   3.618   5.163   7.101  0.2364  1.6389 -0.8490
  801MOL0     H10531   3.535   5.131   7.258 -0.3753  0.6336  0.6547
  801MOL0     H10532   3.449   5.326   7.030 -1.0492  0.3131 -0.6764
  801MOL0     H10533   3.362   5.309   7.187  0.9646  2.5419 -1.0942
  801MOL0     H10534   3.237   4.971   6.955 -0.4800  0.2828 -1.1124
  801MOL0     H10535   3.739   5.539   7.325 -0.0852 -0.3522  0.6476
  801MOL0     H10536   3.810   5.818   7.390 -0.7666  0.9298  0.9865
  801MOL0     H10537   3.664   5.741   7.325  0.4258 -0.5564 -0.0443
  801MOL0     H10538   3.642   5.848   7.464 -0.7990 -0.8703  0.8085
  802MOL0     O10539   1.445   2.537   3.356 -0.3584 -0.0890 -0.3912
  802MOL0     C10540   1.513   2.536   3.252 -0.6121 -0.3807  0.6331
  802MOL0     O10541   1.457   2.555   3.126 -0.2310  0.5065 -0.2885
  802MOL0     C10542   1.339   2.615   3.121  0.3880 -0.2163  0.6296
  802MOL0     C10543   1.331   2.753   3.138  0.1579  0.7843 -0.2714
  802MOL0     C10544   1.208   2.819   3.144  0.1261  0.3693  0.4241
  802MOL0     C10545   1.090   2.744   3.104 -0.1275  0.9616 -0.7905
  802MOL0     O10546   0.963   2.796   3.109 -0.2525  0.2742 -0.7387
  802MOL0     C10547   0.940   2.924   3.173  0.2671 -0.4044 -0.1653
  802MOL0     C10548   0.791   2.953   3.180  0.0866 -0.2839 -0.0114
  802MOL0     C10549   0.712   2.876   3.285  0.3526  0.6042  0.7291
  802MOL0     C10550   0.565   2.893   3.293 -0.0711 -0.1187 -0.6393
  802MOL0     C10551   0.515   2.820   3.426  0.1038  0.3418  0.7476
  802MOL0     C10552   0.570   2.676   3.442  0.2275  0.5056 -0.4183
  802MOL0     C10553   0.535   2.590   3.326  0.3855 -0.8936 -0.2231
  802MOL0     C10554   0.544   2.440   3.362 -0.7144  0.6080  0.8318
  802MOL0     N10555   0.690   2.407   3.392  0.0707 -0.6663  0.1247
  802MOL0     C10556   0.812   2.431   3.326  0.6225 -0.2223  0.3683
  802MOL0     C10557   0.904   2.426   3.423  0.0599  0.5775  0.1131
  802MOL0     C10558   1.044   2.438   3.384 -0.7247 -0.7191 -0.2227
  802MOL0     C10559   1.106   2.315   3.317 -0.6034 -0.8382 -0.2773
  802MOL0     C10560   1.108   2.203   3.417 -0.3202 -1.0153  0.6185
  802MOL0     C10561   1.212   2.230   3.527 -0.2724 -0.5216  0.7864
  802MOL0     O10562   1.296   2.124   3.565 -0.0557 -0.2468 -0.7492
  802MOL0     C10563   1.425   2.118   3.504  0.2050 -0.2625  0.0325
  802MOL0     C10564   1.465   2.129   3.371 -0.0107 -0.1619  0.1844
  802MOL0     C10565   1.599   2.121   3.330  0.1153 -0.3421  0.9988
  802MOL0     C10566   1.626   2.138   3.180  0.2735 -0.2193  1.1190
  802MOL0     C10567   1.701   2.091   3.424  0.0900 -0.4100  0.8897
  802MOL0     C10568   1.837   2.077   3.394  0.0866  0.1355  0.2908
  802MOL0     O10569   1.877   2.077   3.264 -0.6615  0.0906  0.4228
  802MOL0     C10570   2.006   2.055   3.225 -0.3356  0.1953 -0.7598
  802MOL0     C10571   2.036   1.974   3.114  0.4356 -0.2170 -0.2228
  802MOL0     C10572   2.168   1.937   3.078  0.1662  0.4362  0.8694
  802MOL0     C10573   2.274   1.992   3.148 -0.3005 -0.1990  0.3084
  802MOL0     O10574   2.410   1.983   3.112 -0.5445  0.2234 -0.0253
  802MOL0     C10575   2.453   1.962   2.976  0.3065  0.2677 -0.9297
  802MOL0     C10576   2.606   1.983   2.971 -0.6551  0.2530  0.3026
  802MOL0     C10577   2.646   2.124   3.012  0.4679 -0.1962 -0.2951
  802MOL0     C10578   2.796   2.132   3.023  0.8704 -0.7843 -0.6962
  802MOL0     C10579   2.847   2.265   3.070  0.1904  0.4751  0.9062
  802MOL0     C10580   3.002   2.272   3.060  0.8052  0.0842  0.2976
  802MOL0     C10581   3.061   2.409   3.043  0.1860 -0.3749  0.2027
  802MOL0     C10582   3.052   2.499   3.172 -0.1046  0.8287  0.4022
  802MOL0    Cl10583   3.127   2.656   3.129 -0.2440  0.0266 -0.4118
  802MOL0     C10584   2.250   2.075   3.263  1.1877 -0.3094  0.2284
  802MOL0     C10585   2.113   2.105   3.303 -0.2015 -0.7497  0.6191
  802MOL0     O10586   1.911   2.078   3.491  1.2972  0.1341 -0.6227
  802MOL0     C10587   1.656   2.078   3.559  0.4247 -0.0114  0.0409
  802MOL0     C10588   1.523   2.084   3.597 -0.0896  0.0310 -0.4352
  802MOL0     N10589   0.844   2.402   3.547 -0.0396  0.6611  0.3795
  802MOL0     N10590   0.718   2.383   3.524 -0.0639  0.1452 -0.0701
  802MOL0     C10591   1.104   2.608   3.070  0.1493 -0.0441  0.0358
  802MOL0     C10592   1.224   2.541   3.089 -0.9153  0.0175  0.3603
  802MOL0     C10593   1.656   2.503   3.257  0.5054 -0.3096  0.9744
  802MOL0     C10594   1.724   2.519   3.138  0.2570  0.7126 -1.0923
  802MOL0     C10595   1.866   2.514   3.125  0.9966 -0.2986  0.6783
  802MOL0     C10596   1.939   2.475   3.236 -0.1556  0.3116  0.1845
  802MOL0     O10597   2.076   2.468   3.236  0.1336  0.3916  0.7136
  802MOL0     C10598   2.135   2.437   3.105  0.4024 -0.0288 -0.0206
  802MOL0     C10599   2.287   2.427   3.102  0.3290  0.1694 -0.2351
  802MOL0     C10600   2.368   2.527   3.194  0.3421  0.1504  0.7004
  802MOL0     C10601   2.517   2.502   3.200 -0.6943 -0.8247  0.7780
  802MOL0     C10602   2.587   2.577   3.311 -0.7484 -0.1960  0.4905
  802MOL0     C10603   2.665   2.626   3.382 -0.3455 -0.4302 -0.6969
  802MOL0     C10604   1.878   2.443   3.359  0.5072 -0.6556  0.0781
  802MOL0     C10605   1.736   2.459   3.368 -0.5558 -0.5366 -0.0198
  802MOL0     C10606   1.690   2.416   3.503  0.3481 -0.0391 -0.9107
  802MOL0     H10607   1.419   2.816   3.151  0.5294  0.0920  0.6161
  802MOL0     H10608   1.199   2.918   3.188 -2.4418  0.6548 -0.5568
  802MOL0     H10609   0.999   3.003   3.125  0.8934 -2.4761 -3.1400
  802MOL0     H10610   0.973   2.907   3.275 -1.4534 -1.9297  0.1737
  802MOL0     H10611   0.776   3.055   3.217  3.4150 -0.2931  1.7541
  802MOL0     H10612   0.736   2.950   3.085  1.3748 -2.9129 -0.7613
  802MOL0     H10613   0.729   2.774   3.249 -0.4541  1.3251 -1.9151
  802MOL0     H10614   0.757   2.899   3.382  1.6868  2.6946 -0.3102
  802MOL0     H10615   0.525   2.994   3.305 -0.7865 -0.3409 -1.0394
  802MOL0     H10616   0.521   2.844   3.205 -0.0990 -2.3205  0.5379
  802MOL0     H10617   0.408   2.805   3.409  0.3072 -0.1997 -0.1328
  802MOL0     H10618   0.540   2.883   3.511  3.3726  1.7082 -1.0469
  802MOL0     H10619   0.679   2.674   3.452  0.0879 -0.5141  1.0410
  802MOL0     H10620   0.531   2.639   3.537  1.7220 -0.8692 -0.3085
  802MOL0     H10621   0.598   2.614   3.240 -1.5532  0.9022 -1.2287
  802MOL0     H10622   0.430   2.608   3.303  0.4081  3.4109  2.0416
  802MOL0     H10623   0.482   2.412   3.448  0.8041  0.4827  1.9282
  802MOL0     H10624   0.512   2.373   3.282  2.7153  0.1160 -0.2815
  802MOL0     H10625   0.831   2.462   3.223  0.6206 -0.2580  0.3570
  802MOL0     H10626   1.089   2.471   3.478  2.0274 -1.4355 -1.2148
  802MOL0     H10627   1.041   2.522   3.313 -2.5388 -2.1380 -1.9380
  802MOL0     H10628   1.033   2.283   3.241 -1.4006  0.5580 -0.1488
  802MOL0     H10629   1.204   2.345   3.278  0.7375 -2.2449  1.8404
  802MOL0     H10630   1.005   2.207   3.455 -0.4428 -3.0203  0.6082
  802MOL0     H10631   1.123   2.112   3.358 -3.2440 -1.1422 -0.0954
  802MOL0     H10632   1.280   2.301   3.478  1.3558 -3.9227 -2.4015
  802MOL0     H10633   1.167   2.271   3.618 -2.1976  0.4162 -0.5121
  802MOL0     H10634   1.393   2.158   3.295  1.2017  2.1240 -0.1916
  802MOL0     H10635   1.537   2.161   3.120  1.3084 -1.3366 -0.9630
  802MOL0     H10636   1.680   2.049   3.147 -1.5342 -0.8811 -0.2281
  802MOL0     H10637   1.694   2.221   3.157  1.8128 -1.2953  1.6880
  802MOL0     H10638   1.950   1.926   3.068 -0.9211  0.0812  1.8570
  802MOL0     H10639   2.181   1.865   2.998 -2.9240  1.5285 -0.7778
  802MOL0     H10640   2.422   1.865   2.935 -0.3454  0.5123 -1.0402
  802MOL0     H10641   2.406   2.039   2.913 -1.5822  1.1985  1.4538
  802MOL0     H10642   2.663   1.914   3.035  0.6505 -0.4718 -1.5590
  802MOL0     H10643   2.641   1.963   2.870 -2.7384  0.2590 -0.4606
  802MOL0     H10644   2.611   2.132   3.115 -0.4326 -1.5979 -0.4701
  802MOL0     H10645   2.602   2.203   2.950 -0.3738  0.6722  1.3508
  802MOL0     H10646   2.833   2.109   2.923 -1.6300  0.0435 -1.8945
  802MOL0     H10647   2.836   2.046   3.077 -1.7939 -2.8131 -1.7154
  802MOL0     H10648   2.797   2.340   3.008  1.5161  0.1483 -0.6340
  802MOL0     H10649   2.814   2.274   3.174  3.8762  1.2290  2.1513
  802MOL0     H10650   3.036   2.215   2.972  1.1354  1.6870 -0.6521
  802MOL0     H10651   3.051   2.215   3.139  0.5869 -1.0533 -0.3524
  802MOL0     H10652   3.018   2.472   2.965  0.3337  1.3778  1.4663
  802MOL0     H10653   3.167   2.401   3.017 -0.1244  2.9064 -3.0859
  802MOL0     H10654   3.091   2.469   3.270 -1.2897  0.2128  0.7048
  802MOL0     H10655   2.946   2.507   3.198  0.0219 -1.2824  1.7578
  802MOL0     H10656   2.322   2.116   3.333  2.2527 -2.3186  0.3722
  802MOL0     H10657   2.088   2.172   3.385  1.5453 -3.0051  3.1876
  802MOL0     H10658   1.732   2.047   3.630  2.5286 -1.7460 -2.7277
  802MOL0     H10659   1.497   2.066   3.701 -0.0287 -0.0541 -0.4339
  802MOL0     H10660   1.014   2.562   3.032 -1.8840  1.6657  2.4379
  802MOL0     H10661   1.238   2.437   3.060 -0.6807 -0.4692  2.0764
  802MOL0     H10662   1.680   2.561   3.049  0.8039  0.8658 -1.2903
  802MOL0     H10663   1.908   2.532   3.027  0.3168  2.9616  0.8823
  802MOL0     H10664   2.092   2.350   3.054 -0.1982  1.4192 -2.1115
  802MOL0     H10665   2.113   2.530   3.052 -2.0944  0.1363  1.1745
  802MOL0     H10666   2.318   2.438   2.997  0.3125 -1.0709 -0.3962
  802MOL0     H10667   2.318   2.327   3.133  3.2516  1.0104 -0.1919
  802MOL0     H10668   2.348   2.627   3.153 -1.0161 -1.0307 -1.6978
  802MOL0     H10669   2.329   2.517   3.296  0.3719  0.2790  0.7254
  802MOL0     H10670   2.565   2.534   3.106 -0.3513 -1.2618  0.7981
  802MOL0     H10671   2.531   2.394   3.212 -0.2974 -0.6407  2.0931
  802MOL0     H10672   2.730   2.679   3.449 -1.7206  0.2022  0.1774
  802MOL0     H10673   1.942   2.418   3.442  1.4137 -1.4053 -0.8215
  802MOL0     H10674   1.678   2.501   3.571  2.1355 -0.5749  0.1431
  802MOL0     H10675   1.599   2.356   3.490 -0.7201  1.6364 -1.4895
  802MOL0     H10676   1.768   2.351   3.544 -0.9410 -0.7828  0.4665
  803MOL0     O10677   1.280   5.501   6.219 -0.6557  0.2166  1.3477
  803MOL0     C10678   1.238   5.482   6.108  0.8556 -0.3977 -0.0321
  803MOL0     O10679   1.300   5.522   5.994 -0.3078 -0.2175 -0.0818
  803MOL0     C10680   1.407   5.599   6.013  0.1189  0.7653  0.2188
  803MOL0     C10681   1.406   5.739   5.983  0.4389  0.4523 -0.6136
  803MOL0     C10682   1.509   5.824   6.015 -0.4398  0.1869  0.1932
  803MOL0     C10683   1.629   5.768   6.058  0.0282 -0.5720 -1.1697
  803MOL0     O10684   1.732   5.862   6.084 -0.2588 -0.3101  0.0458
  803MOL0     C10685   1.865   5.836   6.032  0.1792 -0.4620 -1.1335
  803MOL0     C10686   1.893   5.941   5.935  0.2913  0.3154 -0.0349
  803MOL0     C10687   2.035   5.909   5.880 -0.1577 -0.2940  0.1645
  803MOL0     C10688   2.069   5.986   5.751  0.9034 -0.0991  0.4407
  803MOL0     C10689   2.209   5.950   5.697 -0.9296  1.1318 -0.6514
  803MOL0     C10690   2.254   6.055   5.602 -0.3396 -0.4308  0.0883
  803MOL0     C10691   2.413   6.042   5.555 -0.6835 -0.8095 -0.0288
  803MOL0     C10692   2.461   6.175   5.492  0.5933 -0.4991  0.3788
  803MOL0     N10693   2.457   6.285   5.582 -0.6893 -0.8446 -0.3172
  803MOL0     C10694   2.383   6.405   5.564  0.7170 -0.1918  0.1620
  803MOL0     C10695   2.398   6.467   5.689 -1.0131  0.0121  0.7918
  803MOL0     C10696   2.352   6.611   5.715 -0.4837  0.2413  0.0610
  803MOL0     C10697   2.199   6.621   5.716 -0.1500 -0.0173  0.0662
  803MOL0     C10698   2.147   6.713   5.818 -0.0568  0.1408  0.4841
  803MOL0     C10699   2.197   6.859   5.790  0.1857 -0.1551 -0.3080
  803MOL0     O10700   2.194   6.887   5.649  0.7047  0.6037  0.5045
  803MOL0     C10701   2.267   6.992   5.604 -0.0746 -0.1366  0.2136
  803MOL0     C10702   2.297   6.994   5.466  0.2112  0.2398 -1.0426
  803MOL0     C10703   2.364   7.101   5.399  0.0221  0.3578 -0.1307
  803MOL0     C10704   2.398   7.082   5.255 -0.3707 -0.1567  0.0896
  803MOL0     C10705   2.395   7.211   5.469  0.3174 -0.5367 -0.1383
  803MOL0     C10706   2.467   7.329   5.419  0.0732  0.0286  0.9267
  803MOL0     O10707   2.437   7.442   5.477  0.0582  0.0285 -0.2406
  803MOL0     C10708   2.464   7.568   5.421 -0.5934 -0.4013  0.0770
  803MOL0     C10709   2.538   7.597   5.303  0.0657 -0.3093  0.6417
  803MOL0     C10710   2.548   7.728   5.262 -0.2464 -0.4425  0.0519
  803MOL0     C10711   2.484   7.835   5.334  0.8186  0.1888  0.2112
  803MOL0     O10712   2.492   7.961   5.292  0.2041  0.4271  0.1441
  803MOL0     C10713   2.397   8.055   5.337  0.5763  0.4126 -0.1779
  803MOL0     C10714   2.420   8.179   5.253  0.1821  0.4068 -0.0031
  803MOL0     C10715   2.352   8.310   5.286 -0.0192 -0.3311  1.1368
  803MOL0     C10716   2.205   8.288   5.259 -0.3070 -0.0715 -0.2249
  803MOL0     C10717   2.134   8.420   5.215  0.4022 -0.1747 -0.3348
  803MOL0     C10718   1.980   8.401   5.221 -0.5379 -0.7740  0.1036
  803MOL0     C10719   1.934   8.393   5.362 -0.0643  1.0390 -0.6415
  803MOL0     C10720   1.800   8.325   5.378 -0.0227  0.6300  0.0456
  803MOL0    Cl10721   1.822   8.147   5.349 -0.4732 -0.2003 -0.0794
  803MOL0     C10722   2.425   7.802   5.461 -0.6402 -0.4641  0.4938
  803MOL0     C10723   2.415   7.671   5.502  0.3643  0.2859  0.2463
  803MOL0     O10724   2.544   7.319   5.321  0.2050 -0.7560  0.8692
  803MOL0     C10725   2.360   7.216   5.603  0.7770 -0.1678 -0.5300
  803MOL0     C10726   2.290   7.113   5.666 -0.4897 -0.9820 -1.0882
  803MOL0     N10727   2.481   6.383   5.765  0.5252 -1.0284 -0.6453
  803MOL0     N10728   2.503   6.273   5.707 -0.4531 -0.4425  0.4381
  803MOL0     C10729   1.646   5.627   6.071  1.2280  0.1995  0.7975
  803MOL0     C10730   1.528   5.550   6.061  0.2642  0.1944 -0.3827
  803MOL0     C10731   1.103   5.420   6.085 -0.7429 -0.2026  0.3220
  803MOL0     C10732   1.066   5.387   5.953  0.2639  0.2656  0.5556
  803MOL0     C10733   0.951   5.322   5.925  0.8147  0.2748  0.2380
  803MOL0     C10734   0.848   5.313   6.028  0.1561 -0.6827  0.9069
  803MOL0     O10735   0.723   5.277   6.007  0.4969  0.1150  0.6165
  803MOL0     C10736   0.679   5.236   5.875 -0.1442  0.3465 -0.1030
  803MOL0     C10737   0.537   5.192   5.892 -0.3446 -0.0633  0.1107
  803MOL0     C10738   0.526   5.074   5.989 -0.0942  0.2914  0.6125
  803MOL0     C10739   0.428   4.958   5.948 -0.4179  0.1672 -0.1571
  803MOL0     C10740   0.300   5.003   5.891 -0.2819 -0.7479  0.3552
  803MOL0     C10741   0.189   5.024   5.841 -0.2649 -0.4311 -0.4751
  803MOL0     C10742   0.880   5.357   6.159 -0.0802  0.1928 -0.5852
  803MOL0     C10743   1.013   5.397   6.189  0.3159  0.4109 -0.6407
  803MOL0     C10744   1.029   5.410   6.332 -0.4958  0.4748 -1.3113
  803MOL0     H10745   1.307   5.765   5.947 -1.0613  0.1301  2.9476
  803MOL0     H10746   1.501   5.932   6.006  1.0638  0.4891  1.9071
  803MOL0     H10747   1.874   5.736   5.988  0.7828 -0.6898 -0.4986
  803MOL0     H10748   1.940   5.852   6.110  0.4961 -1.0993 -1.2998
  803MOL0     H10749   1.825   5.936   5.850 -0.8912 -0.1182  0.9117
  803MOL0     H10750   1.880   6.046   5.963 -0.3523  0.1131  0.4416
  803MOL0     H10751   2.110   5.930   5.957 -0.1334  2.7007 -0.5503
  803MOL0     H10752   2.037   5.801   5.858 -1.3502 -0.4623  0.8325
  803MOL0     H10753   1.994   5.971   5.672 -0.5861  2.0177  1.3268
  803MOL0     H10754   2.078   6.092   5.777  1.4332 -0.1162  0.3188
  803MOL0     H10755   2.203   5.857   5.639 -1.6439  1.8307 -1.7342
  803MOL0     H10756   2.280   5.937   5.779  1.2290 -2.9932 -2.8538
  803MOL0     H10757   2.184   6.040   5.519  0.3683 -2.4568 -0.1832
  803MOL0     H10758   2.244   6.151   5.654  0.2497 -0.7848  0.8645
  803MOL0     H10759   2.418   5.960   5.483 -2.2898 -3.8646  3.0354
  803MOL0     H10760   2.477   6.026   5.643  0.3044  1.6669 -0.1924
  803MOL0     H10761   2.564   6.156   5.461  0.3406 -0.4975 -0.5120
  803MOL0     H10762   2.393   6.194   5.408 -1.4850 -0.7692  1.9243
  803MOL0     H10763   2.334   6.446   5.477 -0.1196  2.4002  1.7363
  803MOL0     H10764   2.396   6.686   5.649  1.1652  1.1636  2.0772
  803MOL0     H10765   2.378   6.644   5.816 -3.5026  0.6887  0.7731
  803MOL0     H10766   2.166   6.665   5.621 -3.2194  0.9136  1.4513
  803MOL0     H10767   2.153   6.522   5.723  2.3536 -1.5227 -2.6655
  803MOL0     H10768   2.038   6.706   5.830 -0.0075  1.2273  1.8023
  803MOL0     H10769   2.198   6.683   5.910  3.4816 -2.0128 -1.9506
  803MOL0     H10770   2.131   6.931   5.839 -0.4412 -0.4639 -0.6961
  803MOL0     H10771   2.296   6.866   5.836 -0.0308 -1.4411  0.3954
  803MOL0     H10772   2.259   6.916   5.402 -0.0728  1.5495 -2.5309
  803MOL0     H10773   2.332   7.010   5.207 -0.4896 -0.7065  1.0474
  803MOL0     H10774   2.501   7.046   5.244 -0.4152  0.0590 -1.0613
  803MOL0     H10775   2.388   7.178   5.203  1.3262 -1.3530 -2.6296
  803MOL0     H10776   2.583   7.522   5.240 -0.3510 -1.5701  1.7943
  803MOL0     H10777   2.602   7.743   5.169  0.7090 -1.6023  0.3947
  803MOL0     H10778   2.293   8.031   5.314 -0.9059  3.1223  3.0429
  803MOL0     H10779   2.393   8.076   5.444  0.1950  0.9424 -0.2949
  803MOL0     H10780   2.523   8.211   5.271 -0.4414  1.6429  1.5067
  803MOL0     H10781   2.394   8.163   5.148 -0.1107  0.6659  0.0313
  803MOL0     H10782   2.394   8.389   5.224 -3.5730 -1.2887 -3.0131
  803MOL0     H10783   2.368   8.345   5.388  1.3133 -1.2820  1.2810
  803MOL0     H10784   2.157   8.240   5.345  0.5896 -0.6581 -0.0349
  803MOL0     H10785   2.194   8.227   5.169  3.8665  1.4118 -1.9844
  803MOL0     H10786   2.160   8.508   5.275  0.9198  1.0071 -2.1967
  803MOL0     H10787   2.154   8.458   5.114 -2.7840  1.5504 -0.4407
  803MOL0     H10788   1.957   8.303   5.176 -1.4020  0.9311 -3.5646
  803MOL0     H10789   1.922   8.480   5.172  0.7266  0.6657  0.8764
  803MOL0     H10790   1.930   8.498   5.392 -0.6678  0.2608  2.3180
  803MOL0     H10791   1.997   8.327   5.422 -0.6665  0.0813 -1.0304
  803MOL0     H10792   1.727   8.378   5.316 -1.5241 -0.3296  0.9362
  803MOL0     H10793   1.778   8.341   5.484 -0.1589 -0.3365  0.1689
  803MOL0     H10794   2.400   7.873   5.540 -1.5574  0.2591 -0.4034
  803MOL0     H10795   2.366   7.640   5.594 -1.5655  3.0032  0.2636
  803MOL0     H10796   2.386   7.298   5.668  1.8493  0.7740 -2.0854
  803MOL0     H10797   2.259   7.125   5.770  4.2433 -2.1958  0.7643
  803MOL0     H10798   1.743   5.588   6.100  2.9827  1.2457 -3.0518
  803MOL0     H10799   1.541   5.445   6.084  0.6210  0.5413  1.1451
  803MOL0     H10800   1.134   5.405   5.871 -1.9206 -3.4113 -2.3557
  803MOL0     H10801   0.949   5.286   5.823 -0.3133  4.3249 -1.3658
  803MOL0     H10802   0.684   5.321   5.806  1.2660 -0.5789 -1.2089
  803MOL0     H10803   0.741   5.158   5.829  1.0555  1.1316  0.1332
  803MOL0     H10804   0.511   5.147   5.795  1.9556 -2.6608  0.5760
  803MOL0     H10805   0.472   5.271   5.931 -0.4517  0.0750 -0.3345
  803MOL0     H10806   0.623   5.025   5.991  0.3102  0.9092 -1.6425
  803MOL0     H10807   0.505   5.123   6.085 -2.5451 -1.8662  1.2727
  803MOL0     H10808   0.406   4.915   6.047  2.9509  0.4197  0.8287
  803MOL0     H10809   0.471   4.889   5.875 -2.0814  0.6923 -1.6972
  803MOL0     H10810   0.100   5.049   5.787 -1.5730 -2.1618  0.7363
  803MOL0     H10811   0.812   5.350   6.242 -1.1848  0.8250 -1.4146
  803MOL0     H10812   1.092   5.496   6.359 -1.3118  0.7992 -0.3605
  803MOL0     H10813   0.939   5.426   6.392  0.3845 -1.8657  0.7919
  803MOL0     H10814   1.077   5.318   6.366 -1.8748  0.0031 -0.5465
  804MOL0     O10815   9.634   0.670   0.345  0.8752 -0.1163  0.1777
  804MOL0     C10816   9.611   0.661   0.226 -0.7232  0.7087  0.4297
  804MOL0     O10817   9.689   0.582   0.130  1.0515 -0.0329  0.0247
  804MOL0     C10818   9.789   0.510   0.187 -0.1752 -0.6959 -0.1384
  804MOL0     C10819   9.919   0.575   0.192  1.1602 -0.3956 -0.0071
  804MOL0     C10820  10.022   0.508   0.265 -0.0411  0.2810 -0.4203
  804MOL0     C10821  10.005   0.376   0.315  0.5786  0.2178  0.8015
  804MOL0     O10822  10.113   0.305   0.365  0.0014  0.5837 -0.4926
  804MOL0     C10823  10.246   0.342   0.332  0.3735 -1.4300  0.8414
  804MOL0     C10824  10.347   0.241   0.381 -0.4922  0.6230 -0.5142
  804MOL0     C10825  10.422   0.297   0.496 -0.0720  0.2408 -0.0658
  804MOL0     C10826  10.528   0.201   0.556 -0.0377 -0.0430  0.7831
  804MOL0     C10827  10.620   0.269   0.663  0.2733 -0.2559  0.0572
  804MOL0     C10828  10.712   0.362   0.591 -0.0910 -0.7173 -0.2763
  804MOL0     C10829  10.843   0.383   0.670 -0.3398  0.7510 -1.0137
  804MOL0     C10830  10.927   0.495   0.618 -0.3892 -0.1244  0.3955
  804MOL0     N10831  11.057   0.518   0.690 -0.2838 -0.0152  0.4564
  804MOL0     C10832  11.156   0.418   0.704  0.1672 -1.1068 -0.2427
  804MOL0     C10833  11.260   0.481   0.769  0.2099  0.0242 -0.6733
  804MOL0     C10834  11.389   0.416   0.809  0.0906 -0.3127  0.5715
  804MOL0     C10835  11.438   0.481   0.942 -0.2603 -0.5134  0.4490
  804MOL0     C10836  11.552   0.406   1.004 -0.1416  0.5019 -0.5652
  804MOL0     C10837  11.599   0.471   1.141  0.4389  0.4631  0.4548
  804MOL0     O10838  11.675   0.599   1.118  0.4396 -0.1795 -0.3121
  804MOL0     C10839  11.806   0.613   1.086 -0.4481  0.5492 -0.2554
  804MOL0     C10840  11.871   0.737   1.101 -0.1307 -0.5103 -0.8143
  804MOL0     C10841  12.010   0.755   1.075  0.4610  0.0486 -0.7255
  804MOL0     C10842  12.060   0.896   1.104  0.8187  0.3184 -0.8262
  804MOL0     C10843  12.091   0.645   1.034 -0.1962  0.4054 -0.3763
  804MOL0     C10844  12.235   0.657   1.024 -0.4148 -0.0745 -0.8966
  804MOL0     O10845  12.281   0.784   0.992  0.6003  1.1057  0.2676
  804MOL0     C10846  12.405   0.800   0.998  0.4157  0.0646  0.4127
  804MOL0     C10847  12.457   0.905   1.080 -0.7041  0.7462  0.7057
  804MOL0     C10848  12.593   0.950   1.055 -0.7165 -0.5691  0.5438
  804MOL0     C10849  12.675   0.885   0.959  0.1636 -0.7315 -0.0458
  804MOL0     O10850  12.803   0.918   0.951  0.3177  0.1949 -0.4833
  804MOL0     C10851  12.880   0.852   0.850  0.3038 -0.0627 -0.4056
  804MOL0     C10852  13.024   0.911   0.834  0.0296 -0.3963  0.2342
  804MOL0     C10853  13.036   1.066   0.854  1.0623  0.5480 -0.3498
  804MOL0     C10854  13.180   1.104   0.838  0.0876 -0.7523 -0.1014
  804MOL0     C10855  13.182   1.256   0.817 -0.6546  0.5468  0.4094
  804MOL0     C10856  13.319   1.320   0.775  0.9902 -1.8730  0.5556
  804MOL0     C10857  13.308   1.473   0.786  0.2763  0.2044 -0.0958
  804MOL0     C10858  13.440   1.539   0.739 -0.4824 -0.4077 -0.7397
  804MOL0    Cl10859  13.540   1.547   0.880 -0.1304 -0.0088 -0.2550
  804MOL0     C10860  12.623   0.784   0.886 -0.9535  0.0814 -0.7589
  804MOL0     C10861  12.490   0.734   0.905  0.2505  0.0192  0.2897
  804MOL0     O10862  12.302   0.550   1.015 -0.5052 -0.3181 -1.2043
  804MOL0     C10863  12.025   0.526   1.006 -0.3565  0.2282 -0.0135
  804MOL0     C10864  11.888   0.515   1.029 -0.2554  0.5911  0.2979
  804MOL0     N10865  11.220   0.611   0.796 -0.5164  0.0606  0.1324
  804MOL0     N10866  11.105   0.634   0.741  1.3553  1.1484 -0.2839
  804MOL0     C10867   9.876   0.321   0.311  0.3340 -0.0693 -0.2369
  804MOL0     C10868   9.770   0.388   0.263  0.1173 -0.1153  0.3349
  804MOL0     C10869   9.477   0.705   0.174  1.4457  0.8427  0.8261
  804MOL0     C10870   9.414   0.617   0.087  0.6745 -0.2226  0.0165
  804MOL0     C10871   9.278   0.634   0.044 -0.3534 -0.7352 -0.0815
  804MOL0     C10872   9.212   0.758   0.075  0.0576  0.2424  0.4856
  804MOL0     O10873   9.083   0.771   0.030 -0.3614 -1.5939  0.3725
  804MOL0     C10874   9.008   0.903   0.035 -0.1454  0.2202  0.9645
  804MOL0     C10875   8.877   0.900  -0.036 -0.4643 -0.3411  0.4862
  804MOL0     C10876   8.871   0.819  -0.162 -0.2720  0.5874 -0.0927
  804MOL0     C10877   8.995   0.840  -0.251 -0.3900 -0.1785  0.2731
  804MOL0     C10878   8.989   0.975  -0.320 -0.1938 -0.2395 -0.5627
  804MOL0     C10879   9.013   1.074  -0.382 -0.8333 -0.2477  0.1091
  804MOL0     C10880   9.284   0.849   0.151 -0.5835 -0.3995  0.6955
  804MOL0     C10881   9.417   0.833   0.200  0.0791 -0.6463 -0.0994
  804MOL0     C10882   9.487   0.940   0.274  0.4705  0.2584 -0.6857
  804MOL0     H10883   9.929   0.672   0.145  1.3084 -1.3920 -2.1761
  804MOL0     H10884  10.116   0.560   0.281 -0.0384  0.2713 -0.4036
  804MOL0     H10885  10.269   0.438   0.381 -1.1059  0.3323 -1.7311
  804MOL0     H10886  10.245   0.352   0.223  2.5940 -0.7084  0.8377
  804MOL0     H10887  10.298   0.147   0.409  1.1702 -0.7571 -1.9371
  804MOL0     H10888  10.424   0.207   0.311  0.4052  0.3759  0.5665
  804MOL0     H10889  10.453   0.399   0.470 -4.0299  1.3830 -0.8430
  804MOL0     H10890  10.350   0.313   0.577  1.0961 -1.2470  1.3474
  804MOL0     H10891  10.467   0.124   0.604  1.2440 -2.4126 -1.1637
  804MOL0     H10892  10.584   0.157   0.473 -2.8149 -1.7652 -0.3100
  804MOL0     H10893  10.685   0.189   0.700  1.8837 -0.0667 -2.1228
  804MOL0     H10894  10.563   0.324   0.738  3.9695 -1.0589  3.8447
  804MOL0     H10895  10.745   0.311   0.501 -3.2714  0.0741 -2.0480
  804MOL0     H10896  10.663   0.452   0.553 -0.0053 -0.4628  0.2134
  804MOL0     H10897  10.896   0.287   0.674 -2.0915 -0.2207  1.7167
  804MOL0     H10898  10.813   0.400   0.774 -0.6316 -0.4954 -0.8745
  804MOL0     H10899  10.953   0.489   0.512  2.1692  3.2685  0.6411
  804MOL0     H10900  10.872   0.589   0.630 -0.6367 -0.0455 -1.1137
  804MOL0     H10901  11.139   0.315   0.673 -2.7048 -0.4563 -1.1822
  804MOL0     H10902  11.461   0.425   0.728  2.0190 -4.3292  1.5927
  804MOL0     H10903  11.368   0.309   0.819 -1.6595 -0.2592 -1.6815
  804MOL0     H10904  11.474   0.583   0.922  0.0611 -0.3384  1.8569
  804MOL0     H10905  11.349   0.490   1.005 -1.5567  0.0587 -1.3464
  804MOL0     H10906  11.522   0.303   1.024  2.5202  0.1981  2.8350
  804MOL0     H10907  11.632   0.408   0.929  0.4700  0.8117  0.0829
  804MOL0     H10908  11.507   0.484   1.199  1.1487  0.2231  1.6754
  804MOL0     H10909  11.651   0.390   1.192  0.4953 -0.0381 -0.3866
  804MOL0     H10910  11.807   0.819   1.132 -1.3673 -1.1593 -1.5697
  804MOL0     H10911  12.143   0.894   1.174  2.3234 -1.1974 -2.5451
  804MOL0     H10912  11.972   0.954   1.134  1.1955 -0.3177  1.7215
  804MOL0     H10913  12.098   0.950   1.016 -0.8358  1.4316 -0.9179
  804MOL0     H10914  12.392   0.968   1.140  0.1425  2.3516  0.0266
  804MOL0     H10915  12.629   1.044   1.096  3.4659 -0.0501 -3.5392
  804MOL0     H10916  12.910   0.750   0.876 -0.8102 -0.1707  0.5575
  804MOL0     H10917  12.839   0.851   0.749 -0.5554 -4.6325 -0.2067
  804MOL0     H10918  13.093   0.882   0.914 -0.0257 -1.9534 -0.2489
  804MOL0     H10919  13.071   0.890   0.737  0.5504  0.1292  0.3644
  804MOL0     H10920  12.996   1.106   0.947  2.8440  1.5610  0.0313
  804MOL0     H10921  12.980   1.109   0.770  0.0596  1.3045  0.6808
  804MOL0     H10922  13.226   1.051   0.755  1.4595  1.8874 -1.1404
  804MOL0     H10923  13.253   1.084   0.917 -1.7139 -0.8464  1.6189
  804MOL0     H10924  13.108   1.285   0.742  1.2252  0.3782 -1.5875
  804MOL0     H10925  13.151   1.299   0.913 -1.7345  3.1124 -0.9922
  804MOL0     H10926  13.355   1.293   0.675 -1.4080  1.0150 -1.2658
  804MOL0     H10927  13.393   1.287   0.848 -0.4780 -2.8600  1.6586
  804MOL0     H10928  13.291   1.497   0.891  0.5578 -2.9309  0.7785
  804MOL0     H10929  13.222   1.498   0.722 -1.5022 -5.5776 -0.5623
  804MOL0     H10930  13.423   1.642   0.708 -0.7601 -0.0910  0.4091
  804MOL0     H10931  13.489   1.484   0.658  0.8624  1.0563 -0.9645
  804MOL0     H10932  12.679   0.732   0.809 -2.0477 -1.9820 -0.2658
  804MOL0     H10933  12.450   0.654   0.844 -0.0067  0.8481 -0.6459
  804MOL0     H10934  12.084   0.437   0.986  0.3289  0.4583  0.9385
  804MOL0     H10935  11.832   0.423   1.017 -1.5763  1.5437 -1.3169
  804MOL0     H10936   9.878   0.218   0.347  0.0104 -0.1070 -0.3221
  804MOL0     H10937   9.670   0.347   0.264 -0.7418  1.1286  6.7630
  804MOL0     H10938   9.456   0.517   0.083 -1.8824 -1.4619  1.8287
  804MOL0     H10939   9.237   0.551  -0.012  1.3596 -3.8164  2.8366
  804MOL0     H10940   9.010   0.938   0.139  0.1340  1.5893  0.5246
  804MOL0     H10941   9.079   0.964  -0.022  1.1703 -2.3297 -0.3167
  804MOL0     H10942   8.859   1.004  -0.064 -0.1499 -0.9387 -2.2347
  804MOL0     H10943   8.800   0.865   0.034 -1.3955 -0.4385 -0.5493
  804MOL0     H10944   8.858   0.712  -0.146  0.6147  0.3137 -1.1114
  804MOL0     H10945   8.778   0.837  -0.217  1.4182  0.7226 -3.1161
  804MOL0     H10946   9.011   0.757  -0.319  6.0845 -0.2777  1.2868
  804MOL0     H10947   9.091   0.826  -0.201 -1.1229 -0.7542  1.5877
  804MOL0     H10948   9.030   1.169  -0.429 -1.0077  1.0556  2.5502
  804MOL0     H10949   9.233   0.941   0.175 -1.3337 -0.6718  0.1793
  804MOL0     H10950   9.496   0.909   0.378  2.4615  0.9915 -0.6011
  804MOL0     H10951   9.586   0.960   0.232 -0.0532  1.5801 -1.3640
  804MOL0     H10952   9.435   1.035   0.260 -0.1163 -0.2057 -1.7709
  805MOL0     O10953   9.463   1.875   5.968 -0.2983 -0.5534 -0.3983
  805MOL0     C10954   9.414   1.796   5.895  0.8987 -0.0084 -0.4789
  805MOL0     O10955   9.471   1.738   5.790  0.6849  0.0665 -0.4441
  805MOL0     C10956   9.611   1.761   5.765 -0.1870 -0.1476  0.4961
  805MOL0     C10957   9.657   1.800   5.634 -0.6278  0.6552 -0.4875
  805MOL0     C10958   9.793   1.786   5.609 -0.1502 -0.7967 -0.4291
  805MOL0     C10959   9.888   1.747   5.705 -0.1479 -0.4362 -1.1979
  805MOL0     O10960  10.020   1.735   5.665 -0.2230 -0.5534 -0.3625
  805MOL0     C10961  10.120   1.738   5.769 -0.7807  0.5765 -0.2502
  805MOL0     C10962  10.267   1.763   5.717 -0.3119  0.1648  0.3458
  805MOL0     C10963  10.328   1.639   5.650  0.4926 -0.1171 -0.1453
  805MOL0     C10964  10.361   1.533   5.759 -1.1118  0.2964 -0.3555
  805MOL0     C10965  10.423   1.408   5.696 -0.0487 -0.6740 -0.7440
  805MOL0     C10966  10.465   1.302   5.791 -0.3323  0.3860 -1.0362
  805MOL0     C10967  10.590   1.334   5.872 -0.4149  0.9500 -0.1932
  805MOL0     C10968  10.714   1.294   5.793 -0.7868 -0.5074  0.8414
  805MOL0     N10969  10.732   1.152   5.779  0.2918  0.1196  0.2248
  805MOL0     C10970  10.741   1.055   5.876  0.4514  0.1801 -0.3261
  805MOL0     C10971  10.785   0.949   5.804 -0.3440  0.0173 -0.1949
  805MOL0     C10972  10.826   0.812   5.845  0.7277  0.0846 -0.3525
  805MOL0     C10973  10.708   0.721   5.867 -0.2506 -0.5695 -0.0369
  805MOL0     C10974  10.609   0.757   5.982 -0.7648  0.8702 -0.0998
  805MOL0     C10975  10.489   0.647   5.982  0.2253 -0.2699  0.5501
  805MOL0     O10976  10.401   0.683   5.874  0.1820  0.9554 -0.0274
  805MOL0     C10977  10.290   0.605   5.867 -0.3479  0.4623 -0.8555
  805MOL0     C10978  10.282   0.508   5.755  0.2624 -0.5584 -0.2813
  805MOL0     C10979  10.165   0.436   5.738 -0.3830 -0.0950 -0.4573
  805MOL0     C10980  10.158   0.353   5.613  0.1322  0.2699 -0.5788
  805MOL0     C10981  10.070   0.438   5.838  0.5949  0.4801  0.0601
  805MOL0     C10982   9.926   0.380   5.818 -0.4682 -0.2716 -0.1594
  805MOL0     O10983   9.830   0.437   5.901 -1.1170  0.0295  0.1371
  805MOL0     C10984   9.700   0.403   5.874  0.1944  0.4791 -0.1383
  805MOL0     C10985   9.617   0.460   5.781  0.1206  0.6423  0.3308
  805MOL0     C10986   9.490   0.417   5.768  0.5829  0.2728  1.0425
  805MOL0     C10987   9.437   0.319   5.849  0.3041 -0.4370  0.1687
  805MOL0     O10988   9.304   0.283   5.830 -0.3375  0.0646 -0.4685
  805MOL0     C10989   9.255   0.276   5.696  0.2156 -0.5897  0.3639
  805MOL0     C10990   9.163   0.158   5.668 -0.0777 -0.6717 -0.6935
  805MOL0     C10991   9.044   0.161   5.767  0.1710 -0.3491  0.0960
  805MOL0     C10992   8.908   0.183   5.713  0.0507  0.1333 -0.0437
  805MOL0     C10993   8.811   0.172   5.835  0.0093  0.0730  0.4609
  805MOL0     C10994   8.670   0.213   5.789  0.0037 -0.6344  0.1530
  805MOL0     C10995   8.581   0.187   5.905  0.1935 -0.0453 -0.1806
  805MOL0     C10996   8.436   0.227   5.879  0.9152  0.4410  0.1037
  805MOL0    Cl10997   8.337   0.204   6.021 -0.0179  0.0366  0.1165
  805MOL0     C10998   9.504   0.269   5.954  0.6697  0.6541  0.9747
  805MOL0     C10999   9.634   0.315   5.966  0.3737  0.7380  1.3179
  805MOL0     O11000   9.903   0.300   5.728  0.3620 -0.0411  0.2002
  805MOL0     C11001  10.088   0.518   5.958 -0.7645 -0.0200 -1.1195
  805MOL0     C11002  10.200   0.600   5.972 -0.0846  0.5751  0.3757
  805MOL0     N11003  10.800   0.987   5.673 -0.5000  0.3526 -0.0814
  805MOL0     N11004  10.778   1.109   5.663  0.1649  0.5556  0.9915
  805MOL0     C11005   9.844   1.705   5.837  0.5511 -0.8989  0.0589
  805MOL0     C11006   9.708   1.712   5.862 -0.3420  0.3166  1.0659
  805MOL0     C11007   9.275   1.745   5.930  0.2085  0.0051  0.4640
  805MOL0     C11008   9.217   1.648   5.853 -0.5983  0.7814 -0.5973
  805MOL0     C11009   9.094   1.583   5.878  1.0519  0.3006  0.3850
  805MOL0     C11010   9.030   1.611   5.995 -0.0651 -0.2462  0.4762
  805MOL0     O11011   8.906   1.561   6.034 -0.4043  0.1734  0.2257
  805MOL0     C11012   8.904   1.490   6.163  0.3448 -0.3592  0.6797
  805MOL0     C11013   8.761   1.434   6.181 -0.3232  0.3263 -0.2485
  805MOL0     C11014   8.738   1.415   6.330  0.3737  0.5694  0.2008
  805MOL0     C11015   8.620   1.334   6.362 -1.1865 -0.2170  0.0042
  805MOL0     C11016   8.502   1.411   6.334  0.6934 -0.2703 -0.0475
  805MOL0     C11017   8.399   1.467   6.307 -0.5732  0.0069  0.4037
  805MOL0     C11018   9.077   1.711   6.072 -0.3229 -0.0853  0.5517
  805MOL0     C11019   9.206   1.777   6.050 -0.2854  0.2931  0.2129
  805MOL0     C11020   9.241   1.892   6.146  0.0983  0.3962  1.3066
  805MOL0     H11021   9.608   1.826   5.541  0.3957 -1.4550 -1.7049
  805MOL0     H11022   9.839   1.796   5.512  1.6765 -1.6145  0.3015
  805MOL0     H11023  10.118   1.649   5.833 -1.5897  1.4517  0.9829
  805MOL0     H11024  10.097   1.823   5.833  1.4811  0.0819  1.3649
  805MOL0     H11025  10.267   1.839   5.638  1.2692 -1.1775 -1.0325
  805MOL0     H11026  10.331   1.787   5.803 -1.7465 -2.6897  2.3628
  805MOL0     H11027  10.255   1.613   5.573 -2.1104  4.5971  0.3612
  805MOL0     H11028  10.419   1.663   5.595  0.9292  0.3906  0.7720
  805MOL0     H11029  10.440   1.587   5.812 -1.8995  1.5577 -0.4425
  805MOL0     H11030  10.272   1.505   5.817 -2.0093 -0.1746 -1.9164
  805MOL0     H11031  10.505   1.442   5.632  1.8012 -1.9906  0.7986
  805MOL0     H11032  10.354   1.366   5.622  0.3676  1.7480 -2.6377
  805MOL0     H11033  10.377   1.287   5.855  1.9048 -3.1273  1.6245
  805MOL0     H11034  10.473   1.203   5.745 -1.6236  0.8905 -2.4106
  805MOL0     H11035  10.589   1.271   5.962 -1.2943  0.3192 -0.6305
  805MOL0     H11036  10.595   1.439   5.902  1.2887  0.8046  0.1356
  805MOL0     H11037  10.700   1.329   5.690  1.1546 -2.1822 -0.0501
  805MOL0     H11038  10.809   1.334   5.829 -1.1353 -1.7415  3.3167
  805MOL0     H11039  10.720   1.076   5.981 -3.2135  2.9878 -1.3940
  805MOL0     H11040  10.900   0.822   5.926 -1.7985  0.2852  2.0794
  805MOL0     H11041  10.864   0.769   5.752  0.9486  0.7894 -0.5957
  805MOL0     H11042  10.651   0.730   5.774 -0.2033 -3.1738 -0.3842
  805MOL0     H11043  10.749   0.621   5.887  2.8888 -0.0214 -2.8592
  805MOL0     H11044  10.662   0.746   6.076  1.8848  0.1150 -1.5789
  805MOL0     H11045  10.582   0.863   5.973  1.2587  1.4108 -0.2631
  805MOL0     H11046  10.520   0.542   5.971  0.7006 -0.0933  0.1328
  805MOL0     H11047  10.439   0.672   6.076  3.1860  0.0459  2.1625
  805MOL0     H11048  10.363   0.513   5.683 -1.8956 -0.9067 -2.8982
  805MOL0     H11049  10.155   0.249   5.646 -2.2285 -0.5087 -2.8815
  805MOL0     H11050  10.243   0.361   5.545  0.7828 -2.5987 -0.2310
  805MOL0     H11051  10.063   0.358   5.558  1.1572  0.2812 -2.4270
  805MOL0     H11052   9.650   0.534   5.709 -0.1894  0.6581  0.2016
  805MOL0     H11053   9.431   0.459   5.687  0.6369 -0.8464  0.4000
  805MOL0     H11054   9.229   0.375   5.657  0.5346 -0.2834  0.9080
  805MOL0     H11055   9.339   0.253   5.629 -0.4080 -0.4469 -0.4912
  805MOL0     H11056   9.124   0.163   5.566  2.9372 -0.5034 -1.9160
  805MOL0     H11057   9.228   0.071   5.678  0.8403 -0.4566 -3.7568
  805MOL0     H11058   9.060   0.241   5.840  0.7549  0.8988 -1.3453
  805MOL0     H11059   9.039   0.065   5.819 -0.2603 -0.3601  0.0439
  805MOL0     H11060   8.887   0.111   5.633 -3.1541  1.0086 -0.1152
  805MOL0     H11061   8.909   0.284   5.671  4.3833  0.2114 -0.2345
  805MOL0     H11062   8.812   0.069   5.872 -0.6797  0.4566  1.5820
  805MOL0     H11063   8.847   0.237   5.915  1.5930 -1.9690  1.5034
  805MOL0     H11064   8.628   0.151   5.709 -2.7597  0.9433  0.2791
  805MOL0     H11065   8.679   0.317   5.757 -1.9513 -0.2786  0.6138
  805MOL0     H11066   8.621   0.248   5.987 -2.6357  0.6534  0.8348
  805MOL0     H11067   8.582   0.083   5.938  2.4586  0.1927  0.6417
  805MOL0     H11068   8.392   0.163   5.802  0.5793  1.6670 -0.7397
  805MOL0     H11069   8.427   0.331   5.847  2.8570 -0.1670 -2.7821
  805MOL0     H11070   9.464   0.194   6.021  1.7990 -1.0509 -0.1856
  805MOL0     H11071   9.686   0.274   6.052  0.8243 -1.9925 -0.1294
  805MOL0     H11072  10.020   0.516   6.042  1.8594 -0.3946  1.1480
  805MOL0     H11073  10.203   0.657   6.065 -3.6660  0.0607  0.9877
  805MOL0     H11074   9.923   1.671   5.903  2.4102  1.2266 -0.9312
  805MOL0     H11075   9.671   1.662   5.951  0.0658 -1.4169  0.3257
  805MOL0     H11076   9.256   1.614   5.758  2.5848  2.7035 -0.1277
  805MOL0     H11077   9.057   1.503   5.814  0.0061  0.6773  0.4945
  805MOL0     H11078   8.982   1.412   6.162  1.5221  0.7462 -1.2412
  805MOL0     H11079   8.929   1.560   6.243 -1.3491 -1.1786  1.9843
  805MOL0     H11080   8.756   1.337   6.131 -0.1192 -1.2225  2.4844
  805MOL0     H11081   8.693   1.507   6.137  1.2969  2.4977  0.6210
  805MOL0     H11082   8.813   1.353   6.381  0.1812  0.6405  0.5799
  805MOL0     H11083   8.725   1.515   6.373 -1.5507  0.5774 -0.3343
  805MOL0     H11084   8.623   1.298   6.466  2.7459 -3.3303 -0.9531
  805MOL0     H11085   8.623   1.240   6.307 -1.4664  1.0499 -2.3170
  805MOL0     H11086   8.312   1.518   6.272  0.4737  0.5431 -1.5561
  805MOL0     H11087   9.028   1.738   6.165 -0.7663 -0.7003  0.5027
  805MOL0     H11088   9.184   1.881   6.239 -0.2066  4.0460  1.7048
  805MOL0     H11089   9.346   1.889   6.176  0.8886  2.0393 -0.9368
  805MOL0     H11090   9.228   1.991   6.100  1.0303  0.5948  1.4592
  806MOL0     O11091   8.982   8.623   4.355 -0.0388 -1.4855 -0.3048
  806MOL0     C11092   8.958   8.504   4.360  0.8474  0.2528 -0.0330
  806MOL0     O11093   9.052   8.419   4.419 -0.2360  1.0094 -0.4462
  806MOL0     C11094   9.151   8.457   4.511  0.4102  0.2903 -0.9222
  806MOL0     C11095   9.227   8.351   4.570  0.0579  0.1312 -0.2487
  806MOL0     C11096   9.318   8.377   4.667 -0.3937 -0.0837 -0.3052
  806MOL0     C11097   9.339   8.500   4.721 -0.7659  1.3222  0.7148
  806MOL0     O11098   9.439   8.517   4.810  0.3244  0.0718 -0.0117
  806MOL0     C11099   9.510   8.645   4.823 -0.5730  0.6851 -0.8272
  806MOL0     C11100   9.627   8.622   4.925  1.0226  0.3653 -0.8414
  806MOL0     C11101   9.712   8.745   4.962  0.2941 -0.3638  0.1865
  806MOL0     C11102   9.784   8.710   5.096 -0.6411 -0.1842  1.2069
  806MOL0     C11103   9.900   8.818   5.130  0.1985  0.4578 -0.1149
  806MOL0     C11104   9.981   8.807   5.255 -0.3722  0.9850  0.2819
  806MOL0     C11105  10.101   8.899   5.257 -0.0097 -0.0869 -1.0558
  806MOL0     C11106  10.212   8.832   5.343  0.9158 -0.2456 -0.6053
  806MOL0     N11107  10.165   8.806   5.487  0.1411  0.0854 -0.4753
  806MOL0     C11108  10.240   8.741   5.579 -0.2458  0.5296 -0.0234
  806MOL0     C11109  10.181   8.767   5.707 -0.7424 -0.2209 -0.5226
  806MOL0     C11110  10.249   8.730   5.841  0.6969 -0.2627  0.1784
  806MOL0     C11111  10.172   8.619   5.917 -0.6775  0.3202  0.0275
  806MOL0     C11112  10.256   8.539   6.000 -0.6218  0.0384  0.1112
  806MOL0     C11113  10.192   8.406   6.043 -0.8746  0.3170  0.4569
  806MOL0     O11114  10.257   8.297   5.978 -0.5864  0.3399 -0.4028
  806MOL0     C11115  10.365   8.236   6.047 -0.7678  0.1885  0.4283
  806MOL0     C11116  10.406   8.110   6.018 -0.0918 -0.3236  0.3564
  806MOL0     C11117  10.512   8.051   6.083 -0.2232 -0.1967 -0.0267
  806MOL0     C11118  10.547   7.905   6.040 -0.3906  0.9661 -0.1284
  806MOL0     C11119  10.596   8.125   6.163 -0.6672 -0.7651  0.2269
  806MOL0     C11120  10.721   8.081   6.214 -0.6387  0.0123 -1.3796
  806MOL0     O11121  10.831   8.162   6.225  0.4205  0.0459 -0.0497
  806MOL0     C11122  10.943   8.144   6.298 -0.3381  0.2672 -0.3108
  806MOL0     C11123  11.058   8.194   6.250 -0.3485  0.9097  0.0867
  806MOL0     C11124  11.182   8.184   6.323  0.2398  0.4610 -0.3504
  806MOL0     C11125  11.192   8.108   6.441 -0.3556  0.8287  0.4081
  806MOL0     O11126  11.307   8.070   6.507  0.4369 -0.1823 -0.3522
  806MOL0     C11127  11.428   8.126   6.461 -0.1064  0.3118  0.3430
  806MOL0     C11128  11.485   8.064   6.324 -0.6134 -0.4980  1.2857
  806MOL0     C11129  11.550   7.921   6.345 -0.9711  0.1903  0.2023
  806MOL0     C11130  11.701   7.935   6.370  0.6472  0.6859 -0.2325
  806MOL0     C11131  11.743   7.798   6.428 -0.2014 -0.2610 -0.2831
  806MOL0     C11132  11.887   7.799   6.491  0.5249  0.4479  0.2486
  806MOL0     C11133  11.903   7.675   6.577  0.1017  0.6923 -0.7862
  806MOL0     C11134  12.056   7.628   6.584  0.9177 -0.1158  0.0611
  806MOL0    Cl11135  12.154   7.764   6.640  0.1971  0.7297  0.4907
  806MOL0     C11136  11.075   8.059   6.484 -0.1150  0.3162 -0.5521
  806MOL0     C11137  10.951   8.071   6.424 -0.0631 -0.7183 -0.2177
  806MOL0     O11138  10.721   7.965   6.262 -0.0506 -0.6939 -0.0066
  806MOL0     C11139  10.553   8.254   6.199  0.0319  0.1591 -0.2799
  806MOL0     C11140  10.442   8.314   6.146  0.2889  0.1026 -1.0304
  806MOL0     N11141  10.061   8.839   5.678 -0.1573  0.0552  0.3665
  806MOL0     N11142  10.063   8.872   5.557  0.2128 -0.6374  0.6685
  806MOL0     C11143   9.268   8.607   4.661 -0.0817 -0.5194 -1.0392
  806MOL0     C11144   9.181   8.588   4.552  0.7761  0.8787 -0.6917
  806MOL0     C11145   8.825   8.459   4.325  0.4380  0.7691  0.0166
  806MOL0     C11146   8.803   8.317   4.321  0.3396  0.2091 -0.1868
  806MOL0     C11147   8.688   8.262   4.271 -0.0817 -0.2991  0.8909
  806MOL0     C11148   8.581   8.349   4.234 -0.4463  0.5646 -0.5445
  806MOL0     O11149   8.466   8.314   4.174  0.9173 -0.0969  0.0215
  806MOL0     C11150   8.449   8.174   4.135  0.2014  0.5402  0.5776
  806MOL0     C11151   8.319   8.186   4.046 -0.3724  0.2444 -0.2208
  806MOL0     C11152   8.359   8.207   3.906 -0.4533 -0.3542 -0.9353
  806MOL0     C11153   8.233   8.230   3.823 -0.1831  0.3960  0.2228
  806MOL0     C11154   8.176   8.369   3.823  0.1625  0.1126 -0.5296
  806MOL0     C11155   8.127   8.484   3.806  0.1235  0.1997  0.4770
  806MOL0     C11156   8.602   8.485   4.236  0.2515 -0.0008 -0.0351
  806MOL0     C11157   8.722   8.541   4.281  0.9844 -0.9733 -0.2313
  806MOL0     C11158   8.736   8.700   4.278  0.6194  0.7175 -0.2154
  806MOL0     H11159   9.199   8.249   4.547 -2.3970  0.3509  1.4054
  806MOL0     H11160   9.355   8.285   4.711 -3.8087 -0.8209  1.3523
  806MOL0     H11161   9.443   8.720   4.867 -1.9819 -1.4940  1.0106
  806MOL0     H11162   9.560   8.680   4.732  1.4669 -3.4647 -1.5388
  806MOL0     H11163   9.584   8.581   5.017 -2.0543 -1.7192 -2.9997
  806MOL0     H11164   9.693   8.542   4.892 -2.8943 -2.6927 -2.1638
  806MOL0     H11165   9.788   8.779   4.892  2.9683 -1.8786  2.1759
  806MOL0     H11166   9.650   8.834   4.976  1.6216  0.3216  2.0381
  806MOL0     H11167   9.708   8.709   5.175 -1.2184 -3.7528  0.7651
  806MOL0     H11168   9.831   8.612   5.089  1.6979  0.9960 -2.2015
  806MOL0     H11169   9.862   8.919   5.113 -1.0939 -0.1994 -1.3533
  806MOL0     H11170   9.969   8.804   5.047  0.2520  1.2720 -0.2157
  806MOL0     H11171   9.916   8.829   5.340 -1.1602 -0.5642  0.1117
  806MOL0     H11172  10.022   8.706   5.264  0.7416  1.4867  1.0521
  806MOL0     H11173  10.078   8.995   5.305  1.0130 -0.6237  0.5873
  806MOL0     H11174  10.137   8.911   5.154  0.6361 -0.5280 -0.8824
  806MOL0     H11175  10.232   8.738   5.292  0.5576 -0.2915 -0.6625
  806MOL0     H11176  10.308   8.886   5.346  2.3201 -2.6495  0.4145
  806MOL0     H11177  10.323   8.676   5.555 -0.0007  0.9262 -0.2628
  806MOL0     H11178  10.247   8.817   5.908 -0.2426 -1.9049  2.3866
  806MOL0     H11179  10.353   8.700   5.826  1.4696  2.1518  0.2223
  806MOL0     H11180  10.085   8.656   5.972  1.5542  2.2557  2.5375
  806MOL0     H11181  10.143   8.545   5.842  0.3932  0.6285 -0.7147
  806MOL0     H11182  10.351   8.523   5.949  1.1480  0.7630  2.9576
  806MOL0     H11183  10.294   8.587   6.091  0.9964  0.4882 -0.7764
  806MOL0     H11184  10.203   8.408   6.152  4.3019 -1.3790  0.2546
  806MOL0     H11185  10.092   8.408   6.000  0.9189 -2.4336 -4.7394
  806MOL0     H11186  10.346   8.066   5.939  1.9839  0.0522 -1.5332
  806MOL0     H11187  10.650   7.899   6.003 -0.1936  2.1065  0.1769
  806MOL0     H11188  10.470   7.874   5.970 -1.2317  1.7050  0.4340
  806MOL0     H11189  10.534   7.837   6.125  0.0635  1.7216  0.5691
  806MOL0     H11190  11.056   8.267   6.169 -1.2046 -0.0202 -0.7558
  806MOL0     H11191  11.263   8.236   6.272 -1.7926  0.1222 -4.2645
  806MOL0     H11192  11.416   8.234   6.443 -0.8270  0.3298  0.8925
  806MOL0     H11193  11.494   8.112   6.547  0.7959 -0.5482 -0.4609
  806MOL0     H11194  11.409   8.058   6.246  0.3473 -1.0264  0.3775
  806MOL0     H11195  11.560   8.134   6.285 -2.0147  0.6367  0.5437
  806MOL0     H11196  11.551   7.859   6.255  1.8513  0.7744 -0.2448
  806MOL0     H11197  11.493   7.866   6.421 -0.9876 -0.7131 -0.4491
  806MOL0     H11198  11.709   8.007   6.452  1.4912  0.0048  0.3063
  806MOL0     H11199  11.754   7.955   6.277 -0.3142 -2.8251 -1.7334
  806MOL0     H11200  11.672   7.774   6.507  0.0838  1.2332  0.4552
  806MOL0     H11201  11.733   7.721   6.351  0.8987 -1.1433  0.4309
  806MOL0     H11202  11.903   7.889   6.551 -1.0907  0.3929  0.8058
  806MOL0     H11203  11.952   7.807   6.404 -2.4141  2.5279 -1.9396
  806MOL0     H11204  11.845   7.594   6.531  1.0231 -0.7427  0.4881
  806MOL0     H11205  11.862   7.685   6.678  2.4872  0.1405  0.3070
  806MOL0     H11206  12.096   7.590   6.490  2.2005  2.7796 -0.6915
  806MOL0     H11207  12.059   7.542   6.652 -0.5576 -0.2040  0.0471
  806MOL0     H11208  11.082   8.000   6.576  1.0990  0.5846 -0.4565
  806MOL0     H11209  10.861   8.029   6.467 -1.9614  2.9647 -0.2122
  806MOL0     H11210  10.616   8.307   6.269  1.3789 -1.9357  0.1807
  806MOL0     H11211  10.408   8.409   6.185 -0.3369 -0.3837 -0.3464
  806MOL0     H11212   9.274   8.709   4.699 -1.2610 -1.3001  1.4853
  806MOL0     H11213   9.124   8.670   4.508 -0.2193 -0.3460 -1.7850
  806MOL0     H11214   8.885   8.252   4.351 -0.5006 -0.2605  1.1928
  806MOL0     H11215   8.684   8.154   4.259  1.9560 -0.2534 -0.7476
  806MOL0     H11216   8.530   8.141   4.069 -3.2223 -1.3132 -3.0934
  806MOL0     H11217   8.451   8.107   4.222  0.5792  1.2806  1.1547
  806MOL0     H11218   8.239   8.254   4.078 -0.3575 -1.0856  3.0601
  806MOL0     H11219   8.269   8.089   4.053  1.4350 -0.6581  1.1501
  806MOL0     H11220   8.421   8.297   3.895 -0.5373 -0.3974 -1.8481
  806MOL0     H11221   8.405   8.122   3.856 -0.3171 -0.2446 -0.9967
  806MOL0     H11222   8.162   8.150   3.845 -0.2124 -0.3721 -2.4026
  806MOL0     H11223   8.261   8.199   3.722 -0.5044  0.6818  0.0450
  806MOL0     H11224   8.077   8.578   3.792 -1.5044 -0.5922  0.6524
  806MOL0     H11225   8.519   8.549   4.210 -0.8804  0.5199  4.2063
  806MOL0     H11226   8.640   8.750   4.263  0.4299  0.2336 -0.6336
  806MOL0     H11227   8.776   8.729   4.376  2.5527 -1.9879 -0.0881
  806MOL0     H11228   8.805   8.732   4.199  2.6986 -0.1322  1.1419
  807MOL0     O11229  10.772   1.877  10.670 -0.5213  0.0993 -1.1416
  807MOL0     C11230  10.829   1.940  10.758 -0.8091 -0.3880 -0.6073
  807MOL0     O11231  10.844   2.081  10.755  0.2430  0.3307 -0.6777
  807MOL0     C11232  10.864   2.148  10.639 -0.3605 -0.1997  0.3465
  807MOL0     C11233  10.775   2.145  10.530  0.3499  0.2860 -0.1955
  807MOL0     C11234  10.790   2.223  10.418  0.4539 -0.0598  0.0316
  807MOL0     C11235  10.902   2.293  10.407  0.1283  0.3332  0.3290
  807MOL0     O11236  10.925   2.353  10.284 -0.2772  0.2934 -0.2351
  807MOL0     C11237  10.933   2.258  10.175  0.9806 -0.0015 -1.4441
  807MOL0     C11238  10.975   2.332  10.052  0.1883  0.5808 -0.5979
  807MOL0     C11239  11.072   2.246   9.960  0.0128 -0.1511  0.0305
  807MOL0     C11240  11.189   2.332   9.897 -0.3727 -0.0330 -0.7061
  807MOL0     C11241  11.286   2.253   9.803  0.3203  0.5398 -0.1916
  807MOL0     C11242  11.376   2.346   9.719 -0.5240  0.1844  0.0527
  807MOL0     C11243  11.470   2.260   9.620 -0.4251 -1.1663  0.4026
  807MOL0     C11244  11.570   2.356   9.551  0.0243 -1.1746  0.5071
  807MOL0     N11245  11.646   2.287   9.448  0.3673  0.6146 -0.0012
  807MOL0     C11246  11.780   2.248   9.467 -1.7066 -1.3069 -0.3886
  807MOL0     C11247  11.814   2.162   9.365 -1.3276 -0.8980 -0.9864
  807MOL0     C11248  11.941   2.079   9.350 -0.9339 -0.2382 -0.0613
  807MOL0     C11249  12.076   2.139   9.405  0.4716 -0.0918  0.2720
  807MOL0     C11250  12.137   2.238   9.301  0.3479 -0.2868  0.5200
  807MOL0     C11251  12.248   2.324   9.366 -0.1958  0.1300 -0.6471
  807MOL0     O11252  12.267   2.451   9.302  0.1274 -0.0813 -0.1993
  807MOL0     C11253  12.384   2.476   9.243 -0.8421 -0.2237 -0.2142
  807MOL0     C11254  12.430   2.607   9.259  0.2027 -0.6187 -0.5234
  807MOL0     C11255  12.541   2.663   9.202  0.3846  0.1609 -0.3411
  807MOL0     C11256  12.591   2.803   9.244  1.0469  0.4130 -0.5336
  807MOL0     C11257  12.610   2.585   9.110 -0.5706  0.3438 -0.0368
  807MOL0     C11258  12.722   2.640   9.019 -0.4748 -0.1209  0.0130
  807MOL0     O11259  12.796   2.556   8.939 -0.2461  0.1656 -0.1599
  807MOL0     C11260  12.874   2.612   8.844  1.1546 -0.8521 -0.0032
  807MOL0     C11261  13.015   2.585   8.856  0.5168 -0.2665  0.6343
  807MOL0     C11262  13.100   2.646   8.762 -0.2457  0.2351  0.2269
  807MOL0     C11263  13.054   2.715   8.652  0.0444 -0.8957  0.1317
  807MOL0     O11264  13.131   2.772   8.550  0.8677  0.4684  0.1318
  807MOL0     C11265  13.271   2.737   8.552  1.2851 -0.4694 -0.7784
  807MOL0     C11266  13.349   2.839   8.473  0.0832  0.0600  0.5605
  807MOL0     C11267  13.483   2.797   8.414 -0.3559  0.7137 -0.1936
  807MOL0     C11268  13.458   2.722   8.279 -0.3836  0.0917  0.5073
  807MOL0     C11269  13.570   2.631   8.238 -0.4020  0.2974  0.1200
  807MOL0     C11270  13.676   2.680   8.135  0.0359  0.6479 -1.0385
  807MOL0     C11271  13.824   2.669   8.175 -0.5749  0.0465 -0.4739
  807MOL0     C11272  13.926   2.726   8.082 -0.0304 -0.7083 -0.1323
  807MOL0    Cl11273  13.959   2.637   7.928  0.1376 -0.3249  0.1067
  807MOL0     C11274  12.914   2.732   8.640 -0.2230  0.1606 -1.1755
  807MOL0     C11275  12.827   2.687   8.734  0.3830  0.1988 -0.4164
  807MOL0     O11276  12.724   2.758   9.012  0.4120  0.5075  0.5979
  807MOL0     C11277  12.577   2.444   9.099 -0.3314 -0.4772  0.1558
  807MOL0     C11278  12.467   2.385   9.163 -0.5363 -0.6355  0.1165
  807MOL0     N11279  11.706   2.154   9.292  1.3588  0.0958  0.4229
  807MOL0     N11280  11.603   2.223   9.331  0.7517 -0.1039 -0.4514
  807MOL0     C11281  11.002   2.305  10.502 -0.6133  0.4969  0.8125
  807MOL0     C11282  10.992   2.225  10.619  0.0842 -0.2413 -0.5903
  807MOL0     C11283  10.859   1.879  10.898  0.7410  0.4597  0.1774
  807MOL0     C11284  10.931   1.967  10.982 -0.1426 -0.1555 -0.1581
  807MOL0     C11285  10.919   1.939  11.118 -0.5268  0.3507  0.2247
  807MOL0     C11286  10.868   1.818  11.167  0.6423  0.1469  0.9353
  807MOL0     O11287  10.878   1.804  11.298 -0.6874  0.3251  0.1806
  807MOL0     C11288  11.003   1.758  11.334 -0.3312  0.6126 -0.4770
  807MOL0     C11289  11.128   1.850  11.305 -0.1765 -0.1619 -0.4994
  807MOL0     C11290  11.268   1.799  11.328 -0.6351  0.4970 -0.5217
  807MOL0     C11291  11.293   1.785  11.477  0.7350 -0.1885  0.6227
  807MOL0     C11292  11.424   1.730  11.500 -0.1585 -0.7825 -0.3960
  807MOL0     C11293  11.536   1.678  11.518 -0.1458  0.0471  1.3178
  807MOL0     C11294  10.831   1.727  11.067 -0.0127  0.0885 -1.0476
  807MOL0     C11295  10.824   1.749  10.934  0.1596 -0.6947  0.1456
  807MOL0     C11296  10.780   1.645  10.835  0.1293 -0.1162  0.7867
  807MOL0     H11297  10.686   2.085  10.543 -0.2010  1.1878  0.3176
  807MOL0     H11298  10.719   2.235  10.337 -0.1812  0.9122  0.7149
  807MOL0     H11299  10.836   2.211  10.162  0.8254 -1.4429  3.1150
  807MOL0     H11300  11.004   2.180  10.201 -0.8367 -1.7352 -1.5006
  807MOL0     H11301  10.894   2.373   9.991  2.4137  0.5639 -3.8435
  807MOL0     H11302  11.048   2.409  10.080  0.3839  0.5015 -0.8785
  807MOL0     H11303  11.099   2.151  10.005 -3.5465 -1.7228 -0.7927
  807MOL0     H11304  11.013   2.216   9.873 -0.7758  0.2409  0.4206
  807MOL0     H11305  11.152   2.417   9.839 -0.6175 -0.9025 -1.8654
  807MOL0     H11306  11.247   2.386   9.973  1.4033 -0.7313 -1.5345
  807MOL0     H11307  11.229   2.187   9.737  1.1477 -1.8741  1.3527
  807MOL0     H11308  11.338   2.181   9.866  0.8620  1.2163  0.1444
  807MOL0     H11309  11.307   2.392   9.648  0.8549 -1.1957 -2.3464
  807MOL0     H11310  11.416   2.432   9.774 -0.8171  0.4991 -0.2214
  807MOL0     H11311  11.392   2.225   9.551 -0.3192  1.7646 -1.3654
  807MOL0     H11312  11.515   2.172   9.666 -0.2221 -1.1486  0.2378
  807MOL0     H11313  11.518   2.439   9.501 -0.0140 -2.5568 -1.8532
  807MOL0     H11314  11.633   2.413   9.620 -1.4719  3.3387 -1.4443
  807MOL0     H11315  11.849   2.279   9.545 -0.3549 -0.0406 -2.0248
  807MOL0     H11316  11.955   2.055   9.244 -0.6839  0.1857 -0.1233
  807MOL0     H11317  11.921   1.987   9.405  2.4161 -0.6731  0.6425
  807MOL0     H11318  12.066   2.191   9.501 -1.2208  4.2686 -1.9837
  807MOL0     H11319  12.150   2.059   9.410  2.7540  1.8517 -0.5827
  807MOL0     H11320  12.185   2.195   9.213 -0.5219  0.8317 -0.5292
  807MOL0     H11321  12.054   2.296   9.259 -1.3795 -1.9125  1.5250
  807MOL0     H11322  12.233   2.346   9.472 -1.5624  0.5697 -0.9141
  807MOL0     H11323  12.332   2.255   9.356 -1.2526 -1.1923 -0.7228
  807MOL0     H11324  12.370   2.678   9.315 -0.5808 -1.5625 -0.1506
  807MOL0     H11325  12.699   2.808   9.261  0.8273 -2.6706  2.9984
  807MOL0     H11326  12.556   2.828   9.344  3.4471  2.6802 -0.1351
  807MOL0     H11327  12.548   2.880   9.180 -3.9053 -0.7448  0.9968
  807MOL0     H11328  13.061   2.525   8.933  2.6295  2.3789  1.5801
  807MOL0     H11329  13.205   2.622   8.777 -0.4412 -0.8664 -0.0268
  807MOL0     H11330  13.311   2.742   8.653 -2.8240 -4.5713  1.4060
  807MOL0     H11331  13.288   2.636   8.513 -0.7167 -0.3583 -2.1306
  807MOL0     H11332  13.284   2.882   8.396  0.7299  2.0721  1.0997
  807MOL0     H11333  13.372   2.929   8.530  0.7625  0.3327 -0.1237
  807MOL0     H11334  13.536   2.747   8.495  1.0850  1.2237 -0.7948
  807MOL0     H11335  13.544   2.884   8.389 -0.9461  1.0510 -0.4933
  807MOL0     H11336  13.442   2.800   8.203 -1.2582  1.4747  2.0249
  807MOL0     H11337  13.370   2.658   8.281  0.9410 -1.8237  2.8694
  807MOL0     H11338  13.615   2.597   8.332 -3.6730 -1.2389  1.3151
  807MOL0     H11339  13.521   2.546   8.189  1.1354  0.4973 -1.8541
  807MOL0     H11340  13.651   2.780   8.098 -1.7869  0.7044  0.1971
  807MOL0     H11341  13.666   2.627   8.039 -0.6091  0.3042 -0.7914
  807MOL0     H11342  13.834   2.561   8.190 -1.7232  0.1904  1.8685
  807MOL0     H11343  13.839   2.723   8.269 -2.1149 -0.1654 -0.0754
  807MOL0     H11344  14.019   2.745   8.137 -1.0412  3.1902  0.4883
  807MOL0     H11345  13.887   2.823   8.050  0.7203 -0.1088  0.7101
  807MOL0     H11346  12.874   2.796   8.562 -2.1896 -2.3833 -2.3998
  807MOL0     H11347  12.720   2.704   8.726  0.4765  0.6091 -0.8517
  807MOL0     H11348  12.641   2.381   9.038  0.0971  0.4992 -0.4237
  807MOL0     H11349  12.440   2.280   9.158  2.4950 -1.4952 -0.3149
  807MOL0     H11350  11.084   2.362  10.460 -0.8178  1.4336  1.6578
  807MOL0     H11351  11.063   2.228  10.701 -2.4635 -1.2395  1.8301
  807MOL0     H11352  10.964   2.063  10.944 -3.7602  0.9579 -0.8660
  807MOL0     H11353  10.953   2.014  11.188 -0.3396 -0.4336  0.9885
  807MOL0     H11354  10.998   1.741  11.442  0.9138  0.0377 -0.4867
  807MOL0     H11355  11.020   1.663  11.283  1.4778  1.5317 -1.6926
  807MOL0     H11356  11.111   1.940  11.364  2.9446 -1.6916  3.1176
  807MOL0     H11357  11.130   1.877  11.199 -1.3198  1.1116 -0.2210
  807MOL0     H11358  11.276   1.702  11.278  1.4411  1.0454 -1.3665
  807MOL0     H11359  11.340   1.866  11.280  0.4626 -0.6055 -0.4668
  807MOL0     H11360  11.221   1.709  11.509  0.1468 -1.1016 -2.5476
  807MOL0     H11361  11.285   1.881  11.529  3.0343  0.2093  0.3520
  807MOL0     H11362  11.632   1.634  11.502 -1.1096 -1.7133  0.1024
  807MOL0     H11363  10.796   1.631  11.106 -0.2743 -1.2541 -4.2799
  807MOL0     H11364  10.779   1.543  10.876  0.8816 -1.0382 -1.3480
  807MOL0     H11365  10.673   1.645  10.813 -0.6173 -0.0841  3.9208
  807MOL0     H11366  10.840   1.638  10.744 -1.1162  1.1005 -0.1654
  808MOL0     O11367   8.308   7.333   3.323 -0.1910  0.2175 -1.0574
  808MOL0     C11368   8.311   7.214   3.277 -0.6928 -0.0349 -0.5382
  808MOL0     O11369   8.407   7.124   3.293  0.2271  0.3851 -0.1273
  808MOL0     C11370   8.508   7.167   3.376  0.3754  0.5116 -0.7320
  808MOL0     C11371   8.534   7.085   3.494 -0.2967 -0.3461 -1.6784
  808MOL0     C11372   8.650   7.107   3.567 -0.2772 -0.3790 -0.0583
  808MOL0     C11373   8.736   7.213   3.543  0.2817  0.0677  0.0066
  808MOL0     O11374   8.843   7.257   3.622  0.1070  0.0678 -0.4944
  808MOL0     C11375   8.910   7.150   3.694 -0.0242 -0.3701 -0.2327
  808MOL0     C11376   9.026   7.212   3.776 -0.0562  0.1930 -0.9058
  808MOL0     C11377   9.114   7.124   3.863 -0.0249  0.6002 -0.6135
  808MOL0     C11378   9.146   7.186   4.003  0.5310 -0.0756  1.0850
  808MOL0     C11379   9.223   7.080   4.092  0.4352 -0.3070  0.1477
  808MOL0     C11380   9.220   7.135   4.236 -0.5577  0.3182 -0.8368
  808MOL0     C11381   9.223   7.020   4.342  0.0540 -0.6428 -0.2289
  808MOL0     C11382   9.344   6.933   4.323  0.5582 -0.3268  0.8723
  808MOL0     N11383   9.468   7.009   4.326 -0.3134 -0.2062 -0.1690
  808MOL0     C11384   9.550   7.046   4.227 -0.3692 -0.1925 -0.4604
  808MOL0     C11385   9.663   7.105   4.289  0.1388  0.9370  0.8380
  808MOL0     C11386   9.784   7.158   4.213 -0.1764  0.0289 -0.4137
  808MOL0     C11387   9.870   7.053   4.148 -0.2858  1.4471  0.3253
  808MOL0     C11388   9.925   6.944   4.240  0.3665  0.0073 -0.6467
  808MOL0     C11389   9.855   6.815   4.216  0.0211  0.5102 -0.5410
  808MOL0     O11390   9.897   6.769   4.092 -0.3981  0.6998  0.6949
  808MOL0     C11391   9.914   6.634   4.086 -0.8557  0.0018 -0.2514
  808MOL0     C11392   9.867   6.528   4.177 -0.3671  0.7417  0.0503
  808MOL0     C11393   9.916   6.394   4.179 -0.8495  0.2755  0.1876
  808MOL0     C11394   9.875   6.302   4.290  0.0042  0.0414 -0.4720
  808MOL0     C11395   9.999   6.351   4.077 -0.0366 -0.4331  0.1953
  808MOL0     C11396  10.044   6.209   4.064 -0.3890 -0.0772 -0.5480
  808MOL0     O11397  10.131   6.180   3.962 -0.6905 -0.9170 -0.1757
  808MOL0     C11398  10.193   6.059   3.957 -0.2331 -0.3658 -0.0660
  808MOL0     C11399  10.331   6.045   3.969  0.0830 -0.3387  0.3301
  808MOL0     C11400  10.390   5.926   3.948  0.0790  0.2448  0.2837
  808MOL0     C11401  10.321   5.816   3.920 -0.1586  0.2880 -0.2327
  808MOL0     O11402  10.381   5.693   3.875 -0.5491 -0.6277  0.3221
  808MOL0     C11403  10.509   5.664   3.936 -1.9291  0.0367  0.0209
  808MOL0     C11404  10.579   5.543   3.870  0.9328 -0.3018 -0.0374
  808MOL0     C11405  10.737   5.552   3.870  0.6266 -0.3113  0.9825
  808MOL0     C11406  10.793   5.423   3.802 -0.3272 -0.3349  0.1563
  808MOL0     C11407  10.945   5.428   3.809  0.3681 -0.2257 -0.0846
  808MOL0     C11408  11.003   5.298   3.748  0.1801 -0.0013  0.0653
  808MOL0     C11409  11.021   5.202   3.864  0.5438  0.6839  0.5197
  808MOL0     C11410  11.037   5.067   3.813  0.3206  0.4358 -0.1125
  808MOL0    Cl11411  11.070   4.968   3.949 -0.0569  0.2563 -0.3526
  808MOL0     C11412  10.184   5.824   3.914 -0.3408 -0.2876  0.0804
  808MOL0     C11413  10.123   5.943   3.940 -0.2865  0.3062 -0.1641
  808MOL0     O11414  10.011   6.119   4.145 -0.4294 -0.2789  0.6345
  808MOL0     C11415  10.042   6.442   3.975  0.2886 -0.6860 -0.5584
  808MOL0     C11416   9.995   6.584   3.979  0.2489 -0.2216 -0.0863
  808MOL0     N11417   9.637   7.099   4.427 -0.4914 -0.5955 -0.5568
  808MOL0     N11418   9.521   7.056   4.443  0.5271 -1.0512 -0.1654
  808MOL0     C11419   8.713   7.290   3.424  0.5081 -0.6480 -0.1832
  808MOL0     C11420   8.607   7.265   3.342 -0.3948  0.9293 -0.1251
  808MOL0     C11421   8.184   7.166   3.212 -0.1646 -0.1918 -0.8824
  808MOL0     C11422   8.199   7.067   3.109  0.0531  0.1868  0.4608
  808MOL0     C11423   8.088   7.015   3.045 -0.1713 -0.0977 -0.5303
  808MOL0     C11424   7.959   7.076   3.061  0.9670  0.2129 -0.7570
  808MOL0     O11425   7.852   7.032   2.987  0.7394 -0.1271 -0.0950
  808MOL0     C11426   7.845   6.889   2.980  0.6442  0.4711  0.4608
  808MOL0     C11427   7.702   6.864   2.937  0.0601  0.5624 -0.3139
  808MOL0     C11428   7.678   6.718   2.882  0.2380  0.5409  0.1954
  808MOL0     C11429   7.536   6.691   2.822  1.2914  0.8370  0.0632
  808MOL0     C11430   7.440   6.670   2.931  0.5996 -0.9442  0.0638
  808MOL0     C11431   7.348   6.651   3.010  0.9135  0.2397  0.0077
  808MOL0     C11432   7.945   7.174   3.163  0.4561  1.4357 -0.5622
  808MOL0     C11433   8.058   7.210   3.241  0.2181 -0.0159  1.0197
  808MOL0     C11434   8.017   7.303   3.354 -0.1959  0.1630 -0.1189
  808MOL0     H11435   8.480   6.995   3.520  0.1233  0.2088  1.6362
  808MOL0     H11436   8.676   7.042   3.650  0.1593  2.9426  2.6215
  808MOL0     H11437   8.953   7.092   3.612 -0.6618 -2.2486  0.6847
  808MOL0     H11438   8.842   7.097   3.763  3.2788 -2.8018  1.4229
  808MOL0     H11439   9.090   7.272   3.710  0.9311 -0.4794 -0.5758
  808MOL0     H11440   8.977   7.279   3.846 -1.3671 -1.2220 -0.4148
  808MOL0     H11441   9.048   7.038   3.879  0.7276 -0.0617 -0.9669
  808MOL0     H11442   9.208   7.090   3.820  0.7039 -0.8068  1.8510
  808MOL0     H11443   9.211   7.272   3.987  0.2056 -0.1183 -0.6333
  808MOL0     H11444   9.055   7.226   4.049  0.0072  1.0869 -0.8219
  808MOL0     H11445   9.322   7.063   4.048  0.0215 -1.1292 -0.4911
  808MOL0     H11446   9.175   6.982   4.093  1.3371 -0.7573  0.7412
  808MOL0     H11447   9.296   7.209   4.262  3.2348 -2.6448 -2.6065
  808MOL0     H11448   9.123   7.187   4.241 -1.4094 -1.1835 -1.0509
  808MOL0     H11449   9.128   6.966   4.342 -0.7860  0.7873 -0.4842
  808MOL0     H11450   9.229   7.072   4.438  1.9498  1.9746 -1.6362
  808MOL0     H11451   9.352   6.860   4.403  0.6653 -1.4430 -0.1274
  808MOL0     H11452   9.347   6.869   4.234 -0.8397 -2.0839  2.0217
  808MOL0     H11453   9.545   7.036   4.119  0.7709  0.7385 -0.6117
  808MOL0     H11454   9.850   7.204   4.287 -0.7270 -2.1323  1.5576
  808MOL0     H11455   9.753   7.236   4.143  1.5729  0.8320 -0.3384
  808MOL0     H11456   9.814   7.004   4.068  1.4639  0.9538 -0.6738
  808MOL0     H11457   9.953   7.101   4.095 -1.0233  1.2291 -1.0668
  808MOL0     H11458  10.033   6.935   4.225  0.1131 -0.5640 -2.3271
  808MOL0     H11459   9.913   6.971   4.346 -0.2703  2.2246 -1.2409
  808MOL0     H11460   9.890   6.755   4.300  2.5131  1.6156 -0.6995
  808MOL0     H11461   9.746   6.819   4.219  0.0638  2.5285 -0.2880
  808MOL0     H11462   9.806   6.555   4.262  2.9579  0.9726  2.5291
  808MOL0     H11463   9.822   6.214   4.253  0.3013 -0.5175  0.4002
  808MOL0     H11464   9.800   6.351   4.354 -0.7247 -1.0786 -0.4525
  808MOL0     H11465   9.957   6.266   4.353  1.0193  0.3237 -1.5857
  808MOL0     H11466  10.394   6.133   3.971 -0.3396  0.0550 -1.6125
  808MOL0     H11467  10.497   5.925   3.965 -0.3108  3.3213  4.7261
  808MOL0     H11468  10.584   5.740   3.909 -0.9177 -1.1770 -0.6839
  808MOL0     H11469  10.501   5.647   4.043 -0.1318  0.2616  0.2303
  808MOL0     H11470  10.535   5.451   3.909  0.0406  0.7239  1.4721
  808MOL0     H11471  10.537   5.549   3.770  3.2320 -0.0875 -1.0575
  808MOL0     H11472  10.761   5.559   3.977  1.4508  1.2178  0.7230
  808MOL0     H11473  10.778   5.637   3.814  2.7768  0.1292  3.0456
  808MOL0     H11474  10.773   5.421   3.695  1.1743 -2.4729 -0.1552
  808MOL0     H11475  10.760   5.332   3.853 -1.5669 -0.2878 -0.5191
  808MOL0     H11476  10.972   5.510   3.743 -0.2197 -2.2941 -3.0703
  808MOL0     H11477  10.980   5.453   3.910  2.0915 -0.7782 -0.5216
  808MOL0     H11478  11.100   5.333   3.711 -0.7310  3.7089  0.8010
  808MOL0     H11479  10.946   5.264   3.661 -1.2243  3.2823 -0.4351
  808MOL0     H11480  10.931   5.191   3.926  1.1467 -1.4301  1.1040
  808MOL0     H11481  11.107   5.234   3.923  1.3203 -1.0091  0.3313
  808MOL0     H11482  11.127   5.079   3.752  0.7600  1.1250  0.6454
  808MOL0     H11483  10.951   5.027   3.758 -0.3207  0.5078  0.8178
  808MOL0     H11484  10.128   5.736   3.886  1.3443 -1.0907 -0.9601
  808MOL0     H11485  10.017   5.950   3.916 -0.3203  1.3552  0.2232
  808MOL0     H11486  10.123   6.418   3.907 -0.4145 -0.0294 -1.6557
  808MOL0     H11487  10.019   6.662   3.907 -0.6091 -0.3134 -0.4884
  808MOL0     H11488   8.793   7.357   3.398  0.2051  0.1617  0.8774
  808MOL0     H11489   8.617   7.320   3.249  1.5083  0.1710 -0.4106
  808MOL0     H11490   8.302   7.036   3.095 -0.0187  0.5068 -0.9195
  808MOL0     H11491   8.104   6.940   2.969  1.0433 -1.0689  0.6373
  808MOL0     H11492   7.907   6.867   2.892 -0.2644  1.3373 -0.4290
  808MOL0     H11493   7.871   6.841   3.075  1.7987  0.5085  0.1735
  808MOL0     H11494   7.681   6.934   2.855  4.6306  0.8550 -1.5419
  808MOL0     H11495   7.627   6.890   3.012 -1.1619  0.2295 -1.3971
  808MOL0     H11496   7.756   6.709   2.806 -0.9282  5.7316 -2.0912
  808MOL0     H11497   7.709   6.656   2.967  2.8324  1.4280 -0.0156
  808MOL0     H11498   7.531   6.609   2.750  1.1649 -0.1218  1.1269
  808MOL0     H11499   7.493   6.779   2.773 -1.3273 -0.3924 -0.0131
  808MOL0     H11500   7.269   6.628   3.078  1.2747  1.1859  0.7658
  808MOL0     H11501   7.851   7.219   3.196  0.2479  1.6843 -1.4511
  808MOL0     H11502   8.085   7.290   3.439 -3.0997  0.9919  2.5059
  808MOL0     H11503   8.023   7.408   3.326  1.0854  0.2952  0.5687
  808MOL0     H11504   7.923   7.280   3.405 -0.2356  0.6854  0.0503
  809MOL0     O11505   2.815   9.331   3.545 -0.2910  0.1069  0.1227
  809MOL0     C11506   2.718   9.272   3.506 -0.4757  0.4620 -0.6869
  809MOL0     O11507   2.697   9.134   3.510  0.9267  0.4084  0.2041
  809MOL0     C11508   2.813   9.060   3.538 -0.3236 -0.5081  0.5540
  809MOL0     C11509   2.914   9.068   3.446 -0.8069 -0.2053  0.4285
  809MOL0     C11510   3.038   9.004   3.466 -0.6218 -0.5331  0.5047
  809MOL0     C11511   3.046   8.918   3.580 -0.4579 -0.2311 -0.4545
  809MOL0     O11512   3.160   8.848   3.613 -0.1858 -0.7961  0.2054
  809MOL0     C11513   3.278   8.878   3.551  0.0210 -0.5957  0.8408
  809MOL0     C11514   3.354   8.993   3.625 -0.1900  0.0763 -0.4047
  809MOL0     C11515   3.412   8.944   3.765  0.4761  0.0476 -0.0549
  809MOL0     C11516   3.493   9.057   3.826  0.4685 -0.1590  0.2207
  809MOL0     C11517   3.641   9.056   3.797  0.9972 -0.2993  0.4431
  809MOL0     C11518   3.706   9.164   3.890 -0.4878  0.4482  0.2495
  809MOL0     C11519   3.863   9.183   3.874  0.2407  0.0460 -1.1905
  809MOL0     C11520   3.924   9.251   4.000 -0.3801  0.2484  0.5867
  809MOL0     N11521   4.071   9.253   3.978 -0.3587 -0.0974 -0.6050
  809MOL0     C11522   4.152   9.153   4.013  0.2249 -0.1406 -0.0376
  809MOL0     C11523   4.278   9.209   4.004 -0.1404 -0.2884 -0.2206
  809MOL0     C11524   4.408   9.139   4.054 -0.3641 -0.7933  0.5245
  809MOL0     C11525   4.467   9.212   4.170  1.1622  0.5261  0.1720
  809MOL0     C11526   4.613   9.229   4.142 -0.5998 -0.2737 -0.4932
  809MOL0     C11527   4.696   9.273   4.268  0.2290 -0.1624  0.1068
  809MOL0     O11528   4.693   9.156   4.348 -0.4617  0.5981 -0.3294
  809MOL0     C11529   4.804   9.138   4.428  0.5429 -0.1085  0.6535
  809MOL0     C11530   4.868   9.250   4.481 -1.0599 -0.5184 -0.0854
  809MOL0     C11531   4.982   9.228   4.563  0.6468  0.7577 -0.2985
  809MOL0     C11532   5.059   9.342   4.619  0.7760  0.6665 -0.2108
  809MOL0     C11533   5.019   9.089   4.586  1.3815  0.4152 -0.2397
  809MOL0     C11534   5.126   9.065   4.685 -0.4447 -0.5860  0.1074
  809MOL0     O11535   5.207   8.962   4.658  0.1437 -0.6555 -0.1173
  809MOL0     C11536   5.320   8.941   4.739  0.1030 -0.7746 -0.6945
  809MOL0     C11537   5.349   8.811   4.767  0.2602  0.3102 -0.0939
  809MOL0     C11538   5.446   8.771   4.867 -0.6710 -0.5046  0.5999
  809MOL0     C11539   5.531   8.868   4.909 -0.7684  0.4802  0.6136
  809MOL0     O11540   5.646   8.841   4.983  0.4326  1.3763  0.2735
  809MOL0     C11541   5.717   8.720   4.971  0.5749 -0.2346  0.0017
  809MOL0     C11542   5.788   8.731   4.827 -0.3446 -0.9094  0.5487
  809MOL0     C11543   5.865   8.867   4.814  0.2115  1.3522  0.1693
  809MOL0     C11544   5.930   8.867   4.670  0.0224  0.0458 -0.5134
  809MOL0     C11545   6.031   8.980   4.646 -0.6874 -0.6423  0.1879
  809MOL0     C11546   6.087   8.989   4.503 -0.1137 -0.3306 -0.6613
  809MOL0     C11547   6.209   9.083   4.504 -0.0708  0.2774 -0.6465
  809MOL0     C11548   6.277   9.102   4.361  0.7912 -0.5622 -0.6392
  809MOL0    Cl11549   6.165   9.190   4.251  0.0980 -0.4829  0.3057
  809MOL0     C11550   5.508   9.005   4.889 -0.9272 -0.4052 -0.1265
  809MOL0     C11551   5.398   9.042   4.802 -0.2952 -0.7680 -0.6868
  809MOL0     O11552   5.127   9.143   4.788  0.3739 -0.3828  0.3766
  809MOL0     C11553   4.949   8.984   4.535 -0.1622 -0.3885  0.2875
  809MOL0     C11554   4.845   9.003   4.448 -0.3672 -0.3045 -0.7563
  809MOL0     N11555   4.265   9.338   3.959  0.2144 -0.6293 -0.0438
  809MOL0     N11556   4.138   9.369   3.946  0.0092  0.5775  0.1406
  809MOL0     C11557   2.928   8.894   3.660  0.3256  0.0466  0.1484
  809MOL0     C11558   2.814   8.967   3.640  0.9734  1.1518 -0.2327
  809MOL0     C11559   2.604   9.353   3.454 -0.8102 -0.8131 -0.5461
  809MOL0     C11560   2.518   9.295   3.355 -0.1235 -0.8267  0.5421
  809MOL0     C11561   2.419   9.376   3.293  0.3211  0.3247 -0.8361
  809MOL0     C11562   2.404   9.515   3.329 -0.5305  0.2513 -0.0087
  809MOL0     O11563   2.298   9.583   3.269 -0.1554 -0.1660 -0.0795
  809MOL0     C11564   2.220   9.670   3.352  0.1951  0.4784 -0.0619
  809MOL0     C11565   2.151   9.588   3.459  0.4886 -0.2596 -0.7378
  809MOL0     C11566   2.013   9.652   3.509  0.4555 -0.0205 -0.4120
  809MOL0     C11567   1.943   9.574   3.620 -0.3035 -0.2894 -0.0770
  809MOL0     C11568   2.016   9.559   3.744 -0.4387 -0.3760 -0.2788
  809MOL0     C11569   2.081   9.532   3.842 -0.5946  0.1853  0.0966
  809MOL0     C11570   2.482   9.560   3.428 -0.3786 -0.5425 -0.7454
  809MOL0     C11571   2.582   9.489   3.495  0.2888 -0.5948 -0.5084
  809MOL0     C11572   2.660   9.566   3.601 -0.3113 -0.4120 -0.6091
  809MOL0     H11573   2.899   9.145   3.372  0.2989 -1.7837 -1.5425
  809MOL0     H11574   3.122   9.027   3.401  0.8801 -2.1912  1.7452
  809MOL0     H11575   3.265   8.904   3.446 -2.6003 -4.2139  0.0470
  809MOL0     H11576   3.343   8.790   3.556  3.0336  1.5361  1.7519
  809MOL0     H11577   3.426   9.046   3.562 -1.1347 -0.0156 -1.5972
  809MOL0     H11578   3.273   9.061   3.650 -0.5780 -1.1445  2.0533
  809MOL0     H11579   3.324   8.931   3.828  1.5377 -0.1678  1.4272
  809MOL0     H11580   3.463   8.850   3.745  1.2218  0.4812 -0.2543
  809MOL0     H11581   3.444   9.146   3.785 -0.5698 -0.7566  0.1245
  809MOL0     H11582   3.472   9.054   3.933  0.0662  0.4476  0.1630
  809MOL0     H11583   3.652   9.086   3.693 -3.7055 -0.4609 -0.3276
  809MOL0     H11584   3.681   8.954   3.804 -2.6290 -1.8319  1.4529
  809MOL0     H11585   3.654   9.254   3.854 -0.9632 -0.3903 -1.2299
  809MOL0     H11586   3.687   9.157   3.997  1.8497  2.0967  0.8661
  809MOL0     H11587   3.889   9.249   3.791  1.9708  1.5258  0.4284
  809MOL0     H11588   3.916   9.087   3.871 -2.9731 -1.8580 -1.4451
  809MOL0     H11589   3.879   9.350   4.015 -1.3083  0.4148 -2.6260
  809MOL0     H11590   3.907   9.199   4.094  2.9720  0.0849  1.2455
  809MOL0     H11591   4.137   9.050   4.045 -1.4997  0.0887 -0.0267
  809MOL0     H11592   4.467   9.153   3.963 -2.6026  3.5437 -0.5090
  809MOL0     H11593   4.398   9.034   4.083 -2.9573 -0.7921 -0.1862
  809MOL0     H11594   4.420   9.308   4.193  1.6310  0.0919  3.5812
  809MOL0     H11595   4.459   9.148   4.259  2.1571 -0.3821 -0.3695
  809MOL0     H11596   4.661   9.148   4.087  3.7105  2.0167 -0.5158
  809MOL0     H11597   4.630   9.313   4.075 -1.2745 -0.4307 -0.8715
  809MOL0     H11598   4.798   9.289   4.231  0.6574 -4.2566 -0.9826
  809MOL0     H11599   4.664   9.361   4.325  1.2424  0.9005 -0.9146
  809MOL0     H11600   4.827   9.349   4.462 -1.2944 -1.0955 -3.2241
  809MOL0     H11601   5.027   9.360   4.722  0.8915  0.2708 -0.1049
  809MOL0     H11602   5.041   9.433   4.559 -0.0489 -0.3571 -1.5831
  809MOL0     H11603   5.166   9.323   4.621  1.3521  3.4689  0.1101
  809MOL0     H11604   5.285   8.729   4.735  1.5569 -0.9215  0.3671
  809MOL0     H11605   5.459   8.668   4.897  0.8070  0.7418  5.0387
  809MOL0     H11606   5.789   8.719   5.053  1.0917 -2.9403 -0.4066
  809MOL0     H11607   5.655   8.630   4.973  0.2061  0.0138 -0.0994
  809MOL0     H11608   5.860   8.650   4.808  2.1909  1.3298  0.0062
  809MOL0     H11609   5.713   8.718   4.749 -0.2117  1.1732  0.0303
  809MOL0     H11610   5.946   8.879   4.887  1.2064  0.7932 -0.8216
  809MOL0     H11611   5.797   8.952   4.827 -0.2915  0.7982  1.3338
  809MOL0     H11612   5.852   8.887   4.597 -0.5611  1.8057  0.5355
  809MOL0     H11613   5.976   8.772   4.640  1.6351  0.2311  1.1626
  809MOL0     H11614   5.986   9.071   4.686  3.1023  1.3531  0.3860
  809MOL0     H11615   6.110   8.952   4.717 -0.8953 -1.5737  0.0647
  809MOL0     H11616   6.013   9.042   4.443  0.0494  0.3638 -0.2664
  809MOL0     H11617   6.113   8.895   4.453 -0.4656  0.8441 -3.1843
  809MOL0     H11618   6.279   9.042   4.578 -0.5428  1.2930  0.3836
  809MOL0     H11619   6.169   9.178   4.542 -0.6974 -1.1904  2.7966
  809MOL0     H11620   6.308   9.010   4.310  0.2806 -0.3615 -1.3126
  809MOL0     H11621   6.367   9.165   4.362  2.1177 -2.3483 -1.3779
  809MOL0     H11622   5.562   9.079   4.947 -0.9007  0.0832 -0.7597
  809MOL0     H11623   5.370   9.147   4.798  0.7810 -0.4739 -0.9256
  809MOL0     H11624   4.983   8.882   4.555 -0.3139 -0.8958 -1.8045
  809MOL0     H11625   4.790   8.922   4.401 -0.9182 -0.7630  0.6299
  809MOL0     H11626   2.940   8.825   3.743  1.5987  1.6427  1.3702
  809MOL0     H11627   2.730   8.945   3.706  0.6031  0.9113 -0.7850
  809MOL0     H11628   2.551   9.197   3.323 -0.8825 -1.3994  1.4628
  809MOL0     H11629   2.356   9.331   3.217 -1.5978  0.9445  0.3434
  809MOL0     H11630   2.274   9.754   3.396  3.0768 -2.8150  3.3186
  809MOL0     H11631   2.139   9.718   3.296 -0.4595 -1.6533 -1.0814
  809MOL0     H11632   2.220   9.577   3.543 -0.5183  1.0090  0.3116
  809MOL0     H11633   2.136   9.490   3.413  2.8136 -0.0402 -2.1005
  809MOL0     H11634   2.024   9.756   3.543  0.1191  0.2509 -1.1137
  809MOL0     H11635   1.945   9.663   3.424 -0.2516  1.8043  0.3299
  809MOL0     H11636   1.930   9.472   3.583  2.0778 -0.1766 -1.4401
  809MOL0     H11637   1.850   9.631   3.630  1.4001  2.5745  0.7509
  809MOL0     H11638   2.125   9.487   3.928 -0.5153 -1.3584 -0.7060
  809MOL0     H11639   2.460   9.662   3.458  0.8992 -1.0041  2.0761
  809MOL0     H11640   2.633   9.672   3.592 -2.6549 -0.9214 -0.2877
  809MOL0     H11641   2.626   9.534   3.700 -3.1761  1.8998 -0.6857
  809MOL0     H11642   2.766   9.557   3.578 -0.2712 -0.9928 -0.2014
  810MOL0     O11643   1.761   5.833   5.582 -0.1326  0.8055  0.1610
  810MOL0     C11644   1.695   5.738   5.622 -0.1005  0.6037  0.0600
  810MOL0     O11645   1.557   5.742   5.636  0.5602 -0.3858 -0.1291
  810MOL0     C11646   1.496   5.858   5.589  0.4772 -0.0375 -0.5936
  810MOL0     C11647   1.410   5.949   5.659  0.0239  0.5032 -0.0540
  810MOL0     C11648   1.333   6.050   5.608  0.4745  0.3387 -0.4172
  810MOL0     C11649   1.341   6.052   5.462  0.2346 -1.3321  1.2062
  810MOL0     O11650   1.266   6.143   5.383  0.5442 -0.2518  0.0943
  810MOL0     C11651   1.260   6.284   5.427 -0.4400 -0.7018  0.4843
  810MOL0     C11652   1.246   6.370   5.297  0.0858 -0.1928 -0.6233
  810MOL0     C11653   1.185   6.507   5.326  0.8309  0.4263  0.1314
  810MOL0     C11654   1.287   6.591   5.409 -0.7735  0.3826  0.0822
  810MOL0     C11655   1.240   6.733   5.421  0.1929  0.2925  0.0569
  810MOL0     C11656   1.115   6.764   5.499  0.5438  0.5905  0.2884
  810MOL0     C11657   1.102   6.709   5.642 -0.2808 -0.0514 -0.3093
  810MOL0     C11658   1.216   6.738   5.735  0.1889 -0.1054  0.6819
  810MOL0     N11659   1.269   6.877   5.723 -0.5326  0.1034  0.7630
  810MOL0     C11660   1.199   7.005   5.709 -0.5169  0.9665  0.7856
  810MOL0     C11661   1.297   7.096   5.687 -0.9233 -0.3513 -0.2578
  810MOL0     C11662   1.264   7.237   5.646  0.5460 -0.0544 -0.5924
  810MOL0     C11663   1.322   7.267   5.511 -0.1092 -0.3735  0.3049
  810MOL0     C11664   1.237   7.208   5.393 -1.1629  0.0622 -0.1549
  810MOL0     C11665   1.332   7.225   5.264  1.0911  0.1203  0.5136
  810MOL0     O11666   1.281   7.145   5.158 -0.1881  0.2771  0.0730
  810MOL0     C11667   1.162   7.189   5.103  0.6450  0.7269  0.4865
  810MOL0     C11668   1.052   7.110   5.140  0.1915  0.2345  0.8455
  810MOL0     C11669   0.921   7.139   5.109  0.3187  0.4563  0.1453
  810MOL0     C11670   0.821   7.033   5.165  0.0094  0.1379  0.1730
  810MOL0     C11671   0.899   7.253   5.028  0.3219 -0.6889 -0.1264
  810MOL0     C11672   0.767   7.293   4.968 -0.7043  0.3985 -0.4334
  810MOL0     O11673   0.761   7.396   4.874 -0.0657  0.0210 -0.0487
  810MOL0     C11674   0.634   7.420   4.827  0.2921 -0.7925 -0.0377
  810MOL0     C11675   0.567   7.536   4.865 -0.0882  0.4823  0.1513
  810MOL0     C11676   0.463   7.575   4.789  0.5137 -0.2265  0.8430
  810MOL0     C11677   0.395   7.494   4.702  0.3040  0.0110  0.6167
  810MOL0     O11678   0.277   7.537   4.651 -0.4682 -0.3229 -0.5747
  810MOL0     C11679   0.178   7.445   4.605 -0.1618 -0.6540  0.8010
  810MOL0     C11680   0.035   7.503   4.619 -0.5768 -0.1880  0.3668
  810MOL0     C11681  -0.005   7.517   4.767  0.4607 -0.0936  0.2384
  810MOL0     C11682  -0.023   7.391   4.853  0.1447  0.2049 -0.2392
  810MOL0     C11683  -0.049   7.421   5.004  0.0674 -0.9569 -0.3509
  810MOL0     C11684  -0.149   7.536   5.029 -0.1340 -0.1454  0.5232
  810MOL0     C11685  -0.182   7.551   5.176 -0.1160 -0.3906  0.4780
  810MOL0     C11686  -0.297   7.641   5.216  0.2561  0.1751  0.6143
  810MOL0    Cl11687  -0.271   7.696   5.395 -0.6153 -0.1444 -0.1142
  810MOL0     C11688   0.466   7.381   4.665 -0.4787 -0.4601  0.5338
  810MOL0     C11689   0.582   7.345   4.729 -1.2539  0.3431  0.2211
  810MOL0     O11690   0.668   7.235   5.012 -0.1360 -0.2376 -0.3841
  810MOL0     C11691   1.004   7.337   4.993  0.0256  0.1822 -0.8765
  810MOL0     C11692   1.139   7.312   5.037  0.5592 -0.2787  0.8673
  810MOL0     N11693   1.422   7.038   5.696 -0.1774  0.0712 -0.9332
  810MOL0     N11694   1.410   6.904   5.724  0.0620 -0.3533  0.0809
  810MOL0     C11695   1.420   5.963   5.387  0.8008  0.5021  0.2488
  810MOL0     C11696   1.497   5.867   5.452  1.2165 -0.1171  0.4008
  810MOL0     C11697   1.749   5.602   5.657 -1.1973 -0.0038 -0.1517
  810MOL0     C11698   1.691   5.533   5.767  0.0805  0.6321 -0.1327
  810MOL0     C11699   1.736   5.407   5.802 -0.5745  0.3470 -0.4712
  810MOL0     C11700   1.841   5.351   5.731 -0.1196  0.8312  0.5402
  810MOL0     O11701   1.887   5.229   5.764 -0.1503  0.4946 -0.3399
  810MOL0     C11702   1.802   5.138   5.852 -0.1688 -0.1002 -0.1595
  810MOL0     C11703   1.841   4.997   5.836 -0.0969  0.2405  0.3267
  810MOL0     C11704   1.856   4.954   5.685  0.2881  0.0863 -0.2773
  810MOL0     C11705   1.802   4.810   5.658 -0.2315 -1.3611  0.3477
  810MOL0     C11706   1.660   4.794   5.672  0.6562  0.3231  0.9503
  810MOL0     C11707   1.541   4.792   5.653 -0.0887  0.6848  0.5358
  810MOL0     C11708   1.907   5.423   5.634  0.3115 -0.1353  0.0983
  810MOL0     C11709   1.866   5.548   5.592 -0.3712  0.2960  1.0892
  810MOL0     C11710   1.949   5.623   5.489 -0.1085  0.0843 -0.5784
  810MOL0     H11711   1.426   5.953   5.767  0.4464  3.9995 -0.1078
  810MOL0     H11712   1.279   6.121   5.670  1.7861  1.2586 -0.2723
  810MOL0     H11713   1.341   6.310   5.496 -2.4080  1.1114  2.2786
  810MOL0     H11714   1.174   6.303   5.492  0.3809  0.9094  1.1740
  810MOL0     H11715   1.328   6.358   5.226  1.3238  2.2368  0.2720
  810MOL0     H11716   1.167   6.330   5.232  0.2418  1.9157 -2.2126
  810MOL0     H11717   1.144   6.549   5.234 -2.9864 -4.1750 -0.6346
  810MOL0     H11718   1.092   6.484   5.379  0.2274 -1.3091 -1.5878
  810MOL0     H11719   1.292   6.547   5.509 -0.5032  5.0462  2.4502
  810MOL0     H11720   1.381   6.589   5.354  0.2008  1.0889  1.6491
  810MOL0     H11721   1.237   6.771   5.319 -1.7618 -1.9224 -0.7934
  810MOL0     H11722   1.326   6.778   5.473  1.3921  0.3420 -1.8600
  810MOL0     H11723   1.121   6.873   5.503  1.8065  0.6561 -1.8272
  810MOL0     H11724   1.027   6.733   5.441  1.1227  0.2029 -0.3865
  810MOL0     H11725   1.100   6.600   5.630 -0.3256 -0.2523  1.2407
  810MOL0     H11726   1.012   6.743   5.694 -0.8331 -0.5858 -0.9001
  810MOL0     H11727   1.179   6.707   5.833 -0.3190 -0.7030  0.3036
  810MOL0     H11728   1.296   6.670   5.705 -0.7597 -0.9603  0.0434
  810MOL0     H11729   1.092   7.016   5.697 -0.3705  1.4769 -0.1657
  810MOL0     H11730   1.302   7.307   5.721 -0.4078 -1.9040  1.7274
  810MOL0     H11731   1.155   7.238   5.642  0.5543 -0.5001 -0.9654
  810MOL0     H11732   1.321   7.375   5.496 -1.0135 -0.7761 -3.3941
  810MOL0     H11733   1.426   7.237   5.496 -0.0818 -0.1290 -0.0057
  810MOL0     H11734   1.220   7.103   5.416 -0.2280  0.4564  2.6507
  810MOL0     H11735   1.142   7.257   5.369 -0.9787 -1.6976 -6.1007
  810MOL0     H11736   1.332   7.324   5.218  0.5836  0.6859  1.7004
  810MOL0     H11737   1.435   7.192   5.285  1.6016 -0.1844 -2.0704
  810MOL0     H11738   1.072   7.023   5.202 -2.6342  0.2943  2.0272
  810MOL0     H11739   0.728   7.041   5.109  1.8428 -0.0366 -3.1628
  810MOL0     H11740   0.800   7.054   5.271 -1.3820  2.6655 -0.5267
  810MOL0     H11741   0.854   6.933   5.139  0.9864  1.2587 -3.4007
  810MOL0     H11742   0.612   7.606   4.935 -3.2042  1.9219  0.9215
  810MOL0     H11743   0.416   7.672   4.800  0.2720 -0.4388  1.7510
  810MOL0     H11744   0.201   7.428   4.500 -0.9030 -0.3533  0.5833
  810MOL0     H11745   0.192   7.345   4.647  1.2143 -0.9076 -0.2111
  810MOL0     H11746   0.022   7.589   4.552 -0.8183  0.7606  1.6029
  810MOL0     H11747  -0.032   7.428   4.576 -1.2540  0.2741  0.5933
  810MOL0     H11748  -0.099   7.572   4.770 -0.9464 -2.2137 -1.4076
  810MOL0     H11749   0.068   7.581   4.818 -2.5492  4.6841 -0.7821
  810MOL0     H11750   0.062   7.323   4.846  0.9785  1.4051 -3.2501
  810MOL0     H11751  -0.110   7.337   4.814 -0.3690 -0.0617  1.1869
  810MOL0     H11752  -0.100   7.337   5.052 -2.4134  1.4299  1.4719
  810MOL0     H11753   0.040   7.440   5.064  0.2645  3.1557 -1.6223
  810MOL0     H11754  -0.246   7.524   4.979  1.6043  0.3863 -3.2661
  810MOL0     H11755  -0.106   7.629   4.992 -0.4792 -0.6294 -1.2137
  810MOL0     H11756  -0.091   7.596   5.217 -1.0781  0.1472  2.1657
  810MOL0     H11757  -0.191   7.451   5.220  1.0012 -0.7963 -0.1920
  810MOL0     H11758  -0.396   7.595   5.206 -1.5309  3.7129  0.2941
  810MOL0     H11759  -0.297   7.730   5.152 -1.1595  0.0384  0.3828
  810MOL0     H11760   0.427   7.330   4.577  0.9924  1.1688 -1.1634
  810MOL0     H11761   0.627   7.252   4.697 -2.4388 -0.1808  0.0448
  810MOL0     H11762   1.000   7.417   4.921 -2.4828  0.2540 -0.7484
  810MOL0     H11763   1.217   7.381   5.007 -0.2047  0.2088 -0.0702
  810MOL0     H11764   1.424   5.963   5.279 -1.2029  0.7143  0.1473
  810MOL0     H11765   1.551   5.796   5.390  2.1996  1.8377 -1.0829
  810MOL0     H11766   1.599   5.573   5.808 -1.0944 -0.5255 -1.5406
  810MOL0     H11767   1.696   5.354   5.888 -0.3281 -2.4395 -1.9721
  810MOL0     H11768   1.812   5.169   5.957 -0.4590  2.6062 -0.8807
  810MOL0     H11769   1.698   5.154   5.823  1.1207  2.1951 -4.1462
  810MOL0     H11770   1.763   4.937   5.882 -0.8272 -0.7105 -1.9986
  810MOL0     H11771   1.932   4.971   5.892 -0.9058 -1.5945  0.8459
  810MOL0     H11772   1.797   5.021   5.621 -4.2928 -0.9402  2.4220
  810MOL0     H11773   1.961   4.950   5.654  0.1858 -2.1387 -0.5018
  810MOL0     H11774   1.854   4.744   5.728 -1.1150 -2.8792 -0.3580
  810MOL0     H11775   1.825   4.778   5.556 -0.7664 -0.4718 -0.0679
  810MOL0     H11776   1.438   4.819   5.644  0.2018  2.4338  1.9557
  810MOL0     H11777   1.989   5.369   5.588 -0.6066 -1.3518 -0.1547
  810MOL0     H11778   2.029   5.556   5.458 -0.5938  0.3796 -2.5628
  810MOL0     H11779   1.903   5.648   5.393 -0.2552  0.9755 -0.2861
  810MOL0     H11780   1.986   5.716   5.534  1.3326 -1.4810  1.6604
  811MOL0     O11781   2.305  10.211   4.900 -0.8923 -0.0119 -0.4365
  811MOL0     C11782   2.307  10.302   4.985  0.3172  0.3932 -0.0297
  811MOL0     O11783   2.386  10.407   4.978 -0.1212 -0.2412 -0.3253
  811MOL0     C11784   2.496  10.426   4.896  0.3543 -0.6596 -0.5955
  811MOL0     C11785   2.523  10.373   4.773  1.5243  0.4687  0.2122
  811MOL0     C11786   2.649  10.413   4.705  0.4246 -0.8036 -0.2810
  811MOL0     C11787   2.734  10.508   4.767  0.2327  0.8123 -0.3635
  811MOL0     O11788   2.858  10.535   4.712 -0.2702 -0.2504 -0.1043
  811MOL0     C11789   2.876  10.676   4.665  0.5987  0.4672 -0.3725
  811MOL0     C11790   3.005  10.693   4.580  0.1266  0.5169 -0.9634
  811MOL0     C11791   3.129  10.668   4.681 -0.0452  0.6500  0.3344
  811MOL0     C11792   3.259  10.690   4.606  0.1155  0.0200  0.7221
  811MOL0     C11793   3.338  10.815   4.639  0.5727  0.3026 -1.2449
  811MOL0     C11794   3.461  10.849   4.550  0.3229  0.7615 -0.0340
  811MOL0     C11795   3.516  10.977   4.604 -0.4682  0.0892 -0.8776
  811MOL0     C11796   3.632  11.038   4.519  0.3861  0.4472  0.9166
  811MOL0     N11797   3.708  10.948   4.442 -0.8895 -0.1620  0.9562
  811MOL0     C11798   3.664  10.886   4.327 -0.2201  0.4882  0.3749
  811MOL0     C11799   3.761  10.804   4.288  0.2565  0.1431  0.3385
  811MOL0     C11800   3.759  10.722   4.168 -0.0705 -0.3673  0.1311
  811MOL0     C11801   3.683  10.583   4.189  0.9120  0.4550  0.4825
  811MOL0     C11802   3.675  10.495   4.067 -0.3317 -0.5016 -0.3178
  811MOL0     C11803   3.552  10.546   3.988  0.0009 -0.0083 -0.1320
  811MOL0     O11804   3.527  10.445   3.880  0.6127 -0.0974 -0.3997
  811MOL0     C11805   3.397  10.449   3.838 -0.4099  1.0446  0.4132
  811MOL0     C11806   3.306  10.350   3.878  0.2364  0.1897 -0.3871
  811MOL0     C11807   3.171  10.367   3.844 -0.2347 -0.7848  0.5035
  811MOL0     C11808   3.067  10.268   3.895 -0.1277  0.6487 -1.1109
  811MOL0     C11809   3.127  10.473   3.760 -0.1714  0.5457  0.1485
  811MOL0     C11810   2.986  10.481   3.718 -0.3916 -0.0517  0.9146
  811MOL0     O11811   2.948  10.387   3.622  0.1493 -0.4749 -0.0007
  811MOL0     C11812   2.818  10.391   3.583 -0.0405  0.3872 -0.6692
  811MOL0     C11813   2.704  10.364   3.664 -0.8461 -0.1992  0.5198
  811MOL0     C11814   2.575  10.363   3.621 -0.0498 -0.0868 -0.1712
  811MOL0     C11815   2.548  10.399   3.487  1.3004 -0.5533  0.1365
  811MOL0     O11816   2.421  10.380   3.442 -0.1632 -0.4972  0.1307
  811MOL0     C11817   2.384  10.462   3.326 -0.9986  0.7172 -0.1885
  811MOL0     C11818   2.240  10.438   3.290 -0.3369  0.6899 -0.2048
  811MOL0     C11819   2.146  10.547   3.350 -0.2211 -1.0888 -0.3353
  811MOL0     C11820   2.005  10.520   3.290  0.3186  1.2065  0.1172
  811MOL0     C11821   1.896  10.626   3.344 -1.0489 -0.8293  0.1971
  811MOL0     C11822   1.762  10.600   3.278  0.3208 -0.2425 -0.4909
  811MOL0     C11823   1.680  10.723   3.313 -0.9022 -0.0176 -0.1302
  811MOL0     C11824   1.535  10.690   3.295  0.1460 -0.2850  0.9002
  811MOL0    Cl11825   1.508  10.640   3.116 -0.0518  0.2306  0.0945
  811MOL0     C11826   2.661  10.429   3.404  0.2735  0.0478 -1.2711
  811MOL0     C11827   2.791  10.432   3.452 -0.2305 -0.4204  0.0055
  811MOL0     O11828   2.913  10.567   3.773  0.1087 -0.2950  0.3802
  811MOL0     C11829   3.215  10.563   3.715 -0.0767  0.5872 -0.0627
  811MOL0     C11830   3.350  10.554   3.759 -0.2800 -0.6329 -0.6571
  811MOL0     N11831   3.870  10.829   4.375  0.5148 -0.0179  0.1805
  811MOL0     N11832   3.836  10.916   4.469  0.2728  0.1029  0.5689
  811MOL0     C11833   2.693  10.556   4.884 -0.6063 -0.2265 -0.1459
  811MOL0     C11834   2.581  10.516   4.955 -1.2053 -0.2748 -0.7239
  811MOL0     C11835   2.208  10.307   5.092 -0.6313  0.2522 -1.0532
  811MOL0     C11836   2.194  10.417   5.179  0.6253  0.9888  0.4690
  811MOL0     C11837   2.106  10.419   5.284  0.0951 -0.0475  0.0051
  811MOL0     C11838   2.036  10.307   5.317  1.0074 -0.3577 -0.4406
  811MOL0     O11839   1.945  10.299   5.427  0.6180  0.5960  0.5759
  811MOL0     C11840   1.879  10.410   5.466  0.7206  0.5051 -0.6631
  811MOL0     C11841   1.760  10.453   5.383  0.2048  0.4619  0.5304
  811MOL0     C11842   1.652  10.541   5.446  0.0500 -0.5248  0.9225
  811MOL0     C11843   1.576  10.467   5.553 -0.3293 -0.0073  0.3364
  811MOL0     C11844   1.615  10.511   5.685  0.2756 -0.8278 -0.6006
  811MOL0     C11845   1.650  10.560   5.790 -0.8191  0.0306 -0.7607
  811MOL0     C11846   2.049  10.196   5.236 -0.5517 -0.2305  0.6750
  811MOL0     C11847   2.123  10.194   5.112 -0.0029  0.1749 -0.2332
  811MOL0     C11848   2.113  10.070   5.030 -0.3952 -0.8886  0.1926
  811MOL0     H11849   2.460  10.305   4.716  0.8355  3.3689 -2.8074
  811MOL0     H11850   2.660  10.370   4.606 -2.0640  1.3004 -1.5813
  811MOL0     H11851   2.883  10.757   4.739 -3.0981  0.3134  0.3150
  811MOL0     H11852   2.799  10.707   4.593  0.0262  1.1870  0.5260
  811MOL0     H11853   3.007  10.622   4.496 -1.9991 -0.8849  0.0804
  811MOL0     H11854   3.012  10.795   4.541 -0.4376  0.9600  0.0565
  811MOL0     H11855   3.130  10.736   4.767  0.6842  0.7804  0.2259
  811MOL0     H11856   3.120  10.564   4.714 -1.7769  0.0700 -1.7524
  811MOL0     H11857   3.313  10.596   4.620  0.7691  0.3468  0.4440
  811MOL0     H11858   3.233  10.698   4.500 -2.4030  0.1600  1.3003
  811MOL0     H11859   3.372  10.811   4.743  2.7459  1.4876 -1.8512
  811MOL0     H11860   3.269  10.898   4.620  1.8138  2.3399  2.3149
  811MOL0     H11861   3.531  10.765   4.547 -0.9961 -0.4821  1.6084
  811MOL0     H11862   3.421  10.865   4.450  1.3274 -2.1506 -0.9960
  811MOL0     H11863   3.557  10.947   4.701 -3.9097 -0.7061  0.4744
  811MOL0     H11864   3.439  11.054   4.614 -2.0852 -1.1247 -3.1924
  811MOL0     H11865   3.605  11.117   4.449 -0.6283 -1.6199 -1.1330
  811MOL0     H11866   3.694  11.092   4.591  2.4055 -1.3426  0.6247
  811MOL0     H11867   3.570  10.910   4.278 -0.5185 -0.3010  0.5560
  811MOL0     H11868   3.862  10.698   4.140 -0.3311 -1.0056 -0.3080
  811MOL0     H11869   3.715  10.780   4.086  0.3859  2.5188  1.7836
  811MOL0     H11870   3.742  10.525   4.260 -0.9990  0.9089  2.5719
  811MOL0     H11871   3.580  10.594   4.224 -0.3926  0.6336 -3.0239
  811MOL0     H11872   3.769  10.499   4.012  0.3230 -1.4157  0.7116
  811MOL0     H11873   3.656  10.395   4.107 -3.1954  0.4330  0.9500
  811MOL0     H11874   3.465  10.562   4.052 -0.1324  0.7866 -0.4914
  811MOL0     H11875   3.583  10.644   3.948  0.0012  0.4981  1.0761
  811MOL0     H11876   3.352  10.273   3.940  1.3897 -2.2017 -3.8765
  811MOL0     H11877   3.113  10.200   3.968 -2.4774 -2.4459 -2.2753
  811MOL0     H11878   3.015  10.201   3.825  0.3213 -1.1811  0.2545
  811MOL0     H11879   2.997  10.329   3.953 -2.1085 -0.6211 -2.0492
  811MOL0     H11880   2.732  10.337   3.766  0.6786  0.0500  0.1967
  811MOL0     H11881   2.492  10.338   3.687  1.4248 -0.2259  1.7137
  811MOL0     H11882   2.394  10.566   3.357 -0.4207 -0.2324  3.1145
  811MOL0     H11883   2.438  10.438   3.233 -0.7333  1.5254 -0.2532
  811MOL0     H11884   2.235  10.434   3.181  2.8790 -1.4879 -0.4061
  811MOL0     H11885   2.205  10.342   3.327 -1.9777  0.9252 -1.0708
  811MOL0     H11886   2.188  10.646   3.331  0.1321 -1.2107 -0.1833
  811MOL0     H11887   2.148  10.536   3.459  0.2114 -0.8506 -0.3195
  811MOL0     H11888   1.968  10.424   3.329  1.6587  0.0930 -1.2073
  811MOL0     H11889   2.018  10.515   3.181  0.7870  1.6143  0.1544
  811MOL0     H11890   1.883  10.605   3.450 -3.3372 -0.7614 -0.0211
  811MOL0     H11891   1.931  10.729   3.327  0.7110 -0.9694  2.5512
  811MOL0     H11892   1.714  10.505   3.301  0.3897 -0.4178 -1.0429
  811MOL0     H11893   1.765  10.597   3.169 -2.9938  0.7672 -0.7147
  811MOL0     H11894   1.714  10.808   3.253 -0.7744  1.7111  2.2590
  811MOL0     H11895   1.694  10.750   3.418 -1.1802 -2.3401  0.5746
  811MOL0     H11896   1.485  10.787   3.311  0.1670 -0.1343  0.1066
  811MOL0     H11897   1.496  10.619   3.369 -1.6905 -1.0011 -0.6743
  811MOL0     H11898   2.650  10.443   3.297  0.1921 -2.4608 -1.6666
  811MOL0     H11899   2.867  10.468   3.383 -1.1461  1.2233 -0.2150
  811MOL0     H11900   3.183  10.638   3.642 -1.0944  0.4135  0.1929
  811MOL0     H11901   3.432  10.614   3.721  0.5561 -2.1223 -1.2724
  811MOL0     H11902   2.759  10.628   4.931  0.8859  0.3147 -2.8228
  811MOL0     H11903   2.550  10.560   5.049 -1.6216  0.6398 -1.2753
  811MOL0     H11904   2.238  10.512   5.151 -1.4460  1.5793 -1.1147
  811MOL0     H11905   2.101  10.508   5.346  2.1097 -0.5178  0.9349
  811MOL0     H11906   1.850  10.395   5.571  4.7174 -3.3597  0.2038
  811MOL0     H11907   1.943  10.498   5.481 -0.8324  1.4906  0.5192
  811MOL0     H11908   1.714  10.360   5.348 -1.0657  1.2070  0.1457
  811MOL0     H11909   1.803  10.498   5.293 -0.7727  2.3166  0.9368
  811MOL0     H11910   1.690  10.636   5.484 -2.6782  0.4878  1.3187
  811MOL0     H11911   1.570  10.573   5.381 -0.7640 -1.2251  1.5727
  811MOL0     H11912   1.589  10.359   5.546  0.2672  0.1432 -1.6589
  811MOL0     H11913   1.468  10.484   5.547 -0.0723  1.7206  0.0051
  811MOL0     H11914   1.654  10.600   5.889  2.4105 -0.4663 -0.5695
  811MOL0     H11915   1.969  10.128   5.261 -0.4271 -0.8473 -0.5358
  811MOL0     H11916   2.039  10.005   5.078 -1.2607 -0.1005 -0.0556
  811MOL0     H11917   2.078  10.092   4.929  2.0674  0.2974 -0.4820
  811MOL0     H11918   2.206  10.014   5.013 -0.7797 -1.5380  0.1832
  812MOL0     O11919   1.092  11.101  10.868 -0.0905 -0.0072  0.0462
  812MOL0     C11920   1.110  11.219  10.842  0.0635 -0.2691 -0.5463
  812MOL0     O11921   1.023  11.320  10.873  0.4340  0.9064  0.6791
  812MOL0     C11922   0.901  11.285  10.932  0.2513 -1.3147 -0.1735
  812MOL0     C11923   0.786  11.275  10.856 -0.7647 -0.5499 -0.2532
  812MOL0     C11924   0.660  11.232  10.914 -0.0929  1.0872 -0.2594
  812MOL0     C11925   0.649  11.217  11.051  0.3058  1.1629 -0.6249
  812MOL0     O11926   0.532  11.157  11.119 -0.0751  0.1223  0.1850
  812MOL0     C11927   0.443  11.073  11.048  0.8597 -0.2158  0.4022
  812MOL0     C11928   0.495  10.939  11.008 -0.2658 -0.2154 -0.6131
  812MOL0     C11929   0.563  10.874  11.132  0.5580 -0.6832  0.5391
  812MOL0     C11930   0.584  10.730  11.106 -0.2892 -0.1447  0.2033
  812MOL0     C11931   0.640  10.676  11.239 -0.0897 -0.9047  0.5596
  812MOL0     C11932   0.676  10.530  11.251  0.0474  0.5002  0.3893
  812MOL0     C11933   0.734  10.502  11.392  0.2414 -0.8708  0.2080
  812MOL0     C11934   0.860  10.578  11.433  0.0507  0.0143 -0.4140
  812MOL0     N11935   0.988  10.536  11.375  0.7970 -0.5526 -0.1557
  812MOL0     C11936   1.101  10.584  11.429  0.3913  0.0214 -0.7453
  812MOL0     C11937   1.197  10.535  11.349 -0.3568 -0.0969  1.1632
  812MOL0     C11938   1.352  10.546  11.350 -0.3939  0.1491  0.3288
  812MOL0     C11939   1.411  10.548  11.490 -0.8244 -0.2316  0.4017
  812MOL0     C11940   1.558  10.562  11.483 -0.3645 -1.3025  0.0326
  812MOL0     C11941   1.615  10.705  11.482 -0.5677 -0.1869  1.4429
  812MOL0     O11942   1.566  10.782  11.587  0.4015  0.6575 -0.1571
  812MOL0     C11943   1.616  10.783  11.716  0.2291  0.5807  0.4206
  812MOL0     C11944   1.550  10.868  11.805 -0.4658 -0.0495 -0.0984
  812MOL0     C11945   1.603  10.894  11.928 -0.4340 -0.7011 -0.3201
  812MOL0     C11946   1.528  10.986  12.029 -0.2190 -0.1072 -0.7369
  812MOL0     C11947   1.730  10.834  11.966 -0.1815 -0.3290 -0.5393
  812MOL0     C11948   1.795  10.845  12.103 -0.2294  0.4846  0.3290
  812MOL0     O11949   1.919  10.782  12.120 -0.2813  0.2789  0.0087
  812MOL0     C11950   1.975  10.782  12.250  0.7325 -0.2302  0.8032
  812MOL0     C11951   2.109  10.767  12.251 -1.1411 -0.3388 -0.1750
  812MOL0     C11952   2.180  10.759  12.369 -0.1864 -0.2162  0.8573
  812MOL0     C11953   2.121  10.756  12.484  0.5079 -0.1706 -0.3377
  812MOL0     O11954   2.194  10.751  12.602  0.5568  0.4468  0.9819
  812MOL0     C11955   2.331  10.781  12.617  0.2529  0.3727 -0.3727
  812MOL0     C11956   2.342  10.820  12.763  0.0523  0.8448  0.5061
  812MOL0     C11957   2.486  10.884  12.786  0.6273 -0.1030 -0.2630
  812MOL0     C11958   2.507  10.947  12.936  0.4724 -0.3283  0.4700
  812MOL0     C11959   2.653  10.979  12.966  0.1149  0.1164  0.0366
  812MOL0     C11960   2.746  10.858  13.003  0.5477 -0.6919  0.1554
  812MOL0     C11961   2.889  10.897  13.023 -0.0441 -0.1664 -0.0774
  812MOL0     C11962   2.952  10.977  12.914 -0.2708 -0.2196  0.1392
  812MOL0    Cl11963   3.125  10.976  12.951 -0.0087  0.0819  0.4513
  812MOL0     C11964   1.982  10.757  12.493  0.7401  0.2094  0.2304
  812MOL0     C11965   1.911  10.771  12.367  0.3213  0.7740 -0.7116
  812MOL0     O11966   1.739  10.910  12.188  0.4551  0.4331  0.6917
  812MOL0     C11967   1.792  10.748  11.878 -0.2440  0.4508  0.0666
  812MOL0     C11968   1.735  10.723  11.758 -0.2027  0.2639  1.2409
  812MOL0     N11969   1.140  10.456  11.249  0.1946 -0.1753 -0.4017
  812MOL0     N11970   1.009  10.464  11.261 -0.0002  0.3075  0.2356
  812MOL0     C11971   0.761  11.243  11.125  0.8940 -0.4054 -0.4426
  812MOL0     C11972   0.885  11.271  11.064  0.0686 -0.0488 -0.0030
  812MOL0     C11973   1.239  11.246  10.779  1.2336  0.2186  0.5678
  812MOL0     C11974   1.340  11.162  10.813 -0.2811 -0.5147 -0.6177
  812MOL0     C11975   1.468  11.170  10.753  1.2444 -0.5731  0.8735
  812MOL0     C11976   1.495  11.255  10.644  0.0861 -0.7919 -0.0274
  812MOL0     O11977   1.616  11.278  10.590  0.1817  0.8948 -0.4386
  812MOL0     C11978   1.724  11.188  10.629 -0.6653  0.4986  0.7015
  812MOL0     C11979   1.786  11.222  10.762 -0.1797 -0.0228 -1.1213
  812MOL0     C11980   1.929  11.168  10.766  0.1473 -0.4224  0.0220
  812MOL0     C11981   2.005  11.175  10.898  1.1220 -0.9734 -0.2981
  812MOL0     C11982   2.000  11.316  10.944  0.0364 -0.8584 -0.6800
  812MOL0     C11983   1.984  11.424  10.989 -0.2281 -0.2764 -0.4539
  812MOL0     C11984   1.383  11.339  10.605  0.8924 -0.5204  0.3950
  812MOL0     C11985   1.256  11.336  10.668  0.1699  0.1406  0.0343
  812MOL0     C11986   1.140  11.415  10.605 -0.0939  0.2049  0.1771
  812MOL0     H11987   0.801  11.278  10.748 -0.1621 -1.8518 -0.2321
  812MOL0     H11988   0.583  11.197  10.847 -0.0887 -0.9472  0.7408
  812MOL0     H11989   0.404  11.115  10.955  1.8596 -1.3379 -0.5670
  812MOL0     H11990   0.352  11.060  11.107  0.5320  0.6000  0.0836
  812MOL0     H11991   0.408  10.880  10.977  0.6573 -1.5853 -0.7142
  812MOL0     H11992   0.566  10.933  10.926  1.7688 -0.5317  1.0807
  812MOL0     H11993   0.662  10.918  11.147  1.3531 -2.1641 -0.1325
  812MOL0     H11994   0.501  10.893  11.220 -1.0391  0.3596 -0.7632
  812MOL0     H11995   0.493  10.682  11.068  0.0506  0.3889 -1.3651
  812MOL0     H11996   0.661  10.716  11.030  0.7000 -1.4736  1.4145
  812MOL0     H11997   0.571  10.701  11.320  2.2679 -2.3535  3.1758
  812MOL0     H11998   0.734  10.731  11.251 -1.3051  2.3667 -2.8807
  812MOL0     H11999   0.599  10.454  11.235  2.3924 -1.8296 -0.5252
  812MOL0     H12000   0.756  10.509  11.179 -0.6095  4.1194 -1.6399
  812MOL0     H12001   0.743  10.393  11.398  0.1007 -1.2326 -3.6871
  812MOL0     H12002   0.656  10.541  11.458  1.0240 -0.1978  0.7562
  812MOL0     H12003   0.845  10.686  11.426  1.6112  0.4313  1.8778
  812MOL0     H12004   0.872  10.551  11.538  3.3561 -2.4919 -1.2640
  812MOL0     H12005   1.113  10.638  11.523 -0.7734  2.0654 -1.7050
  812MOL0     H12006   1.383  10.638  11.298 -0.7091 -0.8874 -1.7812
  812MOL0     H12007   1.391  10.459  11.298 -0.9121  0.4105 -0.5028
  812MOL0     H12008   1.359  10.623  11.549 -0.8365  0.8453 -0.9148
  812MOL0     H12009   1.394  10.456  11.547 -1.5160  0.2033  0.9093
  812MOL0     H12010   1.599  10.515  11.573  2.2489 -0.6412 -0.7144
  812MOL0     H12011   1.597  10.511  11.394  3.1941 -0.5814  1.0245
  812MOL0     H12012   1.723  10.696  11.491 -0.3641  1.9427  1.7305
  812MOL0     H12013   1.602  10.758  11.387 -0.8449  1.8935  2.5662
  812MOL0     H12014   1.466  10.932  11.778  1.7164  3.3768  0.7004
  812MOL0     H12015   1.428  11.013  11.994 -0.0322 -0.3644 -1.4975
  812MOL0     H12016   1.590  11.075  12.045 -4.2592  2.4919  2.6225
  812MOL0     H12017   1.514  10.938  12.126 -0.1092 -0.0715 -0.7035
  812MOL0     H12018   2.163  10.798  12.162 -2.3199  2.7921  0.0760
  812MOL0     H12019   2.288  10.765  12.363 -0.1838 -0.9473 -0.1261
  812MOL0     H12020   2.391  10.692  12.597  0.3679 -0.3008  2.5299
  812MOL0     H12021   2.366  10.860  12.549 -0.0487 -1.3670 -2.6772
  812MOL0     H12022   2.266  10.898  12.781  0.8697  2.2648 -1.7581
  812MOL0     H12023   2.317  10.735  12.828  0.8221 -0.3571 -0.7252
  812MOL0     H12024   2.487  10.965  12.712  2.5957  2.0061  1.9021
  812MOL0     H12025   2.566  10.813  12.763 -0.1529 -0.1255 -3.3567
  812MOL0     H12026   2.459  10.902  13.024  0.8961  3.1665  2.6682
  812MOL0     H12027   2.466  11.048  12.937 -3.3314 -1.6923 -0.4296
  812MOL0     H12028   2.702  11.027  12.881  0.6935  0.5800  0.6292
  812MOL0     H12029   2.650  11.056  13.043 -0.3150  1.7089 -1.4945
  812MOL0     H12030   2.747  10.780  12.927  0.6357  0.6227 -1.2262
  812MOL0     H12031   2.707  10.819  13.098 -3.5797  3.0061  0.2784
  812MOL0     H12032   2.946  10.807  13.049  1.8611  1.1486  0.6166
  812MOL0     H12033   2.911  10.955  13.113 -0.1823 -0.3577  0.0804
  812MOL0     H12034   2.907  11.076  12.919 -2.0834 -1.0305  1.2515
  812MOL0     H12035   2.929  10.933  12.816  2.2620 -2.0565  0.2480
  812MOL0     H12036   1.934  10.745  12.589  0.7285 -0.2776  0.1652
  812MOL0     H12037   1.803  10.761  12.363  0.5252 -1.6854 -1.5470
  812MOL0     H12038   1.882  10.690  11.893  0.3106  1.5448  1.2469
  812MOL0     H12039   1.796  10.658  11.697 -1.1577  0.2726  0.2378
  812MOL0     H12040   0.742  11.241  11.232 -0.0662 -1.7325 -0.6082
  812MOL0     H12041   0.975  11.285  11.122 -0.7940  6.1249  0.5734
  812MOL0     H12042   1.318  11.082  10.883 -1.9823 -0.6150 -1.2212
  812MOL0     H12043   1.542  11.107  10.802  1.1013  0.0730  1.9703
  812MOL0     H12044   1.697  11.082  10.633  1.6865 -0.1548  0.9753
  812MOL0     H12045   1.805  11.207  10.558  0.3458  0.4194  1.7902
  812MOL0     H12046   1.730  11.175  10.844  1.5833  1.1947  0.9006
  812MOL0     H12047   1.777  11.331  10.768 -1.2250 -0.1627  0.4843
  812MOL0     H12048   1.925  11.063  10.736  1.6140 -0.5823  0.2874
  812MOL0     H12049   1.987  11.208  10.683 -3.2458 -0.4163 -2.5686
  812MOL0     H12050   2.107  11.137  10.903  1.8416  0.9062  0.5016
  812MOL0     H12051   1.939  11.133  10.975 -1.1068 -1.7883 -2.5225
  812MOL0     H12052   1.960  11.520  11.029  1.8299 -0.5426  1.6803
  812MOL0     H12053   1.386  11.420  10.532 -1.1577  2.0011  2.8753
  812MOL0     H12054   1.147  11.429  10.497  0.4065 -1.1654  0.0101
  812MOL0     H12055   1.043  11.366  10.620 -0.8628  2.2584  2.5128
  812MOL0     H12056   1.135  11.512  10.654 -2.4033  0.3194 -0.1590
  813MOL0     O12057   1.217   9.642   0.560 -0.0743  0.0447 -0.1377
  813MOL0     C12058   1.284   9.587   0.464  0.2947 -0.3018 -0.3509
  813MOL0     O12059   1.238   9.554   0.342 -0.0483 -0.7319  0.1305
  813MOL0     C12060   1.110   9.576   0.309  0.1723 -0.5120  0.4038
  813MOL0     C12061   1.078   9.703   0.253 -0.2438  0.3101  0.1524
  813MOL0     C12062   0.946   9.723   0.209  0.6757 -0.0065  0.1438
  813MOL0     C12063   0.844   9.638   0.228 -0.4526 -0.3727  0.1910
  813MOL0     O12064   0.711   9.677   0.195 -0.4879  0.2954  0.4325
  813MOL0     C12065   0.645   9.775   0.272  0.5310 -0.2002  1.1315
  813MOL0     C12066   0.504   9.806   0.212 -0.2157 -0.2870 -1.3851
  813MOL0     C12067   0.410   9.682   0.232  1.1255  0.2247 -0.2955
  813MOL0     C12068   0.269   9.742   0.211 -0.5906 -0.3100  0.8442
  813MOL0     C12069   0.153   9.648   0.239  0.3122  0.0066 -0.7429
  813MOL0     C12070   0.022   9.733   0.284  0.2004  0.0014  0.0529
  813MOL0     C12071  -0.101   9.636   0.312  0.0535  0.9432 -0.3400
  813MOL0     C12072  -0.216   9.735   0.327  0.9147  0.4367 -0.0184
  813MOL0     N12073  -0.330   9.668   0.386 -0.2289  0.3684  0.4190
  813MOL0     C12074  -0.390   9.709   0.507  0.6538 -0.7348 -0.0741
  813MOL0     C12075  -0.488   9.625   0.528 -0.2684 -0.4304  0.0342
  813MOL0     C12076  -0.586   9.615   0.651  0.7419 -0.5939  0.6415
  813MOL0     C12077  -0.726   9.659   0.609  0.4046 -0.0323  0.3381
  813MOL0     C12078  -0.729   9.802   0.572  0.1472 -1.3510  0.1924
  813MOL0     C12079  -0.844   9.845   0.479 -0.2389  0.2468 -0.1800
  813MOL0     O12080  -0.835   9.990   0.453 -0.1032  0.6824  0.7879
  813MOL0     C12081  -0.932  10.042   0.369 -0.5906  0.9996 -0.0182
  813MOL0     C12082  -0.918  10.173   0.323 -0.3182 -0.7256 -0.7787
  813MOL0     C12083  -1.005  10.234   0.241  0.5476 -0.0470  0.6461
  813MOL0     C12084  -0.989  10.385   0.234 -0.7792  0.6093  0.2067
  813MOL0     C12085  -1.114  10.158   0.190  0.5827  0.5089  0.1024
  813MOL0     C12086  -1.234  10.214   0.106 -0.3051 -1.1090 -0.8663
  813MOL0     O12087  -1.242  10.346   0.092 -0.8020 -0.3929 -0.5948
  813MOL0     C12088  -1.313  10.414  -0.009 -0.1607 -0.5286  0.5390
  813MOL0     C12089  -1.251  10.431  -0.132  0.4121  0.5120 -0.3224
  813MOL0     C12090  -1.322  10.492  -0.235 -0.0959 -0.1066  0.1936
  813MOL0     C12091  -1.454  10.546  -0.206  0.1839  0.2474  0.4408
  813MOL0     O12092  -1.535  10.603  -0.295  0.7522  0.0137 -0.3444
  813MOL0     C12093  -1.484  10.703  -0.391  0.6399  0.0990  0.3801
  813MOL0     C12094  -1.432  10.829  -0.308 -0.9640 -0.0111  0.2228
  813MOL0     C12095  -1.386  10.936  -0.409  1.4538  0.2443  0.0624
  813MOL0     C12096  -1.320  11.054  -0.333  1.0800 -0.9772  0.2837
  813MOL0     C12097  -1.168  11.049  -0.348 -0.8737  0.1174  0.5023
  813MOL0     C12098  -1.112  11.060  -0.492  0.6818  0.3159  0.2001
  813MOL0     C12099  -0.950  11.079  -0.497 -0.0284  1.0119 -0.4275
  813MOL0     C12100  -0.894  11.089  -0.634  0.3870 -0.0841  1.1794
  813MOL0    Cl12101  -0.883  11.269  -0.684  0.0302  0.0656 -0.0366
  813MOL0     C12102  -1.507  10.540  -0.089 -0.6577  0.0220 -0.2821
  813MOL0     C12103  -1.436  10.475   0.016 -0.0813  0.1351  0.2097
  813MOL0     O12104  -1.306  10.135   0.047 -0.3310 -0.0184 -0.0610
  813MOL0     C12105  -1.112  10.016   0.216 -0.2481 -0.6904 -0.0601
  813MOL0     C12106  -1.024   9.964   0.306 -0.0475  0.7106 -0.4740
  813MOL0     N12107  -0.479   9.527   0.428  0.2345  0.5564  0.1944
  813MOL0     N12108  -0.386   9.557   0.341  0.6780 -0.4451 -0.4464
  813MOL0     C12109   0.885   9.518   0.276 -0.2758  0.2923  0.0519
  813MOL0     C12110   1.012   9.484   0.321 -0.4694 -0.3180 -0.1054
  813MOL0     C12111   1.422   9.524   0.497  0.0918 -0.0181  0.7565
  813MOL0     C12112   1.427   9.461   0.618 -0.6814 -0.2627  0.0534
  813MOL0     C12113   1.542   9.403   0.664  0.2738  0.5541  0.0948
  813MOL0     C12114   1.653   9.396   0.574  0.9242  0.3762 -0.0106
  813MOL0     O12115   1.781   9.340   0.594 -0.2259 -0.1926  0.1171
  813MOL0     C12116   1.801   9.254   0.711 -0.4936 -0.0622 -0.0094
  813MOL0     C12117   1.945   9.198   0.727 -0.7954 -0.1714 -0.5524
  813MOL0     C12118   2.000   9.149   0.588  0.0760 -0.6873 -0.8736
  813MOL0     C12119   2.146   9.114   0.605  0.6973 -0.6160 -0.0666
  813MOL0     C12120   2.183   9.040   0.720 -0.2973  0.0664 -0.3096
  813MOL0     C12121   2.206   8.968   0.814  0.3277  0.0220 -0.7719
  813MOL0     C12122   1.646   9.449   0.445 -0.4408 -0.6037  0.3069
  813MOL0     C12123   1.528   9.524   0.408 -0.4532  0.0215 -0.0175
  813MOL0     C12124   1.532   9.595   0.269 -0.1238 -0.3269  0.1474
  813MOL0     H12125   1.146   9.788   0.261 -1.0427  0.8562  1.5142
  813MOL0     H12126   0.924   9.820   0.166  1.0795  0.4861  1.0268
  813MOL0     H12127   0.705   9.866   0.273  2.9895 -1.6991  3.6061
  813MOL0     H12128   0.640   9.743   0.376  0.0933 -1.7216  0.6818
  813MOL0     H12129   0.467   9.890   0.273  1.8652 -0.7116  0.6024
  813MOL0     H12130   0.509   9.839   0.108 -0.5150  0.4270 -1.1866
  813MOL0     H12131   0.438   9.605   0.160 -0.8266 -1.0098  0.1739
  813MOL0     H12132   0.404   9.650   0.337 -0.9038  1.5962  0.0613
  813MOL0     H12133   0.255   9.833   0.272  3.7002  1.1195  0.0374
  813MOL0     H12134   0.260   9.776   0.107 -0.0336  2.2855  1.5660
  813MOL0     H12135   0.188   9.585   0.322  4.1354  2.7801  0.0194
  813MOL0     H12136   0.131   9.605   0.141  0.7516  1.7638 -1.6555
  813MOL0     H12137   0.040   9.792   0.375 -0.8969  1.9993 -0.9578
  813MOL0     H12138  -0.006   9.804   0.207  2.0945 -0.6125 -1.2691
  813MOL0     H12139  -0.076   9.579   0.402  2.2819 -1.8118 -2.5231
  813MOL0     H12140  -0.109   9.562   0.232 -3.1318  0.7239  0.0270
  813MOL0     H12141  -0.181   9.808   0.400  0.0678 -1.8256  2.8471
  813MOL0     H12142  -0.243   9.776   0.229 -0.9416 -2.6989 -0.9711
  813MOL0     H12143  -0.378   9.800   0.566 -3.7774 -2.0641  3.4326
  813MOL0     H12144  -0.553   9.681   0.731  1.2978  1.6477 -1.3184
  813MOL0     H12145  -0.583   9.511   0.683  1.5830 -0.7622  0.0558
  813MOL0     H12146  -0.758   9.597   0.525  2.7833 -0.5402 -0.2889
  813MOL0     H12147  -0.791   9.652   0.696  2.2713  0.1550  1.8300
  813MOL0     H12148  -0.728   9.860   0.665 -1.8966 -0.8817 -0.0312
  813MOL0     H12149  -0.637   9.834   0.523  0.0636  1.3826  1.5951
  813MOL0     H12150  -0.839   9.790   0.384  0.6447 -1.9658  1.0793
  813MOL0     H12151  -0.939   9.835   0.532 -0.3523 -1.1036 -0.6067
  813MOL0     H12152  -0.834  10.214   0.378 -0.7694 -1.7867  0.7690
  813MOL0     H12153  -0.993  10.409   0.127  1.8924  1.4225  0.2391
  813MOL0     H12154  -0.889  10.415   0.266 -0.4222  1.0357 -1.2137
  813MOL0     H12155  -1.071  10.435   0.286 -1.1323  0.3825 -0.1155
  813MOL0     H12156  -1.154  10.403  -0.173  0.6461 -0.2070  0.6657
  813MOL0     H12157  -1.271  10.500  -0.331  0.1949 -2.8205  0.0364
  813MOL0     H12158  -1.409  10.662  -0.458  0.6631  0.4039  0.2166
  813MOL0     H12159  -1.567  10.740  -0.452 -2.1902 -1.1180  3.1710
  813MOL0     H12160  -1.509  10.874  -0.245 -1.5767  0.5794 -0.9176
  813MOL0     H12161  -1.353  10.799  -0.238  0.1889 -0.0251 -1.0232
  813MOL0     H12162  -1.476  10.977  -0.454 -1.4214 -1.1439  4.0143
  813MOL0     H12163  -1.327  10.898  -0.493 -0.3931 -0.1204 -1.1140
  813MOL0     H12164  -1.346  11.051  -0.227 -2.9525  1.9687 -0.3978
  813MOL0     H12165  -1.359  11.148  -0.373  4.0023  0.8906  1.4434
  813MOL0     H12166  -1.122  11.120  -0.279  0.4628 -0.3885  0.1625
  813MOL0     H12167  -1.136  10.951  -0.314  1.0049  0.4372 -0.2126
  813MOL0     H12168  -1.164  11.129  -0.558  1.0926  0.5909  0.1568
  813MOL0     H12169  -1.124  10.971  -0.555  1.0072  1.4008 -1.4733
  813MOL0     H12170  -0.899  10.993  -0.452 -1.2284  1.4101  1.8809
  813MOL0     H12171  -0.937  11.170  -0.438 -0.3171  2.2916 -2.2749
  813MOL0     H12172  -0.953  11.031  -0.705 -1.2209  1.3474  1.2906
  813MOL0     H12173  -0.794  11.046  -0.622 -0.6691 -4.0263 -1.9406
  813MOL0     H12174  -1.601  10.592  -0.080 -2.6195 -2.7051 -3.1349
  813MOL0     H12175  -1.478  10.467   0.115 -1.4741  0.2958 -0.3413
  813MOL0     H12176  -1.179   9.956   0.156  0.0443  0.0216 -1.1430
  813MOL0     H12177  -1.045   9.863   0.340 -0.9923  0.8537 -0.6033
  813MOL0     H12178   0.803   9.447   0.283 -0.7868  0.7322 -1.0867
  813MOL0     H12179   1.029   9.380   0.346 -1.5745 -0.6002 -0.4809
  813MOL0     H12180   1.339   9.448   0.680 -0.4147 -1.5583  0.1821
  813MOL0     H12181   1.543   9.365   0.766  1.0612  3.2130  1.1716
  813MOL0     H12182   1.778   9.313   0.800  0.8218 -1.9772  1.7041
  813MOL0     H12183   1.738   9.165   0.711  0.4086 -0.7704 -2.0385
  813MOL0     H12184   1.946   9.117   0.800  0.1448  0.3154 -0.0012
  813MOL0     H12185   2.003   9.277   0.775 -0.7939 -0.3625 -0.2398
  813MOL0     H12186   1.941   9.061   0.561 -3.3693  2.1421 -3.6498
  813MOL0     H12187   1.995   9.227   0.511 -0.0647 -0.1012 -0.2852
  813MOL0     H12188   2.206   9.205   0.598 -0.7031  0.3325 -0.2108
  813MOL0     H12189   2.174   9.071   0.509 -1.1554  0.7004 -1.2620
  813MOL0     H12190   2.220   8.914   0.906 -0.9031 -0.5843 -0.9163
  813MOL0     H12191   1.729   9.426   0.379 -0.2472 -0.4886  0.5069
  813MOL0     H12192   1.629   9.644   0.261 -0.9610  1.5617  0.8631
  813MOL0     H12193   1.500   9.524   0.192 -0.8211 -1.2536  1.2507
  813MOL0     H12194   1.452   9.669   0.272 -0.2473 -0.4813  1.7501
  814MOL0     O12195   4.491   4.435   6.030  0.7100 -0.0386  0.4236
  814MOL0     C12196   4.490   4.562   6.037  0.1855  0.5163  0.9573
  814MOL0     O12197   4.598   4.647   6.070 -0.4209  0.1886 -0.5115
  814MOL0     C12198   4.712   4.583   6.112 -0.3260 -0.5079 -0.2043
  814MOL0     C12199   4.762   4.617   6.239 -0.7980 -0.0227 -0.0317
  814MOL0     C12200   4.889   4.572   6.287  0.5586  0.1071 -0.3260
  814MOL0     C12201   4.954   4.477   6.215  0.3013  0.6145  0.3658
  814MOL0     O12202   5.077   4.416   6.248 -0.4210 -0.6130  0.0370
  814MOL0     C12203   5.153   4.489   6.342 -0.6658 -0.2670  0.1414
  814MOL0     C12204   5.295   4.427   6.347  0.7684  0.7221 -0.2815
  814MOL0     C12205   5.360   4.472   6.478 -0.2333  0.0080 -0.4587
  814MOL0     C12206   5.505   4.419   6.476 -0.1912  0.4529  0.4899
  814MOL0     C12207   5.579   4.423   6.607  0.1733 -0.5340  0.1723
  814MOL0     C12208   5.713   4.353   6.582  0.5450  0.5399 -0.2572
  814MOL0     C12209   5.808   4.402   6.481  0.6259 -0.1539  0.0388
  814MOL0     C12210   5.857   4.546   6.519  0.1657 -0.1750 -0.2753
  814MOL0     N12211   5.902   4.552   6.660  0.3265 -0.5029  0.0939
  814MOL0     C12212   5.985   4.463   6.729  0.7068  0.4608  0.0682
  814MOL0     C12213   6.018   4.526   6.842 -0.6726  0.4155 -0.0844
  814MOL0     C12214   6.121   4.480   6.948  0.3803  0.2974 -0.6925
  814MOL0     C12215   6.270   4.539   6.951 -0.2724 -0.4578  0.3061
  814MOL0     C12216   6.286   4.693   6.953 -0.6087  0.9765  0.4901
  814MOL0     C12217   6.436   4.726   6.940 -0.5141  0.4404  1.1838
  814MOL0     O12218   6.446   4.863   6.970 -0.1258  0.0842  0.2627
  814MOL0     C12219   6.425   4.956   6.865  0.3308 -0.6151  0.7784
  814MOL0     C12220   6.414   4.925   6.731 -0.6835  1.0208 -0.7679
  814MOL0     C12221   6.401   5.023   6.627 -0.0911 -0.4497 -0.6605
  814MOL0     C12222   6.406   4.983   6.478 -0.2463  0.3956  0.1701
  814MOL0     C12223   6.375   5.160   6.671 -0.2607 -0.1505 -0.7092
  814MOL0     C12224   6.343   5.267   6.576  0.3952  0.5912 -0.4722
  814MOL0     O12225   6.231   5.248   6.502  0.0103 -0.0872  0.6118
  814MOL0     C12226   6.173   5.360   6.440  0.1213  0.4908  0.1460
  814MOL0     C12227   6.234   5.475   6.382  0.4860  0.0342 -0.2461
  814MOL0     C12228   6.171   5.577   6.309  0.6354  0.2694  0.2023
  814MOL0     C12229   6.030   5.573   6.292 -0.0281 -0.5880 -0.0287
  814MOL0     O12230   5.973   5.669   6.212 -0.7962 -0.8850 -0.5723
  814MOL0     C12231   5.890   5.613   6.109  0.8926 -0.5217  0.3645
  814MOL0     C12232   5.880   5.718   5.997  0.9625 -0.1590  0.8480
  814MOL0     C12233   5.736   5.717   5.936  0.5796 -0.2485  0.0209
  814MOL0     C12234   5.638   5.817   6.020  0.0343  1.0156  0.2191
  814MOL0     C12235   5.494   5.803   5.967 -0.0891 -1.1290 -0.3749
  814MOL0     C12236   5.392   5.844   6.079 -0.2454  0.2600  0.3722
  814MOL0     C12237   5.256   5.850   6.016 -0.5190 -0.2142  1.2387
  814MOL0     C12238   5.145   5.897   6.114 -0.5794 -0.1544 -0.5254
  814MOL0    Cl12239   4.987   5.867   6.035 -0.0494  0.3635 -0.5012
  814MOL0     C12240   5.965   5.454   6.348 -1.2443 -1.0238  1.5377
  814MOL0     C12241   6.036   5.349   6.407 -0.1956 -0.3481  0.7806
  814MOL0     O12242   6.423   5.359   6.581  0.4061  0.5606  0.0667
  814MOL0     C12243   6.373   5.189   6.812 -0.7999 -0.0109 -0.1443
  814MOL0     C12244   6.402   5.091   6.905 -0.8921 -0.1324 -1.1827
  814MOL0     N12245   5.949   4.646   6.845 -0.8800  0.3937 -0.7409
  814MOL0     N12246   5.874   4.664   6.740  0.0842  0.3728  0.6013
  814MOL0     C12247   4.906   4.430   6.089  0.2323 -1.0928  0.0350
  814MOL0     C12248   4.785   4.483   6.045 -0.5765 -0.5711  0.7578
  814MOL0     C12249   4.354   4.619   5.997  0.4282  0.2624 -0.2189
  814MOL0     C12250   4.277   4.553   5.899  0.2706  0.8739 -0.1183
  814MOL0     C12251   4.151   4.597   5.860 -0.3986  0.1331  0.4712
  814MOL0     C12252   4.092   4.705   5.917 -0.0976 -0.3704 -0.7703
  814MOL0     O12253   3.968   4.729   5.872  1.0898 -0.0668  0.2092
  814MOL0     C12254   3.891   4.839   5.923 -0.3907  0.7872  0.2209
  814MOL0     C12255   3.748   4.826   5.880  0.3010  0.1343  0.6671
  814MOL0     C12256   3.660   4.942   5.919 -1.0617  0.2275  0.2154
  814MOL0     C12257   3.514   4.900   5.921 -0.2393 -0.7130  0.3044
  814MOL0     C12258   3.459   4.861   5.789 -1.0735 -0.1620  0.5155
  814MOL0     C12259   3.416   4.826   5.685 -0.1405  0.0063  0.7371
  814MOL0     C12260   4.170   4.776   6.011  0.0044  0.1251 -0.4839
  814MOL0     C12261   4.302   4.739   6.049  0.5367 -0.4172  0.1167
  814MOL0     C12262   4.381   4.825   6.146  0.5538 -0.8358 -0.6500
  814MOL0     H12263   4.704   4.698   6.283  0.9272  0.1693  2.0838
  814MOL0     H12264   4.912   4.608   6.387  0.2195 -0.0730 -0.1798
  814MOL0     H12265   5.113   4.486   6.444  1.0336  1.2020  0.8923
  814MOL0     H12266   5.152   4.593   6.309 -1.6463 -0.6894 -1.2867
  814MOL0     H12267   5.295   4.319   6.335  2.2396  0.7569 -0.8669
  814MOL0     H12268   5.358   4.464   6.265  0.8303  1.0305 -0.0981
  814MOL0     H12269   5.367   4.580   6.492 -1.1797 -0.1293  1.2789
  814MOL0     H12270   5.294   4.434   6.556 -1.9835 -0.1383 -1.9343
  814MOL0     H12271   5.490   4.315   6.443 -0.1838  0.9685 -1.2403
  814MOL0     H12272   5.559   4.473   6.398 -1.6098  1.5249  0.2210
  814MOL0     H12273   5.519   4.368   6.679 -1.8442 -1.0201 -1.7575
  814MOL0     H12274   5.585   4.521   6.655 -1.3943 -1.4432  2.3376
  814MOL0     H12275   5.757   4.338   6.681 -3.3106 -0.2325  1.5186
  814MOL0     H12276   5.687   4.254   6.544 -1.2820  0.7319  0.3870
  814MOL0     H12277   5.757   4.401   6.385 -1.2519 -1.3933  0.9720
  814MOL0     H12278   5.900   4.342   6.477  1.3146  0.7105  1.7281
  814MOL0     H12279   5.935   4.568   6.445  0.7489 -1.0741  0.0523
  814MOL0     H12280   5.780   4.621   6.501  0.3283 -0.2215 -1.2300
  814MOL0     H12281   6.016   4.371   6.679 -1.2014  1.0405 -2.3873
  814MOL0     H12282   6.124   4.370   6.953  0.8102  0.2487 -1.6777
  814MOL0     H12283   6.071   4.514   7.038  0.1177  1.2124 -1.1744
  814MOL0     H12284   6.323   4.496   7.036 -1.8680  2.3776  2.9355
  814MOL0     H12285   6.313   4.501   6.857  0.5320 -3.0547  1.6191
  814MOL0     H12286   6.231   4.729   6.866  2.7825  0.9116 -1.8501
  814MOL0     H12287   6.263   4.744   7.047  0.4582  4.0299 -0.7722
  814MOL0     H12288   6.495   4.672   7.014  1.2884  1.8805  0.8766
  814MOL0     H12289   6.460   4.690   6.840 -1.8722  2.9074 -0.1493
  814MOL0     H12290   6.437   4.822   6.707  0.0332  0.2582  2.6719
  814MOL0     H12291   6.449   4.883   6.472  0.8070  0.7042  1.6970
  814MOL0     H12292   6.469   5.054   6.424 -2.2073 -0.6928 -3.9138
  814MOL0     H12293   6.310   4.978   6.426  1.2349 -1.6169 -2.6171
  814MOL0     H12294   6.341   5.487   6.397  0.2895  1.6763 -0.0147
  814MOL0     H12295   6.225   5.654   6.256 -1.4521 -0.0249 -2.5768
  814MOL0     H12296   5.932   5.520   6.068  1.4521 -1.9660  3.8853
  814MOL0     H12297   5.798   5.581   6.159  1.2960  1.4334  2.5344
  814MOL0     H12298   5.899   5.820   6.030 -0.4672  0.6568 -0.7622
  814MOL0     H12299   5.953   5.693   5.920  0.2506  0.0708  0.0888
  814MOL0     H12300   5.697   5.615   5.938 -0.2801  0.0664 -0.1471
  814MOL0     H12301   5.736   5.731   5.827 -0.1939 -1.1524 -0.1186
  814MOL0     H12302   5.677   5.919   6.030  3.8539 -0.0164 -1.7944
  814MOL0     H12303   5.633   5.775   6.121  2.6851  1.0083  0.4198
  814MOL0     H12304   5.484   5.877   5.887 -0.0231  2.1740  2.4645
  814MOL0     H12305   5.475   5.701   5.933 -1.3730 -1.1699  0.4134
  814MOL0     H12306   5.410   5.941   6.126 -1.7014  0.3944  0.6909
  814MOL0     H12307   5.404   5.772   6.161  0.8388  0.2092  0.1939
  814MOL0     H12308   5.231   5.747   5.987 -1.3607  0.2656  0.1730
  814MOL0     H12309   5.263   5.907   5.923  1.9865 -0.2687  1.3427
  814MOL0     H12310   5.164   6.004   6.124 -0.6463 -0.1791 -0.1129
  814MOL0     H12311   5.142   5.849   6.212 -0.9858  0.8699 -0.0191
  814MOL0     H12312   5.861   5.435   6.325 -0.7653 -1.1843 -0.7897
  814MOL0     H12313   5.978   5.263   6.438 -0.4061  0.5246  3.0023
  814MOL0     H12314   6.359   5.294   6.838 -0.5950  0.9586 -3.4385
  814MOL0     H12315   6.412   5.123   7.008  0.0359 -2.8221 -0.3468
  814MOL0     H12316   4.953   4.348   6.035 -0.1658 -0.3294 -1.5407
  814MOL0     H12317   4.737   4.455   5.952  0.2201  0.7541 -0.0824
  814MOL0     H12318   4.307   4.464   5.846 -0.3608 -0.9462  2.4261
  814MOL0     H12319   4.102   4.534   5.787  0.1840  1.4707 -1.1458
  814MOL0     H12320   3.895   4.847   6.032 -0.3689 -1.8383  0.4712
  814MOL0     H12321   3.932   4.933   5.886 -1.5686  1.8956  1.5705
  814MOL0     H12322   3.700   4.737   5.921  0.5993 -0.2088  0.2788
  814MOL0     H12323   3.752   4.806   5.772  2.1458  0.9328  0.5467
  814MOL0     H12324   3.674   4.981   6.020 -0.0305  0.4282  0.0122
  814MOL0     H12325   3.686   5.024   5.851  0.3831  0.0676  0.5346
  814MOL0     H12326   3.452   4.978   5.968 -0.0799  0.9566 -2.0929
  814MOL0     H12327   3.490   4.821   5.992  0.7059 -1.8791 -0.6447
  814MOL0     H12328   3.376   4.815   5.587 -0.7487  2.5715  0.6245
  814MOL0     H12329   4.122   4.859   6.062  3.1283  0.3365  2.5213
  814MOL0     H12330   4.307   4.904   6.166  0.2654 -1.2055 -0.2550
  814MOL0     H12331   4.401   4.767   6.236  1.3805 -0.1608 -0.3828
  814MOL0     H12332   4.466   4.874   6.097 -0.1242  0.0875 -0.9521
  815MOL0     O12333   2.292   2.662   7.422 -0.7019 -0.3914  0.1986
  815MOL0     C12334   2.285   2.566   7.497  0.1198  0.2343 -0.0348
  815MOL0     O12335   2.352   2.449   7.474 -0.0693  0.1213 -0.0813
  815MOL0     C12336   2.467   2.460   7.400  1.1828 -0.2536  0.3479
  815MOL0     C12337   2.474   2.383   7.288 -0.0124  0.1228  1.7530
  815MOL0     C12338   2.590   2.390   7.202  0.0614 -0.7926 -0.2705
  815MOL0     C12339   2.698   2.474   7.244 -0.8398  0.1833  0.1579
  815MOL0     O12340   2.819   2.485   7.163  0.3270 -0.5755  0.3120
  815MOL0     C12341   2.844   2.431   7.036  0.0222 -0.0220  0.5080
  815MOL0     C12342   2.859   2.282   7.042 -0.2102 -0.1211  0.1712
  815MOL0     C12343   2.837   2.223   6.899  0.1237  0.0874  0.5876
  815MOL0     C12344   2.842   2.078   6.894 -0.5282  0.4851 -0.4060
  815MOL0     C12345   2.982   2.022   6.919  0.8123 -0.5400 -0.4057
  815MOL0     C12346   3.009   1.880   6.877 -0.5521 -0.1085  0.5593
  815MOL0     C12347   3.148   1.825   6.910 -0.0717 -0.1905  0.7904
  815MOL0     C12348   3.185   1.691   6.834 -0.1580  0.1227 -0.0913
  815MOL0     N12349   3.284   1.618   6.916 -0.5856 -0.2646 -0.3085
  815MOL0     C12350   3.273   1.494   6.972  0.4644  0.1499  0.5376
  815MOL0     C12351   3.395   1.475   7.031  0.0591 -0.3591  0.0078
  815MOL0     C12352   3.464   1.357   7.086 -0.0876 -0.3492 -0.1666
  815MOL0     C12353   3.404   1.222   7.038 -0.4654 -0.4512 -0.5844
  815MOL0     C12354   3.500   1.099   7.054 -0.3706 -0.1076 -0.4428
  815MOL0     C12355   3.482   0.987   6.943 -1.0414  0.2468 -1.2175
  815MOL0     O12356   3.562   1.000   6.831 -0.0788 -0.1107  0.4943
  815MOL0     C12357   3.533   1.111   6.760  1.0121  0.0759 -0.9714
  815MOL0     C12358   3.613   1.232   6.771  0.2717 -0.4176 -0.1265
  815MOL0     C12359   3.580   1.353   6.705 -0.1486  0.1988 -0.3906
  815MOL0     C12360   3.668   1.468   6.734 -0.6050  0.5545  0.3735
  815MOL0     C12361   3.460   1.353   6.623 -0.3603 -0.7026 -0.4248
  815MOL0     C12362   3.413   1.477   6.549 -0.6792  1.1441  0.1420
  815MOL0     O12363   3.287   1.466   6.492 -0.0612 -0.2275  0.0866
  815MOL0     C12364   3.234   1.545   6.391 -0.4473 -0.2370 -0.1659
  815MOL0     C12365   3.293   1.667   6.337 -0.5616  0.2218 -0.1854
  815MOL0     C12366   3.229   1.724   6.233  0.1321  0.0831  0.0881
  815MOL0     C12367   3.113   1.677   6.182 -0.0354 -0.2834 -0.0038
  815MOL0     O12368   3.061   1.763   6.080 -0.7354  0.7113 -0.1323
  815MOL0     C12369   2.914   1.775   6.056  0.4741 -0.3204 -1.1564
  815MOL0     C12370   2.881   1.866   5.942 -0.3639  0.2263 -0.9543
  815MOL0     C12371   2.925   2.001   5.983  0.4862  0.3595 -0.0767
  815MOL0     C12372   2.808   2.073   6.055  0.8719  0.3781  0.5104
  815MOL0     C12373   2.861   2.211   6.088 -0.2643 -0.1415  0.0011
  815MOL0     C12374   2.740   2.291   6.137  0.3220  0.0127 -0.3957
  815MOL0     C12375   2.768   2.434   6.175  0.6273  0.6443 -0.4178
  815MOL0     C12376   2.860   2.454   6.297 -0.1884  0.1118  0.3962
  815MOL0    Cl12377   2.778   2.382   6.438  0.5471  0.2186 -0.3158
  815MOL0     C12378   3.048   1.568   6.242  0.3194  0.5023  0.7182
  815MOL0     C12379   3.110   1.496   6.335  0.1730  0.0125 -0.5746
  815MOL0     O12380   3.485   1.576   6.539  0.9184  0.0062  0.5898
  815MOL0     C12381   3.394   1.236   6.610  0.7683  0.3586 -0.2699
  815MOL0     C12382   3.423   1.113   6.676  0.3043 -0.1416  0.4038
  815MOL0     N12383   3.477   1.589   7.011 -0.6110  0.3201 -0.5231
  815MOL0     N12384   3.408   1.672   6.949  0.1890  0.8122  0.3710
  815MOL0     C12385   2.684   2.554   7.364  0.6680 -0.1356  1.1852
  815MOL0     C12386   2.572   2.549   7.442  0.0739  0.2036  0.4779
  815MOL0     C12387   2.195   2.576   7.614 -0.3128 -0.2255 -0.6777
  815MOL0     C12388   2.220   2.491   7.718  0.6751  0.2277 -0.3548
  815MOL0     C12389   2.127   2.467   7.820  0.1311  0.3054  0.8455
  815MOL0     C12390   2.019   2.547   7.829  0.2970 -0.7680  0.2095
  815MOL0     O12391   1.944   2.529   7.942  0.1287 -1.2152  0.3655
  815MOL0     C12392   1.805   2.494   7.914  0.2175  1.1927  0.6064
  815MOL0     C12393   1.713   2.579   8.008  0.0729  0.2937  0.7159
  815MOL0     C12394   1.724   2.730   7.972  0.0579 -0.0697 -0.9080
  815MOL0     C12395   1.657   2.823   8.079  0.6800 -0.3554  0.0901
  815MOL0     C12396   1.733   2.953   8.079  0.4286  0.6139 -0.4933
  815MOL0     C12397   1.785   3.061   8.097  0.0660  0.0297 -0.2637
  815MOL0     C12398   2.001   2.645   7.729 -0.2180  0.1101 -0.5795
  815MOL0     C12399   2.078   2.658   7.617  0.1791 -0.0278 -0.3476
  815MOL0     C12400   2.051   2.767   7.520 -0.2061 -1.1571 -0.9190
  815MOL0     H12401   2.394   2.315   7.258 -0.3840  2.2080 -2.6862
  815MOL0     H12402   2.598   2.334   7.110 -1.7504 -0.6986 -0.5169
  815MOL0     H12403   2.931   2.487   7.000 -2.7494  3.3529 -1.5814
  815MOL0     H12404   2.771   2.453   6.957  0.7024  1.6933  0.3234
  815MOL0     H12405   2.958   2.252   7.079 -1.4408 -0.0909  3.8649
  815MOL0     H12406   2.777   2.241   7.102  0.3311  1.3140  1.9788
  815MOL0     H12407   2.734   2.242   6.869 -0.0568  1.0584  1.7523
  815MOL0     H12408   2.891   2.270   6.816 -0.9846  0.0170 -0.1953
  815MOL0     H12409   2.773   2.047   6.974  0.1629  1.6288  0.6705
  815MOL0     H12410   2.806   2.036   6.800 -1.3662  2.2524 -0.9283
  815MOL0     H12411   3.016   2.044   7.021  1.6204  3.9019 -1.3880
  815MOL0     H12412   3.050   2.087   6.863  1.2473 -1.6190 -1.1527
  815MOL0     H12413   2.937   1.822   6.935 -0.8521  0.7983  1.1140
  815MOL0     H12414   2.988   1.863   6.771 -0.1711  1.2283  0.2504
  815MOL0     H12415   3.153   1.806   7.017 -0.1066 -2.0145  0.5042
  815MOL0     H12416   3.224   1.895   6.875 -2.3810  1.7886 -0.5835
  815MOL0     H12417   3.094   1.633   6.818 -0.0598 -0.6286  1.8089
  815MOL0     H12418   3.229   1.716   6.737  3.8011  3.2744  2.1759
  815MOL0     H12419   3.195   1.417   6.969  0.1387  0.4578  0.9149
  815MOL0     H12420   3.464   1.363   7.195  1.6320 -1.8361 -0.0423
  815MOL0     H12421   3.564   1.359   7.043 -0.0471  0.7414 -0.0506
  815MOL0     H12422   3.324   1.192   7.107  0.8057  0.8511  1.5639
  815MOL0     H12423   3.370   1.238   6.935 -1.2383  0.6131 -0.1748
  815MOL0     H12424   3.601   1.139   7.040 -0.3685 -0.3304 -1.1348
  815MOL0     H12425   3.496   1.057   7.155  2.2031 -2.0573 -1.0483
  815MOL0     H12426   3.488   0.885   6.984  2.6870  1.3747  1.6101
  815MOL0     H12427   3.375   0.993   6.923 -2.2577  2.3328  4.1820
  815MOL0     H12428   3.708   1.239   6.824 -0.6480  1.7282  1.3985
  815MOL0     H12429   3.612   1.547   6.786 -2.8427 -1.0952  0.6066
  815MOL0     H12430   3.697   1.507   6.636 -0.9021 -1.2285 -0.4612
  815MOL0     H12431   3.751   1.444   6.800 -2.2529  1.7719  3.0671
  815MOL0     H12432   3.393   1.698   6.366 -0.1168 -2.6012  1.6660
  815MOL0     H12433   3.265   1.816   6.189  4.9598 -1.4483  0.2557
  815MOL0     H12434   2.881   1.675   6.025 -0.8649 -0.6179  1.0386
  815MOL0     H12435   2.863   1.805   6.148  1.9092  0.8074 -0.6978
  815MOL0     H12436   2.936   1.828   5.856 -0.3328  1.6779 -1.6043
  815MOL0     H12437   2.780   1.872   5.901 -0.0501  2.7370 -1.5321
  815MOL0     H12438   2.963   2.053   5.894  1.2722 -0.2278 -0.1021
  815MOL0     H12439   3.016   1.996   6.044  0.8617 -1.1705 -0.7091
  815MOL0     H12440   2.771   2.026   6.146  3.4278  0.6385  1.7824
  815MOL0     H12441   2.723   2.083   5.987  0.1129 -1.0748  1.1960
  815MOL0     H12442   2.933   2.195   6.169 -1.3832 -2.2061  0.6590
  815MOL0     H12443   2.908   2.266   6.006  1.2327  0.2410  1.0620
  815MOL0     H12444   2.693   2.250   6.227  1.6898  0.4332  0.5298
  815MOL0     H12445   2.664   2.297   6.058  0.2084 -1.5428 -0.4409
  815MOL0     H12446   2.674   2.483   6.200  1.2977  1.8402 -0.1720
  815MOL0     H12447   2.814   2.488   6.092  1.8507 -0.8476 -0.7666
  815MOL0     H12448   2.890   2.558   6.312  1.4665 -0.3304  0.3052
  815MOL0     H12449   2.947   2.390   6.282 -0.3835 -0.6270  2.1518
  815MOL0     H12450   2.949   1.543   6.206  0.9610 -2.3406  0.6850
  815MOL0     H12451   3.058   1.413   6.381  3.7690 -1.2937  1.5713
  815MOL0     H12452   3.314   1.223   6.537 -0.8460 -0.3383  1.5295
  815MOL0     H12453   3.355   1.028   6.676  0.2463 -0.1067 -0.4731
  815MOL0     H12454   2.758   2.626   7.398  0.2014 -0.2301  2.4188
  815MOL0     H12455   2.566   2.614   7.529 -0.3658 -0.9019  1.2980
  815MOL0     H12456   2.311   2.434   7.733 -0.3356 -1.0395  1.4756
  815MOL0     H12457   2.140   2.401   7.904  1.0431  1.5612  1.7342
  815MOL0     H12458   1.782   2.523   7.811 -1.7932 -3.8592 -0.6687
  815MOL0     H12459   1.797   2.386   7.933 -0.0441  0.9627 -0.7562
  815MOL0     H12460   1.743   2.554   8.110 -1.4584 -1.6621  0.7516
  815MOL0     H12461   1.608   2.556   7.988 -0.3610  2.8738 -0.3351
  815MOL0     H12462   1.831   2.753   7.968 -0.4717  2.9383 -0.0928
  815MOL0     H12463   1.665   2.735   7.880 -1.8987  1.0479  0.3467
  815MOL0     H12464   1.666   2.783   8.181  3.0495 -0.3617 -0.0472
  815MOL0     H12465   1.554   2.842   8.048  0.2925 -1.9083  0.3767
  815MOL0     H12466   1.843   3.149   8.118  0.0401  0.0217 -0.1580
  815MOL0     H12467   1.926   2.722   7.744  1.4681  1.6124  0.6662
  815MOL0     H12468   2.030   2.720   7.423 -0.7983 -1.0452 -0.8478
  815MOL0     H12469   1.968   2.829   7.554  0.8318 -0.8410  1.2211
  815MOL0     H12470   2.135   2.836   7.507  0.1018 -0.9172  1.7761
  816MOL0     O12471   1.228   0.313   1.587  0.5986  0.0334 -0.2034
  816MOL0     C12472   1.287   0.302   1.696  0.5771  0.1934  0.1751
  816MOL0     O12473   1.230   0.303   1.819 -0.1304 -0.4065  0.2018
  816MOL0     C12474   1.111   0.370   1.836  0.5478 -0.9187 -0.0729
  816MOL0     C12475   1.069   0.491   1.777 -1.0725  0.0383  0.3432
  816MOL0     C12476   0.944   0.546   1.796  0.2512  0.1322  0.3334
  816MOL0     C12477   0.854   0.488   1.882  0.0094  0.0695 -0.4029
  816MOL0     O12478   0.730   0.543   1.917  0.1712 -0.5640 -0.3901
  816MOL0     C12479   0.657   0.617   1.826  0.3290 -0.0032  0.2114
  816MOL0     C12480   0.535   0.656   1.904 -0.4524  1.0608  0.0733
  816MOL0     C12481   0.573   0.746   2.027 -0.4025 -0.5114 -0.3265
  816MOL0     C12482   0.442   0.786   2.093  0.1961 -0.0633  0.0382
  816MOL0     C12483   0.457   0.900   2.191  0.2103 -0.5450 -0.0110
  816MOL0     C12484   0.326   0.934   2.265  0.3443  1.0686 -0.4178
  816MOL0     C12485   0.280   0.807   2.342 -0.2452  0.8838 -0.0806
  816MOL0     C12486   0.153   0.831   2.416  0.1801  0.1368  0.2366
  816MOL0     N12487   0.149   0.965   2.468  0.4561 -0.2452 -0.1612
  816MOL0     C12488   0.061   1.068   2.440 -0.0412  0.4903 -0.5253
  816MOL0     C12489   0.099   1.177   2.516  1.0804  0.8405  0.1127
  816MOL0     C12490   0.012   1.303   2.539  0.0606 -0.2459  0.6498
  816MOL0     C12491  -0.006   1.389   2.406  0.4697  0.2610  0.2185
  816MOL0     C12492  -0.145   1.468   2.409 -0.5709 -0.3477  0.1874
  816MOL0     C12493  -0.161   1.547   2.284  0.3102  0.1397 -0.2077
  816MOL0     O12494  -0.291   1.536   2.215 -0.2776 -0.1932 -0.4686
  816MOL0     C12495  -0.267   1.586   2.087  0.5860 -1.6078  1.2263
  816MOL0     C12496  -0.342   1.703   2.042 -0.4989  0.2133  0.2262
  816MOL0     C12497  -0.333   1.753   1.909  1.1068 -0.2545  0.1501
  816MOL0     C12498  -0.393   1.888   1.876  0.7159 -0.2370 -0.5272
  816MOL0     C12499  -0.246   1.675   1.824  0.1396 -0.2195  0.3765
  816MOL0     C12500  -0.215   1.721   1.683 -0.1483  0.0045  0.4914
  816MOL0     O12501  -0.267   1.834   1.635 -0.3887 -0.5522  0.3782
  816MOL0     C12502  -0.240   1.877   1.508  0.2493  0.1358 -0.4829
  816MOL0     C12503  -0.337   1.892   1.408  0.3099 -0.4199  0.9450
  816MOL0     C12504  -0.311   1.917   1.279 -0.5194  0.1519  0.6747
  816MOL0     C12505  -0.184   1.965   1.239  0.1160  0.7676  0.6822
  816MOL0     O12506  -0.175   2.016   1.110 -0.0729 -0.2115  0.3493
  816MOL0     C12507  -0.044   2.052   1.062  1.0782 -0.9275 -0.5274
  816MOL0     C12508  -0.002   2.185   1.130 -0.4582 -1.5207  0.2674
  816MOL0     C12509  -0.051   2.298   1.031 -0.4132  0.0461  0.5226
  816MOL0     C12510  -0.063   2.435   1.091  1.1025 -0.1531 -0.8045
  816MOL0     C12511   0.002   2.552   1.007 -0.1963  0.2952  0.4550
  816MOL0     C12512  -0.082   2.598   0.894  0.0677  0.4503  0.3490
  816MOL0     C12513  -0.120   2.498   0.783 -0.3803  0.1735 -0.9714
  816MOL0     C12514  -0.195   2.568   0.665 -0.0750 -0.1418  0.5311
  816MOL0    Cl12515  -0.363   2.580   0.718  0.3217 -0.4917  0.1679
  816MOL0     C12516  -0.080   1.961   1.336 -0.2508  0.1096 -0.6095
  816MOL0     C12517  -0.106   1.911   1.467  0.1504 -0.1853  0.5146
  816MOL0     O12518  -0.139   1.645   1.622  0.1819  0.4449  0.1560
  816MOL0     C12519  -0.187   1.553   1.871 -0.3603  0.0620  0.4680
  816MOL0     C12520  -0.204   1.511   1.999 -0.5870 -0.0942 -0.3663
  816MOL0     N12521   0.199   1.131   2.597 -0.3222  0.2596 -0.3114
  816MOL0     N12522   0.223   1.002   2.578  0.1305  0.4571 -0.1763
  816MOL0     C12523   0.888   0.370   1.938  0.4985 -0.4096 -0.2320
  816MOL0     C12524   1.014   0.309   1.918 -0.5982  0.0909  0.6301
  816MOL0     C12525   1.424   0.252   1.696  0.1444 -0.0181  1.2678
  816MOL0     C12526   1.476   0.208   1.818  0.2272  1.2188 -0.2303
  816MOL0     C12527   1.599   0.150   1.830 -0.7117  1.0468  0.4313
  816MOL0     C12528   1.678   0.140   1.718  0.3366  0.0281  0.0133
  816MOL0     O12529   1.805   0.088   1.699 -0.2596  0.5462  0.1304
  816MOL0     C12530   1.871   0.014   1.801  0.5991  0.4345 -0.4409
  816MOL0     C12531   1.937   0.102   1.913  0.7887  0.2117  0.5907
  816MOL0     C12532   2.032   0.030   2.007 -0.3411  0.1107  0.2817
  816MOL0     C12533   2.120   0.128   2.089 -0.8744  0.5692 -0.3464
  816MOL0     C12534   2.203   0.048   2.184 -0.6450 -0.0041  0.1154
  816MOL0     C12535   2.262  -0.020   2.259  0.4283 -0.1590 -0.7378
  816MOL0     C12536   1.628   0.205   1.591  0.0921  1.2634 -0.7031
  816MOL0     C12537   1.509   0.270   1.582 -0.8934 -0.8898 -0.4538
  816MOL0     C12538   1.477   0.329   1.441  0.2927  0.2341 -0.5620
  816MOL0     H12539   1.135   0.532   1.701  0.1023 -0.6744  0.9527
  816MOL0     H12540   0.925   0.640   1.743 -0.2097 -1.8727 -3.4486
  816MOL0     H12541   0.630   0.567   1.733 -0.8551  0.6274  0.2057
  816MOL0     H12542   0.711   0.702   1.786 -1.7017  0.2410 -2.2618
  816MOL0     H12543   0.463   0.708   1.840 -0.9613 -1.8383 -1.9380
  816MOL0     H12544   0.482   0.565   1.934  1.1507  0.5648  1.5751
  816MOL0     H12545   0.635   0.695   2.102 -1.1062 -1.2140 -0.2128
  816MOL0     H12546   0.629   0.834   1.993 -1.6666  1.1149  1.5743
  816MOL0     H12547   0.375   0.808   2.010 -0.2391 -1.4932 -0.0240
  816MOL0     H12548   0.405   0.696   2.145 -2.6943  0.7173 -0.4776
  816MOL0     H12549   0.500   0.980   2.130 -0.0519 -0.9194 -0.6884
  816MOL0     H12550   0.526   0.873   2.272  2.1748 -3.1642 -2.3558
  816MOL0     H12551   0.360   1.013   2.332  3.5256 -1.0065  0.6619
  816MOL0     H12552   0.251   0.971   2.195 -0.0747  0.9639 -0.0348
  816MOL0     H12553   0.359   0.782   2.413 -0.8407  0.0086  0.2991
  816MOL0     H12554   0.265   0.714   2.285 -0.1991  1.1072 -0.4586
  816MOL0     H12555   0.059   0.825   2.360 -0.0568  1.1365  0.5063
  816MOL0     H12556   0.154   0.750   2.490  2.2207  0.2685  0.4071
  816MOL0     H12557  -0.014   1.078   2.362  0.2445  0.2229 -0.8368
  816MOL0     H12558   0.049   1.378   2.609 -0.0426  1.4590 -1.0327
  816MOL0     H12559  -0.082   1.280   2.590 -0.7042 -0.5362 -0.8359
  816MOL0     H12560   0.075   1.462   2.400  1.7338 -1.1862 -2.2071
  816MOL0     H12561   0.002   1.325   2.318 -1.3284 -1.6848  1.3722
  816MOL0     H12562  -0.226   1.394   2.415  0.8417 -2.3837 -2.9745
  816MOL0     H12563  -0.150   1.541   2.490  0.2738 -0.7210  0.5865
  816MOL0     H12564  -0.150   1.653   2.308 -1.7882  1.0756 -2.9150
  816MOL0     H12565  -0.078   1.514   2.222 -0.9751 -0.8183 -1.4777
  816MOL0     H12566  -0.405   1.752   2.116 -3.0080 -0.0945 -1.5829
  816MOL0     H12567  -0.313   1.960   1.854 -1.0390  1.0500 -3.2379
  816MOL0     H12568  -0.448   1.923   1.964  0.2912  2.8732 -1.9117
  816MOL0     H12569  -0.451   1.879   1.784  1.8949 -1.0326 -1.2164
  816MOL0     H12570  -0.442   1.876   1.432  0.1425 -0.8124 -0.0409
  816MOL0     H12571  -0.397   1.916   1.213 -0.7244 -0.4134  0.9445
  816MOL0     H12572   0.032   1.976   1.080  1.3145 -0.5131  0.2599
  816MOL0     H12573  -0.046   2.074   0.954  1.0931 -1.7089 -0.6936
  816MOL0     H12574  -0.045   2.188   1.230 -0.7135 -1.4795  0.1574
  816MOL0     H12575   0.106   2.205   1.138 -0.5033 -0.4461 -1.2797
  816MOL0     H12576  -0.150   2.269   0.997 -0.8866  2.6977 -0.6102
  816MOL0     H12577   0.018   2.304   0.947 -0.7247  0.9477  0.3192
  816MOL0     H12578  -0.017   2.454   1.188 -0.3320  2.3617 -0.5185
  816MOL0     H12579  -0.170   2.457   1.100  1.3642  0.9338 -0.1279
  816MOL0     H12580   0.035   2.636   1.069 -1.0368  1.5349 -0.7279
  816MOL0     H12581   0.100   2.515   0.976 -1.1005 -1.0418 -0.9615
  816MOL0     H12582  -0.027   2.676   0.840  0.1599 -1.2130 -2.1072
  816MOL0     H12583  -0.176   2.642   0.930  0.4879  1.7896 -0.1211
  816MOL0     H12584  -0.182   2.421   0.831  2.5834 -0.7109  1.8084
  816MOL0     H12585  -0.032   2.443   0.746 -1.5714 -0.6345 -2.7601
  816MOL0     H12586  -0.192   2.503   0.577  0.7885  0.6757 -0.0652
  816MOL0     H12587  -0.158   2.666   0.633  1.6164 -1.3019 -1.2879
  816MOL0     H12588   0.021   1.976   1.299 -0.1745  2.2516  0.3448
  816MOL0     H12589  -0.024   1.886   1.533  0.2351 -0.7069  0.2181
  816MOL0     H12590  -0.122   1.490   1.810  1.0628  1.5836  0.3301
  816MOL0     H12591  -0.154   1.419   2.029 -2.0699 -0.6730  0.4554
  816MOL0     H12592   0.810   0.331   2.003 -1.9260 -0.7268 -3.1429
  816MOL0     H12593   1.049   0.220   1.970 -0.1007  0.4215  0.8693
  816MOL0     H12594   1.408   0.202   1.903  2.0524  0.3303  1.2480
  816MOL0     H12595   1.642   0.113   1.923  0.9759 -1.3147 -1.1920
  816MOL0     H12596   1.800  -0.054   1.849  0.6971 -2.2299 -3.6371
  816MOL0     H12597   1.946  -0.050   1.752 -0.8671  0.5322 -2.9973
  816MOL0     H12598   1.855   0.150   1.968  0.0074 -0.4272  0.0102
  816MOL0     H12599   1.997   0.183   1.871 -1.8198  0.4068 -3.2585
  816MOL0     H12600   1.973  -0.019   2.086 -0.4629  3.9510  2.8883
  816MOL0     H12601   2.098  -0.047   1.966 -1.3919 -1.8603  2.0372
  816MOL0     H12602   2.062   0.191   2.156 -2.7268 -2.8059  1.5127
  816MOL0     H12603   2.179   0.199   2.031 -0.3714  3.2518  3.1389
  816MOL0     H12604   2.302  -0.101   2.317 -1.2076 -0.7926 -0.4503
  816MOL0     H12605   1.701   0.194   1.511  2.0797  0.3513  1.1182
  816MOL0     H12606   1.571   0.335   1.384  0.7406 -0.3432  0.0990
  816MOL0     H12607   1.416   0.263   1.379 -0.5114  0.5742 -0.1505
  816MOL0     H12608   1.424   0.423   1.461  1.7057  0.5938  1.8041
  817MOL0     O12609   1.309   0.128  10.293 -0.1687 -0.0937 -0.1501
  817MOL0     C12610   1.309   0.050  10.197 -0.1724  0.2232 -1.3950
  817MOL0     O12611   1.415  -0.007  10.134  0.4332 -0.3621 -0.2353
  817MOL0     C12612   1.542   0.040  10.157  0.3711 -0.4043 -0.9668
  817MOL0     C12613   1.615   0.014  10.278  0.1383  0.9117 -0.3192
  817MOL0     C12614   1.743   0.059  10.298  1.0071 -0.7307 -0.2041
  817MOL0     C12615   1.808   0.128  10.201 -0.6502  0.4712  0.4487
  817MOL0     O12616   1.926   0.176  10.237 -0.1923  0.6336  0.4482
  817MOL0     C12617   1.954   0.305  10.188 -0.7809 -0.0189 -0.3701
  817MOL0     C12618   2.042   0.377  10.283  0.0531 -0.4844 -0.2550
  817MOL0     C12619   2.024   0.531  10.257 -0.5057  0.8944 -0.5787
  817MOL0     C12620   2.041   0.594  10.121 -0.3484  0.2760  0.0560
  817MOL0     C12621   2.090   0.742  10.119 -0.4133 -0.0017  0.1911
  817MOL0     C12622   1.994   0.836  10.196  0.4188 -0.5240  0.3221
  817MOL0     C12623   2.064   0.964  10.261  0.6141  0.7242  0.5937
  817MOL0     C12624   2.136   1.051  10.152  0.2586  0.4276 -1.3447
  817MOL0     N12625   2.042   1.115  10.067  0.0340  0.2189  0.2706
  817MOL0     C12626   1.967   1.228  10.078 -0.0150 -0.5733 -0.2701
  817MOL0     C12627   1.910   1.239   9.957 -0.0110 -0.1151  0.5134
  817MOL0     C12628   1.811   1.350   9.926 -0.9469 -1.2011  0.3475
  817MOL0     C12629   1.857   1.490   9.984  0.0013 -0.6123 -0.3482
  817MOL0     C12630   1.748   1.600   9.961 -0.2220 -0.4224  0.2166
  817MOL0     C12631   1.645   1.591  10.073  0.1851  0.4678  0.0282
  817MOL0     O12632   1.523   1.640  10.014  0.0572 -0.2766  0.4180
  817MOL0     C12633   1.412   1.646  10.091 -0.4669 -0.6446  0.1542
  817MOL0     C12634   1.414   1.641  10.228  0.3054 -0.5004  0.2912
  817MOL0     C12635   1.295   1.629  10.301 -0.0408  1.2523 -0.3204
  817MOL0     C12636   1.313   1.615  10.453 -0.4375  0.9134  0.1973
  817MOL0     C12637   1.169   1.632  10.235  0.3057 -0.5106 -0.0559
  817MOL0     C12638   1.033   1.621  10.303 -0.1601  0.1080 -0.7333
  817MOL0     O12639   0.913   1.665  10.248 -0.9103  0.3959 -0.2186
  817MOL0     C12640   0.805   1.605  10.307 -0.5736 -0.9985 -0.1319
  817MOL0     C12641   0.759   1.664  10.429  0.1388  0.6034  1.2332
  817MOL0     C12642   0.673   1.584  10.508 -0.2387  1.2445  0.0513
  817MOL0     C12643   0.620   1.466  10.468  0.2784 -0.1450 -0.0168
  817MOL0     O12644   0.523   1.408  10.554 -0.0996 -0.4125 -0.2952
  817MOL0     C12645   0.525   1.265  10.555  0.6411 -0.6641  0.2108
  817MOL0     C12646   0.428   1.211  10.669 -1.0326  0.0925  0.1190
  817MOL0     C12647   0.452   1.061  10.694  0.7034  0.1039 -0.4183
  817MOL0     C12648   0.391   1.014  10.826  1.1735 -0.7837 -0.2386
  817MOL0     C12649   0.368   0.866  10.825  0.0437  0.1233 -0.3765
  817MOL0     C12650   0.504   0.793  10.841  0.1905 -0.0778 -0.0121
  817MOL0     C12651   0.482   0.636  10.819  0.3067 -0.4071 -0.6400
  817MOL0     C12652   0.559   0.541  10.909 -0.0039  0.2039 -0.1989
  817MOL0    Cl12653   0.503   0.365  10.886  0.1113  0.2717  0.3247
  817MOL0     C12654   0.653   1.416  10.345  0.7291  0.5142  0.3853
  817MOL0     C12655   0.760   1.479  10.265  0.3626  0.3766  0.2774
  817MOL0     O12656   1.044   1.576  10.418  0.3785  0.4337 -0.3636
  817MOL0     C12657   1.168   1.658  10.094  0.4759 -0.2146 -0.9799
  817MOL0     C12658   1.289   1.663  10.024  0.9941 -0.1674  0.3168
  817MOL0     N12659   1.956   1.154   9.860  0.6299  0.5812 -0.7932
  817MOL0     N12660   2.037   1.074   9.931 -0.4625 -0.3636 -0.0017
  817MOL0     C12661   1.737   0.151  10.082 -0.4297 -0.5832  0.0889
  817MOL0     C12662   1.606   0.114  10.060 -0.2117 -0.0123 -0.0687
  817MOL0     C12663   1.173   0.001  10.172  0.4722 -0.2620 -0.3990
  817MOL0     C12664   1.158  -0.132  10.143 -0.0279 -0.2787 -0.6671
  817MOL0     C12665   1.030  -0.188  10.116  0.0149  0.4888  0.0540
  817MOL0     C12666   0.913  -0.110  10.126  0.7027  0.9654 -0.6282
  817MOL0     O12667   0.779  -0.146  10.096 -0.6282  0.0708 -0.6637
  817MOL0     C12668   0.747  -0.271  10.039  0.6342 -0.2648  0.6662
  817MOL0     C12669   0.592  -0.293  10.059 -0.3218  0.1089 -0.4444
  817MOL0     C12670   0.558  -0.437  10.047  0.3653 -0.3837  0.5406
  817MOL0     C12671   0.413  -0.468  10.025 -0.5925  0.5878  0.1164
  817MOL0     C12672   0.340  -0.380   9.927  0.0787  0.3671 -0.0014
  817MOL0     C12673   0.281  -0.309   9.849  0.2496  0.9927  0.3680
  817MOL0     C12674   0.926   0.031  10.159  0.5793  0.6805 -0.1125
  817MOL0     C12675   1.056   0.084  10.192 -0.0830  0.4658 -0.2398
  817MOL0     C12676   1.053   0.239  10.235  0.2219  0.4385  0.2366
  817MOL0     H12677   1.564  -0.036  10.360 -0.8373  2.7799  0.2557
  817MOL0     H12678   1.790   0.037  10.393 -0.6923 -2.4018  0.3257
  817MOL0     H12679   1.861   0.354  10.158 -1.6390 -1.5441 -0.3003
  817MOL0     H12680   2.010   0.288  10.096 -0.7310 -0.1388 -0.3184
  817MOL0     H12681   2.014   0.349  10.385 -0.7162  0.3521 -0.2321
  817MOL0     H12682   2.142   0.338  10.260  0.2021 -0.0030 -0.4222
  817MOL0     H12683   1.940   0.567  10.317 -0.4148 -3.3473  2.5598
  817MOL0     H12684   2.113   0.569  10.309 -1.2190 -1.0285  2.2690
  817MOL0     H12685   2.107   0.533  10.058  0.8767  2.6947 -1.1243
  817MOL0     H12686   1.943   0.592  10.072 -1.5961  1.2858  2.3644
  817MOL0     H12687   2.105   0.779  10.018 -0.9986  0.1452  0.1505
  817MOL0     H12688   2.186   0.751  10.170 -1.1836 -1.5667  2.0282
  817MOL0     H12689   1.907   0.865  10.136 -0.2318  3.3069  2.8179
  817MOL0     H12690   1.948   0.777  10.276 -0.5820 -0.0660  0.0912
  817MOL0     H12691   2.142   0.944  10.335  3.7488  1.8009 -2.1996
  817MOL0     H12692   1.978   1.012  10.309 -1.0848 -1.8514  0.3405
  817MOL0     H12693   2.198   1.119  10.212  0.4967  0.2265 -1.3632
  817MOL0     H12694   2.192   0.985  10.086 -0.9456  1.5620 -3.6179
  817MOL0     H12695   1.946   1.289  10.165 -0.0049 -0.1815 -0.5422
  817MOL0     H12696   1.718   1.328   9.979 -1.2793  4.4895  2.8192
  817MOL0     H12697   1.785   1.363   9.820  1.5812 -1.0572 -0.3315
  817MOL0     H12698   1.892   1.475  10.086  1.3334 -0.8875 -0.8239
  817MOL0     H12699   1.943   1.527   9.926  0.2373  0.0457  0.4100
  817MOL0     H12700   1.794   1.699   9.975 -1.0256  0.3144 -1.9642
  817MOL0     H12701   1.699   1.589   9.864  1.9140 -3.0823 -0.6709
  817MOL0     H12702   1.635   1.488  10.108  2.0124  0.6867  1.3369
  817MOL0     H12703   1.679   1.652  10.157 -1.4500 -0.4752  1.4584
  817MOL0     H12704   1.504   1.646  10.290  0.7122  1.9679 -0.3900
  817MOL0     H12705   1.414   1.650  10.476  0.3374 -0.1518 -1.4226
  817MOL0     H12706   1.304   1.511  10.487 -2.0947  0.7900 -0.5274
  817MOL0     H12707   1.243   1.671  10.515  0.9378  0.1699  2.5622
  817MOL0     H12708   0.800   1.753  10.475  0.9184  0.4278  0.8934
  817MOL0     H12709   0.641   1.627  10.603 -1.8786  3.8401 -1.5405
  817MOL0     H12710   0.498   1.225  10.457  2.6088  2.8092 -1.9621
  817MOL0     H12711   0.626   1.230  10.577  0.0458 -3.8752 -1.4513
  817MOL0     H12712   0.452   1.262  10.763  1.9830 -2.4935  0.9489
  817MOL0     H12713   0.324   1.222  10.639 -1.2005  1.8072  1.1709
  817MOL0     H12714   0.561   1.052  10.693  0.7615  0.7954 -1.2290
  817MOL0     H12715   0.407   1.007  10.610 -0.1595 -0.5574  0.4444
  817MOL0     H12716   0.295   1.065  10.827  1.1056 -0.6629 -3.2284
  817MOL0     H12717   0.457   1.049  10.906  2.0804  0.0450 -1.2910
  817MOL0     H12718   0.300   0.851  10.910  0.1653  1.5686  0.0109
  817MOL0     H12719   0.314   0.830  10.738 -1.0613 -0.5864  0.5714
  817MOL0     H12720   0.546   0.822  10.938  2.0817 -1.8691 -0.2277
  817MOL0     H12721   0.584   0.831  10.777 -1.3489  1.2951 -1.1952
  817MOL0     H12722   0.525   0.617  10.720  1.2433  1.7536 -0.7177
  817MOL0     H12723   0.376   0.611  10.828  0.5289 -0.8978  0.9074
  817MOL0     H12724   0.543   0.574  11.012 -0.3118  3.7025 -1.2447
  817MOL0     H12725   0.667   0.543  10.891 -0.2748 -0.7422 -2.2006
  817MOL0     H12726   0.630   1.314  10.317  0.2729  0.6204  0.3709
  817MOL0     H12727   0.805   1.440  10.174 -1.7416 -1.2245 -0.1507
  817MOL0     H12728   1.070   1.662  10.046 -1.1432 -0.1339  2.1091
  817MOL0     H12729   1.277   1.674   9.916  0.1323  1.7789  0.5709
  817MOL0     H12730   1.786   0.212  10.006 -0.7674 -0.4433 -0.0189
  817MOL0     H12731   1.541   0.148   9.980 -2.0202  1.0618  1.7542
  817MOL0     H12732   1.246  -0.190  10.117  1.0945 -0.0115  2.1217
  817MOL0     H12733   1.027  -0.295  10.093  0.8928  0.7158 -1.2579
  817MOL0     H12734   0.775  -0.266   9.933  1.6787 -0.7111  0.9040
  817MOL0     H12735   0.797  -0.359  10.080 -1.7418 -0.6992  2.8384
  817MOL0     H12736   0.549  -0.236   9.976 -0.7265 -0.0049 -0.3146
  817MOL0     H12737   0.569  -0.249  10.156  2.1665 -0.9226  0.6947
  817MOL0     H12738   0.603  -0.463   9.950  1.0724  2.4106  0.0502
  817MOL0     H12739   0.603  -0.502  10.123 -0.4549 -1.0146  0.5077
  817MOL0     H12740   0.355  -0.457  10.118  0.7002  3.1988  0.6941
  817MOL0     H12741   0.419  -0.575  10.001 -1.4378  0.3605  0.8219
  817MOL0     H12742   0.237  -0.262   9.763  0.0183 -1.1930 -0.7906
  817MOL0     H12743   0.836   0.090  10.149 -0.1801 -0.2179  1.0908
  817MOL0     H12744   0.953   0.273  10.210  0.2199 -0.2641 -0.7680
  817MOL0     H12745   1.076   0.257  10.341 -0.2056  0.7111  0.2828
  817MOL0     H12746   1.126   0.297  10.178 -0.5058  0.8596 -0.2748
  818MOL0     O12747   3.530   2.627  11.173  0.1510  0.5360 -0.6612
  818MOL0     C12748   3.460   2.724  11.210 -0.2605  0.1545  0.4669
  818MOL0     O12749   3.499   2.813  11.303 -0.3604  0.3067  0.1812
  818MOL0     C12750   3.625   2.808  11.358 -0.2585 -0.5681 -0.5569
  818MOL0     C12751   3.643   2.746  11.480 -0.2964  0.1211  0.3099
  818MOL0     C12752   3.774   2.739  11.527  1.0787  0.1764  0.3695
  818MOL0     C12753   3.884   2.775  11.447  0.2551  0.7415 -0.0251
  818MOL0     O12754   4.012   2.755  11.497  0.2316 -0.5803 -1.1297
  818MOL0     C12755   4.042   2.614  11.513  0.8502 -0.9639 -0.0528
  818MOL0     C12756   4.188   2.605  11.467  0.2234 -0.1563  0.5907
  818MOL0     C12757   4.202   2.624  11.312 -0.1517 -0.2387 -0.0584
  818MOL0     C12758   4.344   2.586  11.269  0.3244  0.3901  0.0851
  818MOL0     C12759   4.348   2.457  11.193  0.4160  0.0563  0.2757
  818MOL0     C12760   4.488   2.391  11.176 -0.0753  0.0720 -0.1123
  818MOL0     C12761   4.488   2.259  11.097 -0.0725 -0.5962 -0.3801
  818MOL0     C12762   4.608   2.181  11.086 -0.3580  0.4783 -0.3978
  818MOL0     N12763   4.578   2.056  11.018  0.1332  0.3649  0.5268
  818MOL0     C12764   4.590   2.034  10.885 -0.3748 -0.2270 -0.3539
  818MOL0     C12765   4.557   1.900  10.866  0.5260  0.1291  1.0910
  818MOL0     C12766   4.578   1.817  10.744  0.7511 -0.6934  0.0681
  818MOL0     C12767   4.729   1.808  10.714 -0.5511 -0.3345 -0.0315
  818MOL0     C12768   4.758   1.699  10.624 -0.5377  0.7137 -0.1012
  818MOL0     C12769   4.907   1.669  10.618  0.6165 -0.3859  0.7156
  818MOL0     O12770   4.956   1.628  10.748 -0.2023 -0.6926 -0.3598
  818MOL0     C12771   5.093   1.624  10.773 -0.5220 -0.2648 -0.4222
  818MOL0     C12772   5.193   1.647  10.681  0.1950  0.3817  0.6652
  818MOL0     C12773   5.329   1.638  10.711  0.8994  0.5805  0.2084
  818MOL0     C12774   5.437   1.664  10.619  0.1018  0.0382  0.4121
  818MOL0     C12775   5.368   1.607  10.848  0.9946  0.1482 -0.2576
  818MOL0     C12776   5.505   1.597  10.890 -0.2231 -0.2817 -0.1273
  818MOL0     O12777   5.578   1.485  10.869  0.2508 -0.3133 -0.4024
  818MOL0     C12778   5.703   1.489  10.923 -0.9767  0.2010 -0.2744
  818MOL0     C12779   5.717   1.446  11.056 -0.7355  0.8267  0.7257
  818MOL0     C12780   5.838   1.455  11.118 -0.2121 -0.2053 -0.2419
  818MOL0     C12781   5.951   1.495  11.040  0.2056  0.8843 -0.3090
  818MOL0     O12782   6.082   1.499  11.077 -0.1239 -0.3349 -0.2122
  818MOL0     C12783   6.115   1.440  11.205  0.5681 -0.1432  0.2275
  818MOL0     C12784   6.259   1.480  11.233 -0.0582 -0.0110  0.7525
  818MOL0     C12785   6.269   1.634  11.255 -0.3010 -0.4570  0.0529
  818MOL0     C12786   6.210   1.699  11.385 -0.5612 -0.1018  0.2960
  818MOL0     C12787   6.226   1.852  11.360  0.3785 -0.0670  0.0065
  818MOL0     C12788   6.177   1.931  11.479 -0.1018 -0.3722  0.5912
  818MOL0     C12789   6.155   2.078  11.456  0.1593  0.4778 -0.6064
  818MOL0     C12790   6.231   2.137  11.337  0.0892  0.4323  0.6974
  818MOL0    Cl12791   6.407   2.136  11.355  0.6051  0.0084  0.0309
  818MOL0     C12792   5.944   1.533  10.908  1.0551  0.0782  0.5411
  818MOL0     C12793   5.812   1.525  10.843 -0.1587  0.3064 -0.2898
  818MOL0     O12794   5.541   1.708  10.939 -0.2978  0.9751 -0.3843
  818MOL0     C12795   5.271   1.592  10.949 -0.0703  0.5079  0.7686
  818MOL0     C12796   5.133   1.594  10.898 -0.4801  0.8371 -0.5914
  818MOL0     N12797   4.515   1.857  10.990 -0.3444  0.3869  0.7844
  818MOL0     N12798   4.539   1.945  11.082  0.2051 -0.1900 -0.6452
  818MOL0     C12799   3.864   2.836  11.324  0.6113 -0.7879  0.4067
  818MOL0     C12800   3.726   2.857  11.285 -0.7914  0.9287 -0.3724
  818MOL0     C12801   3.331   2.756  11.142 -0.0240  0.0986 -0.2970
  818MOL0     C12802   3.275   2.889  11.156  0.9877  0.9421  0.4550
  818MOL0     C12803   3.160   2.934  11.090 -1.2036  0.3771  0.6639
  818MOL0     C12804   3.096   2.845  11.008  0.7137 -0.5493 -0.9849
  818MOL0     O12805   2.982   2.870  10.937  0.9358  0.4887 -0.7078
  818MOL0     C12806   2.912   2.996  10.954  0.3295 -0.5409 -0.2767
  818MOL0     C12807   2.764   2.969  10.926  0.9662  0.2838 -0.7880
  818MOL0     C12808   2.685   3.104  10.967  0.2140  0.1345  0.3517
  818MOL0     C12809   2.538   3.070  10.991 -0.2157  0.4076  0.2664
  818MOL0     C12810   2.463   3.199  11.022 -1.1000  0.9483 -0.5142
  818MOL0     C12811   2.395   3.298  11.032  1.2237  0.5465  0.1286
  818MOL0     C12812   3.138   2.718  10.995 -0.4655 -0.3629  0.5673
  818MOL0     C12813   3.262   2.673  11.050  0.2852 -1.2532  0.1662
  818MOL0     C12814   3.308   2.536  10.989 -0.8322  0.2008 -0.1167
  818MOL0     H12815   3.559   2.729  11.546 -2.1640 -0.8362 -2.1389
  818MOL0     H12816   3.794   2.716  11.631  1.6655  2.6338  0.8663
  818MOL0     H12817   3.983   2.548  11.449 -0.0968 -1.3600  1.1886
  818MOL0     H12818   4.022   2.585  11.617  0.7506 -1.3319 -0.1724
  818MOL0     H12819   4.260   2.672  11.515  1.1182  0.8027 -1.9030
  818MOL0     H12820   4.209   2.498  11.480 -1.7591 -0.6791 -0.0640
  818MOL0     H12821   4.134   2.555  11.261  2.4977 -1.6248 -1.9412
  818MOL0     H12822   4.186   2.727  11.279  0.4786 -0.3193 -0.6289
  818MOL0     H12823   4.377   2.669  11.207  0.2504  0.3361 -0.0253
  818MOL0     H12824   4.404   2.567  11.359  1.2732 -2.4073 -1.0303
  818MOL0     H12825   4.299   2.471  11.096 -2.7490 -0.2777  1.7020
  818MOL0     H12826   4.280   2.384  11.238 -0.6984 -0.0576 -1.5232
  818MOL0     H12827   4.547   2.467  11.125 -0.2722  0.8478  0.7826
  818MOL0     H12828   4.545   2.375  11.267 -0.1727 -0.8862 -0.2165
  818MOL0     H12829   4.451   2.271  10.995  0.6565  2.3367 -0.3917
  818MOL0     H12830   4.416   2.198  11.153  0.1990 -1.5572 -1.0603
  818MOL0     H12831   4.680   2.238  11.026  1.2507 -3.1458 -2.1729
  818MOL0     H12832   4.647   2.168  11.188 -0.9877  0.5017 -0.1446
  818MOL0     H12833   4.626   2.104  10.810  3.0346 -0.1205  1.2056
  818MOL0     H12834   4.531   1.850  10.650 -1.4483 -1.8200  0.6997
  818MOL0     H12835   4.533   1.720  10.763  3.3560 -1.8179  0.8357
  818MOL0     H12836   4.766   1.907  10.685 -1.3484  0.3834  1.3308
  818MOL0     H12837   4.777   1.783  10.809 -1.1060  0.8899  0.5949
  818MOL0     H12838   4.698   1.610  10.645 -0.4794  1.0977  1.9072
  818MOL0     H12839   4.731   1.721  10.520 -0.2028 -0.5763 -0.4802
  818MOL0     H12840   4.923   1.600  10.535 -0.4665 -0.7818  0.8113
  818MOL0     H12841   4.958   1.762  10.590 -4.2010  2.4130 -0.0601
  818MOL0     H12842   5.165   1.649  10.576 -0.3591 -0.2494  0.7909
  818MOL0     H12843   5.500   1.748  10.649  1.9957 -1.1457 -0.1104
  818MOL0     H12844   5.392   1.707  10.528 -4.4080  0.2473  2.4700
  818MOL0     H12845   5.498   1.575  10.602  2.2563  1.2142  1.5300
  818MOL0     H12846   5.642   1.398  11.117  0.4170  0.0779  1.5969
  818MOL0     H12847   5.848   1.425  11.221 -0.2871 -1.0535 -0.4709
  818MOL0     H12848   6.050   1.473  11.286 -3.4967  1.6669 -3.3796
  818MOL0     H12849   6.104   1.331  11.204 -1.0061 -0.0046  0.7319
  818MOL0     H12850   6.296   1.441  11.329 -0.2994  2.2407  1.8280
  818MOL0     H12851   6.315   1.449  11.144 -2.2202  0.6338 -0.9156
  818MOL0     H12852   6.242   1.693  11.167 -3.4702  1.5655  2.1688
  818MOL0     H12853   6.378   1.642  11.262 -0.3320  0.5212 -0.4756
  818MOL0     H12854   6.265   1.668  11.474  0.5803 -0.0613 -0.3707
  818MOL0     H12855   6.105   1.675  11.404 -0.2564 -3.4659 -1.5353
  818MOL0     H12856   6.327   1.887  11.338 -0.6280  3.8011  0.8383
  818MOL0     H12857   6.154   1.871  11.280 -0.0752  0.6467  0.5804
  818MOL0     H12858   6.259   1.925  11.551 -1.3833 -0.6076  2.1029
  818MOL0     H12859   6.087   1.893  11.528 -1.6249  4.0334  1.6914
  818MOL0     H12860   6.183   2.139  11.542 -2.5859  0.8697  0.0784
  818MOL0     H12861   6.047   2.087  11.442 -0.2247 -0.1065  1.5834
  818MOL0     H12862   6.183   2.234  11.325 -0.1570  0.2919  0.5339
  818MOL0     H12863   6.199   2.089  11.244  1.1918  0.7387  0.1388
  818MOL0     H12864   6.035   1.565  10.858  0.3628  1.9446  0.3917
  818MOL0     H12865   5.796   1.543  10.737 -1.1619 -0.1432 -0.2256
  818MOL0     H12866   5.294   1.571  11.053  3.0279 -1.1282 -0.1202
  818MOL0     H12867   5.047   1.578  10.963 -1.7053 -1.8305 -2.6342
  818MOL0     H12868   3.958   2.872  11.284  0.1350 -0.8828 -0.8387
  818MOL0     H12869   3.696   2.916  11.200 -0.3275  0.3539 -0.9405
  818MOL0     H12870   3.316   2.964  11.223 -1.2363  1.8238  0.9176
  818MOL0     H12871   3.129   3.038  11.095 -0.6602  0.5142  1.2768
  818MOL0     H12872   2.923   3.031  11.057 -0.1759 -0.2057 -0.3347
  818MOL0     H12873   2.950   3.079  10.894  1.6037 -1.0975 -0.2767
  818MOL0     H12874   2.732   2.884  10.987  2.0676  0.0014 -0.5749
  818MOL0     H12875   2.748   2.952  10.819 -0.3792 -0.1503 -0.5344
  818MOL0     H12876   2.720   3.153  11.057 -2.5154  1.3070  0.8787
  818MOL0     H12877   2.703   3.172  10.884 -0.5274  0.3814  0.3889
  818MOL0     H12878   2.527   2.993  11.067  3.7159 -2.8114 -2.0159
  818MOL0     H12879   2.505   3.030  10.894  3.7645 -0.5198 -0.8950
  818MOL0     H12880   2.327   3.377  11.056  1.0965 -0.0680  1.9592
  818MOL0     H12881   3.085   2.654  10.925 -0.8512 -0.3822  0.8720
  818MOL0     H12882   3.281   2.530  10.883 -1.2295 -3.0260  0.0517
  818MOL0     H12883   3.413   2.512  11.008 -1.1308 -0.5122  0.7088
  818MOL0     H12884   3.253   2.450  11.030  0.4491 -1.4523 -1.6901
  819MOL0     O12885   9.992   1.870   6.942  0.6238  0.7865  1.0432
  819MOL0     C12886   9.953   1.764   6.998  0.3306  0.4828  0.2758
  819MOL0     O12887   9.828   1.744   7.053  0.2205  0.1143  0.4117
  819MOL0     C12888   9.713   1.804   7.009  0.6897 -0.4378  0.0171
  819MOL0     C12889   9.592   1.787   7.081 -1.1122  0.3118 -0.4315
  819MOL0     C12890   9.471   1.854   7.045 -0.2208 -0.5268  0.2730
  819MOL0     C12891   9.459   1.939   6.928  0.4316  0.5063 -0.2583
  819MOL0     O12892   9.353   2.017   6.889  0.2258 -0.1713 -0.5178
  819MOL0     C12893   9.226   1.980   6.947 -0.2629 -0.5166  0.1052
  819MOL0     C12894   9.119   2.068   6.875  0.2486 -0.4024  0.0169
  819MOL0     C12895   9.141   2.219   6.905 -0.1283 -0.4900  0.2884
  819MOL0     C12896   9.026   2.312   6.848 -0.2262 -0.4336 -0.0301
  819MOL0     C12897   9.055   2.464   6.828  0.3780  0.4560  0.1793
  819MOL0     C12898   9.104   2.546   6.954 -0.0415  0.2765 -0.0329
  819MOL0     C12899   8.989   2.542   7.059  0.2922 -0.3416 -0.2050
  819MOL0     C12900   9.017   2.630   7.182 -0.3266 -0.5504  0.0291
  819MOL0     N12901   9.131   2.575   7.260  0.7921 -0.3402  0.7546
  819MOL0     C12902   9.149   2.446   7.284 -0.3670 -0.6762  0.0938
  819MOL0     C12903   9.258   2.438   7.371 -0.4027  0.1565 -0.0961
  819MOL0     C12904   9.310   2.318   7.446 -0.2226  0.1246 -0.2230
  819MOL0     C12905   9.381   2.206   7.354 -0.3823 -0.7444 -0.3123
  819MOL0     C12906   9.441   2.104   7.455  0.2008 -0.5671 -0.1980
  819MOL0     C12907   9.550   2.013   7.395 -0.1950  0.0641  0.2597
  819MOL0     O12908   9.675   2.079   7.431 -0.0925 -0.1354 -0.6349
  819MOL0     C12909   9.798   2.010   7.440  0.3291  0.2524  0.2710
  819MOL0     C12910   9.906   2.087   7.482 -0.4087 -0.7849 -0.2910
  819MOL0     C12911  10.039   2.038   7.475 -0.1328 -0.7030  0.3798
  819MOL0     C12912  10.151   2.109   7.548  0.2051  0.2853  0.2848
  819MOL0     C12913  10.063   1.904   7.419  0.3738 -0.3403  0.4569
  819MOL0     C12914  10.201   1.832   7.411 -0.4606 -0.5699  0.6247
  819MOL0     O12915  10.217   1.767   7.299  0.3678 -0.2771 -0.8850
  819MOL0     C12916  10.334   1.775   7.240 -0.7792  0.0690 -0.5833
  819MOL0     C12917  10.411   1.895   7.224 -0.6207  0.8191  0.4026
  819MOL0     C12918  10.546   1.890   7.206  1.2567 -0.5193 -0.9504
  819MOL0     C12919  10.613   1.768   7.183 -0.3906  0.0340  0.0070
  819MOL0     O12920  10.748   1.754   7.175  0.3017  0.0417  0.1683
  819MOL0     C12921  10.828   1.872   7.172 -0.5126 -0.1055 -0.2232
  819MOL0     C12922  10.972   1.831   7.166 -0.4324 -0.0997 -0.4131
  819MOL0     C12923  11.013   1.750   7.042  0.3468  0.5730  0.0516
  819MOL0     C12924  11.161   1.696   7.036 -0.3960  0.1360  0.2207
  819MOL0     C12925  11.257   1.823   7.054  0.2225  0.1550 -0.0586
  819MOL0     C12926  11.394   1.785   7.040  0.5673 -1.0735  0.5993
  819MOL0     C12927  11.447   1.773   6.892 -0.9035 -0.7540 -0.0187
  819MOL0     C12928  11.544   1.660   6.854 -0.4666 -0.7482  0.2859
  819MOL0    Cl12929  11.491   1.505   6.919  0.3017 -0.1645 -0.0640
  819MOL0     C12930  10.541   1.653   7.181  0.3823 -0.1927  0.3635
  819MOL0     C12931  10.401   1.656   7.218  0.2367  0.6841  0.1316
  819MOL0     O12932  10.285   1.843   7.496 -0.6689 -0.5474  0.2475
  819MOL0     C12933   9.946   1.835   7.382 -0.4563  0.2427  0.2647
  819MOL0     C12934   9.825   1.874   7.402  0.1212 -0.3313  0.3837
  819MOL0     N12935   9.313   2.565   7.386  0.5690  0.0681  0.0648
  819MOL0     N12936   9.227   2.649   7.326 -0.1545 -0.0355  0.3643
  819MOL0     C12937   9.580   1.946   6.856 -0.0242 -0.2619 -0.2941
  819MOL0     C12938   9.697   1.878   6.896 -0.3507  0.3706 -0.0090
  819MOL0     C12939  10.047   1.650   7.001  0.2932  0.5642  0.2349
  819MOL0     C12940  10.016   1.541   7.085 -0.5300  0.0059  0.2958
  819MOL0     C12941  10.095   1.433   7.095 -0.3781  0.3650 -0.6765
  819MOL0     C12942  10.196   1.416   7.011 -1.4628  0.6830 -0.1182
  819MOL0     O12943  10.258   1.293   7.011 -0.6809 -0.0867  1.1591
  819MOL0     C12944  10.357   1.255   6.912 -0.1414  0.5970 -0.9007
  819MOL0     C12945  10.493   1.313   6.946 -0.2052 -0.2254 -0.0672
  819MOL0     C12946  10.556   1.263   7.074  0.4669 -0.3795 -0.1938
  819MOL0     C12947  10.674   1.179   7.062 -0.3673  0.1494 -0.3172
  819MOL0     C12948  10.790   1.268   7.026  0.2483  0.6333 -0.2043
  819MOL0     C12949  10.876   1.342   7.007 -0.6067 -0.9657  0.7605
  819MOL0     C12950  10.233   1.519   6.927 -0.1769  0.4201 -0.6234
  819MOL0     C12951  10.168   1.643   6.926 -0.5012  0.6026  0.1489
  819MOL0     C12952  10.231   1.752   6.832 -0.0045  0.7893 -0.6311
  819MOL0     H12953   9.589   1.722   7.168 -1.4639 -1.1667 -1.5056
  819MOL0     H12954   9.393   1.844   7.120 -0.9292  3.1445  0.2264
  819MOL0     H12955   9.222   1.991   7.056 -0.2715  0.9299 -0.0244
  819MOL0     H12956   9.209   1.875   6.919  0.8414 -0.7056  0.0782
  819MOL0     H12957   9.123   2.059   6.766 -2.7790 -3.1207 -0.0314
  819MOL0     H12958   9.016   2.035   6.895  0.6745 -2.0413 -0.3800
  819MOL0     H12959   9.149   2.236   7.013  4.5850  1.8288 -0.1931
  819MOL0     H12960   9.236   2.252   6.863 -0.6960  1.1472  0.1776
  819MOL0     H12961   8.998   2.275   6.748  0.4515 -2.4090  0.4648
  819MOL0     H12962   8.933   2.303   6.904 -0.5145 -2.6817 -0.7536
  819MOL0     H12963   8.969   2.513   6.782 -0.3127  1.4520  2.3880
  819MOL0     H12964   9.133   2.462   6.751 -1.0349  0.7613 -1.3174
  819MOL0     H12965   9.192   2.496   6.996 -1.9145 -2.9362  0.3615
  819MOL0     H12966   9.124   2.647   6.916 -3.2894  0.8168 -0.5510
  819MOL0     H12967   8.984   2.439   7.094 -1.5159  0.3890  1.8636
  819MOL0     H12968   8.893   2.569   7.014 -0.8157 -1.2606  1.5100
  819MOL0     H12969   9.049   2.730   7.149 -0.6178  0.2474  2.0182
  819MOL0     H12970   8.926   2.640   7.241 -0.4405 -1.4085  0.0153
  819MOL0     H12971   9.078   2.366   7.267 -0.3056 -0.9698  1.1477
  819MOL0     H12972   9.239   2.259   7.505  1.9494 -1.2761  1.1648
  819MOL0     H12973   9.384   2.352   7.519 -1.4562  2.3175  0.0903
  819MOL0     H12974   9.313   2.156   7.285  1.9170 -1.4929 -2.1793
  819MOL0     H12975   9.462   2.246   7.292  1.3194 -2.4308  0.7252
  819MOL0     H12976   9.470   2.139   7.554 -2.0328  1.8346 -0.2866
  819MOL0     H12977   9.360   2.034   7.479 -1.1903  0.1584 -2.4266
  819MOL0     H12978   9.554   1.912   7.439 -0.0405 -0.2282 -0.4117
  819MOL0     H12979   9.550   2.000   7.287  1.0816  2.6734 -0.0998
  819MOL0     H12980   9.889   2.187   7.520  3.7635  2.5262 -5.6919
  819MOL0     H12981  10.190   2.057   7.635 -1.8297 -0.2321  0.9548
  819MOL0     H12982  10.118   2.202   7.595  0.1443  1.0907 -1.2837
  819MOL0     H12983  10.226   2.142   7.476  0.9108 -0.7667  0.5316
  819MOL0     H12984  10.380   1.993   7.258  0.6764  0.9810  1.2043
  819MOL0     H12985  10.602   1.979   7.234 -0.6718  0.4074  0.2085
  819MOL0     H12986  10.804   1.917   7.075 -0.0342 -0.7642 -0.6530
  819MOL0     H12987  10.810   1.935   7.259  0.9487 -1.5690  1.1917
  819MOL0     H12988  11.033   1.921   7.159 -0.6433  0.2060  1.1773
  819MOL0     H12989  11.002   1.787   7.262  1.4625 -2.0175 -1.7888
  819MOL0     H12990  11.004   1.818   6.958  3.0710 -1.6999 -2.3326
  819MOL0     H12991  10.956   1.657   7.033  0.5691  0.6297 -2.7701
  819MOL0     H12992  11.179   1.640   6.944  4.7042 -0.4759  1.2794
  819MOL0     H12993  11.172   1.618   7.112 -1.0230  1.6118  1.8897
  819MOL0     H12994  11.232   1.910   6.992 -0.4607  0.9853  1.3507
  819MOL0     H12995  11.248   1.853   7.159  2.0062 -1.4477  0.6120
  819MOL0     H12996  11.424   1.704   7.107 -3.0151 -0.9295  2.6526
  819MOL0     H12997  11.446   1.870   7.087  0.6304 -1.4721  1.2642
  819MOL0     H12998  11.496   1.868   6.872  1.3328 -1.5747  1.1784
  819MOL0     H12999  11.367   1.778   6.817 -1.1323  2.0921  0.3243
  819MOL0     H13000  11.644   1.681   6.892 -0.9134  1.4491  0.3524
  819MOL0     H13001  11.565   1.654   6.746  2.6984 -1.0842  0.8145
  819MOL0     H13002  10.583   1.556   7.160  4.0950  0.6954  2.7379
  819MOL0     H13003  10.349   1.562   7.235  0.5011  0.7092  1.1434
  819MOL0     H13004   9.953   1.742   7.327 -1.4411  1.0409 -1.3048
  819MOL0     H13005   9.746   1.803   7.379  1.7613 -2.2731  0.4744
  819MOL0     H13006   9.584   2.005   6.765 -0.7190 -2.6637 -1.9888
  819MOL0     H13007   9.763   1.882   6.810  1.1456  0.9337  1.1282
  819MOL0     H13008   9.928   1.553   7.146 -0.7746  1.7739 -0.3335
  819MOL0     H13009  10.067   1.365   7.175  4.7452  2.1800  3.2125
  819MOL0     H13010  10.360   1.146   6.918 -1.9904  0.5333 -0.5514
  819MOL0     H13011  10.326   1.291   6.814  0.5167  0.4226 -1.1778
  819MOL0     H13012  10.495   1.423   6.949  2.1425 -0.1696 -1.4625
  819MOL0     H13013  10.559   1.288   6.863  0.0883  0.2904  0.0059
  819MOL0     H13014  10.573   1.350   7.138 -2.3829  1.0164 -1.1553
  819MOL0     H13015  10.485   1.192   7.117  1.4691 -1.3499 -0.0959
  819MOL0     H13016  10.662   1.098   6.989 -1.1312  0.4622 -0.5429
  819MOL0     H13017  10.682   1.137   7.162 -3.0307 -0.5910 -0.3382
  819MOL0     H13018  10.965   1.402   7.000 -0.8107 -0.6049  1.1914
  819MOL0     H13019  10.320   1.505   6.864  0.8703  4.4793 -0.4120
  819MOL0     H13020  10.163   1.758   6.746  0.0028 -0.6118 -0.7617
  819MOL0     H13021  10.240   1.843   6.891  1.2643 -1.5090  3.0660
  819MOL0     H13022  10.326   1.719   6.790  1.1912 -1.7373  3.4634
  820MOL0     O13023   2.588   3.775   5.680  0.2360 -0.0410 -0.9265
  820MOL0     C13024   2.482   3.775   5.742  0.1305 -0.9003  0.5959
  820MOL0     O13025   2.454   3.856   5.847  0.6007 -1.0090 -0.0621
  820MOL0     C13026   2.536   3.957   5.879 -0.4068 -0.3979  0.7060
  820MOL0     C13027   2.541   3.993   6.015 -0.1210  1.1153 -0.1767
  820MOL0     C13028   2.599   4.104   6.058  0.1716 -0.9926  0.3276
  820MOL0     C13029   2.680   4.187   5.977  0.0683 -0.1544  0.1443
  820MOL0     O13030   2.755   4.293   6.018  0.7607  0.1466  0.7681
  820MOL0     C13031   2.881   4.287   5.957  0.2058 -0.1922  0.0580
  820MOL0     C13032   2.985   4.355   6.047  0.0786 -0.1026 -0.0622
  820MOL0     C13033   3.081   4.249   6.101 -0.4000  0.0451  1.0165
  820MOL0     C13034   3.151   4.274   6.237  0.2215  0.1491  0.0893
  820MOL0     C13035   3.271   4.178   6.236 -0.0134 -0.5700 -0.5782
  820MOL0     C13036   3.366   4.192   6.352  0.8863 -0.3615  0.2324
  820MOL0     C13037   3.431   4.061   6.380 -0.2474 -0.7000  0.0300
  820MOL0     C13038   3.490   4.065   6.518 -0.0131  0.0518 -0.4721
  820MOL0     N13039   3.548   4.193   6.555  0.1439  0.3789  1.1104
  820MOL0     C13040   3.678   4.232   6.514  0.0326 -0.4079  0.7273
  820MOL0     C13041   3.688   4.366   6.550  0.1031  0.9469 -0.5794
  820MOL0     C13042   3.809   4.461   6.533  0.1664 -0.1992  0.0028
  820MOL0     C13043   3.774   4.609   6.554  0.4298  0.1640  0.8687
  820MOL0     C13044   3.766   4.659   6.696 -0.4149 -0.1781  0.2504
  820MOL0     C13045   3.870   4.602   6.794 -0.6313  1.0061  0.3976
  820MOL0     O13046   3.993   4.639   6.750  0.2319 -0.8240  0.0154
  820MOL0     C13047   4.099   4.614   6.837  0.4488  0.2857  0.2258
  820MOL0     C13048   4.102   4.517   6.944  0.0601 -0.3385  0.2577
  820MOL0     C13049   4.225   4.505   7.021  0.7204 -0.8457 -0.3752
  820MOL0     C13050   4.229   4.422   7.142  0.4602 -0.3939  0.1056
  820MOL0     C13051   4.331   4.598   6.998 -0.0543  0.4073  1.5344
  820MOL0     C13052   4.449   4.606   7.085 -0.5137  0.7087 -0.0011
  820MOL0     O13053   4.568   4.636   7.022  0.7444  0.1015 -0.0847
  820MOL0     C13054   4.686   4.636   7.097  0.9739 -0.8447 -0.9974
  820MOL0     C13055   4.770   4.742   7.065  0.4000  0.1749  0.3533
  820MOL0     C13056   4.900   4.732   7.116 -0.0218  0.2391 -0.1107
  820MOL0     C13057   4.934   4.637   7.211  0.0299  1.0316  0.0983
  820MOL0     O13058   5.066   4.629   7.246  0.3291  0.1832 -0.2916
  820MOL0     C13059   5.102   4.567   7.366  0.2224 -0.6501 -0.1908
  820MOL0     C13060   5.249   4.582   7.406  0.2984  0.2784  1.0055
  820MOL0     C13061   5.347   4.514   7.307 -1.1717  0.1575 -0.2262
  820MOL0     C13062   5.484   4.535   7.369  0.4532  0.3978  0.2247
  820MOL0     C13063   5.590   4.469   7.281  0.7462 -0.5622 -0.7009
  820MOL0     C13064   5.607   4.531   7.145 -0.1193  0.4842 -0.1040
  820MOL0     C13065   5.736   4.506   7.061 -0.0104 -0.0877  0.2264
  820MOL0     C13066   5.790   4.360   7.078  0.4826 -0.1133 -0.3767
  820MOL0    Cl13067   5.680   4.234   7.007  0.1448  0.1695 -0.5945
  820MOL0     C13068   4.841   4.529   7.231  0.2680 -1.7877 -0.5717
  820MOL0     C13069   4.718   4.529   7.169 -0.2612 -1.2894 -0.6943
  820MOL0     O13070   4.441   4.600   7.206  0.8796 -0.4885  0.2043
  820MOL0     C13071   4.321   4.699   6.896  0.8581 -0.0008  0.9422
  820MOL0     C13072   4.206   4.697   6.809 -0.0792 -0.3939 -0.6372
  820MOL0     N13073   3.577   4.389   6.632  0.3347 -0.0754 -0.0270
  820MOL0     N13074   3.506   4.283   6.644 -0.4921  0.1744 -0.1141
  820MOL0     C13075   2.682   4.154   5.837  0.8721 -0.2193  0.0940
  820MOL0     C13076   2.614   4.039   5.786 -0.2344 -0.6260  0.3058
  820MOL0     C13077   2.380   3.680   5.696  0.7446 -0.0972 -0.6887
  820MOL0     C13078   2.427   3.560   5.631 -0.0921 -0.2447  0.4263
  820MOL0     C13079   2.350   3.448   5.616 -0.3698  0.1890  0.4740
  820MOL0     C13080   2.221   3.443   5.656 -0.2301  0.4405  0.9284
  820MOL0     O13081   2.160   3.320   5.632  0.4952 -0.2907  0.8267
  820MOL0     C13082   2.033   3.299   5.690 -0.6501 -0.8400  0.4110
  820MOL0     C13083   1.984   3.154   5.687 -0.0190 -0.3283  1.2534
  820MOL0     C13084   1.849   3.130   5.748  0.8025  0.3058 -0.3424
  820MOL0     C13085   1.815   2.980   5.761 -0.2442  0.1283 -0.0168
  820MOL0     C13086   1.847   2.890   5.649  0.4833  0.0118 -0.5199
  820MOL0     C13087   1.861   2.839   5.541  0.7450  0.2681  0.1005
  820MOL0     C13088   2.167   3.560   5.707 -0.0429  0.7105  0.1530
  820MOL0     C13089   2.241   3.677   5.738 -0.6566  0.1255  0.0103
  820MOL0     C13090   2.171   3.767   5.844 -0.4873  0.0807  0.2106
  820MOL0     H13091   2.484   3.926   6.079 -1.1869  0.3745 -1.8295
  820MOL0     H13092   2.596   4.132   6.163 -0.3810 -3.8909  1.2009
  820MOL0     H13093   2.883   4.341   5.862 -1.5084  0.6214  0.4418
  820MOL0     H13094   2.911   4.183   5.940 -2.8073 -0.8476 -2.0499
  820MOL0     H13095   3.040   4.438   6.003 -0.0140  0.7811  1.4413
  820MOL0     H13096   2.938   4.396   6.137  1.0604  2.2374 -0.5602
  820MOL0     H13097   3.026   4.155   6.108 -0.8568  0.1909 -0.2606
  820MOL0     H13098   3.153   4.229   6.021  1.3445  1.1272  2.2379
  820MOL0     H13099   3.199   4.372   6.240  1.2279 -0.3400  0.6493
  820MOL0     H13100   3.086   4.253   6.323  0.3602 -0.5841  0.0248
  820MOL0     H13101   3.338   4.204   6.153  2.7453  2.9006  2.4010
  820MOL0     H13102   3.223   4.082   6.215 -2.5041  0.5396 -0.2852
  820MOL0     H13103   3.432   4.279   6.345 -2.6843  2.6740  1.0476
  820MOL0     H13104   3.298   4.204   6.437  0.3001  1.1584 -0.4038
  820MOL0     H13105   3.513   4.046   6.310  0.6715 -1.6720  1.2624
  820MOL0     H13106   3.358   3.980   6.390 -0.8569 -0.1416  0.2063
  820MOL0     H13107   3.414   4.044   6.594  0.8902 -2.4738 -0.1824
  820MOL0     H13108   3.559   3.982   6.525 -0.4248 -0.1503  2.3854
  820MOL0     H13109   3.755   4.171   6.468 -0.0062 -0.4567  0.7269
  820MOL0     H13110   3.838   4.451   6.428 -0.5130 -1.1589 -0.1100
  820MOL0     H13111   3.888   4.430   6.602  1.3326  0.6604 -0.9145
  820MOL0     H13112   3.853   4.665   6.504  0.4449 -0.0297  0.6727
  820MOL0     H13113   3.680   4.637   6.505 -0.8751 -1.3445  2.3530
  820MOL0     H13114   3.753   4.768   6.695  2.3077  0.2144 -0.7230
  820MOL0     H13115   3.670   4.628   6.738 -0.6321  0.7435  0.4521
  820MOL0     H13116   3.843   4.636   6.894  1.3377 -2.6975  2.3790
  820MOL0     H13117   3.872   4.493   6.802  1.2744  1.0584  1.0936
  820MOL0     H13118   4.026   4.455   6.990  0.0948 -0.5026  0.0955
  820MOL0     H13119   4.323   4.367   7.151  0.3194 -0.5978  0.3655
  820MOL0     H13120   4.145   4.352   7.144 -1.0429  1.3226  0.3267
  820MOL0     H13121   4.221   4.488   7.230  1.7966 -0.2852  0.1640
  820MOL0     H13122   4.738   4.827   7.005 -0.6155 -1.1593 -1.0818
  820MOL0     H13123   4.985   4.792   7.085  1.3226 -0.6266  1.7054
  820MOL0     H13124   5.040   4.609   7.446  3.6543  0.1479  2.2914
  820MOL0     H13125   5.092   4.460   7.344  4.1207 -1.0973 -0.3782
  820MOL0     H13126   5.267   4.688   7.428 -0.8046  0.7044 -0.0558
  820MOL0     H13127   5.255   4.530   7.502 -0.1245 -0.7096  0.5093
  820MOL0     H13128   5.354   4.571   7.214 -0.4801  0.4297 -0.0177
  820MOL0     H13129   5.329   4.407   7.291  0.0993  0.2007 -2.3926
  820MOL0     H13130   5.493   4.504   7.473  1.3471 -1.6164 -0.4012
  820MOL0     H13131   5.504   4.642   7.357 -1.4352  0.6954 -0.4688
  820MOL0     H13132   5.688   4.462   7.328  2.4296 -1.2298 -4.0123
  820MOL0     H13133   5.566   4.365   7.258 -0.9693 -0.4119  0.2028
  820MOL0     H13134   5.591   4.638   7.160 -1.5007  0.2231  0.4006
  820MOL0     H13135   5.531   4.499   7.073  0.3323  0.5612 -0.6224
  820MOL0     H13136   5.820   4.571   7.086  0.3485  0.1999 -1.5468
  820MOL0     H13137   5.711   4.528   6.957 -0.8364 -3.3477 -0.3808
  820MOL0     H13138   5.793   4.354   7.187 -2.4110  1.7350 -0.1093
  820MOL0     H13139   5.889   4.333   7.039 -0.0934 -0.2028 -1.8477
  820MOL0     H13140   4.875   4.445   7.291  1.7339  1.0301  2.9667
  820MOL0     H13141   4.649   4.448   7.190 -0.3045 -0.9127  0.7010
  820MOL0     H13142   4.406   4.760   6.869 -0.8759  2.4995  0.7505
  820MOL0     H13143   4.213   4.774   6.732  0.8394 -0.5833 -0.7592
  820MOL0     H13144   2.733   4.219   5.767  2.4410 -0.7679  0.6795
  820MOL0     H13145   2.620   4.013   5.681 -0.0664  0.1631  0.1202
  820MOL0     H13146   2.532   3.552   5.605  0.9716  3.3196  2.7374
  820MOL0     H13147   2.389   3.360   5.567 -2.1745  1.1859 -3.0255
  820MOL0     H13148   2.038   3.324   5.796  0.5750  1.4512 -0.1296
  820MOL0     H13149   1.957   3.366   5.649  0.4701  1.3768  1.7633
  820MOL0     H13150   2.069   3.103   5.734 -0.9860 -1.2938  2.0000
  820MOL0     H13151   1.985   3.115   5.585 -0.9376  0.6963  0.8327
  820MOL0     H13152   1.842   3.177   5.847 -0.6064 -0.2049 -0.1663
  820MOL0     H13153   1.788   3.179   5.672  1.2616 -1.8897 -2.2166
  820MOL0     H13154   1.711   2.954   5.784 -0.3281 -1.4262 -1.8920
  820MOL0     H13155   1.865   2.947   5.853  0.0772  0.2431 -0.1492
  820MOL0     H13156   1.851   2.797   5.443  3.4285  2.9825 -1.4807
  820MOL0     H13157   2.063   3.551   5.736  0.6062  2.1151  3.3141
  820MOL0     H13158   2.065   3.780   5.822 -0.4520 -0.4573 -0.3050
  820MOL0     H13159   2.167   3.719   5.942 -2.3406 -0.6207 -0.1690
  820MOL0     H13160   2.220   3.864   5.862  0.0990  0.0329 -0.9880
  821MOL0     O13161  10.722   7.340   8.725  1.1640 -0.0656 -0.6838
  821MOL0     C13162  10.666   7.444   8.692 -0.3921  0.0688  0.1605
  821MOL0     O13163  10.715   7.546   8.610  0.2977  0.3611  0.4118
  821MOL0     C13164  10.836   7.538   8.545 -1.2638 -0.5832 -0.0115
  821MOL0     C13165  10.841   7.557   8.402 -0.3549  0.2211 -0.2150
  821MOL0     C13166  10.962   7.558   8.329  0.0821  0.0055  0.0314
  821MOL0     C13167  11.084   7.534   8.399  0.3024  0.6917 -0.2234
  821MOL0     O13168  11.199   7.523   8.328 -0.1570  0.2852 -0.6509
  821MOL0     C13169  11.202   7.402   8.254 -0.0780 -0.4004 -0.2878
  821MOL0     C13170  11.342   7.349   8.248  0.4194  0.3399  0.1049
  821MOL0     C13171  11.466   7.454   8.230 -0.5080  0.1856  0.4750
  821MOL0     C13172  11.465   7.516   8.091  0.0419 -0.3663  0.5445
  821MOL0     C13173  11.563   7.639   8.075  1.4403  0.0943 -0.0743
  821MOL0     C13174  11.709   7.613   8.024 -0.1292  0.4372  0.1104
  821MOL0     C13175  11.784   7.519   8.123  0.4102 -0.3680 -0.7185
  821MOL0     C13176  11.936   7.520   8.075  0.7706  1.1525  0.1615
  821MOL0     N13177  12.011   7.645   8.116 -0.2474  0.1082  0.1241
  821MOL0     C13178  12.135   7.686   8.069  0.3229  0.4406  0.2923
  821MOL0     C13179  12.156   7.807   8.127 -0.4964 -0.1830  0.0397
  821MOL0     C13180  12.271   7.894   8.094  0.2307  0.4128 -0.0969
  821MOL0     C13181  12.380   7.879   8.205 -0.9389 -0.7323 -0.3863
  821MOL0     C13182  12.508   7.911   8.153 -0.5916 -1.0395 -0.4512
  821MOL0     C13183  12.615   7.906   8.256  0.6633  0.0962  0.9856
  821MOL0     O13184  12.603   8.013   8.349  0.7668 -0.0210 -0.0621
  821MOL0     C13185  12.689   8.018   8.449  0.7711  0.8191  0.0045
  821MOL0     C13186  12.655   8.106   8.548 -0.3748  0.6812 -0.2281
  821MOL0     C13187  12.743   8.127   8.655 -1.0126 -0.1790 -0.0310
  821MOL0     C13188  12.699   8.232   8.753  0.5346 -0.7654  0.0664
  821MOL0     C13189  12.872   8.052   8.670  0.7215 -0.1474  0.0768
  821MOL0     C13190  12.974   8.073   8.774  1.1324 -0.5236 -0.5196
  821MOL0     O13191  13.081   8.002   8.754  1.1418 -0.5145 -0.6035
  821MOL0     C13192  13.175   8.008   8.851  0.1131 -0.0742  0.1968
  821MOL0     C13193  13.242   8.132   8.873 -0.6526  0.5068  0.4388
  821MOL0     C13194  13.336   8.142   8.969 -0.9507 -0.1696 -0.1710
  821MOL0     C13195  13.367   8.028   9.049  0.2221 -0.9128  0.2409
  821MOL0     O13196  13.456   8.061   9.143 -1.0511  0.3742  0.1260
  821MOL0     C13197  13.443   7.995   9.270  0.0773 -0.5451 -0.1944
  821MOL0     C13198  13.559   8.037   9.355 -0.3665  0.5186 -0.1802
  821MOL0     C13199  13.681   7.946   9.354 -0.2563  0.9148  0.0088
  821MOL0     C13200  13.763   7.940   9.229  0.5486 -0.0768  0.2628
  821MOL0     C13201  13.910   7.908   9.246 -0.2612  0.3667 -0.8235
  821MOL0     C13202  13.948   7.766   9.202  0.1793  0.5416  0.5050
  821MOL0     C13203  14.097   7.761   9.174  0.4077  0.2932 -1.0132
  821MOL0     C13204  14.186   7.777   9.297 -0.4321 -0.3679 -0.3769
  821MOL0    Cl13205  14.229   7.949   9.301 -0.2433  0.4072  0.8276
  821MOL0     C13206  13.304   7.911   9.035  0.6947 -0.3408  0.4198
  821MOL0     C13207  13.206   7.906   8.939 -0.3293 -0.4036 -0.3562
  821MOL0     O13208  12.960   8.156   8.855  0.3483 -0.4638 -0.4116
  821MOL0     C13209  12.897   7.959   8.569  0.7882  1.0089  0.2716
  821MOL0     C13210  12.810   7.943   8.461 -0.1469 -1.0826  0.2753
  821MOL0     N13211  12.035   7.844   8.194 -0.3490  0.0840 -0.2712
  821MOL0     N13212  11.973   7.746   8.204 -0.2690  0.0368 -0.8045
  821MOL0     C13213  11.083   7.505   8.534  0.4146  0.0439 -1.0497
  821MOL0     C13214  10.967   7.508   8.609  0.7572 -0.0968  1.1524
  821MOL0     C13215  10.533   7.472   8.753  0.2972 -1.5405  0.2658
  821MOL0     C13216  10.442   7.541   8.670 -0.5442  0.5045 -0.5005
  821MOL0     C13217  10.310   7.563   8.709  0.7405  0.8078 -0.2489
  821MOL0     C13218  10.273   7.514   8.829  0.7532 -0.3257  0.4529
  821MOL0     O13219  10.142   7.516   8.874 -0.4252  0.6052  0.1607
  821MOL0     C13220  10.031   7.474   8.789  0.1149 -0.5692  0.0616
  821MOL0     C13221  10.047   7.349   8.694  0.3699 -0.3011 -0.3930
  821MOL0     C13222   9.955   7.338   8.568 -0.9456  0.1658 -0.6828
  821MOL0     C13223   9.999   7.429   8.448 -1.0866 -0.5353 -0.2051
  821MOL0     C13224  10.132   7.384   8.400 -0.7073  0.0477  0.6887
  821MOL0     C13225  10.237   7.347   8.355  0.4398  0.4032 -0.0254
  821MOL0     C13226  10.366   7.455   8.919  0.2937 -0.0099 -0.0189
  821MOL0     C13227  10.493   7.426   8.882 -0.5005 -0.4624  0.2296
  821MOL0     C13228  10.581   7.359   8.987  0.2632 -0.2153  0.8481
  821MOL0     H13229  10.751   7.587   8.350 -2.1130  3.9685  4.2832
  821MOL0     H13230  10.969   7.589   8.226 -0.3503 -1.6366 -0.5249
  821MOL0     H13231  11.158   7.425   8.157  0.0298  2.2013  0.2183
  821MOL0     H13232  11.147   7.326   8.310 -0.5258  0.5852  0.6432
  821MOL0     H13233  11.376   7.279   8.325  0.6369  0.7158  0.3531
  821MOL0     H13234  11.343   7.282   8.161 -1.8189 -2.3315  1.9644
  821MOL0     H13235  11.467   7.537   8.302  1.4585  1.3809 -0.8465
  821MOL0     H13236  11.554   7.390   8.237 -1.3671 -1.1929 -0.8367
  821MOL0     H13237  11.492   7.449   8.009  0.2310  0.2105  0.1220
  821MOL0     H13238  11.362   7.550   8.082  0.9753  2.1483 -2.3470
  821MOL0     H13239  11.567   7.680   8.177  1.2588 -1.7705  0.7349
  821MOL0     H13240  11.520   7.724   8.022  4.2470  1.9540  0.3949
  821MOL0     H13241  11.704   7.575   7.922 -0.0915  0.2296  0.1856
  821MOL0     H13242  11.761   7.709   8.017 -0.4407  0.7681  1.9081
  821MOL0     H13243  11.747   7.417   8.136 -0.4189 -0.1804 -1.5325
  821MOL0     H13244  11.771   7.580   8.213 -0.8490 -0.3207 -0.9123
  821MOL0     H13245  11.980   7.430   8.117 -1.7807 -0.4106 -0.2604
  821MOL0     H13246  11.931   7.518   7.965 -0.2188 -0.5478  0.1958
  821MOL0     H13247  12.208   7.631   8.010 -1.2567 -0.1831 -1.1955
  821MOL0     H13248  12.233   7.995   8.077  0.9353  0.2465 -3.0636
  821MOL0     H13249  12.308   7.860   7.997 -2.2622  4.8526 -2.9620
  821MOL0     H13250  12.351   7.953   8.280 -1.7020 -1.3770 -0.0344
  821MOL0     H13251  12.379   7.783   8.259 -0.7241  0.0657  1.0932
  821MOL0     H13252  12.536   7.845   8.070  2.1607 -2.2210  1.2474
  821MOL0     H13253  12.501   8.010   8.107 -1.7932 -1.4937 -1.2774
  821MOL0     H13254  12.621   7.813   8.313 -0.6249  0.6846  2.1530
  821MOL0     H13255  12.711   7.914   8.204  0.5879 -1.4926  0.5726
  821MOL0     H13256  12.564   8.164   8.535  0.6710  2.3728 -0.3334
  821MOL0     H13257  12.720   8.212   8.859 -2.2110 -1.6331  0.5190
  821MOL0     H13258  12.591   8.239   8.767  0.8017  2.6286  1.5651
  821MOL0     H13259  12.715   8.337   8.726 -0.0487 -1.1740 -2.0049
  821MOL0     H13260  13.218   8.221   8.817 -0.7967  1.9891  2.6957
  821MOL0     H13261  13.386   8.237   8.976 -1.3548  0.6423 -4.8459
  821MOL0     H13262  13.352   8.023   9.323 -1.0189 -0.4219 -2.0524
  821MOL0     H13263  13.443   7.886   9.259  0.5635 -0.7318  1.3717
  821MOL0     H13264  13.588   8.139   9.329 -0.8875  1.3092  2.1235
  821MOL0     H13265  13.540   8.035   9.463 -1.8157  0.3182 -0.4230
  821MOL0     H13266  13.660   7.843   9.385  0.2300  0.7107 -0.3346
  821MOL0     H13267  13.740   7.971   9.443  0.1432  0.0093  0.0156
  821MOL0     H13268  13.758   8.043   9.190 -0.3000 -0.9172 -2.0121
  821MOL0     H13269  13.722   7.875   9.151  0.1894  1.1574 -0.6081
  821MOL0     H13270  13.971   7.974   9.183  1.1485  1.0856  1.1974
  821MOL0     H13271  13.942   7.931   9.348 -3.0434 -0.5171  0.3531
  821MOL0     H13272  13.897   7.740   9.108 -1.3427 -1.0276  1.6971
  821MOL0     H13273  13.910   7.703   9.283 -1.8853 -0.2218 -0.9469
  821MOL0     H13274  14.122   7.834   9.096 -1.1721  1.7214 -0.2527
  821MOL0     H13275  14.112   7.660   9.134  2.4128  0.0016  0.3436
  821MOL0     H13276  14.279   7.719   9.292  0.0096  0.1360  1.3183
  821MOL0     H13277  14.140   7.742   9.389  0.5500 -1.9220 -0.4382
  821MOL0     H13278  13.312   7.830   9.107 -1.4650  0.5030  1.6849
  821MOL0     H13279  13.135   7.824   8.944  0.1216 -0.7870 -0.1442
  821MOL0     H13280  12.978   7.887   8.573 -1.3133 -1.6752 -1.4787
  821MOL0     H13281  12.838   7.872   8.384 -1.7815 -0.8718 -0.5525
  821MOL0     H13282  11.177   7.495   8.588 -0.1745  2.8256  0.7004
  821MOL0     H13283  10.972   7.489   8.715 -2.9202 -0.9366  1.3192
  821MOL0     H13284  10.458   7.569   8.566 -1.3252 -3.8221 -1.9890
  821MOL0     H13285  10.235   7.610   8.645  0.4561  0.5569 -0.0956
  821MOL0     H13286   9.944   7.449   8.850  1.2347 -2.2826  1.0463
  821MOL0     H13287  10.012   7.560   8.725  2.7098 -0.1607 -0.2870
  821MOL0     H13288  10.015   7.262   8.753 -0.6411 -0.1270 -0.6671
  821MOL0     H13289  10.152   7.324   8.676 -0.0196 -2.2725 -0.1244
  821MOL0     H13290   9.953   7.234   8.537  3.3041 -0.0716 -0.6966
  821MOL0     H13291   9.855   7.369   8.602 -0.8841  0.8258 -1.0751
  821MOL0     H13292  10.006   7.535   8.477 -1.3715 -0.7741  0.7936
  821MOL0     H13293   9.922   7.425   8.370 -2.7191  2.6534  1.0514
  821MOL0     H13294  10.314   7.298   8.300 -0.0359 -0.2186 -0.1462
  821MOL0     H13295  10.326   7.419   9.013 -2.5180 -0.7545 -1.3758
  821MOL0     H13296  10.667   7.419   9.020 -1.4117  2.2578  0.9627
  821MOL0     H13297  10.518   7.336   9.073 -2.5414 -0.3338 -1.1311
  821MOL0     H13298  10.609   7.267   8.935  2.1748  1.5693 -1.5235
  822MOL0     O13299   8.205  11.150   1.535 -0.6256  0.0613 -0.3095
  822MOL0     C13300   8.214  11.253   1.603 -0.0141  0.3987 -0.2248
  822MOL0     O13301   8.324  11.322   1.621 -0.0279 -0.0224 -0.6521
  822MOL0     C13302   8.420  11.317   1.524 -0.5167  0.2044 -0.3439
  822MOL0     C13303   8.559  11.321   1.576  1.3476  0.7721 -0.2682
  822MOL0     C13304   8.659  11.312   1.482  0.7086  0.3888  0.1823
  822MOL0     C13305   8.643  11.307   1.345 -0.0498 -1.0157 -0.1708
  822MOL0     O13306   8.748  11.290   1.262 -0.5717  0.0202 -0.6675
  822MOL0     C13307   8.846  11.394   1.280 -0.5552 -0.4625  0.0967
  822MOL0     C13308   8.991  11.361   1.227 -0.4122  0.0021 -0.4437
  822MOL0     C13309   8.995  11.355   1.075 -0.3812  0.5661  0.3317
  822MOL0     C13310   9.129  11.304   1.036 -0.2836  1.0081 -0.0917
  822MOL0     C13311   9.123  11.244   0.894  0.7690 -0.3834  0.3472
  822MOL0     C13312   9.255  11.251   0.819  0.3989 -0.2831 -0.2230
  822MOL0     C13313   9.261  11.190   0.677  0.1266 -0.3483  0.6749
  822MOL0     C13314   9.158  11.248   0.584 -0.2997 -0.9220  1.3777
  822MOL0     N13315   9.211  11.216   0.446 -0.2255 -0.6761  0.0277
  822MOL0     C13316   9.219  11.306   0.341  0.2406  0.3281  0.8057
  822MOL0     C13317   9.262  11.226   0.239 -1.1855  0.2376 -0.0839
  822MOL0     C13318   9.294  11.248   0.096  0.6609 -0.2519  0.2782
  822MOL0     C13319   9.397  11.360   0.071 -0.5777 -0.3221 -0.3731
  822MOL0     C13320   9.546  11.323   0.071  0.1096 -0.6207 -0.0952
  822MOL0     C13321   9.643  11.435   0.017 -0.2257 -0.1066 -0.8857
  822MOL0     O13322   9.758  11.360  -0.037  0.0060  0.6308 -0.4949
  822MOL0     C13323   9.875  11.428  -0.056 -0.5369 -0.3562 -0.6286
  822MOL0     C13324   9.890  11.566  -0.041  0.2059 -0.4641  0.4251
  822MOL0     C13325  10.012  11.633  -0.071  0.7765 -0.7225  0.4075
  822MOL0     C13326  10.012  11.785  -0.087  0.1987  0.3757  0.3660
  822MOL0     C13327  10.126  11.553  -0.099  0.1736  1.0246  0.0081
  822MOL0     C13328  10.260  11.606  -0.114  0.2735 -0.3968  0.4128
  822MOL0     O13329  10.358  11.514  -0.140 -0.4520 -0.2056 -0.5914
  822MOL0     C13330  10.488  11.535  -0.183 -0.2956  0.2790 -0.0314
  822MOL0     C13331  10.557  11.654  -0.192 -0.6589 -0.7085  0.8094
  822MOL0     C13332  10.697  11.647  -0.221 -0.9925 -0.3685 -0.2435
  822MOL0     C13333  10.756  11.525  -0.256  1.0737 -0.2253  1.3345
  822MOL0     O13334  10.879  11.498  -0.297  0.0553 -0.8582  0.0277
  822MOL0     C13335  10.989  11.579  -0.250  0.0494 -0.6696  0.4046
  822MOL0     C13336  11.121  11.513  -0.289  0.4071  0.4487  0.1459
  822MOL0     C13337  11.238  11.610  -0.246 -0.1026 -0.3121 -0.5591
  822MOL0     C13338  11.386  11.568  -0.286 -0.5492 -1.4101 -0.5715
  822MOL0     C13339  11.485  11.669  -0.225  0.6960 -0.8852  0.4883
  822MOL0     C13340  11.632  11.632  -0.244  0.9710  0.3651 -0.3808
  822MOL0     C13341  11.739  11.737  -0.214 -0.2777 -0.7215 -0.7234
  822MOL0     C13342  11.890  11.710  -0.251  0.0657  1.3068  0.6432
  822MOL0    Cl13343  11.947  11.556  -0.180 -0.2701 -0.2810 -0.0883
  822MOL0     C13344  10.691  11.410  -0.244  0.3232 -0.5302 -0.2226
  822MOL0     C13345  10.555  11.412  -0.217 -0.1212  0.0330 -0.5446
  822MOL0     O13346  10.287  11.727  -0.114  0.5043  0.3703 -0.8923
  822MOL0     C13347  10.111  11.415  -0.116  0.2426 -1.2121 -0.3601
  822MOL0     C13348   9.990  11.352  -0.086 -0.7113 -0.7628 -0.2976
  822MOL0     N13349   9.278  11.094   0.289  0.1205  0.0225  0.6325
  822MOL0     N13350   9.249  11.091   0.405  0.4933 -0.1478  0.4447
  822MOL0     C13351   8.510  11.303   1.296  0.3128 -0.6657 -0.7717
  822MOL0     C13352   8.401  11.308   1.384 -0.7544  0.4411  0.6861
  822MOL0     C13353   8.107  11.264   1.698 -0.0017 -0.5057  0.0174
  822MOL0     C13354   8.146  11.292   1.833 -0.2756  0.3892 -0.0216
  822MOL0     C13355   8.043  11.320   1.927 -1.1652 -0.0177 -0.7205
  822MOL0     C13356   7.907  11.308   1.897  0.0548 -0.5146  0.4409
  822MOL0     O13357   7.805  11.323   1.989 -1.5304 -0.0905  0.0546
  822MOL0     C13358   7.802  11.456   2.049  0.4754 -0.3094 -0.0756
  822MOL0     C13359   7.670  11.481   2.126  0.0553 -0.0867 -0.0903
  822MOL0     C13360   7.660  11.394   2.255  0.8100 -0.1585 -0.1800
  822MOL0     C13361   7.527  11.423   2.329  0.1295 -0.4038 -0.2646
  822MOL0     C13362   7.536  11.358   2.463  0.5039 -0.6590  0.1850
  822MOL0     C13363   7.537  11.329   2.579  0.1782  0.3953 -0.6695
  822MOL0     C13364   7.882  11.284   1.766  0.7406 -0.0312 -0.3041
  822MOL0     C13365   7.976  11.267   1.661 -0.8260 -0.0604 -0.2854
  822MOL0     C13366   7.927  11.253   1.516  0.0931 -0.2564  0.4217
  822MOL0     H13367   8.588  11.323   1.681  2.5251  0.3090 -0.5630
  822MOL0     H13368   8.757  11.295   1.527  1.2981  1.5361 -0.6154
  822MOL0     H13369   8.857  11.435   1.381  1.0746  2.0381 -0.9945
  822MOL0     H13370   8.811  11.483   1.227  0.9856  0.8661  1.1814
  822MOL0     H13371   9.070  11.426   1.264 -1.2536  1.1167 -0.5560
  822MOL0     H13372   9.015  11.262   1.268  2.7746  1.5671  1.7931
  822MOL0     H13373   8.917  11.288   1.037 -0.3728  0.6136  0.2321
  822MOL0     H13374   8.983  11.451   1.025  1.0455  0.4326 -0.2901
  822MOL0     H13375   9.197  11.390   1.041  2.2265 -0.7536 -1.5212
  822MOL0     H13376   9.164  11.231   1.109 -1.1836  2.1224  1.5391
  822MOL0     H13377   9.045  11.303   0.845 -1.1033  0.3843  3.9107
  822MOL0     H13378   9.087  11.141   0.902 -2.0341  0.4157 -0.8583
  822MOL0     H13379   9.296  11.352   0.816  1.2257 -0.6329 -1.2800
  822MOL0     H13380   9.322  11.199   0.889  0.9075  1.9668  1.0684
  822MOL0     H13381   9.235  11.084   0.682  3.9309 -1.4054  1.4905
  822MOL0     H13382   9.362  11.202   0.635 -0.8661  1.7881 -1.3091
  822MOL0     H13383   9.064  11.194   0.596 -1.8503  0.9995 -1.0671
  822MOL0     H13384   9.138  11.354   0.603 -2.3253 -1.1511  0.7117
  822MOL0     H13385   9.179  11.406   0.336  0.6161  0.4844  0.9206
  822MOL0     H13386   9.200  11.278   0.049  1.2305  2.4388  0.7277
  822MOL0     H13387   9.329  11.150   0.061  2.0510  0.4818 -0.4980
  822MOL0     H13388   9.376  11.392  -0.032  1.0071 -0.8739 -0.8937
  822MOL0     H13389   9.379  11.447   0.135 -0.2268  2.3975 -3.6361
  822MOL0     H13390   9.579  11.296   0.171 -1.3117  0.0293  0.5671
  822MOL0     H13391   9.564  11.231   0.014  2.3914 -1.6327  2.0925
  822MOL0     H13392   9.588  11.492  -0.059  0.9833  1.3054 -0.7340
  822MOL0     H13393   9.658  11.506   0.099 -2.7929 -0.5270  0.0528
  822MOL0     H13394   9.799  11.621  -0.016 -0.5727 -1.4218 -0.2025
  822MOL0     H13395  10.041  11.809  -0.190  2.2608 -0.7292  0.6376
  822MOL0     H13396  10.084  11.830  -0.018 -0.2356  3.5255 -1.0734
  822MOL0     H13397   9.917  11.836  -0.070  0.1333 -0.1871  1.7865
  822MOL0     H13398  10.510  11.750  -0.180 -1.9759 -1.4029  1.4563
  822MOL0     H13399  10.763  11.732  -0.227 -0.3710 -0.8343 -0.1065
  822MOL0     H13400  10.997  11.681  -0.290  0.2480 -0.7194  0.3153
  822MOL0     H13401  10.987  11.578  -0.141  1.7680 -4.0706  0.5156
  822MOL0     H13402  11.126  11.417  -0.237 -1.6827  1.8329  3.2093
  822MOL0     H13403  11.109  11.502  -0.397 -0.5177 -1.0846  0.3820
  822MOL0     H13404  11.239  11.619  -0.137  4.5501 -0.7749 -0.3814
  822MOL0     H13405  11.219  11.709  -0.289  0.0341  0.2279  0.5815
  822MOL0     H13406  11.390  11.559  -0.395 -2.1992 -1.3950 -0.6675
  822MOL0     H13407  11.403  11.471  -0.238  2.8860  0.4593  2.4522
  822MOL0     H13408  11.460  11.765  -0.272 -3.4567 -1.2324  1.5551
  822MOL0     H13409  11.468  11.695  -0.121  2.1030  3.4180 -0.1535
  822MOL0     H13410  11.652  11.596  -0.346 -1.8205 -0.0610 -0.8378
  822MOL0     H13411  11.647  11.544  -0.181  2.8032  1.1396  0.3394
  822MOL0     H13412  11.739  11.756  -0.106 -0.7814 -0.2168 -0.8054
  822MOL0     H13413  11.705  11.837  -0.244 -0.4559  0.2167  2.2552
  822MOL0     H13414  11.961  11.781  -0.209  0.2695  2.9888 -2.2734
  822MOL0     H13415  11.921  11.709  -0.356  0.8691 -3.0421  0.7137
  822MOL0     H13416  10.739  11.314  -0.258  3.0472  0.6532  0.3536
  822MOL0     H13417  10.502  11.318  -0.210 -1.4836  0.8733  1.7374
  822MOL0     H13418  10.196  11.351  -0.137  1.8121  0.2101  1.2918
  822MOL0     H13419   9.985  11.244  -0.091  0.1312 -0.7694 -1.2797
  822MOL0     H13420   8.488  11.304   1.190  0.7220  0.0209 -0.8618
  822MOL0     H13421   8.298  11.316   1.350 -0.0808  2.1949 -1.1957
  822MOL0     H13422   8.248  11.311   1.865 -0.0356  1.2875 -1.2691
  822MOL0     H13423   8.075  11.337   2.029  1.5688  1.9797 -1.8085
  822MOL0     H13424   7.896  11.453   2.104  0.7979 -3.4111 -0.6191
  822MOL0     H13425   7.814  11.532   1.970  1.1121 -0.5466 -0.2125
  822MOL0     H13426   7.579  11.466   2.067 -0.3790  1.3031  0.1710
  822MOL0     H13427   7.676  11.588   2.149  0.8285  0.4484 -2.5021
  822MOL0     H13428   7.681  11.290   2.231 -0.4515  0.0802 -2.6087
  822MOL0     H13429   7.742  11.430   2.318 -2.3884  2.1704  3.1220
  822MOL0     H13430   7.439  11.397   2.269 -0.0416 -0.2284 -0.0945
  822MOL0     H13431   7.524  11.532   2.343  1.4666 -0.2708 -0.9328
  822MOL0     H13432   7.543  11.278   2.672  1.5223 -2.2510 -2.1116
  822MOL0     H13433   7.778  11.283   1.734  1.0375  2.5197 -1.6771
  822MOL0     H13434   7.885  11.351   1.492  3.8171  1.5693  0.6148
  822MOL0     H13435   8.014  11.253   1.449  0.0914  0.7005  0.4137
  822MOL0     H13436   7.868  11.166   1.489  1.2895 -1.0557  0.2779
  823MOL0     O13437   3.163   0.972   7.796  0.2013 -0.1337  0.3373
  823MOL0     C13438   3.142   0.978   7.918 -0.0746 -0.3536 -0.7865
  823MOL0     O13439   3.235   1.020   8.006  0.2671 -1.0830  0.3042
  823MOL0     C13440   3.371   1.031   7.969 -1.1169 -0.3462 -0.6238
  823MOL0     C13441   3.449   1.130   8.039 -0.4258 -0.1801 -0.2990
  823MOL0     C13442   3.588   1.146   8.029  0.5032  0.4477 -0.2920
  823MOL0     C13443   3.654   1.079   7.932 -0.5846 -0.0979  1.0458
  823MOL0     O13444   3.786   1.094   7.920 -0.3901  0.8569 -0.4224
  823MOL0     C13445   3.844   1.091   7.786  0.4236  0.2288  0.1362
  823MOL0     C13446   3.991   1.131   7.778  0.1774 -0.8480  0.0219
  823MOL0     C13447   4.020   1.273   7.829  1.1898  0.1023 -0.3076
  823MOL0     C13448   4.160   1.307   7.793 -0.4108  0.6373  1.1666
  823MOL0     C13449   4.205   1.457   7.842 -0.4555 -0.1151  0.7062
  823MOL0     C13450   4.338   1.497   7.756  0.1014  0.3356 -0.1122
  823MOL0     C13451   4.399   1.618   7.833  0.3740  1.3822  0.9881
  823MOL0     C13452   4.495   1.688   7.738 -0.0169 -0.9222 -0.1822
  823MOL0     N13453   4.554   1.812   7.803  0.0486  0.1324  0.1593
  823MOL0     C13454   4.483   1.918   7.846 -0.7482  0.0893 -0.6255
  823MOL0     C13455   4.576   2.007   7.883  0.4192 -0.3425 -0.1983
  823MOL0     C13456   4.542   2.145   7.945 -0.9290 -0.4463 -0.8203
  823MOL0     C13457   4.388   2.185   7.958  0.6926  0.0061  0.1894
  823MOL0     C13458   4.387   2.344   7.946 -0.2510  0.6037  0.5758
  823MOL0     C13459   4.238   2.394   7.949  0.6235 -0.6240 -0.1498
  823MOL0     O13460   4.187   2.375   8.083  0.4568  0.5716  0.5039
  823MOL0     C13461   4.062   2.330   8.109 -0.2393 -0.0695 -0.5961
  823MOL0     C13462   4.049   2.248   8.216  0.3169 -0.1595 -0.6100
  823MOL0     C13463   3.919   2.226   8.270 -0.4825 -0.6702 -0.3144
  823MOL0     C13464   3.912   2.127   8.387  0.3034 -0.1393  0.0569
  823MOL0     C13465   3.804   2.287   8.212  0.0748 -0.2274  0.1475
  823MOL0     C13466   3.669   2.260   8.265  0.0917  0.8499 -0.0378
  823MOL0     O13467   3.569   2.244   8.171  0.9551 -0.5290  0.8146
  823MOL0     C13468   3.444   2.242   8.219 -0.3512 -1.1755 -0.2283
  823MOL0     C13469   3.402   2.122   8.284 -1.0517  0.8229 -0.0106
  823MOL0     C13470   3.275   2.094   8.323  0.5767 -0.0264  0.4309
  823MOL0     C13471   3.178   2.187   8.293 -1.1216 -0.2705  0.0079
  823MOL0     O13472   3.049   2.158   8.325 -0.4490 -0.8452 -0.5842
  823MOL0     C13473   2.993   2.041   8.269 -0.3737 -0.5009  0.3715
  823MOL0     C13474   2.934   1.942   8.370 -0.1971 -1.0054 -0.6477
  823MOL0     C13475   2.781   1.905   8.365  0.4754  0.2093  0.1768
  823MOL0     C13476   2.734   1.760   8.388 -1.2723 -0.3333 -0.7507
  823MOL0     C13477   2.587   1.736   8.380 -0.2853 -0.7600  0.5679
  823MOL0     C13478   2.555   1.726   8.227  0.1386  0.4217  0.8722
  823MOL0     C13479   2.421   1.664   8.183  0.7619 -0.3731  0.0167
  823MOL0     C13480   2.408   1.646   8.032  0.3464  0.2001  0.1652
  823MOL0    Cl13481   2.288   1.512   7.993 -0.1338 -0.1045  0.0523
  823MOL0     C13482   3.217   2.311   8.225 -0.0348 -0.6023 -0.1388
  823MOL0     C13483   3.346   2.341   8.196 -0.5056  0.4716 -0.7074
  823MOL0     O13484   3.660   2.257   8.385  1.0429  0.5399 -0.9290
  823MOL0     C13485   3.815   2.353   8.092 -0.3501 -0.6996 -0.0460
  823MOL0     C13486   3.947   2.378   8.042  1.0751 -0.2580 -0.1295
  823MOL0     N13487   4.703   1.966   7.855  0.5505  0.4093  0.3970
  823MOL0     N13488   4.691   1.841   7.809  0.1854 -0.1698 -0.3579
  823MOL0     C13489   3.586   0.991   7.847  0.0790  0.0650 -0.6787
  823MOL0     C13490   3.449   0.961   7.876  0.0539  0.2333  0.6437
  823MOL0     C13491   3.007   0.958   7.964  0.1978 -0.3622 -0.5066
  823MOL0     C13492   2.986   0.971   8.101  0.1416 -0.5817  0.1680
  823MOL0     C13493   2.869   0.925   8.166 -1.1403 -0.4021  0.5905
  823MOL0     C13494   2.765   0.873   8.088 -0.5288 -0.5490 -1.1377
  823MOL0     O13495   2.650   0.832   8.153 -0.7195 -0.4694  0.7179
  823MOL0     C13496   2.565   0.948   8.185 -0.4624 -0.2690 -0.0293
  823MOL0     C13497   2.468   0.951   8.062  0.2701 -0.7035  0.6900
  823MOL0     C13498   2.348   1.051   8.078 -0.1845 -0.2913  0.4468
  823MOL0     C13499   2.270   1.064   8.209  0.3168 -0.2962  0.7572
  823MOL0     C13500   2.160   1.162   8.204 -0.5738  0.8469 -0.2334
  823MOL0     C13501   2.069   1.239   8.199  0.6580  0.2196  1.1359
  823MOL0     C13502   2.773   0.875   7.946  0.1481 -0.0847  1.2591
  823MOL0     C13503   2.891   0.920   7.881 -0.7281 -0.5411 -0.5335
  823MOL0     C13504   2.887   0.911   7.731  0.6125  0.2415  0.5051
  823MOL0     H13505   3.401   1.194   8.112 -0.2797  1.6026 -1.6969
  823MOL0     H13506   3.641   1.220   8.089  0.7614  1.6481 -1.9329
  823MOL0     H13507   3.784   1.163   7.730  0.4023  0.2660  0.2067
  823MOL0     H13508   3.827   0.996   7.734  0.0562  0.0432  0.5873
  823MOL0     H13509   4.041   1.050   7.832 -0.7336  0.3464  2.8264
  823MOL0     H13510   4.010   1.131   7.670  1.1161  0.1711  0.1745
  823MOL0     H13511   3.950   1.341   7.780  1.4851  0.8987  0.3609
  823MOL0     H13512   4.005   1.271   7.938  0.8007 -0.8398 -0.3680
  823MOL0     H13513   4.231   1.233   7.828  0.3004  1.5282  1.6460
  823MOL0     H13514   4.163   1.316   7.684 -0.6676 -0.5121  1.0489
  823MOL0     H13515   4.232   1.457   7.948 -2.1650  1.1484  1.1735
  823MOL0     H13516   4.123   1.526   7.823  0.0692  0.6139  1.0366
  823MOL0     H13517   4.403   1.410   7.764 -1.3233 -0.7198  0.3374
  823MOL0     H13518   4.307   1.514   7.652 -3.0109  2.0766  0.9481
  823MOL0     H13519   4.453   1.587   7.923 -2.0222 -1.0076  1.7292
  823MOL0     H13520   4.323   1.692   7.862 -0.4605  1.5027 -1.3542
  823MOL0     H13521   4.577   1.622   7.708  0.3956 -0.0347 -1.1017
  823MOL0     H13522   4.447   1.721   7.645 -2.5931 -0.0333  1.3580
  823MOL0     H13523   4.376   1.924   7.861 -0.5498  0.4696  0.8542
  823MOL0     H13524   4.600   2.218   7.887  1.8389 -1.6424  0.2565
  823MOL0     H13525   4.573   2.151   8.049  0.7124  1.7453 -1.3574
  823MOL0     H13526   4.350   2.150   7.862  0.0365  0.1946  0.3778
  823MOL0     H13527   4.338   2.148   8.048 -2.8998  0.8050 -1.3130
  823MOL0     H13528   4.459   2.395   8.012  0.4527  1.2782 -0.6576
  823MOL0     H13529   4.439   2.358   7.851 -0.2584 -1.3662  0.2467
  823MOL0     H13530   4.235   2.498   7.917  0.0378 -0.7205 -0.4198
  823MOL0     H13531   4.178   2.335   7.879 -0.6009 -0.6345  0.8761
  823MOL0     H13532   4.139   2.206   8.261 -0.5498 -0.0147  1.3392
  823MOL0     H13533   3.898   2.179   8.483 -0.4062  0.6668 -0.4696
  823MOL0     H13534   4.000   2.061   8.390 -0.6389 -1.4081  0.7830
  823MOL0     H13535   3.823   2.065   8.380  0.0117  0.1022  1.3411
  823MOL0     H13536   3.477   2.047   8.307 -0.8116  0.6435 -1.2778
  823MOL0     H13537   3.249   1.997   8.364  1.0201 -0.9248 -1.3209
  823MOL0     H13538   2.922   2.066   8.190  0.6462 -0.1380 -0.4455
  823MOL0     H13539   3.077   1.994   8.218 -1.1283 -0.4702 -0.9533
  823MOL0     H13540   2.991   1.849   8.363 -0.2306 -0.9343 -2.1124
  823MOL0     H13541   2.938   1.987   8.470 -1.3839  0.3724 -1.1854
  823MOL0     H13542   2.741   1.925   8.265  2.1890 -0.2467 -0.6508
  823MOL0     H13543   2.729   1.960   8.444  0.1272 -0.4250  0.3949
  823MOL0     H13544   2.780   1.708   8.472  1.7709 -1.8705 -3.1609
  823MOL0     H13545   2.789   1.704   8.312  1.0744 -1.1278  1.3810
  823MOL0     H13546   2.565   1.641   8.429  2.3635 -2.4794 -1.3306
  823MOL0     H13547   2.528   1.820   8.419 -2.1382 -1.8393  0.1499
  823MOL0     H13548   2.628   1.657   8.183 -2.0815 -1.6892  0.3067
  823MOL0     H13549   2.577   1.818   8.171 -0.1670 -1.7332 -3.1431
  823MOL0     H13550   2.329   1.707   8.225  0.1168 -1.9084  0.2479
  823MOL0     H13551   2.418   1.568   8.234  2.0698 -1.8843 -2.5847
  823MOL0     H13552   2.509   1.635   7.991  0.9731  0.8882  1.4710
  823MOL0     H13553   2.369   1.742   7.998  1.5760  1.2131  1.5109
  823MOL0     H13554   3.138   2.378   8.191  0.6694 -0.6278 -1.9347
  823MOL0     H13555   3.382   2.432   8.150  1.3893  0.2577  0.2210
  823MOL0     H13556   3.731   2.395   8.039 -0.5266  0.0344  0.7964
  823MOL0     H13557   3.960   2.439   7.952  0.1396  3.0667  1.8117
  823MOL0     H13558   3.635   0.937   7.767  0.4062  0.8075 -0.9872
  823MOL0     H13559   3.390   0.890   7.819  0.0078 -2.7229  3.9609
  823MOL0     H13560   3.060   1.009   8.171  0.2062 -0.8575  0.2511
  823MOL0     H13561   2.855   0.935   8.273  0.3068  0.1113  0.7606
  823MOL0     H13562   2.507   0.933   8.276 -0.1486  0.5749  0.3208
  823MOL0     H13563   2.630   1.035   8.200  1.8917 -1.6073 -1.7979
  823MOL0     H13564   2.432   0.851   8.039  0.7960 -1.2242  2.0043
  823MOL0     H13565   2.508   0.993   7.969 -2.4670  1.8227  0.4876
  823MOL0     H13566   2.390   1.147   8.047 -1.4145  0.9212  2.3161
  823MOL0     H13567   2.269   1.036   8.005  1.0306  1.7588 -1.4047
  823MOL0     H13568   2.344   1.103   8.280  1.6764  1.1132 -1.3372
  823MOL0     H13569   2.233   0.965   8.238  0.7375 -0.9165 -0.7204
  823MOL0     H13570   1.982   1.300   8.205 -3.8396 -5.3386  1.6032
  823MOL0     H13571   2.683   0.844   7.896  0.3702  0.5004  0.4748
  823MOL0     H13572   2.948   0.990   7.684 -3.0557  1.7847 -2.2121
  823MOL0     H13573   2.917   0.814   7.690 -1.6491 -0.1678 -0.3169
  823MOL0     H13574   2.785   0.924   7.693  0.6938  1.1475  0.5726
  824MOL0     O13575   2.312   6.856   4.318 -0.8591 -0.3334  0.6361
  824MOL0     C13576   2.287   6.964   4.267 -0.8277  0.4726 -0.2322
  824MOL0     O13577   2.321   6.992   4.133  0.5615 -0.6973  0.2815
  824MOL0     C13578   2.429   6.927   4.079  1.6023 -1.0893 -0.3424
  824MOL0     C13579   2.417   6.859   3.959 -0.4231 -0.0059 -0.4083
  824MOL0     C13580   2.532   6.808   3.905  0.6937  0.2059 -0.1631
  824MOL0     C13581   2.658   6.790   3.971 -0.3780 -0.0827 -0.0824
  824MOL0     O13582   2.750   6.706   3.921 -0.4658  0.7667 -0.6807
  824MOL0     C13583   2.872   6.676   4.001  0.2290  0.2782  1.1361
  824MOL0     C13584   2.979   6.652   3.904 -0.6495  0.3123  0.9333
  824MOL0     C13585   2.978   6.509   3.859  0.3399 -1.0108 -0.8360
  824MOL0     C13586   3.087   6.481   3.745 -0.3308  0.6560  0.1398
  824MOL0     C13587   3.066   6.546   3.609 -0.1904  0.3334  0.2863
  824MOL0     C13588   3.196   6.559   3.536 -0.4916  0.3987 -0.8053
  824MOL0     C13589   3.237   6.431   3.469 -0.1822  0.2687  0.8090
  824MOL0     C13590   3.379   6.443   3.402 -0.1007  0.0974 -0.2969
  824MOL0     N13591   3.415   6.320   3.335 -0.7776  0.3062  0.4357
  824MOL0     C13592   3.456   6.208   3.408 -0.3326  0.3033 -0.5670
  824MOL0     C13593   3.440   6.104   3.329 -0.1955  0.6972 -0.6906
  824MOL0     C13594   3.457   5.955   3.372  1.0906  0.2723 -0.0883
  824MOL0     C13595   3.588   5.923   3.429 -0.2850 -0.2343  0.7084
  824MOL0     C13596   3.704   5.916   3.336 -0.0332  0.5738 -0.1404
  824MOL0     C13597   3.836   5.908   3.404 -0.0920 -0.1081 -0.1007
  824MOL0     O13598   3.845   5.793   3.483  0.6175 -0.6197 -0.1857
  824MOL0     C13599   3.958   5.754   3.542  0.6768 -0.6635  0.0781
  824MOL0     C13600   3.956   5.630   3.607 -0.1689 -0.1738  1.3356
  824MOL0     C13601   4.074   5.594   3.669 -0.2516 -0.4590  0.2321
  824MOL0     C13602   4.065   5.454   3.726 -1.0104  0.1585  0.4502
  824MOL0     C13603   4.193   5.668   3.661  0.7623 -0.1020 -1.5587
  824MOL0     C13604   4.323   5.635   3.729  0.2027  0.3887  0.2512
  824MOL0     O13605   4.366   5.741   3.806  0.4676  0.0437  0.9521
  824MOL0     C13606   4.366   5.723   3.944 -0.3593  0.0577 -0.5809
  824MOL0     C13607   4.489   5.734   4.023 -0.3078 -0.2037  1.2915
  824MOL0     C13608   4.485   5.694   4.157 -0.2184 -0.4168  0.0000
  824MOL0     C13609   4.370   5.647   4.218  0.0219  0.1620  0.2038
  824MOL0     O13610   4.366   5.587   4.345 -0.3528 -0.4954  0.1218
  824MOL0     C13611   4.483   5.511   4.382 -0.2765  0.2143  0.5563
  824MOL0     C13612   4.445   5.400   4.472  0.7537 -0.1811  0.3313
  824MOL0     C13613   4.559   5.294   4.484 -0.3490  0.0697  0.4938
  824MOL0     C13614   4.508   5.158   4.533 -0.2229 -0.5057  0.2639
  824MOL0     C13615   4.614   5.049   4.494  0.2711 -1.0050 -0.6975
  824MOL0     C13616   4.762   5.080   4.548 -0.4439 -0.0455 -0.1931
  824MOL0     C13617   4.850   4.955   4.576  0.8805  0.5598  0.1968
  824MOL0     C13618   4.997   4.988   4.599 -0.3375  0.2391 -0.1652
  824MOL0    Cl13619   5.099   4.852   4.674  0.2576  0.0586 -0.2941
  824MOL0     C13620   4.254   5.638   4.144 -0.5038 -0.0592  0.4511
  824MOL0     C13621   4.244   5.688   4.011 -0.3518 -0.0763  0.4242
  824MOL0     O13622   4.370   5.520   3.724 -0.2527  0.2914  0.8455
  824MOL0     C13623   4.194   5.791   3.606  0.6314 -0.1014 -0.0879
  824MOL0     C13624   4.076   5.829   3.543 -0.2271 -0.4583  1.0897
  824MOL0     N13625   3.383   6.146   3.215  0.3099  0.2834 -0.5138
  824MOL0     N13626   3.366   6.270   3.220  0.1274  0.0198 -0.3211
  824MOL0     C13627   2.656   6.850   4.104 -0.9098 -0.1825 -0.4158
  824MOL0     C13628   2.549   6.920   4.149  0.4815  0.5484 -0.0469
  824MOL0     C13629   2.193   7.053   4.344 -1.4458  0.6324  0.0185
  824MOL0     C13630   2.156   7.010   4.469 -0.4471  0.1784 -0.0441
  824MOL0     C13631   2.057   7.078   4.538 -0.2588  0.6897  0.2992
  824MOL0     C13632   2.018   7.204   4.492 -0.7737 -0.8950 -0.2297
  824MOL0     O13633   1.931   7.288   4.555 -0.5478 -0.0715  0.0649
  824MOL0     C13634   1.887   7.258   4.690  1.0454  0.3523 -0.6340
  824MOL0     C13635   1.828   7.389   4.745  0.0388  0.4052 -0.0536
  824MOL0     C13636   1.691   7.420   4.669 -0.4435 -0.9728 -0.7913
  824MOL0     C13637   1.665   7.569   4.669  0.1227  0.2159  0.1839
  824MOL0     C13638   1.645   7.619   4.531  0.4862  0.1590  0.4669
  824MOL0     C13639   1.644   7.657   4.415 -0.2579 -0.0857  0.1083
  824MOL0     C13640   2.059   7.254   4.369 -0.4303 -0.0374  0.0337
  824MOL0     C13641   2.154   7.180   4.305  0.5460  0.2765  0.5958
  824MOL0     C13642   2.217   7.256   4.188  0.0054  0.4396  0.1735
  824MOL0     H13643   2.317   6.844   3.921  0.4584 -2.5550 -1.9345
  824MOL0     H13644   2.529   6.762   3.806  1.1107  0.8630 -0.4886
  824MOL0     H13645   2.857   6.588   4.064 -1.8032 -1.3701 -1.4193
  824MOL0     H13646   2.898   6.764   4.060  1.8264  1.6367 -1.3725
  824MOL0     H13647   2.989   6.729   3.827 -1.2173 -1.8826 -1.4998
  824MOL0     H13648   3.066   6.655   3.970  0.4695 -2.2243 -0.2780
  824MOL0     H13649   2.995   6.452   3.951  0.9391  0.3376 -0.0915
  824MOL0     H13650   2.882   6.473   3.818  1.5382 -3.0285 -2.0596
  824MOL0     H13651   3.182   6.512   3.790 -0.6854 -0.0400  1.4387
  824MOL0     H13652   3.101   6.373   3.737  0.9751  0.9205 -2.0546
  824MOL0     H13653   3.028   6.648   3.623  1.8647  1.2493 -0.3759
  824MOL0     H13654   2.996   6.484   3.554  3.2102 -2.5831 -1.1666
  824MOL0     H13655   3.184   6.629   3.453 -0.8430 -2.0950 -2.9647
  824MOL0     H13656   3.278   6.597   3.599  0.2134 -0.4087 -1.2108
  824MOL0     H13657   3.171   6.402   3.387 -1.1580 -0.3880  1.8036
  824MOL0     H13658   3.243   6.347   3.538  4.2782 -0.5013 -0.2293
  824MOL0     H13659   3.390   6.522   3.327  2.7053 -0.1940 -0.2769
  824MOL0     H13660   3.454   6.455   3.480  0.5919 -5.7760  0.3791
  824MOL0     H13661   3.490   6.210   3.511  0.0413  0.6627 -0.6976
  824MOL0     H13662   3.439   5.890   3.286  0.2968  2.9274 -2.0517
  824MOL0     H13663   3.380   5.930   3.446  0.5940  1.1948 -0.2762
  824MOL0     H13664   3.613   5.988   3.514  0.2432  0.8833 -0.2611
  824MOL0     H13665   3.577   5.823   3.471  0.6834 -0.2711  0.8969
  824MOL0     H13666   3.703   5.828   3.271 -1.8030 -1.1771  2.0557
  824MOL0     H13667   3.713   6.005   3.275 -0.2394  1.7975  1.5379
  824MOL0     H13668   3.918   5.893   3.334  0.0729 -1.9897  0.4390
  824MOL0     H13669   3.871   5.994   3.462 -0.0625  0.2571 -0.6532
  824MOL0     H13670   3.875   5.557   3.610 -1.3184  0.8591 -1.3238
  824MOL0     H13671   4.080   5.378   3.649  4.3640  1.9052 -0.5762
  824MOL0     H13672   3.966   5.434   3.769 -2.0987  0.8949 -1.5965
  824MOL0     H13673   4.145   5.438   3.799  1.0065  2.5726 -1.1141
  824MOL0     H13674   4.576   5.742   3.958 -0.9750 -1.4552  0.2029
  824MOL0     H13675   4.580   5.689   4.210 -0.9075 -0.7508  1.2477
  824MOL0     H13676   4.531   5.471   4.292 -1.3672 -3.8392  1.5666
  824MOL0     H13677   4.555   5.570   4.439 -3.0833  0.8765  3.7384
  824MOL0     H13678   4.430   5.442   4.572  3.1318 -2.5379  1.8028
  824MOL0     H13679   4.352   5.356   4.436  1.4921 -0.0143 -1.9293
  824MOL0     H13680   4.629   5.335   4.557 -0.0277  1.0218 -0.3372
  824MOL0     H13681   4.608   5.284   4.387  0.4617  0.7181  0.8248
  824MOL0     H13682   4.409   5.146   4.487  1.4447 -0.3718 -3.7786
  824MOL0     H13683   4.494   5.161   4.642 -1.5022 -2.2444  0.1853
  824MOL0     H13684   4.578   4.958   4.544 -1.9753  0.8145  1.2634
  824MOL0     H13685   4.614   5.044   4.385  0.3379  0.9481 -0.8301
  824MOL0     H13686   4.765   5.140   4.640  0.9370  0.3839 -0.4884
  824MOL0     H13687   4.823   5.139   4.478 -0.2909  0.3665  0.2803
  824MOL0     H13688   4.840   4.886   4.491 -2.8044 -0.3695  1.2192
  824MOL0     H13689   4.822   4.906   4.670  2.3774  2.5125  1.7408
  824MOL0     H13690   4.997   5.064   4.677 -1.9767 -0.9281  1.0566
  824MOL0     H13691   5.042   5.029   4.508  2.7657 -0.0538  1.1125
  824MOL0     H13692   4.169   5.592   4.194 -0.6518 -2.3246 -1.7202
  824MOL0     H13693   4.148   5.686   3.960  1.0992 -1.6694 -2.5422
  824MOL0     H13694   4.285   5.846   3.583  0.5443  0.2898  0.4899
  824MOL0     H13695   4.080   5.929   3.500  1.3664 -0.3251  1.4574
  824MOL0     H13696   2.743   6.846   4.168 -0.6458  2.8818 -0.3998
  824MOL0     H13697   2.556   6.974   4.243 -0.8931  0.6577  0.0063
  824MOL0     H13698   2.184   6.911   4.503  1.1182  0.9259  0.9552
  824MOL0     H13699   2.028   7.041   4.636  0.9627  3.7426  1.9534
  824MOL0     H13700   1.817   7.174   4.696  1.3651  0.1749  1.3328
  824MOL0     H13701   1.966   7.230   4.761 -2.4044 -0.7701  3.0797
  824MOL0     H13702   1.903   7.467   4.735 -0.3507  0.6604 -1.1259
  824MOL0     H13703   1.803   7.382   4.852 -1.2243 -1.4614 -0.4307
  824MOL0     H13704   1.679   7.384   4.566 -1.2282  2.6665 -2.1131
  824MOL0     H13705   1.607   7.379   4.726 -0.7937 -1.1842 -1.4446
  824MOL0     H13706   1.750   7.629   4.703 -0.6611  2.4622 -1.5515
  824MOL0     H13707   1.577   7.604   4.722  0.4868  1.1469  0.1966
  824MOL0     H13708   1.636   7.685   4.312 -0.7532 -0.0533  0.1576
  824MOL0     H13709   2.029   7.354   4.339  2.0644  0.7090 -0.2219
  824MOL0     H13710   2.195   7.204   4.094 -2.2007  1.1742  0.2090
  824MOL0     H13711   2.173   7.356   4.178  0.4518  0.5458 -0.8221
  824MOL0     H13712   2.325   7.261   4.200 -0.2444  3.4634  2.2180
  825MOL0     O13713   3.011   9.570   6.329  0.2666 -0.0048  0.2121
  825MOL0     C13714   3.104   9.525   6.394  0.1216 -0.6960 -0.3877
  825MOL0     O13715   3.176   9.418   6.355 -0.9026 -0.7972 -0.6879
  825MOL0     C13716   3.130   9.330   6.258 -0.2783 -0.2971  0.1237
  825MOL0     C13717   3.120   9.371   6.124  0.2491  1.0356 -0.7729
  825MOL0     C13718   3.091   9.284   6.024  0.4265  0.8817  0.2313
  825MOL0     C13719   3.047   9.153   6.057 -0.1566 -0.2634  0.0599
  825MOL0     O13720   3.004   9.071   5.953  0.3039 -0.8926 -0.9094
  825MOL0     C13721   3.091   9.052   5.846 -0.4306  0.1482  1.0385
  825MOL0     C13722   3.062   8.919   5.772 -0.9583  0.6162 -0.0522
  825MOL0     C13723   3.138   8.924   5.635  0.2706 -0.6548  0.1168
  825MOL0     C13724   3.104   8.820   5.536  0.5965  0.3811  0.2130
  825MOL0     C13725   3.188   8.832   5.407 -0.2802  0.0338  0.4518
  825MOL0     C13726   3.134   8.738   5.294  0.0817 -0.1332  0.8859
  825MOL0     C13727   3.221   8.755   5.167  0.1649 -0.6650 -0.6000
  825MOL0     C13728   3.150   8.670   5.068 -0.5025 -0.3920 -0.1383
  825MOL0     N13729   3.215   8.687   4.937 -0.2311  0.4458 -0.6635
  825MOL0     C13730   3.206   8.805   4.859  0.1866 -0.2769  0.7183
  825MOL0     C13731   3.264   8.772   4.739 -0.0814  1.5264  0.2417
  825MOL0     C13732   3.293   8.864   4.619 -0.3135 -0.7534 -0.0984
  825MOL0     C13733   3.390   8.824   4.513 -0.1830  0.3628  0.5367
  825MOL0     C13734   3.375   8.902   4.383  0.6956 -0.9190 -0.9253
  825MOL0     C13735   3.480   8.861   4.277 -0.3089 -0.0702 -0.6926
  825MOL0     O13736   3.616   8.895   4.314 -0.3316 -0.4360  0.5836
  825MOL0     C13737   3.722   8.852   4.241 -1.2202  0.8796 -0.8069
  825MOL0     C13738   3.848   8.833   4.313 -0.1809 -0.4316  0.7592
  825MOL0     C13739   3.968   8.813   4.243 -0.3765  0.3911 -0.1346
  825MOL0     C13740   4.093   8.793   4.326  0.4819  0.9548  0.5398
  825MOL0     C13741   3.964   8.803   4.102 -0.5102  0.4097 -0.2811
  825MOL0     C13742   4.066   8.776   4.005  0.3732 -0.0830 -0.0108
  825MOL0     O13743   4.061   8.843   3.885  0.4539  0.0677 -0.1406
  825MOL0     C13744   4.156   8.821   3.793 -0.6469  0.3538 -1.1244
  825MOL0     C13745   4.216   8.696   3.760  0.1040  0.0807  0.1589
  825MOL0     C13746   4.312   8.690   3.657  0.0686 -0.2376 -0.0785
  825MOL0     C13747   4.334   8.799   3.583 -0.4972 -0.9586  0.9732
  825MOL0     O13748   4.425   8.776   3.482  0.6946  0.4554  0.7090
  825MOL0     C13749   4.397   8.845   3.352 -0.4481  0.3522 -0.1529
  825MOL0     C13750   4.495   8.793   3.247  0.6002  0.0225  0.4252
  825MOL0     C13751   4.637   8.831   3.272  0.8134 -0.3275 -0.8695
  825MOL0     C13752   4.736   8.763   3.177  0.0982 -1.0995  1.2480
  825MOL0     C13753   4.876   8.796   3.228  0.1266  0.8316  0.8196
  825MOL0     C13754   4.982   8.715   3.148 -0.4458 -0.1676  0.4654
  825MOL0     C13755   5.113   8.699   3.220  0.2463  0.1471 -0.1279
  825MOL0     C13756   5.221   8.673   3.109 -0.0332 -0.5518  0.2817
  825MOL0    Cl13757   5.252   8.837   3.029  0.0706  0.1303  0.1347
  825MOL0     C13758   4.284   8.925   3.612  0.8770 -0.1651  0.7079
  825MOL0     C13759   4.195   8.931   3.716  0.8993 -0.1876  0.4606
  825MOL0     O13760   4.152   8.704   4.045 -0.1348 -0.1709 -0.5491
  825MOL0     C13761   3.835   8.804   4.044 -0.1669 -0.9563  0.0725
  825MOL0     C13762   3.711   8.824   4.108  0.3246  0.0738  0.1580
  825MOL0     N13763   3.312   8.646   4.748  0.3289  0.3500 -0.3256
  825MOL0     N13764   3.291   8.600   4.861 -0.1465  0.0965  0.6415
  825MOL0     C13765   3.053   9.109   6.190 -0.2907 -0.7248  0.6273
  825MOL0     C13766   3.101   9.197   6.295  0.5875 -0.3941 -0.1844
  825MOL0     C13767   3.137   9.602   6.517 -0.7043 -0.3136 -0.0475
  825MOL0     C13768   3.244   9.557   6.595 -0.6501  0.1866  0.7836
  825MOL0     C13769   3.282   9.624   6.707  0.6731 -0.8235 -0.0072
  825MOL0     C13770   3.195   9.707   6.772 -0.2164  0.5572  0.2668
  825MOL0     O13771   3.246   9.758   6.889  0.0942 -0.1044 -0.7362
  825MOL0     C13772   3.154   9.794   6.995 -0.5878  0.6548 -0.2150
  825MOL0     C13773   3.109   9.670   7.071  0.3040  0.5180 -0.0221
  825MOL0     C13774   3.206   9.627   7.187 -0.2334  0.8782  0.3956
  825MOL0     C13775   3.348   9.610   7.138  0.4941 -0.2265 -0.2877
  825MOL0     C13776   3.451   9.588   7.241 -0.0088 -0.6199  0.1084
  825MOL0     C13777   3.552   9.579   7.309  0.0276  0.1197 -0.2967
  825MOL0     C13778   3.068   9.734   6.713 -0.3167 -0.5915 -0.8704
  825MOL0     C13779   3.046   9.689   6.584  0.3686 -0.2725 -0.1646
  825MOL0     C13780   2.916   9.741   6.527  1.2551  0.4800  0.2891
  825MOL0     H13781   3.139   9.472   6.088  0.3397  1.3214  0.0589
  825MOL0     H13782   3.090   9.316   5.920  1.3397 -1.2850 -0.4858
  825MOL0     H13783   3.193   9.039   5.884 -0.1429  1.4660  0.7762
  825MOL0     H13784   3.080   9.139   5.781 -2.2502 -0.5087  0.4259
  825MOL0     H13785   3.110   8.838   5.827 -1.5490  1.4910  1.8474
  825MOL0     H13786   2.955   8.896   5.770 -1.4352  2.5238  0.7995
  825MOL0     H13787   3.125   9.022   5.587  1.1355  1.5636  3.9478
  825MOL0     H13788   3.246   8.930   5.656  0.5213  0.9842 -1.3676
  825MOL0     H13789   3.118   8.719   5.574 -1.2714 -1.1246 -2.6686
  825MOL0     H13790   2.998   8.839   5.512 -0.8764 -2.3387  3.7198
  825MOL0     H13791   3.295   8.813   5.416 -0.2314 -0.2979 -0.6850
  825MOL0     H13792   3.166   8.935   5.376  0.2012  0.2360  0.7778
  825MOL0     H13793   3.143   8.635   5.329  1.6123  0.2891  1.8392
  825MOL0     H13794   3.030   8.762   5.270 -0.0750  0.4805  2.0807
  825MOL0     H13795   3.326   8.725   5.165  0.6676  0.9807  0.1222
  825MOL0     H13796   3.226   8.859   5.135 -1.5682 -0.4914 -0.4007
  825MOL0     H13797   3.164   8.565   5.095  0.9208 -0.2626 -0.2545
  825MOL0     H13798   3.047   8.705   5.059  0.4019  2.3431 -0.7441
  825MOL0     H13799   3.163   8.898   4.896  2.2838  1.8021 -1.7065
  825MOL0     H13800   3.332   8.961   4.650  0.6579 -0.5649 -1.7939
  825MOL0     H13801   3.196   8.893   4.580  0.1819 -0.4336 -1.1279
  825MOL0     H13802   3.495   8.839   4.542 -0.5903 -0.6254  2.7370
  825MOL0     H13803   3.385   8.715   4.504 -2.0326  0.0518  3.7857
  825MOL0     H13804   3.277   8.885   4.337  0.9685 -1.6012 -1.2648
  825MOL0     H13805   3.380   9.010   4.401  0.1955 -1.2622  1.6299
  825MOL0     H13806   3.475   8.755   4.252  0.1742  0.1514 -1.7710
  825MOL0     H13807   3.451   8.909   4.183 -1.7517 -1.8094 -1.1878
  825MOL0     H13808   3.843   8.852   4.419 -0.4827  1.7280  0.4026
  825MOL0     H13809   4.086   8.809   4.434 -1.3931 -0.0828  0.6205
  825MOL0     H13810   4.187   8.835   4.291  1.2611 -1.1254 -0.0102
  825MOL0     H13811   4.104   8.685   4.338  0.8580  1.1850  2.7842
  825MOL0     H13812   4.195   8.607   3.819  1.2763 -0.1887  0.2055
  825MOL0     H13813   4.352   8.593   3.630 -2.4841 -1.6207  0.8365
  825MOL0     H13814   4.296   8.815   3.320 -0.7393  3.1706 -2.2859
  825MOL0     H13815   4.414   8.953   3.352 -0.9494  0.4499  0.9606
  825MOL0     H13816   4.491   8.685   3.237  1.1617  0.1155 -1.0249
  825MOL0     H13817   4.468   8.840   3.152  1.4860  2.2166  1.1851
  825MOL0     H13818   4.667   8.809   3.375 -1.0634  0.1647 -0.1737
  825MOL0     H13819   4.644   8.940   3.269 -0.7686 -0.0238  2.0252
  825MOL0     H13820   4.726   8.803   3.076 -3.4735 -1.5391  1.2900
  825MOL0     H13821   4.732   8.654   3.168  1.3929 -1.0389 -0.5583
  825MOL0     H13822   4.891   8.901   3.201 -2.2063  1.3662  1.3981
  825MOL0     H13823   4.896   8.775   3.333  2.4822 -1.9330 -0.0603
  825MOL0     H13824   4.993   8.762   3.050  1.5234 -1.6201 -0.0718
  825MOL0     H13825   4.950   8.612   3.130  2.2791 -1.4811  2.2873
  825MOL0     H13826   5.107   8.611   3.285 -0.9575  0.3320  0.0363
  825MOL0     H13827   5.150   8.782   3.282 -1.8733  0.3201  0.9917
  825MOL0     H13828   5.174   8.608   3.035 -0.3870 -1.4892  1.2963
  825MOL0     H13829   5.319   8.635   3.139  1.1232 -1.8686 -4.3142
  825MOL0     H13830   4.321   9.010   3.555  1.8013 -0.7473  0.4135
  825MOL0     H13831   4.148   9.027   3.735 -1.1769 -0.8376 -0.9786
  825MOL0     H13832   3.825   8.792   3.937  1.3621 -0.7523 -0.1219
  825MOL0     H13833   3.622   8.837   4.046 -1.4433 -0.7171  2.3808
  825MOL0     H13834   3.026   9.008   6.218 -0.0886 -1.6838 -2.2439
  825MOL0     H13835   3.104   9.173   6.401  0.7352  1.7563  0.3407
  825MOL0     H13836   3.322   9.486   6.569 -0.5061  0.2765  0.9702
  825MOL0     H13837   3.371   9.603   6.765 -0.1296  0.4458  1.7748
  825MOL0     H13838   3.203   9.851   7.075 -2.5839  3.4252 -0.8223
  825MOL0     H13839   3.066   9.848   6.959 -0.7101 -0.3109 -1.3951
  825MOL0     H13840   3.101   9.583   7.005  1.2882 -0.6080  1.2914
  825MOL0     H13841   3.015   9.688   7.122 -0.5644  2.8429 -2.2276
  825MOL0     H13842   3.205   9.696   7.271  1.6493 -0.5873  1.7193
  825MOL0     H13843   3.169   9.538   7.238  0.8187  1.1191  1.6158
  825MOL0     H13844   3.386   9.697   7.084  0.9461 -0.4633 -0.3630
  825MOL0     H13845   3.360   9.512   7.089  0.8883 -0.9168  1.1241
  825MOL0     H13846   3.643   9.572   7.364 -0.4417  1.5060  0.7268
  825MOL0     H13847   2.992   9.788   6.768  0.2352 -0.4899 -0.1918
  825MOL0     H13848   2.922   9.789   6.428 -1.6430 -1.2352 -0.8482
  825MOL0     H13849   2.839   9.664   6.529 -0.6595  2.3246  0.9946
  825MOL0     H13850   2.885   9.823   6.593 -0.4019  0.0274  0.1189
  826MOL0     O13851   5.826   1.154   8.140 -0.6892  0.4993 -0.0655
  826MOL0     C13852   5.778   1.154   8.249  0.2623 -0.8161  0.1389
  826MOL0     O13853   5.670   1.224   8.288  0.2756 -0.1867 -0.7796
  826MOL0     C13854   5.587   1.292   8.201 -0.4282 -0.1287  0.0444
  826MOL0     C13855   5.531   1.409   8.239 -0.3586 -1.0867 -0.1965
  826MOL0     C13856   5.433   1.473   8.177  0.0672 -0.2031 -0.0630
  826MOL0     C13857   5.394   1.430   8.053 -0.1369  0.4249  0.1632
  826MOL0     O13858   5.302   1.500   7.980 -0.3697  0.1324 -1.0304
  826MOL0     C13859   5.180   1.436   7.971 -0.0004  0.1332  0.8626
  826MOL0     C13860   5.099   1.491   7.849 -1.2551  0.6924 -0.1786
  826MOL0     C13861   4.952   1.434   7.856 -0.4772 -0.0626  0.2027
  826MOL0     C13862   4.942   1.284   7.903  0.5418  0.3201 -0.1001
  826MOL0     C13863   4.804   1.228   7.871  0.3886  1.2440  0.4182
  826MOL0     C13864   4.778   1.080   7.921  0.2455 -0.5468 -0.0016
  826MOL0     C13865   4.642   1.007   7.881 -0.0704 -0.7211 -1.4801
  826MOL0     C13866   4.566   1.027   7.754 -0.7833 -0.2728  0.2325
  826MOL0     N13867   4.450   0.942   7.724  0.8188  0.4161 -0.8917
  826MOL0     C13868   4.337   0.932   7.807  0.5571 -0.0902  0.4135
  826MOL0     C13869   4.263   0.830   7.759  1.0227  0.2910 -1.2719
  826MOL0     C13870   4.142   0.760   7.825 -0.4758  0.1185  0.1135
  826MOL0     C13871   4.021   0.750   7.727  0.2032 -1.2256  0.2240
  826MOL0     C13872   3.894   0.692   7.783 -0.3490  0.1438 -0.5450
  826MOL0     C13873   3.802   0.672   7.667 -0.7259 -0.0056  0.6003
  826MOL0     O13874   3.666   0.662   7.725  0.7134 -0.4105 -0.1337
  826MOL0     C13875   3.553   0.651   7.644 -0.4855  0.6234 -0.1160
  826MOL0     C13876   3.566   0.669   7.499 -0.6723 -0.6064 -0.1270
  826MOL0     C13877   3.463   0.638   7.408  0.2034 -0.6777  1.3491
  826MOL0     C13878   3.486   0.652   7.264  0.3580  0.0723  0.1771
  826MOL0     C13879   3.344   0.590   7.460  1.0536 -0.9161 -0.8854
  826MOL0     C13880   3.230   0.539   7.365  0.2591 -0.4668  0.7713
  826MOL0     O13881   3.104   0.591   7.401 -0.0497  0.1080  0.0496
  826MOL0     C13882   3.000   0.519   7.355 -0.3441 -0.1659 -0.2501
  826MOL0     C13883   2.987   0.380   7.364 -0.3857 -0.1157  0.8720
  826MOL0     C13884   2.854   0.323   7.331  0.8441 -0.1169 -0.0057
  826MOL0     C13885   2.748   0.406   7.301  0.2856 -0.1517  0.1077
  826MOL0     O13886   2.625   0.354   7.266 -0.1159  1.2612  0.7716
  826MOL0     C13887   2.510   0.393   7.348 -0.0247  0.1612  0.7621
  826MOL0     C13888   2.398   0.282   7.321  0.0556  0.4259  0.5108
  826MOL0     C13889   2.281   0.291   7.410 -0.2125 -0.0227  0.8273
  826MOL0     C13890   2.203   0.419   7.396  0.3487 -1.4984  0.4555
  826MOL0     C13891   2.085   0.423   7.495  0.1974 -1.1868 -0.5459
  826MOL0     C13892   2.021   0.560   7.497 -0.3684  0.4974 -0.1844
  826MOL0     C13893   1.907   0.563   7.597  0.5019 -0.4438 -0.7688
  826MOL0     C13894   1.862   0.702   7.628  0.7213  0.0322 -0.0014
  826MOL0    Cl13895   1.790   0.779   7.484 -0.1994  0.4324 -0.1807
  826MOL0     C13896   2.769   0.539   7.290 -0.7699  0.3268 -0.8861
  826MOL0     C13897   2.893   0.600   7.320  1.3717  0.3917  0.4050
  826MOL0     O13898   3.247   0.468   7.266  0.0530  0.6111 -0.9563
  826MOL0     C13899   3.325   0.596   7.604  0.3553  0.6081 -0.0647
  826MOL0     C13900   3.427   0.624   7.697  0.5187 -0.3239  0.5105
  826MOL0     N13901   4.328   0.782   7.645 -0.2186  0.1186 -0.2347
  826MOL0     N13902   4.440   0.843   7.633 -1.1507  1.0718 -0.0475
  826MOL0     C13903   5.451   1.313   8.000 -0.5508  0.4984  0.0510
  826MOL0     C13904   5.547   1.238   8.075 -0.6463  0.5192  1.0213
  826MOL0     C13905   5.843   1.067   8.348 -0.9333 -0.0471 -1.0486
  826MOL0     C13906   5.976   1.098   8.389 -0.3867  0.1509  0.7970
  826MOL0     C13907   6.053   1.010   8.461  0.5989  0.5348  0.5645
  826MOL0     C13908   6.001   0.887   8.510  0.9006 -0.5399  0.0311
  826MOL0     O13909   6.060   0.792   8.589 -0.3119 -0.7618  0.0100
  826MOL0     C13910   6.181   0.817   8.660  0.4065  0.2686 -0.3913
  826MOL0     C13911   6.295   0.780   8.563  0.1247  0.5150 -0.0701
  826MOL0     C13912   6.278   0.640   8.479  0.0998 -0.7233 -0.5684
  826MOL0     C13913   6.213   0.650   8.340 -0.6914  0.1302 -0.1637
  826MOL0     C13914   6.231   0.530   8.257  1.1721 -0.7148 -0.4979
  826MOL0     C13915   6.260   0.434   8.186 -0.5837  0.2757 -0.3775
  826MOL0     C13916   5.868   0.860   8.478  0.3089  0.4200  0.5652
  826MOL0     C13917   5.793   0.941   8.388  0.2982  0.3691 -0.7532
  826MOL0     C13918   5.650   0.891   8.364  0.0278  0.1579 -0.8320
  826MOL0     H13919   5.565   1.452   8.333  1.0199 -0.0995 -1.0962
  826MOL0     H13920   5.387   1.559   8.225  0.4785 -0.3393  0.5857
  826MOL0     H13921   5.122   1.437   8.063 -1.2051 -0.6635  0.1297
  826MOL0     H13922   5.192   1.331   7.943  2.3431  0.7274 -0.6856
  826MOL0     H13923   5.100   1.601   7.852  2.0828  0.7783 -0.5669
  826MOL0     H13924   5.151   1.461   7.758 -3.3755  0.2017 -1.2910
  826MOL0     H13925   4.901   1.495   7.930  3.5203  2.3963  1.2715
  826MOL0     H13926   4.905   1.443   7.757 -0.7371 -1.7227  0.1493
  826MOL0     H13927   5.017   1.213   7.866  0.6065  0.6103 -0.5299
  826MOL0     H13928   4.946   1.269   8.011  1.6785  0.1934 -0.1526
  826MOL0     H13929   4.814   1.232   7.762  2.9890 -1.9715  0.3756
  826MOL0     H13930   4.717   1.282   7.908  0.1821  2.4283 -1.6245
  826MOL0     H13931   4.867   1.022   7.896  1.4737  0.1736  2.4723
  826MOL0     H13932   4.781   1.081   8.030 -1.4037 -2.1432  0.1125
  826MOL0     H13933   4.569   1.034   7.958  2.1466  0.1178  0.4500
  826MOL0     H13934   4.655   0.900   7.899  0.2704 -1.0586 -3.5317
  826MOL0     H13935   4.554   1.135   7.745 -0.6740 -0.4059 -1.9633
  826MOL0     H13936   4.635   1.010   7.671  1.0238 -4.8433  2.3202
  826MOL0     H13937   4.312   0.992   7.894  2.3096  1.0269  0.2001
  826MOL0     H13938   4.114   0.802   7.921 -1.1750  2.9718 -1.2441
  826MOL0     H13939   4.168   0.656   7.847  0.4085  0.8910  3.2800
  826MOL0     H13940   3.994   0.853   7.702  1.3256 -1.5304 -2.6444
  826MOL0     H13941   4.068   0.694   7.646  1.6893 -5.1233  3.4090
  826MOL0     H13942   3.903   0.601   7.843  1.1793  1.3428  1.1609
  826MOL0     H13943   3.844   0.762   7.851 -1.9770  0.2866 -1.8300
  826MOL0     H13944   3.816   0.752   7.594 -0.3451 -2.2538 -1.9913
  826MOL0     H13945   3.828   0.578   7.617  1.9012  1.8992 -1.8861
  826MOL0     H13946   3.664   0.689   7.455 -1.3680  1.5466 -0.8288
  826MOL0     H13947   3.397   0.699   7.221 -0.2672  0.4792  1.8304
  826MOL0     H13948   3.512   0.553   7.224  1.2292  0.4469 -0.1938
  826MOL0     H13949   3.571   0.719   7.247  0.8654 -0.3517  0.9918
  826MOL0     H13950   3.071   0.326   7.406  2.3986  2.4332 -0.9458
  826MOL0     H13951   2.845   0.215   7.335 -1.2012  0.0517  1.7844
  826MOL0     H13952   2.538   0.382   7.453  0.4274  0.0406  0.6270
  826MOL0     H13953   2.480   0.498   7.339  0.4131  0.1124 -3.1105
  826MOL0     H13954   2.374   0.284   7.214  3.4259 -1.4479 -0.4226
  826MOL0     H13955   2.446   0.184   7.327 -1.1012 -0.2933 -1.2428
  826MOL0     H13956   2.316   0.289   7.514 -0.1369  2.4171  0.8895
  826MOL0     H13957   2.211   0.211   7.383  2.4874 -1.7530 -1.6457
  826MOL0     H13958   2.175   0.441   7.292  3.7884  2.7233  0.1388
  826MOL0     H13959   2.276   0.499   7.413  0.1267 -1.4995  1.4610
  826MOL0     H13960   2.012   0.350   7.459  1.4430 -3.9818  2.2297
  826MOL0     H13961   2.125   0.398   7.593 -1.6501  0.8855  0.8306
  826MOL0     H13962   1.988   0.582   7.395  2.2033 -0.6515 -1.3672
  826MOL0     H13963   2.094   0.638   7.522  0.2504 -0.5690  1.4803
  826MOL0     H13964   1.933   0.506   7.686  1.4115 -0.6062 -1.1310
  826MOL0     H13965   1.830   0.499   7.552  0.6612 -0.5877 -0.8370
  826MOL0     H13966   1.956   0.740   7.670  1.4578 -0.6537 -1.0032
  826MOL0     H13967   1.795   0.715   7.714  2.0188  0.7159  0.9535
  826MOL0     H13968   2.693   0.603   7.247 -2.5794  0.5368  2.2693
  826MOL0     H13969   2.900   0.708   7.311 -2.0772  0.7099  0.2014
  826MOL0     H13970   3.229   0.562   7.643  1.6651 -3.5679  0.0134
  826MOL0     H13971   3.392   0.627   7.800  1.6707  1.3325  0.8948
  826MOL0     H13972   5.427   1.280   7.900  3.0034  1.2511 -1.2062
  826MOL0     H13973   5.586   1.147   8.031 -0.4166  0.7532  0.7322
  826MOL0     H13974   6.023   1.189   8.352  0.0501 -0.8561 -1.2830
  826MOL0     H13975   6.154   1.041   8.484  2.5977  0.7621 -6.2105
  826MOL0     H13976   6.189   0.920   8.695  1.7052 -0.5766  1.9997
  826MOL0     H13977   6.194   0.752   8.747 -0.4660 -0.8186 -1.0349
  826MOL0     H13978   6.381   0.772   8.630  1.1655  0.3350 -1.3840
  826MOL0     H13979   6.314   0.856   8.487  2.3076  0.7710  0.6538
  826MOL0     H13980   6.377   0.596   8.464 -0.9743 -2.8067 -1.9552
  826MOL0     H13981   6.233   0.576   8.555 -1.1923  0.6416 -0.1167
  826MOL0     H13982   6.260   0.736   8.291  4.0971 -1.2751  1.4658
  826MOL0     H13983   6.107   0.671   8.358 -0.1750  1.7688  1.1983
  826MOL0     H13984   6.283   0.349   8.125  0.9560  1.1934 -1.1512
  826MOL0     H13985   5.828   0.771   8.526 -1.2932  1.5055  1.3201
  826MOL0     H13986   5.614   0.912   8.263 -0.1736 -1.6540 -1.1582
  826MOL0     H13987   5.649   0.783   8.379 -0.2103  0.1309 -1.0355
  826MOL0     H13988   5.577   0.940   8.430 -0.3341  0.6776 -1.6035
  827MOL0     O13989   6.690   8.958   7.277 -0.6596  0.5118 -0.1727
  827MOL0     C13990   6.676   8.907   7.387 -0.2714  0.5503  0.2578
  827MOL0     O13991   6.710   8.965   7.511  0.3246  0.3673 -0.3809
  827MOL0     C13992   6.802   9.068   7.510 -0.2314  0.1279 -0.0169
  827MOL0     C13993   6.770   9.184   7.580 -0.7980 -0.9380 -0.4428
  827MOL0     C13994   6.856   9.295   7.586 -0.2452 -0.5930  0.3749
  827MOL0     C13995   6.973   9.297   7.510  1.0118  0.2353 -1.0362
  827MOL0     O13996   7.044   9.412   7.511  0.1000 -0.7058 -0.5173
  827MOL0     C13997   7.184   9.407   7.560 -0.2573  0.2441  0.2642
  827MOL0     C13998   7.267   9.524   7.510 -0.3605  0.5771 -0.4946
  827MOL0     C13999   7.401   9.544   7.570 -0.2965 -0.0997  0.4474
  827MOL0     C14000   7.466   9.660   7.503 -0.3657  0.6328 -0.6907
  827MOL0     C14001   7.608   9.691   7.563  0.2481  0.5607  0.7961
  827MOL0     C14002   7.604   9.817   7.649  0.9927 -0.3793  0.0475
  827MOL0     C14003   7.529   9.805   7.787 -0.9951  0.7115 -0.1322
  827MOL0     C14004   7.428   9.914   7.820 -0.1435 -0.0680  0.4933
  827MOL0     N14005   7.499  10.036   7.858  0.1223 -0.5698  0.0956
  827MOL0     C14006   7.427  10.156   7.882 -0.8639 -0.6525  0.1733
  827MOL0     C14007   7.520  10.254   7.870 -0.3163 -0.2473 -0.1061
  827MOL0     C14008   7.498  10.407   7.881  1.0272 -0.2402 -0.4289
  827MOL0     C14009   7.453  10.459   7.749 -0.1825 -1.2492  0.5653
  827MOL0     C14010   7.554  10.455   7.632 -0.2979  0.7320 -0.8868
  827MOL0     C14011   7.676  10.536   7.673  0.0390 -0.2303 -0.1324
  827MOL0     O14012   7.622  10.668   7.696 -0.2858  0.3426  0.3429
  827MOL0     C14013   7.702  10.771   7.729 -0.2668  1.3573  0.6005
  827MOL0     C14014   7.755  10.870   7.635 -0.2608  0.5555 -0.2551
  827MOL0     C14015   7.834  10.968   7.674  0.3673 -0.6540 -0.4334
  827MOL0     C14016   7.860  11.078   7.568 -0.8131 -0.6355 -0.0596
  827MOL0     C14017   7.877  10.975   7.802 -0.3863 -0.2378  0.5712
  827MOL0     C14018   7.970  11.071   7.850 -0.3523  0.8823  0.3109
  827MOL0     O14019   7.947  11.145   7.960  0.0314 -0.8585  0.3541
  827MOL0     C14020   8.047  11.178   8.049 -0.1906 -0.1603  0.0138
  827MOL0     C14021   8.178  11.139   8.041 -0.1905 -0.3367  0.3353
  827MOL0     C14022   8.268  11.174   8.139  0.2949  0.1449 -0.6735
  827MOL0     C14023   8.227  11.239   8.254 -0.2343  0.3340  0.6980
  827MOL0     O14024   8.328  11.280   8.340  0.0648  0.2145  0.4340
  827MOL0     C14025   8.302  11.347   8.457  0.6138 -0.6714 -1.4439
  827MOL0     C14026   8.442  11.386   8.517  0.2531  0.7644  0.0676
  827MOL0     C14027   8.512  11.263   8.587 -0.1449 -1.0250 -0.0449
  827MOL0     C14028   8.662  11.259   8.569  0.1399 -0.3511 -0.2283
  827MOL0     C14029   8.726  11.122   8.610  0.1127 -0.3125 -0.3951
  827MOL0     C14030   8.698  11.013   8.510 -0.3434  0.7216  0.5892
  827MOL0     C14031   8.754  10.879   8.570 -0.2310 -0.3209 -0.4003
  827MOL0     C14032   8.649  10.773   8.544  0.0030 -0.0034 -0.2055
  827MOL0    Cl14033   8.744  10.623   8.508 -0.4038 -0.1122  0.5306
  827MOL0     C14034   8.092  11.272   8.270  0.5525 -1.0221 -0.1072
  827MOL0     C14035   8.003  11.249   8.161  0.8243 -0.6891  0.0017
  827MOL0     O14036   8.069  11.095   7.778 -0.6464  0.1469 -0.4937
  827MOL0     C14037   7.826  10.880   7.898  0.4314 -0.6250  0.3282
  827MOL0     C14038   7.744  10.778   7.861 -0.1027  0.1172 -0.5410
  827MOL0     N14039   7.647  10.195   7.837  0.2733 -0.7586 -0.0637
  827MOL0     N14040   7.629  10.070   7.823  0.4655  0.7180 -0.2219
  827MOL0     C14041   7.011   9.176   7.448 -0.3748 -0.0245  0.2712
  827MOL0     C14042   6.929   9.064   7.447  0.1298  0.1577  0.2694
  827MOL0     C14043   6.592   8.784   7.379  0.0559 -1.1714  0.1735
  827MOL0     C14044   6.542   8.751   7.248  0.3146  0.7835  0.1861
  827MOL0     C14045   6.460   8.639   7.229  0.1273  0.5031 -1.0085
  827MOL0     C14046   6.431   8.563   7.339  0.1792  0.0404  0.4167
  827MOL0     O14047   6.349   8.450   7.332 -0.0544 -0.6222 -0.4040
  827MOL0     C14048   6.270   8.403   7.220 -0.8653  0.2774 -0.4397
  827MOL0     C14049   6.151   8.486   7.183 -0.1344  0.4646 -0.8922
  827MOL0     C14050   6.055   8.419   7.089 -0.6269 -0.0506  0.4926
  827MOL0     C14051   5.929   8.372   7.158 -0.0098 -0.0047 -0.3873
  827MOL0     C14052   5.959   8.240   7.212  0.6330  0.2035  0.6459
  827MOL0     C14053   5.982   8.130   7.249  0.2425  0.2764 -0.2189
  827MOL0     C14054   6.484   8.594   7.467 -0.1609  0.4418  1.2064
  827MOL0     C14055   6.562   8.702   7.490 -0.0923 -0.9162 -0.6546
  827MOL0     C14056   6.617   8.727   7.628  1.1007 -0.0880  0.7697
  827MOL0     H14057   6.670   9.198   7.620 -1.6862 -1.5375 -2.3826
  827MOL0     H14058   6.819   9.376   7.647 -1.2331 -1.3184  0.7705
  827MOL0     H14059   7.230   9.313   7.530 -1.1784 -0.5063  1.1188
  827MOL0     H14060   7.194   9.411   7.669  1.6993 -0.4772  0.1362
  827MOL0     H14061   7.274   9.507   7.402  1.8267 -0.1148 -0.2726
  827MOL0     H14062   7.196   9.605   7.531 -1.7610 -1.3648  3.1699
  827MOL0     H14063   7.387   9.568   7.676  0.4894  0.4155  0.4437
  827MOL0     H14064   7.467   9.458   7.559  0.2555  0.5341 -1.3993
  827MOL0     H14065   7.483   9.630   7.399 -1.4004  0.3947 -0.7973
  827MOL0     H14066   7.393   9.740   7.511 -1.0185 -0.0575  0.5380
  827MOL0     H14067   7.681   9.701   7.482 -0.8289 -0.3690 -0.3317
  827MOL0     H14068   7.640   9.619   7.639  1.3286 -1.4019 -1.3802
  827MOL0     H14069   7.706   9.852   7.665  0.6219  0.4713  0.6721
  827MOL0     H14070   7.554   9.890   7.585 -2.5729  0.9749  3.8551
  827MOL0     H14071   7.612   9.806   7.858 -0.7307  0.6786 -0.4385
  827MOL0     H14072   7.471   9.713   7.802  0.2446  0.0432  0.7442
  827MOL0     H14073   7.364   9.936   7.734  3.4031  1.8009 -1.8987
  827MOL0     H14074   7.374   9.883   7.910 -1.0191 -0.1202 -0.0402
  827MOL0     H14075   7.322  10.167   7.906 -1.2399  1.4993 -2.1002
  827MOL0     H14076   7.589  10.456   7.917  2.1709 -2.9199  0.6186
  827MOL0     H14077   7.414  10.421   7.951  0.7678 -1.1559 -0.5432
  827MOL0     H14078   7.365  10.400   7.721 -0.2509 -0.7117 -0.3748
  827MOL0     H14079   7.409  10.557   7.768  0.5864 -1.6522  6.6760
  827MOL0     H14080   7.580  10.350   7.617  0.2737  0.8676 -0.8783
  827MOL0     H14081   7.513  10.498   7.540 -5.2772 -1.6085 -0.1199
  827MOL0     H14082   7.730  10.490   7.757 -2.9800  0.4530  2.3528
  827MOL0     H14083   7.755  10.540   7.598 -0.3038 -0.6607 -0.5223
  827MOL0     H14084   7.720  10.867   7.532  0.1760 -0.8710 -0.3801
  827MOL0     H14085   7.808  11.169   7.599 -2.5233 -1.7913  0.6252
  827MOL0     H14086   7.835  11.045   7.467 -0.8836  2.7557 -1.3022
  827MOL0     H14087   7.963  11.115   7.566 -0.6083 -1.2198 -0.8209
  827MOL0     H14088   8.229  11.091   7.958  0.5563  1.4274 -0.2853
  827MOL0     H14089   8.373  11.157   8.116  0.2388 -0.4509 -0.5111
  827MOL0     H14090   8.244  11.440   8.456 -1.4077 -1.7359  1.6706
  827MOL0     H14091   8.253  11.287   8.535 -2.2643  0.5318 -2.2097
  827MOL0     H14092   8.505  11.428   8.439  0.8421  1.4710  0.9111
  827MOL0     H14093   8.419  11.470   8.584  0.0769  2.4069 -1.9583
  827MOL0     H14094   8.472  11.166   8.556 -1.0231 -0.2820 -1.3265
  827MOL0     H14095   8.498  11.288   8.693 -0.0724  3.8117 -0.9707
  827MOL0     H14096   8.716  11.321   8.640  4.5037 -2.2057 -1.6129
  827MOL0     H14097   8.704  11.290   8.473  0.9073  2.6293  0.9579
  827MOL0     H14098   8.835  11.129   8.619  0.2999 -0.5205 -2.2264
  827MOL0     H14099   8.681  11.083   8.703 -1.0818 -5.1732 -2.6882
  827MOL0     H14100   8.744  11.027   8.412  0.4427 -1.8646  0.5227
  827MOL0     H14101   8.591  11.012   8.488  0.3886  0.4337 -3.6463
  827MOL0     H14102   8.760  10.890   8.678  1.8898  1.0950 -0.5986
  827MOL0     H14103   8.854  10.860   8.530 -0.1995 -1.1920  0.0739
  827MOL0     H14104   8.598  10.809   8.454  1.4958  0.8515 -0.7629
  827MOL0     H14105   8.593  10.762   8.637  0.8579  1.1700  0.4800
  827MOL0     H14106   8.058  11.320   8.361  2.4711 -1.1909  0.7415
  827MOL0     H14107   7.898  11.274   8.175  0.6579 -0.7685 -1.0343
  827MOL0     H14108   7.856  10.901   8.000  3.3723 -0.4080 -0.4609
  827MOL0     H14109   7.700  10.707   7.930 -0.5263 -1.0597 -1.9597
  827MOL0     H14110   7.111   9.173   7.404  0.1998  3.1420  1.1344
  827MOL0     H14111   6.945   8.971   7.394  0.4282  2.5027 -4.2158
  827MOL0     H14112   6.575   8.810   7.163  2.4544  1.2422  1.2676
  827MOL0     H14113   6.410   8.611   7.137 -2.7386 -1.4460  0.9930
  827MOL0     H14114   6.338   8.401   7.133 -0.7564  0.0685 -0.3516
  827MOL0     H14115   6.240   8.305   7.256 -0.0165  0.2811  0.3010
  827MOL0     H14116   6.189   8.569   7.122  0.7925  0.9277  0.2600
  827MOL0     H14117   6.104   8.534   7.270 -0.0233  1.1664 -1.2092
  827MOL0     H14118   6.030   8.495   7.015  2.3267 -0.9673 -1.6670
  827MOL0     H14119   6.109   8.343   7.032 -2.0083 -0.1322 -0.7479
  827MOL0     H14120   5.848   8.363   7.086  0.4913  0.5790 -1.0347
  827MOL0     H14121   5.902   8.444   7.236  2.0743  2.6708 -1.9415
  827MOL0     H14122   6.015   8.041   7.298  0.8628  0.4473 -0.3224
  827MOL0     H14123   6.461   8.520   7.544  1.8326 -0.4149  1.0303
  827MOL0     H14124   6.721   8.759   7.635  1.2606  0.1766 -1.7408
  827MOL0     H14125   6.556   8.813   7.657  1.4734  0.6346 -0.5103
  827MOL0     H14126   6.600   8.636   7.686  1.5639 -0.6668  0.0217
  828MOL0     O14127   8.578   5.368   1.642 -0.0656  0.0476 -0.4486
  828MOL0     C14128   8.600   5.486   1.675 -0.0749 -0.5601  0.9562
  828MOL0     O14129   8.532   5.590   1.611 -0.2600 -0.7566 -0.0740
  828MOL0     C14130   8.459   5.587   1.496 -0.6362 -0.7566 -0.1084
  828MOL0     C14131   8.460   5.699   1.414  0.1054  0.4696  0.5376
  828MOL0     C14132   8.365   5.708   1.316 -0.4265 -0.0108 -0.5016
  828MOL0     C14133   8.265   5.610   1.288 -0.4415 -0.6108 -0.1080
  828MOL0     O14134   8.155   5.619   1.207  0.4215  0.5356  0.8194
  828MOL0     C14135   8.160   5.721   1.105 -0.3887 -0.1682  0.3606
  828MOL0     C14136   8.044   5.711   1.012 -0.2204  0.3763  0.5070
  828MOL0     C14137   7.906   5.715   1.066  0.7418 -0.1119  0.0755
  828MOL0     C14138   7.841   5.586   1.131  0.3312  0.1973 -0.2519
  828MOL0     C14139   7.707   5.601   1.178  0.4171 -1.1179  0.3192
  828MOL0     C14140   7.680   5.703   1.278  0.2275  0.2319 -0.0924
  828MOL0     C14141   7.530   5.727   1.301  0.1044  0.2043 -1.9179
  828MOL0     C14142   7.507   5.831   1.404 -0.0810 -0.4130  0.8807
  828MOL0     N14143   7.359   5.834   1.427 -0.4721 -0.2470 -0.5911
  828MOL0     C14144   7.316   5.825   1.558  0.4281 -0.4101  0.4230
  828MOL0     C14145   7.191   5.867   1.550 -0.6112  0.0160  0.5678
  828MOL0     C14146   7.105   5.898   1.664  0.6712 -0.3222 -0.3542
  828MOL0     C14147   7.094   6.044   1.696 -0.8269 -0.0469 -0.5436
  828MOL0     C14148   6.997   6.075   1.810  0.3104  0.2549  0.2132
  828MOL0     C14149   6.845   6.043   1.769 -0.0217  0.4276 -0.2327
  828MOL0     O14150   6.767   6.159   1.762 -0.9376  0.0999 -0.5585
  828MOL0     C14151   6.798   6.261   1.674  1.0266  1.2312  0.0653
  828MOL0     C14152   6.840   6.227   1.550  0.0882 -0.6455  0.0792
  828MOL0     C14153   6.862   6.338   1.463  0.4019 -0.8673 -0.1330
  828MOL0     C14154   6.891   6.306   1.315  0.3675  0.9667 -0.4385
  828MOL0     C14155   6.851   6.474   1.514 -0.6254  0.2464 -0.0991
  828MOL0     C14156   6.917   6.589   1.440 -0.2589  0.1858  0.4714
  828MOL0     O14157   6.866   6.706   1.472 -0.1273 -0.1937 -1.3196
  828MOL0     C14158   6.916   6.810   1.404  0.2578  0.9519 -0.2260
  828MOL0     C14159   6.826   6.840   1.308 -0.0470 -0.0238  0.0517
  828MOL0     C14160   6.850   6.939   1.219  1.4701  0.6560  1.0682
  828MOL0     C14161   6.968   7.005   1.221  0.8946 -1.1226  0.0183
  828MOL0     O14162   7.010   7.103   1.131  0.0273  0.0572 -0.4704
  828MOL0     C14163   7.025   7.077   0.994  0.5931  0.8218 -0.4736
  828MOL0     C14164   7.145   7.142   0.942  0.0544  0.3326  0.9766
  828MOL0     C14165   7.128   7.298   0.911 -0.2544  0.0508 -0.5722
  828MOL0     C14166   7.244   7.361   0.840  0.1082  0.4771  0.5984
  828MOL0     C14167   7.233   7.510   0.800  0.7954  0.5008 -0.0079
  828MOL0     C14168   7.315   7.530   0.668 -0.5416 -0.2222 -0.2919
  828MOL0     C14169   7.250   7.649   0.590 -1.0089 -0.5833 -0.2505
  828MOL0     C14170   7.354   7.737   0.518 -0.6201 -0.3201  0.2625
  828MOL0    Cl14171   7.429   7.809   0.661 -0.5734  0.4503 -0.6391
  828MOL0     C14172   7.061   6.979   1.319  0.2977  1.1158 -0.7286
  828MOL0     C14173   7.033   6.887   1.425 -0.2233 -0.3593  0.0965
  828MOL0     O14174   7.021   6.568   1.365  0.0413 -0.6074 -0.8391
  828MOL0     C14175   6.817   6.506   1.647  0.7281  0.7472 -0.2294
  828MOL0     C14176   6.794   6.395   1.725 -0.2923  0.4302 -0.3170
  828MOL0     N14177   7.166   5.917   1.422  0.3318 -0.7871  0.2040
  828MOL0     N14178   7.264   5.891   1.345  0.2149 -0.7455 -0.1777
  828MOL0     C14179   8.265   5.494   1.368  0.4972 -0.6228  0.5736
  828MOL0     C14180   8.359   5.497   1.468  0.6801  0.5250  0.6671
  828MOL0     C14181   8.698   5.521   1.787  0.1139  0.0234  0.4379
  828MOL0     C14182   8.721   5.651   1.820  0.3381  0.0310  0.2351
  828MOL0     C14183   8.827   5.692   1.902  0.3401 -0.2967 -0.0858
  828MOL0     C14184   8.922   5.602   1.956  0.7709 -0.1313  0.6093
  828MOL0     O14185   9.027   5.628   2.033 -1.0915 -0.4868 -0.1537
  828MOL0     C14186   9.032   5.759   2.092  0.5874 -0.8149 -0.4325
  828MOL0     C14187   9.149   5.781   2.188 -1.5561  0.1479 -1.0052
  828MOL0     C14188   9.118   5.876   2.306  0.7666 -0.7513  0.1951
  828MOL0     C14189   9.225   5.878   2.413  0.6498 -0.2504  0.0090
  828MOL0     C14190   9.364   5.903   2.374 -0.2607 -0.7228 -0.1403
  828MOL0     C14191   9.473   5.941   2.336  0.0156  0.4017 -0.4904
  828MOL0     C14192   8.900   5.463   1.920 -0.1352 -1.1485  0.5104
  828MOL0     C14193   8.792   5.423   1.842 -0.2684 -0.0410 -0.4855
  828MOL0     C14194   8.804   5.276   1.808  0.2547  0.1710 -0.6622
  828MOL0     H14195   8.548   5.759   1.433 -0.2278  0.3648  2.6550
  828MOL0     H14196   8.367   5.808   1.274  1.4528  1.7342  3.2628
  828MOL0     H14197   8.251   5.716   1.046  0.5135  1.5372  1.5085
  828MOL0     H14198   8.150   5.819   1.152 -1.5301 -0.6264  1.1186
  828MOL0     H14199   8.067   5.791   0.942  2.4565 -0.9868 -0.2893
  828MOL0     H14200   8.050   5.623   0.947 -0.0212  1.9352 -1.6792
  828MOL0     H14201   7.901   5.793   1.142 -0.6822  0.4320 -0.5335
  828MOL0     H14202   7.836   5.750   0.990 -0.9438 -2.9662  0.1258
  828MOL0     H14203   7.833   5.512   1.052 -2.7875 -0.7462  0.8008
  828MOL0     H14204   7.902   5.563   1.219 -0.2911  0.0501  0.1456
  828MOL0     H14205   7.669   5.505   1.214  1.8292 -2.5338 -1.7661
  828MOL0     H14206   7.647   5.616   1.088 -0.6740  3.7846  1.5453
  828MOL0     H14207   7.734   5.682   1.370  1.0540  0.9958 -0.3949
  828MOL0     H14208   7.717   5.799   1.241 -0.0350  0.5604  0.4902
  828MOL0     H14209   7.481   5.637   1.338 -0.0140  0.3363 -1.7495
  828MOL0     H14210   7.478   5.760   1.210  2.5993 -1.0938 -3.9410
  828MOL0     H14211   7.568   5.801   1.489 -0.9110 -1.5383  1.1087
  828MOL0     H14212   7.544   5.926   1.363 -0.5215 -0.6084  0.0080
  828MOL0     H14213   7.382   5.800   1.639  0.8981 -1.6181 -0.3046
  828MOL0     H14214   7.148   5.858   1.757 -2.4217 -2.2877  0.4169
  828MOL0     H14215   7.012   5.841   1.650 -0.4125  0.9365  1.3073
  828MOL0     H14216   7.191   6.075   1.736 -1.2930 -0.5668  1.0568
  828MOL0     H14217   7.066   6.096   1.604 -1.1528 -0.3450 -0.6170
  828MOL0     H14218   7.019   6.010   1.895  0.2722 -0.6626 -0.4629
  828MOL0     H14219   6.998   6.179   1.844 -2.6661  0.0383  1.2008
  828MOL0     H14220   6.832   5.989   1.675  0.7678  1.7923 -1.1544
  828MOL0     H14221   6.806   5.980   1.850  1.6833 -0.1364  0.1805
  828MOL0     H14222   6.841   6.127   1.507 -1.3107 -0.6191 -0.0307
  828MOL0     H14223   6.891   6.198   1.296  0.3530  1.3791 -3.2006
  828MOL0     H14224   6.979   6.350   1.266 -0.4091  1.5173 -1.3765
  828MOL0     H14225   6.803   6.343   1.261 -1.6466 -0.7494  1.4595
  828MOL0     H14226   6.735   6.782   1.308  0.0986 -0.2618 -0.4824
  828MOL0     H14227   6.777   6.956   1.141 -1.5100 -4.5570  2.2722
  828MOL0     H14228   7.039   6.970   0.976  0.1108  0.9461 -1.6786
  828MOL0     H14229   6.940   7.109   0.933  1.8133  0.1695 -2.6160
  828MOL0     H14230   7.236   7.122   1.000  2.9237 -0.2120 -3.3042
  828MOL0     H14231   7.150   7.108   0.839 -0.8063  1.5141  0.5272
  828MOL0     H14232   7.111   7.357   1.002  1.5362 -0.8253  0.4075
  828MOL0     H14233   7.036   7.317   0.856  1.6109 -1.7575 -4.7852
  828MOL0     H14234   7.263   7.299   0.752  1.5880  0.2138  1.0771
  828MOL0     H14235   7.332   7.354   0.904  0.0303 -1.6819  0.5642
  828MOL0     H14236   7.125   7.530   0.800  0.5821 -0.5214  1.0409
  828MOL0     H14237   7.273   7.581   0.873  2.1850 -0.3361  0.0690
  828MOL0     H14238   7.320   7.441   0.605  2.2553 -2.1948  2.4213
  828MOL0     H14239   7.417   7.553   0.700  0.0235 -0.5266 -1.7773
  828MOL0     H14240   7.184   7.710   0.652  0.8876  3.2775 -1.6924
  828MOL0     H14241   7.184   7.600   0.518 -0.5152 -2.6445  0.6226
  828MOL0     H14242   7.302   7.811   0.457  1.8437  1.9244  0.7003
  828MOL0     H14243   7.418   7.668   0.461 -1.2433 -1.8811  1.3731
  828MOL0     H14244   7.159   7.020   1.301  2.6458 -3.5157  0.0371
  828MOL0     H14245   7.100   6.846   1.500 -1.6678 -0.4429  1.4006
  828MOL0     H14246   6.811   6.603   1.696 -2.7320  1.3489 -1.5156
  828MOL0     H14247   6.765   6.411   1.829 -1.0122 -2.5438  0.0187
  828MOL0     H14248   8.184   5.422   1.366  0.8662 -1.0693  1.1819
  828MOL0     H14249   8.351   5.412   1.535  0.6393 -0.3439 -0.4158
  828MOL0     H14250   8.667   5.733   1.774  1.4921  0.4888 -0.3634
  828MOL0     H14251   8.828   5.799   1.920 -2.0001 -0.1073 -0.6616
  828MOL0     H14252   9.035   5.838   2.017 -0.2833 -0.5149 -0.1688
  828MOL0     H14253   8.945   5.787   2.153  2.2046  3.2323  0.3678
  828MOL0     H14254   9.235   5.825   2.137 -1.4495 -0.9868 -1.8708
  828MOL0     H14255   9.181   5.685   2.230  0.2483  1.1554 -0.0023
  828MOL0     H14256   9.110   5.979   2.270 -0.9670 -0.5672  1.0113
  828MOL0     H14257   9.026   5.851   2.360  1.3541 -0.8277  1.1613
  828MOL0     H14258   9.225   5.784   2.469  1.2057  0.0795  0.5805
  828MOL0     H14259   9.193   5.948   2.491 -0.5040  1.2979 -1.7918
  828MOL0     H14260   9.575   5.965   2.314  0.9735 -1.7655  1.2018
  828MOL0     H14261   8.962   5.387   1.966  1.5288 -0.2369 -0.1267
  828MOL0     H14262   8.818   5.252   1.703  0.6864 -1.3503 -0.2889
  828MOL0     H14263   8.878   5.218   1.864 -0.9640 -1.4173 -0.5935
  828MOL0     H14264   8.709   5.227   1.835 -0.0396  1.4244  0.7603
  829MOL0     O14265   2.671   3.415   8.737 -0.2548 -0.1798  0.2587
  829MOL0     C14266   2.690   3.322   8.654 -0.3906 -0.1396  0.0167
  829MOL0     O14267   2.804   3.242   8.652 -0.9324  0.0246 -0.6787
  829MOL0     C14268   2.859   3.191   8.774 -0.3905 -0.5937 -0.0265
  829MOL0     C14269   2.785   3.176   8.891 -0.5234  0.0883 -0.3626
  829MOL0     C14270   2.831   3.105   9.001 -0.1696  0.4887 -0.2835
  829MOL0     C14271   2.963   3.051   8.996  0.7813 -0.4042  0.0206
  829MOL0     O14272   2.999   2.984   9.112  0.0747 -0.0447  0.3522
  829MOL0     C14273   3.102   2.884   9.095 -0.0234 -0.7393  0.4439
  829MOL0     C14274   3.077   2.774   9.203 -0.1598  0.5805  0.6832
  829MOL0     C14275   3.200   2.684   9.221 -0.5271  0.1061  0.5725
  829MOL0     C14276   3.185   2.594   9.348  0.2595 -0.9536  0.1242
  829MOL0     C14277   3.306   2.499   9.388  0.4522 -0.3575  0.2707
  829MOL0     C14278   3.313   2.376   9.293  0.2549 -0.4066  1.0935
  829MOL0     C14279   3.439   2.297   9.313 -0.1326 -0.9380  0.1221
  829MOL0     C14280   3.435   2.179   9.210  0.7934  0.5707 -0.0748
  829MOL0     N14281   3.536   2.087   9.239  0.4052  0.2750 -0.1473
  829MOL0     C14282   3.519   1.996   9.344  0.2973 -0.0457  0.5255
  829MOL0     C14283   3.588   1.886   9.306 -0.3547  0.3106  0.2510
  829MOL0     C14284   3.616   1.751   9.377  0.3435  0.6735 -0.5984
  829MOL0     C14285   3.754   1.742   9.434 -0.3400  0.0055 -0.9649
  829MOL0     C14286   3.764   1.631   9.537  0.0729 -1.0685  0.2042
  829MOL0     C14287   3.893   1.645   9.623  0.1681 -0.0558 -0.2379
  829MOL0     O14288   3.913   1.769   9.697  0.7969  0.1013 -0.0473
  829MOL0     C14289   4.013   1.781   9.791  0.5888  0.2600  0.3672
  829MOL0     C14290   4.110   1.686   9.827  0.3472  1.3542  0.1007
  829MOL0     C14291   4.220   1.723   9.897 -0.8481 -0.3748  0.6123
  829MOL0     C14292   4.333   1.620   9.895  1.0728  0.8112  0.1911
  829MOL0     C14293   4.233   1.865   9.932  0.6653 -0.1266 -0.3818
  829MOL0     C14294   4.348   1.917  10.000 -1.1122 -0.5902  0.1612
  829MOL0     O14295   4.326   2.032  10.085  0.1643  0.3224  0.6185
  829MOL0     C14296   4.426   2.102  10.142 -0.6012 -0.7686  0.5546
  829MOL0     C14297   4.516   2.033  10.237 -0.1743 -0.1317  1.2033
  829MOL0     C14298   4.621   2.105  10.290  0.4811  0.8978  0.4514
  829MOL0     C14299   4.638   2.248  10.263 -0.6316  0.1808 -0.3003
  829MOL0     O14300   4.742   2.326  10.317 -0.3053 -0.5481 -0.5151
  829MOL0     C14301   4.843   2.256  10.401 -0.3613  0.3727  0.7834
  829MOL0     C14302   4.930   2.361  10.464  0.0344  0.3072  0.1961
  829MOL0     C14303   5.033   2.311  10.564 -0.2198 -0.4307 -0.4644
  829MOL0     C14304   5.109   2.430  10.622  0.4542 -0.0398 -0.7717
  829MOL0     C14305   5.196   2.405  10.745 -0.1238 -0.5198  0.1343
  829MOL0     C14306   5.331   2.338  10.717  0.7259 -0.1422 -0.3683
  829MOL0     C14307   5.390   2.287  10.853 -1.2087  0.3283 -0.6076
  829MOL0     C14308   5.538   2.246  10.830 -0.0753  0.8290 -0.1465
  829MOL0    Cl14309   5.564   2.117  10.706  0.0302 -0.2878  0.8498
  829MOL0     C14310   4.546   2.311  10.172  0.1927  0.2718 -0.0936
  829MOL0     C14311   4.436   2.239  10.113 -0.4969 -0.2580  0.5682
  829MOL0     O14312   4.457   1.871   9.970 -0.3608  0.0948  0.2076
  829MOL0     C14313   4.126   1.956   9.905  0.1603  0.4852  0.2519
  829MOL0     C14314   4.013   1.912   9.839  0.6656  0.2724  0.4541
  829MOL0     N14315   3.662   1.914   9.189  0.4576 -0.0034 -0.8621
  829MOL0     N14316   3.637   2.038   9.157 -0.1137 -0.2204  0.2491
  829MOL0     C14317   3.034   3.061   8.874  0.3481 -0.4815  0.0966
  829MOL0     C14318   2.984   3.133   8.765 -0.0060 -0.6285 -1.0714
  829MOL0     C14319   2.594   3.301   8.552  0.0788  0.7784  0.4675
  829MOL0     C14320   2.642   3.209   8.447  0.7056  0.9245 -0.3582
  829MOL0     C14321   2.550   3.151   8.360 -0.0574  0.4277 -0.1006
  829MOL0     C14322   2.425   3.190   8.360 -0.0396  0.5939 -0.3710
  829MOL0     O14323   2.341   3.143   8.255  0.1620 -0.1707 -0.1584
  829MOL0     C14324   2.238   3.229   8.206  0.0784 -0.1275  0.1668
  829MOL0     C14325   2.158   3.164   8.088 -0.1314 -0.0241 -0.3255
  829MOL0     C14326   2.241   3.132   7.973 -0.1288 -0.8830  0.9599
  829MOL0     C14327   2.166   3.052   7.864 -0.2692  0.4344  0.2559
  829MOL0     C14328   2.258   2.982   7.779 -0.5232  1.0096 -0.4310
  829MOL0     C14329   2.330   2.918   7.706  0.4741  0.2404  0.8474
  829MOL0     C14330   2.375   3.289   8.456 -0.1945  0.0631  0.1127
  829MOL0     C14331   2.456   3.334   8.563  0.3815 -0.1940 -0.6232
  829MOL0     C14332   2.387   3.413   8.668  0.0775 -0.6525 -0.8758
  829MOL0     H14333   2.682   3.207   8.895 -0.4432  0.6904 -2.0793
  829MOL0     H14334   2.786   3.099   9.099  1.3469 -2.6693  0.3427
  829MOL0     H14335   3.201   2.927   9.110 -1.1500  1.1958  3.0158
  829MOL0     H14336   3.105   2.835   8.997 -2.2029 -1.7496  0.8171
  829MOL0     H14337   3.055   2.810   9.304 -2.8810 -3.8883  1.9830
  829MOL0     H14338   2.988   2.716   9.174  1.5133 -0.2792 -3.3531
  829MOL0     H14339   3.226   2.613   9.142  1.7285 -0.5913  1.8649
  829MOL0     H14340   3.286   2.750   9.231 -0.0101 -0.3432 -0.6446
  829MOL0     H14341   3.178   2.657   9.437  0.3584 -0.7969  0.0226
  829MOL0     H14342   3.093   2.536   9.335 -1.1009  1.1794 -0.3384
  829MOL0     H14343   3.297   2.464   9.491 -2.6574 -1.3541 -0.2541
  829MOL0     H14344   3.401   2.554   9.386  0.5743 -0.4884  1.5880
  829MOL0     H14345   3.214   2.329   9.293 -0.8895  1.8308 -0.1075
  829MOL0     H14346   3.325   2.409   9.189  2.9569 -1.4489  1.0021
  829MOL0     H14347   3.445   2.261   9.416  0.7737  1.3373  0.9503
  829MOL0     H14348   3.528   2.356   9.289 -0.3913 -2.4196 -6.0632
  829MOL0     H14349   3.338   2.130   9.219  0.8008  0.3127 -1.2426
  829MOL0     H14350   3.450   2.225   9.112 -1.4467  2.9528  0.5859
  829MOL0     H14351   3.453   1.999   9.430 -2.0648 -0.4339 -1.1704
  829MOL0     H14352   3.600   1.664   9.313 -1.5309  0.0132  0.6843
  829MOL0     H14353   3.540   1.743   9.455 -0.9259  0.0590 -1.8520
  829MOL0     H14354   3.825   1.734   9.352 -1.7530 -1.8384 -2.1062
  829MOL0     H14355   3.779   1.835   9.487  1.4022 -1.4388  0.9031
  829MOL0     H14356   3.681   1.643   9.606  0.6450 -1.2865  0.9357
  829MOL0     H14357   3.775   1.526   9.507  0.4683 -1.1033  0.4642
  829MOL0     H14358   3.876   1.567   9.698  0.3058  1.2855  1.2284
  829MOL0     H14359   3.984   1.618   9.568  0.8068 -1.0443  1.2361
  829MOL0     H14360   4.102   1.588   9.783 -0.5030  1.3573  0.2188
  829MOL0     H14361   4.396   1.637   9.983  2.9683 -0.0877 -0.9307
  829MOL0     H14362   4.390   1.630   9.802 -0.0734  0.4452 -0.5817
  829MOL0     H14363   4.288   1.521   9.905  0.0205  0.8794 -2.8044
  829MOL0     H14364   4.499   1.934  10.279 -4.4756 -0.0999  0.0321
  829MOL0     H14365   4.684   2.069  10.371  0.9450  1.8553  0.5431
  829MOL0     H14366   4.801   2.194  10.480 -0.1300 -0.9195 -0.0639
  829MOL0     H14367   4.904   2.188  10.340  0.9550  2.7750 -0.7207
  829MOL0     H14368   4.980   2.420  10.386 -0.7432 -0.4783 -0.9284
  829MOL0     H14369   4.864   2.434  10.511 -0.7758  0.2721 -0.8596
  829MOL0     H14370   5.098   2.236  10.518 -1.2587 -1.4528 -0.3080
  829MOL0     H14371   4.974   2.254  10.636  1.5343 -3.1068 -1.0129
  829MOL0     H14372   5.030   2.502  10.648  0.4213 -1.2077  2.8857
  829MOL0     H14373   5.166   2.482  10.544  3.9478 -2.9269 -0.3916
  829MOL0     H14374   5.222   2.506  10.775  4.0028 -1.8583  1.7877
  829MOL0     H14375   5.133   2.359  10.823 -1.7686  4.4840  2.1562
  829MOL0     H14376   5.418   2.394  10.683  2.5579 -2.0606  0.8790
  829MOL0     H14377   5.321   2.249  10.654 -0.8807  0.3660 -0.8822
  829MOL0     H14378   5.335   2.201  10.892  0.1172  0.8992  2.8992
  829MOL0     H14379   5.399   2.376  10.916  0.3558 -1.2416  1.5506
  829MOL0     H14380   5.591   2.224  10.922 -0.4648 -4.8156 -0.9125
  829MOL0     H14381   5.583   2.337  10.790  0.5167  0.9023  0.6783
  829MOL0     H14382   4.557   2.410  10.127 -0.2095 -0.6014 -2.2292
  829MOL0     H14383   4.377   2.288  10.036 -0.4938  1.8824  1.8506
  829MOL0     H14384   4.118   2.053   9.951 -1.3157 -0.5990  2.4708
  829MOL0     H14385   3.940   1.987   9.813 -0.3587 -0.7169  0.4125
  829MOL0     H14386   3.134   3.019   8.866  1.4802  1.8271  1.0303
  829MOL0     H14387   3.021   3.138   8.663 -0.6528  1.2583 -1.2368
  829MOL0     H14388   2.739   3.162   8.440  0.0518 -0.2643 -2.3750
  829MOL0     H14389   2.585   3.074   8.292  0.1327  0.1100  0.3523
  829MOL0     H14390   2.166   3.239   8.287 -0.4081 -0.9963 -0.1496
  829MOL0     H14391   2.270   3.330   8.177 -0.6132 -0.5695 -2.4295
  829MOL0     H14392   2.071   3.221   8.053 -0.0033  1.0391  0.9998
  829MOL0     H14393   2.124   3.070   8.132  1.1838  1.3571  4.1104
  829MOL0     H14394   2.299   3.217   7.937  0.3616 -0.8898  1.7257
  829MOL0     H14395   2.325   3.074   8.012 -1.5746 -1.1009  4.0480
  829MOL0     H14396   2.090   3.106   7.806 -1.0399 -1.1002 -0.2093
  829MOL0     H14397   2.111   2.968   7.908  0.2809 -0.5181 -0.8312
  829MOL0     H14398   2.395   2.856   7.647 -0.1884  1.7399 -1.6241
  829MOL0     H14399   2.279   3.337   8.448 -0.5528 -0.7596 -0.6803
  829MOL0     H14400   2.417   3.518   8.676 -0.9555 -0.2733 -1.7410
  829MOL0     H14401   2.279   3.410   8.648  0.0547 -2.4784 -0.7033
  829MOL0     H14402   2.401   3.366   8.766 -1.0999  1.8303  0.5981
  830MOL0     O14403   9.163   4.882   1.262 -0.2468  0.9202  0.2719
  830MOL0     C14404   9.234   4.986   1.275  0.5589  0.1023 -0.1225
  830MOL0     O14405   9.226   5.096   1.188 -0.6518  0.0115 -0.7008
  830MOL0     C14406   9.144   5.072   1.084  0.4596  0.4321  1.4289
  830MOL0     C14407   9.206   5.090   0.959  0.6754  0.3757 -0.5029
  830MOL0     C14408   9.134   5.059   0.840 -0.5456 -0.4850 -0.9352
  830MOL0     C14409   9.002   5.016   0.838  0.1416  0.8133 -0.3430
  830MOL0     O14410   8.952   4.964   0.722 -0.9096  0.2880  0.9980
  830MOL0     C14411   8.815   4.941   0.704  0.1233  0.5399 -0.0349
  830MOL0     C14412   8.781   4.920   0.558 -0.4815 -0.3218 -0.1826
  830MOL0     C14413   8.634   4.928   0.523  0.2092 -0.5666 -0.3865
  830MOL0     C14414   8.622   4.870   0.381 -0.2248 -0.0726  0.1876
  830MOL0     C14415   8.671   4.962   0.260 -0.1108  0.8395 -0.4346
  830MOL0     C14416   8.591   5.088   0.260 -0.0224 -0.1037 -1.3808
  830MOL0     C14417   8.668   5.181   0.166  0.2211  0.6116  0.4742
  830MOL0     C14418   8.773   5.273   0.223  0.9006  0.6870 -0.0626
  830MOL0     N14419   8.710   5.401   0.261 -1.0633  0.1444 -0.1629
  830MOL0     C14420   8.603   5.410   0.347 -0.2435 -0.9678  0.0649
  830MOL0     C14421   8.562   5.534   0.335  0.4485 -0.9480 -0.0803
  830MOL0     C14422   8.452   5.602   0.416 -0.3161 -0.1694  0.2553
  830MOL0     C14423   8.467   5.574   0.552  0.0018  0.0158 -0.0176
  830MOL0     C14424   8.434   5.697   0.647 -0.2854 -0.5020  0.0916
  830MOL0     C14425   8.451   5.657   0.796  0.3484 -0.0952  0.0731
  830MOL0     O14426   8.443   5.775   0.878  0.1157 -0.7362 -0.0404
  830MOL0     C14427   8.543   5.819   0.954  0.1063 -0.3627  0.6662
  830MOL0     C14428   8.497   5.917   1.043  0.1924 -0.1369  0.9900
  830MOL0     C14429   8.573   5.966   1.144 -0.9983  0.1446 -0.4231
  830MOL0     C14430   8.506   6.075   1.231 -0.1480 -0.5296  0.2685
  830MOL0     C14431   8.708   5.921   1.162 -0.8497 -0.0692  0.1447
  830MOL0     C14432   8.809   5.984   1.250  0.4385 -0.6108 -0.0591
  830MOL0     O14433   8.917   6.036   1.187 -0.0643  0.5101 -0.4362
  830MOL0     C14434   9.035   6.023   1.253  0.0265 -0.2460  0.2699
  830MOL0     C14435   9.128   5.933   1.198  0.2405 -0.4565  1.0241
  830MOL0     C14436   9.261   5.917   1.259 -0.3785 -0.7445  0.7593
  830MOL0     C14437   9.293   5.992   1.375  0.6435  0.1244  0.0665
  830MOL0     O14438   9.416   5.974   1.425 -0.1117 -0.2201 -0.3727
  830MOL0     C14439   9.420   5.953   1.570  0.6470  0.3536 -0.5626
  830MOL0     C14440   9.556   5.984   1.640  0.2138  0.7542 -0.3058
  830MOL0     C14441   9.586   6.135   1.669 -0.8757  0.3952 -0.1275
  830MOL0     C14442   9.726   6.153   1.736 -0.0910  0.1179  0.0522
  830MOL0     C14443   9.744   6.150   1.883 -0.3044  0.4028  0.8877
  830MOL0     C14444   9.889   6.151   1.921  0.4042 -0.1364  0.9730
  830MOL0     C14445   9.902   6.153   2.070 -0.5887  0.3989 -0.2397
  830MOL0     C14446   9.895   6.010   2.124  0.7468 -0.4423 -0.8340
  830MOL0    Cl14447   9.922   6.002   2.305  0.3776  0.6273 -0.1395
  830MOL0     C14448   9.201   6.092   1.415  0.3978  1.0571 -0.4619
  830MOL0     C14449   9.069   6.102   1.362  0.2565 -0.1440 -0.3011
  830MOL0     O14450   8.778   6.003   1.363 -0.6980 -0.1777  0.3946
  830MOL0     C14451   8.754   5.815   1.073 -0.0389 -0.1765 -0.4344
  830MOL0     C14452   8.673   5.768   0.972  0.4596 -0.1264  0.6161
  830MOL0     N14453   8.644   5.597   0.245 -0.0420 -0.4265 -0.3594
  830MOL0     N14454   8.737   5.521   0.200  0.8637  0.1301 -0.2726
  830MOL0     C14455   8.943   5.018   0.965  0.1938  0.6714 -0.7251
  830MOL0     C14456   9.005   5.046   1.086  0.1155 -0.5505 -0.1833
  830MOL0     C14457   9.338   4.989   1.381  0.1359 -0.9019  0.2154
  830MOL0     C14458   9.431   5.098   1.373 -0.5981 -0.6029 -0.5991
  830MOL0     C14459   9.527   5.121   1.474 -0.2084 -0.1662  0.1353
  830MOL0     C14460   9.540   5.030   1.575  1.2802 -0.5646 -0.2551
  830MOL0     O14461   9.629   5.055   1.670  0.1028  0.0838  0.3785
  830MOL0     C14462   9.761   5.023   1.635 -0.0470  0.2743  0.0755
  830MOL0     C14463   9.844   5.023   1.775 -0.2653  0.1883 -0.4531
  830MOL0     C14464   9.867   5.169   1.827 -0.8443  0.5873  0.1793
  830MOL0     C14465  10.013   5.199   1.834 -0.7499  0.5843 -0.4404
  830MOL0     C14466  10.075   5.232   1.706  0.7342 -0.0048  0.2656
  830MOL0     C14467  10.119   5.248   1.598  0.9606  0.1309  0.5104
  830MOL0     C14468   9.466   4.916   1.580 -0.2815 -1.1751 -0.4768
  830MOL0     C14469   9.361   4.895   1.486 -0.2139 -0.6058 -0.3826
  830MOL0     C14470   9.259   4.784   1.512 -0.3127 -0.9118 -0.5048
  830MOL0     H14471   9.312   5.115   0.963  1.2088 -1.5697 -1.3355
  830MOL0     H14472   9.185   5.071   0.745  3.3378  0.8740  1.1087
  830MOL0     H14473   8.751   5.024   0.738 -1.7309  0.1025 -2.1920
  830MOL0     H14474   8.793   4.856   0.769 -1.5661  1.5819  0.8273
  830MOL0     H14475   8.844   4.986   0.498 -0.8186 -0.0656 -0.2523
  830MOL0     H14476   8.816   4.822   0.522  0.0654  0.0991 -0.8328
  830MOL0     H14477   8.571   4.879   0.597 -1.1503  0.5740 -0.7495
  830MOL0     H14478   8.599   5.032   0.520  1.9911  0.0546 -1.2233
  830MOL0     H14479   8.683   4.781   0.361  0.4752  0.5044 -0.2769
  830MOL0     H14480   8.521   4.839   0.351  0.8798 -2.2867 -1.6027
  830MOL0     H14481   8.644   4.905   0.171 -2.4537 -2.3331  2.0279
  830MOL0     H14482   8.779   4.977   0.258  0.6371 -3.3518 -2.8706
  830MOL0     H14483   8.486   5.073   0.231 -1.5919  3.3906  1.6869
  830MOL0     H14484   8.596   5.148   0.351 -0.9076 -0.6483 -0.9559
  830MOL0     H14485   8.599   5.237   0.102  0.7673 -0.8566 -1.5092
  830MOL0     H14486   8.721   5.122   0.090  0.1452  2.4415 -1.0873
  830MOL0     H14487   8.813   5.224   0.313 -1.1059 -0.1453  0.4336
  830MOL0     H14488   8.848   5.289   0.146 -2.2583 -1.2961 -3.9429
  830MOL0     H14489   8.577   5.332   0.419 -0.0073 -1.5102 -0.4290
  830MOL0     H14490   8.352   5.568   0.385 -0.5559  0.8120 -0.0974
  830MOL0     H14491   8.452   5.708   0.389 -0.1793 -0.5390 -1.2574
  830MOL0     H14492   8.416   5.483   0.584 -0.9362  0.9695  1.2607
  830MOL0     H14493   8.572   5.556   0.577 -0.6706 -0.6901  2.6174
  830MOL0     H14494   8.513   5.772   0.637 -0.2305 -0.3993  1.2517
  830MOL0     H14495   8.339   5.748   0.625 -0.3615 -0.4660  0.4980
  830MOL0     H14496   8.367   5.594   0.823  0.6295  0.7092  3.1509
  830MOL0     H14497   8.545   5.604   0.814  0.2241 -1.2723 -2.3200
  830MOL0     H14498   8.395   5.945   1.021 -0.6037 -2.7694  1.0348
  830MOL0     H14499   8.589   6.122   1.284  2.9187 -4.1465 -0.8594
  830MOL0     H14500   8.449   6.029   1.312  0.5944 -0.9799  0.5484
  830MOL0     H14501   8.441   6.138   1.170 -0.7755  0.3401  1.7842
  830MOL0     H14502   9.099   5.873   1.113 -0.4486  2.9149 -1.2907
  830MOL0     H14503   9.329   5.846   1.214 -1.4422 -0.7444 -0.9043
  830MOL0     H14504   9.342   6.018   1.610 -1.2409 -0.6553 -2.3858
  830MOL0     H14505   9.395   5.850   1.597  3.2694  0.7301  4.4036
  830MOL0     H14506   9.572   5.929   1.733 -0.6387 -1.8780 -1.6329
  830MOL0     H14507   9.627   5.951   1.564 -1.8824 -1.2269 -1.5008
  830MOL0     H14508   9.508   6.177   1.733 -2.0175  0.4906 -1.5342
  830MOL0     H14509   9.578   6.184   1.571 -2.8496 -1.0462 -0.7529
  830MOL0     H14510   9.765   6.254   1.722  2.1859 -0.3240  2.2788
  830MOL0     H14511   9.794   6.084   1.685  1.4882  1.3858  0.3332
  830MOL0     H14512   9.677   6.221   1.933  0.4283  1.7308  0.0234
  830MOL0     H14513   9.717   6.050   1.920 -0.5122  1.3232  3.4144
  830MOL0     H14514   9.934   6.237   1.870  0.9506 -2.0921 -2.1416
  830MOL0     H14515   9.936   6.066   1.871 -2.3493 -1.0439 -0.2739
  830MOL0     H14516   9.812   6.200   2.110  0.6332  2.2979  0.4204
  830MOL0     H14517   9.995   6.202   2.101  2.0775 -1.0337 -4.9970
  830MOL0     H14518   9.964   5.943   2.072 -1.3542 -0.7760 -3.3877
  830MOL0     H14519   9.795   5.973   2.098  0.3725 -0.8069  1.0091
  830MOL0     H14520   9.233   6.161   1.493  0.4703 -0.9029  1.3211
  830MOL0     H14521   8.990   6.168   1.398  1.0012 -0.1297  1.4065
  830MOL0     H14522   8.857   5.785   1.089  0.5587  2.0982  0.2307
  830MOL0     H14523   8.714   5.695   0.903  2.9357  0.9778  0.8147
  830MOL0     H14524   8.840   4.990   0.984 -0.1031  0.8038 -2.0466
  830MOL0     H14525   8.956   5.036   1.182  0.3130 -0.9860 -0.1254
  830MOL0     H14526   9.431   5.184   1.307 -1.2252  1.6967  2.1743
  830MOL0     H14527   9.585   5.213   1.472  0.4725 -0.6018 -1.2576
  830MOL0     H14528   9.764   4.923   1.590 -1.5014  0.5536 -0.7084
  830MOL0     H14529   9.801   5.094   1.562  2.1475  1.2484  2.0998
  830MOL0     H14530   9.938   4.977   1.745  0.6710  3.1815 -2.5981
  830MOL0     H14531   9.799   4.956   1.849  1.1394  0.8344  1.0486
  830MOL0     H14532   9.817   5.243   1.763  0.4908  1.5640  0.2237
  830MOL0     H14533   9.821   5.182   1.926  0.7843 -0.4661  1.1121
  830MOL0     H14534  10.076   5.117   1.869  0.2718  0.9123 -1.4531
  830MOL0     H14535  10.028   5.285   1.900  0.9333  0.5933 -0.7988
  830MOL0     H14536  10.146   5.282   1.500 -0.3752  0.1425  0.1197
  830MOL0     H14537   9.501   4.849   1.657 -2.4341  1.5513  3.1858
  830MOL0     H14538   9.287   4.745   1.610  0.8088  4.1978  1.4837
  830MOL0     H14539   9.157   4.822   1.509 -0.8517 -2.1806  0.7708
  830MOL0     H14540   9.271   4.715   1.428  2.8791  0.9655 -1.7564
  831MOL0     O14541   2.901   3.996   0.996 -0.3341  0.5931 -0.0616
  831MOL0     C14542   2.912   3.958   1.117 -0.1592 -0.2270  0.0668
  831MOL0     O14543   3.029   3.959   1.191  0.2792 -0.1637  0.1213
  831MOL0     C14544   3.153   3.986   1.133  0.4177 -0.4547  0.2137
  831MOL0     C14545   3.235   4.059   1.216 -0.1913  0.3300  0.0407
  831MOL0     C14546   3.361   4.103   1.169  0.2219 -1.0626 -0.3469
  831MOL0     C14547   3.409   4.061   1.044  0.1203 -1.0210 -0.5984
  831MOL0     O14548   3.535   4.087   0.992  0.4438  0.0946  0.6304
  831MOL0     C14549   3.564   4.227   0.976  0.7243  0.3925  1.0505
  831MOL0     C14550   3.505   4.280   0.845 -0.0592  0.2252  0.3553
  831MOL0     C14551   3.363   4.327   0.873 -0.2333  0.5189 -0.0075
  831MOL0     C14552   3.314   4.422   0.765 -0.5661 -0.3067  0.2577
  831MOL0     C14553   3.161   4.448   0.797  0.4611  0.6312 -0.2244
  831MOL0     C14554   3.102   4.535   0.698 -0.6498 -0.7221 -0.2619
  831MOL0     C14555   3.123   4.493   0.547  0.3776 -0.8677 -0.2610
  831MOL0     C14556   3.084   4.360   0.511 -0.1919 -0.2538 -0.8238
  831MOL0     N14557   2.954   4.338   0.469  0.0649 -0.1296  0.2714
  831MOL0     C14558   2.879   4.224   0.513  0.5019 -0.7246 -0.7031
  831MOL0     C14559   2.759   4.247   0.451 -0.4198  0.1948  0.0224
  831MOL0     C14560   2.629   4.161   0.460 -0.4154 -0.6045 -0.4545
  831MOL0     C14561   2.597   4.100   0.327 -0.6330 -0.5159  0.5036
  831MOL0     C14562   2.650   3.957   0.304 -0.5943 -0.0936  0.3081
  831MOL0     C14563   2.801   3.944   0.311  0.3736 -0.3670 -0.0691
  831MOL0     O14564   2.854   4.027   0.208  0.4562  1.3551  0.1757
  831MOL0     C14565   2.983   4.058   0.207 -0.0941 -0.4220 -0.8821
  831MOL0     C14566   3.014   4.182   0.156  0.0623  0.1214 -0.1401
  831MOL0     C14567   3.136   4.240   0.163 -0.9008  0.0650 -0.4879
  831MOL0     C14568   3.152   4.371   0.106  0.3272  0.1959 -0.0200
  831MOL0     C14569   3.243   4.163   0.213 -0.5378 -0.6882  0.0436
  831MOL0     C14570   3.384   4.210   0.207 -0.2890  0.3061 -0.0240
  831MOL0     O14571   3.422   4.290   0.310 -0.3398  0.1429  0.0490
  831MOL0     C14572   3.553   4.336   0.304  0.2740  0.2257  0.4844
  831MOL0     C14573   3.604   4.435   0.214  0.2288 -0.1928 -0.4688
  831MOL0     C14574   3.730   4.493   0.236  0.9229 -0.6881 -0.5126
  831MOL0     C14575   3.821   4.423   0.327  0.0308 -1.4678  0.2954
  831MOL0     O14576   3.945   4.468   0.343  0.6007 -0.4537  0.1436
  831MOL0     C14577   4.047   4.385   0.385 -0.4313 -0.0588  0.3650
  831MOL0     C14578   4.172   4.429   0.307 -0.8231  0.1702  0.7736
  831MOL0     C14579   4.295   4.364   0.352  0.3119  0.5327 -0.8458
  831MOL0     C14580   4.422   4.388   0.265  0.4930 -0.2627  0.2698
  831MOL0     C14581   4.401   4.333   0.118 -0.3865  0.3588 -0.4293
  831MOL0     C14582   4.536   4.336   0.038  0.2371 -0.5842 -0.5282
  831MOL0     C14583   4.588   4.478   0.016 -0.1763 -0.3535 -0.2478
  831MOL0     C14584   4.712   4.477  -0.081 -0.5656  0.2370 -0.0045
  831MOL0    Cl14585   4.781   4.633  -0.103 -0.1981 -0.5121 -0.1901
  831MOL0     C14586   3.772   4.317   0.401  0.9454 -0.4554 -0.3245
  831MOL0     C14587   3.638   4.273   0.395 -0.0157  0.1451  0.9252
  831MOL0     O14588   3.455   4.173   0.113  0.3570  0.7309  0.0202
  831MOL0     C14589   3.217   4.029   0.258  0.1752 -1.3762  0.3815
  831MOL0     C14590   3.087   3.979   0.265 -0.3582 -0.2838 -0.2279
  831MOL0     N14591   2.754   4.360   0.366  0.0993 -0.3631  0.2329
  831MOL0     N14592   2.868   4.416   0.388 -0.2047  0.3491  0.4534
  831MOL0     C14593   3.321   3.991   0.963  0.3821  0.4288 -0.4034
  831MOL0     C14594   3.195   3.950   1.005  0.2487  0.0022  0.4423
  831MOL0     C14595   2.791   3.911   1.178  0.8280  0.2256 -0.1273
  831MOL0     C14596   2.697   3.836   1.100  0.5678 -0.1222 -0.0999
  831MOL0     C14597   2.579   3.792   1.154 -0.0106 -0.4067 -0.2687
  831MOL0     C14598   2.563   3.796   1.293  0.0807  0.0234  0.9583
  831MOL0     O14599   2.444   3.745   1.335 -0.6361  0.1592  0.1459
  831MOL0     C14600   2.393   3.770   1.465 -0.1069  0.4847 -0.7036
  831MOL0     C14601   2.252   3.717   1.481 -0.2221 -0.0726  0.5237
  831MOL0     C14602   2.234   3.574   1.519 -0.4300 -0.4651  0.2895
  831MOL0     C14603   2.089   3.544   1.530  0.4937 -0.6078 -0.6145
  831MOL0     C14604   2.054   3.578   1.669 -0.6856 -0.1220  0.2657
  831MOL0     C14605   2.031   3.596   1.791  0.3759  0.7820  0.7644
  831MOL0     C14606   2.648   3.879   1.369  0.0644 -0.2291 -0.5046
  831MOL0     C14607   2.766   3.929   1.313  0.5784 -0.1595  1.0682
  831MOL0     C14608   2.848   4.012   1.411  0.5668 -0.0047 -0.3971
  831MOL0     H14609   3.200   4.090   1.314 -1.2351  2.6581 -0.9869
  831MOL0     H14610   3.428   4.165   1.227  1.6566 -1.0356 -1.9539
  831MOL0     H14611   3.673   4.234   0.974  0.6766  2.6779 -2.2616
  831MOL0     H14612   3.522   4.280   1.062 -4.0623 -1.2561  0.0636
  831MOL0     H14613   3.567   4.369   0.837 -0.9700  0.8147 -0.3714
  831MOL0     H14614   3.520   4.224   0.752  0.8424  2.5190 -0.9705
  831MOL0     H14615   3.305   4.235   0.858  1.4128 -0.2442 -2.4710
  831MOL0     H14616   3.359   4.367   0.974 -1.7601 -2.9313  1.4794
  831MOL0     H14617   3.377   4.511   0.769  2.4878 -2.3098  0.5563
  831MOL0     H14618   3.316   4.372   0.668 -2.6848  0.6046 -0.2997
  831MOL0     H14619   3.158   4.505   0.891  2.7545  0.8485 -0.2336
  831MOL0     H14620   3.102   4.357   0.809 -0.2181  1.3438  2.9985
  831MOL0     H14621   2.994   4.548   0.713 -0.3512  0.5398  1.0270
  831MOL0     H14622   3.155   4.628   0.719  1.2682 -1.7809 -0.2543
  831MOL0     H14623   3.231   4.500   0.532  0.5295  0.4874  1.2044
  831MOL0     H14624   3.073   4.566   0.482 -0.9493 -2.2235 -0.8131
  831MOL0     H14625   3.144   4.342   0.421 -0.8788  0.3057 -1.3978
  831MOL0     H14626   3.101   4.293   0.596 -1.5879 -1.5755 -1.5191
  831MOL0     H14627   2.903   4.143   0.580 -1.2096 -1.5049 -0.9986
  831MOL0     H14628   2.550   4.228   0.493  0.9645  1.6214 -1.4519
  831MOL0     H14629   2.643   4.079   0.531  1.1467  2.0531  2.5574
  831MOL0     H14630   2.489   4.085   0.314 -0.7338  1.3105 -1.2521
  831MOL0     H14631   2.633   4.162   0.244 -0.1674  1.2250  1.9469
  831MOL0     H14632   2.606   3.879   0.366  0.2405 -2.3990 -1.8125
  831MOL0     H14633   2.620   3.934   0.201 -0.3400 -1.6792  0.5606
  831MOL0     H14634   2.835   3.981   0.409  0.5475  4.2612 -1.6394
  831MOL0     H14635   2.840   3.845   0.287  1.0338 -0.1766  0.1897
  831MOL0     H14636   2.933   4.232   0.105 -0.7632 -1.8444 -0.8341
  831MOL0     H14637   3.163   4.368  -0.003 -1.0488 -1.2515 -0.1601
  831MOL0     H14638   3.244   4.425   0.133  1.5722  0.9412 -4.7809
  831MOL0     H14639   3.062   4.430   0.126 -0.3277 -0.8194  0.1142
  831MOL0     H14640   3.537   4.470   0.135 -0.8347 -2.0290 -0.4239
  831MOL0     H14641   3.758   4.580   0.178  3.3003 -1.8699 -1.2573
  831MOL0     H14642   4.073   4.399   0.490  0.4046 -0.1446  0.1819
  831MOL0     H14643   4.024   4.279   0.369  1.4174 -0.5439  0.6478
  831MOL0     H14644   4.165   4.414   0.199  0.8127 -3.1820  1.0107
  831MOL0     H14645   4.199   4.535   0.314  0.5748  0.4853 -4.7857
  831MOL0     H14646   4.281   4.256   0.351 -0.2192  0.5510  0.7559
  831MOL0     H14647   4.312   4.395   0.456 -0.1942  0.2793 -0.6823
  831MOL0     H14648   4.506   4.338   0.314  2.0166  0.8384 -1.1102
  831MOL0     H14649   4.436   4.496   0.261 -1.8784  0.1119  0.6846
  831MOL0     H14650   4.357   4.234   0.102  0.2573  0.2284 -1.4984
  831MOL0     H14651   4.335   4.403   0.066  0.6393  2.1161  0.5262
  831MOL0     H14652   4.507   4.300  -0.061 -1.4144 -1.7286  0.3411
  831MOL0     H14653   4.603   4.263   0.085 -0.5262 -0.0025  1.5820
  831MOL0     H14654   4.617   4.527   0.109 -1.3942  0.5675 -0.3290
  831MOL0     H14655   4.508   4.538  -0.030 -0.3181 -1.3040 -1.3000
  831MOL0     H14656   4.690   4.437  -0.180  2.1266  1.8986 -1.4325
  831MOL0     H14657   4.786   4.416  -0.029 -0.6633 -1.3039 -1.5832
  831MOL0     H14658   3.828   4.264   0.477  2.0650 -2.4846 -2.4489
  831MOL0     H14659   3.605   4.193   0.461  0.3176  1.2578  2.5111
  831MOL0     H14660   3.299   3.973   0.302  0.6883 -0.4157  0.6613
  831MOL0     H14661   3.058   3.882   0.302  0.3902 -1.4004 -2.4159
  831MOL0     H14662   3.372   3.955   0.874  1.9454 -0.8068  0.9122
  831MOL0     H14663   3.146   3.868   0.954 -1.2649  0.9916  0.2573
  831MOL0     H14664   2.702   3.818   0.993  0.4947  1.8737 -0.4714
  831MOL0     H14665   2.505   3.742   1.091  2.3497 -1.2220 -2.6091
  831MOL0     H14666   2.463   3.737   1.542 -1.3825  1.0256  0.7219
  831MOL0     H14667   2.386   3.878   1.484  0.0625  0.5619 -1.0637
  831MOL0     H14668   2.215   3.729   1.379  3.9910 -1.6087 -1.3888
  831MOL0     H14669   2.183   3.771   1.547 -1.6439 -2.9121  1.5527
  831MOL0     H14670   2.279   3.509   1.444  2.1381  1.6499 -0.1621
  831MOL0     H14671   2.290   3.551   1.611 -3.2924 -2.4809  1.6900
  831MOL0     H14672   2.085   3.436   1.515 -0.5421 -0.8225  0.9948
  831MOL0     H14673   2.027   3.609   1.467  1.4560  3.2877  2.0716
  831MOL0     H14674   2.008   3.599   1.896 -2.0685 -2.1599  0.4652
  831MOL0     H14675   2.633   3.896   1.475 -0.0427 -1.2110 -0.3450
  831MOL0     H14676   2.848   4.107   1.358  1.6496 -0.6476 -1.6108
  831MOL0     H14677   2.803   4.050   1.503  0.3155  1.2976 -1.0374
  831MOL0     H14678   2.949   3.974   1.432 -0.4282 -1.4813  2.1172
  832MOL0     O14679   5.071   8.318   5.386 -0.5461 -0.1232  0.8102
  832MOL0     C14680   4.976   8.383   5.359 -0.0430  0.0598 -1.1395
  832MOL0     O14681   4.935   8.492   5.430  0.1507 -0.1545 -0.0115
  832MOL0     C14682   5.019   8.544   5.525 -0.0765 -0.5155  0.3192
  832MOL0     C14683   5.147   8.594   5.483 -0.5445  0.7781  0.9490
  832MOL0     C14684   5.227   8.657   5.584  0.6336  0.6099  0.8485
  832MOL0     C14685   5.184   8.665   5.716  0.3547 -0.0461  0.6724
  832MOL0     O14686   5.249   8.725   5.817 -0.2625 -0.0801 -0.4762
  832MOL0     C14687   5.383   8.774   5.792  0.0070  0.6259  0.0491
  832MOL0     C14688   5.429   8.848   5.916 -0.7259 -0.1779 -0.4053
  832MOL0     C14689   5.543   8.947   5.888  0.3713  0.7334  0.6980
  832MOL0     C14690   5.573   9.050   6.000 -0.6543  0.4109 -0.0071
  832MOL0     C14691   5.710   9.115   5.989 -0.0149  0.4488  0.1865
  832MOL0     C14692   5.733   9.182   5.847  0.1660  0.3137  0.2115
  832MOL0     C14693   5.857   9.266   5.849  1.1041 -0.1662 -1.0701
  832MOL0     C14694   5.895   9.328   5.717  0.7927  0.2198 -0.0823
  832MOL0     N14695   5.943   9.236   5.616 -0.4297  0.4418  0.1715
  832MOL0     C14696   5.930   9.259   5.478  0.5482  0.6727  0.4394
  832MOL0     C14697   5.955   9.137   5.417  0.6616 -0.0180  0.9071
  832MOL0     C14698   5.940   9.094   5.275 -0.0009  0.3144  0.9100
  832MOL0     C14699   6.026   9.173   5.172  0.8572 -0.0911  0.0182
  832MOL0     C14700   5.947   9.294   5.121 -0.6802 -0.8021 -0.0910
  832MOL0     C14701   5.986   9.349   4.979 -0.0690 -0.4533  0.3267
  832MOL0     O14702   6.119   9.395   4.977  0.0591  0.0276  0.3258
  832MOL0     C14703   6.173   9.410   4.850  0.3960  0.1563  1.0935
  832MOL0     C14704   6.104   9.411   4.723 -1.3993  0.1331 -0.5000
  832MOL0     C14705   6.180   9.428   4.600  0.2287 -0.5201 -0.2523
  832MOL0     C14706   6.090   9.430   4.482  0.4729  0.1371  0.2847
  832MOL0     C14707   6.324   9.444   4.601 -0.6239  0.1214 -0.5918
  832MOL0     C14708   6.417   9.468   4.476 -0.9974  0.1993 -0.3047
  832MOL0     O14709   6.378   9.403   4.359  0.7228 -0.1368 -0.1899
  832MOL0     C14710   6.462   9.396   4.244  0.7650  0.5464 -0.2236
  832MOL0     C14711   6.436   9.487   4.140 -0.6484  0.5478  0.7829
  832MOL0     C14712   6.526   9.502   4.032  0.3346 -0.7212 -0.2035
  832MOL0     C14713   6.638   9.421   4.018  0.6843 -0.6278  0.1939
  832MOL0     O14714   6.726   9.438   3.913 -0.2336 -0.1437  0.5464
  832MOL0     C14715   6.716   9.550   3.831 -0.4277 -0.2736  0.3662
  832MOL0     C14716   6.829   9.555   3.733 -0.5642 -0.3240  0.2039
  832MOL0     C14717   6.822   9.694   3.662  0.3115  0.1585  0.1775
  832MOL0     C14718   6.711   9.701   3.555  0.4905 -0.4531 -1.0005
  832MOL0     C14719   6.694   9.838   3.486 -0.0351  0.4290  0.0313
  832MOL0     C14720   6.660   9.952   3.580  0.4066 -0.1184 -0.6193
  832MOL0     C14721   6.595  10.074   3.502 -0.1451  0.2120  0.1914
  832MOL0     C14722   6.558  10.186   3.594  0.5496  0.0697  0.1956
  832MOL0    Cl14723   6.431  10.132   3.721  0.2800  0.5060  0.0687
  832MOL0     C14724   6.661   9.328   4.115  0.6012  0.2746  0.1039
  832MOL0     C14725   6.579   9.314   4.227  0.1735  0.6646 -0.2633
  832MOL0     O14726   6.521   9.532   4.490 -0.0434 -0.1475  1.0849
  832MOL0     C14727   6.384   9.450   4.730  0.2910  0.2728  0.3269
  832MOL0     C14728   6.314   9.431   4.847  0.5285  0.1044 -0.0558
  832MOL0     N14729   6.005   9.056   5.520  0.9012 -0.1387 -0.5382
  832MOL0     N14730   5.994   9.120   5.635  0.7471  0.3943 -0.7861
  832MOL0     C14731   5.063   8.600   5.755 -0.9574  0.1190 -0.5302
  832MOL0     C14732   4.985   8.547   5.656 -0.4266 -0.1251 -0.7898
  832MOL0     C14733   4.896   8.354   5.239  0.3370  0.1623  0.4241
  832MOL0     C14734   4.786   8.435   5.210 -1.1656 -0.0362 -0.1598
  832MOL0     C14735   4.693   8.402   5.115 -0.1353  1.0863 -0.0508
  832MOL0     C14736   4.702   8.288   5.039 -0.4695 -0.0669 -0.7485
  832MOL0     O14737   4.612   8.274   4.937  0.2079  0.0463 -0.4964
  832MOL0     C14738   4.629   8.158   4.855  0.5766 -0.1554  0.8343
  832MOL0     C14739   4.510   8.140   4.753  0.6935  0.2996 -0.1317
  832MOL0     C14740   4.478   8.262   4.668 -0.2728  0.5438  0.1638
  832MOL0     C14741   4.390   8.227   4.553  0.0271 -0.7693  1.0343
  832MOL0     C14742   4.278   8.151   4.593 -0.6892  0.3687 -0.8440
  832MOL0     C14743   4.182   8.091   4.633  0.1894  0.3012  0.2134
  832MOL0     C14744   4.812   8.198   5.063 -0.1979 -0.2768 -0.3033
  832MOL0     C14745   4.905   8.230   5.163 -0.1977 -0.3637  0.4580
  832MOL0     C14746   5.002   8.113   5.200  0.6762 -0.3995 -0.0340
  832MOL0     H14747   5.181   8.605   5.381 -0.8327  1.0352  0.8760
  832MOL0     H14748   5.325   8.682   5.545 -0.2262 -0.1424 -2.0000
  832MOL0     H14749   5.387   8.835   5.701 -2.8379  0.2610 -0.4125
  832MOL0     H14750   5.456   8.693   5.781 -0.1882 -0.0839  3.1090
  832MOL0     H14751   5.345   8.902   5.960  0.5510  0.8795  0.8161
  832MOL0     H14752   5.450   8.780   5.998 -1.3677  0.5346  0.3714
  832MOL0     H14753   5.631   8.895   5.849 -0.2440  0.8642 -0.9301
  832MOL0     H14754   5.505   9.003   5.802 -0.0700 -1.7777 -0.8615
  832MOL0     H14755   5.496   9.127   5.993 -0.3682  0.6872 -0.1250
  832MOL0     H14756   5.558   9.004   6.098  0.3443  1.9112  0.8817
  832MOL0     H14757   5.784   9.045   6.028 -0.6631  0.7243  2.0118
  832MOL0     H14758   5.707   9.192   6.067  3.6632  0.1292  0.8008
  832MOL0     H14759   5.750   9.092   5.787 -2.4587 -0.5800  0.6851
  832MOL0     H14760   5.646   9.236   5.810 -2.6700 -3.4946  0.6759
  832MOL0     H14761   5.948   9.215   5.882  1.3898  1.1686  0.3297
  832MOL0     H14762   5.834   9.343   5.923 -0.0569 -1.9128  0.4783
  832MOL0     H14763   5.803   9.375   5.682 -0.5530 -2.0943  0.1372
  832MOL0     H14764   5.967   9.411   5.725  0.1854  1.0406 -2.3555
  832MOL0     H14765   5.892   9.352   5.437 -0.2726  1.2950  2.4881
  832MOL0     H14766   5.834   9.101   5.248  0.0888 -0.1516  0.4104
  832MOL0     H14767   5.972   8.989   5.273 -0.5032  0.1696  0.2930
  832MOL0     H14768   6.125   9.207   5.203  0.1249  1.6041  0.5939
  832MOL0     H14769   6.026   9.103   5.088 -1.6302  0.8575 -0.8703
  832MOL0     H14770   5.845   9.255   5.106 -0.8083 -0.5762  0.1833
  832MOL0     H14771   5.952   9.376   5.193 -0.5798 -0.2760 -0.6890
  832MOL0     H14772   5.965   9.279   4.898  3.2161  1.9933 -2.9869
  832MOL0     H14773   5.926   9.437   4.954 -1.0674 -0.1872  3.2604
  832MOL0     H14774   5.996   9.398   4.730 -1.3868  0.7737  1.4474
  832MOL0     H14775   6.028   9.518   4.499 -1.5121 -1.5831  2.8971
  832MOL0     H14776   6.026   9.341   4.493 -1.0498  1.2899  1.0854
  832MOL0     H14777   6.147   9.429   4.389  1.4756  2.2390  0.8228
  832MOL0     H14778   6.339   9.534   4.140 -0.7268  0.6303 -2.4315
  832MOL0     H14779   6.501   9.571   3.953 -0.6006 -1.4333 -0.5535
  832MOL0     H14780   6.620   9.548   3.778 -0.8579  0.0233  1.1159
  832MOL0     H14781   6.725   9.631   3.904 -0.5806 -2.8494  3.4687
  832MOL0     H14782   6.927   9.552   3.783 -1.1525  4.9925  2.2514
  832MOL0     H14783   6.819   9.469   3.666  3.1846  0.0219 -1.0228
  832MOL0     H14784   6.922   9.715   3.622 -0.6899  0.9002 -2.0659
  832MOL0     H14785   6.807   9.779   3.730 -2.5726  0.5187 -0.7819
  832MOL0     H14786   6.615   9.670   3.597  1.0247  0.8796  1.3852
  832MOL0     H14787   6.730   9.622   3.481 -0.3565 -4.1014  2.3111
  832MOL0     H14788   6.782   9.859   3.424 -1.5200 -0.4938 -2.5456
  832MOL0     H14789   6.618   9.833   3.407 -0.5548  4.8994  0.0084
  832MOL0     H14790   6.752   9.988   3.627 -1.6400  1.2795  2.7431
  832MOL0     H14791   6.597   9.917   3.663 -0.4251 -1.7754 -1.8972
  832MOL0     H14792   6.506  10.046   3.443  1.8950  0.5281 -3.3011
  832MOL0     H14793   6.674  10.112   3.437 -0.1865  0.6636  0.4023
  832MOL0     H14794   6.516  10.267   3.534 -3.1381 -2.8636 -1.5992
  832MOL0     H14795   6.645  10.228   3.646  0.7664  0.7484 -0.6878
  832MOL0     H14796   6.747   9.266   4.094 -0.9264 -0.5658 -4.9026
  832MOL0     H14797   6.602   9.234   4.296  0.0787 -0.0860 -1.0922
  832MOL0     H14798   6.489   9.475   4.748 -0.4938  1.5970  3.7815
  832MOL0     H14799   6.363   9.450   4.942 -0.0082  2.0132 -0.1179
  832MOL0     H14800   5.033   8.590   5.859  2.2426  0.2475  0.5106
  832MOL0     H14801   4.888   8.508   5.687 -1.5147  2.9456  0.0138
  832MOL0     H14802   4.769   8.522   5.272 -2.1359 -1.1264  1.1578
  832MOL0     H14803   4.618   8.476   5.092 -1.0978  0.1885  0.1187
  832MOL0     H14804   4.718   8.179   4.795  0.3925  4.1428  1.7499
  832MOL0     H14805   4.636   8.069   4.918 -0.2317  0.8229  2.3891
  832MOL0     H14806   4.417   8.112   4.804  1.2567 -3.7109 -0.9915
  832MOL0     H14807   4.521   8.055   4.685 -2.5625  1.5754 -2.5263
  832MOL0     H14808   4.413   8.323   4.731 -1.9838 -0.9421 -0.0845
  832MOL0     H14809   4.574   8.311   4.648 -0.2465  0.4563  0.0722
  832MOL0     H14810   4.452   8.170   4.483  2.0066  3.3597 -0.9128
  832MOL0     H14811   4.349   8.317   4.506 -1.4481 -1.6277  0.5964
  832MOL0     H14812   4.095   8.036   4.661  0.7948 -0.2980  0.9782
  832MOL0     H14813   4.834   8.111   5.002  0.3395 -1.9385  2.1026
  832MOL0     H14814   5.008   8.033   5.126 -3.5914  0.1468 -1.2593
  832MOL0     H14815   5.101   8.155   5.216  0.5078  0.5001 -1.1657
  832MOL0     H14816   4.961   8.068   5.291 -2.6882 -0.4326 -1.3984
  833MOL0     O14817   8.333   0.702   8.140  0.6666  0.5439 -0.2274
  833MOL0     C14818   8.241   0.667   8.067  0.8519  0.6168  0.1110
  833MOL0     O14819   8.253   0.611   7.945  0.2505  0.1827 -0.0758
  833MOL0     C14820   8.382   0.603   7.898 -0.6573  0.0669  0.6900
  833MOL0     C14821   8.470   0.502   7.928  0.2961  0.4877  0.4172
  833MOL0     C14822   8.597   0.498   7.870  0.0298  0.4069 -0.8089
  833MOL0     C14823   8.632   0.587   7.772  0.1375 -0.1909 -0.6340
  833MOL0     O14824   8.759   0.590   7.737 -0.7712 -0.3145 -0.3610
  833MOL0     C14825   8.789   0.510   7.616 -0.0127  0.2338  0.4554
  833MOL0     C14826   8.939   0.482   7.616 -0.0843 -0.0099 -0.0112
  833MOL0     C14827   8.983   0.449   7.477 -0.7107  0.3677  0.4624
  833MOL0     C14828   9.107   0.366   7.468  0.5625  0.2286  0.3995
  833MOL0     C14829   9.169   0.380   7.328 -0.0356 -0.4253  0.0830
  833MOL0     C14830   9.241   0.515   7.304 -0.3075 -0.2766  0.4025
  833MOL0     C14831   9.303   0.529   7.167  0.0356  0.5201 -0.0413
  833MOL0     C14832   9.431   0.613   7.153 -0.4668 -0.4960 -0.5320
  833MOL0     N14833   9.547   0.555   7.232  0.7973 -0.8788 -0.3420
  833MOL0     C14834   9.552   0.434   7.293 -0.3606  0.4300 -0.4673
  833MOL0     C14835   9.655   0.448   7.377 -0.0277  1.3239 -0.8414
  833MOL0     C14836   9.690   0.337   7.479 -0.0275 -0.4528  0.4252
  833MOL0     C14837   9.809   0.253   7.438  0.0678  0.7557 -0.0940
  833MOL0     C14838   9.939   0.329   7.409 -0.5651 -0.2814 -0.3769
  833MOL0     C14839  10.019   0.389   7.528  0.3478  0.7822  0.2356
  833MOL0     O14840  10.060   0.279   7.617  0.4994 -0.7074 -0.5288
  833MOL0     C14841  10.153   0.323   7.710  0.4587  0.5455  0.2589
  833MOL0     C14842  10.189   0.453   7.748  0.0804 -0.5456  0.4681
  833MOL0     C14843  10.288   0.484   7.841  0.4083 -0.5790 -0.4274
  833MOL0     C14844  10.305   0.629   7.855 -0.1483  0.6200 -0.1247
  833MOL0     C14845  10.358   0.376   7.899 -0.4876 -0.2561 -0.6392
  833MOL0     C14846  10.464   0.391   8.006 -0.4099  0.3535 -0.2749
  833MOL0     O14847  10.482   0.274   8.081 -0.0016  0.0162 -0.2726
  833MOL0     C14848  10.563   0.293   8.183 -0.4227  0.0452  0.3484
  833MOL0     C14849  10.690   0.237   8.179 -0.9826 -0.3557  0.7763
  833MOL0     C14850  10.789   0.234   8.285 -1.2109 -0.0639 -0.0507
  833MOL0     C14851  10.768   0.310   8.396 -0.9764 -0.7587 -0.4036
  833MOL0     O14852  10.868   0.334   8.482 -0.3639 -0.0237  0.1826
  833MOL0     C14853  10.839   0.306   8.616  0.0600  0.5106  0.0690
  833MOL0     C14854  10.973   0.273   8.695 -0.0141  0.0281 -0.4133
  833MOL0     C14855  11.042   0.148   8.630 -0.1040 -0.0377 -0.2702
  833MOL0     C14856  11.186   0.122   8.684  0.6398 -0.6252  0.0830
  833MOL0     C14857  11.170   0.033   8.793 -0.3082 -0.8371 -0.9408
  833MOL0     C14858  11.296   0.022   8.879 -0.3755  0.0873  0.2632
  833MOL0     C14859  11.290  -0.107   8.958  0.4560  0.3909 -0.3489
  833MOL0     C14860  11.416  -0.135   9.045 -1.3546  1.2802  0.9480
  833MOL0    Cl14861  11.489   0.005   9.120 -0.3851  0.4334  0.4485
  833MOL0     C14862  10.633   0.374   8.406  0.4979 -0.5865 -0.1802
  833MOL0     C14863  10.537   0.364   8.296 -0.2394  0.3026 -0.1616
  833MOL0     O14864  10.543   0.480   8.000  0.1462 -0.5344  0.6863
  833MOL0     C14865  10.325   0.248   7.859 -0.4785 -0.0468  0.2552
  833MOL0     C14866  10.231   0.218   7.765 -0.2244 -0.4653 -0.2305
  833MOL0     N14867   9.720   0.567   7.346 -0.1351 -0.2980 -0.2069
  833MOL0     N14868   9.640   0.635   7.273 -0.1017 -0.8036 -0.9824
  833MOL0     C14869   8.545   0.682   7.723 -0.4518  0.5033  0.1239
  833MOL0     C14870   8.417   0.690   7.790  0.2037  0.0135  0.3334
  833MOL0     C14871   8.097   0.680   8.106  0.1531  0.8374 -0.5144
  833MOL0     C14872   7.992   0.631   8.029  0.5097  0.2205  0.8037
  833MOL0     C14873   7.856   0.629   8.070 -0.2040 -0.3725 -0.6275
  833MOL0     C14874   7.814   0.680   8.197  0.3002  0.9578  0.2175
  833MOL0     O14875   7.679   0.677   8.225 -0.0490 -0.0991 -0.3985
  833MOL0     C14876   7.636   0.749   8.336  0.4259 -0.8897  0.0969
  833MOL0     C14877   7.659   0.666   8.458 -0.0772 -0.7451  0.0668
  833MOL0     C14878   7.660   0.745   8.594 -0.1226 -0.1819 -1.1402
  833MOL0     C14879   7.540   0.847   8.620 -0.4147  0.2352 -0.7639
  833MOL0     C14880   7.431   0.762   8.684  0.5961 -0.4438  0.8775
  833MOL0     C14881   7.352   0.675   8.713 -0.0028  1.0289 -1.5985
  833MOL0     C14882   7.924   0.741   8.265  0.2463 -1.1087 -0.7030
  833MOL0     C14883   8.054   0.752   8.225 -0.5343 -0.1112 -0.2185
  833MOL0     C14884   8.143   0.836   8.313 -0.5226 -0.4545  0.0062
  833MOL0     H14885   8.437   0.429   8.001  2.4507 -2.5110 -1.3902
  833MOL0     H14886   8.657   0.424   7.921 -0.2193 -0.5014 -1.7841
  833MOL0     H14887   8.766   0.575   7.532  0.5476 -1.9762 -1.5241
  833MOL0     H14888   8.731   0.417   7.614  2.7336 -1.6428  1.2317
  833MOL0     H14889   8.993   0.567   7.659 -2.2988  1.5813 -0.2110
  833MOL0     H14890   8.948   0.403   7.691  0.2430  2.8851  3.2793
  833MOL0     H14891   8.906   0.395   7.420 -0.1986  0.7778 -0.6473
  833MOL0     H14892   8.983   0.546   7.426  0.8694 -0.6528 -1.5973
  833MOL0     H14893   9.181   0.393   7.543 -1.4306  1.7749  1.9340
  833MOL0     H14894   9.079   0.261   7.483 -5.5576  1.8187  3.1504
  833MOL0     H14895   9.091   0.364   7.252 -0.0653  2.0411 -0.5077
  833MOL0     H14896   9.243   0.300   7.322 -0.9847 -1.2466 -1.1696
  833MOL0     H14897   9.183   0.607   7.310  0.0767 -0.1340  2.4503
  833MOL0     H14898   9.322   0.523   7.378 -0.0844  0.6149  0.0736
  833MOL0     H14899   9.235   0.571   7.093 -2.3922 -2.2973  0.4216
  833MOL0     H14900   9.329   0.429   7.132  1.3520  0.3009  1.4400
  833MOL0     H14901   9.457   0.608   7.046  2.2853  0.3832  0.0196
  833MOL0     H14902   9.417   0.716   7.187 -3.0718 -1.2854  1.1144
  833MOL0     H14903   9.474   0.359   7.282 -3.1006  2.6540  1.8734
  833MOL0     H14904   9.604   0.268   7.486 -0.2666 -0.2583 -0.5642
  833MOL0     H14905   9.703   0.382   7.578 -1.4224  1.3212 -0.1418
  833MOL0     H14906   9.827   0.176   7.513  0.1278  0.6887 -0.1766
  833MOL0     H14907   9.785   0.198   7.346  0.7530 -1.1422  0.8145
  833MOL0     H14908  10.007   0.255   7.366 -2.4497 -1.3158 -1.7087
  833MOL0     H14909   9.917   0.401   7.329  2.7496 -1.0864 -2.1936
  833MOL0     H14910  10.114   0.435   7.500  0.7646  1.3254  2.3695
  833MOL0     H14911   9.963   0.467   7.580  1.3138  3.1058 -2.0328
  833MOL0     H14912  10.129   0.531   7.703 -1.0563 -0.6967  1.6694
  833MOL0     H14913  10.255   0.696   7.784 -1.0646 -0.0379 -0.1090
  833MOL0     H14914  10.411   0.654   7.869 -0.1453 -0.0969  1.3865
  833MOL0     H14915  10.250   0.659   7.945 -1.3440  0.2472 -0.7224
  833MOL0     H14916  10.714   0.196   8.081  1.2891 -1.4137  1.6950
  833MOL0     H14917  10.884   0.186   8.267 -0.8528  0.0593  1.4298
  833MOL0     H14918  10.794   0.395   8.661 -2.3854  0.4545 -2.0507
  833MOL0     H14919  10.778   0.217   8.637 -1.2666  1.6825  1.3564
  833MOL0     H14920  11.040   0.359   8.693 -0.9684  0.7900 -0.4239
  833MOL0     H14921  10.954   0.251   8.800 -2.5407  2.3745 -0.2820
  833MOL0     H14922  11.055   0.166   8.522 -1.9125  1.6902 -0.2626
  833MOL0     H14923  10.988   0.053   8.635 -0.2941  0.0521 -0.5538
  833MOL0     H14924  11.235   0.216   8.710 -0.9682  0.5152 -0.8168
  833MOL0     H14925  11.248   0.070   8.611  0.6697 -0.0391 -0.3137
  833MOL0     H14926  11.087   0.073   8.852 -0.4069  1.3300 -2.4441
  833MOL0     H14927  11.133  -0.067   8.768  0.5914 -1.3354 -0.3327
  833MOL0     H14928  11.313   0.108   8.944  2.2973  1.1592 -1.6548
  833MOL0     H14929  11.390   0.019   8.824  0.0718 -1.5302  1.0682
  833MOL0     H14930  11.280  -0.195   8.893  1.4547  0.8438 -1.1508
  833MOL0     H14931  11.205  -0.107   9.026  0.5285 -0.5261 -0.2399
  833MOL0     H14932  11.490  -0.188   8.985 -4.4461 -0.3197 -1.7750
  833MOL0     H14933  11.392  -0.207   9.125 -2.0071 -1.1541 -1.2849
  833MOL0     H14934  10.621   0.452   8.481  3.3478  1.2850 -1.4904
  833MOL0     H14935  10.449   0.419   8.327 -0.5051 -1.8793  3.6020
  833MOL0     H14936  10.377   0.159   7.893  0.3382  0.5996  0.7314
  833MOL0     H14937  10.216   0.113   7.742 -0.3545 -1.1597  2.6203
  833MOL0     H14938   8.570   0.748   7.641 -0.7263 -1.9592 -2.0608
  833MOL0     H14939   8.338   0.760   7.764 -0.1128  0.0555  1.3838
  833MOL0     H14940   8.008   0.588   7.931 -2.3782 -0.8698  0.7120
  833MOL0     H14941   7.776   0.602   8.001  1.4255  1.4705 -3.4625
  833MOL0     H14942   7.682   0.848   8.350 -0.9210 -0.2751  0.4029
  833MOL0     H14943   7.531   0.767   8.312  1.7581  1.2481 -5.8432
  833MOL0     H14944   7.748   0.602   8.463  2.0475  1.9307 -1.0159
  833MOL0     H14945   7.572   0.599   8.463  0.0832 -1.1237 -1.5653
  833MOL0     H14946   7.679   0.684   8.683 -0.3089  0.5273 -0.6019
  833MOL0     H14947   7.747   0.812   8.592  0.4535 -0.9331 -1.3300
  833MOL0     H14948   7.509   0.891   8.524 -1.6919 -0.7079 -0.8218
  833MOL0     H14949   7.571   0.931   8.682  1.0738 -1.5104  0.9594
  833MOL0     H14950   7.280   0.600   8.737  1.7629  0.0891  1.4172
  833MOL0     H14951   7.903   0.775   8.366  3.4918 -2.6483  0.6011
  833MOL0     H14952   8.216   0.883   8.247 -0.1327 -2.7508 -1.3236
  833MOL0     H14953   8.090   0.917   8.363  1.0642  0.7825 -0.2255
  833MOL0     H14954   8.214   0.783   8.377 -0.0597  2.4051  2.0484
  834MOL0     O14955   7.288  10.617   9.942  0.8035  0.0109  0.4052
  834MOL0     C14956   7.311  10.687   9.847  0.2241  0.2516  0.3474
  834MOL0     O14957   7.240  10.704   9.739  0.8713  0.4660 -0.7623
  834MOL0     C14958   7.136  10.623   9.725  0.9788 -0.2677  0.4199
  834MOL0     C14959   7.008  10.681   9.701  0.4959 -0.7894  0.3593
  834MOL0     C14960   6.893  10.609   9.653 -0.9084  0.9184  0.2558
  834MOL0     C14961   6.911  10.464   9.638  0.8162 -1.1225  0.1542
  834MOL0     O14962   6.809  10.380   9.601  0.5978 -0.3670  0.1656
  834MOL0     C14963   6.674  10.429   9.584 -0.3621  0.1970 -0.2671
  834MOL0     C14964   6.580  10.323   9.525 -0.1593  0.0495 -0.2399
  834MOL0     C14965   6.451  10.385   9.478 -0.2173 -0.0389 -0.6409
  834MOL0     C14966   6.359  10.275   9.422 -0.6200 -0.3413  0.5406
  834MOL0     C14967   6.223  10.339   9.382  0.8560 -0.6882  0.5918
  834MOL0     C14968   6.126  10.356   9.497 -0.0140  0.1188 -0.7719
  834MOL0     C14969   6.024  10.456   9.464  0.7096  0.1560  0.0049
  834MOL0     C14970   5.898  10.404   9.395  0.8941 -0.2506  0.4029
  834MOL0     N14971   5.821  10.516   9.345  0.1965 -0.2654 -0.0353
  834MOL0     C14972   5.867  10.595   9.235  1.1664  0.7524 -0.1899
  834MOL0     C14973   5.765  10.678   9.222 -0.2073 -0.3218 -0.0863
  834MOL0     C14974   5.759  10.797   9.130 -0.2403  0.4110  0.1520
  834MOL0     C14975   5.652  10.786   9.022  0.0139 -0.3913  0.0669
  834MOL0     C14976   5.688  10.838   8.881  0.1842  0.4909 -0.6764
  834MOL0     C14977   5.560  10.842   8.794 -0.6857  0.7074  0.5378
  834MOL0     O14978   5.603  10.871   8.655  0.0480  0.2392  0.4992
  834MOL0     C14979   5.516  10.866   8.544  1.2263  0.2650  0.1990
  834MOL0     C14980   5.550  10.920   8.420  0.5692  0.1846  1.2322
  834MOL0     C14981   5.459  10.921   8.303 -0.4601  0.1330 -0.1421
  834MOL0     C14982   5.519  10.965   8.168  0.0504  0.5436  0.4422
  834MOL0     C14983   5.335  10.861   8.317 -0.6320  0.1671  0.1857
  834MOL0     C14984   5.233  10.862   8.204 -0.1632 -0.2304  0.4786
  834MOL0     O14985   5.261  10.896   8.077 -0.3735  0.2646 -0.2231
  834MOL0     C14986   5.185  10.849   7.967 -0.4693  0.7975 -0.3091
  834MOL0     C14987   5.049  10.864   7.959 -0.6550 -1.4941  0.0732
  834MOL0     C14988   4.982  10.814   7.850  0.0177  0.3646 -0.2801
  834MOL0     C14989   5.054  10.755   7.741 -0.4562 -0.4749 -0.0827
  834MOL0     O14990   4.982  10.726   7.629  0.1201  0.7522 -0.2293
  834MOL0     C14991   5.034  10.659   7.516 -0.7993  0.8225 -0.1178
  834MOL0     C14992   5.034  10.506   7.542 -0.6504 -0.0599 -0.5677
  834MOL0     C14993   4.898  10.431   7.535 -0.1359 -0.3152 -0.9791
  834MOL0     C14994   4.788  10.490   7.631 -0.0106  0.2932  0.2409
  834MOL0     C14995   4.663  10.399   7.617  0.6467  0.1419 -0.4316
  834MOL0     C14996   4.546  10.471   7.688  0.4387 -0.4857 -0.2304
  834MOL0     C14997   4.556  10.501   7.836 -0.2246  0.6895  0.2248
  834MOL0     C14998   4.518  10.651   7.872 -0.7985 -0.6836 -0.2275
  834MOL0    Cl14999   4.362  10.705   7.795  0.0699 -0.3365  0.3934
  834MOL0     C15000   5.196  10.738   7.747  0.9095  0.0396 -0.1585
  834MOL0     C15001   5.257  10.784   7.864  0.5619 -0.9536  0.4677
  834MOL0     O15002   5.119  10.837   8.243  0.1973 -0.6603  0.2943
  834MOL0     C15003   5.295  10.809   8.448  0.6929 -0.0086 -0.6318
  834MOL0     C15004   5.382  10.812   8.559 -0.1823 -0.1603  0.1376
  834MOL0     N15005   5.673  10.658   9.324  0.0968 -0.0459 -0.1560
  834MOL0     N15006   5.705  10.553   9.393  0.8545  0.2643 -0.9710
  834MOL0     C15007   7.041  10.414   9.659  0.1986  0.0673 -0.6424
  834MOL0     C15008   7.154  10.495   9.687  0.0800  0.1222 -0.2811
  834MOL0     C15009   7.431  10.772   9.871 -0.4379 -0.3524 -0.1755
  834MOL0     C15010   7.426  10.865   9.985  0.1823  0.4927  0.6411
  834MOL0     C15011   7.535  10.942  10.018  0.3141  0.0878  0.4904
  834MOL0     C15012   7.653  10.937   9.940 -0.4275  0.0077  0.2849
  834MOL0     O15013   7.744  11.031   9.975 -0.3823  0.1252  0.1562
  834MOL0     C15014   7.865  11.048   9.897 -0.0722  0.3808 -0.4996
  834MOL0     C15015   7.941  11.152   9.976 -0.6239 -0.0431 -0.7232
  834MOL0     C15016   7.875  11.289   9.986 -0.1375  0.9326  0.5815
  834MOL0     C15017   7.864  11.331  10.125 -0.4596 -0.6136  1.2359
  834MOL0     C15018   7.807  11.245  10.228 -0.7332 -0.0620 -0.9846
  834MOL0     C15019   7.747  11.167  10.302  0.0087 -0.5782  0.6488
  834MOL0     C15020   7.656  10.844   9.828 -0.9665  0.1980 -0.5690
  834MOL0     C15021   7.549  10.753   9.802 -0.9445  0.1355  0.5255
  834MOL0     C15022   7.551  10.652   9.693  0.1292 -0.1086 -0.8168
  834MOL0     H15023   6.986  10.786   9.717  1.7770 -0.7145  1.8014
  834MOL0     H15024   6.797  10.653   9.628 -1.1726  0.1286 -0.1473
  834MOL0     H15025   6.679  10.505   9.506 -0.9741  0.3764 -0.1373
  834MOL0     H15026   6.626  10.474   9.671 -3.1654 -1.7202 -0.6887
  834MOL0     H15027   6.628  10.283   9.436 -1.9047 -1.7421 -0.4450
  834MOL0     H15028   6.548  10.252   9.602 -1.9950  3.2435  2.2201
  834MOL0     H15029   6.397  10.438   9.557 -0.6230  0.7535 -1.4420
  834MOL0     H15030   6.471  10.459   9.401 -1.1682  0.7213 -0.1822
  834MOL0     H15031   6.405  10.240   9.329 -0.8287 -0.3793  0.4518
  834MOL0     H15032   6.350  10.187   9.488  0.3752 -3.2130 -2.8332
  834MOL0     H15033   6.166  10.277   9.312  0.5171 -1.4896  1.5587
  834MOL0     H15034   6.240  10.436   9.335 -2.9592 -0.5998 -0.9510
  834MOL0     H15035   6.091  10.256   9.520 -3.8579  1.3136 -0.7894
  834MOL0     H15036   6.183  10.393   9.583 -1.7891 -0.6234  0.7861
  834MOL0     H15037   6.061  10.545   9.412 -0.1975  1.0978  0.9186
  834MOL0     H15038   5.986  10.498   9.558  0.5146  0.5077 -0.2289
  834MOL0     H15039   5.927  10.338   9.312 -1.6096 -0.2560 -0.5476
  834MOL0     H15040   5.835  10.340   9.457  1.1837 -0.5092  0.4296
  834MOL0     H15041   5.957  10.600   9.174  1.9192  3.9859  0.9474
  834MOL0     H15042   5.856  10.813   9.084 -0.7511 -0.9387 -1.5089
  834MOL0     H15043   5.731  10.885   9.188 -1.4697  1.0001 -1.2394
  834MOL0     H15044   5.618  10.682   9.023  0.7708 -0.6832 -1.5074
  834MOL0     H15045   5.577  10.859   9.055  0.9586  1.3693 -1.4723
  834MOL0     H15046   5.734  10.937   8.891  0.2421  0.4283 -0.3195
  834MOL0     H15047   5.754  10.766   8.832  1.3191 -0.4994  2.1463
  834MOL0     H15048   5.509  10.745   8.798  1.4158 -0.4329  2.1139
  834MOL0     H15049   5.490  10.919   8.828 -4.1393 -1.4893 -1.0624
  834MOL0     H15050   5.649  10.959   8.399  0.6319 -0.0226  1.1462
  834MOL0     H15051   5.468  11.059   8.144 -2.8508 -0.2261  2.9064
  834MOL0     H15052   5.520  10.893   8.086  2.3907  1.2683 -0.2351
  834MOL0     H15053   5.624  10.978   8.194  0.0620 -2.2644  2.1697
  834MOL0     H15054   4.999  10.931   8.029 -2.6527 -0.9624 -1.7280
  834MOL0     H15055   4.874  10.818   7.844  0.0716  0.3635 -1.6038
  834MOL0     H15056   4.961  10.676   7.437 -1.6842  4.4813  1.3178
  834MOL0     H15057   5.131  10.701   7.488 -0.0563  0.1111  1.2586
  834MOL0     H15058   5.087  10.476   7.451 -0.8947  0.1075 -0.7678
  834MOL0     H15059   5.105  10.486   7.622  0.2893  1.2903 -1.0202
  834MOL0     H15060   4.925  10.334   7.580  0.5797 -0.3970 -1.5615
  834MOL0     H15061   4.873  10.436   7.428  1.0691  2.7616 -1.2092
  834MOL0     H15062   4.766  10.595   7.609 -1.9013 -0.1286 -0.0638
  834MOL0     H15063   4.819  10.480   7.736 -2.7933 -0.1975  1.0823
  834MOL0     H15064   4.642  10.388   7.510 -4.6077  0.2377  0.3393
  834MOL0     H15065   4.671  10.297   7.655 -0.9038 -0.7410 -2.3115
  834MOL0     H15066   4.454  10.414   7.673 -1.0113  1.4331  0.8824
  834MOL0     H15067   4.538  10.569   7.641 -1.4567 -0.1962  0.6211
  834MOL0     H15068   4.651  10.471   7.883  1.2284  2.8042 -1.1450
  834MOL0     H15069   4.472  10.441   7.872  1.3325  0.2646  3.4883
  834MOL0     H15070   4.603  10.715   7.848 -1.2913  0.2803  0.5501
  834MOL0     H15071   4.496  10.664   7.978  0.4785  1.3868 -0.1687
  834MOL0     H15072   5.262  10.691   7.674 -0.3862 -1.1681 -0.5949
  834MOL0     H15073   5.365  10.777   7.873  0.5469 -0.1972  1.5159
  834MOL0     H15074   5.193  10.776   8.469  0.4244  1.7585  1.1744
  834MOL0     H15075   5.350  10.762   8.650  0.4902 -3.4183 -1.2784
  834MOL0     H15076   7.054  10.306   9.655  0.9014  0.0907  0.5831
  834MOL0     H15077   7.248  10.441   9.687 -0.5077 -1.0018 -2.0093
  834MOL0     H15078   7.335  10.851  10.044 -0.6103  0.8435 -0.4570
  834MOL0     H15079   7.534  11.004  10.108 -0.4494  0.6520  0.1153
  834MOL0     H15080   7.918  10.952   9.890 -3.8776 -1.7876 -3.6332
  834MOL0     H15081   7.840  11.084   9.797 -0.8641  0.9192 -0.1213
  834MOL0     H15082   8.044  11.158   9.940  1.4231 -2.3289  3.9002
  834MOL0     H15083   7.952  11.119  10.080 -0.1292  1.0579 -0.4031
  834MOL0     H15084   7.906  11.363   9.912 -1.9866  1.6699  0.5112
  834MOL0     H15085   7.771  11.273   9.957  0.6915  0.2319 -2.3717
  834MOL0     H15086   7.817  11.430  10.122  2.3105  0.7974 -0.4821
  834MOL0     H15087   7.965  11.354  10.160 -1.4926  1.9388  2.8547
  834MOL0     H15088   7.706  11.104  10.379  0.4481  1.2368  2.4629
  834MOL0     H15089   7.739  10.827   9.761  0.5807  0.6258  1.1608
  834MOL0     H15090   7.554  10.555   9.745  3.0866 -0.1210 -0.8508
  834MOL0     H15091   7.471  10.647   9.619  0.2868 -1.7271 -0.9242
  834MOL0     H15092   7.635  10.646   9.624  1.7584  0.7797  1.0104
  835MOL0     O15093  10.294  11.388   5.408 -0.1203 -0.1310  0.2039
  835MOL0     C15094  10.284  11.352   5.289 -0.4414 -0.2916  0.0938
  835MOL0     O15095  10.378  11.283   5.221  0.5220 -0.7210 -0.1136
  835MOL0     C15096  10.507  11.276   5.261  0.1454 -1.6735 -0.5761
  835MOL0     C15097  10.586  11.182   5.198 -0.6240 -0.4840 -1.1346
  835MOL0     C15098  10.720  11.163   5.234 -0.6448  0.1558  0.3828
  835MOL0     C15099  10.777  11.235   5.342  1.1326  0.3119 -0.0158
  835MOL0     O15100  10.902  11.218   5.396  0.3717 -0.6829  1.3250
  835MOL0     C15101  10.998  11.154   5.320  0.1200  0.4100 -0.4950
  835MOL0     C15102  11.131  11.161   5.391  0.2199 -0.7939  0.0692
  835MOL0     C15103  11.194  11.292   5.354 -0.0312 -0.2568 -0.1470
  835MOL0     C15104  11.337  11.312   5.416 -0.4483 -1.1830  0.0433
  835MOL0     C15105  11.399  11.448   5.363 -0.3173  0.3714 -0.4963
  835MOL0     C15106  11.338  11.580   5.427 -0.4235  0.0159 -0.4656
  835MOL0     C15107  11.221  11.637   5.347 -0.4730 -0.6087 -0.3576
  835MOL0     C15108  11.103  11.670   5.433  0.0194  0.1456  1.0695
  835MOL0     N15109  10.989  11.717   5.345  0.4759 -0.2807  0.6461
  835MOL0     C15110  10.885  11.640   5.326  0.0331  0.1606  0.1818
  835MOL0     C15111  10.831  11.688   5.210 -0.0649  0.4755 -0.7628
  835MOL0     C15112  10.729  11.617   5.134  0.3742  0.0465 -0.4783
  835MOL0     C15113  10.614  11.703   5.103  0.0314 -0.8523 -0.3301
  835MOL0     C15114  10.503  11.627   5.029  0.0913 -0.3727 -0.2542
  835MOL0     C15115  10.395  11.717   4.959 -0.0168  0.6439  0.2530
  835MOL0     O15116  10.313  11.790   5.049 -0.1884  0.1665  0.1394
  835MOL0     C15117  10.183  11.822   5.012 -0.2796 -0.0485 -0.3467
  835MOL0     C15118  10.101  11.875   5.108  0.0833  0.1574 -0.1477
  835MOL0     C15119   9.980  11.934   5.069  0.6695 -0.3388 -0.2721
  835MOL0     C15120   9.909  11.994   5.187 -1.3475 -0.3697  0.6582
  835MOL0     C15121   9.930  11.912   4.945  0.2932  0.4562  0.9036
  835MOL0     C15122   9.801  11.966   4.900 -0.1957 -0.1297  0.5049
  835MOL0     O15123   9.784  12.015   4.771 -0.6911 -0.2010 -0.2411
  835MOL0     C15124   9.665  12.079   4.758 -0.9249  0.5929  0.6796
  835MOL0     C15125   9.653  12.206   4.810  0.4014 -0.7823  0.2006
  835MOL0     C15126   9.525  12.273   4.798  0.2971 -0.6248  0.8202
  835MOL0     C15127   9.422  12.222   4.721  0.5915 -0.1336 -0.1934
  835MOL0     O15128   9.300  12.280   4.723  0.6897 -0.4426  0.0244
  835MOL0     C15129   9.193  12.244   4.624 -0.2254  0.5820  0.2481
  835MOL0     C15130   9.082  12.335   4.618  0.2168 -0.7559 -0.4142
  835MOL0     C15131   8.996  12.316   4.488 -0.0367 -0.0571 -0.4559
  835MOL0     C15132   8.868  12.400   4.478 -0.8948  0.1281 -0.2675
  835MOL0     C15133   8.797  12.370   4.349  0.2418 -0.1159  0.1317
  835MOL0     C15134   8.697  12.484   4.328  0.9552 -0.7081 -0.7523
  835MOL0     C15135   8.606  12.482   4.206 -0.0865  0.0139 -0.0559
  835MOL0     C15136   8.501  12.379   4.210 -0.1197 -0.1019 -0.3757
  835MOL0    Cl15137   8.554  12.207   4.169 -0.5514 -0.3735 -0.5525
  835MOL0     C15138   9.443  12.096   4.669 -0.8046  0.9327  0.0566
  835MOL0     C15139   9.563  12.024   4.687 -0.1942 -0.0989  0.2860
  835MOL0     O15140   9.714  11.954   4.981 -0.4776 -0.7819  0.3731
  835MOL0     C15141  10.002  11.832   4.851  0.2659 -0.3444  0.1385
  835MOL0     C15142  10.127  11.800   4.886 -0.3039 -0.1126 -0.3991
  835MOL0     N15143  10.899  11.794   5.165 -0.0329  0.6943  0.8259
  835MOL0     N15144  10.995  11.808   5.245  0.4226 -0.2961 -0.2673
  835MOL0     C15145  10.695  11.326   5.403  0.0074 -1.5840 -0.0219
  835MOL0     C15146  10.572  11.354   5.361 -0.3281 -0.3429  0.6506
  835MOL0     C15147  10.171  11.398   5.201  0.4467 -0.3086 -0.2048
  835MOL0     C15148  10.186  11.400   5.064  0.2825  0.1532  0.0291
  835MOL0     C15149  10.092  11.460   4.988 -0.6641  0.2138  0.3034
  835MOL0     C15150   9.978  11.509   5.038  0.3235 -0.3935 -0.0859
  835MOL0     O15151   9.885  11.557   4.949 -0.4618  0.1746  0.1772
  835MOL0     C15152   9.746  11.563   4.982 -0.6939  0.8315  0.3845
  835MOL0     C15153   9.661  11.606   4.847 -0.2053 -0.1779 -0.8938
  835MOL0     C15154   9.510  11.631   4.869 -0.0632  0.6076  0.2336
  835MOL0     C15155   9.421  11.506   4.878 -0.2889  0.8136 -0.0666
  835MOL0     C15156   9.452  11.406   4.986  0.0883 -0.5778 -0.2001
  835MOL0     C15157   9.476  11.327   5.067  0.7133  0.2189 -0.9213
  835MOL0     C15158   9.948  11.499   5.177  0.7210 -0.2727  0.6641
  835MOL0     C15159  10.043  11.440   5.262  0.0607  0.2066 -0.7276
  835MOL0     C15160  10.020  11.454   5.403 -0.2726 -0.0273 -1.0330
  835MOL0     H15161  10.547  11.120   5.117 -0.3302  0.6868 -2.2109
  835MOL0     H15162  10.773  11.086   5.179 -2.7912 -1.4722  0.4068
  835MOL0     H15163  10.993  11.193   5.218  1.3798 -0.0229 -0.7488
  835MOL0     H15164  10.972  11.047   5.321 -5.8912  1.5282  0.1195
  835MOL0     H15165  11.110  11.154   5.498  1.8716 -2.3975  0.3466
  835MOL0     H15166  11.196  11.077   5.363  2.5065 -0.0018  2.5759
  835MOL0     H15167  11.209  11.295   5.246 -1.6958 -0.1284 -0.4028
  835MOL0     H15168  11.115  11.364   5.380 -2.0901 -1.0894 -3.4142
  835MOL0     H15169  11.315  11.338   5.520 -0.2063  2.2361 -0.6351
  835MOL0     H15170  11.394  11.219   5.407  2.9693  0.8571 -1.7373
  835MOL0     H15171  11.375  11.448   5.257  1.1624 -1.6642 -0.8977
  835MOL0     H15172  11.507  11.447   5.379 -0.5237  1.1271  1.1015
  835MOL0     H15173  11.297  11.552   5.525  1.6851  2.1403  1.1594
  835MOL0     H15174  11.414  11.657   5.441  0.9269 -1.5962  1.8151
  835MOL0     H15175  11.184  11.577   5.264 -1.9057  1.4613 -1.2855
  835MOL0     H15176  11.262  11.730   5.306  1.2273 -0.5434  1.3256
  835MOL0     H15177  11.076  11.573   5.475 -0.8592 -0.8042 -1.4526
  835MOL0     H15178  11.134  11.748   5.502 -2.0121  2.6555 -0.6608
  835MOL0     H15179  10.862  11.548   5.380  0.6387  0.7995  1.5709
  835MOL0     H15180  10.710  11.520   5.181  2.8510 -0.7558 -1.0015
  835MOL0     H15181  10.776  11.577   5.044  1.3300 -0.8269  0.3716
  835MOL0     H15182  10.585  11.751   5.197 -2.4718 -2.0473 -0.4009
  835MOL0     H15183  10.649  11.781   5.036  0.6465 -0.2277  0.6882
  835MOL0     H15184  10.547  11.573   4.945  2.6891  0.4786  0.4554
  835MOL0     H15185  10.448  11.552   5.086 -0.6763  1.1517  1.0793
  835MOL0     H15186  10.454  11.788   4.900  2.3739 -1.8049 -0.5584
  835MOL0     H15187  10.330  11.656   4.894 -1.1330  1.1117  0.9117
  835MOL0     H15188  10.138  11.901   5.206  1.8319  3.3032 -1.4822
  835MOL0     H15189   9.824  12.056   5.157 -1.0184 -1.4568 -2.9535
  835MOL0     H15190   9.971  12.049   5.258 -0.7126 -0.3639  0.1071
  835MOL0     H15191   9.886  11.904   5.245 -1.9094 -0.0520  0.9351
  835MOL0     H15192   9.736  12.233   4.875 -1.4343  0.8262  2.0021
  835MOL0     H15193   9.508  12.371   4.842  0.3028 -0.4572  0.4488
  835MOL0     H15194   9.238  12.246   4.525  0.5433  1.0958  0.5938
  835MOL0     H15195   9.152  12.147   4.653 -0.7696  0.6775 -0.1994
  835MOL0     H15196   9.022  12.339   4.709  1.8190  0.5294  0.6458
  835MOL0     H15197   9.114  12.439   4.617  0.6164 -0.8820 -1.0947
  835MOL0     H15198   8.970  12.210   4.478  0.5647 -0.2042 -0.5061
  835MOL0     H15199   9.062  12.349   4.407 -1.3423 -0.1967 -1.6252
  835MOL0     H15200   8.906  12.502   4.469  4.2389 -1.2886  1.8145
  835MOL0     H15201   8.810  12.386   4.570 -1.5386 -0.2750 -0.7178
  835MOL0     H15202   8.869  12.374   4.266 -1.1347 -2.6612 -1.2962
  835MOL0     H15203   8.757  12.268   4.343 -0.2331 -0.0282  1.4284
  835MOL0     H15204   8.745  12.582   4.327 -0.7001  0.1699  0.1188
  835MOL0     H15205   8.634  12.517   4.412  1.1621  2.4015 -1.6851
  835MOL0     H15206   8.680  12.462   4.127 -1.8118 -0.9269 -1.5125
  835MOL0     H15207   8.561  12.580   4.186 -0.1246  0.0107  0.0159
  835MOL0     H15208   8.417  12.403   4.144  0.3749  0.1949 -0.9108
  835MOL0     H15209   8.458  12.387   4.311  0.0589  2.6954 -0.4430
  835MOL0     H15210   9.362  12.037   4.627  0.6398  0.9170 -3.0028
  835MOL0     H15211   9.575  11.934   4.627  2.6758  1.5807 -1.9389
  835MOL0     H15212   9.961  11.812   4.752  1.9774 -3.1745 -0.0939
  835MOL0     H15213  10.185  11.753   4.808  0.2893  1.4797 -0.9695
  835MOL0     H15214  10.742  11.370   5.491 -1.3059 -2.2890  1.0564
  835MOL0     H15215  10.522  11.432   5.417 -0.1168 -1.0997  1.9361
  835MOL0     H15216  10.271  11.361   5.009  0.3026 -2.0343  1.5093
  835MOL0     H15217  10.110  11.465   4.881 -1.7498  0.7662  0.1382
  835MOL0     H15218   9.710  11.465   5.012  0.4316  0.2497 -0.1220
  835MOL0     H15219   9.733  11.644   5.055 -3.2430  2.0418 -1.2438
  835MOL0     H15220   9.690  11.541   4.764 -0.2330  1.0983 -1.9363
  835MOL0     H15221   9.686  11.711   4.828  1.2793 -0.2659  0.3383
  835MOL0     H15222   9.499  11.685   4.963 -0.5314 -1.0419  1.1569
  835MOL0     H15223   9.472  11.693   4.787 -1.5805 -2.6895 -1.7731
  835MOL0     H15224   9.411  11.449   4.785 -0.6823  1.1007 -0.2022
  835MOL0     H15225   9.321  11.545   4.897 -1.6037 -1.8323 -1.0319
  835MOL0     H15226   9.513  11.260   5.142 -1.8870 -3.6240 -2.7459
  835MOL0     H15227   9.853  11.532   5.218  0.6603 -2.4426  2.4509
  835MOL0     H15228   9.922  11.501   5.417 -0.1270  0.1666 -0.6536
  835MOL0     H15229  10.020  11.363   5.464  2.4320  1.9788  2.3486
  835MOL0     H15230  10.096  11.510   5.458 -0.1335 -1.4267  0.2695
  836MOL0     O15231   6.368   8.711   2.454 -0.2148 -0.2309 -0.5382
  836MOL0     C15232   6.306   8.692   2.350  0.0410 -0.6077 -0.5463
  836MOL0     O15233   6.317   8.765   2.234 -0.2973 -0.2886  0.2787
  836MOL0     C15234   6.433   8.817   2.190 -1.1397  0.3265  0.4064
  836MOL0     C15235   6.562   8.767   2.221  0.0061  0.3305  0.5461
  836MOL0     C15236   6.683   8.835   2.157  1.1921  0.0911 -0.8206
  836MOL0     C15237   6.665   8.925   2.055 -0.2547  0.2284 -0.6575
  836MOL0     O15238   6.764   8.980   1.982 -0.0075  0.0363 -1.0790
  836MOL0     C15239   6.890   9.004   2.055  0.8417  0.4955  0.1673
  836MOL0     C15240   6.988   9.056   1.948 -0.0080 -0.9022 -1.1088
  836MOL0     C15241   7.114   9.115   2.020 -0.5758  0.5681  0.3922
  836MOL0     C15242   7.102   9.250   2.089 -0.2003 -0.3249  0.5772
  836MOL0     C15243   7.222   9.283   2.187  0.4103  0.0496  0.7387
  836MOL0     C15244   7.208   9.424   2.245  0.5037  0.2167 -0.6551
  836MOL0     C15245   7.323   9.442   2.350  0.1310 -0.0427  0.0614
  836MOL0     C15246   7.473   9.438   2.300  0.4380  0.8264  0.1103
  836MOL0     N15247   7.484   9.540   2.189 -0.0799 -0.0421 -0.3825
  836MOL0     C15248   7.463   9.525   2.055 -0.0826  0.4731  0.5792
  836MOL0     C15249   7.490   9.638   1.991 -0.0767 -0.0812 -0.5820
  836MOL0     C15250   7.475   9.678   1.850 -0.9144  0.6216 -0.3079
  836MOL0     C15251   7.335   9.707   1.814 -0.6583 -0.0476 -0.3451
  836MOL0     C15252   7.321   9.795   1.682  0.7745 -0.9091 -0.7487
  836MOL0     C15253   7.172   9.826   1.654  0.8026 -1.1997  0.5778
  836MOL0     O15254   7.103   9.892   1.763 -0.3775  0.3836 -0.5730
  836MOL0     C15255   6.964   9.894   1.749 -0.6439 -0.3273 -0.8974
  836MOL0     C15256   6.882   9.817   1.836 -0.5226  0.0305  0.0477
  836MOL0     C15257   6.748   9.806   1.814  0.0967  0.7924  0.0063
  836MOL0     C15258   6.664   9.712   1.892 -0.4946 -0.9521 -0.2624
  836MOL0     C15259   6.693   9.885   1.717 -0.6694  0.5944 -0.8694
  836MOL0     C15260   6.547   9.884   1.685 -0.6038 -0.0354  0.2651
  836MOL0     O15261   6.485  10.007   1.677  0.0648 -0.0144  0.2341
  836MOL0     C15262   6.354  10.015   1.635  0.2942 -1.0599  0.1958
  836MOL0     C15263   6.293  10.141   1.665 -0.9323  0.6903 -0.0658
  836MOL0     C15264   6.161  10.175   1.622  0.1709  0.0110 -0.7217
  836MOL0     C15265   6.088  10.088   1.534  0.6127  0.2864  0.3026
  836MOL0     O15266   5.953  10.120   1.495 -0.5957  0.1413 -0.5182
  836MOL0     C15267   5.870  10.217   1.570 -0.4189  0.9951  0.2052
  836MOL0     C15268   5.862  10.334   1.472 -0.7207  0.8104  0.3619
  836MOL0     C15269   5.810  10.458   1.545 -0.1288  0.9855  0.4150
  836MOL0     C15270   5.912  10.507   1.645  0.1963 -0.2152 -0.6015
  836MOL0     C15271   5.915  10.666   1.655 -0.7845  0.1640  0.1139
  836MOL0     C15272   5.795  10.733   1.705  0.1606 -0.1197 -0.2665
  836MOL0     C15273   5.796  10.877   1.662 -0.5493  0.2945  0.3683
  836MOL0     C15274   5.668  10.946   1.695 -0.1783 -0.7313  0.0577
  836MOL0    Cl15275   5.556  10.945   1.556 -0.1162  0.0166 -0.6690
  836MOL0     C15276   6.150   9.967   1.493  0.0625 -0.2494  0.5990
  836MOL0     C15277   6.279   9.929   1.541 -0.3082  0.0370 -0.7271
  836MOL0     O15278   6.503   9.769   1.653 -0.7566  0.9325 -0.1498
  836MOL0     C15279   6.769   9.970   1.631  0.9793  0.5575  0.3089
  836MOL0     C15280   6.907   9.972   1.651  0.6963 -0.5241 -0.9227
  836MOL0     N15281   7.532   9.727   2.097 -0.4939 -0.0579 -0.3237
  836MOL0     N15282   7.518   9.669   2.208 -1.3129  0.2056  0.5516
  836MOL0     C15283   6.539   8.956   2.014  0.7254 -0.2359 -0.7053
  836MOL0     C15284   6.421   8.901   2.076 -0.2698 -0.3191  1.0278
  836MOL0     C15285   6.202   8.590   2.358 -0.1318  1.0825 -0.2594
  836MOL0     C15286   6.127   8.571   2.248  0.5332  0.2996  0.7470
  836MOL0     C15287   6.042   8.463   2.230  0.7661 -0.2073  0.1334
  836MOL0     C15288   6.012   8.373   2.325  0.3281  0.3725 -0.3677
  836MOL0     O15289   5.923   8.272   2.291  0.4712  0.0907 -0.3078
  836MOL0     C15290   5.886   8.175   2.389 -0.9685  0.3554  0.3453
  836MOL0     C15291   5.995   8.064   2.404 -0.0081  0.2173 -0.3121
  836MOL0     C15292   5.947   7.955   2.505  0.3187 -0.2640 -0.6480
  836MOL0     C15293   5.966   8.008   2.653 -0.2903 -0.5004  0.2127
  836MOL0     C15294   6.104   8.033   2.694 -0.5012  0.3213  0.1488
  836MOL0     C15295   6.214   8.067   2.739 -0.3986 -0.6973  1.0442
  836MOL0     C15296   6.081   8.395   2.444 -0.7255 -0.1904 -0.4998
  836MOL0     C15297   6.178   8.498   2.462 -1.3015 -0.4780  0.0824
  836MOL0     C15298   6.252   8.494   2.597  0.8038  0.5201  0.2512
  836MOL0     H15299   6.571   8.698   2.304  2.2564 -3.9467 -2.8542
  836MOL0     H15300   6.780   8.801   2.191  1.3394  0.6607 -0.6756
  836MOL0     H15301   6.931   8.916   2.104  0.5066 -0.6527 -1.4927
  836MOL0     H15302   6.868   9.083   2.126  0.5350  1.2926 -0.7888
  836MOL0     H15303   7.006   8.971   1.882 -2.0258 -2.0339 -0.3125
  836MOL0     H15304   6.936   9.126   1.882 -2.5236  1.2689  2.7438
  836MOL0     H15305   7.150   9.041   2.092 -0.2980  0.8276  0.5220
  836MOL0     H15306   7.193   9.123   1.944  0.4958 -0.3038  1.3782
  836MOL0     H15307   7.106   9.325   2.009  1.5121 -1.3093 -0.3311
  836MOL0     H15308   7.006   9.258   2.140  0.0064 -1.5385  1.2101
  836MOL0     H15309   7.320   9.271   2.138 -1.0263 -1.4726 -2.0069
  836MOL0     H15310   7.215   9.212   2.270  1.8538 -1.1982 -0.1410
  836MOL0     H15311   7.198   9.490   2.159  0.9492 -2.5183 -2.9817
  836MOL0     H15312   7.117   9.426   2.305  2.4689  0.4956  2.5389
  836MOL0     H15313   7.323   9.359   2.421  1.0154 -0.6484 -0.6238
  836MOL0     H15314   7.295   9.532   2.405 -4.7153 -1.0525 -0.2863
  836MOL0     H15315   7.540   9.464   2.383 -0.5198 -0.5563  1.3773
  836MOL0     H15316   7.494   9.342   2.252  1.0930  2.2965 -2.7328
  836MOL0     H15317   7.432   9.439   1.996  1.2711 -0.0725  0.6217
  836MOL0     H15318   7.509   9.591   1.792 -0.7526  0.4216  0.0833
  836MOL0     H15319   7.545   9.758   1.827 -0.4218  0.3995  0.3880
  836MOL0     H15320   7.292   9.612   1.783  0.9084  0.2182 -3.8111
  836MOL0     H15321   7.280   9.738   1.903  1.0545  0.6132  0.5232
  836MOL0     H15322   7.369   9.893   1.695 -0.1472 -0.6857  1.3922
  836MOL0     H15323   7.358   9.748   1.590 -1.6200  2.6754 -3.8789
  836MOL0     H15324   7.159   9.892   1.568 -0.3313 -1.1827  0.7482
  836MOL0     H15325   7.126   9.733   1.618  0.6764 -0.8636 -0.1570
  836MOL0     H15326   6.931   9.750   1.906  1.7766 -1.2550 -2.5838
  836MOL0     H15327   6.581   9.779   1.914  0.5154  1.2568 -2.6585
  836MOL0     H15328   6.713   9.680   1.984 -1.4289 -1.4054  0.0995
  836MOL0     H15329   6.645   9.616   1.843  0.5717 -0.7084 -1.1996
  836MOL0     H15330   6.350  10.209   1.728  0.6309  0.1851 -0.8958
  836MOL0     H15331   6.110  10.257   1.672 -0.1281 -0.9236  0.5754
  836MOL0     H15332   5.770  10.176   1.586  0.1638 -1.4372 -1.6212
  836MOL0     H15333   5.914  10.232   1.669  0.8333  1.1856 -0.3557
  836MOL0     H15334   5.960  10.350   1.425 -0.2278 -1.3782  0.5390
  836MOL0     H15335   5.795  10.296   1.394  3.9387 -1.4150 -3.0164
  836MOL0     H15336   5.715  10.430   1.591 -1.3523  1.0008 -1.9494
  836MOL0     H15337   5.770  10.532   1.475 -0.2538  0.6924  0.1738
  836MOL0     H15338   6.016  10.486   1.623  0.3175  1.0865 -1.3939
  836MOL0     H15339   5.900  10.456   1.741 -3.0038  2.1533  0.4350
  836MOL0     H15340   5.997  10.692   1.722  0.2131 -1.6638 -0.3343
  836MOL0     H15341   5.943  10.704   1.556 -0.5674  2.4899  1.0090
  836MOL0     H15342   5.781  10.724   1.813 -2.9480  2.6640 -0.2661
  836MOL0     H15343   5.712  10.681   1.656 -1.3564  0.5963  1.4318
  836MOL0     H15344   5.817  10.881   1.555  0.3345 -2.5544  0.3415
  836MOL0     H15345   5.876  10.936   1.710  0.3640 -0.5194 -0.1203
  836MOL0     H15346   5.668  11.051   1.728 -1.2949 -1.0032  0.9802
  836MOL0     H15347   5.624  10.903   1.785 -2.5729 -0.8607 -1.0837
  836MOL0     H15348   6.104   9.902   1.419 -1.5417  2.4673 -0.9950
  836MOL0     H15349   6.324   9.835   1.511  2.8665  0.7941  1.2152
  836MOL0     H15350   6.743  10.037   1.550  3.4456 -0.1983 -1.2080
  836MOL0     H15351   6.973  10.044   1.605 -0.9366  0.6529 -1.5287
  836MOL0     H15352   6.545   9.032   1.937  0.1295  1.2193  0.6256
  836MOL0     H15353   6.329   8.930   2.026  0.8352  0.9372 -0.3631
  836MOL0     H15354   6.124   8.633   2.159  2.7343 -0.1063  0.3245
  836MOL0     H15355   5.984   8.464   2.138  2.6169 -2.6195 -1.1587
  836MOL0     H15356   5.861   8.217   2.486 -1.3073 -0.9278  0.8290
  836MOL0     H15357   5.798   8.125   2.347 -1.0935 -1.4339  2.5475
  836MOL0     H15358   6.093   8.098   2.439 -0.2730  0.6665  0.0137
  836MOL0     H15359   6.008   8.022   2.304  1.4269 -0.2629  0.0553
  836MOL0     H15360   5.842   7.928   2.496  0.3960 -1.1705  0.9235
  836MOL0     H15361   6.004   7.863   2.492  0.6047 -0.2585  0.5219
  836MOL0     H15362   5.938   7.928   2.721 -2.3960 -0.1167 -0.1539
  836MOL0     H15363   5.907   8.095   2.682  0.1486 -0.2673  0.4160
  836MOL0     H15364   6.310   8.103   2.770  1.5012 -3.0499 -1.5376
  836MOL0     H15365   6.067   8.318   2.519  1.0224  0.9316  1.0751
  836MOL0     H15366   6.189   8.563   2.654  1.3490 -0.9600  2.8150
  836MOL0     H15367   6.244   8.390   2.631  2.7238  0.2613  0.0126
  836MOL0     H15368   6.360   8.507   2.606  1.3642 -2.9843  0.0995
  837MOL0     O15369   7.004   0.298   8.536 -0.1168  0.1693 -0.1348
  837MOL0     C15370   6.906   0.339   8.589  1.2156  0.2237 -0.7716
  837MOL0     O15371   6.841   0.282   8.699  0.7480  0.6352 -0.3570
  837MOL0     C15372   6.877   0.152   8.732  0.0057  0.1599 -0.1166
  837MOL0     C15373   6.918   0.114   8.863  0.7344 -0.4146  0.0096
  837MOL0     C15374   6.955  -0.019   8.890 -0.3092  0.0900 -0.5159
  837MOL0     C15375   6.935  -0.121   8.797  0.1195  0.1270  0.1873
  837MOL0     O15376   6.985  -0.251   8.821  0.5504 -0.0079  0.1118
  837MOL0     C15377   6.996  -0.352   8.726  0.3756  0.0370  0.0822
  837MOL0     C15378   7.092  -0.459   8.784 -0.0777 -1.0803  0.2079
  837MOL0     C15379   7.243  -0.413   8.767  1.2626 -0.1003 -0.3669
  837MOL0     C15380   7.333  -0.519   8.824 -0.2333  1.0845  0.7099
  837MOL0     C15381   7.486  -0.493   8.791  0.1901 -0.1287  0.1395
  837MOL0     C15382   7.589  -0.613   8.807  0.8454  0.7094  1.0803
  837MOL0     C15383   7.636  -0.632   8.951 -0.5132  0.2091  0.6952
  837MOL0     C15384   7.737  -0.519   8.978  0.3401  0.1418 -0.1771
  837MOL0     N15385   7.777  -0.542   9.118 -0.3479  0.1450  0.7402
  837MOL0     C15386   7.894  -0.589   9.160 -0.5488 -0.0313 -0.2144
  837MOL0     C15387   7.897  -0.558   9.292 -0.3312 -0.6645 -0.7217
  837MOL0     C15388   8.013  -0.590   9.384  0.4260 -0.0373 -0.3267
  837MOL0     C15389   7.962  -0.663   9.514  0.0778  0.0786  0.5413
  837MOL0     C15390   8.063  -0.761   9.579 -0.2006  0.2437 -0.4610
  837MOL0     C15391   8.137  -0.711   9.706 -0.0005  0.1770  0.6824
  837MOL0     O15392   8.226  -0.609   9.665 -0.2567 -0.1551  0.5115
  837MOL0     C15393   8.248  -0.497   9.741  0.1171 -0.0871 -0.2946
  837MOL0     C15394   8.275  -0.517   9.880  0.0265  0.5823  0.4478
  837MOL0     C15395   8.305  -0.411   9.963 -0.9827  0.0826 -0.2915
  837MOL0     C15396   8.336  -0.430  10.111  0.1529 -0.1690  0.2836
  837MOL0     C15397   8.303  -0.278   9.907 -0.0763  0.3037  0.5909
  837MOL0     C15398   8.300  -0.149   9.980 -0.2213  0.3640  0.5725
  837MOL0     O15399   8.246  -0.140  10.108 -0.2274  0.3126  0.1903
  837MOL0     C15400   8.234  -0.022  10.179 -0.6643  0.4552  0.2736
  837MOL0     C15401   8.184   0.102  10.133  1.2399  0.0542  1.4227
  837MOL0     C15402   8.185   0.211  10.210  0.7668 -0.4749 -0.0216
  837MOL0     C15403   8.228   0.203  10.350  0.9300  1.5672  0.3748
  837MOL0     O15404   8.200   0.316  10.426 -0.7593  0.6883  0.4124
  837MOL0     C15405   8.100   0.294  10.534 -1.3539  0.1405 -0.3673
  837MOL0     C15406   8.016   0.425  10.516  0.1401 -1.3689  0.0349
  837MOL0     C15407   7.975   0.452  10.367  0.3193 -0.9384 -0.6849
  837MOL0     C15408   7.866   0.550  10.349 -0.3221  0.1914  0.4921
  837MOL0     C15409   7.804   0.564  10.204 -0.1642  1.0416 -0.7672
  837MOL0     C15410   7.682   0.666  10.203 -0.2139  0.6545 -0.2132
  837MOL0     C15411   7.616   0.667  10.067 -0.2651 -0.1438 -0.0433
  837MOL0     C15412   7.696   0.683   9.941  0.3202 -0.6297 -0.3132
  837MOL0    Cl15413   7.798   0.836   9.963 -0.0522 -0.0274  0.0609
  837MOL0     C15414   8.266   0.077  10.396 -0.3225  0.3485  0.8176
  837MOL0     C15415   8.265  -0.031  10.313  0.1898  0.4840 -0.1407
  837MOL0     O15416   8.334  -0.046   9.919  0.6748  0.6275  0.3279
  837MOL0     C15417   8.284  -0.268   9.765 -0.2142 -0.3993  0.7457
  837MOL0     C15418   8.263  -0.374   9.682 -0.7859 -0.7174  0.4469
  837MOL0     N15419   7.779  -0.501   9.330 -0.4715 -0.1171 -0.0365
  837MOL0     N15420   7.703  -0.503   9.228  1.1418 -0.0257  0.7421
  837MOL0     C15421   6.878  -0.085   8.669  0.2073 -0.0508 -0.2767
  837MOL0     C15422   6.857   0.052   8.637  0.3148  0.5075 -0.4191
  837MOL0     C15423   6.849   0.477   8.560  0.2328  0.4261 -0.3980
  837MOL0     C15424   6.733   0.527   8.623  0.4564  0.3871 -0.1603
  837MOL0     C15425   6.683   0.658   8.611 -0.1224 -0.1168 -0.0343
  837MOL0     C15426   6.749   0.750   8.533  0.0527 -0.1421 -0.2126
  837MOL0     O15427   6.708   0.877   8.534  0.7551 -0.2249  0.4484
  837MOL0     C15428   6.757   0.968   8.433 -0.3576 -0.0066 -0.0297
  837MOL0     C15429   6.667   1.087   8.431  0.1681 -0.8171 -0.5314
  837MOL0     C15430   6.696   1.165   8.306  0.7407 -0.8137 -0.0662
  837MOL0     C15431   6.614   1.294   8.273  0.6697  0.8565 -0.6583
  837MOL0     C15432   6.655   1.400   8.371 -0.0048 -0.1500  0.5262
  837MOL0     C15433   6.678   1.489   8.442 -0.3108  0.5092  0.1938
  837MOL0     C15434   6.867   0.700   8.467  0.7465 -0.6542  0.2284
  837MOL0     C15435   6.921   0.573   8.472 -0.3300  0.5278 -0.2620
  837MOL0     C15436   7.050   0.544   8.396  0.3999  0.3439 -0.3413
  837MOL0     H15437   6.926   0.195   8.936  2.1703 -0.3439 -0.1975
  837MOL0     H15438   7.005  -0.044   8.983  1.6025 -0.1575 -1.5740
  837MOL0     H15439   7.035  -0.324   8.628 -0.3998  0.0389 -0.2320
  837MOL0     H15440   6.896  -0.391   8.708  0.5423 -0.1823 -0.3842
  837MOL0     H15441   7.065  -0.465   8.889 -0.0947  1.0939  0.3636
  837MOL0     H15442   7.074  -0.552   8.728  1.3246 -1.3749  0.1987
  837MOL0     H15443   7.263  -0.402   8.660  0.5002 -1.9973 -0.7489
  837MOL0     H15444   7.255  -0.322   8.825 -0.0265  0.0226 -0.2557
  837MOL0     H15445   7.336  -0.530   8.933  2.5239  2.4321  0.8614
  837MOL0     H15446   7.309  -0.619   8.788 -0.7904  0.4941  2.5884
  837MOL0     H15447   7.509  -0.402   8.847 -1.5506 -0.2872  1.1956
  837MOL0     H15448   7.496  -0.462   8.686  0.3651  0.6862  0.3882
  837MOL0     H15449   7.528  -0.695   8.768  2.6502 -0.2223  0.0498
  837MOL0     H15450   7.674  -0.592   8.741  0.5222  2.1741  1.1076
  837MOL0     H15451   7.689  -0.724   8.975 -1.1233  0.0778  1.5948
  837MOL0     H15452   7.553  -0.625   9.022 -0.1104 -1.9671  1.4387
  837MOL0     H15453   7.814  -0.534   8.901  0.8615 -0.8289  0.5163
  837MOL0     H15454   7.695  -0.418   8.969  0.1451  0.3258  2.1616
  837MOL0     H15455   7.975  -0.643   9.113 -1.5399 -1.3006 -0.5181
  837MOL0     H15456   8.067  -0.500   9.414  1.0275 -0.3679 -0.4007
  837MOL0     H15457   8.076  -0.667   9.337  1.7457 -0.8603  2.5357
  837MOL0     H15458   7.924  -0.590   9.587 -0.2933  1.1057 -0.6389
  837MOL0     H15459   7.874  -0.725   9.494  0.1071 -0.2205  1.2922
  837MOL0     H15460   8.007  -0.854   9.591  2.9221 -1.9746 -1.7645
  837MOL0     H15461   8.147  -0.787   9.514  1.5765 -0.4382  1.9712
  837MOL0     H15462   8.067  -0.670   9.779 -0.8278 -1.4566  0.8365
  837MOL0     H15463   8.199  -0.783   9.760  1.4598  0.0914 -0.9962
  837MOL0     H15464   8.287  -0.618   9.917  0.5143  1.2362  2.1909
  837MOL0     H15465   8.334  -0.539  10.126 -1.5961 -0.8853 -3.6977
  837MOL0     H15466   8.262  -0.393  10.182 -0.6497  0.5793 -0.9224
  837MOL0     H15467   8.438  -0.403  10.140 -0.5988 -0.7614  3.9772
  837MOL0     H15468   8.149   0.114  10.031  1.2270 -0.5973  1.3463
  837MOL0     H15469   8.150   0.309  10.178 -2.1036 -0.4044  2.8322
  837MOL0     H15470   8.043   0.201  10.534  2.2653 -2.3127  0.3100
  837MOL0     H15471   8.152   0.293  10.630  0.1326  2.2326 -1.0706
  837MOL0     H15472   7.934   0.424  10.588  0.6916 -2.4450  0.6696
  837MOL0     H15473   8.080   0.504  10.557 -0.1994 -1.3505  0.5386
  837MOL0     H15474   7.952   0.356  10.320  1.5298 -0.8859 -1.4224
  837MOL0     H15475   8.067   0.495  10.326 -0.1606  1.3204  0.4936
  837MOL0     H15476   7.896   0.654  10.365 -2.2796  0.7976  0.5150
  837MOL0     H15477   7.783   0.523  10.414 -0.6305 -1.3550 -0.4925
  837MOL0     H15478   7.884   0.600  10.139  1.8886  1.2454  1.7123
  837MOL0     H15479   7.774   0.470  10.158 -0.6691  1.0311 -0.4290
  837MOL0     H15480   7.720   0.763  10.234  1.5022 -0.6920  2.1811
  837MOL0     H15481   7.610   0.631  10.277  1.7902  0.3462  1.6763
  837MOL0     H15482   7.538   0.743  10.079  0.7710  0.7209  1.4589
  837MOL0     H15483   7.555   0.576  10.060 -1.9024  0.8205  1.0204
  837MOL0     H15484   7.634   0.700   9.852  1.7521  1.6790 -0.9518
  837MOL0     H15485   7.767   0.602   9.923  0.1920 -0.0951 -4.0412
  837MOL0     H15486   8.304   0.078  10.497  0.7602  4.3143  0.5494
  837MOL0     H15487   8.275  -0.134  10.346  0.0583  0.2088 -0.9452
  837MOL0     H15488   8.281  -0.169   9.722 -2.4659 -1.0687 -0.8179
  837MOL0     H15489   8.262  -0.355   9.576 -1.2607  1.6574  0.8338
  837MOL0     H15490   6.879  -0.162   8.593  0.3464 -0.4484  0.1224
  837MOL0     H15491   6.815   0.089   8.544 -3.0399  0.9178  1.1126
  837MOL0     H15492   6.677   0.474   8.699  1.6404  3.2317  2.9795
  837MOL0     H15493   6.600   0.699   8.666  1.6785  3.1441  0.5032
  837MOL0     H15494   6.861   1.001   8.448 -0.7189  1.0437  0.2652
  837MOL0     H15495   6.751   0.927   8.332 -2.8829  0.3890 -0.0972
  837MOL0     H15496   6.685   1.147   8.521 -3.8668  0.2950 -0.2883
  837MOL0     H15497   6.563   1.053   8.433  0.1495 -1.3411  4.4713
  837MOL0     H15498   6.802   1.192   8.304  1.4614 -2.4385  4.4994
  837MOL0     H15499   6.670   1.101   8.222 -0.0338 -0.7219  0.0995
  837MOL0     H15500   6.505   1.281   8.275  0.5381  1.8929  0.6867
  837MOL0     H15501   6.619   1.329   8.170 -2.0206 -0.6215 -1.3689
  837MOL0     H15502   6.688   1.579   8.499 -1.5381 -0.1289  1.4740
  837MOL0     H15503   6.927   0.775   8.416  0.1796  1.5503  2.5907
  837MOL0     H15504   7.144   0.539   8.452  1.1315 -0.1277 -1.5597
  837MOL0     H15505   7.045   0.446   8.347  4.9069 -0.9713  1.3045
  837MOL0     H15506   7.063   0.614   8.313 -1.5778  1.1497 -0.0332
  838MOL0     O15507   3.684   3.667   6.115 -0.4894 -0.4237  0.0340
  838MOL0     C15508   3.639   3.778   6.124  0.0584 -0.1754  0.2017
  838MOL0     O15509   3.702   3.888   6.179  0.2606 -0.3338 -0.3432
  838MOL0     C15510   3.833   3.871   6.222  0.3555  0.2027  0.2659
  838MOL0     C15511   3.883   3.777   6.310 -0.5299  0.4144 -0.5667
  838MOL0     C15512   4.019   3.779   6.352  1.0589 -0.7654  0.9565
  838MOL0     C15513   4.110   3.871   6.306 -1.1604 -0.2695  0.9480
  838MOL0     O15514   4.250   3.892   6.340  0.7913  0.6030  0.1692
  838MOL0     C15515   4.291   3.832   6.455 -0.1574 -1.1751 -0.2849
  838MOL0     C15516   4.425   3.899   6.496  0.2740 -0.3436  0.1936
  838MOL0     C15517   4.483   3.834   6.621  0.8589  0.4018 -0.1123
  838MOL0     C15518   4.596   3.939   6.670  0.0991  0.3943 -0.0880
  838MOL0     C15519   4.692   3.880   6.776  0.6846 -0.4242  0.4134
  838MOL0     C15520   4.796   3.980   6.809 -0.5680 -0.8737 -1.1174
  838MOL0     C15521   4.736   4.087   6.896  0.8752  0.6127  0.4663
  838MOL0     C15522   4.701   4.067   7.043  0.2336 -0.0737  0.1129
  838MOL0     N15523   4.807   4.093   7.138 -0.0256 -0.0220 -0.3872
  838MOL0     C15524   4.934   4.074   7.110  0.7182  0.7386  0.5277
  838MOL0     C15525   5.007   4.135   7.201  0.4304  1.0074 -0.1440
  838MOL0     C15526   5.152   4.144   7.211  0.0595 -0.1510  0.5174
  838MOL0     C15527   5.216   4.154   7.346  0.8003  0.3251  0.1733
  838MOL0     C15528   5.209   4.020   7.429  1.0592  0.6383 -0.4720
  838MOL0     C15529   5.298   3.907   7.364 -0.3995  0.2342 -0.1725
  838MOL0     O15530   5.432   3.971   7.349  0.8302  0.0933 -0.4840
  838MOL0     C15531   5.532   3.898   7.284 -0.2127 -0.3524 -0.5231
  838MOL0     C15532   5.648   3.963   7.259 -0.1987  0.3525  0.2473
  838MOL0     C15533   5.764   3.908   7.194 -0.4091  0.0284 -0.8185
  838MOL0     C15534   5.893   3.989   7.183 -0.2701 -0.0136  0.2480
  838MOL0     C15535   5.752   3.770   7.156  0.4265 -0.1148  0.1615
  838MOL0     C15536   5.870   3.701   7.110  0.1422 -0.1335  0.0010
  838MOL0     O15537   5.942   3.753   7.009  0.0558  0.5130  0.4413
  838MOL0     C15538   6.055   3.674   6.977  0.6041  0.2521 -0.0846
  838MOL0     C15539   6.040   3.571   6.882 -0.5349  0.1031 -0.2069
  838MOL0     C15540   6.147   3.481   6.866  0.3031 -0.2483 -0.0485
  838MOL0     C15541   6.263   3.490   6.939 -0.5055 -0.2036  0.0826
  838MOL0     O15542   6.372   3.407   6.940  0.5208  0.0504 -0.3258
  838MOL0     C15543   6.453   3.395   6.824 -0.1009  0.1596 -0.0005
  838MOL0     C15544   6.579   3.469   6.855  0.5588 -0.9473 -0.0215
  838MOL0     C15545   6.666   3.480   6.738 -0.1620  0.3665  0.6619
  838MOL0     C15546   6.791   3.562   6.782 -0.0405 -0.6695 -0.3646
  838MOL0     C15547   6.898   3.554   6.672  0.2264 -0.0960 -0.0938
  838MOL0     C15548   7.007   3.655   6.714  0.7669  0.1260  0.3371
  838MOL0     C15549   7.101   3.688   6.597  0.4810  0.9141 -0.4177
  838MOL0     C15550   7.213   3.785   6.630  0.4600 -0.1954 -0.0273
  838MOL0    Cl15551   7.314   3.807   6.489 -0.5260 -0.4634  0.5083
  838MOL0     C15552   6.272   3.591   7.034  0.2329  0.1759 -1.0202
  838MOL0     C15553   6.172   3.688   7.054 -0.4498 -0.3523 -0.0343
  838MOL0     O15554   5.895   3.591   7.168  0.1721 -0.2228  0.3419
  838MOL0     C15555   5.631   3.706   7.174  0.2517  0.5955 -0.4020
  838MOL0     C15556   5.519   3.766   7.238 -0.2126  0.7202 -1.2731
  838MOL0     N15557   4.916   4.180   7.296 -0.1934  0.2270  0.1398
  838MOL0     N15558   4.792   4.147   7.261  0.4677 -0.5024  0.2345
  838MOL0     C15559   4.059   3.964   6.206  1.0594  0.7588  0.0969
  838MOL0     C15560   3.926   3.965   6.172  0.2414 -0.0585  0.0566
  838MOL0     C15561   3.506   3.802   6.067 -0.5294 -0.6616  0.3915
  838MOL0     C15562   3.400   3.799   6.153  0.5962 -0.3476 -1.4928
  838MOL0     C15563   3.272   3.825   6.105 -0.3731  0.2880  0.8229
  838MOL0     C15564   3.263   3.854   5.963  0.6290  0.7869  0.5476
  838MOL0     O15565   3.138   3.876   5.901 -0.0045  0.1320  0.3958
  838MOL0     C15566   3.018   3.823   5.961 -0.8771 -0.3038 -0.5002
  838MOL0     C15567   2.897   3.841   5.873 -0.2194  0.4531  0.2632
  838MOL0     C15568   2.900   3.749   5.741  0.4918 -0.6400  0.0702
  838MOL0     C15569   2.855   3.608   5.770  0.2922  0.6044 -0.9683
  838MOL0     C15570   2.860   3.538   5.647  0.7384 -0.0741 -0.4535
  838MOL0     C15571   2.876   3.495   5.537  0.3370  0.0580 -0.4461
  838MOL0     C15572   3.369   3.846   5.881  0.2026 -0.6002 -0.5592
  838MOL0     C15573   3.497   3.833   5.930 -1.4156  0.5983  0.4893
  838MOL0     C15574   3.620   3.848   5.837 -0.4566  1.1665  0.9350
  838MOL0     H15575   3.819   3.704   6.359  1.7011 -1.6238 -0.5039
  838MOL0     H15576   4.055   3.712   6.430 -1.4217 -2.2143  0.9879
  838MOL0     H15577   4.318   3.730   6.424  1.7023 -1.7072  2.7688
  838MOL0     H15578   4.218   3.834   6.536  0.1784  1.0861  0.0109
  838MOL0     H15579   4.507   3.899   6.425  0.9753 -2.4161  0.9467
  838MOL0     H15580   4.410   4.006   6.517 -1.0975 -0.1338 -1.5716
  838MOL0     H15581   4.407   3.830   6.699  2.0226  0.5920  1.0746
  838MOL0     H15582   4.534   3.739   6.603 -1.8633 -1.6778  2.3115
  838MOL0     H15583   4.664   3.962   6.587  0.4250 -1.7407 -0.4907
  838MOL0     H15584   4.540   4.027   6.702 -0.5101 -0.0659  0.1341
  838MOL0     H15585   4.737   3.789   6.734 -0.1613 -0.1413 -1.1787
  838MOL0     H15586   4.626   3.866   6.862  0.5128  0.7857  0.4920
  838MOL0     H15587   4.873   3.929   6.868 -0.2686 -0.2948 -1.0044
  838MOL0     H15588   4.837   4.022   6.716 -2.9230  0.8548 -1.4657
  838MOL0     H15589   4.644   4.117   6.845  1.0908  0.2873 -0.1205
  838MOL0     H15590   4.801   4.175   6.888 -0.1379  1.5302  1.7757
  838MOL0     H15591   4.613   4.130   7.061  0.9029 -0.1782  5.2921
  838MOL0     H15592   4.664   3.965   7.050 -1.7432  0.6280  0.3709
  838MOL0     H15593   4.980   4.038   7.019 -2.4842  0.9396 -1.3050
  838MOL0     H15594   5.173   4.242   7.168  1.0532  1.0746  3.5219
  838MOL0     H15595   5.204   4.069   7.150 -0.5739 -0.5360  0.4321
  838MOL0     H15596   5.314   4.201   7.345  0.7375  0.4686 -0.7231
  838MOL0     H15597   5.147   4.224   7.394  0.4242  0.2075 -0.1907
  838MOL0     H15598   5.256   4.036   7.527 -0.0179  2.1549 -0.1760
  838MOL0     H15599   5.107   3.987   7.447 -0.0050  3.5533 -0.6448
  838MOL0     H15600   5.304   3.820   7.430  0.2292 -0.5372 -1.2192
  838MOL0     H15601   5.257   3.879   7.267  0.5390 -0.8946 -0.2700
  838MOL0     H15602   5.656   4.065   7.293  0.6158  0.5161 -0.4012
  838MOL0     H15603   5.886   4.066   7.105 -0.8683 -0.0560  0.2553
  838MOL0     H15604   5.983   3.930   7.165 -0.4995 -0.2355 -0.1668
  838MOL0     H15605   5.903   4.050   7.273  1.1928  1.0523 -0.5820
  838MOL0     H15606   5.949   3.556   6.824 -0.9012 -1.3175  0.6974
  838MOL0     H15607   6.165   3.394   6.803 -0.3364 -2.8206  3.0538
  838MOL0     H15608   6.471   3.289   6.803 -2.7251 -0.0084 -1.9139
  838MOL0     H15609   6.397   3.436   6.739 -0.6861  1.5475  1.0144
  838MOL0     H15610   6.550   3.566   6.897  1.5492 -0.8054  0.3725
  838MOL0     H15611   6.627   3.414   6.936  2.3799 -2.3328 -1.9484
  838MOL0     H15612   6.613   3.519   6.651  1.1510  1.9784  0.5485
  838MOL0     H15613   6.703   3.380   6.712 -0.4439 -0.3383  2.7949
  838MOL0     H15614   6.835   3.517   6.871  1.3123  2.2521  0.5649
  838MOL0     H15615   6.777   3.664   6.819 -0.8642 -0.7135 -0.5265
  838MOL0     H15616   6.940   3.453   6.668 -2.6888 -1.5233  1.6083
  838MOL0     H15617   6.858   3.595   6.579  1.7016  1.3438 -0.1392
  838MOL0     H15618   7.058   3.608   6.799  1.3538 -1.9388 -1.0806
  838MOL0     H15619   6.964   3.752   6.742  2.1035  0.7289  0.4197
  838MOL0     H15620   7.051   3.717   6.504  1.9846  0.1036 -1.5184
  838MOL0     H15621   7.159   3.597   6.582 -0.4219  0.6315 -2.4574
  838MOL0     H15622   7.275   3.732   6.702  0.0778  0.2735  0.6626
  838MOL0     H15623   7.183   3.875   6.684 -0.4218 -1.6579  2.0646
  838MOL0     H15624   6.360   3.616   7.094 -0.9824 -0.3571  1.0807
  838MOL0     H15625   6.190   3.772   7.120 -0.3508 -0.9855  0.7679
  838MOL0     H15626   5.624   3.599   7.157  2.7656  0.7847 -3.4880
  838MOL0     H15627   5.431   3.706   7.261  0.9108 -1.3280 -2.0909
  838MOL0     H15628   4.124   4.043   6.169  0.9058  1.0165  0.3742
  838MOL0     H15629   3.909   4.047   6.104  2.6242 -0.4275 -1.1027
  838MOL0     H15630   3.414   3.778   6.259 -2.0146 -1.0161 -1.1964
  838MOL0     H15631   3.187   3.808   6.170 -0.0298 -0.2446  1.1347
  838MOL0     H15632   3.032   3.717   5.985  3.2118  0.6266  2.3430
  838MOL0     H15633   3.006   3.864   6.062  0.7053 -0.6812 -0.1259
  838MOL0     H15634   2.897   3.946   5.843  3.1922  0.7780  1.0753
  838MOL0     H15635   2.808   3.817   5.933 -0.6850 -0.8735 -0.8944
  838MOL0     H15636   2.830   3.808   5.681 -0.1506 -1.4305  0.0182
  838MOL0     H15637   3.000   3.758   5.699  0.8221  2.0835  1.1899
  838MOL0     H15638   2.760   3.596   5.823  1.0520  0.3395  0.3797
  838MOL0     H15639   2.923   3.563   5.843 -3.1581 -3.3660  0.2294
  838MOL0     H15640   2.888   3.440   5.445  1.5286 -3.0757  1.4474
  838MOL0     H15641   3.352   3.870   5.776  4.2949 -1.8261 -1.6623
  838MOL0     H15642   3.607   3.803   5.739  1.8107  1.5395  0.4299
  838MOL0     H15643   3.647   3.954   5.831  1.6030  0.6599  0.7269
  838MOL0     H15644   3.705   3.792   5.876 -0.2382  0.0057 -1.1015
  839MOL0     O15645   1.985   3.231   8.875  0.0374  0.6885  0.1856
  839MOL0     C15646   1.908   3.135   8.865  0.0826  0.7507 -0.0398
  839MOL0     O15647   1.941   3.011   8.829 -0.1124  0.3451  0.3486
  839MOL0     C15648   2.059   2.965   8.786  0.1349 -0.4096  0.4197
  839MOL0     C15649   2.156   3.032   8.706  0.2015  0.3915 -0.4802
  839MOL0     C15650   2.280   2.973   8.671 -0.0482  0.3107 -0.4730
  839MOL0     C15651   2.311   2.842   8.710  0.6523  0.4310  0.2171
  839MOL0     O15652   2.432   2.785   8.693  0.9971  0.0958  0.7154
  839MOL0     C15653   2.547   2.861   8.686  0.3104  0.5233  0.6340
  839MOL0     C15654   2.668   2.781   8.721 -0.8240  0.6205  0.1193
  839MOL0     C15655   2.686   2.755   8.879  1.1168 -0.2058  1.0816
  839MOL0     C15656   2.822   2.714   8.917 -0.4970 -0.0244 -0.1027
  839MOL0     C15657   2.847   2.561   8.892  0.5383 -0.6247 -1.1207
  839MOL0     C15658   2.988   2.527   8.932  0.4802  0.2896 -0.9290
  839MOL0     C15659   3.022   2.386   8.888 -0.3168 -0.1643 -0.2212
  839MOL0     C15660   3.171   2.356   8.897 -0.9412 -0.2060  0.9993
  839MOL0     N15661   3.192   2.212   8.870 -0.0743  0.3674 -0.0341
  839MOL0     C15662   3.247   2.159   8.761  0.3521 -0.4547  0.8938
  839MOL0     C15663   3.274   2.028   8.794  0.1117 -0.0802  0.2463
  839MOL0     C15664   3.336   1.922   8.703 -0.1433  0.2722 -0.3613
  839MOL0     C15665   3.487   1.898   8.739 -0.5987 -0.7158  0.4110
  839MOL0     C15666   3.582   2.016   8.700  1.4760 -0.1059 -0.0442
  839MOL0     C15667   3.694   2.028   8.805 -0.4151  0.2558  0.6754
  839MOL0     O15668   3.769   1.907   8.791 -0.0668  0.0081  0.6229
  839MOL0     C15669   3.877   1.881   8.862  0.1718  0.2838 -0.8553
  839MOL0     C15670   3.953   1.775   8.818  0.2108  0.4516  0.4112
  839MOL0     C15671   4.057   1.730   8.894 -0.5869  0.3551 -0.6448
  839MOL0     C15672   4.124   1.606   8.838  0.4349  0.0708  0.4216
  839MOL0     C15673   4.097   1.805   9.007  0.3734 -0.2879 -0.2405
  839MOL0     C15674   4.207   1.766   9.092  0.3970 -0.1797 -0.3663
  839MOL0     O15675   4.234   1.852   9.202  0.3334 -0.2687 -0.2855
  839MOL0     C15676   4.330   1.810   9.291 -0.5252  0.0675 -0.1976
  839MOL0     C15677   4.449   1.877   9.285 -0.0495 -0.2031  0.7187
  839MOL0     C15678   4.541   1.846   9.369 -0.4141  0.3384 -0.7589
  839MOL0     C15679   4.519   1.756   9.471 -0.0408  0.9156 -0.0099
  839MOL0     O15680   4.626   1.711   9.538 -0.0941  0.9440 -0.1776
  839MOL0     C15681   4.621   1.667   9.677  0.3689  0.2276 -0.0321
  839MOL0     C15682   4.762   1.657   9.718  0.2443 -1.0061  1.1443
  839MOL0     C15683   4.816   1.798   9.730  0.3109 -0.1246  0.3592
  839MOL0     C15684   4.967   1.794   9.767 -0.3227  0.4458 -0.3084
  839MOL0     C15685   5.029   1.931   9.749  0.6199 -0.7495  0.2610
  839MOL0     C15686   5.183   1.920   9.754  0.4957  0.5605  0.0092
  839MOL0     C15687   5.240   1.927   9.900  0.2711  0.0426 -0.3644
  839MOL0     C15688   5.389   1.893   9.887  0.1442 -0.6464 -0.1863
  839MOL0    Cl15689   5.483   2.000   9.776  0.3860  0.1983 -0.0736
  839MOL0     C15690   4.393   1.698   9.489 -0.9292 -0.3025  0.9982
  839MOL0     C15691   4.296   1.722   9.388 -0.0176  0.8266 -0.8343
  839MOL0     O15692   4.263   1.663   9.071  0.5672  0.3688 -0.2328
  839MOL0     C15693   4.016   1.913   9.053 -0.3683 -0.1892  0.1225
  839MOL0     C15694   3.913   1.954   8.981 -0.3901 -0.6805 -0.2104
  839MOL0     N15695   3.234   2.013   8.928  0.6663 -0.3503  0.1363
  839MOL0     N15696   3.176   2.122   8.968  0.8525  0.4774  0.0311
  839MOL0     C15697   2.208   2.772   8.778  0.4728  0.4546 -0.1089
  839MOL0     C15698   2.087   2.836   8.817  0.7912  1.0423 -0.6010
  839MOL0     C15699   1.758   3.145   8.870  0.6942  0.2509  0.3802
  839MOL0     C15700   1.685   3.049   8.793 -1.0257 -0.2618  0.2813
  839MOL0     C15701   1.543   3.056   8.799 -0.6035 -0.2140 -0.3376
  839MOL0     C15702   1.475   3.164   8.864  0.5317  0.5080 -0.5646
  839MOL0     O15703   1.337   3.185   8.858  0.3596  0.5239  0.3691
  839MOL0     C15704   1.259   3.069   8.891 -0.0169 -0.0310  0.4455
  839MOL0     C15705   1.116   3.098   8.896  0.5831  0.2699  0.4688
  839MOL0     C15706   1.087   3.226   8.975  0.6518  0.0699  0.1196
  839MOL0     C15707   0.972   3.200   9.068  0.4571  0.1958  0.2211
  839MOL0     C15708   0.937   3.324   9.140 -0.1897  0.4758  0.6837
  839MOL0     C15709   0.911   3.423   9.209  0.4459 -0.2221 -0.2478
  839MOL0     C15710   1.543   3.258   8.921  0.2109 -0.6101 -0.6806
  839MOL0     C15711   1.684   3.251   8.933 -0.9116 -1.3015  0.0149
  839MOL0     C15712   1.754   3.367   8.999  1.0948  0.0016 -0.3362
  839MOL0     H15713   2.136   3.127   8.659 -5.2486 -0.6103 -0.9190
  839MOL0     H15714   2.346   3.037   8.614 -0.5918  1.3173  0.0092
  839MOL0     H15715   2.545   2.960   8.733 -2.1923  0.2378  1.2854
  839MOL0     H15716   2.544   2.899   8.583  1.4857  1.8593  1.0530
  839MOL0     H15717   2.661   2.689   8.662 -0.0960  1.1804 -0.8596
  839MOL0     H15718   2.760   2.834   8.696  0.5772 -1.8316 -0.2670
  839MOL0     H15719   2.655   2.841   8.939  0.8183  1.2569 -1.0680
  839MOL0     H15720   2.627   2.668   8.908  4.3915 -2.1800  2.4845
  839MOL0     H15721   2.910   2.755   8.865  1.3189 -2.1943  1.0409
  839MOL0     H15722   2.831   2.719   9.026  0.5772  2.0833 -0.2392
  839MOL0     H15723   2.830   2.530   8.788  1.4862  2.0598 -2.1873
  839MOL0     H15724   2.781   2.513   8.964  0.9953  1.5219  0.8538
  839MOL0     H15725   3.057   2.605   8.897  0.3443  1.8777  2.0208
  839MOL0     H15726   2.983   2.528   9.041  1.5108  3.4948 -0.8122
  839MOL0     H15727   2.980   2.351   8.793 -0.1169 -1.7580  0.2427
  839MOL0     H15728   2.967   2.322   8.957 -1.3803  1.2958  0.3129
  839MOL0     H15729   3.229   2.416   8.826 -3.0989  1.9322  0.9087
  839MOL0     H15730   3.203   2.368   9.001  1.9002 -0.3280  0.2123
  839MOL0     H15731   3.271   2.192   8.661 -1.1616  0.7343  0.8786
  839MOL0     H15732   3.328   1.954   8.598  2.1405  2.0757 -0.0734
  839MOL0     H15733   3.285   1.827   8.716 -0.9316  0.5570 -1.2426
  839MOL0     H15734   3.491   1.896   8.848 -0.1618  1.8368  0.5004
  839MOL0     H15735   3.531   1.807   8.695  1.3977 -0.4786  1.7477
  839MOL0     H15736   3.620   2.003   8.599 -0.4357 -0.7123 -0.7271
  839MOL0     H15737   3.517   2.104   8.695  1.5383 -0.1367 -1.7739
  839MOL0     H15738   3.768   2.102   8.773 -0.8655 -0.3083 -1.8928
  839MOL0     H15739   3.656   2.031   8.907  1.0737 -1.1310  1.3300
  839MOL0     H15740   3.912   1.725   8.731  0.1953  3.5973 -1.5440
  839MOL0     H15741   4.087   1.511   8.879  1.4709 -0.5408 -0.0199
  839MOL0     H15742   4.233   1.619   8.841  0.1466  2.8900  1.0012
  839MOL0     H15743   4.110   1.606   8.730 -1.6960 -0.2987  0.6648
  839MOL0     H15744   4.480   1.951   9.211  2.8108  1.6109  3.4536
  839MOL0     H15745   4.639   1.891   9.373 -0.6899  0.8756  0.1374
  839MOL0     H15746   4.574   1.738   9.745 -1.1797 -1.2508  0.4964
  839MOL0     H15747   4.581   1.566   9.691  0.9099  0.3811  3.4961
  839MOL0     H15748   4.767   1.593   9.807 -0.0340  0.3464  2.1779
  839MOL0     H15749   4.827   1.602   9.650  0.5712  1.2330 -0.5003
  839MOL0     H15750   4.760   1.841   9.813  0.1327  0.2907  0.0223
  839MOL0     H15751   4.817   1.854   9.636 -1.5377  1.2230  1.0969
  839MOL0     H15752   5.014   1.731   9.691 -0.4640  1.3743 -1.1969
  839MOL0     H15753   4.983   1.756   9.868 -1.7836  0.1825 -0.1602
  839MOL0     H15754   5.003   1.961   9.647  1.4438 -2.1056 -0.3583
  839MOL0     H15755   4.997   2.004   9.824  0.4394 -0.9902  0.4202
  839MOL0     H15756   5.226   2.000   9.693 -0.0012 -0.5209 -1.8516
  839MOL0     H15757   5.212   1.833   9.693 -3.3499  0.0448 -1.3752
  839MOL0     H15758   5.195   1.855   9.968  2.6322 -1.6345 -0.4629
  839MOL0     H15759   5.242   2.025   9.949 -2.1909 -0.1567  0.2401
  839MOL0     H15760   5.407   1.792   9.848  3.5110 -1.4528  2.8577
  839MOL0     H15761   5.428   1.904   9.989 -2.9386  3.5582  0.7941
  839MOL0     H15762   4.372   1.631   9.572 -3.4437 -0.2417  0.4988
  839MOL0     H15763   4.198   1.676   9.393  1.3604 -2.2436  2.4013
  839MOL0     H15764   4.045   1.962   9.145 -1.6026  1.2945 -0.2290
  839MOL0     H15765   3.866   2.038   9.031 -0.8071  0.1772 -1.9733
  839MOL0     H15766   2.234   2.675   8.818  2.3087  1.3586  1.0338
  839MOL0     H15767   2.013   2.778   8.871 -0.7371  2.6674 -0.8848
  839MOL0     H15768   1.733   2.977   8.727 -1.9671 -0.6637  0.0211
  839MOL0     H15769   1.497   2.973   8.746 -0.7440 -2.2194  2.7157
  839MOL0     H15770   1.290   2.994   8.818  2.0104  1.7054 -0.5948
  839MOL0     H15771   1.296   3.032   8.987  1.8199 -1.7051 -0.8132
  839MOL0     H15772   1.052   3.015   8.927 -1.7346  0.2370 -3.7391
  839MOL0     H15773   1.091   3.115   8.791 -0.3325 -0.1550  0.6031
  839MOL0     H15774   1.175   3.270   9.023  0.2788  0.5533  0.3761
  839MOL0     H15775   1.057   3.305   8.905 -0.3080 -1.1017 -0.8351
  839MOL0     H15776   1.007   3.132   9.147 -1.5583 -0.5307  0.5503
  839MOL0     H15777   0.891   3.141   9.025 -0.3187  2.5379 -1.7620
  839MOL0     H15778   0.867   3.510   9.253 -0.4315 -0.6423 -0.2536
  839MOL0     H15779   1.484   3.342   8.957  3.4408  2.3754 -1.7293
  839MOL0     H15780   1.836   3.330   9.062 -0.1405 -3.3060 -0.4814
  839MOL0     H15781   1.790   3.431   8.919 -2.8900  1.6938 -0.9843
  839MOL0     H15782   1.680   3.415   9.065  0.7274 -1.2197  0.1787
  840MOL0     O15783   6.603   3.247   4.821  0.9095  0.1866 -0.4061
  840MOL0     C15784   6.724   3.226   4.835  0.1044 -0.1902  0.7294
  840MOL0     O15785   6.787   3.112   4.791  0.3237 -0.3724 -0.1623
  840MOL0     C15786   6.728   3.010   4.725  0.6640  0.4866  0.8334
  840MOL0     C15787   6.592   2.980   4.736  0.4198  0.2407 -1.0497
  840MOL0     C15788   6.535   2.868   4.679 -0.9685 -0.7780 -0.6984
  840MOL0     C15789   6.610   2.780   4.601  0.1184 -0.1048  0.1424
  840MOL0     O15790   6.545   2.676   4.540  0.5757 -0.2439 -0.1709
  840MOL0     C15791   6.575   2.538   4.574 -0.0487  0.5713 -0.8311
  840MOL0     C15792   6.471   2.437   4.527 -0.9664 -0.1552 -0.5046
  840MOL0     C15793   6.333   2.480   4.585 -0.4055  0.5773 -0.3862
  840MOL0     C15794   6.234   2.374   4.538 -0.9716 -1.1028 -0.4404
  840MOL0     C15795   6.088   2.395   4.585  0.2152 -0.2071 -0.0531
  840MOL0     C15796   6.068   2.374   4.738 -0.1630  0.2421 -0.5274
  840MOL0     C15797   5.908   2.381   4.751 -0.0136 -0.1593 -0.4300
  840MOL0     C15798   5.855   2.362   4.900 -0.0737 -0.6997  0.7507
  840MOL0     N15799   5.881   2.230   4.955  0.0736 -0.4435 -1.0803
  840MOL0     C15800   5.814   2.118   4.940  0.8253 -0.4019 -0.6927
  840MOL0     C15801   5.855   2.029   5.036  0.3602 -0.1205  0.5616
  840MOL0     C15802   5.813   1.883   5.065 -1.0059 -1.0263 -0.3035
  840MOL0     C15803   5.687   1.824   5.014  0.3182 -0.6432  0.0021
  840MOL0     C15804   5.688   1.789   4.863 -0.2588  0.4969  0.8745
  840MOL0     C15805   5.815   1.719   4.807  0.1876  1.3308 -0.2966
  840MOL0     O15806   5.844   1.603   4.885 -0.0304  0.0266 -0.7589
  840MOL0     C15807   5.783   1.483   4.863 -0.0140 -0.9575  0.2181
  840MOL0     C15808   5.704   1.436   4.749  1.1767 -0.1063 -0.2199
  840MOL0     C15809   5.650   1.313   4.735 -0.0235  0.4456 -0.4075
  840MOL0     C15810   5.567   1.276   4.613  0.2693 -0.7547  0.4117
  840MOL0     C15811   5.680   1.214   4.833  0.5979 -0.1270  0.0606
  840MOL0     C15812   5.624   1.079   4.839 -0.0658  0.4044  0.6542
  840MOL0     O15813   5.709   0.982   4.902  0.3235  0.5771 -0.2993
  840MOL0     C15814   5.641   0.868   4.935 -0.0308  1.1105  0.5219
  840MOL0     C15815   5.622   0.842   5.068 -1.3726 -0.6825  0.7765
  840MOL0     C15816   5.545   0.733   5.103  0.2711  0.5367 -0.7173
  840MOL0     C15817   5.469   0.664   5.010 -1.7412  0.1999  0.1945
  840MOL0     O15818   5.365   0.580   5.034  0.2404 -0.3832  0.1309
  840MOL0     C15819   5.293   0.512   4.927  0.5922  0.1450  0.3116
  840MOL0     C15820   5.193   0.420   4.999 -0.0820  0.0235 -0.0892
  840MOL0     C15821   5.081   0.403   4.893 -1.5828 -0.0227 -0.6641
  840MOL0     C15822   5.082   0.265   4.827 -0.5281 -0.6479 -0.3951
  840MOL0     C15823   4.952   0.220   4.741 -0.7024 -1.1393  1.0819
  840MOL0     C15824   4.990   0.086   4.670  0.0036 -0.4998  0.0846
  840MOL0     C15825   4.862   0.016   4.612  0.1995  0.2785 -0.3404
  840MOL0     C15826   4.896  -0.109   4.533  0.0560 -0.5122 -0.0216
  840MOL0    Cl15827   4.742  -0.171   4.484  0.5664 -0.0528 -0.1106
  840MOL0     C15828   5.500   0.687   4.876 -0.1211 -0.6219 -0.7287
  840MOL0     C15829   5.592   0.786   4.837  0.1802 -0.3815 -0.0790
  840MOL0     O15830   5.507   1.067   4.808 -0.3747  0.2375 -0.5041
  840MOL0     C15831   5.755   1.252   4.952 -0.2638  0.3579  0.0064
  840MOL0     C15832   5.809   1.388   4.963  0.1218  0.8648 -0.5705
  840MOL0     N15833   5.960   2.095   5.107  0.6594 -0.5542 -0.0207
  840MOL0     N15834   5.973   2.214   5.061 -0.4165  0.2468  0.6617
  840MOL0     C15835   6.750   2.817   4.582  0.0028 -0.1149 -0.0421
  840MOL0     C15836   6.804   2.930   4.640  0.0589 -0.5788  0.1593
  840MOL0     C15837   6.809   3.321   4.914 -0.3914 -0.7588  0.4476
  840MOL0     C15838   6.914   3.396   4.857  1.0507  0.2423  0.0838
  840MOL0     C15839   6.992   3.483   4.931 -0.4915  0.2120  1.6200
  840MOL0     C15840   6.982   3.494   5.066  0.1367 -0.0974  0.0084
  840MOL0     O15841   7.058   3.585   5.134 -0.1433 -0.4698 -0.4227
  840MOL0     C15842   7.047   3.601   5.281 -0.1085 -0.0372  0.4396
  840MOL0     C15843   7.143   3.712   5.334 -0.3930  0.5060  0.2715
  840MOL0     C15844   7.122   3.722   5.479 -0.4606 -0.1826 -0.6512
  840MOL0     C15845   7.240   3.809   5.543  0.6516  0.4255 -0.5490
  840MOL0     C15846   7.206   3.817   5.683 -0.5846 -1.0264  0.5940
  840MOL0     C15847   7.190   3.825   5.802  0.1730 -0.0963 -0.8026
  840MOL0     C15848   6.879   3.420   5.128 -0.5153  0.2912  0.1305
  840MOL0     C15849   6.803   3.324   5.056  0.1715 -0.5577  0.1283
  840MOL0     C15850   6.729   3.227   5.141  0.4778 -0.5320 -0.8918
  840MOL0     H15851   6.526   3.029   4.808 -2.6254 -3.8021 -0.7138
  840MOL0     H15852   6.430   2.845   4.683 -0.4740 -3.1781 -0.0239
  840MOL0     H15853   6.588   2.537   4.683 -2.6413  0.1767 -0.4665
  840MOL0     H15854   6.674   2.507   4.539  1.0952  0.2170  2.3628
  840MOL0     H15855   6.474   2.444   4.418  0.0256 -1.6060 -0.5941
  840MOL0     H15856   6.504   2.339   4.562 -2.1867 -0.4276 -0.0849
  840MOL0     H15857   6.344   2.485   4.693 -1.1622 -1.2353 -0.1844
  840MOL0     H15858   6.308   2.576   4.539  2.9662  0.5985 -2.4807
  840MOL0     H15859   6.242   2.365   4.429  1.8989  1.0735 -0.5299
  840MOL0     H15860   6.269   2.277   4.575 -1.5742 -0.7014  1.2816
  840MOL0     H15861   6.032   2.327   4.519 -1.6982  1.8847 -0.7102
  840MOL0     H15862   6.045   2.494   4.570  0.3834 -0.1495 -0.1545
  840MOL0     H15863   6.112   2.280   4.771 -2.0519 -1.1385 -1.7551
  840MOL0     H15864   6.110   2.458   4.795  1.5013 -0.8626 -0.0498
  840MOL0     H15865   5.868   2.300   4.690  2.3722 -2.2656  0.6439
  840MOL0     H15866   5.876   2.479   4.712 -2.2426 -0.4139  0.5571
  840MOL0     H15867   5.898   2.443   4.959  1.7981 -0.6570 -0.5902
  840MOL0     H15868   5.747   2.378   4.893 -0.0372 -0.6695  0.1295
  840MOL0     H15869   5.746   2.093   4.858  0.8338  1.6512 -1.3843
  840MOL0     H15870   5.804   1.897   5.173 -0.4824 -0.3290 -0.3421
  840MOL0     H15871   5.903   1.826   5.042  0.1375  0.7052 -0.2824
  840MOL0     H15872   5.671   1.729   5.066 -1.1729 -0.3408  0.1325
  840MOL0     H15873   5.603   1.893   5.026  0.6127  0.0591 -1.7428
  840MOL0     H15874   5.602   1.725   4.843  2.0185 -1.8245 -2.7886
  840MOL0     H15875   5.662   1.871   4.796  1.7469  2.6574  2.5601
  840MOL0     H15876   5.800   1.688   4.703 -0.2404  2.2380 -0.5192
  840MOL0     H15877   5.893   1.795   4.806  0.7384  0.8668  2.1315
  840MOL0     H15878   5.672   1.507   4.673 -2.7881  0.3194  1.6020
  840MOL0     H15879   5.467   1.241   4.640 -1.5559  2.4502 -1.5407
  840MOL0     H15880   5.612   1.202   4.545 -0.2531  0.7534 -1.6965
  840MOL0     H15881   5.542   1.370   4.564  0.9194  1.1906  3.5779
  840MOL0     H15882   5.663   0.905   5.146 -3.3672 -0.2451  1.5496
  840MOL0     H15883   5.528   0.712   5.209  2.6329  1.0588 -0.1777
  840MOL0     H15884   5.250   0.582   4.854  1.7390  0.6229  0.0760
  840MOL0     H15885   5.361   0.445   4.873 -2.0334 -1.7843 -0.8003
  840MOL0     H15886   5.244   0.335   5.045 -0.5208  0.9910  2.2979
  840MOL0     H15887   5.139   0.465   5.082  0.1369 -1.7311  1.0568
  840MOL0     H15888   5.078   0.476   4.812 -3.3530  1.7990  0.9341
  840MOL0     H15889   4.988   0.420   4.948  0.0207  3.2055  1.3563
  840MOL0     H15890   5.098   0.190   4.905 -0.1419 -0.9728 -0.7733
  840MOL0     H15891   5.178   0.255   4.774  0.7155 -1.3973  1.8435
  840MOL0     H15892   4.858   0.214   4.797 -2.4623  2.0475 -1.2195
  840MOL0     H15893   4.924   0.296   4.667 -1.1250 -2.7384 -0.4619
  840MOL0     H15894   5.032   0.020   4.746 -0.2633  2.2032  2.7413
  840MOL0     H15895   5.056   0.117   4.589 -0.9060  0.2948 -0.3689
  840MOL0     H15896   4.824   0.093   4.544 -0.3333  0.6408  0.3506
  840MOL0     H15897   4.800  -0.006   4.700  4.1294  1.5415  3.0359
  840MOL0     H15898   4.955  -0.180   4.593 -2.5461 -0.0313  3.4016
  840MOL0     H15899   4.958  -0.073   4.451 -0.3236  1.1667  0.4018
  840MOL0     H15900   5.449   0.643   4.791  2.4969 -0.3375 -2.5866
  840MOL0     H15901   5.624   0.801   4.735  2.0769  0.2819  0.5716
  840MOL0     H15902   5.779   1.168   5.016  1.8513  1.0404  0.1934
  840MOL0     H15903   5.877   1.403   5.045  1.0188  0.8857 -1.3013
  840MOL0     H15904   6.802   2.757   4.508  0.9568  2.0039 -1.1930
  840MOL0     H15905   6.904   2.966   4.617 -0.4737 -0.1434 -1.6403
  840MOL0     H15906   6.927   3.386   4.750 -0.8270 -1.0792 -0.0659
  840MOL0     H15907   7.035   3.567   4.879 -0.6068 -0.2456  0.7642
  840MOL0     H15908   6.944   3.625   5.307  0.0771  0.2991  0.8885
  840MOL0     H15909   7.087   3.507   5.321  1.2321  0.0428 -0.6073
  840MOL0     H15910   7.118   3.804   5.280 -0.1443  1.8389  2.3316
  840MOL0     H15911   7.245   3.687   5.304 -1.0727  0.0344 -1.8474
  840MOL0     H15912   7.023   3.766   5.496 -0.2970  0.4872 -1.3929
  840MOL0     H15913   7.121   3.622   5.525  3.0182 -1.0965 -2.2319
  840MOL0     H15914   7.226   3.903   5.488 -2.6713 -1.0001 -2.4850
  840MOL0     H15915   7.342   3.778   5.518  0.2504 -0.0135 -1.7156
  840MOL0     H15916   7.194   3.839   5.909 -0.6032 -3.7251 -0.1900
  840MOL0     H15917   6.860   3.423   5.235 -2.0548 -2.0022 -0.0100
  840MOL0     H15918   6.797   3.146   5.169  0.4089 -0.5957 -0.9085
  840MOL0     H15919   6.704   3.280   5.233  1.8973 -2.8494  0.9324
  840MOL0     H15920   6.641   3.179   5.096 -0.3273 -1.0383  1.1322
  841MOL0     O15921   2.440   0.568  11.364 -0.2208 -0.9063  0.3418
  841MOL0     C15922   2.396   0.529  11.254 -0.5358 -1.0630 -0.4786
  841MOL0     O15923   2.396   0.604  11.134 -0.1947 -0.5580 -0.2355
  841MOL0     C15924   2.454   0.732  11.129 -0.5440  0.0697 -0.4453
  841MOL0     C15925   2.571   0.762  11.060  0.1091 -0.8197  0.6872
  841MOL0     C15926   2.634   0.890  11.067  0.8734 -0.2029  0.2561
  841MOL0     C15927   2.569   0.988  11.142  0.1476 -1.1068  0.5772
  841MOL0     O15928   2.612   1.124  11.151 -0.1949 -1.1344 -0.0879
  841MOL0     C15929   2.736   1.152  11.101  0.2366 -1.1036  1.1781
  841MOL0     C15930   2.780   1.290  11.137 -0.1247 -0.4786  0.5848
  841MOL0     C15931   2.907   1.319  11.054 -0.0430  0.5002  0.1362
  841MOL0     C15932   2.989   1.440  11.108 -0.0741  0.8078  1.3982
  841MOL0     C15933   3.063   1.503  10.989 -0.5050  0.0101 -0.9011
  841MOL0     C15934   3.143   1.629  11.028 -0.4247 -0.4840 -0.7326
  841MOL0     C15935   3.270   1.587  11.107 -0.5965  0.2840 -0.0339
  841MOL0     C15936   3.343   1.720  11.169  0.6084  0.4021  0.0203
  841MOL0     N15937   3.436   1.689  11.277  0.1915  0.6869  0.2253
  841MOL0     C15938   3.550   1.604  11.261  0.1671  0.0325  0.2514
  841MOL0     C15939   3.612   1.603  11.388  1.4791  1.2322 -0.1692
  841MOL0     C15940   3.726   1.527  11.431 -0.0083  0.1034  0.6214
  841MOL0     C15941   3.722   1.484  11.575 -0.3292 -0.9395  0.3900
  841MOL0     C15942   3.836   1.388  11.612  0.5588 -0.1259 -0.1075
  841MOL0     C15943   3.978   1.442  11.593 -0.1419  0.1167 -1.0992
  841MOL0     O15944   4.052   1.330  11.638  0.8609  0.6046  1.3114
  841MOL0     C15945   4.184   1.337  11.672 -0.4527  0.4500 -0.4246
  841MOL0     C15946   4.255   1.216  11.704 -0.8045  0.5595 -0.4294
  841MOL0     C15947   4.395   1.219  11.746 -0.1692  0.2812 -1.2278
  841MOL0     C15948   4.448   1.082  11.789  1.3367 -0.2656  0.5797
  841MOL0     C15949   4.464   1.345  11.732 -0.1558  0.2888 -0.3073
  841MOL0     C15950   4.612   1.354  11.746 -0.1717 -0.1233 -0.0346
  841MOL0     O15951   4.674   1.260  11.822 -0.2326  0.0970  0.8457
  841MOL0     C15952   4.810   1.258  11.835  0.3369 -0.6433 -0.0563
  841MOL0     C15953   4.901   1.246  11.733 -1.0071  0.1980  0.8576
  841MOL0     C15954   5.040   1.255  11.761  0.3591  0.6848 -0.4457
  841MOL0     C15955   5.083   1.270  11.897 -0.4803 -0.0224 -0.0548
  841MOL0     O15956   5.214   1.279  11.929  0.3070  0.2203 -0.5266
  841MOL0     C15957   5.310   1.257  11.828  0.3025  0.5366 -0.8633
  841MOL0     C15958   5.438   1.260  11.901  0.5896 -0.0773  0.6586
  841MOL0     C15959   5.466   1.404  11.957 -0.5619 -0.7126  0.1203
  841MOL0     C15960   5.592   1.400  12.043  0.9012 -0.4864  0.1700
  841MOL0     C15961   5.593   1.517  12.123 -0.0929 -0.2712  0.7419
  841MOL0     C15962   5.602   1.646  12.040 -0.3075 -0.2571 -0.3296
  841MOL0     C15963   5.734   1.646  11.949  0.4618 -0.2914  0.2473
  841MOL0     C15964   5.742   1.775  11.879 -0.1519  0.3235 -0.0381
  841MOL0    Cl15965   5.873   1.759  11.773  0.2871 -0.4445  0.5297
  841MOL0     C15966   4.991   1.295  11.994  0.2165  0.4878 -0.0722
  841MOL0     C15967   4.860   1.279  11.965 -0.0024  0.0597 -1.2977
  841MOL0     O15968   4.670   1.451  11.698 -0.5932 -0.4394  0.4245
  841MOL0     C15969   4.397   1.454  11.678  0.8791 -0.3373  1.1866
  841MOL0     C15970   4.256   1.452  11.660  0.1187 -0.2061 -0.1006
  841MOL0     N15971   3.531   1.687  11.463  0.2285 -0.6594 -0.6460
  841MOL0     N15972   3.431   1.731  11.401  1.1308 -0.1475 -0.5014
  841MOL0     C15973   2.457   0.965  11.218  0.7738  1.4163 -0.2349
  841MOL0     C15974   2.404   0.836  11.207  0.4858 -1.5323  0.9195
  841MOL0     C15975   2.315   0.407  11.256 -0.2617  0.0664  0.8451
  841MOL0     C15976   2.233   0.379  11.143 -0.0584  0.0531 -0.5615
  841MOL0     C15977   2.124   0.288  11.152 -0.4029  0.4427  0.0377
  841MOL0     C15978   2.120   0.200  11.258  0.2157 -1.1358  0.2828
  841MOL0     O15979   2.027   0.104  11.245 -0.9066 -0.3739  0.2321
  841MOL0     C15980   2.014  -0.010  11.332  0.3108 -1.0724 -0.1549
  841MOL0     C15981   2.140  -0.110  11.317 -0.4639 -0.0704 -0.4949
  841MOL0     C15982   2.115  -0.227  11.406 -0.0747  0.0634  0.1932
  841MOL0     C15983   2.242  -0.295  11.450 -0.5055  0.3234 -0.0317
  841MOL0     C15984   2.335  -0.211  11.528  0.3417  0.5830 -0.3126
  841MOL0     C15985   2.401  -0.147  11.602 -0.3322  0.3707 -0.3649
  841MOL0     C15986   2.210   0.214  11.364  0.0466 -0.0149  0.2284
  841MOL0     C15987   2.302   0.314  11.363 -0.6997 -0.2490  0.1895
  841MOL0     C15988   2.385   0.312  11.489 -0.0430 -0.3291  0.0652
  841MOL0     H15989   2.621   0.690  10.996  0.5898  1.9527 -2.3095
  841MOL0     H15990   2.731   0.894  11.018  2.8272 -2.0719  3.5750
  841MOL0     H15991   2.739   1.147  10.992 -1.8931 -0.1237  1.0234
  841MOL0     H15992   2.810   1.080  11.139 -0.0802 -1.3652  1.2974
  841MOL0     H15993   2.709   1.369  11.111 -2.1376 -1.3999  2.9127
  841MOL0     H15994   2.800   1.306  11.243  2.5799  2.3210 -0.1946
  841MOL0     H15995   2.970   1.230  11.049 -0.5947 -0.0318  2.0616
  841MOL0     H15996   2.889   1.342  10.948  0.2829 -1.5573 -0.4103
  841MOL0     H15997   2.916   1.506  11.154 -1.4707 -0.1142  0.5560
  841MOL0     H15998   3.059   1.402  11.184 -0.9151 -0.7130  1.4541
  841MOL0     H15999   2.990   1.530  10.912 -1.4795  0.2122  0.0601
  841MOL0     H16000   3.134   1.438  10.937 -0.6710 -1.4746  0.6475
  841MOL0     H16001   3.180   1.677  10.937  0.5563  0.9217  0.3591
  841MOL0     H16002   3.072   1.698  11.076 -2.1568  0.2755 -4.0576
  841MOL0     H16003   3.340   1.531  11.045  0.6534  1.4861  0.2501
  841MOL0     H16004   3.240   1.523  11.191 -1.3299  0.8714  0.1714
  841MOL0     H16005   3.392   1.784  11.095  1.7800  1.1102  1.3496
  841MOL0     H16006   3.267   1.785  11.212 -0.1289 -0.3739 -0.0859
  841MOL0     H16007   3.586   1.549  11.175 -0.8236  1.9764 -1.4953
  841MOL0     H16008   3.812   1.594  11.420  0.7843 -1.0124 -0.3532
  841MOL0     H16009   3.744   1.444  11.362  2.3222  3.5187 -3.3419
  841MOL0     H16010   3.723   1.576  11.634  3.3588  0.1840 -1.1138
  841MOL0     H16011   3.630   1.429  11.597  0.1909 -0.5643  4.0479
  841MOL0     H16012   3.817   1.366  11.718 -1.1943  0.9459 -0.1707
  841MOL0     H16013   3.831   1.291  11.563  0.5381 -1.2119  1.9397
  841MOL0     H16014   4.003   1.473  11.492 -2.1899 -0.0833 -1.7046
  841MOL0     H16015   3.993   1.534  11.650 -1.2329  0.0816 -0.7282
  841MOL0     H16016   4.202   1.121  11.706  0.6551 -0.4409  4.7115
  841MOL0     H16017   4.478   1.098  11.893 -1.6062  3.3417  1.0855
  841MOL0     H16018   4.525   1.054  11.716  0.8997  1.6877 -0.7012
  841MOL0     H16019   4.380   0.997  11.785 -0.4518  0.9286  2.9989
  841MOL0     H16020   4.862   1.226  11.633 -1.3197 -1.1674  1.2262
  841MOL0     H16021   5.107   1.235  11.677  0.5890  0.3902 -0.1908
  841MOL0     H16022   5.289   1.159  11.783 -0.3478 -1.1046  2.6677
  841MOL0     H16023   5.309   1.336  11.752  0.6965 -0.9594 -2.5027
  841MOL0     H16024   5.438   1.176  11.971  2.0210 -0.0176  0.7643
  841MOL0     H16025   5.513   1.225  11.829 -0.0248  1.6256 -0.8691
  841MOL0     H16026   5.380   1.431  12.020 -0.4251 -1.8369  0.8266
  841MOL0     H16027   5.480   1.474  11.875  0.4292 -0.0269  0.8483
  841MOL0     H16028   5.685   1.390  11.986  2.1377 -2.4578  2.3690
  841MOL0     H16029   5.583   1.312  12.107 -4.2900  0.6481  1.4707
  841MOL0     H16030   5.500   1.520  12.181 -1.2117  1.0048 -1.0458
  841MOL0     H16031   5.686   1.503  12.181 -0.5439 -1.1134  1.2931
  841MOL0     H16032   5.596   1.725  12.115  1.3191 -2.3091  2.1528
  841MOL0     H16033   5.513   1.667  11.981  1.0972  1.2294 -2.0610
  841MOL0     H16034   5.707   1.571  11.874 -1.6089  0.6580 -0.0470
  841MOL0     H16035   5.827   1.610  11.994 -0.3991 -1.1958  1.3636
  841MOL0     H16036   5.768   1.847  11.957  2.2634 -0.9195  0.3759
  841MOL0     H16037   5.644   1.798  11.835 -0.7914  0.8040  1.5374
  841MOL0     H16038   5.016   1.335  12.092 -0.1273  0.7307 -0.0820
  841MOL0     H16039   4.788   1.292  12.045 -0.1186 -0.5953 -1.2954
  841MOL0     H16040   4.448   1.548  11.661  1.4806 -0.6027  1.4964
  841MOL0     H16041   4.208   1.546  11.633 -0.7532 -0.1968  1.3834
  841MOL0     H16042   2.406   1.041  11.276 -0.2544  1.0341 -0.6322
  841MOL0     H16043   2.323   0.813  11.276  1.8192 -1.4165  2.5693
  841MOL0     H16044   2.227   0.448  11.059  0.8545 -0.3884 -1.0111
  841MOL0     H16045   2.052   0.273  11.073  0.6809 -1.5854 -0.6209
  841MOL0     H16046   2.003   0.012  11.438 -0.1692  2.6692 -0.8317
  841MOL0     H16047   1.923  -0.062  11.303  0.7694 -2.5513  0.9787
  841MOL0     H16048   2.231  -0.057  11.345 -1.8708  0.9421  2.6570
  841MOL0     H16049   2.126  -0.144  11.213 -1.8143  1.1088 -0.7302
  841MOL0     H16050   2.053  -0.212  11.494 -3.3218 -3.2124 -1.2975
  841MOL0     H16051   2.044  -0.287  11.349 -1.4163  1.8782 -0.1223
  841MOL0     H16052   2.301  -0.335  11.366  0.0492 -1.4025  1.1069
  841MOL0     H16053   2.231  -0.378  11.521  0.9432  1.3046  1.4083
  841MOL0     H16054   2.463  -0.101  11.676 -1.3636  2.5793 -0.7922
  841MOL0     H16055   2.198   0.139  11.441  0.3525  0.7938  1.0909
  841MOL0     H16056   2.487   0.289  11.458  0.6642  2.0529  0.3958
  841MOL0     H16057   2.381   0.414  11.529 -0.4831 -0.2182 -0.2555
  841MOL0     H16058   2.359   0.248  11.573 -5.5596  1.2508 -0.0533
  842MOL0     O16059   8.121   3.726   7.485  0.0554  0.2846 -0.1491
  842MOL0     C16060   8.113   3.850   7.496  0.0773 -0.5134  0.1302
  842MOL0     O16061   8.183   3.931   7.580  0.3649 -0.1772  0.1688
  842MOL0     C16062   8.251   3.870   7.679  0.3605  0.4531  0.1763
  842MOL0     C16063   8.186   3.774   7.764  0.6399  0.4506  0.4706
  842MOL0     C16064   8.258   3.710   7.869  0.5194  0.3404 -0.0650
  842MOL0     C16065   8.393   3.737   7.889  0.3021  0.6657 -0.1165
  842MOL0     O16066   8.453   3.671   7.997 -0.5238  0.4235 -0.0201
  842MOL0     C16067   8.580   3.620   7.974  1.3861 -0.0475  1.0104
  842MOL0     C16068   8.602   3.496   8.058  0.6176  0.0287  0.1947
  842MOL0     C16069   8.744   3.462   8.101  0.3560 -0.5873 -0.8227
  842MOL0     C16070   8.742   3.334   8.181  0.8687 -0.9911  1.5087
  842MOL0     C16071   8.880   3.318   8.245  0.5074  0.4919 -0.7827
  842MOL0     C16072   8.876   3.198   8.345  0.4415  0.5053  0.8747
  842MOL0     C16073   9.012   3.156   8.391 -0.3233 -0.3109  0.7974
  842MOL0     C16074   9.001   3.051   8.503  0.2447  0.1679 -0.3244
  842MOL0     N16075   9.136   3.015   8.544  0.2435  0.1003 -0.7818
  842MOL0     C16076   9.225   3.098   8.605 -0.1271 -0.2324 -0.1329
  842MOL0     C16077   9.325   3.010   8.640 -0.2965 -0.1261 -0.3159
  842MOL0     C16078   9.448   3.060   8.711  0.1238  0.1923 -1.2317
  842MOL0     C16079   9.582   2.977   8.710  0.4222  0.3917  0.3861
  842MOL0     C16080   9.691   3.046   8.790  0.2936 -0.0894  0.6514
  842MOL0     C16081   9.814   2.963   8.805  0.2708 -0.5992 -0.2380
  842MOL0     O16082   9.893   2.963   8.689  0.7258 -0.1156  0.7495
  842MOL0     C16083  10.029   2.957   8.700  0.0604  0.1128 -1.2280
  842MOL0     C16084  10.086   2.895   8.813  0.4834 -0.6280 -0.4678
  842MOL0     C16085  10.227   2.877   8.827  0.0218  0.9648  0.6077
  842MOL0     C16086  10.288   2.804   8.941  0.5428  0.3926  0.3373
  842MOL0     C16087  10.299   2.912   8.705 -0.2313  0.2856  0.6877
  842MOL0     C16088  10.451   2.915   8.696 -0.4028  0.3195  1.1169
  842MOL0     O16089  10.520   2.929   8.811  0.1536 -0.3867 -0.8027
  842MOL0     C16090  10.656   2.931   8.827  0.1047  0.4215 -1.0357
  842MOL0     C16091  10.708   2.919   8.962  0.1995 -1.1290  0.4472
  842MOL0     C16092  10.843   2.927   8.990  0.0509 -0.1607  0.6577
  842MOL0     C16093  10.936   2.931   8.887 -1.3912  1.2404 -0.1645
  842MOL0     O16094  11.068   2.923   8.913 -0.0086 -0.1919 -0.4309
  842MOL0     C16095  11.127   2.818   8.997  0.0315 -0.0788 -0.1680
  842MOL0     C16096  11.261   2.767   8.956 -0.1187 -0.1705 -0.8637
  842MOL0     C16097  11.290   2.636   9.023  0.3071  0.1972 -0.0947
  842MOL0     C16098  11.413   2.572   8.959  0.6512  0.4445 -0.4207
  842MOL0     C16099  11.447   2.451   9.056 -0.1991 -0.0068 -0.2205
  842MOL0     C16100  11.512   2.326   8.990  0.7678 -0.1957  0.1825
  842MOL0     C16101  11.668   2.315   8.954  0.0105  1.1110  0.1198
  842MOL0     C16102  11.720   2.453   8.900  0.3362 -0.3884  0.8869
  842MOL0    Cl16103  11.882   2.438   8.833 -0.3069  0.8002 -0.0134
  842MOL0     C16104  10.886   2.940   8.759 -0.5163 -0.0300  0.2641
  842MOL0     C16105  10.750   2.934   8.726 -0.8165 -0.0745 -0.7294
  842MOL0     O16106  10.500   2.916   8.584 -0.4593 -1.0132 -0.0350
  842MOL0     C16107  10.242   2.955   8.583  0.2417  0.1601 -0.6536
  842MOL0     C16108  10.107   2.975   8.587  0.5530 -0.1140 -0.3508
  842MOL0     N16109   9.294   2.876   8.621  0.0105  0.3103  0.2386
  842MOL0     N16110   9.177   2.884   8.564 -0.2355 -0.0364 -0.5235
  842MOL0     C16111   8.456   3.842   7.813  0.9575 -0.1912  0.5915
  842MOL0     C16112   8.386   3.902   7.701 -0.8539 -0.7461 -0.1612
  842MOL0     C16113   8.042   3.925   7.392 -1.1076  0.3734  0.6280
  842MOL0     C16114   8.090   4.039   7.338 -1.6712 -0.1463  0.6073
  842MOL0     C16115   8.023   4.108   7.230 -0.2222  0.8512  0.4963
  842MOL0     C16116   7.909   4.050   7.184  0.2096 -0.3564 -0.3381
  842MOL0     O16117   7.833   4.095   7.087 -0.2837 -0.3868  0.5573
  842MOL0     C16118   7.875   4.205   7.001  1.1116  0.1205  1.0750
  842MOL0     C16119   7.771   4.225   6.881 -0.2344  0.4100 -0.1897
  842MOL0     C16120   7.805   4.341   6.793 -0.5541 -0.2426 -0.9906
  842MOL0     C16121   7.714   4.357   6.671 -0.2537  1.1584  0.4348
  842MOL0     C16122   7.746   4.491   6.614  0.0041  0.8617  0.6543
  842MOL0     C16123   7.793   4.597   6.568 -0.0659  0.3896  0.3153
  842MOL0     C16124   7.857   3.934   7.232 -0.9542  0.9886 -0.8345
  842MOL0     C16125   7.922   3.860   7.338 -1.0566  0.5517  0.2319
  842MOL0     C16126   7.860   3.733   7.381  0.3817 -0.7799 -0.0210
  842MOL0     H16127   8.085   3.745   7.737  1.8209 -3.1655 -0.5549
  842MOL0     H16128   8.206   3.640   7.933 -0.3364  1.6992  0.7827
  842MOL0     H16129   8.654   3.692   8.009  2.9479 -0.9669 -0.2630
  842MOL0     H16130   8.603   3.582   7.874 -1.0602  0.5881  0.1276
  842MOL0     H16131   8.557   3.504   8.158 -0.0167 -1.3659  0.0316
  842MOL0     H16132   8.545   3.420   8.005 -0.4503  1.5310 -0.9151
  842MOL0     H16133   8.805   3.435   8.014 -2.9421 -3.2296 -2.5765
  842MOL0     H16134   8.794   3.540   8.159 -2.1848  1.5680 -1.3462
  842MOL0     H16135   8.662   3.341   8.255  0.7120 -0.0491  1.2628
  842MOL0     H16136   8.713   3.251   8.117 -1.2521 -0.4134  1.6392
  842MOL0     H16137   8.913   3.410   8.294 -1.0550 -0.3065  1.9442
  842MOL0     H16138   8.948   3.283   8.166  0.3101 -2.3371  0.1809
  842MOL0     H16139   8.803   3.215   8.424  0.0461 -1.7269  1.0602
  842MOL0     H16140   8.827   3.107   8.308 -0.4604  1.7006 -1.0088
  842MOL0     H16141   9.072   3.245   8.413 -3.0467  2.0886 -0.7862
  842MOL0     H16142   9.055   3.100   8.307  2.1097 -2.2632  3.1460
  842MOL0     H16143   8.948   3.105   8.582 -0.8659 -1.2727 -0.0524
  842MOL0     H16144   8.939   2.965   8.476  2.2209 -1.0360 -1.2328
  842MOL0     H16145   9.221   3.203   8.629  1.0233 -0.5186  1.5303
  842MOL0     H16146   9.416   3.060   8.816 -1.6204 -4.0810 -1.5698
  842MOL0     H16147   9.465   3.156   8.661  0.1894  0.7590 -0.1681
  842MOL0     H16148   9.562   2.882   8.762  1.7167  1.0815  2.2413
  842MOL0     H16149   9.612   2.965   8.606  0.3937  1.2116  0.2801
  842MOL0     H16150   9.716   3.134   8.730  2.7772 -2.8790 -2.9107
  842MOL0     H16151   9.645   3.080   8.883  1.9993 -0.6637  1.7578
  842MOL0     H16152   9.863   3.021   8.884 -2.8601  0.5054  1.0385
  842MOL0     H16153   9.803   2.861   8.845  2.4752  0.0574  2.3888
  842MOL0     H16154  10.022   2.864   8.895  0.1047  1.2653  0.0073
  842MOL0     H16155  10.323   2.706   8.908 -0.6380  1.4131 -4.9010
  842MOL0     H16156  10.215   2.797   9.022 -2.2402  0.9146 -1.9311
  842MOL0     H16157  10.379   2.846   8.985  3.1041 -1.3935 -2.7745
  842MOL0     H16158  10.641   2.913   9.048  1.2732 -1.6778  1.2732
  842MOL0     H16159  10.883   2.927   9.091 -1.4048 -3.2264  1.3546
  842MOL0     H16160  11.136   2.851   9.100 -0.9655 -0.5495  0.0846
  842MOL0     H16161  11.056   2.734   9.000  1.2982 -1.1421  1.5120
  842MOL0     H16162  11.260   2.751   8.847  1.0328  0.3683 -0.9731
  842MOL0     H16163  11.333   2.846   8.981  0.3475  0.0279 -2.6554
  842MOL0     H16164  11.206   2.567   9.016  1.1753 -0.8248 -0.6691
  842MOL0     H16165  11.305   2.653   9.130  0.7543  1.6999 -0.3682
  842MOL0     H16166  11.502   2.636   8.955 -0.5195  2.1403  0.0494
  842MOL0     H16167  11.382   2.538   8.860 -1.8308 -0.3618  0.5631
  842MOL0     H16168  11.501   2.477   9.147 -0.9396  0.8366 -0.0089
  842MOL0     H16169  11.351   2.408   9.087 -0.6171  0.6454 -0.5935
  842MOL0     H16170  11.465   2.314   8.892  0.1327  0.9653  0.3321
  842MOL0     H16171  11.487   2.237   9.048 -1.9225  0.3310 -0.0580
  842MOL0     H16172  11.688   2.236   8.880 -1.1083  1.3312 -0.4482
  842MOL0     H16173  11.718   2.298   9.050  0.8136  5.7168  0.7314
  842MOL0     H16174  11.736   2.521   8.984  1.8850 -0.4947  0.6926
  842MOL0     H16175  11.659   2.498   8.821  1.4442 -0.9159 -0.2954
  842MOL0     H16176  10.962   2.944   8.682  0.8026 -0.9445  1.4647
  842MOL0     H16177  10.721   2.938   8.622 -1.7551 -0.9792 -0.5306
  842MOL0     H16178  10.287   2.989   8.491  0.8052  1.8058  0.1850
  842MOL0     H16179  10.062   3.007   8.493  2.9335  1.5120 -1.0323
  842MOL0     H16180   8.560   3.863   7.836  1.8300 -2.1020 -1.2620
  842MOL0     H16181   8.431   3.974   7.632 -0.7775  0.8601  1.4796
  842MOL0     H16182   8.181   4.088   7.370 -1.3397  1.1982 -2.1050
  842MOL0     H16183   8.063   4.204   7.199  2.3575  0.2411  1.6734
  842MOL0     H16184   7.879   4.296   7.062 -1.2733  1.3645 -0.4642
  842MOL0     H16185   7.972   4.187   6.955  0.4426  0.0514 -0.3656
  842MOL0     H16186   7.670   4.227   6.922  1.1886 -0.7537  3.8309
  842MOL0     H16187   7.768   4.137   6.816 -1.5148  1.4192 -1.5583
  842MOL0     H16188   7.779   4.426   6.857 -2.7667 -1.5531 -0.0524
  842MOL0     H16189   7.912   4.329   6.773 -0.9364 -4.3267 -1.6002
  842MOL0     H16190   7.611   4.342   6.707 -0.1846  0.3870  0.3276
  842MOL0     H16191   7.736   4.278   6.599  1.6163  0.7382  1.4162
  842MOL0     H16192   7.838   4.685   6.529  0.8138  1.3603  3.2180
  842MOL0     H16193   7.765   3.892   7.192 -0.8467  0.6800 -0.7607
  842MOL0     H16194   7.909   3.648   7.332  2.6272 -0.3341  1.2829
  842MOL0     H16195   7.874   3.723   7.489  0.7240 -0.9499 -0.0788
  842MOL0     H16196   7.754   3.744   7.359  0.7090  0.6378 -1.0292
  843MOL0     O16197   3.234  10.200   8.724  0.4275  0.0956  0.8573
  843MOL0     C16198   3.285  10.107   8.665  0.0016  0.0646 -0.1121
  843MOL0     O16199   3.227   9.986   8.639  0.1276  0.4498  0.0583
  843MOL0     C16200   3.103   9.951   8.670 -0.2639  0.2675 -0.5103
  843MOL0     C16201   3.073   9.817   8.689  0.7739  1.1372  0.3226
  843MOL0     C16202   2.944   9.768   8.705  0.6825 -0.1433 -0.9215
  843MOL0     C16203   2.842   9.860   8.708 -0.3198 -0.3644 -0.0179
  843MOL0     O16204   2.716   9.802   8.733  0.2016  0.1004  0.9206
  843MOL0     C16205   2.606   9.884   8.767 -0.5701 -0.1149 -0.6988
  843MOL0     C16206   2.536   9.951   8.647  0.7046  0.3650 -0.6223
  843MOL0     C16207   2.483   9.841   8.545 -0.3444 -0.2827  0.7073
  843MOL0     C16208   2.351   9.784   8.601 -0.5113 -0.9788  1.1172
  843MOL0     C16209   2.278   9.696   8.505 -0.7441 -0.0672 -0.0658
  843MOL0     C16210   2.151   9.649   8.561 -0.2392  0.2184  0.2816
  843MOL0     C16211   2.098   9.538   8.459 -0.9565 -0.3198 -1.0502
  843MOL0     C16212   1.947   9.521   8.474 -0.6850  0.0658 -0.6536
  843MOL0     N16213   1.903   9.394   8.411  0.3393 -1.0782 -0.2869
  843MOL0     C16214   1.893   9.386   8.276  0.1456 -0.5201 -0.2425
  843MOL0     C16215   1.852   9.259   8.255  0.7589  0.2103 -0.0680
  843MOL0     C16216   1.830   9.189   8.128  0.1017  0.1297 -0.3741
  843MOL0     C16217   1.953   9.097   8.084 -0.3301 -0.1360  0.5793
  843MOL0     C16218   1.979   8.978   8.180  0.6163 -0.5739  0.2243
  843MOL0     C16219   1.861   8.897   8.231 -0.2526 -0.4593 -0.6671
  843MOL0     O16220   1.815   8.806   8.136 -0.0263 -0.1579 -0.1726
  843MOL0     C16221   1.710   8.716   8.164 -0.1631 -0.5157 -1.1664
  843MOL0     C16222   1.650   8.718   8.288  0.5485 -0.5500  0.7533
  843MOL0     C16223   1.529   8.649   8.311 -0.3326  0.0834  0.1178
  843MOL0     C16224   1.472   8.662   8.454  0.4610  0.1060  0.2193
  843MOL0     C16225   1.470   8.568   8.206  0.2096  0.1245 -0.5657
  843MOL0     C16226   1.338   8.499   8.216 -0.0769  0.2200  0.1788
  843MOL0     O16227   1.269   8.509   8.337  0.3851 -0.7578  0.6774
  843MOL0     C16228   1.148   8.442   8.350 -0.4553 -0.5225  1.0117
  843MOL0     C16229   1.055   8.513   8.432  0.9870  0.0850 -1.1032
  843MOL0     C16230   0.922   8.460   8.462 -0.5377 -0.4476 -0.1656
  843MOL0     C16231   0.887   8.344   8.408  0.6654 -0.5164 -0.3337
  843MOL0     O16232   0.757   8.316   8.444 -0.6466 -0.7281 -0.6158
  843MOL0     C16233   0.748   8.171   8.464 -0.0620 -0.1951 -0.1436
  843MOL0     C16234   0.616   8.147   8.545 -0.7289 -0.5248 -0.1164
  843MOL0     C16235   0.495   8.157   8.451  0.2364 -0.4676  1.2598
  843MOL0     C16236   0.364   8.121   8.512 -0.2327 -0.1263  0.7459
  843MOL0     C16237   0.319   7.974   8.495 -0.0960  0.2318  0.9882
  843MOL0     C16238   0.166   7.967   8.528  0.8497  1.1307 -0.3637
  843MOL0     C16239   0.122   7.821   8.540 -0.5377  0.4267 -0.0612
  843MOL0     C16240  -0.007   7.813   8.613  0.6713 -0.0783  0.8094
  843MOL0    Cl16241  -0.141   7.913   8.549  0.1127 -0.0915 -0.7189
  843MOL0     C16242   0.969   8.280   8.317  0.4652  0.0004  0.4800
  843MOL0     C16243   1.103   8.317   8.302 -0.1422  0.0536  0.1912
  843MOL0     O16244   1.306   8.425   8.126  0.1282  0.4523 -0.3484
  843MOL0     C16245   1.544   8.564   8.088  0.0120 -0.3735 -0.1625
  843MOL0     C16246   1.661   8.638   8.067 -1.1733  0.8729 -0.2916
  843MOL0     N16247   1.845   9.199   8.379  0.3638  0.3243 -1.1148
  843MOL0     N16248   1.886   9.275   8.476  0.0283  0.5451  0.1862
  843MOL0     C16249   2.868   9.999   8.699  0.0000 -0.8990 -0.1567
  843MOL0     C16250   2.998  10.040   8.675 -0.8623  0.1254 -0.2717
  843MOL0     C16251   3.426  10.113   8.630  1.1427 -1.3303  0.1614
  843MOL0     C16252   3.465  10.065   8.503 -0.6963  0.6260  0.0838
  843MOL0     C16253   3.589  10.101   8.448 -0.0189  0.6770  0.5213
  843MOL0     C16254   3.682  10.188   8.510  1.0308 -0.7893  0.2574
  843MOL0     O16255   3.790  10.234   8.436 -0.0536 -0.7735 -0.2744
  843MOL0     C16256   3.837  10.368   8.453 -0.4302  0.0395 -0.1526
  843MOL0     C16257   3.838  10.446   8.324  1.4685  0.4871  0.0727
  843MOL0     C16258   3.725  10.407   8.221 -0.0360  0.0981 -0.7556
  843MOL0     C16259   3.572  10.442   8.270 -0.4176  0.6408  0.5404
  843MOL0     C16260   3.548  10.582   8.294 -0.1602 -0.8387  0.3685
  843MOL0     C16261   3.527  10.703   8.294  0.6607 -0.6010 -0.0876
  843MOL0     C16262   3.650  10.235   8.635 -0.4950 -0.1943  0.0789
  843MOL0     C16263   3.523  10.194   8.702  0.2541 -0.3098  0.7636
  843MOL0     C16264   3.504  10.241   8.845  0.0811 -0.3683  0.6167
  843MOL0     H16265   3.147   9.737   8.689  1.9937  2.2113 -0.6881
  843MOL0     H16266   2.925   9.663   8.721  1.6668 -0.2297 -0.2406
  843MOL0     H16267   2.640   9.965   8.833  0.5489  0.1447 -1.5589
  843MOL0     H16268   2.533   9.828   8.825 -0.4965  0.4256 -0.0724
  843MOL0     H16269   2.458  10.021   8.680  0.8568  0.9116 -1.3963
  843MOL0     H16270   2.608  10.017   8.599  0.3540  0.9410 -0.3754
  843MOL0     H16271   2.467   9.894   8.451  0.3410 -0.1265  0.6696
  843MOL0     H16272   2.557   9.761   8.533  1.1005  1.2124 -0.9832
  843MOL0     H16273   2.384   9.734   8.693  1.6239  1.8078  2.0155
  843MOL0     H16274   2.290   9.870   8.631 -0.7096 -0.0790 -1.6480
  843MOL0     H16275   2.336   9.607   8.480 -4.2302 -2.3795 -0.6587
  843MOL0     H16276   2.264   9.760   8.417 -0.1022 -0.7741 -0.6978
  843MOL0     H16277   2.177   9.602   8.655  0.2535  1.3165  0.7095
  843MOL0     H16278   2.089   9.739   8.568  0.2288  0.3979  4.0585
  843MOL0     H16279   2.153   9.445   8.478  0.0051  0.7064  1.8092
  843MOL0     H16280   2.127   9.570   8.359 -0.1052  1.4190 -0.2942
  843MOL0     H16281   1.913   9.522   8.579 -1.1588 -1.2730 -0.7789
  843MOL0     H16282   1.894   9.603   8.425 -1.9721  0.3443  1.0936
  843MOL0     H16283   1.908   9.458   8.196  0.5221 -1.9157 -1.4727
  843MOL0     H16284   1.822   9.257   8.042  3.1540 -0.4920 -1.2720
  843MOL0     H16285   1.742   9.124   8.135  0.5767 -0.4715  0.1106
  843MOL0     H16286   1.922   9.063   7.985 -2.9339 -0.0463  1.2966
  843MOL0     H16287   2.040   9.163   8.069  0.6748 -1.5182  0.0983
  843MOL0     H16288   2.048   8.909   8.131 -2.0917 -2.5088 -1.0886
  843MOL0     H16289   2.028   9.029   8.263 -1.4922  1.9801  0.0549
  843MOL0     H16290   1.894   8.844   8.320 -3.5959 -1.2786  0.2348
  843MOL0     H16291   1.785   8.966   8.268 -0.0725 -0.7058  0.1681
  843MOL0     H16292   1.685   8.773   8.375 -0.4135 -2.2843  2.2919
  843MOL0     H16293   1.446   8.567   8.501  1.0638  0.7068  1.8734
  843MOL0     H16294   1.378   8.719   8.456 -0.4334 -1.2520 -1.0466
  843MOL0     H16295   1.550   8.714   8.510  1.0362  0.3608 -0.8069
  843MOL0     H16296   1.087   8.606   8.478  1.1470 -0.4125 -0.1734
  843MOL0     H16297   0.870   8.519   8.537  0.0802  0.0468 -0.1169
  843MOL0     H16298   0.767   8.113   8.374 -1.2511  2.0302 -1.9552
  843MOL0     H16299   0.830   8.140   8.529  0.3885 -0.0958 -0.6576
  843MOL0     H16300   0.625   8.045   8.583  1.0851 -0.0565  0.8341
  843MOL0     H16301   0.600   8.221   8.624  3.3696 -0.4645  0.8658
  843MOL0     H16302   0.510   8.086   8.369 -0.0860  2.5228 -1.5987
  843MOL0     H16303   0.496   8.258   8.410  1.5184 -0.5045  1.1761
  843MOL0     H16304   0.291   8.198   8.486  0.3301  1.2587  2.9680
  843MOL0     H16305   0.383   8.134   8.619  1.8050  0.0270  0.4051
  843MOL0     H16306   0.336   7.935   8.394 -0.6950  1.7903  0.2566
  843MOL0     H16307   0.372   7.915   8.572 -2.3058 -0.8425  1.7797
  843MOL0     H16308   0.106   8.017   8.452  0.1521 -0.1365 -0.6749
  843MOL0     H16309   0.155   8.006   8.630  0.0500 -1.0443  0.4432
  843MOL0     H16310   0.190   7.766   8.606 -0.6231  0.9686  0.4812
  843MOL0     H16311   0.119   7.776   8.440 -3.0238  1.0564 -0.3255
  843MOL0     H16312   0.012   7.849   8.714 -1.2870 -1.0278  1.5659
  843MOL0     H16313  -0.034   7.707   8.624 -0.0015  0.1111  1.0024
  843MOL0     H16314   0.924   8.202   8.255 -0.1644  0.9468 -0.2817
  843MOL0     H16315   1.168   8.259   8.237 -0.9028 -1.0329  0.3881
  843MOL0     H16316   1.509   8.502   8.005  2.5043 -0.9801 -0.8236
  843MOL0     H16317   1.712   8.632   7.972 -0.0688 -3.4397  0.3451
  843MOL0     H16318   2.787  10.070   8.701 -0.0511 -0.9158 -1.1077
  843MOL0     H16319   3.018  10.146   8.672  0.2080 -0.0562 -0.0499
  843MOL0     H16320   3.399  10.008   8.439 -2.0186  1.8711  0.2989
  843MOL0     H16321   3.612  10.082   8.344  1.3330 -2.1992  1.2362
  843MOL0     H16322   3.773  10.422   8.524 -0.6576  1.9765 -1.7367
  843MOL0     H16323   3.935  10.373   8.501 -0.8405  2.7338  0.5558
  843MOL0     H16324   3.929  10.424   8.266  2.0398 -1.2210  1.5518
  843MOL0     H16325   3.836  10.555   8.337  3.8668  0.7331 -0.9455
  843MOL0     H16326   3.733  10.462   8.127  0.4635 -1.7867 -1.8512
  843MOL0     H16327   3.743  10.302   8.199  2.1976  0.4361 -0.7476
  843MOL0     H16328   3.533  10.364   8.336  1.2237 -2.4521 -1.8741
  843MOL0     H16329   3.505  10.427   8.185  2.7421  1.6177 -2.3432
  843MOL0     H16330   3.502  10.806   8.306  0.1771 -0.9765  2.7547
  843MOL0     H16331   3.721  10.285   8.700 -2.2427 -0.2021  2.1004
  843MOL0     H16332   3.486  10.150   8.902  3.7010 -2.8518 -1.7872
  843MOL0     H16333   3.594  10.291   8.882 -1.7330  2.5543  1.4289
  843MOL0     H16334   3.426  10.316   8.862 -0.6910 -1.3235  1.4195
  844MOL0     O16335   7.336   7.704   8.003 -0.1921  0.4292 -0.5650
  844MOL0     C16336   7.292   7.607   8.062 -0.9718  0.2919 -0.0302
  844MOL0     O16337   7.253   7.610   8.200 -0.6992  0.1098 -0.1272
  844MOL0     C16338   7.238   7.738   8.249 -0.5165  0.3279 -0.0449
  844MOL0     C16339   7.160   7.834   8.198  0.3672  0.2532 -0.3195
  844MOL0     C16340   7.135   7.955   8.263  0.9325  0.1046  0.3850
  844MOL0     C16341   7.188   7.981   8.395 -0.3655  0.3253  0.1451
  844MOL0     O16342   7.176   8.103   8.444 -0.1519  0.0149 -0.6643
  844MOL0     C16343   7.040   8.127   8.473  0.0658  1.2013 -1.2519
  844MOL0     C16344   7.040   8.275   8.504 -0.5811 -0.3655  0.7000
  844MOL0     C16345   6.893   8.301   8.546  0.1990 -0.2216  0.0539
  844MOL0     C16346   6.871   8.442   8.615 -0.1664  0.1049  0.3013
  844MOL0     C16347   6.729   8.488   8.583 -0.4795  0.4162 -0.3710
  844MOL0     C16348   6.706   8.629   8.651 -0.0894  1.4692  0.8648
  844MOL0     C16349   6.707   8.625   8.800 -0.0309 -0.2219 -0.8641
  844MOL0     C16350   6.724   8.755   8.867 -0.1068  0.0759  0.8413
  844MOL0     N16351   6.860   8.807   8.830  0.5388  0.1708 -0.4110
  844MOL0     C16352   6.981   8.761   8.873  0.0059 -0.8831  0.2398
  844MOL0     C16353   7.070   8.856   8.833 -0.4019 -0.5431  0.4851
  844MOL0     C16354   7.221   8.856   8.851 -0.2655 -0.0792  0.0556
  844MOL0     C16355   7.282   8.780   8.738  0.1724  0.7215 -0.3712
  844MOL0     C16356   7.304   8.627   8.763 -0.4029  1.3420  0.3422
  844MOL0     C16357   7.391   8.572   8.650  0.7055  0.4256 -0.8399
  844MOL0     O16358   7.308   8.557   8.533  0.1745  0.4731  0.1698
  844MOL0     C16359   7.369   8.481   8.430  0.2063 -0.3107 -0.6983
  844MOL0     C16360   7.396   8.344   8.430  0.9194  0.2979 -0.3305
  844MOL0     C16361   7.462   8.274   8.331  0.3784  0.6156  0.4096
  844MOL0     C16362   7.500   8.132   8.353  0.3647 -0.2086 -0.1173
  844MOL0     C16363   7.510   8.346   8.215 -0.0398 -0.0169 -0.2662
  844MOL0     C16364   7.582   8.296   8.103  0.0355 -0.0144 -0.6225
  844MOL0     O16365   7.673   8.378   8.040 -0.4269  0.3657 -0.4926
  844MOL0     C16366   7.721   8.344   7.924  0.4007 -0.1849  0.8206
  844MOL0     C16367   7.650   8.316   7.804  0.0500 -0.3244  0.2665
  844MOL0     C16368   7.723   8.290   7.687  0.7575  0.1910 -0.7786
  844MOL0     C16369   7.857   8.312   7.670 -0.6349 -1.4674 -0.3297
  844MOL0     O16370   7.939   8.309   7.560 -0.4548  0.5596  0.3748
  844MOL0     C16371   7.896   8.252   7.435  0.1886 -0.1146  0.0476
  844MOL0     C16372   8.027   8.251   7.339  1.0706  0.0479 -0.4593
  844MOL0     C16373   7.993   8.195   7.196  0.1022 -0.7861 -0.5823
  844MOL0     C16374   7.978   8.047   7.201  0.1756 -0.3055 -0.1314
  844MOL0     C16375   7.982   8.008   7.049 -0.1129  0.0256  0.6981
  844MOL0     C16376   7.962   7.853   7.048 -0.8042 -0.6548 -0.2372
  844MOL0     C16377   7.937   7.811   6.903  0.1274  0.4024 -0.0372
  844MOL0     C16378   7.908   7.660   6.900  0.9533 -0.2083 -0.1759
  844MOL0    Cl16379   8.064   7.576   6.907 -0.0730  0.0846  0.4315
  844MOL0     C16380   7.929   8.349   7.792  0.0359  0.2756  0.0706
  844MOL0     C16381   7.853   8.364   7.915  0.2451  0.5801 -0.0115
  844MOL0     O16382   7.553   8.181   8.058 -0.1577  0.2799  0.3430
  844MOL0     C16383   7.475   8.483   8.216  0.0718 -0.5163  1.3500
  844MOL0     C16384   7.407   8.552   8.313 -0.7920 -0.4302  0.2125
  844MOL0     N16385   7.001   8.955   8.771  0.6236  0.1498  0.6552
  844MOL0     N16386   6.876   8.931   8.780  0.3785 -0.5688 -0.3715
  844MOL0     C16387   7.270   7.880   8.446 -1.3443 -0.2028 -0.5066
  844MOL0     C16388   7.287   7.760   8.378  0.5029  0.5094  0.2432
  844MOL0     C16389   7.307   7.477   7.987  0.4781  0.0248 -0.3856
  844MOL0     C16390   7.286   7.476   7.849 -0.5592  0.1654 -0.1487
  844MOL0     C16391   7.306   7.362   7.771  0.2743  0.2310  0.1509
  844MOL0     C16392   7.338   7.238   7.827 -0.1473 -0.2552 -0.5749
  844MOL0     O16393   7.354   7.137   7.733 -0.3942 -0.5809  0.5320
  844MOL0     C16394   7.350   7.005   7.778  0.5043 -0.0837  0.4383
  844MOL0     C16395   7.488   6.935   7.775 -0.3304 -0.2759  0.2904
  844MOL0     C16396   7.529   6.860   7.647 -0.2850  0.4350  0.2351
  844MOL0     C16397   7.542   6.960   7.537  0.2830  0.5086  0.7393
  844MOL0     C16398   7.540   6.882   7.411  0.6816  0.8206  0.2839
  844MOL0     C16399   7.523   6.808   7.314  0.3190 -0.3565 -0.3149
  844MOL0     C16400   7.355   7.238   7.968 -0.2088 -0.4055  0.6122
  844MOL0     C16401   7.340   7.357   8.052 -0.0177 -0.6359  0.7113
  844MOL0     C16402   7.370   7.345   8.196  0.1360  0.0070 -0.3726
  844MOL0     H16403   7.110   7.816   8.103  0.0511  2.2152 -0.5739
  844MOL0     H16404   7.087   8.033   8.203  0.8593  0.1184  0.4604
  844MOL0     H16405   7.018   8.061   8.558 -1.3219 -1.0424 -3.2252
  844MOL0     H16406   6.968   8.094   8.397 -0.3355  0.2013 -0.4555
  844MOL0     H16407   7.121   8.298   8.574  0.0999  2.7794 -0.8878
  844MOL0     H16408   7.065   8.339   8.418  1.4012  1.1797  2.3335
  844MOL0     H16409   6.847   8.302   8.446  2.2678  3.7963 -1.0918
  844MOL0     H16410   6.856   8.226   8.616 -1.3449  2.1516  1.9103
  844MOL0     H16411   6.880   8.421   8.722  0.0136  0.9692  0.4612
  844MOL0     H16412   6.950   8.509   8.582  3.2094 -3.7585 -0.1989
  844MOL0     H16413   6.656   8.411   8.610  2.0764 -2.0876 -0.1850
  844MOL0     H16414   6.727   8.497   8.474  1.9134  3.3016 -0.2991
  844MOL0     H16415   6.778   8.704   8.619  0.0528  0.3118 -1.7823
  844MOL0     H16416   6.611   8.677   8.624  0.6999  2.3976 -0.3390
  844MOL0     H16417   6.785   8.563   8.845  0.4613  0.8752 -0.1532
  844MOL0     H16418   6.612   8.584   8.836  1.0336 -1.7703  0.3660
  844MOL0     H16419   6.643   8.821   8.837  3.8090  3.1146 -5.0073
  844MOL0     H16420   6.718   8.738   8.975 -2.5849 -1.4727  0.5249
  844MOL0     H16421   7.010   8.678   8.936 -0.9613  0.9338  3.2746
  844MOL0     H16422   7.245   8.805   8.945  2.4775  0.3249 -0.3582
  844MOL0     H16423   7.251   8.960   8.860 -3.8805  1.2924 -1.7640
  844MOL0     H16424   7.224   8.789   8.646  1.1545 -0.4298 -1.1306
  844MOL0     H16425   7.381   8.821   8.716 -0.5093  2.0482 -1.0601
  844MOL0     H16426   7.348   8.620   8.863 -2.5841  2.4447  1.4630
  844MOL0     H16427   7.206   8.579   8.758  1.6332 -3.4249  0.8577
  844MOL0     H16428   7.477   8.635   8.625  0.4734 -0.0547 -3.0058
  844MOL0     H16429   7.435   8.477   8.683  0.1789 -0.9297 -3.6885
  844MOL0     H16430   7.363   8.283   8.514  2.7972 -1.9761 -1.1064
  844MOL0     H16431   7.594   8.109   8.303  1.5058  1.7130  1.0273
  844MOL0     H16432   7.427   8.058   8.319  1.1291 -1.7042  1.3805
  844MOL0     H16433   7.510   8.101   8.457  0.0131 -1.7086 -0.4971
  844MOL0     H16434   7.545   8.291   7.815  0.4785 -2.9928 -0.8391
  844MOL0     H16435   7.679   8.246   7.598  1.6138  0.1362 -1.1890
  844MOL0     H16436   7.855   8.153   7.456 -0.2737  0.0688  0.0284
  844MOL0     H16437   7.818   8.317   7.394 -1.0130 -0.3970  1.7799
  844MOL0     H16438   8.070   8.352   7.340  0.8691  0.2248 -2.9366
  844MOL0     H16439   8.087   8.176   7.392 -0.8765 -0.5370  1.0469
  844MOL0     H16440   8.079   8.219   7.134  0.0303  0.6827 -0.1601
  844MOL0     H16441   7.905   8.241   7.148 -0.8787 -1.2861  0.6627
  844MOL0     H16442   7.882   8.026   7.249  0.6962 -1.6641  0.3420
  844MOL0     H16443   8.055   7.988   7.250 -1.3229 -1.4624  0.9294
  844MOL0     H16444   7.905   8.053   6.986 -2.0914 -3.4906  0.3341
  844MOL0     H16445   8.078   8.024   6.999 -0.6091 -1.2678 -0.7635
  844MOL0     H16446   7.873   7.831   7.108  1.0492 -0.9569  2.6254
  844MOL0     H16447   8.049   7.811   7.101 -0.2926  0.3458 -0.2604
  844MOL0     H16448   8.022   7.823   6.836  0.3850 -0.4233  0.1393
  844MOL0     H16449   7.847   7.866   6.874 -1.3502 -1.6069  0.4716
  844MOL0     H16450   7.866   7.654   6.799  1.2272 -0.4389 -0.2780
  844MOL0     H16451   7.838   7.626   6.976 -1.1570  2.3177 -0.8348
  844MOL0     H16452   8.036   8.361   7.782 -0.0725 -0.1427 -2.3654
  844MOL0     H16453   7.900   8.403   8.005  2.1417 -0.2433 -0.5958
  844MOL0     H16454   7.525   8.546   8.144  0.5666 -1.4792  0.8359
  844MOL0     H16455   7.394   8.660   8.314  0.2564 -0.2865  1.2786
  844MOL0     H16456   7.307   7.899   8.546  4.9154  3.7817 -3.0134
  844MOL0     H16457   7.342   7.679   8.426  2.4411  2.3840  1.3558
  844MOL0     H16458   7.255   7.571   7.806  0.9196  0.5550 -0.4164
  844MOL0     H16459   7.288   7.372   7.664  0.9219 -1.2446 -0.1274
  844MOL0     H16460   7.310   6.994   7.879  0.6150 -0.2690  0.4635
  844MOL0     H16461   7.281   6.945   7.719  1.7660 -0.8951 -0.2723
  844MOL0     H16462   7.497   6.871   7.862  0.7366  0.3396  0.6563
  844MOL0     H16463   7.564   7.012   7.792  1.3915 -1.2633 -2.3649
  844MOL0     H16464   7.623   6.809   7.671  0.6241  1.9999  0.1049
  844MOL0     H16465   7.447   6.789   7.639  1.6959 -1.9015 -0.6055
  844MOL0     H16466   7.635   7.016   7.525  0.4705 -0.1169 -0.9666
  844MOL0     H16467   7.457   7.029   7.534  0.2251  0.4048 -0.5271
  844MOL0     H16468   7.497   6.752   7.226  1.4898 -1.9428  0.2940
  844MOL0     H16469   7.370   7.140   8.013  1.4841 -0.7920 -0.6909
  844MOL0     H16470   7.375   7.237   8.213 -1.5685 -0.4186 -2.2490
  844MOL0     H16471   7.463   7.400   8.212 -0.0030  0.5060 -1.2525
  844MOL0     H16472   7.307   7.393   8.271  1.3265 -0.3207  0.8925
  845MOL0     O16473   9.356   7.060  11.095  0.4621  0.0809 -0.1841
  845MOL0     C16474   9.412   7.150  11.032 -0.1979 -0.1604  0.0852
  845MOL0     O16475   9.374   7.193  10.907  0.6252 -0.0691 -0.3093
  845MOL0     C16476   9.300   7.108  10.828  0.1507 -0.7876 -0.3565
  845MOL0     C16477   9.189   7.162  10.763  0.4206 -0.5434  1.2315
  845MOL0     C16478   9.121   7.081  10.669 -0.0138  1.0667 -0.3620
  845MOL0     C16479   9.160   6.948  10.646 -0.2190  0.7845  0.1062
  845MOL0     O16480   9.095   6.879  10.549  0.1573 -0.3481 -0.6822
  845MOL0     C16481   9.134   6.752  10.505  0.8021  0.2308  0.2177
  845MOL0     C16482   9.008   6.686  10.443  1.0498  0.9112 -0.8183
  845MOL0     C16483   9.033   6.545  10.374  0.1532 -0.0296  0.0910
  845MOL0     C16484   8.931   6.514  10.267  0.9527 -0.7065  0.8284
  845MOL0     C16485   9.000   6.421  10.162  0.2072  0.7322 -0.8866
  845MOL0     C16486   9.066   6.494  10.043  0.0074 -0.5952  0.2704
  845MOL0     C16487   9.172   6.398   9.962  0.7307 -0.2422  0.2169
  845MOL0     C16488   9.315   6.436   9.998 -0.0833  1.1873  0.2877
  845MOL0     N16489   9.404   6.327   9.966 -0.2677 -0.4938  0.9948
  845MOL0     C16490   9.403   6.196  10.026  0.1099 -0.1640  0.9285
  845MOL0     C16491   9.518   6.138   9.976  0.4969  0.2388  0.3637
  845MOL0     C16492   9.556   5.998  10.000 -0.8253 -0.4104  0.0524
  845MOL0     C16493   9.660   5.991  10.095 -0.2468 -0.7213 -0.3036
  845MOL0     C16494   9.699   5.838  10.125 -0.1256 -0.1917 -0.1508
  845MOL0     C16495   9.790   5.835  10.248 -0.6862  0.8690  0.0948
  845MOL0     O16496   9.932   5.824  10.210 -0.0781 -0.4670  0.0693
  845MOL0     C16497   9.995   5.698  10.211  0.6044  0.0727  0.8282
  845MOL0     C16498   9.935   5.577  10.249  0.0750 -0.8740 -1.2108
  845MOL0     C16499  10.003   5.463  10.242  0.1894  0.6010  1.1129
  845MOL0     C16500   9.939   5.333  10.288 -0.6635 -0.8369  0.1119
  845MOL0     C16501  10.140   5.464  10.185 -0.3846 -0.4312 -0.1703
  845MOL0     C16502  10.228   5.348  10.175  0.0204 -0.0484 -0.1427
  845MOL0     O16503  10.337   5.368  10.099 -0.3715 -0.4390  0.1112
  845MOL0     C16504  10.444   5.279  10.083  1.0168  0.2561  0.0633
  845MOL0     C16505  10.427   5.158  10.021 -0.3626 -0.2618 -0.2548
  845MOL0     C16506  10.531   5.064  10.013 -0.0916 -0.5369 -0.1065
  845MOL0     C16507  10.659   5.113  10.047 -0.0091  0.1563 -0.8745
  845MOL0     O16508  10.770   5.036  10.031 -0.6146 -0.5947  0.1836
  845MOL0     C16509  10.769   4.920   9.951  0.0521  0.3460 -0.0776
  845MOL0     C16510  10.910   4.874   9.900  0.5673  0.3084 -0.1475
  845MOL0     C16511  10.994   4.817  10.015 -0.0368 -0.0566 -0.2678
  845MOL0     C16512  11.112   4.745   9.969 -0.5518 -0.0274 -0.7623
  845MOL0     C16513  11.195   4.696  10.086  1.3591 -0.2017 -0.2394
  845MOL0     C16514  11.311   4.613  10.034  0.1073  0.3378 -1.2898
  845MOL0     C16515  11.361   4.514  10.146  0.0553  0.0060  0.3605
  845MOL0     C16516  11.468   4.412  10.096 -0.3744 -0.1033  0.2639
  845MOL0    Cl16517  11.479   4.286  10.215  0.3390  0.0894 -0.0380
  845MOL0     C16518  10.679   5.234  10.105  0.4246 -0.4550  0.8221
  845MOL0     C16519  10.564   5.322  10.124 -0.1982 -0.1843  0.2073
  845MOL0     O16520  10.205   5.239  10.230 -0.0051  0.6160  0.2095
  845MOL0     C16521  10.190   5.583  10.131 -1.0445  0.6450 -0.6077
  845MOL0     C16522  10.124   5.699  10.146  0.0117 -0.4330  0.0904
  845MOL0     N16523   9.597   6.238   9.915  0.6647  0.0912  0.4263
  845MOL0     N16524   9.528   6.344   9.920 -0.0508  0.3785  0.6186
  845MOL0     C16525   9.267   6.896  10.723  0.0804  0.0057 -0.4488
  845MOL0     C16526   9.333   6.972  10.812  0.3304  0.0136 -0.2431
  845MOL0     C16527   9.528   7.211  11.103 -0.4106  0.3618  0.3296
  845MOL0     C16528   9.627   7.111  11.140 -0.1098  0.3202  0.3200
  845MOL0     C16529   9.754   7.148  11.185 -1.0992  0.2386 -0.6894
  845MOL0     C16530   9.784   7.290  11.194  0.4636 -0.5515 -0.3639
  845MOL0     O16531   9.903   7.349  11.232 -0.9565 -0.3199  0.0456
  845MOL0     C16532  10.007   7.271  11.290 -0.3230  0.1727  1.2244
  845MOL0     C16533  10.122   7.266  11.186  0.0428 -0.2073  0.5987
  845MOL0     C16534  10.140   7.139  11.096 -0.7142 -0.6220  0.2194
  845MOL0     C16535  10.164   7.010  11.179  0.1680  0.5879 -0.6398
  845MOL0     C16536  10.206   6.909  11.089  0.8401  0.2746 -0.4911
  845MOL0     C16537  10.224   6.816  11.008 -0.7530  0.4492 -0.5549
  845MOL0     C16538   9.686   7.386  11.146  1.2052 -0.1509  0.5743
  845MOL0     C16539   9.558   7.347  11.112  0.3328 -0.7508 -0.7295
  845MOL0     C16540   9.454   7.447  11.073 -0.4965  0.4018  0.5675
  845MOL0     H16541   9.176   7.269  10.773  3.3957  0.0524 -0.1548
  845MOL0     H16542   9.042   7.130  10.614 -0.2575  0.2343 -0.7710
  845MOL0     H16543   9.168   6.687  10.587  2.5046  0.8820  0.0647
  845MOL0     H16544   9.224   6.755  10.443  0.7438  0.0359  0.1208
  845MOL0     H16545   8.937   6.683  10.526  1.0925  0.7013 -0.7881
  845MOL0     H16546   8.977   6.757  10.365  0.2680  0.2957 -1.0850
  845MOL0     H16547   9.137   6.537  10.340  1.4728  0.4894  3.6399
  845MOL0     H16548   9.030   6.467  10.451  1.0391  0.3014  0.4711
  845MOL0     H16549   8.860   6.447  10.316  1.6182 -3.0058 -1.1498
  845MOL0     H16550   8.896   6.601  10.211  0.1344 -1.0191  0.8459
  845MOL0     H16551   8.910   6.367  10.130 -1.6488  0.6108  3.7009
  845MOL0     H16552   9.064   6.349  10.213 -3.4318 -1.4781  1.0403
  845MOL0     H16553   8.981   6.527   9.983  1.5213  0.9538 -1.1093
  845MOL0     H16554   9.104   6.585  10.090  1.0079 -0.1869 -1.2304
  845MOL0     H16555   9.156   6.399   9.853 -0.9015 -1.1133  0.4016
  845MOL0     H16556   9.152   6.292   9.983  0.6887 -0.4893 -0.9609
  845MOL0     H16557   9.333   6.527   9.942 -0.5180  0.4181 -1.1554
  845MOL0     H16558   9.313   6.459  10.105  0.5015 -1.3311  0.9160
  845MOL0     H16559   9.320   6.146  10.073  0.0264  1.2182  2.3566
  845MOL0     H16560   9.593   5.954   9.907 -0.4097 -0.5563  0.2846
  845MOL0     H16561   9.468   5.944  10.037 -0.9496 -0.5826 -0.4837
  845MOL0     H16562   9.737   6.055  10.050 -0.3987  0.7558  1.4356
  845MOL0     H16563   9.623   6.045  10.182  0.8862  0.1646 -0.3345
  845MOL0     H16564   9.617   5.773  10.157  0.5273 -1.0594 -0.2044
  845MOL0     H16565   9.744   5.797  10.033  0.3040 -1.2476  0.5140
  845MOL0     H16566   9.798   5.925  10.309  2.0993  1.8184 -1.4960
  845MOL0     H16567   9.752   5.757  10.314 -0.6106 -0.9875 -1.9330
  845MOL0     H16568   9.834   5.571  10.290  0.5547  0.2907  0.2398
  845MOL0     H16569  10.010   5.276  10.349  0.0440  1.8158  1.9952
  845MOL0     H16570   9.902   5.271  10.207 -3.5554  0.6666  0.1585
  845MOL0     H16571   9.856   5.358  10.355  0.1358  0.9110  0.5114
  845MOL0     H16572  10.329   5.121   9.994  0.1028 -0.8253 -1.2711
  845MOL0     H16573  10.522   4.960   9.982  1.7033 -0.5465 -0.7305
  845MOL0     H16574  10.723   4.843  10.013 -1.5432  1.3630  0.0761
  845MOL0     H16575  10.711   4.948   9.862 -0.7612  0.9973  0.6272
  845MOL0     H16576  10.892   4.796   9.826  0.4297 -0.7427  0.9648
  845MOL0     H16577  10.977   4.956   9.872 -0.0727  0.8728 -0.0597
  845MOL0     H16578  10.939   4.745  10.077 -0.5220  0.9700  0.5403
  845MOL0     H16579  11.025   4.897  10.083  1.1509 -0.1354 -0.6967
  845MOL0     H16580  11.163   4.822   9.910  2.9602 -2.1231 -0.7382
  845MOL0     H16581  11.081   4.665   9.900  0.0363 -2.1932  1.3539
  845MOL0     H16582  11.217   4.782  10.149  1.3469  0.1219 -0.6770
  845MOL0     H16583  11.127   4.631  10.143 -0.2507  1.0054 -0.7141
  845MOL0     H16584  11.395   4.679  10.009  1.6720 -1.7287 -1.6810
  845MOL0     H16585  11.290   4.562   9.940 -2.3614  1.3393 -1.3539
  845MOL0     H16586  11.269   4.460  10.168 -0.7892  1.9798  2.0400
  845MOL0     H16587  11.399   4.555  10.240  1.0919 -3.8151  1.8070
  845MOL0     H16588  11.557   4.472  10.071 -2.3053  2.9690  0.2995
  845MOL0     H16589  11.429   4.366  10.005 -0.3222  0.8895 -0.2761
  845MOL0     H16590  10.777   5.276  10.124  0.8328 -1.3425  0.7247
  845MOL0     H16591  10.579   5.425  10.156  1.5150 -0.6685  1.1072
  845MOL0     H16592  10.289   5.604  10.093  0.0678 -0.4051  1.5358
  845MOL0     H16593  10.178   5.786  10.111 -1.4085  1.3752  2.1265
  845MOL0     H16594   9.322   6.806  10.699 -0.9455 -0.9880  0.7654
  845MOL0     H16595   9.425   6.928  10.848 -0.1741  0.0928  1.1824
  845MOL0     H16596   9.615   7.004  11.129  0.6488  0.2405  0.2296
  845MOL0     H16597   9.829   7.075  11.215 -1.6351  0.9357  2.7410
  845MOL0     H16598  10.034   7.314  11.388 -2.0014  0.3671  1.6317
  845MOL0     H16599   9.972   7.171  11.315 -1.1118  0.0178 -0.4167
  845MOL0     H16600  10.211   7.273  11.250  1.2108 -0.6666 -0.9177
  845MOL0     H16601  10.110   7.355  11.124  1.2604  0.0830  0.7385
  845MOL0     H16602  10.043   7.124  11.048 -0.9238  1.2176 -0.0027
  845MOL0     H16603  10.223   7.151  11.025  2.5839 -2.0591  3.5179
  845MOL0     H16604  10.077   6.980  11.238  1.1479 -1.9657 -0.3755
  845MOL0     H16605  10.241   7.025  11.256 -3.0510  1.3928  2.7337
  845MOL0     H16606  10.224   6.732  10.942 -2.0638 -0.1836  0.1841
  845MOL0     H16607   9.712   7.491  11.145 -3.4497  1.2062  1.2413
  845MOL0     H16608   9.466   7.541  11.127  1.4880  0.5625 -0.0540
  845MOL0     H16609   9.445   7.470  10.966 -1.5924 -0.0241  0.5629
  845MOL0     H16610   9.356   7.414  11.106 -0.3586 -2.0957 -1.2440
  846MOL0     O16611   9.449  10.224   1.469  0.3440 -0.1894 -0.3895
  846MOL0     C16612   9.377  10.174   1.566 -0.1125  0.5441  0.0142
  846MOL0     O16613   9.406  10.185   1.699  0.0598 -0.0554 -0.2651
  846MOL0     C16614   9.521  10.248   1.733  0.0591  0.1618  0.4222
  846MOL0     C16615   9.628  10.180   1.802 -0.2063 -1.1068 -0.0605
  846MOL0     C16616   9.756  10.233   1.842  0.6037  0.3137  0.2079
  846MOL0     C16617   9.774  10.362   1.801  0.6815 -0.1871 -0.3562
  846MOL0     O16618   9.879  10.445   1.834  0.0457  0.6313  0.9084
  846MOL0     C16619  10.007  10.394   1.841  0.2505 -0.7680 -0.2470
  846MOL0     C16620  10.090  10.463   1.945  0.4758 -0.8989  0.2222
  846MOL0     C16621  10.234  10.403   1.950  0.0388 -0.1571 -0.1606
  846MOL0     C16622  10.322  10.492   2.033 -0.4118 -0.2610 -0.2504
  846MOL0     C16623  10.454  10.441   2.039 -0.1885  0.1967 -0.2757
  846MOL0     C16624  10.522  10.502   2.164 -0.0027  0.9724  0.3443
  846MOL0     C16625  10.660  10.455   2.181  1.4501  0.2346  0.5182
  846MOL0     C16626  10.687  10.318   2.244 -0.1802 -0.1673 -0.9950
  846MOL0     N16627  10.657  10.339   2.388 -0.1172 -0.4445  1.4878
  846MOL0     C16628  10.752  10.392   2.468 -0.3363  0.0899 -0.5752
  846MOL0     C16629  10.694  10.400   2.585 -0.9258 -0.6017 -0.1552
  846MOL0     C16630  10.764  10.446   2.712 -0.5414  0.1025  0.0280
  846MOL0     C16631  10.779  10.603   2.705  1.5575  0.7518  0.1672
  846MOL0     C16632  10.630  10.673   2.701  0.2602 -0.4679  0.0507
  846MOL0     C16633  10.646  10.823   2.743 -0.8556  0.4139  0.4667
  846MOL0     O16634  10.657  10.907   2.635 -0.1948  0.0419  0.1566
  846MOL0     C16635  10.687  11.043   2.652 -1.2732  0.8471 -0.0010
  846MOL0     C16636  10.682  11.113   2.780 -0.2528 -0.1134  0.6290
  846MOL0     C16637  10.690  11.248   2.792  0.9794 -0.5506  0.3298
  846MOL0     C16638  10.668  11.307   2.935  0.7064 -0.0322  0.4268
  846MOL0     C16639  10.717  11.328   2.675 -0.5167 -0.4150 -0.2055
  846MOL0     C16640  10.719  11.479   2.674  0.0641  0.2224 -0.5613
  846MOL0     O16641  10.730  11.524   2.549  0.3522  0.3624 -0.2620
  846MOL0     C16642  10.761  11.656   2.517 -0.1747  0.3451  0.1379
  846MOL0     C16643  10.824  11.676   2.393  0.5290  0.5990 -0.3830
  846MOL0     C16644  10.859  11.800   2.356 -0.0108  0.5700 -0.0358
  846MOL0     C16645  10.837  11.913   2.432  0.7772 -0.6090  0.4942
  846MOL0     O16646  10.881  12.033   2.380  0.1022  1.1306  0.2704
  846MOL0     C16647  10.905  12.144   2.465 -0.0105 -0.8786  0.3199
  846MOL0     C16648  10.811  12.255   2.443 -0.0841  0.0648  0.6668
  846MOL0     C16649  10.802  12.306   2.292 -0.1846 -0.0409 -0.5581
  846MOL0     C16650  10.744  12.444   2.266 -0.1780  0.4873 -0.5375
  846MOL0     C16651  10.725  12.466   2.121  0.2610  0.0603  0.8142
  846MOL0     C16652  10.674  12.612   2.093 -0.0514  0.5898  0.5812
  846MOL0     C16653  10.647  12.613   1.937  0.5191 -0.1347 -0.3442
  846MOL0     C16654  10.609  12.755   1.903  1.1088 -0.6144  1.4871
  846MOL0    Cl16655  10.577  12.751   1.722 -0.1043 -0.0682 -0.3037
  846MOL0     C16656  10.769  11.897   2.549 -0.4191  0.2851 -0.6247
  846MOL0     C16657  10.732  11.775   2.591  1.4662  1.3576 -0.0937
  846MOL0     O16658  10.730  11.543   2.776  0.8284 -0.3524 -0.6714
  846MOL0     C16659  10.725  11.263   2.546  0.9666 -0.7292  0.5016
  846MOL0     C16660  10.706  11.124   2.538 -0.0179 -0.1376  1.0441
  846MOL0     N16661  10.560  10.376   2.575  0.0725 -0.3388  0.0014
  846MOL0     N16662  10.540  10.346   2.453  0.1157  0.2132  0.4972
  846MOL0     C16663   9.670  10.432   1.735 -0.5806  0.5530 -0.1150
  846MOL0     C16664   9.549  10.380   1.691  0.6913  1.7003  0.4082
  846MOL0     C16665   9.253  10.095   1.522 -0.0990  0.0628  0.1530
  846MOL0     C16666   9.258  10.023   1.404 -0.2251 -0.2130  0.4989
  846MOL0     C16667   9.152   9.952   1.352  0.7352 -0.4056  0.4947
  846MOL0     C16668   9.030   9.957   1.425  0.4387 -0.9487  0.2403
  846MOL0     O16669   8.917   9.895   1.373  0.4007  0.2438  0.7036
  846MOL0     C16670   8.922   9.821   1.248  0.2943 -0.6199  0.6106
  846MOL0     C16671   8.788   9.758   1.217  0.3390 -1.0563  0.7183
  846MOL0     C16672   8.732   9.653   1.318 -0.8263 -0.1267  0.3390
  846MOL0     C16673   8.598   9.587   1.279  0.2875 -0.2878  0.1961
  846MOL0     C16674   8.568   9.479   1.370  1.0878  0.5086 -0.4220
  846MOL0     C16675   8.540   9.372   1.427  0.3085  0.1694  0.8649
  846MOL0     C16676   9.021  10.025   1.544 -0.6309 -0.1820 -0.6125
  846MOL0     C16677   9.125  10.096   1.594 -0.0573 -0.2161  1.1427
  846MOL0     C16678   9.105  10.174   1.725 -0.3671 -0.2986 -0.2299
  846MOL0     H16679   9.604  10.078   1.830  0.5196 -1.0112  0.9415
  846MOL0     H16680   9.832  10.175   1.893 -2.6371 -2.6623  2.0981
  846MOL0     H16681  10.044  10.413   1.740  2.4048 -1.3782  0.3675
  846MOL0     H16682  10.011  10.286   1.860 -0.5817 -0.6594  0.6132
  846MOL0     H16683  10.103  10.571   1.934  1.9866 -1.1755 -0.9303
  846MOL0     H16684  10.042  10.437   2.040 -0.4080  0.0156  0.0480
  846MOL0     H16685  10.250  10.300   1.985  0.9162  0.8368  2.6189
  846MOL0     H16686  10.273  10.410   1.848 -0.0644 -1.6294 -0.3312
  846MOL0     H16687  10.328  10.592   1.987 -0.9625 -0.7928 -1.5309
  846MOL0     H16688  10.271  10.497   2.129  1.3915 -1.3170  0.8211
  846MOL0     H16689  10.512  10.460   1.948  0.4127 -0.6329 -0.0803
  846MOL0     H16690  10.449  10.337   2.072 -1.8521  0.6031  0.8681
  846MOL0     H16691  10.522  10.609   2.142  0.8452  0.4223 -2.6894
  846MOL0     H16692  10.460  10.478   2.251 -0.0796 -1.1033 -0.2366
  846MOL0     H16693  10.714  10.523   2.248  0.6952  0.7018  0.6624
  846MOL0     H16694  10.707  10.455   2.082  1.1034 -0.3354  0.3536
  846MOL0     H16695  10.620  10.238   2.212 -0.1083 -1.0562  0.8903
  846MOL0     H16696  10.788  10.283   2.220 -0.4903 -0.4353 -1.9348
  846MOL0     H16697  10.856  10.414   2.449  0.2650 -1.1426  1.0496
  846MOL0     H16698  10.857  10.391   2.729 -0.9237 -0.8078 -0.7288
  846MOL0     H16699  10.699  10.421   2.797  0.6071 -0.8471  0.6501
  846MOL0     H16700  10.835  10.628   2.796  0.1293  1.4152  0.9065
  846MOL0     H16701  10.839  10.648   2.626  0.0439  1.2194 -0.7624
  846MOL0     H16702  10.582  10.669   2.603 -1.3976  1.8618  0.6820
  846MOL0     H16703  10.560  10.622   2.767 -0.4934 -1.2489 -1.3253
  846MOL0     H16704  10.547  10.848   2.782 -2.0645  0.3691 -2.3070
  846MOL0     H16705  10.716  10.835   2.826 -1.4154  1.2420  0.8375
  846MOL0     H16706  10.661  11.055   2.869  1.9432 -3.5260 -0.8463
  846MOL0     H16707  10.599  11.391   2.922 -1.6241 -2.0415 -1.0984
  846MOL0     H16708  10.758  11.341   2.987 -1.8108  1.1254  4.4516
  846MOL0     H16709  10.618  11.235   3.001  0.5188 -0.3463 -0.0527
  846MOL0     H16710  10.867  11.591   2.340 -0.4111 -1.5708  2.1359
  846MOL0     H16711  10.920  11.807   2.266 -0.5087 -1.0582 -0.5216
  846MOL0     H16712  10.904  12.112   2.569 -0.3606  1.0055  0.9214
  846MOL0     H16713  11.002  12.185   2.440 -1.2628  1.3522 -1.2013
  846MOL0     H16714  10.713  12.223   2.479  0.2459 -0.1711  1.3619
  846MOL0     H16715  10.850  12.339   2.502 -2.0607  0.6532  1.2102
  846MOL0     H16716  10.746  12.229   2.236  2.5206 -3.1606  0.6859
  846MOL0     H16717  10.899  12.307   2.241 -0.9973 -0.6893 -2.2271
  846MOL0     H16718  10.805  12.523   2.310  1.1365  1.1797 -3.4038
  846MOL0     H16719  10.641  12.445   2.304 -0.6838 -2.6958 -1.5340
  846MOL0     H16720  10.818  12.450   2.065 -1.5577 -0.3543 -2.3027
  846MOL0     H16721  10.649  12.394   2.089 -0.2394  2.0368 -2.9325
  846MOL0     H16722  10.744  12.688   2.127 -1.4016  2.4513 -0.5862
  846MOL0     H16723  10.580  12.618   2.149 -1.1955  0.8356 -1.2704
  846MOL0     H16724  10.560  12.554   1.907 -0.1986  0.9195 -0.3800
  846MOL0     H16725  10.739  12.590   1.881  0.4549 -0.4190 -0.3328
  846MOL0     H16726  10.682  12.831   1.932  0.0873  1.5553 -1.1918
  846MOL0     H16727  10.510  12.775   1.944  0.3654 -2.5285  0.7596
  846MOL0     H16728  10.732  11.977   2.612  0.6298 -2.0174  3.1766
  846MOL0     H16729  10.687  11.769   2.689  1.2879  0.3578 -0.2219
  846MOL0     H16730  10.728  11.308   2.448  1.6314 -2.0470 -0.1077
  846MOL0     H16731  10.721  11.074   2.443 -3.0197 -2.0158  1.4353
  846MOL0     H16732   9.676  10.538   1.710  3.4231  0.6893  0.6743
  846MOL0     H16733   9.473  10.430   1.632  0.7600 -0.0388 -1.2398
  846MOL0     H16734   9.351  10.032   1.348  0.3217 -2.4615  0.9395
  846MOL0     H16735   9.155   9.904   1.255 -2.1290 -0.0147  0.1123
  846MOL0     H16736   8.956   9.884   1.165 -0.6920  0.9329  1.3434
  846MOL0     H16737   8.989   9.736   1.266 -1.3641 -2.2021 -0.3496
  846MOL0     H16738   8.790   9.728   1.112 -0.0331  0.8765  0.1091
  846MOL0     H16739   8.719   9.844   1.214  1.3732 -0.1850 -2.6930
  846MOL0     H16740   8.803   9.571   1.332 -1.8140 -1.0726 -0.0550
  846MOL0     H16741   8.714   9.709   1.410 -5.0574 -1.0995  0.3201
  846MOL0     H16742   8.605   9.562   1.173  1.1339  0.3648  0.0865
  846MOL0     H16743   8.509   9.650   1.292 -4.0699 -5.0631 -2.7884
  846MOL0     H16744   8.534   9.285   1.490  3.2268 -1.0326 -0.3509
  846MOL0     H16745   8.926  10.026   1.597 -0.4857  2.4384 -0.2717
  846MOL0     H16746   9.176  10.147   1.803 -1.3568  3.3502  2.2019
  846MOL0     H16747   9.120  10.282   1.714 -2.2056  0.1199  0.9712
  846MOL0     H16748   9.004  10.160   1.765 -0.9352 -0.0927 -1.5588
  847MOL0     O16749   3.616   0.326   2.682  0.6441  0.2350  0.6460
  847MOL0     C16750   3.572   0.288   2.794 -0.6450  0.2146 -0.2264
  847MOL0     O16751   3.640   0.300   2.916  0.3705  0.2462  0.2366
  847MOL0     C16752   3.755   0.374   2.921 -0.6582 -0.2174  1.4967
  847MOL0     C16753   3.880   0.314   2.902  0.3291  0.3273 -0.4891
  847MOL0     C16754   4.002   0.377   2.925 -0.8509 -0.2508  0.3453
  847MOL0     C16755   4.014   0.514   2.974  0.9341  0.6914  0.1024
  847MOL0     O16756   4.130   0.588   2.993  0.0630  0.8020 -0.3891
  847MOL0     C16757   4.256   0.525   2.959 -0.2253 -0.0637 -0.3319
  847MOL0     C16758   4.366   0.603   3.028  0.4996  0.9378  0.2059
  847MOL0     C16759   4.505   0.542   3.022 -0.2760  0.9693  0.9392
  847MOL0     C16760   4.614   0.646   3.057 -0.6692  0.9699  0.0773
  847MOL0     C16761   4.744   0.591   3.114  0.7446  0.1527 -0.2191
  847MOL0     C16762   4.862   0.702   3.140 -0.3733  0.5962 -0.6951
  847MOL0     C16763   4.991   0.642   3.197  0.3185 -0.5387 -0.0572
  847MOL0     C16764   5.110   0.740   3.189 -0.2220 -0.6316  0.2318
  847MOL0     N16765   5.177   0.754   3.058  0.6944 -0.1172  0.1635
  847MOL0     C16766   5.293   0.685   3.026 -0.1659  0.6404  0.2711
  847MOL0     C16767   5.337   0.751   2.919 -0.6184 -0.0674  0.0691
  847MOL0     C16768   5.462   0.734   2.837 -0.1781  0.6616 -0.5700
  847MOL0     C16769   5.534   0.611   2.874  0.3297  0.5450 -1.0715
  847MOL0     C16770   5.671   0.622   2.806 -0.3805 -0.1565  0.4378
  847MOL0     C16771   5.738   0.480   2.792  0.0670 -0.9000 -0.1431
  847MOL0     O16772   5.856   0.478   2.714 -0.1819 -0.3795  0.3639
  847MOL0     C16773   5.942   0.379   2.742  0.2461  0.1658  0.4896
  847MOL0     C16774   5.903   0.248   2.765  0.5030 -0.5727  0.7815
  847MOL0     C16775   5.993   0.152   2.796 -0.5079 -0.0213  0.3016
  847MOL0     C16776   5.937   0.013   2.825  0.1749 -0.3799 -0.2141
  847MOL0     C16777   6.125   0.181   2.797 -0.0996 -0.3674 -0.2458
  847MOL0     C16778   6.230   0.084   2.825  1.3437 -0.4125 -0.0967
  847MOL0     O16779   6.337   0.094   2.751 -0.4837  0.3772 -0.4335
  847MOL0     C16780   6.452   0.021   2.786  1.2015  0.3357  0.2689
  847MOL0     C16781   6.495   0.012   2.921 -0.9768  0.0530  0.3948
  847MOL0     C16782   6.608  -0.064   2.948 -0.4434 -0.0043  0.2678
  847MOL0     C16783   6.678  -0.138   2.851  0.0766  0.2754 -0.5800
  847MOL0     O16784   6.795  -0.212   2.889 -0.0983 -0.4969 -0.0080
  847MOL0     C16785   6.765  -0.316   2.970  0.6005  0.4638 -0.2917
  847MOL0     C16786   6.873  -0.415   2.958  0.1159 -0.3600  0.3392
  847MOL0     C16787   6.874  -0.472   2.813  1.1326  0.6834 -0.1505
  847MOL0     C16788   7.015  -0.483   2.760 -0.8505  0.5221 -0.0012
  847MOL0     C16789   7.006  -0.534   2.628  0.4253  0.2147  1.0957
  847MOL0     C16790   7.143  -0.522   2.555 -0.5451  0.2465  0.2965
  847MOL0     C16791   7.180  -0.377   2.503 -0.4989 -0.5953  0.0146
  847MOL0     C16792   7.193  -0.373   2.354  0.1302  0.5446 -0.1874
  847MOL0    Cl16793   7.223  -0.207   2.295  0.0966 -0.2228 -0.0450
  847MOL0     C16794   6.644  -0.114   2.713 -0.0808  0.3721 -0.1177
  847MOL0     C16795   6.528  -0.037   2.689 -0.2355  0.5166  0.4346
  847MOL0     O16796   6.216   0.008   2.917 -0.0703  0.7550  0.1375
  847MOL0     C16797   6.168   0.314   2.770 -0.9142  1.2204 -1.8312
  847MOL0     C16798   6.079   0.404   2.749  0.9185  0.2357  0.5132
  847MOL0     N16799   5.241   0.840   2.878 -0.7792 -0.2309  0.8903
  847MOL0     N16800   5.141   0.845   2.959 -0.5983 -0.2987 -0.2625
  847MOL0     C16801   3.888   0.573   2.991 -0.8512 -0.3675  0.5911
  847MOL0     C16802   3.766   0.508   2.970  0.7451 -0.3266  0.7255
  847MOL0     C16803   3.441   0.217   2.800 -0.1820  0.1696  0.2993
  847MOL0     C16804   3.406   0.171   2.919 -0.7713  0.1247 -0.5823
  847MOL0     C16805   3.284   0.108   2.938 -0.3336 -0.2076 -0.9321
  847MOL0     C16806   3.201   0.075   2.837 -0.4238 -0.2177 -0.1114
  847MOL0     O16807   3.092  -0.002   2.871  0.0908  0.3747 -0.0160
  847MOL0     C16808   3.015  -0.053   2.766  0.0251 -0.2949  0.2859
  847MOL0     C16809   2.901  -0.118   2.836 -0.1315 -0.4823  0.1615
  847MOL0     C16810   2.829  -0.033   2.941  0.5383 -0.1919 -0.4966
  847MOL0     C16811   2.681  -0.039   2.938 -0.1825 -1.2522 -0.6675
  847MOL0     C16812   2.628  -0.175   2.950 -0.6330  0.0575  0.4554
  847MOL0     C16813   2.600  -0.291   2.954  0.0862  0.9130  0.4924
  847MOL0     C16814   3.239   0.117   2.710  0.2383 -0.5812 -0.2861
  847MOL0     C16815   3.353   0.196   2.686 -0.2042  0.1776  0.4525
  847MOL0     C16816   3.372   0.249   2.547  0.2530  0.2395  0.8415
  847MOL0     H16817   3.873   0.210   2.871 -3.2199 -0.1617  1.4663
  847MOL0     H16818   4.086   0.312   2.906 -0.7864 -0.5789  1.6402
  847MOL0     H16819   4.262   0.545   2.852 -0.9969  2.8605  0.0890
  847MOL0     H16820   4.269   0.417   2.973  2.6515 -0.1487 -2.6299
  847MOL0     H16821   4.363   0.705   2.990 -2.1091  1.8878  2.6717
  847MOL0     H16822   4.327   0.604   3.130  1.8536  0.3918  0.7537
  847MOL0     H16823   4.507   0.470   3.105 -1.4672 -0.1181  0.0647
  847MOL0     H16824   4.512   0.489   2.926 -2.1407 -0.4999  1.5382
  847MOL0     H16825   4.650   0.708   2.974  2.1564  2.4799  2.2447
  847MOL0     H16826   4.567   0.718   3.125  1.2460  1.9704  0.4094
  847MOL0     H16827   4.794   0.518   3.049  0.8595  1.7593 -2.0306
  847MOL0     H16828   4.717   0.542   3.208 -1.2951  1.3106 -0.1494
  847MOL0     H16829   4.884   0.747   3.043 -0.9079 -0.7845 -1.4982
  847MOL0     H16830   4.834   0.773   3.218 -0.5654  1.5835 -1.6362
  847MOL0     H16831   5.024   0.551   3.145  3.3186 -0.4929  1.5247
  847MOL0     H16832   4.971   0.616   3.301 -1.2847  0.3473 -0.1101
  847MOL0     H16833   5.079   0.839   3.223  0.2555 -0.1632 -0.6874
  847MOL0     H16834   5.190   0.714   3.259  3.2571 -2.8301 -4.1024
  847MOL0     H16835   5.334   0.605   3.087  2.6127  1.0128 -0.9860
  847MOL0     H16836   5.525   0.823   2.848  0.8238 -0.1450  0.3610
  847MOL0     H16837   5.426   0.728   2.734  2.1840 -0.1795 -1.4170
  847MOL0     H16838   5.560   0.601   2.980  0.6523 -3.8856 -1.3665
  847MOL0     H16839   5.485   0.518   2.844  2.6203 -0.5711 -1.5949
  847MOL0     H16840   5.666   0.665   2.706  4.5021 -0.0921 -0.0338
  847MOL0     H16841   5.734   0.686   2.868  1.5487 -3.0342  1.6860
  847MOL0     H16842   5.749   0.455   2.898 -3.4297 -0.8163  0.3524
  847MOL0     H16843   5.663   0.421   2.739  1.4198 -0.7918 -2.3192
  847MOL0     H16844   5.802   0.208   2.771 -0.3720  1.2956 -0.4535
  847MOL0     H16845   5.939  -0.004   2.933 -0.3194 -2.3451 -0.4765
  847MOL0     H16846   6.001  -0.063   2.778  0.9345  1.1738 -1.8648
  847MOL0     H16847   5.835  -0.006   2.791  0.1484  2.3198 -1.9408
  847MOL0     H16848   6.448   0.057   3.008  0.1352 -3.1783  2.8675
  847MOL0     H16849   6.643  -0.069   3.051  0.8677 -1.6752 -0.2148
  847MOL0     H16850   6.747  -0.283   3.072 -0.4940 -3.0009  0.7619
  847MOL0     H16851   6.674  -0.371   2.945  2.2783 -2.1226 -1.2306
  847MOL0     H16852   6.975  -0.387   2.987 -0.0143  0.3573  0.1340
  847MOL0     H16853   6.844  -0.491   3.032  0.3105 -0.1827  0.6033
  847MOL0     H16854   6.818  -0.399   2.754 -0.7065 -1.1530 -0.7932
  847MOL0     H16855   6.818  -0.565   2.821  2.5254 -0.3859 -2.1055
  847MOL0     H16856   7.062  -0.561   2.821 -0.3186  0.8957  0.0771
  847MOL0     H16857   7.065  -0.386   2.770 -0.6621  0.3388  1.0389
  847MOL0     H16858   6.991  -0.640   2.649 -1.0933 -0.3402 -2.1842
  847MOL0     H16859   6.931  -0.487   2.563  1.3600 -0.9975 -0.9428
  847MOL0     H16860   7.145  -0.600   2.478  0.5443 -0.7205  1.2781
  847MOL0     H16861   7.222  -0.548   2.626 -1.1351  1.8837  1.6223
  847MOL0     H16862   7.278  -0.351   2.544 -0.4547  1.9778 -1.5160
  847MOL0     H16863   7.108  -0.302   2.537 -0.0918  0.0751 -0.5792
  847MOL0     H16864   7.124  -0.426   2.288  1.5046 -1.5376 -0.0376
  847MOL0     H16865   7.286  -0.427   2.335  0.1079  0.3828  0.1519
  847MOL0     H16866   6.690  -0.175   2.636  1.0811  0.2300  0.6616
  847MOL0     H16867   6.497  -0.016   2.587  2.8779  1.2441 -0.4715
  847MOL0     H16868   6.271   0.345   2.783 -0.6309 -0.7936  1.8967
  847MOL0     H16869   6.112   0.507   2.740  0.5734  0.3561  0.5854
  847MOL0     H16870   3.893   0.677   3.022 -1.3645 -0.5559  1.3200
  847MOL0     H16871   3.683   0.577   2.978  1.6158  0.8911 -0.4017
  847MOL0     H16872   3.473   0.185   3.003  0.7126 -0.8704 -1.5456
  847MOL0     H16873   3.266   0.072   3.039  3.7230 -1.3605 -0.4672
  847MOL0     H16874   2.972   0.020   2.697 -0.2533 -0.3567  0.3936
  847MOL0     H16875   3.057  -0.138   2.711 -2.1570 -1.4171  0.2530
  847MOL0     H16876   2.937  -0.217   2.864  1.1476  0.1990  0.9762
  847MOL0     H16877   2.827  -0.127   2.755  0.4396  0.4634 -0.4872
  847MOL0     H16878   2.872  -0.071   3.034 -0.9843 -0.4568  0.1363
  847MOL0     H16879   2.849   0.073   2.924  1.0658 -0.1193  0.4813
  847MOL0     H16880   2.646   0.013   2.849  0.3152  1.6086  0.6767
  847MOL0     H16881   2.642   0.035   3.010 -0.5345 -1.2866 -0.8182
  847MOL0     H16882   2.576  -0.396   2.951 -0.1605  0.9535  0.9809
  847MOL0     H16883   3.183   0.101   2.619 -0.3264 -3.4060  0.4644
  847MOL0     H16884   3.385   0.358   2.549 -0.1075  0.2792  1.0271
  847MOL0     H16885   3.458   0.196   2.505 -1.3854 -1.6203 -0.3502
  847MOL0     H16886   3.284   0.219   2.489  0.7358 -2.4340  1.3880
  848MOL0     O16887   7.242   8.817  10.615  0.2817  0.4896  0.3678
  848MOL0     C16888   7.283   8.826  10.501 -0.1468  0.1055 -0.9572
  848MOL0     O16889   7.409   8.837  10.464 -0.1014 -0.1979 -0.2615
  848MOL0     C16890   7.507   8.826  10.554  0.6545  0.4429  0.1682
  848MOL0     C16891   7.590   8.937  10.552 -0.2923 -0.4384 -0.3697
  848MOL0     C16892   7.698   8.943  10.632  0.2663 -0.1086  0.3976
  848MOL0     C16893   7.728   8.836  10.723  0.6283 -0.3991 -0.2367
  848MOL0     O16894   7.837   8.835  10.808 -0.1690 -0.3966 -0.0448
  848MOL0     C16895   7.913   8.955  10.811  0.9015 -0.5243  0.5723
  848MOL0     C16896   8.014   8.965  10.930  0.4999 -0.4102 -0.3169
  848MOL0     C16897   7.931   8.987  11.054  0.4872  0.2958  0.1573
  848MOL0     C16898   7.987   9.078  11.166  0.6812 -0.7412 -0.6319
  848MOL0     C16899   8.050   8.996  11.280 -0.5866  0.5600  0.4110
  848MOL0     C16900   7.941   8.946  11.371 -0.6763  0.0673 -0.4468
  848MOL0     C16901   7.977   8.833  11.469  0.2444  0.0836  0.0852
  848MOL0     C16902   7.847   8.782  11.544  0.1038 -0.8809 -0.3118
  848MOL0     N16903   7.885   8.672  11.633 -0.0447 -0.4442  0.5221
  848MOL0     C16904   7.939   8.558  11.589 -0.0847 -0.4055  0.4653
  848MOL0     C16905   7.923   8.465  11.688  0.0308 -0.2140 -0.3613
  848MOL0     C16906   7.946   8.309  11.675 -0.0863  0.0391 -0.2029
  848MOL0     C16907   7.815   8.228  11.682  0.0737  0.5430  0.4584
  848MOL0     C16908   7.850   8.079  11.663  0.4494  0.1158  0.7371
  848MOL0     C16909   7.725   7.986  11.639  0.2099  0.1580 -0.3608
  848MOL0     O16910   7.769   7.861  11.612  0.1351  0.3608  0.4217
  848MOL0     C16911   7.680   7.756  11.608  0.8170 -0.7356 -0.6534
  848MOL0     C16912   7.543   7.766  11.636  1.0767  0.2407 -0.2976
  848MOL0     C16913   7.449   7.654  11.636  1.0035 -0.8356  1.1636
  848MOL0     C16914   7.302   7.685  11.636  0.1753 -0.6281  0.9543
  848MOL0     C16915   7.498   7.520  11.616  0.0536 -0.3488  0.5535
  848MOL0     C16916   7.425   7.397  11.640  0.2411  0.5837 -0.6602
  848MOL0     O16917   7.496   7.282  11.636  0.4777  0.7477 -0.1374
  848MOL0     C16918   7.433   7.172  11.691  0.3156 -1.0693 -0.1693
  848MOL0     C16919   7.335   7.096  11.620  0.1856 -0.5651  0.1309
  848MOL0     C16920   7.271   6.987  11.682 -0.0859 -0.4848  0.3375
  848MOL0     C16921   7.301   6.952  11.818  0.5139 -0.1726  0.9576
  848MOL0     O16922   7.242   6.859  11.893  0.0445  0.0488 -0.1811
  848MOL0     C16923   7.174   6.753  11.840  0.2957 -0.1683  0.0036
  848MOL0     C16924   7.251   6.624  11.809  0.5231 -0.2583 -0.0776
  848MOL0     C16925   7.358   6.655  11.699 -0.3416 -0.5353  0.7705
  848MOL0     C16926   7.438   6.542  11.654  0.1635 -0.2939  1.1453
  848MOL0     C16927   7.514   6.536  11.523 -0.5469 -0.1216  0.6749
  848MOL0     C16928   7.586   6.675  11.494 -0.1339  0.0649  1.2595
  848MOL0     C16929   7.680   6.664  11.371 -0.2216 -0.5096  0.3431
  848MOL0     C16930   7.765   6.790  11.367  1.0459 -0.2962 -0.0624
  848MOL0    Cl16931   7.899   6.779  11.479  0.0225 -0.3130  0.3688
  848MOL0     C16932   7.392   7.033  11.886 -0.4393  0.5666  0.0210
  848MOL0     C16933   7.452   7.145  11.820 -0.3340  0.3120 -0.1970
  848MOL0     O16934   7.309   7.401  11.672  0.0541  1.2026 -0.0242
  848MOL0     C16935   7.636   7.510  11.583  0.8005 -0.2224 -0.0176
  848MOL0     C16936   7.718   7.624  11.574 -0.2090 -0.2350 -0.2862
  848MOL0     N16937   7.866   8.537  11.794 -0.3363 -0.2875 -0.3796
  848MOL0     N16938   7.851   8.664  11.760 -0.6398  0.0623  0.6078
  848MOL0     C16939   7.642   8.727  10.723 -0.4432  0.3372  0.1770
  848MOL0     C16940   7.531   8.719  10.633 -0.1199 -0.6250 -0.0583
  848MOL0     C16941   7.192   8.804  10.384  0.2984  0.2556 -0.6666
  848MOL0     C16942   7.240   8.741  10.266 -0.1683  0.1693  0.2461
  848MOL0     C16943   7.160   8.717  10.156 -0.5350  0.3635 -0.2024
  848MOL0     C16944   7.024   8.757  10.153 -0.7166 -0.5665  0.2707
  848MOL0     O16945   6.953   8.721  10.044 -0.2661  0.5495  0.0271
  848MOL0     C16946   6.821   8.776  10.019  0.4772 -0.1910 -0.0632
  848MOL0     C16947   6.750   8.692   9.920 -0.0235 -0.0219 -0.0417
  848MOL0     C16948   6.705   8.560   9.989 -0.0374 -0.0592  0.3616
  848MOL0     C16949   6.583   8.487   9.919 -0.3821  0.6122  1.1160
  848MOL0     C16950   6.639   8.413   9.800 -0.0576 -0.4703 -0.1646
  848MOL0     C16951   6.680   8.348   9.712 -0.0732 -0.1405  0.7365
  848MOL0     C16952   6.978   8.823  10.266  0.2152 -0.1293  0.0480
  848MOL0     C16953   7.059   8.851  10.377 -0.2790  0.0231  0.8974
  848MOL0     C16954   7.003   8.948  10.466 -0.5986 -0.8535 -0.6149
  848MOL0     H16955   7.555   9.021  10.492 -1.7180  0.4117  1.5351
  848MOL0     H16956   7.741   9.043  10.635 -0.4203  0.2814 -1.3554
  848MOL0     H16957   7.850   9.043  10.825  3.3279  1.2355  1.0077
  848MOL0     H16958   7.970   8.947  10.718  0.7298  0.0221  0.4156
  848MOL0     H16959   8.061   8.866  10.939  0.7651 -0.5078 -2.2280
  848MOL0     H16960   8.084   9.046  10.910  1.2615 -1.3000 -1.3797
  848MOL0     H16961   7.843   9.050  11.034  0.9734  2.8293  4.5867
  848MOL0     H16962   7.900   8.890  11.094 -2.4947  1.1631  0.1977
  848MOL0     H16963   8.053   9.155  11.125 -1.1006  0.8535 -0.6562
  848MOL0     H16964   7.904   9.138  11.206 -1.1005 -2.6102 -1.3052
  848MOL0     H16965   8.116   9.062  11.338 -1.2226  1.7375 -0.1916
  848MOL0     H16966   8.107   8.914  11.236 -1.3526  0.8720 -1.2071
  848MOL0     H16967   7.899   9.024  11.436 -0.4994 -1.2861  1.3779
  848MOL0     H16968   7.856   8.913  11.310 -3.1561  0.8177  2.3866
  848MOL0     H16969   8.050   8.861  11.544 -0.8447 -0.2807  1.3246
  848MOL0     H16970   8.015   8.749  11.411  1.3184  1.6353 -1.5528
  848MOL0     H16971   7.806   8.868  11.597 -1.3109  0.6073 -3.5250
  848MOL0     H16972   7.766   8.752  11.476 -0.5119  2.3787 -1.1781
  848MOL0     H16973   7.983   8.531  11.494 -0.6729 -0.7027  0.2694
  848MOL0     H16974   8.011   8.267  11.751 -1.5709 -0.1987  0.9887
  848MOL0     H16975   7.992   8.298  11.576  0.3536  0.1599 -0.0146
  848MOL0     H16976   7.761   8.249  11.775  1.7801 -0.0438  1.6341
  848MOL0     H16977   7.748   8.247  11.598  2.0910  1.6832 -0.9596
  848MOL0     H16978   7.919   8.063  11.580  0.0243  1.0822  0.1848
  848MOL0     H16979   7.898   8.047  11.756  2.1978 -0.7028 -0.3845
  848MOL0     H16980   7.666   7.977  11.731  0.7885  0.2985  0.0282
  848MOL0     H16981   7.663   8.025  11.557 -0.7674 -1.2593 -0.3206
  848MOL0     H16982   7.494   7.863  11.644 -3.2390 -1.7336 -0.2447
  848MOL0     H16983   7.268   7.657  11.736  2.1792 -2.5414  1.1675
  848MOL0     H16984   7.247   7.627  11.561  1.0255  0.4014 -0.5225
  848MOL0     H16985   7.282   7.792  11.620  0.4631 -0.5334  1.2197
  848MOL0     H16986   7.306   7.120  11.518 -1.1640 -1.4358  0.2803
  848MOL0     H16987   7.203   6.922  11.626  0.9102  0.9697 -2.8247
  848MOL0     H16988   7.110   6.732  11.926 -2.6290  3.7566 -0.9357
  848MOL0     H16989   7.114   6.784  11.754  3.8918 -0.4768 -2.8699
  848MOL0     H16990   7.298   6.572  11.892 -0.7371 -0.9112  0.2519
  848MOL0     H16991   7.179   6.554  11.766  1.0648  0.5528 -2.5278
  848MOL0     H16992   7.427   6.724  11.747 -0.7296 -0.8908  1.8770
  848MOL0     H16993   7.312   6.709  11.616  0.9113 -1.5829 -0.6708
  848MOL0     H16994   7.363   6.464  11.639  0.4269 -0.4107  0.3467
  848MOL0     H16995   7.512   6.516  11.731 -0.8365 -1.3662  1.7713
  848MOL0     H16996   7.591   6.459  11.529  0.3532  0.6517 -0.3923
  848MOL0     H16997   7.446   6.525  11.438 -1.0670  0.3479  1.0240
  848MOL0     H16998   7.647   6.704  11.581  1.9381 -0.6679  0.1156
  848MOL0     H16999   7.509   6.752  11.486 -0.2694 -0.2114 -0.2573
  848MOL0     H17000   7.621   6.652  11.280  0.8573 -0.0736 -0.4235
  848MOL0     H17001   7.754   6.585  11.384  1.9698  0.9608 -2.3197
  848MOL0     H17002   7.703   6.879  11.382  2.3388  0.8999 -1.4789
  848MOL0     H17003   7.805   6.798  11.265 -0.3937 -0.7399 -0.6917
  848MOL0     H17004   7.419   7.009  11.989  2.8795  0.0222 -0.8588
  848MOL0     H17005   7.500   7.216  11.886 -2.2970  3.4060 -1.8674
  848MOL0     H17006   7.677   7.413  11.558  0.6690 -0.4862  0.7836
  848MOL0     H17007   7.824   7.615  11.554 -0.0391  1.3048 -0.2128
  848MOL0     H17008   7.662   8.643  10.789  0.7974  1.7968  1.7498
  848MOL0     H17009   7.466   8.633  10.631  1.6703 -2.0344 -0.5970
  848MOL0     H17010   7.344   8.711  10.263  0.4756  2.2310 -0.3277
  848MOL0     H17011   7.180   8.645  10.078 -0.8626 -1.3950  1.2531
  848MOL0     H17012   6.760   8.779  10.110  0.0431  0.6198 -0.3728
  848MOL0     H17013   6.830   8.882   9.993 -0.9764 -0.2599 -0.9443
  848MOL0     H17014   6.812   8.677   9.832 -1.7427  0.9061 -1.4863
  848MOL0     H17015   6.660   8.739   9.879 -2.2523 -0.8778  3.3720
  848MOL0     H17016   6.796   8.499   9.998 -0.6249 -0.7050  2.5972
  848MOL0     H17017   6.672   8.580  10.091 -0.6531  0.3844  0.0809
  848MOL0     H17018   6.505   8.560   9.898 -0.5338  0.5904  1.5872
  848MOL0     H17019   6.535   8.416   9.987 -0.6642  0.6363  0.9435
  848MOL0     H17020   6.717   8.288   9.632 -0.5533  1.2146 -0.5397
  848MOL0     H17021   6.884   8.879  10.268  1.4192  2.0016  1.2806
  848MOL0     H17022   6.911   9.000  10.441  1.1247  4.2833  2.2363
  848MOL0     H17023   6.996   8.905  10.566  1.3284 -1.9008 -0.8776
  848MOL0     H17024   7.080   9.023  10.485  2.6494 -3.6773 -1.5615
  849MOL0     O17025   7.856   5.192  10.869  0.6706  0.6685  0.3867
  849MOL0     C17026   7.971   5.206  10.822  0.6346 -0.7320 -0.5580
  849MOL0     O17027   8.020   5.162  10.705  0.0746  0.4336  0.0517
  849MOL0     C17028   7.922   5.109  10.626  0.5252 -0.2305  0.6922
  849MOL0     C17029   7.892   4.973  10.631  0.4805 -0.2228  0.3125
  849MOL0     C17030   7.805   4.919  10.540  0.2809 -0.0142  0.4923
  849MOL0     C17031   7.733   4.993  10.443 -0.7272  0.5950 -0.5521
  849MOL0     O17032   7.631   4.956  10.356  0.1525 -0.2282 -0.4665
  849MOL0     C17033   7.597   4.821  10.373  0.4641  0.8558 -0.7853
  849MOL0     C17034   7.470   4.806  10.295  0.5693  0.0002  0.4687
  849MOL0     C17035   7.397   4.663  10.309 -0.1747 -0.2764 -0.0499
  849MOL0     C17036   7.296   4.655  10.206 -0.6851  0.4198  0.3027
  849MOL0     C17037   7.191   4.550  10.242  0.4650  0.2187  0.7445
  849MOL0     C17038   7.233   4.406  10.284 -1.0208  0.0999 -0.4237
  849MOL0     C17039   7.133   4.297  10.277  1.1729  0.3496  0.4542
  849MOL0     C17040   6.997   4.341  10.334  0.4150  0.0886  0.8168
  849MOL0     N17041   7.011   4.416  10.457 -0.1417 -0.1833  0.2621
  849MOL0     C17042   7.071   4.371  10.570 -0.2349 -0.5221 -0.0025
  849MOL0     C17043   7.067   4.485  10.642  0.6437  0.3206 -1.1161
  849MOL0     C17044   7.133   4.499  10.777 -0.3502 -1.2264 -0.5725
  849MOL0     C17045   7.034   4.526  10.894 -0.6816  0.1005  0.6425
  849MOL0     C17046   7.087   4.476  11.028 -0.3543  0.1964  0.5650
  849MOL0     C17047   7.003   4.501  11.159  0.5367  0.1089 -0.3588
  849MOL0     O17048   7.083   4.498  11.279  0.3965 -0.1662  0.0790
  849MOL0     C17049   7.037   4.569  11.387  0.1108  0.5401 -0.1244
  849MOL0     C17050   7.052   4.506  11.514 -1.4139  0.0248  0.4684
  849MOL0     C17051   7.014   4.570  11.634  0.2669 -0.2382 -0.1739
  849MOL0     C17052   7.008   4.478  11.758  0.4050  0.4909  1.2072
  849MOL0     C17053   6.959   4.701  11.622  0.2869 -0.2888  0.7350
  849MOL0     C17054   6.930   4.784  11.748  0.4216 -0.5811 -0.5887
  849MOL0     O17055   7.027   4.773  11.843 -0.8241 -0.6007 -0.3409
  849MOL0     C17056   7.038   4.863  11.942 -0.2465  0.7723  0.6010
  849MOL0     C17057   7.112   4.975  11.924 -0.4153 -0.4156 -0.7795
  849MOL0     C17058   7.123   5.066  12.030 -0.0885 -0.2565 -0.7700
  849MOL0     C17059   7.061   5.057  12.150 -0.3011  0.0692 -0.7346
  849MOL0     O17060   7.066   5.152  12.254  0.4604  0.0904  0.5927
  849MOL0     C17061   7.089   5.288  12.216  0.9030  0.1049  0.2157
  849MOL0     C17062   7.026   5.392  12.306 -0.1250 -0.9590 -0.4090
  849MOL0     C17063   7.046   5.546  12.270  0.2102  0.0611  0.3429
  849MOL0     C17064   6.973   5.628  12.376 -0.3726  0.3558 -0.4763
  849MOL0     C17065   6.969   5.776  12.363 -0.2583  0.5869 -0.2925
  849MOL0     C17066   7.111   5.834  12.386 -0.1555  0.2185 -0.6211
  849MOL0     C17067   7.128   5.994  12.385  0.2864 -0.4110  0.7622
  849MOL0     C17068   7.082   6.049  12.249  0.5881 -0.3339  1.1078
  849MOL0    Cl17069   7.181   5.967  12.115  0.7517 -0.4591  0.3684
  849MOL0     C17070   6.997   4.934  12.169 -0.3167  0.5879  0.3067
  849MOL0     C17071   6.986   4.838  12.073 -0.7722  0.1234 -0.1427
  849MOL0     O17072   6.833   4.860  11.756 -0.0207 -0.2163 -1.2397
  849MOL0     C17073   6.940   4.753  11.497 -0.1251 -0.7247 -0.5906
  849MOL0     C17074   6.981   4.695  11.381  0.4697  0.4949  0.1142
  849MOL0     N17075   6.999   4.586  10.582 -1.2342 -0.1385  0.2426
  849MOL0     N17076   6.952   4.536  10.470 -0.5123 -0.4162  0.2557
  849MOL0     C17077   7.781   5.136  10.435 -0.0649  1.0073 -0.2201
  849MOL0     C17078   7.871   5.180  10.523  0.2140 -0.1762  0.4993
  849MOL0     C17079   8.066   5.283  10.903 -0.0043  0.1449 -0.1811
  849MOL0     C17080   8.154   5.362  10.843 -0.4193  0.2582 -0.7287
  849MOL0     C17081   8.236   5.447  10.918  0.8807 -0.6323  0.8241
  849MOL0     C17082   8.229   5.455  11.057 -1.2125 -0.4447 -0.0650
  849MOL0     O17083   8.308   5.526  11.145  0.6672  0.1890 -0.6079
  849MOL0     C17084   8.437   5.563  11.093  0.4910 -0.5488  0.1171
  849MOL0     C17085   8.523   5.624  11.202 -0.3900  1.4092  0.3842
  849MOL0     C17086   8.666   5.639  11.138  0.0797 -0.2112  0.1959
  849MOL0     C17087   8.774   5.626  11.242 -0.6376  0.8877  0.7594
  849MOL0     C17088   8.747   5.726  11.343 -0.3515  0.0035 -0.4815
  849MOL0     C17089   8.723   5.826  11.414 -1.7074  0.4253  0.7147
  849MOL0     C17090   8.132   5.371  11.113 -0.2763 -0.4449 -0.5549
  849MOL0     C17091   8.057   5.280  11.040  0.1136 -0.2273 -0.1406
  849MOL0     C17092   7.978   5.184  11.128 -0.0028  1.2950 -0.1511
  849MOL0     H17093   7.948   4.918  10.706  1.5314  0.6585  0.1942
  849MOL0     H17094   7.779   4.817  10.564  0.2606  0.5305  2.9964
  849MOL0     H17095   7.561   4.792  10.472 -0.1402 -1.9583 -1.7137
  849MOL0     H17096   7.667   4.745  10.336 -0.9709 -0.5729 -0.7116
  849MOL0     H17097   7.403   4.885  10.333  3.8048  3.2476  0.0200
  849MOL0     H17098   7.495   4.829  10.191  0.6052  0.8942  0.6654
  849MOL0     H17099   7.471   4.584  10.324  1.6756  1.6817  2.1629
  849MOL0     H17100   7.347   4.665  10.407  1.2212 -1.8453  0.7557
  849MOL0     H17101   7.242   4.749  10.196 -1.5310 -0.1775 -1.0139
  849MOL0     H17102   7.346   4.651  10.108 -1.0440  0.4628  0.1182
  849MOL0     H17103   7.111   4.558  10.168  0.8720  0.7950  0.3568
  849MOL0     H17104   7.153   4.584  10.338 -0.4709  0.1924  0.3953
  849MOL0     H17105   7.315   4.375  10.218  1.5810  0.8109  2.2429
  849MOL0     H17106   7.282   4.416  10.381  5.2068 -2.4318 -2.7379
  849MOL0     H17107   7.178   4.208  10.322  1.8422 -0.9891 -2.5974
  849MOL0     H17108   7.126   4.274  10.170 -1.9089 -0.5690  0.7577
  849MOL0     H17109   6.949   4.395  10.252 -0.6029 -1.1768  0.5507
  849MOL0     H17110   6.942   4.248  10.352 -1.5949  0.7202 -1.5305
  849MOL0     H17111   7.126   4.281  10.594 -0.5924 -0.4068  1.3282
  849MOL0     H17112   7.209   4.578  10.780  0.1558 -1.7058 -0.6398
  849MOL0     H17113   7.181   4.402  10.788  1.3463 -0.1234  3.9822
  849MOL0     H17114   7.028   4.635  10.909 -0.6909 -0.2903  4.6422
  849MOL0     H17115   6.946   4.469  10.863  0.6621 -0.3479 -2.7979
  849MOL0     H17116   7.111   4.370  11.022 -2.3238 -0.3442  1.5764
  849MOL0     H17117   7.183   4.528  11.040 -2.0851  3.4697  1.3977
  849MOL0     H17118   6.959   4.600  11.147 -5.4553 -2.1347 -0.2848
  849MOL0     H17119   6.910   4.444  11.161  0.0575  0.8657  1.5983
  849MOL0     H17120   7.068   4.399  11.509 -3.3185 -0.2467 -1.4754
  849MOL0     H17121   7.103   4.492  11.811  1.4442  0.7313 -0.5884
  849MOL0     H17122   6.994   4.375  11.724 -1.5090  1.0603  0.1274
  849MOL0     H17123   6.929   4.499  11.830  0.9785 -0.7625  2.2407
  849MOL0     H17124   7.162   4.978  11.828  0.9003 -0.4529 -0.1195
  849MOL0     H17125   7.183   5.156  12.015  0.8738 -0.8105 -0.3858
  849MOL0     H17126   7.196   5.306  12.209  0.8791  0.2962  0.3353
  849MOL0     H17127   7.052   5.301  12.114  0.6003  0.6249  0.3868
  849MOL0     H17128   6.917   5.377  12.306 -0.2158 -0.4578  1.2537
  849MOL0     H17129   7.046   5.386  12.413 -1.3991  0.2086 -0.0730
  849MOL0     H17130   7.010   5.563  12.168  2.4067 -0.2453 -0.5347
  849MOL0     H17131   7.150   5.577  12.258  0.5755 -1.0250  0.5289
  849MOL0     H17132   7.022   5.610  12.472  1.4289  2.0974 -0.9830
  849MOL0     H17133   6.867   5.606  12.366 -0.1873 -0.3529 -0.9426
  849MOL0     H17134   6.940   5.800  12.260 -0.2280 -0.2926 -0.5110
  849MOL0     H17135   6.893   5.816  12.432 -2.9123 -0.1037 -2.6296
  849MOL0     H17136   7.177   5.795  12.309 -1.6813 -0.3153 -1.7050
  849MOL0     H17137   7.150   5.789  12.478 -0.0426  0.0036 -0.7747
  849MOL0     H17138   7.232   6.030  12.383 -0.8497  3.4617 -1.7296
  849MOL0     H17139   7.080   6.054  12.462  0.0691  2.1456 -1.2372
  849MOL0     H17140   7.093   6.157  12.250  1.1817 -0.3878  1.3073
  849MOL0     H17141   6.981   6.022  12.218  0.3976  0.5294  0.9746
  849MOL0     H17142   6.951   4.910  12.264  1.1737 -1.4404  0.5855
  849MOL0     H17143   6.934   4.744  12.087  0.9755 -0.8003  0.5589
  849MOL0     H17144   6.881   4.844  11.494  2.3884  1.0447  0.3489
  849MOL0     H17145   6.972   4.747  11.286  2.9618 -1.8993 -1.5823
  849MOL0     H17146   7.736   5.204  10.364  0.5996  1.7208  0.0306
  849MOL0     H17147   7.892   5.286  10.528  1.6824 -0.3018 -1.5048
  849MOL0     H17148   8.159   5.368  10.734 -0.2356  1.0890 -0.6792
  849MOL0     H17149   8.313   5.505  10.868 -1.3619 -0.6317 -3.0969
  849MOL0     H17150   8.481   5.474  11.048  1.3574  0.7133 -1.6480
  849MOL0     H17151   8.421   5.637  11.015 -3.2029 -0.5079  0.7016
  849MOL0     H17152   8.526   5.555  11.287  0.8875  2.0840  0.9148
  849MOL0     H17153   8.488   5.718  11.246 -1.8103  1.1163 -0.0791
  849MOL0     H17154   8.679   5.572  11.052 -1.1383 -2.1084  1.4314
  849MOL0     H17155   8.667   5.743  11.104 -2.6499  0.2274  1.1775
  849MOL0     H17156   8.870   5.630  11.190  0.2118  0.6671  2.2467
  849MOL0     H17157   8.771   5.526  11.286 -0.9958  0.9218  0.8175
  849MOL0     H17158   8.698   5.905  11.482 -0.4619  0.9183  0.6331
  849MOL0     H17159   8.120   5.365  11.221  0.6664  1.8753 -0.2775
  849MOL0     H17160   8.020   5.173  11.229 -1.1422 -0.3517  0.1861
  849MOL0     H17161   7.878   5.225  11.140 -0.7862 -0.9291  1.5844
  849MOL0     H17162   7.979   5.082  11.087  2.8227  0.6579  1.2078
  850MOL0     O17163   1.337   4.913  10.630 -0.1898  0.3051  0.1447
  850MOL0     C17164   1.215   4.899  10.643 -0.0630 -0.5132 -0.1723
  850MOL0     O17165   1.150   4.919  10.756 -0.1888  0.5259  0.0676
  850MOL0     C17166   1.218   4.908  10.880  0.5057 -0.5117  0.3189
  850MOL0     C17167   1.306   4.796  10.898  0.0391  0.4133  0.4627
  850MOL0     C17168   1.380   4.787  11.020  0.8935  0.2840  0.5717
  850MOL0     C17169   1.353   4.874  11.127 -0.8544  0.8924  0.9777
  850MOL0     O17170   1.428   4.884  11.242 -0.2932 -0.5825 -0.2260
  850MOL0     C17171   1.507   4.773  11.292 -0.1263  0.0356  0.4782
  850MOL0     C17172   1.494   4.784  11.454 -0.3399 -0.7344 -0.0996
  850MOL0     C17173   1.508   4.643  11.521 -0.1110 -0.3156  0.3361
  850MOL0     C17174   1.573   4.643  11.663 -0.4729 -0.3443  0.7810
  850MOL0     C17175   1.552   4.510  11.741 -0.3610 -0.8598  0.7102
  850MOL0     C17176   1.600   4.522  11.879  0.6703 -0.5594  0.7259
  850MOL0     C17177   1.561   4.402  11.969  0.0004  0.2006 -0.1895
  850MOL0     C17178   1.419   4.383  12.006 -0.2412  0.3215  0.6544
  850MOL0     N17179   1.364   4.492  12.081 -0.3619 -0.3606 -0.9918
  850MOL0     C17180   1.376   4.510  12.215 -0.4738 -0.5516 -0.8902
  850MOL0     C17181   1.288   4.612  12.250 -0.4349  1.0177  0.0963
  850MOL0     C17182   1.268   4.669  12.392  0.4600  0.4245  1.0739
  850MOL0     C17183   1.127   4.640  12.458 -0.2077 -0.5172  0.9456
  850MOL0     C17184   1.104   4.494  12.505 -0.2792  0.5545  0.7792
  850MOL0     C17185   1.216   4.446  12.604  0.6047  0.9531 -1.0251
  850MOL0     O17186   1.152   4.355  12.699 -0.1885  0.1279 -0.0986
  850MOL0     C17187   1.195   4.362  12.826  0.1614  0.6872 -0.0222
  850MOL0     C17188   1.124   4.282  12.921  0.3057  0.1381 -0.6643
  850MOL0     C17189   1.152   4.277  13.056 -0.2409 -1.1187  0.7699
  850MOL0     C17190   1.049   4.200  13.142  0.7074  0.1549  0.4376
  850MOL0     C17191   1.276   4.345  13.095  0.5387  0.0821  0.7059
  850MOL0     C17192   1.344   4.329  13.231 -0.0535  0.1049 -0.1783
  850MOL0     O17193   1.447   4.406  13.262  0.1392  0.0151  0.8645
  850MOL0     C17194   1.515   4.396  13.379  0.2826  0.6460 -0.0578
  850MOL0     C17195   1.465   4.352  13.497 -0.0893  1.0114 -0.7022
  850MOL0     C17196   1.541   4.348  13.614 -0.2810 -0.4271 -0.4102
  850MOL0     C17197   1.669   4.406  13.621 -1.7486 -0.0542  0.0419
  850MOL0     O17198   1.748   4.416  13.731 -0.1147  0.2939 -0.0272
  850MOL0     C17199   1.722   4.314  13.834  0.2081  0.8322  0.6782
  850MOL0     C17200   1.848   4.287  13.925 -0.5831  0.2263 -0.4087
  850MOL0     C17201   1.887   4.400  14.032 -0.2053  0.4837 -0.4247
  850MOL0     C17202   2.019   4.373  14.102  0.2271 -0.2708 -0.6198
  850MOL0     C17203   2.057   4.489  14.206 -0.8440 -0.1041  0.2580
  850MOL0     C17204   2.201   4.475  14.241  0.3406 -0.5221 -0.5555
  850MOL0     C17205   2.246   4.586  14.336  0.2258  0.1208 -1.0276
  850MOL0     C17206   2.400   4.606  14.331 -0.0844  0.8682  0.6709
  850MOL0    Cl17207   2.467   4.702  14.470 -0.1654 -0.2043 -0.5525
  850MOL0     C17208   1.717   4.458  13.498  1.2175  0.0391  0.6215
  850MOL0     C17209   1.643   4.453  13.383 -0.0016  0.0204  0.6677
  850MOL0     O17210   1.317   4.227  13.301 -0.1337  0.5648  0.0393
  850MOL0     C17211   1.340   4.427  12.999 -0.7520 -0.1825  0.2278
  850MOL0     C17212   1.305   4.433  12.869 -1.1779  0.2235 -0.3482
  850MOL0     N17213   1.245   4.669  12.131 -0.1843  0.4481 -0.4240
  850MOL0     N17214   1.282   4.588  12.040  0.0375  0.6314  0.0968
  850MOL0     C17215   1.279   4.983  11.104 -0.3465 -0.6756  0.7744
  850MOL0     C17216   1.197   4.994  10.987  0.7901 -0.4296 -0.0811
  850MOL0     C17217   1.134   4.879  10.518  0.1644 -0.1689 -0.3234
  850MOL0     C17218   1.188   4.937  10.398 -0.1475  0.4264 -0.5779
  850MOL0     C17219   1.111   4.947  10.287  0.1966  0.2181  0.4205
  850MOL0     C17220   0.976   4.932  10.296  0.3863  0.3188  0.4444
  850MOL0     O17221   0.893   4.960  10.197  0.1113  0.5221 -0.3916
  850MOL0     C17222   0.881   5.097  10.171 -0.4984  1.1885  0.1502
  850MOL0     C17223   0.755   5.133  10.087 -0.1392 -0.6101 -0.0078
  850MOL0     C17224   0.746   5.066   9.956 -0.0168  0.7064  0.1436
  850MOL0     C17225   0.611   5.076   9.891  0.4166  0.6540 -0.1325
  850MOL0     C17226   0.604   5.006   9.766  0.0239  0.7877 -0.1326
  850MOL0     C17227   0.572   4.957   9.662 -0.9374  0.2814  0.6077
  850MOL0     C17228   0.918   4.874  10.413 -0.1772  0.3590  0.6813
  850MOL0     C17229   0.998   4.836  10.519 -0.6906 -0.5723 -0.1614
  850MOL0     C17230   0.927   4.771  10.638  0.1108  0.0471  0.0452
  850MOL0     H17231   1.311   4.724  10.816 -4.8103  1.2241 -0.8583
  850MOL0     H17232   1.442   4.699  11.035 -1.1494 -1.0639  1.6337
  850MOL0     H17233   1.608   4.777  11.249 -0.7513  0.1655 -1.0687
  850MOL0     H17234   1.470   4.674  11.265  0.0258 -0.5330  2.2276
  850MOL0     H17235   1.573   4.855  11.482  0.2841 -1.7021  0.6475
  850MOL0     H17236   1.401   4.832  11.483  0.3481  0.1710  0.6663
  850MOL0     H17237   1.409   4.599  11.513  0.3221 -0.9762 -2.1491
  850MOL0     H17238   1.578   4.588  11.458 -1.7618  0.8209 -2.7084
  850MOL0     H17239   1.678   4.675  11.661 -0.9360  1.1688 -0.6220
  850MOL0     H17240   1.529   4.725  11.721  0.3829 -0.7076  1.9971
  850MOL0     H17241   1.615   4.430  11.701  1.1042 -0.0408  1.3391
  850MOL0     H17242   1.446   4.481  11.737 -0.6772  0.1855  1.0981
  850MOL0     H17243   1.708   4.539  11.873  0.3671  1.5355  0.5142
  850MOL0     H17244   1.555   4.610  11.926 -0.4020  0.1291 -1.4613
  850MOL0     H17245   1.621   4.416  12.059  1.1530  0.7644 -1.0021
  850MOL0     H17246   1.593   4.311  11.916 -0.7189  0.3293 -0.8597
  850MOL0     H17247   1.363   4.370  11.912 -1.4954 -1.1251  1.5564
  850MOL0     H17248   1.421   4.288  12.058  1.3245 -1.1527 -1.8936
  850MOL0     H17249   1.437   4.447  12.279  3.9652  1.2306 -2.9716
  850MOL0     H17250   1.282   4.777  12.383 -0.2028  0.3327 -2.1769
  850MOL0     H17251   1.339   4.632  12.466 -0.6203 -1.4507  1.2421
  850MOL0     H17252   1.116   4.716  12.535  1.4647  0.3223  0.4061
  850MOL0     H17253   1.055   4.682  12.388  2.1412 -1.8876 -2.5919
  850MOL0     H17254   1.014   4.495  12.567 -0.8205  1.4780  0.0085
  850MOL0     H17255   1.093   4.430  12.418  2.2825 -1.7054  1.9675
  850MOL0     H17256   1.290   4.382  12.554 -0.6506 -1.4397 -0.0067
  850MOL0     H17257   1.268   4.529  12.653 -0.3549  1.2020 -0.4055
  850MOL0     H17258   1.051   4.213  12.880  0.7954 -1.6242  1.2311
  850MOL0     H17259   0.947   4.207  13.104  0.9634  2.6809  0.0129
  850MOL0     H17260   1.050   4.250  13.239 -2.4668  2.7495 -0.6735
  850MOL0     H17261   1.086   4.098  13.158 -2.4975 -1.7524 -2.6546
  850MOL0     H17262   1.364   4.313  13.507  0.1207 -0.9042 -4.2997
  850MOL0     H17263   1.494   4.307  13.703 -2.0938  2.3365  0.0407
  850MOL0     H17264   1.637   4.337  13.898  0.2992  0.2414  1.0250
  850MOL0     H17265   1.698   4.219  13.784  1.2801  2.8031 -4.1857
  850MOL0     H17266   1.836   4.195  13.983 -0.9055  0.2287 -0.4690
  850MOL0     H17267   1.937   4.269  13.864  1.2628  0.7119  2.0067
  850MOL0     H17268   1.813   4.403  14.112 -1.7701 -5.9967 -1.0624
  850MOL0     H17269   1.887   4.496  13.980 -2.1129  1.7167  1.6798
  850MOL0     H17270   2.091   4.378  14.020 -1.1346  5.1768 -1.8811
  850MOL0     H17271   2.009   4.273  14.146 -3.3314  0.2517  0.0896
  850MOL0     H17272   2.042   4.587  14.159 -3.8511 -1.5657 -2.2200
  850MOL0     H17273   2.008   4.493  14.303  1.7293  1.1361  1.6009
  850MOL0     H17274   2.266   4.467  14.153 -0.9469 -0.7994 -1.5232
  850MOL0     H17275   2.213   4.375  14.285 -0.2368  0.1291  1.1399
  850MOL0     H17276   2.207   4.561  14.435  2.3086 -2.9416 -0.8232
  850MOL0     H17277   2.204   4.684  14.312  2.0490  0.8086 -1.5952
  850MOL0     H17278   2.417   4.649  14.232 -1.0261 -1.8173 -0.7650
  850MOL0     H17279   2.450   4.510  14.319 -0.6933  0.8768 -3.4463
  850MOL0     H17280   1.813   4.509  13.507  1.3364 -0.3487  1.6640
  850MOL0     H17281   1.681   4.497  13.291 -2.2214  1.4395  0.3692
  850MOL0     H17282   1.424   4.486  13.035  0.2831 -0.9477 -0.8197
  850MOL0     H17283   1.379   4.485  12.809  1.3367 -1.7947  0.8239
  850MOL0     H17284   1.284   5.058  11.181 -1.0330  0.9156 -0.6717
  850MOL0     H17285   1.116   5.061  10.964  0.9183 -0.0068  0.6760
  850MOL0     H17286   1.290   4.975  10.399  0.5234 -1.2437  1.3447
  850MOL0     H17287   1.145   4.990  10.194 -1.1442 -0.1597 -0.2693
  850MOL0     H17288   0.891   5.162  10.258  0.9806  0.2117  0.7430
  850MOL0     H17289   0.978   5.108  10.122 -0.1122  0.1484  0.6491
  850MOL0     H17290   0.766   5.241  10.075  0.0845 -0.4808  1.2185
  850MOL0     H17291   0.664   5.114  10.145 -1.1258  0.7629 -1.0562
  850MOL0     H17292   0.824   5.119   9.900  1.4629 -2.7006 -1.2828
  850MOL0     H17293   0.772   4.960   9.962 -2.3074 -0.1204 -2.3213
  850MOL0     H17294   0.582   5.181   9.881 -3.1453  0.1064  2.2433
  850MOL0     H17295   0.534   5.019   9.944  1.2157 -2.8207 -2.3714
  850MOL0     H17296   0.547   4.922   9.564 -3.5675 -1.6575  1.8336
  850MOL0     H17297   0.809   4.875  10.420 -0.2154 -3.1556  3.4943
  850MOL0     H17298   0.885   4.853  10.697 -1.7755 -1.7717  1.3598
  850MOL0     H17299   0.844   4.709  10.602 -1.7972  3.1680 -1.4075
  850MOL0     H17300   0.990   4.712  10.705 -1.3879  1.2330  2.6523
  851MOL0     O17301  11.241   8.828   9.784  0.1834 -0.4406  0.2488
  851MOL0     C17302  11.196   8.822   9.670  0.4751  0.5718 -0.5068
  851MOL0     O17303  11.265   8.823   9.555  0.9879  0.3363 -0.3900
  851MOL0     C17304  11.399   8.791   9.559  0.1132 -0.1739  0.2160
  851MOL0     C17305  11.455   8.702   9.642  0.6451 -0.9572  0.5119
  851MOL0     C17306  11.591   8.679   9.641  0.1825 -0.0779 -0.7862
  851MOL0     C17307  11.680   8.732   9.543  0.3366 -0.3388  0.2250
  851MOL0     O17308  11.817   8.713   9.550  0.7374 -0.1757  0.3726
  851MOL0     C17309  11.857   8.650   9.680 -0.3970  0.6287  0.1702
  851MOL0     C17310  12.011   8.655   9.685  0.1470  0.0808 -0.0809
  851MOL0     C17311  12.069   8.576   9.574  0.1416 -0.2782  0.0746
  851MOL0     C17312  12.223   8.576   9.590  0.0879  0.2846  0.9893
  851MOL0     C17313  12.273   8.487   9.466 -0.4987  0.3267 -0.2436
  851MOL0     C17314  12.421   8.448   9.475  0.6933 -0.5312 -0.0861
  851MOL0     C17315  12.472   8.362   9.359  0.3409 -0.3737  0.4866
  851MOL0     C17316  12.625   8.333   9.361 -1.0961 -0.2563 -0.7245
  851MOL0     N17317  12.712   8.431   9.300 -0.0192 -0.7099  0.1487
  851MOL0     C17318  12.751   8.428   9.169 -0.2158 -0.7775  0.5826
  851MOL0     C17319  12.826   8.540   9.147 -1.7329  0.1116  1.5337
  851MOL0     C17320  12.914   8.575   9.029 -0.5427 -0.3736  0.1740
  851MOL0     C17321  12.846   8.677   8.925 -0.4711 -0.5342 -0.1987
  851MOL0     C17322  12.944   8.720   8.813  0.8992  1.1783 -0.0246
  851MOL0     C17323  13.091   8.746   8.852 -0.0113  0.3836 -0.0691
  851MOL0     O17324  13.169   8.797   8.752 -0.1218 -0.1605 -0.2531
  851MOL0     C17325  13.273   8.885   8.776  0.0707  0.0200  1.4627
  851MOL0     C17326  13.312   8.918   8.904 -0.6970 -0.0937 -0.0046
  851MOL0     C17327  13.439   8.980   8.931  0.5355  0.2545 -0.4243
  851MOL0     C17328  13.468   9.013   9.084  1.4642  0.4316 -0.6768
  851MOL0     C17329  13.507   9.035   8.826  0.9842 -0.0954 -0.1877
  851MOL0     C17330  13.636   9.098   8.846 -0.4250 -0.3225 -0.0548
  851MOL0     O17331  13.640   9.219   8.797 -0.3893  0.3598 -0.0422
  851MOL0     C17332  13.734   9.303   8.854  0.5148 -0.3721 -0.7280
  851MOL0     C17333  13.819   9.368   8.767 -0.2774  0.4844 -0.0626
  851MOL0     C17334  13.928   9.438   8.817  0.0973 -0.3532 -0.3468
  851MOL0     C17335  13.927   9.472   8.954  0.2929 -0.6477  0.3025
  851MOL0     O17336  14.022   9.557   8.993 -0.3164 -0.2276 -0.5305
  851MOL0     C17337  14.032   9.607   9.129  0.3137 -0.2349  0.0597
  851MOL0     C17338  14.123   9.735   9.141  0.8818  0.0973 -0.2080
  851MOL0     C17339  14.270   9.702   9.108 -0.2050 -0.0274 -0.1883
  851MOL0     C17340  14.364   9.816   9.152 -0.0736 -0.4086  0.1628
  851MOL0     C17341  14.504   9.778   9.103  0.2759 -1.2271  0.5266
  851MOL0     C17342  14.619   9.883   9.135 -0.3390  0.0987  0.6011
  851MOL0     C17343  14.591  10.006   9.043  0.1706  0.0559  0.0690
  851MOL0     C17344  14.683  10.126   9.073 -0.5118 -0.3877 -0.0470
  851MOL0    Cl17345  14.667  10.180   9.234  0.1142 -0.7202  0.0628
  851MOL0     C17346  13.828   9.427   9.038  0.3816 -0.0887 -0.3880
  851MOL0     C17347  13.732   9.332   8.991 -0.8970 -0.2349  0.0196
  851MOL0     O17348  13.722   9.042   8.910  0.1014 -0.1875 -0.7436
  851MOL0     C17349  13.459   9.007   8.697 -0.5532  0.2143  0.3518
  851MOL0     C17350  13.353   8.930   8.672 -0.7404 -0.5271  0.0598
  851MOL0     N17351  12.836   8.602   9.269 -0.7141  0.1396  0.2356
  851MOL0     N17352  12.766   8.545   9.359 -0.9861  0.2923  0.5398
  851MOL0     C17353  11.620   8.817   9.447  0.6765  0.1796 -0.0912
  851MOL0     C17354  11.487   8.851   9.461  0.0317  0.4324  0.3715
  851MOL0     C17355  11.048   8.826   9.646  1.2588 -0.2371 -0.2772
  851MOL0     C17356  10.994   8.904   9.542 -0.0486 -0.4874 -0.5161
  851MOL0     C17357  10.859   8.919   9.520  0.1730  0.0523 -0.4472
  851MOL0     C17358  10.760   8.855   9.600  0.1099  0.2126 -0.0385
  851MOL0     O17359  10.627   8.855   9.589  0.2270 -0.5617 -0.5677
  851MOL0     C17360  10.587   8.881   9.454  0.9568 -0.9595 -1.2538
  851MOL0     C17361  10.435   8.846   9.430 -0.6022  0.1209  0.8711
  851MOL0     C17362  10.349   8.918   9.534  0.2956 -0.3978  0.0643
  851MOL0     C17363  10.204   8.866   9.538 -0.4284 -0.2621 -0.0043
  851MOL0     C17364  10.129   8.915   9.423 -0.8572  0.3830 -0.0858
  851MOL0     C17365  10.050   8.946   9.332 -0.3121  0.2575  0.1433
  851MOL0     C17366  10.808   8.781   9.706  1.1487 -0.3455  0.3660
  851MOL0     C17367  10.943   8.768   9.736  0.7453 -0.4376  1.2538
  851MOL0     C17368  10.960   8.667   9.844 -0.4435  0.4009 -0.0067
  851MOL0     H17369  11.388   8.639   9.699 -1.7533  0.8449 -0.1584
  851MOL0     H17370  11.619   8.595   9.704 -0.6592  0.5229  0.4202
  851MOL0     H17371  11.818   8.547   9.678 -0.4200  0.6355 -1.6409
  851MOL0     H17372  11.814   8.718   9.753  0.3061  2.6965 -1.2397
  851MOL0     H17373  12.040   8.760   9.693  4.3012 -0.8647 -0.3461
  851MOL0     H17374  12.051   8.610   9.777  0.1600 -1.9423 -1.0279
  851MOL0     H17375  12.026   8.475   9.579 -2.3609  0.7403  0.4653
  851MOL0     H17376  12.045   8.620   9.476  1.1387  0.7841  0.2906
  851MOL0     H17377  12.273   8.673   9.595 -0.2612  0.5834 -0.6065
  851MOL0     H17378  12.259   8.528   9.681  3.7562  1.3229  0.2616
  851MOL0     H17379  12.260   8.552   9.378 -2.6964 -0.1847 -0.3488
  851MOL0     H17380  12.216   8.395   9.453  1.7648 -1.6179  2.4699
  851MOL0     H17381  12.480   8.540   9.473  1.2945 -0.8992  0.2442
  851MOL0     H17382  12.432   8.389   9.566 -2.2971 -1.0304  0.0639
  851MOL0     H17383  12.438   8.399   9.262  1.0093 -1.9451 -0.3790
  851MOL0     H17384  12.434   8.260   9.373  3.3449 -1.4587  1.4434
  851MOL0     H17385  12.660   8.316   9.464  0.6107  0.6302 -1.1277
  851MOL0     H17386  12.640   8.242   9.301  3.8678 -0.3571  0.2632
  851MOL0     H17387  12.713   8.355   9.098  0.2191  0.6955 -1.2313
  851MOL0     H17388  12.943   8.486   8.972 -1.8320 -0.8561  0.2230
  851MOL0     H17389  13.005   8.627   9.059  0.1209 -1.1890 -0.3905
  851MOL0     H17390  12.754   8.634   8.883  0.4731 -3.9283  0.8432
  851MOL0     H17391  12.802   8.765   8.974  0.7732  0.3248 -0.5946
  851MOL0     H17392  12.954   8.643   8.735  4.8439 -3.0998  4.0425
  851MOL0     H17393  12.916   8.818   8.774 -0.0459  0.6406 -0.7293
  851MOL0     H17394  13.092   8.811   8.940  1.0517  0.9395 -0.4639
  851MOL0     H17395  13.139   8.651   8.877 -0.1825 -0.4323 -2.5574
  851MOL0     H17396  13.252   8.900   8.993 -0.1549 -0.1401  0.3605
  851MOL0     H17397  13.572   8.994   9.114  1.6401  1.0994 -0.8442
  851MOL0     H17398  13.396   8.977   9.159 -0.6744  4.3149 -0.6321
  851MOL0     H17399  13.470   9.120   9.104 -0.5687  0.2500  0.7475
  851MOL0     H17400  13.815   9.348   8.660  0.7977  0.5096 -0.1212
  851MOL0     H17401  14.011   9.478   8.761  0.1951  3.6015  2.2056
  851MOL0     H17402  13.934   9.645   9.161 -0.1497 -0.0971 -1.4694
  851MOL0     H17403  14.070   9.520   9.183  2.3547 -0.7358 -2.0609
  851MOL0     H17404  14.090   9.828   9.094  1.7001  1.7968  2.3420
  851MOL0     H17405  14.132   9.757   9.248  0.5892 -2.0186  0.2984
  851MOL0     H17406  14.275   9.691   8.999 -1.0501 -1.9349 -0.0729
  851MOL0     H17407  14.300   9.604   9.146  0.9005  0.8670  1.3502
  851MOL0     H17408  14.358   9.824   9.261  0.0067 -0.9269  0.2081
  851MOL0     H17409  14.320   9.905   9.106 -1.7381  0.4162  3.0617
  851MOL0     H17410  14.521   9.679   9.147 -0.0600 -2.0532 -1.1022
  851MOL0     H17411  14.495   9.768   8.994  0.1774 -0.0814  0.4256
  851MOL0     H17412  14.712   9.835   9.102 -1.6825 -1.5776 -0.9731
  851MOL0     H17413  14.618   9.899   9.243  0.4373  0.6033  0.5404
  851MOL0     H17414  14.491  10.050   9.054  0.8872  1.3209  2.1100
  851MOL0     H17415  14.599   9.974   8.939 -3.3829  1.3204 -0.7354
  851MOL0     H17416  14.660  10.196   8.992  0.2112  1.0853  0.9854
  851MOL0     H17417  14.788  10.096   9.060 -0.5173 -0.0696 -0.9334
  851MOL0     H17418  13.818   9.454   9.143  1.6605  6.9577 -1.5335
  851MOL0     H17419  13.663   9.284   9.060 -0.1934  0.2675  1.1037
  851MOL0     H17420  13.523   9.053   8.623  0.5696  1.4235  1.9861
  851MOL0     H17421  13.329   8.900   8.571 -0.1698  2.0134 -0.8963
  851MOL0     H17422  11.684   8.869   9.376  1.2314 -2.1873 -1.4607
  851MOL0     H17423  11.453   8.932   9.398  0.8593 -0.4338 -1.2397
  851MOL0     H17424  11.067   8.958   9.483  0.7226 -1.9561 -0.9735
  851MOL0     H17425  10.816   8.984   9.444  0.0090  1.0281  0.4597
  851MOL0     H17426  10.599   8.981   9.411 -1.8137 -0.3576 -0.8244
  851MOL0     H17427  10.638   8.805   9.394  1.3880 -2.6483  1.1165
  851MOL0     H17428  10.406   8.741   9.438 -2.2047  0.5453  0.9586
  851MOL0     H17429  10.417   8.888   9.331 -0.9899 -1.9640 -0.0026
  851MOL0     H17430  10.387   8.902   9.636  2.6533 -0.7846 -0.8170
  851MOL0     H17431  10.354   9.021   9.499 -3.4028 -0.6304 -1.5992
  851MOL0     H17432  10.132   8.908   9.609 -0.9476  3.5583 -2.4270
  851MOL0     H17433  10.204   8.758   9.549  0.7688 -0.3340 -0.5118
  851MOL0     H17434   9.979   8.971   9.256 -0.6473 -0.0827  0.3434
  851MOL0     H17435  10.736   8.738   9.775 -0.7153 -2.1029 -2.4479
  851MOL0     H17436  10.920   8.567   9.821 -0.7047  0.2046  1.2417
  851MOL0     H17437  11.066   8.642   9.856 -1.1446 -1.9965  2.0148
  851MOL0     H17438  10.928   8.714   9.937 -0.1155 -2.0460  1.4266
  852MOL0     O17439   1.912   6.840   4.095 -0.5520 -0.4386  0.1468
  852MOL0     C17440   1.851   6.903   4.188 -0.0833  0.4752 -0.3605
  852MOL0     O17441   1.819   6.843   4.303 -0.4424 -0.2413  1.2123
  852MOL0     C17442   1.835   6.712   4.322  0.3992 -0.1305 -0.4177
  852MOL0     C17443   1.933   6.664   4.402  0.4997  0.7298 -0.5741
  852MOL0     C17444   1.940   6.525   4.435  0.2628  0.8918  0.6193
  852MOL0     C17445   1.843   6.435   4.393 -0.1236  0.2134 -0.4903
  852MOL0     O17446   1.835   6.299   4.430  0.0783 -0.8280  0.0926
  852MOL0     C17447   1.928   6.213   4.359 -1.0401 -0.2673  0.5931
  852MOL0     C17448   1.874   6.070   4.383 -1.4679  0.1620 -0.3297
  852MOL0     C17449   1.980   5.954   4.377  0.6875  0.5464 -0.2103
  852MOL0     C17450   1.919   5.817   4.430 -0.4557  0.1373 -0.4530
  852MOL0     C17451   2.026   5.707   4.415 -0.4100  0.7524  0.8041
  852MOL0     C17452   1.966   5.579   4.479  0.0970  0.4093  0.8642
  852MOL0     C17453   2.050   5.470   4.425 -0.1453 -0.0033 -0.2689
  852MOL0     C17454   2.021   5.334   4.481 -0.5032  0.7310 -0.1738
  852MOL0     N17455   2.141   5.248   4.485 -0.1279  0.2354 -0.9124
  852MOL0     C17456   2.126   5.118   4.534 -0.7775 -0.1242  0.6932
  852MOL0     C17457   2.256   5.074   4.522  0.1996 -0.0963 -0.7149
  852MOL0     C17458   2.302   4.932   4.573 -0.6189 -0.1363  0.3393
  852MOL0     C17459   2.270   4.907   4.718  0.4684 -0.8564  0.1295
  852MOL0     C17460   2.361   4.798   4.776 -0.6701  0.3604 -0.4591
  852MOL0     C17461   2.381   4.808   4.933  0.3992  0.1181  1.0502
  852MOL0     O17462   2.439   4.689   4.984 -0.9670 -0.9104 -0.5287
  852MOL0     C17463   2.376   4.566   4.980 -0.3962 -0.1389 -0.1669
  852MOL0     C17464   2.240   4.565   4.949 -0.3728  0.0429  0.1772
  852MOL0     C17465   2.176   4.447   4.959 -0.1679  0.3492 -0.3873
  852MOL0     C17466   2.032   4.473   4.912 -0.2379  0.5953 -0.5548
  852MOL0     C17467   2.243   4.332   5.002 -0.5018 -0.8372  0.5643
  852MOL0     C17468   2.178   4.205   5.017  0.3998  1.4283  0.5066
  852MOL0     O17469   2.257   4.095   5.008 -1.7415 -0.1279 -0.3660
  852MOL0     C17470   2.229   3.976   5.062  0.1184  0.2517  1.0417
  852MOL0     C17471   2.112   3.905   5.014 -0.7586 -0.4391  0.2611
  852MOL0     C17472   2.065   3.787   5.087  0.0307  0.0768  0.8351
  852MOL0     C17473   2.132   3.747   5.201 -0.9930 -0.0342  0.4772
  852MOL0     O17474   2.096   3.646   5.278 -0.2870  0.1768 -0.0234
  852MOL0     C17475   1.980   3.574   5.243 -0.8217  0.1939  0.2979
  852MOL0     C17476   1.971   3.455   5.339  0.3365 -0.3898  0.4989
  852MOL0     C17477   1.832   3.392   5.331  0.2752 -0.5377 -0.7101
  852MOL0     C17478   1.833   3.304   5.208  0.6646  0.0024  0.3773
  852MOL0     C17479   1.708   3.220   5.217  0.4180 -0.0110  0.7544
  852MOL0     C17480   1.718   3.113   5.336 -0.3678 -0.2595 -0.2211
  852MOL0     C17481   1.613   3.004   5.334  0.1835  0.0494 -0.1854
  852MOL0     C17482   1.469   3.062   5.383  0.2753  0.5338 -0.1485
  852MOL0    Cl17483   1.476   3.106   5.555  0.1032 -0.2380 -0.1118
  852MOL0     C17484   2.250   3.818   5.242 -0.1384  0.5782 -1.2989
  852MOL0     C17485   2.293   3.933   5.175 -0.6535  0.2737 -0.1224
  852MOL0     O17486   2.057   4.197   5.029  0.4099  0.5511  0.3085
  852MOL0     C17487   2.377   4.337   5.036 -0.3800 -0.3948  0.4242
  852MOL0     C17488   2.445   4.454   5.018  0.5580 -0.2832  0.9561
  852MOL0     N17489   2.331   5.158   4.444 -0.0495  0.5517 -0.3704
  852MOL0     N17490   2.262   5.270   4.429 -0.0330 -0.2197 -0.0510
  852MOL0     C17491   1.743   6.489   4.308 -0.6084  0.5291 -0.3504
  852MOL0     C17492   1.743   6.618   4.269 -0.4550  0.1773  0.5859
  852MOL0     C17493   1.805   7.043   4.167 -0.2522  0.8021  0.6512
  852MOL0     C17494   1.746   7.120   4.278  0.4046 -0.6355 -0.3027
  852MOL0     C17495   1.692   7.247   4.257 -0.4196 -0.0624 -0.8530
  852MOL0     C17496   1.696   7.304   4.134 -0.0237 -0.0419  0.6078
  852MOL0     O17497   1.641   7.426   4.105  0.2191  0.0460 -0.6420
  852MOL0     C17498   1.521   7.433   4.034  0.0407 -0.2444 -0.4584
  852MOL0     C17499   1.406   7.438   4.137 -0.9479 -0.7658  0.2477
  852MOL0     C17500   1.275   7.431   4.066  0.2374  0.0346 -0.4080
  852MOL0     C17501   1.154   7.426   4.157  0.2841 -0.0845 -0.1013
  852MOL0     C17502   1.137   7.297   4.225 -0.0720  0.7271  0.1674
  852MOL0     C17503   1.120   7.191   4.266 -0.9681  0.8046  0.0498
  852MOL0     C17504   1.758   7.234   4.029  0.4427 -0.3748 -0.6341
  852MOL0     C17505   1.820   7.114   4.039  0.4047  0.3943 -0.4421
  852MOL0     C17506   1.863   7.047   3.911  0.4766 -0.5358  0.0466
  852MOL0     H17507   2.004   6.740   4.434  0.9649  0.0576  0.0594
  852MOL0     H17508   2.019   6.482   4.494 -0.3671 -2.7025 -0.9000
  852MOL0     H17509   2.026   6.213   4.409 -0.2136 -0.4108 -0.9793
  852MOL0     H17510   1.937   6.221   4.251  0.2824 -0.1215  0.6934
  852MOL0     H17511   1.833   6.068   4.485  1.0036 -1.4459  0.7245
  852MOL0     H17512   1.799   6.051   4.306 -2.9793  0.5818  0.9734
  852MOL0     H17513   2.017   5.933   4.277  1.7017 -2.6201  0.7175
  852MOL0     H17514   2.067   5.976   4.439 -1.4616  1.4916  2.6793
  852MOL0     H17515   1.892   5.828   4.535 -1.2831  0.4961 -0.6974
  852MOL0     H17516   1.828   5.797   4.373 -0.9314 -2.2383  0.9812
  852MOL0     H17517   2.114   5.743   4.469  0.8492 -2.8797  1.4426
  852MOL0     H17518   2.054   5.696   4.310 -0.4988 -2.5185  1.0067
  852MOL0     H17519   1.977   5.579   4.588 -3.1504  0.5218  1.2914
  852MOL0     H17520   1.862   5.568   4.447  0.5262 -0.4672 -0.2998
  852MOL0     H17521   2.155   5.496   4.438  0.2080 -1.4553 -0.0570
  852MOL0     H17522   2.023   5.473   4.319 -0.8671  0.4870 -0.0849
  852MOL0     H17523   1.991   5.347   4.586 -0.3821 -3.1358  0.4740
  852MOL0     H17524   1.935   5.299   4.423 -2.3868  3.1942  0.9305
  852MOL0     H17525   2.041   5.069   4.579  0.4531 -0.1219  3.2371
  852MOL0     H17526   2.409   4.936   4.552 -0.6855  2.0537  0.1804
  852MOL0     H17527   2.239   4.861   4.518 -3.6876  1.7108  1.2188
  852MOL0     H17528   2.280   5.007   4.761 -1.3782  0.2088 -1.7441
  852MOL0     H17529   2.165   4.874   4.718  0.2145 -0.4501 -3.6026
  852MOL0     H17530   2.324   4.702   4.740 -4.2063  0.8903  1.3598
  852MOL0     H17531   2.458   4.803   4.725 -0.0291  2.4867  0.8073
  852MOL0     H17532   2.439   4.894   4.964 -1.1691  1.6986 -0.1959
  852MOL0     H17533   2.282   4.824   4.976 -0.5017 -1.7442 -0.1492
  852MOL0     H17534   2.189   4.658   4.927  0.9880  0.6674 -0.4829
  852MOL0     H17535   1.980   4.521   4.995 -0.1534  2.1321 -1.3528
  852MOL0     H17536   1.976   4.382   4.890  0.0243  0.4623 -0.6693
  852MOL0     H17537   2.021   4.530   4.820  0.7473 -2.6160 -2.8260
  852MOL0     H17538   2.054   3.955   4.937  0.5524  0.4401 -0.1926
  852MOL0     H17539   1.978   3.734   5.051 -0.0845 -0.5390  1.9805
  852MOL0     H17540   1.888   3.630   5.264 -1.6183 -1.8997  2.8352
  852MOL0     H17541   2.000   3.537   5.142  1.0516 -1.2216  1.1346
  852MOL0     H17542   2.053   3.385   5.321  0.3160  0.1363 -2.1092
  852MOL0     H17543   1.993   3.497   5.438 -1.4167 -0.2268  0.8531
  852MOL0     H17544   1.748   3.461   5.325  0.5452 -0.1886 -0.4961
  852MOL0     H17545   1.821   3.336   5.424 -2.1490 -1.9077 -1.7340
  852MOL0     H17546   1.924   3.243   5.205 -0.4383 -1.7059 -0.1653
  852MOL0     H17547   1.838   3.362   5.115 -1.3184 -1.2837 -0.6139
  852MOL0     H17548   1.618   3.280   5.232 -1.5750 -2.4862 -0.6053
  852MOL0     H17549   1.693   3.165   5.124  2.5763  2.5212 -1.2777
  852MOL0     H17550   1.700   3.161   5.433  0.0556 -1.0181  0.2461
  852MOL0     H17551   1.822   3.077   5.342 -0.2483  0.1066 -0.0227
  852MOL0     H17552   1.648   2.935   5.412 -2.5687  1.7474  2.8307
  852MOL0     H17553   1.598   2.945   5.243 -2.1399  0.1794  0.0539
  852MOL0     H17554   1.388   2.990   5.375  1.8223 -1.7999  2.9546
  852MOL0     H17555   1.429   3.149   5.330 -0.0100  1.2431  1.1613
  852MOL0     H17556   2.281   3.791   5.342 -1.3169 -1.2034 -1.3521
  852MOL0     H17557   2.383   3.978   5.216 -0.4388 -0.5957  0.4130
  852MOL0     H17558   2.438   4.253   5.067 -0.6518 -0.3321  1.1425
  852MOL0     H17559   2.552   4.450   5.036  0.4925 -0.6234  1.2928
  852MOL0     H17560   1.672   6.417   4.270 -0.7756 -0.6264  1.9320
  852MOL0     H17561   1.667   6.651   4.198 -2.3343  1.5696  3.0704
  852MOL0     H17562   1.734   7.075   4.376  0.5070  0.9944  0.4741
  852MOL0     H17563   1.637   7.284   4.342 -1.0506 -2.1597 -0.2959
  852MOL0     H17564   1.526   7.526   3.977 -0.1806  0.0640  0.0153
  852MOL0     H17565   1.503   7.352   3.963 -0.3507 -1.4232  0.9444
  852MOL0     H17566   1.402   7.537   4.185  0.9583 -0.8145  0.6000
  852MOL0     H17567   1.419   7.354   4.206  3.9440 -0.4399  0.0844
  852MOL0     H17568   1.264   7.525   4.012  2.4010  1.4962  1.5424
  852MOL0     H17569   1.272   7.358   3.985 -0.1535  1.7624 -2.0201
  852MOL0     H17570   1.063   7.452   4.103 -0.5622 -0.7260  0.9631
  852MOL0     H17571   1.177   7.505   4.229  1.2172 -1.7159  1.4857
  852MOL0     H17572   1.102   7.095   4.309  2.6015 -1.0937 -2.1653
  852MOL0     H17573   1.750   7.294   3.939  1.1633  2.1772  0.9245
  852MOL0     H17574   1.836   7.115   3.830  0.8656 -1.3204 -0.7514
  852MOL0     H17575   1.972   7.045   3.903  0.5794  1.8406  0.0116
  852MOL0     H17576   1.830   6.945   3.891 -0.9903 -0.4639  1.8195
  853MOL0     O17577   5.433   8.892  11.423  0.4861  0.0092 -0.0333
  853MOL0     C17578   5.382   8.785  11.444 -0.3894 -0.0759 -0.3218
  853MOL0     O17579   5.459   8.670  11.477 -0.0488  0.2566  0.4788
  853MOL0     C17580   5.586   8.644  11.438 -0.0470 -0.3006  0.7424
  853MOL0     C17581   5.666   8.573  11.520 -0.6392 -0.6981 -0.4120
  853MOL0     C17582   5.805   8.555  11.488  0.6642 -0.8767  0.2739
  853MOL0     C17583   5.857   8.596  11.364 -0.6144  0.9391 -1.2593
  853MOL0     O17584   5.986   8.568  11.343  0.2836  0.1368  0.3618
  853MOL0     C17585   6.033   8.571  11.198 -0.9218  0.9449  0.9958
  853MOL0     C17586   6.171   8.499  11.169  0.1057 -0.7261 -0.1874
  853MOL0     C17587   6.278   8.561  11.255  0.5283 -0.2158  0.4342
  853MOL0     C17588   6.424   8.508  11.250  0.1245 -0.0925 -1.0970
  853MOL0     C17589   6.445   8.387  11.340  0.1573 -0.3970  0.0008
  853MOL0     C17590   6.590   8.346  11.374 -0.2454 -0.4928  0.2715
  853MOL0     C17591   6.668   8.297  11.248  0.0125 -0.2064  0.6250
  853MOL0     C17592   6.729   8.402  11.162  0.6080  0.2388 -0.8044
  853MOL0     N17593   6.851   8.470  11.217 -0.4891 -0.7060 -1.1890
  853MOL0     C17594   6.951   8.414  11.298 -0.4141  0.2540  0.5972
  853MOL0     C17595   7.048   8.510  11.311  0.8469  1.0118 -0.0229
  853MOL0     C17596   7.174   8.480  11.388 -0.8905  0.2410  0.0033
  853MOL0     C17597   7.283   8.402  11.311 -0.8738 -0.0536  0.0318
  853MOL0     C17598   7.314   8.474  11.176 -0.2723  0.1958 -0.2038
  853MOL0     C17599   7.458   8.448  11.124  0.8815  0.6497  0.0535
  853MOL0     O17600   7.454   8.305  11.096 -0.3198 -0.4258 -0.3686
  853MOL0     C17601   7.554   8.247  11.014  0.1467  0.0465  0.1737
  853MOL0     C17602   7.555   8.122  10.953  0.2880 -0.3248  0.1407
  853MOL0     C17603   7.655   8.075  10.865  0.3145 -0.4779  0.1251
  853MOL0     C17604   7.635   7.936  10.811 -0.1206  0.3818  0.1492
  853MOL0     C17605   7.771   8.157  10.841 -0.3084  0.5559  0.1769
  853MOL0     C17606   7.886   8.115  10.761  0.3103  0.1208  0.2930
  853MOL0     O17607   7.910   7.979  10.745  0.4546  0.1445 -0.7652
  853MOL0     C17608   7.991   7.931  10.644 -0.3615 -0.4818 -0.0517
  853MOL0     C17609   8.109   7.994  10.610  0.2386  0.8976 -0.1383
  853MOL0     C17610   8.203   7.936  10.522  0.6458 -0.4011  0.0373
  853MOL0     C17611   8.169   7.814  10.462 -0.1584 -0.0852  0.0033
  853MOL0     O17612   8.258   7.762  10.374 -0.4084  0.5866  0.0288
  853MOL0     C17613   8.262   7.612  10.347 -0.1607  0.1300  0.3500
  853MOL0     C17614   8.406   7.576  10.311 -1.0803 -0.2560  0.9981
  853MOL0     C17615   8.434   7.424  10.306 -0.8054  0.8011 -0.3480
  853MOL0     C17616   8.309   7.343  10.255  0.2416 -0.6610 -0.4686
  853MOL0     C17617   8.340   7.198  10.229  0.5988 -0.7545 -0.1542
  853MOL0     C17618   8.426   7.152  10.111 -0.3519  0.6852  0.1884
  853MOL0     C17619   8.379   7.209   9.976  0.1320 -0.5359  0.1580
  853MOL0     C17620   8.393   7.116   9.854  0.4942 -0.7197 -0.2131
  853MOL0    Cl17621   8.422   7.215   9.704  0.2131  0.6806 -0.1453
  853MOL0     C17622   8.048   7.751  10.498  0.0058  0.1006  0.1715
  853MOL0     C17623   7.950   7.811  10.584 -0.9820 -0.8608 -0.0013
  853MOL0     O17624   7.938   8.207  10.700 -0.3034  0.1205 -0.1897
  853MOL0     C17625   7.764   8.291  10.891  0.0922 -0.1841  0.0660
  853MOL0     C17626   7.665   8.337  10.976 -0.5654 -0.1681 -0.3432
  853MOL0     N17627   7.012   8.616  11.229  0.8389 -0.3042 -0.1736
  853MOL0     N17628   6.893   8.601  11.188 -0.8810  0.2748  0.4868
  853MOL0     C17629   5.767   8.657  11.273  0.1048  0.1302  0.6517
  853MOL0     C17630   5.639   8.696  11.318  0.0253  0.1550  0.2042
  853MOL0     C17631   5.239   8.761  11.414 -0.2709 -0.7093 -0.5158
  853MOL0     C17632   5.185   8.630  11.436 -0.6527 -0.1880 -0.6330
  853MOL0     C17633   5.049   8.600  11.418  0.2415 -0.0761  0.0522
  853MOL0     C17634   4.967   8.701  11.356  0.4805  0.7236  1.0918
  853MOL0     O17635   4.841   8.658  11.314  0.4532 -0.2594  0.4671
  853MOL0     C17636   4.745   8.760  11.267 -0.0993 -0.2581 -0.6278
  853MOL0     C17637   4.609   8.700  11.218  0.2967 -0.5858  0.2576
  853MOL0     C17638   4.521   8.817  11.172 -0.2815 -0.0860  0.6174
  853MOL0     C17639   4.374   8.784  11.166 -0.3674  0.6446 -0.5456
  853MOL0     C17640   4.353   8.668  11.081 -0.6822  0.9101  0.1100
  853MOL0     C17641   4.339   8.568  11.010 -0.7415 -0.6708 -0.7222
  853MOL0     C17642   5.011   8.826  11.342 -0.6385 -0.2420  0.9813
  853MOL0     C17643   5.147   8.859  11.368 -1.0837  0.3672  0.6095
  853MOL0     C17644   5.181   9.008  11.371 -0.5948  0.2836 -0.0997
  853MOL0     H17645   5.642   8.529  11.616  0.8694 -0.6335  0.0207
  853MOL0     H17646   5.874   8.520  11.564  0.6715  0.0810  0.7225
  853MOL0     H17647   6.049   8.677  11.174 -0.9149  0.5856 -0.6858
  853MOL0     H17648   5.962   8.535  11.123  1.2348 -0.8564 -0.2836
  853MOL0     H17649   6.151   8.394  11.193 -2.4445 -0.2755 -0.0913
  853MOL0     H17650   6.189   8.517  11.063 -2.2961  0.6558 -0.4426
  853MOL0     H17651   6.281   8.664  11.216  2.2516 -0.3026  0.2576
  853MOL0     H17652   6.247   8.565  11.360 -1.4247  3.9067 -0.0976
  853MOL0     H17653   6.443   8.486  11.145  2.4145  0.0560 -0.7699
  853MOL0     H17654   6.494   8.587  11.280 -0.0029 -0.1243 -0.7127
  853MOL0     H17655   6.390   8.313  11.282 -1.7319  1.3350 -0.5110
  853MOL0     H17656   6.395   8.403  11.436 -1.6371 -1.6880 -0.6899
  853MOL0     H17657   6.655   8.426  11.410  2.2874 -1.2766 -2.1914
  853MOL0     H17658   6.597   8.267  11.450  1.3111  1.0321  1.8079
  853MOL0     H17659   6.613   8.230  11.182  0.7988 -0.5951  0.3442
  853MOL0     H17660   6.753   8.242  11.290  0.9761  0.2099 -0.7193
  853MOL0     H17661   6.766   8.356  11.070  3.2252  5.3453 -2.6943
  853MOL0     H17662   6.657   8.481  11.139 -0.0885 -0.0133  0.4366
  853MOL0     H17663   6.946   8.314  11.339  1.1551 -0.7708 -1.5345
  853MOL0     H17664   7.158   8.428  11.483  0.5992 -0.1894  0.0386
  853MOL0     H17665   7.219   8.577  11.412  0.7932 -0.2730 -0.9560
  853MOL0     H17666   7.371   8.392  11.375 -1.1912 -2.5303  0.1928
  853MOL0     H17667   7.249   8.303  11.278 -0.2900  0.1822 -1.3602
  853MOL0     H17668   7.241   8.445  11.099  1.5843 -0.7822 -1.6720
  853MOL0     H17669   7.300   8.581  11.190 -0.3897  0.3164 -1.1577
  853MOL0     H17670   7.476   8.511  11.037  0.0819 -0.1169 -0.6807
  853MOL0     H17671   7.538   8.472  11.195  0.9385  0.1574  0.1592
  853MOL0     H17672   7.468   8.060  10.973 -0.9164  1.9789  2.6955
  853MOL0     H17673   7.661   7.923  10.706  1.7223  0.3901  0.5603
  853MOL0     H17674   7.531   7.902  10.808  0.1353 -0.3477 -1.5890
  853MOL0     H17675   7.698   7.885  10.884  1.8652  1.4093 -0.7692
  853MOL0     H17676   8.133   8.089  10.656 -3.0092  0.5695  2.7000
  853MOL0     H17677   8.295   7.988  10.499  0.0020  1.1784  0.8439
  853MOL0     H17678   8.222   7.565  10.437 -0.8458  0.3912  0.1950
  853MOL0     H17679   8.204   7.588  10.257 -0.1362  0.3947  0.2616
  853MOL0     H17680   8.438   7.618  10.215  3.0328 -0.1545  2.2191
  853MOL0     H17681   8.470   7.626  10.384  2.3325 -0.5209 -1.5735
  853MOL0     H17682   8.454   7.387  10.408  3.9734  0.9765 -0.9790
  853MOL0     H17683   8.530   7.406  10.256 -0.9908  0.8668 -0.7290
  853MOL0     H17684   8.278   7.391  10.161  1.2711  2.3001  0.5727
  853MOL0     H17685   8.227   7.343  10.327 -0.4063 -1.1973 -1.1913
  853MOL0     H17686   8.384   7.149  10.316 -2.1650 -1.0686  1.1406
  853MOL0     H17687   8.241   7.153  10.237  0.7722 -1.5722 -1.9436
  853MOL0     H17688   8.450   7.045  10.102 -1.7068  0.4318 -0.6816
  853MOL0     H17689   8.524   7.198  10.126 -0.0117 -0.0299  0.1956
  853MOL0     H17690   8.441   7.297   9.959 -0.3316  0.6826  3.8666
  853MOL0     H17691   8.281   7.257   9.977  0.2464 -0.3089  0.6005
  853MOL0     H17692   8.308   7.049   9.837 -1.0252  0.7291  1.3367
  853MOL0     H17693   8.481   7.051   9.862  1.1412  0.1788  0.0654
  853MOL0     H17694   8.022   7.658  10.446  0.3971  0.9748 -1.6806
  853MOL0     H17695   7.858   7.769  10.622  0.1773 -0.5771  3.4284
  853MOL0     H17696   7.856   8.349  10.882 -0.4328  0.6407 -0.0885
  853MOL0     H17697   7.685   8.435  11.017  0.9869 -0.2777 -0.7765
  853MOL0     H17698   5.787   8.685  11.170 -0.3212  0.6140  0.6963
  853MOL0     H17699   5.578   8.761  11.255 -1.5014 -0.2721  1.2017
  853MOL0     H17700   5.255   8.550  11.457 -0.3100 -0.4828 -2.6586
  853MOL0     H17701   5.001   8.503  11.430 -1.9652  0.8286 -0.7952
  853MOL0     H17702   4.733   8.846  11.334 -0.4828 -0.4703 -0.4224
  853MOL0     H17703   4.778   8.817  11.179 -1.4583  0.9331 -0.4056
  853MOL0     H17704   4.558   8.651  11.301  1.9304 -0.0900  1.6218
  853MOL0     H17705   4.621   8.630  11.135  1.7698  1.0010 -0.9525
  853MOL0     H17706   4.528   8.904  11.238 -1.5666 -0.7091  1.6327
  853MOL0     H17707   4.563   8.843  11.074 -2.3241  1.4922  0.0834
  853MOL0     H17708   4.319   8.871  11.130 -0.8209  1.3351  1.6794
  853MOL0     H17709   4.341   8.759  11.267 -1.7632  0.6519 -0.9784
  853MOL0     H17710   4.336   8.490  10.937  1.2141  0.8484 -2.5329
  853MOL0     H17711   4.952   8.913  11.315 -0.8598  0.8290  4.4316
  853MOL0     H17712   5.105   9.066  11.318  0.4350  1.3459 -0.4616
  853MOL0     H17713   5.178   9.049  11.472  1.2410 -2.4914  1.2083
  853MOL0     H17714   5.277   9.046  11.334 -0.5387 -0.1905 -0.4488
  854MOL0     O17715   3.119   2.613   9.835  0.0553  0.0053 -0.2378
  854MOL0     C17716   3.016   2.629   9.901 -0.4822 -0.2087  0.0652
  854MOL0     O17717   3.003   2.572  10.023 -0.3560  0.2063  0.3325
  854MOL0     C17718   3.107   2.499  10.070 -0.2263  0.5293 -0.4331
  854MOL0     C17719   3.128   2.368  10.024 -0.3649 -0.2489 -0.0335
  854MOL0     C17720   3.243   2.296  10.064 -0.5106 -0.1255 -0.9242
  854MOL0     C17721   3.319   2.349  10.169 -0.4386 -0.0678 -0.5463
  854MOL0     O17722   3.425   2.272  10.213 -0.2081  1.1050 -0.4895
  854MOL0     C17723   3.492   2.306  10.331 -0.9130 -0.5647 -0.4760
  854MOL0     C17724   3.584   2.188  10.374 -0.7299 -0.1517 -0.2250
  854MOL0     C17725   3.617   2.195  10.522  0.2979  0.7432 -0.1325
  854MOL0     C17726   3.760   2.155  10.551  0.1844  0.1793 -0.2792
  854MOL0     C17727   3.804   2.181  10.694 -0.3931 -0.8976  0.3577
  854MOL0     C17728   3.949   2.133  10.704 -0.5474  0.4234 -0.3330
  854MOL0     C17729   3.996   2.151  10.844 -0.1421  0.5557  0.7271
  854MOL0     C17730   4.138   2.105  10.893  0.6215 -0.4784  0.0415
  854MOL0     N17731   4.243   2.167  10.809 -0.1005  0.1332  0.0974
  854MOL0     C17732   4.255   2.299  10.783  0.5252 -1.0203 -0.0507
  854MOL0     C17733   4.363   2.305  10.701 -0.3267  0.0991  0.0779
  854MOL0     C17734   4.431   2.427  10.643  0.2151 -0.2020  0.8620
  854MOL0     C17735   4.545   2.467  10.740  0.0372 -0.8988  0.4826
  854MOL0     C17736   4.587   2.618  10.721 -0.7774  0.1426 -0.2491
  854MOL0     C17737   4.689   2.663  10.821  0.2375  0.1756  0.1295
  854MOL0     O17738   4.815   2.612  10.792  0.2092  0.0776  0.4228
  854MOL0     C17739   4.911   2.655  10.874  0.7761 -0.4578 -0.0557
  854MOL0     C17740   4.970   2.578  10.977 -0.3358 -0.9099  0.6448
  854MOL0     C17741   5.070   2.629  11.060 -0.7307 -1.3616  0.0280
  854MOL0     C17742   5.125   2.543  11.155  1.0130  0.4082  0.3446
  854MOL0     C17743   5.113   2.765  11.046 -0.3971 -0.6940 -0.3094
  854MOL0     C17744   5.222   2.826  11.129 -0.3516  0.5164  0.1903
  854MOL0     O17745   5.275   2.945  11.081  0.0363  0.1138  0.5271
  854MOL0     C17746   5.386   3.005  11.142 -0.2436  1.2859 -0.1146
  854MOL0     C17747   5.505   2.942  11.197  0.8767 -0.2609 -0.2116
  854MOL0     C17748   5.609   3.000  11.254 -0.3323 -0.6574 -0.0027
  854MOL0     C17749   5.603   3.139  11.263  0.1813  1.1069  1.0704
  854MOL0     O17750   5.720   3.195  11.313  0.7505 -0.3652 -0.3288
  854MOL0     C17751   5.693   3.307  11.395 -0.4328 -0.0295 -0.9529
  854MOL0     C17752   5.823   3.344  11.484 -0.6483  0.0365 -0.4238
  854MOL0     C17753   5.876   3.229  11.567  0.0074 -0.5561 -1.0749
  854MOL0     C17754   5.999   3.259  11.647 -1.0771 -0.0186  0.7428
  854MOL0     C17755   6.058   3.131  11.698 -0.3560  0.2671  0.1777
  854MOL0     C17756   6.169   3.158  11.799 -0.9180 -0.4743  0.1594
  854MOL0     C17757   6.125   3.208  11.937  0.3989  0.0122 -0.9995
  854MOL0     C17758   6.250   3.227  12.023  0.1401  0.2806 -0.9725
  854MOL0    Cl17759   6.346   3.367  11.981 -0.3621  0.6361  0.2916
  854MOL0     C17760   5.493   3.217  11.218 -0.2005  0.0945  0.0777
  854MOL0     C17761   5.389   3.146  11.146 -0.7117  0.6657  0.3931
  854MOL0     O17762   5.246   2.774  11.237 -0.1734 -0.2384 -0.0990
  854MOL0     C17763   5.044   2.839  10.944  0.8630 -0.4068 -0.7715
  854MOL0     C17764   4.943   2.789  10.866 -0.2729  0.6439 -0.8928
  854MOL0     N17765   4.403   2.172  10.672 -1.2394  0.1780 -0.0226
  854MOL0     N17766   4.325   2.092  10.733 -0.1012  0.2316  0.6674
  854MOL0     C17767   3.293   2.481  10.216  0.4124 -0.3417 -0.1122
  854MOL0     C17768   3.184   2.552  10.172  0.2722  0.0040 -0.4272
  854MOL0     C17769   2.903   2.716   9.854 -0.9668  1.1496 -0.2755
  854MOL0     C17770   2.920   2.766   9.721 -1.0204 -0.5901  0.0983
  854MOL0     C17771   2.831   2.855   9.662  0.4023 -0.7213 -0.2692
  854MOL0     C17772   2.709   2.877   9.730  0.5754  0.1802 -0.1342
  854MOL0     O17773   2.602   2.956   9.698 -0.5071 -0.7231  0.0546
  854MOL0     C17774   2.612   3.045   9.584 -0.0556 -0.2825  0.1905
  854MOL0     C17775   2.480   3.120   9.565 -0.0392  0.4130  0.5695
  854MOL0     C17776   2.357   3.024   9.562 -0.3322 -0.0986 -0.3691
  854MOL0     C17777   2.223   3.100   9.567 -0.1800  0.0631  0.2530
  854MOL0     C17778   2.113   3.000   9.537  0.4262 -0.5015 -0.5032
  854MOL0     C17779   2.022   2.920   9.524 -0.7054 -0.2384 -0.1430
  854MOL0     C17780   2.699   2.833   9.860 -0.0659  0.5786  0.0111
  854MOL0     C17781   2.793   2.756   9.924  0.2134  0.6394 -0.8452
  854MOL0     C17782   2.773   2.727  10.070 -0.0638  0.5848 -0.3054
  854MOL0     H17783   3.057   2.342   9.946 -2.1813  2.0050  0.7366
  854MOL0     H17784   3.261   2.198  10.022 -1.2728 -0.4606 -0.5047
  854MOL0     H17785   3.417   2.307  10.410 -0.9198 -1.0365 -0.4724
  854MOL0     H17786   3.538   2.400  10.298 -1.1835  0.1869  1.1762
  854MOL0     H17787   3.534   2.091  10.368  0.3085 -0.6386 -1.2807
  854MOL0     H17788   3.670   2.187  10.306  1.2247 -0.7223  2.1038
  854MOL0     H17789   3.606   2.299  10.555  0.6319  1.6813 -2.7281
  854MOL0     H17790   3.544   2.138  10.580  1.7792 -1.4588 -0.3046
  854MOL0     H17791   3.783   2.051  10.528 -0.3910 -0.0252  0.0649
  854MOL0     H17792   3.822   2.203  10.474 -0.6978 -2.0767 -2.5407
  854MOL0     H17793   3.742   2.142  10.775 -2.6135 -0.4372 -1.0452
  854MOL0     H17794   3.812   2.289  10.712  2.0715 -1.1071  0.8936
  854MOL0     H17795   3.950   2.028  10.675 -1.1626  0.4749 -0.5615
  854MOL0     H17796   4.012   2.197  10.642  1.4256 -0.6783  0.4533
  854MOL0     H17797   3.925   2.121  10.922 -0.1671  1.4973  1.0859
  854MOL0     H17798   3.985   2.259  10.861  0.8178  0.9269 -0.8944
  854MOL0     H17799   4.160   2.120  10.999  1.5605 -3.3925  0.3519
  854MOL0     H17800   4.146   1.996  10.883  2.9934 -0.4091  0.5645
  854MOL0     H17801   4.189   2.373  10.828  1.7858  0.2551 -0.2270
  854MOL0     H17802   4.365   2.512  10.622  2.1357  0.7473 -1.8104
  854MOL0     H17803   4.466   2.395  10.544 -3.3338  2.9381 -1.7163
  854MOL0     H17804   4.518   2.448  10.844  1.6229 -1.0012  0.8990
  854MOL0     H17805   4.627   2.400  10.714 -0.6061 -1.5379  0.0644
  854MOL0     H17806   4.611   2.626  10.615 -0.7188  1.8714 -0.1203
  854MOL0     H17807   4.497   2.678  10.733 -0.3956  0.6694  0.0338
  854MOL0     H17808   4.681   2.772  10.827  1.3853  0.2121  1.4513
  854MOL0     H17809   4.669   2.635  10.925  0.2859  1.2215  0.4385
  854MOL0     H17810   4.928   2.480  10.992  0.7767 -1.2479  1.6394
  854MOL0     H17811   5.102   2.438  11.135  2.3994  0.0861  0.3337
  854MOL0     H17812   5.077   2.562  11.252  0.3452 -0.3822  0.1845
  854MOL0     H17813   5.234   2.552  11.155  1.0649  0.3828 -1.9867
  854MOL0     H17814   5.504   2.834  11.205  1.8524 -0.2794 -0.1150
  854MOL0     H17815   5.686   2.943  11.304 -1.2282 -1.8124  0.1080
  854MOL0     H17816   5.659   3.399  11.348 -1.8908  1.2557  2.3104
  854MOL0     H17817   5.611   3.273  11.458 -0.7766 -1.0386 -1.9191
  854MOL0     H17818   5.906   3.378  11.422  0.4605 -0.7513  0.5961
  854MOL0     H17819   5.795   3.423  11.554 -2.1732 -2.7781  2.4026
  854MOL0     H17820   5.898   3.143  11.503  2.8556  0.4450 -1.5936
  854MOL0     H17821   5.805   3.192  11.642 -0.5635 -1.4028 -2.0092
  854MOL0     H17822   5.978   3.328  11.729 -1.0814  2.1555 -0.9706
  854MOL0     H17823   6.079   3.291  11.579 -2.8224  1.3360 -0.7597
  854MOL0     H17824   5.981   3.063  11.736  0.3575 -0.4063  0.4526
  854MOL0     H17825   6.096   3.078  11.611  0.4121  0.7130  0.2345
  854MOL0     H17826   6.246   3.231  11.769 -0.9171 -0.6784 -0.3337
  854MOL0     H17827   6.219   3.064  11.825  1.0469  0.2776 -0.6532
  854MOL0     H17828   6.052   3.140  11.984  1.0059  0.5955  0.8980
  854MOL0     H17829   6.067   3.301  11.939 -1.9891 -1.3829  0.5858
  854MOL0     H17830   6.311   3.138  12.005  1.4457  0.6073  1.4900
  854MOL0     H17831   6.233   3.244  12.129  3.1612 -2.3769  0.1115
  854MOL0     H17832   5.491   3.325  11.226 -0.0868  0.2663 -1.7553
  854MOL0     H17833   5.306   3.198  11.099 -0.1557  1.1954 -0.0183
  854MOL0     H17834   5.075   2.941  10.925  0.1503 -0.0156  0.1039
  854MOL0     H17835   4.890   2.859  10.802 -1.3312  0.8049  0.1171
  854MOL0     H17836   3.363   2.530  10.282 -1.1904 -0.2774  1.6273
  854MOL0     H17837   3.169   2.651  10.213 -1.9237 -0.3262 -0.3205
  854MOL0     H17838   3.014   2.746   9.670 -2.1263 -3.3432 -1.0687
  854MOL0     H17839   2.869   2.891   9.566 -1.9108 -2.7640 -2.0850
  854MOL0     H17840   2.695   3.108   9.617  0.6229 -1.9716  1.9177
  854MOL0     H17841   2.641   2.993   9.493 -1.5223  0.5666 -0.7991
  854MOL0     H17842   2.499   3.186   9.479  1.2178  1.0661  1.3264
  854MOL0     H17843   2.467   3.185   9.651  3.6645 -0.7940  2.2465
  854MOL0     H17844   2.357   2.966   9.469 -1.2498 -2.0116  0.7650
  854MOL0     H17845   2.368   2.953   9.645  0.1024  1.2996  0.8192
  854MOL0     H17846   2.225   3.169   9.482  0.6594 -1.5293 -1.0801
  854MOL0     H17847   2.210   3.150   9.663 -1.7224  1.0650 -0.4420
  854MOL0     H17848   1.959   2.835   9.537  0.9208 -1.1537  2.8030
  854MOL0     H17849   2.599   2.844   9.899 -1.3428  1.4479 -3.2052
  854MOL0     H17850   2.869   2.741  10.120  0.6262 -1.5166 -0.9157
  854MOL0     H17851   2.693   2.781  10.121  1.5476  1.7747  1.0718
  854MOL0     H17852   2.755   2.623  10.098  2.0588 -0.1707 -1.5114
  855MOL0     O17853   7.298   0.988   5.811  0.8395  0.7969  0.1492
  855MOL0     C17854   7.276   0.906   5.719  0.0712 -0.0133 -0.3368
  855MOL0     O17855   7.364   0.873   5.615  0.4762 -0.2587  0.6528
  855MOL0     C17856   7.493   0.900   5.603 -0.7707  0.0042  0.5340
  855MOL0     C17857   7.561   0.987   5.683 -0.9777 -0.6423  0.3112
  855MOL0     C17858   7.695   1.009   5.670 -0.2865 -0.9374 -0.1764
  855MOL0     C17859   7.773   0.948   5.569 -0.6222  0.7649 -0.3745
  855MOL0     O17860   7.907   0.966   5.549 -0.1429 -0.5309  0.7333
  855MOL0     C17861   7.983   1.026   5.650  0.0804 -0.0941  0.2782
  855MOL0     C17862   8.021   1.168   5.627  0.3458  0.1618  0.5945
  855MOL0     C17863   8.144   1.211   5.711 -0.2007 -0.4825 -0.2826
  855MOL0     C17864   8.263   1.256   5.625  0.5841  0.8331 -0.5354
  855MOL0     C17865   8.343   1.140   5.570  0.5441 -0.4658 -0.0208
  855MOL0     C17866   8.468   1.181   5.500  0.7737  0.1444 -0.1432
  855MOL0     C17867   8.539   1.058   5.441 -0.9858  1.3179 -1.0433
  855MOL0     C17868   8.669   1.107   5.376 -0.2670 -0.1332  0.7552
  855MOL0     N17869   8.740   1.003   5.303  0.4866  0.0505 -0.1271
  855MOL0     C17870   8.701   0.959   5.179 -0.2162 -0.0940  0.0007
  855MOL0     C17871   8.810   0.889   5.139 -0.5644  0.5931 -0.1199
  855MOL0     C17872   8.843   0.852   4.998  0.4665  0.1603  1.3813
  855MOL0     C17873   8.758   0.729   4.973 -0.5056  0.9252  0.0976
  855MOL0     C17874   8.791   0.676   4.836 -0.9303 -0.4720 -0.1047
  855MOL0     C17875   8.718   0.536   4.816  0.4788 -0.4892  0.2324
  855MOL0     O17876   8.740   0.452   4.924  0.1466 -0.4113  0.3087
  855MOL0     C17877   8.683   0.327   4.920 -0.0109  1.0379  0.1836
  855MOL0     C17878   8.612   0.267   4.819  0.1473  0.6917  0.4748
  855MOL0     C17879   8.555   0.138   4.836  0.0782  0.0260 -0.0027
  855MOL0     C17880   8.474   0.098   4.720 -0.0963  0.2184  0.5721
  855MOL0     C17881   8.573   0.062   4.953  0.3585 -0.2541 -0.5219
  855MOL0     C17882   8.507  -0.060   4.997  0.6000  0.4805  0.2595
  855MOL0     O17883   8.484  -0.074   5.135  0.0836  0.6306 -0.2544
  855MOL0     C17884   8.405  -0.162   5.197 -0.0924  0.5816 -0.0567
  855MOL0     C17885   8.421  -0.160   5.346  1.4540 -0.2223  0.3440
  855MOL0     C17886   8.375  -0.273   5.418 -0.7557 -0.4460 -0.9500
  855MOL0     C17887   8.306  -0.376   5.358  0.5123  0.4154  0.7456
  855MOL0     O17888   8.268  -0.481   5.432 -0.0225  0.1404  0.0089
  855MOL0     C17889   8.262  -0.606   5.363 -0.2481 -0.5615  0.4326
  855MOL0     C17890   8.249  -0.717   5.462 -0.0069 -0.8219  0.7013
  855MOL0     C17891   8.378  -0.775   5.526  0.1903 -0.3690 -1.1786
  855MOL0     C17892   8.356  -0.913   5.601 -0.5197 -0.7925 -0.4490
  855MOL0     C17893   8.288  -0.883   5.735 -0.0344 -0.0188  0.3716
  855MOL0     C17894   8.281  -0.997   5.830 -1.1437 -0.6197 -0.0260
  855MOL0     C17895   8.239  -1.125   5.763 -0.3818 -1.0774 -1.0953
  855MOL0     C17896   8.194  -1.238   5.847 -0.9412  0.0405  0.2488
  855MOL0    Cl17897   8.131  -1.366   5.734  0.3574  0.2742  0.2253
  855MOL0     C17898   8.277  -0.371   5.217 -0.2854  0.2149 -0.5691
  855MOL0     C17899   8.332  -0.267   5.145  0.5560  0.0282 -0.3051
  855MOL0     O17900   8.483  -0.141   4.906 -0.0159 -0.2563 -0.3062
  855MOL0     C17901   8.632   0.134   5.058  0.1876 -0.1644  0.2864
  855MOL0     C17902   8.701   0.251   5.042  0.1373 -0.9784  0.2995
  855MOL0     N17903   8.904   0.891   5.237  0.0929 -0.0259  0.0900
  855MOL0     N17904   8.864   0.968   5.331 -0.0030  0.6985 -0.4347
  855MOL0     C17905   7.707   0.859   5.487  0.1168 -0.0488  0.2225
  855MOL0     C17906   7.569   0.833   5.500  0.8376 -0.5206  0.5657
  855MOL0     C17907   7.157   0.818   5.736 -0.0701  0.4787 -0.7891
  855MOL0     C17908   7.053   0.892   5.797 -0.4159 -0.1672  0.5225
  855MOL0     C17909   6.933   0.823   5.826  0.0121 -0.0788 -0.3048
  855MOL0     C17910   6.902   0.702   5.764 -0.6181 -0.0518  0.3134
  855MOL0     O17911   6.790   0.628   5.798  0.0798  0.2416  0.1683
  855MOL0     C17912   6.729   0.645   5.923  0.4423 -0.9003 -0.3344
  855MOL0     C17913   6.672   0.517   5.987 -0.4316  0.1668  0.1274
  855MOL0     C17914   6.765   0.403   5.995 -0.2095  0.4336  0.4576
  855MOL0     C17915   6.702   0.289   6.071 -0.0427  0.6406 -0.4478
  855MOL0     C17916   6.784   0.165   6.056  0.5801  0.8994  0.3533
  855MOL0     C17917   6.851   0.058   6.041  0.1399  0.1129 -0.0886
  855MOL0     C17918   6.997   0.632   5.688  0.2691 -0.8567  0.0780
  855MOL0     C17919   7.134   0.687   5.680 -0.5278 -0.2888 -0.3306
  855MOL0     C17920   7.251   0.605   5.619 -0.4995  0.7092 -0.2245
  855MOL0     H17921   7.510   1.048   5.756  1.5072 -1.1400  2.6182
  855MOL0     H17922   7.741   1.072   5.745  1.6738 -2.3544 -0.1318
  855MOL0     H17923   8.074   0.965   5.655 -0.0487 -0.6950 -2.7925
  855MOL0     H17924   7.943   1.020   5.752  3.8612 -3.1645  1.8594
  855MOL0     H17925   8.040   1.190   5.521 -1.1955 -0.0757  0.2442
  855MOL0     H17926   7.936   1.234   5.650 -0.0194 -0.0037 -0.2440
  855MOL0     H17927   8.111   1.297   5.770 -4.7741 -2.8386  1.0007
  855MOL0     H17928   8.179   1.134   5.780  5.7727  2.2745  0.4593
  855MOL0     H17929   8.224   1.307   5.537  2.5862 -0.3020 -2.1732
  855MOL0     H17930   8.325   1.324   5.683 -0.7224  0.8671  0.8946
  855MOL0     H17931   8.286   1.085   5.494  0.4151 -0.2269 -0.0970
  855MOL0     H17932   8.367   1.069   5.651  1.1955 -0.0076  0.1987
  855MOL0     H17933   8.458   1.255   5.420  0.6996 -0.1833 -0.4413
  855MOL0     H17934   8.531   1.231   5.574 -0.9927  1.1508  0.7344
  855MOL0     H17935   8.475   1.009   5.367 -1.0466  0.7100 -0.5919
  855MOL0     H17936   8.558   0.987   5.521  0.3418  3.0256  0.2139
  855MOL0     H17937   8.654   1.194   5.310 -2.8677  0.4556  1.9853
  855MOL0     H17938   8.729   1.147   5.458 -1.5000  3.5861  0.0542
  855MOL0     H17939   8.612   0.999   5.132 -2.8255  1.2755  5.3498
  855MOL0     H17940   8.947   0.820   5.007  1.1333  2.0204  0.8165
  855MOL0     H17941   8.825   0.923   4.916  2.2516 -2.3193 -1.3561
  855MOL0     H17942   8.796   0.650   5.038  0.1709 -1.3512 -2.8557
  855MOL0     H17943   8.653   0.749   4.995 -0.2907  0.5085  1.6590
  855MOL0     H17944   8.769   0.749   4.757 -4.9772 -0.0147  1.2284
  855MOL0     H17945   8.898   0.656   4.834 -0.3313  2.0964  1.7144
  855MOL0     H17946   8.613   0.555   4.788  1.1808  3.5804 -0.2177
  855MOL0     H17947   8.765   0.492   4.728  0.7325 -5.1579  2.3704
  855MOL0     H17948   8.597   0.322   4.727  2.0851 -0.5811 -0.6715
  855MOL0     H17949   8.514   0.140   4.628  0.2018  0.1457  0.6655
  855MOL0     H17950   8.372   0.132   4.738 -0.0094  1.5614 -1.2695
  855MOL0     H17951   8.477  -0.010   4.700 -3.0415  0.2250 -0.3183
  855MOL0     H17952   8.472  -0.071   5.382 -1.0311  2.1290 -1.5660
  855MOL0     H17953   8.378  -0.289   5.526 -0.4568  0.6197 -0.7835
  855MOL0     H17954   8.172  -0.610   5.301 -1.1340  1.8498  1.4120
  855MOL0     H17955   8.338  -0.616   5.286 -1.6562  0.5975 -1.1879
  855MOL0     H17956   8.176  -0.687   5.538 -1.1746  2.3626 -1.4780
  855MOL0     H17957   8.200  -0.795   5.403 -2.6353  0.9021  0.4350
  855MOL0     H17958   8.426  -0.702   5.592 -0.1425  0.9707 -2.3617
  855MOL0     H17959   8.443  -0.778   5.439  0.2262 -0.1808 -1.1604
  855MOL0     H17960   8.450  -0.966   5.618  0.6626  0.4336 -2.6796
  855MOL0     H17961   8.290  -0.977   5.541 -1.6750 -1.0836  1.0548
  855MOL0     H17962   8.345  -0.807   5.790  3.3569 -2.8294  1.1051
  855MOL0     H17963   8.188  -0.845   5.716  0.1805  2.0942  2.9024
  855MOL0     H17964   8.216  -0.967   5.912  1.3402  4.5691  0.4542
  855MOL0     H17965   8.383  -1.015   5.868 -1.9184 -0.4356  2.3099
  855MOL0     H17966   8.327  -1.164   5.711  0.9558 -0.7755  0.8664
  855MOL0     H17967   8.162  -1.097   5.690 -1.1226 -0.2668 -0.0204
  855MOL0     H17968   8.113  -1.209   5.915  0.0072  0.7233  1.1255
  855MOL0     H17969   8.271  -1.286   5.907  0.8542  1.4556 -0.8150
  855MOL0     H17970   8.224  -0.442   5.154 -0.2074 -1.1006  0.8070
  855MOL0     H17971   8.327  -0.278   5.037 -1.0854  2.3359 -0.5345
  855MOL0     H17972   8.634   0.089   5.157 -2.0209 -2.0166 -0.4372
  855MOL0     H17973   8.755   0.298   5.123 -0.5330  0.5280 -0.0830
  855MOL0     H17974   7.772   0.806   5.418  3.3587 -1.7314  4.1711
  855MOL0     H17975   7.532   0.744   5.450 -1.3579  1.6538 -2.0389
  855MOL0     H17976   7.067   0.989   5.845  1.2504 -0.2940  0.3361
  855MOL0     H17977   6.851   0.883   5.865 -1.1897  0.1354 -2.9997
  855MOL0     H17978   6.792   0.691   6.000  0.7016 -2.5579  0.4948
  855MOL0     H17979   6.651   0.717   5.896  1.1900 -0.2576 -0.8110
  855MOL0     H17980   6.587   0.492   5.924  1.9793 -2.8453 -2.2691
  855MOL0     H17981   6.628   0.539   6.085 -0.8336 -0.5007  0.1034
  855MOL0     H17982   6.786   0.375   5.891  2.1518 -1.4016  1.3246
  855MOL0     H17983   6.859   0.441   6.038 -0.4280  2.4251 -0.6964
  855MOL0     H17984   6.602   0.270   6.030 -0.7539 -0.0265  1.4548
  855MOL0     H17985   6.677   0.314   6.175  0.0531  3.8709 -1.0963
  855MOL0     H17986   6.919  -0.021   6.017  0.3711  1.4376 -4.9032
  855MOL0     H17987   6.975   0.538   5.638 -0.0553  0.0153 -1.4780
  855MOL0     H17988   7.281   0.642   5.520  2.2540  1.5583  0.8387
  855MOL0     H17989   7.340   0.614   5.681 -0.0400  3.3945 -1.1334
  855MOL0     H17990   7.228   0.499   5.608  3.5421 -0.1640 -2.0070
  856MOL0     O17991   5.906   3.924   3.957 -0.1156 -0.0406 -0.1085
  856MOL0     C17992   5.905   3.897   4.077 -0.5688 -1.0796  1.1087
  856MOL0     O17993   6.015   3.919   4.154  0.3802  0.3501  0.6196
  856MOL0     C17994   6.132   3.926   4.086  0.6570  0.0752 -0.3270
  856MOL0     C17995   6.190   3.813   4.026 -0.5556  1.1126 -0.1126
  856MOL0     C17996   6.315   3.823   3.970 -0.0289  0.3337  0.1399
  856MOL0     C17997   6.385   3.944   3.968  0.1531  0.7006  1.1744
  856MOL0     O17998   6.509   3.971   3.914  0.2755  0.0990 -0.1246
  856MOL0     C17999   6.573   3.871   3.833  0.6011 -0.1364  0.5139
  856MOL0     C18000   6.639   3.950   3.717  1.0721 -0.1317 -0.3686
  856MOL0     C18001   6.730   3.879   3.621  0.0229 -0.7900 -0.7243
  856MOL0     C18002   6.651   3.783   3.529  0.0443  0.2677 -0.0208
  856MOL0     C18003   6.742   3.739   3.407  0.2770 -0.2675 -0.0528
  856MOL0     C18004   6.655   3.673   3.293 -1.0631 -1.0991  1.2622
  856MOL0     C18005   6.744   3.585   3.190  0.0034 -0.6572  0.0780
  856MOL0     C18006   6.771   3.449   3.230  0.3148  0.3371  0.1836
  856MOL0     N18007   6.675   3.351   3.183 -0.2872  0.7535 -0.3415
  856MOL0     C18008   6.676   3.279   3.065  0.6723 -0.1072  0.6158
  856MOL0     C18009   6.590   3.167   3.087  0.3447 -0.4845 -0.0981
  856MOL0     C18010   6.542   3.078   2.974 -0.6878 -0.2207 -0.8049
  856MOL0     C18011   6.394   3.083   2.943  0.2499  0.0062 -0.0754
  856MOL0     C18012   6.346   2.981   2.837  0.0340 -0.6464 -0.3589
  856MOL0     C18013   6.202   3.009   2.789  0.3826  0.0313  0.1439
  856MOL0     O18014   6.185   3.125   2.713  0.6341 -0.8775  0.4716
  856MOL0     C18015   6.065   3.177   2.666 -0.5510  0.6961 -0.3285
  856MOL0     C18016   6.046   3.296   2.596  0.4782 -0.5737  0.5143
  856MOL0     C18017   5.915   3.347   2.569 -0.0215  0.3243  0.8340
  856MOL0     C18018   5.928   3.472   2.484 -0.1925 -0.1789  0.7513
  856MOL0     C18019   5.800   3.278   2.610 -0.1864 -0.6795 -0.4137
  856MOL0     C18020   5.661   3.300   2.555  0.0620  0.0632 -0.2126
  856MOL0     O18021   5.637   3.405   2.474  0.5714  1.1081  0.0027
  856MOL0     C18022   5.504   3.415   2.434  0.0281 -0.1904  0.6844
  856MOL0     C18023   5.408   3.518   2.477  0.5700  1.0058  0.3731
  856MOL0     C18024   5.277   3.529   2.416 -0.4567  0.3413  0.4386
  856MOL0     C18025   5.243   3.440   2.312 -0.0012 -0.1761 -0.9566
  856MOL0     O18026   5.120   3.439   2.256  0.4788  0.2480  0.0721
  856MOL0     C18027   5.011   3.405   2.335  0.2816  0.4392  0.1457
  856MOL0     C18028   4.911   3.305   2.271 -0.0672 -0.3055  0.0123
  856MOL0     C18029   4.949   3.158   2.276  0.5165  0.1076  0.3915
  856MOL0     C18030   5.078   3.124   2.198 -0.6731 -0.0209 -0.1712
  856MOL0     C18031   5.183   3.047   2.279  0.3867 -1.0263 -0.1909
  856MOL0     C18032   5.289   2.982   2.183  0.3646  0.0339 -0.3068
  856MOL0     C18033   5.407   2.920   2.267  0.7522  0.6957 -0.3153
  856MOL0     C18034   5.478   2.800   2.190  0.5185 -0.1803 -0.2858
  856MOL0    Cl18035   5.533   2.859   2.032 -0.5138 -0.2628  0.3042
  856MOL0     C18036   5.337   3.348   2.268 -1.6792 -0.3971 -0.1054
  856MOL0     C18037   5.463   3.336   2.322  0.0608 -0.1958  0.1928
  856MOL0     O18038   5.583   3.216   2.593 -0.3708  0.0827 -0.7856
  856MOL0     C18039   5.820   3.169   2.695  0.0306  0.5847  0.2980
  856MOL0     C18040   5.951   3.111   2.718  0.0623 -0.8276 -0.1761
  856MOL0     N18041   6.545   3.182   3.219 -0.1074  0.1047  0.5798
  856MOL0     N18042   6.596   3.286   3.276  1.0418 -0.0354 -0.9485
  856MOL0     C18043   6.322   4.056   4.031  0.5089  0.2270 -0.0773
  856MOL0     C18044   6.198   4.052   4.085  0.4173 -0.1738 -0.5103
  856MOL0     C18045   5.788   3.846   4.137 -0.4356 -0.4251  0.3020
  856MOL0     C18046   5.803   3.841   4.281  0.8203 -0.6898  0.0534
  856MOL0     C18047   5.704   3.776   4.359 -0.9588  0.8264  0.0657
  856MOL0     C18048   5.600   3.715   4.289  0.2769  0.0883 -0.2255
  856MOL0     O18049   5.507   3.659   4.379 -0.0820 -0.3591  0.0460
  856MOL0     C18050   5.375   3.627   4.321 -0.1986  0.5127  0.9673
  856MOL0     C18051   5.271   3.625   4.430  0.5440 -0.0986  0.3574
  856MOL0     C18052   5.248   3.763   4.495 -0.3688  0.2393  0.5398
  856MOL0     C18053   5.201   3.875   4.396 -0.0780 -0.1464  0.4931
  856MOL0     C18054   5.160   3.986   4.486  0.5791  0.4220  0.2818
  856MOL0     C18055   5.102   4.071   4.550  0.5081  0.0254 -0.3991
  856MOL0     C18056   5.588   3.726   4.141 -0.1379  0.2533 -0.4479
  856MOL0     C18057   5.690   3.779   4.065 -0.2996  0.8725  0.7581
  856MOL0     C18058   5.695   3.737   3.921 -0.6627 -0.3261  0.8237
  856MOL0     H18059   6.136   3.720   4.008 -3.2200  2.5738 -0.0980
  856MOL0     H18060   6.366   3.737   3.927 -0.4208  0.2900 -0.2484
  856MOL0     H18061   6.501   3.803   3.787 -2.1838  0.6229  3.3528
  856MOL0     H18062   6.629   3.806   3.901  0.8373 -0.0795  0.3717
  856MOL0     H18063   6.561   3.996   3.657  2.3625  0.8694 -1.3391
  856MOL0     H18064   6.695   4.033   3.761  0.4560 -1.1609  2.6186
  856MOL0     H18065   6.785   3.953   3.563  1.5950 -1.2351  0.1455
  856MOL0     H18066   6.797   3.817   3.681  0.9505  1.5777  0.8435
  856MOL0     H18067   6.594   3.704   3.579 -1.4670  1.4692  0.2459
  856MOL0     H18068   6.573   3.849   3.488 -0.2436  0.6267  1.0706
  856MOL0     H18069   6.814   3.659   3.428  2.0002  0.5617 -2.3175
  856MOL0     H18070   6.789   3.829   3.365 -2.1271  0.6127 -0.9808
  856MOL0     H18071   6.567   3.619   3.329 -1.3152 -1.0549  0.7134
  856MOL0     H18072   6.605   3.751   3.235  1.3321 -0.8900 -0.6601
  856MOL0     H18073   6.838   3.641   3.184 -1.0123  0.9759 -3.0780
  856MOL0     H18074   6.704   3.586   3.088  1.4736 -0.8216 -0.5319
  856MOL0     H18075   6.868   3.418   3.191  1.0254  1.2614  1.1425
  856MOL0     H18076   6.773   3.446   3.340  0.6410  0.2219  0.1755
  856MOL0     H18077   6.709   3.305   2.966 -1.4495 -1.0264 -0.4011
  856MOL0     H18078   6.561   2.980   3.017  1.1041 -0.2035 -1.4758
  856MOL0     H18079   6.597   3.099   2.882 -1.2424 -2.2405 -1.6394
  856MOL0     H18080   6.340   3.058   3.035  0.0460  0.1668 -0.1498
  856MOL0     H18081   6.367   3.182   2.906  0.7639 -0.2600 -1.2232
  856MOL0     H18082   6.406   2.993   2.747 -1.5721 -0.5869 -1.4748
  856MOL0     H18083   6.358   2.878   2.872  0.8162  0.4500  2.9432
  856MOL0     H18084   6.168   2.928   2.724  0.6755  1.2835 -1.6575
  856MOL0     H18085   6.139   3.014   2.878  0.0595  1.1103 -0.1242
  856MOL0     H18086   6.132   3.349   2.557  1.1838 -1.6549  0.5764
  856MOL0     H18087   6.024   3.524   2.492 -1.1027  1.6204  0.3969
  856MOL0     H18088   5.847   3.539   2.516 -0.0254 -0.1793  1.1863
  856MOL0     H18089   5.917   3.437   2.381  0.6208 -0.8149  0.8716
  856MOL0     H18090   5.432   3.590   2.555  1.2958  1.6967 -0.4745
  856MOL0     H18091   5.217   3.613   2.448 -1.9674 -0.0134 -1.3235
  856MOL0     H18092   5.050   3.373   2.432  1.0651 -0.2030 -0.3635
  856MOL0     H18093   4.957   3.499   2.345 -0.6260  0.0667 -0.9479
  856MOL0     H18094   4.817   3.313   2.327 -1.2220 -0.7465 -1.7552
  856MOL0     H18095   4.880   3.337   2.171  0.0455 -1.5756 -0.4478
  856MOL0     H18096   4.866   3.092   2.250 -0.7302  0.6378  2.7581
  856MOL0     H18097   4.961   3.129   2.381 -1.4941  2.5705  1.3966
  856MOL0     H18098   5.112   3.218   2.154 -1.3231  0.7311  0.8772
  856MOL0     H18099   5.054   3.072   2.105 -0.2496  1.7328 -1.3040
  856MOL0     H18100   5.241   3.102   2.354  0.8396 -0.4832 -0.9362
  856MOL0     H18101   5.133   2.970   2.339 -0.4816 -0.0991  0.3216
  856MOL0     H18102   5.330   3.054   2.111  1.1333  0.3134  0.3875
  856MOL0     H18103   5.228   2.909   2.129 -2.7802  3.7758 -2.3283
  856MOL0     H18104   5.362   2.879   2.358  2.3743  0.6515  0.5132
  856MOL0     H18105   5.481   2.993   2.302  0.2878  0.4576  1.2585
  856MOL0     H18106   5.419   2.710   2.171  0.3967 -0.2903  0.5483
  856MOL0     H18107   5.560   2.773   2.258  1.2087  3.3352  0.4869
  856MOL0     H18108   5.307   3.287   2.183 -1.3054  0.6106 -0.9755
  856MOL0     H18109   5.530   3.273   2.265  0.4295  0.3513  0.0240
  856MOL0     H18110   5.742   3.112   2.744 -1.6476  0.5730 -2.1903
  856MOL0     H18111   5.954   3.030   2.791 -1.0064 -0.3974  0.3750
  856MOL0     H18112   6.361   4.156   4.044  2.8098 -0.9505  3.8231
  856MOL0     H18113   6.157   4.138   4.137 -0.4725 -2.3547  2.6532
  856MOL0     H18114   5.886   3.888   4.333 -0.4444 -1.3206  2.8015
  856MOL0     H18115   5.705   3.766   4.467  2.5741  0.4735  0.1072
  856MOL0     H18116   5.340   3.685   4.235 -1.6518 -1.0045  0.5021
  856MOL0     H18117   5.374   3.525   4.283  0.9009  0.3140  1.4272
  856MOL0     H18118   5.298   3.544   4.498 -0.9976 -1.2080 -0.2869
  856MOL0     H18119   5.185   3.585   4.376  1.8973 -0.1767 -1.8691
  856MOL0     H18120   5.180   3.749   4.580 -0.2257 -0.9561  0.4669
  856MOL0     H18121   5.348   3.786   4.534 -1.3511  1.8123  2.3361
  856MOL0     H18122   5.118   3.849   4.330  2.1731 -1.4972 -1.9800
  856MOL0     H18123   5.282   3.919   4.337 -0.1225  1.0428  1.2780
  856MOL0     H18124   5.057   4.144   4.615 -2.2457 -0.5715 -1.5033
  856MOL0     H18125   5.509   3.684   4.079  0.3318 -0.0542 -0.8450
  856MOL0     H18126   5.626   3.660   3.884  0.6199 -1.7942  1.3975
  856MOL0     H18127   5.672   3.819   3.852  2.2242 -0.1878 -0.0821
  856MOL0     H18128   5.791   3.690   3.903 -0.7409 -0.4153  0.6330
  857MOL0     O18129   0.080   3.571   7.745  0.1026  0.1378 -0.2049
  857MOL0     C18130   0.031   3.636   7.840 -0.2642 -0.0848 -0.7786
  857MOL0     O18131   0.094   3.696   7.940 -0.6091 -0.2425  1.1002
  857MOL0     C18132   0.229   3.735   7.911 -0.6906 -1.2513 -0.3381
  857MOL0     C18133   0.261   3.850   7.828 -0.0988  0.2872  0.3060
  857MOL0     C18134   0.391   3.900   7.829 -1.4599  0.2470 -0.3945
  857MOL0     C18135   0.496   3.838   7.899 -1.5030  0.2737  0.6629
  857MOL0     O18136   0.620   3.895   7.910 -0.2530  0.0919 -0.4638
  857MOL0     C18137   0.739   3.822   7.872  0.0400 -0.2941 -0.0118
  857MOL0     C18138   0.864   3.909   7.905 -0.0040 -0.2141 -0.2787
  857MOL0     C18139   0.997   3.836   7.862 -0.3854  0.7211 -0.2123
  857MOL0     C18140   1.112   3.883   7.948 -0.1842  0.4542  0.2201
  857MOL0     C18141   1.247   3.883   7.869 -0.2719 -0.4074 -0.4431
  857MOL0     C18142   1.369   3.925   7.967 -0.1350 -0.0259  1.3810
  857MOL0     C18143   1.491   3.936   7.873  0.1607  0.2617 -1.2194
  857MOL0     C18144   1.611   3.937   7.966  0.0512  0.1060  0.1562
  857MOL0     N18145   1.736   3.954   7.897 -0.1156  0.3185 -0.1266
  857MOL0     C18146   1.845   4.008   7.956 -0.8061  0.0722 -0.0260
  857MOL0     C18147   1.929   4.057   7.855  0.1572  0.8096  0.0538
  857MOL0     C18148   2.054   4.137   7.881  0.2928 -0.3457  1.1284
  857MOL0     C18149   2.098   4.213   7.754  0.8238  0.6175  0.7426
  857MOL0     C18150   2.195   4.135   7.657  0.1873 -0.4449  0.1196
  857MOL0     C18151   2.341   4.129   7.707  0.1541  0.2465  0.2218
  857MOL0     O18152   2.398   4.269   7.717  0.1097  0.0378 -0.0658
  857MOL0     C18153   2.454   4.304   7.836 -0.0664 -0.5988 -0.4330
  857MOL0     C18154   2.508   4.218   7.931 -0.5083 -0.3303 -0.4879
  857MOL0     C18155   2.543   4.259   8.069  0.1310  0.2861  0.1505
  857MOL0     C18156   2.579   4.153   8.168  0.0122  0.4422  1.0060
  857MOL0     C18157   2.540   4.397   8.101  0.7428 -0.2933 -0.7096
  857MOL0     C18158   2.600   4.458   8.218  0.5366  1.1863  0.1685
  857MOL0     O18159   2.544   4.573   8.272 -0.3640  0.1010  0.0912
  857MOL0     C18160   2.626   4.669   8.324  0.6375  0.6903  0.0433
  857MOL0     C18161   2.605   4.703   8.455  0.6671  0.2162  0.5421
  857MOL0     C18162   2.686   4.792   8.519 -0.1328 -0.0857  0.4165
  857MOL0     C18163   2.785   4.862   8.447  0.3499  0.1807 -0.4822
  857MOL0     O18164   2.866   4.955   8.513  0.2656  0.1289 -0.7696
  857MOL0     C18165   3.009   4.958   8.482  0.5124  0.0930 -0.6207
  857MOL0     C18166   3.084   4.999   8.609 -0.4084 -0.5426  0.5679
  857MOL0     C18167   3.237   5.021   8.603 -0.2759  0.4777  0.7254
  857MOL0     C18168   3.306   4.881   8.614  0.1326 -0.4430  1.5083
  857MOL0     C18169   3.459   4.892   8.619  0.5452 -0.8421  0.4247
  857MOL0     C18170   3.525   4.767   8.676 -0.0630  0.4540 -0.9235
  857MOL0     C18171   3.675   4.780   8.666 -0.6711 -0.7371  0.0412
  857MOL0     C18172   3.741   4.646   8.695  0.0558  0.6074 -0.2703
  857MOL0    Cl18173   3.907   4.651   8.649 -0.1644  0.2089  0.1410
  857MOL0     C18174   2.802   4.825   8.308  0.5209 -0.0134  0.4499
  857MOL0     C18175   2.733   4.718   8.249 -0.1907  1.0895  1.0120
  857MOL0     O18176   2.705   4.413   8.246 -0.2377  0.3754  1.3596
  857MOL0     C18177   2.473   4.478   8.012 -0.0406 -1.1200 -0.3411
  857MOL0     C18178   2.421   4.428   7.891 -0.3290 -0.4241 -0.6025
  857MOL0     N18179   1.868   4.024   7.733 -0.3281 -0.2650  0.0593
  857MOL0     N18180   1.754   3.964   7.761  0.9166  0.1690 -0.2833
  857MOL0     C18181   0.470   3.717   7.967  0.9021 -0.4668  0.0864
  857MOL0     C18182   0.336   3.675   7.980 -0.6656  1.0866 -0.0751
  857MOL0     C18183  -0.117   3.628   7.861 -0.7302 -0.6529 -0.5540
  857MOL0     C18184  -0.173   3.662   7.989 -0.4086  0.2543  0.1279
  857MOL0     C18185  -0.306   3.645   8.015 -0.2783 -0.6153  0.0874
  857MOL0     C18186  -0.402   3.609   7.916 -0.3333  0.5305  0.8949
  857MOL0     O18187  -0.537   3.601   7.951 -0.0003 -0.5309 -0.4029
  857MOL0     C18188  -0.628   3.533   7.870  0.5348 -0.7029 -0.2372
  857MOL0     C18189  -0.762   3.512   7.958 -0.4587 -0.5558  0.2875
  857MOL0     C18190  -0.835   3.649   7.984  0.3895 -0.4053 -0.3953
  857MOL0     C18191  -0.956   3.650   8.078  0.4563  0.4669  0.1058
  857MOL0     C18192  -1.060   3.549   8.044  0.2371  0.1810 -0.1464
  857MOL0     C18193  -1.148   3.464   8.036  0.2608 -0.2079  0.1297
  857MOL0     C18194  -0.348   3.577   7.790 -0.2684 -0.1599  0.4683
  857MOL0     C18195  -0.205   3.588   7.762  1.0242  0.3227 -0.5253
  857MOL0     C18196  -0.171   3.546   7.619 -0.1896 -1.4858 -0.0885
  857MOL0     H18197   0.179   3.903   7.782  0.8690  0.4427 -1.3033
  857MOL0     H18198   0.411   4.002   7.794 -3.8480  0.2160 -2.0771
  857MOL0     H18199   0.751   3.779   7.772  0.8335 -1.2607  0.4841
  857MOL0     H18200   0.742   3.735   7.937  0.9875 -0.5497 -0.3789
  857MOL0     H18201   0.866   3.999   7.843 -0.9900  1.0915  1.5148
  857MOL0     H18202   0.870   3.936   8.011  1.0094  0.5785 -0.5208
  857MOL0     H18203   0.982   3.729   7.878  2.5846  0.1031 -0.8818
  857MOL0     H18204   1.026   3.850   7.758  4.8768 -0.4719  0.7776
  857MOL0     H18205   1.095   3.985   7.982 -2.6724  0.3893 -0.5781
  857MOL0     H18206   1.109   3.831   8.044 -1.4909  0.7796  0.3823
  857MOL0     H18207   1.244   3.963   7.795 -3.0769 -0.0293 -0.0333
  857MOL0     H18208   1.270   3.785   7.827  3.0312 -0.0428  0.2320
  857MOL0     H18209   1.353   4.023   8.015  5.6334  2.9967 -1.8127
  857MOL0     H18210   1.386   3.852   8.046 -1.3254 -3.5926 -1.4169
  857MOL0     H18211   1.501   4.028   7.815 -0.4900  0.1762 -1.4709
  857MOL0     H18212   1.492   3.849   7.806  0.1635  0.1127 -1.0287
  857MOL0     H18213   1.586   4.022   8.030 -3.7751  0.0995 -1.0564
  857MOL0     H18214   1.621   3.842   8.021 -0.3871  0.1185  0.2605
  857MOL0     H18215   1.861   4.017   8.063 -1.4789  0.5261  0.0421
  857MOL0     H18216   2.137   4.073   7.914 -0.6966 -2.1744  0.2635
  857MOL0     H18217   2.040   4.206   7.964  1.4130 -0.7855  1.7005
  857MOL0     H18218   2.015   4.255   7.696  0.3187  0.6104  1.4511
  857MOL0     H18219   2.151   4.300   7.793  3.1480 -0.2944 -0.1903
  857MOL0     H18220   2.160   4.032   7.646 -0.4483 -0.2253  0.0253
  857MOL0     H18221   2.188   4.170   7.554  2.5389 -4.0885 -1.4757
  857MOL0     H18222   2.335   4.072   7.800  1.6829 -1.7893 -0.8577
  857MOL0     H18223   2.396   4.065   7.637 -1.3097  0.3229 -1.0635
  857MOL0     H18224   2.518   4.115   7.899 -0.6112  0.2958 -2.6496
  857MOL0     H18225   2.571   4.049   8.135 -1.9687  0.8940 -0.1820
  857MOL0     H18226   2.514   4.159   8.256 -0.0155  1.1795  0.9401
  857MOL0     H18227   2.682   4.173   8.198 -0.2257  2.4799  0.5830
  857MOL0     H18228   2.516   4.654   8.492 -0.8019  0.9419 -1.8225
  857MOL0     H18229   2.668   4.822   8.622 -2.7183  1.9249 -0.5153
  857MOL0     H18230   3.044   4.860   8.450 -0.3707 -0.7068  0.7770
  857MOL0     H18231   3.040   5.027   8.402 -0.7492  1.7954  0.2912
  857MOL0     H18232   3.047   5.095   8.646  3.2757  1.6389 -0.8656
  857MOL0     H18233   3.054   4.934   8.692 -2.4241 -1.5489 -0.8298
  857MOL0     H18234   3.268   5.093   8.680 -0.2004  1.5970 -0.3151
  857MOL0     H18235   3.255   5.063   8.504  1.7017 -1.4938  0.1766
  857MOL0     H18236   3.292   4.823   8.522  0.4060 -1.1048  1.8756
  857MOL0     H18237   3.276   4.826   8.703 -1.3611 -0.6224  0.9230
  857MOL0     H18238   3.497   4.927   8.523 -1.9923  0.3811 -0.2018
  857MOL0     H18239   3.475   4.967   8.697 -2.7656 -0.7463  1.1582
  857MOL0     H18240   3.495   4.685   8.609 -0.5219  1.4732 -2.0010
  857MOL0     H18241   3.491   4.761   8.780  1.4029  0.7356 -0.4092
  857MOL0     H18242   3.714   4.856   8.735 -0.7447 -1.6314  1.1046
  857MOL0     H18243   3.699   4.807   8.563 -1.2752  0.7134  0.2626
  857MOL0     H18244   3.711   4.577   8.615  1.4138  1.2885 -1.4022
  857MOL0     H18245   3.728   4.593   8.790 -1.5552 -0.9919 -1.2910
  857MOL0     H18246   2.871   4.875   8.241 -2.2717 -0.4393 -3.0489
  857MOL0     H18247   2.742   4.686   8.146  0.9373  0.3046  1.3360
  857MOL0     H18248   2.469   4.585   8.033  0.2176 -1.3310  0.8648
  857MOL0     H18249   2.361   4.504   7.841 -2.8049  1.0472  3.9276
  857MOL0     H18250   0.546   3.662   8.023  0.9250  0.9391  1.4812
  857MOL0     H18251   0.323   3.592   8.049 -2.8583  1.8653  0.5515
  857MOL0     H18252  -0.103   3.680   8.069  1.5870  1.1452 -1.7254
  857MOL0     H18253  -0.341   3.662   8.116  1.9520 -3.1967  1.4221
  857MOL0     H18254  -0.650   3.591   7.780  0.3682  2.5469  1.7388
  857MOL0     H18255  -0.591   3.434   7.843  1.1085  0.7902 -6.1713
  857MOL0     H18256  -0.747   3.455   8.051 -0.3084  0.2220  0.7499
  857MOL0     H18257  -0.834   3.466   7.890 -3.4978  0.3838  2.6442
  857MOL0     H18258  -0.760   3.715   8.029 -0.2986  0.0723  0.0745
  857MOL0     H18259  -0.864   3.698   7.891 -2.3220  0.6880  0.9083
  857MOL0     H18260  -1.009   3.745   8.072  0.8028  0.5777 -2.5764
  857MOL0     H18261  -0.924   3.638   8.181 -0.5682 -0.7832  0.3031
  857MOL0     H18262  -1.240   3.412   8.020 -0.6427  1.4826 -0.4422
  857MOL0     H18263  -0.418   3.547   7.713 -2.2320  0.7348  1.8227
  857MOL0     H18264  -0.116   3.451   7.615 -1.6730 -2.4355  0.8955
  857MOL0     H18265  -0.262   3.541   7.560 -0.3891 -1.7462  0.2354
  857MOL0     H18266  -0.108   3.624   7.576 -0.7396 -1.8373 -1.5780
  858MOL0     O18267   7.629   0.423   5.642  0.8208  0.0259  0.6116
  858MOL0     C18268   7.746   0.419   5.685  0.5989 -0.1418  0.5752
  858MOL0     O18269   7.790   0.470   5.803  0.0015  0.1889 -0.0879
  858MOL0     C18270   7.695   0.533   5.880 -0.1041 -0.5709 -1.7168
  858MOL0     C18271   7.665   0.670   5.850  0.5987  0.2579 -0.0964
  858MOL0     C18272   7.569   0.736   5.933 -0.3022 -0.0429  0.7754
  858MOL0     C18273   7.503   0.668   6.036 -0.6107  0.5696 -0.5248
  858MOL0     O18274   7.413   0.736   6.119 -0.0756  0.1439  1.1926
  858MOL0     C18275   7.290   0.746   6.051  0.5627 -0.7403 -0.2883
  858MOL0     C18276   7.165   0.773   6.140 -0.7344 -0.4977  0.7220
  858MOL0     C18277   7.144   0.653   6.226 -0.3597 -0.6361  0.0800
  858MOL0     C18278   7.051   0.708   6.340 -0.2970  0.5519 -0.6500
  858MOL0     C18279   7.013   0.608   6.439  1.1022  0.2198  0.8242
  858MOL0     C18280   6.873   0.649   6.502  0.0740  1.2515  0.6308
  858MOL0     C18281   6.762   0.607   6.404  0.5443 -0.2800 -0.1137
  858MOL0     C18282   6.633   0.658   6.466 -0.4103 -0.3197  0.3974
  858MOL0     N18283   6.552   0.725   6.365 -0.5622  0.5342  0.7905
  858MOL0     C18284   6.566   0.848   6.316  0.0622  0.1990 -0.2620
  858MOL0     C18285   6.484   0.850   6.206  0.3585  0.3727 -0.4434
  858MOL0     C18286   6.464   0.980   6.128 -0.7600  0.3051  0.4090
  858MOL0     C18287   6.579   0.995   6.031 -0.4552  0.0082 -0.4317
  858MOL0     C18288   6.548   1.114   5.939  0.0416 -0.4868  0.2334
  858MOL0     C18289   6.653   1.129   5.838 -0.0820  0.9250  0.2405
  858MOL0     O18290   6.660   1.024   5.747 -0.3129  0.4116  0.2568
  858MOL0     C18291   6.742   1.027   5.635  0.1668 -0.4498 -0.0908
  858MOL0     C18292   6.714   0.933   5.543  0.3025 -0.6267 -0.2586
  858MOL0     C18293   6.790   0.917   5.426 -0.1559 -0.6481  0.0087
  858MOL0     C18294   6.735   0.820   5.328 -0.1679 -0.4866 -0.2366
  858MOL0     C18295   6.904   0.993   5.411 -0.6166  0.4733 -0.1684
  858MOL0     C18296   7.014   0.971   5.315  0.6344 -0.4417  1.1043
  858MOL0     O18297   7.117   1.064   5.289  0.3956  1.4589 -0.1650
  858MOL0     C18298   7.219   1.018   5.208 -0.2759 -0.2997 -0.2339
  858MOL0     C18299   7.298   0.909   5.228 -0.7840  0.7330  0.1796
  858MOL0     C18300   7.401   0.884   5.138  0.5249  0.4023 -0.5624
  858MOL0     C18301   7.420   0.960   5.022 -1.1808  0.4644  0.2792
  858MOL0     O18302   7.535   0.951   4.948 -0.2260 -0.5007  0.0257
  858MOL0     C18303   7.658   0.884   4.993  0.3322 -0.6188 -0.5846
  858MOL0     C18304   7.772   0.954   4.910 -0.4662 -0.0417  0.4594
  858MOL0     C18305   7.920   0.906   4.946 -0.1345  0.2685 -0.2727
  858MOL0     C18306   8.022   0.988   4.878  1.3766 -0.8745 -0.3492
  858MOL0     C18307   8.170   0.958   4.912 -0.0271 -0.6863 -0.8521
  858MOL0     C18308   8.274   0.984   4.802 -0.6059 -0.7680  0.0071
  858MOL0     C18309   8.417   0.940   4.844  0.1188 -0.5036 -0.6703
  858MOL0     C18310   8.519   0.945   4.731 -0.0581 -0.4471  0.5146
  858MOL0    Cl18311   8.481   0.829   4.600 -0.6353  0.1099 -0.0515
  858MOL0     C18312   7.343   1.073   5.002 -0.4572 -0.1170 -0.0099
  858MOL0     C18313   7.244   1.109   5.104  0.5070 -0.6503 -0.1780
  858MOL0     O18314   7.016   0.856   5.268  0.0227 -0.2069  0.1332
  858MOL0     C18315   6.945   1.085   5.515  0.9853 -0.6468 -0.8943
  858MOL0     C18316   6.858   1.109   5.626 -0.1775 -0.2735  0.2050
  858MOL0     N18317   6.427   0.719   6.196 -0.2793  0.2575  0.0662
  858MOL0     N18318   6.467   0.644   6.289 -0.8188  0.6737  0.0784
  858MOL0     C18319   7.543   0.539   6.067 -0.5194  0.0350  0.0745
  858MOL0     C18320   7.638   0.471   5.995 -0.3090  0.1641  0.5165
  858MOL0     C18321   7.844   0.338   5.599 -1.6839 -0.3366 -0.1370
  858MOL0     C18322   7.785   0.265   5.502 -0.1109  0.2480  1.5345
  858MOL0     C18323   7.864   0.195   5.405 -0.3194  0.1809 -0.0114
  858MOL0     C18324   8.002   0.206   5.413 -0.3206 -0.0147  0.2842
  858MOL0     O18325   8.057   0.141   5.310  0.0872 -0.1603 -0.0037
  858MOL0     C18326   8.198   0.151   5.294 -0.0258  0.2082 -0.6973
  858MOL0     C18327   8.246   0.291   5.236  0.4237 -0.4736 -0.3304
  858MOL0     C18328   8.228   0.314   5.084  0.1355 -0.2870 -0.4015
  858MOL0     C18329   8.276   0.455   5.045 -0.2998 -0.2107 -0.3551
  858MOL0     C18330   8.286   0.464   4.897 -0.2614 -0.4914 -0.5146
  858MOL0     C18331   8.293   0.468   4.779 -1.0029 -0.3324 -0.6443
  858MOL0     C18332   8.072   0.268   5.517  0.6404  0.6717  0.8747
  858MOL0     C18333   7.989   0.334   5.613  1.0107  0.4683 -0.8043
  858MOL0     C18334   8.066   0.411   5.725  0.1856  0.7701  0.0474
  858MOL0     H18335   7.699   0.720   5.759 -1.4605 -3.4779 -3.2201
  858MOL0     H18336   7.553   0.841   5.915 -0.1895 -0.3323 -1.1863
  858MOL0     H18337   7.262   0.665   5.983  0.4542 -1.3496  0.4685
  858MOL0     H18338   7.283   0.835   5.988 -4.9116 -1.0180 -0.5366
  858MOL0     H18339   7.178   0.865   6.198  1.1697 -0.7638  0.7871
  858MOL0     H18340   7.085   0.784   6.066 -0.9947 -0.4943  1.0030
  858MOL0     H18341   7.092   0.580   6.162  0.1807 -0.0527 -1.0601
  858MOL0     H18342   7.237   0.612   6.269  0.7575  0.1657 -1.4626
  858MOL0     H18343   7.096   0.792   6.393 -2.0123 -0.5395  2.8278
  858MOL0     H18344   6.963   0.748   6.289 -0.4782  0.3266 -0.5158
  858MOL0     H18345   7.083   0.607   6.523  1.1946  0.8851  0.7616
  858MOL0     H18346   7.010   0.502   6.410 -2.0824  0.2076  0.8363
  858MOL0     H18347   6.868   0.605   6.602 -4.2694  0.2470  0.1482
  858MOL0     H18348   6.857   0.756   6.516  0.8201  1.6965 -1.4557
  858MOL0     H18349   6.756   0.499   6.390 -0.6016 -0.1254 -0.9282
  858MOL0     H18350   6.778   0.657   6.308 -0.2998  5.2996  2.2468
  858MOL0     H18351   6.595   0.567   6.513  0.6515 -1.3548 -0.6730
  858MOL0     H18352   6.652   0.738   6.539  0.6659 -0.1056 -0.0972
  858MOL0     H18353   6.627   0.929   6.356  2.0804 -0.8365 -1.1041
  858MOL0     H18354   6.461   1.064   6.199  0.5482 -1.2711  2.4314
  858MOL0     H18355   6.372   0.983   6.069 -0.3916 -0.1338 -0.1975
  858MOL0     H18356   6.675   1.002   6.082 -0.0617  0.6379 -1.2469
  858MOL0     H18357   6.585   0.910   5.963  1.8218 -0.2185 -0.0235
  858MOL0     H18358   6.455   1.105   5.881  0.0373 -1.8156  0.4142
  858MOL0     H18359   6.544   1.207   5.997 -0.4508  1.6974 -2.9950
  858MOL0     H18360   6.638   1.221   5.780  0.8843  0.2727 -1.0995
  858MOL0     H18361   6.750   1.137   5.888 -0.7652  1.4087  1.5450
  858MOL0     H18362   6.618   0.882   5.542 -0.9080  1.4381  1.3898
  858MOL0     H18363   6.805   0.736   5.328  2.3651  1.4801  1.6979
  858MOL0     H18364   6.724   0.874   5.233  0.1875  0.5314  0.2833
  858MOL0     H18365   6.639   0.782   5.366  0.4329 -0.7401  1.0595
  858MOL0     H18366   7.285   0.854   5.320  3.9676 -1.4058 -0.1614
  858MOL0     H18367   7.479   0.814   5.165  0.2495  0.0761 -0.5983
  858MOL0     H18368   7.674   0.897   5.101 -0.9525 -1.4423 -0.2768
  858MOL0     H18369   7.666   0.779   4.965 -1.7272 -0.9592 -0.0814
  858MOL0     H18370   7.762   0.911   4.810 -2.8446 -1.9149  1.3981
  858MOL0     H18371   7.761   1.062   4.914  2.1001  0.3103 -0.2501
  858MOL0     H18372   7.938   0.801   4.922  0.1740 -0.5904  3.2166
  858MOL0     H18373   7.934   0.923   5.053 -0.3986 -0.5808 -0.0984
  858MOL0     H18374   7.992   1.093   4.877  0.7594 -1.0263  0.9591
  858MOL0     H18375   8.027   0.943   4.778  4.1464 -0.3981 -0.5062
  858MOL0     H18376   8.204   1.018   4.998 -0.3163  2.1967 -2.6363
  858MOL0     H18377   8.169   0.854   4.946 -1.4645 -0.1509  0.9048
  858MOL0     H18378   8.272   1.091   4.780 -0.6064 -0.9488 -0.9145
  858MOL0     H18379   8.239   0.928   4.715 -2.7072  0.7279 -0.1885
  858MOL0     H18380   8.404   0.835   4.872 -2.7583 -0.5859 -1.9341
  858MOL0     H18381   8.450   0.995   4.932  3.9122 -0.7697 -1.7371
  858MOL0     H18382   8.615   0.914   4.771 -0.0356  0.3092  1.0774
  858MOL0     H18383   8.539   1.049   4.702  1.3345 -0.9941 -0.6014
  858MOL0     H18384   7.347   1.134   4.912  1.4239  0.4656  0.4125
  858MOL0     H18385   7.183   1.199   5.097  2.6113  0.8042 -0.7415
  858MOL0     H18386   7.040   1.137   5.506  1.5605 -2.0057 -4.5632
  858MOL0     H18387   6.888   1.180   5.703  1.6859 -0.5867 -0.1736
  858MOL0     H18388   7.499   0.503   6.159  2.0434  0.0140  1.3873
  858MOL0     H18389   7.646   0.370   6.034 -1.0447 -0.6921 -1.4013
  858MOL0     H18390   7.677   0.254   5.505 -0.0051 -1.0713  0.9156
  858MOL0     H18391   7.811   0.136   5.331 -0.9480 -2.0125  2.0772
  858MOL0     H18392   8.245   0.133   5.391  0.1724  0.3847 -0.7616
  858MOL0     H18393   8.220   0.071   5.223 -1.7493  1.0733 -2.3271
  858MOL0     H18394   8.354   0.301   5.254  0.1657 -0.6379  1.5178
  858MOL0     H18395   8.195   0.374   5.286  0.4915  0.8115 -2.3122
  858MOL0     H18396   8.272   0.232   5.028  0.2604 -2.4794  2.6555
  858MOL0     H18397   8.119   0.308   5.070  0.0040  0.9756 -0.0452
  858MOL0     H18398   8.376   0.474   5.086  1.5313 -3.2014 -2.9260
  858MOL0     H18399   8.195   0.524   5.069 -2.7521 -0.3089 -6.6282
  858MOL0     H18400   8.299   0.481   4.672  2.5290 -1.8796 -0.7814
  858MOL0     H18401   8.180   0.270   5.529  0.7577 -2.0676  0.9895
  858MOL0     H18402   8.053   0.516   5.698 -0.3820  0.4286 -1.0821
  858MOL0     H18403   8.025   0.391   5.824  1.4527  1.0061  0.6442
  858MOL0     H18404   8.174   0.397   5.732  0.6952  0.5228 -4.8499
  859MOL0     O18405   9.673   9.543  10.122 -0.2232  0.9157  1.1595
  859MOL0     C18406   9.662   9.562  10.240 -0.3757 -0.7001 -0.1791
  859MOL0     O18407   9.721   9.669  10.309  0.3192 -0.0518 -0.2843
  859MOL0     C18408   9.764   9.780  10.233 -0.3112  0.5886 -1.1317
  859MOL0     C18409   9.894   9.824  10.256 -1.0758 -0.1241 -0.1160
  859MOL0     C18410   9.957   9.923  10.172  0.4525 -0.5811  0.0580
  859MOL0     C18411   9.879   9.986  10.071  1.2332 -0.5749 -1.1042
  859MOL0     O18412   9.918  10.094   9.991 -0.1913 -0.3648 -0.3332
  859MOL0     C18413  10.047  10.086   9.938 -0.0596 -0.4630 -0.0909
  859MOL0     C18414  10.047  10.187   9.818 -0.9902 -0.8599  1.0469
  859MOL0     C18415  10.188  10.213   9.761  0.2734  0.5289 -0.5343
  859MOL0     C18416  10.208  10.120   9.644 -0.5892 -0.0785  0.1013
  859MOL0     C18417  10.343  10.139   9.570  0.0719 -0.6845 -0.1817
  859MOL0     C18418  10.464  10.089   9.644  0.1725  0.5568 -0.8434
  859MOL0     C18419  10.587  10.040   9.559 -0.1337 -0.0983 -0.3379
  859MOL0     C18420  10.715  10.006   9.642  0.1599 -0.2557 -0.1050
  859MOL0     N18421  10.688   9.879   9.722  0.9267 -0.0636  0.4300
  859MOL0     C18422  10.780   9.846   9.825  0.1562 -0.1065  0.5343
  859MOL0     C18423  10.734   9.730   9.884  1.1766 -0.8437 -0.2003
  859MOL0     C18424  10.807   9.665   9.992  0.0758  0.3747  0.7632
  859MOL0     C18425  10.729   9.555  10.061  0.4713  0.0860  0.3939
  859MOL0     C18426  10.797   9.475  10.173 -0.3310 -0.1713 -0.0743
  859MOL0     C18427  10.891   9.372  10.110  0.3231  0.3628  0.3711
  859MOL0     O18428  10.968   9.301  10.208 -0.1738 -0.2530  0.2952
  859MOL0     C18429  11.023   9.175  10.188 -0.5002  0.4087 -0.7754
  859MOL0     C18430  11.113   9.141  10.285 -0.6249 -0.4610 -0.1335
  859MOL0     C18431  11.179   9.017  10.292  0.0925 -0.2572  0.2206
  859MOL0     C18432  11.255   8.979  10.409  0.2296 -0.2726  0.0176
  859MOL0     C18433  11.162   8.922  10.189  1.3052 -0.2372 -0.7002
  859MOL0     C18434  11.240   8.793  10.175 -0.8559 -0.5220  0.0126
  859MOL0     O18435  11.366   8.817  10.128 -0.7294  0.8222  0.1710
  859MOL0     C18436  11.449   8.709  10.104  1.3305  0.5734 -0.2542
  859MOL0     C18437  11.564   8.698  10.180 -0.8161  0.1800  1.1897
  859MOL0     C18438  11.651   8.589  10.161  0.3208 -0.5172 -0.1068
  859MOL0     C18439  11.626   8.492  10.062  0.4955 -0.4179 -0.5225
  859MOL0     O18440  11.701   8.391  10.028 -0.1130 -0.1159  0.0789
  859MOL0     C18441  11.841   8.411  10.043  0.7916  0.6944 -0.0213
  859MOL0     C18442  11.911   8.307   9.944  0.8559  0.1034  0.5978
  859MOL0     C18443  12.062   8.309   9.965  0.6079  0.2445 -0.5546
  859MOL0     C18444  12.147   8.249   9.855 -0.4476  0.5222  0.3804
  859MOL0     C18445  12.296   8.273   9.871 -0.0778 -0.3166 -0.0001
  859MOL0     C18446  12.361   8.189   9.760 -0.5810 -0.1884 -0.2991
  859MOL0     C18447  12.504   8.196   9.782 -0.5915 -0.7567  0.8059
  859MOL0     C18448  12.572   8.107   9.675 -0.0466  0.8381 -0.1257
  859MOL0    Cl18449  12.753   8.133   9.680 -0.2296  0.1526 -0.5129
  859MOL0     C18450  11.513   8.512   9.986 -0.4659 -0.1820 -0.0854
  859MOL0     C18451  11.425   8.617  10.005 -0.2281  0.2107  0.0568
  859MOL0     O18452  11.188   8.684  10.206 -0.2152 -1.3625  0.0289
  859MOL0     C18453  11.065   8.960  10.088 -0.5708  0.0969 -0.2310
  859MOL0     C18454  11.005   9.080  10.090  0.0938  0.1137  0.7795
  859MOL0     N18455  10.630   9.692   9.791  0.3155 -0.5373 -0.0159
  859MOL0     N18456  10.594   9.778   9.703  0.2288  0.6978  0.6703
  859MOL0     C18457   9.741   9.948  10.057 -0.0226  0.0649  0.5738
  859MOL0     C18458   9.692   9.845  10.134 -0.1581 -0.5383  0.7037
  859MOL0     C18459   9.613   9.448  10.322  0.4436  0.1696 -0.0737
  859MOL0     C18460   9.637   9.449  10.466 -0.5112  0.1825  0.1674
  859MOL0     C18461   9.606   9.340  10.548  0.6131 -0.4021 -0.5093
  859MOL0     C18462   9.531   9.229  10.488 -0.3972 -0.2496  0.0217
  859MOL0     O18463   9.483   9.135  10.572  0.0272  0.5704  0.9608
  859MOL0     C18464   9.379   9.178  10.655  1.2647 -0.0031  0.7228
  859MOL0     C18465   9.249   9.102  10.641  0.4657  0.1513  0.9089
  859MOL0     C18466   9.265   8.954  10.613  1.1636 -1.4084 -1.1978
  859MOL0     C18467   9.379   8.882  10.676 -0.2436  0.2176  0.0540
  859MOL0     C18468   9.362   8.747  10.627 -0.4317  0.2812 -0.1562
  859MOL0     C18469   9.348   8.634  10.590 -0.6233  0.2641 -0.0217
  859MOL0     C18470   9.492   9.235  10.352 -0.0342 -0.0607 -0.0978
  859MOL0     C18471   9.535   9.341  10.270  0.5106 -0.0840 -0.0874
  859MOL0     C18472   9.460   9.349  10.135  0.8274  0.3917  0.9147
  859MOL0     H18473   9.955   9.765  10.324  1.3538  0.0491 -2.0160
  859MOL0     H18474  10.062   9.949  10.177  0.5286 -1.1394  2.8503
  859MOL0     H18475  10.063   9.985   9.899 -3.4848 -1.6549  1.2914
  859MOL0     H18476  10.123  10.108  10.014  0.3050  1.5401 -0.9727
  859MOL0     H18477   9.983  10.149   9.737  1.1425  2.8677 -2.7497
  859MOL0     H18478  10.002  10.285   9.837 -1.6620 -0.1799 -3.0099
  859MOL0     H18479  10.188  10.307   9.705 -0.4031  0.7123 -0.2370
  859MOL0     H18480  10.269  10.204   9.834 -0.6213 -1.0265  0.2997
  859MOL0     H18481  10.197  10.014   9.669 -0.7259  0.0737  0.7115
  859MOL0     H18482  10.135  10.127   9.563 -0.7515 -1.5098  0.0886
  859MOL0     H18483  10.361  10.241   9.536  2.9978 -1.5115 -1.4588
  859MOL0     H18484  10.335  10.068   9.487 -0.5549 -2.1497  1.0893
  859MOL0     H18485  10.502  10.162   9.716  0.6460  0.5583 -1.0912
  859MOL0     H18486  10.444   9.996   9.697 -0.4932  0.1973 -1.6892
  859MOL0     H18487  10.603  10.124   9.491 -0.6685  1.4934  1.4120
  859MOL0     H18488  10.562   9.957   9.493  3.0278 -0.7020 -0.9476
  859MOL0     H18489  10.801   9.992   9.577 -0.2112 -1.2904 -0.4050
  859MOL0     H18490  10.727  10.089   9.712 -1.1711 -1.4945  1.7209
  859MOL0     H18491  10.859   9.907   9.869  0.1340  0.0392  0.3740
  859MOL0     H18492  10.843   9.746  10.056 -0.6481  0.3168  1.2449
  859MOL0     H18493  10.897   9.625   9.944 -0.8084  1.1909 -1.7345
  859MOL0     H18494  10.650   9.608  10.114  0.6735  1.7131 -0.8434
  859MOL0     H18495  10.676   9.495   9.985 -2.8554  3.1106  0.0677
  859MOL0     H18496  10.852   9.550  10.232 -1.6855 -1.6867  3.4022
  859MOL0     H18497  10.726   9.430  10.244  1.1453 -2.3670  0.0990
  859MOL0     H18498  10.825   9.302  10.056 -0.6339  2.3674 -1.2049
  859MOL0     H18499  10.958   9.419  10.038  0.8613  0.0305  0.6458
  859MOL0     H18500  11.143   9.225  10.347 -0.7901 -0.2761 -0.3032
  859MOL0     H18501  11.254   8.870  10.417  1.1066 -0.1385  2.6346
  859MOL0     H18502  11.208   9.020  10.498 -3.3700 -0.5569 -1.5420
  859MOL0     H18503  11.353   9.026  10.400  1.5729 -2.2983  2.7178
  859MOL0     H18504  11.583   8.768  10.261  1.3790  0.3989  0.5552
  859MOL0     H18505  11.736   8.566  10.224  0.1999  0.3514  0.3890
  859MOL0     H18506  11.876   8.512  10.022  0.0784  1.2108  1.1970
  859MOL0     H18507  11.873   8.392  10.146  1.8063  0.4980 -0.3537
  859MOL0     H18508  11.871   8.206   9.957  3.2662 -0.7687  2.0160
  859MOL0     H18509  11.885   8.329   9.840  2.1216 -3.6282 -0.6888
  859MOL0     H18510  12.097   8.271  10.061 -0.6486 -5.4006 -1.9614
  859MOL0     H18511  12.092   8.415   9.969 -0.1912  0.4737  3.6101
  859MOL0     H18512  12.112   8.284   9.758  1.4107  2.8950  0.4845
  859MOL0     H18513  12.119   8.143   9.855  2.5513 -0.3631  0.1324
  859MOL0     H18514  12.308   8.382   9.862 -1.0789 -0.0428  1.5664
  859MOL0     H18515  12.331   8.240   9.969 -2.7147  2.2082  1.9941
  859MOL0     H18516  12.337   8.236   9.664  0.3538  1.7809  0.3838
  859MOL0     H18517  12.312   8.091   9.757 -4.2249  1.3932  1.1295
  859MOL0     H18518  12.519   8.177   9.888  2.9117  2.6283  1.1330
  859MOL0     H18519  12.535   8.301   9.771  0.4943 -1.2750 -2.0401
  859MOL0     H18520  12.547   8.132   9.572  4.0582 -1.9934 -2.1022
  859MOL0     H18521  12.553   8.004   9.706  0.1913  0.9777  0.5079
  859MOL0     H18522  11.491   8.435   9.913 -2.4583  0.5569 -0.3020
  859MOL0     H18523  11.339   8.619   9.938 -0.7898 -3.9599  0.3980
  859MOL0     H18524  11.050   8.899   9.999 -1.1225 -2.1680  1.3471
  859MOL0     H18525  10.949   9.103  10.000  0.0735  1.0516  1.0199
  859MOL0     H18526   9.677   9.999   9.985 -0.4899 -1.0514  0.1808
  859MOL0     H18527   9.587   9.824  10.115 -0.7815  1.1749  1.9722
  859MOL0     H18528   9.696   9.525  10.516 -1.0291 -0.6183  2.1085
  859MOL0     H18529   9.626   9.332  10.655  3.1207  2.5721 -0.6167
  859MOL0     H18530   9.406   9.159  10.760 -2.1930  0.3263  1.7939
  859MOL0     H18531   9.356   9.285  10.644  0.8445 -0.1855 -0.2064
  859MOL0     H18532   9.192   9.136  10.554 -1.6469 -1.5236  1.5236
  859MOL0     H18533   9.196   9.127  10.734 -4.1698  0.2544 -1.4734
  859MOL0     H18534   9.172   8.907  10.648  0.4402  0.6178 -0.2651
  859MOL0     H18535   9.263   8.941  10.505  2.5438 -3.9866 -0.9902
  859MOL0     H18536   9.383   8.896  10.784 -1.7999  5.2640 -0.2918
  859MOL0     H18537   9.477   8.914  10.640 -0.7802  0.8320 -0.9020
  859MOL0     H18538   9.356   8.529  10.571 -1.1124  0.4096 -1.1476
  859MOL0     H18539   9.411   9.171  10.319 -0.0654 -1.9872  3.2269
  859MOL0     H18540   9.416   9.251  10.115  0.5805  0.5196  0.8395
  859MOL0     H18541   9.391   9.432  10.151  0.5157  0.0816  1.2146
  859MOL0     H18542   9.530   9.367  10.053  2.6008 -0.2910  2.1837
  860MOL0     O18543   4.623   9.632   2.830  0.2321 -0.1475 -1.0190
  860MOL0     C18544   4.621   9.755   2.842  0.2091 -1.1900  0.9053
  860MOL0     O18545   4.709   9.836   2.772 -0.5429 -0.3904 -0.3142
  860MOL0     C18546   4.786   9.780   2.677  0.2108  0.6753  0.2835
  860MOL0     C18547   4.725   9.775   2.556 -0.3367  0.8640  0.8615
  860MOL0     C18548   4.792   9.701   2.452 -0.2310 -0.4997  0.0305
  860MOL0     C18549   4.911   9.636   2.475 -0.5578 -0.4521 -0.1852
  860MOL0     O18550   4.956   9.561   2.372  0.2375  0.2074 -0.2462
  860MOL0     C18551   5.096   9.537   2.345 -0.2507 -0.8684 -0.1114
  860MOL0     C18552   5.096   9.447   2.222  0.2793 -0.3207 -0.0831
  860MOL0     C18553   5.026   9.312   2.249  0.5809 -0.0620  0.3338
  860MOL0     C18554   5.015   9.235   2.117 -0.2995  0.3043 -0.0429
  860MOL0     C18555   4.922   9.115   2.140  0.3507 -0.1628 -0.9518
  860MOL0     C18556   4.973   9.007   2.234 -0.0383 -0.6344 -0.7231
  860MOL0     C18557   4.868   8.901   2.270 -1.4994 -0.4858  0.4530
  860MOL0     C18558   4.770   8.950   2.382 -0.0435  0.3783  0.5364
  860MOL0     N18559   4.672   8.850   2.392  0.5296 -0.3372  0.8040
  860MOL0     C18560   4.688   8.723   2.428  0.6582  1.2324  0.2755
  860MOL0     C18561   4.569   8.666   2.392 -0.4529  0.0187 -0.5778
  860MOL0     C18562   4.539   8.533   2.383 -0.6250  0.2426  0.9969
  860MOL0     C18563   4.580   8.455   2.255 -0.2953 -0.1537  0.1479
  860MOL0     C18564   4.677   8.534   2.164 -0.1629  0.6737  0.8094
  860MOL0     C18565   4.730   8.458   2.042  0.2928  0.4427 -0.9338
  860MOL0     O18566   4.785   8.546   1.938  0.2836  0.3318 -0.2457
  860MOL0     C18567   4.716   8.603   1.840  0.9414 -1.6156 -0.3425
  860MOL0     C18568   4.576   8.601   1.837  0.0582 -0.9277 -0.1667
  860MOL0     C18569   4.507   8.667   1.731 -0.4774 -0.6415 -0.3928
  860MOL0     C18570   4.355   8.667   1.723 -0.6902  0.7776 -0.3159
  860MOL0     C18571   4.575   8.748   1.633  0.3056 -0.1768 -0.4074
  860MOL0     C18572   4.513   8.816   1.526  0.6754 -0.1360 -0.5549
  860MOL0     O18573   4.572   8.796   1.404 -0.0560  0.3624  0.1685
  860MOL0     C18574   4.502   8.815   1.290 -0.1370 -0.0555  0.1914
  860MOL0     C18575   4.574   8.816   1.172 -0.8116 -0.7327  0.4880
  860MOL0     C18576   4.510   8.835   1.047  0.8085 -0.5559  0.1651
  860MOL0     C18577   4.368   8.868   1.038 -0.5805  0.4518  0.4979
  860MOL0     O18578   4.310   8.905   0.920 -0.1262  0.1690 -0.3784
  860MOL0     C18579   4.188   8.982   0.928  0.9472 -0.4017  0.1323
  860MOL0     C18580   4.139   9.039   0.795  0.4052 -0.2650 -0.2352
  860MOL0     C18581   4.043   8.960   0.716  0.5254 -0.1385 -0.3730
  860MOL0     C18582   3.900   8.983   0.756 -0.0056  0.2524  0.1343
  860MOL0     C18583   3.807   8.940   0.639  0.0805 -0.5584  0.0356
  860MOL0     C18584   3.658   8.958   0.673 -0.2365 -1.3821  0.4565
  860MOL0     C18585   3.594   8.862   0.768  0.7119 -0.9999  0.0672
  860MOL0     C18586   3.440   8.851   0.771 -0.5332 -0.2726 -0.2365
  860MOL0    Cl18587   3.344   9.006   0.817 -1.0315  0.5645  0.6949
  860MOL0     C18588   4.298   8.854   1.152  0.7295 -0.1735  1.3800
  860MOL0     C18589   4.364   8.824   1.273 -0.3719 -0.9480  0.2634
  860MOL0     O18590   4.417   8.892   1.547 -0.5234 -0.5345  0.4476
  860MOL0     C18591   4.715   8.750   1.646 -0.4012  0.4492  0.4939
  860MOL0     C18592   4.780   8.674   1.742  0.2622 -0.0200  0.1099
  860MOL0     N18593   4.475   8.762   2.370 -0.3234  0.1116  0.1931
  860MOL0     N18594   4.542   8.879   2.361 -0.1660 -0.6084 -0.1601
  860MOL0     C18595   4.970   9.648   2.602 -0.7072 -0.1980  0.3683
  860MOL0     C18596   4.908   9.726   2.696  0.4794  0.5332 -0.9897
  860MOL0     C18597   4.498   9.808   2.905 -0.0989  0.0057 -0.7382
  860MOL0     C18598   4.440   9.929   2.869 -0.6043 -0.2221 -0.2460
  860MOL0     C18599   4.328   9.986   2.939  0.1409 -0.3039 -0.6865
  860MOL0     C18600   4.262   9.919   3.040  0.6257  0.0940  0.7874
  860MOL0     O18601   4.149   9.981   3.089  0.0076  0.1928  0.2604
  860MOL0     C18602   4.043   9.901   3.133  0.1113 -0.7013  0.0283
  860MOL0     C18603   4.042   9.889   3.294  0.3897  0.5216  0.3673
  860MOL0     C18604   3.999  10.021   3.363  0.4462  0.2329 -0.1260
  860MOL0     C18605   3.848  10.009   3.393 -0.1896 -0.2158  0.6287
  860MOL0     C18606   3.779  10.117   3.328 -0.1431 -0.9059 -0.7137
  860MOL0     C18607   3.727  10.202   3.259 -0.2801  0.4696 -0.0387
  860MOL0     C18608   4.307   9.789   3.075 -1.4755 -0.3634  0.3229
  860MOL0     C18609   4.431   9.746   3.015 -0.3581  0.7497 -0.0151
  860MOL0     C18610   4.477   9.624   3.078  1.0089 -1.0319 -0.4694
  860MOL0     H18611   4.630   9.818   2.526 -0.5579  0.4109  0.8992
  860MOL0     H18612   4.745   9.702   2.354 -0.1736 -0.2554  0.0053
  860MOL0     H18613   5.135   9.495   2.438 -1.8816 -0.3881  0.8289
  860MOL0     H18614   5.162   9.617   2.313  0.1676 -0.7846  0.9116
  860MOL0     H18615   5.043   9.494   2.138 -0.4686  1.7644  1.4480
  860MOL0     H18616   5.200   9.437   2.191  0.7425 -1.1223  1.6250
  860MOL0     H18617   5.098   9.265   2.317  2.9995  0.0257 -2.0074
  860MOL0     H18618   4.928   9.317   2.299  0.6844  2.9394  0.3923
  860MOL0     H18619   4.955   9.286   2.041  1.6486 -0.0884 -1.9546
  860MOL0     H18620   5.114   9.216   2.074  0.0600  1.4004  0.2775
  860MOL0     H18621   4.921   9.075   2.038 -2.4179 -0.2865 -0.9548
  860MOL0     H18622   4.823   9.157   2.161  0.3018  0.2336 -1.9321
  860MOL0     H18623   5.060   8.958   2.188  1.0409  0.5602 -0.0270
  860MOL0     H18624   5.015   9.046   2.327  2.0058 -0.1417 -1.8005
  860MOL0     H18625   4.929   8.819   2.311  0.8542  1.2400  0.6174
  860MOL0     H18626   4.811   8.865   2.184  2.2899 -4.4005 -0.7639
  860MOL0     H18627   4.832   8.948   2.473  2.3606 -2.2408 -0.9801
  860MOL0     H18628   4.730   9.050   2.365  1.7639  1.3468  1.5290
  860MOL0     H18629   4.780   8.675   2.460  0.1780 -0.8437 -1.2605
  860MOL0     H18630   4.432   8.512   2.398 -0.4723 -0.2230  1.4782
  860MOL0     H18631   4.587   8.487   2.470  2.7534  0.3400 -0.6643
  860MOL0     H18632   4.621   8.355   2.273  0.1529 -1.1353 -4.7657
  860MOL0     H18633   4.490   8.435   2.195 -0.9541  1.6170  0.4875
  860MOL0     H18634   4.628   8.624   2.126 -1.1099 -0.6635 -1.2939
  860MOL0     H18635   4.769   8.559   2.218  0.9722  2.5012 -1.7608
  860MOL0     H18636   4.796   8.374   2.068 -0.8677 -0.2142 -0.0270
  860MOL0     H18637   4.640   8.413   1.999  0.6001 -0.4848 -0.6273
  860MOL0     H18638   4.516   8.547   1.910  3.3487 -3.8074  0.6623
  860MOL0     H18639   4.307   8.760   1.752 -1.2104  0.8863 -1.4801
  860MOL0     H18640   4.309   8.581   1.772 -1.0329 -0.8683 -3.2899
  860MOL0     H18641   4.334   8.647   1.617  1.7141 -1.4690 -0.5063
  860MOL0     H18642   4.680   8.794   1.169 -1.0839 -2.0789  0.0496
  860MOL0     H18643   4.570   8.853   0.958 -0.8494  4.7225 -0.2248
  860MOL0     H18644   4.105   8.916   0.957  1.0774 -1.0980 -1.0464
  860MOL0     H18645   4.192   9.058   1.007  1.6750 -1.2945  0.9785
  860MOL0     H18646   4.097   9.139   0.811  3.0156  1.2076 -1.9586
  860MOL0     H18647   4.227   9.060   0.734  0.3343 -0.4540 -0.4014
  860MOL0     H18648   4.059   8.853   0.729  3.5603  0.1694 -0.7680
  860MOL0     H18649   4.061   8.996   0.614 -0.0762 -0.7944 -0.7197
  860MOL0     H18650   3.875   9.088   0.775 -3.1576 -0.5239  0.7737
  860MOL0     H18651   3.867   8.926   0.843 -1.1871  2.6990  1.4004
  860MOL0     H18652   3.835   9.012   0.561 -0.7624  0.4614  0.6497
  860MOL0     H18653   3.833   8.840   0.601  1.2913 -0.6780  1.1493
  860MOL0     H18654   3.609   8.938   0.578  0.5124  0.5295 -0.3697
  860MOL0     H18655   3.643   9.058   0.713 -1.5867 -1.2025 -0.4503
  860MOL0     H18656   3.624   8.881   0.871  2.2957 -1.3923 -0.2924
  860MOL0     H18657   3.616   8.760   0.732  1.2998 -1.1830  0.9237
  860MOL0     H18658   3.409   8.762   0.825 -2.8521  1.3795  1.3644
  860MOL0     H18659   3.404   8.826   0.671 -3.7983 -1.7950  1.1896
  860MOL0     H18660   4.189   8.850   1.149  0.7401 -0.4124 -1.7698
  860MOL0     H18661   4.306   8.813   1.364 -1.9710  0.3354 -0.5349
  860MOL0     H18662   4.772   8.808   1.574 -0.5452  1.5809  1.2842
  860MOL0     H18663   4.888   8.665   1.735  0.1683 -0.0272 -2.7108
  860MOL0     H18664   5.061   9.595   2.627  0.7798  0.3713 -3.1910
  860MOL0     H18665   4.954   9.729   2.795 -0.4589 -0.7706 -0.4924
  860MOL0     H18666   4.482   9.981   2.783  1.7961  1.8491  2.0113
  860MOL0     H18667   4.283  10.081   2.914 -0.6009  0.4740  3.0677
  860MOL0     H18668   3.948   9.945   3.103  0.3651  0.5423  0.9889
  860MOL0     H18669   4.035   9.800   3.090 -3.8724 -0.9343  0.9193
  860MOL0     H18670   4.146   9.868   3.320  0.8336 -0.2576 -1.8084
  860MOL0     H18671   3.987   9.799   3.322  1.9256 -0.7313 -0.4889
  860MOL0     H18672   4.060  10.051   3.448  2.0254 -2.1615 -0.3111
  860MOL0     H18673   4.009  10.100   3.288 -0.1340  0.4698  0.0413
  860MOL0     H18674   3.815  10.006   3.497 -2.0401 -1.8086  0.0479
  860MOL0     H18675   3.805   9.926   3.337 -0.6912  0.3259  0.2060
  860MOL0     H18676   3.690  10.266   3.181 -2.6781 -0.3035  0.3965
  860MOL0     H18677   4.259   9.729   3.151 -1.9645  0.7224  0.8996
  860MOL0     H18678   4.458   9.532   3.023 -0.3199 -1.3412  0.4469
  860MOL0     H18679   4.586   9.621   3.079  1.1318  0.8634 -2.0032
  860MOL0     H18680   4.436   9.620   3.180  2.2876 -0.2214  0.1090
  861MOL0     O18681   8.666   5.942   3.852  0.3579  0.1526  0.1792
  861MOL0     C18682   8.707   5.833   3.891  0.1360 -0.2659 -0.7603
  861MOL0     O18683   8.775   5.746   3.815  0.1212  0.8211 -0.6703
  861MOL0     C18684   8.742   5.732   3.684  0.1708 -0.3211 -0.3041
  861MOL0     C18685   8.832   5.654   3.613 -0.6756 -0.1256  0.4338
  861MOL0     C18686   8.809   5.615   3.478  0.2556 -0.2419 -0.1563
  861MOL0     C18687   8.689   5.651   3.422  0.2739 -0.0658 -0.5982
  861MOL0     O18688   8.650   5.625   3.293  0.1762 -0.5163  0.1016
  861MOL0     C18689   8.745   5.575   3.198  0.4315 -0.7796  0.7554
  861MOL0     C18690   8.664   5.512   3.088  0.3270  0.8858 -0.8342
  861MOL0     C18691   8.756   5.473   2.961 -0.1854 -0.3062  0.6966
  861MOL0     C18692   8.668   5.457   2.847  0.0171  0.6081  0.5112
  861MOL0     C18693   8.742   5.391   2.733 -0.4279  0.2315 -1.4020
  861MOL0     C18694   8.824   5.502   2.658 -0.9747 -0.3970  0.6951
  861MOL0     C18695   8.882   5.447   2.518  0.2186  0.9775  0.4963
  861MOL0     C18696   8.909   5.554   2.414  0.9564  0.0667  0.0306
  861MOL0     N18697   8.780   5.586   2.345  0.1764  0.1210 -0.4954
  861MOL0     C18698   8.699   5.509   2.273 -0.3755  0.9824  0.2110
  861MOL0     C18699   8.595   5.590   2.235 -0.2341 -0.8801 -0.7616
  861MOL0     C18700   8.479   5.558   2.134 -0.4394  0.4573 -0.5716
  861MOL0     C18701   8.338   5.584   2.201  0.0581 -0.1261 -0.4626
  861MOL0     C18702   8.233   5.522   2.116  0.3097 -0.1644  0.3875
  861MOL0     C18703   8.169   5.396   2.176 -0.2409 -0.0762 -0.0550
  861MOL0     O18704   8.076   5.347   2.080  0.3926 -0.3784 -0.3857
  861MOL0     C18705   7.970   5.268   2.095 -0.3674  0.2006  0.1317
  861MOL0     C18706   7.887   5.253   1.990 -0.3124  0.4726 -0.0055
  861MOL0     C18707   7.766   5.198   1.999  0.5078  0.2458 -0.9552
  861MOL0     C18708   7.678   5.197   1.878  0.8370  0.8257  0.1114
  861MOL0     C18709   7.732   5.138   2.118  0.4272  0.4656 -0.1238
  861MOL0     C18710   7.602   5.073   2.138 -0.0187  0.2751 -0.5838
  861MOL0     O18711   7.530   5.103   2.248  0.4370  0.2225 -0.0672
  861MOL0     C18712   7.429   5.024   2.281 -0.8728 -0.4948  0.8347
  861MOL0     C18713   7.444   4.931   2.384 -0.3800  0.6301 -0.1071
  861MOL0     C18714   7.332   4.861   2.426  0.4325  0.7182 -0.7203
  861MOL0     C18715   7.205   4.882   2.363 -0.1605  0.1635 -0.0995
  861MOL0     O18716   7.089   4.814   2.391 -0.6255  0.0217  0.4202
  861MOL0     C18717   7.080   4.762   2.520 -0.3008 -1.1571 -0.4076
  861MOL0     C18718   6.938   4.724   2.560 -0.0481  0.0046 -0.9974
  861MOL0     C18719   6.889   4.609   2.472 -0.2329  0.4148 -0.1223
  861MOL0     C18720   6.745   4.582   2.489 -0.3146 -0.7436  0.3140
  861MOL0     C18721   6.689   4.452   2.423  0.1098  0.4662  0.1706
  861MOL0     C18722   6.621   4.479   2.287  0.3600  0.0148 -0.0232
  861MOL0     C18723   6.579   4.340   2.230 -0.0534  0.7871  0.3264
  861MOL0     C18724   6.462   4.364   2.123 -0.7769 -0.0342 -0.5568
  861MOL0    Cl18725   6.393   4.213   2.074  0.2802  0.0147  0.2052
  861MOL0     C18726   7.194   4.987   2.274  0.1412 -1.0380  0.3455
  861MOL0     C18727   7.310   5.058   2.229  0.1078 -0.0034 -0.9002
  861MOL0     O18728   7.574   4.982   2.062  0.0552 -0.0305  0.1550
  861MOL0     C18729   7.818   5.160   2.227  0.1081 -0.6025  0.8085
  861MOL0     C18730   7.937   5.220   2.218  0.0057  0.1165  0.8319
  861MOL0     N18731   8.612   5.716   2.292 -0.1794  0.1574  1.3798
  861MOL0     N18732   8.726   5.706   2.358  0.5004  0.3272 -0.5009
  861MOL0     C18733   8.592   5.730   3.493  0.2390  0.9551  0.6406
  861MOL0     C18734   8.616   5.766   3.628  0.0767 -0.0947  0.1103
  861MOL0     C18735   8.669   5.780   4.024 -0.3067 -0.2563 -0.4116
  861MOL0     C18736   8.695   5.641   4.054 -0.3082 -0.3344 -0.0769
  861MOL0     C18737   8.680   5.593   4.188 -0.2355  0.6464  0.4336
  861MOL0     C18738   8.645   5.677   4.292 -0.1585  0.6851  0.1594
  861MOL0     O18739   8.630   5.617   4.414 -0.0884  0.4129  0.4053
  861MOL0     C18740   8.600   5.698   4.525  0.8052  0.3167  0.3564
  861MOL0     C18741   8.539   5.612   4.631 -0.0355  0.6452 -0.4101
  861MOL0     C18742   8.475   5.690   4.746 -0.1705  0.7470  0.0659
  861MOL0     C18743   8.431   5.611   4.874  0.6574  0.2399 -0.1472
  861MOL0     C18744   8.436   5.678   5.001  0.2645  0.1293  0.2359
  861MOL0     C18745   8.446   5.729   5.112 -0.0931 -0.0884 -0.0018
  861MOL0     C18746   8.618   5.813   4.262  0.4497  0.7498  0.2960
  861MOL0     C18747   8.625   5.863   4.129 -0.2926 -0.2664  0.3000
  861MOL0     C18748   8.615   6.016   4.108 -0.0272 -0.4375  0.1342
  861MOL0     H18749   8.926   5.627   3.660  0.8874 -0.1941 -2.5137
  861MOL0     H18750   8.884   5.556   3.426 -2.5677 -3.4520 -0.9533
  861MOL0     H18751   8.801   5.500   3.255  0.0145 -2.3701 -0.8464
  861MOL0     H18752   8.795   5.662   3.155 -4.3676  1.6632 -0.6571
  861MOL0     H18753   8.607   5.424   3.119 -0.9053  1.2146 -2.0764
  861MOL0     H18754   8.590   5.588   3.061 -0.2460  0.5400 -0.2699
  861MOL0     H18755   8.818   5.561   2.941 -1.5699  0.4493 -0.3918
  861MOL0     H18756   8.813   5.387   2.996 -1.4637 -0.3150  2.9655
  861MOL0     H18757   8.583   5.394   2.876 -1.3673  2.2734  0.2609
  861MOL0     H18758   8.622   5.554   2.825  2.5166  1.3380 -2.2345
  861MOL0     H18759   8.676   5.344   2.660 -0.6903  1.1344 -1.7622
  861MOL0     H18760   8.815   5.316   2.763  0.6904  0.3894 -3.4929
  861MOL0     H18761   8.763   5.592   2.649  2.2963  1.8546 -1.0177
  861MOL0     H18762   8.905   5.520   2.729 -1.8255 -1.5528  1.9995
  861MOL0     H18763   8.817   5.366   2.483  2.9483 -1.3121  0.3969
  861MOL0     H18764   8.980   5.402   2.531 -1.5466 -3.2118  0.7515
  861MOL0     H18765   8.951   5.643   2.459 -3.2384  0.7342  3.2543
  861MOL0     H18766   8.980   5.517   2.339  0.7500  0.7468 -0.5199
  861MOL0     H18767   8.717   5.407   2.243  4.0247  1.2992  1.0711
  861MOL0     H18768   8.480   5.454   2.099 -0.2944 -0.9619  3.1713
  861MOL0     H18769   8.491   5.624   2.048 -0.4179 -2.5401 -3.0274
  861MOL0     H18770   8.347   5.537   2.299 -0.8316  0.7684  0.0618
  861MOL0     H18771   8.316   5.687   2.227 -0.3091 -0.1897 -0.5119
  861MOL0     H18772   8.146   5.585   2.097 -1.6949 -2.4377  1.4363
  861MOL0     H18773   8.267   5.496   2.015  0.8824 -0.8212  0.7457
  861MOL0     H18774   8.254   5.332   2.201  0.5112  0.9549  0.0887
  861MOL0     H18775   8.114   5.414   2.269  0.0715  1.2642 -0.1050
  861MOL0     H18776   7.908   5.311   1.900 -2.7221  2.0270  0.3419
  861MOL0     H18777   7.648   5.300   1.855  1.4689  0.8522 -0.6543
  861MOL0     H18778   7.584   5.143   1.892  1.4806 -0.3304  0.0220
  861MOL0     H18779   7.730   5.148   1.795 -1.9707 -0.5026 -1.0009
  861MOL0     H18780   7.540   4.930   2.433 -1.5303  1.0470  2.3121
  861MOL0     H18781   7.346   4.779   2.495 -0.7512 -1.2970 -2.7062
  861MOL0     H18782   7.137   4.669   2.529 -0.4168 -1.3069 -1.2031
  861MOL0     H18783   7.117   4.843   2.585  1.5060 -2.5017  0.3288
  861MOL0     H18784   6.935   4.702   2.667 -0.0378  0.3170 -0.9304
  861MOL0     H18785   6.879   4.816   2.552 -0.5759 -0.2937 -0.6257
  861MOL0     H18786   6.948   4.517   2.483 -2.5805 -1.1141  0.4258
  861MOL0     H18787   6.885   4.643   2.368 -1.3207 -0.9660 -0.5561
  861MOL0     H18788   6.682   4.663   2.453  0.6591 -1.0187 -2.1629
  861MOL0     H18789   6.731   4.574   2.597  0.6112  0.4410  0.5476
  861MOL0     H18790   6.767   4.376   2.413 -2.6988 -2.7576  0.5717
  861MOL0     H18791   6.610   4.411   2.487  2.0308 -0.3065  2.1917
  861MOL0     H18792   6.695   4.523   2.219  0.3765 -1.9586 -1.3624
  861MOL0     H18793   6.540   4.552   2.297  1.5352  1.5730 -1.3533
  861MOL0     H18794   6.542   4.269   2.305 -0.8294  0.1374 -0.6381
  861MOL0     H18795   6.660   4.285   2.180 -0.7945  0.0669 -0.1227
  861MOL0     H18796   6.497   4.411   2.031 -2.5986 -3.1627 -3.0961
  861MOL0     H18797   6.380   4.417   2.172  0.7982  0.3957  1.7790
  861MOL0     H18798   7.105   5.034   2.232  2.1121  2.6139 -0.1662
  861MOL0     H18799   7.299   5.136   2.154 -0.0909 -0.2146 -1.0907
  861MOL0     H18800   7.792   5.127   2.327 -2.1268  1.8701  1.1546
  861MOL0     H18801   7.987   5.244   2.311  1.4191  0.3797  0.0292
  861MOL0     H18802   8.499   5.751   3.440 -0.9061  0.4756  2.3519
  861MOL0     H18803   8.539   5.816   3.686 -0.2909 -0.5247 -0.0001
  861MOL0     H18804   8.752   5.585   3.981 -0.2241 -3.7539  2.3805
  861MOL0     H18805   8.708   5.490   4.208 -0.4352  0.4809 -0.1350
  861MOL0     H18806   8.697   5.734   4.560  1.7127  0.7406 -2.4085
  861MOL0     H18807   8.534   5.779   4.492  1.6097 -0.0921 -2.4663
  861MOL0     H18808   8.613   5.541   4.670  0.0523 -0.1556 -1.9738
  861MOL0     H18809   8.457   5.561   4.580  1.6849 -1.7373 -0.9546
  861MOL0     H18810   8.545   5.764   4.785  2.2598 -2.8065  3.0871
  861MOL0     H18811   8.386   5.737   4.703  0.0919  0.1175 -1.2141
  861MOL0     H18812   8.504   5.530   4.887 -0.4576 -0.8030 -0.1907
  861MOL0     H18813   8.332   5.573   4.848  1.2917  0.0631 -2.5598
  861MOL0     H18814   8.459   5.781   5.205 -0.5096  3.0683 -1.5596
  861MOL0     H18815   8.591   5.881   4.342  0.2945 -1.3456  2.0988
  861MOL0     H18816   8.712   6.046   4.066 -0.0137  0.5143  0.8165
  861MOL0     H18817   8.528   6.029   4.043  1.1182  0.4563 -1.2734
  861MOL0     H18818   8.600   6.068   4.203  1.1016 -0.0484  0.1137
  862MOL0     O18819   2.165   2.737   1.209  0.2556  0.4534 -1.1613
  862MOL0     C18820   2.186   2.676   1.108  0.2885  0.0623  1.0906
  862MOL0     O18821   2.306   2.669   1.037 -0.0295  0.1635  0.0105
  862MOL0     C18822   2.408   2.743   1.086 -0.4123  0.2859  0.3152
  862MOL0     C18823   2.457   2.755   1.218  0.0704  0.2823  0.4069
  862MOL0     C18824   2.571   2.830   1.250  0.2441  0.7115 -0.6549
  862MOL0     C18825   2.648   2.885   1.154 -0.2521 -0.6911  0.4031
  862MOL0     O18826   2.768   2.939   1.176 -0.3529 -0.6723 -0.5780
  862MOL0     C18827   2.796   2.995   1.301 -0.2403 -0.1477 -0.1105
  862MOL0     C18828   2.913   3.096   1.309  0.5746 -0.4007 -0.0719
  862MOL0     C18829   3.041   3.040   1.244 -0.4561 -0.1143  0.8631
  862MOL0     C18830   3.145   3.152   1.255 -0.1292 -0.2362 -0.1146
  862MOL0     C18831   3.285   3.110   1.219 -0.3828 -0.7966  0.1167
  862MOL0     C18832   3.295   3.127   1.070 -0.2285  0.9777  0.1013
  862MOL0     C18833   3.439   3.102   1.012  0.0526 -0.2517 -0.1701
  862MOL0     C18834   3.448   3.087   0.853  0.3972  0.6390 -0.6454
  862MOL0     N18835   3.575   3.063   0.783 -0.5417 -0.1219 -0.3142
  862MOL0     C18836   3.698   3.106   0.826  0.0423 -0.7571 -0.0904
  862MOL0     C18837   3.787   3.051   0.739  0.3418  0.6311 -0.0899
  862MOL0     C18838   3.931   3.062   0.767 -0.7985  1.1802  0.9827
  862MOL0     C18839   4.026   2.991   0.668 -0.7396 -0.0345  0.8352
  862MOL0     C18840   4.172   3.027   0.685  0.0270 -0.3229 -0.1839
  862MOL0     C18841   4.224   2.967   0.815 -0.1767  0.3284  0.1285
  862MOL0     O18842   4.367   2.965   0.802 -0.3892  0.2146  0.7112
  862MOL0     C18843   4.433   3.050   0.888 -1.3613  1.3436  0.1280
  862MOL0     C18844   4.454   3.017   1.025 -0.0441  0.4223 -0.0093
  862MOL0     C18845   4.521   3.102   1.114  1.1044 -0.1919  0.2129
  862MOL0     C18846   4.546   3.064   1.256 -0.4607 -0.4758 -0.1175
  862MOL0     C18847   4.563   3.233   1.057 -0.5705  0.2573 -0.1247
  862MOL0     C18848   4.623   3.342   1.145  0.4235  0.6247 -0.0150
  862MOL0     O18849   4.605   3.468   1.098 -0.1742 -0.0682 -0.4682
  862MOL0     C18850   4.633   3.570   1.182  0.4635  1.1561  1.0434
  862MOL0     C18851   4.767   3.597   1.216 -0.3675 -0.8589 -0.6451
  862MOL0     C18852   4.800   3.698   1.313  1.1690  0.0328  0.0981
  862MOL0     C18853   4.696   3.788   1.357  0.2435  0.2544 -0.2743
  862MOL0     O18854   4.729   3.885   1.450  0.2323  0.7332  0.4483
  862MOL0     C18855   4.668   4.013   1.452  0.0688 -0.4937 -0.4732
  862MOL0     C18856   4.710   4.099   1.333  0.1568  0.2108  0.0762
  862MOL0     C18857   4.861   4.135   1.329 -0.8089 -0.1636  0.8747
  862MOL0     C18858   4.888   4.218   1.206  0.0071  0.8561  0.2913
  862MOL0     C18859   5.036   4.258   1.210 -0.2004 -0.3236  1.0760
  862MOL0     C18860   5.079   4.289   1.061  0.7626  0.2103 -0.4913
  862MOL0     C18861   5.231   4.303   1.080  0.0598  0.0702  0.4865
  862MOL0     C18862   5.314   4.250   0.965  0.0389 -0.5642 -0.3079
  862MOL0    Cl18863   5.306   4.057   0.972  0.2567  0.1504  0.2304
  862MOL0     C18864   4.564   3.767   1.314 -0.6764 -0.0662  0.0553
  862MOL0     C18865   4.534   3.664   1.226  0.3818  0.0957  0.2768
  862MOL0     O18866   4.701   3.299   1.229 -1.2609  0.3337  0.7401
  862MOL0     C18867   4.527   3.260   0.925  0.5406  0.0752 -0.9274
  862MOL0     C18868   4.472   3.170   0.831 -1.5442 -0.2436 -0.5826
  862MOL0     N18869   3.716   2.969   0.647 -0.0676 -0.6370  0.2278
  862MOL0     N18870   3.586   2.989   0.671 -0.3248 -0.0820  0.1514
  862MOL0     C18871   2.606   2.864   1.022  0.0253 -0.0751 -0.3661
  862MOL0     C18872   2.489   2.809   0.991  0.0194 -0.9061  0.1923
  862MOL0     C18873   2.085   2.588   1.053  0.1768 -0.1678 -0.4308
  862MOL0     C18874   2.132   2.456   1.017 -0.4999 -0.5050  0.3785
  862MOL0     C18875   2.049   2.362   0.965  0.9538  0.0824 -0.0975
  862MOL0     C18876   1.911   2.393   0.938 -0.1425  0.6961 -0.2779
  862MOL0     O18877   1.843   2.293   0.881  0.0136  0.4233 -0.1712
  862MOL0     C18878   1.711   2.320   0.821 -0.3217  0.4349 -0.0659
  862MOL0     C18879   1.718   2.414   0.697  0.0712 -0.0432 -0.3823
  862MOL0     C18880   1.782   2.358   0.573  0.1707 -0.5040  0.1997
  862MOL0     C18881   1.930   2.374   0.566  0.2148  1.0501 -0.6361
  862MOL0     C18882   1.976   2.503   0.603 -0.1099 -0.4349 -0.4888
  862MOL0     C18883   2.041   2.599   0.652  0.0053 -0.0711  0.3213
  862MOL0     C18884   1.868   2.523   0.974 -0.2905  0.1351 -0.2016
  862MOL0     C18885   1.951   2.622   1.030  0.1514  0.2563 -0.7211
  862MOL0     C18886   1.889   2.748   1.072  0.3225 -0.2850 -0.1205
  862MOL0     H18887   2.397   2.710   1.297 -0.6016  0.3274 -0.0717
  862MOL0     H18888   2.604   2.823   1.353 -0.3407  3.4921 -0.1929
  862MOL0     H18889   2.815   2.917   1.376 -0.8784  1.3314  1.6710
  862MOL0     H18890   2.708   3.044   1.343  0.1715  0.6356 -0.1391
  862MOL0     H18891   2.884   3.180   1.245 -1.5457 -1.0973 -0.1067
  862MOL0     H18892   2.925   3.133   1.411  2.3494  0.2893 -0.4878
  862MOL0     H18893   3.068   2.950   1.299 -1.8238 -0.0248  1.7312
  862MOL0     H18894   3.019   3.018   1.139  3.0514  3.4683 -0.8627
  862MOL0     H18895   3.121   3.244   1.201  0.8695  1.3130  1.9455
  862MOL0     H18896   3.142   3.188   1.359 -1.3110 -2.4668  0.7064
  862MOL0     H18897   3.310   3.009   1.254  1.2684 -0.0836  1.0920
  862MOL0     H18898   3.351   3.175   1.277 -1.5449 -1.2833  2.0837
  862MOL0     H18899   3.233   3.047   1.030  2.4151 -0.7834 -0.7731
  862MOL0     H18900   3.257   3.224   1.039 -4.1165 -0.4895 -0.2116
  862MOL0     H18901   3.465   3.009   1.064 -2.7880 -1.4465 -0.6848
  862MOL0     H18902   3.501   3.186   1.045  0.4379  0.0745 -1.6533
  862MOL0     H18903   3.375   3.015   0.815 -0.1348  1.1444 -0.6087
  862MOL0     H18904   3.407   3.182   0.818 -2.3721  0.0110  0.6324
  862MOL0     H18905   3.732   3.166   0.910  2.3252 -0.1581 -1.3459
  862MOL0     H18906   3.949   3.005   0.859 -1.4045  2.1499  1.7197
  862MOL0     H18907   3.968   3.164   0.783  0.0038  1.1121 -0.2835
  862MOL0     H18908   4.014   2.882   0.676 -0.9483 -0.1022 -0.2717
  862MOL0     H18909   3.995   3.014   0.566  0.3402  0.4219  0.6011
  862MOL0     H18910   4.221   2.980   0.600 -2.4706 -0.7694 -1.4848
  862MOL0     H18911   4.189   3.135   0.684 -2.8054  0.2081 -0.4786
  862MOL0     H18912   4.200   3.024   0.905 -1.4963  0.2316 -0.1389
  862MOL0     H18913   4.196   2.862   0.822 -0.7799  0.5936  2.8293
  862MOL0     H18914   4.419   2.917   1.047 -2.0282  0.4194 -2.5853
  862MOL0     H18915   4.502   2.966   1.275 -0.0361 -0.8401 -0.9391
  862MOL0     H18916   4.500   3.142   1.317 -0.1562  2.1190 -2.9679
  862MOL0     H18917   4.653   3.070   1.277 -0.1540 -1.4978 -1.2542
  862MOL0     H18918   4.843   3.521   1.198  0.4119 -0.0592 -0.7763
  862MOL0     H18919   4.896   3.692   1.364  0.1234 -1.2061  2.0359
  862MOL0     H18920   4.560   4.000   1.459 -0.3071  2.5491  0.6096
  862MOL0     H18921   4.702   4.064   1.543 -1.4024 -0.9100  0.3385
  862MOL0     H18922   4.667   4.060   1.240 -2.3801 -0.7036  1.5323
  862MOL0     H18923   4.654   4.191   1.351 -1.9673 -1.4129  2.4664
  862MOL0     H18924   4.919   4.043   1.329  2.4703  1.6528 -1.8962
  862MOL0     H18925   4.896   4.198   1.411  1.8108 -1.1482  0.5988
  862MOL0     H18926   4.824   4.307   1.214 -0.4091  0.9976 -2.9736
  862MOL0     H18927   4.862   4.173   1.109  0.3389  0.8496  0.2048
  862MOL0     H18928   5.049   4.345   1.275  2.3866 -0.8532  1.3734
  862MOL0     H18929   5.093   4.170   1.243  4.1380  0.9877 -1.9992
  862MOL0     H18930   5.044   4.386   1.024 -1.1191  0.2371  1.1722
  862MOL0     H18931   5.048   4.217   0.985 -0.9598  3.0635 -2.6845
  862MOL0     H18932   5.269   4.272   1.178 -0.0441  2.3880  1.3108
  862MOL0     H18933   5.258   4.409   1.072 -1.5532  0.4227 -0.8764
  862MOL0     H18934   5.419   4.279   0.974  1.1366 -4.3841  0.6889
  862MOL0     H18935   5.276   4.283   0.868 -1.2169 -1.7671 -0.2523
  862MOL0     H18936   4.479   3.828   1.343  1.2467  3.7378 -1.7182
  862MOL0     H18937   4.430   3.644   1.204  0.9282 -1.0567 -1.4086
  862MOL0     H18938   4.558   3.356   0.884  1.6108  0.2450  0.2485
  862MOL0     H18939   4.441   3.199   0.731  0.8256  0.4890 -1.1518
  862MOL0     H18940   2.673   2.903   0.946 -0.2631  2.5420  0.6033
  862MOL0     H18941   2.441   2.810   0.893 -2.3937 -1.8762  1.2797
  862MOL0     H18942   2.231   2.412   1.025  0.8178  1.9006 -1.1478
  862MOL0     H18943   2.098   2.270   0.936  1.5021  0.4412 -0.3067
  862MOL0     H18944   1.681   2.219   0.791 -0.2878  0.3668  0.1284
  862MOL0     H18945   1.643   2.349   0.901 -0.9221 -1.4491  0.1535
  862MOL0     H18946   1.751   2.514   0.727 -1.8460  0.3972  0.3834
  862MOL0     H18947   1.613   2.431   0.671  0.0614  0.6510  0.0708
  862MOL0     H18948   1.745   2.257   0.557 -2.2158  0.7917 -4.0993
  862MOL0     H18949   1.737   2.414   0.491 -0.9057  0.8338  1.6200
  862MOL0     H18950   1.951   2.346   0.462 -1.9423 -0.3273 -0.7632
  862MOL0     H18951   1.966   2.294   0.632 -2.1040 -0.1294 -0.6696
  862MOL0     H18952   2.103   2.669   0.704  1.3710 -1.4069  0.5642
  862MOL0     H18953   1.762   2.545   0.976  0.0333  1.9127 -0.8267
  862MOL0     H18954   1.781   2.750   1.052  0.3364  2.2775 -0.2114
  862MOL0     H18955   1.893   2.754   1.181 -0.3249 -1.4014 -0.0175
  862MOL0     H18956   1.934   2.828   1.013  0.3075 -1.6313 -2.0766
  863MOL0     O18957  11.381   2.754   1.852 -0.9604  0.2010  0.2703
  863MOL0     C18958  11.388   2.861   1.910  0.5718  0.5598 -0.0575
  863MOL0     O18959  11.497   2.926   1.942 -0.6681 -0.4386  0.1655
  863MOL0     C18960  11.634   2.886   1.941 -0.2949  0.0131 -0.7157
  863MOL0     C18961  11.699   2.762   1.911  0.5921 -0.7786 -0.0588
  863MOL0     C18962  11.837   2.742   1.931  0.5405  0.0728  0.1277
  863MOL0     C18963  11.922   2.845   1.957 -0.0001 -0.7813 -0.5087
  863MOL0     O18964  12.061   2.821   1.957  0.6543  0.4844  0.1120
  863MOL0     C18965  12.092   2.753   2.082 -0.7085 -0.1567 -0.5750
  863MOL0     C18966  12.241   2.724   2.095  0.3600  0.3731  0.7842
  863MOL0     C18967  12.333   2.845   2.075 -0.6058  0.3030  0.7325
  863MOL0     C18968  12.328   2.947   2.191 -1.0290  0.2134 -0.2768
  863MOL0     C18969  12.458   3.023   2.200 -0.2545 -0.2957  0.4248
  863MOL0     C18970  12.458   3.117   2.325  1.2369  0.7187 -0.4637
  863MOL0     C18971  12.594   3.174   2.352  0.3414  0.0586 -0.1284
  863MOL0     C18972  12.588   3.326   2.371 -0.0638 -0.4977  0.0222
  863MOL0     N18973  12.720   3.386   2.406 -0.1035  0.0592  1.5904
  863MOL0     C18974  12.845   3.378   2.330 -0.7443 -0.0322  0.2082
  863MOL0     C18975  12.930   3.451   2.400 -0.1396  0.3960  0.3265
  863MOL0     C18976  13.078   3.464   2.373  0.0870 -0.1669  0.5557
  863MOL0     C18977  13.134   3.593   2.435  0.2456 -0.4110  0.0826
  863MOL0     C18978  13.272   3.627   2.388 -0.6800 -0.1497  0.1863
  863MOL0     C18979  13.323   3.748   2.476  0.3285 -0.9054 -0.8050
  863MOL0     O18980  13.211   3.820   2.543  0.1371  0.1290  0.0343
  863MOL0     C18981  13.246   3.912   2.638  0.3633  0.6290 -0.8559
  863MOL0     C18982  13.145   3.998   2.667  0.4493 -0.4055 -0.0877
  863MOL0     C18983  13.154   4.110   2.753 -1.3486  0.8555  0.7844
  863MOL0     C18984  13.035   4.191   2.765 -0.1349 -0.7516 -0.2498
  863MOL0     C18985  13.283   4.135   2.815  0.6939  0.3172  0.4613
  863MOL0     C18986  13.306   4.252   2.900  0.4498 -0.3343 -1.5935
  863MOL0     O18987  13.429   4.259   2.957  0.3732 -0.3094 -0.0709
  863MOL0     C18988  13.446   4.315   3.084  0.8639 -0.4319  0.7831
  863MOL0     C18989  13.573   4.360   3.120  0.5883 -0.6072  1.1753
  863MOL0     C18990  13.600   4.417   3.240  0.0286 -0.1140  0.6095
  863MOL0     C18991  13.495   4.417   3.338 -0.6543 -0.8514  0.8231
  863MOL0     O18992  13.523   4.444   3.471 -0.2132  0.2671  0.7904
  863MOL0     C18993  13.464   4.563   3.517 -0.2193  0.2571 -0.1461
  863MOL0     C18994  13.557   4.658   3.591 -0.3206  0.3920 -0.0106
  863MOL0     C18995  13.593   4.603   3.727 -0.2013  0.1414  0.4177
  863MOL0     C18996  13.486   4.650   3.831  0.5129  0.3349  0.0625
  863MOL0     C18997  13.534   4.591   3.962 -0.8956 -0.0188 -0.7318
  863MOL0     C18998  13.443   4.622   4.074  0.4959  0.4004 -0.3696
  863MOL0     C18999  13.509   4.604   4.208  0.6369  0.2812 -0.5456
  863MOL0     C19000  13.411   4.631   4.336 -0.1034  1.2935 -0.1243
  863MOL0    Cl19001  13.504   4.625   4.483  0.3085 -0.1475  0.1007
  863MOL0     C19002  13.376   4.358   3.315 -0.0090  0.3149  0.3989
  863MOL0     C19003  13.343   4.319   3.187  0.0059 -0.4973  0.8742
  863MOL0     O19004  13.218   4.339   2.922  0.2701 -0.5126  0.2792
  863MOL0     C19005  13.387   4.042   2.789  0.4279 -0.3767 -1.5192
  863MOL0     C19006  13.367   3.934   2.706 -0.1579 -0.0523 -0.5977
  863MOL0     N19007  12.864   3.503   2.511  0.3118 -0.7436  0.5371
  863MOL0     N19008  12.737   3.459   2.516 -0.2866  0.4464  0.3088
  863MOL0     C19009  11.871   2.976   1.958  0.0198 -1.1381 -1.0607
  863MOL0     C19010  11.728   2.998   1.958  0.2534  0.3048  0.2974
  863MOL0     C19011  11.270   2.943   1.937  1.0129  0.1806  0.2960
  863MOL0     C19012  11.276   3.085   1.955  0.7467 -0.6120 -0.3522
  863MOL0     C19013  11.158   3.161   1.954  1.1179  0.5104  0.0645
  863MOL0     C19014  11.032   3.101   1.936 -0.2315 -0.5460  0.3423
  863MOL0     O19015  10.914   3.171   1.943 -0.1383  0.0300 -0.4206
  863MOL0     C19016  10.853   3.166   2.074 -0.8783  0.6277  0.1389
  863MOL0     C19017  10.755   3.279   2.079  0.0446  0.1077  0.9362
  863MOL0     C19018  10.810   3.405   2.147 -0.0895  0.2229  0.5853
  863MOL0     C19019  10.724   3.528   2.123 -0.0268 -0.0684 -0.4771
  863MOL0     C19020  10.692   3.543   1.977 -0.2776 -0.1962 -1.0539
  863MOL0     C19021  10.683   3.559   1.859 -0.5411 -0.2591 -0.5230
  863MOL0     C19022  11.031   2.961   1.923  0.7475  0.4676 -0.6718
  863MOL0     C19023  11.138   2.883   1.940 -0.2129  0.1280  0.3078
  863MOL0     C19024  11.123   2.735   1.940  0.0242 -0.4611 -0.8436
  863MOL0     H19025  11.633   2.682   1.879  0.6200 -0.2768 -1.4249
  863MOL0     H19026  11.884   2.647   1.905 -2.5895 -1.4695 -0.4130
  863MOL0     H19027  12.025   2.669   2.104  0.6971 -1.0615  0.4231
  863MOL0     H19028  12.073   2.826   2.161  0.6820 -1.5662  1.1404
  863MOL0     H19029  12.263   2.687   2.196  0.7719  0.3630  0.6931
  863MOL0     H19030  12.264   2.659   2.011 -3.8809  0.6517 -0.8261
  863MOL0     H19031  12.435   2.808   2.059 -1.0894 -1.2472  1.0086
  863MOL0     H19032  12.311   2.896   1.981  0.9877 -0.6702 -0.2013
  863MOL0     H19033  12.250   3.022   2.177  0.0551  1.0509 -2.2067
  863MOL0     H19034  12.314   2.897   2.287 -4.7612  3.0986  0.9095
  863MOL0     H19035  12.474   3.081   2.109 -0.9582 -0.0913  0.4246
  863MOL0     H19036  12.535   2.949   2.222 -2.0991 -2.5356 -0.2396
  863MOL0     H19037  12.387   3.198   2.307 -1.3636 -0.8929  1.7695
  863MOL0     H19038  12.434   3.050   2.408  2.7208 -2.7211 -2.5852
  863MOL0     H19039  12.662   3.148   2.270  1.9949  0.0907  1.1668
  863MOL0     H19040  12.641   3.128   2.439  0.7265 -4.7104 -2.5298
  863MOL0     H19041  12.563   3.365   2.272 -0.5072 -2.7926 -0.8278
  863MOL0     H19042  12.513   3.365   2.440 -1.0366 -0.1212 -1.2173
  863MOL0     H19043  12.879   3.323   2.242  1.6588  0.9143  0.4630
  863MOL0     H19044  13.092   3.473   2.264  1.5849 -0.3012  0.7162
  863MOL0     H19045  13.130   3.371   2.396 -0.3765 -0.5223  0.1926
  863MOL0     H19046  13.077   3.677   2.395 -1.9437 -1.1962  1.4219
  863MOL0     H19047  13.135   3.590   2.544 -1.5658 -0.9494  0.1134
  863MOL0     H19048  13.338   3.540   2.382  2.0731  1.8990 -2.0832
  863MOL0     H19049  13.263   3.653   2.282  0.2451  0.6777  0.2964
  863MOL0     H19050  13.387   3.700   2.551 -1.4490 -1.9731  0.1110
  863MOL0     H19051  13.374   3.828   2.423  1.6455 -0.5908  0.8855
  863MOL0     H19052  13.052   3.983   2.611  0.7017 -0.6064 -0.4618
  863MOL0     H19053  13.051   4.294   2.731 -2.0941 -1.0234 -2.2226
  863MOL0     H19054  13.008   4.188   2.871 -1.6688 -0.5397 -0.6215
  863MOL0     H19055  12.957   4.145   2.704  3.2009 -0.4391 -5.3080
  863MOL0     H19056  13.658   4.345   3.054  1.4055  0.2939  1.9864
  863MOL0     H19057  13.706   4.438   3.250  0.9946 -3.5955 -0.8135
  863MOL0     H19058  13.419   4.609   3.428 -0.9986 -1.3072 -0.5972
  863MOL0     H19059  13.388   4.531   3.589  0.5962 -1.8113 -0.1378
  863MOL0     H19060  13.654   4.659   3.540  0.5692  1.7668  1.6005
  863MOL0     H19061  13.522   4.762   3.588 -0.8836  0.1983 -0.4177
  863MOL0     H19062  13.686   4.654   3.754  0.5790 -0.4063 -1.1769
  863MOL0     H19063  13.605   4.495   3.720  2.3527  0.4472 -1.0825
  863MOL0     H19064  13.394   4.603   3.795  1.3603 -1.6403  0.3629
  863MOL0     H19065  13.475   4.759   3.837  1.1389  0.4664 -0.9003
  863MOL0     H19066  13.552   4.484   3.956  1.0544  0.2324  0.0263
  863MOL0     H19067  13.625   4.649   3.982 -1.2458  1.7300 -3.6218
  863MOL0     H19068  13.363   4.548   4.065  2.5055 -1.7610 -1.6886
  863MOL0     H19069  13.418   4.727   4.062  1.4063  0.6763  0.0416
  863MOL0     H19070  13.585   4.677   4.237 -0.7223  0.4768  3.1785
  863MOL0     H19071  13.544   4.501   4.218  0.7726  0.4837  1.4528
  863MOL0     H19072  13.341   4.546   4.334  0.4807  0.8071 -0.1485
  863MOL0     H19073  13.345   4.715   4.311 -2.9258 -1.3436 -2.3862
  863MOL0     H19074  13.304   4.356   3.396 -0.1255  0.0447  0.2896
  863MOL0     H19075  13.236   4.301   3.179 -0.2373  1.0919  0.2576
  863MOL0     H19076  13.486   4.059   2.829 -0.5011  1.5085  0.1382
  863MOL0     H19077  13.448   3.862   2.700  1.4627  1.7188 -1.2310
  863MOL0     H19078  11.941   3.059   1.967  0.3589 -1.3882 -1.3525
  863MOL0     H19079  11.697   3.100   1.973  0.5237  0.3373  0.6623
  863MOL0     H19080  11.371   3.138   1.951  0.9023 -0.9417 -1.3303
  863MOL0     H19081  11.158   3.269   1.964 -3.9599  0.7664 -0.4760
  863MOL0     H19082  10.801   3.073   2.098 -0.3147  0.8596  2.4732
  863MOL0     H19083  10.938   3.176   2.143  0.2793 -2.2685 -0.7260
  863MOL0     H19084  10.672   3.245   2.142 -0.1413  1.7749  1.6510
  863MOL0     H19085  10.712   3.288   1.979  1.9335 -1.0190 -0.0390
  863MOL0     H19086  10.834   3.388   2.253 -1.0012 -0.7394  0.6546
  863MOL0     H19087  10.903   3.426   2.095  1.0615 -2.4353  1.3804
  863MOL0     H19088  10.783   3.616   2.151  2.0873 -2.3150  2.6904
  863MOL0     H19089  10.639   3.520   2.192  1.3520  0.3219  1.3128
  863MOL0     H19090  10.689   3.600   1.760  0.3392  0.3419 -0.2303
  863MOL0     H19091  10.930   2.921   1.925  1.0913 -0.4602 -1.1978
  863MOL0     H19092  11.193   2.700   2.017 -1.4234  1.9874  1.7563
  863MOL0     H19093  11.020   2.706   1.962  0.0367 -0.3562 -0.6485
  863MOL0     H19094  11.152   2.692   1.844  0.5986  1.0764 -1.3857
  864MOL0     O19095  10.523   8.867   3.542  0.4160  0.5268 -0.3506
  864MOL0     C19096  10.565   8.755   3.530 -0.8360 -0.8877 -0.7107
  864MOL0     O19097  10.594   8.699   3.414  0.5636 -0.7037 -0.1107
  864MOL0     C19098  10.552   8.761   3.297 -0.0680  0.3321 -0.2576
  864MOL0     C19099  10.648   8.787   3.196  0.1813 -0.6071  0.1620
  864MOL0     C19100  10.604   8.853   3.074  0.3025  0.8828 -0.5127
  864MOL0     C19101  10.467   8.868   3.054  0.3310 -0.4445  0.8701
  864MOL0     O19102  10.417   8.920   2.938 -0.4157 -0.7994  0.7627
  864MOL0     C19103  10.462   9.055   2.916 -0.3114 -0.2166 -0.2059
  864MOL0     C19104  10.369   9.151   2.977  0.5049 -0.4776  0.4167
  864MOL0     C19105  10.233   9.151   2.903 -0.1265 -0.2632 -0.2163
  864MOL0     C19106  10.237   9.228   2.765 -0.4960 -0.0608  0.4521
  864MOL0     C19107  10.090   9.264   2.721  0.6113 -0.0002 -0.2417
  864MOL0     C19108  10.084   9.353   2.591 -0.7795 -0.0381  0.3673
  864MOL0     C19109   9.945   9.405   2.556 -0.6393  0.0873  0.1735
  864MOL0     C19110   9.914   9.456   2.412  0.8017  0.4668 -0.7272
  864MOL0     N19111   9.993   9.565   2.366  0.0350  0.0696  0.6758
  864MOL0     C19112  10.069   9.653   2.443  1.1457 -0.3286  0.2326
  864MOL0     C19113  10.099   9.749   2.355 -0.2464  0.3827  0.3281
  864MOL0     C19114  10.179   9.871   2.387  0.1079 -0.3055 -0.1227
  864MOL0     C19115  10.327   9.835   2.404 -0.2459 -0.1030  0.2019
  864MOL0     C19116  10.402   9.970   2.419  0.2366  0.8078  1.1686
  864MOL0     C19117  10.370  10.062   2.551  0.2078 -0.3210  1.0230
  864MOL0     O19118  10.389   9.996   2.677  0.4164  0.1552 -0.2620
  864MOL0     C19119  10.509  10.000   2.744  0.1710 -0.8246  0.1526
  864MOL0     C19120  10.626  10.046   2.691 -1.3494 -1.0610  0.3088
  864MOL0     C19121  10.750  10.038   2.749 -0.0733 -0.1918  0.0628
  864MOL0     C19122  10.869  10.096   2.674  0.4091 -0.2101 -0.0877
  864MOL0     C19123  10.762   9.991   2.882  0.6415 -0.9598 -0.7830
  864MOL0     C19124  10.887   9.969   2.965 -0.0427  0.4582 -0.4549
  864MOL0     O19125  10.873   9.915   3.082  0.2417  0.2728 -0.4576
  864MOL0     C19126  10.969   9.910   3.173 -0.3833 -0.1418 -0.1339
  864MOL0     C19127  11.034   9.786   3.193  0.1453  0.1522 -0.1977
  864MOL0     C19128  11.128   9.773   3.299  0.4946 -0.6718  0.5054
  864MOL0     C19129  11.150   9.885   3.387 -1.1879 -0.1634 -0.2372
  864MOL0     O19130  11.229   9.839   3.492  0.3217 -0.7998 -0.4925
  864MOL0     C19131  11.306   9.943   3.561 -0.2611  0.2979 -0.3254
  864MOL0     C19132  11.421   9.999   3.472  0.0060  0.5170 -0.4603
  864MOL0     C19133  11.552   9.926   3.514 -0.7933 -0.0804  0.6359
  864MOL0     C19134  11.607   9.952   3.652  0.2100  0.5295 -0.3873
  864MOL0     C19135  11.735   9.878   3.682  0.5919  0.1737  0.9547
  864MOL0     C19136  11.745   9.830   3.826  0.1720  0.0470 -0.9128
  864MOL0     C19137  11.667   9.702   3.849 -0.7134  0.1677  0.1779
  864MOL0     C19138  11.673   9.652   3.994  0.4379  0.0504  0.7643
  864MOL0    Cl19139  11.840   9.637   4.044 -0.8561 -0.6024  0.0317
  864MOL0     C19140  11.081  10.006   3.371  0.4040 -0.1081  0.6389
  864MOL0     C19141  10.989  10.017   3.257 -0.4442  0.6644  0.3297
  864MOL0     O19142  10.993  10.022   2.928  0.0207  0.4763  0.1042
  864MOL0     C19143  10.634   9.953   2.938 -0.4963 -1.1864 -0.6040
  864MOL0     C19144  10.508   9.954   2.874  0.1709  0.3305  0.1951
  864MOL0     N19145  10.045   9.715   2.230  0.1083  0.4797  0.1598
  864MOL0     N19146   9.983   9.602   2.238 -0.0507  0.1067 -0.0239
  864MOL0     C19147  10.370   8.832   3.148  0.4833 -0.5133  0.1516
  864MOL0     C19148  10.415   8.787   3.273 -0.3759 -0.5352  0.1258
  864MOL0     C19149  10.628   8.682   3.645 -1.0773  0.2372  1.4165
  864MOL0     C19150  10.736   8.587   3.629 -0.2524 -0.2508 -0.1024
  864MOL0     C19151  10.790   8.516   3.734  0.3073 -1.0429 -0.3426
  864MOL0     C19152  10.756   8.552   3.867  0.1897 -1.2684  0.9050
  864MOL0     O19153  10.807   8.471   3.959  0.3156 -0.9578 -0.0196
  864MOL0     C19154  10.834   8.513   4.097  0.8661 -0.5660 -0.3672
  864MOL0     C19155  10.836   8.406   4.201  0.8065  0.2874  0.0213
  864MOL0     C19156  10.891   8.271   4.153  0.1625 -0.1846 -0.5924
  864MOL0     C19157  10.773   8.183   4.107 -0.1646  0.2770  0.7730
  864MOL0     C19158  10.805   8.043   4.132  0.2376  0.8238 -0.0868
  864MOL0     C19159  10.847   7.933   4.138 -0.5168  0.6209  0.0520
  864MOL0     C19160  10.655   8.642   3.891  0.8928  0.5251 -0.7846
  864MOL0     C19161  10.593   8.708   3.783  0.4890  0.4035  0.0494
  864MOL0     C19162  10.498   8.818   3.822 -1.1136 -0.5528 -0.0517
  864MOL0     H19163  10.752   8.757   3.208  0.1684 -0.4147  0.7855
  864MOL0     H19164  10.682   8.872   3.002  0.7444 -1.7793 -0.8694
  864MOL0     H19165  10.479   9.076   2.810  1.1189  1.6131  0.3177
  864MOL0     H19166  10.559   9.063   2.966 -0.3480 -1.5466  0.1025
  864MOL0     H19167  10.338   9.127   3.079 -2.2367  1.0250  0.0521
  864MOL0     H19168  10.407   9.253   2.984 -0.0989 -0.3402  1.9894
  864MOL0     H19169  10.197   9.048   2.894 -0.1497 -0.2993  0.2699
  864MOL0     H19170  10.153   9.192   2.964 -0.7018 -0.6545 -0.6996
  864MOL0     H19171  10.290   9.324   2.763 -2.4348  1.1291 -2.6840
  864MOL0     H19172  10.275   9.165   2.685  2.0705  0.8264  0.8775
  864MOL0     H19173  10.040   9.324   2.798 -1.8886 -0.1300 -1.6725
  864MOL0     H19174  10.036   9.171   2.706 -0.8238  0.8831 -0.7066
  864MOL0     H19175  10.159   9.433   2.587  0.8802 -1.5214  0.6907
  864MOL0     H19176  10.122   9.286   2.513  1.7842  1.6070  0.0807
  864MOL0     H19177   9.913   9.475   2.634  1.6366  2.3291 -0.7716
  864MOL0     H19178   9.869   9.327   2.566 -3.0889  1.7767 -3.2145
  864MOL0     H19179   9.926   9.373   2.341 -0.3208 -1.3843  1.1325
  864MOL0     H19180   9.811   9.491   2.412  0.6172  0.1079  1.6360
  864MOL0     H19181  10.100   9.661   2.547  1.1445 -0.2424  0.2260
  864MOL0     H19182  10.137   9.913   2.478  2.0500 -1.9555  1.6193
  864MOL0     H19183  10.174   9.933   2.296  0.8238  1.6249  1.0982
  864MOL0     H19184  10.345   9.779   2.496 -0.1212 -1.5424 -0.6663
  864MOL0     H19185  10.373   9.778   2.323  2.3413  1.8885  0.1529
  864MOL0     H19186  10.510   9.954   2.420  0.1626 -1.2116 -3.0831
  864MOL0     H19187  10.385  10.027   2.327 -0.0120 -1.1999 -0.0788
  864MOL0     H19188  10.421  10.159   2.549  1.1123 -0.7951  0.8758
  864MOL0     H19189  10.264  10.078   2.531  0.2604 -1.1367  0.0014
  864MOL0     H19190  10.620  10.099   2.597 -0.2003  1.0718  1.3765
  864MOL0     H19191  10.835  10.131   2.577  2.0355  2.4388  0.2012
  864MOL0     H19192  10.947  10.019   2.667  0.0441 -0.6584  0.6221
  864MOL0     H19193  10.906  10.189   2.719 -1.6970  1.1548 -1.0581
  864MOL0     H19194  11.020   9.706   3.121 -0.2884  0.1767 -0.1445
  864MOL0     H19195  11.164   9.678   3.338 -1.0669 -1.8226 -0.7429
  864MOL0     H19196  11.239  10.025   3.589  0.3487  1.4844 -2.1766
  864MOL0     H19197  11.351   9.907   3.654  0.9936 -0.8669 -1.3480
  864MOL0     H19198  11.406   9.986   3.364  0.9953  3.3443 -1.0339
  864MOL0     H19199  11.436  10.105   3.492  2.5886 -0.1265  1.6843
  864MOL0     H19200  11.629   9.957   3.443 -2.0528  1.0625 -0.2823
  864MOL0     H19201  11.539   9.819   3.497  2.2394 -0.4345  0.0227
  864MOL0     H19202  11.537   9.911   3.726 -1.3136  0.1526 -1.9699
  864MOL0     H19203  11.609  10.060   3.663 -1.3808  0.8223 -2.3189
  864MOL0     H19204  11.747   9.796   3.611 -0.4256 -0.6911  1.7505
  864MOL0     H19205  11.819   9.944   3.660 -0.9645  2.0135  0.2344
  864MOL0     H19206  11.720   9.911   3.897  1.6250  0.3983 -0.7767
  864MOL0     H19207  11.851   9.806   3.835 -0.2509 -1.7545 -0.5371
  864MOL0     H19208  11.714   9.618   3.798  0.1851 -1.3317  3.2135
  864MOL0     H19209  11.559   9.705   3.828 -0.2588  1.2409 -2.4068
  864MOL0     H19210  11.634   9.550   3.999  1.2404 -0.4277 -1.4705
  864MOL0     H19211  11.621   9.720   4.063 -0.5166  0.7925 -0.6181
  864MOL0     H19212  11.085  10.080   3.450 -1.9996 -0.7534  1.4733
  864MOL0     H19213  10.927  10.103   3.234  1.7527  1.1072 -5.5882
  864MOL0     H19214  10.633   9.916   3.040  0.9799  0.9987  0.2871
  864MOL0     H19215  10.423   9.912   2.926 -1.7242  2.8840 -0.6229
  864MOL0     H19216  10.263   8.842   3.127  1.0177 -0.4185 -2.9795
  864MOL0     H19217  10.344   8.758   3.350 -1.4573  2.1614  0.2195
  864MOL0     H19218  10.766   8.577   3.525  0.4912  0.0828  0.0729
  864MOL0     H19219  10.866   8.441   3.714  0.4716 -0.6380 -1.2560
  864MOL0     H19220  10.933   8.559   4.106  1.3030 -1.1326 -1.9227
  864MOL0     H19221  10.755   8.580   4.133 -0.5745 -2.6575  0.5352
  864MOL0     H19222  10.736   8.388   4.241  1.1706 -2.2974 -0.1060
  864MOL0     H19223  10.883   8.440   4.294  0.2246 -0.1912  0.4971
  864MOL0     H19224  10.968   8.275   4.076  0.7051 -2.4455 -0.2463
  864MOL0     H19225  10.950   8.219   4.230 -0.6723  0.6383  0.6350
  864MOL0     H19226  10.746   8.195   4.001  0.1258 -1.3181  0.4813
  864MOL0     H19227  10.676   8.197   4.156 -1.7494 -1.2536 -1.6814
  864MOL0     H19228  10.891   7.836   4.138 -1.3830  0.0758 -3.4526
  864MOL0     H19229  10.613   8.667   3.988  1.6643 -0.0503 -0.2883
  864MOL0     H19230  10.407   8.821   3.762  1.4077  1.1418 -4.1939
  864MOL0     H19231  10.472   8.821   3.929 -1.3463  3.0329 -0.1131
  864MOL0     H19232  10.555   8.909   3.805 -0.2345 -0.3121  3.3698
  865MOL0     O19233   0.761   5.964   0.300  0.2923 -0.0646  0.2938
  865MOL0     C19234   0.732   6.083   0.306 -0.1924 -0.0900 -0.2090
  865MOL0     O19235   0.610   6.135   0.267 -0.2274  0.4434  0.4289
  865MOL0     C19236   0.514   6.055   0.195 -0.3232  0.0542 -0.2124
  865MOL0     C19237   0.395   6.126   0.170  0.3445 -0.0535 -0.0201
  865MOL0     C19238   0.280   6.073   0.120  0.2857  1.6850  0.2430
  865MOL0     C19239   0.284   5.945   0.074 -0.3036  0.2423 -0.2404
  865MOL0     O19240   0.168   5.900   0.012 -0.5203 -0.4269  0.6501
  865MOL0     C19241   0.188   5.780  -0.062 -0.2649  0.2535 -0.1547
  865MOL0     C19242   0.074   5.764  -0.162  0.6231  0.3852  0.5085
  865MOL0     C19243   0.060   5.623  -0.208  0.2664  0.3915 -0.3345
  865MOL0     C19244  -0.045   5.595  -0.324  0.1903 -1.1596  0.1031
  865MOL0     C19245  -0.188   5.630  -0.274  0.1925  0.1371  0.5863
  865MOL0     C19246  -0.281   5.650  -0.393  0.1556 -0.0214  0.4335
  865MOL0     C19247  -0.424   5.698  -0.344  0.4130 -0.2862  0.7958
  865MOL0     C19248  -0.529   5.598  -0.286 -0.0711 -0.0209 -0.0900
  865MOL0     N19249  -0.556   5.482  -0.361 -0.2824 -0.7245  0.0741
  865MOL0     C19250  -0.645   5.471  -0.465 -0.3248 -0.9707  0.1220
  865MOL0     C19251  -0.673   5.343  -0.488 -0.4703  0.7026 -0.6788
  865MOL0     C19252  -0.784   5.280  -0.569 -1.3833 -0.8377  0.0058
  865MOL0     C19253  -0.872   5.191  -0.492 -0.4253 -1.0826  1.0576
  865MOL0     C19254  -0.977   5.129  -0.585  0.3056 -0.6948 -0.2116
  865MOL0     C19255  -1.051   5.023  -0.519  1.1054  0.3024  0.1036
  865MOL0     O19256  -1.159   5.066  -0.440 -0.4850  0.2629 -0.0629
  865MOL0     C19257  -1.278   5.100  -0.502 -0.5562  0.7937 -0.0335
  865MOL0     C19258  -1.305   5.114  -0.637  0.2484  0.8230 -0.3140
  865MOL0     C19259  -1.436   5.142  -0.683 -0.0468 -0.2246  0.4505
  865MOL0     C19260  -1.458   5.131  -0.835  0.0085 -0.6910  0.0838
  865MOL0     C19261  -1.542   5.167  -0.590  0.5099  0.1268 -0.1713
  865MOL0     C19262  -1.688   5.175  -0.618 -0.2693 -0.6846  0.3075
  865MOL0     O19263  -1.769   5.127  -0.517  0.3036 -0.0024  0.8179
  865MOL0     C19264  -1.896   5.084  -0.541 -0.0856  0.5073 -0.0375
  865MOL0     C19265  -1.936   5.001  -0.648 -0.0113 -0.8562  0.0716
  865MOL0     C19266  -2.068   4.946  -0.644 -0.6368  0.2601  0.0678
  865MOL0     C19267  -2.160   4.974  -0.539 -0.1762 -0.2629 -0.6223
  865MOL0     O19268  -2.289   4.921  -0.536 -0.1125 -0.7189 -0.1278
  865MOL0     C19269  -2.342   4.883  -0.406  0.6743 -0.3465  0.3594
  865MOL0     C19270  -2.452   4.780  -0.435  0.6358  0.2436  0.7267
  865MOL0     C19271  -2.533   4.758  -0.310  0.6480 -1.2937  0.0191
  865MOL0     C19272  -2.616   4.629  -0.316  0.0824  0.4222  0.5231
  865MOL0     C19273  -2.722   4.620  -0.424 -0.7908 -0.7075 -0.6132
  865MOL0     C19274  -2.799   4.497  -0.389  0.4219 -0.5965  0.5075
  865MOL0     C19275  -2.727   4.350  -0.383 -0.3190 -0.2581 -0.7457
  865MOL0     C19276  -2.831   4.236  -0.424  0.2939  0.0629 -0.2888
  865MOL0    Cl19277  -2.967   4.204  -0.305 -0.5060  0.4748 -0.2869
  865MOL0     C19278  -2.112   5.068  -0.445 -0.0123 -0.7296 -0.5876
  865MOL0     C19279  -1.991   5.123  -0.449 -0.9754  0.3140 -0.4565
  865MOL0     O19280  -1.741   5.209  -0.725 -0.5740 -0.0468 -0.7046
  865MOL0     C19281  -1.503   5.167  -0.455  0.7994  0.8591 -0.4928
  865MOL0     C19282  -1.378   5.134  -0.416 -0.7052 -0.4877 -0.0918
  865MOL0     N19283  -0.564   5.276  -0.426 -0.1422 -0.0253 -0.6159
  865MOL0     N19284  -0.499   5.359  -0.354  0.8852 -0.3114  0.5671
  865MOL0     C19285   0.400   5.869   0.094  1.1524  0.1447 -0.0563
  865MOL0     C19286   0.517   5.923   0.149 -0.7900 -1.0382  0.2290
  865MOL0     C19287   0.830   6.179   0.359  0.1220 -0.2566  1.0286
  865MOL0     C19288   0.800   6.320   0.346 -0.1308  0.5708  0.0769
  865MOL0     C19289   0.880   6.419   0.391 -0.1613 -0.5453 -0.4197
  865MOL0     C19290   1.009   6.392   0.424  0.5364  0.4326 -0.0176
  865MOL0     O19291   1.109   6.483   0.449 -0.1330  0.4348  0.0310
  865MOL0     C19292   1.068   6.582   0.532  0.3688  0.2591 -0.1684
  865MOL0     C19293   1.189   6.636   0.609 -0.2339  0.1513 -0.4217
  865MOL0     C19294   1.158   6.765   0.693  0.6318 -0.3531  0.0990
  865MOL0     C19295   1.271   6.838   0.778  0.0546  0.1945  0.1986
  865MOL0     C19296   1.360   6.753   0.864  0.6178  1.4787 -0.0794
  865MOL0     C19297   1.428   6.677   0.929  0.0036  0.2164 -0.7376
  865MOL0     C19298   1.047   6.257   0.427 -0.0236 -0.3309  0.3102
  865MOL0     C19299   0.958   6.149   0.417 -0.0274  0.1468  0.3051
  865MOL0     C19300   1.019   6.009   0.448 -0.0636  0.9291 -0.1905
  865MOL0     H19301   0.367   6.225   0.206  0.0786  1.6903 -4.4464
  865MOL0     H19302   0.185   6.123   0.106  0.1010  0.8186 -1.8160
  865MOL0     H19303   0.183   5.701   0.014  0.0031  1.1207  0.7840
  865MOL0     H19304   0.284   5.790  -0.113  0.2803  4.3766  1.2961
  865MOL0     H19305  -0.020   5.799  -0.118 -0.3331 -2.4522  0.8875
  865MOL0     H19306   0.087   5.838  -0.242  0.7339  0.8130  0.9160
  865MOL0     H19307   0.157   5.590  -0.246  0.7526  0.5135  0.7728
  865MOL0     H19308   0.037   5.553  -0.127 -3.0311  0.8732 -0.7126
  865MOL0     H19309  -0.027   5.664  -0.407  1.7211 -2.4234 -0.6750
  865MOL0     H19310  -0.036   5.490  -0.352 -1.9286 -0.8762 -1.9833
  865MOL0     H19311  -0.190   5.727  -0.223  0.8075 -0.4486  1.7629
  865MOL0     H19312  -0.229   5.562  -0.199  0.6834  0.7357  1.4225
  865MOL0     H19313  -0.248   5.721  -0.470 -2.2574  0.5021 -0.2252
  865MOL0     H19314  -0.301   5.556  -0.445  1.3555  1.3923 -2.8764
  865MOL0     H19315  -0.477   5.751  -0.423 -0.1990  0.4960  1.7032
  865MOL0     H19316  -0.399   5.767  -0.263  1.8667  0.0968  0.0598
  865MOL0     H19317  -0.489   5.555  -0.194  0.0335 -1.7980 -0.9170
  865MOL0     H19318  -0.618   5.653  -0.255  0.8491  0.0258  2.7297
  865MOL0     H19319  -0.705   5.553  -0.504 -1.6535 -2.4084 -1.0111
  865MOL0     H19320  -0.743   5.210  -0.643  3.3329 -1.1891  2.5441
  865MOL0     H19321  -0.830   5.363  -0.624 -0.4018  1.3188  2.2640
  865MOL0     H19322  -0.808   5.119  -0.440  2.4704  0.1438 -0.5617
  865MOL0     H19323  -0.925   5.246  -0.413  1.3854 -0.7835  2.1366
  865MOL0     H19324  -1.052   5.204  -0.612 -0.3649 -1.5999 -0.9410
  865MOL0     H19325  -0.937   5.081  -0.675 -0.1432  1.6335 -1.7452
  865MOL0     H19326  -1.079   4.945  -0.590  1.5101 -1.5910  1.9263
  865MOL0     H19327  -0.982   4.964  -0.458  1.3941  1.6502  1.1350
  865MOL0     H19328  -1.225   5.116  -0.710 -0.7027 -0.7051 -1.4613
  865MOL0     H19329  -1.555   5.080  -0.844  0.2733 -1.4822  1.3356
  865MOL0     H19330  -1.376   5.077  -0.883  1.6256  1.3641  0.4205
  865MOL0     H19331  -1.473   5.227  -0.884  1.3426 -1.8551 -2.8483
  865MOL0     H19332  -1.858   4.978  -0.720  0.2406  0.4300 -0.0908
  865MOL0     H19333  -2.100   4.872  -0.716 -0.8814 -1.0810  1.5067
  865MOL0     H19334  -2.270   4.844  -0.334  1.5247  2.6829  1.3053
  865MOL0     H19335  -2.384   4.980  -0.377 -0.2987 -0.7179  0.2366
  865MOL0     H19336  -2.519   4.826  -0.508  0.9578  0.0191  0.2841
  865MOL0     H19337  -2.412   4.687  -0.476 -2.1042 -0.8878  0.3852
  865MOL0     H19338  -2.597   4.844  -0.289  0.4864 -1.5884  0.7480
  865MOL0     H19339  -2.463   4.737  -0.229 -1.1745  1.4779  2.5013
  865MOL0     H19340  -2.648   4.608  -0.213 -0.2734 -2.2679 -0.0661
  865MOL0     H19341  -2.548   4.545  -0.333  1.7725  2.0376 -1.1740
  865MOL0     H19342  -2.790   4.706  -0.422  0.3871  0.2685 -1.0574
  865MOL0     H19343  -2.694   4.608  -0.529 -4.1597 -0.8520 -1.5996
  865MOL0     H19344  -2.876   4.496  -0.467  0.8679  1.5769 -0.0326
  865MOL0     H19345  -2.849   4.522  -0.294 -0.2984  2.2804 -0.5117
  865MOL0     H19346  -2.692   4.327  -0.282  0.5561  3.4411 -0.0238
  865MOL0     H19347  -2.644   4.350  -0.455 -0.9388 -1.2133 -1.4761
  865MOL0     H19348  -2.780   4.139  -0.430 -0.4185 -0.3876  0.6985
  865MOL0     H19349  -2.867   4.238  -0.528 -1.6452 -0.3118  0.3296
  865MOL0     H19350  -2.173   5.097  -0.360 -1.4454 -1.9938 -1.1414
  865MOL0     H19351  -1.961   5.184  -0.364  0.3698  0.5075 -1.0459
  865MOL0     H19352  -1.577   5.189  -0.378  0.0505  0.8037 -1.1774
  865MOL0     H19353  -1.351   5.140  -0.311  1.6184 -0.8915 -0.6077
  865MOL0     H19354   0.399   5.765   0.061 -0.1558  0.3725 -0.7807
  865MOL0     H19355   0.607   5.863   0.163  0.5140  0.9887  0.9489
  865MOL0     H19356   0.706   6.358   0.307 -2.4180  0.3038  4.6866
  865MOL0     H19357   0.852   6.523   0.379  2.0334 -0.1859 -3.3307
  865MOL0     H19358   1.030   6.671   0.481  1.0826  0.7085  0.0610
  865MOL0     H19359   0.993   6.550   0.604  0.0036  1.3580 -0.0394
  865MOL0     H19360   1.253   6.674   0.529 -2.1905  0.3028 -2.0012
  865MOL0     H19361   1.237   6.550   0.656 -1.3219 -0.5554 -0.5795
  865MOL0     H19362   1.128   6.852   0.635  1.2151  0.9690  1.6931
  865MOL0     H19363   1.078   6.725   0.756 -0.8141  1.0559 -0.7800
  865MOL0     H19364   1.228   6.913   0.845  1.1805 -2.9806  4.9820
  865MOL0     H19365   1.331   6.894   0.705  2.1093  1.7409  2.8878
  865MOL0     H19366   1.496   6.612   0.980 -2.2754 -1.0954  0.7973
  865MOL0     H19367   1.153   6.237   0.441  0.0152  0.1726  0.7558
  865MOL0     H19368   1.099   5.998   0.522  3.4770  0.5352 -3.7452
  865MOL0     H19369   0.930   5.953   0.480  0.5371 -3.0505 -4.4077
  865MOL0     H19370   1.043   5.963   0.351 -0.5841 -2.3007  1.0821
  866MOL0     O19371  10.938   3.488   0.612 -0.3628  0.2180 -0.5336
  866MOL0     C19372  10.876   3.572   0.555  0.4834 -0.3253 -0.1233
  866MOL0     O19373  10.910   3.616   0.430  1.1525 -0.3881  0.5759
  866MOL0     C19374  11.034   3.601   0.376 -0.5980  0.2436  0.1807
  866MOL0     C19375  11.146   3.662   0.442  0.3098 -0.6030  0.2217
  866MOL0     C19376  11.273   3.665   0.375 -0.1245  0.3007  0.9218
  866MOL0     C19377  11.286   3.614   0.239 -0.4557  0.5515  0.3388
  866MOL0     O19378  11.395   3.643   0.162  0.0641 -0.5286 -1.0198
  866MOL0     C19379  11.515   3.583   0.218 -0.5519  0.1993 -0.4971
  866MOL0     C19380  11.620   3.625   0.115  0.1460 -0.1663  0.3208
  866MOL0     C19381  11.682   3.768   0.147 -0.6219  0.7218 -0.2002
  866MOL0     C19382  11.739   3.852   0.028 -0.2125  0.6439 -0.0144
  866MOL0     C19383  11.789   3.989   0.079 -1.0170 -0.4569 -0.1213
  866MOL0     C19384  11.820   4.079  -0.042  0.3310 -0.5739  0.3178
  866MOL0     C19385  11.843   4.227  -0.029  0.1106  0.0026 -0.3124
  866MOL0     C19386  11.989   4.262   0.018  1.2668 -0.0117  0.2373
  866MOL0     N19387  12.025   4.397  -0.025 -0.3141 -0.1396 -0.2407
  866MOL0     C19388  11.942   4.506  -0.036 -0.3742 -0.6404  0.6141
  866MOL0     C19389  12.020   4.598  -0.107  0.2330 -1.6524  1.0452
  866MOL0     C19390  11.964   4.743  -0.142  0.4226  0.5027 -0.9441
  866MOL0     C19391  11.833   4.730  -0.213  0.3413  0.4841  0.9815
  866MOL0     C19392  11.758   4.863  -0.247 -0.3416  0.7861 -0.3189
  866MOL0     C19393  11.768   4.969  -0.134 -0.3448  0.8042  0.5584
  866MOL0     O19394  11.669   5.066  -0.126 -0.1913  0.2651 -0.0260
  866MOL0     C19395  11.641   5.124  -0.242  1.0577  0.1241 -0.5121
  866MOL0     C19396  11.521   5.102  -0.316  0.6687 -0.1432 -0.0968
  866MOL0     C19397  11.488   5.182  -0.430  0.7913 -0.9573  0.4822
  866MOL0     C19398  11.351   5.164  -0.497 -0.2538  0.2266 -0.4487
  866MOL0     C19399  11.580   5.274  -0.480  0.6056  0.6807 -0.3787
  866MOL0     C19400  11.561   5.351  -0.601 -0.0918 -0.5610 -0.6167
  866MOL0     O19401  11.508   5.293  -0.719 -0.5416  0.0179  0.3172
  866MOL0     C19402  11.516   5.358  -0.837  0.5099 -0.8131  0.3535
  866MOL0     C19403  11.630   5.429  -0.883  0.1800  0.3465  0.5484
  866MOL0     C19404  11.628   5.478  -1.017 -0.2845 -0.4240  0.3403
  866MOL0     C19405  11.508   5.480  -1.083  0.0303 -0.5747  0.7583
  866MOL0     O19406  11.509   5.550  -1.202  0.4756 -0.4088  0.0022
  866MOL0     C19407  11.428   5.678  -1.190 -0.3703  1.2929  0.0438
  866MOL0     C19408  11.467   5.768  -1.297 -0.4066 -0.1357  0.0301
  866MOL0     C19409  11.389   5.894  -1.304  0.1648  0.4852 -0.8055
  866MOL0     C19410  11.243   5.875  -1.320 -0.0790 -0.6298 -0.2103
  866MOL0     C19411  11.168   5.990  -1.380  0.3064  0.7749  0.6442
  866MOL0     C19412  11.021   5.958  -1.419 -0.0950  0.5664 -0.6716
  866MOL0     C19413  10.952   6.098  -1.434  0.9741  0.6632 -0.1887
  866MOL0     C19414  10.800   6.095  -1.468 -0.5789 -0.6949 -0.4274
  866MOL0    Cl19415  10.706   6.075  -1.312 -0.4977 -0.2723  0.0745
  866MOL0     C19416  11.389   5.424  -1.028 -0.4315  0.4410 -0.2641
  866MOL0     C19417  11.397   5.365  -0.907  0.1143  0.5487 -0.6407
  866MOL0     O19418  11.592   5.471  -0.587 -0.7015 -0.6103  0.0044
  866MOL0     C19419  11.700   5.289  -0.413 -1.1633 -0.6079 -0.3356
  866MOL0     C19420  11.729   5.218  -0.291  0.0057 -0.0000  0.1563
  866MOL0     N19421  12.153   4.557  -0.115  0.3172  0.5629 -0.0674
  866MOL0     N19422  12.152   4.438  -0.066 -0.7051 -0.1175  0.1864
  866MOL0     C19423  11.173   3.550   0.181 -0.0933  0.4092 -0.0285
  866MOL0     C19424  11.051   3.547   0.250  0.0543 -0.1669  0.2030
  866MOL0     C19425  10.745   3.613   0.605  0.2995  0.9092  0.1387
  866MOL0     C19426  10.630   3.588   0.528 -0.8407 -0.3423  0.5048
  866MOL0     C19427  10.505   3.599   0.579 -0.2083  0.3091 -0.3324
  866MOL0     C19428  10.491   3.629   0.717 -0.0519 -0.2990  0.3523
  866MOL0     O19429  10.371   3.642   0.785  0.5753 -0.5666 -0.3265
  866MOL0     C19430  10.250   3.613   0.704 -0.4679 -0.5741 -0.3301
  866MOL0     C19431  10.222   3.466   0.691 -0.5424 -0.3878  0.2906
  866MOL0     C19432  10.098   3.428   0.611  0.3607  0.0436  0.0889
  866MOL0     C19433  10.108   3.279   0.553 -0.0666 -0.3401 -0.8108
  866MOL0     C19434  10.203   3.284   0.437 -0.3121  0.0753  0.9818
  866MOL0     C19435  10.269   3.274   0.338  0.3365  0.1840  0.6691
  866MOL0     C19436  10.601   3.660   0.800  0.4763 -0.7495 -0.1742
  866MOL0     C19437  10.731   3.662   0.737  1.6869  0.4609  0.4953
  866MOL0     C19438  10.846   3.710   0.809  0.1990  0.6586 -0.4377
  866MOL0     H19439  11.143   3.689   0.547 -1.7935 -3.7548  1.1204
  866MOL0     H19440  11.354   3.717   0.425  0.5839  3.3201 -2.8774
  866MOL0     H19441  11.501   3.475   0.221  0.6969 -0.0313 -1.7634
  866MOL0     H19442  11.549   3.614   0.317  0.0219  1.0148 -0.9364
  866MOL0     H19443  11.697   3.550   0.095 -0.6229 -0.2682 -2.6813
  866MOL0     H19444  11.562   3.621   0.023  0.0978 -3.1859  0.4147
  866MOL0     H19445  11.603   3.825   0.198 -1.7530  1.1330 -2.2997
  866MOL0     H19446  11.767   3.764   0.215 -0.7878  0.3511 -0.0125
  866MOL0     H19447  11.811   3.790  -0.025  0.1838 -0.5940  1.8527
  866MOL0     H19448  11.657   3.874  -0.041 -0.1564  2.0183  0.3377
  866MOL0     H19449  11.875   3.975   0.145 -0.8175  2.0148  0.2304
  866MOL0     H19450  11.711   4.038   0.139 -0.6405 -2.2766  1.9949
  866MOL0     H19451  11.910   4.034  -0.085 -1.6437 -3.0761 -1.5023
  866MOL0     H19452  11.738   4.067  -0.113  2.1860 -1.7438 -1.7571
  866MOL0     H19453  11.767   4.267   0.038 -1.3430 -0.3135 -1.7318
  866MOL0     H19454  11.822   4.277  -0.124  0.3053  0.3741 -0.1628
  866MOL0     H19455  11.998   4.255   0.127  1.0389 -3.6259  0.1490
  866MOL0     H19456  12.068   4.196  -0.022 -1.3543 -2.3475 -1.4773
  866MOL0     H19457  11.839   4.510  -0.003 -0.8266 -1.4082 -0.6515
  866MOL0     H19458  12.029   4.801  -0.209  2.5576 -1.7932 -1.0236
  866MOL0     H19459  11.952   4.798  -0.049 -1.1442 -1.4648  0.0944
  866MOL0     H19460  11.859   4.668  -0.300 -0.7415 -1.4003  1.9293
  866MOL0     H19461  11.763   4.683  -0.144 -1.6231  1.8736  0.0104
  866MOL0     H19462  11.803   4.906  -0.337 -0.4319  0.6022 -0.4517
  866MOL0     H19463  11.655   4.836  -0.269 -0.3181  1.4917 -1.3524
  866MOL0     H19464  11.768   4.911  -0.042 -0.6869 -0.4278 -0.1939
  866MOL0     H19465  11.867   5.014  -0.140  0.0995 -0.1376  0.6732
  866MOL0     H19466  11.452   5.028  -0.278 -1.5417  3.0863  2.8449
  866MOL0     H19467  11.364   5.090  -0.576 -1.3177  0.5359 -0.9408
  866MOL0     H19468  11.313   5.260  -0.536  0.2174  1.3180  1.6216
  866MOL0     H19469  11.277   5.124  -0.427 -0.5374  1.3069 -0.0958
  866MOL0     H19470  11.720   5.446  -0.825  1.5050  0.6340 -1.4800
  866MOL0     H19471  11.722   5.513  -1.060 -0.7402 -1.3488 -1.5318
  866MOL0     H19472  11.322   5.653  -1.204 -0.0128 -0.5963  0.4099
  866MOL0     H19473  11.439   5.732  -1.095 -0.7816  1.0576  0.2291
  866MOL0     H19474  11.570   5.805  -1.287 -1.1372  1.6297  1.5971
  866MOL0     H19475  11.455   5.721  -1.395 -2.6602  1.1019 -0.3529
  866MOL0     H19476  11.422   5.946  -1.394  0.3531  0.2119 -0.8952
  866MOL0     H19477  11.399   5.952  -1.212  0.4907  1.6951 -1.5768
  866MOL0     H19478  11.205   5.856  -1.220  1.0289 -2.0839 -0.0305
  866MOL0     H19479  11.218   5.790  -1.385  1.2080  1.4242 -3.6967
  866MOL0     H19480  11.180   6.072  -1.308 -5.3260  1.4487  1.2845
  866MOL0     H19481  11.213   6.008  -1.478  1.0472 -2.1874  0.3470
  866MOL0     H19482  10.968   5.926  -1.329  0.1662  0.2839 -0.6175
  866MOL0     H19483  11.011   5.884  -1.499  0.3060 -0.3217  0.0869
  866MOL0     H19484  11.002   6.142  -1.521  1.3207 -1.3429 -1.0632
  866MOL0     H19485  10.975   6.149  -1.340  2.0567 -1.2917  0.6679
  866MOL0     H19486  10.783   6.023  -1.549 -0.5004 -0.4744 -0.6423
  866MOL0     H19487  10.781   6.196  -1.508  1.2266  0.0685  0.5057
  866MOL0     H19488  11.295   5.438  -1.079 -0.6134  3.6827  0.6860
  866MOL0     H19489  11.304   5.324  -0.870  1.3486 -0.1410  1.8830
  866MOL0     H19490  11.770   5.366  -0.444 -0.3197  0.4859  3.7574
  866MOL0     H19491  11.809   5.260  -0.230  0.4138  0.7297 -0.8559
  866MOL0     H19492  11.180   3.506   0.082 -2.2555  2.2457 -1.0816
  866MOL0     H19493  10.971   3.494   0.200 -0.8044 -0.4892  1.8368
  866MOL0     H19494  10.638   3.555   0.425  0.2506 -0.2906  0.5583
  866MOL0     H19495  10.420   3.572   0.518 -0.7718 -0.8006  0.8955
  866MOL0     H19496  10.163   3.655   0.756 -0.6468 -1.4690  0.1189
  866MOL0     H19497  10.252   3.671   0.612 -0.7214  1.6651  0.9934
  866MOL0     H19498  10.210   3.414   0.787 -2.0863 -1.0448 -0.2417
  866MOL0     H19499  10.309   3.410   0.653 -0.5363 -0.5497  0.5405
  866MOL0     H19500  10.014   3.437   0.681  0.7318 -0.1028  0.5588
  866MOL0     H19501  10.084   3.501   0.531 -1.5974 -0.5267 -0.1460
  866MOL0     H19502  10.009   3.249   0.516 -0.5720  0.0839  0.1796
  866MOL0     H19503  10.140   3.202   0.624  1.7019  1.5573  0.5842
  866MOL0     H19504  10.350   3.275   0.268 -0.0564 -1.2245  0.1671
  866MOL0     H19505  10.583   3.653   0.906 -2.9436 -1.2066 -0.6751
  866MOL0     H19506  10.813   3.775   0.891 -2.1275 -0.4440 -0.4170
  866MOL0     H19507  10.890   3.621   0.855  2.3577  0.6944 -2.2599
  866MOL0     H19508  10.918   3.754   0.739  1.1946 -0.4797 -0.1557
  867MOL0     O19509   8.439   8.191   6.711  0.0571 -0.3152  0.2696
  867MOL0     C19510   8.508   8.223   6.615 -0.3415  0.3177  0.8081
  867MOL0     O19511   8.601   8.319   6.608  0.2236 -0.9883  0.5322
  867MOL0     C19512   8.654   8.377   6.714  0.3072  0.0161 -0.9339
  867MOL0     C19513   8.587   8.471   6.795 -0.3274 -0.4119  0.3928
  867MOL0     C19514   8.645   8.519   6.912 -0.5254  0.3009  0.3499
  867MOL0     C19515   8.773   8.478   6.943  0.1882 -0.3928 -0.3985
  867MOL0     O19516   8.841   8.514   7.054  0.2362  0.3724 -0.3061
  867MOL0     C19517   8.777   8.550   7.179 -0.1713  0.2024 -0.8768
  867MOL0     C19518   8.870   8.530   7.301 -0.5973 -0.0367 -1.1165
  867MOL0     C19519   8.981   8.636   7.301  0.2085 -0.8331  0.0901
  867MOL0     C19520   9.108   8.573   7.367  0.3157  0.0721 -0.3570
  867MOL0     C19521   9.224   8.669   7.401  0.1111 -0.2886  0.8928
  867MOL0     C19522   9.333   8.594   7.483  0.0539 -0.3500  0.1469
  867MOL0     C19523   9.440   8.688   7.549  0.3893 -0.0457 -0.0424
  867MOL0     C19524   9.553   8.725   7.454  0.2857  0.5788  0.6410
  867MOL0     N19525   9.653   8.791   7.534  0.9956  0.2852 -0.2095
  867MOL0     C19526   9.762   8.723   7.564 -0.7231  0.1036  0.3136
  867MOL0     C19527   9.860   8.813   7.592  0.1756  0.2618  0.0684
  867MOL0     C19528  10.005   8.776   7.625 -0.4331  0.5245  0.4985
  867MOL0     C19529  10.100   8.839   7.519  0.0442  0.4292  0.2425
  867MOL0     C19530  10.245   8.823   7.562  0.9088 -0.0402 -0.3211
  867MOL0     C19531  10.278   8.931   7.674  0.3786 -0.0464  1.0405
  867MOL0     O19532  10.331   9.051   7.620 -0.1767 -0.1463 -0.5068
  867MOL0     C19533  10.468   9.060   7.621  0.2248 -0.1210 -0.3359
  867MOL0     C19534  10.527   9.189   7.608  0.1060 -0.3053  0.8649
  867MOL0     C19535  10.663   9.212   7.593  0.1730  0.2145 -0.0284
  867MOL0     C19536  10.714   9.351   7.576  0.2037  0.1700  0.6703
  867MOL0     C19537  10.753   9.101   7.599 -0.0022  0.2057  0.2224
  867MOL0     C19538  10.906   9.120   7.593  0.9544  0.3017 -0.5290
  867MOL0     O19539  10.975   9.016   7.533 -0.3861  0.3191 -0.3026
  867MOL0     C19540  11.107   8.998   7.522 -0.1897 -0.2403 -0.0870
  867MOL0     C19541  11.200   9.053   7.612  0.6718 -0.4867  0.1103
  867MOL0     C19542  11.336   9.017   7.603  0.0881 -0.3559 -0.1828
  867MOL0     C19543  11.384   8.916   7.514 -0.2406 -0.0331  0.8992
  867MOL0     O19544  11.511   8.867   7.487 -0.4432 -0.5494  0.1696
  867MOL0     C19545  11.619   8.945   7.541 -0.3456  1.2896 -0.5884
  867MOL0     C19546  11.746   8.920   7.462 -0.2254 -0.4446 -0.0489
  867MOL0     C19547  11.846   9.030   7.490  0.5284 -0.6659  0.3536
  867MOL0     C19548  11.988   8.993   7.438  0.5219 -0.3856 -0.4649
  867MOL0     C19549  12.091   9.066   7.525  0.0230  0.3932 -0.1449
  867MOL0     C19550  12.114   8.997   7.658 -0.9351  0.5509  0.1042
  867MOL0     C19551  12.254   9.022   7.723  0.9021 -0.0686  0.0502
  867MOL0     C19552  12.276   9.170   7.745 -0.3647  0.4776  0.4567
  867MOL0    Cl19553  12.428   9.184   7.849 -0.6632  0.1218 -0.0735
  867MOL0     C19554  11.284   8.867   7.429 -0.0667 -0.2600  0.0407
  867MOL0     C19555  11.155   8.907   7.434  0.5721  0.3677  0.5309
  867MOL0     O19556  10.960   9.218   7.633 -0.2022 -0.0986 -0.8066
  867MOL0     C19557  10.695   8.977   7.609 -0.0694 -0.4715  0.4603
  867MOL0     C19558  10.559   8.950   7.621 -0.2060 -0.0805 -0.4734
  867MOL0     N19559   9.803   8.938   7.575  0.1456  0.2513  0.5450
  867MOL0     N19560   9.678   8.924   7.542 -0.9083  0.4930  0.3733
  867MOL0     C19561   8.840   8.385   6.870 -0.6221  0.5422  0.4136
  867MOL0     C19562   8.775   8.330   6.759  0.3859  0.1191  0.8280
  867MOL0     C19563   8.498   8.135   6.495 -0.0734  0.2442  0.4384
  867MOL0     C19564   8.565   8.174   6.377  0.4890 -0.0375  0.9106
  867MOL0     C19565   8.585   8.079   6.267  0.9473 -1.3182 -0.8808
  867MOL0     C19566   8.515   7.955   6.263 -0.1493 -0.5095 -0.5009
  867MOL0     O19567   8.538   7.878   6.154 -0.2464 -0.8157 -0.5002
  867MOL0     C19568   8.568   7.734   6.182 -1.3384 -0.0760 -0.6249
  867MOL0     C19569   8.677   7.691   6.076  0.2270 -0.0143  0.4993
  867MOL0     C19570   8.821   7.743   6.116 -0.0908 -0.0101  0.4691
  867MOL0     C19571   8.936   7.677   6.029  0.3475  0.0080 -0.2265
  867MOL0     C19572   8.936   7.533   6.039  0.2769  0.0900  0.1369
  867MOL0     C19573   8.924   7.413   6.025 -0.3404  0.1005  1.1418
  867MOL0     C19574   8.430   7.929   6.370  0.4200  0.3320 -0.8164
  867MOL0     C19575   8.433   8.013   6.485 -0.0498 -0.0654 -0.5526
  867MOL0     C19576   8.334   7.952   6.590 -0.0119 -0.6804  0.7828
  867MOL0     H19577   8.490   8.516   6.775  0.1387  1.4060  1.9333
  867MOL0     H19578   8.611   8.587   6.989  1.6344  0.7143  0.9962
  867MOL0     H19579   8.689   8.489   7.201 -1.9260  2.7738 -0.2612
  867MOL0     H19580   8.745   8.655   7.179 -2.1742 -0.2872  2.0822
  867MOL0     H19581   8.812   8.533   7.394 -2.1692  0.0836 -2.0641
  867MOL0     H19582   8.915   8.431   7.288  1.8533  0.9298 -0.4566
  867MOL0     H19583   9.011   8.662   7.199 -0.2314 -0.9727 -0.0787
  867MOL0     H19584   8.952   8.731   7.346  0.3355 -1.3223  1.2363
  867MOL0     H19585   9.084   8.537   7.467  0.2152  0.5124 -0.2192
  867MOL0     H19586   9.145   8.487   7.311  1.6769 -0.9000  1.8897
  867MOL0     H19587   9.180   8.750   7.461  2.0740  1.0550  0.6103
  867MOL0     H19588   9.272   8.703   7.308 -0.7441 -2.0570 -0.2448
  867MOL0     H19589   9.285   8.545   7.569  0.5293 -0.7440  0.1937
  867MOL0     H19590   9.368   8.510   7.422 -0.7505  0.6368 -1.7743
  867MOL0     H19591   9.485   8.634   7.633 -0.8603 -1.6328 -0.3428
  867MOL0     H19592   9.400   8.777   7.597 -0.8467  0.4015 -1.7963
  867MOL0     H19593   9.589   8.635   7.404 -3.3049  0.4562 -2.1124
  867MOL0     H19594   9.515   8.787   7.373 -0.8116 -0.7982  0.0573
  867MOL0     H19595   9.769   8.615   7.570  0.1534  0.1886  0.9426
  867MOL0     H19596  10.003   8.667   7.627  1.5971  0.4106 -0.7377
  867MOL0     H19597  10.020   8.812   7.727  1.7037  1.3819 -0.0503
  867MOL0     H19598  10.092   8.782   7.426  0.7058 -0.4448  0.7016
  867MOL0     H19599  10.078   8.944   7.497  2.9919  1.3369  1.1536
  867MOL0     H19600  10.266   8.728   7.612  1.4903  0.5036  0.4976
  867MOL0     H19601  10.309   8.839   7.475 -0.4048 -0.6741 -1.4385
  867MOL0     H19602  10.183   8.950   7.726 -0.8376 -1.3519 -0.5737
  867MOL0     H19603  10.341   8.892   7.755 -0.0815  1.7273  2.3226
  867MOL0     H19604  10.463   9.277   7.614  0.7656  0.2329  0.1396
  867MOL0     H19605  10.760   9.398   7.664 -1.0319  0.9356  0.9283
  867MOL0     H19606  10.631   9.421   7.564  0.3539  0.4691  1.3257
  867MOL0     H19607  10.786   9.349   7.494 -0.2830 -1.0735  0.2419
  867MOL0     H19608  11.190   9.126   7.692  1.2806 -2.3670  1.9843
  867MOL0     H19609  11.398   9.062   7.679 -1.7516  2.0965 -0.0359
  867MOL0     H19610  11.596   9.051   7.553  3.8081  2.2129  0.9126
  867MOL0     H19611  11.642   8.910   7.643 -2.0937 -2.6612 -1.3522
  867MOL0     H19612  11.788   8.822   7.487  0.5228  0.2914  1.7411
  867MOL0     H19613  11.728   8.925   7.354 -1.6181  0.0764  0.1777
  867MOL0     H19614  11.848   9.042   7.599 -1.1144 -2.1003  0.5755
  867MOL0     H19615  11.805   9.123   7.449 -1.5233  0.2866  4.1123
  867MOL0     H19616  12.011   9.022   7.335 -1.7992  0.8933 -0.6815
  867MOL0     H19617  11.994   8.884   7.451 -2.0050 -0.3609  1.5123
  867MOL0     H19618  12.180   9.069   7.461  0.5220  2.5701  0.5596
  867MOL0     H19619  12.059   9.168   7.549 -1.6374 -0.2160  0.3113
  867MOL0     H19620  12.107   8.888   7.647  0.7875  0.5458 -1.3844
  867MOL0     H19621  12.033   9.029   7.725 -0.0597 -0.3591  1.6759
  867MOL0     H19622  12.329   8.977   7.658  0.8087  0.2848 -0.3022
  867MOL0     H19623  12.261   8.975   7.822  0.5811 -1.4916 -0.5822
  867MOL0     H19624  12.189   9.203   7.804 -1.0708 -2.7571  1.4236
  867MOL0     H19625  12.297   9.229   7.656 -0.4641 -0.1172  0.0341
  867MOL0     H19626  11.313   8.793   7.354  1.1221 -0.7877  0.9815
  867MOL0     H19627  11.086   8.862   7.364  2.0472 -1.6554  0.2551
  867MOL0     H19628  10.749   8.883   7.607 -1.9899 -1.6485  0.9230
  867MOL0     H19629  10.527   8.847   7.631  2.3701 -0.7883  1.3426
  867MOL0     H19630   8.928   8.345   6.919 -0.9950  1.9917  2.3841
  867MOL0     H19631   8.820   8.250   6.701 -0.3365  0.9775 -0.9950
  867MOL0     H19632   8.626   8.264   6.379 -2.9247  2.4602  1.0922
  867MOL0     H19633   8.642   8.112   6.181 -2.7864 -1.4172 -3.6478
  867MOL0     H19634   8.606   7.727   6.284  0.5041 -1.6344 -1.3734
  867MOL0     H19635   8.475   7.677   6.184 -0.7413 -1.2046 -2.4115
  867MOL0     H19636   8.656   7.716   5.971  1.4346  1.0703  0.4834
  867MOL0     H19637   8.678   7.582   6.082 -1.3767 -0.1347 -0.5962
  867MOL0     H19638   8.838   7.850   6.103 -0.5864  0.3055  2.2122
  867MOL0     H19639   8.837   7.729   6.223 -3.3122 -0.6658  0.9630
  867MOL0     H19640   9.030   7.712   6.073  0.1723  0.2045 -0.0120
  867MOL0     H19641   8.932   7.707   5.923 -0.3270  1.2681  0.1357
  867MOL0     H19642   8.899   7.313   5.997  1.4311  0.2181 -1.2236
  867MOL0     H19643   8.366   7.842   6.363  0.4159  0.1094  1.2809
  867MOL0     H19644   8.376   7.950   6.691  1.2985  0.4806  0.2827
  867MOL0     H19645   8.243   8.012   6.584  1.7155  2.1049  0.8528
  867MOL0     H19646   8.302   7.849   6.570  0.1346 -0.5931  0.1014
  868MOL0     O19647   1.782  10.809  10.641  0.1107 -0.5724 -1.0964
  868MOL0     C19648   1.721  10.729  10.578  0.2155 -0.1202 -0.7148
  868MOL0     O19649   1.784  10.638  10.504  0.6799  1.1343  0.5623
  868MOL0     C19650   1.920  10.654  10.485  0.0395 -0.2625  0.0137
  868MOL0     C19651   2.005  10.552  10.499  0.2824 -0.6788 -1.2142
  868MOL0     C19652   2.146  10.565  10.479 -0.2869  0.2272 -0.0418
  868MOL0     C19653   2.195  10.675  10.421  0.7287  0.2468  0.4524
  868MOL0     O19654   2.319  10.656  10.369  0.6608  0.2973  0.3833
  868MOL0     C19655   2.350  10.752  10.267  1.1285 -0.7712  0.7495
  868MOL0     C19656   2.473  10.720  10.176  0.7819 -0.7207  0.3512
  868MOL0     C19657   2.602  10.703  10.260 -0.5189  0.4152  0.6529
  868MOL0     C19658   2.717  10.654  10.167  1.1589 -0.7397  0.5927
  868MOL0     C19659   2.857  10.665  10.223 -0.3902 -0.9558 -0.1557
  868MOL0     C19660   2.875  10.573  10.339  0.4889 -0.0854 -0.7582
  868MOL0     C19661   3.017  10.570  10.407 -0.1458 -0.6366 -0.5640
  868MOL0     C19662   3.103  10.477  10.320 -1.0652  0.2612  0.9212
  868MOL0     N19663   3.241  10.469  10.350 -0.5506 -0.0503 -0.3378
  868MOL0     C19664   3.302  10.548  10.448  1.3965  0.0247 -0.5209
  868MOL0     C19665   3.429  10.513  10.443  0.6634  0.3481 -0.3315
  868MOL0     C19666   3.536  10.546  10.537 -0.6703  0.2382 -0.5496
  868MOL0     C19667   3.571  10.433  10.640  1.0085  0.0959  0.5505
  868MOL0     C19668   3.695  10.475  10.722 -0.6896 -0.9419 -0.0293
  868MOL0     C19669   3.647  10.586  10.826  1.0785 -0.0760 -0.9979
  868MOL0     O19670   3.737  10.634  10.927  0.5676 -0.4428 -0.8657
  868MOL0     C19671   3.866  10.652  10.902  0.4269  0.4094  0.1026
  868MOL0     C19672   3.950  10.628  10.998  0.5994 -0.7354  0.3043
  868MOL0     C19673   4.088  10.657  10.977 -0.3717  0.2355  0.6615
  868MOL0     C19674   4.173  10.608  11.092 -0.6215 -0.6749  0.2897
  868MOL0     C19675   4.134  10.716  10.863 -0.1265  0.0464  0.4203
  868MOL0     C19676   4.279  10.750  10.841 -0.7577 -0.8230  0.4126
  868MOL0     O19677   4.375  10.719  10.929 -0.5550 -0.2283  0.3488
  868MOL0     C19678   4.513  10.732  10.903  0.5681 -0.6125  0.0591
  868MOL0     C19679   4.591  10.703  11.019  0.0918  0.1169  0.3546
  868MOL0     C19680   4.727  10.714  11.023 -0.5941  0.5747 -0.3713
  868MOL0     C19681   4.791  10.739  10.911 -0.8297 -0.3388  1.0559
  868MOL0     O19682   4.932  10.739  10.908  0.2395  0.4746 -0.5501
  868MOL0     C19683   5.012  10.752  11.026 -0.0633 -0.8690  0.6873
  868MOL0     C19684   5.154  10.740  10.988 -0.3833 -0.2248 -1.1713
  868MOL0     C19685   5.251  10.717  11.108  0.0920  0.2082  0.1879
  868MOL0     C19686   5.395  10.702  11.047 -0.0361  0.1866  0.1178
  868MOL0     C19687   5.488  10.658  11.162  1.8829 -0.3939  0.3366
  868MOL0     C19688   5.625  10.664  11.097 -0.8953  0.3553 -0.3169
  868MOL0     C19689   5.738  10.704  11.199 -0.8355  0.2574 -0.5926
  868MOL0     C19690   5.868  10.748  11.119 -0.4484  0.5961  0.8601
  868MOL0    Cl19691   5.969  10.616  11.042  0.6509 -0.2426 -0.0428
  868MOL0     C19692   4.717  10.766  10.790  0.6502  0.0887  0.1358
  868MOL0     C19693   4.577  10.764  10.789  0.0803 -0.1506 -0.2423
  868MOL0     O19694   4.305  10.815  10.739 -0.3795  0.2560  0.0722
  868MOL0     C19695   4.044  10.719  10.754 -0.3045 -0.0867 -0.2117
  868MOL0     C19696   3.912  10.706  10.785  0.1269 -1.1666  0.4066
  868MOL0     N19697   3.445  10.409  10.352 -0.5225 -0.1096 -0.2881
  868MOL0     N19698   3.332  10.386  10.293 -0.1630  0.1256  0.0093
  868MOL0     C19699   2.109  10.790  10.400  0.4938 -0.0600 -0.4664
  868MOL0     C19700   1.972  10.776  10.442  0.3290  0.8879  0.1062
  868MOL0     C19701   1.572  10.728  10.593  0.2824 -0.0022  0.2972
  868MOL0     C19702   1.510  10.837  10.649  0.1198  0.0440 -1.0794
  868MOL0     C19703   1.377  10.843  10.688 -0.6135  0.8002 -1.1379
  868MOL0     C19704   1.290  10.736  10.665 -0.3814 -0.1164 -0.1825
  868MOL0     O19705   1.168  10.746  10.708  1.3164 -0.1343 -0.1945
  868MOL0     C19706   1.103  10.628  10.771  0.8659  0.0553 -0.0307
  868MOL0     C19707   0.962  10.639  10.829  0.0935 -0.7840 -0.9454
  868MOL0     C19708   0.944  10.754  10.913  0.9598 -0.7649  0.3076
  868MOL0     C19709   0.988  10.745  11.060  0.4051 -0.0635 -0.4012
  868MOL0     C19710   0.976  10.874  11.133 -0.9105  0.4465  1.2260
  868MOL0     C19711   0.981  10.980  11.193 -0.1371 -0.3884  0.0053
  868MOL0     C19712   1.357  10.618  10.621 -0.8583 -0.2846 -0.2847
  868MOL0     C19713   1.491  10.613  10.583 -0.4090 -0.4350  0.4431
  868MOL0     C19714   1.542  10.475  10.540 -0.3143 -0.8688  0.0348
  868MOL0     H19715   1.971  10.457  10.539  0.8873 -1.0296 -1.5227
  868MOL0     H19716   2.216  10.486  10.505 -0.2235  0.0232 -0.8099
  868MOL0     H19717   2.352  10.854  10.305  0.3505  0.1046 -1.4667
  868MOL0     H19718   2.274  10.750  10.189  1.7889  1.1154  0.0052
  868MOL0     H19719   2.453  10.628  10.121 -0.0962  0.5508 -1.5466
  868MOL0     H19720   2.487  10.805  10.110  1.5122  0.2555  1.7064
  868MOL0     H19721   2.621  10.798  10.311 -2.5362  1.2576 -0.0645
  868MOL0     H19722   2.586  10.629  10.339 -1.1512 -1.1860 -0.9237
  868MOL0     H19723   2.694  10.555  10.127  0.4630 -0.8918  1.3461
  868MOL0     H19724   2.719  10.715  10.075  0.4741 -0.3267  0.8439
  868MOL0     H19725   2.886  10.768  10.249 -1.9785 -0.8936  1.6098
  868MOL0     H19726   2.921  10.630  10.142  0.1197  1.3801 -0.8564
  868MOL0     H19727   2.802  10.605  10.414  0.5085  0.4847 -0.9720
  868MOL0     H19728   2.836  10.473  10.319  1.0832 -0.3564 -0.5981
  868MOL0     H19729   3.003  10.529  10.508 -0.0466 -0.4591 -0.4768
  868MOL0     H19730   3.064  10.669  10.405  2.4703 -1.7853 -1.2111
  868MOL0     H19731   3.064  10.375  10.320 -1.3495  0.3405 -0.5605
  868MOL0     H19732   3.095  10.529  10.224 -2.1800  0.1268  0.9306
  868MOL0     H19733   3.249  10.610  10.519 -0.1267 -1.7590 -0.0096
  868MOL0     H19734   3.506  10.639  10.587 -1.1635  0.5994 -1.4810
  868MOL0     H19735   3.629  10.575  10.487  0.8482 -1.3067  1.2227
  868MOL0     H19736   3.486  10.405  10.704 -2.4347  0.0859 -3.6115
  868MOL0     H19737   3.598  10.341  10.587  1.2007  0.4558  0.0168
  868MOL0     H19738   3.719  10.393  10.791 -0.3147  0.3891  1.4758
  868MOL0     H19739   3.788  10.505  10.671 -1.8458  1.8032 -0.6643
  868MOL0     H19740   3.613  10.675  10.773  0.7251  1.3302  1.4265
  868MOL0     H19741   3.557  10.549  10.875  0.7208  2.1093  0.0985
  868MOL0     H19742   3.921  10.580  11.091  3.4702  1.0602  2.3030
  868MOL0     H19743   4.245  10.536  11.053  1.7203 -0.0955  3.2423
  868MOL0     H19744   4.121  10.562  11.177  1.8412  0.5499  2.5994
  868MOL0     H19745   4.233  10.692  11.129 -1.8616  1.0579 -1.4087
  868MOL0     H19746   4.545  10.674  11.113  0.2092 -0.8626  0.1166
  868MOL0     H19747   4.773  10.694  11.119 -1.7191  0.5397  0.1844
  868MOL0     H19748   4.991  10.839  11.090  3.0071  0.0267  0.6312
  868MOL0     H19749   4.986  10.661  11.081  0.5978 -2.3176 -1.2667
  868MOL0     H19750   5.173  10.663  10.913  2.5067 -0.4911 -0.2900
  868MOL0     H19751   5.181  10.838  10.946 -4.6324  1.3114 -0.8364
  868MOL0     H19752   5.218  10.634  11.171  1.2701 -0.6644 -0.3104
  868MOL0     H19753   5.250  10.805  11.174  0.5989  0.9228 -0.7335
  868MOL0     H19754   5.415  10.799  11.001  0.7990 -0.4537 -0.9303
  868MOL0     H19755   5.401  10.630  10.965  0.9644  1.8224 -1.3187
  868MOL0     H19756   5.481  10.725  11.248  2.1549 -2.6613  2.2078
  868MOL0     H19757   5.463  10.559  11.201  0.1345 -0.3226 -0.5013
  868MOL0     H19758   5.636  10.734  11.013  0.2462 -2.6411 -2.8869
  868MOL0     H19759   5.648  10.565  11.056 -1.5095 -0.9276  2.2761
  868MOL0     H19760   5.753  10.615  11.260 -2.4188  2.3048  3.1221
  868MOL0     H19761   5.709  10.783  11.269 -1.5025 -0.4087 -0.0935
  868MOL0     H19762   5.933  10.810  11.182 -0.5144 -1.8477  3.5833
  868MOL0     H19763   5.846  10.825  11.045  2.0706  1.5873  1.0414
  868MOL0     H19764   4.761  10.784  10.692 -0.4034 -0.5920 -0.4780
  868MOL0     H19765   4.525  10.786  10.696 -2.5985  0.0422  1.2277
  868MOL0     H19766   4.071  10.744  10.651  1.1495 -4.1508 -1.0069
  868MOL0     H19767   3.838  10.743  10.714  0.9773  1.4505  0.7701
  868MOL0     H19768   2.133  10.883  10.351  2.3370 -0.4010 -0.2806
  868MOL0     H19769   1.905  10.861  10.432 -0.1746  0.3244 -1.7864
  868MOL0     H19770   1.565  10.927  10.671 -1.7325  0.7895  0.8057
  868MOL0     H19771   1.333  10.930  10.736  1.7002  0.8226  1.1216
  868MOL0     H19772   1.107  10.544  10.702 -1.6562  1.7184 -2.4388
  868MOL0     H19773   1.164  10.598  10.857  1.1129  0.8700  0.0940
  868MOL0     H19774   0.932  10.553  10.890  0.1114 -0.0557  0.1178
  868MOL0     H19775   0.889  10.631  10.747 -0.0863 -1.9885 -0.6848
  868MOL0     H19776   0.996  10.840  10.870 -0.0257 -0.1340  0.3383
  868MOL0     H19777   0.839  10.783  10.915  0.4672 -2.4649 -0.2029
  868MOL0     H19778   1.091  10.708  11.062  0.5600  0.3123 -1.1058
  868MOL0     H19779   0.929  10.690  11.133  0.4840 -2.4625 -2.0276
  868MOL0     H19780   0.980  11.074  11.243 -1.3746  0.2834 -1.2286
  868MOL0     H19781   1.305  10.523  10.616 -2.8927  0.5347  2.7171
  868MOL0     H19782   1.634  10.441  10.588  1.2707 -1.1478 -2.9348
  868MOL0     H19783   1.466  10.398  10.559  1.5739 -2.9385 -0.2777
  868MOL0     H19784   1.569  10.477  10.434  0.3430 -2.2990  0.1379
  869MOL0     O19785   0.509   7.908   9.083  0.4029  0.2665 -0.0001
  869MOL0     C19786   0.441   7.910   9.182  0.9245 -0.2604 -0.3163
  869MOL0     O19787   0.488   7.903   9.307 -0.3858 -0.0773  0.6341
  869MOL0     C19788   0.618   7.904   9.334  0.4158 -0.1647  0.1428
  869MOL0     C19789   0.664   7.802   9.421  0.0339  0.4754  0.1243
  869MOL0     C19790   0.794   7.788   9.460  0.0063  0.8173 -0.0331
  869MOL0     C19791   0.890   7.874   9.405 -0.0171  0.8807 -0.7582
  869MOL0     O19792   1.023   7.843   9.417  0.4188  0.1881  0.0547
  869MOL0     C19793   1.070   7.775   9.303 -0.7533  0.4534 -0.1362
  869MOL0     C19794   1.224   7.791   9.284 -0.2946  0.5602  0.3477
  869MOL0     C19795   1.271   7.941   9.284 -0.0987 -0.3868  0.1441
  869MOL0     C19796   1.419   7.956   9.322  0.1472  0.1687 -1.1964
  869MOL0     C19797   1.484   8.094   9.337  0.2545  0.5502 -0.2642
  869MOL0     C19798   1.526   8.150   9.208  0.3468  0.1731 -0.7412
  869MOL0     C19799   1.643   8.239   9.227  0.1096  0.2525  0.8811
  869MOL0     C19800   1.637   8.353   9.325 -0.0330  0.0994 -0.4484
  869MOL0     N19801   1.748   8.450   9.313 -0.2701  0.7811  0.6356
  869MOL0     C19802   1.879   8.408   9.277  0.2159  0.9813 -0.1297
  869MOL0     C19803   1.959   8.516   9.295 -0.4388 -0.6201  0.4057
  869MOL0     C19804   2.110   8.524   9.268  0.0504 -0.6101  0.7137
  869MOL0     C19805   2.134   8.617   9.148  0.4688 -0.0031  0.1306
  869MOL0     C19806   2.068   8.558   9.024 -0.3830  0.2253  0.7946
  869MOL0     C19807   2.075   8.656   8.903  0.4928  0.3434  0.0692
  869MOL0     O19808   2.133   8.588   8.783  0.4346 -0.2860 -0.5228
  869MOL0     C19809   2.056   8.499   8.719  0.0008  0.0447  0.3015
  869MOL0     C19810   1.920   8.504   8.708 -0.6127  0.1187  0.6582
  869MOL0     C19811   1.844   8.402   8.657 -0.2263  0.3746 -0.1124
  869MOL0     C19812   1.696   8.418   8.659 -0.3175 -1.0100 -0.4807
  869MOL0     C19813   1.908   8.287   8.591  0.1742  0.6568  0.3916
  869MOL0     C19814   1.827   8.195   8.504 -1.1251  0.0910  0.3292
  869MOL0     O19815   1.738   8.257   8.417 -0.6412 -0.4946  0.5018
  869MOL0     C19816   1.671   8.187   8.317  0.8292  0.4158 -0.7349
  869MOL0     C19817   1.534   8.183   8.309 -0.1515  1.3551  0.0229
  869MOL0     C19818   1.470   8.096   8.226  0.4992 -0.8657  1.1657
  869MOL0     C19819   1.538   8.024   8.125  0.5619 -0.2208  0.1189
  869MOL0     O19820   1.476   7.944   8.033  0.5282  0.1762 -0.1739
  869MOL0     C19821   1.394   8.027   7.960  0.4052  0.2551  1.0843
  869MOL0     C19822   1.314   7.928   7.866  0.5438 -0.2334 -0.5293
  869MOL0     C19823   1.401   7.865   7.754  1.1588  0.5691 -0.6715
  869MOL0     C19824   1.312   7.792   7.651  0.6813  0.5796  0.3601
  869MOL0     C19825   1.380   7.708   7.542 -0.6213  0.1336  0.8383
  869MOL0     C19826   1.454   7.592   7.590  0.0639  0.5530  0.4894
  869MOL0     C19827   1.372   7.473   7.637  0.5266 -0.2365 -0.1621
  869MOL0     C19828   1.257   7.428   7.551 -0.2116  0.5114  0.6186
  869MOL0    Cl19829   1.193   7.278   7.621 -0.0818  0.0936 -0.2453
  869MOL0     C19830   1.671   8.018   8.134 -0.0812 -0.2036 -0.8774
  869MOL0     C19831   1.738   8.099   8.230 -0.8168 -0.0498  0.4283
  869MOL0     O19832   1.855   8.075   8.500  0.7621  0.2972  0.0326
  869MOL0     C19833   2.050   8.270   8.607  0.3613 -0.5913  0.0336
  869MOL0     C19834   2.119   8.381   8.668  0.1630  0.9221 -0.2015
  869MOL0     N19835   1.863   8.620   9.311  0.1991  0.6698 -0.6167
  869MOL0     N19836   1.740   8.579   9.330  0.1534 -0.5367  0.7220
  869MOL0     C19837   0.851   7.970   9.312  0.4522 -0.5682  0.2900
  869MOL0     C19838   0.718   7.994   9.287 -0.2515  0.2299  0.2068
  869MOL0     C19839   0.299   7.946   9.159 -0.1712  0.4106  0.7193
  869MOL0     C19840   0.213   7.928   9.267 -0.6670  0.0063 -0.7780
  869MOL0     C19841   0.082   7.958   9.267  0.1325  0.0654 -0.1162
  869MOL0     C19842   0.019   8.011   9.161 -0.0551 -0.1441 -0.0639
  869MOL0     O19843  -0.116   8.038   9.140 -0.0382  0.3711 -0.0815
  869MOL0     C19844  -0.197   8.029   9.251  0.2973  0.5346 -0.5634
  869MOL0     C19845  -0.338   8.071   9.208  0.1301  0.6776 -0.6375
  869MOL0     C19846  -0.345   8.208   9.132 -0.3433 -0.6569  0.5784
  869MOL0     C19847  -0.459   8.189   9.024 -0.2197 -0.3193 -0.2468
  869MOL0     C19848  -0.415   8.117   8.905 -0.4237  0.1917 -0.1344
  869MOL0     C19849  -0.376   8.034   8.821  0.0453  0.1103 -1.4468
  869MOL0     C19850   0.104   8.044   9.050 -0.4595 -0.1297  0.1503
  869MOL0     C19851   0.241   8.014   9.048  0.3136  1.1257 -0.9270
  869MOL0     C19852   0.327   8.047   8.923  0.3954  0.0071 -0.9974
  869MOL0     H19853   0.584   7.732   9.443 -1.2038  1.7263 -0.2249
  869MOL0     H19854   0.824   7.709   9.529  2.9406 -0.2153 -2.3091
  869MOL0     H19855   1.029   7.808   9.208 -0.1219 -0.9609 -0.9341
  869MOL0     H19856   1.056   7.667   9.311 -3.5889  0.8174  1.0279
  869MOL0     H19857   1.275   7.734   9.362 -1.4512 -1.2057 -0.1282
  869MOL0     H19858   1.245   7.744   9.188  0.8496  0.2966  0.7106
  869MOL0     H19859   1.261   7.973   9.180  1.7593  1.9008  0.5864
  869MOL0     H19860   1.205   8.002   9.346  0.1278 -0.4211  0.4242
  869MOL0     H19861   1.434   7.923   9.425  2.3998  3.0987 -0.4436
  869MOL0     H19862   1.489   7.896   9.263  1.9608  0.8483  0.1523
  869MOL0     H19863   1.566   8.081   9.409 -0.2639  2.1525  0.6637
  869MOL0     H19864   1.414   8.168   9.377  1.0557  1.5534 -0.6988
  869MOL0     H19865   1.556   8.081   9.128  2.9012  1.5615 -1.1034
  869MOL0     H19866   1.438   8.198   9.164  0.0354 -2.7170 -3.7361
  869MOL0     H19867   1.659   8.296   9.135 -0.0049  1.4896  1.6105
  869MOL0     H19868   1.720   8.163   9.239 -1.4290 -1.2802  1.3914
  869MOL0     H19869   1.543   8.403   9.299 -1.3049 -0.0482  3.2921
  869MOL0     H19870   1.617   8.314   9.425 -2.4922 -1.9591 -1.6080
  869MOL0     H19871   1.905   8.308   9.243 -2.0483  0.7992 -1.5065
  869MOL0     H19872   2.158   8.431   9.237  1.6365  1.2306 -2.9581
  869MOL0     H19873   2.160   8.554   9.361  1.6168  1.9588 -0.8402
  869MOL0     H19874   2.095   8.717   9.170  0.8827 -0.1564  1.7408
  869MOL0     H19875   2.242   8.622   9.129  1.6184  1.6135  5.3470
  869MOL0     H19876   2.114   8.462   8.999  1.0589  1.2502 -0.7363
  869MOL0     H19877   1.960   8.547   9.039 -0.5123 -0.9174 -0.7531
  869MOL0     H19878   1.975   8.698   8.890 -0.5794 -2.1715 -0.4074
  869MOL0     H19879   2.139   8.742   8.924 -1.4511  1.9186 -0.2215
  869MOL0     H19880   1.862   8.587   8.747 -0.8952  0.5562 -0.6262
  869MOL0     H19881   1.678   8.511   8.605  0.7062 -0.2166  0.5036
  869MOL0     H19882   1.659   8.431   8.761  0.0031  0.3603 -0.5319
  869MOL0     H19883   1.640   8.332   8.620  0.1099 -0.0713 -3.3925
  869MOL0     H19884   1.474   8.244   8.377 -3.4477  1.7336 -2.9101
  869MOL0     H19885   1.361   8.098   8.220  0.3628  0.7346  3.1179
  869MOL0     H19886   1.322   8.089   8.015  0.1109 -0.4672  1.5357
  869MOL0     H19887   1.441   8.102   7.897 -1.5107  1.8689  1.4759
  869MOL0     H19888   1.275   7.858   7.941  0.2765  1.8178  1.3224
  869MOL0     H19889   1.225   7.979   7.828  1.1557  0.7249 -0.7123
  869MOL0     H19890   1.469   7.793   7.800  1.3620  0.0385 -1.7669
  869MOL0     H19891   1.465   7.934   7.697  1.3186 -3.0100 -5.4802
  869MOL0     H19892   1.251   7.869   7.603 -2.8042 -0.5783  2.5591
  869MOL0     H19893   1.239   7.725   7.697  1.5573 -2.3530 -2.1924
  869MOL0     H19894   1.304   7.667   7.475  0.3095  0.6240 -0.5562
  869MOL0     H19895   1.444   7.777   7.486  0.4113  0.2620  2.1259
  869MOL0     H19896   1.521   7.613   7.674  0.4605  0.4890  0.1908
  869MOL0     H19897   1.526   7.568   7.512 -0.5905 -0.9721  0.3260
  869MOL0     H19898   1.335   7.504   7.735  2.5004  1.6812  0.0422
  869MOL0     H19899   1.444   7.393   7.655  0.8791 -0.4415 -2.2317
  869MOL0     H19900   1.306   7.424   7.453 -1.7618  2.6011 -0.3100
  869MOL0     H19901   1.178   7.503   7.554 -0.8357 -0.1165  0.0885
  869MOL0     H19902   1.715   7.955   8.058  0.4941 -1.6686  0.5962
  869MOL0     H19903   1.845   8.091   8.246 -0.7562 -3.0323 -0.7058
  869MOL0     H19904   2.095   8.173   8.584 -0.4267 -0.3160 -3.0834
  869MOL0     H19905   2.227   8.380   8.669  0.2527 -2.2282 -1.8999
  869MOL0     H19906   0.931   8.026   9.265 -0.8383 -2.1586 -4.3555
  869MOL0     H19907   0.697   8.077   9.220  1.6806  4.9978  4.7677
  869MOL0     H19908   0.253   7.888   9.360  0.2255 -6.2692 -3.3352
  869MOL0     H19909   0.034   7.938   9.362  4.2745 -3.2026  1.6068
  869MOL0     H19910  -0.217   7.923   9.269 -1.3678  0.7235 -1.1494
  869MOL0     H19911  -0.146   8.084   9.330 -0.9985 -2.2056  2.4277
  869MOL0     H19912  -0.408   8.085   9.291  1.2874  1.7729  0.2205
  869MOL0     H19913  -0.379   7.983   9.159  0.1766  0.3784 -0.1474
  869MOL0     H19914  -0.368   8.295   9.194 -3.0996 -1.2468  0.4958
  869MOL0     H19915  -0.252   8.226   9.077 -0.6101 -1.6525 -0.2446
  869MOL0     H19916  -0.499   8.286   8.993  0.5804  0.3030  0.6013
  869MOL0     H19917  -0.542   8.134   9.068  0.0120  1.2986  2.4379
  869MOL0     H19918  -0.343   7.970   8.742  4.3295  0.0587  0.1265
  869MOL0     H19919   0.072   8.087   8.956  0.0523  0.4252  0.2229
  869MOL0     H19920   0.364   7.956   8.875  2.4663 -0.8098  1.9048
  869MOL0     H19921   0.265   8.108   8.856 -0.5002 -2.2959 -2.4366
  869MOL0     H19922   0.417   8.104   8.944  1.2795 -0.9350 -2.1097
  870MOL0     O19923   3.334   4.685  10.055 -0.8477  0.5201  0.1395
  870MOL0     C19924   3.331   4.562  10.022 -0.3062 -0.2927 -0.1789
  870MOL0     O19925   3.437   4.487   9.982  0.0346 -0.4133 -0.3522
  870MOL0     C19926   3.566   4.528  10.009 -0.5552 -0.1814 -1.1645
  870MOL0     C19927   3.612   4.578  10.129 -0.2509 -0.2060  0.1072
  870MOL0     C19928   3.749   4.606  10.143 -0.5391 -0.1049 -0.0627
  870MOL0     C19929   3.837   4.587  10.038  0.0164 -0.2823  0.2056
  870MOL0     O19930   3.971   4.613  10.057 -0.2411 -0.2174 -0.8732
  870MOL0     C19931   4.067   4.520  10.016 -0.3259  0.5656 -0.3181
  870MOL0     C19932   4.206   4.581  10.054  0.3700  0.2947 -0.7093
  870MOL0     C19933   4.194   4.630  10.200 -0.6441 -0.2517 -0.3380
  870MOL0     C19934   4.189   4.786  10.220  0.0160 -0.3975  0.0686
  870MOL0     C19935   4.176   4.821  10.368  0.1966  0.0120  0.0984
  870MOL0     C19936   4.193   4.975  10.379  1.1347  0.8763 -0.9474
  870MOL0     C19937   4.177   5.032  10.515  0.1010 -0.0195 -0.4184
  870MOL0     C19938   4.123   5.171  10.528 -0.4983  0.3618 -0.9417
  870MOL0     N19939   4.220   5.275  10.483 -0.0108 -0.0440 -0.1438
  870MOL0     C19940   4.229   5.333  10.360  0.3996  1.0115 -0.1743
  870MOL0     C19941   4.292   5.448  10.368  0.2581 -0.1825 -0.7243
  870MOL0     C19942   4.332   5.534  10.257  0.2404  0.3331 -0.0295
  870MOL0     C19943   4.268   5.673  10.271 -1.4335  0.2837 -0.2281
  870MOL0     C19944   4.120   5.690  10.221 -0.0317 -0.0872 -0.2204
  870MOL0     C19945   4.013   5.664  10.323 -0.4050 -1.2225 -0.2756
  870MOL0     O19946   3.895   5.703  10.244  0.1856 -0.1547  1.2381
  870MOL0     C19947   3.772   5.711  10.312 -0.5004 -0.8677 -0.4270
  870MOL0     C19948   3.692   5.804  10.242  0.2003 -0.6975 -0.5534
  870MOL0     C19949   3.556   5.832  10.282  0.7782 -0.0479  0.5595
  870MOL0     C19950   3.478   5.942  10.197  0.4339 -0.8038 -0.3531
  870MOL0     C19951   3.503   5.754  10.391 -0.1654  0.2700  0.3607
  870MOL0     C19952   3.366   5.766  10.435  0.4228  0.6525  0.3440
  870MOL0     O19953   3.283   5.862  10.372 -0.4539  0.1122 -0.2122
  870MOL0     C19954   3.151   5.861  10.388 -0.8743  1.3514 -0.2437
  870MOL0     C19955   3.060   5.831  10.277  0.5640 -0.9353  0.2034
  870MOL0     C19956   2.915   5.822  10.302 -0.1898  0.1341  0.5055
  870MOL0     C19957   2.867   5.852  10.423  0.0675  0.5268 -0.1086
  870MOL0     O19958   2.731   5.810  10.447 -0.0989 -0.6851  0.0423
  870MOL0     C19959   2.659   5.893  10.538  0.9858  0.0676 -0.6850
  870MOL0     C19960   2.514   5.850  10.542  0.1583  1.6272  0.1179
  870MOL0     C19961   2.421   5.962  10.590 -0.2964  0.3113  0.0071
  870MOL0     C19962   2.281   5.921  10.629 -0.2430 -0.3296 -1.8071
  870MOL0     C19963   2.204   6.029  10.705  0.8716 -0.2495 -0.3448
  870MOL0     C19964   2.154   6.127  10.600 -0.2233 -0.4394  0.2550
  870MOL0     C19965   2.109   6.257  10.658  1.4250  0.0392 -0.4232
  870MOL0     C19966   1.970   6.295  10.595  0.5998  0.3167  0.2674
  870MOL0    Cl19967   1.973   6.288  10.417  0.0643  0.4000 -0.2274
  870MOL0     C19968   2.953   5.900  10.527  0.8943 -0.0301  1.2834
  870MOL0     C19969   3.092   5.904  10.503 -0.1856 -0.4386 -0.2558
  870MOL0     O19970   3.317   5.680  10.518 -0.5112 -0.4772 -0.2575
  870MOL0     C19971   3.586   5.657  10.451 -1.0088 -0.0058 -0.7338
  870MOL0     C19972   3.713   5.622  10.406 -1.5149 -0.7245  0.9198
  870MOL0     N19973   4.334   5.467  10.494  0.1500  0.5016  0.0927
  870MOL0     N19974   4.289   5.359  10.561 -0.3280 -0.3096  0.2116
  870MOL0     C19975   3.788   4.529   9.927  0.2107  0.0428 -0.2916
  870MOL0     C19976   3.654   4.508   9.905 -0.2519 -0.1552  0.1549
  870MOL0     C19977   3.201   4.494  10.056  0.1659  0.8090  0.3525
  870MOL0     C19978   3.101   4.572  10.122 -0.2614  0.1531 -0.7904
  870MOL0     C19979   2.971   4.523  10.151 -0.6228 -0.2700 -0.3053
  870MOL0     C19980   2.935   4.396  10.112  0.2295  0.5921 -0.0386
  870MOL0     O19981   2.804   4.359  10.132  0.3154 -0.3249 -0.0388
  870MOL0     C19982   2.743   4.226  10.122 -0.0898  0.6517  0.1209
  870MOL0     C19983   2.599   4.251  10.166 -0.3554  0.1262 -1.3187
  870MOL0     C19984   2.514   4.119  10.175  0.4097  0.4965 -0.1660
  870MOL0     C19985   2.360   4.116  10.194  0.2712 -0.5431 -0.7128
  870MOL0     C19986   2.288   4.241  10.140 -0.3449  0.5316  0.8063
  870MOL0     C19987   2.236   4.340  10.099  0.2778  0.1239 -0.1677
  870MOL0     C19988   3.033   4.313  10.054 -0.0393  0.0296 -0.1598
  870MOL0     C19989   3.161   4.362  10.020 -0.0496 -0.3109 -0.0149
  870MOL0     C19990   3.259   4.257   9.959  0.2177 -0.3775  0.1455
  870MOL0     H19991   3.548   4.587  10.216 -1.3223 -3.5494 -0.2095
  870MOL0     H19992   3.784   4.651  10.235  0.8021  1.1169 -1.1198
  870MOL0     H19993   4.062   4.504   9.908  0.3866 -0.9248 -0.1474
  870MOL0     H19994   4.061   4.428  10.075  0.1775  1.8132  1.7958
  870MOL0     H19995   4.289   4.512  10.040  0.9976  0.5762  1.3033
  870MOL0     H19996   4.220   4.668   9.989 -0.0907  2.0732  1.4586
  870MOL0     H19997   4.112   4.583  10.256 -0.7899  0.6000  0.1823
  870MOL0     H19998   4.281   4.591  10.255  0.5444 -2.0964 -3.2752
  870MOL0     H19999   4.287   4.826  10.194  0.0786  1.7247  3.0532
  870MOL0     H20000   4.116   4.830  10.151 -0.2759 -2.2117 -0.8367
  870MOL0     H20001   4.248   4.767  10.429  0.5050  0.3218  0.0143
  870MOL0     H20002   4.074   4.803  10.403 -0.4628  3.5122  0.3738
  870MOL0     H20003   4.289   5.000  10.334  0.5943  3.1841 -0.9287
  870MOL0     H20004   4.110   5.008  10.316  0.7649  1.3452 -0.2187
  870MOL0     H20005   4.266   5.036  10.578 -0.2027  0.0060  0.0155
  870MOL0     H20006   4.097   4.974  10.561 -0.6408 -0.1136 -1.7690
  870MOL0     H20007   4.032   5.183  10.469 -0.1570 -0.1070 -1.5819
  870MOL0     H20008   4.099   5.199  10.631  0.3657  1.8559 -1.1276
  870MOL0     H20009   4.182   5.283  10.276 -2.1941 -1.4715  2.4848
  870MOL0     H20010   4.298   5.488  10.164  2.9114 -0.9661 -0.4409
  870MOL0     H20011   4.439   5.554  10.248  0.2719 -0.0086 -0.4515
  870MOL0     H20012   4.278   5.705  10.375  0.6873 -1.1031  0.0659
  870MOL0     H20013   4.339   5.732  10.212 -1.1967 -1.3705 -1.6908
  870MOL0     H20014   4.119   5.797  10.195 -2.6345 -0.6435 -2.9866
  870MOL0     H20015   4.095   5.637  10.128  0.2617 -0.7482  0.0729
  870MOL0     H20016   4.005   5.564  10.366  2.6374 -0.8997  1.2592
  870MOL0     H20017   4.029   5.734  10.405  2.8085 -1.5655 -0.4981
  870MOL0     H20018   3.739   5.857  10.160 -0.6562  0.1009 -0.5377
  870MOL0     H20019   3.391   5.902  10.143 -0.6748  1.9336 -0.7966
  870MOL0     H20020   3.544   5.997  10.129  0.1539  0.1378  0.1252
  870MOL0     H20021   3.434   6.023  10.256 -2.3955 -0.8730 -2.1704
  870MOL0     H20022   3.105   5.826  10.179  2.1421  1.4981  0.7401
  870MOL0     H20023   2.843   5.791  10.228  0.0758  0.0118  0.2983
  870MOL0     H20024   2.683   5.892  10.645 -0.8331  2.5084 -0.1473
  870MOL0     H20025   2.660   6.000  10.513 -1.1235  0.0842 -0.8604
  870MOL0     H20026   2.461   5.822  10.450 -0.2470  0.9609  0.5462
  870MOL0     H20027   2.495   5.772  10.616 -2.6549  1.9075 -0.1915
  870MOL0     H20028   2.416   6.037  10.510 -1.1834  0.5739  0.3047
  870MOL0     H20029   2.470   5.999  10.680 -0.5933 -1.0850  0.7617
  870MOL0     H20030   2.298   5.829  10.686 -1.0635 -0.7658 -2.2441
  870MOL0     H20031   2.222   5.889  10.542 -0.2423  0.4991 -2.1199
  870MOL0     H20032   2.125   5.993  10.773  4.2948 -1.8881  3.1755
  870MOL0     H20033   2.275   6.084  10.768  0.3993 -2.7038  2.5731
  870MOL0     H20034   2.080   6.077  10.537 -0.0028  0.4781 -0.7719
  870MOL0     H20035   2.238   6.146  10.534 -1.6337  1.8753 -1.0034
  870MOL0     H20036   2.184   6.336  10.650  0.3687  1.1064 -0.0488
  870MOL0     H20037   2.086   6.227  10.761 -3.0207 -1.4494 -1.6287
  870MOL0     H20038   1.934   6.395  10.620  0.9104  0.9277 -1.5611
  870MOL0     H20039   1.897   6.225  10.637  2.9112 -0.0917  3.9925
  870MOL0     H20040   2.931   5.917  10.632 -1.4609  3.1033  0.4152
  870MOL0     H20041   3.161   5.938  10.579  2.3785  0.7638 -2.9150
  870MOL0     H20042   3.544   5.595  10.530 -3.1488  1.2216 -0.8258
  870MOL0     H20043   3.784   5.559  10.458 -1.8170 -2.6495 -0.9016
  870MOL0     H20044   3.859   4.504   9.850  0.6034 -2.3413  0.7393
  870MOL0     H20045   3.608   4.477   9.811 -0.3411  2.0240 -0.5962
  870MOL0     H20046   3.130   4.672  10.153  1.2590 -0.8435  1.3149
  870MOL0     H20047   2.890   4.578  10.197 -1.1497  0.2022 -1.7476
  870MOL0     H20048   2.746   4.192  10.018  1.0291  3.2941 -0.8002
  870MOL0     H20049   2.794   4.155  10.189  1.4140  0.3367 -1.2847
  870MOL0     H20050   2.556   4.332  10.108 -1.0203  3.3923  3.2182
  870MOL0     H20051   2.613   4.302  10.262  1.7629 -0.7497 -1.0923
  870MOL0     H20052   2.533   4.074  10.077  0.3821  3.0172 -1.4074
  870MOL0     H20053   2.565   4.054  10.246  1.3348 -0.0966 -1.3401
  870MOL0     H20054   2.340   4.116  10.302 -4.0375 -4.3674 -1.2377
  870MOL0     H20055   2.320   4.022  10.157  0.2704 -0.7222 -0.2665
  870MOL0     H20056   2.184   4.431  10.076 -0.5714 -0.4063 -0.3957
  870MOL0     H20057   3.000   4.223  10.003  3.6979 -2.3473  1.1802
  870MOL0     H20058   3.341   4.243  10.030 -0.9348 -0.3561  1.5390
  870MOL0     H20059   3.224   4.155   9.946  0.3523 -0.7749  2.3976
  870MOL0     H20060   3.293   4.291   9.861 -1.2569  2.3253  0.4620
  871MOL0     O20061   5.915   5.483   9.149  0.2699 -0.2474 -0.4481
  871MOL0     C20062   5.804   5.538   9.165 -0.5982  0.4878  0.0091
  871MOL0     O20063   5.773   5.656   9.109 -0.0909  0.1167 -0.1245
  871MOL0     C20064   5.850   5.698   9.003  0.1771 -0.2549 -1.0056
  871MOL0     C20065   5.866   5.612   8.896  0.3276 -0.3220  0.3027
  871MOL0     C20066   5.934   5.663   8.792  0.2473  0.1688 -0.3265
  871MOL0     C20067   5.993   5.792   8.790 -0.8183  0.3568  0.6555
  871MOL0     O20068   6.075   5.814   8.677 -0.2348 -0.0232  0.5631
  871MOL0     C20069   6.112   5.953   8.658 -0.8304  0.8185 -0.3364
  871MOL0     C20070   6.162   5.980   8.517  0.3093  0.6665 -0.2473
  871MOL0     C20071   6.027   6.039   8.437 -0.5488 -0.3946 -0.1192
  871MOL0     C20072   6.089   6.077   8.303 -0.7394 -0.6014  0.2645
  871MOL0     C20073   5.995   6.152   8.221  0.2256 -0.2910  0.0291
  871MOL0     C20074   6.058   6.241   8.112 -0.3133  0.0269 -0.0418
  871MOL0     C20075   5.957   6.340   8.070 -0.6603  0.2917 -0.5221
  871MOL0     C20076   5.999   6.417   7.949 -0.3487  0.1013  1.1478
  871MOL0     N20077   5.965   6.345   7.829  0.3661 -0.1984 -0.2562
  871MOL0     C20078   5.838   6.307   7.802 -0.5782 -0.2447  0.0332
  871MOL0     C20079   5.842   6.267   7.673  0.1009 -1.1231  0.2505
  871MOL0     C20080   5.730   6.224   7.581  0.2004  0.2257 -0.3246
  871MOL0     C20081   5.727   6.069   7.579 -0.5101 -0.5617  0.1951
  871MOL0     C20082   5.702   5.986   7.706 -0.2633  0.3022 -0.3082
  871MOL0     C20083   5.833   5.936   7.772  0.0650  0.0373  0.2394
  871MOL0     O20084   5.809   5.902   7.908 -0.3179  0.4041  0.2026
  871MOL0     C20085   5.918   5.849   7.982 -0.0092  0.1470  0.0605
  871MOL0     C20086   5.901   5.814   8.124 -0.0670  0.3147  0.6832
  871MOL0     C20087   6.000   5.744   8.195 -0.4810 -0.3954  0.0278
  871MOL0     C20088   5.962   5.691   8.333  0.1543  0.3245 -1.1358
  871MOL0     C20089   6.127   5.723   8.142 -0.1883  0.2056 -0.2348
  871MOL0     C20090   6.240   5.646   8.210 -0.4215  0.4294 -0.1474
  871MOL0     O20091   6.222   5.592   8.329 -0.6879  0.5779  0.1963
  871MOL0     C20092   6.314   5.500   8.364 -0.2222  0.0673 -1.6415
  871MOL0     C20093   6.438   5.542   8.418 -0.4825 -0.1350 -0.5606
  871MOL0     C20094   6.530   5.443   8.467  0.6106 -1.1953 -1.0146
  871MOL0     C20095   6.490   5.313   8.479 -0.7099 -0.3343 -0.0574
  871MOL0     O20096   6.570   5.211   8.531 -0.8304 -0.2901 -0.3987
  871MOL0     C20097   6.666   5.252   8.631 -0.5380 -0.6761 -0.0398
  871MOL0     C20098   6.739   5.133   8.681 -0.3698 -0.9804 -0.3023
  871MOL0     C20099   6.658   5.009   8.714 -0.6172  0.1494 -0.8004
  871MOL0     C20100   6.580   5.020   8.843  0.0424  0.1105 -0.2050
  871MOL0     C20101   6.491   4.900   8.881  1.4865  0.3811  0.5491
  871MOL0     C20102   6.360   4.888   8.802  0.1398  0.4113 -1.3545
  871MOL0     C20103   6.272   4.786   8.877  0.7460  0.5830  0.5475
  871MOL0     C20104   6.151   4.753   8.792 -0.3308  0.2807  0.4805
  871MOL0    Cl20105   6.025   4.688   8.896  0.3324 -0.0393  0.5690
  871MOL0     C20106   6.355   5.276   8.434  0.4831 -0.9113 -0.1302
  871MOL0     C20107   6.276   5.372   8.373  1.5411 -0.3883 -0.5453
  871MOL0     O20108   6.343   5.630   8.147  0.1445  0.6481 -0.2150
  871MOL0     C20109   6.144   5.773   8.011 -0.5071  0.1323  0.0365
  871MOL0     C20110   6.043   5.820   7.933 -0.2310  0.0529 -0.2329
  871MOL0     N20111   5.969   6.270   7.630 -0.4281 -0.0097 -0.0308
  871MOL0     N20112   6.045   6.312   7.728 -0.0479 -0.0140 -0.7381
  871MOL0     C20113   5.982   5.873   8.903 -0.1511 -0.4504  0.1962
  871MOL0     C20114   5.904   5.825   9.006  0.1728 -0.6741 -0.1339
  871MOL0     C20115   5.699   5.473   9.248  0.2454 -0.4018  0.9013
  871MOL0     C20116   5.711   5.335   9.285 -0.3141  0.7871  0.1249
  871MOL0     C20117   5.600   5.270   9.342 -0.2076 -0.0532  0.3796
  871MOL0     C20118   5.473   5.328   9.374 -0.1893 -0.1664  0.3250
  871MOL0     O20119   5.363   5.259   9.420 -0.2809  0.7175  0.0134
  871MOL0     C20120   5.386   5.185   9.541  0.3567  0.4260  0.3416
  871MOL0     C20121   5.297   5.231   9.657  0.1199 -0.3775 -0.4114
  871MOL0     C20122   5.143   5.227   9.627 -1.0830 -1.1476  0.7971
  871MOL0     C20123   5.073   5.093   9.623 -0.8193 -0.0734  0.7856
  871MOL0     C20124   5.084   5.006   9.745  0.4776  0.2124 -0.6629
  871MOL0     C20125   5.105   4.943   9.847  0.1067 -0.1766 -1.1341
  871MOL0     C20126   5.470   5.464   9.350 -0.6243 -1.2472 -0.4632
  871MOL0     C20127   5.581   5.533   9.292  0.3394  0.3499  1.0801
  871MOL0     C20128   5.551   5.680   9.268  1.0273 -0.1613 -0.2428
  871MOL0     H20129   5.825   5.512   8.885  3.1994 -1.7719  1.7870
  871MOL0     H20130   5.933   5.608   8.698 -0.3094  1.3008 -1.0149
  871MOL0     H20131   6.196   5.976   8.724 -2.3204  3.3553  0.8231
  871MOL0     H20132   6.039   6.029   8.687 -2.5348  0.9479 -4.3477
  871MOL0     H20133   6.246   6.049   8.513 -0.5262  1.8426  1.2589
  871MOL0     H20134   6.203   5.894   8.463 -0.3848  0.5064 -0.5263
  871MOL0     H20135   5.953   5.959   8.429 -0.0409 -0.8186 -0.6734
  871MOL0     H20136   5.990   6.118   8.502  0.7092 -0.4336  0.6931
  871MOL0     H20137   6.174   6.144   8.320 -2.4655  1.7254  0.0380
  871MOL0     H20138   6.129   5.997   8.240 -0.2151 -0.8565  0.9023
  871MOL0     H20139   5.948   6.220   8.292  0.6425 -1.1640  1.1715
  871MOL0     H20140   5.918   6.084   8.182 -0.3990  0.1461  0.4907
  871MOL0     H20141   6.146   6.291   8.155 -0.7205  2.3617 -1.7023
  871MOL0     H20142   6.082   6.176   8.028 -3.1595  0.7341 -1.5286
  871MOL0     H20143   5.961   6.425   8.139 -2.1881  1.3210 -1.6254
  871MOL0     H20144   5.856   6.301   8.053 -0.1335 -0.5566 -1.8776
  871MOL0     H20145   5.949   6.514   7.953 -1.9367 -0.7133  2.0031
  871MOL0     H20146   6.107   6.433   7.954 -0.7153  2.8923  1.6202
  871MOL0     H20147   5.745   6.330   7.853  0.7259  6.0468  0.2878
  871MOL0     H20148   5.756   6.251   7.478  0.5237  0.9057 -0.0703
  871MOL0     H20149   5.645   6.288   7.607  0.9801  0.5966  1.4617
  871MOL0     H20150   5.647   6.038   7.511 -0.7702  0.5478 -0.0319
  871MOL0     H20151   5.817   6.038   7.525 -1.7424 -1.6888 -1.3184
  871MOL0     H20152   5.653   6.043   7.786 -1.6713 -1.4804  0.1790
  871MOL0     H20153   5.632   5.904   7.690 -1.5576  0.5384  3.1738
  871MOL0     H20154   5.859   5.842   7.722 -0.7537 -0.9319  1.5391
  871MOL0     H20155   5.908   6.014   7.762  0.7007 -0.8285 -2.9690
  871MOL0     H20156   5.802   5.829   8.166 -1.6748 -0.8219 -2.4064
  871MOL0     H20157   6.028   5.736   8.407  0.9243 -0.3632 -1.3972
  871MOL0     H20158   5.967   5.582   8.339 -1.3700  0.1242 -2.6105
  871MOL0     H20159   5.866   5.720   8.377  1.6450 -0.0080  2.7140
  871MOL0     H20160   6.467   5.646   8.424 -0.8270 -0.0899  0.7673
  871MOL0     H20161   6.635   5.465   8.488 -0.3884  2.5028  0.8419
  871MOL0     H20162   6.737   5.313   8.574 -2.3439  0.7722 -0.8638
  871MOL0     H20163   6.615   5.314   8.705  2.3788  2.7743 -0.6580
  871MOL0     H20164   6.812   5.108   8.604  2.4100  0.9664  1.4848
  871MOL0     H20165   6.800   5.146   8.771 -0.2600 -4.9280  0.3962
  871MOL0     H20166   6.722   4.923   8.734 -2.1591 -1.8777 -3.7108
  871MOL0     H20167   6.584   4.975   8.641 -2.0406 -0.2768  0.7810
  871MOL0     H20168   6.514   5.106   8.827 -0.3540  0.0328  0.9782
  871MOL0     H20169   6.652   5.044   8.922 -0.1311 -0.8524  0.2585
  871MOL0     H20170   6.542   4.804   8.870 -1.0283 -0.9398 -0.2952
  871MOL0     H20171   6.456   4.920   8.983 -0.1155  0.0342  0.0921
  871MOL0     H20172   6.377   4.858   8.699 -2.3196 -0.0990 -1.6916
  871MOL0     H20173   6.294   4.975   8.794  0.3260  0.5263 -1.6333
  871MOL0     H20174   6.242   4.845   8.964  1.9262  3.4035 -0.8557
  871MOL0     H20175   6.329   4.698   8.909  2.3543  2.4193  3.1586
  871MOL0     H20176   6.173   4.674   8.719  2.3307  0.7409  0.6867
  871MOL0     H20177   6.105   4.839   8.741  0.6967  0.9911  0.7347
  871MOL0     H20178   6.305   5.183   8.458 -0.3594 -0.8364 -1.5036
  871MOL0     H20179   6.172   5.345   8.354  1.3024 -1.4126  1.8478
  871MOL0     H20180   6.243   5.751   7.973 -0.3607  0.0435  0.4599
  871MOL0     H20181   6.069   5.854   7.833  0.6311 -1.2567 -0.4732
  871MOL0     H20182   6.037   5.965   8.915  0.3549 -0.8292  0.8568
  871MOL0     H20183   5.878   5.886   9.091 -1.6344 -1.6508  0.0536
  871MOL0     H20184   5.807   5.286   9.278 -0.0043  1.3142  0.5427
  871MOL0     H20185   5.615   5.162   9.349 -0.4344  0.0046  2.3207
  871MOL0     H20186   5.351   5.082   9.533  0.3632  0.2424  2.2034
  871MOL0     H20187   5.489   5.195   9.578  0.5385  2.1492 -0.5123
  871MOL0     H20188   5.327   5.334   9.679  1.2008 -1.0698  1.6372
  871MOL0     H20189   5.325   5.170   9.744  4.2610  2.9830  1.0188
  871MOL0     H20190   5.096   5.289   9.704  0.9094  1.0216  0.3920
  871MOL0     H20191   5.147   5.284   9.533  1.7240 -2.0476  0.2666
  871MOL0     H20192   5.107   5.046   9.530  0.5852  3.4759 -0.6732
  871MOL0     H20193   4.971   5.117   9.595  0.8076  3.9142 -2.8633
  871MOL0     H20194   5.117   4.866   9.921  1.9495 -0.9064 -2.1289
  871MOL0     H20195   5.378   5.513   9.380 -0.1728 -0.6960  0.0544
  871MOL0     H20196   5.636   5.746   9.287  2.1312 -1.8585  0.9722
  871MOL0     H20197   5.495   5.703   9.176  1.4349  1.2809 -0.1524
  871MOL0     H20198   5.482   5.721   9.341  3.7491  1.8514  1.3757
  872MOL0     O20199   5.232   6.174   6.986  0.2602  0.3893  0.7099
  872MOL0     C20200   5.151   6.156   7.071  0.3984 -0.6880  0.0117
  872MOL0     O20201   5.164   6.200   7.200  0.0076 -0.3220 -0.6364
  872MOL0     C20202   5.282   6.263   7.241 -0.6172  0.6883  0.2644
  872MOL0     C20203   5.390   6.183   7.274 -0.4329  0.1297  0.6320
  872MOL0     C20204   5.509   6.243   7.311  0.0763 -1.1004  0.6337
  872MOL0     C20205   5.527   6.379   7.302 -0.1938  0.4262 -0.7012
  872MOL0     O20206   5.645   6.428   7.339 -1.0407  0.1451  0.9049
  872MOL0     C20207   5.674   6.565   7.333  0.4740 -0.9545 -0.6389
  872MOL0     C20208   5.808   6.596   7.401  0.3703  0.7202 -0.5366
  872MOL0     C20209   5.865   6.732   7.370 -0.6347 -0.1514 -0.1905
  872MOL0     C20210   5.988   6.765   7.453 -0.0634  0.3089  0.7651
  872MOL0     C20211   6.068   6.889   7.415  0.0760  0.5544  0.4832
  872MOL0     C20212   6.181   6.911   7.509  0.0941  1.0829 -0.5225
  872MOL0     C20213   6.268   7.028   7.483  0.1183  0.1840  0.4072
  872MOL0     C20214   6.395   7.030   7.570 -0.1736  0.5398 -1.0893
  872MOL0     N20215   6.461   7.158   7.569 -0.6809  0.2410  0.6539
  872MOL0     C20216   6.591   7.189   7.541  0.1909  0.0778 -0.6533
  872MOL0     C20217   6.602   7.318   7.565 -0.4069  0.0038 -0.7836
  872MOL0     C20218   6.727   7.397   7.588  0.6365 -0.6280  0.0060
  872MOL0     C20219   6.767   7.393   7.740  0.1824 -0.8966  0.1184
  872MOL0     C20220   6.879   7.484   7.776 -0.0577 -0.1417 -0.3121
  872MOL0     C20221   6.839   7.623   7.825 -0.1004  0.3045  0.3057
  872MOL0     O20222   6.949   7.706   7.860 -0.2942  0.9880  0.1893
  872MOL0     C20223   6.916   7.835   7.892 -1.1604  0.5751  0.9843
  872MOL0     C20224   7.014   7.930   7.864 -0.2886  0.0478 -0.6683
  872MOL0     C20225   7.005   8.052   7.924 -0.0212 -0.5973  0.2363
  872MOL0     C20226   7.122   8.137   7.929 -0.3685  0.6985 -0.3049
  872MOL0     C20227   6.884   8.092   7.989 -0.1433  0.3200 -0.9907
  872MOL0     C20228   6.860   8.230   8.041  0.7322 -0.0812  0.2621
  872MOL0     O20229   6.761   8.299   7.979 -0.1189  0.2709  0.6323
  872MOL0     C20230   6.731   8.416   8.040 -0.8824 -0.1607 -0.4043
  872MOL0     C20231   6.727   8.521   7.949 -0.1357 -0.2106 -0.0361
  872MOL0     C20232   6.712   8.655   7.983  0.8747  0.8541 -0.5042
  872MOL0     C20233   6.667   8.684   8.119 -0.6954  1.3840  0.4512
  872MOL0     O20234   6.638   8.817   8.147 -0.1269  0.8335  0.2508
  872MOL0     C20235   6.658   8.911   8.039  0.0571  0.6022  0.6916
  872MOL0     C20236   6.613   9.046   8.096  0.3632 -0.6936  0.7218
  872MOL0     C20237   6.607   9.153   7.997 -0.6782 -0.1480  0.9375
  872MOL0     C20238   6.607   9.288   8.077  0.4451  1.0859  0.0722
  872MOL0     C20239   6.741   9.353   8.094 -0.3153 -0.4625  0.3332
  872MOL0     C20240   6.793   9.408   7.960 -0.3915 -0.5536 -1.6393
  872MOL0     C20241   6.892   9.523   7.970 -0.3124 -0.6720  1.3259
  872MOL0     C20242   6.924   9.588   7.827 -0.0462 -0.5639  0.2484
  872MOL0    Cl20243   7.040   9.730   7.834  0.0783  0.5286 -0.1526
  872MOL0     C20244   6.659   8.576   8.208 -0.4521  0.2704  0.0185
  872MOL0     C20245   6.693   8.443   8.169  0.0292 -0.1781 -0.1861
  872MOL0     O20246   6.927   8.271   8.136 -0.5591  0.1056 -0.1574
  872MOL0     C20247   6.778   7.994   7.998  0.2525  0.6783 -0.6426
  872MOL0     C20248   6.797   7.860   7.962  0.8709 -0.0966  0.6512
  872MOL0     N20249   6.482   7.373   7.601  0.1150 -0.1261  0.0860
  872MOL0     N20250   6.412   7.266   7.623  1.1277 -0.7210 -0.0031
  872MOL0     C20251   5.416   6.459   7.262 -0.0498 -0.7599 -0.2762
  872MOL0     C20252   5.294   6.395   7.237 -0.4521 -0.0723  1.0440
  872MOL0     C20253   5.037   6.064   7.037  0.0964 -0.3975 -0.0518
  872MOL0     C20254   5.012   5.958   7.124 -0.3860  0.2805 -0.1986
  872MOL0     C20255   4.918   5.855   7.089  0.1323  0.1085  0.0861
  872MOL0     C20256   4.843   5.859   6.969  0.3778 -1.8753 -0.7127
  872MOL0     O20257   4.770   5.747   6.935  0.2478  0.1807  1.0730
  872MOL0     C20258   4.809   5.704   6.799 -0.7321 -0.1200 -0.6217
  872MOL0     C20259   4.762   5.559   6.781  0.8819  0.1582 -0.3598
  872MOL0     C20260   4.610   5.544   6.766 -0.0392 -0.6436  0.2640
  872MOL0     C20261   4.578   5.563   6.616  0.0589  0.2905  0.1915
  872MOL0     C20262   4.433   5.541   6.605 -0.2787 -0.1783 -0.1467
  872MOL0     C20263   4.318   5.502   6.599 -0.2280  1.0543 -0.5769
  872MOL0     C20264   4.877   5.968   6.887  0.9012 -0.2510  0.2371
  872MOL0     C20265   4.967   6.069   6.912 -0.1486 -0.2116  1.0807
  872MOL0     C20266   4.997   6.171   6.804  0.2553 -0.0537 -0.3606
  872MOL0     H20267   5.373   6.077   7.288 -0.5489  0.3477  2.3577
  872MOL0     H20268   5.594   6.182   7.337  0.3912 -1.0535 -0.2420
  872MOL0     H20269   5.608   6.621   7.400  2.2570 -2.3725  2.5760
  872MOL0     H20270   5.666   6.589   7.227  0.2846 -0.8227 -0.5943
  872MOL0     H20271   5.796   6.578   7.509  1.1718 -0.0657 -0.5643
  872MOL0     H20272   5.879   6.522   7.363 -0.3362 -0.2587 -0.0057
  872MOL0     H20273   5.876   6.751   7.263  1.6971 -2.8698 -0.5434
  872MOL0     H20274   5.792   6.802   7.413 -1.6982 -1.3695  0.0546
  872MOL0     H20275   5.966   6.789   7.558 -1.6756 -1.8662  1.0008
  872MOL0     H20276   6.049   6.674   7.446 -1.1105 -0.5770  2.4993
  872MOL0     H20277   6.015   6.984   7.408  1.6774  1.4914  0.6783
  872MOL0     H20278   6.111   6.861   7.318 -1.5094 -3.2998  0.6990
  872MOL0     H20279   6.148   6.925   7.612 -0.5117 -1.3202 -0.3319
  872MOL0     H20280   6.246   6.823   7.506  0.1783  0.9600  2.2130
  872MOL0     H20281   6.214   7.120   7.504 -0.6143 -0.4060  1.1871
  872MOL0     H20282   6.297   7.028   7.378  0.5001  0.7992  0.5089
  872MOL0     H20283   6.361   7.003   7.671  1.4006  1.6935 -0.1990
  872MOL0     H20284   6.465   6.952   7.537 -3.8236 -2.2028 -3.0757
  872MOL0     H20285   6.660   7.111   7.511 -1.8660 -2.3624  0.5291
  872MOL0     H20286   6.718   7.496   7.542  1.0667  0.2049  1.6043
  872MOL0     H20287   6.815   7.364   7.532 -0.4611 -4.3722  0.2547
  872MOL0     H20288   6.682   7.432   7.797  1.8194  2.2204  0.6071
  872MOL0     H20289   6.796   7.290   7.763  1.3789 -0.2994  1.4744
  872MOL0     H20290   6.938   7.436   7.854  1.1667  2.0656  0.2066
  872MOL0     H20291   6.943   7.498   7.688 -0.8205 -0.1156 -0.8690
  872MOL0     H20292   6.779   7.662   7.742  0.4009  0.5665  0.0604
  872MOL0     H20293   6.783   7.603   7.917  0.2253  0.3238  0.5119
  872MOL0     H20294   7.111   7.892   7.832 -0.8345 -2.1540  0.0876
  872MOL0     H20295   7.216   8.083   7.914 -0.8893 -0.1259 -0.6299
  872MOL0     H20296   7.127   8.200   8.018 -0.1237 -0.6894  0.6929
  872MOL0     H20297   7.121   8.196   7.837 -0.2445  2.0922  0.5610
  872MOL0     H20298   6.775   8.505   7.853  2.0485  1.1603  0.7458
  872MOL0     H20299   6.732   8.721   7.899  0.8860  0.6746 -0.6423
  872MOL0     H20300   6.765   8.922   8.019 -0.3662  0.2459 -2.2773
  872MOL0     H20301   6.598   8.886   7.951  0.6441  1.4498  0.0426
  872MOL0     H20302   6.508   9.038   8.123 -0.1399  1.6407 -0.2959
  872MOL0     H20303   6.675   9.076   8.181  0.3588 -0.3788  0.6138
  872MOL0     H20304   6.527   9.149   7.923  0.1924  0.4884 -0.0708
  872MOL0     H20305   6.703   9.145   7.945 -0.9955  2.7098 -0.2476
  872MOL0     H20306   6.569   9.268   8.177 -1.1688 -0.3487 -0.7888
  872MOL0     H20307   6.534   9.351   8.025 -1.3013  2.3492  3.7687
  872MOL0     H20308   6.734   9.439   8.162  2.0953  0.8447 -0.9427
  872MOL0     H20309   6.817   9.294   8.144  1.1566  0.8825 -0.2183
  872MOL0     H20310   6.699   9.434   7.910  0.4562  3.9653 -1.3803
  872MOL0     H20311   6.847   9.328   7.908 -1.2489  0.3913 -4.1746
  872MOL0     H20312   6.986   9.485   8.010  0.0723 -1.4471 -0.2215
  872MOL0     H20313   6.853   9.599   8.038 -0.2139 -0.6121  1.3147
  872MOL0     H20314   6.832   9.632   7.785  0.1511  0.8822  1.2671
  872MOL0     H20315   6.969   9.515   7.759 -0.2169  2.4550 -3.4241
  872MOL0     H20316   6.607   8.589   8.302  0.8712  1.8582  0.5786
  872MOL0     H20317   6.682   8.360   8.239  1.6221  0.9044  1.4386
  872MOL0     H20318   6.685   8.011   8.051  1.7537 -1.3221  3.0454
  872MOL0     H20319   6.735   7.777   7.997  1.4307 -0.5412  0.6048
  872MOL0     H20320   5.432   6.565   7.247  2.1621 -1.0890 -0.6040
  872MOL0     H20321   5.203   6.445   7.207 -0.2287 -1.1592 -1.6563
  872MOL0     H20322   5.081   5.944   7.206 -0.9800 -1.9822 -0.0347
  872MOL0     H20323   4.916   5.778   7.165  0.3899  1.0686  1.0968
  872MOL0     H20324   4.763   5.762   6.719  0.5679  0.5758 -0.8988
  872MOL0     H20325   4.919   5.705   6.795 -0.5761  2.2090  1.5880
  872MOL0     H20326   4.788   5.506   6.873 -1.6189  0.1741  0.4170
  872MOL0     H20327   4.813   5.513   6.695 -1.8769 -0.6878 -1.6457
  872MOL0     H20328   4.588   5.439   6.788  1.5394 -0.9486  0.5762
  872MOL0     H20329   4.551   5.605   6.834  0.9810 -0.3488  0.9175
  872MOL0     H20330   4.633   5.491   6.555  1.0656  1.6645 -0.5731
  872MOL0     H20331   4.609   5.660   6.576  1.1309 -0.4216 -0.7641
  872MOL0     H20332   4.227   5.446   6.593 -0.6168  1.4885  0.9084
  872MOL0     H20333   4.830   5.964   6.789  0.3509 -1.4443  0.5268
  872MOL0     H20334   4.913   6.180   6.735  0.2717  1.5786 -0.1962
  872MOL0     H20335   5.016   6.271   6.845 -1.1669 -0.8836  2.6445
  872MOL0     H20336   5.093   6.152   6.754  1.0942  2.4723  0.1273
  873MOL0     O20337   7.770   8.593   5.686  0.8355 -0.5598  0.7181
  873MOL0     C20338   7.789   8.685   5.767  0.8636  0.3770 -0.4045
  873MOL0     O20339   7.896   8.773   5.768 -0.0610 -0.1589  0.8513
  873MOL0     C20340   8.007   8.777   5.677 -0.1758 -0.6826  0.1602
  873MOL0     C20341   8.113   8.852   5.720  0.1121  0.3905  0.1729
  873MOL0     C20342   8.215   8.878   5.641  0.3305 -0.4375  0.3651
  873MOL0     C20343   8.228   8.828   5.506  0.4079 -0.1887  0.8673
  873MOL0     O20344   8.339   8.853   5.429 -0.1658  0.2555  0.5960
  873MOL0     C20345   8.460   8.808   5.477 -0.2571  0.6700  0.0248
  873MOL0     C20346   8.569   8.784   5.359  0.2359 -0.0845 -0.2105
  873MOL0     C20347   8.679   8.680   5.392  0.2001  0.3907 -0.4310
  873MOL0     C20348   8.635   8.527   5.381 -0.4033  0.8212  0.1743
  873MOL0     C20349   8.737   8.434   5.435  0.0495 -0.1811  0.0231
  873MOL0     C20350   8.690   8.293   5.440  0.2626 -0.0045 -0.0499
  873MOL0     C20351   8.807   8.194   5.469  0.4733  0.6039 -0.0124
  873MOL0     C20352   8.773   8.049   5.432  0.3281  0.2460 -1.1246
  873MOL0     N20353   8.901   7.981   5.447  0.4733 -0.1100 -0.0613
  873MOL0     C20354   8.965   7.989   5.567 -0.9013 -0.8651  0.1867
  873MOL0     C20355   9.082   7.928   5.536 -0.0562  0.2101 -0.2299
  873MOL0     C20356   9.201   7.911   5.627  0.4209 -0.4433  0.7657
  873MOL0     C20357   9.187   7.826   5.751  0.0628  0.6737  0.3398
  873MOL0     C20358   9.321   7.839   5.840  0.6308  0.1008 -0.4891
  873MOL0     C20359   9.300   7.754   5.966 -0.7920 -0.2778 -0.2870
  873MOL0     O20360   9.240   7.837   6.063 -0.6522  0.3895 -1.3108
  873MOL0     C20361   9.284   7.827   6.195 -0.4898  0.2264 -0.3613
  873MOL0     C20362   9.288   7.935   6.290  0.0202  0.3260 -0.2326
  873MOL0     C20363   9.336   7.929   6.417 -0.1124 -0.5371 -0.4673
  873MOL0     C20364   9.330   8.060   6.491  0.0079 -0.5382  0.5361
  873MOL0     C20365   9.391   7.809   6.459 -0.6001 -0.5847  0.0749
  873MOL0     C20366   9.441   7.782   6.598 -0.6471 -0.3425  0.2004
  873MOL0     O20367   9.493   7.657   6.623  0.2324 -0.3723 -0.0798
  873MOL0     C20368   9.576   7.634   6.734 -0.6865  0.0296 -0.6567
  873MOL0     C20369   9.667   7.736   6.776 -0.3091 -0.2410 -0.6206
  873MOL0     C20370   9.742   7.714   6.892 -0.0606  0.8457  0.0799
  873MOL0     C20371   9.724   7.600   6.979 -0.3551  1.0396 -0.5804
  873MOL0     O20372   9.791   7.592   7.103  0.5305  0.4327 -0.5769
  873MOL0     C20373   9.890   7.498   7.086 -0.8667 -0.3630  0.2632
  873MOL0     C20374  10.000   7.499   7.194  0.4767 -0.2571  1.0205
  873MOL0     C20375  10.104   7.379   7.174 -0.9287 -0.4801 -0.1617
  873MOL0     C20376  10.166   7.375   7.026 -0.3062 -0.3114 -0.0743
  873MOL0     C20377  10.290   7.283   7.028  0.0713 -0.2383  0.6041
  873MOL0     C20378  10.381   7.311   6.907 -0.0526 -0.3867 -0.1279
  873MOL0     C20379  10.298   7.282   6.777  0.0965 -0.2178 -0.2703
  873MOL0     C20380  10.263   7.131   6.761  0.4230 -0.3505 -0.1009
  873MOL0    Cl20381  10.216   7.116   6.585 -0.1424  0.0049 -0.2104
  873MOL0     C20382   9.644   7.487   6.927  0.1799  0.6828 -1.1799
  873MOL0     C20383   9.568   7.512   6.812  0.1968  0.3180 -0.4706
  873MOL0     O20384   9.428   7.863   6.683  0.3626  0.0454  0.2124
  873MOL0     C20385   9.384   7.694   6.373 -0.4821  0.2411  0.6275
  873MOL0     C20386   9.329   7.700   6.246 -0.0962 -0.3265  0.5028
  873MOL0     N20387   9.089   7.887   5.409  0.5515 -0.0857 -0.5989
  873MOL0     N20388   8.981   7.929   5.354 -0.3003 -0.8830  0.2608
  873MOL0     C20389   8.123   8.746   5.469 -0.3783  0.0790 -0.0622
  873MOL0     C20390   8.012   8.714   5.553 -0.0748  0.6551  0.0975
  873MOL0     C20391   7.688   8.713   5.873 -0.6066  0.5061  0.4879
  873MOL0     C20392   7.737   8.779   5.990  0.2334  0.4598  0.0988
  873MOL0     C20393   7.658   8.807   6.098 -0.5734  0.1564  0.4713
  873MOL0     C20394   7.529   8.760   6.103  0.0367  0.0184  0.6528
  873MOL0     O20395   7.445   8.785   6.206 -0.1545  0.0858 -0.5049
  873MOL0     C20396   7.474   8.895   6.299 -0.2262 -0.7508 -0.4833
  873MOL0     C20397   7.465   9.024   6.223  0.3968 -0.5973 -0.0420
  873MOL0     C20398   7.457   9.141   6.323  0.9324 -0.5058  0.1403
  873MOL0     C20399   7.379   9.253   6.261  0.3419  0.6946  0.4632
  873MOL0     C20400   7.474   9.346   6.198  0.1858 -1.3162  0.5734
  873MOL0     C20401   7.553   9.430   6.161 -0.0397 -0.1752 -0.4066
  873MOL0     C20402   7.473   8.703   5.988  0.4449  0.0878  0.5947
  873MOL0     C20403   7.553   8.674   5.874  0.0973  0.4657 -0.6013
  873MOL0     C20404   7.484   8.609   5.755 -0.1490  0.3038  0.9523
  873MOL0     H20405   8.108   8.899   5.817  0.3715  2.5259 -0.7885
  873MOL0     H20406   8.293   8.940   5.683  0.1569  1.6522 -2.1407
  873MOL0     H20407   8.448   8.707   5.515 -2.3426  0.6014 -0.7006
  873MOL0     H20408   8.506   8.867   5.557 -0.0328  2.3712 -1.2878
  873MOL0     H20409   8.526   8.742   5.267  0.3584 -1.6012  0.3961
  873MOL0     H20410   8.610   8.882   5.335 -2.5916  1.6285  1.3484
  873MOL0     H20411   8.766   8.690   5.327  0.1495  0.5550 -0.4751
  873MOL0     H20412   8.708   8.698   5.496  2.6339  1.0575 -1.1818
  873MOL0     H20413   8.550   8.525   5.451  0.9560  1.0060  1.8869
  873MOL0     H20414   8.613   8.520   5.274  2.5469  4.0086 -0.8444
  873MOL0     H20415   8.746   8.457   5.542 -1.4916  0.2576  0.0814
  873MOL0     H20416   8.833   8.450   5.385  1.4320 -3.5216  1.2916
  873MOL0     H20417   8.616   8.282   5.520  1.5263  2.2426  1.5547
  873MOL0     H20418   8.636   8.267   5.348  0.9787 -0.8308 -0.2457
  873MOL0     H20419   8.837   8.202   5.574  1.3059 -5.4267  0.5406
  873MOL0     H20420   8.895   8.206   5.405  1.1995  1.4876  1.1027
  873MOL0     H20421   8.693   8.007   5.494  1.8620  3.3532  3.5014
  873MOL0     H20422   8.731   8.046   5.331 -1.6369  0.4761 -0.3614
  873MOL0     H20423   8.937   8.032   5.662  0.6169 -0.9737  0.7123
  873MOL0     H20424   9.228   8.008   5.668  2.9554 -0.5612 -0.4093
  873MOL0     H20425   9.289   7.871   5.574 -1.4685 -2.8331 -0.7676
  873MOL0     H20426   9.101   7.856   5.811  1.6799  2.1543  2.0180
  873MOL0     H20427   9.183   7.719   5.728  0.4270  0.5413  0.8862
  873MOL0     H20428   9.405   7.799   5.782  0.0474 -1.0193 -0.5832
  873MOL0     H20429   9.332   7.946   5.861  1.9956 -0.2650  0.8417
  873MOL0     H20430   9.246   7.660   5.951 -0.7959 -0.3468  0.1317
  873MOL0     H20431   9.402   7.734   6.003  0.7885  3.4455 -2.1169
  873MOL0     H20432   9.234   8.026   6.267  0.0489  0.8631  1.6676
  873MOL0     H20433   9.266   8.044   6.578 -1.7385 -1.2054 -0.8026
  873MOL0     H20434   9.301   8.144   6.427  3.5823  1.4258  1.2436
  873MOL0     H20435   9.428   8.086   6.532 -0.2964  0.0314  0.9166
  873MOL0     H20436   9.680   7.827   6.718 -1.6809  1.2278  1.2638
  873MOL0     H20437   9.818   7.785   6.923  1.4878 -1.3549  1.6396
  873MOL0     H20438   9.848   7.398   7.093  1.1347 -1.2957 -0.2425
  873MOL0     H20439   9.944   7.513   6.991 -1.8285  0.7779 -0.1218
  873MOL0     H20440  10.066   7.586   7.194 -1.2758  1.1522  2.8439
  873MOL0     H20441   9.946   7.483   7.288 -1.8131  2.0517  0.2037
  873MOL0     H20442  10.051   7.286   7.200  0.6091 -0.9943  1.2933
  873MOL0     H20443  10.190   7.384   7.242  0.0822  0.0379 -1.4470
  873MOL0     H20444  10.190   7.478   6.997 -2.6993  0.3563  0.0697
  873MOL0     H20445  10.101   7.325   6.954  0.6392 -0.9152 -0.5264
  873MOL0     H20446  10.351   7.318   7.113  1.1029  3.0026 -1.3224
  873MOL0     H20447  10.261   7.178   7.046 -0.6577 -0.2559 -0.6065
  873MOL0     H20448  10.463   7.240   6.894 -0.1956 -0.2927 -1.7409
  873MOL0     H20449  10.426   7.411   6.907  1.6827 -1.1291 -0.7190
  873MOL0     H20450  10.364   7.320   6.698  2.1564  2.7513  2.6118
  873MOL0     H20451  10.207   7.342   6.778  0.3991  0.2738 -1.0530
  873MOL0     H20452  10.185   7.105   6.833  1.7825  0.9581  1.9558
  873MOL0     H20453  10.345   7.064   6.790 -0.2558  0.1320  3.4022
  873MOL0     H20454   9.637   7.393   6.980  1.2546  1.0886 -0.2678
  873MOL0     H20455   9.488   7.449   6.772 -1.1394  3.1525 -2.6109
  873MOL0     H20456   9.420   7.595   6.399  0.2666  0.5014  0.6020
  873MOL0     H20457   9.322   7.613   6.183  2.2591 -0.4024  0.2595
  873MOL0     H20458   8.129   8.700   5.371 -0.6066  1.0867 -0.5706
  873MOL0     H20459   7.934   8.654   5.509  1.1247 -1.4724  0.7359
  873MOL0     H20460   7.838   8.811   6.013  0.2352 -0.7703  1.9989
  873MOL0     H20461   7.695   8.862   6.184  1.0393 -1.0938  0.6252
  873MOL0     H20462   7.414   8.895   6.391 -0.8694 -2.1038 -0.8859
  873MOL0     H20463   7.573   8.894   6.345 -0.7440  2.3335  1.0171
  873MOL0     H20464   7.379   9.033   6.157  0.9398  1.5138 -0.5549
  873MOL0     H20465   7.552   9.038   6.159 -0.0772 -1.1392 -0.8194
  873MOL0     H20466   7.404   9.100   6.410 -0.2859 -2.2117 -1.3402
  873MOL0     H20467   7.562   9.166   6.345  0.8133  0.6812 -0.5926
  873MOL0     H20468   7.329   9.304   6.343 -2.9928 -0.9789 -0.3733
  873MOL0     H20469   7.300   9.225   6.190  1.1486  2.9678 -1.4874
  873MOL0     H20470   7.629   9.502   6.136 -1.5430  1.0573 -1.6628
  873MOL0     H20471   7.366   8.685   5.994  0.6444 -1.1859  0.5772
  873MOL0     H20472   7.525   8.654   5.664  1.5538 -2.0930  0.4291
  873MOL0     H20473   7.525   8.509   5.771 -1.0012  0.2754  3.2039
  873MOL0     H20474   7.375   8.610   5.753 -0.1543  1.1465  1.2990
  874MOL0     O20475   4.035   8.152   2.866 -0.3114 -0.0321 -0.5773
  874MOL0     C20476   4.130   8.199   2.801  0.2882  0.3302  0.7084
  874MOL0     O20477   4.203   8.307   2.842 -0.2897  0.3106 -0.1242
  874MOL0     C20478   4.232   8.309   2.978 -0.2044 -0.0116  0.7557
  874MOL0     C20479   4.224   8.441   3.033 -0.2429 -0.0913  0.4775
  874MOL0     C20480   4.276   8.469   3.161  0.5356 -0.2412 -0.2339
  874MOL0     C20481   4.326   8.368   3.244  0.2027 -0.7009  1.1768
  874MOL0     O20482   4.389   8.399   3.356 -0.2540  1.1516  0.2189
  874MOL0     C20483   4.530   8.355   3.367  1.4165  0.0440  0.2535
  874MOL0     C20484   4.585   8.428   3.483 -0.0443  0.0453 -0.3391
  874MOL0     C20485   4.738   8.437   3.453  0.9384  0.8192 -0.9328
  874MOL0     C20486   4.806   8.500   3.574  0.0535  0.5900 -0.0105
  874MOL0     C20487   4.959   8.462   3.583 -0.4722 -0.8077 -0.0701
  874MOL0     C20488   5.007   8.317   3.614 -0.1175 -0.4168 -0.6074
  874MOL0     C20489   4.918   8.237   3.706 -0.8022 -0.0953 -0.1880
  874MOL0     C20490   4.972   8.103   3.754 -0.0901 -0.4016 -0.0874
  874MOL0     N20491   4.859   8.022   3.812 -0.1416 -0.5673  0.3057
  874MOL0     C20492   4.831   8.002   3.944  1.0359  0.0303  0.4197
  874MOL0     C20493   4.720   7.922   3.937 -0.5120  0.2817  0.0287
  874MOL0     C20494   4.647   7.871   4.054 -0.0646  0.1744 -0.2340
  874MOL0     C20495   4.649   7.717   4.070  0.3617  0.3942 -0.5640
  874MOL0     C20496   4.788   7.653   4.084 -0.2312  0.5931  0.1690
  874MOL0     C20497   4.769   7.500   4.106  0.8774 -0.1480  0.0852
  874MOL0     O20498   4.878   7.431   4.150  0.1513  0.1704 -1.1353
  874MOL0     C20499   4.865   7.296   4.157 -0.9832 -0.3365  0.1210
  874MOL0     C20500   4.751   7.227   4.122 -0.2122 -0.9202 -0.3768
  874MOL0     C20501   4.743   7.092   4.151  0.7658  0.0400 -1.2942
  874MOL0     C20502   4.609   7.039   4.107 -0.1566  0.4485  1.0826
  874MOL0     C20503   4.837   7.025   4.222  0.1687  0.3955  0.2195
  874MOL0     C20504   4.819   6.882   4.275  0.7814 -0.2799 -0.3563
  874MOL0     O20505   4.889   6.859   4.390  0.3990  0.0798 -0.2567
  874MOL0     C20506   4.907   6.733   4.432  0.2936 -0.4612  0.3771
  874MOL0     C20507   4.965   6.632   4.350  0.0514  0.5899 -0.3385
  874MOL0     C20508   4.990   6.507   4.414  1.2263  0.4718  1.4200
  874MOL0     C20509   4.939   6.480   4.542  0.3472 -0.3251  1.5192
  874MOL0     O20510   4.978   6.367   4.603 -0.0944 -0.1740 -0.7146
  874MOL0     C20511   4.919   6.343   4.735  0.2104 -0.7865  0.1389
  874MOL0     C20512   4.970   6.209   4.786 -0.4427 -0.5210 -0.3918
  874MOL0     C20513   4.882   6.146   4.893 -0.0608  0.3842 -0.2556
  874MOL0     C20514   4.930   6.188   5.037 -0.0493  0.4364  0.3454
  874MOL0     C20515   5.051   6.104   5.083  0.2761  0.1381 -0.1378
  874MOL0     C20516   5.128   6.166   5.198 -0.8948  0.0490 -0.0886
  874MOL0     C20517   5.038   6.167   5.323 -0.4499 -0.4069 -0.1317
  874MOL0     C20518   5.075   6.296   5.407  0.5405 -0.4526 -0.3079
  874MOL0    Cl20519   5.248   6.338   5.434  0.1242  0.1471  0.2287
  874MOL0     C20520   4.860   6.585   4.607 -0.6452  0.3893 -0.5240
  874MOL0     C20521   4.841   6.709   4.554 -0.9001  0.9316  0.0957
  874MOL0     O20522   4.749   6.801   4.213  0.4035 -0.7379 -0.1623
  874MOL0     C20523   4.956   7.102   4.254  0.1216  0.2003  0.5405
  874MOL0     C20524   4.970   7.231   4.219 -0.4661  0.0950  0.5635
  874MOL0     N20525   4.689   7.897   3.804 -0.1043 -0.7608 -0.0079
  874MOL0     N20526   4.771   7.956   3.734 -0.9331 -0.6236 -0.2222
  874MOL0     C20527   4.324   8.238   3.191  0.7770  0.1646  1.3222
  874MOL0     C20528   4.277   8.201   3.060  0.5071  0.4047 -0.8268
  874MOL0     C20529   4.162   8.150   2.661 -0.2264  0.3293 -1.0532
  874MOL0     C20530   4.080   8.042   2.611  0.0825 -0.1422  0.2534
  874MOL0     C20531   4.104   7.990   2.485  0.2697  0.2066  0.4933
  874MOL0     C20532   4.203   8.046   2.401 -0.9108  0.1832  0.5575
  874MOL0     O20533   4.242   8.005   2.279  0.2775  0.5573  0.6214
  874MOL0     C20534   4.178   7.890   2.224 -0.1119  0.3556  0.4013
  874MOL0     C20535   4.219   7.885   2.071  0.4852  0.2616 -0.1202
  874MOL0     C20536   4.357   7.823   2.062  0.5671  0.4875 -0.6052
  874MOL0     C20537   4.389   7.795   1.916 -0.5553  0.5740 -0.2396
  874MOL0     C20538   4.517   7.725   1.902  0.2083 -0.0651 -0.4870
  874MOL0     C20539   4.626   7.677   1.889 -0.5180  0.7543  0.5550
  874MOL0     C20540   4.286   8.144   2.452  0.2142  0.2297 -0.2737
  874MOL0     C20541   4.270   8.190   2.582  1.3930  0.0637 -0.6899
  874MOL0     C20542   4.385   8.281   2.622 -0.2780  0.0604  0.1584
  874MOL0     H20543   4.196   8.534   2.985  1.2480  0.5514  0.8100
  874MOL0     H20544   4.271   8.565   3.209  1.6968 -0.8074  1.0708
  874MOL0     H20545   4.583   8.385   3.276  0.5740  0.6326 -0.0509
  874MOL0     H20546   4.529   8.249   3.397 -1.3807  0.1064  0.6770
  874MOL0     H20547   4.537   8.525   3.503  0.7601  0.3708  0.0607
  874MOL0     H20548   4.568   8.369   3.573  1.2389 -4.0695 -2.5569
  874MOL0     H20549   4.778   8.338   3.431  2.2900  1.4795 -1.5630
  874MOL0     H20550   4.767   8.505   3.373 -2.6523  4.3929  0.4631
  874MOL0     H20551   4.798   8.609   3.570 -0.8962  0.5317  0.0823
  874MOL0     H20552   4.761   8.471   3.669 -1.7669 -2.3010 -1.6152
  874MOL0     H20553   5.004   8.524   3.662 -1.8370  1.3984 -0.9391
  874MOL0     H20554   5.011   8.490   3.491  0.9916  1.4196  1.3313
  874MOL0     H20555   5.013   8.259   3.521  2.0580 -0.4728 -0.4674
  874MOL0     H20556   5.104   8.314   3.665 -1.0736 -2.2653  1.2636
  874MOL0     H20557   4.828   8.219   3.646 -1.3351 -1.0301  0.8484
  874MOL0     H20558   4.893   8.307   3.787  1.4806  0.6702 -0.0791
  874MOL0     H20559   5.026   8.052   3.674  0.0018  1.2145 -1.1182
  874MOL0     H20560   5.046   8.118   3.833 -0.1130 -1.4153  0.1419
  874MOL0     H20561   4.883   8.047   4.028  2.7214  1.4713 -1.3073
  874MOL0     H20562   4.547   7.910   4.035  0.5293  1.5016 -0.8035
  874MOL0     H20563   4.688   7.916   4.145  1.1925  0.1612 -0.7738
  874MOL0     H20564   4.577   7.683   4.146  0.1228 -1.0543 -1.3933
  874MOL0     H20565   4.609   7.673   3.978 -1.1044 -1.3308  0.8096
  874MOL0     H20566   4.846   7.678   3.995 -2.3318 -2.8308 -2.4478
  874MOL0     H20567   4.844   7.691   4.169  0.2647 -1.8416  1.0022
  874MOL0     H20568   4.676   7.491   4.163 -1.2321 -2.2785 -3.3371
  874MOL0     H20569   4.737   7.464   4.008  0.5784 -0.2135  0.2048
  874MOL0     H20570   4.668   7.281   4.077 -0.6208  1.7069  3.1398
  874MOL0     H20571   4.614   6.977   4.016  0.1214 -1.9822  2.6580
  874MOL0     H20572   4.539   7.121   4.092  0.0619  0.3608 -0.6428
  874MOL0     H20573   4.569   6.970   4.182 -1.8102 -2.8684 -2.5120
  874MOL0     H20574   5.010   6.652   4.253  0.6553 -2.2960 -0.7679
  874MOL0     H20575   5.040   6.423   4.367 -0.2131 -0.1378  0.9375
  874MOL0     H20576   4.969   6.417   4.798  1.4329 -1.8984  0.5382
  874MOL0     H20577   4.810   6.348   4.730  0.3186  1.4473 -1.1797
  874MOL0     H20578   4.968   6.144   4.698  1.8383  2.7790 -3.1801
  874MOL0     H20579   5.070   6.221   4.829  0.4192 -1.5375 -2.0075
  874MOL0     H20580   4.867   6.039   4.873 -1.6115  1.0058 -2.8784
  874MOL0     H20581   4.782   6.185   4.875  0.4989  1.7181 -0.5643
  874MOL0     H20582   4.850   6.181   5.111  1.8086  0.4419  2.4592
  874MOL0     H20583   4.960   6.293   5.037  1.5785 -0.0045  1.2092
  874MOL0     H20584   5.024   6.001   5.106  0.5510 -0.0725 -0.7413
  874MOL0     H20585   5.116   6.102   4.995  0.9828 -1.4560  0.3738
  874MOL0     H20586   5.153   6.269   5.169  1.5290  0.2113  2.1655
  874MOL0     H20587   5.221   6.113   5.220 -0.2404  1.1066 -0.1906
  874MOL0     H20588   5.049   6.064   5.359 -2.6811 -1.0693 -1.1812
  874MOL0     H20589   4.932   6.176   5.300 -0.5708  2.7012  1.1197
  874MOL0     H20590   5.033   6.289   5.508 -2.4409  2.7507 -1.1763
  874MOL0     H20591   5.016   6.378   5.366 -2.3528 -2.3471 -0.1972
  874MOL0     H20592   4.831   6.575   4.711 -0.6431  0.9790 -0.4628
  874MOL0     H20593   4.785   6.781   4.613 -1.7255  0.0024  0.4744
  874MOL0     H20594   5.043   7.056   4.300  1.1002 -1.2262 -2.4880
  874MOL0     H20595   5.062   7.282   4.245  0.7287  0.0562 -3.0029
  874MOL0     H20596   4.372   8.155   3.242  0.3003 -2.1386 -1.6900
  874MOL0     H20597   4.306   8.102   3.024 -0.3150 -0.9396  1.9357
  874MOL0     H20598   3.990   8.013   2.665 -1.2159  1.1185 -1.1311
  874MOL0     H20599   4.040   7.910   2.451 -0.6348  1.2815 -0.4129
  874MOL0     H20600   4.207   7.794   2.267 -1.9126 -1.3470 -1.9003
  874MOL0     H20601   4.071   7.911   2.229  0.0433  1.1088  0.6239
  874MOL0     H20602   4.216   7.986   2.031  0.4135  1.4785  2.6984
  874MOL0     H20603   4.149   7.823   2.014 -0.2039 -1.6001  2.5581
  874MOL0     H20604   4.441   7.882   2.101 -0.7887  1.1182  1.5229
  874MOL0     H20605   4.359   7.730   2.120  1.2376  1.0325  0.2839
  874MOL0     H20606   4.396   7.888   1.858 -1.2381  0.8313  0.0823
  874MOL0     H20607   4.312   7.731   1.872  0.2518 -1.7169  1.4612
  874MOL0     H20608   4.717   7.622   1.884 -2.3629 -2.6959  1.7370
  874MOL0     H20609   4.373   8.169   2.392  0.1100 -0.4487 -0.7112
  874MOL0     H20610   4.416   8.258   2.725  0.3480  1.6771  0.3617
  874MOL0     H20611   4.474   8.275   2.559 -1.1652 -1.4815 -1.0205
  874MOL0     H20612   4.345   8.382   2.612 -2.0619 -0.7582 -1.6293
  875MOL0     O20613  10.057  11.200   3.933 -0.0694  0.0442  0.9348
  875MOL0     C20614  10.062  11.078   3.916  0.1168 -0.4495 -0.3340
  875MOL0     O20615  10.162  11.013   3.857  0.0389 -0.6653 -0.1751
  875MOL0     C20616  10.259  11.097   3.785  0.4037  0.8114  0.5438
  875MOL0     C20617  10.391  11.110   3.824  0.5091  0.4708 -0.8861
  875MOL0     C20618  10.493  11.137   3.729  0.4132  0.6282  0.3905
  875MOL0     C20619  10.459  11.170   3.597  0.3863  0.1640  0.3167
  875MOL0     O20620  10.540  11.206   3.489  0.3934 -0.8820 -0.4491
  875MOL0     C20621  10.679  11.188   3.506  0.0297  0.1406  0.6380
  875MOL0     C20622  10.758  11.220   3.374  0.1642 -1.0423 -0.1145
  875MOL0     C20623  10.742  11.109   3.272  0.3250  0.0989 -0.7136
  875MOL0     C20624  10.882  11.040   3.242  0.5615  0.0875  0.2561
  875MOL0     C20625  10.856  10.913   3.156 -0.5029  0.2701  0.3071
  875MOL0     C20626  10.769  10.796   3.224 -1.0160 -0.4378  0.0928
  875MOL0     C20627  10.762  10.673   3.127  0.1647 -0.2268 -0.2478
  875MOL0     C20628  10.667  10.561   3.173 -0.4555 -0.0070  0.2338
  875MOL0     N20629  10.737  10.480   3.280 -0.2064 -0.2347  0.0538
  875MOL0     C20630  10.753  10.507   3.411  0.0287  0.1220 -0.1146
  875MOL0     C20631  10.841  10.408   3.456  0.8076 -0.3402  0.2428
  875MOL0     C20632  10.886  10.405   3.603 -0.8134 -0.0766 -0.2421
  875MOL0     C20633  10.943  10.267   3.636 -0.2743  0.0985  0.3830
  875MOL0     C20634  10.910  10.238   3.785 -0.2147 -0.4586  0.9284
  875MOL0     C20635  10.931  10.092   3.816 -0.6404  0.5619  0.2999
  875MOL0     O20636  11.061  10.049   3.785  0.4209 -0.2940  0.5511
  875MOL0     C20637  11.118   9.973   3.882  0.6293 -0.3147 -0.0130
  875MOL0     C20638  11.146   9.840   3.863  0.4934  0.2542  0.7309
  875MOL0     C20639  11.208   9.759   3.957  0.9263 -0.0454  0.9038
  875MOL0     C20640  11.231   9.616   3.919  0.1373  0.3421 -0.2543
  875MOL0     C20641  11.250   9.817   4.085  0.3215 -0.2953 -0.0345
  875MOL0     C20642  11.325   9.739   4.188  0.0412  0.2363 -0.2104
  875MOL0     O20643  11.304   9.773   4.315  0.1046  0.2567 -0.6049
  875MOL0     C20644  11.370   9.705   4.413  0.0681  0.5545  0.1502
  875MOL0     C20645  11.298   9.616   4.504  0.0652 -0.8249  0.1740
  875MOL0     C20646  11.363   9.569   4.617  0.4359 -0.0282  0.6101
  875MOL0     C20647  11.501   9.597   4.645  1.2469  0.0082 -0.2718
  875MOL0     O20648  11.557   9.541   4.758 -0.2671  0.6820  0.5593
  875MOL0     C20649  11.635   9.628   4.831 -0.0180  0.8098 -0.2086
  875MOL0     C20650  11.653   9.580   4.972  0.7956  0.3137  0.4901
  875MOL0     C20651  11.529   9.523   5.034 -0.6483  0.3817 -0.0842
  875MOL0     C20652  11.409   9.624   5.023 -0.7949  0.2003 -0.4360
  875MOL0     C20653  11.288   9.547   5.072 -0.5986  0.2811  0.9803
  875MOL0     C20654  11.155   9.615   5.028 -0.2745  0.1780  0.8158
  875MOL0     C20655  11.035   9.542   5.079  0.4767 -0.2440 -0.4853
  875MOL0     C20656  11.022   9.400   5.016 -0.0981 -0.3464 -0.0308
  875MOL0    Cl20657  10.857   9.345   4.998  0.1581 -0.9567  0.4061
  875MOL0     C20658  11.576   9.677   4.553 -0.0232  1.0557  0.2322
  875MOL0     C20659  11.509   9.734   4.444 -0.1673  1.1532  0.5016
  875MOL0     O20660  11.403   9.658   4.145  0.1044 -0.2738  0.4353
  875MOL0     C20661  11.222   9.957   4.106 -0.8312  0.5151 -0.1891
  875MOL0     C20662  11.166  10.030   4.007 -0.3059  0.4216  0.2945
  875MOL0     N20663  10.889  10.340   3.348 -0.5056  0.2626  0.3847
  875MOL0     N20664  10.827  10.382   3.248  0.5804 -0.6641 -0.1025
  875MOL0     C20665  10.325  11.163   3.555 -0.1010 -0.1400 -0.2576
  875MOL0     C20666  10.227  11.124   3.646  0.1466  0.7882 -0.1496
  875MOL0     C20667   9.956  10.990   3.979  0.2850 -0.5834  0.3659
  875MOL0     C20668   9.826  11.042   4.001  0.0519 -0.7462  0.3990
  875MOL0     C20669   9.721  10.967   4.044 -0.1008  0.3588 -0.1492
  875MOL0     C20670   9.740  10.833   4.075 -0.5496 -0.0893 -0.1892
  875MOL0     O20671   9.631  10.758   4.115  0.3569 -0.7073  0.1186
  875MOL0     C20672   9.646  10.665   4.223  0.0693 -0.6789 -0.1092
  875MOL0     C20673   9.513  10.666   4.306  0.4438  0.0406  0.1315
  875MOL0     C20674   9.513  10.767   4.418  0.0073 -0.1929  0.7145
  875MOL0     C20675   9.370  10.815   4.463 -0.1855 -0.0382 -0.9047
  875MOL0     C20676   9.323  10.899   4.362  0.2358  1.0721  0.0078
  875MOL0     C20677   9.266  10.949   4.268  0.2096  1.3520 -0.1799
  875MOL0     C20678   9.874  10.783   4.070  0.8085 -0.1082  0.5289
  875MOL0     C20679   9.985  10.860   4.027  0.0014 -0.0713  0.4085
  875MOL0     C20680  10.125  10.797   4.047 -0.1473 -0.0532  0.2124
  875MOL0     H20681  10.426  11.079   3.922  0.7141  1.2677 -0.6979
  875MOL0     H20682  10.596  11.134   3.762 -0.7861  2.4838  4.9985
  875MOL0     H20683  10.710  11.093   3.552 -0.6164  0.4482  1.7505
  875MOL0     H20684  10.713  11.255   3.586  1.4396  0.5166 -0.2410
  875MOL0     H20685  10.728  11.318   3.337  2.8514  0.7545  2.0259
  875MOL0     H20686  10.865  11.234   3.393 -0.5095 -0.0921  4.0712
  875MOL0     H20687  10.671  11.038   3.316  0.0302 -1.0937 -2.9791
  875MOL0     H20688  10.698  11.139   3.177  1.1682 -1.1518 -1.5186
  875MOL0     H20689  10.951  11.109   3.193  0.8497  0.1851  0.7924
  875MOL0     H20690  10.923  10.992   3.332 -1.0773  0.0780  1.0424
  875MOL0     H20691  10.954  10.870   3.130 -0.9358 -0.7511  0.3208
  875MOL0     H20692  10.815  10.955   3.064 -2.6711 -0.1695  1.0295
  875MOL0     H20693  10.804  10.768   3.324 -2.6113 -1.7622  0.3362
  875MOL0     H20694  10.676  10.847   3.250 -0.4548 -0.2160  1.8109
  875MOL0     H20695  10.862  10.633   3.110  0.6648 -0.8147  3.3260
  875MOL0     H20696  10.724  10.718   3.034  0.8206 -1.3889 -1.1033
  875MOL0     H20697  10.580  10.614   3.211  0.9102  2.8329 -0.3232
  875MOL0     H20698  10.646  10.492   3.090  0.7227 -0.1827  0.0590
  875MOL0     H20699  10.707  10.593   3.460  1.8997  0.3911  1.2987
  875MOL0     H20700  10.790  10.405   3.656 -0.7540 -4.1953  0.2364
  875MOL0     H20701  10.949  10.490   3.628  0.0561 -0.4361 -1.1520
  875MOL0     H20702  10.910  10.184   3.573  0.0151  1.2676 -1.3583
  875MOL0     H20703  11.052  10.280   3.628  0.1065 -2.9257 -1.0469
  875MOL0     H20704  10.967  10.300   3.854  1.2509 -1.3624  0.5699
  875MOL0     H20705  10.806  10.267   3.804  0.7453  2.9449  1.6112
  875MOL0     H20706  10.902  10.076   3.920 -1.9303  0.6339 -0.0210
  875MOL0     H20707  10.863  10.032   3.754  3.5778 -1.3278 -2.9669
  875MOL0     H20708  11.114   9.793   3.771  2.7234  0.2338 -0.0820
  875MOL0     H20709  11.207   9.550   4.002  1.1247  4.5651  3.8304
  875MOL0     H20710  11.336   9.593   3.897  0.0398 -1.0629  0.6056
  875MOL0     H20711  11.167   9.577   3.840 -0.3011 -0.0106  0.2686
  875MOL0     H20712  11.192   9.594   4.492 -0.5867  2.2842 -0.4679
  875MOL0     H20713  11.315   9.514   4.698  1.0900 -1.6742 -0.0732
  875MOL0     H20714  11.737   9.639   4.791  0.6999  2.0570  1.7962
  875MOL0     H20715  11.580   9.723   4.834 -1.4924 -0.0604  1.4665
  875MOL0     H20716  11.733   9.507   4.961  0.7708  0.3250  0.2263
  875MOL0     H20717  11.691   9.657   5.040  2.1816  0.7108 -0.6881
  875MOL0     H20718  11.547   9.493   5.137 -1.3890  2.9880  0.8704
  875MOL0     H20719  11.499   9.425   4.994 -0.2972 -0.2318  1.1071
  875MOL0     H20720  11.389   9.651   4.919 -2.8684  1.6217  0.2555
  875MOL0     H20721  11.435   9.704   5.093  1.7649 -1.9834  1.2922
  875MOL0     H20722  11.294   9.450   5.022  1.0395 -0.0908  1.7991
  875MOL0     H20723  11.304   9.528   5.179 -1.3677  0.5617  1.1523
  875MOL0     H20724  11.157   9.611   4.919 -0.1127  2.0708  0.7111
  875MOL0     H20725  11.155   9.722   5.049  1.1725  0.3978 -0.1139
  875MOL0     H20726  10.943   9.590   5.043 -1.0601 -1.4552  1.6266
  875MOL0     H20727  11.026   9.534   5.188 -1.3161 -0.6944 -0.6354
  875MOL0     H20728  11.082   9.329   5.073  2.7197  1.0996 -1.0316
  875MOL0     H20729  11.049   9.395   4.910 -0.1894  1.5250 -0.1657
  875MOL0     H20730  11.682   9.701   4.555  0.7064 -1.8361  2.3755
  875MOL0     H20731  11.577   9.787   4.378 -0.1971 -3.7489 -4.1233
  875MOL0     H20732  11.236  10.010   4.200 -2.1489 -1.1596  1.0339
  875MOL0     H20733  11.133  10.132   4.022  0.9672  0.9634 -0.4076
  875MOL0     H20734  10.295  11.207   3.460 -2.6983  0.0604  0.5829
  875MOL0     H20735  10.126  11.108   3.609 -0.1891 -0.6471  1.2810
  875MOL0     H20736   9.807  11.148   3.988 -0.0004 -0.5707  1.7286
  875MOL0     H20737   9.624  11.004   4.076 -0.1412  0.2298 -0.1204
  875MOL0     H20738   9.664  10.565   4.182 -0.3622 -0.7550 -0.1283
  875MOL0     H20739   9.740  10.680   4.277  1.4194  2.5824 -2.9843
  875MOL0     H20740   9.499  10.564   4.341  2.9903 -0.8137 -1.0924
  875MOL0     H20741   9.420  10.677   4.249 -0.6330 -1.8115  1.4393
  875MOL0     H20742   9.558  10.718   4.505  1.7142  0.5138  0.2568
  875MOL0     H20743   9.578  10.850   4.391  0.0112 -0.9612 -1.8843
  875MOL0     H20744   9.386  10.865   4.560  2.4040 -1.4580 -0.5285
  875MOL0     H20745   9.291  10.742   4.480 -1.5936  1.1694 -2.0062
  875MOL0     H20746   9.223  10.983   4.176 -3.2997 -4.8777 -1.3523
  875MOL0     H20747   9.887  10.682   4.108 -0.4668  0.0783  1.5310
  875MOL0     H20748  10.175  10.767   3.954 -0.5783  0.3759 -0.1591
  875MOL0     H20749  10.190  10.872   4.093  1.2218 -0.3736 -1.1114
  875MOL0     H20750  10.122  10.702   4.101  1.2134 -1.1961 -1.5806
  876MOL0     O20751   7.874   8.054   5.348  0.1939 -0.1376  0.4448
  876MOL0     C20752   7.793   8.000   5.422  0.5323 -0.2886 -0.1145
  876MOL0     O20753   7.792   7.870   5.457  0.3655 -0.3843  0.0696
  876MOL0     C20754   7.892   7.784   5.419  0.4346 -0.1223 -0.0513
  876MOL0     C20755   7.985   7.732   5.509  0.0956  0.1701  0.1212
  876MOL0     C20756   8.084   7.637   5.472  1.1736 -0.7491 -0.1765
  876MOL0     C20757   8.075   7.585   5.334 -0.7800  0.5561 -0.0280
  876MOL0     O20758   8.152   7.493   5.268  0.7177 -0.0282  0.2723
  876MOL0     C20759   8.249   7.407   5.319  0.6525  0.4422 -0.0311
  876MOL0     C20760   8.328   7.333   5.208  0.2972  0.1307 -0.5653
  876MOL0     C20761   8.249   7.246   5.118  0.9185 -0.3048  0.1317
  876MOL0     C20762   8.348   7.178   5.026  0.4846 -0.1050  0.2509
  876MOL0     C20763   8.270   7.085   4.925 -0.4529  0.3973 -0.0577
  876MOL0     C20764   8.262   6.942   4.978  0.0042 -0.3427 -0.2253
  876MOL0     C20765   8.186   6.855   4.870 -0.3107 -0.3079 -0.4252
  876MOL0     C20766   8.303   6.781   4.795  0.2089  1.2379  0.2313
  876MOL0     N20767   8.249   6.672   4.707 -0.7322  0.2376 -0.3306
  876MOL0     C20768   8.316   6.619   4.598  0.7264 -0.0187 -0.2865
  876MOL0     C20769   8.225   6.535   4.546 -0.6858  0.0223  0.3620
  876MOL0     C20770   8.248   6.430   4.443  0.1739 -0.1329  0.3376
  876MOL0     C20771   8.281   6.507   4.311 -0.1197 -0.1025 -0.7090
  876MOL0     C20772   8.430   6.515   4.283  0.3095  0.2034  0.2077
  876MOL0     C20773   8.492   6.375   4.249  0.3184 -0.7411  0.2676
  876MOL0     O20774   8.640   6.368   4.263  0.1986 -0.4505  0.0641
  876MOL0     C20775   8.708   6.330   4.151 -0.0766  0.3083 -0.1196
  876MOL0     C20776   8.823   6.263   4.179  0.0920  0.5687 -0.2242
  876MOL0     C20777   8.905   6.218   4.084 -0.4888 -0.1053  0.4150
  876MOL0     C20778   9.025   6.146   4.142 -0.3934  0.8364 -0.4017
  876MOL0     C20779   8.878   6.239   3.949  0.0722  0.1748 -0.8399
  876MOL0     C20780   8.961   6.185   3.837 -1.0856 -0.1459  1.2392
  876MOL0     O20781   9.083   6.142   3.868  0.0101  0.0646  1.2575
  876MOL0     C20782   9.169   6.074   3.782  0.0057 -0.7023 -0.4574
  876MOL0     C20783   9.122   5.973   3.697 -0.0683 -0.3289  0.2020
  876MOL0     C20784   9.214   5.906   3.621 -0.5924  0.0833  0.0691
  876MOL0     C20785   9.340   5.956   3.585 -0.3258  0.0883 -0.0082
  876MOL0     O20786   9.415   5.896   3.484  0.1966  0.1135 -0.5723
  876MOL0     C20787   9.427   5.986   3.372  0.1712  0.6677 -0.0512
  876MOL0     C20788   9.465   5.905   3.242  0.7674 -0.2555 -0.5652
  876MOL0     C20789   9.601   5.844   3.252 -0.4345  0.6905 -0.2726
  876MOL0     C20790   9.624   5.749   3.133 -0.4658 -0.0403 -1.0935
  876MOL0     C20791   9.760   5.681   3.157 -0.4417  1.1847  0.7499
  876MOL0     C20792   9.824   5.606   3.032  0.0259 -0.4433 -0.0642
  876MOL0     C20793   9.963   5.546   3.066  1.3171 -0.5954  0.3638
  876MOL0     C20794  10.064   5.659   3.052  0.2979 -0.1140 -0.5056
  876MOL0    Cl20795  10.163   5.671   2.907 -0.4654 -0.0824  0.2680
  876MOL0     C20796   9.378   6.069   3.660  0.6953 -0.3708  0.4100
  876MOL0     C20797   9.292   6.129   3.758 -0.7888 -0.6265  1.1691
  876MOL0     O20798   8.933   6.225   3.722  0.9425  1.0059 -0.6233
  876MOL0     C20799   8.758   6.315   3.914 -0.6914 -0.3296 -0.0492
  876MOL0     C20800   8.677   6.363   4.020 -0.9143 -0.2486 -0.4292
  876MOL0     N20801   8.108   6.541   4.615 -0.6860 -0.2021  0.9135
  876MOL0     N20802   8.120   6.623   4.719 -0.7794 -0.3809 -0.2448
  876MOL0     C20803   7.990   7.656   5.247  0.2729 -0.0223  0.4669
  876MOL0     C20804   7.897   7.749   5.286 -0.5312 -0.6076 -0.4771
  876MOL0     C20805   7.688   8.093   5.467  0.4827  0.3245  0.5816
  876MOL0     C20806   7.554   8.037   5.469 -0.3901  0.2467 -0.0818
  876MOL0     C20807   7.443   8.120   5.492  0.2848 -0.6794 -0.3810
  876MOL0     C20808   7.461   8.259   5.503 -0.6061  0.2904 -0.0776
  876MOL0     O20809   7.356   8.339   5.526  0.9406  0.2666 -0.4494
  876MOL0     C20810   7.289   8.393   5.407  0.9413  0.2106 -0.3833
  876MOL0     C20811   7.207   8.284   5.330 -0.2892 -0.5884 -0.2807
  876MOL0     C20812   7.290   8.206   5.221 -0.0729 -0.2480  0.3458
  876MOL0     C20813   7.242   8.068   5.196 -0.7462  0.5856  1.2309
  876MOL0     C20814   7.310   8.006   5.075  0.6273 -0.8273  0.2774
  876MOL0     C20815   7.363   7.963   4.968  0.1322  0.0235 -0.1796
  876MOL0     C20816   7.591   8.311   5.510 -0.3077  0.2078  0.2963
  876MOL0     C20817   7.704   8.231   5.506  0.1446 -0.0973 -0.0880
  876MOL0     C20818   7.833   8.282   5.550  0.2850  0.3460  0.7465
  876MOL0     H20819   7.978   7.772   5.610  0.7364 -0.2659  0.3479
  876MOL0     H20820   8.165   7.601   5.534  1.2647 -0.1769  0.0406
  876MOL0     H20821   8.202   7.335   5.388 -0.5673  0.3022 -0.9708
  876MOL0     H20822   8.324   7.457   5.381 -0.7751  1.0591  1.2807
  876MOL0     H20823   8.385   7.409   5.155  1.5564 -0.8074 -0.6056
  876MOL0     H20824   8.399   7.266   5.259  0.2309  0.0991 -0.5130
  876MOL0     H20825   8.196   7.172   5.178 -1.4680  0.7453 -0.5677
  876MOL0     H20826   8.172   7.305   5.067 -0.7958 -0.9565  1.8343
  876MOL0     H20827   8.410   7.252   4.976  2.5142 -1.3413  0.8325
  876MOL0     H20828   8.421   7.115   5.078  0.5974 -1.7845 -1.7954
  876MOL0     H20829   8.331   7.084   4.834 -0.8434  2.5642 -0.3876
  876MOL0     H20830   8.169   7.117   4.900 -0.7036 -1.8702 -2.3655
  876MOL0     H20831   8.360   6.897   4.998  0.9308  1.2736 -0.9218
  876MOL0     H20832   8.201   6.950   5.068 -0.5576  0.8999 -0.6957
  876MOL0     H20833   8.128   6.921   4.806 -2.7236  1.1924  3.0034
  876MOL0     H20834   8.126   6.780   4.921  0.4408 -0.0303  0.9249
  876MOL0     H20835   8.366   6.854   4.744  0.3832  1.5843  0.9366
  876MOL0     H20836   8.358   6.724   4.871 -0.6133  0.8609  0.5606
  876MOL0     H20837   8.418   6.639   4.568  0.0302  1.5678 -1.7239
  876MOL0     H20838   8.158   6.372   4.420  0.2490  0.4105 -1.5436
  876MOL0     H20839   8.333   6.374   4.482  0.2845  0.8865  1.5927
  876MOL0     H20840   8.238   6.449   4.228 -0.3252  0.5257 -1.0440
  876MOL0     H20841   8.239   6.608   4.309  1.1167  0.5108  1.2355
  876MOL0     H20842   8.457   6.563   4.189  0.3052 -0.7304 -0.2867
  876MOL0     H20843   8.480   6.565   4.366  1.3346 -1.0939  0.4118
  876MOL0     H20844   8.453   6.298   4.316 -0.8820 -0.8053 -0.4781
  876MOL0     H20845   8.461   6.342   4.150 -1.4477 -1.9714  1.1780
  876MOL0     H20846   8.818   6.235   4.283 -2.7699 -2.3616 -0.9758
  876MOL0     H20847   9.031   6.063   4.072  0.7273  1.9299 -1.6716
  876MOL0     H20848   9.016   6.121   4.248  0.2667 -1.1654 -0.7789
  876MOL0     H20849   9.119   6.201   4.128  0.5970 -0.7267 -0.1514
  876MOL0     H20850   9.023   5.930   3.702  0.4507 -1.5499  0.4239
  876MOL0     H20851   9.182   5.817   3.567  0.6958 -1.1703  1.2855
  876MOL0     H20852   9.341   6.048   3.347 -1.1383 -1.2071 -0.3829
  876MOL0     H20853   9.508   6.058   3.384  1.2750 -0.4570 -0.4878
  876MOL0     H20854   9.388   5.831   3.217 -1.0683  1.1122  0.6951
  876MOL0     H20855   9.467   5.983   3.166  0.4286 -1.0732 -1.4275
  876MOL0     H20856   9.606   5.789   3.347  1.7822 -0.3217 -0.8851
  876MOL0     H20857   9.671   5.927   3.262  0.5253 -0.2306  1.1729
  876MOL0     H20858   9.625   5.810   3.042 -1.3824  1.0924 -0.3658
  876MOL0     H20859   9.548   5.674   3.107  1.6645 -1.7734 -2.7272
  876MOL0     H20860   9.831   5.758   3.189 -0.2177  2.5219 -2.5308
  876MOL0     H20861   9.750   5.603   3.233  2.1770  0.9870  0.9836
  876MOL0     H20862   9.822   5.680   2.951 -0.4806 -0.3913 -0.0120
  876MOL0     H20863   9.753   5.524   3.012  0.5733 -1.9095  3.3472
  876MOL0     H20864   9.972   5.468   2.990  1.7800  2.6009 -3.1841
  876MOL0     H20865   9.964   5.512   3.170  3.2802 -2.2135 -0.1050
  876MOL0     H20866  10.110   5.654   3.151 -4.0160 -1.1984  1.7049
  876MOL0     H20867  10.021   5.759   3.064  4.2166  1.4789  2.9993
  876MOL0     H20868   9.481   6.103   3.650  1.8010 -1.9023  4.3751
  876MOL0     H20869   9.330   6.217   3.808  1.5761 -0.1346 -1.2878
  876MOL0     H20870   8.728   6.348   3.815  0.5206  0.4792 -0.1716
  876MOL0     H20871   8.603   6.440   4.001  0.8551  2.1509  1.8048
  876MOL0     H20872   7.994   7.623   5.144 -1.8819  1.0799 -0.0216
  876MOL0     H20873   7.838   7.809   5.217 -3.3159  0.5992  2.7138
  876MOL0     H20874   7.553   7.932   5.438 -1.0502 -0.3096  1.6918
  876MOL0     H20875   7.342   8.082   5.489  0.1599 -0.3022 -1.2025
  876MOL0     H20876   7.212   8.464   5.440  3.3910  2.1487  1.5286
  876MOL0     H20877   7.356   8.446   5.339 -2.7405  1.5835 -3.2991
  876MOL0     H20878   7.127   8.335   5.274  0.5990 -0.0841 -1.1402
  876MOL0     H20879   7.160   8.217   5.402  1.3032 -1.5126 -0.0501
  876MOL0     H20880   7.288   8.265   5.129  1.3455  0.3888  0.6808
  876MOL0     H20881   7.394   8.208   5.257 -0.9009 -0.8776  2.9888
  876MOL0     H20882   7.133   8.066   5.190 -0.7507  1.5559  0.8408
  876MOL0     H20883   7.268   8.009   5.285 -1.6277 -1.0408  0.4498
  876MOL0     H20884   7.388   7.953   4.864 -3.1586  1.2526 -1.2335
  876MOL0     H20885   7.596   8.413   5.548  1.1992 -0.8395  3.1962
  876MOL0     H20886   7.901   8.200   5.574  2.1204  1.0079 -1.7420
  876MOL0     H20887   7.873   8.350   5.474  0.1771 -0.9098 -0.4559
  876MOL0     H20888   7.830   8.343   5.642  2.0202  2.4874 -0.4963
  877MOL0     O20889   6.833   7.832   7.481 -0.0164 -0.1467  0.1931
  877MOL0     C20890   6.822   7.949   7.521 -0.0331 -0.1671 -0.8752
  877MOL0     O20891   6.934   8.035   7.533  0.1866  0.0751  0.0134
  877MOL0     C20892   7.057   7.977   7.552 -0.2926 -1.0463 -0.3189
  877MOL0     C20893   7.157   8.071   7.582 -0.3874 -0.7229  0.1290
  877MOL0     C20894   7.289   8.034   7.611  0.5337 -0.3893  0.3018
  877MOL0     C20895   7.327   7.902   7.612 -1.2026 -0.0192  0.3037
  877MOL0     O20896   7.459   7.864   7.634 -0.0772  0.9113 -0.3253
  877MOL0     C20897   7.512   7.908   7.760  0.1172  0.0334  0.2068
  877MOL0     C20898   7.648   7.969   7.731 -0.3932  0.1916 -0.0406
  877MOL0     C20899   7.745   7.861   7.674 -0.0898  0.1722 -0.4214
  877MOL0     C20900   7.883   7.917   7.673  0.4781 -0.1336  0.7096
  877MOL0     C20901   7.975   7.801   7.627 -0.3148 -0.1830  0.3216
  877MOL0     C20902   8.124   7.847   7.586  0.8338  0.7678 -0.7341
  877MOL0     C20903   8.208   7.744   7.516 -0.1634  1.2265  0.6668
  877MOL0     C20904   8.341   7.803   7.470 -1.0632 -0.0956  0.2109
  877MOL0     N20905   8.437   7.705   7.417  0.6284 -0.0284  0.3539
  877MOL0     C20906   8.554   7.677   7.484 -1.2638  0.4934 -0.1394
  877MOL0     C20907   8.601   7.566   7.421 -0.0809 -1.1686 -0.0078
  877MOL0     C20908   8.709   7.479   7.472 -0.7514 -0.5704  0.5015
  877MOL0     C20909   8.657   7.386   7.582  0.3716  0.1770 -0.2864
  877MOL0     C20910   8.775   7.287   7.628  0.4088  0.1014  0.3038
  877MOL0     C20911   8.724   7.191   7.729 -0.4550 -0.0587  0.4119
  877MOL0     O20912   8.684   7.069   7.667 -0.2688 -0.6714 -0.1672
  877MOL0     C20913   8.682   6.956   7.743 -0.4545  0.0639  0.2368
  877MOL0     C20914   8.686   6.838   7.669 -0.3798 -0.0056  0.4541
  877MOL0     C20915   8.685   6.717   7.740 -0.5832  0.0960  0.2324
  877MOL0     C20916   8.708   6.584   7.670 -0.0183  0.1551  0.6405
  877MOL0     C20917   8.685   6.721   7.884  0.5469  0.1854 -1.6018
  877MOL0     C20918   8.686   6.601   7.969  0.2126 -0.0769 -0.3455
  877MOL0     O20919   8.624   6.487   7.929  0.0710 -0.0301 -0.0647
  877MOL0     C20920   8.604   6.384   8.014  0.1807 -0.1197 -0.3669
  877MOL0     C20921   8.605   6.253   7.964  0.2389 -0.0439 -0.1719
  877MOL0     C20922   8.596   6.140   8.048 -0.3170  0.2356  0.0946
  877MOL0     C20923   8.572   6.154   8.186 -0.2003 -0.1887  0.4426
  877MOL0     O20924   8.573   6.060   8.282 -0.1452  0.0054 -0.9310
  877MOL0     C20925   8.654   5.955   8.253 -0.5505  0.0340 -0.0832
  877MOL0     C20926   8.802   5.987   8.259 -0.0586  0.5115  0.2723
  877MOL0     C20927   8.890   5.869   8.212  0.2675 -0.1772 -0.2937
  877MOL0     C20928   9.043   5.900   8.252  0.9035 -1.3677 -0.2316
  877MOL0     C20929   9.135   5.776   8.247  0.6978 -0.2907  0.5317
  877MOL0     C20930   9.176   5.730   8.100 -0.4107  0.4231  0.0517
  877MOL0     C20931   9.212   5.582   8.103  0.1524  0.2120 -0.0805
  877MOL0     C20932   9.328   5.564   8.019  0.3551  0.2289 -0.2339
  877MOL0    Cl20933   9.420   5.430   8.073 -0.0313  0.2130 -0.2834
  877MOL0     C20934   8.557   6.277   8.235  0.3736 -0.6178 -0.2553
  877MOL0     C20935   8.580   6.394   8.155  0.6567  0.9342 -0.6182
  877MOL0     O20936   8.734   6.608   8.076  0.1445 -0.4201  0.0145
  877MOL0     C20937   8.703   6.848   7.943 -0.3382  0.4011  0.2748
  877MOL0     C20938   8.687   6.960   7.879  0.3601 -0.6593 -0.3652
  877MOL0     N20939   8.523   7.546   7.307  0.0603  0.1095  0.1967
  877MOL0     N20940   8.423   7.628   7.304 -0.1502 -0.8208  0.0169
  877MOL0     C20941   7.229   7.802   7.591 -0.4712 -0.2256  0.0695
  877MOL0     C20942   7.102   7.842   7.564  0.1871  0.5590 -0.3137
  877MOL0     C20943   6.692   7.980   7.586 -0.8204 -0.2576  0.6508
  877MOL0     C20944   6.703   8.092   7.666  0.0954  0.4910  0.5451
  877MOL0     C20945   6.582   8.151   7.713  0.7214  1.0743 -0.8375
  877MOL0     C20946   6.456   8.092   7.700 -0.5350 -0.4269 -0.1139
  877MOL0     O20947   6.347   8.171   7.736 -0.1685  0.5736 -0.1753
  877MOL0     C20948   6.220   8.129   7.694  0.3130  0.0398  0.5661
  877MOL0     C20949   6.116   8.230   7.724  0.5264 -0.0449  0.3973
  877MOL0     C20950   6.018   8.238   7.607 -0.2186  0.4438 -0.3067
  877MOL0     C20951   5.898   8.328   7.640  0.6553 -0.0689  0.1907
  877MOL0     C20952   5.800   8.316   7.534 -0.2867 -0.2880  0.7448
  877MOL0     C20953   5.727   8.316   7.442  1.4263  0.0429 -0.5129
  877MOL0     C20954   6.455   7.972   7.628 -0.4701  0.9348  0.0977
  877MOL0     C20955   6.570   7.917   7.567  0.0077  0.4495 -0.6982
  877MOL0     C20956   6.553   7.783   7.493 -0.6692 -0.2837  0.2496
  877MOL0     H20957   7.138   8.178   7.585  2.2626 -0.1341 -0.9857
  877MOL0     H20958   7.356   8.118   7.620 -1.9786  1.4902  3.5954
  877MOL0     H20959   7.535   7.819   7.820  0.9114  0.3272  0.3363
  877MOL0     H20960   7.443   7.965   7.822  1.4247  2.8556 -0.7762
  877MOL0     H20961   7.633   8.052   7.661 -1.6524  1.1102  1.2720
  877MOL0     H20962   7.682   7.992   7.833  1.1772 -0.4586 -0.3750
  877MOL0     H20963   7.740   7.773   7.739 -1.9929  0.9430  0.5736
  877MOL0     H20964   7.712   7.823   7.577 -0.9546  0.3307 -0.1996
  877MOL0     H20965   7.875   8.002   7.605 -3.1076 -0.8258  0.0829
  877MOL0     H20966   7.904   7.953   7.774  1.2421  2.1595 -0.2045
  877MOL0     H20967   7.946   7.761   7.529  0.5012  3.3937 -1.5864
  877MOL0     H20968   7.979   7.731   7.710 -1.3299  0.6605  1.1171
  877MOL0     H20969   8.133   7.943   7.536 -0.6202 -0.8793 -4.5484
  877MOL0     H20970   8.182   7.858   7.678 -1.7173 -1.7759  1.3665
  877MOL0     H20971   8.162   7.704   7.425  3.3074  0.5450 -0.9468
  877MOL0     H20972   8.221   7.663   7.589 -2.0764  1.3050  1.1550
  877MOL0     H20973   8.324   7.871   7.386  2.5218 -0.7752 -1.2615
  877MOL0     H20974   8.383   7.856   7.556 -1.4973 -0.7876  0.8592
  877MOL0     H20975   8.584   7.712   7.582 -0.4816 -2.2998  0.7257
  877MOL0     H20976   8.793   7.538   7.509  0.5045 -1.2288 -1.1756
  877MOL0     H20977   8.747   7.418   7.390  3.5534  4.2596 -1.6633
  877MOL0     H20978   8.633   7.446   7.670 -2.0451 -0.6278 -0.3218
  877MOL0     H20979   8.570   7.330   7.546  1.1003 -1.1695 -0.0241
  877MOL0     H20980   8.832   7.240   7.548  0.2491 -0.1604  0.3433
  877MOL0     H20981   8.851   7.350   7.676 -1.2608  1.1648  1.6422
  877MOL0     H20982   8.800   7.166   7.803  0.7673  2.0837 -0.0143
  877MOL0     H20983   8.641   7.242   7.779 -0.4502 -0.7856  1.1679
  877MOL0     H20984   8.712   6.830   7.563 -0.7097 -1.4095  0.4597
  877MOL0     H20985   8.711   6.593   7.561  0.7730 -0.8790  0.5650
  877MOL0     H20986   8.621   6.521   7.688 -1.9580  2.5939  0.2787
  877MOL0     H20987   8.799   6.531   7.700 -0.0928 -2.3692 -2.9889
  877MOL0     H20988   8.638   6.240   7.862 -0.9393 -4.2207 -0.2010
  877MOL0     H20989   8.616   6.039   8.013  0.2646 -1.3186  4.2636
  877MOL0     H20990   8.640   5.887   8.338  1.8712  0.6438  0.8855
  877MOL0     H20991   8.624   5.905   8.160  0.6347  2.9801 -2.1923
  877MOL0     H20992   8.801   6.065   8.182 -5.8329  2.4433  1.7801
  877MOL0     H20993   8.835   6.026   8.356 -3.1968  0.8288  1.3339
  877MOL0     H20994   8.884   5.867   8.103 -0.3513 -0.9139 -0.2605
  877MOL0     H20995   8.870   5.769   8.252  1.6832  0.6890  2.8954
  877MOL0     H20996   9.048   5.935   8.355 -1.4285  1.3322 -0.9101
  877MOL0     H20997   9.081   5.982   8.191  0.4926  0.0923  1.4068
  877MOL0     H20998   9.222   5.805   8.307  1.8396  1.8417 -1.9474
  877MOL0     H20999   9.070   5.698   8.287  0.4815 -0.8707 -0.8679
  877MOL0     H21000   9.259   5.797   8.077 -1.1050  0.8870 -1.1952
  877MOL0     H21001   9.096   5.752   8.029  0.2233  0.5416 -0.6234
  877MOL0     H21002   9.127   5.523   8.066  1.1332 -0.0523 -1.9877
  877MOL0     H21003   9.233   5.551   8.206 -0.6298  0.7070  0.2396
  877MOL0     H21004   9.391   5.653   8.014  2.8558 -1.4819 -1.5464
  877MOL0     H21005   9.303   5.548   7.913  1.6132 -1.4507 -0.3157
  877MOL0     H21006   8.540   6.291   8.341 -3.6388  0.0183 -0.8173
  877MOL0     H21007   8.567   6.495   8.194  1.8709 -0.0338  2.6740
  877MOL0     H21008   8.726   6.842   8.048  1.5438 -1.2835 -0.1612
  877MOL0     H21009   8.690   7.052   7.937 -0.0398 -1.2886  0.6984
  877MOL0     H21010   7.269   7.702   7.588  1.2649  0.4243  0.3340
  877MOL0     H21011   7.043   7.755   7.537  2.7125 -1.6327  0.7647
  877MOL0     H21012   6.797   8.146   7.679  1.1765 -1.1303 -0.2000
  877MOL0     H21013   6.592   8.247   7.763  3.1166  0.8630 -0.7766
  877MOL0     H21014   6.217   8.114   7.585  0.9548 -0.8095  0.6482
  877MOL0     H21015   6.188   8.029   7.726 -4.6857  1.1669 -0.0748
  877MOL0     H21016   6.159   8.330   7.734 -0.6774  0.8282 -2.2991
  877MOL0     H21017   6.076   8.221   7.825  0.9040  2.9039  0.8970
  877MOL0     H21018   6.061   8.280   7.515 -5.0914  1.0745 -2.6475
  877MOL0     H21019   5.992   8.134   7.584  2.6024 -0.1033 -1.5204
  877MOL0     H21020   5.910   8.434   7.664 -3.5273  0.8243 -0.8609
  877MOL0     H21021   5.843   8.291   7.728 -4.2176  6.1863  0.4679
  877MOL0     H21022   5.658   8.309   7.361  0.3857 -3.0171  0.5170
  877MOL0     H21023   6.360   7.929   7.598 -0.1652  0.1430  0.2635
  877MOL0     H21024   6.459   7.736   7.523  0.0630 -1.0238  1.5068
  877MOL0     H21025   6.552   7.791   7.384 -0.7717 -4.2500 -0.1832
  877MOL0     H21026   6.635   7.716   7.523  1.8938  1.8241 -1.5940
  878MOL0     O21027   3.923   1.841   1.428  0.0930 -0.7833 -0.2301
  878MOL0     C21028   3.833   1.908   1.474  0.2576 -0.1751  0.7382
  878MOL0     O21029   3.845   1.999   1.582  0.0222 -0.1846 -0.3033
  878MOL0     C21030   3.967   2.007   1.633  0.8775  0.3619  0.3671
  878MOL0     C21031   3.983   1.967   1.770  0.1028 -0.8978 -0.8770
  878MOL0     C21032   4.105   1.993   1.834  0.4691 -0.4153  0.6531
  878MOL0     C21033   4.217   2.034   1.761  0.4637 -0.3468 -0.3169
  878MOL0     O21034   4.334   2.033   1.831  0.3661  0.4513  0.1029
  878MOL0     C21035   4.431   2.136   1.800  0.3235  0.6490 -0.2004
  878MOL0     C21036   4.539   2.063   1.707 -0.4785  0.3011 -0.1717
  878MOL0     C21037   4.654   2.151   1.652  0.0891  0.6342 -0.3498
  878MOL0     C21038   4.783   2.069   1.613 -0.7023 -1.3026 -0.8501
  878MOL0     C21039   4.916   2.151   1.620 -0.7717 -0.2438 -0.1453
  878MOL0     C21040   4.953   2.194   1.763  0.0530  0.8593  0.8777
  878MOL0     C21041   4.944   2.083   1.870  0.1130 -0.7815 -0.2485
  878MOL0     C21042   5.004   2.146   2.001 -0.4999 -0.2643 -0.8029
  878MOL0     N21043   4.958   2.082   2.128  0.0577 -0.0550 -1.0338
  878MOL0     C21044   4.958   1.947   2.150  0.6460  0.1433 -0.0431
  878MOL0     C21045   4.917   1.928   2.278  0.3342  0.8364  1.1934
  878MOL0     C21046   4.892   1.805   2.360  0.8547 -0.9912  0.6138
  878MOL0     C21047   5.025   1.741   2.398 -0.6613 -0.0532 -0.4036
  878MOL0     C21048   5.104   1.833   2.492 -0.1882 -0.2768 -0.1919
  878MOL0     C21049   5.249   1.780   2.494 -0.2325  0.6504 -0.2374
  878MOL0     O21050   5.247   1.632   2.500 -0.4660 -0.4467  1.1713
  878MOL0     C21051   5.370   1.571   2.481  0.0515 -0.6420  0.5813
  878MOL0     C21052   5.486   1.618   2.546 -0.9937 -0.3015 -0.2975
  878MOL0     C21053   5.613   1.553   2.534  0.4134  0.5790 -0.5823
  878MOL0     C21054   5.711   1.596   2.646 -0.8154  0.4766  0.0178
  878MOL0     C21055   5.631   1.440   2.450 -0.3651 -0.0618 -0.7408
  878MOL0     C21056   5.765   1.373   2.432 -0.2558 -0.4282 -0.6037
  878MOL0     O21057   5.754   1.243   2.393  0.1759 -0.0170 -0.2792
  878MOL0     C21058   5.867   1.182   2.347  0.4413  0.8199 -0.4170
  878MOL0     C21059   5.899   1.188   2.212 -0.3155  0.1204  0.0920
  878MOL0     C21060   6.020   1.145   2.157  0.6597 -0.1763  0.5574
  878MOL0     C21061   6.112   1.065   2.238  0.1435 -0.7100  0.5785
  878MOL0     O21062   6.229   1.000   2.200 -0.1608 -0.4091 -0.3933
  878MOL0     C21063   6.276   1.039   2.072  0.2247  0.2631 -0.1916
  878MOL0     C21064   6.409   0.981   2.057 -0.6140  0.1780 -0.4744
  878MOL0     C21065   6.518   1.044   2.143  1.4393 -0.6676 -0.5198
  878MOL0     C21066   6.653   1.018   2.081  0.4994 -0.5175  0.9652
  878MOL0     C21067   6.760   1.105   2.157 -0.8121 -0.3486 -0.0282
  878MOL0     C21068   6.872   1.156   2.067 -0.6065  0.8239 -0.0715
  878MOL0     C21069   6.998   1.201   2.145 -0.3795 -0.2001  0.5910
  878MOL0     C21070   7.115   1.222   2.048  0.4433  0.6776  0.0531
  878MOL0    Cl21071   7.276   1.278   2.135  0.1183 -0.9153 -0.0740
  878MOL0     C21072   6.079   1.055   2.371 -0.0014  0.0730 -0.4760
  878MOL0     C21073   5.958   1.099   2.425 -0.3723 -0.0723 -0.6291
  878MOL0     O21074   5.870   1.432   2.455 -0.1938  0.1390 -0.0056
  878MOL0     C21075   5.512   1.396   2.384  0.3013 -0.4109 -0.0128
  878MOL0     C21076   5.387   1.463   2.400 -0.3712  0.7956  0.5890
  878MOL0     N21077   4.882   2.051   2.325 -0.2475 -0.2630 -0.5271
  878MOL0     N21078   4.901   2.142   2.239  0.5010  0.5766  0.5457
  878MOL0     C21079   4.206   2.058   1.628  0.9103 -0.0363  0.3941
  878MOL0     C21080   4.080   2.061   1.565  0.4946 -0.7730  0.8814
  878MOL0     C21081   3.693   1.887   1.421  0.3560 -0.4909 -0.1751
  878MOL0     C21082   3.584   1.939   1.491  0.7314 -0.5724  0.5823
  878MOL0     C21083   3.447   1.933   1.456 -1.0217  0.5049 -0.0007
  878MOL0     C21084   3.419   1.860   1.339  0.5054 -0.3299  0.3342
  878MOL0     O21085   3.294   1.844   1.284  0.2435 -0.4846 -1.6832
  878MOL0     C21086   3.206   1.948   1.324  0.1110  0.3308 -1.0977
  878MOL0     C21087   3.078   1.941   1.247  1.5413 -0.4926  0.5404
  878MOL0     C21088   2.994   1.810   1.277  0.3063  0.9722  0.7233
  878MOL0     C21089   2.944   1.798   1.422 -1.6253 -0.3020  0.1620
  878MOL0     C21090   2.877   1.921   1.467  0.1800  0.2389 -0.6089
  878MOL0     C21091   2.826   2.023   1.510  0.7306 -0.2912 -0.1908
  878MOL0     C21092   3.520   1.809   1.265  0.6679  0.0932 -0.2136
  878MOL0     C21093   3.654   1.820   1.303  0.2020 -0.4022  0.8222
  878MOL0     C21094   3.761   1.765   1.210  0.0481  0.2218  0.4234
  878MOL0     H21095   3.896   1.928   1.822 -2.3644  2.2423 -2.2826
  878MOL0     H21096   4.106   1.977   1.942  0.8382  0.3015  0.7588
  878MOL0     H21097   4.477   2.174   1.893 -2.4609  0.2206  1.4725
  878MOL0     H21098   4.394   2.215   1.735  1.7974  0.5633 -1.2121
  878MOL0     H21099   4.579   1.988   1.775  1.0754  1.3706  0.1473
  878MOL0     H21100   4.487   2.012   1.626 -0.1024 -0.6439  0.1641
  878MOL0     H21101   4.611   2.217   1.576 -1.4360  0.1995  0.0974
  878MOL0     H21102   4.674   2.214   1.740  0.8307  0.2563 -0.2399
  878MOL0     H21103   4.794   1.984   1.681 -0.2974 -0.2594  0.4415
  878MOL0     H21104   4.772   2.034   1.510  0.4276 -3.1394 -0.3811
  878MOL0     H21105   4.912   2.237   1.552  2.5975 -0.4388 -0.7737
  878MOL0     H21106   4.998   2.091   1.580 -0.0189  1.0864 -0.6596
  878MOL0     H21107   5.053   2.235   1.747  0.2436 -0.6526 -2.7122
  878MOL0     H21108   4.884   2.269   1.803 -0.3045  0.8746  0.2455
  878MOL0     H21109   4.994   1.987   1.852 -0.4034 -0.6191 -3.0845
  878MOL0     H21110   4.840   2.057   1.889 -0.1265  0.3308  0.0191
  878MOL0     H21111   5.113   2.152   2.012 -0.5564 -1.1461  0.3881
  878MOL0     H21112   4.964   2.248   2.007 -2.3145 -1.0098  1.3150
  878MOL0     H21113   4.986   1.870   2.078 -0.9141 -1.7099  1.2165
  878MOL0     H21114   4.823   1.744   2.301  0.5871  1.4456 -1.8117
  878MOL0     H21115   4.838   1.828   2.453  2.0811 -3.0203  1.8994
  878MOL0     H21116   5.017   1.650   2.458  2.8211 -0.1414  0.0984
  878MOL0     H21117   5.075   1.705   2.308  1.1769 -2.4028  1.4177
  878MOL0     H21118   5.116   1.938   2.461 -1.8417  0.1656  0.5410
  878MOL0     H21119   5.055   1.841   2.589 -0.7781 -2.3839 -0.2841
  878MOL0     H21120   5.301   1.829   2.412  0.7031  0.6069  0.3110
  878MOL0     H21121   5.301   1.824   2.580 -0.4190  1.2560 -0.4326
  878MOL0     H21122   5.477   1.692   2.625 -1.6084 -2.6068  1.8981
  878MOL0     H21123   5.732   1.699   2.615 -3.8696  0.9526 -0.7773
  878MOL0     H21124   5.799   1.532   2.653  0.4687  2.3254  1.9982
  878MOL0     H21125   5.672   1.602   2.748 -0.0868 -1.0483  0.4102
  878MOL0     H21126   5.846   1.256   2.146  1.6398 -1.2665 -3.0905
  878MOL0     H21127   6.035   1.184   2.056  1.1632 -1.2996  0.1751
  878MOL0     H21128   6.207   1.001   1.996 -1.5261  1.0191  0.9612
  878MOL0     H21129   6.285   1.149   2.072 -0.6974  0.3628  1.5083
  878MOL0     H21130   6.409   0.879   2.095 -1.5230  1.4228  3.3091
  878MOL0     H21131   6.438   0.986   1.952 -1.0889  1.2417 -0.5690
  878MOL0     H21132   6.506   0.999   2.242  1.5906  0.0506 -0.1686
  878MOL0     H21133   6.493   1.151   2.149 -0.1616 -1.0502  0.1503
  878MOL0     H21134   6.638   1.051   1.977 -1.1877  0.7911  1.5642
  878MOL0     H21135   6.687   0.914   2.084  3.3299  0.3132  0.4118
  878MOL0     H21136   6.717   1.199   2.191  0.8395  1.1030 -1.7368
  878MOL0     H21137   6.802   1.049   2.241 -1.2432 -0.3083  0.2175
  878MOL0     H21138   6.839   1.251   2.024  0.5227  0.5254 -1.6877
  878MOL0     H21139   6.887   1.086   1.984 -1.4535  0.9589 -0.3548
  878MOL0     H21140   7.029   1.117   2.208  2.7601 -1.1734 -2.0331
  878MOL0     H21141   6.980   1.289   2.208  3.6272 -0.6969  2.7766
  878MOL0     H21142   7.089   1.287   1.964  0.6638  2.8087  1.5401
  878MOL0     H21143   7.132   1.122   2.008 -0.7063  0.9375 -1.1417
  878MOL0     H21144   6.137   0.990   2.436 -0.6407  0.5008  0.5546
  878MOL0     H21145   5.939   1.079   2.530 -2.2846  2.0091 -0.4950
  878MOL0     H21146   5.515   1.309   2.319 -3.8954 -1.8859  1.4518
  878MOL0     H21147   5.304   1.410   2.355  0.6231 -0.2893 -0.0254
  878MOL0     H21148   4.288   2.079   1.560 -1.2569 -0.0048 -2.3696
  878MOL0     H21149   4.064   2.083   1.460  3.2146  0.7779  0.6935
  878MOL0     H21150   3.601   1.978   1.592 -1.2554 -0.1377  0.7969
  878MOL0     H21151   3.376   1.989   1.516  2.2131  1.5159  3.1917
  878MOL0     H21152   3.190   1.949   1.432  3.0443 -1.3385 -0.5307
  878MOL0     H21153   3.247   2.049   1.310  0.2758  0.5878  0.9276
  878MOL0     H21154   3.112   1.942   1.143 -0.7128 -4.4143 -0.4387
  878MOL0     H21155   3.020   2.032   1.263  2.9865 -0.0469  4.1395
  878MOL0     H21156   2.915   1.788   1.205  1.8932 -4.2513  0.1271
  878MOL0     H21157   3.061   1.724   1.264  0.3223  1.2098 -1.0168
  878MOL0     H21158   3.032   1.767   1.479 -0.8393 -3.0964 -2.3035
  878MOL0     H21159   2.866   1.721   1.425 -2.7034  0.5689 -2.3757
  878MOL0     H21160   2.774   2.110   1.545  0.6415 -0.7649  0.8859
  878MOL0     H21161   3.484   1.754   1.179  1.0342 -0.3126 -0.1087
  878MOL0     H21162   3.712   1.758   1.112 -0.8462  0.1599  0.8626
  878MOL0     H21163   3.845   1.832   1.191  2.0122 -1.9779  0.9759
  878MOL0     H21164   3.790   1.667   1.249  0.3396  0.0733 -0.1568
  879MOL0     O21165   3.634   8.140  10.627  0.1185 -0.0624 -0.9052
  879MOL0     C21166   3.575   8.231  10.681  0.6696  0.4424 -0.6869
  879MOL0     O21167   3.588   8.363  10.659 -0.7616 -0.1938  0.4638
  879MOL0     C21168   3.701   8.406  10.579 -0.2877  0.2930  0.2871
  879MOL0     C21169   3.835   8.353  10.577 -0.2204 -0.2444  0.2817
  879MOL0     C21170   3.938   8.417  10.511  0.8017  0.4299 -0.1694
  879MOL0     C21171   3.920   8.538  10.449  0.4931 -0.0991  1.0854
  879MOL0     O21172   4.015   8.625  10.399 -0.0867  0.1372 -0.3353
  879MOL0     C21173   4.092   8.585  10.289 -0.7148 -0.0225 -0.3466
  879MOL0     C21174   4.058   8.660  10.160  0.3943 -0.1347  0.2761
  879MOL0     C21175   4.088   8.809  10.163  0.1313  0.0850 -0.9134
  879MOL0     C21176   3.975   8.901  10.221  0.1175 -0.1987 -0.4658
  879MOL0     C21177   4.016   9.048  10.193 -0.6872  0.9327  0.3321
  879MOL0     C21178   3.953   9.136  10.295  1.0874  0.1192  0.2065
  879MOL0     C21179   4.024   9.272  10.301 -0.0246 -0.2346 -0.0074
  879MOL0     C21180   3.927   9.386  10.357 -0.1982  0.1207  0.4986
  879MOL0     N21181   3.878   9.338  10.490 -0.2373 -0.3406  0.6257
  879MOL0     C21182   3.934   9.386  10.605 -0.5040  0.4345 -0.4894
  879MOL0     C21183   3.867   9.326  10.703 -0.8712  0.1415 -0.5008
  879MOL0     C21184   3.907   9.344  10.849 -0.4716 -0.0527 -0.4850
  879MOL0     C21185   3.851   9.227  10.942 -0.4288  0.0261  1.2381
  879MOL0     C21186   3.698   9.228  10.962 -0.6474  0.2721  1.0749
  879MOL0     C21187   3.658   9.353  11.038  0.3526  0.2586 -1.0690
  879MOL0     O21188   3.731   9.354  11.163  0.3795 -0.3997  0.3425
  879MOL0     C21189   3.808   9.458  11.205  0.6979  0.3881  0.5942
  879MOL0     C21190   3.778   9.587  11.175  0.2766 -0.0263 -0.3258
  879MOL0     C21191   3.868   9.682  11.218  0.3151 -0.6546  0.9230
  879MOL0     C21192   3.829   9.823  11.181 -0.5859 -0.1340 -0.0061
  879MOL0     C21193   3.985   9.655  11.296  0.3325 -0.7234  0.5910
  879MOL0     C21194   4.085   9.759  11.352  0.0896  0.0107  0.2980
  879MOL0     O21195   4.120   9.868  11.269  0.4412  0.0773 -1.3158
  879MOL0     C21196   4.195   9.972  11.320  0.0376  0.3941 -0.2040
  879MOL0     C21197   4.150  10.101  11.322  0.4356  0.0694 -0.8275
  879MOL0     C21198   4.249  10.198  11.350  0.1008  0.8154 -0.5004
  879MOL0     C21199   4.380  10.173  11.385  0.2723  0.3324  0.1692
  879MOL0     O21200   4.470  10.278  11.409 -0.1825  0.3806  0.0289
  879MOL0     C21201   4.455  10.418  11.361  0.1058  0.5843  0.2518
  879MOL0     C21202   4.564  10.516  11.393  0.5661  0.1175 -0.5167
  879MOL0     C21203   4.608  10.495  11.532 -0.3389  0.5413  0.1736
  879MOL0     C21204   4.744  10.562  11.554  1.0994  0.6289 -0.4714
  879MOL0     C21205   4.768  10.568  11.705 -0.1863  0.2902  0.4082
  879MOL0     C21206   4.900  10.635  11.747  0.2887 -0.0455  0.4186
  879MOL0     C21207   4.938  10.545  11.869  1.1895  0.4917  0.3454
  879MOL0     C21208   5.043  10.619  11.959  0.0600  0.0957 -0.1028
  879MOL0    Cl21209   5.184  10.686  11.862 -0.0994  0.1771  0.6147
  879MOL0     C21210   4.416  10.037  11.396  0.4837 -0.5362 -0.5978
  879MOL0     C21211   4.324   9.938  11.364 -1.2316  0.2821  0.9469
  879MOL0     O21212   4.129   9.740  11.468 -0.0103 -0.5154  0.2680
  879MOL0     C21213   4.010   9.525  11.331  0.9659 -0.1652  1.1375
  879MOL0     C21214   3.917   9.430  11.281  0.3202  0.5236  1.0802
  879MOL0     N21215   3.764   9.252  10.656  0.6466  0.0979  0.1439
  879MOL0     N21216   3.773   9.259  10.522 -0.6030  0.2126  0.1035
  879MOL0     C21217   3.794   8.596  10.455 -0.1496  0.5803 -0.8401
  879MOL0     C21218   3.690   8.523  10.515  0.4243 -0.1658 -0.4440
  879MOL0     C21219   3.478   8.187  10.788 -0.7020  0.3544  0.0517
  879MOL0     C21220   3.385   8.278  10.828  1.5531 -0.7547 -0.3720
  879MOL0     C21221   3.310   8.265  10.943  0.2658 -0.0746  0.1076
  879MOL0     C21222   3.335   8.164  11.032 -0.3279 -0.2819  0.8493
  879MOL0     O21223   3.256   8.130  11.146 -0.2630 -0.3178 -0.4493
  879MOL0     C21224   3.192   8.225  11.228 -0.1357 -0.2984 -0.0243
  879MOL0     C21225   3.159   8.157  11.366 -0.2438 -0.4999 -0.0565
  879MOL0     C21226   3.289   8.110  11.440  0.1533  0.1793  0.0875
  879MOL0     C21227   3.409   8.207  11.440  0.7616 -0.1362  0.1955
  879MOL0     C21228   3.375   8.330  11.519  0.3538  0.3401  0.1450
  879MOL0     C21229   3.361   8.426  11.593 -0.1325 -0.3082 -0.5509
  879MOL0     C21230   3.429   8.067  10.983  0.8235  0.0431 -0.6027
  879MOL0     C21231   3.491   8.064  10.856  0.3011 -0.6073 -0.0418
  879MOL0     C21232   3.588   7.949  10.824 -0.9698 -0.3588  0.8000
  879MOL0     H21233   3.856   8.260  10.629 -3.0083 -1.0420  0.1137
  879MOL0     H21234   4.041   8.385  10.519  0.5453 -0.2379  0.5838
  879MOL0     H21235   4.086   8.476  10.279  1.9109 -0.6704  3.1973
  879MOL0     H21236   4.193   8.608  10.324 -0.5312 -2.1875  0.6842
  879MOL0     H21237   4.112   8.617  10.075  1.2147 -1.6342  1.5229
  879MOL0     H21238   3.952   8.647  10.137  0.5716 -0.4972 -0.3798
  879MOL0     H21239   4.179   8.821  10.222 -0.8452  0.3270  0.6238
  879MOL0     H21240   4.104   8.853  10.064  1.7482 -0.3136 -0.8528
  879MOL0     H21241   3.876   8.900  10.175 -0.4009  1.5068  0.5499
  879MOL0     H21242   3.957   8.878  10.327 -2.4554 -1.0855 -1.0196
  879MOL0     H21243   3.978   9.074  10.094 -3.3109  1.9473  1.5055
  879MOL0     H21244   4.123   9.057  10.213 -0.5963 -0.0663  0.3305
  879MOL0     H21245   3.850   9.152  10.262 -0.2069 -2.1339  2.7345
  879MOL0     H21246   3.944   9.098  10.398  0.3952 -0.2037  0.0286
  879MOL0     H21247   4.059   9.309  10.204  0.0344 -0.4815 -0.0796
  879MOL0     H21248   4.112   9.264  10.365 -0.9079  2.1394  1.6465
  879MOL0     H21249   3.980   9.482  10.360 -2.6633  1.5669  0.4019
  879MOL0     H21250   3.840   9.400  10.293 -4.1529 -0.7311  5.0537
  879MOL0     H21251   4.022   9.446  10.626  1.0172 -1.6281 -0.7243
  879MOL0     H21252   3.873   9.442  10.883  0.6494 -0.0671  0.7488
  879MOL0     H21253   4.015   9.355  10.858 -0.5391 -0.8891  2.1868
  879MOL0     H21254   3.893   9.135  10.901  2.0717  1.7721 -0.4072
  879MOL0     H21255   3.903   9.241  11.037 -0.2166 -1.1124  1.2991
  879MOL0     H21256   3.638   9.224  10.870  0.5696 -1.0253  0.3048
  879MOL0     H21257   3.657   9.140  11.012 -1.7314  0.3030  0.2888
  879MOL0     H21258   3.680   9.440  10.976  2.5497  0.7058  0.1976
  879MOL0     H21259   3.551   9.346  11.057  0.6212 -0.0036  0.5370
  879MOL0     H21260   3.693   9.603  11.109  1.9172  1.7091 -2.1371
  879MOL0     H21261   3.724   9.836  11.152 -0.3967 -3.1626 -2.5434
  879MOL0     H21262   3.886   9.851  11.091  0.7167 -0.8696  0.5788
  879MOL0     H21263   3.854   9.887  11.266 -2.4981 -0.0625  0.5507
  879MOL0     H21264   4.048  10.127  11.294  1.3898  3.8144 -1.3663
  879MOL0     H21265   4.210  10.300  11.353 -1.0956  0.3429  1.1416
  879MOL0     H21266   4.439  10.422  11.253 -0.3419 -2.5592  0.1176
  879MOL0     H21267   4.365  10.460  11.407  1.5510  1.1673  2.7538
  879MOL0     H21268   4.649  10.526  11.325  0.8779 -0.3823 -0.2058
  879MOL0     H21269   4.522  10.617  11.385 -2.2208 -0.5213  3.2755
  879MOL0     H21270   4.626  10.389  11.555 -0.5997 -0.3349 -3.1434
  879MOL0     H21271   4.536  10.531  11.606  0.4362 -1.4965  2.0464
  879MOL0     H21272   4.733  10.667  11.524  1.7804  1.3729  1.6928
  879MOL0     H21273   4.822  10.515  11.492  1.1418 -0.1033  0.1233
  879MOL0     H21274   4.684  10.608  11.762 -0.1327 -1.2708  1.6498
  879MOL0     H21275   4.769  10.464  11.741 -0.5181 -0.2752 -1.1243
  879MOL0     H21276   4.886  10.741  11.772 -4.3121 -0.8727  2.3219
  879MOL0     H21277   4.978  10.622  11.672 -1.6581 -0.4774 -1.6341
  879MOL0     H21278   4.977  10.445  11.846  3.8970  1.5088  0.1693
  879MOL0     H21279   4.857  10.535  11.942  1.4131 -0.6929  0.4564
  879MOL0     H21280   5.073  10.553  12.041  1.3821  1.4382  0.5481
  879MOL0     H21281   5.002  10.710  12.004  2.6796  1.7042 -0.7354
  879MOL0     H21282   4.520  10.018  11.422  1.0739  1.5628 -1.2124
  879MOL0     H21283   4.350   9.834  11.379 -0.3868  0.4312  0.5765
  879MOL0     H21284   4.096   9.501  11.392  1.1990  1.4662  1.5101
  879MOL0     H21285   3.933   9.323  11.294 -2.0407 -0.8520 -4.5499
  879MOL0     H21286   3.761   8.689  10.410  0.2966  1.2144  0.1067
  879MOL0     H21287   3.593   8.570  10.509 -0.1223 -1.4282 -2.2257
  879MOL0     H21288   3.374   8.360  10.757 -0.4294 -2.0137 -1.6498
  879MOL0     H21289   3.225   8.332  10.949 -0.9087 -1.1755 -2.6348
  879MOL0     H21290   3.233   8.327  11.231 -3.3219  1.0715  1.0188
  879MOL0     H21291   3.095   8.235  11.178  1.2367 -1.2355 -3.1153
  879MOL0     H21292   3.083   8.080  11.353 -0.3206 -1.1243  3.2649
  879MOL0     H21293   3.117   8.234  11.431  0.9379 -0.9514  1.3223
  879MOL0     H21294   3.255   8.065  11.534 -0.3455  1.0639  0.3364
  879MOL0     H21295   3.334   8.026  11.386  0.8784  2.2569 -2.7387
  879MOL0     H21296   3.431   8.251  11.343 -1.1737 -1.1329 -0.7498
  879MOL0     H21297   3.495   8.167  11.494  1.8129  1.7371 -0.0059
  879MOL0     H21298   3.334   8.513  11.650  3.8440 -0.5734  2.2342
  879MOL0     H21299   3.446   7.986  11.054  0.7259  1.4163  1.0402
  879MOL0     H21300   3.692   7.977  10.841 -1.2742  1.1525  0.2870
  879MOL0     H21301   3.550   7.867  10.886 -0.8000  0.3433  1.8562
  879MOL0     H21302   3.579   7.925  10.717  0.2446  0.1740  0.5622
  880MOL0     O21303  10.595   5.942   5.256 -0.1430  0.3879  0.6077
  880MOL0     C21304  10.535   5.848   5.315 -0.5986  0.0452 -0.6618
  880MOL0     O21305  10.538   5.825   5.454  0.0854 -0.4031  0.1551
  880MOL0     C21306  10.617   5.896   5.539  0.5284 -0.0013 -0.2070
  880MOL0     C21307  10.564   6.007   5.597  0.3239 -1.4897  0.6033
  880MOL0     C21308  10.643   6.085   5.679 -0.5386 -0.9121 -0.4469
  880MOL0     C21309  10.770   6.058   5.705 -1.0274  0.0780  0.2456
  880MOL0     O21310  10.852   6.145   5.762 -0.2355  0.0076 -0.0906
  880MOL0     C21311  10.798   6.248   5.851 -0.4965 -0.2603  0.2313
  880MOL0     C21312  10.911   6.297   5.941  0.4464  0.4047  0.2635
  880MOL0     C21313  10.977   6.407   5.878  0.6108 -0.7553  0.7276
  880MOL0     C21314  11.073   6.452   5.985  0.3633  0.4022 -0.8507
  880MOL0     C21315  11.168   6.564   5.923  1.1754  0.6566 -0.3532
  880MOL0     C21316  11.243   6.628   6.032  0.0055  0.1380 -0.0953
  880MOL0     C21317  11.306   6.758   5.980  0.2152  0.6257  0.1784
  880MOL0     C21318  11.440   6.787   6.042  0.2882  0.1411 -0.3039
  880MOL0     N21319  11.490   6.913   5.988  0.0552  1.0169  0.2378
  880MOL0     C21320  11.563   6.917   5.870 -0.0151 -0.5777  0.0940
  880MOL0     C21321  11.608   7.045   5.871 -0.1877 -0.0995  0.4737
  880MOL0     C21322  11.684   7.112   5.758  0.4086  0.5028 -0.3996
  880MOL0     C21323  11.833   7.095   5.797 -0.3440 -0.7230  1.3573
  880MOL0     C21324  11.943   7.144   5.706 -0.0571  0.8734  0.2031
  880MOL0     C21325  11.907   7.254   5.612  0.7358  0.7335  0.4920
  880MOL0     O21326  12.027   7.291   5.546  0.8012  0.4441 -0.1225
  880MOL0     C21327  12.124   7.359   5.612  0.1065  0.5285 -0.2952
  880MOL0     C21328  12.228   7.370   5.533 -0.3800 -1.2575 -0.3538
  880MOL0     C21329  12.340   7.438   5.576 -0.3145  0.2574 -0.3393
  880MOL0     C21330  12.456   7.475   5.476  0.9522 -0.7089  0.5303
  880MOL0     C21331  12.353   7.476   5.716  0.4798  0.2010 -0.5660
  880MOL0     C21332  12.474   7.539   5.777  0.6532  0.0236  0.3640
  880MOL0     O21333  12.451   7.592   5.901 -0.3746  0.5915 -0.0152
  880MOL0     C21334  12.561   7.598   5.981  0.9209 -0.6738  0.1554
  880MOL0     C21335  12.677   7.520   5.977 -0.2104  0.7733  0.4173
  880MOL0     C21336  12.771   7.536   6.080  0.3549  0.3194 -0.0743
  880MOL0     C21337  12.757   7.626   6.182  0.3795  0.4304  0.0970
  880MOL0     O21338  12.838   7.631   6.288  0.4085  0.0269  0.9895
  880MOL0     C21339  12.966   7.557   6.282 -0.6524 -0.8414 -0.1285
  880MOL0     C21340  13.033   7.546   6.412 -0.4524 -0.5484  0.0372
  880MOL0     C21341  13.108   7.671   6.467 -0.6633 -0.3618  0.7916
  880MOL0     C21342  13.167   7.629   6.599 -0.1472  1.1141 -1.2120
  880MOL0     C21343  13.279   7.718   6.645 -0.0541  0.8068 -0.5834
  880MOL0     C21344  13.248   7.858   6.627 -0.4775  0.2142  0.1743
  880MOL0     C21345  13.324   7.934   6.736  0.7601 -0.0716  1.2738
  880MOL0     C21346  13.300   8.080   6.715 -0.3076  0.4632 -0.6888
  880MOL0    Cl21347  13.381   8.114   6.562 -0.1203 -0.0468  0.3158
  880MOL0     C21348  12.645   7.700   6.184 -0.4637 -0.8396  0.2348
  880MOL0     C21349  12.556   7.689   6.085  0.2089 -0.7201  0.1929
  880MOL0     O21350  12.586   7.528   5.714 -0.1931 -0.3974  0.4069
  880MOL0     C21351  12.240   7.442   5.800  0.1121  0.0664 -0.1082
  880MOL0     C21352  12.128   7.386   5.751 -0.0633 -0.0812  0.7122
  880MOL0     N21353  11.567   7.110   5.988 -0.2845 -0.5615 -0.3314
  880MOL0     N21354  11.503   7.020   6.058  0.1273 -0.1579 -0.1412
  880MOL0     C21355  10.835   5.941   5.652 -0.0215  0.4089  0.5332
  880MOL0     C21356  10.749   5.862   5.568  0.2055 -0.0299 -1.0820
  880MOL0     C21357  10.448   5.753   5.238 -1.3312  0.3396  0.6024
  880MOL0     C21358  10.323   5.702   5.298  0.3292  0.0081  0.8046
  880MOL0     C21359  10.249   5.606   5.224  0.3275  0.3188  0.4853
  880MOL0     C21360  10.295   5.554   5.105 -0.2345  0.1179 -1.0549
  880MOL0     O21361  10.211   5.455   5.049  0.0222 -0.3710 -0.2887
  880MOL0     C21362  10.259   5.404   4.923  0.4318  0.5832  0.0005
  880MOL0     C21363  10.167   5.287   4.873  0.2659  0.3151 -0.3463
  880MOL0     C21364  10.021   5.325   4.841 -0.3456 -0.2831  0.0377
  880MOL0     C21365   9.936   5.211   4.800 -0.6866 -0.3593 -0.4074
  880MOL0     C21366   9.913   5.123   4.912  0.2205 -0.0688 -0.6399
  880MOL0     C21367   9.898   5.060   5.018  0.4507  0.2476 -0.6158
  880MOL0     C21368  10.411   5.602   5.049 -0.0126  0.0979 -0.8309
  880MOL0     C21369  10.491   5.703   5.109  0.4241  0.6998  0.5246
  880MOL0     C21370  10.610   5.757   5.039 -0.8077 -1.4049  0.4278
  880MOL0     H21371  10.463   6.041   5.580  0.3992 -0.9573  1.2133
  880MOL0     H21372  10.607   6.178   5.721  4.2527  1.3788 -0.7732
  880MOL0     H21373  10.717   6.203   5.909 -2.0088  0.6931 -1.0717
  880MOL0     H21374  10.753   6.333   5.801  1.8220  1.4954  0.9371
  880MOL0     H21375  10.866   6.323   6.037  0.8242 -0.7196  0.7594
  880MOL0     H21376  10.983   6.216   5.952  1.8876  1.6659  0.5477
  880MOL0     H21377  11.036   6.372   5.793  0.4094  0.5476  0.0368
  880MOL0     H21378  10.903   6.482   5.851  0.4024 -0.1368  2.8395
  880MOL0     H21379  11.033   6.481   6.083  1.9260 -1.1449  0.3344
  880MOL0     H21380  11.142   6.370   6.010 -0.1186 -0.9317 -3.5264
  880MOL0     H21381  11.106   6.637   5.870  1.0317 -0.3482 -1.6243
  880MOL0     H21382  11.243   6.528   5.852  0.0550 -1.8806 -0.3776
  880MOL0     H21383  11.176   6.659   6.113 -0.4261 -0.0148 -0.3909
  880MOL0     H21384  11.316   6.556   6.069 -1.6949 -1.6377 -0.0693
  880MOL0     H21385  11.236   6.840   6.001 -1.9970 -0.7262 -1.3647
  880MOL0     H21386  11.330   6.764   5.873  1.6486  0.1646  0.4574
  880MOL0     H21387  11.421   6.795   6.150 -1.4366  2.6398 -0.6908
  880MOL0     H21388  11.517   6.713   6.020 -0.2695 -0.3634 -0.5753
  880MOL0     H21389  11.566   6.854   5.782 -4.1015  0.2088 -0.8365
  880MOL0     H21390  11.653   7.215   5.739  3.5905  1.3855 -1.4128
  880MOL0     H21391  11.671   7.050   5.669  1.2979 -1.2563  0.6508
  880MOL0     H21392  11.836   7.151   5.891 -0.1416  1.4327  0.1244
  880MOL0     H21393  11.856   6.991   5.823 -1.9227 -1.0162  1.6938
  880MOL0     H21394  12.025   7.168   5.774 -1.4634  3.1030  1.2387
  880MOL0     H21395  11.976   7.063   5.640 -1.0921  1.7727 -1.4886
  880MOL0     H21396  11.835   7.210   5.542  1.9449  1.4005 -1.2364
  880MOL0     H21397  11.844   7.329   5.661 -1.1805 -0.6489  0.2730
  880MOL0     H21398  12.228   7.339   5.429 -0.3947 -2.7366  0.0667
  880MOL0     H21399  12.548   7.422   5.503  1.2509 -0.1385  0.6335
  880MOL0     H21400  12.454   7.584   5.481  1.3126 -0.7616  3.4409
  880MOL0     H21401  12.439   7.441   5.373 -1.9520  2.2788 -0.1272
  880MOL0     H21402  12.700   7.445   5.902 -0.6604 -0.0301  1.0731
  880MOL0     H21403  12.852   7.464   6.076 -1.7704 -2.5981  3.2611
  880MOL0     H21404  12.954   7.453   6.253 -0.7399 -1.2002  1.1332
  880MOL0     H21405  13.038   7.613   6.221  0.5682  1.0846  2.8511
  880MOL0     H21406  12.958   7.513   6.485 -0.0148 -0.2271  0.6404
  880MOL0     H21407  13.109   7.468   6.404 -0.7552 -0.7694 -0.8995
  880MOL0     H21408  13.039   7.756   6.465 -1.2631 -0.8504  0.4643
  880MOL0     H21409  13.192   7.708   6.408 -0.8894  2.1465  1.9304
  880MOL0     H21410  13.201   7.526   6.588 -0.2996  1.1230 -1.7963
  880MOL0     H21411  13.093   7.631   6.680  2.1701  1.1703  1.0569
  880MOL0     H21412  13.319   7.701   6.745  0.9731 -0.2604 -1.1537
  880MOL0     H21413  13.371   7.698   6.589  0.1426  1.1376 -0.3840
  880MOL0     H21414  13.141   7.879   6.640 -0.5635 -0.9549  1.6799
  880MOL0     H21415  13.285   7.895   6.532  0.9476 -0.0925  0.5868
  880MOL0     H21416  13.429   7.909   6.717 -0.0940 -2.6533 -0.7425
  880MOL0     H21417  13.310   7.896   6.838  2.2113 -2.1118  0.7840
  880MOL0     H21418  13.354   8.132   6.795 -0.9584 -0.1201  0.1433
  880MOL0     H21419  13.192   8.096   6.717 -0.5288 -0.9333 -0.0743
  880MOL0     H21420  12.639   7.765   6.271 -1.0295 -1.4357  0.6504
  880MOL0     H21421  12.475   7.760   6.076  1.4138  0.6754 -0.0806
  880MOL0     H21422  12.249   7.454   5.908 -2.7161 -1.5482  0.3970
  880MOL0     H21423  12.044   7.352   5.811 -0.3209 -0.3947  0.1818
  880MOL0     H21424  10.936   5.907   5.672 -0.8818 -0.3348  4.3879
  880MOL0     H21425  10.795   5.772   5.530  1.5592 -0.9219  2.3394
  880MOL0     H21426  10.287   5.736   5.395 -0.6621  0.1398  0.4012
  880MOL0     H21427  10.154   5.570   5.260  1.1912 -1.6141  0.9512
  880MOL0     H21428  10.258   5.481   4.845  2.9919  0.8331  0.1488
  880MOL0     H21429  10.363   5.372   4.920  0.2269 -0.0187 -1.2961
  880MOL0     H21430  10.175   5.199   4.936  1.2979 -0.0460 -0.9628
  880MOL0     H21431  10.222   5.264   4.781  0.3856  0.7551 -0.3923
  880MOL0     H21432   9.988   5.384   4.927  0.6883  0.1957  0.1168
  880MOL0     H21433  10.021   5.384   4.749 -2.5313 -0.0758  0.1089
  880MOL0     H21434   9.977   5.145   4.723 -2.6122 -2.5770  0.3608
  880MOL0     H21435   9.837   5.247   4.769 -0.6379  0.2374  0.1172
  880MOL0     H21436   9.882   5.002   5.107 -0.4545  1.9758  0.4181
  880MOL0     H21437  10.452   5.570   4.954 -0.3063  2.3415 -1.7524
  880MOL0     H21438  10.589   5.859   5.005 -0.2029 -1.2152  0.6222
  880MOL0     H21439  10.705   5.756   5.093  0.2487 -0.3501 -1.2995
  880MOL0     H21440  10.640   5.706   4.947  0.3189  5.2063 -3.5899
  881MOL0     O21441   8.811   3.349   5.421 -0.3416  0.0080 -0.8351
  881MOL0     C21442   8.706   3.422   5.420 -2.1203 -0.4893 -0.3906
  881MOL0     O21443   8.702   3.560   5.413  0.0069 -0.3681 -0.6388
  881MOL0     C21444   8.799   3.611   5.342 -1.1158  0.6686 -0.1204
  881MOL0     C21445   8.916   3.655   5.407 -0.1717 -0.5647  0.6098
  881MOL0     C21446   9.013   3.715   5.329  0.3317 -0.0388  0.1053
  881MOL0     C21447   8.985   3.746   5.194 -0.5792 -0.1144 -0.2011
  881MOL0     O21448   9.070   3.810   5.114  0.6202 -0.3651 -0.0910
  881MOL0     C21449   9.135   3.921   5.162 -0.6612  0.7265  0.2148
  881MOL0     C21450   9.285   3.913   5.206  0.1385 -0.1334 -0.5862
  881MOL0     C21451   9.346   4.051   5.244  0.6455 -0.0744 -0.0766
  881MOL0     C21452   9.398   4.052   5.384 -0.4749  0.5297  0.1197
  881MOL0     C21453   9.534   3.968   5.386  0.6825 -0.1434 -0.2219
  881MOL0     C21454   9.603   3.992   5.519 -0.0948 -0.4039  0.0059
  881MOL0     C21455   9.756   3.963   5.520 -0.4634  0.1987 -0.3437
  881MOL0     C21456   9.806   3.980   5.665  0.9103 -0.0107  0.5167
  881MOL0     N21457   9.763   3.862   5.749  0.6001 -0.7889  0.3355
  881MOL0     C21458   9.806   3.729   5.730 -0.7257  0.6054 -1.2749
  881MOL0     C21459   9.742   3.666   5.830 -0.7378  0.0278  0.1280
  881MOL0     C21460   9.751   3.513   5.867  0.3744  0.0997 -0.3594
  881MOL0     C21461   9.891   3.455   5.849 -0.2683  0.2323 -0.6925
  881MOL0     C21462   9.946   3.364   5.968 -1.6736 -0.6039 -0.2261
  881MOL0     C21463  10.101   3.353   5.943  0.0328  0.7841  0.0724
  881MOL0     O21464  10.136   3.341   5.802  0.0317  0.2735  0.9991
  881MOL0     C21465  10.260   3.301   5.771  0.1202 -0.7325  0.5853
  881MOL0     C21466  10.277   3.295   5.630 -0.2817 -0.6851 -0.1423
  881MOL0     C21467  10.396   3.239   5.569  0.6509  0.0398  0.1613
  881MOL0     C21468  10.405   3.237   5.413  1.3207 -0.5952 -0.2064
  881MOL0     C21469  10.499   3.186   5.657  0.4616  0.3565  0.0717
  881MOL0     C21470  10.613   3.126   5.594  0.0403 -0.3551  0.5603
  881MOL0     O21471  10.606   2.995   5.557  0.3930  0.0462  0.5898
  881MOL0     C21472  10.680   2.956   5.451 -0.7906  0.4134  0.5533
  881MOL0     C21473  10.615   2.864   5.359 -0.0628 -0.2224  0.2076
  881MOL0     C21474  10.689   2.823   5.247  0.6801 -0.2802  0.1476
  881MOL0     C21475  10.826   2.842   5.241 -0.0552 -0.3903  0.4947
  881MOL0     O21476  10.880   2.777   5.135 -0.9323  0.2206 -0.8715
  881MOL0     C21477  11.021   2.791   5.108 -0.0727 -1.0297  0.1006
  881MOL0     C21478  11.057   2.742   4.967 -0.0248 -0.4536 -0.1842
  881MOL0     C21479  11.180   2.661   4.951 -0.0312 -0.8130  0.0866
  881MOL0     C21480  11.187   2.528   5.029  0.1756  0.2056  0.9379
  881MOL0     C21481  11.338   2.467   5.037  0.3388  0.0542 -0.8116
  881MOL0     C21482  11.331   2.327   5.084  0.2809  0.1827 -0.0456
  881MOL0     C21483  11.467   2.250   5.099  0.2408  0.3307 -0.1151
  881MOL0     C21484  11.466   2.096   5.109  0.5486 -1.0397 -0.1609
  881MOL0    Cl21485  11.385   2.016   4.964 -0.0051  0.0543 -0.3601
  881MOL0     C21486  10.893   2.907   5.338  0.1149  0.5769 -0.1429
  881MOL0     C21487  10.824   2.975   5.436  0.6928  0.2999  0.1736
  881MOL0     O21488  10.714   3.197   5.591  0.1078 -0.5863  0.4074
  881MOL0     C21489  10.485   3.188   5.794 -0.2136 -0.3730 -0.1094
  881MOL0     C21490  10.365   3.248   5.846 -0.1381 -0.5056  0.8778
  881MOL0     N21491   9.663   3.766   5.896  0.0417 -0.1683  0.3011
  881MOL0     N21492   9.679   3.876   5.847  0.3447  0.4770 -0.6091
  881MOL0     C21493   8.865   3.699   5.131  0.0290 -0.1791  1.0999
  881MOL0     C21494   8.777   3.624   5.205 -0.2593  0.2597  0.0490
  881MOL0     C21495   8.577   3.354   5.423 -0.4212  0.4125 -1.0641
  881MOL0     C21496   8.471   3.438   5.392 -0.2027 -0.6302 -1.3570
  881MOL0     C21497   8.343   3.392   5.398 -0.3294 -0.2909  0.4882
  881MOL0     C21498   8.317   3.260   5.428 -0.0686 -0.8632 -1.5246
  881MOL0     O21499   8.192   3.209   5.427 -0.3033  0.4606 -0.4575
  881MOL0     C21500   8.141   3.164   5.562 -0.1995  0.6979 -0.3214
  881MOL0     C21501   8.032   3.254   5.618 -0.0772  0.3931 -0.1173
  881MOL0     C21502   8.078   3.388   5.667 -1.2878  0.2636 -0.2701
  881MOL0     C21503   7.982   3.435   5.769 -0.9632  0.3115 -0.3094
  881MOL0     C21504   8.035   3.547   5.850  0.2820  0.1359  0.7391
  881MOL0     C21505   8.079   3.627   5.937 -0.5041 -0.1484  0.7844
  881MOL0     C21506   8.424   3.181   5.449  0.0075  0.9511 -0.2023
  881MOL0     C21507   8.560   3.218   5.446  0.0736 -0.0334 -0.6021
  881MOL0     C21508   8.667   3.109   5.479 -0.1399 -1.4724 -0.3870
  881MOL0     H21509   8.934   3.650   5.514 -0.9567  2.5956  0.9852
  881MOL0     H21510   9.112   3.726   5.371 -0.1522  0.4336  1.1657
  881MOL0     H21511   9.080   3.954   5.250 -1.0321 -1.9342  1.0553
  881MOL0     H21512   9.130   4.003   5.089  0.3131  2.2608  1.7789
  881MOL0     H21513   9.286   3.839   5.287 -0.7640 -1.3076 -1.6029
  881MOL0     H21514   9.345   3.881   5.120 -0.3598  0.6072 -1.2202
  881MOL0     H21515   9.429   4.092   5.186  0.5253  0.2287 -0.0355
  881MOL0     H21516   9.264   4.121   5.229  0.7152 -0.2223 -1.2449
  881MOL0     H21517   9.418   4.159   5.392  1.8071  0.1476  0.3549
  881MOL0     H21518   9.337   4.008   5.463  2.6826 -0.5953  2.1234
  881MOL0     H21519   9.604   4.003   5.309  0.1803  0.6059 -0.3408
  881MOL0     H21520   9.513   3.861   5.373 -0.1261  0.1039 -0.9991
  881MOL0     H21521   9.582   4.094   5.553 -2.5753 -0.6726 -0.5097
  881MOL0     H21522   9.565   3.925   5.597  1.1176 -1.3700 -0.2013
  881MOL0     H21523   9.804   4.023   5.442  0.0824  0.3751  0.1237
  881MOL0     H21524   9.768   3.857   5.493  1.5320 -0.7026  3.4063
  881MOL0     H21525   9.915   3.976   5.667  0.9595  1.1487  1.0066
  881MOL0     H21526   9.771   4.080   5.695 -0.5762  0.3066 -2.0408
  881MOL0     H21527   9.883   3.700   5.658 -1.0465 -1.2768 -0.9123
  881MOL0     H21528   9.676   3.463   5.804  2.1283 -1.0576 -1.6167
  881MOL0     H21529   9.710   3.492   5.966 -0.3373  0.1698 -0.6302
  881MOL0     H21530   9.897   3.405   5.752  0.4647  0.1669 -0.6172
  881MOL0     H21531   9.959   3.541   5.846 -0.7037  0.6234  0.1351
  881MOL0     H21532   9.922   3.404   6.067 -1.8132 -0.8612 -0.1545
  881MOL0     H21533   9.897   3.266   5.969 -1.0819 -0.9505  2.6859
  881MOL0     H21534  10.159   3.435   5.985  0.9794 -0.2765  0.9296
  881MOL0     H21535  10.136   3.266   6.000  0.2799 -0.9091 -2.4679
  881MOL0     H21536  10.195   3.339   5.572  0.0286 -2.6414 -2.1769
  881MOL0     H21537  10.478   3.310   5.378  2.2716 -2.6498 -2.8314
  881MOL0     H21538  10.304   3.258   5.379  0.4935 -0.7564  2.0085
  881MOL0     H21539  10.447   3.141   5.381  0.7590 -0.7911 -0.3607
  881MOL0     H21540  10.509   2.845   5.354 -0.0405 -0.0846 -1.9689
  881MOL0     H21541  10.647   2.777   5.158 -0.0207  0.9424 -0.1867
  881MOL0     H21542  11.062   2.891   5.122  0.3919 -1.5454  3.2621
  881MOL0     H21543  11.072   2.730   5.184  1.3394  1.4293  1.2530
  881MOL0     H21544  10.977   2.678   4.929  1.0577 -3.0613  1.6244
  881MOL0     H21545  11.044   2.826   4.899  0.4989 -1.3527 -1.4339
  881MOL0     H21546  11.259   2.723   4.994  1.8206 -1.9197 -1.5928
  881MOL0     H21547  11.210   2.642   4.848 -1.7648  0.7970 -0.7799
  881MOL0     H21548  11.107   2.464   4.988 -1.8026  2.0697  1.7097
  881MOL0     H21549  11.167   2.546   5.135  0.3929  1.1573  0.8233
  881MOL0     H21550  11.391   2.466   4.941  0.3500 -1.7452 -0.8239
  881MOL0     H21551  11.398   2.527   5.105 -0.5570  0.6569 -0.5341
  881MOL0     H21552  11.252   2.283   5.023 -2.1653  3.3469  0.5587
  881MOL0     H21553  11.298   2.328   5.189 -1.6282  0.8852 -0.6202
  881MOL0     H21554  11.525   2.281   5.186 -1.5208 -2.4675  2.2113
  881MOL0     H21555  11.516   2.280   5.006 -1.8417  1.7884 -0.8225
  881MOL0     H21556  11.428   2.066   5.207  0.3475 -1.6148 -0.4071
  881MOL0     H21557  11.568   2.056   5.105  0.3440 -1.6277  0.3767
  881MOL0     H21558  11.000   2.916   5.325  0.4411 -3.1899 -1.3797
  881MOL0     H21559  10.874   3.031   5.515 -0.5583  2.8739 -0.7424
  881MOL0     H21560  10.565   3.147   5.855  0.2210 -0.6615 -0.8581
  881MOL0     H21561  10.362   3.237   5.954  1.3408  0.6870  1.0864
  881MOL0     H21562   8.839   3.727   5.029 -2.5957  1.3270  2.0827
  881MOL0     H21563   8.694   3.577   5.154  1.1797 -1.7170 -0.5854
  881MOL0     H21564   8.477   3.544   5.370 -0.6220 -0.2896  0.0764
  881MOL0     H21565   8.252   3.448   5.377  0.5017  0.4198 -1.4781
  881MOL0     H21566   8.094   3.066   5.548 -3.2749  2.4122 -3.4215
  881MOL0     H21567   8.227   3.166   5.630 -1.2127  0.1095  1.0186
  881MOL0     H21568   7.970   3.194   5.685  0.4673  2.1138  2.0119
  881MOL0     H21569   7.974   3.276   5.528  0.0124 -1.1120 -0.5760
  881MOL0     H21570   8.170   3.384   5.727 -1.1642  2.3187 -0.2787
  881MOL0     H21571   8.083   3.463   5.588  0.2657 -1.5107 -1.9543
  881MOL0     H21572   7.966   3.355   5.842 -1.0284  1.8322  1.4105
  881MOL0     H21573   7.887   3.468   5.725 -0.6533  1.1520 -0.3747
  881MOL0     H21574   8.113   3.691   6.016  2.8087  0.5563 -1.0073
  881MOL0     H21575   8.403   3.076   5.464  1.4231  0.6806 -0.0120
  881MOL0     H21576   8.732   3.093   5.392 -0.2402 -0.6290 -0.6227
  881MOL0     H21577   8.742   3.143   5.551  1.5617 -1.5536 -2.0312
  881MOL0     H21578   8.627   3.018   5.524  0.4656 -0.6602  1.9107
  882MOL0     O21579  11.286   2.134   0.363 -0.1732  0.0947  0.2434
  882MOL0     C21580  11.174   2.179   0.388  0.0761 -0.0219 -0.3650
  882MOL0     O21581  11.087   2.256   0.303 -0.1351 -0.0449  0.2749
  882MOL0     C21582  11.096   2.257   0.163 -0.5896  0.3134 -0.3478
  882MOL0     C21583  11.022   2.357   0.105  0.5123 -0.1909 -0.3398
  882MOL0     C21584  11.002   2.373  -0.034 -0.1169 -0.1395 -0.4954
  882MOL0     C21585  11.066   2.284  -0.118 -0.1401 -0.3916  0.9011
  882MOL0     O21586  11.052   2.276  -0.256  0.2573  0.2462 -0.6361
  882MOL0     C21587  10.963   2.370  -0.317  0.4557  0.3629 -0.5735
  882MOL0     C21588  10.985   2.375  -0.475  0.4139 -0.1649 -0.0728
  882MOL0     C21589  11.094   2.474  -0.504 -0.7407 -0.2886  0.1741
  882MOL0     C21590  11.148   2.474  -0.647  0.7795  0.6773  0.5574
  882MOL0     C21591  11.217   2.605  -0.671  0.2269  0.1984 -0.7539
  882MOL0     C21592  11.297   2.620  -0.807  0.5964 -0.1962  0.8914
  882MOL0     C21593  11.355   2.759  -0.821 -0.3937  0.4122  0.1243
  882MOL0     C21594  11.418   2.789  -0.955  0.0002  0.1995  0.3373
  882MOL0     N21595  11.538   2.718  -0.999  0.3311 -0.7828  0.6886
  882MOL0     C21596  11.657   2.725  -0.936  0.3040 -0.0073 -0.2417
  882MOL0     C21597  11.731   2.623  -0.989  0.2915 -0.6369  0.1162
  882MOL0     C21598  11.874   2.594  -0.952 -0.8531  0.4382  0.3465
  882MOL0     C21599  11.967   2.700  -1.019 -0.5556  0.3367  0.0236
  882MOL0     C21600  12.099   2.738  -0.941  0.9109 -0.4468 -0.0919
  882MOL0     C21601  12.190   2.618  -0.919  0.7510 -0.0001 -0.4329
  882MOL0     O21602  12.122   2.538  -0.823  0.4225 -0.1109  0.3637
  882MOL0     C21603  12.208   2.520  -0.718  0.0416  0.3018 -0.6827
  882MOL0     C21604  12.323   2.444  -0.726 -0.1311  0.0229 -0.6432
  882MOL0     C21605  12.395   2.421  -0.603  0.0942  0.2315  0.1037
  882MOL0     C21606  12.528   2.340  -0.606 -0.5015 -0.2596 -0.8403
  882MOL0     C21607  12.346   2.485  -0.484  0.5330  0.5317  0.7721
  882MOL0     C21608  12.415   2.473  -0.351 -0.2889  0.3304 -0.1376
  882MOL0     O21609  12.325   2.435  -0.253  0.0904 -0.2389  0.5774
  882MOL0     C21610  12.387   2.357  -0.156  0.5503  0.0902  0.0420
  882MOL0     C21611  12.474   2.245  -0.172  0.1141 -0.8181  0.2660
  882MOL0     C21612  12.540   2.185  -0.067 -0.4184 -0.2129  0.0633
  882MOL0     C21613  12.540   2.233   0.068 -0.1078  0.6506  0.2471
  882MOL0     O21614  12.634   2.189   0.161 -0.7338 -0.3203 -0.1389
  882MOL0     C21615  12.651   2.238   0.296 -0.9921  0.0579 -0.2164
  882MOL0     C21616  12.720   2.381   0.306  0.0458  1.3086  0.6331
  882MOL0     C21617  12.711   2.438   0.449  0.4091 -0.1484 -0.7394
  882MOL0     C21618  12.785   2.351   0.551  0.1561 -0.3351  0.6660
  882MOL0     C21619  12.767   2.425   0.683  0.5900 -0.8261 -0.5496
  882MOL0     C21620  12.783   2.342   0.815  0.1150 -0.0773  0.1662
  882MOL0     C21621  12.746   2.423   0.942  0.1668  0.0906  0.7430
  882MOL0     C21622  12.794   2.565   0.943  0.1696  0.9912  0.4194
  882MOL0    Cl21623  12.975   2.564   0.935  0.2232 -0.1485 -0.0269
  882MOL0     C21624  12.445   2.333   0.091  0.6104  0.5293 -0.0762
  882MOL0     C21625  12.375   2.393  -0.019  0.4575  0.4552  0.6771
  882MOL0     O21626  12.534   2.506  -0.337 -0.0969  0.8208 -0.3313
  882MOL0     C21627  12.231   2.568  -0.488  0.0178 -0.1103 -0.3207
  882MOL0     C21628  12.161   2.578  -0.608 -0.8186  1.0007 -0.5274
  882MOL0     N21629  11.653   2.577  -1.094 -1.1985  0.1487 -0.0435
  882MOL0     N21630  11.545   2.631  -1.098 -0.2822  0.6184  0.0311
  882MOL0     C21631  11.154   2.191  -0.056 -0.7287 -0.0652  0.6130
  882MOL0     C21632  11.174   2.185   0.081  0.2600  0.6109  0.8651
  882MOL0     C21633  11.122   2.156   0.529 -0.7386 -0.2987  0.3589
  882MOL0     C21634  11.210   2.090   0.627  0.6475  0.4038  0.4419
  882MOL0     C21635  11.168   2.041   0.747 -0.2396 -0.1936 -0.7734
  882MOL0     C21636  11.038   2.079   0.792 -0.0910  0.0902  0.2115
  882MOL0     O21637  10.997   2.052   0.921  0.6405 -0.9513 -0.3170
  882MOL0     C21638  11.029   2.157   1.003 -0.1927 -0.8400 -0.2481
  882MOL0     C21639  10.902   2.208   1.069  0.9397 -0.0066 -0.0454
  882MOL0     C21640  10.915   2.357   1.117 -0.3819 -0.1383  0.1664
  882MOL0     C21641  10.823   2.385   1.237  0.0854 -0.6765 -0.1224
  882MOL0     C21642  10.688   2.426   1.203  0.0489 -0.7043  0.4538
  882MOL0     C21643  10.579   2.480   1.172 -0.6669  0.1303 -0.0683
  882MOL0     C21644  10.951   2.137   0.707  0.1229 -0.8420  0.1365
  882MOL0     C21645  10.984   2.175   0.577  0.1775 -0.5952 -0.7654
  882MOL0     C21646  10.874   2.236   0.482 -0.3320 -1.1401  0.7511
  882MOL0     H21647  10.973   2.430   0.168 -2.4520  0.2344 -2.8589
  882MOL0     H21648  10.929   2.446  -0.066 -1.2617 -1.8438 -1.9685
  882MOL0     H21649  10.980   2.473  -0.284  0.5625  0.2634 -0.3164
  882MOL0     H21650  10.860   2.338  -0.295  1.0141 -1.0592  0.0840
  882MOL0     H21651  11.010   2.276  -0.513 -0.0382  1.3332 -4.9287
  882MOL0     H21652  10.898   2.397  -0.537 -1.1902 -1.2587  1.6690
  882MOL0     H21653  11.049   2.572  -0.487  0.6722  0.6137 -1.0588
  882MOL0     H21654  11.173   2.469  -0.429 -0.0340 -0.9265 -0.5884
  882MOL0     H21655  11.212   2.385  -0.656 -0.2170 -0.3129  2.4318
  882MOL0     H21656  11.064   2.462  -0.715  2.6028 -1.1672 -1.5323
  882MOL0     H21657  11.281   2.634  -0.587  0.3887  1.9612 -1.4587
  882MOL0     H21658  11.136   2.677  -0.679 -0.4876 -0.5238 -0.1591
  882MOL0     H21659  11.378   2.546  -0.809  0.6650 -0.1180 -0.2727
  882MOL0     H21660  11.226   2.604  -0.889 -0.6726  0.4190  1.8532
  882MOL0     H21661  11.431   2.775  -0.743 -1.7978  1.9968  1.2535
  882MOL0     H21662  11.271   2.829  -0.809 -0.0674  1.1088 -1.4942
  882MOL0     H21663  11.336   2.768  -1.024  0.2124 -0.4025  0.2542
  882MOL0     H21664  11.437   2.896  -0.946  0.4434  0.0800  0.9150
  882MOL0     H21665  11.696   2.796  -0.864  1.5014  1.2718 -2.0738
  882MOL0     H21666  11.907   2.500  -0.996 -0.7516  0.4501  0.3941
  882MOL0     H21667  11.882   2.580  -0.844  0.4636 -0.9758  0.0918
  882MOL0     H21668  12.006   2.672  -1.117  3.3828 -0.3488  1.6000
  882MOL0     H21669  11.909   2.792  -1.036  0.5170  0.7860 -1.4116
  882MOL0     H21670  12.163   2.809  -0.995  1.0323  0.6454  1.4272
  882MOL0     H21671  12.074   2.782  -0.844  0.3278  3.1733 -1.7150
  882MOL0     H21672  12.204   2.555  -1.007  0.2067 -0.8647  0.0920
  882MOL0     H21673  12.291   2.654  -0.897  1.0312 -0.5282 -0.8413
  882MOL0     H21674  12.344   2.397  -0.822  0.1939 -0.3147 -0.4073
  882MOL0     H21675  12.572   2.315  -0.509 -3.2026 -1.8451  0.0782
  882MOL0     H21676  12.603   2.398  -0.661  0.9131 -0.6828  0.5499
  882MOL0     H21677  12.509   2.242  -0.650 -1.4543 -1.1094  1.3271
  882MOL0     H21678  12.487   2.217  -0.275 -2.4381  0.8046 -0.6114
  882MOL0     H21679  12.602   2.099  -0.090  0.6338  0.3419  0.7753
  882MOL0     H21680  12.557   2.248   0.351  0.0477 -1.7586  2.0433
  882MOL0     H21681  12.705   2.161   0.352  2.1754  0.4602 -2.4807
  882MOL0     H21682  12.827   2.374   0.286 -0.3101  0.9968 -1.3629
  882MOL0     H21683  12.667   2.436   0.228 -1.4962 -0.0946  0.6399
  882MOL0     H21684  12.604   2.435   0.470  0.8248 -3.8618  1.8869
  882MOL0     H21685  12.751   2.539   0.457  1.6849 -0.4596 -2.4363
  882MOL0     H21686  12.890   2.351   0.520  0.2258 -1.3054  0.8653
  882MOL0     H21687  12.738   2.252   0.558 -1.3401  0.4548  2.7977
  882MOL0     H21688  12.830   2.514   0.680 -2.5108  1.5025 -3.0045
  882MOL0     H21689  12.664   2.461   0.688  0.0935 -1.6393 -3.3913
  882MOL0     H21690  12.886   2.308   0.828 -1.1272 -4.1432  1.0901
  882MOL0     H21691  12.727   2.248   0.814 -0.6087  0.3518 -0.4837
  882MOL0     H21692  12.786   2.376   1.033  1.3650 -1.8563 -0.7158
  882MOL0     H21693  12.637   2.420   0.940  0.1722 -0.7234  1.1138
  882MOL0     H21694  12.749   2.625   1.023  0.4624  1.7440  0.0311
  882MOL0     H21695  12.751   2.608   0.851 -0.1511  2.6853  1.3242
  882MOL0     H21696  12.415   2.369   0.190 -1.1201  2.6394 -1.2730
  882MOL0     H21697  12.312   2.476   0.012  1.9012  0.1979  5.1463
  882MOL0     H21698  12.194   2.630  -0.408  3.0159 -0.4894  1.5201
  882MOL0     H21699  12.065   2.629  -0.609 -0.8108  1.0810 -2.8215
  882MOL0     H21700  11.215   2.120  -0.110  0.8834  0.4103  1.7342
  882MOL0     H21701  11.247   2.111   0.110  0.4499 -0.3348 -1.7365
  882MOL0     H21702  11.316   2.074   0.608  0.4796 -1.0604  0.6616
  882MOL0     H21703  11.216   1.978   0.821  0.0521  3.4883  2.4236
  882MOL0     H21704  11.109   2.122   1.069 -0.3694 -3.4479 -1.2987
  882MOL0     H21705  11.070   2.246   0.954 -0.3125  0.4635  1.8864
  882MOL0     H21706  10.882   2.138   1.150  0.7660 -0.9430 -0.8841
  882MOL0     H21707  10.823   2.202   0.994 -0.0297  0.6000  0.8943
  882MOL0     H21708  11.017   2.349   1.156  0.5505  2.7628 -1.3656
  882MOL0     H21709  10.900   2.436   1.043 -4.3920  0.5420  1.4790
  882MOL0     H21710  10.870   2.465   1.296 -2.4051  0.6673  0.1452
  882MOL0     H21711  10.823   2.297   1.303  1.4060 -0.3070  0.4180
  882MOL0     H21712  10.485   2.531   1.167  0.7329  2.8605 -0.8143
  882MOL0     H21713  10.846   2.147   0.734 -0.2487  1.8033 -1.8726
  882MOL0     H21714  10.881   2.182   0.387  2.4850  1.6041 -0.7736
  882MOL0     H21715  10.774   2.232   0.525 -1.4868  0.5763 -1.5718
  882MOL0     H21716  10.904   2.339   0.461  0.4754 -1.7695 -1.5074
  883MOL0     O21717   2.416   1.922   7.835 -0.1902 -0.3854 -0.0896
  883MOL0     C21718   2.418   1.938   7.713  0.2055 -0.9485  0.5038
  883MOL0     O21719   2.527   1.956   7.632  0.0398 -1.0494 -1.1006
  883MOL0     C21720   2.649   1.960   7.697  0.2278 -0.8412 -0.3079
  883MOL0     C21721   2.731   1.852   7.698 -0.1135 -1.1103  0.1877
  883MOL0     C21722   2.852   1.862   7.770  0.3412  0.7698  0.1132
  883MOL0     C21723   2.881   1.978   7.842 -0.3060  0.4277 -0.1100
  883MOL0     O21724   2.992   1.989   7.922  0.3001  0.2269 -0.3952
  883MOL0     C21725   3.109   1.948   7.854  0.2277 -0.3932 -0.2926
  883MOL0     C21726   3.230   2.010   7.918  0.4067  0.3096 -0.5857
  883MOL0     C21727   3.345   1.986   7.824  0.2485  0.8759 -0.3346
  883MOL0     C21728   3.464   2.072   7.865  0.4184 -0.5508  0.1989
  883MOL0     C21729   3.585   2.041   7.789  0.2585  0.1785 -0.2176
  883MOL0     C21730   3.711   2.082   7.855 -0.4125  0.0798  0.3309
  883MOL0     C21731   3.833   2.063   7.757 -0.6549  0.1731  0.0965
  883MOL0     C21732   3.971   2.077   7.826  0.4941  0.8234  0.3232
  883MOL0     N21733   4.075   2.002   7.743  0.5187 -0.0761 -0.1852
  883MOL0     C21734   4.130   2.069   7.641  0.3888  0.2460 -0.0044
  883MOL0     C21735   4.199   1.982   7.567  1.4203 -0.1721  0.4452
  883MOL0     C21736   4.301   2.023   7.458 -0.3285  0.3923 -0.2536
  883MOL0     C21737   4.440   2.037   7.525  0.1459 -0.2055  0.8694
  883MOL0     C21738   4.555   2.055   7.422  0.1175 -0.3128  0.2568
  883MOL0     C21739   4.689   2.036   7.499  0.1148 -0.3564  0.6765
  883MOL0     O21740   4.794   2.090   7.415 -0.4978  0.4061  1.0711
  883MOL0     C21741   4.925   2.069   7.444  0.3845 -1.1068 -0.3333
  883MOL0     C21742   5.013   2.084   7.344  0.7414 -0.7104 -0.3182
  883MOL0     C21743   5.149   2.039   7.349  0.4969 -0.0130  0.1017
  883MOL0     C21744   5.231   2.042   7.227  0.0897 -0.1154  0.4964
  883MOL0     C21745   5.199   1.994   7.469 -0.4567 -0.1203 -0.6385
  883MOL0     C21746   5.345   1.962   7.498 -0.1354 -0.2014 -0.1231
  883MOL0     O21747   5.429   1.933   7.394 -0.2903 -0.2410  0.2532
  883MOL0     C21748   5.563   1.923   7.393 -0.2789  0.6666  0.1141
  883MOL0     C21749   5.660   1.955   7.499  0.2446  1.0738  0.5060
  883MOL0     C21750   5.793   1.925   7.475 -0.4825  0.7469  0.2428
  883MOL0     C21751   5.842   1.884   7.352  0.1620 -0.5699  0.5343
  883MOL0     O21752   5.975   1.859   7.326  0.7394  0.0141 -0.9906
  883MOL0     C21753   6.011   1.726   7.297 -0.1485 -0.0864  0.1087
  883MOL0     C21754   6.112   1.710   7.188  0.2383  0.1872  0.3812
  883MOL0     C21755   6.227   1.821   7.195  0.8937 -0.0257  0.1381
  883MOL0     C21756   6.331   1.807   7.309 -0.4981  0.1101 -0.0972
  883MOL0     C21757   6.465   1.875   7.283  0.3635  0.3036  0.6628
  883MOL0     C21758   6.458   2.018   7.234  0.7174 -0.0940  0.1692
  883MOL0     C21759   6.592   2.090   7.227  0.1617 -0.3033 -0.8940
  883MOL0     C21760   6.672   2.049   7.108 -0.2230  0.5416 -0.4714
  883MOL0    Cl21761   6.823   2.144   7.091 -0.0765  0.4192  0.4386
  883MOL0     C21762   5.748   1.873   7.250  0.2439  0.9635 -0.6129
  883MOL0     C21763   5.614   1.883   7.267 -0.4349  0.5603 -0.2000
  883MOL0     O21764   5.376   1.938   7.611  0.5954 -0.2986 -1.0430
  883MOL0     C21765   5.105   1.977   7.573 -0.0635 -0.9162  0.2338
  883MOL0     C21766   4.968   2.011   7.562  0.8972  0.0601 -0.1653
  883MOL0     N21767   4.173   1.861   7.611 -0.6995  0.3286 -0.2759
  883MOL0     N21768   4.100   1.867   7.724 -0.0314 -0.3181  0.7847
  883MOL0     C21769   2.802   2.090   7.826  0.2703 -0.1265 -0.3195
  883MOL0     C21770   2.682   2.076   7.759  0.6536 -0.4500  0.5855
  883MOL0     C21771   2.282   1.951   7.637 -0.0123 -0.6153  0.7955
  883MOL0     C21772   2.271   2.040   7.528 -1.0518  0.0472 -0.2458
  883MOL0     C21773   2.156   2.061   7.455  0.9379  0.1763 -0.2022
  883MOL0     C21774   2.043   1.986   7.491  0.4264  0.1953 -0.4784
  883MOL0     O21775   1.925   1.999   7.429  0.0144 -0.4807  0.6801
  883MOL0     C21776   1.902   2.078   7.316  0.1744 -0.8825  0.0594
  883MOL0     C21777   1.862   2.217   7.364  0.0690  0.4073 -0.2309
  883MOL0     C21778   1.728   2.228   7.446  0.4800  0.0198  0.4012
  883MOL0     C21779   1.708   2.358   7.528  0.4545 -0.5432 -0.1948
  883MOL0     C21780   1.743   2.468   7.427  0.2410 -0.5233  0.4323
  883MOL0     C21781   1.769   2.566   7.352  0.2611 -0.0903 -0.5494
  883MOL0     C21782   2.052   1.886   7.589 -0.1648 -0.0231  0.1700
  883MOL0     C21783   2.170   1.869   7.661 -0.0659 -0.4488 -0.1225
  883MOL0     C21784   2.171   1.757   7.757 -0.0221  1.2867 -0.3366
  883MOL0     H21785   2.700   1.768   7.637 -1.0264  0.2261 -1.2661
  883MOL0     H21786   2.925   1.782   7.757  1.8977  2.1952 -0.2965
  883MOL0     H21787   3.098   1.988   7.753 -3.9231  1.8767  0.8207
  883MOL0     H21788   3.119   1.839   7.857 -0.4672 -0.5363 -1.9761
  883MOL0     H21789   3.223   2.119   7.928 -1.6094  0.1207  0.6476
  883MOL0     H21790   3.251   1.979   8.021  0.8280 -1.7428 -1.2349
  883MOL0     H21791   3.378   1.882   7.819  1.9726  1.4466 -1.7943
  883MOL0     H21792   3.320   2.013   7.721 -0.6656 -1.5786 -0.8044
  883MOL0     H21793   3.438   2.179   7.867  1.5886 -0.2320 -0.8260
  883MOL0     H21794   3.492   2.039   7.966 -0.4791  2.1904  1.4544
  883MOL0     H21795   3.584   2.084   7.688 -0.2811  1.1558  0.1998
  883MOL0     H21796   3.589   1.934   7.766 -0.7836  0.3297 -1.2640
  883MOL0     H21797   3.711   2.184   7.894 -0.4713  0.3522 -0.3628
  883MOL0     H21798   3.735   2.029   7.948  1.9044  0.9382  0.2967
  883MOL0     H21799   3.824   2.127   7.669  4.5843  3.2140  1.3151
  883MOL0     H21800   3.823   1.957   7.732 -2.9723  0.3318  0.1311
  883MOL0     H21801   4.001   2.181   7.842  0.8972  0.5803  1.1832
  883MOL0     H21802   3.977   2.026   7.922  1.0016 -0.6710 -0.4806
  883MOL0     H21803   4.122   2.177   7.637  2.0435  0.6021  2.9554
  883MOL0     H21804   4.272   2.119   7.414  2.6295  0.7631 -1.6137
  883MOL0     H21805   4.296   1.950   7.377 -3.8352  0.4509 -0.2510
  883MOL0     H21806   4.438   2.122   7.594 -1.5058 -1.4587  2.4712
  883MOL0     H21807   4.458   1.941   7.574  1.7280 -1.3056 -1.7039
  883MOL0     H21808   4.554   1.986   7.338  0.0580  0.9781 -0.8311
  883MOL0     H21809   4.547   2.158   7.385 -1.3926  0.7386  3.1801
  883MOL0     H21810   4.684   2.085   7.597 -2.3224  0.7654  0.0704
  883MOL0     H21811   4.703   1.930   7.521  2.5055 -0.0054  1.1242
  883MOL0     H21812   4.954   2.114   7.258 -0.9178  2.4096  1.7191
  883MOL0     H21813   5.321   2.099   7.251  0.5028 -0.9237  0.8883
  883MOL0     H21814   5.183   2.103   7.149  0.8660 -0.1533 -0.0179
  883MOL0     H21815   5.245   1.945   7.178 -4.6143 -0.4872 -0.6209
  883MOL0     H21816   5.621   2.002   7.589 -2.3118  1.6211 -0.8198
  883MOL0     H21817   5.869   1.938   7.552  1.6941 -1.1189 -1.4358
  883MOL0     H21818   6.058   1.674   7.381 -0.7001 -0.9468 -0.1049
  883MOL0     H21819   5.930   1.658   7.269 -0.8879  0.2683  1.2861
  883MOL0     H21820   6.146   1.606   7.191  0.5995  0.3130  0.8640
  883MOL0     H21821   6.050   1.726   7.100 -2.2055 -0.2328  1.9274
  883MOL0     H21822   6.187   1.922   7.205  0.0339 -0.4199  0.7726
  883MOL0     H21823   6.291   1.808   7.107  0.6224  0.5086 -0.1462
  883MOL0     H21824   6.344   1.700   7.328 -0.3812 -0.2570 -2.0014
  883MOL0     H21825   6.281   1.850   7.396  0.6060 -1.1029  1.1644
  883MOL0     H21826   6.514   1.870   7.380 -0.9564  1.1190  1.4082
  883MOL0     H21827   6.519   1.824   7.203  2.6240  2.5200  0.6695
  883MOL0     H21828   6.395   2.077   7.302 -0.1774 -0.6048 -0.1968
  883MOL0     H21829   6.402   2.035   7.142  2.4110  0.9298 -0.7327
  883MOL0     H21830   6.660   2.063   7.309  0.1522 -0.4392 -0.9298
  883MOL0     H21831   6.578   2.197   7.241 -2.4114 -0.6469 -0.2162
  883MOL0     H21832   6.604   2.058   7.023 -0.8509 -1.8764 -0.3043
  883MOL0     H21833   6.701   1.945   7.124  0.3607  0.8619  0.6688
  883MOL0     H21834   5.775   1.828   7.155 -2.5470 -0.7462 -0.6901
  883MOL0     H21835   5.547   1.860   7.185  0.5155 -1.2171 -0.5229
  883MOL0     H21836   5.145   1.937   7.666  1.1000  0.0401  0.1641
  883MOL0     H21837   4.909   1.973   7.645 -0.4586 -1.2059 -1.6445
  883MOL0     H21838   2.841   2.179   7.873  1.1441 -1.5017  1.6923
  883MOL0     H21839   2.610   2.156   7.745 -0.7356 -1.9912 -1.7134
  883MOL0     H21840   2.352   2.107   7.501 -1.8672  1.6858  1.1640
  883MOL0     H21841   2.161   2.124   7.367  1.7643 -0.4981 -0.6548
  883MOL0     H21842   1.980   2.081   7.239  1.4450 -0.1285  1.3278
  883MOL0     H21843   1.810   2.046   7.266  1.0406 -0.2766 -2.0754
  883MOL0     H21844   1.863   2.283   7.277 -0.3483  1.0162  0.2224
  883MOL0     H21845   1.942   2.257   7.427 -0.7252  1.7729 -0.0557
  883MOL0     H21846   1.649   2.229   7.371 -0.4508  3.4250  1.2308
  883MOL0     H21847   1.713   2.148   7.519  0.0754 -0.2340  0.0416
  883MOL0     H21848   1.776   2.366   7.614  0.1294 -2.2425  0.2576
  883MOL0     H21849   1.608   2.375   7.567 -0.5802  2.3493 -3.5818
  883MOL0     H21850   1.774   2.649   7.285  0.9006  1.1230  0.9293
  883MOL0     H21851   1.972   1.815   7.607  2.0682 -2.0311  3.1216
  883MOL0     H21852   2.075   1.706   7.770 -0.4036  2.0550 -0.0439
  883MOL0     H21853   2.245   1.687   7.716 -0.2797 -0.5401  2.0690
  883MOL0     H21854   2.211   1.786   7.855  1.3742  0.5278 -0.6466
  884MOL0     O21855   5.286   1.895   0.265 -0.0902  0.3855 -0.6543
  884MOL0     C21856   5.239   1.898   0.155 -0.6674 -0.5357 -0.1237
  884MOL0     O21857   5.129   1.830   0.116 -0.1085 -0.5082  0.3493
  884MOL0     C21858   5.038   1.792   0.212 -0.1971  1.0002  0.4717
  884MOL0     C21859   4.934   1.882   0.225  0.0709  0.4814 -0.6016
  884MOL0     C21860   4.823   1.849   0.306 -0.5568 -0.8338 -0.8435
  884MOL0     C21861   4.828   1.740   0.389  0.3171 -0.1432  0.2314
  884MOL0     O21862   4.724   1.721   0.483  0.9867 -0.3055  0.1409
  884MOL0     C21863   4.734   1.607   0.571 -0.2930 -0.6109  0.5093
  884MOL0     C21864   4.603   1.620   0.648  0.2892  0.2816  0.0402
  884MOL0     C21865   4.480   1.599   0.556  0.0591 -0.3550  0.0261
  884MOL0     C21866   4.351   1.641   0.632 -0.0309  0.4395 -0.0234
  884MOL0     C21867   4.225   1.613   0.550 -0.1182  0.2554  0.2173
  884MOL0     C21868   4.204   1.688   0.421 -0.5215  0.7760  0.1769
  884MOL0     C21869   4.215   1.834   0.430 -0.5155  0.5255 -0.1924
  884MOL0     C21870   4.114   1.917   0.341  1.5158 -0.6713 -0.5340
  884MOL0     N21871   4.128   1.908   0.200  0.2671  0.4796 -0.1587
  884MOL0     C21872   4.249   1.931   0.139 -0.1021 -0.0991 -0.6611
  884MOL0     C21873   4.232   1.874   0.017  0.5275  0.0691  0.8790
  884MOL0     C21874   4.324   1.884  -0.099 -1.3997 -0.8161  0.7238
  884MOL0     C21875   4.405   1.751  -0.127  0.6763  0.0044 -0.0001
  884MOL0     C21876   4.318   1.640  -0.192 -0.4725 -1.0953 -0.4466
  884MOL0     C21877   4.283   1.665  -0.330  0.4528 -0.0438  0.3189
  884MOL0     O21878   4.197   1.560  -0.383  0.1279 -0.1312  0.4431
  884MOL0     C21879   4.090   1.602  -0.456 -0.5197  0.0033 -0.4968
  884MOL0     C21880   4.100   1.644  -0.584 -0.6334  0.2404 -0.0668
  884MOL0     C21881   3.996   1.675  -0.670  0.0587  0.9330  0.4707
  884MOL0     C21882   4.038   1.711  -0.819 -0.3921 -0.1544 -1.0043
  884MOL0     C21883   3.866   1.645  -0.629 -1.0231 -0.3083  0.7368
  884MOL0     C21884   3.741   1.645  -0.722  0.0646 -0.5504  0.0201
  884MOL0     O21885   3.624   1.615  -0.660  0.4513 -0.0744  0.1784
  884MOL0     C21886   3.512   1.624  -0.735  0.5028 -0.1989 -0.3180
  884MOL0     C21887   3.420   1.515  -0.732 -0.2031  1.1248 -0.4642
  884MOL0     C21888   3.294   1.513  -0.786  0.2206  0.6942  0.6210
  884MOL0     C21889   3.257   1.625  -0.871 -0.5899  0.1480 -0.7295
  884MOL0     O21890   3.156   1.607  -0.958  1.0328 -0.0766  0.2920
  884MOL0     C21891   3.110   1.479  -0.996  0.0947  0.6338  0.4333
  884MOL0     C21892   3.019   1.491  -1.126 -0.0862  0.0498 -0.2963
  884MOL0     C21893   3.120   1.527  -1.246 -0.0066  0.0465 -0.7679
  884MOL0     C21894   3.047   1.555  -1.379 -0.0980  1.2253  0.0634
  884MOL0     C21895   2.974   1.673  -1.383 -0.9698 -0.4368  0.4459
  884MOL0     C21896   2.889   1.680  -1.514  0.7362 -0.0787 -0.5802
  884MOL0     C21897   2.812   1.808  -1.515  0.4792 -0.9105  1.6879
  884MOL0     C21898   2.728   1.818  -1.643  0.8948 -0.1866  0.1759
  884MOL0    Cl21899   2.606   1.950  -1.667  0.7081 -0.5251  0.0855
  884MOL0     C21900   3.350   1.727  -0.881 -1.2952 -0.0203 -0.7141
  884MOL0     C21901   3.469   1.728  -0.808 -0.0711 -0.2451 -0.3725
  884MOL0     O21902   3.754   1.684  -0.841 -0.4760 -0.0932 -0.6693
  884MOL0     C21903   3.849   1.615  -0.493 -1.0863 -0.5852 -0.9732
  884MOL0     C21904   3.956   1.605  -0.409  0.0267 -0.4222 -0.5674
  884MOL0     N21905   4.103   1.821   0.006 -0.5865 -0.6088 -0.1887
  884MOL0     N21906   4.044   1.830   0.121 -1.1028  0.2891  1.1129
  884MOL0     C21907   4.937   1.649   0.377 -0.5706 -0.5130 -0.2661
  884MOL0     C21908   5.043   1.675   0.290 -0.0964  0.3847  0.2490
  884MOL0     C21909   5.306   1.967   0.038 -0.5664 -0.0650  0.1889
  884MOL0     C21910   5.242   1.995  -0.083  0.4787 -0.8197  0.2300
  884MOL0     C21911   5.316   2.047  -0.187  0.6092 -0.1168 -0.0896
  884MOL0     C21912   5.452   2.076  -0.178  0.0833 -0.3935  0.8120
  884MOL0     O21913   5.510   2.137  -0.291 -0.0041 -0.0379 -1.0928
  884MOL0     C21914   5.647   2.175  -0.283 -0.8004  0.3335  0.7014
  884MOL0     C21915   5.757   2.068  -0.291 -0.4220 -0.3145  0.8208
  884MOL0     C21916   5.730   1.979  -0.414 -0.5055 -0.3161 -0.8533
  884MOL0     C21917   5.851   1.894  -0.440  0.7576 -0.1807  0.2809
  884MOL0     C21918   5.877   1.798  -0.335  0.0510 -0.1165  0.1499
  884MOL0     C21919   5.876   1.726  -0.239 -0.0219  0.3943 -0.5540
  884MOL0     C21920   5.510   2.060  -0.060 -1.0078  0.3388 -0.3200
  884MOL0     C21921   5.452   1.996   0.041 -0.5070 -0.5328 -0.1238
  884MOL0     C21922   5.548   1.949   0.139 -0.2689  0.0032 -0.6032
  884MOL0     H21923   4.924   1.972   0.166  1.5493  0.8122 -0.3878
  884MOL0     H21924   4.739   1.917   0.323 -0.1351 -0.6198  0.5493
  884MOL0     H21925   4.819   1.620   0.639 -1.7532  2.7124  1.8785
  884MOL0     H21926   4.740   1.512   0.517 -0.3196 -1.4677  1.9620
  884MOL0     H21927   4.603   1.540   0.722  0.1691  0.1938 -0.0536
  884MOL0     H21928   4.589   1.720   0.691  1.2453  0.8384 -0.8886
  884MOL0     H21929   4.479   1.658   0.464 -3.4257 -2.6422 -1.6415
  884MOL0     H21930   4.486   1.494   0.526 -0.5006 -0.0753 -1.0957
  884MOL0     H21931   4.351   1.581   0.723 -2.2953 -0.2198 -0.3961
  884MOL0     H21932   4.354   1.749   0.651  1.8808  0.9844 -2.7775
  884MOL0     H21933   4.137   1.636   0.611 -1.6706 -3.6060 -0.3016
  884MOL0     H21934   4.216   1.508   0.522  1.8753  0.9653 -3.8218
  884MOL0     H21935   4.269   1.648   0.343  2.1408 -0.5546  2.8838
  884MOL0     H21936   4.098   1.666   0.404 -0.3031  0.1488 -0.4328
  884MOL0     H21937   4.312   1.875   0.398 -1.1982  0.4227 -2.5485
  884MOL0     H21938   4.190   1.870   0.530 -2.2874 -1.2516  0.0568
  884MOL0     H21939   4.013   1.892   0.375  0.5074  2.2305 -1.0736
  884MOL0     H21940   4.131   2.020   0.373 -0.7966 -0.5983  0.6633
  884MOL0     H21941   4.339   1.969   0.185 -0.1224 -1.4451  0.5600
  884MOL0     H21942   4.397   1.964  -0.081 -1.2940 -0.6425 -0.4298
  884MOL0     H21943   4.273   1.917  -0.190  1.8915  2.6379 -0.0926
  884MOL0     H21944   4.483   1.784  -0.197 -1.3775 -0.8674 -2.8700
  884MOL0     H21945   4.447   1.705  -0.037 -1.1596 -2.8275 -0.4794
  884MOL0     H21946   4.370   1.544  -0.182 -1.2857 -1.6985 -1.7954
  884MOL0     H21947   4.227   1.618  -0.135 -1.4720 -2.7668 -2.5453
  884MOL0     H21948   4.238   1.762  -0.354 -0.2825 -1.4129 -4.9218
  884MOL0     H21949   4.369   1.657  -0.398 -1.8114  0.0192 -2.7569
  884MOL0     H21950   4.199   1.628  -0.626 -0.8016 -2.4907  0.4131
  884MOL0     H21951   3.973   1.786  -0.863  0.4345  0.3697 -1.3612
  884MOL0     H21952   4.030   1.620  -0.879  0.5629 -0.5469 -0.5646
  884MOL0     H21953   4.135   1.760  -0.835  1.4671 -2.3785  2.1752
  884MOL0     H21954   3.452   1.426  -0.679  0.5422 -0.8020 -3.8466
  884MOL0     H21955   3.231   1.425  -0.778  0.2983  0.3946 -1.4742
  884MOL0     H21956   3.190   1.408  -1.022  0.1203  1.1978 -1.1490
  884MOL0     H21957   3.045   1.437  -0.919  1.8543  0.6905  2.0342
  884MOL0     H21958   2.960   1.402  -1.150  0.1707  0.4412 -2.6078
  884MOL0     H21959   2.949   1.574  -1.111 -0.8610 -0.6056 -0.2222
  884MOL0     H21960   3.199   1.451  -1.252 -1.1032 -1.4060  1.6143
  884MOL0     H21961   3.178   1.618  -1.230 -0.0632  0.4632 -2.7449
  884MOL0     H21962   2.976   1.474  -1.399  1.2867 -0.7479  2.6729
  884MOL0     H21963   3.128   1.553  -1.452 -0.0206  0.7306  0.1633
  884MOL0     H21964   2.910   1.688  -1.296 -1.8370 -0.5243 -0.1672
  884MOL0     H21965   3.041   1.760  -1.382 -0.1535 -1.0400 -0.2316
  884MOL0     H21966   2.818   1.597  -1.503  1.5921 -0.6849  0.6871
  884MOL0     H21967   2.950   1.682  -1.604  0.2944  2.1727 -0.8860
  884MOL0     H21968   2.885   1.889  -1.512  0.3108 -0.7610  1.7254
  884MOL0     H21969   2.733   1.812  -1.439 -2.2823 -1.4452 -0.9763
  884MOL0     H21970   2.680   1.720  -1.649  1.9594 -0.6947 -0.1847
  884MOL0     H21971   2.796   1.818  -1.729  0.5676  0.1106 -0.0873
  884MOL0     H21972   3.319   1.805  -0.951  0.6108  1.5650  0.0991
  884MOL0     H21973   3.546   1.804  -0.819  0.6684 -0.5342  2.1400
  884MOL0     H21974   3.749   1.590  -0.458 -0.0223 -2.3132  1.0885
  884MOL0     H21975   3.935   1.575  -0.306  2.0843  2.4804  0.8300
  884MOL0     H21976   4.945   1.565   0.445  1.9860  0.0551  0.2179
  884MOL0     H21977   5.131   1.612   0.283 -0.5066 -0.2919  0.9782
  884MOL0     H21978   5.138   1.964  -0.085  0.6458 -1.6424 -3.9737
  884MOL0     H21979   5.277   2.074  -0.285  0.3644 -2.9784 -0.8666
  884MOL0     H21980   5.675   2.240  -0.367  2.0699  0.2299  1.4596
  884MOL0     H21981   5.669   2.233  -0.193 -1.2675  2.9204 -0.7559
  884MOL0     H21982   5.763   2.018  -0.193  0.4101  0.5284  1.2150
  884MOL0     H21983   5.851   2.122  -0.304 -0.7390 -0.1523 -0.9731
  884MOL0     H21984   5.641   1.919  -0.397 -0.2882 -0.1779  1.0837
  884MOL0     H21985   5.721   2.049  -0.498  2.8301  0.6091 -0.6083
  884MOL0     H21986   5.934   1.965  -0.447 -0.8213  1.6244 -1.8640
  884MOL0     H21987   5.832   1.845  -0.536 -2.2035  2.3178 -0.5886
  884MOL0     H21988   5.883   1.673  -0.146 -1.1746  2.3869  0.7351
  884MOL0     H21989   5.611   2.096  -0.042 -1.3493  2.6349 -2.4826
  884MOL0     H21990   5.538   2.017   0.224 -0.0897  1.6530 -1.8576
  884MOL0     H21991   5.523   1.849   0.178 -0.1204  1.0231  2.4074
  884MOL0     H21992   5.653   1.950   0.110 -0.1420 -0.4306 -0.1865
  885MOL0     O21993   7.189   7.524   1.503  0.1026 -0.6252 -0.4735
  885MOL0     C21994   7.225   7.405   1.481 -0.7504  0.3249 -0.5312
  885MOL0     O21995   7.165   7.291   1.528  0.3314  0.3054  0.4650
  885MOL0     C21996   7.036   7.310   1.555 -0.6690  0.1320  0.1184
  885MOL0     C21997   7.007   7.313   1.695 -0.2579 -0.4332 -0.0812
  885MOL0     C21998   6.876   7.325   1.737  0.2241 -0.3960 -0.3661
  885MOL0     C21999   6.773   7.318   1.647  0.2598 -0.7797  0.5291
  885MOL0     O22000   6.656   7.311   1.713  0.2782 -0.5735 -0.3969
  885MOL0     C22001   6.533   7.334   1.650 -0.1111 -0.1201  0.4185
  885MOL0     C22002   6.476   7.220   1.584  0.5360 -0.5411 -0.1087
  885MOL0     C22003   6.480   7.085   1.663 -0.2212 -1.1151  0.3543
  885MOL0     C22004   6.441   6.982   1.562 -1.1909  0.0092  0.1601
  885MOL0     C22005   6.451   6.836   1.622  0.6471 -0.2001 -0.2793
  885MOL0     C22006   6.341   6.791   1.718  0.5902 -0.3474  0.4184
  885MOL0     C22007   6.362   6.659   1.781  1.3060  1.1348 -0.1138
  885MOL0     C22008   6.375   6.541   1.674  0.3905 -0.3543 -0.0032
  885MOL0     N22009   6.364   6.417   1.738 -0.7733 -0.1223  0.6642
  885MOL0     C22010   6.449   6.348   1.823  0.3200 -0.4993 -0.1518
  885MOL0     C22011   6.388   6.230   1.846 -0.3594  0.3697 -0.9766
  885MOL0     C22012   6.425   6.128   1.944 -0.7806  0.0855  0.7871
  885MOL0     C22013   6.322   6.008   1.934 -0.6524 -0.0794 -0.1286
  885MOL0     C22014   6.341   5.911   2.060 -0.4401 -0.3176  0.1915
  885MOL0     C22015   6.239   5.812   2.086  0.1637  0.5520  0.8881
  885MOL0     O22016   6.294   5.706   2.157 -0.0309 -0.0920 -0.6880
  885MOL0     C22017   6.314   5.706   2.290 -0.7877  0.4147  1.5818
  885MOL0     C22018   6.342   5.588   2.345 -0.9843  1.3933 -0.0096
  885MOL0     C22019   6.352   5.565   2.485  0.3377  0.3924  0.1799
  885MOL0     C22020   6.369   5.420   2.527 -0.2101  0.2177  0.7360
  885MOL0     C22021   6.339   5.672   2.567  0.3251 -0.4367  0.3485
  885MOL0     C22022   6.350   5.662   2.716  0.5758  0.1093  0.0307
  885MOL0     O22023   6.417   5.762   2.778  0.0241 -0.6820  0.1827
  885MOL0     C22024   6.421   5.758   2.911 -0.6269  0.5388  0.2138
  885MOL0     C22025   6.530   5.701   2.970 -0.0150  0.9536  0.3916
  885MOL0     C22026   6.538   5.669   3.106 -0.0336 -0.1329  1.0849
  885MOL0     C22027   6.434   5.722   3.189  0.5535  0.1214 -1.2727
  885MOL0     O22028   6.441   5.722   3.324  0.3523  0.4315 -0.8162
  885MOL0     C22029   6.568   5.722   3.384 -0.3992 -0.3062 -0.5243
  885MOL0     C22030   6.576   5.790   3.524  0.8120 -0.7465 -0.0971
  885MOL0     C22031   6.535   5.937   3.514 -0.5415 -0.0652 -0.5109
  885MOL0     C22032   6.520   5.985   3.663  0.1010 -0.1219 -0.2421
  885MOL0     C22033   6.503   6.138   3.672  0.1252  0.4567  0.8330
  885MOL0     C22034   6.485   6.174   3.817  0.2974  0.2700  0.1231
  885MOL0     C22035   6.399   6.303   3.839  0.2046 -0.0709 -0.0271
  885MOL0     C22036   6.380   6.350   3.984  0.5398  0.0938  0.1939
  885MOL0    Cl22037   6.342   6.196   4.087  0.1343 -0.4041  0.3695
  885MOL0     C22038   6.339   5.806   3.130  0.3373  1.2789  0.6102
  885MOL0     C22039   6.329   5.822   2.994 -1.0197  0.0320  0.9277
  885MOL0     O22040   6.296   5.566   2.771 -0.4986 -0.8862  0.8001
  885MOL0     C22041   6.295   5.797   2.515 -0.2585 -0.6340 -0.6913
  885MOL0     C22042   6.278   5.811   2.380  0.0467 -0.0592  1.0759
  885MOL0     N22043   6.280   6.225   1.766  0.4129  0.7272  0.8022
  885MOL0     N22044   6.260   6.337   1.708  0.1916 -0.0028 -0.5958
  885MOL0     C22045   6.800   7.297   1.501 -0.0256 -1.2913  0.4054
  885MOL0     C22046   6.933   7.292   1.463 -0.0511 -0.7500  0.5594
  885MOL0     C22047   7.342   7.390   1.392  0.4902  0.8736 -0.0859
  885MOL0     C22048   7.332   7.302   1.280 -0.2440 -0.7546  0.1488
  885MOL0     C22049   7.434   7.279   1.192 -0.4222  0.9550 -0.1139
  885MOL0     C22050   7.556   7.352   1.205  0.8081  0.2583  0.1145
  885MOL0     O22051   7.638   7.335   1.101  0.2442  0.5328  0.1384
  885MOL0     C22052   7.726   7.447   1.052 -0.1769  0.3208 -0.5239
  885MOL0     C22053   7.647   7.565   0.998 -0.8902  0.0733 -1.1193
  885MOL0     C22054   7.693   7.608   0.860 -0.0541  0.4185  0.4465
  885MOL0     C22055   7.827   7.655   0.842  0.0118  0.0849 -0.2050
  885MOL0     C22056   7.834   7.733   0.715  0.7139  0.1649  0.0565
  885MOL0     C22057   7.868   7.794   0.619 -0.3236  0.0566  0.8653
  885MOL0     C22058   7.573   7.439   1.307  0.7626 -0.8288 -0.6031
  885MOL0     C22059   7.465   7.463   1.401  0.4881 -0.1934 -0.0088
  885MOL0     C22060   7.488   7.558   1.520  0.6461 -0.6013  0.1624
  885MOL0     H22061   7.083   7.337   1.769 -1.1716  3.7793 -0.2302
  885MOL0     H22062   6.844   7.341   1.840 -0.1176  1.9001 -0.7782
  885MOL0     H22063   6.548   7.405   1.568 -1.3737 -1.2181 -0.8083
  885MOL0     H22064   6.456   7.358   1.724 -0.1843 -2.8408  1.3113
  885MOL0     H22065   6.376   7.257   1.559  2.2117  4.8160 -0.2249
  885MOL0     H22066   6.529   7.206   1.489 -1.2420 -0.3149 -1.2019
  885MOL0     H22067   6.583   7.073   1.696 -1.7735 -0.9239  6.3442
  885MOL0     H22068   6.412   7.091   1.749 -1.9368 -1.7026 -0.9066
  885MOL0     H22069   6.353   6.996   1.498  0.0991  1.2440 -1.4098
  885MOL0     H22070   6.528   6.979   1.496  0.0086 -1.7904  1.7050
  885MOL0     H22071   6.543   6.821   1.679 -0.5043  3.2184  2.8559
  885MOL0     H22072   6.454   6.772   1.533  1.8415  1.6618 -1.6609
  885MOL0     H22073   6.336   6.855   1.807 -1.1607 -1.6982  1.3487
  885MOL0     H22074   6.241   6.792   1.674  0.7828 -1.5526 -0.0815
  885MOL0     H22075   6.286   6.637   1.857  3.2824  0.4315  1.7735
  885MOL0     H22076   6.453   6.656   1.842  0.6414 -0.1885  0.8619
  885MOL0     H22077   6.286   6.551   1.611 -0.2050 -1.2846  0.6653
  885MOL0     H22078   6.469   6.560   1.622 -0.3766  0.6681 -1.0824
  885MOL0     H22079   6.538   6.376   1.879  0.8715  1.2062 -1.7688
  885MOL0     H22080   6.428   6.170   2.045  4.2750  0.6097  0.6699
  885MOL0     H22081   6.527   6.106   1.910 -0.9072  0.3220  0.2360
  885MOL0     H22082   6.223   6.053   1.949  0.5107  3.4054 -1.6621
  885MOL0     H22083   6.339   5.956   1.839  3.6973  1.3277 -0.3614
  885MOL0     H22084   6.443   5.874   2.049  0.1031  1.8207 -3.6457
  885MOL0     H22085   6.337   5.958   2.159  1.6610 -2.3364  1.3291
  885MOL0     H22086   6.155   5.835   2.151  2.8463  2.0965  4.1515
  885MOL0     H22087   6.205   5.785   1.986 -0.6743  0.3739  1.2161
  885MOL0     H22088   6.353   5.509   2.270  3.1927  0.8321  0.9194
  885MOL0     H22089   6.407   5.396   2.627  1.3420 -6.0617 -0.9246
  885MOL0     H22090   6.435   5.358   2.466 -2.9645 -2.8758  0.5809
  885MOL0     H22091   6.276   5.363   2.519 -1.0959  1.8302 -1.2439
  885MOL0     H22092   6.617   5.678   2.909  1.3870 -2.0138  3.2145
  885MOL0     H22093   6.633   5.628   3.138  1.7277  2.8560 -0.0048
  885MOL0     H22094   6.609   5.622   3.401 -2.3056 -1.0551 -0.0597
  885MOL0     H22095   6.641   5.780   3.327  0.8512 -2.1330 -0.8825
  885MOL0     H22096   6.524   5.739   3.606 -1.1970  1.9060  0.3991
  885MOL0     H22097   6.680   5.798   3.558  0.0162 -0.0718  2.3670
  885MOL0     H22098   6.448   5.957   3.450  0.3060  2.3817 -1.0318
  885MOL0     H22099   6.613   5.996   3.465 -2.3352  3.7347  0.7843
  885MOL0     H22100   6.602   5.951   3.727 -0.1451 -3.6757 -1.5752
  885MOL0     H22101   6.440   5.930   3.713  1.4388  0.3047  2.5394
  885MOL0     H22102   6.598   6.181   3.639  0.4467 -1.4176 -0.9337
  885MOL0     H22103   6.423   6.177   3.608  1.9468  1.2901 -1.0430
  885MOL0     H22104   6.581   6.195   3.864  0.0889 -0.2517  0.7973
  885MOL0     H22105   6.434   6.092   3.869  2.2267  0.0451  1.7528
  885MOL0     H22106   6.299   6.287   3.798  0.8268 -1.3692 -1.1165
  885MOL0     H22107   6.437   6.387   3.779  1.8069 -0.5985  0.1931
  885MOL0     H22108   6.296   6.419   3.997 -1.1563 -2.0097  0.8974
  885MOL0     H22109   6.474   6.394   4.020  1.5826 -1.9014  0.0388
  885MOL0     H22110   6.273   5.843   3.207  1.6164 -0.1259  2.4621
  885MOL0     H22111   6.260   5.887   2.941 -0.4749  0.0620  0.2445
  885MOL0     H22112   6.276   5.877   2.586 -0.1989 -2.5811  1.6473
  885MOL0     H22113   6.246   5.906   2.340  0.7715  0.0100  0.6490
  885MOL0     H22114   6.727   7.289   1.422  1.6631  0.1710 -1.3934
  885MOL0     H22115   6.967   7.252   1.368  2.7293 -3.4982  2.4878
  885MOL0     H22116   7.235   7.265   1.250 -1.1634  2.3123 -1.0424
  885MOL0     H22117   7.427   7.211   1.108 -3.2583 -0.5838  1.2244
  885MOL0     H22118   7.794   7.485   1.129 -0.4308  1.8466 -1.0115
  885MOL0     H22119   7.792   7.405   0.976  0.7015  1.1782 -0.2659
  885MOL0     H22120   7.661   7.654   1.060 -0.8365  1.5503 -3.1601
  885MOL0     H22121   7.541   7.539   0.989 -0.0635 -4.2660 -0.3332
  885MOL0     H22122   7.688   7.529   0.785 -1.2763  0.5777  0.3462
  885MOL0     H22123   7.622   7.684   0.826  1.5078  2.0872  0.7357
  885MOL0     H22124   7.892   7.567   0.836  2.1596  1.2516  3.2183
  885MOL0     H22125   7.864   7.711   0.928 -2.4797 -0.7035  1.4656
  885MOL0     H22126   7.904   7.841   0.530  0.7690 -0.4555  1.0234
  885MOL0     H22127   7.666   7.490   1.329  0.6618 -1.2785  1.0569
  885MOL0     H22128   7.488   7.513   1.620  2.9285  0.0991  0.5486
  885MOL0     H22129   7.589   7.598   1.507  0.3331  0.9568  2.0839
  885MOL0     H22130   7.422   7.645   1.520 -0.2851 -1.2580  1.4251
  886MOL0     O22131   6.335   0.227   3.608 -0.1271 -0.0376 -0.5125
  886MOL0     C22132   6.229   0.192   3.662 -0.5010 -0.4222 -0.1604
  886MOL0     O22133   6.208   0.070   3.725 -0.1493  0.5914  0.7349
  886MOL0     C22134   6.310  -0.026   3.736  1.1230 -0.5667 -0.5845
  886MOL0     C22135   6.449  -0.015   3.702 -0.3922 -0.4125 -0.0643
  886MOL0     C22136   6.538  -0.112   3.728 -0.5009  0.7061 -0.8840
  886MOL0     C22137   6.500  -0.239   3.777 -0.3865 -0.1378 -0.6540
  886MOL0     O22138   6.604  -0.330   3.798 -0.0762  0.2011  0.3916
  886MOL0     C22139   6.585  -0.458   3.853  0.2875 -0.4436  0.6053
  886MOL0     C22140   6.545  -0.459   4.002  0.6542 -0.3252 -0.8562
  886MOL0     C22141   6.620  -0.345   4.085 -0.8030  0.6799 -0.2192
  886MOL0     C22142   6.579  -0.343   4.232  0.1172 -0.0546 -0.2957
  886MOL0     C22143   6.661  -0.238   4.312  0.5327  0.3821 -0.6381
  886MOL0     C22144   6.814  -0.254   4.328 -0.4284  0.0118 -1.0198
  886MOL0     C22145   6.883  -0.131   4.386 -0.7934 -0.0008 -0.2100
  886MOL0     C22146   7.033  -0.144   4.402  0.1878  1.0376 -0.6369
  886MOL0     N22147   7.101  -0.032   4.472  0.0158  0.3290 -0.4516
  886MOL0     C22148   7.070   0.099   4.459  0.3132 -0.3951  0.2006
  886MOL0     C22149   7.169   0.161   4.514  0.1751  0.3094 -0.0234
  886MOL0     C22150   7.182   0.311   4.510 -0.5345 -0.0691  0.1994
  886MOL0     C22151   7.299   0.349   4.417  0.7395  0.5823 -0.4376
  886MOL0     C22152   7.332   0.498   4.440  0.4084  0.7677  0.0565
  886MOL0     C22153   7.430   0.555   4.339 -0.4433  0.3899  0.0723
  886MOL0     O22154   7.450   0.700   4.366  0.1418 -0.4350  0.1640
  886MOL0     C22155   7.394   0.786   4.276  0.3257 -0.8094  0.3648
  886MOL0     C22156   7.262   0.761   4.237  0.9167  0.2621  0.6257
  886MOL0     C22157   7.198   0.842   4.150 -0.3428 -1.0523 -0.3466
  886MOL0     C22158   7.056   0.803   4.121 -0.2038 -0.0345  0.3269
  886MOL0     C22159   7.257   0.963   4.108 -0.1111  0.2131 -0.5196
  886MOL0     C22160   7.185   1.065   4.030  0.9840 -0.0152 -0.4737
  886MOL0     O22161   7.260   1.140   3.948  0.7282 -0.0909  0.7996
  886MOL0     C22162   7.200   1.251   3.885  0.4708  0.9930 -1.4879
  886MOL0     C22163   7.147   1.354   3.960  0.2144 -0.0972 -0.7570
  886MOL0     C22164   7.112   1.478   3.907 -0.0938  0.2966  0.2343
  886MOL0     C22165   7.112   1.497   3.769 -0.1389 -0.2205 -0.4731
  886MOL0     O22166   7.073   1.625   3.718  0.4296 -0.5098 -0.8142
  886MOL0     C22167   7.013   1.642   3.588  0.1606  0.5953  0.8608
  886MOL0     C22168   6.878   1.583   3.580  0.9708  2.1003  0.1561
  886MOL0     C22169   6.819   1.598   3.437 -0.0063  0.6143 -0.4121
  886MOL0     C22170   6.667   1.584   3.454 -0.3299  0.3444 -0.0388
  886MOL0     C22171   6.600   1.476   3.362 -0.6095 -0.1713 -0.7211
  886MOL0     C22172   6.626   1.490   3.211  0.4127  0.2412  0.5252
  886MOL0     C22173   6.586   1.629   3.153 -0.8334  0.5668 -0.7293
  886MOL0     C22174   6.437   1.661   3.158  0.1555  0.3658  0.4533
  886MOL0    Cl22175   6.417   1.795   3.030 -0.0137 -0.2909  0.1123
  886MOL0     C22176   7.160   1.392   3.686  0.4614  0.1699 -0.2109
  886MOL0     C22177   7.204   1.267   3.748  0.2619  0.3203 -0.2945
  886MOL0     O22178   7.068   1.086   4.057  0.1494  0.4260 -0.1265
  886MOL0     C22179   7.391   0.986   4.136  0.1009 -0.0905 -0.9204
  886MOL0     C22180   7.463   0.896   4.220  1.4564  0.3099  0.4841
  886MOL0     N22181   7.252   0.067   4.568 -0.4801  0.3686 -0.3126
  886MOL0     N22182   7.208  -0.054   4.550 -0.1143 -0.6072 -0.5103
  886MOL0     C22183   6.367  -0.267   3.800 -0.2894  0.2612 -0.1332
  886MOL0     C22184   6.278  -0.158   3.781  0.2024  0.9503  0.2885
  886MOL0     C22185   6.122   0.289   3.649 -0.4362 -0.2810  0.5821
  886MOL0     C22186   5.994   0.236   3.616  0.0700  0.0017  0.1362
  886MOL0     C22187   5.886   0.317   3.607 -0.1869 -0.2722 -0.4393
  886MOL0     C22188   5.895   0.451   3.629 -0.7834 -0.5006  0.5298
  886MOL0     O22189   5.802   0.548   3.622  0.4395 -0.0028  0.1353
  886MOL0     C22190   5.668   0.505   3.608 -0.2280 -1.3118  0.1919
  886MOL0     C22191   5.608   0.440   3.732 -0.7874 -0.2141  0.1657
  886MOL0     C22192   5.460   0.396   3.702 -0.6286 -0.4609  0.7354
  886MOL0     C22193   5.367   0.360   3.812  0.4418 -0.2536  0.8929
  886MOL0     C22194   5.436   0.273   3.912  0.3711 -1.0609 -0.2508
  886MOL0     C22195   5.481   0.176   3.969 -0.7643  0.5669  0.2926
  886MOL0     C22196   6.020   0.504   3.656 -0.6914 -0.1064 -0.0800
  886MOL0     C22197   6.133   0.421   3.675 -0.2748  0.6598  0.5223
  886MOL0     C22198   6.261   0.482   3.731 -0.6613  0.3525 -1.2403
  886MOL0     H22199   6.491   0.079   3.667 -2.6318  0.1362 -1.5464
  886MOL0     H22200   6.646  -0.107   3.722  0.4878 -6.6314  1.1626
  886MOL0     H22201   6.680  -0.511   3.848  1.7178  1.7487  2.2991
  886MOL0     H22202   6.510  -0.506   3.790 -2.7453  3.9844  0.3805
  886MOL0     H22203   6.436  -0.461   4.014  0.6298  0.5538 -0.9054
  886MOL0     H22204   6.579  -0.561   4.024 -1.0515 -1.1380 -1.7509
  886MOL0     H22205   6.728  -0.353   4.078 -0.7528  2.2262 -2.1747
  886MOL0     H22206   6.591  -0.247   4.044 -1.7863  0.7556  0.6057
  886MOL0     H22207   6.474  -0.317   4.247  0.8161  0.9769  4.5770
  886MOL0     H22208   6.587  -0.442   4.277 -0.6638  0.6049  1.3853
  886MOL0     H22209   6.622  -0.236   4.414  4.0910 -1.6616  0.9568
  886MOL0     H22210   6.643  -0.142   4.261 -0.3409  0.4524 -0.2086
  886MOL0     H22211   6.842  -0.337   4.394  2.3899  1.2969 -0.4253
  886MOL0     H22212   6.850  -0.285   4.230  0.6943  0.9816 -0.9435
  886MOL0     H22213   6.831  -0.099   4.476 -0.5655 -2.3767  0.8478
  886MOL0     H22214   6.870  -0.050   4.313  1.8644 -0.3165 -1.1435
  886MOL0     H22215   7.034  -0.244   4.447 -0.8777  0.5989 -1.5274
  886MOL0     H22216   7.069  -0.139   4.298  0.9705 -0.8720 -0.4915
  886MOL0     H22217   6.982   0.142   4.413  0.7712  1.8325  1.2585
  886MOL0     H22218   7.191   0.352   4.611 -0.5766  1.9929 -0.5872
  886MOL0     H22219   7.090   0.355   4.471  0.0127  3.1853  2.1870
  886MOL0     H22220   7.390   0.294   4.443  0.5300  1.8566  3.6572
  886MOL0     H22221   7.270   0.347   4.312  1.8255  0.1174 -0.7475
  886MOL0     H22222   7.236   0.550   4.431 -1.1465 -1.7718  0.9231
  886MOL0     H22223   7.372   0.518   4.539  0.0799  2.5991 -0.1441
  886MOL0     H22224   7.530   0.514   4.353 -0.0362  1.0188 -0.8787
  886MOL0     H22225   7.407   0.542   4.233 -1.2480  3.1207 -0.1678
  886MOL0     H22226   7.212   0.672   4.274  2.5200 -0.6290  0.7441
  886MOL0     H22227   6.980   0.855   4.180  1.3626 -0.1278  2.5436
  886MOL0     H22228   7.042   0.695   4.128 -0.8777 -0.0400 -0.7836
  886MOL0     H22229   7.044   0.835   4.017  2.8499 -2.2329 -0.8599
  886MOL0     H22230   7.150   1.346   4.068  4.8562  1.1907 -0.5918
  886MOL0     H22231   7.072   1.557   3.970  1.4662  0.0519  1.6078
  886MOL0     H22232   7.009   1.747   3.556  2.9551  0.4125 -0.3671
  886MOL0     H22233   7.072   1.582   3.519 -2.3253 -1.7073  0.5806
  886MOL0     H22234   6.884   1.478   3.609 -1.6758  1.7506 -0.3190
  886MOL0     H22235   6.820   1.644   3.649  0.1586  2.3145 -0.7009
  886MOL0     H22236   6.855   1.523   3.367  0.0722  1.3589 -1.1872
  886MOL0     H22237   6.847   1.692   3.388  2.5374 -0.7041 -1.6359
  886MOL0     H22238   6.622   1.677   3.417  0.0330  0.1970 -0.8841
  886MOL0     H22239   6.634   1.580   3.558 -2.6494  0.6828 -0.6897
  886MOL0     H22240   6.642   1.382   3.399 -0.7563 -0.1005 -0.3692
  886MOL0     H22241   6.495   1.494   3.385 -0.6759  2.8433 -2.8159
  886MOL0     H22242   6.575   1.407   3.160  0.5323 -0.6814  1.8738
  886MOL0     H22243   6.731   1.465   3.191 -0.2720 -0.8468 -2.2709
  886MOL0     H22244   6.611   1.617   3.047 -0.4580  0.3091 -0.6130
  886MOL0     H22245   6.652   1.707   3.193  2.5518 -0.1735 -4.2805
  886MOL0     H22246   6.399   1.710   3.248  0.1648  2.3935 -0.5996
  886MOL0     H22247   6.383   1.573   3.120  1.0053  0.4740 -1.0812
  886MOL0     H22248   7.175   1.409   3.580  1.0281 -0.7304 -0.2897
  886MOL0     H22249   7.239   1.180   3.693 -1.8332 -1.7842  1.4743
  886MOL0     H22250   7.444   1.070   4.092 -0.1162  0.3939 -0.2633
  886MOL0     H22251   7.567   0.913   4.247  1.5669 -0.2009  0.3862
  886MOL0     H22252   6.321  -0.357   3.840 -4.2680  1.2707 -1.9381
  886MOL0     H22253   6.173  -0.174   3.805  1.0290 -0.9374  3.1094
  886MOL0     H22254   5.982   0.131   3.596  3.5706 -0.2206 -1.4226
  886MOL0     H22255   5.795   0.264   3.580 -0.7922  1.2637 -1.5578
  886MOL0     H22256   5.602   0.592   3.603  2.6776  0.9796 -2.9326
  886MOL0     H22257   5.668   0.449   3.514  1.2719  0.5090 -0.9526
  886MOL0     H22258   5.611   0.516   3.811  0.3372  0.0888 -0.1493
  886MOL0     H22259   5.669   0.355   3.763  0.2515  0.4243 -0.1040
  886MOL0     H22260   5.415   0.475   3.641 -0.8458 -0.9029  0.3196
  886MOL0     H22261   5.463   0.310   3.635  2.0906  0.7713 -0.8644
  886MOL0     H22262   5.284   0.309   3.762  2.0309 -1.7110 -0.3664
  886MOL0     H22263   5.327   0.454   3.851 -3.4935 -1.0927 -0.6244
  886MOL0     H22264   5.501   0.089   4.027  0.9268  1.6603  1.4484
  886MOL0     H22265   6.024   0.607   3.688  0.5603  1.0741 -3.5538
  886MOL0     H22266   6.313   0.513   3.640  0.4521 -3.9306 -2.2832
  886MOL0     H22267   6.236   0.559   3.805 -0.7625 -1.3574  0.5734
  886MOL0     H22268   6.331   0.412   3.778  0.2597  1.7457 -0.4568
  887MOL0     O22269   9.153  10.400   9.554  0.7517  0.0908 -0.3150
  887MOL0     C22270   9.131  10.518   9.542 -0.4185  0.1016 -0.1389
  887MOL0     O22271   9.096  10.578   9.418 -0.1684  0.2830 -0.5581
  887MOL0     C22272   9.069  10.494   9.315  0.2425  0.1401  0.0024
  887MOL0     C22273   8.969  10.395   9.322  0.5579 -0.1647 -0.4147
  887MOL0     C22274   8.955  10.298   9.218 -0.1661 -0.2065 -0.1221
  887MOL0     C22275   9.037  10.305   9.099 -0.5760 -0.3690  0.9659
  887MOL0     O22276   9.005  10.217   8.994  0.5422 -0.2917  0.4492
  887MOL0     C22277   9.113  10.174   8.909  0.5636  0.3079 -0.2336
  887MOL0     C22278   9.081  10.047   8.835  0.1319  0.5597  0.0342
  887MOL0     C22279   9.170  10.049   8.708  0.5571 -0.0464 -0.2953
  887MOL0     C22280   9.137   9.915   8.633 -0.0422  0.0624 -0.5485
  887MOL0     C22281   9.227   9.886   8.509  0.8623  0.0894  0.2258
  887MOL0     C22282   9.219   9.999   8.408  0.5969 -0.2996 -1.1820
  887MOL0     C22283   9.290   9.965   8.284 -0.7772  0.6275 -0.1649
  887MOL0     C22284   9.198   9.893   8.186  0.5218  0.1065  1.2393
  887MOL0     N22285   9.237   9.895   8.041 -0.1468 -0.2200  0.4017
  887MOL0     C22286   9.210   9.993   7.950 -0.7320  0.5125 -0.6194
  887MOL0     C22287   9.275   9.958   7.838 -0.8897  0.9263  0.4242
  887MOL0     C22288   9.284  10.035   7.713 -0.5884 -0.1560  0.3450
  887MOL0     C22289   9.383   9.984   7.609 -0.0254  1.4688 -0.2912
  887MOL0     C22290   9.318   9.874   7.516  0.0258  0.7163 -0.4079
  887MOL0     C22291   9.432   9.818   7.419  0.4260  0.3346 -0.2688
  887MOL0     O22292   9.473   9.921   7.329  0.3638  0.3059  0.1269
  887MOL0     C22293   9.379   9.963   7.235 -1.4337 -0.5305  0.1881
  887MOL0     C22294   9.405  10.091   7.188 -0.7796  0.1162 -0.0609
  887MOL0     C22295   9.324  10.160   7.095 -1.1154 -0.8885 -0.2174
  887MOL0     C22296   9.375  10.298   7.037  0.2625  0.3915  0.0083
  887MOL0     C22297   9.214  10.100   7.036 -0.0554  0.1734  0.1205
  887MOL0     C22298   9.120  10.162   6.934 -0.1690  0.1405  0.1473
  887MOL0     O22299   9.045  10.082   6.855  0.6392 -0.0432 -0.7079
  887MOL0     C22300   8.929  10.136   6.795 -0.0089  0.5006  0.5796
  887MOL0     C22301   8.917  10.114   6.658 -0.3406  0.1731 -0.2293
  887MOL0     C22302   8.797  10.142   6.590 -0.3014 -0.1120  1.0394
  887MOL0     C22303   8.687  10.203   6.653  0.5545  0.3035 -0.4787
  887MOL0     O22304   8.579  10.238   6.565 -0.2340  0.3132 -0.2455
  887MOL0     C22305   8.477  10.322   6.607  0.4409  0.3559 -0.2406
  887MOL0     C22306   8.372  10.336   6.495 -1.3614  0.1435 -0.2090
  887MOL0     C22307   8.416  10.437   6.393 -0.3311 -0.0120 -0.0295
  887MOL0     C22308   8.301  10.485   6.313 -0.3690  0.2970  0.3394
  887MOL0     C22309   8.336  10.575   6.191 -0.2859 -0.1188  0.0585
  887MOL0     C22310   8.430  10.696   6.229 -0.0168 -0.5332  0.3496
  887MOL0     C22311   8.425  10.803   6.118 -0.3027  0.1948 -0.0145
  887MOL0     C22312   8.531  10.787   6.012 -0.6721 -0.4976  0.0275
  887MOL0    Cl22313   8.686  10.797   6.092 -0.0470 -0.1224  0.3748
  887MOL0     C22314   8.708  10.251   6.786 -0.7279 -0.4073  0.2979
  887MOL0     C22315   8.820  10.204   6.865 -0.3927 -0.6049  0.4825
  887MOL0     O22316   9.119  10.282   6.928 -0.5204  0.0400  0.0605
  887MOL0     C22317   9.176   9.978   7.097  0.1585  0.8073  0.3255
  887MOL0     C22318   9.260   9.910   7.193 -0.7619 -0.1668 -0.7922
  887MOL0     N22319   9.340   9.844   7.869  0.3653  0.6672  0.4488
  887MOL0     N22320   9.312   9.801   7.984 -0.5022  0.2638 -0.3747
  887MOL0     C22321   9.132  10.404   9.098 -0.3156  0.0816  0.3032
  887MOL0     C22322   9.147  10.498   9.201 -0.1082  0.6347 -1.6647
  887MOL0     C22323   9.153  10.604   9.665 -0.2076  0.3926 -0.9373
  887MOL0     C22324   9.205  10.543   9.782 -0.3138  1.0904 -0.5723
  887MOL0     C22325   9.220  10.604   9.903 -0.1638 -1.0769  0.0172
  887MOL0     C22326   9.200  10.745   9.908  0.0782 -0.1113  0.4601
  887MOL0     O22327   9.229  10.811  10.031  0.3472  0.2437 -0.0521
  887MOL0     C22328   9.231  10.953  10.050  0.3190  0.2730 -0.5588
  887MOL0     C22329   9.096  11.021  10.087  0.4712  0.0319  0.5749
  887MOL0     C22330   9.000  11.045   9.969 -0.4590  0.5297 -0.2792
  887MOL0     C22331   8.897  11.147  10.010 -0.5839  0.1959 -0.7026
  887MOL0     C22332   8.974  11.275  10.012 -0.1900 -0.3655 -0.1473
  887MOL0     C22333   9.050  11.374  10.013 -0.1067  0.5198  0.4021
  887MOL0     C22334   9.163  10.808   9.792 -0.1241 -0.5207 -0.2232
  887MOL0     C22335   9.136  10.741   9.670  1.0805 -0.7484  0.3496
  887MOL0     C22336   9.091  10.829   9.549  0.3924 -0.3243  0.2309
  887MOL0     H22337   8.892  10.396   9.398  3.3801  0.5275  2.6752
  887MOL0     H22338   8.887  10.214   9.224 -3.0928  2.0363 -0.0014
  887MOL0     H22339   9.201  10.157   8.971  2.7912 -0.0874 -3.3076
  887MOL0     H22340   9.135  10.260   8.845 -3.5683  2.1438  0.4598
  887MOL0     H22341   9.099   9.955   8.892  1.1378  0.0992 -0.9931
  887MOL0     H22342   8.973  10.054   8.817 -0.0855  1.9995  1.5937
  887MOL0     H22343   9.152  10.135   8.643 -1.8517  0.6650  1.1664
  887MOL0     H22344   9.276  10.044   8.733  0.8347 -0.2995 -1.4498
  887MOL0     H22345   9.157   9.843   8.713 -0.4125 -0.6488 -1.0740
  887MOL0     H22346   9.033   9.904   8.599 -0.9597  0.4615  1.9133
  887MOL0     H22347   9.189   9.791   8.470 -0.3689  0.0508  1.4252
  887MOL0     H22348   9.331   9.874   8.540  0.4013  2.0062  2.8425
  887MOL0     H22349   9.118  10.029   8.380  0.2932 -0.6955 -0.5188
  887MOL0     H22350   9.268  10.085   8.455  3.0998 -1.8227 -0.7693
  887MOL0     H22351   9.380   9.905   8.303 -0.9335  0.2492 -0.5858
  887MOL0     H22352   9.313  10.065   8.247 -2.2059  1.5373  1.3071
  887MOL0     H22353   9.194   9.786   8.211  3.3619 -0.8396 -1.6712
  887MOL0     H22354   9.096   9.931   8.192  0.1725 -0.8271  1.5006
  887MOL0     H22355   9.141  10.077   7.956 -1.1530  0.2597 -1.6764
  887MOL0     H22356   9.313  10.134   7.750  1.6061  0.0288 -1.6389
  887MOL0     H22357   9.182  10.038   7.674 -1.0087 -2.8892  1.0247
  887MOL0     H22358   9.421  10.062   7.543  0.2941  1.7794  0.2527
  887MOL0     H22359   9.467   9.937   7.661 -1.5817 -4.3031 -2.1911
  887MOL0     H22360   9.274   9.799   7.582 -2.9292  0.8803 -2.0193
  887MOL0     H22361   9.224   9.905   7.469 -0.2269 -1.9089 -1.8410
  887MOL0     H22362   9.516   9.783   7.479  0.0615 -2.4801 -1.2581
  887MOL0     H22363   9.391   9.733   7.364  1.3001 -0.6394  0.5576
  887MOL0     H22364   9.493  10.144   7.223  0.4979 -2.1663  0.3689
  887MOL0     H22365   9.355  10.290   6.930 -0.7030 -3.3733  0.3244
  887MOL0     H22366   9.480  10.309   7.066 -0.8531  4.1681  3.5207
  887MOL0     H22367   9.310  10.380   7.068 -1.9935  0.1671 -3.5190
  887MOL0     H22368   8.995  10.059   6.608 -1.0706 -1.9758  0.8433
  887MOL0     H22369   8.780  10.120   6.485  1.5291 -3.4897  1.3166
  887MOL0     H22370   8.433  10.286   6.701  0.6940  0.0572 -0.2337
  887MOL0     H22371   8.525  10.416   6.635  1.4222  0.3292 -1.7130
  887MOL0     H22372   8.373  10.234   6.456  3.8862 -1.5664  3.3846
  887MOL0     H22373   8.275  10.372   6.532 -1.2775  0.8480 -0.6405
  887MOL0     H22374   8.480  10.393   6.316  0.6453 -0.1229  0.8188
  887MOL0     H22375   8.461  10.519   6.449  0.7182 -1.0411  0.6800
  887MOL0     H22376   8.234  10.540   6.381 -0.2600  1.0991 -0.1871
  887MOL0     H22377   8.246  10.396   6.283 -1.0423 -0.4089  3.3526
  887MOL0     H22378   8.387  10.512   6.118  0.4862  0.1118  0.3803
  887MOL0     H22379   8.241  10.611   6.151 -0.8954 -0.4971  1.1056
  887MOL0     H22380   8.531  10.661   6.250 -0.2232  0.7605  4.2807
  887MOL0     H22381   8.393  10.746   6.319  1.4981  1.0881  0.1144
  887MOL0     H22382   8.429  10.902   6.163  0.1986 -1.0738  2.9303
  887MOL0     H22383   8.327  10.806   6.068 -0.2340  2.7287 -0.1202
  887MOL0     H22384   8.523  10.866   5.938 -0.9430  0.2454  0.8281
  887MOL0     H22385   8.520  10.686   5.972 -2.6311 -0.3921  0.2293
  887MOL0     H22386   8.640  10.323   6.830 -2.1463 -1.6169  0.1795
  887MOL0     H22387   8.834  10.226   6.970  0.4348  1.4983 -0.0161
  887MOL0     H22388   9.077   9.937   7.078  0.9401 -2.0758  1.8867
  887MOL0     H22389   9.235   9.810   7.225  2.3509 -0.4333  1.1907
  887MOL0     H22390   9.196  10.410   9.011  0.4129 -0.4100  0.7997
  887MOL0     H22391   9.223  10.574   9.201 -1.9286  2.5550 -1.7274
  887MOL0     H22392   9.222  10.437   9.767 -0.8955  1.2576 -2.9334
  887MOL0     H22393   9.263  10.565   9.995  0.2325  2.1516  1.3348
  887MOL0     H22394   9.301  10.973  10.133  0.7799 -2.4123 -0.2066
  887MOL0     H22395   9.279  10.993   9.960 -2.1803  0.5292 -1.8394
  887MOL0     H22396   9.121  11.118  10.130  0.3072  0.8781 -1.1711
  887MOL0     H22397   9.043  10.959  10.160  0.4264 -0.5610  0.0473
  887MOL0     H22398   9.061  11.071   9.883  4.2328 -3.1926  1.5053
  887MOL0     H22399   8.950  10.949   9.951  1.1218 -0.5855  1.0038
  887MOL0     H22400   8.871  11.126  10.114  3.0302  1.6259  0.6536
  887MOL0     H22401   8.815  11.129   9.940 -1.9541 -0.3763  0.9663
  887MOL0     H22402   9.102  11.468  10.016 -0.7337  0.9138 -0.7772
  887MOL0     H22403   9.144  10.914   9.795 -1.2677 -0.6563 -1.6531
  887MOL0     H22404   8.986  10.810   9.524  0.7869 -0.8007 -1.1343
  887MOL0     H22405   9.092  10.936   9.571  1.6901 -0.0332 -1.1564
  887MOL0     H22406   9.156  10.809   9.464  1.5305  1.1185  0.7191
  888MOL0     O22407   3.234   4.615   3.505 -0.2273 -0.3246  0.5384
  888MOL0     C22408   3.320   4.686   3.549  0.7284  0.0875  0.3767
  888MOL0     O22409   3.394   4.768   3.465 -0.0916 -0.3870 -0.1178
  888MOL0     C22410   3.525   4.796   3.504  0.2584  0.0311  0.0133
  888MOL0     C22411   3.611   4.689   3.515  0.7730 -0.2333  0.0208
  888MOL0     C22412   3.748   4.718   3.536  0.2161  0.3390  0.2445
  888MOL0     C22413   3.788   4.857   3.553  0.0309  0.5978 -0.5142
  888MOL0     O22414   3.923   4.885   3.572  0.2337 -0.3080  0.0075
  888MOL0     C22415   3.971   4.868   3.709  0.0577 -0.2128  1.6452
  888MOL0     C22416   4.027   5.002   3.741 -0.6401 -0.5826  0.4050
  888MOL0     C22417   4.064   4.999   3.891  0.3011  0.4874 -0.4579
  888MOL0     C22418   4.128   5.130   3.930  0.7885  0.0942 -0.2248
  888MOL0     C22419   4.176   5.126   4.074 -0.4374  0.0362  0.3550
  888MOL0     C22420   4.237   5.259   4.118 -0.5914 -0.3026 -0.1732
  888MOL0     C22421   4.367   5.313   4.054  0.5565  0.5329  1.0000
  888MOL0     C22422   4.484   5.213   4.068 -0.1511 -0.6857  0.4289
  888MOL0     N22423   4.605   5.279   4.017 -0.2510  0.9215  0.4727
  888MOL0     C22424   4.621   5.374   3.919  0.0511 -0.0294 -0.2370
  888MOL0     C22425   4.748   5.420   3.927 -0.6152  0.5719  0.3454
  888MOL0     C22426   4.815   5.525   3.854 -0.4554 -0.5388  0.0396
  888MOL0     C22427   4.742   5.572   3.729  0.0910  0.1059 -0.4770
  888MOL0     C22428   4.813   5.683   3.655  0.0390 -0.6981  0.0093
  888MOL0     C22429   4.716   5.755   3.548 -0.2133 -0.2040  0.3062
  888MOL0     O22430   4.613   5.660   3.502 -0.0561  0.5373  0.1023
  888MOL0     C22431   4.649   5.561   3.410  0.0985 -1.1038 -0.4563
  888MOL0     C22432   4.543   5.477   3.375 -0.4295  0.4940 -0.3361
  888MOL0     C22433   4.550   5.390   3.266 -0.3119  0.9851 -0.2425
  888MOL0     C22434   4.429   5.297   3.239  0.3504  0.3579 -0.6355
  888MOL0     C22435   4.679   5.373   3.205 -0.6434  0.0683 -0.2539
  888MOL0     C22436   4.704   5.286   3.085  0.0300 -0.5299  0.3682
  888MOL0     O22437   4.838   5.278   3.047  0.1865  0.6328  0.0244
  888MOL0     C22438   4.871   5.185   2.947  0.0642  0.5524  0.2401
  888MOL0     C22439   4.980   5.102   2.966 -0.4303  0.8205  0.3997
  888MOL0     C22440   5.029   5.019   2.866  0.5081 -0.4861 -0.4555
  888MOL0     C22441   4.966   5.005   2.744 -0.5466  0.9089 -1.0745
  888MOL0     O22442   5.016   4.911   2.647 -0.5871 -0.1564  0.6693
  888MOL0     C22443   4.995   4.770   2.682 -0.2897  0.1167  0.2391
  888MOL0     C22444   5.068   4.663   2.595 -0.9943  0.1251 -0.1029
  888MOL0     C22445   5.024   4.521   2.628 -0.3563  0.3166  0.5879
  888MOL0     C22446   5.107   4.418   2.547  0.1182 -0.5119  0.8765
  888MOL0     C22447   5.016   4.292   2.516 -1.1560  0.8421 -0.4179
  888MOL0     C22448   4.951   4.313   2.378  0.1512 -1.3742  0.6609
  888MOL0     C22449   4.830   4.217   2.371  0.5743 -0.1794 -0.5194
  888MOL0     C22450   4.763   4.218   2.231 -0.2464 -0.5128  0.1818
  888MOL0    Cl22451   4.670   4.360   2.210  0.0652 -0.5436  0.2924
  888MOL0     C22452   4.846   5.069   2.727  0.3287  0.6662 -0.4288
  888MOL0     C22453   4.804   5.161   2.821  0.4575 -0.5939  0.5138
  888MOL0     O22454   4.607   5.226   3.030  0.1575 -0.0494  0.4051
  888MOL0     C22455   4.791   5.448   3.257 -0.4623  0.0891 -0.3666
  888MOL0     C22456   4.774   5.548   3.351 -0.1076  0.5280 -0.1348
  888MOL0     N22457   4.820   5.348   4.022  0.6953 -0.3971  0.2134
  888MOL0     N22458   4.728   5.262   4.078 -0.0686 -0.3532  0.2509
  888MOL0     C22459   3.698   4.958   3.539  0.9176  0.6940 -0.2022
  888MOL0     C22460   3.564   4.931   3.511  0.0402  0.5921  0.9510
  888MOL0     C22461   3.342   4.672   3.698 -0.0899 -0.4595  0.8605
  888MOL0     C22462   3.361   4.539   3.738 -0.1175 -0.6806 -0.4933
  888MOL0     C22463   3.397   4.503   3.863 -0.6164 -0.4834 -0.9031
  888MOL0     C22464   3.391   4.603   3.951 -0.3483  0.6956 -1.2016
  888MOL0     O22465   3.421   4.561   4.083  0.4493 -0.2824 -0.0168
  888MOL0     C22466   3.312   4.514   4.163  1.0334  0.6072  0.1224
  888MOL0     C22467   3.197   4.619   4.177 -0.8902  0.3027 -0.2395
  888MOL0     C22468   3.240   4.764   4.227 -1.2740  0.5695 -0.3348
  888MOL0     C22469   3.375   4.777   4.302  0.0718 -0.9313  0.8088
  888MOL0     C22470   3.399   4.909   4.370  0.1609 -0.2849 -0.4513
  888MOL0     C22471   3.418   5.007   4.443  0.1072 -0.2128  0.2275
  888MOL0     C22472   3.387   4.741   3.926 -0.0244 -0.4366 -0.0211
  888MOL0     C22473   3.340   4.775   3.797 -0.5651 -0.1140 -0.3715
  888MOL0     C22474   3.305   4.920   3.769  0.1930  0.3362  0.5055
  888MOL0     H22475   3.569   4.588   3.515  2.0638 -0.7983 -0.7606
  888MOL0     H22476   3.824   4.640   3.544  1.6125  1.5550 -0.5822
  888MOL0     H22477   4.041   4.784   3.704  0.0247 -0.1550 -0.3818
  888MOL0     H22478   3.887   4.845   3.776 -0.4980 -0.4123  0.8875
  888MOL0     H22479   4.124   5.015   3.691 -1.6519  1.8795 -1.0334
  888MOL0     H22480   3.969   5.090   3.714  1.8506 -0.0420 -4.1733
  888MOL0     H22481   3.972   4.980   3.946  1.2950 -0.9123  0.8045
  888MOL0     H22482   4.134   4.918   3.912 -2.0271 -0.8926  2.6716
  888MOL0     H22483   4.212   5.152   3.863 -1.1404  0.0130 -2.7971
  888MOL0     H22484   4.055   5.210   3.918 -0.8391 -1.5122 -1.6465
  888MOL0     H22485   4.255   5.050   4.078 -1.4607 -1.2571 -1.8158
  888MOL0     H22486   4.088   5.098   4.131 -1.9443 -0.7221 -2.1729
  888MOL0     H22487   4.159   5.335   4.111  0.5371  0.8516 -0.7585
  888MOL0     H22488   4.256   5.247   4.225 -1.7757  0.9104  0.2006
  888MOL0     H22489   4.390   5.411   4.098  0.3429  1.2299 -0.3844
  888MOL0     H22490   4.357   5.339   3.948  1.2598  2.9163  1.4465
  888MOL0     H22491   4.488   5.181   4.173  0.0551 -1.8039  0.0950
  888MOL0     H22492   4.471   5.124   4.005 -3.1469 -1.3147  1.7493
  888MOL0     H22493   4.546   5.412   3.850  0.5217  2.0933  0.3235
  888MOL0     H22494   4.917   5.486   3.843  0.1433 -0.3660  3.7080
  888MOL0     H22495   4.821   5.611   3.920  1.7048  2.3033 -3.4732
  888MOL0     H22496   4.711   5.494   3.659 -1.0378  1.9179 -2.1100
  888MOL0     H22497   4.645   5.619   3.751 -0.6908 -1.3868 -0.6208
  888MOL0     H22498   4.840   5.756   3.732  0.3941 -0.8799  0.0613
  888MOL0     H22499   4.901   5.640   3.605  1.7502  2.7034 -0.1774
  888MOL0     H22500   4.673   5.847   3.590  1.2387  0.3733  0.5664
  888MOL0     H22501   4.758   5.795   3.455 -1.0569 -1.5624 -0.7023
  888MOL0     H22502   4.444   5.487   3.419 -1.7292  2.7265 -3.4018
  888MOL0     H22503   4.395   5.305   3.136  0.3164 -1.7929 -0.8326
  888MOL0     H22504   4.346   5.319   3.308 -0.6153 -2.0222 -0.9500
  888MOL0     H22505   4.453   5.191   3.253 -0.8008  0.0082 -1.2130
  888MOL0     H22506   5.030   5.108   3.062  2.0853  2.2121 -0.8958
  888MOL0     H22507   5.107   4.948   2.895 -0.0412 -1.1577 -0.5869
  888MOL0     H22508   5.011   4.755   2.789  1.3929  3.7362  0.6583
  888MOL0     H22509   4.888   4.756   2.664 -0.1558 -2.4937  1.1467
  888MOL0     H22510   5.042   4.689   2.492 -0.3507  2.5457  0.2718
  888MOL0     H22511   5.175   4.682   2.610 -0.6734 -2.0267  0.7545
  888MOL0     H22512   4.921   4.505   2.596  0.6571 -0.3366 -2.7194
  888MOL0     H22513   5.041   4.503   2.735  0.5561 -0.9394  0.2475
  888MOL0     H22514   5.188   4.378   2.609  0.8866 -1.1862 -0.5092
  888MOL0     H22515   5.159   4.457   2.459 -2.0046 -2.6646 -1.4643
  888MOL0     H22516   5.082   4.206   2.506 -1.5741  0.2353  1.7404
  888MOL0     H22517   4.944   4.284   2.598  0.6814  0.0199  1.1908
  888MOL0     H22518   5.018   4.304   2.292  0.2322  0.9368  0.4280
  888MOL0     H22519   4.907   4.413   2.373 -2.7347 -2.6008 -1.7707
  888MOL0     H22520   4.753   4.234   2.447 -1.2932 -1.6421 -1.9800
  888MOL0     H22521   4.864   4.117   2.399 -0.0259  0.3762  2.5231
  888MOL0     H22522   4.710   4.122   2.226  0.3340 -0.8512  0.4607
  888MOL0     H22523   4.855   4.218   2.171  0.6358 -2.9501  1.4043
  888MOL0     H22524   4.781   5.052   2.642 -0.9986  2.7538  0.0898
  888MOL0     H22525   4.715   5.220   2.805  0.0624 -1.2832  0.1099
  888MOL0     H22526   4.881   5.448   3.196 -0.4147  2.2934 -0.3727
  888MOL0     H22527   4.857   5.613   3.373 -1.1662  2.2193 -0.9703
  888MOL0     H22528   3.725   5.060   3.565  2.0721  0.9025 -2.0193
  888MOL0     H22529   3.494   5.012   3.496  1.7690  1.7165 -2.1066
  888MOL0     H22530   3.350   4.465   3.659 -1.7427  0.9807 -1.9180
  888MOL0     H22531   3.422   4.401   3.890 -2.0004 -0.1786  1.9635
  888MOL0     H22532   3.271   4.421   4.124 -0.8242  1.7776 -0.8848
  888MOL0     H22533   3.351   4.482   4.260  1.8574  0.2033 -0.3265
  888MOL0     H22534   3.120   4.568   4.235 -0.7024 -1.5476 -1.5265
  888MOL0     H22535   3.156   4.635   4.077 -0.0691  1.0555 -0.4653
  888MOL0     H22536   3.260   4.838   4.149  0.0394  0.7180  0.1315
  888MOL0     H22537   3.168   4.810   4.296  1.2223  0.5868  2.4457
  888MOL0     H22538   3.450   4.769   4.223 -0.8247 -0.6622 -0.0983
  888MOL0     H22539   3.403   4.693   4.366  1.1590 -1.1885  0.0258
  888MOL0     H22540   3.459   5.092   4.495 -2.5490  1.8878 -0.8208
  888MOL0     H22541   3.406   4.810   4.007 -0.9349  0.2293 -0.3636
  888MOL0     H22542   3.216   4.923   3.706 -0.8360  1.7354  1.9610
  888MOL0     H22543   3.283   4.983   3.856 -1.8223  0.0886  0.2205
  888MOL0     H22544   3.397   4.960   3.725  0.3229  0.7650  1.1379
  889MOL0     O22545   0.237   4.291   8.085  0.7617 -0.3206  0.3464
  889MOL0     C22546   0.236   4.172   8.121 -0.2570 -0.0011 -0.4844
  889MOL0     O22547   0.346   4.098   8.165 -0.0681  0.2670  0.6743
  889MOL0     C22548   0.459   4.161   8.208 -0.0308  0.5102 -0.0462
  889MOL0     C22549   0.565   4.151   8.123 -0.0699  0.0049  1.3411
  889MOL0     C22550   0.699   4.185   8.164 -0.1213  0.7948 -0.4116
  889MOL0     C22551   0.713   4.240   8.293  0.5878  0.7589  0.7789
  889MOL0     O22552   0.839   4.285   8.337 -0.0170  0.0592 -0.1134
  889MOL0     C22553   0.959   4.272   8.264 -0.3832 -1.3294 -1.6169
  889MOL0     C22554   1.068   4.315   8.365  0.3352  1.0504 -0.7165
  889MOL0     C22555   1.057   4.466   8.395  0.1176  0.4010 -0.0197
  889MOL0     C22556   1.162   4.520   8.493  0.4812  0.0161 -0.3039
  889MOL0     C22557   1.137   4.670   8.513 -0.3787  0.3516  0.1531
  889MOL0     C22558   1.221   4.737   8.618 -0.1862 -0.4951 -0.4804
  889MOL0     C22559   1.213   4.890   8.616 -0.6365  1.1566 -0.5101
  889MOL0     C22560   1.295   4.947   8.733  0.7824 -0.1179 -0.3530
  889MOL0     N22561   1.265   5.098   8.741 -0.1271 -0.1806 -0.1106
  889MOL0     C22562   1.211   5.161   8.850 -0.2264  0.5763  0.3681
  889MOL0     C22563   1.188   5.289   8.820  0.1210 -0.4298 -0.7666
  889MOL0     C22564   1.160   5.395   8.924  0.4628  0.2017  0.2648
  889MOL0     C22565   1.095   5.522   8.868 -0.3241  0.2298 -0.3660
  889MOL0     C22566   1.109   5.631   8.973 -0.1928  0.3997 -1.1204
  889MOL0     C22567   1.054   5.762   8.920 -0.2749 -0.6528  0.4422
  889MOL0     O22568   0.932   5.755   8.837  0.3720 -0.2017 -1.2879
  889MOL0     C22569   0.878   5.884   8.810 -0.1994 -0.1361 -0.1267
  889MOL0     C22570   0.948   5.997   8.782 -0.6160 -0.4434  0.0173
  889MOL0     C22571   0.892   6.107   8.730 -0.4470  0.1325  0.1734
  889MOL0     C22572   0.978   6.223   8.699 -0.6514  0.4925  0.5525
  889MOL0     C22573   0.747   6.113   8.718  0.0295 -0.1834  0.1155
  889MOL0     C22574   0.672   6.237   8.686 -0.0777 -0.5999 -0.7758
  889MOL0     O22575   0.549   6.220   8.623 -0.4012  0.5362  0.6164
  889MOL0     C22576   0.464   6.329   8.621 -0.4969  0.9197 -1.1980
  889MOL0     C22577   0.497   6.455   8.566 -0.0326 -0.7886 -0.1645
  889MOL0     C22578   0.399   6.552   8.574 -0.9561  0.0764 -1.4958
  889MOL0     C22579   0.280   6.530   8.646 -0.1940 -0.3835 -0.0630
  889MOL0     O22580   0.190   6.636   8.649 -0.3610  0.4991  0.5443
  889MOL0     C22581   0.064   6.616   8.709 -0.7655  0.6295 -0.0019
  889MOL0     C22582  -0.018   6.740   8.721 -0.5449  0.0528 -0.2392
  889MOL0     C22583  -0.165   6.710   8.753 -0.5485 -0.3114 -0.3233
  889MOL0     C22584  -0.264   6.724   8.635  0.0386  1.1476 -0.5566
  889MOL0     C22585  -0.276   6.589   8.559 -0.3866 -0.5570 -0.4857
  889MOL0     C22586  -0.397   6.512   8.597  0.8874 -1.0026  0.5789
  889MOL0     C22587  -0.418   6.403   8.478 -0.4206  0.1714 -0.6259
  889MOL0     C22588  -0.373   6.256   8.521  0.1510  0.3004 -0.3837
  889MOL0    Cl22589  -0.393   6.137   8.381 -0.2405 -0.0191 -0.0278
  889MOL0     C22590   0.251   6.400   8.704  0.5580 -1.1712  0.4005
  889MOL0     C22591   0.350   6.308   8.689 -0.3812  0.0080  0.4066
  889MOL0     O22592   0.713   6.349   8.730 -0.3926 -0.2882  0.3885
  889MOL0     C22593   0.676   5.994   8.733 -0.4683 -0.7891  0.1571
  889MOL0     C22594   0.740   5.887   8.788  0.0089 -0.6427  0.1873
  889MOL0     N22595   1.229   5.309   8.688 -0.1050  0.2428 -0.3032
  889MOL0     N22596   1.277   5.194   8.640  0.8681  1.3166  1.0132
  889MOL0     C22597   0.600   4.258   8.375  0.7236 -0.5415 -0.2687
  889MOL0     C22598   0.469   4.220   8.334 -0.2465 -0.6328  0.1628
  889MOL0     C22599   0.104   4.107   8.141 -0.3215  0.4994  0.1518
  889MOL0     C22600   0.070   4.036   8.257  0.0141  0.4361 -0.2474
  889MOL0     C22601  -0.048   3.960   8.275  0.4461  0.2276 -0.1827
  889MOL0     C22602  -0.142   3.970   8.176  0.1912  0.0173  0.0474
  889MOL0     O22603  -0.252   3.896   8.187  0.1410 -0.2177  0.4289
  889MOL0     C22604  -0.374   3.975   8.192  0.2245  0.4182 -1.3790
  889MOL0     C22605  -0.467   3.892   8.281 -0.2822  0.3525  0.0208
  889MOL0     C22606  -0.408   3.887   8.427  0.2918 -0.1949  0.9269
  889MOL0     C22607  -0.419   4.014   8.502 -1.0977  0.0539 -0.5131
  889MOL0     C22608  -0.558   4.037   8.549  1.0840 -0.0956  0.3036
  889MOL0     C22609  -0.670   4.051   8.582  0.2826  0.1203 -0.2100
  889MOL0     C22610  -0.118   4.035   8.057 -0.3289 -0.8518  0.2422
  889MOL0     C22611  -0.000   4.111   8.034  0.6967 -0.5527 -0.3650
  889MOL0     C22612   0.016   4.186   7.906 -0.1993  0.7721 -0.7619
  889MOL0     H22613   0.557   4.113   8.021  1.3833  1.1437  0.7638
  889MOL0     H22614   0.779   4.154   8.098  0.1810 -3.5334  1.6422
  889MOL0     H22615   0.968   4.339   8.178 -0.0500  3.0182  1.4738
  889MOL0     H22616   0.983   4.167   8.243  0.2034 -1.6611  0.4782
  889MOL0     H22617   1.071   4.245   8.450  0.2948  0.5098 -1.1519
  889MOL0     H22618   1.159   4.302   8.305  0.9743  3.9012 -0.5055
  889MOL0     H22619   1.047   4.530   8.307 -0.7683  0.3177  0.0053
  889MOL0     H22620   0.963   4.474   8.451  1.9217 -0.2610  3.3768
  889MOL0     H22621   1.148   4.467   8.588 -0.2813  2.4553  1.0468
  889MOL0     H22622   1.263   4.504   8.454  0.3418  0.2793 -0.7798
  889MOL0     H22623   1.031   4.675   8.537  0.0592  0.2068  2.3124
  889MOL0     H22624   1.165   4.725   8.422 -0.2008 -0.4829 -0.3015
  889MOL0     H22625   1.173   4.702   8.710  0.0893 -0.8833 -0.4818
  889MOL0     H22626   1.325   4.703   8.611 -0.4930 -1.2988 -1.6090
  889MOL0     H22627   1.111   4.931   8.608 -1.4210 -0.9464 -2.0907
  889MOL0     H22628   1.262   4.917   8.522  3.2639  2.6131  1.7250
  889MOL0     H22629   1.276   4.904   8.832 -2.9965  3.3834  0.7459
  889MOL0     H22630   1.402   4.932   8.718  1.2143  1.4020  0.9806
  889MOL0     H22631   1.191   5.120   8.948  3.2583  1.6249  1.6833
  889MOL0     H22632   1.250   5.408   8.985 -1.0454  1.0738  2.3897
  889MOL0     H22633   1.090   5.353   8.996  1.8525 -1.5126  0.7014
  889MOL0     H22634   1.143   5.557   8.776  1.3279  1.9747  1.0523
  889MOL0     H22635   0.989   5.500   8.859 -0.8845  1.8537  1.4415
  889MOL0     H22636   1.054   5.608   9.065 -0.8259 -0.3238 -1.6754
  889MOL0     H22637   1.215   5.641   9.001  0.1576 -0.0587 -2.2488
  889MOL0     H22638   1.029   5.827   9.004  0.7103  0.8845 -0.3902
  889MOL0     H22639   1.136   5.799   8.857  0.0697 -0.5553  0.9440
  889MOL0     H22640   1.053   6.008   8.810 -0.6152  0.7671 -0.3872
  889MOL0     H22641   1.070   6.189   8.651 -0.3074  0.6067  1.1179
  889MOL0     H22642   1.005   6.280   8.789 -2.3774  0.1524  1.3312
  889MOL0     H22643   0.931   6.291   8.627  1.8618  0.7976 -0.9374
  889MOL0     H22644   0.591   6.474   8.515 -0.6776  2.0447 -0.4255
  889MOL0     H22645   0.416   6.647   8.525  1.2734  0.5579  0.0456
  889MOL0     H22646   0.009   6.543   8.649  2.2501 -1.3745 -0.5180
  889MOL0     H22647   0.082   6.568   8.805  0.6206  1.9788  0.4457
  889MOL0     H22648   0.019   6.809   8.798  1.7553 -1.8275  0.4710
  889MOL0     H22649   0.000   6.795   8.628 -0.0395 -1.0213 -0.7947
  889MOL0     H22650  -0.177   6.784   8.833 -0.0506 -0.1584 -0.3888
  889MOL0     H22651  -0.175   6.611   8.798 -0.5462 -0.1222  0.0981
  889MOL0     H22652  -0.238   6.809   8.572  0.4308  1.4651  0.0258
  889MOL0     H22653  -0.359   6.751   8.681  1.4647  3.7859  1.0993
  889MOL0     H22654  -0.297   6.616   8.455 -0.8894 -1.3484 -0.5951
  889MOL0     H22655  -0.179   6.539   8.550  1.3492  2.6281 -1.1920
  889MOL0     H22656  -0.487   6.572   8.610  0.9741 -0.6708 -0.2755
  889MOL0     H22657  -0.381   6.465   8.695  0.6906 -0.3055  0.9500
  889MOL0     H22658  -0.357   6.431   8.392  2.0429 -0.8854  0.7012
  889MOL0     H22659  -0.524   6.399   8.448  0.0781 -1.5672 -2.3200
  889MOL0     H22660  -0.443   6.222   8.598 -0.1801  1.8718  0.0462
  889MOL0     H22661  -0.268   6.256   8.550  0.4224 -0.7057 -1.3174
  889MOL0     H22662   0.163   6.371   8.760 -1.6943  2.8980 -0.6038
  889MOL0     H22663   0.331   6.210   8.733  0.7617  0.6450  2.4682
  889MOL0     H22664   0.569   5.986   8.716 -0.5074 -2.0696  0.8538
  889MOL0     H22665   0.681   5.796   8.784 -1.5175  0.3414 -0.6028
  889MOL0     H22666   0.617   4.308   8.469 -1.4551  0.5406 -0.3711
  889MOL0     H22667   0.394   4.246   8.408 -0.9158  0.3127 -0.8095
  889MOL0     H22668   0.142   4.057   8.336  0.6793  0.5296 -0.8646
  889MOL0     H22669  -0.058   3.918   8.374 -0.9076 -0.1561 -0.4647
  889MOL0     H22670  -0.349   4.067   8.247  1.8508 -1.4399  1.2277
  889MOL0     H22671  -0.413   4.000   8.093 -0.0250 -0.5093 -1.5242
  889MOL0     H22672  -0.472   3.788   8.246  2.7234  0.5424 -1.3015
  889MOL0     H22673  -0.567   3.936   8.284 -0.9752 -1.2244  1.0364
  889MOL0     H22674  -0.473   3.817   8.480  0.9712  0.1783  2.3214
  889MOL0     H22675  -0.306   3.846   8.425  1.4957  2.5115  1.5697
  889MOL0     H22676  -0.374   4.102   8.455  0.2945 -1.3687 -2.0150
  889MOL0     H22677  -0.366   4.003   8.597 -1.3740  3.4603  0.1703
  889MOL0     H22678  -0.773   4.075   8.602  1.4080  2.2268  4.3834
  889MOL0     H22679  -0.197   4.036   7.982  0.0168 -0.7531 -0.1221
  889MOL0     H22680   0.086   4.137   7.838 -0.1517  1.5418 -1.2895
  889MOL0     H22681  -0.083   4.212   7.867 -1.9741  1.1382  3.4889
  889MOL0     H22682   0.060   4.286   7.913  1.1836  0.2337 -1.3351
  890MOL0     O22683   0.615   1.354   1.771  0.1109  0.2531 -0.3575
  890MOL0     C22684   0.621   1.294   1.871 -0.8773 -0.6585 -0.9935
  890MOL0     O22685   0.659   1.163   1.874  0.0681 -0.3171 -0.5767
  890MOL0     C22686   0.696   1.100   1.760 -0.2261 -0.5557 -0.4486
  890MOL0     C22687   0.836   1.072   1.742 -0.1351 -0.0216 -0.0955
  890MOL0     C22688   0.875   0.996   1.633  0.1305  0.6798  0.4088
  890MOL0     C22689   0.784   0.936   1.542 -0.1412  0.1300 -0.3970
  890MOL0     O22690   0.816   0.856   1.429  0.6416 -0.6147  0.9478
  890MOL0     C22691   0.941   0.790   1.449  0.3536  0.5908 -0.1089
  890MOL0     C22692   0.954   0.673   1.345 -0.4775  0.3050 -0.0081
  890MOL0     C22693   1.072   0.580   1.380 -0.0558 -0.2966  0.0777
  890MOL0     C22694   1.084   0.456   1.287 -0.7593 -0.9715  0.0186
  890MOL0     C22695   1.204   0.455   1.189 -0.2020 -0.2541 -0.3658
  890MOL0     C22696   1.212   0.339   1.089 -0.6884  0.4213 -0.1217
  890MOL0     C22697   1.102   0.352   0.979  0.3668  0.4460  0.1278
  890MOL0     C22698   1.144   0.276   0.857  0.2222 -0.1749 -0.4489
  890MOL0     N22699   1.247   0.354   0.790  0.0253 -0.0091 -0.3717
  890MOL0     C22700   1.376   0.309   0.760  0.7018 -0.5829 -0.7355
  890MOL0     C22701   1.434   0.391   0.675  0.5796  0.3178 -0.0531
  890MOL0     C22702   1.570   0.390   0.619 -0.1166 -0.0296 -0.0784
  890MOL0     C22703   1.668   0.504   0.671  0.1868 -0.3272 -0.1723
  890MOL0     C22704   1.745   0.469   0.797 -0.6851  0.0202  0.7674
  890MOL0     C22705   1.849   0.574   0.825 -0.3624 -0.1230  0.7208
  890MOL0     O22706   1.974   0.555   0.762 -0.1450  0.0638 -0.6881
  890MOL0     C22707   2.048   0.462   0.828  0.5321 -0.3732 -0.6283
  890MOL0     C22708   2.061   0.331   0.772  0.0875  0.5877  0.2066
  890MOL0     C22709   2.134   0.225   0.832 -0.3373  0.9187 -1.4235
  890MOL0     C22710   2.158   0.097   0.750 -0.3067  0.1426  0.0043
  890MOL0     C22711   2.228   0.261   0.928 -0.3796  0.0785  0.4083
  890MOL0     C22712   2.319   0.159   0.990 -0.0090 -0.8128  0.0946
  890MOL0     O22713   2.431   0.204   1.054 -0.2445 -0.7063 -0.1788
  890MOL0     C22714   2.519   0.116   1.115  0.1328 -0.0574  1.3543
  890MOL0     C22715   2.652   0.131   1.087 -0.7087  0.0640 -0.6988
  890MOL0     C22716   2.754   0.052   1.147 -0.2482  0.7604  0.1905
  890MOL0     C22717   2.720  -0.042   1.247  0.0298 -0.2858  0.3340
  890MOL0     O22718   2.812  -0.103   1.337 -0.0754  0.2158  0.0713
  890MOL0     C22719   2.914  -0.006   1.385  0.5809  0.0668 -0.1112
  890MOL0     C22720   3.051  -0.033   1.329 -0.3850 -0.5797 -0.2199
  890MOL0     C22721   3.155   0.051   1.414 -0.1905 -0.3245  0.2366
  890MOL0     C22722   3.138   0.201   1.385 -0.1208  0.3714  0.6628
  890MOL0     C22723   3.269   0.278   1.433 -0.0843  0.7086 -0.2951
  890MOL0     C22724   3.381   0.289   1.322 -0.4549 -0.3595  0.7242
  890MOL0     C22725   3.483   0.390   1.366 -0.7910  0.5681  0.0887
  890MOL0     C22726   3.579   0.405   1.255  0.3267  0.5431  0.0247
  890MOL0    Cl22727   3.684   0.257   1.241 -0.0153 -0.3555 -0.0934
  890MOL0     C22728   2.582  -0.058   1.275  0.0959  0.1502  0.0457
  890MOL0     C22729   2.482   0.019   1.210  0.0170 -0.1803  0.7750
  890MOL0     O22730   2.297   0.040   0.973  0.4138  0.2757 -0.3437
  890MOL0     C22731   2.237   0.386   0.972 -0.1947  0.2068 -0.3693
  890MOL0     C22732   2.140   0.485   0.939  0.0703 -0.1515 -0.5505
  890MOL0     N22733   1.343   0.486   0.657 -0.2873  0.7844  0.5816
  890MOL0     N22734   1.230   0.473   0.718  0.1038 -0.5466  0.6666
  890MOL0     C22735   0.655   0.966   1.556  0.7194 -1.0462 -0.6807
  890MOL0     C22736   0.606   1.039   1.670 -0.0766  1.1177 -0.3897
  890MOL0     C22737   0.603   1.348   2.009  0.3851  0.2376 -0.5402
  890MOL0     C22738   0.583   1.272   2.123 -0.4944 -0.4019 -0.0390
  890MOL0     C22739   0.552   1.332   2.247 -1.2071  0.0522  0.8290
  890MOL0     C22740   0.543   1.469   2.263 -0.0991  0.8173 -0.2233
  890MOL0     O22741   0.498   1.531   2.374  0.2487  0.0669  0.2067
  890MOL0     C22742   0.400   1.467   2.457  0.1404 -0.2244  1.0985
  890MOL0     C22743   0.299   1.579   2.507  0.1442  0.0902 -0.7293
  890MOL0     C22744   0.362   1.707   2.567 -1.2189  0.4026  0.3083
  890MOL0     C22745   0.254   1.787   2.647 -0.5634 -0.3125  0.2242
  890MOL0     C22746   0.192   1.720   2.765 -0.2423  0.2542  0.0513
  890MOL0     C22747   0.139   1.672   2.863 -0.1030 -0.3391 -0.1375
  890MOL0     C22748   0.591   1.544   2.155 -0.4112 -0.4301 -0.5489
  890MOL0     C22749   0.603   1.494   2.026 -0.1465  0.3559 -0.3001
  890MOL0     C22750   0.641   1.597   1.920 -0.0581 -0.1099 -1.1963
  890MOL0     H22751   0.899   1.114   1.820 -1.2289  1.3618  0.0748
  890MOL0     H22752   0.982   0.989   1.619  0.1887  1.8795  0.1206
  890MOL0     H22753   0.933   0.747   1.549 -0.0317  3.4591  1.1973
  890MOL0     H22754   1.022   0.864   1.449  1.5969 -0.7159  0.8872
  890MOL0     H22755   0.860   0.618   1.336 -0.9134  1.2246 -1.3912
  890MOL0     H22756   0.981   0.723   1.251 -2.6003  0.8576 -0.3670
  890MOL0     H22757   1.151   0.654   1.365 -1.2760  0.9863 -0.2452
  890MOL0     H22758   1.065   0.537   1.481 -1.0384  1.2283  0.7090
  890MOL0     H22759   1.102   0.366   1.347 -0.5000  0.7723  2.7350
  890MOL0     H22760   0.990   0.459   1.231 -1.0975  0.1184  0.6073
  890MOL0     H22761   1.300   0.464   1.240 -1.7528 -0.8662  2.8710
  890MOL0     H22762   1.192   0.547   1.130  0.9516  0.4774  0.5195
  890MOL0     H22763   1.311   0.345   1.042 -1.6770  2.1695 -2.1541
  890MOL0     H22764   1.213   0.236   1.124 -0.6704 -0.3165 -2.1849
  890MOL0     H22765   1.087   0.456   0.952 -0.6218  0.5729  1.0903
  890MOL0     H22766   1.009   0.312   1.020 -1.8415  3.2341 -1.8077
  890MOL0     H22767   1.177   0.172   0.864 -1.0175 -0.4551  2.5711
  890MOL0     H22768   1.056   0.277   0.793 -0.3797 -0.9190  0.3464
  890MOL0     H22769   1.421   0.219   0.801 -0.6005 -0.4111  1.2116
  890MOL0     H22770   1.565   0.390   0.510  1.4779 -0.3178 -0.1696
  890MOL0     H22771   1.613   0.297   0.656 -1.8285 -0.8814 -0.1433
  890MOL0     H22772   1.746   0.509   0.595  1.0486  4.0440  0.7328
  890MOL0     H22773   1.622   0.601   0.692  1.1898 -0.5522  4.0399
  890MOL0     H22774   1.669   0.483   0.874 -2.4633 -1.0209 -0.7130
  890MOL0     H22775   1.801   0.375   0.801  0.1718  0.5653  2.5250
  890MOL0     H22776   1.813   0.668   0.780  2.3964  1.3796  1.4573
  890MOL0     H22777   1.865   0.588   0.932  0.9402 -1.9486  0.7995
  890MOL0     H22778   2.006   0.311   0.681  2.5296  1.9414 -1.6916
  890MOL0     H22779   2.114   0.103   0.650  2.7642  1.4747 -1.4226
  890MOL0     H22780   2.125   0.007   0.801 -2.1428 -0.9054 -2.7992
  890MOL0     H22781   2.265   0.079   0.732 -0.1153  2.2604 -1.4255
  890MOL0     H22782   2.690   0.212   1.026  0.2421  0.0179 -0.1939
  890MOL0     H22783   2.859   0.076   1.137  0.5771 -2.2185  0.6992
  890MOL0     H22784   2.877   0.097   1.378  0.1122 -0.1407 -0.7144
  890MOL0     H22785   2.918  -0.031   1.492  0.0917 -1.6708 -0.4771
  890MOL0     H22786   3.074  -0.140   1.335 -0.4624 -0.5633  0.3912
  890MOL0     H22787   3.048  -0.006   1.223 -0.2665  1.5654  0.2784
  890MOL0     H22788   3.259   0.025   1.390  0.1551  3.3046 -3.2195
  890MOL0     H22789   3.137   0.037   1.521  0.0451 -2.9567  0.0015
  890MOL0     H22790   3.047   0.240   1.434 -0.5003  0.4459 -0.0893
  890MOL0     H22791   3.129   0.212   1.277  1.9822  1.1544  0.5152
  890MOL0     H22792   3.229   0.376   1.462  0.3222  0.3940  1.4021
  890MOL0     H22793   3.300   0.228   1.525 -0.2291 -0.7464 -1.0080
  890MOL0     H22794   3.337   0.334   1.233  0.8702  1.4845  0.9456
  890MOL0     H22795   3.430   0.192   1.310  2.3636  1.0594 -0.0621
  890MOL0     H22796   3.535   0.347   1.452 -2.9750 -0.2425  1.0768
  890MOL0     H22797   3.434   0.486   1.386 -1.9295  0.3796 -1.5496
  890MOL0     H22798   3.633   0.500   1.266 -0.5188  0.9383  1.1109
  890MOL0     H22799   3.527   0.417   1.160  2.4593  0.4156 -1.2048
  890MOL0     H22800   2.548  -0.130   1.348  0.0901 -0.7824 -0.8474
  890MOL0     H22801   2.376  -0.002   1.224 -0.7748  2.1254 -1.0741
  890MOL0     H22802   2.298   0.418   1.056 -4.7733  0.6198  3.1908
  890MOL0     H22803   2.142   0.587   0.976 -1.6585 -0.9569  2.1097
  890MOL0     H22804   0.571   0.939   1.493  0.1261 -0.2238 -0.2632
  890MOL0     H22805   0.501   1.025   1.695 -0.2942 -0.4149 -1.9071
  890MOL0     H22806   0.580   1.167   2.096  0.9282 -0.7772  1.1309
  890MOL0     H22807   0.517   1.279   2.336  1.6297  0.0373  2.0654
  890MOL0     H22808   0.342   1.390   2.406  3.0803 -0.5296 -2.1171
  890MOL0     H22809   0.447   1.428   2.549  0.4531  0.8750  1.4121
  890MOL0     H22810   0.232   1.534   2.581  0.2938  0.6066 -0.2706
  890MOL0     H22811   0.246   1.614   2.418  0.9219  2.8241 -0.2194
  890MOL0     H22812   0.449   1.683   2.629 -0.2289  1.9250 -0.4398
  890MOL0     H22813   0.413   1.768   2.492 -0.8895 -0.4633 -0.1865
  890MOL0     H22814   0.173   1.809   2.577 -1.9729 -4.2615  0.3409
  890MOL0     H22815   0.298   1.882   2.679 -1.9138  0.5408 -0.3587
  890MOL0     H22816   0.098   1.645   2.959  0.3867  0.4652  0.3068
  890MOL0     H22817   0.600   1.649   2.181  1.6062 -0.7390  0.1821
  890MOL0     H22818   0.554   1.609   1.853  0.3022  0.8226 -1.5130
  890MOL0     H22819   0.658   1.696   1.964  0.1744 -0.6761 -0.0010
  890MOL0     H22820   0.727   1.567   1.859 -0.1606 -1.0189 -0.9036
  891MOL0     O22821   2.768   0.461   4.558 -0.4194 -0.0975 -0.7000
  891MOL0     C22822   2.835   0.410   4.645 -0.5773 -0.2673  0.3483
  891MOL0     O22823   2.807   0.287   4.704  0.2249  0.1571 -0.4539
  891MOL0     C22824   2.723   0.200   4.635  0.1761  0.5976 -0.3798
  891MOL0     C22825   2.586   0.212   4.646  0.5972 -0.3133 -0.2045
  891MOL0     C22826   2.494   0.144   4.569  0.5399  0.4081  0.4165
  891MOL0     C22827   2.541   0.054   4.475  0.2244  0.4186 -0.9283
  891MOL0     O22828   2.459  -0.040   4.418  0.5023  0.4538  0.0664
  891MOL0     C22829   2.314  -0.047   4.425  0.0207  0.1627  0.3259
  891MOL0     C22830   2.273  -0.138   4.313  0.1813  0.1756  0.4814
  891MOL0     C22831   2.305  -0.088   4.173  0.9769 -0.6414 -0.0148
  891MOL0     C22832   2.248   0.058   4.150 -0.3496  0.7874 -0.3333
  891MOL0     C22833   2.283   0.095   4.012 -0.0527  0.2599  1.0565
  891MOL0     C22834   2.433   0.126   3.987  0.6745 -0.3645  0.2363
  891MOL0     C22835   2.460   0.154   3.841 -0.5008  0.1678 -0.6285
  891MOL0     C22836   2.433   0.303   3.804 -0.3835  0.5207  0.8599
  891MOL0     N22837   2.544   0.391   3.839 -0.3008  0.8170 -0.2417
  891MOL0     C22838   2.589   0.416   3.971  0.0175  0.0968 -0.3341
  891MOL0     C22839   2.714   0.471   3.956  0.0739 -0.4989 -0.5715
  891MOL0     C22840   2.812   0.501   4.072  0.8151 -0.3536 -1.0941
  891MOL0     C22841   2.948   0.516   4.026 -1.4182 -0.9572  0.4784
  891MOL0     C22842   3.037   0.549   4.152 -0.4472  0.5003  0.1049
  891MOL0     C22843   3.186   0.511   4.133 -0.7045 -0.1066  0.8652
  891MOL0     O22844   3.233   0.506   4.268  0.2190  0.3677 -0.4666
  891MOL0     C22845   3.361   0.521   4.309  0.6349 -0.1739  0.6057
  891MOL0     C22846   3.391   0.497   4.437 -1.0039 -0.6653 -0.7870
  891MOL0     C22847   3.525   0.495   4.483  0.1176 -0.3103 -0.6004
  891MOL0     C22848   3.552   0.462   4.629  0.2176  0.3851  1.0985
  891MOL0     C22849   3.630   0.531   4.397  0.1993 -0.4419  0.4992
  891MOL0     C22850   3.778   0.511   4.419  0.5276  0.2765  0.9645
  891MOL0     O22851   3.853   0.586   4.341  0.0263  0.2950  0.1158
  891MOL0     C22852   3.984   0.595   4.376  0.3213 -0.2815  0.2252
  891MOL0     C22853   4.018   0.684   4.478 -0.5620  0.3600 -0.3559
  891MOL0     C22854   4.152   0.681   4.525 -0.2226  0.5247 -0.2344
  891MOL0     C22855   4.246   0.611   4.452 -0.8817  0.2847  0.0863
  891MOL0     O22856   4.379   0.633   4.497  0.0016  0.4745 -0.1345
  891MOL0     C22857   4.492   0.561   4.427 -0.7771 -0.0345 -0.5059
  891MOL0     C22858   4.548   0.628   4.310 -0.1931 -0.4227 -0.9190
  891MOL0     C22859   4.604   0.761   4.361  0.0911  0.4950 -0.1851
  891MOL0     C22860   4.702   0.821   4.257  0.3560  0.6644  0.5241
  891MOL0     C22861   4.774   0.949   4.294  0.3369  1.4670  0.4350
  891MOL0     C22862   4.862   0.989   4.173  0.2039  0.2938 -0.2518
  891MOL0     C22863   4.963   0.884   4.121 -0.7137  0.0453 -0.8386
  891MOL0     C22864   5.056   0.835   4.241  0.1303 -0.3835  0.3866
  891MOL0    Cl22865   5.216   0.794   4.181  0.1691 -0.2410 -0.3958
  891MOL0     C22866   4.214   0.538   4.338  0.7036 -0.4093  0.5067
  891MOL0     C22867   4.078   0.523   4.306 -0.9116 -0.5513  0.3511
  891MOL0     O22868   3.823   0.427   4.496  0.5467 -0.1429  0.0120
  891MOL0     C22869   3.589   0.589   4.276 -1.2864  0.2340  0.2565
  891MOL0     C22870   3.457   0.577   4.230 -0.1170 -0.5411 -0.3217
  891MOL0     N22871   2.743   0.478   3.823 -0.3620  0.8059  0.1844
  891MOL0     N22872   2.649   0.423   3.758  0.8122  0.0857  0.1522
  891MOL0     C22873   2.679   0.047   4.454 -0.6756  0.3857 -0.2766
  891MOL0     C22874   2.771   0.121   4.537  0.1282  0.1715  0.0751
  891MOL0     C22875   2.920   0.501   4.728 -0.1475  0.7355 -0.1866
  891MOL0     C22876   2.928   0.485   4.867  0.6935  0.6823 -0.7616
  891MOL0     C22877   3.032   0.545   4.941  0.9308 -0.0017  0.3653
  891MOL0     C22878   3.105   0.644   4.885 -0.8851  0.4362 -0.0706
  891MOL0     O22879   3.186   0.718   4.963  0.1085  0.9348 -0.6018
  891MOL0     C22880   3.276   0.807   4.908  0.2122  0.3801 -0.3420
  891MOL0     C22881   3.375   0.860   5.010  0.3725 -0.7050 -0.6328
  891MOL0     C22882   3.455   0.987   4.957 -0.1896  0.4330  0.3006
  891MOL0     C22883   3.458   1.070   5.075 -0.6531 -0.1339 -0.3670
  891MOL0     C22884   3.547   1.176   5.048 -0.2908 -0.1672  0.2688
  891MOL0     C22885   3.620   1.270   5.045 -0.2567 -0.2542  0.2699
  891MOL0     C22886   3.091   0.671   4.745 -0.1239  0.6628  0.0535
  891MOL0     C22887   3.005   0.591   4.667 -0.1502 -0.8198  0.7639
  891MOL0     C22888   3.007   0.610   4.516  0.6270  0.0242  0.0168
  891MOL0     H22889   2.561   0.285   4.723 -1.7959 -2.4704  1.2578
  891MOL0     H22890   2.387   0.155   4.582  0.6679  1.3353  0.7456
  891MOL0     H22891   2.268   0.052   4.416 -3.9765 -1.6025 -1.6286
  891MOL0     H22892   2.273  -0.091   4.516 -0.3870 -1.6387 -0.6860
  891MOL0     H22893   2.324  -0.235   4.312  1.6476  0.8224 -3.2547
  891MOL0     H22894   2.165  -0.155   4.313 -0.3798  3.2274  0.7326
  891MOL0     H22895   2.414  -0.091   4.161  1.2584  1.5630  1.3759
  891MOL0     H22896   2.251  -0.160   4.111 -2.7526 -1.2157  3.4584
  891MOL0     H22897   2.143   0.048   4.177 -0.3150 -0.7428 -0.6680
  891MOL0     H22898   2.277   0.145   4.209 -1.6418  0.6452  0.5559
  891MOL0     H22899   2.230   0.189   3.995  1.6532  1.2231  0.8374
  891MOL0     H22900   2.262   0.016   3.939  0.7472  1.0343 -0.0320
  891MOL0     H22901   2.468   0.212   4.045  0.6779  0.4966 -1.0051
  891MOL0     H22902   2.491   0.043   4.031  0.0409  1.1104  4.2272
  891MOL0     H22903   2.403   0.094   3.769 -0.2073 -0.6710 -0.1801
  891MOL0     H22904   2.568   0.146   3.823 -0.0580  3.3515  0.0665
  891MOL0     H22905   2.418   0.316   3.696 -1.5444  2.2526  1.1946
  891MOL0     H22906   2.339   0.326   3.855 -0.4509 -0.9809  1.4759
  891MOL0     H22907   2.540   0.411   4.068  2.5972  2.5608  1.2518
  891MOL0     H22908   2.802   0.411   4.133 -3.4330 -1.5850 -3.1915
  891MOL0     H22909   2.775   0.590   4.123 -1.5002 -0.6668 -2.1026
  891MOL0     H22910   2.988   0.432   3.968  0.9313  0.6056 -0.3098
  891MOL0     H22911   2.939   0.600   3.956 -3.1312 -2.3296 -1.0407
  891MOL0     H22912   3.028   0.657   4.168 -1.0364  0.6497 -1.1704
  891MOL0     H22913   2.996   0.505   4.244  1.8997  1.0712  1.5126
  891MOL0     H22914   3.192   0.412   4.087 -1.3533 -1.4744  3.5344
  891MOL0     H22915   3.224   0.584   4.061  0.2742 -1.2894  0.1467
  891MOL0     H22916   3.317   0.460   4.508 -1.6256 -1.8672 -2.0272
  891MOL0     H22917   3.632   0.522   4.673 -0.2452 -0.4321  3.1455
  891MOL0     H22918   3.593   0.361   4.637  1.9522  1.0253  0.7753
  891MOL0     H22919   3.465   0.463   4.694  1.3859 -0.1986  2.7385
  891MOL0     H22920   3.945   0.737   4.538 -0.3195 -1.2676  1.4876
  891MOL0     H22921   4.182   0.738   4.612  2.5993  1.2093 -1.5469
  891MOL0     H22922   4.565   0.535   4.503  0.6069 -0.9019 -2.0598
  891MOL0     H22923   4.455   0.463   4.396 -2.0397  0.1988  0.1654
  891MOL0     H22924   4.630   0.573   4.264  0.5825  0.1491 -0.2650
  891MOL0     H22925   4.473   0.637   4.232 -1.1538  2.1282  0.1697
  891MOL0     H22926   4.655   0.741   4.455 -2.8477 -3.4872  0.8316
  891MOL0     H22927   4.523   0.832   4.379  1.9675  2.5041  0.7661
  891MOL0     H22928   4.641   0.831   4.167 -0.6809  0.7312  1.2186
  891MOL0     H22929   4.780   0.749   4.232  1.6990  2.4495 -0.7443
  891MOL0     H22930   4.715   1.040   4.308  0.6775  1.6673  0.5770
  891MOL0     H22931   4.832   0.920   4.382 -1.6666 -0.1609  1.2728
  891MOL0     H22932   4.920   1.079   4.199 -0.0085  0.8364 -1.5769
  891MOL0     H22933   4.800   1.026   4.091  1.2432 -0.6737 -1.5098
  891MOL0     H22934   5.027   0.919   4.040  0.5429 -1.7723 -0.7055
  891MOL0     H22935   4.914   0.797   4.076  1.7512 -1.1791 -1.3462
  891MOL0     H22936   5.015   0.748   4.293 -0.3533 -0.1610  0.3934
  891MOL0     H22937   5.082   0.910   4.317 -1.1902  0.4711  0.0468
  891MOL0     H22938   4.279   0.483   4.270 -2.4679  0.4887 -3.6341
  891MOL0     H22939   4.045   0.465   4.220 -0.6297 -2.7440  1.6542
  891MOL0     H22940   3.660   0.620   4.201 -2.7936  1.9183 -0.5457
  891MOL0     H22941   3.443   0.620   4.131  1.3520 -0.8054 -0.6690
  891MOL0     H22942   2.706  -0.031   4.384 -1.4768 -0.0915 -0.0666
  891MOL0     H22943   2.877   0.098   4.529 -0.2508 -1.7185  0.0992
  891MOL0     H22944   2.862   0.412   4.914 -0.6364  2.1845 -0.2228
  891MOL0     H22945   3.048   0.522   5.046  1.2526 -0.7141  0.1674
  891MOL0     H22946   3.328   0.766   4.821 -0.5594 -5.0014  1.4105
  891MOL0     H22947   3.219   0.890   4.865  0.7882 -0.2495 -2.4774
  891MOL0     H22948   3.457   0.790   5.029  1.2763  0.5348  0.1061
  891MOL0     H22949   3.314   0.868   5.100  0.5127  0.8783 -0.6512
  891MOL0     H22950   3.556   0.956   4.926  0.3589  0.2745  2.1383
  891MOL0     H22951   3.410   1.041   4.873 -0.4970 -1.9465 -1.1780
  891MOL0     H22952   3.500   1.015   5.160  2.0114  0.8902 -0.9223
  891MOL0     H22953   3.367   1.114   5.118  0.2827  1.8406 -0.3177
  891MOL0     H22954   3.683   1.356   5.041 -1.8186  0.8863 -1.2022
  891MOL0     H22955   3.150   0.742   4.689  1.3049 -2.1960 -2.3405
  891MOL0     H22956   3.100   0.654   4.479  1.3782 -2.6833 -1.5571
  891MOL0     H22957   2.999   0.517   4.460 -0.2491  1.3459 -2.1734
  891MOL0     H22958   2.927   0.673   4.476  0.1684 -1.1377 -0.9782
  892MOL0     O22959   4.186   6.878   8.312 -0.2888 -0.1880  0.3751
  892MOL0     C22960   4.075   6.857   8.270  0.2069 -0.6309  0.4530
  892MOL0     O22961   4.029   6.913   8.151 -0.2039 -0.0723  0.4355
  892MOL0     C22962   4.118   6.949   8.061  0.1319  0.2594 -0.0842
  892MOL0     C22963   4.162   6.855   7.969  0.7217  0.1915  0.9849
  892MOL0     C22964   4.251   6.892   7.868  0.3266 -1.5060 -0.0312
  892MOL0     C22965   4.276   7.030   7.846 -0.0899  0.6181  0.6857
  892MOL0     O22966   4.348   7.066   7.726  0.4513  1.0358 -0.6882
  892MOL0     C22967   4.376   7.204   7.700  0.8231 -0.2240  0.2742
  892MOL0     C22968   4.466   7.205   7.576  0.1837 -0.0754 -0.3304
  892MOL0     C22969   4.606   7.163   7.619 -0.0398  0.0123 -0.4872
  892MOL0     C22970   4.695   7.134   7.494 -0.5335  0.6193 -0.5807
  892MOL0     C22971   4.721   7.261   7.409  0.0317  0.4460 -0.1110
  892MOL0     C22972   4.761   7.236   7.265  0.2488  0.5219 -0.3015
  892MOL0     C22973   4.883   7.144   7.263 -0.9199 -1.0496 -0.2772
  892MOL0     C22974   4.954   7.133   7.126  0.2501 -0.2249  0.1683
  892MOL0     N22975   4.866   7.071   7.029 -0.5027 -0.7720 -0.0775
  892MOL0     C22976   4.792   7.152   6.952  0.5642  0.5574  0.0648
  892MOL0     C22977   4.721   7.057   6.877  0.0470 -0.3608  0.3720
  892MOL0     C22978   4.631   7.100   6.759 -0.5738 -0.2869 -0.2262
  892MOL0     C22979   4.505   7.168   6.824  0.0716  0.0742  0.8268
  892MOL0     C22980   4.433   7.226   6.702  0.2139 -1.0377 -0.4371
  892MOL0     C22981   4.323   7.317   6.753 -0.2517  0.3077  0.1358
  892MOL0     O22982   4.201   7.241   6.781  0.5095  0.3758  0.0408
  892MOL0     C22983   4.097   7.300   6.859 -0.3136  0.0914 -0.0884
  892MOL0     C22984   4.096   7.428   6.920 -0.2567 -1.0156  0.4959
  892MOL0     C22985   3.992   7.468   7.008 -0.2838  0.0198 -0.1129
  892MOL0     C22986   4.001   7.607   7.066 -0.6575  0.5067 -0.3457
  892MOL0     C22987   3.888   7.377   7.040 -0.1893  0.4893  0.1282
  892MOL0     C22988   3.789   7.397   7.151  0.7429 -0.5497 -0.8363
  892MOL0     O22989   3.678   7.327   7.134 -0.4463  0.3774 -0.2149
  892MOL0     C22990   3.576   7.324   7.229 -0.3836  0.5833 -0.2715
  892MOL0     C22991   3.596   7.341   7.369 -0.1103 -0.6297 -0.4418
  892MOL0     C22992   3.486   7.366   7.454 -0.2682  0.2201 -0.2829
  892MOL0     C22993   3.354   7.356   7.403 -0.4410  0.9483 -0.7094
  892MOL0     O22994   3.255   7.355   7.496 -0.0480 -0.3204 -0.0307
  892MOL0     C22995   3.120   7.387   7.450  0.5250  0.5117 -0.4221
  892MOL0     C22996   3.018   7.402   7.561 -0.1184  0.6629 -0.1494
  892MOL0     C22997   3.028   7.276   7.652 -0.1988 -0.0749  1.5050
  892MOL0     C22998   2.905   7.260   7.743  0.3746 -0.2951 -0.9200
  892MOL0     C22999   2.909   7.133   7.832 -0.4788 -0.3499  0.4002
  892MOL0     C23000   3.042   7.138   7.917  0.0817  0.7284  0.5712
  892MOL0     C23001   3.027   7.039   8.035 -0.2818  0.0454  0.5994
  892MOL0     C23002   3.163   7.013   8.103  0.8223  0.1006  0.6569
  892MOL0    Cl23003   3.157   6.899   8.243  0.2957 -0.1270  0.0027
  892MOL0     C23004   3.340   7.329   7.260  0.4493 -0.9500 -0.2653
  892MOL0     C23005   3.450   7.314   7.182  0.7434  0.5138  0.5381
  892MOL0     O23006   3.817   7.465   7.252  0.3218 -0.1332  0.2543
  892MOL0     C23007   3.886   7.250   6.974 -0.9706 -0.1918  0.2387
  892MOL0     C23008   3.986   7.212   6.883 -0.5259  0.3620 -0.0894
  892MOL0     N23009   4.745   6.936   6.933 -0.7304  0.2776 -0.0526
  892MOL0     N23010   4.822   6.948   7.031 -0.5471 -0.4989 -0.8046
  892MOL0     C23011   4.226   7.123   7.934  0.7893  0.1318  0.2417
  892MOL0     C23012   4.152   7.082   8.042  0.7071 -1.1234 -0.6910
  892MOL0     C23013   3.976   6.792   8.359  0.2258 -0.2486 -0.0650
  892MOL0     C23014   3.842   6.785   8.317 -0.1705  0.5292  0.5480
  892MOL0     C23015   3.749   6.724   8.399  0.0403  0.1843 -0.1659
  892MOL0     C23016   3.769   6.668   8.518 -0.1653 -1.2089 -1.1441
  892MOL0     O23017   3.679   6.621   8.606  0.2509 -0.4459 -0.6820
  892MOL0     C23018   3.548   6.590   8.548  1.1939  0.6039  0.8531
  892MOL0     C23019   3.464   6.528   8.669 -0.5653  0.9091  0.1019
  892MOL0     C23020   3.409   6.632   8.773 -0.0875  0.4373 -0.0110
  892MOL0     C23021   3.499   6.663   8.891 -0.1640  0.8900  0.2758
  892MOL0     C23022   3.515   6.557   8.984 -0.3842 -0.6222  0.2903
  892MOL0     C23023   3.517   6.462   9.054  0.0231 -0.0375  0.0106
  892MOL0     C23024   3.895   6.679   8.564  0.7213 -1.6500 -0.4960
  892MOL0     C23025   4.000   6.755   8.494  0.3294  1.2920 -0.4532
  892MOL0     C23026   4.140   6.753   8.560  0.4621 -0.3834  0.4425
  892MOL0     H23027   4.140   6.749   7.977 -1.3503  0.3639 -1.2736
  892MOL0     H23028   4.302   6.822   7.803  2.0690 -0.0787 -0.2890
  892MOL0     H23029   4.425   7.262   7.779  2.2767 -0.4318 -0.4261
  892MOL0     H23030   4.285   7.258   7.673  1.6245  0.9470 -0.1572
  892MOL0     H23031   4.411   7.135   7.513 -2.9057 -0.1028  2.1497
  892MOL0     H23032   4.453   7.304   7.531 -0.7620 -0.3168 -0.6199
  892MOL0     H23033   4.652   7.240   7.682 -2.4732  0.0311  1.4200
  892MOL0     H23034   4.594   7.071   7.677 -3.4449  0.1197 -0.7771
  892MOL0     H23035   4.791   7.092   7.525 -0.5493  1.4425  0.6315
  892MOL0     H23036   4.652   7.058   7.428 -2.4226  3.3674 -2.7650
  892MOL0     H23037   4.797   7.323   7.457  1.5253 -1.2126 -0.2609
  892MOL0     H23038   4.631   7.324   7.398 -1.0109 -0.9164  0.3445
  892MOL0     H23039   4.683   7.185   7.208  1.3271 -0.7536 -0.6833
  892MOL0     H23040   4.774   7.338   7.226 -3.7293  0.8151 -1.2153
  892MOL0     H23041   4.851   7.045   7.296  0.9783 -2.2754 -1.8612
  892MOL0     H23042   4.946   7.184   7.343 -0.7390  3.9302 -2.5421
  892MOL0     H23043   4.990   7.226   7.081 -2.3038 -0.1876 -2.0458
  892MOL0     H23044   5.046   7.074   7.133  1.4693  1.0619 -3.0468
  892MOL0     H23045   4.780   7.260   6.942 -1.0833  0.4165  0.2367
  892MOL0     H23046   4.598   7.009   6.708  0.5861 -0.6056 -0.4394
  892MOL0     H23047   4.687   7.155   6.683 -0.1601 -3.0257 -2.0537
  892MOL0     H23048   4.439   7.096   6.874 -0.2117 -0.6844 -0.5728
  892MOL0     H23049   4.537   7.244   6.895  1.2892 -1.1169  1.6079
  892MOL0     H23050   4.501   7.290   6.645  2.7147 -1.5104  1.7954
  892MOL0     H23051   4.399   7.153   6.629  0.3278 -0.5506 -0.9879
  892MOL0     H23052   4.346   7.352   6.854  0.0677 -0.8952  0.4929
  892MOL0     H23053   4.311   7.402   6.685  0.6428 -0.9498 -1.6734
  892MOL0     H23054   4.177   7.498   6.901  0.3499 -1.4068  1.5205
  892MOL0     H23055   4.051   7.599   7.163  0.3960  1.3860 -0.8034
  892MOL0     H23056   3.906   7.658   7.089  0.1967  2.9706 -1.9283
  892MOL0     H23057   4.064   7.674   7.008  2.6044 -2.2704 -0.3118
  892MOL0     H23058   3.696   7.349   7.408 -0.9849 -0.2068  1.8300
  892MOL0     H23059   3.489   7.394   7.559  1.6121 -1.6404  0.2058
  892MOL0     H23060   3.125   7.482   7.395  3.4960  1.5536  1.4519
  892MOL0     H23061   3.082   7.301   7.393 -1.3354  0.1495  1.2622
  892MOL0     H23062   3.036   7.497   7.612 -1.2799  0.2832  1.0094
  892MOL0     H23063   2.917   7.399   7.520 -1.0243 -0.8404  1.9982
  892MOL0     H23064   3.115   7.295   7.716  2.5167  0.7803 -2.0742
  892MOL0     H23065   3.054   7.189   7.591  2.8949  0.2347  2.1951
  892MOL0     H23066   2.819   7.247   7.676 -1.3478  0.4523  1.0309
  892MOL0     H23067   2.880   7.347   7.805  2.5552 -1.7272  2.2204
  892MOL0     H23068   2.824   7.139   7.901 -1.6636  0.4969 -1.0713
  892MOL0     H23069   2.906   7.046   7.767  2.3374 -1.3128  1.4361
  892MOL0     H23070   3.064   7.235   7.964 -1.3083  1.9226 -1.0724
  892MOL0     H23071   3.120   7.101   7.850  0.0523 -0.8836  1.3897
  892MOL0     H23072   2.993   6.945   7.990 -2.7578  0.6023  1.1814
  892MOL0     H23073   2.942   7.077   8.092 -1.9385 -0.9123 -1.0836
  892MOL0     H23074   3.201   7.112   8.130 -1.9123  1.4366 -0.0336
  892MOL0     H23075   3.224   6.976   8.020 -1.1162  2.7472 -2.1885
  892MOL0     H23076   3.239   7.330   7.218 -0.5538 -1.1330  2.0058
  892MOL0     H23077   3.424   7.297   7.078 -0.9784 -0.4458  1.0821
  892MOL0     H23078   3.807   7.179   6.998  1.0098 -2.3308  0.7422
  892MOL0     H23079   3.981   7.113   6.838  1.5628 -0.2381  0.8908
  892MOL0     H23080   4.238   7.231   7.938 -0.2743  0.2973 -0.5541
  892MOL0     H23081   4.125   7.159   8.114  1.0557  1.9289 -3.6065
  892MOL0     H23082   3.808   6.825   8.222 -0.9124 -2.5929 -0.6023
  892MOL0     H23083   3.649   6.726   8.358  0.6002 -0.1749 -1.5998
  892MOL0     H23084   3.501   6.681   8.508 -2.5999 -0.5740  2.1705
  892MOL0     H23085   3.564   6.518   8.468 -0.7528  3.2469 -2.1559
  892MOL0     H23086   3.506   6.445   8.727 -3.8316 -0.0440  1.3108
  892MOL0     H23087   3.375   6.480   8.628 -0.3296  0.5747 -0.0184
  892MOL0     H23088   3.402   6.725   8.716 -0.9284  0.5543  0.2808
  892MOL0     H23089   3.310   6.603   8.809 -0.0234  2.2346  1.8241
  892MOL0     H23090   3.457   6.748   8.947 -2.8847  0.0226 -0.2762
  892MOL0     H23091   3.593   6.688   8.841 -1.4353  0.3378 -2.6392
  892MOL0     H23092   3.529   6.380   9.122  1.8500 -1.1342 -1.5124
  892MOL0     H23093   3.920   6.648   8.665 -0.4321 -3.6988 -0.7946
  892MOL0     H23094   4.148   6.703   8.657 -1.4416  0.5689  1.1562
  892MOL0     H23095   4.212   6.714   8.487 -0.2991 -3.4859  1.1755
  892MOL0     H23096   4.176   6.854   8.579  1.4583 -0.5372 -0.5478
  893MOL0     O23097   9.875   9.643   1.407  0.7266 -0.4489  0.3163
  893MOL0     C23098   9.965   9.717   1.358  0.3335  0.1574 -0.4291
  893MOL0     O23099   9.955   9.792   1.249  0.0679 -0.1166  0.9133
  893MOL0     C23100   9.838   9.793   1.196 -0.3751  0.1099  0.7544
  893MOL0     C23101   9.815   9.691   1.107  0.2048 -0.6162  1.0491
  893MOL0     C23102   9.697   9.682   1.039 -0.4202  0.5657  0.4452
  893MOL0     C23103   9.589   9.761   1.069  0.9906  0.5041  0.7936
  893MOL0     O23104   9.454   9.741   1.018 -0.2361 -0.3817  0.1824
  893MOL0     C23105   9.431   9.671   0.897  0.0768  0.7940  0.2650
  893MOL0     C23106   9.486   9.731   0.773  0.3960  1.0568  0.6599
  893MOL0     C23107   9.420   9.673   0.644 -0.2245  0.6137 -0.0451
  893MOL0     C23108   9.503   9.693   0.515 -0.1406  0.8687 -0.3866
  893MOL0     C23109   9.433   9.613   0.401  0.3683 -0.0723  0.7354
  893MOL0     C23110   9.518   9.624   0.274  0.8033  0.1589 -0.2391
  893MOL0     C23111   9.603   9.492   0.266 -0.4059 -0.2508  0.2981
  893MOL0     C23112   9.673   9.477   0.127 -0.1500 -0.3739  0.3746
  893MOL0     N23113   9.724   9.340   0.115  0.5048 -1.0499  0.2517
  893MOL0     C23114   9.715   9.271  -0.000 -0.3643  0.4732  0.3315
  893MOL0     C23115   9.808   9.177  -0.001 -0.6201  0.8601  0.2434
  893MOL0     C23116   9.846   9.087  -0.112 -0.7062 -0.2760 -0.4479
  893MOL0     C23117   9.795   8.949  -0.094 -0.9623  0.6872 -0.3235
  893MOL0     C23118   9.838   8.872  -0.219  0.2768  0.3020 -0.0499
  893MOL0     C23119   9.748   8.750  -0.248 -0.5219  0.1067 -0.0628
  893MOL0     O23120   9.640   8.789  -0.332  0.4268 -0.3311 -0.0517
  893MOL0     C23121   9.582   8.677  -0.395 -1.1420 -0.4866 -0.3966
  893MOL0     C23122   9.607   8.537  -0.371  0.0950  0.0080  0.3983
  893MOL0     C23123   9.534   8.434  -0.430  0.1108  0.6729  0.2920
  893MOL0     C23124   9.556   8.296  -0.384  0.4476 -0.0547 -0.4123
  893MOL0     C23125   9.430   8.465  -0.518 -0.2855 -0.7710  0.7051
  893MOL0     C23126   9.335   8.362  -0.589 -0.6248  0.7908  0.0256
  893MOL0     O23127   9.363   8.226  -0.567  0.1620 -0.3908 -0.1656
  893MOL0     C23128   9.301   8.135  -0.648 -0.3778  0.3277 -0.7255
  893MOL0     C23129   9.376   8.093  -0.761  0.3175 -0.9768 -0.4941
  893MOL0     C23130   9.321   7.997  -0.847  0.1074 -0.4022  0.9244
  893MOL0     C23131   9.198   7.933  -0.822 -0.7727  0.0488  0.4688
  893MOL0     O23132   9.148   7.839  -0.909 -0.3194 -0.0194 -0.4139
  893MOL0     C23133   9.204   7.811  -1.034  0.3520 -1.3747  0.0960
  893MOL0     C23134   9.100   7.737  -1.110  0.1972  0.1176  0.1163
  893MOL0     C23135   9.050   7.623  -1.036  0.4466  0.8432 -0.6249
  893MOL0     C23136   8.994   7.506  -1.123 -0.4544 -0.2647 -0.3365
  893MOL0     C23137   8.945   7.384  -1.044  0.0183  0.1529  0.2411
  893MOL0     C23138   8.924   7.267  -1.140  0.1454 -0.3158 -0.0411
  893MOL0     C23139   8.775   7.244  -1.152 -0.6603 -0.3154 -0.4183
  893MOL0     C23140   8.752   7.096  -1.199  0.4116 -0.1427  0.2562
  893MOL0    Cl23141   8.797   7.072  -1.358  0.3982  0.5372  0.6556
  893MOL0     C23142   9.132   7.968  -0.705  0.3100 -0.5596 -0.3110
  893MOL0     C23143   9.181   8.080  -0.615  1.0138  0.3960  0.0428
  893MOL0     O23144   9.255   8.406  -0.672 -0.7852  0.3450 -0.1695
  893MOL0     C23145   9.402   8.606  -0.541 -0.1395 -0.2577  0.4618
  893MOL0     C23146   9.480   8.709  -0.481  0.4128  0.4859 -0.4716
  893MOL0     N23147   9.888   9.198   0.113  1.0195 -0.4774  0.2576
  893MOL0     N23148   9.832   9.296   0.183 -1.0199 -0.2732 -0.1859
  893MOL0     C23149   9.608   9.863   1.155  0.7381 -0.7234 -0.1964
  893MOL0     C23150   9.729   9.884   1.216 -0.6176  0.0045 -0.1770
  893MOL0     C23151  10.095   9.708   1.429 -0.2943  0.1540 -0.7948
  893MOL0     C23152  10.098   9.687   1.566 -0.0916  0.1675 -0.2192
  893MOL0     C23153  10.219   9.690   1.638 -0.3714  0.5853  0.2381
  893MOL0     C23154  10.342   9.711   1.582  0.3171 -0.3804 -0.3032
  893MOL0     O23155  10.462   9.732   1.656 -0.3959  0.0505  0.4353
  893MOL0     C23156  10.451   9.817   1.771  1.0523 -0.6726  0.4783
  893MOL0     C23157  10.577   9.894   1.788 -0.9894  0.1076  0.2320
  893MOL0     C23158  10.571   9.995   1.904  0.6950  0.7298  0.6754
  893MOL0     C23159  10.695  10.096   1.907 -0.3914 -0.1838 -0.7965
  893MOL0     C23160  10.697  10.211   1.819 -1.3280 -0.6861  0.2606
  893MOL0     C23161  10.692  10.311   1.752 -0.5458  0.4280  0.5798
  893MOL0     C23162  10.341   9.715   1.439  0.0510  1.0039  0.3053
  893MOL0     C23163  10.226   9.717   1.360  0.0231 -0.0756 -0.6548
  893MOL0     C23164  10.226   9.714   1.210 -0.0828  0.3719 -0.1674
  893MOL0     H23165   9.900   9.628   1.084 -0.9016 -1.9083  0.3170
  893MOL0     H23166   9.689   9.598   0.971  0.4764  0.1950  0.7814
  893MOL0     H23167   9.323   9.669   0.886  0.1145 -0.9112  0.0365
  893MOL0     H23168   9.471   9.570   0.907  1.0758  1.3861  4.4977
  893MOL0     H23169   9.480   9.840   0.771 -6.6153  1.2481  3.5179
  893MOL0     H23170   9.588   9.693   0.759 -0.5189 -2.2513  1.9188
  893MOL0     H23171   9.403   9.565   0.638 -3.4192  1.0651 -3.5978
  893MOL0     H23172   9.318   9.711   0.634 -1.3035 -1.9261  0.5891
  893MOL0     H23173   9.527   9.799   0.503  1.1453  1.1996  3.5089
  893MOL0     H23174   9.604   9.655   0.531 -1.2152 -0.6274  4.8940
  893MOL0     H23175   9.336   9.649   0.366  0.5885 -1.2865 -1.2766
  893MOL0     H23176   9.422   9.509   0.433 -0.4014 -0.7004 -1.4580
  893MOL0     H23177   9.452   9.632   0.187  1.0461 -0.0545 -0.4422
  893MOL0     H23178   9.583   9.711   0.267 -0.1711  0.8613 -0.7924
  893MOL0     H23179   9.544   9.403   0.287 -0.0282 -0.7896 -0.8292
  893MOL0     H23180   9.685   9.499   0.337  0.7628  1.0853 -1.1081
  893MOL0     H23181   9.603   9.497   0.046  0.8284 -1.0122 -0.6493
  893MOL0     H23182   9.758   9.542   0.108  0.4407 -1.2160  0.0919
  893MOL0     H23183   9.661   9.291  -0.092  3.7453  2.0935 -2.0176
  893MOL0     H23184   9.955   9.085  -0.122 -0.4596  2.3760  0.6143
  893MOL0     H23185   9.818   9.136  -0.206 -1.9758 -1.9965 -1.0179
  893MOL0     H23186   9.843   8.911  -0.003  0.8263  1.0232 -1.0787
  893MOL0     H23187   9.686   8.947  -0.088 -1.0030 -1.0135 -0.9475
  893MOL0     H23188   9.860   8.943  -0.300  2.0357  0.0818  0.1919
  893MOL0     H23189   9.937   8.831  -0.199 -0.0806  0.1075  1.3941
  893MOL0     H23190   9.807   8.668  -0.290 -0.0785 -1.3163  3.0779
  893MOL0     H23191   9.701   8.700  -0.162  0.0460 -3.2202 -1.5248
  893MOL0     H23192   9.692   8.506  -0.310 -0.2907 -2.4688 -0.1992
  893MOL0     H23193   9.593   8.236  -0.467  2.5470  0.3247  0.2077
  893MOL0     H23194   9.465   8.250  -0.343 -0.6709  0.2588 -2.4011
  893MOL0     H23195   9.634   8.289  -0.309  1.1762  1.8447 -0.9275
  893MOL0     H23196   9.475   8.133  -0.784  0.5346 -1.2459 -0.0386
  893MOL0     H23197   9.379   7.995  -0.939 -3.6819  2.2306 -1.8454
  893MOL0     H23198   9.212   7.899  -1.099 -3.6435 -0.4394  0.6052
  893MOL0     H23199   9.297   7.756  -1.018  1.9037  1.4814  1.5760
  893MOL0     H23200   9.017   7.796  -1.149 -0.6225 -0.1847  1.3519
  893MOL0     H23201   9.148   7.700  -1.201  1.5118  1.3305  0.2874
  893MOL0     H23202   8.968   7.656  -0.971 -1.4908 -0.4460 -2.2567
  893MOL0     H23203   9.123   7.566  -0.977 -1.6641  0.1215  1.4865
  893MOL0     H23204   9.066   7.474  -1.198  0.1511  1.2031 -0.4136
  893MOL0     H23205   8.906   7.549  -1.173 -1.0044 -1.1425 -0.1325
  893MOL0     H23206   9.014   7.365  -0.961 -1.8387 -0.9786  1.6042
  893MOL0     H23207   8.853   7.414  -0.993  0.9734  1.1334  1.4552
  893MOL0     H23208   8.968   7.177  -1.096  0.5098 -1.6959 -2.9867
  893MOL0     H23209   8.977   7.273  -1.236  2.4207 -1.4688  1.0600
  893MOL0     H23210   8.729   7.317  -1.220  0.2654 -0.7595 -1.5444
  893MOL0     H23211   8.734   7.242  -1.050  0.1075 -1.5162 -0.1151
  893MOL0     H23212   8.646   7.074  -1.188  0.1170  1.3512  0.7123
  893MOL0     H23213   8.804   7.025  -1.135  1.2038  0.2149  0.0210
  893MOL0     H23214   9.041   7.911  -0.687 -0.7124  1.5545  1.8635
  893MOL0     H23215   9.127   8.102  -0.524  2.5777  0.4592  0.9963
  893MOL0     H23216   9.313   8.643  -0.590 -0.7252  0.2524  1.8633
  893MOL0     H23217   9.472   8.815  -0.502 -1.3940  0.1100 -1.9793
  893MOL0     H23218   9.517   9.915   1.183  2.7283  2.2695  1.1550
  893MOL0     H23219   9.753   9.971   1.276  1.6028 -0.2951 -0.5429
  893MOL0     H23220  10.005   9.679   1.621 -1.8005  1.9557 -2.6408
  893MOL0     H23221  10.213   9.689   1.746 -1.0070  1.0482  0.2130
  893MOL0     H23222  10.372   9.892   1.762  1.3235 -0.4276  0.1307
  893MOL0     H23223  10.435   9.757   1.862  3.9879  0.7125  2.0490
  893MOL0     H23224  10.601   9.950   1.697 -0.1601  0.9960  0.9758
  893MOL0     H23225  10.663   9.830   1.807  0.1824  0.7085 -2.5561
  893MOL0     H23226  10.480  10.052   1.883 -0.7231 -1.4359  0.6941
  893MOL0     H23227  10.567   9.941   1.999 -1.4666  0.6953  0.6039
  893MOL0     H23228  10.781  10.032   1.887 -1.6559 -2.1650 -0.1336
  893MOL0     H23229  10.709  10.132   2.010  1.0374 -0.0786 -1.0134
  893MOL0     H23230  10.685  10.413   1.719  2.9845  1.1476  1.6016
  893MOL0     H23231  10.432   9.708   1.379 -0.1788  0.8286 -0.0226
  893MOL0     H23232  10.195   9.812   1.171 -0.8469  1.3614  2.6838
  893MOL0     H23233  10.320   9.676   1.169 -1.4378 -4.9838  1.0107
  893MOL0     H23234  10.172   9.626   1.174 -0.5415  0.1494  1.0546
  894MOL0     O23235   8.402   1.368   0.098  0.2453  0.7042 -0.1991
  894MOL0     C23236   8.330   1.343   0.192 -0.0952 -0.6657 -0.5197
  894MOL0     O23237   8.372   1.288   0.303 -0.1070  0.3254 -0.2129
  894MOL0     C23238   8.501   1.251   0.328  0.3194  0.9120  0.4793
  894MOL0     C23239   8.610   1.344   0.327  0.4778 -0.1584 -1.0173
  894MOL0     C23240   8.741   1.310   0.364  0.2726  0.6283  0.7142
  894MOL0     C23241   8.776   1.175   0.387  0.2021  0.2821  0.0288
  894MOL0     O23242   8.911   1.142   0.420  0.2632  0.0963 -0.5880
  894MOL0     C23243   8.915   1.045   0.530  0.1639  0.0008 -0.1595
  894MOL0     C23244   9.048   0.985   0.571  0.3073 -0.5164 -0.0696
  894MOL0     C23245   9.147   1.098   0.610 -0.2540 -1.0501 -0.7746
  894MOL0     C23246   9.271   1.042   0.686 -1.2206 -0.5806  0.6903
  894MOL0     C23247   9.350   1.152   0.741  0.1835  0.5402  0.5886
  894MOL0     C23248   9.437   1.123   0.865  0.9994  0.7652  0.0710
  894MOL0     C23249   9.544   1.019   0.836 -0.4458 -0.2166  0.2141
  894MOL0     C23250   9.610   0.987   0.974  0.2022  0.6175 -0.6578
  894MOL0     N23251   9.755   1.000   0.987 -0.0111  0.4912  0.8932
  894MOL0     C23252   9.840   1.083   0.917  0.8371  0.0851 -0.0473
  894MOL0     C23253   9.961   1.046   0.955 -1.1123  0.0490 -0.5801
  894MOL0     C23254  10.086   1.119   0.898  0.6260 -0.0224 -0.0531
  894MOL0     C23255  10.150   1.054   0.779 -0.2948  0.7003 -0.2208
  894MOL0     C23256  10.270   1.140   0.715  0.1121  0.2662 -0.5615
  894MOL0     C23257  10.343   1.065   0.606 -0.0517 -0.4775 -0.0382
  894MOL0     O23258  10.435   0.971   0.659 -0.0523 -0.9660  0.4220
  894MOL0     C23259  10.561   0.970   0.608 -0.1179 -0.8891  0.5622
  894MOL0     C23260  10.665   0.969   0.697  0.0748 -0.6175  0.5233
  894MOL0     C23261  10.800   0.946   0.661  0.0310 -0.9050 -0.6232
  894MOL0     C23262  10.902   0.939   0.774 -0.2741 -0.4710  0.2999
  894MOL0     C23263  10.827   0.939   0.518 -0.3136 -0.4083  0.2304
  894MOL0     C23264  10.964   0.955   0.461 -0.4071 -0.1011 -0.9963
  894MOL0     O23265  10.984   0.930   0.323  0.9302  0.4093 -0.9250
  894MOL0     C23266  11.117   0.927   0.280  0.4907  0.4510 -0.0010
  894MOL0     C23267  11.181   0.811   0.273 -0.5132 -0.7559 -0.2060
  894MOL0     C23268  11.311   0.800   0.214 -0.3011  0.3752  1.3351
  894MOL0     C23269  11.390   0.916   0.170  0.2995  0.6314 -0.5204
  894MOL0     O23270  11.516   0.913   0.120  0.0239  0.3116 -0.0374
  894MOL0     C23271  11.596   0.805   0.150  0.1128  0.5349  0.3212
  894MOL0     C23272  11.735   0.856   0.124  0.3415  0.1270 -0.3072
  894MOL0     C23273  11.821   0.731   0.106  0.0962  0.1244  0.7775
  894MOL0     C23274  11.973   0.767   0.105 -0.0267  0.4237 -0.6854
  894MOL0     C23275  12.075   0.648   0.101 -1.7319  0.2373  0.5570
  894MOL0     C23276  12.056   0.528   0.193 -0.3291 -0.9863  0.2109
  894MOL0     C23277  12.153   0.413   0.166 -0.9575  0.4037  0.5298
  894MOL0     C23278  12.080   0.282   0.166 -1.3949  0.8488  0.3024
  894MOL0    Cl23279  12.208   0.154   0.156 -0.1708 -0.1137  0.6336
  894MOL0     C23280  11.317   1.035   0.186  0.4934  0.1171  0.3217
  894MOL0     C23281  11.187   1.042   0.246 -0.3277  0.7489  0.4796
  894MOL0     O23282  11.058   0.980   0.538 -0.2022  0.3228  0.5317
  894MOL0     C23283  10.723   0.935   0.421  0.1220 -0.4128  0.2305
  894MOL0     C23284  10.587   0.956   0.466 -0.0685  0.5575 -0.0116
  894MOL0     N23285   9.948   0.949   1.044  0.8829 -0.3641  0.6754
  894MOL0     N23286   9.826   0.915   1.065 -0.2103  0.0938  0.3095
  894MOL0     C23287   8.667   1.081   0.374 -0.2270 -0.2098  0.8181
  894MOL0     C23288   8.534   1.123   0.355  0.6350  0.2876 -0.1861
  894MOL0     C23289   8.187   1.368   0.190  0.4196  0.0427 -0.7865
  894MOL0     C23290   8.139   1.427   0.304 -0.0585  0.0945 -0.6155
  894MOL0     C23291   8.002   1.453   0.322 -0.1782  0.8261  0.0422
  894MOL0     C23292   7.903   1.416   0.224 -0.9372  1.1442  0.1632
  894MOL0     O23293   7.779   1.456   0.233  0.5196  0.4949  0.2719
  894MOL0     C23294   7.686   1.433   0.127 -0.4724 -1.0020 -0.4203
  894MOL0     C23295   7.557   1.502   0.157  0.6006  0.3074  0.3501
  894MOL0     C23296   7.461   1.408   0.219 -0.5324 -0.2179  0.4059
  894MOL0     C23297   7.362   1.486   0.298  0.5058  0.1682  0.6882
  894MOL0     C23298   7.263   1.395   0.363  0.2886 -0.6684 -1.2159
  894MOL0     C23299   7.172   1.340   0.425  0.5019 -0.0840  0.5636
  894MOL0     C23300   7.953   1.343   0.117  0.2046 -0.1308  0.5267
  894MOL0     C23301   8.087   1.326   0.099  0.4803 -0.0020  0.7428
  894MOL0     C23302   8.122   1.233  -0.018 -0.0659  0.0194  0.1600
  894MOL0     H23303   8.585   1.449   0.329 -2.0244 -0.7115  0.9627
  894MOL0     H23304   8.814   1.389   0.377 -0.1623  1.3835 -1.1642
  894MOL0     H23305   8.847   0.963   0.503 -2.1727  1.9318 -0.4313
  894MOL0     H23306   8.882   1.085   0.626 -0.0893  0.1292 -0.3022
  894MOL0     H23307   9.043   0.913   0.652  2.3856 -1.6358 -0.8449
  894MOL0     H23308   9.083   0.925   0.486 -0.2483 -0.2545 -0.4930
  894MOL0     H23309   9.172   1.157   0.521 -0.6678 -0.9811 -0.8482
  894MOL0     H23310   9.089   1.158   0.681  0.7042 -3.9856  2.8292
  894MOL0     H23311   9.243   0.980   0.772  0.1960  0.9793  2.3584
  894MOL0     H23312   9.325   0.985   0.609  1.3848  1.9105  0.5230
  894MOL0     H23313   9.278   1.227   0.775  1.1351  0.3162  3.3388
  894MOL0     H23314   9.414   1.195   0.664 -0.3924 -0.6452 -0.5868
  894MOL0     H23315   9.474   1.219   0.902 -0.5406  0.3148  3.0590
  894MOL0     H23316   9.364   1.090   0.940  1.2862  0.2205  0.1148
  894MOL0     H23317   9.618   1.061   0.767 -2.0902 -0.5716 -1.8601
  894MOL0     H23318   9.500   0.934   0.783  1.8771 -1.0852 -0.4358
  894MOL0     H23319   9.567   1.043   1.057  1.9380 -1.5748  1.9025
  894MOL0     H23320   9.579   0.884   0.998  1.3635  0.5965  0.9549
  894MOL0     H23321   9.811   1.169   0.857  1.2740  1.2487  1.3541
  894MOL0     H23322  10.155   1.135   0.981  1.8707 -0.9129 -0.8759
  894MOL0     H23323  10.053   1.215   0.858 -2.2732 -0.4576  1.0500
  894MOL0     H23324  10.184   0.955   0.811 -1.5195  1.0606  2.3563
  894MOL0     H23325  10.077   1.037   0.699 -0.7998  0.6623  0.2457
  894MOL0     H23326  10.222   1.229   0.672 -0.7295 -0.1708 -0.5455
  894MOL0     H23327  10.348   1.162   0.789  1.0522 -5.0509  0.4418
  894MOL0     H23328  10.275   1.012   0.539  0.5824 -0.6229 -0.5763
  894MOL0     H23329  10.411   1.128   0.548  0.4337 -1.6538 -0.7873
  894MOL0     H23330  10.651   0.991   0.802  1.2442  2.9162  0.0497
  894MOL0     H23331  10.857   0.960   0.871 -1.6695  2.2306 -0.8116
  894MOL0     H23332  10.970   1.024   0.760 -1.4576  0.6791  1.2017
  894MOL0     H23333  10.953   0.842   0.775 -0.4761 -0.5836  1.6787
  894MOL0     H23334  11.136   0.718   0.305 -1.2326  0.1474  1.5378
  894MOL0     H23335  11.356   0.701   0.214 -0.1792  0.2548 -2.9009
  894MOL0     H23336  11.579   0.777   0.254 -0.4358 -0.2629  0.0346
  894MOL0     H23337  11.556   0.720   0.093  2.2599 -0.4598  0.1998
  894MOL0     H23338  11.739   0.914   0.031  0.8242 -1.3612 -1.2584
  894MOL0     H23339  11.769   0.915   0.209 -1.8713 -2.0347  2.2828
  894MOL0     H23340  11.799   0.687   0.008  1.5520  1.5110 -0.2196
  894MOL0     H23341  11.801   0.654   0.181 -2.2671 -1.5794 -1.3844
  894MOL0     H23342  12.000   0.830   0.191  2.9343 -0.9981 -0.4496
  894MOL0     H23343  11.991   0.831   0.018  0.5087 -0.8182 -1.5111
  894MOL0     H23344  12.087   0.611  -0.002 -3.1417 -2.9827  1.4172
  894MOL0     H23345  12.172   0.689   0.129 -1.5440  0.1821  0.0163
  894MOL0     H23346  11.956   0.485   0.191 -3.0375  4.3374  0.7335
  894MOL0     H23347  12.063   0.568   0.295 -0.5534  1.0456 -0.5239
  894MOL0     H23348  12.232   0.425   0.241 -1.5466 -0.9331  1.3827
  894MOL0     H23349  12.197   0.422   0.066 -3.0214 -0.2846 -0.4768
  894MOL0     H23350  12.017   0.274   0.077 -0.5816 -1.0754 -0.1516
  894MOL0     H23351  12.021   0.266   0.256  1.3124  2.7203  2.5896
  894MOL0     H23352  11.362   1.125   0.145 -2.5638  2.4328  1.6438
  894MOL0     H23353  11.134   1.136   0.247  0.3218  1.1571 -1.0167
  894MOL0     H23354  10.737   0.925   0.314  1.4034 -0.0483  0.3480
  894MOL0     H23355  10.507   0.963   0.393  0.9021  1.3683 -1.0305
  894MOL0     H23356   8.675   0.973   0.371 -2.0081 -0.3671  0.4209
  894MOL0     H23357   8.450   1.055   0.345  1.1967 -0.3654 -0.4453
  894MOL0     H23358   8.199   1.466   0.386 -1.3743 -2.0241  1.4821
  894MOL0     H23359   7.955   1.509   0.403 -0.8998 -1.3934  1.2232
  894MOL0     H23360   7.718   1.485   0.037  0.4355 -4.0365 -1.9692
  894MOL0     H23361   7.668   1.328   0.104 -0.5593 -1.1734  0.3837
  894MOL0     H23362   7.504   1.545   0.071  0.0719 -1.4060 -0.2270
  894MOL0     H23363   7.584   1.584   0.224  2.9401  1.1381 -1.4279
  894MOL0     H23364   7.406   1.345   0.149 -1.2299  1.3047 -0.4891
  894MOL0     H23365   7.524   1.345   0.282  0.4126 -0.2822 -0.5937
  894MOL0     H23366   7.304   1.551   0.232  0.1211 -0.8945 -0.0640
  894MOL0     H23367   7.413   1.536   0.380 -1.2327  0.6092  1.5280
  894MOL0     H23368   7.097   1.281   0.474 -0.2380 -0.3585 -0.8411
  894MOL0     H23369   7.883   1.327   0.035  1.0179  2.2569 -0.7288
  894MOL0     H23370   8.040   1.177  -0.063  2.0999 -1.8297 -1.7440
  894MOL0     H23371   8.180   1.284  -0.095  0.7432  1.8488  1.8746
  894MOL0     H23372   8.185   1.155   0.025 -0.4923 -1.2049 -1.3499
  895MOL0     O23373   8.239  10.279  10.331  0.2245 -0.0690  0.3545
  895MOL0     C23374   8.303  10.275  10.436 -0.1468 -0.0737  0.2099
  895MOL0     O23375   8.288  10.186  10.533 -0.6039 -0.5449  0.0432
  895MOL0     C23376   8.206  10.082  10.501 -0.5318 -0.6319  0.0276
  895MOL0     C23377   8.257   9.967  10.431 -0.6755 -0.0892 -0.2683
  895MOL0     C23378   8.187   9.849  10.403 -0.2772  0.3500  0.2923
  895MOL0     C23379   8.059   9.846  10.460 -0.5293 -0.6945  0.1886
  895MOL0     O23380   7.995   9.728  10.443 -0.5465  0.5751  0.1066
  895MOL0     C23381   7.894   9.713  10.332 -0.1113 -0.5374 -0.9177
  895MOL0     C23382   7.964   9.686  10.196  0.4137  0.3711 -0.0009
  895MOL0     C23383   7.859   9.633  10.098 -0.1972  0.8190  0.4574
  895MOL0     C23384   7.851   9.477  10.106  0.2295 -0.3495  0.6049
  895MOL0     C23385   7.860   9.405   9.978  0.2410  0.9528  0.5403
  895MOL0     C23386   7.732   9.400   9.890  0.5647  0.3344 -0.4215
  895MOL0     C23387   7.737   9.326   9.751  0.1480  0.7713 -0.4874
  895MOL0     C23388   7.613   9.365   9.655  0.1298 -1.0005 -0.5940
  895MOL0     N23389   7.572   9.258   9.574 -0.3569 -0.6214  0.1040
  895MOL0     C23390   7.561   9.129   9.607 -0.8417  0.3732 -0.2461
  895MOL0     C23391   7.551   9.057   9.490 -1.2523  0.2197  0.0337
  895MOL0     C23392   7.542   8.910   9.467 -0.2165 -0.0797 -0.3857
  895MOL0     C23393   7.397   8.837   9.489 -0.5276 -0.2388 -0.9969
  895MOL0     C23394   7.291   8.885   9.403 -0.3832 -0.1624  0.1184
  895MOL0     C23395   7.311   8.894   9.253 -0.1505  0.5184 -0.0515
  895MOL0     O23396   7.288   8.775   9.177 -0.5105  0.0429 -0.7132
  895MOL0     C23397   7.368   8.669   9.216 -0.0207  0.3508 -0.1515
  895MOL0     C23398   7.507   8.676   9.204 -0.7799 -1.1080 -0.0775
  895MOL0     C23399   7.601   8.581   9.268  0.0491 -0.6037  0.2325
  895MOL0     C23400   7.760   8.607   9.268  0.4458  0.2195  0.5484
  895MOL0     C23401   7.537   8.470   9.327 -0.4894 -0.3379 -0.3605
  895MOL0     C23402   7.609   8.359   9.386  0.2599 -0.0883  0.5370
  895MOL0     O23403   7.540   8.245   9.418  0.5640  0.6906 -0.1543
  895MOL0     C23404   7.597   8.121   9.433  0.1936  0.2109  0.5545
  895MOL0     C23405   7.565   8.031   9.334 -0.5263 -0.1273 -0.2576
  895MOL0     C23406   7.620   7.905   9.338 -0.5076  0.6674 -1.0958
  895MOL0     C23407   7.708   7.866   9.439 -0.8629 -0.4540  0.2302
  895MOL0     O23408   7.764   7.739   9.444 -0.3020  0.4920  0.3556
  895MOL0     C23409   7.728   7.673   9.559 -0.2248 -0.7706 -0.7312
  895MOL0     C23410   7.835   7.575   9.617 -1.6154 -0.1712  0.5642
  895MOL0     C23411   7.963   7.661   9.639  1.2102 -0.6760 -1.1813
  895MOL0     C23412   8.066   7.573   9.702 -0.7826 -0.0194 -0.4921
  895MOL0     C23413   8.211   7.639   9.701 -0.1213  0.6921  0.7906
  895MOL0     C23414   8.329   7.550   9.757  0.6583 -0.1984  0.2528
  895MOL0     C23415   8.458   7.612   9.773 -0.0139  0.1631 -0.3169
  895MOL0     C23416   8.570   7.515   9.809 -0.8060 -0.2926  0.7971
  895MOL0    Cl23417   8.623   7.553   9.986 -0.3220  0.2537 -0.3588
  895MOL0     C23418   7.742   7.965   9.540  0.1991  0.8615  1.4316
  895MOL0     C23419   7.681   8.087   9.532  0.5439  0.4576  0.4597
  895MOL0     O23420   7.733   8.364   9.383 -0.4663 -0.7164  0.4925
  895MOL0     C23421   7.392   8.459   9.329 -0.4691  0.5011 -0.0405
  895MOL0     C23422   7.309   8.565   9.286 -0.4619  0.2836  0.1556
  895MOL0     N23423   7.526   9.146   9.387 -0.2878 -0.0350 -0.4139
  895MOL0     N23424   7.550   9.268   9.442  0.5619 -0.5506  0.6867
  895MOL0     C23425   8.007   9.955  10.533  0.3226 -0.1302 -0.3245
  895MOL0     C23426   8.081  10.068  10.566  0.4400  0.4305 -0.4808
  895MOL0     C23427   8.420  10.364  10.461 -0.2713 -0.1408  0.3119
  895MOL0     C23428   8.465  10.375  10.593  0.3875 -0.5472 -0.0261
  895MOL0     C23429   8.595  10.429  10.621  0.0460  0.7654  0.7545
  895MOL0     C23430   8.668  10.494  10.520  0.5047  1.7792  0.7129
  895MOL0     O23431   8.788  10.541  10.558 -1.2962 -0.5645 -0.0995
  895MOL0     C23432   8.873  10.607  10.457  0.5756 -0.3702 -0.4807
  895MOL0     C23433   8.942  10.503  10.358 -0.9652  0.5897  0.2319
  895MOL0     C23434   9.017  10.397  10.430 -0.4065  0.9045  0.8356
  895MOL0     C23435   9.051  10.273  10.348 -0.4812 -0.2707  0.0257
  895MOL0     C23436   9.142  10.312  10.241  0.7332 -0.0113  0.3344
  895MOL0     C23437   9.226  10.332  10.157  0.0655 -0.3105  0.0070
  895MOL0     C23438   8.613  10.499  10.391  0.4670 -1.0669  0.1341
  895MOL0     C23439   8.494  10.429  10.359 -0.3871 -0.2655  0.6904
  895MOL0     C23440   8.457  10.419  10.219 -0.1290  0.5388  0.2483
  895MOL0     H23441   8.360   9.979  10.401 -1.1467 -0.2790 -2.0865
  895MOL0     H23442   8.236   9.764  10.357  0.8294  0.7769  0.6362
  895MOL0     H23443   7.830   9.801  10.322  1.0537  0.3040 -1.2602
  895MOL0     H23444   7.821   9.636  10.359 -1.0465 -0.4286 -2.9739
  895MOL0     H23445   8.011   9.777  10.157 -0.3443  0.2353 -1.3313
  895MOL0     H23446   8.047   9.617  10.213  1.7168  2.2010  1.4352
  895MOL0     H23447   7.765   9.687  10.114 -0.8550 -0.0644 -0.2792
  895MOL0     H23448   7.884   9.662   9.996 -0.1275  1.9136  0.7737
  895MOL0     H23449   7.930   9.437  10.171  3.8953  1.8199 -2.1121
  895MOL0     H23450   7.750   9.454  10.140  0.0791 -1.6362 -0.6265
  895MOL0     H23451   7.894   9.301   9.982  2.3139  1.5927  0.6595
  895MOL0     H23452   7.939   9.461   9.928 -0.1412  0.1600 -1.0063
  895MOL0     H23453   7.652   9.352   9.947  0.6185  0.7060 -0.0213
  895MOL0     H23454   7.695   9.498   9.860 -1.0138 -0.2538 -0.4867
  895MOL0     H23455   7.744   9.217   9.752 -1.0443  0.6428  2.1286
  895MOL0     H23456   7.822   9.356   9.689  1.2019 -0.8333  0.1468
  895MOL0     H23457   7.524   9.382   9.716  1.5297  1.4098  0.9410
  895MOL0     H23458   7.635   9.463   9.611  2.7938 -0.4613  1.6360
  895MOL0     H23459   7.568   9.082   9.704  0.0895  1.5871  0.2995
  895MOL0     H23460   7.614   8.872   9.540  1.1584  1.5725 -0.8209
  895MOL0     H23461   7.570   8.890   9.364  1.5368 -2.2951  0.4306
  895MOL0     H23462   7.424   8.731   9.481  1.3400  0.1875 -0.8693
  895MOL0     H23463   7.360   8.862   9.589  1.7312  1.4389 -0.5088
  895MOL0     H23464   7.198   8.831   9.425  0.3820 -1.6774 -0.2074
  895MOL0     H23465   7.283   8.989   9.436  3.4056  0.8823 -1.7096
  895MOL0     H23466   7.228   8.956   9.217 -2.1820 -1.7059  0.5225
  895MOL0     H23467   7.404   8.946   9.226  0.0717 -0.1281 -0.5681
  895MOL0     H23468   7.546   8.763   9.153  2.6316 -2.8690 -0.7939
  895MOL0     H23469   7.802   8.607   9.369  1.6285  0.2522  0.0665
  895MOL0     H23470   7.792   8.702   9.225  2.8268  0.8418  3.3690
  895MOL0     H23471   7.815   8.522   9.225 -3.4732 -1.2083 -2.2400
  895MOL0     H23472   7.510   8.075   9.251  1.1600  3.1246  0.1884
  895MOL0     H23473   7.616   7.831   9.259  0.3221 -0.1582 -0.3914
  895MOL0     H23474   7.699   7.742   9.639 -0.4423 -4.6099  2.8157
  895MOL0     H23475   7.641   7.609   9.539 -0.7090 -1.3917  2.7703
  895MOL0     H23476   7.808   7.517   9.706 -0.0405  2.5172  2.9235
  895MOL0     H23477   7.856   7.498   9.542  0.2817 -2.2501  3.0261
  895MOL0     H23478   7.942   7.749   9.700  1.7218  0.3925 -2.4750
  895MOL0     H23479   7.992   7.710   9.545 -0.5180 -0.4453 -1.6152
  895MOL0     H23480   8.078   7.481   9.643  2.7680  1.5486 -2.5603
  895MOL0     H23481   8.037   7.550   9.805  3.6751 -1.1151  0.7215
  895MOL0     H23482   8.224   7.665   9.596 -1.2555 -0.5505  0.3117
  895MOL0     H23483   8.213   7.727   9.765 -2.5006  1.8709 -0.6354
  895MOL0     H23484   8.325   7.461   9.692 -0.1331 -1.6142  2.1441
  895MOL0     H23485   8.308   7.511   9.857  0.7046  1.8951  1.1127
  895MOL0     H23486   8.444   7.687   9.852  0.0788  0.6641 -0.7689
  895MOL0     H23487   8.499   7.669   9.688 -0.5927  2.2627  0.7331
  895MOL0     H23488   8.655   7.511   9.741 -1.5667  1.2469 -0.3047
  895MOL0     H23489   8.532   7.413   9.807 -0.3533 -0.4592 -1.5185
  895MOL0     H23490   7.811   7.954   9.623  1.8423 -0.3449 -0.0215
  895MOL0     H23491   7.689   8.166   9.607 -4.2070 -1.0193  2.8802
  895MOL0     H23492   7.348   8.377   9.385  1.3502  1.2912  2.7289
  895MOL0     H23493   7.204   8.543   9.298  0.0627 -1.6115  2.1381
  895MOL0     H23494   7.906   9.945  10.570 -0.7805  2.6937 -2.2286
  895MOL0     H23495   8.039  10.149  10.624 -1.3468  0.1613 -1.3384
  895MOL0     H23496   8.421  10.330  10.682  3.1728  0.8013  2.2075
  895MOL0     H23497   8.635  10.413  10.720 -1.9648 -0.4208  1.4367
  895MOL0     H23498   8.815  10.687  10.410  1.3196  2.1815  2.5431
  895MOL0     H23499   8.952  10.662  10.511  0.6980  0.6638 -1.6745
  895MOL0     H23500   9.009  10.555  10.287  0.0245 -0.1383  0.6107
  895MOL0     H23501   8.862  10.462  10.296 -0.6703 -2.0457  1.4735
  895MOL0     H23502   9.107  10.439  10.475  0.2851 -1.1382  1.4533
  895MOL0     H23503   8.963  10.362  10.518 -2.2863  1.1946 -0.1415
  895MOL0     H23504   8.957  10.227  10.315  0.7951 -3.1577  0.1166
  895MOL0     H23505   9.104  10.203  10.413  1.6730  1.7246  0.5840
  895MOL0     H23506   9.309  10.341  10.090  0.5520  0.9794  0.7499
  895MOL0     H23507   8.672  10.551  10.315  1.1436  1.7690  2.4198
  895MOL0     H23508   8.538  10.447  10.151  0.8123 -2.8598 -0.1998
  895MOL0     H23509   8.448  10.314  10.190  1.5287 -0.1559  2.0782
  895MOL0     H23510   8.358  10.461  10.197 -0.4604 -1.7640 -3.8868
  896MOL0     O23511   3.236  11.025   9.424 -0.0072  0.1441  0.2139
  896MOL0     C23512   3.262  11.049   9.541 -0.7901  0.4174  0.2863
  896MOL0     O23513   3.207  11.140   9.621  1.1021  0.1268 -0.2580
  896MOL0     C23514   3.115  11.233   9.568 -0.1430 -0.4223 -0.1053
  896MOL0     C23515   3.144  11.319   9.458 -0.6665 -0.4349  0.6616
  896MOL0     C23516   3.057  11.438   9.426  1.2425 -0.0446 -0.3784
  896MOL0     C23517   2.942  11.448   9.505  0.8818 -0.1482 -0.3772
  896MOL0     O23518   2.855  11.556   9.483 -0.2462 -0.8724  0.6507
  896MOL0     C23519   2.857  11.656   9.578 -0.2417 -0.0614 -0.1733
  896MOL0     C23520   2.730  11.745   9.563 -1.0659  0.0689  0.1908
  896MOL0     C23521   2.753  11.855   9.453  0.0692 -0.5748  0.2198
  896MOL0     C23522   2.640  11.956   9.446  1.0815  0.0026 -0.4554
  896MOL0     C23523   2.685  12.079   9.361  0.7051  0.4235 -0.1774
  896MOL0     C23524   2.565  12.167   9.303 -0.2943 -0.0527 -0.2360
  896MOL0     C23525   2.469  12.106   9.195  0.7699 -0.6734  1.0134
  896MOL0     C23526   2.540  12.033   9.072 -0.1858 -0.3499 -1.5074
  896MOL0     N23527   2.438  11.986   8.984 -0.1724 -0.6328  0.7559
  896MOL0     C23528   2.341  11.899   9.026 -0.1628 -0.0744  0.0922
  896MOL0     C23529   2.255  11.876   8.915 -0.5507 -0.1234  0.0240
  896MOL0     C23530   2.123  11.797   8.909 -0.2989  0.4888  0.0369
  896MOL0     C23531   2.002  11.886   8.899  0.2729 -0.2628 -0.1866
  896MOL0     C23532   1.875  11.811   8.889  1.6367  0.3312  0.8124
  896MOL0     C23533   1.759  11.908   8.875  0.8097 -0.1643 -0.1175
  896MOL0     O23534   1.667  11.821   8.815 -0.4172  0.5041 -0.2108
  896MOL0     C23535   1.555  11.879   8.752 -0.2200  1.2843 -0.6357
  896MOL0     C23536   1.486  11.987   8.808 -1.1849  0.3083 -0.4045
  896MOL0     C23537   1.382  12.051   8.743 -0.1119  0.2273  0.5940
  896MOL0     C23538   1.332  12.182   8.809  0.1735  1.0197  0.3628
  896MOL0     C23539   1.338  12.001   8.612 -0.3402 -0.8748  0.0609
  896MOL0     C23540   1.241  12.070   8.522  0.3607 -0.0408 -1.4305
  896MOL0     O23541   1.230  12.206   8.549 -0.3040 -0.1838  0.3731
  896MOL0     C23542   1.155  12.272   8.450 -0.4429  0.5530  0.7293
  896MOL0     C23543   1.217  12.296   8.327  0.5769  0.1778 -0.2343
  896MOL0     C23544   1.142  12.371   8.226 -0.2971  0.6213  0.5418
  896MOL0     C23545   1.005  12.407   8.244  0.1727  0.2154 -0.5599
  896MOL0     O23546   0.934  12.467   8.149  0.5842 -0.2381 -0.0131
  896MOL0     C23547   0.790  12.451   8.132  0.3456 -0.2423 -0.3078
  896MOL0     C23548   0.732  12.577   8.067 -1.1305 -0.6549 -0.8016
  896MOL0     C23549   0.581  12.580   8.061  1.9555  1.0152  0.5657
  896MOL0     C23550   0.531  12.715   8.016  0.2839 -0.2519 -0.5418
  896MOL0     C23551   0.382  12.720   7.979 -0.3595 -0.2435  0.7085
  896MOL0     C23552   0.283  12.707   8.102 -0.4816  0.2022  0.2188
  896MOL0     C23553   0.141  12.711   8.050 -0.5627  0.5195 -0.7311
  896MOL0     C23554   0.047  12.681   8.168 -0.1092  0.8757  0.1309
  896MOL0    Cl23555   0.058  12.514   8.212  0.4411 -0.0296 -0.2662
  896MOL0     C23556   0.946  12.370   8.365 -0.2433 -0.0369 -0.9374
  896MOL0     C23557   1.022  12.320   8.477 -1.2420 -0.0979  0.5140
  896MOL0     O23558   1.180  12.003   8.438 -0.0931  0.5512 -0.2962
  896MOL0     C23559   1.409  11.891   8.565  0.0606  0.8561  0.6867
  896MOL0     C23560   1.512  11.827   8.634  0.1796  0.0328 -0.0667
  896MOL0     N23561   2.325  11.933   8.803 -0.3032  0.3498  0.3667
  896MOL0     N23562   2.432  11.998   8.847  0.4345  1.1374  0.2269
  896MOL0     C23563   2.912  11.355   9.611  0.0886 -0.0551  0.2370
  896MOL0     C23564   3.004  11.258   9.650  0.0384  0.0949  0.2318
  896MOL0     C23565   3.371  10.980   9.607 -0.6155 -0.7210 -0.1981
  896MOL0     C23566   3.406  10.848   9.560 -0.2731 -1.3812  0.4553
  896MOL0     C23567   3.516  10.779   9.620 -0.0058  0.6680 -1.2949
  896MOL0     C23568   3.582  10.829   9.733 -0.6887 -0.0108 -0.7028
  896MOL0     O23569   3.680  10.750   9.788  0.1284  0.0661  0.0823
  896MOL0     C23570   3.815  10.781   9.759  0.2324  0.0606  0.2199
  896MOL0     C23571   3.895  10.665   9.709  0.4545  0.1916 -0.4978
  896MOL0     C23572   3.817  10.566   9.620 -0.4391  0.3620 -0.4291
  896MOL0     C23573   3.917  10.459   9.560 -0.3343 -0.9430 -0.8693
  896MOL0     C23574   3.994  10.375   9.658  0.3975 -0.4143 -0.6346
  896MOL0     C23575   4.063  10.312   9.728 -0.4703  0.7254  0.0792
  896MOL0     C23576   3.543  10.947   9.784  0.0276 -0.3848  0.2909
  896MOL0     C23577   3.448  11.032   9.718  0.6868  1.4949 -0.3192
  896MOL0     C23578   3.439  11.171   9.771  0.8000 -0.0904 -0.6113
  896MOL0     H23579   3.231  11.317   9.393 -0.7199  6.2896 -0.3289
  896MOL0     H23580   3.071  11.510   9.346 -4.1282  1.6368 -0.2096
  896MOL0     H23581   2.951  11.713   9.573  0.7866 -1.7834 -2.7304
  896MOL0     H23582   2.850  11.606   9.675 -1.6572  0.7942  0.1905
  896MOL0     H23583   2.654  11.672   9.532 -0.7246  0.3149 -1.2994
  896MOL0     H23584   2.697  11.785   9.659 -0.0035  0.5161  0.3835
  896MOL0     H23585   2.840  11.916   9.480 -1.9744  2.3023  0.7654
  896MOL0     H23586   2.772  11.813   9.354 -0.6207 -0.6970  0.1377
  896MOL0     H23587   2.553  11.900   9.412  1.0399  1.1593 -2.4179
  896MOL0     H23588   2.618  12.001   9.544  0.3264 -3.2615  1.0249
  896MOL0     H23589   2.743  12.038   9.278 -0.7049 -2.0056 -0.0393
  896MOL0     H23590   2.751  12.145   9.417  0.1081  1.7306 -0.9584
  896MOL0     H23591   2.510  12.220   9.381 -1.1867  3.5530 -3.0130
  896MOL0     H23592   2.616  12.246   9.247  0.4407 -0.7086 -0.5138
  896MOL0     H23593   2.402  12.182   9.155 -2.1076 -3.2532  0.5896
  896MOL0     H23594   2.402  12.040   9.251  1.5288 -2.8557 -0.5316
  896MOL0     H23595   2.602  12.105   9.017  1.3350 -0.0490  0.4930
  896MOL0     H23596   2.595  11.950   9.117 -1.6560 -1.6336 -1.9845
  896MOL0     H23597   2.334  11.848   9.121 -1.4192 -0.9393 -0.4443
  896MOL0     H23598   2.111  11.736   8.999  0.6052  0.1611 -0.0496
  896MOL0     H23599   2.138  11.738   8.818 -1.7255  0.2885 -0.0836
  896MOL0     H23600   1.998  11.963   8.976 -1.1007 -0.6790  0.1852
  896MOL0     H23601   2.023  11.946   8.810  1.8124 -0.4503  0.0073
  896MOL0     H23602   1.882  11.737   8.810  0.5280 -0.2853  1.2672
  896MOL0     H23603   1.862  11.742   8.974  3.2822 -1.7578 -0.5412
  896MOL0     H23604   1.724  11.933   8.976 -0.7909 -0.1096 -0.6629
  896MOL0     H23605   1.778  12.001   8.822 -1.2963  0.6208  0.4403
  896MOL0     H23606   1.525  12.009   8.907 -0.5789  0.6600 -0.7107
  896MOL0     H23607   1.227  12.166   8.837 -0.0743  0.6910 -0.7031
  896MOL0     H23608   1.369  12.270   8.757  3.1965  1.1279  2.4718
  896MOL0     H23609   1.396  12.204   8.895  2.0968 -0.9457 -0.4664
  896MOL0     H23610   1.323  12.276   8.332  0.7273  0.1111 -2.4579
  896MOL0     H23611   1.190  12.403   8.134 -0.6072 -3.4586 -1.2608
  896MOL0     H23612   0.770  12.374   8.058 -2.5598  0.6833 -0.6326
  896MOL0     H23613   0.738  12.425   8.225  1.2059 -3.3307 -0.6116
  896MOL0     H23614   0.774  12.660   8.124 -4.3255 -1.2967  2.8513
  896MOL0     H23615   0.771  12.595   7.966  0.6319  0.0869 -0.0319
  896MOL0     H23616   0.543  12.559   8.162 -0.8373  0.7260 -0.4620
  896MOL0     H23617   0.546  12.502   7.992 -0.0548  1.2568  1.2304
  896MOL0     H23618   0.589  12.745   7.928 -1.9546 -0.6357 -2.2276
  896MOL0     H23619   0.548  12.780   8.102  0.5533  0.4199 -1.0889
  896MOL0     H23620   0.364  12.821   7.941  0.6548 -0.2091  0.2848
  896MOL0     H23621   0.348  12.652   7.900  0.5476 -0.5402  0.5606
  896MOL0     H23622   0.290  12.789   8.174 -1.2388  0.5758 -0.1145
  896MOL0     H23623   0.299  12.617   8.162 -0.0897  0.0241 -0.1480
  896MOL0     H23624   0.131  12.634   7.974  0.0573  0.4542 -0.7474
  896MOL0     H23625   0.118  12.811   8.011  1.5918  1.3779  0.0467
  896MOL0     H23626  -0.054  12.693   8.128  0.5380  0.3164 -1.7772
  896MOL0     H23627   0.063  12.751   8.250 -2.0820  0.0348  1.3056
  896MOL0     H23628   0.844  12.381   8.400  0.2848  0.4162  0.5615
  896MOL0     H23629   0.975  12.301   8.573 -1.7046  1.6242  0.6568
  896MOL0     H23630   1.389  11.847   8.467  0.2424 -2.6241  2.0840
  896MOL0     H23631   1.565  11.746   8.585  0.5331  1.6236 -2.5122
  896MOL0     H23632   2.823  11.379   9.668  0.1271 -0.6463  0.5530
  896MOL0     H23633   2.980  11.199   9.739  0.9653 -2.1322 -0.9121
  896MOL0     H23634   3.347  10.806   9.479  0.3730  0.2767 -0.9182
  896MOL0     H23635   3.537  10.678   9.584 -0.0116  0.2578 -0.1901
  896MOL0     H23636   3.814  10.854   9.678 -0.5157 -3.7129 -3.5756
  896MOL0     H23637   3.862  10.825   9.847 -0.7690  2.1318 -0.2288
  896MOL0     H23638   3.932  10.611   9.797 -3.0494  1.0350  1.7099
  896MOL0     H23639   3.979  10.710   9.656 -1.1832  1.8034 -1.8375
  896MOL0     H23640   3.736  10.518   9.677  0.1906  0.8744  0.9095
  896MOL0     H23641   3.770  10.635   9.549  0.6486  2.7399  1.0509
  896MOL0     H23642   3.990  10.510   9.496 -1.3813 -1.0535 -2.2061
  896MOL0     H23643   3.873  10.382   9.497 -1.2215 -0.7851 -0.4531
  896MOL0     H23644   4.136  10.255   9.782 -0.6960  0.4135  0.0622
  896MOL0     H23645   3.612  10.998   9.851 -0.5326  2.3438 -1.0529
  896MOL0     H23646   3.442  11.239   9.686  1.6776 -0.7031 -1.0951
  896MOL0     H23647   3.342  11.182   9.821  0.1739 -0.3914 -1.7306
  896MOL0     H23648   3.514  11.195   9.847 -1.3405 -1.6475  2.1837
  897MOL0     O23649  10.562   1.623   1.939  0.1632 -0.1331 -0.3429
  897MOL0     C23650  10.643   1.665   2.023 -0.4689 -0.0362 -0.1879
  897MOL0     O23651  10.729   1.764   1.999 -0.2763 -0.3589 -0.2422
  897MOL0     C23652  10.735   1.820   1.875  0.2898 -1.0104 -0.4241
  897MOL0     C23653  10.681   1.953   1.864  0.8877  1.3948  0.1978
  897MOL0     C23654  10.694   2.033   1.744 -0.1526 -0.0785  0.5489
  897MOL0     C23655  10.766   1.974   1.638  0.4822 -0.1374 -0.8840
  897MOL0     O23656  10.777   2.044   1.518  0.0304  1.0864 -0.8537
  897MOL0     C23657  10.722   1.972   1.406 -1.0593  0.2864 -0.0344
  897MOL0     C23658  10.568   1.953   1.422 -0.0236 -0.7144 -0.1893
  897MOL0     C23659  10.492   2.093   1.415 -0.7993  0.1969 -0.3845
  897MOL0     C23660  10.344   2.085   1.451  0.6336  0.0098 -0.0629
  897MOL0     C23661  10.261   2.202   1.397 -0.2337  0.1062 -1.6487
  897MOL0     C23662  10.301   2.340   1.467 -0.1157  0.9762  0.1184
  897MOL0     C23663  10.235   2.450   1.382 -0.5240  0.3053  0.9264
  897MOL0     C23664  10.289   2.589   1.427 -0.5367 -0.0728 -0.0224
  897MOL0     N23665  10.212   2.640   1.537 -0.4112 -0.9804  0.5008
  897MOL0     C23666  10.121   2.740   1.509 -0.5107  0.4443 -0.9628
  897MOL0     C23667  10.081   2.782   1.635 -0.6569 -0.1930  0.3106
  897MOL0     C23668   9.976   2.872   1.680  0.0729  0.7213  0.1096
  897MOL0     C23669  10.036   3.003   1.738  0.1873 -0.1710  0.4238
  897MOL0     C23670  10.040   3.008   1.893 -0.2330 -1.0074 -0.4998
  897MOL0     C23671  10.113   3.133   1.939 -0.2446  0.1416 -1.0397
  897MOL0     O23672  10.043   3.252   1.895  0.8083  0.3847  0.9098
  897MOL0     C23673  10.076   3.365   1.970 -0.4560 -0.5843  0.0497
  897MOL0     C23674  10.202   3.398   2.021 -0.9560  1.0116 -0.4749
  897MOL0     C23675  10.227   3.527   2.074 -0.3537  0.0249  0.4063
  897MOL0     C23676  10.373   3.561   2.090  1.0277  1.2531  0.2455
  897MOL0     C23677  10.122   3.618   2.096  0.3746  0.2228 -1.0915
  897MOL0     C23678  10.125   3.759   2.133  0.0332  0.2070 -0.7892
  897MOL0     O23679  10.215   3.828   2.061  1.1289  1.0202  1.1650
  897MOL0     C23680  10.231   3.952   2.098  0.2341  0.5573  0.4015
  897MOL0     C23681  10.144   4.060   2.082  0.0919 -0.2560  0.8141
  897MOL0     C23682  10.172   4.186   2.135  0.5112 -0.7222  0.0167
  897MOL0     C23683  10.274   4.207   2.222 -0.2469 -0.0263 -0.0506
  897MOL0     O23684  10.307   4.328   2.286  0.3573 -0.0955  0.2564
  897MOL0     C23685  10.194   4.396   2.344 -1.1896 -0.7892  0.7264
  897MOL0     C23686  10.243   4.506   2.437 -0.6814 -0.0303 -0.0786
  897MOL0     C23687  10.319   4.617   2.362 -1.0949  0.4850  1.0352
  897MOL0     C23688  10.346   4.730   2.460  0.1019  0.5473 -0.3789
  897MOL0     C23689  10.396   4.859   2.384  0.5908  0.2703 -0.3903
  897MOL0     C23690  10.402   4.994   2.476  0.1735  0.1012 -0.2904
  897MOL0     C23691  10.455   4.963   2.616 -0.0001 -0.4274  0.7094
  897MOL0     C23692  10.606   4.940   2.605  1.0516 -0.3309 -0.6839
  897MOL0    Cl23693  10.689   4.971   2.756 -0.6815  0.1860  0.2137
  897MOL0     C23694  10.371   4.106   2.224 -0.6915  0.4411 -0.7776
  897MOL0     C23695  10.353   3.979   2.165 -0.6940  0.1846  0.1322
  897MOL0     O23696  10.052   3.805   2.224  0.5186  0.3223  0.2071
  897MOL0     C23697   9.995   3.578   2.047  0.7340  0.0329  0.9138
  897MOL0     C23698   9.973   3.453   1.992 -0.2958 -0.0035 -0.2835
  897MOL0     N23699  10.162   2.720   1.725 -0.3874 -0.3604 -0.4828
  897MOL0     N23700  10.249   2.637   1.667  0.5638 -0.4558  0.0705
  897MOL0     C23701  10.824   1.846   1.655 -0.0237  0.3795  0.3249
  897MOL0     C23702  10.799   1.770   1.768 -0.1520  0.3258  0.5811
  897MOL0     C23703  10.658   1.629   2.175 -0.2509  0.7837 -0.3224
  897MOL0     C23704  10.785   1.638   2.240 -0.1448 -0.1227  0.3076
  897MOL0     C23705  10.815   1.610   2.371  0.6910  0.6792  0.4858
  897MOL0     C23706  10.708   1.564   2.453 -0.4260 -0.1208 -0.2825
  897MOL0     O23707  10.740   1.532   2.577  1.0285  0.1986  0.5507
  897MOL0     C23708  10.651   1.482   2.671 -0.5610  0.1949 -0.3663
  897MOL0     C23709  10.732   1.419   2.783  0.9315  0.2851  0.9038
  897MOL0     C23710  10.644   1.346   2.885 -0.3302  1.0393 -0.1807
  897MOL0     C23711  10.726   1.289   3.011  0.6325  0.2039 -0.1522
  897MOL0     C23712  10.639   1.200   3.089  0.6902 -1.2896 -0.4932
  897MOL0     C23713  10.571   1.121   3.153 -0.1037  1.1076  0.1325
  897MOL0     C23714  10.583   1.550   2.393 -0.6132  0.6333 -0.7733
  897MOL0     C23715  10.556   1.584   2.261  0.2214  0.4285  0.2357
  897MOL0     C23716  10.418   1.553   2.203 -0.2302 -0.8454  0.1836
  897MOL0     H23717  10.633   1.991   1.954 -0.8395  0.9398 -0.4859
  897MOL0     H23718  10.650   2.131   1.731  1.1230  0.1858 -2.5563
  897MOL0     H23719  10.770   1.874   1.407  0.7124  1.1107  0.7619
  897MOL0     H23720  10.737   2.027   1.312 -2.3605  1.9642  0.6923
  897MOL0     H23721  10.529   1.876   1.355  2.2100 -3.0202  0.9963
  897MOL0     H23722  10.549   1.901   1.516 -1.0976 -2.3852 -1.2863
  897MOL0     H23723  10.537   2.173   1.476 -0.5734  0.4449 -0.8685
  897MOL0     H23724  10.499   2.136   1.315 -4.0585 -0.4307 -0.9674
  897MOL0     H23725  10.289   1.998   1.416 -1.3100  1.2750 -0.2661
  897MOL0     H23726  10.339   2.089   1.561  1.4649  0.4140 -0.0304
  897MOL0     H23727  10.154   2.182   1.399 -0.0503 -0.8436 -0.6538
  897MOL0     H23728  10.287   2.209   1.291  0.1245  0.7931 -1.5226
  897MOL0     H23729  10.257   2.343   1.567  1.3209  1.0685  0.7746
  897MOL0     H23730  10.408   2.358   1.472  0.7183 -2.7678 -0.6453
  897MOL0     H23731  10.127   2.430   1.376  0.3085 -5.8986 -1.0773
  897MOL0     H23732  10.273   2.441   1.280 -3.8121 -1.9401 -0.2829
  897MOL0     H23733  10.392   2.579   1.461 -0.7002 -4.1046 -0.2759
  897MOL0     H23734  10.291   2.655   1.341  1.3368 -1.3669 -1.0428
  897MOL0     H23735  10.075   2.764   1.414 -3.0559 -0.6938 -0.1136
  897MOL0     H23736   9.911   2.830   1.757 -1.1861  2.3959  0.0298
  897MOL0     H23737   9.913   2.888   1.592  1.8118  0.6915 -1.1889
  897MOL0     H23738  10.139   3.002   1.702 -0.5110  0.5450 -1.7404
  897MOL0     H23739   9.985   3.090   1.695  0.1229  1.0021  2.7284
  897MOL0     H23740   9.952   2.989   1.954  1.0985 -2.1417  1.1688
  897MOL0     H23741  10.114   2.935   1.927 -0.6793 -1.8054 -1.1944
  897MOL0     H23742  10.122   3.138   2.048 -0.7388  3.5637 -1.0274
  897MOL0     H23743  10.216   3.131   1.900  0.9495 -1.5359  1.8931
  897MOL0     H23744  10.293   3.341   2.005 -1.2885  0.8420 -1.8041
  897MOL0     H23745  10.424   3.538   1.996 -0.1514 -0.0620 -0.1167
  897MOL0     H23746  10.428   3.514   2.173  1.6370  0.4152 -0.6180
  897MOL0     H23747  10.374   3.669   2.105 -0.2324  1.2419  0.5479
  897MOL0     H23748  10.065   4.029   2.014  2.6178 -2.3517 -1.4212
  897MOL0     H23749  10.092   4.258   2.117 -1.7252 -3.2029 -0.5673
  897MOL0     H23750  10.122   4.427   2.268 -0.2729  0.6242  0.4010
  897MOL0     H23751  10.146   4.321   2.407 -1.7867  0.5286  1.8639
  897MOL0     H23752  10.147   4.539   2.477 -1.0553 -2.5716  1.3347
  897MOL0     H23753  10.308   4.470   2.517  0.9684  2.3258 -0.2852
  897MOL0     H23754  10.252   4.656   2.284 -1.5492  2.4749  2.3337
  897MOL0     H23755  10.410   4.571   2.322 -1.8321 -1.2395  1.2643
  897MOL0     H23756  10.430   4.707   2.527  0.6099  2.1546 -0.4151
  897MOL0     H23757  10.250   4.751   2.508  0.3836 -0.9777  0.9199
  897MOL0     H23758  10.491   4.844   2.330  0.9930 -0.7061  0.5632
  897MOL0     H23759  10.318   4.875   2.309  1.2741 -0.9726 -1.4187
  897MOL0     H23760  10.298   5.027   2.477  0.0962  0.2492 -3.3080
  897MOL0     H23761  10.462   5.079   2.442  3.1392 -1.1754  1.2760
  897MOL0     H23762  10.400   4.883   2.667 -3.2755  0.8254 -0.6160
  897MOL0     H23763  10.440   5.061   2.663 -0.3445 -0.4133  0.5688
  897MOL0     H23764  10.654   5.021   2.549 -0.4001  1.4031  0.4660
  897MOL0     H23765  10.629   4.840   2.566  0.4898 -0.7510  0.0403
  897MOL0     H23766  10.461   4.125   2.283  0.6931 -2.9535 -1.5723
  897MOL0     H23767  10.428   3.903   2.183  2.1362  2.9154  0.6918
  897MOL0     H23768   9.918   3.652   2.065  1.3105  1.7768 -2.8989
  897MOL0     H23769   9.874   3.419   1.963 -0.1018 -0.1925 -0.7249
  897MOL0     H23770  10.870   1.793   1.571  0.7084 -0.6085  1.3209
  897MOL0     H23771  10.851   1.677   1.792 -0.6328  0.0887  0.7150
  897MOL0     H23772  10.870   1.667   2.178 -0.5815 -0.3565 -0.4174
  897MOL0     H23773  10.916   1.610   2.410  0.3086 -1.7890  1.6747
  897MOL0     H23774  10.592   1.561   2.719  1.8378  1.2421  1.0338
  897MOL0     H23775  10.582   1.405   2.635 -0.8963 -1.1922  2.9186
  897MOL0     H23776  10.796   1.494   2.831  2.1245 -0.6248  0.7822
  897MOL0     H23777  10.796   1.340   2.741  2.0073  0.4680  2.1287
  897MOL0     H23778  10.566   1.411   2.924  0.1618  1.4021  0.2142
  897MOL0     H23779  10.590   1.273   2.825  1.3230 -3.0866  2.8842
  897MOL0     H23780  10.740   1.369   3.085  2.5668 -0.3727  0.1800
  897MOL0     H23781  10.820   1.240   2.983  1.7817  1.2454  1.6333
  897MOL0     H23782  10.513   1.042   3.196  0.2975  0.9016  0.2952
  897MOL0     H23783  10.503   1.502   2.449  0.1707  0.0237 -0.1465
  897MOL0     H23784  10.424   1.531   2.097  0.1854  2.0573 -0.4967
  897MOL0     H23785  10.368   1.474   2.259 -0.4148  0.4368  1.9224
  897MOL0     H23786  10.353   1.640   2.217  0.7064 -0.1857  0.5896
  898MOL0     O23787   3.535   8.688   2.432 -0.5159 -0.2601  0.7831
  898MOL0     C23788   3.589   8.737   2.530  0.7124  0.0849 -0.4797
  898MOL0     O23789   3.689   8.836   2.535 -0.5530  0.0489 -0.5000
  898MOL0     C23790   3.771   8.861   2.427  0.0905  0.1559 -0.2902
  898MOL0     C23791   3.792   8.778   2.320 -0.3665 -0.6576  0.1887
  898MOL0     C23792   3.889   8.803   2.220 -0.4465  0.6017  0.5356
  898MOL0     C23793   3.966   8.917   2.217 -1.1711 -0.5422 -0.3765
  898MOL0     O23794   4.044   8.930   2.101  0.2878  0.2969 -0.1695
  898MOL0     C23795   4.162   9.008   2.109  0.4218 -0.3712 -0.1936
  898MOL0     C23796   4.259   8.968   1.995  0.8690 -0.3931 -0.6295
  898MOL0     C23797   4.393   9.043   2.016 -0.0953  0.3400 -0.5610
  898MOL0     C23798   4.489   8.982   1.918 -0.7315  0.5397 -0.6998
  898MOL0     C23799   4.620   9.048   1.926 -1.0773 -0.8643  0.0883
  898MOL0     C23800   4.631   9.200   1.931  0.2720  0.0008  1.5483
  898MOL0     C23801   4.593   9.253   1.796 -0.9356  0.2375  0.7385
  898MOL0     C23802   4.676   9.211   1.670 -0.8184  0.0446 -0.0419
  898MOL0     N23803   4.814   9.228   1.709 -0.2760 -0.4726  0.5918
  898MOL0     C23804   4.892   9.341   1.697 -0.5417 -0.0029 -0.7724
  898MOL0     C23805   5.014   9.308   1.737  0.4704 -0.4450 -0.6034
  898MOL0     C23806   5.130   9.410   1.737  0.1286  0.3694  0.0615
  898MOL0     C23807   5.264   9.342   1.731  1.2951  0.6520 -0.4291
  898MOL0     C23808   5.286   9.241   1.619  0.6994 -0.1528  0.4092
  898MOL0     C23809   5.280   9.298   1.480  0.5299 -0.5189  0.0135
  898MOL0     O23810   5.374   9.400   1.456 -0.2514 -0.3635 -0.3648
  898MOL0     C23811   5.493   9.362   1.404  0.2433 -0.0897 -0.0337
  898MOL0     C23812   5.617   9.390   1.472 -0.6221  0.1512 -0.5608
  898MOL0     C23813   5.744   9.347   1.426  0.2872  1.2838 -0.2849
  898MOL0     C23814   5.871   9.378   1.501  0.0655  0.7526 -0.5811
  898MOL0     C23815   5.745   9.287   1.300 -0.0363  0.4962  1.2603
  898MOL0     C23816   5.876   9.243   1.236 -0.3390 -0.2907  0.7985
  898MOL0     O23817   5.875   9.109   1.205 -0.1565  0.1300 -0.0846
  898MOL0     C23818   5.974   9.052   1.125 -0.2090  0.3229  0.0151
  898MOL0     C23819   5.939   9.004   1.006  0.2771  0.7448  0.1735
  898MOL0     C23820   6.033   8.954   0.917  0.3979 -0.2266 -0.6893
  898MOL0     C23821   6.174   8.952   0.950 -0.6471  0.2022  0.1327
  898MOL0     O23822   6.270   8.889   0.877 -0.3686 -0.0797  0.1839
  898MOL0     C23823   6.244   8.882   0.738  1.0517 -0.8083 -0.2419
  898MOL0     C23824   6.348   8.787   0.674 -0.9019 -0.0725  0.3367
  898MOL0     C23825   6.346   8.642   0.727  0.5267 -0.0939 -0.3697
  898MOL0     C23826   6.489   8.590   0.745 -0.1956 -0.7470 -0.2058
  898MOL0     C23827   6.522   8.440   0.752  0.5225  0.0964 -0.8121
  898MOL0     C23828   6.506   8.375   0.616  0.4687  0.1986  0.2938
  898MOL0     C23829   6.559   8.222   0.622  0.1977 -0.1145  0.0870
  898MOL0     C23830   6.568   8.165   0.477  0.0272 -0.1748  0.9292
  898MOL0    Cl23831   6.599   7.984   0.478  0.2895  0.0187  0.1596
  898MOL0     C23832   6.204   8.998   1.078 -0.7496  0.0375 -0.9933
  898MOL0     C23833   6.110   9.048   1.164 -0.1750 -0.4107  0.2610
  898MOL0     O23834   5.969   9.324   1.209 -0.4984 -0.2899 -0.2815
  898MOL0     C23835   5.618   9.270   1.234 -0.2585  0.6669  0.5224
  898MOL0     C23836   5.493   9.308   1.280 -0.2727 -0.6661 -0.3018
  898MOL0     N23837   5.013   9.172   1.777  0.4329  0.0858  0.1115
  898MOL0     N23838   4.890   9.127   1.758  0.3242 -0.2264  0.4069
  898MOL0     C23839   3.952   9.005   2.328 -0.5715 -0.3452 -0.4343
  898MOL0     C23840   3.849   8.978   2.424  0.4773 -0.2231 -0.3001
  898MOL0     C23841   3.512   8.715   2.654 -0.6417 -0.8111 -0.1322
  898MOL0     C23842   3.522   8.808   2.754  0.1055 -0.0005  0.9959
  898MOL0     C23843   3.474   8.787   2.880  0.5330  0.3997 -0.2214
  898MOL0     C23844   3.394   8.676   2.915  0.2430  0.6492 -0.1332
  898MOL0     O23845   3.343   8.663   3.044  0.2709 -0.0209 -0.2014
  898MOL0     C23846   3.277   8.538   3.069  0.7658 -1.0691  0.6031
  898MOL0     C23847   3.214   8.526   3.202  0.0643  0.1963  0.1930
  898MOL0     C23848   3.123   8.650   3.237  0.7702 -0.0997  0.9203
  898MOL0     C23849   3.052   8.634   3.369  0.0461 -1.1512  0.4671
  898MOL0     C23850   2.955   8.531   3.367  0.3756 -0.3030  0.5374
  898MOL0     C23851   2.890   8.433   3.366 -0.1491  0.3997  0.4619
  898MOL0     C23852   3.365   8.590   2.807 -0.1807  0.4854  0.1466
  898MOL0     C23853   3.431   8.594   2.680  0.8804 -0.3617  0.2644
  898MOL0     C23854   3.405   8.487   2.576 -0.5744 -0.2020  0.2353
  898MOL0     H23855   3.726   8.692   2.313  0.0951 -0.9976 -0.0577
  898MOL0     H23856   3.908   8.720   2.153  3.0923 -1.7404  4.0087
  898MOL0     H23857   4.216   8.983   2.201  0.0005 -1.0703 -0.1308
  898MOL0     H23858   4.144   9.116   2.115  0.1639 -0.4473  0.5726
  898MOL0     H23859   4.267   8.859   2.003  0.5387 -0.3037  1.1262
  898MOL0     H23860   4.218   8.996   1.897 -3.1547  0.4902  1.0965
  898MOL0     H23861   4.375   9.150   2.006 -0.2207  0.7057  2.6638
  898MOL0     H23862   4.430   9.018   2.116  1.0271 -0.4329 -1.1436
  898MOL0     H23863   4.504   8.877   1.943 -0.7332  1.2112  2.5898
  898MOL0     H23864   4.451   9.000   1.817  0.6699  1.4888 -1.0909
  898MOL0     H23865   4.671   9.009   1.837 -0.1271  0.5935 -0.0350
  898MOL0     H23866   4.678   9.007   2.010  1.1180 -0.6852 -1.2442
  898MOL0     H23867   4.571   9.241   2.012 -3.7534 -2.4002  0.0541
  898MOL0     H23868   4.730   9.241   1.953  0.9281  1.3954 -2.9789
  898MOL0     H23869   4.589   9.363   1.795 -4.4394  0.2199  0.4176
  898MOL0     H23870   4.488   9.225   1.780 -0.4671  0.2176 -3.6884
  898MOL0     H23871   4.656   9.106   1.649  0.0903 -0.8186  2.9414
  898MOL0     H23872   4.661   9.281   1.587  3.2891  1.0578 -0.1325
  898MOL0     H23873   4.862   9.441   1.667 -1.3055  0.4954  1.4307
  898MOL0     H23874   5.122   9.467   1.830  1.4090 -2.1466  1.8054
  898MOL0     H23875   5.108   9.468   1.647  3.4384  0.5068 -0.7880
  898MOL0     H23876   5.338   9.423   1.726 -1.3473  3.2280 -0.6715
  898MOL0     H23877   5.274   9.297   1.830  3.4604  2.4108  0.2440
  898MOL0     H23878   5.387   9.200   1.631  0.6330 -0.4648 -0.0925
  898MOL0     H23879   5.221   9.153   1.626  2.4258 -1.8086 -2.3781
  898MOL0     H23880   5.286   9.216   1.407  0.7305  0.3177 -0.9376
  898MOL0     H23881   5.179   9.339   1.469  0.5003 -0.9509 -1.6695
  898MOL0     H23882   5.605   9.447   1.564 -0.5589  1.0898 -1.1286
  898MOL0     H23883   5.915   9.461   1.446 -0.8097  2.6140  1.4003
  898MOL0     H23884   5.941   9.294   1.491 -0.0938  0.2953  1.5587
  898MOL0     H23885   5.869   9.397   1.609  0.4916 -0.3234 -0.3702
  898MOL0     H23886   5.834   9.011   0.980  0.2766  1.4022  0.3221
  898MOL0     H23887   5.980   8.918   0.829 -2.9573  0.4814  0.8665
  898MOL0     H23888   6.140   8.851   0.722  0.6218 -1.5716  3.2006
  898MOL0     H23889   6.249   8.981   0.693  2.3988 -1.8600 -2.6048
  898MOL0     H23890   6.353   8.794   0.565  1.4740  1.3545  0.4684
  898MOL0     H23891   6.443   8.835   0.700 -1.5455  2.7568 -1.9838
  898MOL0     H23892   6.294   8.589   0.647 -1.2044  1.4232 -0.3097
  898MOL0     H23893   6.277   8.627   0.810 -0.4096 -0.7082 -1.2330
  898MOL0     H23894   6.532   8.643   0.830  0.5545 -1.7337  0.0442
  898MOL0     H23895   6.545   8.621   0.657  2.0701 -1.0707  1.0681
  898MOL0     H23896   6.619   8.427   0.802 -1.9544 -3.7844  3.7175
  898MOL0     H23897   6.449   8.405   0.825 -0.2314  1.4654 -0.8575
  898MOL0     H23898   6.565   8.428   0.540 -2.3140  3.1576 -0.0366
  898MOL0     H23899   6.399   8.379   0.591  0.4389 -0.0878  0.3768
  898MOL0     H23900   6.499   8.151   0.680  0.6160 -1.4529 -1.0856
  898MOL0     H23901   6.657   8.205   0.667  1.1356 -0.9218 -2.1389
  898MOL0     H23902   6.652   8.216   0.430 -0.5637  1.3504  1.4691
  898MOL0     H23903   6.474   8.189   0.426 -1.3935 -4.1514  1.3308
  898MOL0     H23904   6.303   8.972   1.113 -0.7001  1.0581 -0.3184
  898MOL0     H23905   6.135   9.069   1.268 -0.1488 -0.5627  0.2863
  898MOL0     H23906   5.626   9.234   1.132  1.3949  2.4666 -0.0390
  898MOL0     H23907   5.395   9.295   1.234 -1.9255 -2.4700  3.2977
  898MOL0     H23908   4.014   9.094   2.335  0.1518 -0.9553  1.7113
  898MOL0     H23909   3.842   9.049   2.506 -0.3931 -0.0956 -0.4723
  898MOL0     H23910   3.593   8.888   2.734  0.2307 -0.1982  0.6397
  898MOL0     H23911   3.486   8.862   2.958  0.6857  1.2200 -1.0081
  898MOL0     H23912   3.199   8.533   2.992  1.2579 -0.5831  0.0639
  898MOL0     H23913   3.341   8.451   3.076  0.0385 -1.5025  3.0875
  898MOL0     H23914   3.291   8.537   3.279  1.4646  2.7818 -1.4461
  898MOL0     H23915   3.163   8.430   3.213 -1.5665  0.9911 -0.1043
  898MOL0     H23916   3.186   8.738   3.249  4.4367 -2.0821 -1.6816
  898MOL0     H23917   3.058   8.663   3.150  1.5359 -2.0971 -0.0241
  898MOL0     H23918   3.000   8.728   3.387  2.4131  0.1327  1.0713
  898MOL0     H23919   3.129   8.626   3.446 -0.4204 -1.9906  0.8470
  898MOL0     H23920   2.826   8.348   3.356 -0.2808  0.6142 -0.5484
  898MOL0     H23921   3.303   8.502   2.821 -0.6467  0.2666 -2.6267
  898MOL0     H23922   3.487   8.460   2.509 -1.1215  2.8723 -1.8987
  898MOL0     H23923   3.363   8.401   2.628 -1.8313 -1.2472 -2.3875
  898MOL0     H23924   3.331   8.529   2.507  0.8836  4.3040  1.0816
  899MOL0     O23925   8.275   2.389   3.588  0.3672 -0.0969 -0.0353
  899MOL0     C23926   8.362   2.304   3.610  0.2233 -0.0891  0.5935
  899MOL0     O23927   8.358   2.212   3.717  0.5963 -0.5029 -0.7549
  899MOL0     C23928   8.248   2.201   3.799  0.1506 -0.5299  0.1142
  899MOL0     C23929   8.266   2.149   3.926  0.5545  0.4492  0.5817
  899MOL0     C23930   8.162   2.127   4.018 -0.1097  0.2095  0.3230
  899MOL0     C23931   8.034   2.165   3.989  0.3912 -0.0160 -0.6164
  899MOL0     O23932   7.928   2.147   4.061 -0.4926  0.9834 -0.7943
  899MOL0     C23933   7.907   2.222   4.175  0.5643  0.1980  0.2844
  899MOL0     C23934   7.830   2.130   4.280 -0.4613  0.4082  0.6199
  899MOL0     C23935   7.926   2.044   4.367  0.0114 -1.8696  0.4670
  899MOL0     C23936   7.850   1.942   4.453 -0.5962 -0.6397  0.0289
  899MOL0     C23937   7.799   1.804   4.388 -0.1078  0.1270  0.4175
  899MOL0     C23938   7.711   1.722   4.484 -0.3011 -0.2669  0.3429
  899MOL0     C23939   7.707   1.568   4.447 -1.0293 -0.2968 -0.0667
  899MOL0     C23940   7.647   1.534   4.311  0.5207 -0.2106  0.1838
  899MOL0     N23941   7.682   1.394   4.277 -0.0581 -0.0725  0.5183
  899MOL0     C23942   7.804   1.333   4.258 -0.0120 -0.0216 -0.4700
  899MOL0     C23943   7.777   1.206   4.221  0.3960 -0.4163 -0.8834
  899MOL0     C23944   7.880   1.111   4.179 -0.0956  0.2247  0.4275
  899MOL0     C23945   7.911   1.121   4.025  0.2012  0.2255  0.1759
  899MOL0     C23946   8.060   1.066   3.997  0.3056 -0.6141  0.0473
  899MOL0     C23947   8.035   0.919   3.952 -0.0858  0.9758 -0.3469
  899MOL0     O23948   8.165   0.865   3.936 -0.5807 -0.1840  0.0472
  899MOL0     C23949   8.186   0.727   3.921 -0.0762 -0.1301  0.1702
  899MOL0     C23950   8.314   0.671   3.926  0.3366 -0.4853  0.1344
  899MOL0     C23951   8.341   0.539   3.927 -0.1831  0.4808 -1.1347
  899MOL0     C23952   8.479   0.491   3.961 -0.5586  1.3344  1.1374
  899MOL0     C23953   8.229   0.447   3.911  0.0705 -1.1985  0.1986
  899MOL0     C23954   8.258   0.303   3.904 -0.0689 -0.2498 -0.1703
  899MOL0     O23955   8.292   0.264   3.783  0.1159 -0.0686  0.4957
  899MOL0     C23956   8.294   0.128   3.767  0.4450 -0.3861  0.7914
  899MOL0     C23957   8.409   0.048   3.753  0.0384  0.0843 -0.3124
  899MOL0     C23958   8.401  -0.094   3.743  0.2987  0.2506  0.0877
  899MOL0     C23959   8.266  -0.147   3.719  0.0557 -1.3241  0.0548
  899MOL0     O23960   8.266  -0.285   3.705  0.0606  0.2288 -0.4024
  899MOL0     C23961   8.135  -0.347   3.692 -0.5201  0.5331  0.4339
  899MOL0     C23962   8.143  -0.501   3.673  0.9477 -0.9312  0.6184
  899MOL0     C23963   8.249  -0.566   3.755 -0.0130 -0.6311  0.8572
  899MOL0     C23964   8.225  -0.717   3.774  0.5050  0.3807 -0.8654
  899MOL0     C23965   8.359  -0.792   3.818  0.9852  1.1640 -0.0591
  899MOL0     C23966   8.399  -0.776   3.967 -0.0051  0.7729  0.8079
  899MOL0     C23967   8.509  -0.870   4.019  0.2642 -0.1773 -0.4466
  899MOL0     C23968   8.631  -0.869   3.931  0.2725 -0.2139  0.9206
  899MOL0    Cl23969   8.776  -0.926   4.020 -0.0148 -0.2775  0.3543
  899MOL0     C23970   8.158  -0.062   3.714 -0.7617 -0.6015 -0.6545
  899MOL0     C23971   8.167   0.075   3.749 -0.1286 -0.6556  0.2194
  899MOL0     O23972   8.252   0.227   3.998 -0.2476 -0.6466 -0.2207
  899MOL0     C23973   8.102   0.502   3.882 -0.0394  0.0498 -0.6019
  899MOL0     C23974   8.077   0.642   3.891  0.9375  0.4474 -0.0885
  899MOL0     N23975   7.640   1.188   4.243 -0.7851 -0.7662  0.0845
  899MOL0     N23976   7.583   1.301   4.279 -0.4339  0.3042  0.2443
  899MOL0     C23977   8.003   2.217   3.864  0.2006  0.0949 -0.3981
  899MOL0     C23978   8.116   2.229   3.768  0.0056  0.2449 -0.0734
  899MOL0     C23979   8.487   2.310   3.538  0.1938  0.9049  0.2708
  899MOL0     C23980   8.604   2.246   3.588  0.5772  0.4416  0.8338
  899MOL0     C23981   8.734   2.262   3.522  0.3004  0.7391  0.6070
  899MOL0     C23982   8.739   2.338   3.399 -0.6733 -0.4113  0.3590
  899MOL0     O23983   8.844   2.395   3.336 -0.1212 -0.3120  1.3808
  899MOL0     C23984   8.952   2.430   3.429  1.5774  0.4581 -0.7645
  899MOL0     C23985   9.065   2.481   3.355 -0.3910 -1.0162 -0.2337
  899MOL0     C23986   9.134   2.369   3.281 -1.0279 -0.1863  0.1689
  899MOL0     C23987   9.212   2.423   3.165  1.1726 -0.4790  0.7533
  899MOL0     C23988   9.255   2.303   3.088 -0.7990 -0.4427 -0.5103
  899MOL0     C23989   9.292   2.202   3.030 -0.2336 -0.0181  0.2635
  899MOL0     C23990   8.621   2.386   3.344  0.1128  0.2328 -0.3089
  899MOL0     C23991   8.492   2.366   3.402 -0.2968  0.1133  0.7351
  899MOL0     C23992   8.371   2.428   3.335 -0.1138 -0.4035 -0.4964
  899MOL0     H23993   8.365   2.112   3.950 -0.1087 -1.9683 -0.1252
  899MOL0     H23994   8.187   2.055   4.095  1.5733 -2.6565 -2.6431
  899MOL0     H23995   7.830   2.299   4.161  0.4368  0.5231  2.4907
  899MOL0     H23996   8.001   2.258   4.218 -0.0244  0.6149  1.2552
  899MOL0     H23997   7.788   2.197   4.356  0.0221  1.5889 -0.1183
  899MOL0     H23998   7.746   2.078   4.233 -0.4675  2.4619 -1.8626
  899MOL0     H23999   8.004   1.995   4.308  0.6645 -0.4909  0.1560
  899MOL0     H24000   7.990   2.108   4.429  0.8102 -2.1256 -0.0736
  899MOL0     H24001   7.914   1.910   4.536 -2.9153 -3.6736  0.8220
  899MOL0     H24002   7.768   2.000   4.496  0.3149  1.0598 -0.4483
  899MOL0     H24003   7.886   1.745   4.359 -1.4520 -0.5484 -2.6314
  899MOL0     H24004   7.750   1.823   4.292 -0.8634  1.4256  1.0266
  899MOL0     H24005   7.735   1.735   4.589 -1.4732 -0.3693  0.6333
  899MOL0     H24006   7.610   1.760   4.468 -0.1291  0.2727  0.5506
  899MOL0     H24007   7.651   1.511   4.521  0.3899  0.2974  1.5418
  899MOL0     H24008   7.812   1.541   4.466 -0.2543 -0.3939 -3.7029
  899MOL0     H24009   7.538   1.542   4.301  0.3954 -1.3857  0.4556
  899MOL0     H24010   7.693   1.606   4.243 -0.1165  2.2607  2.1657
  899MOL0     H24011   7.904   1.374   4.258  0.2361 -0.5642  1.4899
  899MOL0     H24012   7.839   1.010   4.189  0.5367 -0.0797 -0.0368
  899MOL0     H24013   7.970   1.134   4.236  1.2330  3.0585 -2.4819
  899MOL0     H24014   7.831   1.074   3.967  1.4334 -5.2690  2.2617
  899MOL0     H24015   7.907   1.225   3.994  2.0887  0.3228  0.1121
  899MOL0     H24016   8.110   1.125   3.919 -0.2205  1.1922  1.0217
  899MOL0     H24017   8.119   1.073   4.088 -0.1815  2.2869  0.2474
  899MOL0     H24018   7.975   0.868   4.028  0.6843 -1.6671 -1.3987
  899MOL0     H24019   7.991   0.906   3.852  0.4604 -1.0543 -0.3825
  899MOL0     H24020   8.385   0.752   3.937 -0.1324 -0.1093  0.4138
  899MOL0     H24021   8.513   0.423   3.882 -1.0382  1.7984  0.5215
  899MOL0     H24022   8.483   0.440   4.058 -2.6748 -1.5443 -0.1197
  899MOL0     H24023   8.556   0.567   3.948 -0.2330  0.7115 -0.8901
  899MOL0     H24024   8.504   0.099   3.739 -0.6483  1.3628 -0.5440
  899MOL0     H24025   8.487  -0.158   3.729 -1.2306 -1.9347  0.1111
  899MOL0     H24026   8.087  -0.326   3.789  1.8748  1.6568  1.4509
  899MOL0     H24027   8.084  -0.301   3.607 -0.9172 -2.3694 -1.0006
  899MOL0     H24028   8.046  -0.538   3.707  0.0269  0.1307 -0.7077
  899MOL0     H24029   8.158  -0.522   3.566  1.3681 -0.8022  0.6501
  899MOL0     H24030   8.249  -0.527   3.857 -2.5932  1.3625  0.1818
  899MOL0     H24031   8.350  -0.538   3.723 -0.5271 -1.5355 -1.8198
  899MOL0     H24032   8.181  -0.755   3.681 -0.5619  2.5471 -1.2953
  899MOL0     H24033   8.166  -0.725   3.867  0.8741  3.4932 -0.2831
  899MOL0     H24034   8.347  -0.900   3.804  0.9710  0.8468  2.0826
  899MOL0     H24035   8.441  -0.762   3.753 -0.9624 -1.1205 -3.9203
  899MOL0     H24036   8.305  -0.802   4.016 -1.7801 -0.2500 -2.8161
  899MOL0     H24037   8.431  -0.673   3.987 -0.1758  0.6889  1.5444
  899MOL0     H24038   8.470  -0.971   4.034 -1.6722  0.8104  1.8064
  899MOL0     H24039   8.534  -0.828   4.116 -0.7783  1.6781 -0.9311
  899MOL0     H24040   8.646  -0.764   3.901 -1.0774 -0.4678 -0.8713
  899MOL0     H24041   8.610  -0.923   3.838 -0.3122  0.9206  0.3590
  899MOL0     H24042   8.053  -0.090   3.707 -0.8399 -1.6679  2.7356
  899MOL0     H24043   8.082   0.140   3.763 -1.1227 -2.4947  3.9668
  899MOL0     H24044   8.030   0.423   3.862  2.0100 -1.6721 -1.5469
  899MOL0     H24045   7.978   0.683   3.873  1.1348  1.0804  0.2393
  899MOL0     H24046   7.898   2.226   3.840 -0.4096  0.0802  1.9964
  899MOL0     H24047   8.093   2.270   3.671 -0.7091  0.2326  0.0883
  899MOL0     H24048   8.601   2.190   3.680 -0.7987 -1.7295 -0.4464
  899MOL0     H24049   8.821   2.223   3.573 -0.3430  1.9312  2.7843
  899MOL0     H24050   8.917   2.501   3.505  4.6969  1.5638 -0.2265
  899MOL0     H24051   8.991   2.347   3.488 -0.9788  0.7507  1.5995
  899MOL0     H24052   9.133   2.527   3.427  3.1398 -2.0694 -2.6190
  899MOL0     H24053   9.027   2.551   3.280  2.5358  1.9404  0.7696
  899MOL0     H24054   9.200   2.320   3.353  0.2938  3.8566  1.9788
  899MOL0     H24055   9.062   2.292   3.253 -1.1967 -0.0098  0.1112
  899MOL0     H24056   9.294   2.485   3.203  1.5871 -0.7262  0.2765
  899MOL0     H24057   9.145   2.472   3.095 -2.1297 -3.0885  1.8090
  899MOL0     H24058   9.329   2.119   2.974 -1.1969 -0.8277  0.8083
  899MOL0     H24059   8.637   2.434   3.248  2.0466  0.4155  0.0681
  899MOL0     H24060   8.323   2.518   3.376 -1.8512 -0.0287 -3.0760
  899MOL0     H24061   8.407   2.451   3.234  1.0975  1.5938  0.3292
  899MOL0     H24062   8.294   2.351   3.329  1.7106 -3.2516  5.4352
  900MOL0     O24063   6.707   6.752   8.369  0.0501 -0.5923 -0.6610
  900MOL0     C24064   6.684   6.640   8.423  0.3122 -0.5620  0.5973
  900MOL0     O24065   6.564   6.576   8.429 -0.6002 -0.0502  0.0261
  900MOL0     C24066   6.439   6.626   8.392  0.7834 -0.9369 -0.3577
  900MOL0     C24067   6.348   6.536   8.343 -0.7482 -0.3148 -0.2910
  900MOL0     C24068   6.226   6.577   8.275  0.0004 -0.4105 -0.1757
  900MOL0     C24069   6.196   6.715   8.262 -0.5967 -1.0767  0.1291
  900MOL0     O24070   6.093   6.760   8.185  0.3469 -0.0929  0.1438
  900MOL0     C24071   6.126   6.871   8.096  0.4180  1.0155 -0.4804
  900MOL0     C24072   6.254   6.831   8.008 -0.2236  1.1700  0.0215
  900MOL0     C24073   6.217   6.744   7.880 -0.3041  1.0871 -0.2385
  900MOL0     C24074   6.350   6.686   7.825  0.3841 -0.0311 -0.4026
  900MOL0     C24075   6.317   6.600   7.708  0.4223 -0.3471 -0.2059
  900MOL0     C24076   6.435   6.515   7.661  0.3588  0.9005  0.4485
  900MOL0     C24077   6.562   6.596   7.627 -0.2650  0.4067  0.3129
  900MOL0     C24078   6.566   6.651   7.489 -0.3019 -0.2046  0.3530
  900MOL0     N24079   6.696   6.727   7.461  0.0419  0.3486 -0.2372
  900MOL0     C24080   6.814   6.673   7.416 -0.5185 -0.1962  0.4594
  900MOL0     C24081   6.896   6.782   7.412 -0.4585  0.4010  0.4003
  900MOL0     C24082   7.044   6.783   7.373  0.1707 -0.5440  0.0118
  900MOL0     C24083   7.134   6.804   7.497  1.0197 -0.0695  0.1725
  900MOL0     C24084   7.109   6.720   7.622 -0.2712 -0.7744  0.2690
  900MOL0     C24085   7.155   6.578   7.610  0.7841  0.7128  0.4413
  900MOL0     O24086   7.295   6.577   7.604 -0.0361 -0.1957  0.6691
  900MOL0     C24087   7.351   6.463   7.553 -0.6604 -0.2450 -0.2222
  900MOL0     C24088   7.296   6.335   7.555  0.1090 -0.0229 -0.4443
  900MOL0     C24089   7.349   6.222   7.483  0.5293 -0.3100  0.2482
  900MOL0     C24090   7.273   6.089   7.478 -1.1339  0.1351 -0.6090
  900MOL0     C24091   7.470   6.248   7.406  0.5138  0.1771  0.0618
  900MOL0     C24092   7.521   6.158   7.307  0.0892  0.0196  0.3380
  900MOL0     O24093   7.591   6.219   7.203  0.0199 -0.9211 -0.5515
  900MOL0     C24094   7.651   6.160   7.099  0.0566 -0.3411 -0.9720
  900MOL0     C24095   7.692   6.028   7.091 -0.0247  0.0961  0.9065
  900MOL0     C24096   7.764   5.979   6.977 -0.8835 -0.0519  0.3017
  900MOL0     C24097   7.798   6.065   6.874 -0.7841 -0.0292 -0.7665
  900MOL0     O24098   7.867   6.042   6.760 -0.5442  0.3027 -0.5532
  900MOL0     C24099   7.878   5.905   6.712 -0.1453 -0.6087  0.0531
  900MOL0     C24100   7.994   5.832   6.773  0.3247 -0.1441 -0.8238
  900MOL0     C24101   7.974   5.680   6.753 -0.3274  0.1130  0.6940
  900MOL0     C24102   8.079   5.608   6.834 -0.1108  0.2998 -0.0654
  900MOL0     C24103   8.065   5.457   6.836 -0.0025  1.0123  0.1954
  900MOL0     C24104   8.182   5.387   6.920 -0.6276 -0.3017  0.0159
  900MOL0     C24105   8.189   5.425   7.068 -0.2412  0.2552 -0.5494
  900MOL0     C24106   8.227   5.302   7.145 -0.4257 -0.3545  0.0883
  900MOL0    Cl24107   8.184   5.327   7.315 -0.6578  0.2734 -0.0727
  900MOL0     C24108   7.757   6.195   6.887  0.9373 -0.0816 -0.8348
  900MOL0     C24109   7.689   6.245   6.994  0.9492  0.0583  0.2143
  900MOL0     O24110   7.499   6.040   7.315  0.1335 -0.2371 -0.4105
  900MOL0     C24111   7.534   6.374   7.421 -0.2228  0.2403 -0.5358
  900MOL0     C24112   7.478   6.477   7.487 -0.0543  0.0015 -0.8180
  900MOL0     N24113   6.826   6.890   7.463 -0.4214  0.0766 -0.0564
  900MOL0     N24114   6.710   6.850   7.496  0.8125 -0.1511  0.3129
  900MOL0     C24115   6.284   6.804   8.325 -0.2306  0.1078  0.1053
  900MOL0     C24116   6.401   6.768   8.386  0.0554  0.4226  0.0543
  900MOL0     C24117   6.807   6.566   8.470  1.1791 -0.0750  0.9505
  900MOL0     C24118   6.802   6.422   8.446 -0.5094 -0.4579 -0.4625
  900MOL0     C24119   6.905   6.340   8.491 -0.5461 -0.7334  0.3201
  900MOL0     C24120   7.022   6.392   8.554  0.8912 -0.3263  1.3472
  900MOL0     O24121   7.103   6.299   8.612 -0.1718  0.3997 -0.1430
  900MOL0     C24122   7.217   6.355   8.673 -0.6632 -0.1812 -1.1201
  900MOL0     C24123   7.300   6.240   8.726  0.2029 -0.3436 -0.0358
  900MOL0     C24124   7.448   6.287   8.722 -0.9886 -0.0056  0.1054
  900MOL0     C24125   7.477   6.392   8.827 -0.7544  0.0305  0.0104
  900MOL0     C24126   7.625   6.416   8.828  0.5698  0.0735 -0.8660
  900MOL0     C24127   7.739   6.446   8.845  0.1730 -0.0011  0.4698
  900MOL0     C24128   7.030   6.537   8.564  0.6154  0.2574 -0.4529
  900MOL0     C24129   6.926   6.621   8.516  0.8475  0.2057  0.7616
  900MOL0     C24130   6.953   6.768   8.534  0.3090 -0.8190  0.2216
  900MOL0     H24131   6.378   6.432   8.352 -0.9555 -0.2858  0.8174
  900MOL0     H24132   6.150   6.510   8.234 -0.5899  1.4071 -2.2630
  900MOL0     H24133   6.154   6.959   8.155 -0.0282  1.3228 -0.7214
  900MOL0     H24134   6.045   6.888   8.025 -0.6431  0.7343  0.6331
  900MOL0     H24135   6.301   6.924   7.975 -0.0274  1.0158 -0.1418
  900MOL0     H24136   6.335   6.785   8.066  1.3244  1.0751 -2.0747
  900MOL0     H24137   6.143   6.666   7.899  0.3556  0.5673  0.2613
  900MOL0     H24138   6.174   6.800   7.797 -1.6367  0.7060  0.1750
  900MOL0     H24139   6.407   6.770   7.784 -2.8408  1.7938 -1.5037
  900MOL0     H24140   6.399   6.632   7.907  0.3858  2.0266  1.0377
  900MOL0     H24141   6.249   6.656   7.643  1.2654  0.4783 -0.4011
  900MOL0     H24142   6.257   6.513   7.737 -0.4201  0.4630  0.5347
  900MOL0     H24143   6.464   6.440   7.735  3.8747  1.1333 -0.5156
  900MOL0     H24144   6.393   6.462   7.575 -4.0219  4.1339  0.2254
  900MOL0     H24145   6.652   6.538   7.649 -1.2383 -1.1387  0.3453
  900MOL0     H24146   6.574   6.681   7.696 -4.2161  1.8172 -0.4618
  900MOL0     H24147   6.560   6.575   7.410  0.2954  1.0961 -0.9951
  900MOL0     H24148   6.475   6.710   7.471  0.8043  0.7164 -3.2197
  900MOL0     H24149   6.844   6.571   7.394  2.3037  0.4105  1.0612
  900MOL0     H24150   7.061   6.873   7.312  2.0487  1.2236  2.9145
  900MOL0     H24151   7.080   6.702   7.309 -2.0614  0.4947 -2.8239
  900MOL0     H24152   7.235   6.802   7.456  1.3988 -0.6872  1.0937
  900MOL0     H24153   7.114   6.906   7.533  0.1231 -0.5369  1.0685
  900MOL0     H24154   7.181   6.763   7.692  2.9175  0.7090 -3.5150
  900MOL0     H24155   7.010   6.737   7.666  0.4095  0.9303  1.2463
  900MOL0     H24156   7.114   6.513   7.688  0.7010  2.9285  2.3469
  900MOL0     H24157   7.119   6.552   7.510 -2.2361  1.2749  1.2608
  900MOL0     H24158   7.198   6.323   7.599 -0.0367 -0.2396 -0.8270
  900MOL0     H24159   7.338   6.005   7.504  0.0431  2.0688  3.6521
  900MOL0     H24160   7.219   6.088   7.383  2.6913 -0.0325 -2.9995
  900MOL0     H24161   7.195   6.101   7.554 -0.0623  1.4483  0.3191
  900MOL0     H24162   7.654   5.955   7.162 -1.2352  0.0331  0.2208
  900MOL0     H24163   7.783   5.873   6.964 -0.9302  0.0698 -0.9383
  900MOL0     H24164   7.783   5.854   6.729  0.8368 -2.5621  0.0085
  900MOL0     H24165   7.901   5.906   6.605  1.1151  0.4807  0.3037
  900MOL0     H24166   8.096   5.858   6.743  1.4757 -4.2553 -1.1822
  900MOL0     H24167   7.996   5.846   6.881  0.6428  0.6834 -0.9339
  900MOL0     H24168   7.984   5.651   6.648 -0.1871  1.7292  0.2316
  900MOL0     H24169   7.883   5.640   6.799 -0.0799 -1.6963 -0.3009
  900MOL0     H24170   8.081   5.650   6.935 -1.5675  0.0016  0.1159
  900MOL0     H24171   8.175   5.629   6.785  0.7248 -0.3311  1.2396
  900MOL0     H24172   7.968   5.423   6.873 -0.2274 -0.8249 -1.8716
  900MOL0     H24173   8.089   5.418   6.736 -0.5184  1.4562 -0.1015
  900MOL0     H24174   8.278   5.417   6.877 -0.3970 -1.9929 -0.7118
  900MOL0     H24175   8.160   5.280   6.910 -1.7408 -0.4262  2.7706
  900MOL0     H24176   8.088   5.456   7.099 -0.9155 -0.8550 -1.5575
  900MOL0     H24177   8.251   5.512   7.091 -1.9113  1.0752  1.0648
  900MOL0     H24178   8.335   5.297   7.133 -0.3818 -1.8177  0.8413
  900MOL0     H24179   8.178   5.207   7.121 -0.7446 -0.4245  0.9740
  900MOL0     H24180   7.778   6.269   6.810 -4.1138  1.7752 -0.8199
  900MOL0     H24181   7.671   6.352   7.007 -0.7580 -0.0611 -0.8130
  900MOL0     H24182   7.623   6.396   7.364  0.0846  1.3062  0.3180
  900MOL0     H24183   7.517   6.578   7.474 -4.1245  1.8640 -0.1032
  900MOL0     H24184   6.251   6.906   8.307 -0.1591 -0.1446 -1.6112
  900MOL0     H24185   6.464   6.849   8.423  2.0150 -1.3742  0.8451
  900MOL0     H24186   6.712   6.388   8.396 -1.5709  0.3249  0.8441
  900MOL0     H24187   6.898   6.234   8.468 -0.7418 -0.8047  0.7071
  900MOL0     H24188   7.275   6.398   8.591  2.0864 -1.5602 -0.0433
  900MOL0     H24189   7.209   6.428   8.754 -1.4661 -3.1713  1.6817
  900MOL0     H24190   7.291   6.150   8.665 -0.0019 -1.7769  1.9879
  900MOL0     H24191   7.261   6.210   8.824 -1.6167 -1.1639 -0.9731
  900MOL0     H24192   7.509   6.197   8.740  0.1389  0.6185 -0.4765
  900MOL0     H24193   7.477   6.321   8.622  1.6413  0.0299  0.8040
  900MOL0     H24194   7.445   6.350   8.923 -0.0374 -1.2146 -0.2680
  900MOL0     H24195   7.427   6.487   8.806  4.4550  2.7238 -1.9926
  900MOL0     H24196   7.839   6.482   8.858 -0.3688  1.2635  1.4359
  900MOL0     H24197   7.121   6.574   8.609 -0.3100 -0.2979  2.0570
  900MOL0     H24198   7.031   6.794   8.607 -1.7540  1.4089  1.8145
  900MOL0     H24199   6.964   6.815   8.436 -2.6916  0.7572  0.5168
  900MOL0     H24200   6.862   6.807   8.581 -0.0700 -1.2787 -0.1276
  901MOL0     O24201  11.217   8.683  11.016  0.0743  0.5610  0.1054
  901MOL0     C24202  11.285   8.690  10.921  0.0104  0.0253  0.6283
  901MOL0     O24203  11.361   8.591  10.865  0.4337  0.6740  0.6368
  901MOL0     C24204  11.411   8.486  10.932 -0.9610  0.5505 -0.3441
  901MOL0     C24205  11.336   8.401  11.012 -1.3268  0.1915  0.1441
  901MOL0     C24206  11.398   8.309  11.098 -0.1565  0.0682  0.6478
  901MOL0     C24207  11.534   8.302  11.103 -0.4817  0.7353 -0.8091
  901MOL0     O24208  11.597   8.209  11.193  0.3713 -0.6275  0.5947
  901MOL0     C24209  11.706   8.258  11.263 -0.1404 -0.5076 -0.6788
  901MOL0     C24210  11.772   8.149  11.345 -0.4850 -1.0177  0.2560
  901MOL0     C24211  11.847   8.201  11.464  0.2741 -0.4008 -0.3653
  901MOL0     C24212  11.912   8.084  11.539  0.5026 -0.4885 -0.6887
  901MOL0     C24213  11.972   8.119  11.678  0.0413 -0.0872 -0.1860
  901MOL0     C24214  11.986   7.995  11.764  0.8537 -0.0004  0.0562
  901MOL0     C24215  12.013   8.039  11.915 -0.3175  0.6236 -0.2488
  901MOL0     C24216  12.160   8.016  11.947  0.0177 -1.2144  0.2723
  901MOL0     N24217  12.228   8.128  11.875 -0.1052  0.5315 -0.4606
  901MOL0     C24218  12.238   8.266  11.908  0.1983  0.6085 -0.6989
  901MOL0     C24219  12.334   8.323  11.833  1.0702  0.1667  0.3889
  901MOL0     C24220  12.392   8.464  11.848 -0.0893  0.1053 -0.3694
  901MOL0     C24221  12.515   8.465  11.939 -0.0119 -0.0356  0.2144
  901MOL0     C24222  12.570   8.606  11.946  0.1545  0.6330 -0.4470
  901MOL0     C24223  12.507   8.704  12.052  0.0886 -0.7913 -0.2796
  901MOL0     O24224  12.586   8.833  12.056 -0.6021  0.6612 -0.5723
  901MOL0     C24225  12.715   8.831  12.099  0.7965  0.4538  0.2924
  901MOL0     C24226  12.808   8.913  12.038 -0.2635  0.9112 -0.0276
  901MOL0     C24227  12.940   8.926  12.084 -0.1927  0.7073  0.4735
  901MOL0     C24228  13.026   9.019  12.015  1.2099 -1.4900 -0.1043
  901MOL0     C24229  12.979   8.844  12.199  0.0589 -0.5998 -0.1833
  901MOL0     C24230  13.119   8.833  12.255  0.5109 -1.2756  0.3268
  901MOL0     O24231  13.152   8.736  12.348  0.5686  0.3004  0.8196
  901MOL0     C24232  13.282   8.685  12.345 -0.3175 -0.3300 -0.1353
  901MOL0     C24233  13.382   8.689  12.239 -0.0855 -0.5642  0.1574
  901MOL0     C24234  13.513   8.641  12.260  0.4595  0.3719  0.9446
  901MOL0     C24235  13.545   8.578  12.382 -0.7026  0.7243 -0.7370
  901MOL0     O24236  13.664   8.516  12.410 -0.2565  0.2414 -0.0946
  901MOL0     C24237  13.779   8.595  12.382 -0.2719 -0.3307 -0.8799
  901MOL0     C24238  13.898   8.544  12.472 -0.5323  0.0445  0.5855
  901MOL0     C24239  14.014   8.633  12.445 -0.5545  0.1560  0.6230
  901MOL0     C24240  14.134   8.593  12.536  0.1405 -0.1938  0.1450
  901MOL0     C24241  14.244   8.685  12.519 -1.4396 -0.1361 -0.1085
  901MOL0     C24242  14.338   8.634  12.415 -0.3202 -0.2485  1.1658
  901MOL0     C24243  14.451   8.736  12.397 -0.8022  0.5846  0.3435
  901MOL0     C24244  14.552   8.687  12.289 -0.0975 -0.2068 -0.2339
  901MOL0    Cl24245  14.633   8.524  12.335 -0.3797 -0.2682  0.1222
  901MOL0     C24246  13.444   8.561  12.476  0.5865 -0.7944  0.4195
  901MOL0     C24247  13.315   8.623  12.462 -0.4866  0.0307  0.4606
  901MOL0     O24248  13.189   8.930  12.227 -0.1191 -0.1253  0.2677
  901MOL0     C24249  12.876   8.763  12.257  0.2960 -0.2894 -0.2178
  901MOL0     C24250  12.756   8.756  12.209  0.0716 -0.8466  1.1765
  901MOL0     N24251  12.357   8.233  11.732  0.4021  0.2942 -0.0157
  901MOL0     N24252  12.306   8.111  11.764 -0.3051  0.4737  0.2263
  901MOL0     C24253  11.611   8.376  11.010  0.3363  0.2058 -0.0724
  901MOL0     C24254  11.546   8.474  10.932  0.2591  0.2587 -0.6209
  901MOL0     C24255  11.307   8.821  10.867  0.6182  0.1334  0.2007
  901MOL0     C24256  11.429   8.845  10.797  0.0625  0.5116  0.2948
  901MOL0     C24257  11.462   8.969  10.738 -0.5553  0.2122 -0.3409
  901MOL0     C24258  11.365   9.063  10.739 -0.1089 -1.0900  0.3105
  901MOL0     O24259  11.382   9.182  10.670 -0.1420  0.0155 -0.1496
  901MOL0     C24260  11.509   9.216  10.594  0.5932 -0.0414 -0.3380
  901MOL0     C24261  11.523   9.365  10.577 -0.0646 -0.5079  0.9932
  901MOL0     C24262  11.421   9.415  10.477  0.8928 -0.5264 -0.5853
  901MOL0     C24263  11.459   9.561  10.434 -0.1361  0.1707  0.1887
  901MOL0     C24264  11.346   9.622  10.361  0.2844 -0.6187  0.1687
  901MOL0     C24265  11.249   9.673  10.315  0.1641 -0.4534  1.4019
  901MOL0     C24266  11.239   9.048  10.800 -0.5947 -0.4162  0.6262
  901MOL0     C24267  11.213   8.927  10.861  0.3314  0.5923  0.6377
  901MOL0     C24268  11.077   8.922  10.935  0.1434 -0.0767  0.1731
  901MOL0     H24269  11.230   8.422  11.022 -1.1534  0.3155  2.0862
  901MOL0     H24270  11.344   8.259  11.178 -2.2536  0.5054 -0.4241
  901MOL0     H24271  11.685   8.342  11.331  0.8672  1.1031 -2.2629
  901MOL0     H24272  11.784   8.301  11.199 -2.0965  3.5688 -0.6449
  901MOL0     H24273  11.693   8.079  11.372 -1.2044  0.1312  1.2304
  901MOL0     H24274  11.837   8.110  11.266  0.9738  2.6860 -0.5903
  901MOL0     H24275  11.930   8.269  11.440 -0.0786  0.1580 -0.0369
  901MOL0     H24276  11.784   8.263  11.529  1.2018 -1.3503  1.5262
  901MOL0     H24277  11.836   8.006  11.544 -0.9985  0.8903 -1.0251
  901MOL0     H24278  11.995   8.052  11.475 -0.0297 -1.9488 -0.6731
  901MOL0     H24279  11.897   8.185  11.722 -1.6634  0.5206 -3.6745
  901MOL0     H24280  12.071   8.164  11.660 -0.2365 -0.2465 -2.4599
  901MOL0     H24281  11.889   7.945  11.774  0.0113  1.3264 -1.0025
  901MOL0     H24282  12.059   7.925  11.724  2.5667  1.3722  0.6693
  901MOL0     H24283  11.954   7.975  11.981 -2.2851 -0.3881 -2.8335
  901MOL0     H24284  11.964   8.134  11.939 -0.2253  0.3427  1.1353
  901MOL0     H24285  12.181   8.038  12.052 -0.4735  3.6989 -0.4524
  901MOL0     H24286  12.196   7.914  11.930  0.6874 -0.8831 -0.3815
  901MOL0     H24287  12.194   8.320  11.991 -1.2216 -2.6984  0.9012
  901MOL0     H24288  12.302   8.517  11.882 -0.4390  0.6416 -2.0342
  901MOL0     H24289  12.425   8.508  11.753 -0.5532  1.3916  0.0428
  901MOL0     H24290  12.496   8.428  12.040 -0.1690 -1.5637 -0.3558
  901MOL0     H24291  12.590   8.396  11.900  0.2180 -0.5030  1.4456
  901MOL0     H24292  12.674   8.593  11.978 -0.3876  0.7717  1.5161
  901MOL0     H24293  12.570   8.664  11.853 -1.8717  3.3799  1.1268
  901MOL0     H24294  12.400   8.721  12.037 -0.4045 -2.6945  0.7716
  901MOL0     H24295  12.517   8.660  12.152  0.6970  0.0774  0.0549
  901MOL0     H24296  12.780   8.971  11.951  1.8697 -1.4440 -2.4714
  901MOL0     H24297  12.974   9.057  11.926 -0.6948 -3.5408  0.0287
  901MOL0     H24298  13.113   8.958  11.991  1.3067 -1.2471 -0.3795
  901MOL0     H24299  13.047   9.106  12.077  0.7666 -1.4570  0.0043
  901MOL0     H24300  13.358   8.739  12.146  0.1545 -1.4579 -0.3942
  901MOL0     H24301  13.588   8.684  12.194  0.3411  0.7045  1.0252
  901MOL0     H24302  13.807   8.587  12.277 -1.5690 -0.4964 -1.2351
  901MOL0     H24303  13.752   8.696  12.415 -1.2322 -0.2863 -1.7427
  901MOL0     H24304  13.861   8.567  12.572  0.1724 -1.2401  1.1612
  901MOL0     H24305  13.924   8.439  12.456  1.3268  0.7709 -1.7946
  901MOL0     H24306  13.986   8.738  12.461 -1.1083  0.4250 -1.7503
  901MOL0     H24307  14.042   8.617  12.341  0.4765  0.1408  0.8945
  901MOL0     H24308  14.161   8.488  12.529  0.9976  0.0641 -0.5110
  901MOL0     H24309  14.096   8.609  12.638  0.7092  0.0217  0.3293
  901MOL0     H24310  14.210   8.785  12.493 -0.4031  0.4156  0.6053
  901MOL0     H24311  14.311   8.691  12.605  1.1018 -2.3370 -1.7378
  901MOL0     H24312  14.288   8.625  12.318  0.0883  0.1788  0.9136
  901MOL0     H24313  14.393   8.543  12.442  0.0049 -1.2828 -2.4248
  901MOL0     H24314  14.507   8.745  12.490 -1.8894  1.3332  0.9457
  901MOL0     H24315  14.414   8.837  12.375  0.9942  1.1715 -0.2039
  901MOL0     H24316  14.632   8.761  12.281  0.9638 -0.8588  2.8848
  901MOL0     H24317  14.503   8.679  12.192  1.3081 -0.7248 -0.9247
  901MOL0     H24318  13.466   8.517  12.573  0.4553 -1.6475  0.0695
  901MOL0     H24319  13.226   8.610  12.523 -0.4212 -0.5276  0.4460
  901MOL0     H24320  12.909   8.696  12.335 -1.4540 -2.0958 -0.9336
  901MOL0     H24321  12.687   8.695  12.266 -0.1680 -1.3221  0.3838
  901MOL0     H24322  11.716   8.352  10.997  0.0992 -0.9876  0.0957
  901MOL0     H24323  11.598   8.548  10.872  2.0920 -0.0332  0.5081
  901MOL0     H24324  11.500   8.765  10.779 -1.2755 -0.1683 -2.7007
  901MOL0     H24325  11.554   8.977  10.682 -2.7483 -0.7833 -4.4874
  901MOL0     H24326  11.599   9.202  10.655 -0.1301 -0.0323  0.7600
  901MOL0     H24327  11.520   9.162  10.500  1.9237  2.5381 -1.7818
  901MOL0     H24328  11.623   9.382  10.536 -0.2857  0.6065  0.8971
  901MOL0     H24329  11.511   9.418  10.672  0.5191 -3.8569  3.1048
  901MOL0     H24330  11.403   9.351  10.390  0.3116 -1.7754  0.4238
  901MOL0     H24331  11.322   9.418  10.524  0.9051  1.3457 -0.5877
  901MOL0     H24332  11.545   9.559  10.367  0.9762  2.1466  1.4604
  901MOL0     H24333  11.485   9.614  10.526  3.5836 -0.3424 -0.4333
  901MOL0     H24334  11.166   9.722  10.267  0.6507 -0.7832  0.1841
  901MOL0     H24335  11.167   9.121  10.764  0.9021  0.1042 -1.5253
  901MOL0     H24336  11.020   8.829  10.933 -1.2780  0.6804  2.2274
  901MOL0     H24337  11.090   8.961  11.036 -2.6747 -0.1690  0.6635
  901MOL0     H24338  11.005   8.999  10.908 -1.1387 -1.7024 -1.2573
  902MOL0     O24339  10.928   4.581   4.319  0.2315 -1.0833 -0.6846
  902MOL0     C24340  10.831   4.503   4.318  0.4842 -0.1323  0.0956
  902MOL0     O24341  10.709   4.532   4.259  0.3940 -0.6814  0.4972
  902MOL0     C24342  10.709   4.649   4.183  0.6538  0.5419  0.4897
  902MOL0     C24343  10.650   4.771   4.233 -0.7056  0.5866  0.3638
  902MOL0     C24344  10.629   4.879   4.148 -0.1493 -0.3504  0.2414
  902MOL0     C24345  10.662   4.866   4.008  0.6200 -0.6211 -0.0136
  902MOL0     O24346  10.627   4.977   3.936  0.2910 -0.6578  0.6005
  902MOL0     C24347  10.605   4.965   3.796 -0.6154  0.7678  1.7971
  902MOL0     C24348  10.624   5.103   3.731 -0.0455  1.0738  0.4718
  902MOL0     C24349  10.611   5.099   3.573 -0.1614 -0.0060 -0.2118
  902MOL0     C24350  10.716   5.025   3.487 -0.4754  0.4761 -0.0648
  902MOL0     C24351  10.692   5.040   3.334 -0.5002  0.0793 -0.3281
  902MOL0     C24352  10.581   4.961   3.282  1.1347 -0.2301  0.1468
  902MOL0     C24353  10.605   4.928   3.126  0.2559  0.6126  0.1988
  902MOL0     C24354  10.491   4.829   3.079  0.4447 -1.0380  0.3975
  902MOL0     N24355  10.355   4.894   3.094  0.5130  0.6410 -0.0199
  902MOL0     C24356  10.240   4.825   3.128 -0.4263  0.4910 -0.5760
  902MOL0     C24357  10.143   4.918   3.119 -0.0016  0.5408 -0.4758
  902MOL0     C24358  10.002   4.904   3.166 -0.1827 -0.6418  0.8318
  902MOL0     C24359   9.909   4.864   3.049  0.1581 -0.1401  0.0511
  902MOL0     C24360   9.840   4.729   3.073  0.5168  0.0656  0.3460
  902MOL0     C24361   9.755   4.694   2.948 -0.8328 -0.1831 -0.1777
  902MOL0     O24362   9.636   4.772   2.958  0.1537  0.3998 -0.2536
  902MOL0     C24363   9.532   4.745   2.872  1.0558  0.1651 -0.7416
  902MOL0     C24364   9.406   4.758   2.918 -0.2419 -1.6407 -0.3438
  902MOL0     C24365   9.295   4.720   2.846  0.1746  0.6907  0.6185
  902MOL0     C24366   9.161   4.730   2.911 -0.2783  0.0470  0.2751
  902MOL0     C24367   9.311   4.662   2.718 -0.3746 -0.0113 -0.4589
  902MOL0     C24368   9.212   4.625   2.616  0.5354  0.6934 -0.8865
  902MOL0     O24369   9.240   4.518   2.535  0.1406 -0.1728 -0.2440
  902MOL0     C24370   9.145   4.486   2.442  1.1479  0.3232 -0.1262
  902MOL0     C24371   9.009   4.473   2.473  0.2829  0.1479  0.0268
  902MOL0     C24372   8.919   4.419   2.379  0.3507 -0.2243  0.3689
  902MOL0     C24373   8.963   4.393   2.250 -0.1677  0.7617 -1.0084
  902MOL0     O24374   8.866   4.347   2.169  0.1468  0.1567  0.1260
  902MOL0     C24375   8.905   4.294   2.042  0.3479 -0.6768 -0.1948
  902MOL0     C24376   8.808   4.206   1.980  0.5006 -0.3841  0.8582
  902MOL0     C24377   8.705   4.285   1.906 -0.8692  0.4281  0.8250
  902MOL0     C24378   8.621   4.184   1.819  0.4646  0.3380 -0.4483
  902MOL0     C24379   8.553   4.250   1.702  0.1134 -1.2033  0.3586
  902MOL0     C24380   8.520   4.158   1.586 -0.1606  0.0529  0.2791
  902MOL0     C24381   8.635   4.146   1.487  0.4141 -0.2053  0.1497
  902MOL0     C24382   8.578   4.086   1.355  0.2461 -1.1192 -0.3023
  902MOL0    Cl24383   8.694   4.125   1.237 -0.0153 -0.0302 -0.2005
  902MOL0     C24384   9.098   4.406   2.216 -0.4721  0.2656  0.0583
  902MOL0     C24385   9.189   4.463   2.312 -0.0115  0.0277 -0.1336
  902MOL0     O24386   9.126   4.710   2.601  0.2138 -0.1512 -0.3397
  902MOL0     C24387   9.443   4.648   2.673 -0.9073  0.0431  0.2737
  902MOL0     C24388   9.550   4.694   2.745 -1.0956  0.4143 -0.5765
  902MOL0     N24389  10.184   5.033   3.064 -0.9047 -0.5274  0.3777
  902MOL0     N24390  10.317   5.016   3.052  0.1226 -0.7817 -0.1816
  902MOL0     C24391  10.739   4.754   3.965 -0.8735 -0.6848  0.1278
  902MOL0     C24392  10.757   4.644   4.045  0.0374 -0.1765 -0.2901
  902MOL0     C24393  10.839   4.371   4.390 -0.2049 -0.6118 -0.0478
  902MOL0     C24394  10.731   4.326   4.471 -0.1045 -0.5845  0.2166
  902MOL0     C24395  10.740   4.211   4.547  0.0681  0.6726 -0.0046
  902MOL0     C24396  10.857   4.129   4.552  0.3457 -0.1097 -1.1190
  902MOL0     O24397  10.868   4.018   4.632 -0.8932  0.4159  0.3850
  902MOL0     C24398  10.838   4.035   4.771 -0.4465 -0.5993  1.2836
  902MOL0     C24399  10.976   4.030   4.837  0.3166 -0.5323  0.2898
  902MOL0     C24400  11.053   3.898   4.803 -0.2612 -0.6708 -0.6414
  902MOL0     C24401  11.149   3.853   4.910 -0.1042  0.3182 -0.0760
  902MOL0     C24402  11.201   3.717   4.870  0.5951  0.4475  1.0165
  902MOL0     C24403  11.239   3.612   4.837 -0.6936  1.0594  0.5115
  902MOL0     C24404  10.966   4.166   4.470  0.5026  0.5331 -0.5621
  902MOL0     C24405  10.954   4.283   4.385  1.0432 -0.2836  0.6369
  902MOL0     C24406  11.067   4.321   4.291 -0.4158 -0.1789 -0.9259
  902MOL0     H24407  10.614   4.776   4.336  1.1292 -0.8173  1.1219
  902MOL0     H24408  10.570   4.958   4.196 -2.9928 -2.9661  1.4352
  902MOL0     H24409  10.511   4.918   3.765  0.6305 -0.4110 -0.4824
  902MOL0     H24410  10.680   4.900   3.751 -2.1540 -0.4476  0.8700
  902MOL0     H24411  10.550   5.174   3.768 -0.5768  1.4515 -1.2624
  902MOL0     H24412  10.721   5.130   3.774 -0.2053  1.8939  0.3231
  902MOL0     H24413  10.511   5.072   3.538  0.8159 -4.4890 -0.1056
  902MOL0     H24414  10.636   5.204   3.551  0.5465 -0.4506 -1.6201
  902MOL0     H24415  10.818   5.046   3.517 -0.7091  0.1204  1.0135
  902MOL0     H24416  10.712   4.921   3.521 -1.3319  0.5427  0.0748
  902MOL0     H24417  10.780   5.003   3.280 -0.9495  2.7648 -3.1712
  902MOL0     H24418  10.685   5.149   3.330  0.9404  0.1977 -0.4296
  902MOL0     H24419  10.589   4.864   3.332  0.8290 -0.0316  0.5735
  902MOL0     H24420  10.484   5.000   3.311  1.3487 -1.1125  2.1843
  902MOL0     H24421  10.707   4.898   3.101  1.8737  4.4242  1.4034
  902MOL0     H24422  10.607   5.019   3.064  0.6138 -0.8719 -2.0976
  902MOL0     H24423  10.511   4.805   2.974  1.1024  1.1776 -0.0294
  902MOL0     H24424  10.490   4.734   3.134 -0.4480 -1.8406 -0.9486
  902MOL0     H24425  10.230   4.719   3.149 -0.2862  0.6613  0.3748
  902MOL0     H24426   9.970   4.999   3.210  1.6272  0.3210  0.1657
  902MOL0     H24427   9.973   4.830   3.241 -0.1855 -0.6798  0.7938
  902MOL0     H24428   9.825   4.934   3.041  0.8404  1.0221  2.2318
  902MOL0     H24429   9.957   4.871   2.951 -2.0931  5.5362 -1.0468
  902MOL0     H24430   9.915   4.654   3.100 -0.3780 -2.1447 -2.7563
  902MOL0     H24431   9.769   4.733   3.157 -2.7085 -1.0716 -2.0995
  902MOL0     H24432   9.807   4.718   2.855  0.0952 -2.1146 -0.1918
  902MOL0     H24433   9.737   4.586   2.948 -0.6068 -0.4124 -4.7793
  902MOL0     H24434   9.392   4.796   3.019 -1.4163 -1.7197 -0.4555
  902MOL0     H24435   9.158   4.715   3.020 -0.2620 -0.3880  0.2167
  902MOL0     H24436   9.092   4.654   2.874  0.1202 -0.5169  0.6724
  902MOL0     H24437   9.116   4.829   2.898 -1.4403 -0.5321 -0.1998
  902MOL0     H24438   8.977   4.512   2.569  1.5918 -0.6284  0.8022
  902MOL0     H24439   8.813   4.406   2.400 -0.6132  1.3035 -2.9429
  902MOL0     H24440   8.924   4.382   1.979  0.4392  2.3880  3.6950
  902MOL0     H24441   8.993   4.229   2.051 -0.3671 -1.8709 -1.4016
  902MOL0     H24442   8.852   4.135   1.909  0.6251 -1.1035  1.6354
  902MOL0     H24443   8.752   4.147   2.053  0.6761 -0.4881  0.9090
  902MOL0     H24444   8.761   4.349   1.837  0.3809 -0.4290  1.0040
  902MOL0     H24445   8.639   4.344   1.971 -3.0198  0.5162 -1.3166
  902MOL0     H24446   8.554   4.126   1.884 -0.2548 -0.4347 -1.8292
  902MOL0     H24447   8.693   4.116   1.774  0.7676  1.1211 -1.1654
  902MOL0     H24448   8.466   4.299   1.746  1.3285  1.7018 -0.2102
  902MOL0     H24449   8.619   4.335   1.681 -2.4114  1.5280  2.5621
  902MOL0     H24450   8.434   4.202   1.535  1.8063  3.9473 -0.0868
  902MOL0     H24451   8.497   4.057   1.621  2.7850  0.1693  3.0793
  902MOL0     H24452   8.707   4.068   1.515  1.2473  0.6210  0.3753
  902MOL0     H24453   8.688   4.240   1.468 -2.9990  2.0137  0.7276
  902MOL0     H24454   8.490   4.144   1.327  0.8934 -0.8980 -1.9678
  902MOL0     H24455   8.571   3.977   1.359  1.1895 -1.1958 -0.3982
  902MOL0     H24456   9.139   4.372   2.121 -1.6073 -2.1092  0.3628
  902MOL0     H24457   9.294   4.475   2.290 -0.0944 -1.1632 -1.3048
  902MOL0     H24458   9.464   4.617   2.571  2.6439 -0.7486  1.1364
  902MOL0     H24459   9.650   4.687   2.703 -1.2366 -1.6972 -0.7121
  902MOL0     H24460  10.788   4.750   3.868  2.3083  2.1114  1.4155
  902MOL0     H24461  10.793   4.551   4.002  0.2167 -0.1146 -0.2742
  902MOL0     H24462  10.643   4.386   4.493 -0.8194 -1.4747 -0.1227
  902MOL0     H24463  10.648   4.180   4.595 -2.1814 -1.2394 -4.9241
  902MOL0     H24464  10.788   4.128   4.798 -0.3293 -0.1742  0.0973
  902MOL0     H24465  10.773   3.951   4.798  0.1116 -1.4317  0.1483
  902MOL0     H24466  10.949   4.028   4.943 -0.8039 -1.5477  0.0146
  902MOL0     H24467  11.029   4.122   4.812 -0.1265 -1.0431 -3.0398
  902MOL0     H24468  10.976   3.820   4.797 -2.1786  1.0604 -0.0207
  902MOL0     H24469  11.101   3.912   4.706  1.7689 -0.5516  0.3329
  902MOL0     H24470  11.091   3.847   5.002  0.2478  0.1084  0.1321
  902MOL0     H24471  11.242   3.910   4.922  2.1252 -3.0200  0.0324
  902MOL0     H24472  11.273   3.513   4.815  1.9747  1.0996  3.6679
  902MOL0     H24473  11.061   4.114   4.467  0.5515  0.5281  0.7881
  902MOL0     H24474  11.139   4.239   4.292 -0.8677 -0.5830 -0.2190
  902MOL0     H24475  11.043   4.347   4.188 -0.8134 -0.2933 -0.8664
  902MOL0     H24476  11.119   4.403   4.341 -1.0700  0.4002 -1.1913
  903MOL0     O24477   5.611  10.150   3.432  0.0940  0.4831  0.2762
  903MOL0     C24478   5.508  10.166   3.371 -0.0520 -0.1442 -0.7585
  903MOL0     O24479   5.399  10.215   3.432  0.4539  0.4601  0.0478
  903MOL0     C24480   5.390  10.236   3.572 -0.6212 -0.9909  0.3049
  903MOL0     C24481   5.304  10.342   3.610  0.3440  0.1241  0.7186
  903MOL0     C24482   5.295  10.380   3.746  0.2968 -0.0772 -0.3067
  903MOL0     C24483   5.358  10.314   3.847  0.0228 -0.5701 -0.5580
  903MOL0     O24484   5.345  10.365   3.978  0.6699 -0.3071  0.3238
  903MOL0     C24485   5.414  10.299   4.085  0.2413 -0.2439 -0.5327
  903MOL0     C24486   5.348  10.159   4.119 -1.0387 -1.5808 -1.0791
  903MOL0     C24487   5.210  10.186   4.178  0.5114  0.8439  0.0864
  903MOL0     C24488   5.127  10.057   4.217 -0.0933  0.2656  0.8914
  903MOL0     C24489   5.003  10.096   4.302 -0.1198  0.1958  0.6718
  903MOL0     C24490   4.916  10.196   4.217 -0.1100 -0.5139  0.0011
  903MOL0     C24491   4.770  10.181   4.271 -0.7346 -0.5481 -0.5691
  903MOL0     C24492   4.691  10.307   4.232 -0.1347  0.2181  0.5032
  903MOL0     N24493   4.564  10.286   4.294  0.0884  0.1245  0.4672
  903MOL0     C24494   4.450  10.266   4.217  1.3511  0.2785  0.4159
  903MOL0     C24495   4.351  10.261   4.310  0.5914 -0.1310  0.6901
  903MOL0     C24496   4.208  10.230   4.277  0.1934  0.3221 -0.5441
  903MOL0     C24497   4.124  10.338   4.215  0.9154  0.2743  0.5532
  903MOL0     C24498   4.085  10.465   4.294 -0.0381 -0.5987 -0.2014
  903MOL0     C24499   4.197  10.540   4.356 -0.9095 -0.2085 -1.0079
  903MOL0     O24500   4.157  10.666   4.398  0.4337 -1.3437  0.3817
  903MOL0     C24501   4.238  10.760   4.459 -0.2383  0.8164  0.6574
  903MOL0     C24502   4.370  10.727   4.488 -1.1380 -0.2938  0.8232
  903MOL0     C24503   4.452  10.807   4.575  0.6621  0.5098  0.0176
  903MOL0     C24504   4.574  10.736   4.625 -0.2617 -0.2143  0.1381
  903MOL0     C24505   4.402  10.937   4.608 -1.1159  0.0389  0.1866
  903MOL0     C24506   4.478  11.041   4.673 -0.5855  0.5133  0.1766
  903MOL0     O24507   4.411  11.105   4.771  0.0938  0.2949  0.4940
  903MOL0     C24508   4.466  11.192   4.863 -0.3779  0.1843  0.3823
  903MOL0     C24509   4.378  11.228   4.962 -0.0558  0.2979  0.4816
  903MOL0     C24510   4.419  11.329   5.054  0.0109  0.6044 -0.0944
  903MOL0     C24511   4.541  11.381   5.066  0.9983 -0.3126 -0.4867
  903MOL0     O24512   4.572  11.469   5.168 -0.1085  0.7994 -0.0008
  903MOL0     C24513   4.670  11.563   5.153 -0.0378 -0.7144 -0.0699
  903MOL0     C24514   4.796  11.518   5.208 -0.5557  0.3692 -1.1942
  903MOL0     C24515   4.876  11.635   5.273  0.0615 -0.2359 -0.4021
  903MOL0     C24516   5.020  11.595   5.285 -0.1163  0.5886  0.2221
  903MOL0     C24517   5.098  11.713   5.347 -0.3146 -0.6318 -0.5221
  903MOL0     C24518   5.250  11.703   5.322 -0.1540  0.8406 -0.2545
  903MOL0     C24519   5.322  11.833   5.367  0.0126  0.7839  0.0389
  903MOL0     C24520   5.318  11.858   5.519  0.6086 -0.1966 -0.0631
  903MOL0    Cl24521   5.364  11.702   5.599  0.0658 -0.3337 -0.8241
  903MOL0     C24522   4.626  11.351   4.955 -0.0416  0.1327 -0.5988
  903MOL0     C24523   4.587  11.268   4.853  0.1967  0.6475 -0.5259
  903MOL0     O24524   4.599  11.054   4.644  0.8270 -0.4087 -0.2289
  903MOL0     C24525   4.272  10.972   4.564  0.6058  0.2007  0.1929
  903MOL0     C24526   4.195  10.886   4.495  0.5051  0.8397  0.1449
  903MOL0     N24527   4.402  10.293   4.436  0.6136  0.9044  0.1338
  903MOL0     N24528   4.527  10.312   4.423 -0.1111  0.5151  0.4785
  903MOL0     C24529   5.448  10.206   3.813  0.2044 -0.4199  0.4414
  903MOL0     C24530   5.461  10.171   3.678  0.8644  1.2981  0.5756
  903MOL0     C24531   5.500  10.132   3.227 -0.2968  0.7387 -0.0966
  903MOL0     C24532   5.399  10.192   3.155  0.5064 -0.5253  0.2214
  903MOL0     C24533   5.405  10.180   3.011  0.1254  0.0055 -0.8149
  903MOL0     C24534   5.490  10.090   2.947  0.6960 -0.8246 -0.2964
  903MOL0     O24535   5.494  10.083   2.815 -0.0882 -0.1724  0.7447
  903MOL0     C24536   5.380  10.008   2.763  1.0489 -0.1183 -0.0333
  903MOL0     C24537   5.374  10.023   2.609 -0.1973 -0.0552 -0.2106
  903MOL0     C24538   5.277   9.932   2.542 -0.2947  0.5338 -0.2307
  903MOL0     C24539   5.252   9.983   2.401  0.4967  0.3945  0.2781
  903MOL0     C24540   5.117   9.953   2.360 -0.3654 -0.6523 -0.2840
  903MOL0     C24541   5.001   9.934   2.333  0.1931  0.4869  0.1107
  903MOL0     C24542   5.576  10.017   3.024  0.7853 -0.0703 -1.3554
  903MOL0     C24543   5.595  10.049   3.158  0.8837 -0.0072 -0.4296
  903MOL0     C24544   5.709   9.965   3.212 -1.0886 -0.2954 -0.0794
  903MOL0     H24545   5.244  10.396   3.537 -1.0576 -2.4064 -0.1111
  903MOL0     H24546   5.225  10.460   3.768 -1.1916 -1.3770 -0.1770
  903MOL0     H24547   5.410  10.363   4.174  1.6300  1.6247 -1.7140
  903MOL0     H24548   5.519  10.278   4.064  0.8631  1.4524  0.6236
  903MOL0     H24549   5.351  10.095   4.030  1.2795  1.1937 -3.1751
  903MOL0     H24550   5.405  10.110   4.199  0.1505  0.8768 -0.3109
  903MOL0     H24551   5.224  10.242   4.271 -3.7055  0.8134  0.9422
  903MOL0     H24552   5.145  10.245   4.112 -0.1766 -0.1742 -0.1776
  903MOL0     H24553   5.109  10.007   4.122  3.0291  3.2463 -1.5240
  903MOL0     H24554   5.187   9.993   4.282  1.0053 -0.1651 -0.4993
  903MOL0     H24555   5.042  10.129   4.399  1.4411 -0.7219  0.3743
  903MOL0     H24556   4.942  10.008   4.324 -1.1637  1.2264  2.1583
  903MOL0     H24557   4.958  10.297   4.224  1.4116 -1.1589  0.6084
  903MOL0     H24558   4.916  10.175   4.109 -2.0840  2.6539 -0.7620
  903MOL0     H24559   4.763  10.172   4.380  0.2516  0.6401 -0.3879
  903MOL0     H24560   4.740  10.084   4.231 -1.3841 -0.4728 -0.2835
  903MOL0     H24561   4.751  10.385   4.280  0.2869 -1.2990  2.5769
  903MOL0     H24562   4.675  10.324   4.125  1.2906  2.2910  0.5648
  903MOL0     H24563   4.451  10.229   4.115 -0.3652 -0.9565  0.8037
  903MOL0     H24564   4.155  10.197   4.367  1.6334 -1.4913 -0.2767
  903MOL0     H24565   4.208  10.137   4.219 -3.2143  1.0610 -1.9802
  903MOL0     H24566   4.165  10.357   4.116 -1.6030  0.1782 -0.5968
  903MOL0     H24567   4.031  10.283   4.200  0.9941 -0.4296  2.3517
  903MOL0     H24568   4.032  10.532   4.225  1.3033  0.9738  0.2305
  903MOL0     H24569   4.019  10.436   4.377  0.1149  0.4500  0.3054
  903MOL0     H24570   4.228  10.483   4.443 -0.3066 -1.7018 -2.1554
  903MOL0     H24571   4.274  10.535   4.279  0.4340 -1.3977  0.3550
  903MOL0     H24572   4.409  10.640   4.438 -0.5993  0.8903 -0.9056
  903MOL0     H24573   4.654  10.735   4.550  0.1712 -0.7307  0.5938
  903MOL0     H24574   4.556  10.632   4.656  0.7475 -0.4614 -0.0843
  903MOL0     H24575   4.614  10.783   4.715 -2.3293  0.1400  0.9309
  903MOL0     H24576   4.282  11.179   4.972  0.7708 -2.0951 -1.9020
  903MOL0     H24577   4.348  11.358   5.131 -0.2371 -2.1687  0.8324
  903MOL0     H24578   4.681  11.598   5.050 -0.4277 -0.5717 -0.0645
  903MOL0     H24579   4.628  11.646   5.211 -1.7373 -1.1498 -0.6220
  903MOL0     H24580   4.787  11.440   5.284 -0.3345 -0.6726 -2.2099
  903MOL0     H24581   4.853  11.476   5.124  0.0441  1.0137 -1.1188
  903MOL0     H24582   4.836  11.684   5.362  1.6740  1.0392 -0.3238
  903MOL0     H24583   4.880  11.711   5.195  0.2825  0.0255 -0.1398
  903MOL0     H24584   5.059  11.571   5.186  0.8216  1.2257  0.4218
  903MOL0     H24585   5.026  11.508   5.352  2.0767  1.9488  1.9491
  903MOL0     H24586   5.067  11.811   5.309  0.4235 -1.0476 -2.3169
  903MOL0     H24587   5.084  11.707   5.455 -1.2632  0.0457 -0.5945
  903MOL0     H24588   5.266  11.691   5.214 -1.4634  1.6350 -0.5555
  903MOL0     H24589   5.292  11.611   5.364  3.2673  1.8768 -1.1098
  903MOL0     H24590   5.282  11.921   5.315 -0.6249 -0.0663 -0.9493
  903MOL0     H24591   5.429  11.815   5.350 -0.3785 -0.3257 -1.4304
  903MOL0     H24592   5.216  11.893   5.537 -0.8778 -3.2170 -1.9749
  903MOL0     H24593   5.395  11.934   5.537  2.3594 -1.6916 -0.8621
  903MOL0     H24594   4.725  11.394   4.945  0.1823 -0.7933 -2.8406
  903MOL0     H24595   4.657  11.271   4.770  0.2562 -0.0575 -0.5052
  903MOL0     H24596   4.219  11.066   4.576 -1.1961 -0.8918  1.2204
  903MOL0     H24597   4.096  10.918   4.465 -0.0183 -0.9037 -0.0888
  903MOL0     H24598   5.513  10.155   3.884 -0.5958 -1.3282  0.5376
  903MOL0     H24599   5.541  10.098   3.671 -0.7273 -0.3973 -1.1434
  903MOL0     H24600   5.336  10.275   3.187  0.9167 -0.2099  0.2214
  903MOL0     H24601   5.338  10.244   2.954  1.3157 -0.6704 -3.1067
  903MOL0     H24602   5.393   9.900   2.781  1.9794 -0.0001  0.0162
  903MOL0     H24603   5.287  10.039   2.811 -0.3926 -1.8080 -1.5664
  903MOL0     H24604   5.478  10.022   2.576 -0.0708  0.9390  0.1374
  903MOL0     H24605   5.361  10.128   2.581  1.5397  0.2419  0.0284
  903MOL0     H24606   5.305   9.826   2.544  1.0239  0.8280 -1.5227
  903MOL0     H24607   5.183   9.936   2.598  0.5360 -1.6184  1.4647
  903MOL0     H24608   5.317   9.939   2.325 -1.9192 -2.9642 -0.0777
  903MOL0     H24609   5.263  10.091   2.413  2.4098  0.0328  2.7307
  903MOL0     H24610   4.899   9.918   2.306  0.7830  0.2858 -2.1888
  903MOL0     H24611   5.650   9.949   2.984  0.6771 -2.0526  1.4557
  903MOL0     H24612   5.765  10.018   3.290  1.7942 -0.7529 -1.6594
  903MOL0     H24613   5.667   9.872   3.249  0.1133 -0.8050  0.0533
  903MOL0     H24614   5.784   9.937   3.137  2.2192  0.8077  2.5323
  904MOL0     O24615   8.182   5.852   1.576  1.4506 -0.2873  0.7187
  904MOL0     C24616   8.222   5.823   1.689  0.1885 -1.0731  0.1336
  904MOL0     O24617   8.170   5.722   1.766  0.7299  0.3388 -0.2273
  904MOL0     C24618   8.056   5.657   1.725 -0.6458 -0.3978  1.2734
  904MOL0     C24619   8.020   5.616   1.599  0.9218 -0.2084  0.0041
  904MOL0     C24620   7.893   5.549   1.588 -0.2213  0.3085  0.1992
  904MOL0     C24621   7.809   5.525   1.691  0.1620 -0.4217 -0.2300
  904MOL0     O24622   7.685   5.462   1.686  0.2373 -0.5156  0.3033
  904MOL0     C24623   7.604   5.475   1.574  1.1119  0.6246 -0.2949
  904MOL0     C24624   7.474   5.521   1.621  0.6457 -0.4558  0.0390
  904MOL0     C24625   7.405   5.448   1.732  0.0984 -0.3523 -0.8239
  904MOL0     C24626   7.380   5.300   1.704  0.3359  0.2474  0.0106
  904MOL0     C24627   7.288   5.221   1.803  0.1306 -0.3987 -0.9326
  904MOL0     C24628   7.268   5.081   1.745  0.3555  0.1527 -0.2258
  904MOL0     C24629   7.180   4.990   1.842  0.0199 -0.3215  0.2276
  904MOL0     C24630   7.032   4.981   1.806  1.0465  0.1432  1.2490
  904MOL0     N24631   6.993   4.922   1.674  0.2852 -0.0655  0.0068
  904MOL0     C24632   7.078   4.845   1.595  0.2108  0.4980 -0.0901
  904MOL0     C24633   6.996   4.788   1.502  0.5300 -0.8939  0.2622
  904MOL0     C24634   7.023   4.675   1.398 -0.5381  0.3768  0.0427
  904MOL0     C24635   6.977   4.536   1.445 -0.6718  0.8297  0.0569
  904MOL0     C24636   6.821   4.524   1.485  0.1146  0.1163 -0.6596
  904MOL0     C24637   6.721   4.543   1.370  0.0148 -0.0189 -0.2710
  904MOL0     O24638   6.746   4.453   1.264 -0.3184 -0.1287 -0.1642
  904MOL0     C24639   6.634   4.394   1.219 -0.5382  0.7781 -0.1935
  904MOL0     C24640   6.587   4.423   1.094  0.7032 -0.1003 -0.3614
  904MOL0     C24641   6.474   4.357   1.033 -0.2248  0.0121 -0.6802
  904MOL0     C24642   6.436   4.399   0.891 -0.3883  0.3522  1.2229
  904MOL0     C24643   6.404   4.259   1.109  0.3701 -0.6296  1.0469
  904MOL0     C24644   6.296   4.174   1.052  0.7319 -0.3067  0.2280
  904MOL0     O24645   6.253   4.073   1.139  0.2244 -0.1559 -0.7814
  904MOL0     C24646   6.147   3.994   1.101  0.2556 -0.3120 -0.2602
  904MOL0     C24647   6.037   3.986   1.194  0.2263 -0.5174  0.7902
  904MOL0     C24648   5.920   3.919   1.157 -0.2643 -0.2310 -0.2761
  904MOL0     C24649   5.925   3.843   1.039  0.1087  0.7871  0.0707
  904MOL0     O24650   5.813   3.778   0.987 -0.2548 -0.7525 -0.9574
  904MOL0     C24651   5.681   3.818   1.036 -0.0165  0.0908 -0.0999
  904MOL0     C24652   5.571   3.792   0.928 -0.8101  0.2936  0.2571
  904MOL0     C24653   5.562   3.643   0.906  0.5340  0.3158 -0.0698
  904MOL0     C24654   5.433   3.597   0.830  0.6534  0.5774 -0.7891
  904MOL0     C24655   5.384   3.685   0.707  0.1876  0.1790 -0.6707
  904MOL0     C24656   5.249   3.615   0.658  0.8292  0.0614  0.7638
  904MOL0     C24657   5.220   3.654   0.518  0.2856 -0.9842  0.0204
  904MOL0     C24658   5.090   3.589   0.459 -0.1951  0.3630  0.2103
  904MOL0    Cl24659   5.114   3.416   0.466  0.7886 -0.2941  0.0567
  904MOL0     C24660   6.040   3.829   0.963  0.6920  0.2359  0.5864
  904MOL0     C24661   6.152   3.905   0.990  0.0016  0.6475  0.4079
  904MOL0     O24662   6.253   4.180   0.937 -0.5162  0.7666  0.3460
  904MOL0     C24663   6.447   4.247   1.244 -0.3628  0.0589  0.0670
  904MOL0     C24664   6.560   4.302   1.298 -0.5249 -0.2120 -0.3128
  904MOL0     N24665   6.876   4.853   1.509  0.5805 -0.5025  0.3300
  904MOL0     N24666   6.876   4.929   1.606  0.2521 -0.2125 -0.3128
  904MOL0     C24667   7.844   5.563   1.818  0.5820  0.0960  0.5153
  904MOL0     C24668   7.973   5.625   1.826  0.4664 -0.9684 -0.0760
  904MOL0     C24669   8.345   5.888   1.726 -0.5578  0.1177 -0.4293
  904MOL0     C24670   8.416   5.952   1.622  0.6732  0.9635  0.1460
  904MOL0     C24671   8.541   6.019   1.637  0.2994  0.0477 -0.6564
  904MOL0     C24672   8.610   6.018   1.761  0.3258 -0.1512 -0.8720
  904MOL0     O24673   8.738   6.063   1.782  1.1105 -0.1643 -0.0158
  904MOL0     C24674   8.821   6.106   1.672 -0.1545 -0.0356  0.3626
  904MOL0     C24675   8.945   6.186   1.720  0.6005 -0.6647  0.2837
  904MOL0     C24676   9.027   6.116   1.830  0.5159 -0.0312 -0.8748
  904MOL0     C24677   9.168   6.175   1.829  0.3207  0.1334 -0.9895
  904MOL0     C24678   9.268   6.109   1.922  0.5753 -0.8047 -0.2785
  904MOL0     C24679   9.324   6.040   1.996  0.3220  0.6322 -0.0824
  904MOL0     C24680   8.542   5.958   1.872  0.4319  0.2653  0.0643
  904MOL0     C24681   8.414   5.899   1.857  0.1934 -0.1762 -0.1792
  904MOL0     C24682   8.352   5.848   1.978 -0.0731 -0.0639 -0.7589
  904MOL0     H24683   8.082   5.636   1.512 -1.2308 -0.9699 -1.7887
  904MOL0     H24684   7.872   5.515   1.487 -0.8323 -2.6546  1.2095
  904MOL0     H24685   7.579   5.385   1.518  0.3346  1.6579 -1.6722
  904MOL0     H24686   7.641   5.559   1.513  2.9979 -1.0285 -1.5305
  904MOL0     H24687   7.498   5.618   1.664 -2.1471 -0.1936  1.1963
  904MOL0     H24688   7.407   5.535   1.535 -0.5959  1.3233  1.2474
  904MOL0     H24689   7.465   5.459   1.823 -1.3104 -1.9231  0.3770
  904MOL0     H24690   7.313   5.504   1.750  0.7969  1.3223 -2.1701
  904MOL0     H24691   7.322   5.302   1.611 -2.0409  1.5110  1.4108
  904MOL0     H24692   7.476   5.250   1.692  0.3835 -0.0212  1.3917
  904MOL0     H24693   7.195   5.278   1.807  1.0089  1.0119  1.7289
  904MOL0     H24694   7.324   5.217   1.906  0.8310  1.9464 -1.0383
  904MOL0     H24695   7.219   5.072   1.648 -0.6469  1.0725  0.1728
  904MOL0     H24696   7.366   5.032   1.746 -0.1825 -1.0032 -1.0166
  904MOL0     H24697   7.197   5.028   1.943  1.6635  0.5799 -0.3368
  904MOL0     H24698   7.226   4.892   1.826  2.7808  0.9020  0.0660
  904MOL0     H24699   6.991   4.916   1.885  1.5248 -1.0874  0.5140
  904MOL0     H24700   6.976   5.074   1.820 -1.6370 -0.9781 -1.0017
  904MOL0     H24701   7.183   4.817   1.600 -0.1547 -0.8021  0.7156
  904MOL0     H24702   7.132   4.677   1.386 -0.6444 -0.7128 -1.4029
  904MOL0     H24703   6.982   4.712   1.304  2.5776 -0.7649 -1.9262
  904MOL0     H24704   6.993   4.467   1.362  0.7500 -0.1008  1.0445
  904MOL0     H24705   7.040   4.498   1.526  1.2753 -0.2192 -1.8511
  904MOL0     H24706   6.802   4.425   1.527 -1.3213  0.9788  0.8496
  904MOL0     H24707   6.799   4.589   1.570 -1.5040  0.3409 -1.2062
  904MOL0     H24708   6.617   4.538   1.403  0.3453  1.5675  1.1113
  904MOL0     H24709   6.728   4.646   1.334  2.7443 -0.0410 -0.0114
  904MOL0     H24710   6.654   4.489   1.039  0.9417  1.1459  1.3365
  904MOL0     H24711   6.494   4.485   0.857 -1.5747  0.9278  0.6155
  904MOL0     H24712   6.328   4.405   0.882 -0.9738 -3.8195  2.9968
  904MOL0     H24713   6.464   4.315   0.826 -3.1720 -1.2778  1.9836
  904MOL0     H24714   6.035   4.050   1.282  1.3132 -0.7569  1.0132
  904MOL0     H24715   5.824   3.927   1.207 -1.2190 -2.2898 -1.6602
  904MOL0     H24716   5.652   3.765   1.127 -1.0180  3.3578  1.6546
  904MOL0     H24717   5.677   3.925   1.057  1.3095 -0.4134  3.6112
  904MOL0     H24718   5.479   3.822   0.979 -1.0985 -0.4856  0.2125
  904MOL0     H24719   5.590   3.849   0.837 -3.4131 -0.8236 -1.0837
  904MOL0     H24720   5.564   3.591   1.003 -5.1936 -1.2141 -0.3712
  904MOL0     H24721   5.646   3.615   0.842 -0.9764 -0.5750 -1.7524
  904MOL0     H24722   5.350   3.595   0.902  1.2826 -1.7490 -0.0691
  904MOL0     H24723   5.451   3.492   0.808  2.0898 -0.0127  2.6161
  904MOL0     H24724   5.367   3.791   0.730  1.1176  0.6026 -1.8436
  904MOL0     H24725   5.470   3.675   0.641  2.8356  2.6939  2.0636
  904MOL0     H24726   5.175   3.656   0.727  0.8624  2.9016 -0.7277
  904MOL0     H24727   5.240   3.507   0.668 -2.2197  0.1914  0.4228
  904MOL0     H24728   5.301   3.649   0.445 -0.7906 -0.8428 -1.2265
  904MOL0     H24729   5.194   3.760   0.519 -1.5721 -1.3713 -1.4636
  904MOL0     H24730   5.071   3.629   0.359  1.3731  1.7100  0.4068
  904MOL0     H24731   5.003   3.619   0.519  1.1927  1.0968  1.9596
  904MOL0     H24732   6.050   3.773   0.870 -2.0083 -2.3275  1.7098
  904MOL0     H24733   6.248   3.894   0.940  1.2985 -3.1809  3.2378
  904MOL0     H24734   6.398   4.172   1.306 -2.4073  0.2352 -1.2545
  904MOL0     H24735   6.576   4.275   1.402  1.7044  1.0155 -0.2690
  904MOL0     H24736   7.782   5.528   1.900 -1.6061 -1.7593 -1.7783
  904MOL0     H24737   8.008   5.653   1.925  0.6098 -0.5832 -0.2331
  904MOL0     H24738   8.383   5.947   1.519 -0.5213 -3.5151  0.5360
  904MOL0     H24739   8.582   6.078   1.555  2.0888 -1.6233 -1.0424
  904MOL0     H24740   8.850   6.018   1.614 -0.5420 -0.5988  1.0096
  904MOL0     H24741   8.755   6.170   1.612  2.2486  0.8692 -1.4542
  904MOL0     H24742   8.930   6.291   1.746  1.4451  0.0890 -2.0252
  904MOL0     H24743   9.004   6.195   1.629 -1.4481 -0.4023 -1.0728
  904MOL0     H24744   8.976   6.141   1.923 -0.3725 -2.2802 -0.6986
  904MOL0     H24745   9.036   6.008   1.815 -0.1084 -0.1343 -0.5283
  904MOL0     H24746   9.159   6.278   1.865 -1.1019 -0.4495  0.4540
  904MOL0     H24747   9.194   6.191   1.724 -3.2806  1.9874 -1.7785
  904MOL0     H24748   9.388   5.981   2.059  0.9411  0.8271 -0.5141
  904MOL0     H24749   8.589   5.946   1.969  3.2133  1.9195 -0.9766
  904MOL0     H24750   8.415   5.868   2.066 -1.3682 -0.2985  0.2517
  904MOL0     H24751   8.256   5.900   1.986  0.1592  0.5288 -1.7097
  904MOL0     H24752   8.336   5.741   1.965 -1.8764 -0.3485  2.6844
  905MOL0     O24753   7.635   8.181   7.280 -0.6686 -0.4822 -0.5761
  905MOL0     C24754   7.628   8.188   7.156 -0.2827 -0.2763 -0.5016
  905MOL0     O24755   7.640   8.300   7.078 -0.3281 -0.0323  0.4040
  905MOL0     C24756   7.655   8.424   7.129 -0.6333 -0.4383 -0.3011
  905MOL0     C24757   7.733   8.515   7.054  0.2494 -1.0467 -0.1102
  905MOL0     C24758   7.763   8.648   7.104 -0.6444  0.5462 -0.6878
  905MOL0     C24759   7.710   8.692   7.220 -0.6528 -0.1306 -0.6914
  905MOL0     O24760   7.703   8.822   7.256 -0.0628  0.3238 -0.5087
  905MOL0     C24761   7.714   8.927   7.158 -0.1247  0.3108  0.3605
  905MOL0     C24762   7.588   8.925   7.069 -0.2119  0.1146 -0.2101
  905MOL0     C24763   7.554   9.055   6.999  0.0407 -0.5494  0.0673
  905MOL0     C24764   7.627   9.080   6.869  0.2482  0.1624 -0.0501
  905MOL0     C24765   7.593   9.222   6.828 -0.3848  0.2294  0.3744
  905MOL0     C24766   7.624   9.241   6.685 -1.3269 -0.0549 -0.1890
  905MOL0     C24767   7.585   9.382   6.634  1.2464 -0.4285 -0.2114
  905MOL0     C24768   7.686   9.494   6.681 -0.5620  0.5170 -0.4498
  905MOL0     N24769   7.624   9.623   6.645 -0.0665  0.6448 -0.3599
  905MOL0     C24770   7.598   9.658   6.517  0.7392  1.3207 -0.2307
  905MOL0     C24771   7.517   9.767   6.540 -0.1776 -0.2184 -0.3061
  905MOL0     C24772   7.439   9.847   6.440 -0.4193 -0.2493  0.3059
  905MOL0     C24773   7.381   9.761   6.326 -0.3492  0.3907  0.3235
  905MOL0     C24774   7.284   9.659   6.381  0.3495  0.1674 -0.1918
  905MOL0     C24775   7.156   9.717   6.446  0.1398  0.3910  0.1675
  905MOL0     O24776   7.049   9.618   6.455 -0.7635  0.6788 -0.1373
  905MOL0     C24777   6.935   9.668   6.517  0.3818 -0.0468  1.4807
  905MOL0     C24778   6.922   9.776   6.599  0.1699 -0.0009 -0.5790
  905MOL0     C24779   6.795   9.796   6.675  0.0439 -0.7955 -0.5240
  905MOL0     C24780   6.800   9.922   6.769  0.6320  0.6200  0.5522
  905MOL0     C24781   6.685   9.719   6.650  0.7223  0.8383  0.1964
  905MOL0     C24782   6.555   9.736   6.720 -0.2797  0.2249 -0.4299
  905MOL0     O24783   6.462   9.636   6.688 -0.2736  0.6185 -0.6660
  905MOL0     C24784   6.336   9.637   6.742  0.1832  0.3306 -0.2990
  905MOL0     C24785   6.305   9.669   6.880 -0.0630 -0.1540 -0.1772
  905MOL0     C24786   6.171   9.667   6.925 -0.2303  0.4793 -0.5774
  905MOL0     C24787   6.067   9.635   6.838  0.2571  0.5116  0.1228
  905MOL0     O24788   5.937   9.636   6.871 -0.0783 -0.6058  0.3357
  905MOL0     C24789   5.900   9.717   6.988 -0.3136 -0.7006 -0.4988
  905MOL0     C24790   5.760   9.760   6.975 -0.4368 -0.5224 -0.8358
  905MOL0     C24791   5.650   9.653   6.978  1.5460  0.2237 -0.2271
  905MOL0     C24792   5.665   9.565   7.106 -0.2355  0.5226  0.2682
  905MOL0     C24793   5.533   9.505   7.158 -0.3647  0.0716 -0.7492
  905MOL0     C24794   5.439   9.620   7.229  0.5283 -0.2000  0.3386
  905MOL0     C24795   5.311   9.549   7.280 -0.4689  0.2195 -0.3665
  905MOL0     C24796   5.228   9.648   7.362 -0.7127  0.2647 -0.2172
  905MOL0    Cl24797   5.079   9.573   7.424  0.1281 -0.2470 -0.0576
  905MOL0     C24798   6.096   9.596   6.706 -0.2491  0.2370 -0.1105
  905MOL0     C24799   6.226   9.596   6.659  0.2856  0.0428  0.8135
  905MOL0     O24800   6.535   9.823   6.806 -0.1454  0.2145 -0.2714
  905MOL0     C24801   6.704   9.608   6.562 -0.1465 -0.2856 -0.9032
  905MOL0     C24802   6.823   9.590   6.493 -0.9294  0.8293  0.2015
  905MOL0     N24803   7.488   9.778   6.668 -0.0488 -0.4651  0.1944
  905MOL0     N24804   7.551   9.683   6.734  0.2857 -0.4958  0.8588
  905MOL0     C24805   7.624   8.599   7.290 -0.5333 -0.1598  0.4072
  905MOL0     C24806   7.601   8.470   7.244 -0.1014 -0.8805 -0.7514
  905MOL0     C24807   7.604   8.067   7.074  0.9116 -0.2655  0.5983
  905MOL0     C24808   7.604   8.077   6.932 -0.1065  0.2287  0.2061
  905MOL0     C24809   7.595   7.973   6.841 -0.4743 -0.9941 -1.1418
  905MOL0     C24810   7.583   7.844   6.884  0.0503 -0.0857 -0.0294
  905MOL0     O24811   7.595   7.741   6.788 -0.2018 -0.0553  0.1378
  905MOL0     C24812   7.567   7.610   6.826  0.3470 -0.5479  0.5742
  905MOL0     C24813   7.419   7.592   6.825  0.1993 -0.7296  0.1803
  905MOL0     C24814   7.385   7.438   6.810 -0.7265  0.6280  0.3055
  905MOL0     C24815   7.238   7.416   6.828  0.3454 -0.5038 -0.4379
  905MOL0     C24816   7.204   7.281   6.792 -1.0572 -0.3959 -1.0059
  905MOL0     C24817   7.172   7.165   6.775  0.2927 -0.0944 -0.3077
  905MOL0     C24818   7.572   7.827   7.025  0.0196 -0.2855 -0.0510
  905MOL0     C24819   7.585   7.930   7.122  0.5650  0.5488 -0.2103
  905MOL0     C24820   7.554   7.904   7.274 -0.0244  0.1762 -0.2574
  905MOL0     H24821   7.778   8.482   6.961  1.9700 -0.8523  0.6121
  905MOL0     H24822   7.834   8.712   7.052 -0.5615  0.8102 -0.2597
  905MOL0     H24823   7.815   8.925   7.115 -0.8825 -1.2639 -1.4619
  905MOL0     H24824   7.698   9.020   7.215 -1.6441  0.4436 -0.2556
  905MOL0     H24825   7.607   8.854   6.988  2.4531  1.1389 -0.5991
  905MOL0     H24826   7.503   8.891   7.128  1.4210  1.4002  3.1135
  905MOL0     H24827   7.445   9.054   6.989 -0.0416  3.2969 -1.0433
  905MOL0     H24828   7.580   9.133   7.072  0.3414 -0.1285 -0.4851
  905MOL0     H24829   7.736   9.076   6.878  0.0537 -0.9246  3.0458
  905MOL0     H24830   7.594   9.012   6.790 -0.8338  2.2718 -1.5371
  905MOL0     H24831   7.649   9.291   6.892 -1.4278  2.9850 -1.5084
  905MOL0     H24832   7.486   9.229   6.847 -0.1838 -0.7056  2.0357
  905MOL0     H24833   7.731   9.233   6.666 -1.0144  2.0082  0.4795
  905MOL0     H24834   7.578   9.158   6.631  0.2526 -1.8427  1.0769
  905MOL0     H24835   7.488   9.408   6.678  0.1986 -2.0173 -1.4572
  905MOL0     H24836   7.577   9.375   6.526  0.9057  1.2095 -0.3126
  905MOL0     H24837   7.710   9.489   6.787  2.0793 -0.4053 -1.0253
  905MOL0     H24838   7.777   9.488   6.622 -1.0490  1.0534 -1.2798
  905MOL0     H24839   7.629   9.615   6.423 -0.8191  2.1643 -1.1690
  905MOL0     H24840   7.519   9.905   6.393 -1.3214  3.0984  2.5447
  905MOL0     H24841   7.377   9.921   6.491  0.1804  1.8691 -1.8471
  905MOL0     H24842   7.330   9.821   6.251  0.0835  1.9413  1.2198
  905MOL0     H24843   7.466   9.712   6.278 -0.9989 -0.9129  0.4719
  905MOL0     H24844   7.256   9.594   6.297  0.2638  1.5231 -1.2413
  905MOL0     H24845   7.330   9.587   6.450 -0.4986  0.4620  0.7116
  905MOL0     H24846   7.187   9.743   6.548  0.8207  0.8288 -0.1388
  905MOL0     H24847   7.120   9.807   6.396 -1.2646  1.0143  2.1798
  905MOL0     H24848   7.000   9.849   6.623  1.5328 -0.7283 -2.5680
  905MOL0     H24849   6.877   9.988   6.728 -0.0571 -0.6578 -3.1929
  905MOL0     H24850   6.832   9.892   6.869  3.2697  5.0668  1.3086
  905MOL0     H24851   6.704   9.973   6.773 -0.5159 -0.7396 -3.7380
  905MOL0     H24852   6.381   9.699   6.951  0.2138 -0.4475 -0.3466
  905MOL0     H24853   6.144   9.697   7.025 -2.1554 -2.4357 -0.1029
  905MOL0     H24854   5.919   9.672   7.086 -2.1408 -3.1003 -1.1573
  905MOL0     H24855   5.963   9.807   6.991 -0.1631 -0.7147 -2.1260
  905MOL0     H24856   5.740   9.832   7.054  1.6338 -2.5573  1.7151
  905MOL0     H24857   5.747   9.815   6.881 -1.7548 -0.8983 -0.8880
  905MOL0     H24858   5.650   9.587   6.891 -2.3382 -1.4911  0.8384
  905MOL0     H24859   5.549   9.696   6.978  0.2471 -2.4869 -2.4395
  905MOL0     H24860   5.698   9.632   7.186 -1.8641  2.3774 -0.5215
  905MOL0     H24861   5.741   9.492   7.077  0.5466  1.8193 -1.0544
  905MOL0     H24862   5.475   9.451   7.083 -1.5233 -0.6035  0.5854
  905MOL0     H24863   5.559   9.438   7.241 -0.8980  0.8741  0.0891
  905MOL0     H24864   5.417   9.701   7.160  1.7309  0.8541  1.1538
  905MOL0     H24865   5.497   9.657   7.315 -0.5055  1.3850  0.3987
  905MOL0     H24866   5.338   9.469   7.350  0.9552  0.2793 -0.8278
  905MOL0     H24867   5.242   9.512   7.203 -0.1002  1.1790 -1.1707
  905MOL0     H24868   5.199   9.736   7.303 -2.3497  0.3637  0.6759
  905MOL0     H24869   5.284   9.674   7.453 -0.6212 -3.5217  0.9802
  905MOL0     H24870   6.020   9.558   6.639  1.3912 -1.3140 -1.1626
  905MOL0     H24871   6.262   9.562   6.562 -0.9053 -1.5428  0.8957
  905MOL0     H24872   6.621   9.541   6.544 -0.4664 -0.5347  1.2922
  905MOL0     H24873   6.833   9.508   6.423 -0.0473 -1.7801  3.1667
  905MOL0     H24874   7.581   8.630   7.385  2.0228  0.8194  1.3402
  905MOL0     H24875   7.546   8.402   7.309  0.3131  1.8019  2.7022
  905MOL0     H24876   7.622   8.170   6.879  0.2717  0.0232 -0.0244
  905MOL0     H24877   7.602   8.002   6.737  0.6789  1.7861 -0.3689
  905MOL0     H24878   7.614   7.540   6.756 -0.5417 -0.1959 -0.4232
  905MOL0     H24879   7.605   7.589   6.926  2.8282 -0.3320 -0.2673
  905MOL0     H24880   7.378   7.650   6.742  0.6857 -1.2903 -0.4614
  905MOL0     H24881   7.388   7.643   6.917  4.6345  1.2941  0.8365
  905MOL0     H24882   7.405   7.403   6.708 -1.9499 -2.8375  1.1268
  905MOL0     H24883   7.451   7.376   6.871 -0.1920 -0.7265 -1.5473
  905MOL0     H24884   7.180   7.495   6.779 -1.6741 -2.1386 -0.8300
  905MOL0     H24885   7.210   7.426   6.933  0.1871 -0.9080 -0.4415
  905MOL0     H24886   7.146   7.064   6.752 -0.8015  0.3003 -0.8636
  905MOL0     H24887   7.546   7.732   7.071 -2.1662  0.0547 -0.4708
  905MOL0     H24888   7.529   7.797   7.281  0.7902 -0.1264 -1.5677
  905MOL0     H24889   7.637   7.928   7.342  1.0935 -1.4895 -0.9484
  905MOL0     H24890   7.466   7.959   7.306 -0.1823 -0.2644  0.0874
  906MOL0     O24891   8.972   8.267   9.472 -0.1284 -0.3873 -0.1305
  906MOL0     C24892   9.058   8.311   9.401 -0.1915  0.6834 -0.1855
  906MOL0     O24893   9.088   8.439   9.379  1.0384  0.1056 -0.6060
  906MOL0     C24894   9.021   8.553   9.423  0.0341 -0.0989 -0.5920
  906MOL0     C24895   8.888   8.571   9.475  0.1259 -0.2017 -0.4461
  906MOL0     C24896   8.845   8.699   9.499  0.3739  0.3326  0.1752
  906MOL0     C24897   8.932   8.814   9.475 -0.1740 -0.7466 -0.7878
  906MOL0     O24898   8.888   8.949   9.489 -1.1305  0.3571  0.2641
  906MOL0     C24899   8.933   9.015   9.602  0.7047 -0.6354  0.2971
  906MOL0     C24900   8.988   9.152   9.567 -0.4577  0.0475 -0.0869
  906MOL0     C24901   9.108   9.142   9.470 -0.0828 -0.5749 -0.1345
  906MOL0     C24902   9.177   9.279   9.462 -0.5338  0.0487  0.1974
  906MOL0     C24903   9.326   9.274   9.399  0.1115 -0.4811 -0.0976
  906MOL0     C24904   9.351   9.409   9.324  0.3225 -0.1777 -0.5721
  906MOL0     C24905   9.493   9.422   9.290 -0.0226  0.2556  0.0443
  906MOL0     C24906   9.503   9.532   9.176 -0.7844 -0.3337  0.3285
  906MOL0     N24907   9.645   9.574   9.183  0.3632 -0.4921  0.9498
  906MOL0     C24908   9.738   9.575   9.084  0.7872 -0.0642  0.2222
  906MOL0     C24909   9.849   9.623   9.148  0.5564 -0.9184  0.4517
  906MOL0     C24910   9.977   9.638   9.062 -0.7366  0.2900  1.1321
  906MOL0     C24911  10.079   9.527   9.123 -0.2654  0.4784  0.4732
  906MOL0     C24912  10.205   9.514   9.038  0.3870 -0.1902 -0.3619
  906MOL0     C24913  10.192   9.431   8.907  1.0039  0.5971 -0.0872
  906MOL0     O24914  10.134   9.298   8.921 -0.0499 -0.7601 -0.2090
  906MOL0     C24915  10.213   9.200   8.955 -0.3999  0.1433  0.5644
  906MOL0     C24916  10.159   9.075   8.978 -0.5730  0.1119  0.2169
  906MOL0     C24917  10.239   8.962   9.008 -0.4361 -1.0497 -0.7690
  906MOL0     C24918  10.182   8.829   9.032 -0.0230  0.5264  0.1246
  906MOL0     C24919  10.380   8.982   9.020  0.1547 -0.8056  0.3080
  906MOL0     C24920  10.484   8.873   9.029  0.2344 -0.1628  0.1218
  906MOL0     O24921  10.596   8.905   9.105  0.4052 -0.3987  0.4265
  906MOL0     C24922  10.705   8.811   9.120  0.1387 -1.1536  0.0288
  906MOL0     C24923  10.703   8.676   9.113 -0.7474  0.7887 -0.3365
  906MOL0     C24924  10.824   8.603   9.135 -0.1976  0.0246  0.3004
  906MOL0     C24925  10.944   8.674   9.155 -0.3495  0.1042 -0.0934
  906MOL0     O24926  11.067   8.619   9.178 -0.1161  0.3020  0.0444
  906MOL0     C24927  11.188   8.675   9.126 -0.3029 -0.7831 -0.1459
  906MOL0     C24928  11.296   8.578   9.101  0.6478 -0.0055 -0.1865
  906MOL0     C24929  11.369   8.534   9.221 -0.1107 -0.1082 -0.3133
  906MOL0     C24930  11.485   8.447   9.192 -1.0268  0.6376 -0.2717
  906MOL0     C24931  11.572   8.413   9.317  0.5031  0.1411  1.0886
  906MOL0     C24932  11.714   8.363   9.294 -0.6786 -0.4774  0.4161
  906MOL0     C24933  11.810   8.460   9.231  1.3688  0.0758  0.0916
  906MOL0     C24934  11.932   8.387   9.185 -0.4778 -0.6146  0.1945
  906MOL0    Cl24935  12.045   8.532   9.146  0.3558 -0.2496 -0.0546
  906MOL0     C24936  10.941   8.813   9.168  0.5083  0.7553  0.2640
  906MOL0     C24937  10.819   8.882   9.143  0.1584  0.0515 -0.6185
  906MOL0     O24938  10.468   8.766   8.974  0.4347 -0.6665  0.4068
  906MOL0     C24939  10.430   9.108   9.007  0.1938 -0.5119  0.5040
  906MOL0     C24940  10.350   9.211   8.980  0.1712 -0.3885  0.2281
  906MOL0     N24941   9.819   9.651   9.275 -0.3614 -0.4478 -1.1115
  906MOL0     N24942   9.696   9.623   9.295 -0.0618  0.0223  0.1473
  906MOL0     C24943   9.063   8.789   9.435 -0.0200  0.0407 -0.4380
  906MOL0     C24944   9.108   8.663   9.409  0.1175  0.6344 -0.6924
  906MOL0     C24945   9.127   8.199   9.330  0.3993 -0.0203  0.4685
  906MOL0     C24946   9.185   8.095   9.413  0.3417  0.3928 -0.0727
  906MOL0     C24947   9.254   7.989   9.355 -0.0533 -0.0565 -0.4324
  906MOL0     C24948   9.265   7.988   9.208 -0.7174  0.3179  0.5396
  906MOL0     O24949   9.341   7.885   9.151 -0.1535  0.2665 -0.3636
  906MOL0     C24950   9.402   7.906   9.022  0.7866 -0.1796  0.1169
  906MOL0     C24951   9.512   7.818   8.997  0.0573  0.2352 -0.7669
  906MOL0     C24952   9.647   7.838   9.080  0.9107 -1.0331 -0.5322
  906MOL0     C24953   9.639   7.784   9.213 -0.2924  0.1099  0.0870
  906MOL0     C24954   9.763   7.713   9.252 -0.2427 -0.2408  0.3338
  906MOL0     C24955   9.851   7.652   9.299 -0.0894  0.3797  0.3754
  906MOL0     C24956   9.197   8.080   9.126 -0.7205 -0.1667  0.7725
  906MOL0     C24957   9.124   8.190   9.187 -0.8641  0.6964  0.1541
  906MOL0     C24958   9.064   8.298   9.093 -0.4732  0.4808  0.5006
  906MOL0     H24959   8.838   8.478   9.497  2.2440 -0.9839  1.4668
  906MOL0     H24960   8.742   8.719   9.528  0.3006 -0.7838  0.7071
  906MOL0     H24961   9.009   8.958   9.656  1.0134  0.2993  0.8787
  906MOL0     H24962   8.842   9.038   9.659  0.2669 -0.2462 -0.5481
  906MOL0     H24963   8.912   9.205   9.508 -1.7966 -0.4730  1.1269
  906MOL0     H24964   9.011   9.193   9.666  2.0435  0.6547 -0.8372
  906MOL0     H24965   9.183   9.073   9.510  0.4918 -0.0223 -0.2379
  906MOL0     H24966   9.072   9.115   9.370 -0.4610 -0.1527 -0.1157
  906MOL0     H24967   9.122   9.349   9.398 -1.1805  0.0972  0.8033
  906MOL0     H24968   9.189   9.331   9.557  2.3719 -1.1165  0.5683
  906MOL0     H24969   9.343   9.190   9.332  1.4462 -2.5675  2.6616
  906MOL0     H24970   9.390   9.262   9.486  0.5705  0.5241 -0.2838
  906MOL0     H24971   9.297   9.394   9.230  0.2264 -0.6644 -0.4420
  906MOL0     H24972   9.315   9.493   9.383 -0.4496 -1.8841  1.4936
  906MOL0     H24973   9.538   9.329   9.253  1.7797  1.7830 -1.8280
  906MOL0     H24974   9.540   9.442   9.387 -0.3617  0.0383  0.2562
  906MOL0     H24975   9.480   9.486   9.080  0.4684 -4.0723  1.6209
  906MOL0     H24976   9.434   9.615   9.191  0.1204  1.0949 -2.7790
  906MOL0     H24977   9.729   9.532   8.985  0.2053 -2.6439  1.3091
  906MOL0     H24978  10.008   9.743   9.067 -0.7662  0.3647 -0.0693
  906MOL0     H24979   9.951   9.617   8.958 -0.0506 -1.4961  1.2842
  906MOL0     H24980  10.108   9.557   9.224 -1.1294  0.3523  0.7679
  906MOL0     H24981  10.026   9.432   9.128  2.0369 -0.9239 -0.4727
  906MOL0     H24982  10.231   9.618   9.019 -2.9114  1.3258  2.3636
  906MOL0     H24983  10.290   9.482   9.098  0.6949  2.8426  0.9997
  906MOL0     H24984  10.122   9.482   8.840 -0.1080 -1.1786 -0.3505
  906MOL0     H24985  10.289   9.420   8.858  1.7893 -1.2926  1.7151
  906MOL0     H24986  10.050   9.073   8.979 -0.6459  1.2043 -1.5093
  906MOL0     H24987  10.212   8.762   8.951 -0.6447  3.7240 -2.9964
  906MOL0     H24988  10.075   8.849   9.045  0.6784  4.8018  0.7140
  906MOL0     H24989  10.208   8.781   9.127 -2.7900 -2.1848 -0.3166
  906MOL0     H24990  10.613   8.626   9.077  0.9994 -1.7831 -1.4071
  906MOL0     H24991  10.830   8.495   9.141  0.8456  0.0288 -0.3338
  906MOL0     H24992  11.173   8.720   9.027  2.3817 -1.8334 -1.1262
  906MOL0     H24993  11.222   8.755   9.192 -0.6380 -1.2014  0.5448
  906MOL0     H24994  11.257   8.495   9.042 -0.7384  0.2696  0.3066
  906MOL0     H24995  11.365   8.631   9.034 -0.2923  0.9958 -0.3798
  906MOL0     H24996  11.316   8.471   9.294  1.6821 -2.7785 -1.1749
  906MOL0     H24997  11.400   8.624   9.276 -1.9893 -0.7937  2.0688
  906MOL0     H24998  11.549   8.482   9.110  0.6920  0.9232  1.1377
  906MOL0     H24999  11.437   8.360   9.145  1.5502 -0.9770 -0.0931
  906MOL0     H25000  11.581   8.509   9.369 -2.0545 -1.8350  5.8183
  906MOL0     H25001  11.522   8.340   9.382 -0.5461 -1.9023 -1.7772
  906MOL0     H25002  11.703   8.278   9.226 -1.4342 -0.2394  0.2199
  906MOL0     H25003  11.753   8.333   9.392  0.9275 -0.4846 -0.1948
  906MOL0     H25004  11.835   8.536   9.306  1.1173 -2.5743  3.0603
  906MOL0     H25005  11.761   8.512   9.149 -1.8365 -0.8539  1.2791
  906MOL0     H25006  11.917   8.328   9.093 -0.6419 -0.2876  0.0089
  906MOL0     H25007  11.969   8.324   9.266  1.4002 -1.2372 -1.0755
  906MOL0     H25008  11.036   8.857   9.197  1.8386 -2.3937  1.1051
  906MOL0     H25009  10.810   8.988   9.165 -0.2413  0.0220 -0.6353
  906MOL0     H25010  10.537   9.121   9.019  0.5688 -0.6047 -2.1269
  906MOL0     H25011  10.400   9.307   8.988  1.5439 -1.1682  1.5356
  906MOL0     H25012   9.119   8.881   9.419  0.7753 -0.1581  1.0090
  906MOL0     H25013   9.205   8.649   9.363  0.1147 -1.4899 -0.1535
  906MOL0     H25014   9.196   8.112   9.520  1.5507 -0.8567  0.0280
  906MOL0     H25015   9.310   7.914   9.410  0.7435  2.8657  3.1196
  906MOL0     H25016   9.322   7.886   8.950  1.5444 -0.1620 -0.7510
  906MOL0     H25017   9.437   8.008   9.003  1.5584 -0.1733  1.4792
  906MOL0     H25018   9.542   7.824   8.892 -1.8508  1.2841 -1.2904
  906MOL0     H25019   9.475   7.716   9.010 -2.5847  1.0893 -1.1734
  906MOL0     H25020   9.730   7.789   9.028  0.7501 -1.5438 -0.3187
  906MOL0     H25021   9.680   7.942   9.071  2.8831 -1.1570  3.2149
  906MOL0     H25022   9.565   7.704   9.220 -1.2715  1.0705  0.9609
  906MOL0     H25023   9.613   7.851   9.296 -0.2010 -1.0052  1.0477
  906MOL0     H25024   9.926   7.591   9.345 -1.9893 -1.5241  1.0628
  906MOL0     H25025   9.230   8.077   9.022  4.5882  0.3975  2.1308
  906MOL0     H25026   8.970   8.333   9.138  0.6464  1.4547  2.2258
  906MOL0     H25027   9.135   8.381   9.088 -1.2784  1.1804  0.3473
  906MOL0     H25028   9.046   8.252   8.996 -0.5380 -0.3818  0.9082
  907MOL0     O25029   3.823   7.688   2.478  0.1338  0.3430  0.9077
  907MOL0     C25030   3.838   7.682   2.600  0.0622 -0.0643  0.0170
  907MOL0     O25031   3.945   7.627   2.664 -0.3233 -0.6527  0.1258
  907MOL0     C25032   4.042   7.562   2.591 -0.8684 -0.7699 -0.3310
  907MOL0     C25033   4.081   7.582   2.465  0.0258  0.2474 -0.0181
  907MOL0     C25034   4.197   7.516   2.413 -0.0625 -0.5070  1.1698
  907MOL0     C25035   4.272   7.423   2.482  0.2312  0.4351 -0.2901
  907MOL0     O25036   4.374   7.349   2.430  0.1801 -0.4897  0.4471
  907MOL0     C25037   4.342   7.280   2.306 -0.1692  0.9070 -0.7644
  907MOL0     C25038   4.466   7.225   2.246  0.0602  0.6686  0.6079
  907MOL0     C25039   4.533   7.110   2.325 -0.1126 -0.1704 -0.2713
  907MOL0     C25040   4.465   6.976   2.311  0.7935  0.2111 -0.2835
  907MOL0     C25041   4.531   6.863   2.383  0.1421 -0.1027  0.2383
  907MOL0     C25042   4.512   6.885   2.540  0.0156  0.2453  0.7921
  907MOL0     C25043   4.589   6.772   2.617  0.0630  0.2346 -0.4400
  907MOL0     C25044   4.542   6.773   2.759  0.8500  0.0873  0.7099
  907MOL0     N25045   4.504   6.897   2.837  0.5162 -0.0358 -0.5932
  907MOL0     C25046   4.594   6.987   2.874 -0.0794 -0.4521 -0.0784
  907MOL0     C25047   4.530   7.110   2.872  0.3057  0.5986  0.3685
  907MOL0     C25048   4.605   7.232   2.902  1.0902 -0.2659 -0.0789
  907MOL0     C25049   4.626   7.321   2.781 -0.8667 -0.2802  0.8052
  907MOL0     C25050   4.746   7.283   2.683 -0.1479  0.5714  0.2243
  907MOL0     C25051   4.750   7.378   2.564  0.1241  0.9320 -0.6386
  907MOL0     O25052   4.852   7.344   2.464  0.3078 -0.3453 -0.7723
  907MOL0     C25053   4.886   7.435   2.376 -0.1083 -0.2956  0.2349
  907MOL0     C25054   5.019   7.450   2.349 -1.1431  0.0538  0.0305
  907MOL0     C25055   5.070   7.549   2.266 -0.7804 -0.0545  0.5994
  907MOL0     C25056   5.216   7.556   2.260 -0.0053 -0.9697  0.3323
  907MOL0     C25057   4.980   7.634   2.198 -0.0446 -0.0397 -0.1144
  907MOL0     C25058   5.023   7.737   2.100  0.1930  0.7522 -0.3568
  907MOL0     O25059   5.155   7.754   2.061  0.6551 -0.1118 -0.0597
  907MOL0     C25060   5.192   7.858   1.979 -0.0082  0.0978  0.6729
  907MOL0     C25061   5.135   7.990   1.986 -0.2412  0.5525 -0.0888
  907MOL0     C25062   5.189   8.092   1.910  0.0200  0.3885 -0.0604
  907MOL0     C25063   5.307   8.076   1.827  0.2102 -0.2510 -0.4332
  907MOL0     O25064   5.363   8.185   1.777 -1.1420  0.3043  0.4222
  907MOL0     C25065   5.466   8.180   1.679 -0.3713  0.0472 -0.3552
  907MOL0     C25066   5.480   8.322   1.613 -0.5091  0.8541 -0.4008
  907MOL0     C25067   5.528   8.421   1.721 -0.6635  0.0723 -0.7038
  907MOL0     C25068   5.547   8.575   1.673  0.0490  0.3989  0.7424
  907MOL0     C25069   5.688   8.580   1.615  0.1293  0.4688  0.0211
  907MOL0     C25070   5.717   8.729   1.566  0.2037  0.7257 -0.5038
  907MOL0     C25071   5.865   8.731   1.530  0.1195 -0.0651  0.2185
  907MOL0     C25072   5.918   8.859   1.467 -1.0699 -0.4070 -0.8417
  907MOL0    Cl25073   5.840   8.993   1.563 -0.2121 -0.4354  0.2412
  907MOL0     C25074   5.359   7.946   1.822  0.2527 -0.6620  0.8269
  907MOL0     C25075   5.299   7.842   1.890 -0.0848  0.3656  1.2671
  907MOL0     O25076   4.932   7.804   2.064 -0.0705  0.1080 -0.1839
  907MOL0     C25077   4.843   7.613   2.219 -0.7035  0.0283 -0.7015
  907MOL0     C25078   4.800   7.513   2.305 -0.2016 -0.5764  0.0886
  907MOL0     N25079   4.395   7.077   2.857 -0.7885 -0.7908  0.2613
  907MOL0     N25080   4.381   6.956   2.826 -0.0741  0.4246  0.0766
  907MOL0     C25081   4.219   7.400   2.609  1.2418  0.0995 -0.0475
  907MOL0     C25082   4.114   7.475   2.668 -0.3905  0.4912 -0.0422
  907MOL0     C25083   3.731   7.740   2.695 -1.9530 -0.8273 -0.2430
  907MOL0     C25084   3.760   7.762   2.837  0.2711  0.5595 -0.0928
  907MOL0     C25085   3.660   7.806   2.920  0.3065 -0.1602 -0.0289
  907MOL0     C25086   3.534   7.846   2.879 -0.2429 -0.4142  0.9468
  907MOL0     O25087   3.429   7.886   2.963 -0.0199 -0.1196 -0.5624
  907MOL0     C25088   3.403   7.800   3.076  1.6046  0.2722  0.0815
  907MOL0     C25089   3.387   7.880   3.200 -0.5720  0.4711 -0.2187
  907MOL0     C25090   3.332   7.798   3.321  0.1179  0.6096  0.3847
  907MOL0     C25091   3.181   7.782   3.328  0.6212 -0.4195 -0.0515
  907MOL0     C25092   3.135   7.666   3.250  0.4434  0.1297  0.2897
  907MOL0     C25093   3.091   7.567   3.187  0.1780  0.4463 -0.4052
  907MOL0     C25094   3.507   7.833   2.734  0.4555  0.5841 -0.7344
  907MOL0     C25095   3.598   7.762   2.650  0.1242 -0.0430  0.1350
  907MOL0     C25096   3.539   7.706   2.520  0.5220 -0.2810 -0.1811
  907MOL0     H25097   4.026   7.646   2.396 -0.0110 -2.3371 -2.5616
  907MOL0     H25098   4.223   7.528   2.308  1.3135 -2.7474  1.2029
  907MOL0     H25099   4.302   7.344   2.226  3.9704 -0.8778 -4.7022
  907MOL0     H25100   4.272   7.199   2.330  0.3093  1.4314  2.9644
  907MOL0     H25101   4.442   7.192   2.144  2.5169  0.1953  0.1029
  907MOL0     H25102   4.531   7.310   2.225  4.3918 -1.9433  2.0528
  907MOL0     H25103   4.640   7.089   2.310  0.1179 -0.2774  1.4135
  907MOL0     H25104   4.519   7.136   2.430 -3.5351  0.2155 -0.6998
  907MOL0     H25105   4.358   6.973   2.332  0.1035 -0.8544 -3.3655
  907MOL0     H25106   4.466   6.957   2.203 -0.2678 -0.2077 -0.2229
  907MOL0     H25107   4.637   6.871   2.355  0.0518 -0.5312 -0.2242
  907MOL0     H25108   4.502   6.759   2.368 -0.1482 -0.2169  1.4741
  907MOL0     H25109   4.551   6.980   2.575 -1.8568  1.2595  0.2657
  907MOL0     H25110   4.405   6.887   2.564 -0.2987 -1.4430 -0.2340
  907MOL0     H25111   4.693   6.801   2.631  0.3346 -0.9926  0.1662
  907MOL0     H25112   4.596   6.674   2.568  0.3282 -0.3187  0.6938
  907MOL0     H25113   4.447   6.720   2.756 -0.3106  2.0047 -2.8602
  907MOL0     H25114   4.615   6.715   2.816 -0.8038 -1.6516  1.1522
  907MOL0     H25115   4.701   6.971   2.878  0.3740  1.3225 -2.5243
  907MOL0     H25116   4.707   7.211   2.937  1.6960 -0.2065 -1.7341
  907MOL0     H25117   4.546   7.288   2.975  1.9408 -2.1720  2.2125
  907MOL0     H25118   4.540   7.334   2.713  0.7770  3.2217 -0.8719
  907MOL0     H25119   4.666   7.416   2.817 -2.0902 -0.0369  1.5597
  907MOL0     H25120   4.836   7.278   2.744 -0.9884 -0.8460  1.4414
  907MOL0     H25121   4.729   7.184   2.640 -1.4790  0.3511  1.1721
  907MOL0     H25122   4.655   7.381   2.510  1.2567  1.8899 -2.6897
  907MOL0     H25123   4.773   7.481   2.593 -0.0415 -0.0896  3.8359
  907MOL0     H25124   5.090   7.387   2.403 -0.5801 -0.1996 -0.9840
  907MOL0     H25125   5.251   7.508   2.168 -3.5331  1.2682 -2.4429
  907MOL0     H25126   5.262   7.503   2.343  2.9076  0.9335  0.0978
  907MOL0     H25127   5.245   7.662   2.251  1.1695 -1.1625  1.6287
  907MOL0     H25128   5.049   8.016   2.047 -0.5565 -0.3403 -0.1424
  907MOL0     H25129   5.146   8.191   1.917  0.7780  0.7340 -0.2387
  907MOL0     H25130   5.563   8.142   1.714  0.0820  1.1951 -0.3453
  907MOL0     H25131   5.436   8.113   1.597 -0.0099 -0.1107 -0.3622
  907MOL0     H25132   5.547   8.314   1.528  4.4501 -0.6220  3.1709
  907MOL0     H25133   5.385   8.362   1.577 -0.0134  1.4216 -1.0947
  907MOL0     H25134   5.621   8.389   1.769 -1.1361 -3.6992 -2.0197
  907MOL0     H25135   5.447   8.427   1.795  1.0472  1.0803  1.2214
  907MOL0     H25136   5.532   8.646   1.755  2.7851 -0.1085  1.7721
  907MOL0     H25137   5.473   8.578   1.593  1.4002 -3.1760 -0.8478
  907MOL0     H25138   5.768   8.552   1.684  0.7323 -0.7594 -1.1254
  907MOL0     H25139   5.701   8.517   1.526 -0.6995  0.6864 -0.2642
  907MOL0     H25140   5.689   8.805   1.639  0.2705  0.0706  0.2094
  907MOL0     H25141   5.656   8.757   1.480  0.6500  1.4061 -0.6097
  907MOL0     H25142   5.892   8.647   1.466 -0.1193  0.1162 -0.1262
  907MOL0     H25143   5.927   8.718   1.619  0.1878 -1.6305 -0.0446
  907MOL0     H25144   5.884   8.854   1.363 -0.0380 -1.0850 -1.1641
  907MOL0     H25145   6.027   8.864   1.457 -1.0600 -0.5802 -0.8221
  907MOL0     H25146   5.445   7.932   1.757  0.3672 -0.9895  1.0480
  907MOL0     H25147   5.359   7.753   1.874  3.5119  2.1829  3.2260
  907MOL0     H25148   4.768   7.671   2.166  1.2050  2.1068 -1.2937
  907MOL0     H25149   4.692   7.500   2.312 -0.2309  0.5520  3.9990
  907MOL0     H25150   4.277   7.341   2.680  1.5248  0.8184  0.3419
  907MOL0     H25151   4.094   7.462   2.774 -0.2581 -0.7177 -0.1528
  907MOL0     H25152   3.857   7.728   2.872  0.0219 -0.2388 -0.1644
  907MOL0     H25153   3.675   7.795   3.027  0.4390 -2.5508 -0.2427
  907MOL0     H25154   3.308   7.749   3.053  1.7726  0.2797 -0.6464
  907MOL0     H25155   3.485   7.732   3.099  0.5368 -0.3352  2.4231
  907MOL0     H25156   3.327   7.967   3.171  1.2150  1.7146 -0.3187
  907MOL0     H25157   3.488   7.914   3.223 -0.1181 -1.1763  0.3629
  907MOL0     H25158   3.374   7.697   3.313 -1.3735  0.0129 -0.1134
  907MOL0     H25159   3.381   7.846   3.406 -1.4433  3.9233 -0.4326
  907MOL0     H25160   3.133   7.869   3.282 -0.5139 -1.4024 -0.8017
  907MOL0     H25161   3.142   7.782   3.430 -1.5185  2.5907 -0.7208
  907MOL0     H25162   3.063   7.487   3.122  0.3268  0.4291 -0.4480
  907MOL0     H25163   3.408   7.844   2.690 -1.4860 -1.4830  2.6650
  907MOL0     H25164   3.430   7.706   2.509  0.5575  0.9815 -0.7582
  907MOL0     H25165   3.568   7.756   2.426 -2.4724 -2.4892 -2.4917
  907MOL0     H25166   3.575   7.603   2.510  2.8061  0.5124 -0.7353
  908MOL0     O25167   9.729   5.564   8.715 -0.1231 -0.2689  0.5716
  908MOL0     C25168   9.712   5.681   8.675 -1.1173 -0.9646 -0.3060
  908MOL0     O25169   9.807   5.777   8.659  0.9441 -0.0915  0.8372
  908MOL0     C25170   9.939   5.747   8.658 -0.1278 -0.8080 -0.0936
  908MOL0     C25171  10.012   5.665   8.752  0.4383 -0.7271  0.3511
  908MOL0     C25172  10.148   5.631   8.728 -0.0769 -0.2513 -0.3391
  908MOL0     C25173  10.222   5.677   8.620  0.8431  0.2358  0.5873
  908MOL0     O25174  10.352   5.647   8.615 -0.7137  0.0502  0.2731
  908MOL0     C25175  10.432   5.692   8.505  0.4129 -0.0058  0.8929
  908MOL0     C25176  10.579   5.645   8.527 -0.3779 -0.0243  0.4310
  908MOL0     C25177  10.692   5.739   8.456  0.0378 -0.3040  0.2067
  908MOL0     C25178  10.728   5.861   8.544 -0.7048 -0.4871 -0.2083
  908MOL0     C25179  10.834   5.826   8.655  0.2069  1.2994  0.0749
  908MOL0     C25180  10.966   5.757   8.610 -0.0266 -0.6325 -0.5953
  908MOL0     C25181  11.087   5.851   8.637 -0.4554  0.0699  0.4857
  908MOL0     C25182  11.214   5.783   8.574 -1.1612 -0.5532 -0.0782
  908MOL0     N25183  11.326   5.876   8.593 -0.2856  1.0023  0.3501
  908MOL0     C25184  11.355   5.959   8.486 -0.3410  0.0509 -0.1401
  908MOL0     C25185  11.443   6.046   8.540  0.5396 -0.2105 -1.1318
  908MOL0     C25186  11.502   6.159   8.455  0.7384 -0.2246 -1.0559
  908MOL0     C25187  11.651   6.116   8.426  0.7794  0.2826 -0.1152
  908MOL0     C25188  11.721   6.209   8.329 -0.2769  0.2203  0.8378
  908MOL0     C25189  11.866   6.175   8.323 -0.1392  0.2779  0.3809
  908MOL0     O25190  11.944   6.290   8.302  0.2938  0.0701 -0.4832
  908MOL0     C25191  12.080   6.275   8.297 -0.1142  1.5800  0.9614
  908MOL0     C25192  12.154   6.385   8.255 -0.0730  0.5102  0.7559
  908MOL0     C25193  12.297   6.386   8.240 -0.6428 -0.0280  1.5090
  908MOL0     C25194  12.345   6.522   8.185  0.3342  0.7648  0.3573
  908MOL0     C25195  12.372   6.271   8.277 -0.2302  0.4196  0.7610
  908MOL0     C25196  12.516   6.262   8.248 -0.1347  0.4413  0.3207
  908MOL0     O25197  12.576   6.146   8.286  0.5009  0.4092  0.1880
  908MOL0     C25198  12.711   6.143   8.317 -0.7476  0.3535 -0.7158
  908MOL0     C25199  12.763   6.011   8.317  0.2625  0.8678 -0.0577
  908MOL0     C25200  12.891   5.985   8.363 -0.0984 -0.3203 -0.2759
  908MOL0     C25201  12.980   6.095   8.405 -0.1513  0.1782  0.0891
  908MOL0     O25202  13.108   6.074   8.455 -0.9573  0.7768 -0.6309
  908MOL0     C25203  13.160   5.938   8.477  0.0802 -0.2534 -0.4803
  908MOL0     C25204  13.309   5.949   8.532  0.0096  0.1666  0.0860
  908MOL0     C25205  13.326   6.037   8.658  0.7515  0.4714  0.3368
  908MOL0     C25206  13.277   5.940   8.771 -0.2757  0.3155 -0.6129
  908MOL0     C25207  13.280   5.991   8.912 -0.0646 -0.0274  0.1278
  908MOL0     C25208  13.205   5.911   9.017 -0.3049 -0.9466  0.4488
  908MOL0     C25209  13.230   5.956   9.167 -0.4649  1.2658  0.2912
  908MOL0     C25210  13.200   6.103   9.183  0.1728 -0.2757 -0.0320
  908MOL0    Cl25211  13.025   6.132   9.190 -0.1071  0.6204 -0.2701
  908MOL0     C25212  12.924   6.229   8.405 -0.2307 -0.1790  0.3931
  908MOL0     C25213  12.792   6.255   8.364 -0.1593 -0.2804 -0.7716
  908MOL0     O25214  12.564   6.356   8.188 -0.4849  0.2397 -0.0821
  908MOL0     C25215  12.297   6.157   8.318 -0.1654 -0.8836 -0.7427
  908MOL0     C25216  12.157   6.165   8.323 -0.7837 -0.3012  0.3226
  908MOL0     N25217  11.456   6.024   8.671  0.2964  0.4661 -0.0471
  908MOL0     N25218  11.387   5.917   8.702  0.2501  0.0442 -0.9735
  908MOL0     C25219  10.154   5.759   8.536  0.6968  0.9720  0.5360
  908MOL0     C25220  10.019   5.804   8.559  0.2725  0.4430  0.7009
  908MOL0     C25221   9.573   5.727   8.638 -0.1925  0.4414 -0.5628
  908MOL0     C25222   9.548   5.865   8.622 -0.6067 -0.3706  0.0490
  908MOL0     C25223   9.416   5.912   8.595  0.3688  0.3462 -0.0843
  908MOL0     C25224   9.311   5.818   8.563 -0.8594  0.4580 -0.1712
  908MOL0     O25225   9.178   5.845   8.568  0.4134 -1.1460  0.7951
  908MOL0     C25226   9.132   5.882   8.699 -0.0423  0.5249 -0.4125
  908MOL0     C25227   9.102   6.032   8.695 -0.0081 -1.3062  0.0354
  908MOL0     C25228   9.124   6.096   8.836  0.8146 -0.3523  0.6158
  908MOL0     C25229   9.176   6.234   8.822 -0.7645 -0.5047 -1.0333
  908MOL0     C25230   9.196   6.296   8.955 -0.0108  0.3058  0.1808
  908MOL0     C25231   9.193   6.338   9.066 -0.7678  0.9806  0.0198
  908MOL0     C25232   9.336   5.685   8.573 -0.0126 -0.2601  0.5189
  908MOL0     C25233   9.465   5.637   8.614  0.1039  0.2539 -0.0493
  908MOL0     C25234   9.481   5.487   8.628 -0.7313 -0.0869 -0.3755
  908MOL0     H25235   9.956   5.618   8.832 -1.6365 -2.5972 -2.0244
  908MOL0     H25236  10.198   5.555   8.786  1.5621  1.4299  0.5659
  908MOL0     H25237  10.435   5.799   8.482 -1.2389 -0.5892 -2.5824
  908MOL0     H25238  10.405   5.648   8.409  1.5124  2.2481 -0.5510
  908MOL0     H25239  10.600   5.637   8.634 -1.2672 -1.0004  0.5503
  908MOL0     H25240  10.598   5.540   8.501 -0.6005 -0.8947  3.3942
  908MOL0     H25241  10.770   5.675   8.411 -0.1868 -0.4024 -0.0452
  908MOL0     H25242  10.648   5.776   8.363 -1.0036 -0.7784  0.4995
  908MOL0     H25243  10.758   5.945   8.480 -2.8331  0.1854 -0.4268
  908MOL0     H25244  10.640   5.905   8.594  0.2759  0.3180  0.8582
  908MOL0     H25245  10.792   5.757   8.729 -1.0150  1.2175 -0.6514
  908MOL0     H25246  10.855   5.921   8.705  3.9191  1.9050 -2.2695
  908MOL0     H25247  10.983   5.662   8.662  1.2489 -0.3405 -0.4612
  908MOL0     H25248  10.953   5.728   8.505 -1.4894 -0.1200 -0.5863
  908MOL0     H25249  11.107   5.857   8.744 -0.8361 -1.4035  0.6675
  908MOL0     H25250  11.076   5.949   8.590 -0.5601  0.0402  0.4494
  908MOL0     H25251  11.222   5.692   8.635 -0.6239  0.3343  1.2176
  908MOL0     H25252  11.208   5.753   8.469 -1.7004 -2.4367  0.4434
  908MOL0     H25253  11.319   5.950   8.384  1.2613  2.9097 -1.0682
  908MOL0     H25254  11.489   6.261   8.494 -2.0558 -1.0251  0.3728
  908MOL0     H25255  11.452   6.158   8.357 -0.8925  0.5837 -0.2780
  908MOL0     H25256  11.705   6.099   8.520  2.9833  0.7729 -1.2150
  908MOL0     H25257  11.641   6.024   8.368 -2.1728  0.2172  0.3797
  908MOL0     H25258  11.668   6.187   8.236  0.2606 -0.1269  0.6138
  908MOL0     H25259  11.699   6.314   8.353 -4.5154  0.3252 -2.3197
  908MOL0     H25260  11.893   6.121   8.414  1.1456 -0.8988 -0.6351
  908MOL0     H25261  11.893   6.101   8.246 -0.9236 -0.1702  0.5315
  908MOL0     H25262  12.109   6.480   8.228  0.2178  0.6759  0.8472
  908MOL0     H25263  12.412   6.557   8.265 -3.3451 -0.9209  4.5980
  908MOL0     H25264  12.262   6.591   8.176 -1.4328 -0.8173  3.0671
  908MOL0     H25265  12.396   6.494   8.092 -2.7725 -4.9388 -0.1031
  908MOL0     H25266  12.702   5.925   8.289  0.1189  1.3690 -1.3426
  908MOL0     H25267  12.924   5.882   8.367  0.3551 -0.1799 -0.3224
  908MOL0     H25268  13.100   5.889   8.554 -0.9292  0.2597 -0.9264
  908MOL0     H25269  13.166   5.877   8.386  1.2685 -1.1058  0.1480
  908MOL0     H25270  13.349   5.852   8.562 -1.6180  0.4079  3.4923
  908MOL0     H25271  13.378   5.988   8.457  0.9845 -3.0574 -0.8353
  908MOL0     H25272  13.261   6.125   8.662 -2.6988 -1.9016  0.5431
  908MOL0     H25273  13.429   6.070   8.679  0.2922  1.9836  0.3394
  908MOL0     H25274  13.344   5.854   8.770  0.9210  1.0613  2.5687
  908MOL0     H25275  13.174   5.914   8.747 -0.3873 -0.2170  0.3922
  908MOL0     H25276  13.384   5.990   8.946  0.2974  5.9580  0.3332
  908MOL0     H25277  13.236   6.092   8.912 -1.5277 -0.6430  0.0505
  908MOL0     H25278  13.234   5.807   8.998  2.6212  0.0069 -0.6874
  908MOL0     H25279  13.099   5.923   8.993  0.2365  1.4419 -1.0520
  908MOL0     H25280  13.335   5.935   9.190 -0.7095  0.3854  0.6676
  908MOL0     H25281  13.169   5.899   9.239 -1.1522  0.4266 -0.9126
  908MOL0     H25282  13.248   6.176   9.117 -1.9461  1.5888  0.3744
  908MOL0     H25283  13.230   6.142   9.281  2.9143  1.0916 -1.3225
  908MOL0     H25284  12.992   6.307   8.439  0.8125 -0.4669 -0.9636
  908MOL0     H25285  12.744   6.352   8.370  1.0119  0.3153 -0.5890
  908MOL0     H25286  12.349   6.066   8.347 -1.3275 -1.5700 -0.7248
  908MOL0     H25287  12.108   6.080   8.371 -1.9524  0.9407  1.3997
  908MOL0     H25288  10.205   5.815   8.459 -0.3389  1.9340  0.5290
  908MOL0     H25289   9.975   5.881   8.497  2.0336  0.5876 -0.4202
  908MOL0     H25290   9.626   5.937   8.640  1.3361 -1.9168 -1.6293
  908MOL0     H25291   9.408   6.019   8.579  2.1561  0.9923  2.5688
  908MOL0     H25292   9.044   5.820   8.718  0.8563 -0.7586 -0.3604
  908MOL0     H25293   9.208   5.863   8.774 -0.7542  1.0689  0.4662
  908MOL0     H25294   9.001   6.045   8.654 -0.0534 -1.3165  0.1392
  908MOL0     H25295   9.162   6.087   8.623 -1.6425  2.7215  1.4319
  908MOL0     H25296   9.028   6.100   8.888 -0.2922  1.3460 -1.4078
  908MOL0     H25297   9.189   6.033   8.897 -2.6372 -2.5604  2.3032
  908MOL0     H25298   9.115   6.297   8.757 -0.5929  0.4785 -0.2737
  908MOL0     H25299   9.269   6.218   8.767 -1.0198  0.1124 -1.6603
  908MOL0     H25300   9.193   6.394   9.157  0.9264  2.0342 -0.5742
  908MOL0     H25301   9.253   5.616   8.556  0.1583 -0.2918 -0.2245
  908MOL0     H25302   9.397   5.442   8.574  0.0776  0.6375 -2.3607
  908MOL0     H25303   9.573   5.449   8.582  1.6839  1.3726  2.8358
  908MOL0     H25304   9.469   5.460   8.733  0.7487  4.2893  1.1667
  909MOL0     O25305   8.424   1.200   5.144 -0.2476 -0.3035  0.1047
  909MOL0     C25306   8.391   1.323   5.162  0.0667  0.2908 -0.0631
  909MOL0     O25307   8.266   1.380   5.163  0.5446  0.0321  0.0757
  909MOL0     C25308   8.152   1.307   5.188  0.2046  0.2819 -0.2214
  909MOL0     C25309   8.152   1.175   5.236 -0.2450 -0.0929  0.6972
  909MOL0     C25310   8.022   1.112   5.227 -0.8414  0.2288  0.1830
  909MOL0     C25311   7.902   1.181   5.193  0.4446  0.4060  0.7392
  909MOL0     O25312   7.786   1.105   5.194  0.1687 -0.9982 -0.9315
  909MOL0     C25313   7.688   1.167   5.282  0.0429 -0.1585  0.6414
  909MOL0     C25314   7.550   1.208   5.229  0.2650  1.0256 -0.0283
  909MOL0     C25315   7.458   1.297   5.311 -0.3479  0.6835 -0.9071
  909MOL0     C25316   7.430   1.261   5.457 -0.2086 -0.1315  0.0011
  909MOL0     C25317   7.307   1.320   5.507 -0.1377  0.2803  1.2857
  909MOL0     C25318   7.295   1.329   5.658 -0.6415  0.2169  0.7165
  909MOL0     C25319   7.164   1.393   5.707  0.0809 -0.3841  0.4170
  909MOL0     C25320   7.142   1.343   5.851 -0.8435  0.3217 -0.3286
  909MOL0     N25321   7.026   1.406   5.903  0.8058  0.1502  0.3831
  909MOL0     C25322   7.018   1.479   6.015  0.5304 -0.0813 -0.5419
  909MOL0     C25323   6.888   1.505   6.027  0.6969 -0.3072 -0.4443
  909MOL0     C25324   6.818   1.599   6.136 -0.4791  0.4089  0.7625
  909MOL0     C25325   6.820   1.747   6.079  0.4581  0.2554  0.3751
  909MOL0     C25326   6.778   1.849   6.188  0.5602 -0.5090 -0.1976
  909MOL0     C25327   6.643   1.820   6.252  1.1807  0.2922  0.1423
  909MOL0     O25328   6.596   1.934   6.317  0.2901  0.3347  0.1460
  909MOL0     C25329   6.507   1.909   6.420 -0.5049  0.5815 -0.3663
  909MOL0     C25330   6.528   1.969   6.546  0.2321 -0.5322 -0.2498
  909MOL0     C25331   6.456   1.947   6.667  0.2098  0.7250 -0.4537
  909MOL0     C25332   6.492   2.026   6.790 -0.8933  0.1443  0.0967
  909MOL0     C25333   6.342   1.863   6.659 -0.2750  0.4061  0.4755
  909MOL0     C25334   6.257   1.827   6.774  0.3550 -0.5626 -0.6799
  909MOL0     O25335   6.154   1.738   6.750 -0.1220 -0.0354 -0.6235
  909MOL0     C25336   6.028   1.757   6.804  0.2143 -0.8123 -0.6562
  909MOL0     C25337   5.950   1.644   6.797  0.8528 -0.5902 -0.4031
  909MOL0     C25338   5.815   1.643   6.843 -0.3144  0.1832  0.2665
  909MOL0     C25339   5.752   1.759   6.885  0.7398  0.1850 -0.0799
  909MOL0     O25340   5.615   1.760   6.919 -0.0160 -0.1409 -0.5161
  909MOL0     C25341   5.547   1.881   6.899  0.3945 -0.3994  0.4067
  909MOL0     C25342   5.397   1.854   6.912  0.1816  0.0942  1.4326
  909MOL0     C25343   5.318   1.955   6.830 -0.0244 -0.7194  0.4397
  909MOL0     C25344   5.184   1.909   6.780  0.0966 -0.4734  0.7280
  909MOL0     C25345   5.142   1.934   6.632 -0.7060 -0.3349 -0.3540
  909MOL0     C25346   5.096   2.075   6.615  0.2291 -1.0465  0.7480
  909MOL0     C25347   5.064   2.115   6.471 -0.4233  0.0775 -0.4777
  909MOL0     C25348   5.037   2.266   6.465 -0.9367 -0.3682 -0.4686
  909MOL0    Cl25349   5.186   2.365   6.488  0.1673 -0.1003 -0.5374
  909MOL0     C25350   5.834   1.866   6.895 -0.7337 -1.0839 -0.3506
  909MOL0     C25351   5.970   1.875   6.863  0.1667 -0.4223  0.5463
  909MOL0     O25352   6.278   1.887   6.882  0.0408  0.0102 -0.2156
  909MOL0     C25353   6.310   1.815   6.523  0.2303  1.1652  0.1226
  909MOL0     C25354   6.383   1.846   6.406 -0.7700  0.2186 -0.7499
  909MOL0     N25355   6.815   1.441   5.935 -0.4202  0.0717  0.3296
  909MOL0     N25356   6.901   1.384   5.857  0.1485 -1.2285  0.0377
  909MOL0     C25357   7.914   1.313   5.143  0.2160 -0.3422  0.0696
  909MOL0     C25358   8.037   1.377   5.151 -0.1081 -0.1798 -0.5383
  909MOL0     C25359   8.497   1.418   5.185 -0.1556 -0.2654  0.3424
  909MOL0     C25360   8.475   1.519   5.280 -0.1017 -0.0421  1.0086
  909MOL0     C25361   8.567   1.625   5.294 -0.9194  0.1199  0.0695
  909MOL0     C25362   8.690   1.615   5.223 -0.0145  0.5862 -0.2429
  909MOL0     O25363   8.785   1.709   5.242  0.1660 -0.4730 -0.1517
  909MOL0     C25364   8.742   1.824   5.169  0.2923 -1.0241 -0.0582
  909MOL0     C25365   8.865   1.895   5.124 -0.7877  0.0127  1.0897
  909MOL0     C25366   8.958   1.813   5.034 -0.1553  1.3597  0.1525
  909MOL0     C25367   8.932   1.819   4.886 -0.3421  0.4372 -0.1351
  909MOL0     C25368   8.806   1.764   4.846 -0.5875 -0.4004  0.0742
  909MOL0     C25369   8.718   1.695   4.795  0.0327  0.4560 -0.9900
  909MOL0     C25370   8.719   1.501   5.144  0.3562  0.0214  0.2135
  909MOL0     C25371   8.620   1.416   5.113 -0.2896 -0.3741  0.4233
  909MOL0     C25372   8.662   1.292   5.026 -0.0530  0.5118  0.4059
  909MOL0     H25373   8.242   1.129   5.276 -0.0473  2.7389  3.9312
  909MOL0     H25374   8.021   1.006   5.253 -0.1134 -0.2219 -1.4766
  909MOL0     H25375   7.731   1.262   5.316  3.3670 -1.1812 -0.3119
  909MOL0     H25376   7.687   1.110   5.375  3.0518  1.2005  1.6507
  909MOL0     H25377   7.562   1.235   5.124 -2.2189 -2.7588 -1.4856
  909MOL0     H25378   7.493   1.118   5.206  0.3083  0.6212  1.3511
  909MOL0     H25379   7.494   1.400   5.297  1.1583  0.3678  0.3253
  909MOL0     H25380   7.364   1.309   5.257 -0.2202  0.5545 -1.1582
  909MOL0     H25381   7.415   1.152   5.457 -0.1975 -0.1331  0.0431
  909MOL0     H25382   7.521   1.287   5.512  0.2394  0.9037 -1.1819
  909MOL0     H25383   7.224   1.259   5.472  0.5044  1.7126 -3.3814
  909MOL0     H25384   7.295   1.418   5.460  1.3169 -1.6154 -3.6426
  909MOL0     H25385   7.292   1.225   5.693 -0.5048  0.3517  1.1285
  909MOL0     H25386   7.387   1.375   5.695  0.5346 -0.8263 -0.7563
  909MOL0     H25387   7.081   1.370   5.639  0.2320  1.6805 -0.5325
  909MOL0     H25388   7.169   1.502   5.707  0.4729 -0.3895 -0.8014
  909MOL0     H25389   7.124   1.235   5.857 -0.2843  0.1993 -0.8066
  909MOL0     H25390   7.225   1.362   5.920  2.0393  0.0140 -3.4671
  909MOL0     H25391   7.103   1.513   6.074 -0.8706  0.8847  1.0030
  909MOL0     H25392   6.877   1.600   6.228 -0.0533  3.4148  0.5775
  909MOL0     H25393   6.714   1.570   6.153  0.3663 -1.7538  2.6665
  909MOL0     H25394   6.922   1.778   6.057  0.3518 -0.1967 -0.8564
  909MOL0     H25395   6.753   1.748   5.993  1.9925 -1.9196 -0.9262
  909MOL0     H25396   6.857   1.868   6.262  1.0649  0.6109 -0.9826
  909MOL0     H25397   6.779   1.941   6.128  0.6659  0.2963  1.0097
  909MOL0     H25398   6.568   1.801   6.175 -1.0974  0.9741  2.0592
  909MOL0     H25399   6.661   1.740   6.324  2.1856 -0.6529 -1.1127
  909MOL0     H25400   6.600   2.049   6.550 -1.0733  0.6571  0.0473
  909MOL0     H25401   6.583   2.085   6.772 -1.1075  0.0646 -1.4398
  909MOL0     H25402   6.518   1.957   6.870 -1.7818  0.8030  0.9710
  909MOL0     H25403   6.412   2.087   6.832 -1.1918 -0.7184  0.7999
  909MOL0     H25404   5.998   1.562   6.744 -0.2972 -0.5535 -1.5238
  909MOL0     H25405   5.756   1.552   6.832 -1.0453  0.7422 -0.6199
  909MOL0     H25406   5.583   1.948   6.978 -0.9309  0.4216  0.3275
  909MOL0     H25407   5.568   1.928   6.803  0.9052  2.6595  1.8955
  909MOL0     H25408   5.378   1.755   6.868 -1.3087  0.4731  1.1593
  909MOL0     H25409   5.369   1.856   7.018  1.6483  0.0391  1.8405
  909MOL0     H25410   5.378   1.985   6.743 -1.0685 -0.1337 -0.0878
  909MOL0     H25411   5.297   2.043   6.891 -1.1897 -0.5223 -0.2249
  909MOL0     H25412   5.109   1.967   6.833  0.1878  0.0876  0.2496
  909MOL0     H25413   5.173   1.803   6.808  0.9667 -0.7523  0.0745
  909MOL0     H25414   5.226   1.922   6.563 -0.0624  0.7271  0.2096
  909MOL0     H25415   5.069   1.863   6.593 -0.8931  0.2807 -1.1589
  909MOL0     H25416   5.167   2.151   6.649 -0.5770 -0.3275  0.8693
  909MOL0     H25417   5.000   2.081   6.668 -0.8969  2.9329 -1.3604
  909MOL0     H25418   4.979   2.056   6.437 -1.2827  0.3540  1.0982
  909MOL0     H25419   5.151   2.095   6.408  0.4359  0.3715  0.5741
  909MOL0     H25420   4.967   2.297   6.544 -0.5312 -2.2509  0.7135
  909MOL0     H25421   4.988   2.285   6.370 -1.6858 -0.4116 -0.0989
  909MOL0     H25422   5.795   1.964   6.923  0.0717 -1.0314  0.6157
  909MOL0     H25423   6.025   1.966   6.881 -1.3916  0.8274 -0.6711
  909MOL0     H25424   6.223   1.755   6.496  2.1187 -1.7932  0.0966
  909MOL0     H25425   6.338   1.817   6.311 -0.3540 -1.5466 -0.4367
  909MOL0     H25426   7.822   1.364   5.115  0.1332  0.5838  1.9189
  909MOL0     H25427   8.027   1.478   5.112 -0.7414 -0.6096 -1.5279
  909MOL0     H25428   8.380   1.529   5.331 -0.3440 -1.0461  0.7728
  909MOL0     H25429   8.553   1.696   5.375 -1.3870 -1.6387  1.5771
  909MOL0     H25430   8.685   1.813   5.076  0.4287  4.1218 -1.0373
  909MOL0     H25431   8.678   1.889   5.229  1.9467  2.8751 -2.0878
  909MOL0     H25432   8.917   1.913   5.218  1.6250  1.2836 -0.3639
  909MOL0     H25433   8.830   1.982   5.067 -3.8707 -1.1488  1.0582
  909MOL0     H25434   9.060   1.848   5.054  1.1994 -1.3412 -1.4030
  909MOL0     H25435   8.975   1.708   5.062  0.7896  1.1164 -1.2472
  909MOL0     H25436   9.019   1.775   4.836 -0.2371  0.0481  0.3848
  909MOL0     H25437   8.923   1.925   4.859  0.7391 -0.1010 -3.0162
  909MOL0     H25438   8.631   1.642   4.760  0.7271 -0.3250 -1.5835
  909MOL0     H25439   8.820   1.475   5.114  0.1195 -2.6056  1.4408
  909MOL0     H25440   8.677   1.205   5.091  1.3669 -0.9581 -1.7550
  909MOL0     H25441   8.585   1.264   4.954  0.3153  0.9090 -0.1569
  909MOL0     H25442   8.745   1.305   4.956 -0.5256 -1.2311 -0.5238
  910MOL0     O25443   7.045   0.124   3.540  0.1692  0.1092  0.3254
  910MOL0     C25444   6.941   0.186   3.547  0.7250 -1.6206 -0.4337
  910MOL0     O25445   6.833   0.160   3.628  0.0679 -0.6615 -0.6744
  910MOL0     C25446   6.848   0.064   3.727 -0.6121 -0.2126  0.0743
  910MOL0     C25447   6.815   0.090   3.865 -0.5184  0.0814  0.3709
  910MOL0     C25448   6.836  -0.007   3.964 -0.3287  0.8065 -0.7055
  910MOL0     C25449   6.908  -0.128   3.932 -0.4790 -0.6776 -0.4201
  910MOL0     O25450   6.955  -0.217   4.030 -0.0046  0.0265 -1.1436
  910MOL0     C25451   7.069  -0.290   4.003 -0.0945  0.7456 -0.0531
  910MOL0     C25452   7.016  -0.428   3.965 -0.8926 -0.2855  0.1895
  910MOL0     C25453   7.144  -0.501   3.911  0.4159  0.8122 -0.0189
  910MOL0     C25454   7.105  -0.651   3.884 -0.0517  0.3944  0.4002
  910MOL0     C25455   7.000  -0.671   3.776 -0.5055 -0.4063  0.0741
  910MOL0     C25456   7.056  -0.626   3.644 -0.2800 -0.0584 -0.2591
  910MOL0     C25457   6.967  -0.671   3.531 -0.4459  0.4379 -0.6262
  910MOL0     C25458   7.030  -0.771   3.439 -0.3198  0.9073 -0.1788
  910MOL0     N25459   7.148  -0.714   3.375 -0.2673 -0.3834 -0.0774
  910MOL0     C25460   7.138  -0.629   3.265 -0.4019  0.2479  0.1880
  910MOL0     C25461   7.264  -0.640   3.209  0.1497 -0.2077  0.3204
  910MOL0     C25462   7.284  -0.579   3.070 -0.0317 -1.2540 -0.4019
  910MOL0     C25463   7.424  -0.599   3.021  0.1672  0.0224  0.0877
  910MOL0     C25464   7.437  -0.513   2.895 -0.8591  0.3001  0.6290
  910MOL0     C25465   7.583  -0.496   2.835 -0.6233  0.0849  0.0799
  910MOL0     O25466   7.632  -0.626   2.804 -0.3071 -0.5869 -0.6141
  910MOL0     C25467   7.762  -0.643   2.763 -0.5460 -0.5550 -0.2999
  910MOL0     C25468   7.790  -0.758   2.697  0.3860 -0.9089 -0.5047
  910MOL0     C25469   7.916  -0.793   2.654 -0.3629 -0.0990  1.1754
  910MOL0     C25470   7.936  -0.925   2.576 -0.3104 -0.0827 -0.3895
  910MOL0     C25471   8.019  -0.696   2.671  1.1001 -1.1246 -0.8953
  910MOL0     C25472   8.165  -0.713   2.631  0.0120  0.2020 -0.3844
  910MOL0     O25473   8.243  -0.593   2.607 -0.2866  0.2127 -0.5568
  910MOL0     C25474   8.382  -0.594   2.585 -0.1587 -0.7469 -0.8202
  910MOL0     C25475   8.443  -0.469   2.552 -0.3770 -0.6961 -0.5342
  910MOL0     C25476   8.587  -0.453   2.533 -0.0929  0.1533 -0.4146
  910MOL0     C25477   8.664  -0.568   2.529 -0.2193 -0.6180 -0.9705
  910MOL0     O25478   8.792  -0.565   2.486 -0.8438 -0.3133  0.1661
  910MOL0     C25479   8.879  -0.473   2.549 -0.2398  0.0085  0.4639
  910MOL0     C25480   9.003  -0.456   2.460  0.0965  0.2624  0.3645
  910MOL0     C25481   9.080  -0.590   2.433  0.5691  0.2339 -0.5270
  910MOL0     C25482   9.199  -0.570   2.332  0.1527 -0.0973 -0.2032
  910MOL0     C25483   9.314  -0.659   2.368 -1.3518  0.6683 -0.5098
  910MOL0     C25484   9.373  -0.612   2.508 -0.1574  0.6682  0.3185
  910MOL0     C25485   9.495  -0.523   2.481 -0.5983 -0.5026 -0.3435
  910MOL0     C25486   9.506  -0.407   2.589  0.6764  0.4117 -0.6647
  910MOL0    Cl25487   9.371  -0.289   2.597  0.1685 -0.1802 -0.0479
  910MOL0     C25488   8.614  -0.689   2.568 -0.2521  0.1876 -0.1924
  910MOL0     C25489   8.477  -0.702   2.606 -0.3630 -0.1668  0.1774
  910MOL0     O25490   8.205  -0.828   2.635 -0.0235 -0.1733 -0.4616
  910MOL0     C25491   7.980  -0.577   2.736  0.0848 -0.2498  0.3321
  910MOL0     C25492   7.857  -0.553   2.790 -0.2327 -0.9480 -0.3202
  910MOL0     N25493   7.345  -0.703   3.301 -0.0428  0.2629  0.1264
  910MOL0     N25494   7.277  -0.740   3.407 -0.2889 -1.0247 -0.4456
  910MOL0     C25495   6.945  -0.147   3.797 -0.3737  0.3628 -0.1757
  910MOL0     C25496   6.910  -0.060   3.693  0.0359 -0.6186 -0.1891
  910MOL0     C25497   6.930   0.295   3.448  0.6047  0.3911 -0.4302
  910MOL0     C25498   7.045   0.368   3.412 -0.5939  0.0127 -0.4684
  910MOL0     C25499   7.046   0.467   3.315 -0.2411 -0.3415  0.7371
  910MOL0     C25500   6.931   0.514   3.257  0.2605  0.0957  0.2275
  910MOL0     O25501   6.919   0.620   3.167  0.2725 -0.1671  0.1312
  910MOL0     C25502   7.037   0.650   3.095 -0.1002 -0.0493 -0.4539
  910MOL0     C25503   7.006   0.735   2.973 -0.4253  0.2109  0.0293
  910MOL0     C25504   7.117   0.709   2.870 -0.4312 -0.0922 -0.2284
  910MOL0     C25505   7.157   0.828   2.788  0.3490 -0.4265 -0.7616
  910MOL0     C25506   7.226   0.938   2.859  0.4434  0.9276 -0.1242
  910MOL0     C25507   7.279   1.036   2.902 -0.3333  0.4466 -0.7198
  910MOL0     C25508   6.813   0.446   3.299 -1.0303 -0.4472  0.1692
  910MOL0     C25509   6.812   0.346   3.387  0.1731 -0.2409 -0.2958
  910MOL0     C25510   6.680   0.303   3.442 -0.3018  1.4673  0.1512
  910MOL0     H25511   6.775   0.184   3.903  1.3852  1.1847 -0.2036
  910MOL0     H25512   6.797   0.007   4.064 -0.6042  0.2236 -0.7264
  910MOL0     H25513   7.122  -0.296   4.099 -0.7589  0.6629  0.3119
  910MOL0     H25514   7.141  -0.246   3.934  1.8025 -1.7793  0.1880
  910MOL0     H25515   6.991  -0.471   4.063 -0.5295  1.3224  1.0088
  910MOL0     H25516   6.925  -0.432   3.904 -0.0812 -3.3684 -1.0440
  910MOL0     H25517   7.183  -0.457   3.819  0.2017  1.1442  0.0435
  910MOL0     H25518   7.209  -0.494   3.998  1.3397 -1.4896 -0.4442
  910MOL0     H25519   7.191  -0.714   3.860 -0.9350 -0.8488  0.4114
  910MOL0     H25520   7.066  -0.694   3.977  2.7803 -0.4652  1.2772
  910MOL0     H25521   6.903  -0.628   3.804 -0.5376  0.1063 -0.7752
  910MOL0     H25522   6.986  -0.779   3.764 -3.3904 -0.0991  0.1306
  910MOL0     H25523   7.062  -0.517   3.634  0.8838 -0.0960 -0.1120
  910MOL0     H25524   7.162  -0.652   3.638  0.3031  2.3052 -1.6949
  910MOL0     H25525   6.942  -0.587   3.465 -0.3312 -1.2141 -2.9173
  910MOL0     H25526   6.873  -0.718   3.563  0.1096 -0.3715 -0.1664
  910MOL0     H25527   7.064  -0.863   3.487  0.9345  0.7380 -1.3529
  910MOL0     H25528   6.954  -0.809   3.370  0.4775 -2.1188  0.4593
  910MOL0     H25529   7.051  -0.589   3.213 -0.8776  0.4174  1.1029
  910MOL0     H25530   7.264  -0.471   3.074 -2.6409 -1.5839 -2.2491
  910MOL0     H25531   7.210  -0.623   3.003  0.6825 -4.4497  0.7353
  910MOL0     H25532   7.487  -0.569   3.104  2.3111 -1.7512 -0.8050
  910MOL0     H25533   7.455  -0.702   3.001  2.3208  0.7171 -0.3866
  910MOL0     H25534   7.391  -0.567   2.812  1.5162 -3.7611  1.6468
  910MOL0     H25535   7.404  -0.410   2.912 -1.0671  0.4627 -0.6623
  910MOL0     H25536   7.575  -0.436   2.744  2.6965 -0.4170 -0.6900
  910MOL0     H25537   7.654  -0.455   2.909 -0.0922  0.6761 -0.7354
  910MOL0     H25538   7.722  -0.842   2.688 -0.2848 -0.9254  3.1954
  910MOL0     H25539   7.854  -0.936   2.505 -2.1524  0.7822  1.5189
  910MOL0     H25540   7.916  -1.010   2.641  1.9770 -1.5514 -1.4731
  910MOL0     H25541   8.034  -0.943   2.530  1.5350 -1.4420  3.6334
  910MOL0     H25542   8.381  -0.381   2.541  1.5904  0.5677 -2.3687
  910MOL0     H25543   8.633  -0.360   2.503  0.4531 -0.2033 -0.6958
  910MOL0     H25544   8.832  -0.375   2.561  2.0967  1.2298  0.1942
  910MOL0     H25545   8.916  -0.507   2.646 -1.8508  0.0269  1.1274
  910MOL0     H25546   8.982  -0.405   2.365  0.3451  1.0496  0.7296
  910MOL0     H25547   9.070  -0.391   2.518 -0.4768  2.5463 -1.3843
  910MOL0     H25548   9.011  -0.659   2.384 -0.2189  0.3763  0.3528
  910MOL0     H25549   9.115  -0.636   2.526  2.1420 -0.1523 -1.2778
  910MOL0     H25550   9.223  -0.463   2.322 -2.8813  0.6467 -0.5420
  910MOL0     H25551   9.157  -0.598   2.235 -1.1609 -0.6242  0.4917
  910MOL0     H25552   9.278  -0.762   2.376  2.1950 -0.7179 -0.6161
  910MOL0     H25553   9.392  -0.668   2.292 -1.0845  3.1744 -0.6280
  910MOL0     H25554   9.417  -0.693   2.568 -0.9563  0.2704  0.3761
  910MOL0     H25555   9.301  -0.549   2.561  1.6805  0.6083  3.1122
  910MOL0     H25556   9.482  -0.475   2.383 -1.4523 -1.4360 -0.7194
  910MOL0     H25557   9.586  -0.583   2.490  1.1392  2.2992  2.8566
  910MOL0     H25558   9.599  -0.352   2.570  1.2563 -0.3716 -0.1861
  910MOL0     H25559   9.516  -0.448   2.690  1.4438  3.4818  0.6022
  910MOL0     H25560   8.676  -0.778   2.560 -0.6384 -0.3529  2.1911
  910MOL0     H25561   8.454  -0.801   2.645 -1.0991 -0.1668 -0.2375
  910MOL0     H25562   8.064  -0.513   2.759 -0.1876 -0.0183  0.7087
  910MOL0     H25563   7.846  -0.466   2.854 -1.1926 -1.4435  0.2096
  910MOL0     H25564   6.991  -0.240   3.764 -0.9395 -0.3893  1.0694
  910MOL0     H25565   6.941  -0.086   3.592 -0.3054 -1.4452 -0.0943
  910MOL0     H25566   7.140   0.334   3.451 -1.8160 -1.2592  1.5919
  910MOL0     H25567   7.143   0.507   3.287 -0.7825  1.5534  1.4393
  910MOL0     H25568   7.107   0.696   3.165 -0.7239 -3.1593  2.4582
  910MOL0     H25569   7.085   0.555   3.069 -0.9527 -0.9736  1.2222
  910MOL0     H25570   7.016   0.841   3.001  1.1634  0.1220 -0.1244
  910MOL0     H25571   6.915   0.713   2.916  1.0831 -0.1674 -2.3562
  910MOL0     H25572   7.212   0.681   2.916 -1.3527  0.6850  2.2705
  910MOL0     H25573   7.081   0.621   2.816 -0.0480 -1.3673  1.5096
  910MOL0     H25574   7.072   0.880   2.743 -1.1609 -0.8177  1.4489
  910MOL0     H25575   7.226   0.791   2.712  2.7544 -1.9351  1.9428
  910MOL0     H25576   7.321   1.127   2.941  3.3222 -0.6134 -1.7271
  910MOL0     H25577   6.724   0.483   3.248  1.2059  1.4696 -2.6958
  910MOL0     H25578   6.676   0.329   3.548 -2.5974  0.2562  0.4099
  910MOL0     H25579   6.602   0.368   3.401 -0.2587  0.0623 -2.3749
  910MOL0     H25580   6.650   0.199   3.425 -2.0080  1.3809  3.0166
  911MOL0     O25581   9.564   9.739   6.861  0.5741  0.0923  0.1584
  911MOL0     C25582   9.533   9.690   6.969  0.5605 -0.4453 -0.9005
  911MOL0     O25583   9.407   9.642   7.001  0.4039  0.2776  0.4483
  911MOL0     C25584   9.324   9.609   6.899 -0.2657 -0.5893  0.2332
  911MOL0     C25585   9.341   9.483   6.849  0.4217  0.3998  0.2773
  911MOL0     C25586   9.244   9.439   6.757  0.8827  0.7923 -0.2328
  911MOL0     C25587   9.134   9.517   6.722  0.0324  0.1953 -0.2892
  911MOL0     O25588   9.042   9.465   6.641  0.7762  0.1567 -0.1235
  911MOL0     C25589   8.946   9.378   6.702  0.0006  0.1450  0.2422
  911MOL0     C25590   8.809   9.394   6.633 -1.2102  0.1642 -0.4762
  911MOL0     C25591   8.770   9.546   6.642  0.3520 -0.3589  0.8648
  911MOL0     C25592   8.674   9.587   6.526  0.0968 -0.0069 -0.3252
  911MOL0     C25593   8.619   9.728   6.549  0.3076 -0.4408 -0.3437
  911MOL0     C25594   8.508   9.736   6.651 -0.4595 -0.6253 -0.2444
  911MOL0     C25595   8.456   9.883   6.678  0.3404 -0.2958 -0.2218
  911MOL0     C25596   8.353   9.926   6.570  0.0455  0.8767 -0.1250
  911MOL0     N25597   8.221   9.859   6.578 -0.1758 -0.0740 -0.2006
  911MOL0     C25598   8.131   9.878   6.681  0.0695 -0.0452 -0.4812
  911MOL0     C25599   8.036   9.783   6.661 -0.5460 -0.2865 -0.4911
  911MOL0     C25600   7.924   9.756   6.762  1.2643 -0.5860 -0.6555
  911MOL0     C25601   7.954   9.791   6.914  0.2493 -0.4881 -0.4276
  911MOL0     C25602   7.856   9.738   7.023 -0.0371  0.5113 -0.8724
  911MOL0     C25603   7.900   9.755   7.169 -0.0604  0.2026 -0.1039
  911MOL0     O25604   8.013   9.678   7.204 -1.0145  0.1388 -0.4315
  911MOL0     C25605   8.067   9.704   7.323  0.7705  0.1599 -0.4841
  911MOL0     C25606   8.164   9.798   7.344 -0.5749 -0.7866 -0.2122
  911MOL0     C25607   8.216   9.829   7.472  1.2808  0.1292 -1.5196
  911MOL0     C25608   8.329   9.936   7.484  0.2016 -0.3838  0.6189
  911MOL0     C25609   8.154   9.762   7.582  0.6871  0.5512 -0.4027
  911MOL0     C25610   8.179   9.791   7.731 -0.4238  0.8878  0.5066
  911MOL0     O25611   8.094   9.736   7.815 -0.0691 -0.1573  0.7618
  911MOL0     C25612   8.085   9.764   7.949 -0.4873  0.3121  0.6595
  911MOL0     C25613   8.140   9.668   8.045 -0.4842  0.2904 -0.8139
  911MOL0     C25614   8.139   9.705   8.181  0.1198  0.3971 -0.1879
  911MOL0     C25615   8.091   9.825   8.230 -0.4650  0.2441 -0.1439
  911MOL0     O25616   8.099   9.857   8.363 -0.4039 -0.0657  0.1936
  911MOL0     C25617   7.969   9.862   8.435  0.6736 -0.4636  0.1544
  911MOL0     C25618   7.892   9.732   8.429  0.9133  0.5764 -0.0014
  911MOL0     C25619   7.779   9.719   8.537 -1.1400  0.4986 -1.4591
  911MOL0     C25620   7.840   9.695   8.674 -0.1016  0.4251  0.3066
  911MOL0     C25621   7.727   9.629   8.766 -0.2221  1.3122  0.1875
  911MOL0     C25622   7.756   9.627   8.918 -0.2627 -0.6371  0.5552
  911MOL0     C25623   7.883   9.549   8.944  0.3758  0.5318  0.6834
  911MOL0     C25624   7.929   9.551   9.088  0.3814  0.7238  0.1274
  911MOL0    Cl25625   7.964   9.717   9.145 -0.2881 -0.2586 -0.0371
  911MOL0     C25626   8.052   9.913   8.138  0.2647 -1.1251  0.3288
  911MOL0     C25627   8.044   9.891   7.996  0.0649  0.0202 -0.4456
  911MOL0     O25628   8.267   9.869   7.763  0.6424  0.3114 -0.1806
  911MOL0     C25629   8.045   9.670   7.557 -0.1647  0.3403 -0.0229
  911MOL0     C25630   8.005   9.643   7.434 -0.0735 -0.2681  0.2056
  911MOL0     N25631   8.068   9.709   6.553  0.5057  0.9106  0.2070
  911MOL0     N25632   8.188   9.746   6.505 -0.2351 -0.5031 -0.3851
  911MOL0     C25633   9.116   9.648   6.777 -0.3529  0.2284  0.5508
  911MOL0     C25634   9.222   9.689   6.857 -0.5924 -0.3825  1.0784
  911MOL0     C25635   9.632   9.721   7.074  0.2591 -0.8485 -0.8084
  911MOL0     C25636   9.651   9.615   7.165 -0.3665  0.3140 -0.3672
  911MOL0     C25637   9.743   9.636   7.272 -0.7120 -0.0399 -0.0348
  911MOL0     C25638   9.815   9.752   7.288 -0.8119 -0.0217 -0.3868
  911MOL0     O25639   9.888   9.765   7.404 -0.3954 -0.4801 -0.1687
  911MOL0     C25640  10.024   9.691   7.409  0.4914 -0.6118  0.4207
  911MOL0     C25641  10.030   9.593   7.534  0.5883 -0.0113  0.6698
  911MOL0     C25642  10.024   9.673   7.665  1.1077 -0.7958 -0.8425
  911MOL0     C25643  10.093   9.599   7.778 -0.1744  0.2111  0.2833
  911MOL0     C25644  10.089   9.664   7.907 -1.0905 -0.2621 -0.0374
  911MOL0     C25645  10.083   9.725   8.014  0.1734  0.1684  1.0972
  911MOL0     C25646   9.786   9.869   7.218  0.3222 -0.1920  0.2894
  911MOL0     C25647   9.702   9.850   7.098  0.3160  0.1326 -0.1941
  911MOL0     C25648   9.690   9.960   6.993 -0.5008 -0.3583  0.1669
  911MOL0     H25649   9.427   9.420   6.865 -0.0490 -0.0791  0.9672
  911MOL0     H25650   9.265   9.345   6.707  2.0770  1.7146 -1.5608
  911MOL0     H25651   8.943   9.397   6.810  3.6679  1.6463  0.2281
  911MOL0     H25652   8.979   9.275   6.687 -1.1587 -0.0720 -1.0586
  911MOL0     H25653   8.825   9.357   6.531  1.6374 -3.4028  1.0282
  911MOL0     H25654   8.730   9.339   6.685 -0.3042 -0.1845  0.5519
  911MOL0     H25655   8.724   9.569   6.739 -0.3377  0.9535  0.2448
  911MOL0     H25656   8.860   9.607   6.635  0.9013 -1.3672 -2.4579
  911MOL0     H25657   8.734   9.577   6.435  1.1695 -0.6783  0.4344
  911MOL0     H25658   8.594   9.512   6.519  1.9703 -2.3357  1.5008
  911MOL0     H25659   8.576   9.752   6.451  0.2224  1.8745  0.1990
  911MOL0     H25660   8.697   9.804   6.555  0.1519  0.0621 -3.2188
  911MOL0     H25661   8.428   9.670   6.616 -0.6731 -0.9215  0.7768
  911MOL0     H25662   8.540   9.695   6.747 -1.3309 -4.1047 -1.3281
  911MOL0     H25663   8.539   9.953   6.669  0.0506  0.0761  0.0040
  911MOL0     H25664   8.417   9.885   6.780 -0.4380 -1.5780 -0.4747
  911MOL0     H25665   8.333  10.032   6.587  1.7198  0.9199  1.9953
  911MOL0     H25666   8.398   9.910   6.472 -0.5379  0.7203 -0.3719
  911MOL0     H25667   8.137   9.946   6.765 -0.0466 -0.9522  0.2801
  911MOL0     H25668   7.902   9.650   6.753 -3.3880 -0.3701  3.5664
  911MOL0     H25669   7.836   9.820   6.744  1.0264 -0.0815  1.8813
  911MOL0     H25670   8.056   9.757   6.935 -0.0937 -2.6851 -1.9835
  911MOL0     H25671   7.949   9.899   6.930  1.4434 -0.8476  3.5157
  911MOL0     H25672   7.756   9.782   7.023 -0.1554  0.6935  3.4408
  911MOL0     H25673   7.844   9.630   7.009  0.6327  0.6890 -3.3542
  911MOL0     H25674   7.921   9.860   7.191 -0.9209  0.3661 -0.0552
  911MOL0     H25675   7.824   9.716   7.238  0.7315  2.1634  2.0050
  911MOL0     H25676   8.196   9.859   7.261 -3.8558  0.2496 -0.8579
  911MOL0     H25677   8.357   9.954   7.380 -3.0215  0.7062 -0.2009
  911MOL0     H25678   8.408   9.888   7.542  1.5590  0.2696 -0.6235
  911MOL0     H25679   8.297  10.025   7.540 -1.0910 -1.1070  1.0692
  911MOL0     H25680   8.181   9.575   8.007  1.2573  0.4242  0.5936
  911MOL0     H25681   8.176   9.632   8.253  2.8151 -0.1743 -2.0128
  911MOL0     H25682   8.006   9.877   8.536  0.5018 -0.2373  0.1844
  911MOL0     H25683   7.906   9.945   8.401 -0.8409 -2.0901 -1.2678
  911MOL0     H25684   7.838   9.730   8.333  1.6586  0.3997 -0.4237
  911MOL0     H25685   7.960   9.648   8.440 -1.8579 -2.0357 -1.2437
  911MOL0     H25686   7.729   9.623   8.520  1.9849 -1.4761 -0.3489
  911MOL0     H25687   7.707   9.801   8.525  0.0622  1.7158 -0.6356
  911MOL0     H25688   7.882   9.787   8.718  0.8211  0.7161 -1.1342
  911MOL0     H25689   7.922   9.623   8.670 -1.0282 -0.5720 -2.5280
  911MOL0     H25690   7.633   9.685   8.759  0.4722  2.3925 -0.8892
  911MOL0     H25691   7.727   9.528   8.723  0.4113 -0.1507  3.3356
  911MOL0     H25692   7.665   9.584   8.960 -1.7979  0.3256 -1.5728
  911MOL0     H25693   7.772   9.735   8.926  2.8227 -0.7520 -2.1122
  911MOL0     H25694   7.968   9.596   8.894 -2.1851 -0.1512 -5.0492
  911MOL0     H25695   7.867   9.447   8.909  0.4814  0.1911  1.6057
  911MOL0     H25696   8.014   9.484   9.101 -0.9373 -0.7688  1.4405
  911MOL0     H25697   7.848   9.507   9.147 -0.8447  2.0623 -0.4788
  911MOL0     H25698   8.020  10.008   8.178  0.0658 -1.0733  0.0478
  911MOL0     H25699   8.020   9.968   7.923 -3.2561 -2.0867 -1.7892
  911MOL0     H25700   7.996   9.616   7.638 -0.4325  1.2775  0.4543
  911MOL0     H25701   7.918   9.584   7.405 -0.7321  1.4155 -1.4682
  911MOL0     H25702   9.034   9.713   6.750  1.8422  2.6812 -0.6406
  911MOL0     H25703   9.229   9.786   6.906 -2.3896 -0.0059  0.6238
  911MOL0     H25704   9.611   9.517   7.139 -0.9200  0.6277 -0.7141
  911MOL0     H25705   9.759   9.554   7.341  2.5236  0.6468  0.1744
  911MOL0     H25706  10.039   9.638   7.315  0.6495  1.1537 -0.5951
  911MOL0     H25707  10.108   9.760   7.419  0.2519 -0.1462 -0.6475
  911MOL0     H25708  10.129   9.551   7.516  0.8119  1.3071 -1.5576
  911MOL0     H25709   9.954   9.515   7.530 -2.1108  2.3581  2.0103
  911MOL0     H25710  10.073   9.769   7.646 -0.9264 -0.2793 -4.4408
  911MOL0     H25711   9.922   9.697   7.697  1.5615  0.4954 -0.3049
  911MOL0     H25712  10.198   9.587   7.750 -0.9034 -1.7914 -1.8882
  911MOL0     H25713  10.053   9.498   7.783 -1.5212  0.5522 -2.2568
  911MOL0     H25714  10.067   9.790   8.098 -1.4643  4.4967 -2.1312
  911MOL0     H25715   9.838   9.963   7.236  1.6005 -0.1270 -3.0371
  911MOL0     H25716   9.586   9.979   6.967 -1.3039 -4.3270 -0.0621
  911MOL0     H25717   9.733  10.056   7.024  1.3947 -1.6068  1.6867
  911MOL0     H25718   9.737   9.924   6.901 -0.3973  2.4949 -0.9928
  912MOL0     O25719   2.929   2.559   1.267  1.0207 -0.1753  0.0909
  912MOL0     C25720   2.848   2.530   1.187  0.7573  0.9629  0.8931
  912MOL0     O25721   2.852   2.555   1.048  0.3073  0.3937 -0.5745
  912MOL0     C25722   2.972   2.585   1.002 -0.0813  0.7727 -0.2940
  912MOL0     C25723   3.064   2.473   0.991 -0.1221  0.2318  0.0645
  912MOL0     C25724   3.183   2.501   0.921  0.4577  0.1644 -0.4935
  912MOL0     C25725   3.231   2.626   0.876  0.2176  0.3902 -1.2304
  912MOL0     O25726   3.344   2.650   0.794  0.9134  0.0382  0.1913
  912MOL0     C25727   3.456   2.683   0.875 -0.3700 -0.2705 -0.4054
  912MOL0     C25728   3.587   2.628   0.813  0.2439  0.3950  0.4783
  912MOL0     C25729   3.720   2.665   0.889 -0.0464  0.2902  0.4906
  912MOL0     C25730   3.841   2.608   0.808  1.5911  0.0311 -0.2677
  912MOL0     C25731   3.967   2.614   0.881 -0.6115  0.1359 -0.5056
  912MOL0     C25732   4.084   2.572   0.783  0.4507  0.9128 -0.3896
  912MOL0     C25733   4.216   2.541   0.867 -0.0254 -0.6517  0.4021
  912MOL0     C25734   4.320   2.474   0.780 -0.3455  1.0696  0.6604
  912MOL0     N25735   4.456   2.499   0.831 -0.4595  0.1835  0.6728
  912MOL0     C25736   4.523   2.613   0.811 -0.0314  0.2017 -0.0250
  912MOL0     C25737   4.657   2.594   0.856 -0.0841  0.2088 -0.6033
  912MOL0     C25738   4.767   2.694   0.883  0.2580  0.3747 -0.2469
  912MOL0     C25739   4.722   2.833   0.935  0.1241  0.2564 -0.4309
  912MOL0     C25740   4.836   2.929   0.956  0.0835  0.2780 -0.1391
  912MOL0     C25741   4.850   3.029   0.838 -0.2139  0.2860  0.2697
  912MOL0     O25742   4.915   3.154   0.890  0.3140  0.9859 -0.0501
  912MOL0     C25743   5.048   3.145   0.915  0.8102 -0.3307  0.7404
  912MOL0     C25744   5.093   3.139   1.054  0.7810  0.5623  0.4527
  912MOL0     C25745   5.225   3.164   1.089  0.2255 -0.1310 -0.4324
  912MOL0     C25746   5.256   3.145   1.235  0.1627 -0.4084  0.6738
  912MOL0     C25747   5.322   3.191   0.988  1.0954 -0.7586 -0.0121
  912MOL0     C25748   5.471   3.193   1.007 -0.0579 -0.1548 -0.5446
  912MOL0     O25749   5.534   3.270   0.914 -0.1214 -0.1386  0.0041
  912MOL0     C25750   5.665   3.288   0.920 -0.3265 -0.5920  0.6270
  912MOL0     C25751   5.724   3.381   1.005  0.4279  1.0055 -0.4243
  912MOL0     C25752   5.857   3.423   0.980  0.4765  0.5631 -0.3755
  912MOL0     C25753   5.940   3.351   0.891  1.2949  0.4719 -0.1358
  912MOL0     O25754   6.076   3.377   0.871  0.1577 -0.3517  0.3682
  912MOL0     C25755   6.144   3.452   0.977  0.0880 -0.1610 -0.2752
  912MOL0     C25756   6.293   3.413   0.983  1.0451  0.4695  0.4064
  912MOL0     C25757   6.368   3.476   0.866  0.0920  0.0689  0.0030
  912MOL0     C25758   6.486   3.390   0.819 -0.9873 -0.4824  0.8312
  912MOL0     C25759   6.602   3.484   0.768 -0.2488  0.3292 -0.0317
  912MOL0     C25760   6.663   3.563   0.880  1.4191  0.4451  0.4684
  912MOL0     C25761   6.731   3.481   0.997  0.3035 -0.7092 -0.1943
  912MOL0     C25762   6.811   3.570   1.092 -1.2774  0.5221  0.2608
  912MOL0    Cl25763   6.973   3.633   1.033 -0.0972 -0.2682  0.2324
  912MOL0     C25764   5.877   3.244   0.821 -0.4080 -0.4039  1.1037
  912MOL0     C25765   5.741   3.215   0.826  0.0273 -0.3531 -0.5776
  912MOL0     O25766   5.522   3.138   1.108  0.2704  0.3108 -0.2971
  912MOL0     C25767   5.270   3.203   0.852  0.5335 -0.3710  0.3008
  912MOL0     C25768   5.140   3.184   0.820  0.1260  0.3845 -0.2420
  912MOL0     N25769   4.649   2.464   0.907  0.7042  1.5098 -0.1485
  912MOL0     N25770   4.539   2.405   0.876  0.4952 -0.2833  0.6802
  912MOL0     C25771   3.137   2.735   0.905  0.5784  0.0894  0.1084
  912MOL0     C25772   3.006   2.708   0.951  0.2518  0.0781  0.6117
  912MOL0     C25773   2.725   2.463   1.242  0.8368 -0.0100 -0.2157
  912MOL0     C25774   2.720   2.431   1.381 -0.4383  0.0789  0.3846
  912MOL0     C25775   2.603   2.384   1.444  0.9526 -0.1918  0.0925
  912MOL0     C25776   2.492   2.348   1.365 -1.3408 -0.8533  0.1847
  912MOL0     O25777   2.384   2.300   1.437  0.0850 -0.2314  0.1031
  912MOL0     C25778   2.262   2.276   1.367  0.0365 -0.1023 -0.4064
  912MOL0     C25779   2.179   2.166   1.451  0.5337 -0.4202  0.4307
  912MOL0     C25780   2.191   2.212   1.592  0.1710 -0.1053 -0.3035
  912MOL0     C25781   2.119   2.109   1.676  0.2428 -0.1520  0.6555
  912MOL0     C25782   1.979   2.096   1.638 -0.5223 -0.3746  0.6653
  912MOL0     C25783   1.857   2.085   1.615  0.3313 -0.5140  0.4489
  912MOL0     C25784   2.505   2.368   1.224  0.8153 -0.3079 -0.7884
  912MOL0     C25785   2.611   2.426   1.165 -0.2587  0.1374 -0.0700
  912MOL0     C25786   2.604   2.436   1.016  0.1203  0.9490 -0.6509
  912MOL0     H25787   3.039   2.374   1.029 -0.4913  0.1497 -0.3896
  912MOL0     H25788   3.249   2.420   0.889 -1.2777 -1.8225  0.6583
  912MOL0     H25789   3.456   2.645   0.977 -2.0466 -0.5424 -0.4886
  912MOL0     H25790   3.458   2.792   0.887 -1.9208 -0.2125 -0.5353
  912MOL0     H25791   3.579   2.519   0.818 -0.5638  0.3575 -1.2100
  912MOL0     H25792   3.591   2.652   0.707  1.6261  0.4273  0.5147
  912MOL0     H25793   3.722   2.774   0.887  1.2091  0.2700 -0.2882
  912MOL0     H25794   3.719   2.638   0.995  0.0188 -0.4884  0.3042
  912MOL0     H25795   3.819   2.509   0.768 -0.2999  0.3414 -0.1227
  912MOL0     H25796   3.859   2.668   0.718  1.6607  0.5659  0.0957
  912MOL0     H25797   3.963   2.551   0.970 -0.2154  0.7955 -0.0132
  912MOL0     H25798   3.991   2.715   0.917 -2.7667 -0.0891  1.8464
  912MOL0     H25799   4.050   2.487   0.723  2.1726  0.0174 -0.1782
  912MOL0     H25800   4.099   2.654   0.712 -1.0515  1.8721  0.3476
  912MOL0     H25801   4.201   2.470   0.949 -0.1251 -1.1446 -0.0304
  912MOL0     H25802   4.245   2.635   0.914 -0.3957 -0.5152  0.3616
  912MOL0     H25803   4.287   2.370   0.767  0.7789  1.0270 -2.5754
  912MOL0     H25804   4.323   2.520   0.681 -1.1619 -0.7773 -0.2699
  912MOL0     H25805   4.475   2.703   0.774  1.1912  0.4264 -1.1525
  912MOL0     H25806   4.836   2.706   0.799  2.4869 -0.2052  1.4158
  912MOL0     H25807   4.831   2.645   0.957 -3.7988 -3.1787  1.3255
  912MOL0     H25808   4.642   2.862   0.865  0.9053  2.4940 -0.4886
  912MOL0     H25809   4.680   2.815   1.034  1.3082  0.7686  0.1730
  912MOL0     H25810   4.817   2.996   1.040 -0.6897  1.4337 -1.2026
  912MOL0     H25811   4.925   2.866   0.970 -1.1214 -1.8181 -1.3265
  912MOL0     H25812   4.907   2.987   0.755 -1.0700 -1.5454  0.5530
  912MOL0     H25813   4.750   3.050   0.799  1.0691  0.4757 -3.3083
  912MOL0     H25814   5.015   3.099   1.119  0.2153 -0.3026 -0.7105
  912MOL0     H25815   5.163   3.124   1.290 -1.5358  4.3970  0.1269
  912MOL0     H25816   5.295   3.237   1.279  0.4742  0.1080 -0.6256
  912MOL0     H25817   5.327   3.064   1.254 -1.5708 -1.4211  3.5353
  912MOL0     H25818   5.668   3.425   1.087  1.3386  1.9394 -0.2824
  912MOL0     H25819   5.893   3.513   1.029  1.1632  0.3151 -0.4087
  912MOL0     H25820   6.139   3.561   0.970  0.1059 -0.0711  0.9100
  912MOL0     H25821   6.101   3.419   1.072  0.8841 -1.3621 -0.3090
  912MOL0     H25822   6.343   3.443   1.076  0.7011  0.7646  0.4978
  912MOL0     H25823   6.294   3.306   0.962 -1.7935  0.7842 -1.9726
  912MOL0     H25824   6.411   3.573   0.892  2.1822 -0.2299 -2.0024
  912MOL0     H25825   6.308   3.489   0.775  2.3877  0.6401 -1.5069
  912MOL0     H25826   6.454   3.324   0.739  0.0462 -1.0208  0.8519
  912MOL0     H25827   6.531   3.327   0.896  0.5449 -1.7469 -1.0271
  912MOL0     H25828   6.681   3.432   0.714  0.9690  2.9392 -0.8886
  912MOL0     H25829   6.566   3.549   0.688  0.3458  0.7608  0.0473
  912MOL0     H25830   6.601   3.638   0.930  0.3647  0.3954 -0.7040
  912MOL0     H25831   6.742   3.616   0.826  0.6044  0.6305 -0.5574
  912MOL0     H25832   6.804   3.415   0.948  1.0461  0.7877 -1.1971
  912MOL0     H25833   6.660   3.424   1.056  0.6249  0.8170  1.7629
  912MOL0     H25834   6.810   3.519   1.189  0.9428  1.1212  0.6567
  912MOL0     H25835   6.743   3.653   1.114  0.2078  1.9857 -0.4330
  912MOL0     H25836   5.940   3.190   0.751  1.8693  0.5007  2.3469
  912MOL0     H25837   5.695   3.147   0.754  0.2135 -2.4193  1.1444
  912MOL0     H25838   5.344   3.195   0.773 -0.0982 -2.4684 -0.1134
  912MOL0     H25839   5.120   3.184   0.713  0.4985 -0.1560 -0.3138
  912MOL0     H25840   3.153   2.841   0.885  2.1553 -0.4151 -1.5991
  912MOL0     H25841   2.936   2.791   0.951  1.9337  1.6603 -2.0142
  912MOL0     H25842   2.802   2.455   1.448  0.8224  1.4397 -1.5269
  912MOL0     H25843   2.612   2.370   1.551  1.4477  0.0400  0.0801
  912MOL0     H25844   2.209   2.371   1.376 -1.1775 -0.6486 -1.4249
  912MOL0     H25845   2.267   2.232   1.267  0.5855 -0.3536 -0.2660
  912MOL0     H25846   2.229   2.072   1.423  3.1881  0.9520  0.2325
  912MOL0     H25847   2.076   2.176   1.415 -0.3942 -0.5778  2.8513
  912MOL0     H25848   2.295   2.217   1.625  0.3158  0.1021 -0.7843
  912MOL0     H25849   2.138   2.306   1.607 -0.1394 -0.5056  1.3533
  912MOL0     H25850   2.120   2.128   1.783 -0.4687 -1.2668  0.8890
  912MOL0     H25851   2.168   2.012   1.663 -1.0879 -0.5545 -2.2731
  912MOL0     H25852   1.751   2.092   1.605  0.4413  1.7049  0.2979
  912MOL0     H25853   2.413   2.351   1.167 -0.3095 -3.8453  1.7377
  912MOL0     H25854   2.511   2.392   0.978  0.0874 -1.1046  1.5806
  912MOL0     H25855   2.609   2.543   0.993 -0.4020  1.0829 -0.1608
  912MOL0     H25856   2.686   2.383   0.966 -1.1692 -1.6637 -0.1412
  913MOL0     O25857   2.884   6.350   2.274 -0.1853  0.2752 -0.2817
  913MOL0     C25858   2.800   6.375   2.361 -0.8278  0.0455  0.6432
  913MOL0     O25859   2.820   6.417   2.487 -0.9194 -0.6550  0.5520
  913MOL0     C25860   2.954   6.454   2.520 -0.2809 -0.2518 -0.1025
  913MOL0     C25861   3.031   6.541   2.444  0.8839  0.1811 -0.1510
  913MOL0     C25862   3.150   6.591   2.492 -0.3941  0.2899 -0.0194
  913MOL0     C25863   3.189   6.549   2.623 -0.4670  0.2642  1.1907
  913MOL0     O25864   3.299   6.593   2.685 -0.8085  0.3711 -0.8323
  913MOL0     C25865   3.409   6.666   2.621 -0.9988 -0.1339  0.2545
  913MOL0     C25866   3.536   6.633   2.691 -0.7338 -0.0236 -0.0745
  913MOL0     C25867   3.661   6.707   2.627 -0.1011  1.0510  0.4899
  913MOL0     C25868   3.776   6.669   2.711 -1.3068  0.0769  0.0741
  913MOL0     C25869   3.868   6.791   2.746 -0.0733 -0.5801 -0.3801
  913MOL0     C25870   3.947   6.862   2.627  0.5225  0.5424  0.1956
  913MOL0     C25871   4.049   6.966   2.680  0.4307 -0.2068 -0.2033
  913MOL0     C25872   4.148   6.997   2.567 -0.1993  0.5141 -0.5226
  913MOL0     N25873   4.081   7.069   2.456  0.2551  0.4654  0.7289
  913MOL0     C25874   4.003   7.178   2.477  0.9001 -0.7452 -0.3475
  913MOL0     C25875   3.922   7.202   2.372  0.4260 -0.9351 -0.3113
  913MOL0     C25876   3.832   7.324   2.354  0.2380 -0.2055  0.4347
  913MOL0     C25877   3.684   7.312   2.389 -0.2734 -0.5229 -0.2532
  913MOL0     C25878   3.660   7.300   2.544  0.4910  0.3810  0.5525
  913MOL0     C25879   3.541   7.203   2.556 -0.1999 -0.6152  0.0702
  913MOL0     O25880   3.586   7.065   2.547  0.7427 -0.4364 -0.3454
  913MOL0     C25881   3.527   7.000   2.439 -0.6857  0.5073  0.1044
  913MOL0     C25882   3.614   6.945   2.351  0.4932 -0.4650 -0.0012
  913MOL0     C25883   3.562   6.879   2.236  0.8462  0.0873  0.7192
  913MOL0     C25884   3.664   6.832   2.135 -0.9111 -0.2658 -1.3206
  913MOL0     C25885   3.420   6.860   2.228  0.3330  0.6344 -0.2238
  913MOL0     C25886   3.359   6.769   2.120 -0.1980  0.0682 -0.4371
  913MOL0     O25887   3.235   6.704   2.158 -0.3304  0.1158 -0.0725
  913MOL0     C25888   3.174   6.631   2.058 -0.8044  0.2431  0.4136
  913MOL0     C25889   3.109   6.512   2.090  0.3378 -0.3021 -0.0655
  913MOL0     C25890   3.037   6.440   1.992 -0.1388 -0.5109  0.8002
  913MOL0     C25891   3.025   6.491   1.863  0.9233  0.7724  0.4457
  913MOL0     O25892   2.951   6.424   1.765 -0.6917 -0.4406 -0.1564
  913MOL0     C25893   2.817   6.376   1.792  0.1890 -0.2899 -0.2733
  913MOL0     C25894   2.721   6.488   1.833  0.2699 -0.0176  0.1685
  913MOL0     C25895   2.681   6.577   1.717  0.3680 -0.9490 -0.6118
  913MOL0     C25896   2.557   6.536   1.629  0.4879  0.6407  0.0796
  913MOL0     C25897   2.423   6.591   1.659  1.0445 -0.6508 -0.3589
  913MOL0     C25898   2.335   6.574   1.529 -1.1240 -1.0394 -0.5061
  913MOL0     C25899   2.189   6.584   1.557 -0.8177  0.6855 -0.2697
  913MOL0     C25900   2.093   6.572   1.438 -0.0306 -0.0910  0.1612
  913MOL0    Cl25901   2.169   6.480   1.309 -0.0204 -0.3271 -0.7382
  913MOL0     C25902   3.091   6.614   1.833 -0.2204 -0.0559  0.1452
  913MOL0     C25903   3.160   6.684   1.931  0.4351 -0.6318  0.1032
  913MOL0     O25904   3.419   6.762   2.015 -0.4380  0.4422 -0.0978
  913MOL0     C25905   3.328   6.905   2.330  0.0061 -0.4283  0.3948
  913MOL0     C25906   3.390   6.971   2.441 -0.4716  0.2145  0.4924
  913MOL0     N25907   3.950   7.096   2.283 -0.7615 -0.1967 -0.6837
  913MOL0     N25908   4.044   7.014   2.335 -0.0865 -0.6087  0.0978
  913MOL0     C25909   3.123   6.454   2.692  0.4133  0.2472 -0.0136
  913MOL0     C25910   3.001   6.415   2.649 -0.4098 -0.6233  0.5248
  913MOL0     C25911   2.656   6.372   2.324 -0.5560  0.0008 -0.6471
  913MOL0     C25912   2.625   6.415   2.196 -0.0449  0.1681  0.8138
  913MOL0     C25913   2.490   6.428   2.170 -0.7585 -0.0455  0.1469
  913MOL0     C25914   2.392   6.381   2.252  1.2573 -0.1223  0.5826
  913MOL0     O25915   2.261   6.407   2.208 -1.2275  0.2622  0.3294
  913MOL0     C25916   2.154   6.368   2.297  0.1265  0.1697 -0.0790
  913MOL0     C25917   2.017   6.413   2.243 -0.2250  0.3461  0.9888
  913MOL0     C25918   1.902   6.316   2.292  0.1961 -0.0993  0.4781
  913MOL0     C25919   1.765   6.361   2.245  0.6228 -0.3959 -0.4338
  913MOL0     C25920   1.718   6.493   2.301  0.5672  0.4063 -0.4911
  913MOL0     C25921   1.693   6.606   2.332  0.1959 -1.3465  0.6153
  913MOL0     C25922   2.427   6.322   2.370  0.2502  0.3366  0.1973
  913MOL0     C25923   2.560   6.318   2.413  0.3826 -0.4587 -0.5397
  913MOL0     C25924   2.597   6.245   2.530 -0.4845 -0.0439  0.1355
  913MOL0     H25925   2.999   6.565   2.343 -0.5648 -1.5211 -0.1398
  913MOL0     H25926   3.219   6.641   2.426  1.1086  0.4295  1.5843
  913MOL0     H25927   3.393   6.773   2.636  0.2806 -0.2683  3.1136
  913MOL0     H25928   3.425   6.645   2.515  1.7413  0.2020  0.5492
  913MOL0     H25929   3.527   6.655   2.798  3.0621  1.6301  0.0736
  913MOL0     H25930   3.551   6.525   2.695 -1.2129 -0.0514  1.4116
  913MOL0     H25931   3.684   6.667   2.528  0.7348 -0.3285  1.2035
  913MOL0     H25932   3.649   6.815   2.622 -5.2270  0.7653  0.9643
  913MOL0     H25933   3.747   6.627   2.808  0.9722 -0.9811  0.3684
  913MOL0     H25934   3.839   6.591   2.668  1.6841  1.0761  2.2761
  913MOL0     H25935   3.956   6.754   2.799  0.3900 -1.1651 -1.5232
  913MOL0     H25936   3.821   6.871   2.805 -0.9974  1.0352 -3.1317
  913MOL0     H25937   3.997   6.780   2.574 -1.7176 -0.7012 -0.1303
  913MOL0     H25938   3.876   6.915   2.563 -1.0529  0.7137  2.0052
  913MOL0     H25939   4.098   6.923   2.767  0.2155 -3.5345 -1.5545
  913MOL0     H25940   4.006   7.056   2.725  1.7448 -0.5211  1.7595
  913MOL0     H25941   4.226   7.059   2.612 -0.5264  0.8876 -0.4605
  913MOL0     H25942   4.188   6.904   2.526  1.0406  1.1496 -0.7978
  913MOL0     H25943   4.016   7.238   2.567 -0.5776 -1.9401  0.7245
  913MOL0     H25944   3.831   7.349   2.247  0.7073  1.2590  0.7519
  913MOL0     H25945   3.861   7.408   2.417 -1.1904  0.6218  0.0461
  913MOL0     H25946   3.642   7.408   2.357  0.7723 -0.4628 -1.5146
  913MOL0     H25947   3.641   7.232   2.329 -0.7828  1.1489 -2.2215
  913MOL0     H25948   3.751   7.255   2.586 -0.1192 -2.0085 -0.4804
  913MOL0     H25949   3.629   7.397   2.581 -3.1551 -0.2086 -0.5964
  913MOL0     H25950   3.500   7.213   2.656 -3.9102  1.4684 -1.4799
  913MOL0     H25951   3.467   7.237   2.483 -1.3113  2.2840  2.3799
  913MOL0     H25952   3.721   6.959   2.361  0.4885  0.8597 -1.5302
  913MOL0     H25953   3.653   6.875   2.035  0.0106 -0.2978 -1.4512
  913MOL0     H25954   3.679   6.724   2.135 -0.9799 -0.3195  0.7278
  913MOL0     H25955   3.767   6.857   2.162 -1.0676 -1.1209  0.2121
  913MOL0     H25956   3.122   6.470   2.189 -0.0439  0.2346  0.2213
  913MOL0     H25957   2.988   6.348   2.023 -3.9485  0.8758 -0.4880
  913MOL0     H25958   2.780   6.332   1.699 -2.4970 -0.7677  0.9131
  913MOL0     H25959   2.813   6.300   1.871 -3.1375 -0.3161 -0.3379
  913MOL0     H25960   2.638   6.437   1.885  1.5284 -0.9403  1.3579
  913MOL0     H25961   2.760   6.552   1.913 -0.3239 -0.8945  1.1993
  913MOL0     H25962   2.769   6.597   1.655  2.7607 -0.5119  2.6526
  913MOL0     H25963   2.654   6.672   1.765 -0.3278 -1.6083  0.3374
  913MOL0     H25964   2.552   6.427   1.640  0.7602  0.7526  1.4114
  913MOL0     H25965   2.579   6.576   1.530  0.6422  1.7224  0.5433
  913MOL0     H25966   2.381   6.535   1.743  3.6743 -2.3543 -0.0496
  913MOL0     H25967   2.429   6.695   1.693  1.0307  0.1475 -2.6332
  913MOL0     H25968   2.359   6.471   1.502  0.3022 -1.0537  0.6916
  913MOL0     H25969   2.375   6.654   1.466  1.6238 -0.2705  1.9907
  913MOL0     H25970   2.163   6.677   1.608 -0.2372  0.8074 -0.1912
  913MOL0     H25971   2.158   6.509   1.630  0.8300  1.1564  0.9705
  913MOL0     H25972   2.050   6.664   1.399  0.4720  0.2426  0.3786
  913MOL0     H25973   2.005   6.516   1.471 -1.0125  1.4038  0.1742
  913MOL0     H25974   3.065   6.658   1.737 -3.4825 -1.3804  0.2912
  913MOL0     H25975   3.201   6.777   1.894 -1.3836  0.3762  0.5188
  913MOL0     H25976   3.220   6.893   2.328 -0.1225  0.7542 -0.8289
  913MOL0     H25977   3.332   6.986   2.532  1.3007  3.6281  1.1929
  913MOL0     H25978   3.167   6.419   2.785  1.2435 -0.8728 -0.8015
  913MOL0     H25979   2.940   6.353   2.713  1.5163  0.7661  4.0131
  913MOL0     H25980   2.700   6.453   2.127 -0.7091  2.1259  1.1018
  913MOL0     H25981   2.459   6.493   2.088  1.4237  1.7479  0.6341
  913MOL0     H25982   2.153   6.259   2.298  0.7213  0.1614  1.0284
  913MOL0     H25983   2.157   6.410   2.398  1.0471  0.5660 -0.2587
  913MOL0     H25984   2.016   6.425   2.134  4.6293  0.1142  0.7032
  913MOL0     H25985   2.013   6.512   2.288 -3.4207  1.8271 -2.0888
  913MOL0     H25986   1.919   6.219   2.244 -2.6262 -0.2956 -0.3175
  913MOL0     H25987   1.921   6.297   2.398  3.3899 -0.3749 -0.0489
  913MOL0     H25988   1.697   6.279   2.267 -0.7906  0.9115  0.1934
  913MOL0     H25989   1.769   6.372   2.136 -3.6765 -0.9818 -0.8022
  913MOL0     H25990   1.667   6.704   2.365  2.0283 -0.8749  0.7678
  913MOL0     H25991   2.354   6.281   2.440 -0.3669 -1.8612 -1.6172
  913MOL0     H25992   2.612   6.299   2.624 -0.2304 -0.9611  0.6350
  913MOL0     H25993   2.538   6.156   2.554  1.2224 -1.3673 -0.3802
  913MOL0     H25994   2.696   6.201   2.514  0.5627  2.1189  0.3064
  914MOL0     O25995  10.718  10.199   0.824  0.2745 -0.9781  1.3802
  914MOL0     C25996  10.692  10.259   0.924  0.7599 -1.0059  0.0171
  914MOL0     O25997  10.761  10.254   1.040  0.1570  0.0028 -0.6805
  914MOL0     C25998  10.891  10.219   1.049  0.0079 -0.4803 -0.2935
  914MOL0     C25999  10.989  10.255   0.951  0.0625 -0.4139 -0.1389
  914MOL0     C26000  11.118  10.238   0.979 -0.8827 -0.7655  0.5018
  914MOL0     C26001  11.168  10.176   1.095  0.5264 -0.4277  1.2089
  914MOL0     O26002  11.292  10.126   1.097  0.0119  0.5387  0.4112
  914MOL0     C26003  11.394  10.158   1.007 -0.2236  0.3244  0.1625
  914MOL0     C26004  11.536  10.073   1.016  0.2967 -0.0519 -0.2082
  914MOL0     C26005  11.656  10.140   0.964 -0.2545  0.6597 -0.3644
  914MOL0     C26006  11.790  10.074   1.010 -0.5790 -0.1637 -0.2175
  914MOL0     C26007  11.909  10.108   0.918  0.5619  0.8551 -0.6467
  914MOL0     C26008  12.046  10.067   0.961  0.1362 -0.1207  0.2326
  914MOL0     C26009  12.142  10.135   0.871  0.4852 -0.2178 -0.1228
  914MOL0     C26010  12.283  10.101   0.910  0.6492  0.3545  0.5583
  914MOL0     N26011  12.342  10.145   1.036  0.5067  0.3189 -0.2942
  914MOL0     C26012  12.438  10.248   1.048  0.3581  0.0279 -0.1902
  914MOL0     C26013  12.443  10.275   1.179  0.1210  0.3422 -0.3605
  914MOL0     C26014  12.528  10.387   1.242 -0.0261 -0.1874  0.1733
  914MOL0     C26015  12.453  10.513   1.301  0.1384  0.5230  0.6644
  914MOL0     C26016  12.379  10.466   1.431  0.7170 -0.1446  0.7463
  914MOL0     C26017  12.332  10.589   1.508  0.6547 -0.0583 -0.6650
  914MOL0     O26018  12.443  10.655   1.569 -0.4212  0.5317  0.0598
  914MOL0     C26019  12.510  10.595   1.674 -0.3971  0.0983  0.3248
  914MOL0     C26020  12.643  10.566   1.659 -0.1867  1.2036  0.7881
  914MOL0     C26021  12.719  10.491   1.751 -0.2917  0.8785 -0.1201
  914MOL0     C26022  12.866  10.460   1.714 -0.0875  0.5370  0.0847
  914MOL0     C26023  12.654  10.457   1.870 -0.5190  0.1722 -0.4845
  914MOL0     C26024  12.728  10.401   1.989 -0.5211 -0.6205  1.3807
  914MOL0     O26025  12.836  10.324   1.955  0.0979  0.6973  0.2009
  914MOL0     C26026  12.912  10.276   2.058  0.6814  0.0676 -0.0393
  914MOL0     C26027  12.866  10.159   2.130 -0.4495  0.4194 -0.0518
  914MOL0     C26028  12.941  10.112   2.241  0.5902  0.0247 -0.0268
  914MOL0     C26029  13.044  10.198   2.289  0.5330 -0.9008  0.0747
  914MOL0     O26030  13.098  10.152   2.405 -0.3343 -0.1255  0.0563
  914MOL0     C26031  13.202  10.229   2.463 -0.1903  0.0527 -0.3876
  914MOL0     C26032  13.249  10.159   2.589  0.5230 -0.2836  0.3654
  914MOL0     C26033  13.325  10.028   2.559  0.4357  0.5575  0.1733
  914MOL0     C26034  13.381   9.968   2.688  0.5951  0.3379  0.6093
  914MOL0     C26035  13.425   9.829   2.658 -0.3504  1.0074 -0.5292
  914MOL0     C26036  13.576   9.804   2.620  0.9155  0.0208 -0.1114
  914MOL0     C26037  13.674   9.858   2.712 -0.1081  0.1877 -0.4103
  914MOL0     C26038  13.824   9.842   2.672  0.1547  0.8873  0.2375
  914MOL0    Cl26039  13.858   9.661   2.693  0.4134  0.3820  0.2338
  914MOL0     C26040  13.082  10.307   2.218 -0.3775 -0.0267  0.3242
  914MOL0     C26041  13.018  10.351   2.111  0.2773  0.6412  0.5970
  914MOL0     O26042  12.684  10.422   2.099 -0.1126 -0.1703  0.1597
  914MOL0     C26043  12.519  10.486   1.893  0.1776 -0.0807  0.3179
  914MOL0     C26044  12.449  10.545   1.789 -0.5695  0.3202 -0.3501
  914MOL0     N26045  12.357  10.193   1.246 -0.2054  0.1928 -0.9455
  914MOL0     N26046  12.293  10.122   1.164  0.5488 -0.6816 -0.2811
  914MOL0     C26047  11.070  10.152   1.193  0.4504  0.7227  0.5733
  914MOL0     C26048  10.934  10.164   1.170 -0.5329  0.4534 -1.1511
  914MOL0     C26049  10.570  10.347   0.917 -0.5912  0.6485  0.8080
  914MOL0     C26050  10.556  10.454   1.005  0.3798 -0.3775 -0.8027
  914MOL0     C26051  10.446  10.544   1.001 -0.8647  0.3321  0.8216
  914MOL0     C26052  10.346  10.515   0.906 -0.2615 -0.3503 -0.5530
  914MOL0     O26053  10.239  10.594   0.881 -0.2289  0.3775 -0.1796
  914MOL0     C26054  10.264  10.734   0.881 -0.9313 -1.6800 -0.4011
  914MOL0     C26055  10.136  10.816   0.872  0.1693  0.9120  0.8924
  914MOL0     C26056  10.154  10.968   0.887 -0.3124 -0.7229 -0.0658
  914MOL0     C26057  10.198  11.018   1.020 -0.1340  0.2668  0.1511
  914MOL0     C26058  10.108  10.979   1.128 -0.7748 -0.0651 -1.2317
  914MOL0     C26059  10.038  10.982   1.226 -0.0480  0.4494 -0.5856
  914MOL0     C26060  10.349  10.406   0.821 -0.9494  1.1196  0.6680
  914MOL0     C26061  10.462  10.319   0.824  0.0594  0.1853  0.5635
  914MOL0     C26062  10.456  10.206   0.725 -0.3067 -0.4646  0.4383
  914MOL0     H26063  10.959  10.304   0.860  0.1852  1.5570  0.8227
  914MOL0     H26064  11.196  10.283   0.918  0.0367 -3.6922 -0.6641
  914MOL0     H26065  11.428  10.259   1.031  1.9169  0.1945 -1.8917
  914MOL0     H26066  11.367  10.146   0.901  0.8335  1.1416 -0.2148
  914MOL0     H26067  11.551  10.069   1.125  1.1848  1.8028 -0.2330
  914MOL0     H26068  11.520   9.971   0.980 -4.7353 -0.2332  1.7934
  914MOL0     H26069  11.656  10.128   0.855  1.3850 -0.2779 -0.2975
  914MOL0     H26070  11.657  10.249   0.973  2.8697  0.8560 -1.6170
  914MOL0     H26071  11.810  10.096   1.116 -1.0624 -2.5202  0.4266
  914MOL0     H26072  11.787   9.965   1.021 -2.8306  0.0944  3.5751
  914MOL0     H26073  11.893  10.214   0.894 -4.0636 -0.0390 -2.5294
  914MOL0     H26074  11.890  10.060   0.822  1.7537  2.1425 -1.5806
  914MOL0     H26075  12.069  10.118   1.055  2.6231  2.2788 -1.5259
  914MOL0     H26076  12.052   9.958   0.948 -4.0471 -0.3512 -1.5222
  914MOL0     H26077  12.123  10.242   0.879 -2.0220 -0.4736 -1.4686
  914MOL0     H26078  12.124  10.106   0.767  2.0522  0.4608 -0.6036
  914MOL0     H26079  12.302   9.995   0.892  2.2289  1.1572 -3.5624
  914MOL0     H26080  12.336  10.152   0.829  0.3473 -0.5681 -0.2331
  914MOL0     H26081  12.485  10.306   0.969  2.3265 -1.3874 -0.1068
  914MOL0     H26082  12.599  10.418   1.165  0.6610 -0.8580  0.5234
  914MOL0     H26083  12.591  10.347   1.323 -0.0628  2.0983  1.4262
  914MOL0     H26084  12.529  10.590   1.318  1.9233 -0.2473 -2.8308
  914MOL0     H26085  12.391  10.562   1.225 -0.5040  0.7040  1.3000
  914MOL0     H26086  12.285  10.422   1.397  3.1439 -3.5370 -2.3529
  914MOL0     H26087  12.425  10.388   1.493 -0.6643 -0.9344  0.8322
  914MOL0     H26088  12.287  10.655   1.433  2.2715  0.2640 -1.3997
  914MOL0     H26089  12.260  10.553   1.582  2.7017  0.0038  1.4860
  914MOL0     H26090  12.686  10.612   1.571  0.6850 -1.2133 -0.1213
  914MOL0     H26091  12.896  10.516   1.626  1.5049 -0.1341  0.1708
  914MOL0     H26092  12.888  10.353   1.700  1.6932  0.8803 -0.0016
  914MOL0     H26093  12.930  10.490   1.797 -0.4769 -4.6672  2.6996
  914MOL0     H26094  12.785  10.105   2.081  0.0426 -3.4544  2.9094
  914MOL0     H26095  12.910  10.019   2.288 -0.4977  0.8447  0.9431
  914MOL0     H26096  13.288  10.250   2.399  1.5231  1.5792  2.2314
  914MOL0     H26097  13.170  10.327   2.498  0.4905  0.7307 -1.6086
  914MOL0     H26098  13.309  10.233   2.644 -1.3326  2.4737 -1.0918
  914MOL0     H26099  13.161  10.136   2.649 -0.4720 -0.2431 -1.0568
  914MOL0     H26100  13.416  10.059   2.506 -0.2141  0.6465 -0.9142
  914MOL0     H26101  13.278   9.960   2.488  2.7232  0.3511 -1.2388
  914MOL0     H26102  13.300   9.963   2.761  0.5890 -1.4756  0.5081
  914MOL0     H26103  13.451  10.041   2.732 -0.4587  2.7529 -1.4495
  914MOL0     H26104  13.425   9.777   2.754  5.3890 -0.0859 -0.7889
  914MOL0     H26105  13.362   9.769   2.593  1.7502 -0.4637 -1.3020
  914MOL0     H26106  13.572   9.840   2.517 -0.5074 -0.1428 -0.1324
  914MOL0     H26107  13.594   9.696   2.624 -0.5069 -0.2561 -0.6205
  914MOL0     H26108  13.661   9.831   2.817 -0.0631 -0.4242 -0.5625
  914MOL0     H26109  13.660   9.967   2.717 -0.5053  0.0818  2.3212
  914MOL0     H26110  13.890   9.906   2.730  1.6609 -0.4371  0.0574
  914MOL0     H26111  13.837   9.876   2.569 -0.8340  2.0601  0.4761
  914MOL0     H26112  13.169  10.365   2.247  0.6073 -1.1865 -0.2520
  914MOL0     H26113  13.058  10.431   2.049 -0.0129  0.4017  0.1027
  914MOL0     H26114  12.477  10.465   1.991 -0.7724 -0.9246 -0.2543
  914MOL0     H26115  12.345  10.564   1.812  0.0582  1.3461  1.9323
  914MOL0     H26116  11.098  10.098   1.283  0.3655 -0.4549 -0.0835
  914MOL0     H26117  10.877  10.123   1.253  1.2659 -2.2739 -1.1310
  914MOL0     H26118  10.621  10.476   1.089  0.4663 -0.0591 -0.9504
  914MOL0     H26119  10.432  10.626   1.071 -1.2003  1.0186 -0.0284
  914MOL0     H26120  10.325  10.763   0.967  0.6307 -2.8971 -1.0568
  914MOL0     H26121  10.334  10.755   0.800 -2.1305  1.4804 -0.7368
  914MOL0     H26122  10.064  10.776   0.943 -2.7347  1.2833 -1.6398
  914MOL0     H26123  10.095  10.796   0.772 -0.9447  2.2484  1.0569
  914MOL0     H26124  10.231  10.997   0.815 -0.7539 -1.2437 -0.7680
  914MOL0     H26125  10.059  11.005   0.846  0.8306 -0.1299 -2.3183
  914MOL0     H26126  10.210  11.127   1.020  0.4711  0.2231  1.4013
  914MOL0     H26127  10.297  10.974   1.039  0.6671  2.2912  1.0420
  914MOL0     H26128   9.993  10.986   1.323  1.3402 -3.4182  0.3923
  914MOL0     H26129  10.281  10.376   0.742 -0.7255 -3.7376  1.9572
  914MOL0     H26130  10.544  10.204   0.661  0.4429  0.3997  1.4266
  914MOL0     H26131  10.452  10.117   0.789  3.6574 -0.0300  1.5432
  914MOL0     H26132  10.366  10.202   0.663  2.1238 -0.3720 -3.3717
  915MOL0     O26133   9.391   1.711   7.331 -0.6652  0.3593  1.3456
  915MOL0     C26134   9.336   1.603   7.322 -0.0393 -0.2948 -0.1143
  915MOL0     O26135   9.385   1.485   7.361  0.5300 -0.3157  0.1240
  915MOL0     C26136   9.510   1.483   7.412  0.1716  0.6421  0.0424
  915MOL0     C26137   9.534   1.531   7.533  0.3942 -0.6398  0.3943
  915MOL0     C26138   9.668   1.552   7.577 -0.5641 -0.7567  1.0724
  915MOL0     C26139   9.772   1.497   7.496  0.3106  0.1335  0.1672
  915MOL0     O26140   9.908   1.506   7.513 -0.8915  0.7007 -0.4117
  915MOL0     C26141   9.953   1.581   7.626  0.2090 -0.2234  0.5644
  915MOL0     C26142  10.100   1.572   7.625 -0.4258 -0.6412 -0.2623
  915MOL0     C26143  10.150   1.433   7.660  0.3523  0.2899  0.3934
  915MOL0     C26144  10.310   1.424   7.660  0.1580 -0.5979  0.3253
  915MOL0     C26145  10.374   1.293   7.685  0.5434  0.1475  0.2605
  915MOL0     C26146  10.324   1.164   7.610  0.1137 -0.5202 -0.3791
  915MOL0     C26147  10.433   1.061   7.600  0.2923  0.1097 -0.1979
  915MOL0     C26148  10.479   1.024   7.738 -0.4000 -0.3840 -0.6958
  915MOL0     N26149  10.576   0.920   7.745  0.1313 -0.2710 -1.0238
  915MOL0     C26150  10.683   0.906   7.831 -0.3745  0.2363 -0.6079
  915MOL0     C26151  10.751   0.795   7.795  0.0385  0.4217  0.2405
  915MOL0     C26152  10.882   0.754   7.843 -0.3765  0.4975 -0.2995
  915MOL0     C26153  10.876   0.615   7.904 -0.9116 -0.5769 -0.6676
  915MOL0     C26154  10.990   0.582   8.002 -0.2949  0.6305  1.3688
  915MOL0     C26155  10.979   0.428   8.041  0.6018  0.0031 -0.3992
  915MOL0     O26156  11.040   0.409   8.173  0.3864 -0.4072  0.4186
  915MOL0     C26157  11.122   0.301   8.187  0.3510  0.2405  0.4511
  915MOL0     C26158  11.133   0.188   8.102  0.0395  0.0224 -0.4961
  915MOL0     C26159  11.227   0.090   8.135  0.4505  0.3745  0.3737
  915MOL0     C26160  11.219  -0.026   8.044  0.0534  0.0654  0.3109
  915MOL0     C26161  11.313   0.094   8.242  0.0964  0.5258  0.2212
  915MOL0     C26162  11.410  -0.017   8.277  0.0539 -0.9470  0.2710
  915MOL0     O26163  11.516   0.027   8.349 -0.2473 -0.0158  0.4287
  915MOL0     C26164  11.621  -0.061   8.367 -0.1773  0.1835  0.1173
  915MOL0     C26165  11.606  -0.188   8.421 -0.1177  0.2287 -0.5149
  915MOL0     C26166  11.715  -0.279   8.434  0.2989  0.3219  0.0422
  915MOL0     C26167  11.841  -0.241   8.401 -0.5022 -0.1516  0.5403
  915MOL0     O26168  11.956  -0.319   8.412 -1.1803  0.8924 -0.8388
  915MOL0     C26169  11.964  -0.463   8.452  0.7627  0.6867  0.2655
  915MOL0     C26170  11.917  -0.541   8.327  0.2221  0.1234 -0.7053
  915MOL0     C26171  11.976  -0.687   8.345 -0.1995 -0.7186 -0.2695
  915MOL0     C26172  11.978  -0.767   8.217 -0.6808 -1.3859 -0.2966
  915MOL0     C26173  12.056  -0.899   8.223  0.4112 -0.1887  0.8386
  915MOL0     C26174  12.205  -0.891   8.205  0.1899  0.5478  0.2596
  915MOL0     C26175  12.263  -1.033   8.227  0.5306  0.7940  0.3792
  915MOL0     C26176  12.412  -1.018   8.224 -0.2686 -0.4154  0.0167
  915MOL0    Cl26177  12.503  -1.163   8.192 -0.1232 -0.4964  0.0144
  915MOL0     C26178  11.860  -0.107   8.351 -0.3282  0.3919 -0.8581
  915MOL0     C26179  11.751  -0.018   8.329 -0.1087  0.8195  0.4371
  915MOL0     O26180  11.376  -0.137   8.267  0.2769 -0.0406  1.1954
  915MOL0     C26181  11.319   0.216   8.306  0.1224  0.0868 -0.8572
  915MOL0     C26182  11.218   0.311   8.288  0.2200 -0.9051 -0.7673
  915MOL0     N26183  10.673   0.728   7.702 -0.0430  0.5694  0.8932
  915MOL0     N26184  10.577   0.811   7.667  0.3652 -0.2383 -0.2579
  915MOL0     C26185   9.739   1.438   7.376  0.0090  0.2292  0.4915
  915MOL0     C26186   9.608   1.430   7.328  0.5745 -0.9197  0.6462
  915MOL0     C26187   9.197   1.594   7.278  0.1295 -0.6626  0.5240
  915MOL0     C26188   9.159   1.493   7.191  0.8022 -0.0962 -0.0789
  915MOL0     C26189   9.026   1.481   7.159  1.0655  0.9445 -0.2430
  915MOL0     C26190   8.930   1.559   7.206  0.0836 -0.8208  0.9303
  915MOL0     O26191   8.809   1.548   7.140  0.3209  0.4763 -0.4416
  915MOL0     C26192   8.784   1.665   7.053  0.8599  0.0784 -0.1137
  915MOL0     C26193   8.636   1.682   7.005  0.2899 -0.1502  0.4964
  915MOL0     C26194   8.558   1.564   6.943 -0.0999 -0.4423 -0.1133
  915MOL0     C26195   8.423   1.611   6.877 -0.5977  0.0051 -0.8572
  915MOL0     C26196   8.390   1.535   6.752 -0.7048 -1.0050  0.0117
  915MOL0     C26197   8.349   1.479   6.654 -0.0134  0.3676 -0.0829
  915MOL0     C26198   8.966   1.658   7.293 -0.9378  1.3073 -0.2517
  915MOL0     C26199   9.096   1.681   7.331  1.4967  0.2768 -0.0312
  915MOL0     C26200   9.123   1.804   7.417  0.9625 -0.1660  0.3693
  915MOL0     H26201   9.452   1.568   7.594 -1.0720 -0.6263 -1.4938
  915MOL0     H26202   9.681   1.608   7.669 -0.2691  0.0940  0.5294
  915MOL0     H26203   9.914   1.526   7.713 -0.5116 -1.3333 -0.4336
  915MOL0     H26204   9.915   1.683   7.625 -1.2466 -0.7342 -0.8476
  915MOL0     H26205  10.132   1.594   7.522 -1.1449 -0.4510 -0.4555
  915MOL0     H26206  10.146   1.643   7.693 -1.0690 -0.7513  0.2959
  915MOL0     H26207  10.123   1.401   7.762 -2.4563 -2.1242 -0.9303
  915MOL0     H26208  10.117   1.354   7.591 -1.9015 -1.7864  3.5531
  915MOL0     H26209  10.349   1.458   7.564  1.4586 -1.7507  0.4051
  915MOL0     H26210  10.346   1.493   7.736 -1.4787  0.3064  0.3157
  915MOL0     H26211  10.371   1.283   7.794 -0.6791  3.1779  0.6170
  915MOL0     H26212  10.482   1.305   7.670  0.1488 -0.4800 -4.3216
  915MOL0     H26213  10.233   1.130   7.660  0.5277  0.5738  1.1717
  915MOL0     H26214  10.283   1.186   7.510 -1.0684 -0.2191  0.1530
  915MOL0     H26215  10.512   1.103   7.536  0.8845  0.3111  0.6496
  915MOL0     H26216  10.390   0.972   7.553 -1.9634  0.9362  0.1415
  915MOL0     H26217  10.514   1.113   7.791 -1.2553  0.7930 -2.0357
  915MOL0     H26218  10.398   0.992   7.804  0.4976  0.3419  0.7978
  915MOL0     H26219  10.703   0.973   7.914 -2.6714 -0.4111  0.5494
  915MOL0     H26220  10.916   0.826   7.918 -1.2385  2.3845 -1.6275
  915MOL0     H26221  10.952   0.753   7.759 -1.0917 -2.2778 -0.9677
  915MOL0     H26222  10.773   0.609   7.942 -1.2549 -1.3227 -1.6773
  915MOL0     H26223  10.869   0.538   7.827 -1.0210  0.3639 -1.6242
  915MOL0     H26224  11.090   0.591   7.960  0.3397  1.3689  2.9601
  915MOL0     H26225  10.985   0.653   8.085 -0.3088  1.8284  0.3782
  915MOL0     H26226  10.872   0.406   8.052  0.4800  1.5132  2.2613
  915MOL0     H26227  11.005   0.377   7.948 -0.0709 -1.9472  0.4285
  915MOL0     H26228  11.076   0.187   8.009 -1.6301  3.1413  0.3335
  915MOL0     H26229  11.255   0.011   7.947  1.2418 -0.7062  0.4310
  915MOL0     H26230  11.117  -0.064   8.049  0.9248 -2.4421  0.4038
  915MOL0     H26231  11.276  -0.117   8.062  1.0366 -0.1986 -3.3339
  915MOL0     H26232  11.512  -0.217   8.467 -0.2695  2.7073  0.8707
  915MOL0     H26233  11.688  -0.379   8.466 -1.3109  1.3338  2.1592
  915MOL0     H26234  12.068  -0.489   8.475  0.4504  1.1895  2.4381
  915MOL0     H26235  11.905  -0.500   8.537  0.5269 -1.2674 -0.6895
  915MOL0     H26236  11.809  -0.551   8.319  0.3790 -0.5326 -3.0004
  915MOL0     H26237  11.957  -0.486   8.241 -0.3435  1.1049 -0.3598
  915MOL0     H26238  11.920  -0.740   8.422 -0.1830  1.8477  1.6086
  915MOL0     H26239  12.079  -0.669   8.376  0.9048 -5.2372 -0.6071
  915MOL0     H26240  12.021  -0.703   8.139 -2.7819  0.6210  0.0613
  915MOL0     H26241  11.874  -0.786   8.187 -1.4917 -0.1356  1.4869
  915MOL0     H26242  12.033  -0.947   8.319 -1.6317 -0.1166  0.4366
  915MOL0     H26243  12.026  -0.958   8.136  1.2669 -0.3529  0.6522
  915MOL0     H26244  12.228  -0.816   8.281 -2.0540  0.2674  1.3204
  915MOL0     H26245  12.235  -0.858   8.106  2.8304  1.1023  1.1718
  915MOL0     H26246  12.224  -1.088   8.141 -1.1614  1.6646  0.5609
  915MOL0     H26247  12.243  -1.089   8.319 -0.7731 -2.2306 -1.5900
  915MOL0     H26248  12.443  -0.982   8.323  1.4131  1.4388 -1.0993
  915MOL0     H26249  12.429  -0.941   8.148 -0.6181  0.8714  1.2111
  915MOL0     H26250  11.960  -0.086   8.315  0.7472 -2.6711  0.0071
  915MOL0     H26251  11.765   0.083   8.292  2.7035 -0.5931 -3.0524
  915MOL0     H26252  11.384   0.225   8.393  1.7503  0.3464 -2.0645
  915MOL0     H26253  11.207   0.402   8.346 -0.2101 -0.0549 -2.1219
  915MOL0     H26254   9.818   1.400   7.312  1.4058 -0.1674  2.3443
  915MOL0     H26255   9.589   1.380   7.234 -1.9163  1.6367 -0.3565
  915MOL0     H26256   9.232   1.432   7.139 -0.2782 -0.0729 -1.7061
  915MOL0     H26257   8.998   1.403   7.089  2.0827  0.7147 -0.4115
  915MOL0     H26258   8.810   1.756   7.108 -2.1558 -0.8283  3.2035
  915MOL0     H26259   8.833   1.647   6.957 -1.4727 -1.4299 -1.0951
  915MOL0     H26260   8.646   1.766   6.935 -0.9490 -1.0430 -0.8042
  915MOL0     H26261   8.576   1.718   7.089 -2.9281  2.6997 -2.6677
  915MOL0     H26262   8.618   1.511   6.869  0.7225 -1.2972  1.1259
  915MOL0     H26263   8.534   1.496   7.025  1.8965  0.4581  1.2906
  915MOL0     H26264   8.435   1.713   6.841  3.9331  0.0982  0.2542
  915MOL0     H26265   8.350   1.610   6.958  0.8979  0.4150  0.5645
  915MOL0     H26266   8.320   1.417   6.571  0.6613 -0.2394  0.1276
  915MOL0     H26267   8.894   1.729   7.333  0.8303  1.3100  3.3784
  915MOL0     H26268   9.215   1.778   7.471 -0.3370  0.8904  3.2908
  915MOL0     H26269   9.140   1.899   7.365  3.4500  0.3207  1.8985
  915MOL0     H26270   9.046   1.814   7.493  1.1562 -1.5461  0.7688
  916MOL0     O26271   2.422   4.887   4.012  0.0577 -0.3660 -0.4913
  916MOL0     C26272   2.362   4.919   4.113  0.3597 -0.5122 -0.2075
  916MOL0     O26273   2.404   4.892   4.242  0.3030  0.2015 -0.4825
  916MOL0     C26274   2.530   4.841   4.275  0.2365 -0.4526 -0.2928
  916MOL0     C26275   2.575   4.719   4.229 -0.0752  0.3187  0.2327
  916MOL0     C26276   2.704   4.680   4.265 -0.3800 -0.1869 -0.4749
  916MOL0     C26277   2.787   4.758   4.346  0.4216 -0.3801 -0.4924
  916MOL0     O26278   2.908   4.709   4.383  0.0882 -0.0090 -0.2973
  916MOL0     C26279   2.901   4.620   4.500  0.8329 -0.1736  0.4155
  916MOL0     C26280   2.925   4.711   4.629  0.5945  0.2661  0.1656
  916MOL0     C26281   2.876   4.647   4.762 -0.2469 -0.1473 -0.1656
  916MOL0     C26282   2.932   4.514   4.783  0.0381  0.6299  0.4365
  916MOL0     C26283   2.902   4.451   4.918 -0.1905  0.3055  0.3992
  916MOL0     C26284   2.975   4.528   5.026 -0.1213 -1.0484 -0.5789
  916MOL0     C26285   2.987   4.438   5.155  0.5648 -0.7028  0.1170
  916MOL0     C26286   2.854   4.408   5.225 -0.1761 -0.0681  0.9945
  916MOL0     N26287   2.885   4.335   5.350  0.6783 -0.1051  1.3071
  916MOL0     C26288   2.944   4.207   5.354  0.0892 -0.2840 -0.0079
  916MOL0     C26289   2.956   4.187   5.490 -0.6169  0.8259  0.6179
  916MOL0     C26290   3.008   4.069   5.573  0.0832  0.8539  0.1388
  916MOL0     C26291   3.158   4.079   5.585  0.7685 -0.1725 -0.0727
  916MOL0     C26292   3.241   4.042   5.461  0.6166  0.0050  0.3689
  916MOL0     C26293   3.381   4.014   5.507  0.0050 -0.1314 -0.3797
  916MOL0     O26294   3.471   4.112   5.455 -0.4860  0.0959  0.2348
  916MOL0     C26295   3.600   4.122   5.500 -0.0737 -0.3051  0.2438
  916MOL0     C26296   3.655   4.249   5.515  0.1173  0.1551 -0.3810
  916MOL0     C26297   3.782   4.262   5.561 -0.0548  0.0733 -0.3588
  916MOL0     C26298   3.842   4.395   5.583  0.6288 -0.8220 -0.3890
  916MOL0     C26299   3.862   4.147   5.585 -0.5370 -0.1928 -0.0407
  916MOL0     C26300   4.005   4.148   5.644 -0.2813 -0.7281 -0.4524
  916MOL0     O26301   4.043   4.038   5.717 -0.2712 -0.2267 -0.0098
  916MOL0     C26302   4.170   4.040   5.764 -0.3390 -0.5945 -0.2455
  916MOL0     C26303   4.279   4.015   5.686 -0.5486  0.6481 -0.0908
  916MOL0     C26304   4.409   4.008   5.742  0.3489  0.1184 -0.0379
  916MOL0     C26305   4.432   4.045   5.875 -0.7706  0.5359  0.2014
  916MOL0     O26306   4.563   4.038   5.912 -0.5546  0.3881 -0.4197
  916MOL0     C26307   4.590   4.083   6.048  0.2513  0.1971  0.0419
  916MOL0     C26308   4.741   4.081   6.076 -0.3489  0.3097 -0.6454
  916MOL0     C26309   4.765   4.072   6.223 -0.2614  0.9894  0.0944
  916MOL0     C26310   4.909   4.067   6.260  0.0988 -0.7704 -0.0111
  916MOL0     C26311   4.938   4.008   6.402 -0.1369  0.2534  0.7433
  916MOL0     C26312   5.087   4.040   6.456  0.6258  0.4209  0.0716
  916MOL0     C26313   5.199   3.991   6.372 -0.8927  1.0777 -0.2077
  916MOL0     C26314   5.337   4.007   6.445  0.6723 -0.1567  0.0085
  916MOL0    Cl26315   5.473   3.931   6.335  0.0461 -0.0810 -0.3836
  916MOL0     C26316   4.321   4.084   5.954 -1.0392 -0.0505 -0.1166
  916MOL0     C26317   4.192   4.085   5.898 -0.5847 -0.1570  0.8265
  916MOL0     O26318   4.079   4.241   5.607 -0.1847 -0.1238 -0.4570
  916MOL0     C26319   3.802   4.016   5.558  0.2817  0.1748 -0.6583
  916MOL0     C26320   3.673   4.007   5.516 -0.0397 -0.4818  0.4372
  916MOL0     N26321   2.917   4.303   5.558  0.1741 -0.4480 -0.7040
  916MOL0     N26322   2.870   4.391   5.469 -0.2474  0.4462 -0.2688
  916MOL0     C26323   2.747   4.888   4.380  0.1080  0.6740 -0.4441
  916MOL0     C26324   2.617   4.927   4.347 -0.6283 -0.2251 -0.7614
  916MOL0     C26325   2.223   4.977   4.102 -0.2014  0.6352 -0.3682
  916MOL0     C26326   2.154   4.988   4.224  0.3219  0.3012 -0.4735
  916MOL0     C26327   2.026   5.032   4.226 -0.1807 -0.3212 -0.2136
  916MOL0     C26328   1.960   5.054   4.110  0.5179 -1.8082 -0.2927
  916MOL0     O26329   1.833   5.090   4.124 -0.1708  0.2856  0.2193
  916MOL0     C26330   1.799   5.193   4.026  0.3464  0.1104 -0.7474
  916MOL0     C26331   1.682   5.275   4.081  0.1739  0.3274  0.4478
  916MOL0     C26332   1.715   5.348   4.211 -0.2698  0.0699  0.0406
  916MOL0     C26333   1.604   5.446   4.239  0.1251  0.1522 -0.0372
  916MOL0     C26334   1.595   5.503   4.368 -0.9514  0.4541 -0.0007
  916MOL0     C26335   1.581   5.558   4.475 -1.0824  1.0394  0.9508
  916MOL0     C26336   2.029   5.048   3.990 -0.2699 -0.1958  0.7574
  916MOL0     C26337   2.164   5.003   3.983 -0.3498  0.8776 -0.1321
  916MOL0     C26338   2.210   4.975   3.844 -0.5761 -0.1769 -0.7472
  916MOL0     H26339   2.514   4.666   4.156  2.2309 -2.9487  0.4606
  916MOL0     H26340   2.745   4.589   4.221  0.7582 -1.4771  2.8850
  916MOL0     H26341   2.990   4.557   4.508  0.6140 -0.2593  4.2880
  916MOL0     H26342   2.804   4.569   4.506  0.8075 -0.1899 -0.1129
  916MOL0     H26343   3.027   4.751   4.635  1.2174 -1.4446  2.3183
  916MOL0     H26344   2.867   4.804   4.627  2.9026  1.8132  1.2799
  916MOL0     H26345   2.913   4.712   4.842 -2.9852 -1.6445  2.5228
  916MOL0     H26346   2.767   4.646   4.755 -0.2118 -3.6942 -3.9231
  916MOL0     H26347   2.890   4.454   4.702  1.1627  2.0085 -1.2518
  916MOL0     H26348   3.038   4.511   4.755 -0.4711 -0.7186 -1.5661
  916MOL0     H26349   2.934   4.346   4.925  1.2047  0.5627 -1.2837
  916MOL0     H26350   2.794   4.458   4.932 -0.2956 -0.8116  0.2577
  916MOL0     H26351   3.075   4.541   4.984  0.1192 -2.5702 -0.5185
  916MOL0     H26352   2.949   4.631   5.050  3.7393 -0.0126 -0.1888
  916MOL0     H26353   3.055   4.491   5.222  1.0877 -0.8137 -0.3228
  916MOL0     H26354   3.035   4.345   5.125 -1.2594 -0.7196 -3.1983
  916MOL0     H26355   2.820   4.510   5.245  4.2443  1.6715  0.7536
  916MOL0     H26356   2.785   4.342   5.170  0.8340 -1.1527  0.9993
  916MOL0     H26357   2.957   4.131   5.278  2.3246 -0.7019  0.7039
  916MOL0     H26358   2.984   3.970   5.531  1.5115  0.9216 -0.8941
  916MOL0     H26359   2.961   4.076   5.672 -0.1601  0.4992  0.0515
  916MOL0     H26360   3.196   4.174   5.624 -1.4907  0.8686 -0.2468
  916MOL0     H26361   3.190   3.996   5.649  3.0779  0.9277  0.3071
  916MOL0     H26362   3.201   3.950   5.418  0.9013  0.7517 -1.6029
  916MOL0     H26363   3.243   4.112   5.376 -0.1920  1.1511  1.2644
  916MOL0     H26364   3.391   4.014   5.616 -0.4146  0.3156 -0.3372
  916MOL0     H26365   3.414   3.917   5.469  1.9411  0.0324  0.7643
  916MOL0     H26366   3.598   4.335   5.482 -1.3026 -1.3351 -2.0402
  916MOL0     H26367   3.758   4.465   5.579  1.2516  0.0753  1.2614
  916MOL0     H26368   3.923   4.420   5.513 -1.6457 -0.4129 -3.0786
  916MOL0     H26369   3.881   4.399   5.685  2.9270 -0.3305 -1.2399
  916MOL0     H26370   4.271   3.970   5.588  0.0180 -2.5816  1.2219
  916MOL0     H26371   4.491   3.965   5.686  0.9404  0.2160  0.7391
  916MOL0     H26372   4.547   4.181   6.073 -1.5939 -0.3310 -0.8991
  916MOL0     H26373   4.551   4.006   6.115  0.4908 -0.9150 -1.0743
  916MOL0     H26374   4.768   3.982   6.038 -0.7992  0.5656 -1.6742
  916MOL0     H26375   4.788   4.166   6.025 -0.0398  1.8991  2.1020
  916MOL0     H26376   4.714   3.984   6.262 -1.2569  1.7287  0.5120
  916MOL0     H26377   4.712   4.155   6.272  0.2468  1.6609 -0.4665
  916MOL0     H26378   4.936   4.173   6.257 -3.2482  0.2318  0.8057
  916MOL0     H26379   4.961   4.006   6.185  2.2284  1.6449 -0.6563
  916MOL0     H26380   4.863   4.048   6.471 -4.2020 -0.9860 -2.4937
  916MOL0     H26381   4.902   3.904   6.400 -1.3649  0.6584 -1.0521
  916MOL0     H26382   5.093   3.988   6.552  0.8041  0.7409  0.2377
  916MOL0     H26383   5.110   4.146   6.468  1.0453  0.9818 -4.0981
  916MOL0     H26384   5.200   4.051   6.281 -0.1948  0.5924 -0.5278
  916MOL0     H26385   5.183   3.883   6.359  2.5383 -0.1327  3.3490
  916MOL0     H26386   5.335   3.955   6.541  0.8628  0.7106  0.4882
  916MOL0     H26387   5.361   4.112   6.464 -1.0657  0.2310  0.1596
  916MOL0     H26388   4.339   4.101   6.059  1.1581 -0.6334 -0.3537
  916MOL0     H26389   4.104   4.113   5.955 -3.7299 -2.1535 -2.5775
  916MOL0     H26390   3.847   3.923   5.592  1.4927  0.2984 -1.8410
  916MOL0     H26391   3.628   3.909   5.502 -0.2750 -0.8517  3.1071
  916MOL0     H26392   2.829   4.938   4.431  0.5434 -1.5100  1.1547
  916MOL0     H26393   2.582   5.026   4.376 -1.7451 -0.6796 -0.5204
  916MOL0     H26394   2.202   4.958   4.316  0.4206 -0.6176 -0.8170
  916MOL0     H26395   1.972   5.045   4.319 -1.8213  2.9804 -1.4643
  916MOL0     H26396   1.885   5.260   4.021  0.1679  0.5000  0.7792
  916MOL0     H26397   1.776   5.149   3.929 -1.2789 -0.5007 -0.1218
  916MOL0     H26398   1.604   5.200   4.091 -0.0850  0.5533  0.1392
  916MOL0     H26399   1.651   5.344   4.003 -2.4161  1.6114  2.4497
  916MOL0     H26400   1.712   5.284   4.300 -1.3634 -1.6719 -1.1884
  916MOL0     H26401   1.812   5.398   4.210 -1.1476  1.9002  1.2748
  916MOL0     H26402   1.507   5.398   4.222  0.1231  0.3842 -0.6807
  916MOL0     H26403   1.625   5.525   4.167  0.9149  0.8249  0.9224
  916MOL0     H26404   1.541   5.577   4.573 -0.3623 -3.1016  2.2312
  916MOL0     H26405   1.985   5.071   3.894  1.9632  0.2716 -0.2276
  916MOL0     H26406   2.134   4.995   3.769  0.1053 -0.7330 -1.5991
  916MOL0     H26407   2.303   5.023   3.811  1.3541 -3.6229 -0.7460
  916MOL0     H26408   2.235   4.870   3.828  0.5675  0.0386 -0.4705
  917MOL0     O26409   0.309   8.734   5.952  0.0586 -0.1409 -0.1916
  917MOL0     C26410   0.314   8.797   6.062  0.9821 -0.1426  0.0705
  917MOL0     O26411   0.225   8.795   6.165 -0.2681 -0.0360 -0.1042
  917MOL0     C26412   0.099   8.750   6.146  0.8390 -0.9848 -0.6066
  917MOL0     C26413  -0.008   8.836   6.168  0.1452  0.8903 -0.0305
  917MOL0     C26414  -0.137   8.788   6.149  0.4827  0.0968  0.0353
  917MOL0     C26415  -0.165   8.656   6.109  0.4513 -0.2498  0.0428
  917MOL0     O26416  -0.293   8.608   6.113  0.7532 -0.7124  0.3191
  917MOL0     C26417  -0.358   8.588   6.239 -0.4032  0.2532 -0.9474
  917MOL0     C26418  -0.504   8.540   6.221 -0.0192 -0.0955  0.2895
  917MOL0     C26419  -0.609   8.645   6.187 -0.5322  0.8702 -0.1716
  917MOL0     C26420  -0.751   8.575   6.185 -0.8380 -0.1435  0.0506
  917MOL0     C26421  -0.864   8.680   6.159 -0.0225 -0.4076  0.9023
  917MOL0     C26422  -0.834   8.792   6.054 -0.2602  0.1220  0.4156
  917MOL0     C26423  -0.813   8.715   5.931 -0.5101 -0.0366  0.3719
  917MOL0     C26424  -0.782   8.819   5.813  0.1132 -0.8548  0.0439
  917MOL0     N26425  -0.879   8.928   5.782 -0.1392 -1.3850  0.6406
  917MOL0     C26426  -0.835   9.057   5.772  0.7779 -0.1306 -0.7457
  917MOL0     C26427  -0.944   9.122   5.712 -0.3259  0.2095  0.5857
  917MOL0     C26428  -0.958   9.255   5.659 -0.0444 -0.2622 -0.1607
  917MOL0     C26429  -1.002   9.356   5.769  0.5237 -0.0372  0.2020
  917MOL0     C26430  -0.958   9.497   5.717  0.2167 -0.0729  0.4531
  917MOL0     C26431  -1.073   9.598   5.748  1.1958  0.3192  0.0769
  917MOL0     O26432  -1.042   9.717   5.679 -0.5241 -0.7314  0.9001
  917MOL0     C26433  -1.089   9.844   5.712 -0.1852  0.4627 -0.0830
  917MOL0     C26434  -1.023   9.943   5.641  0.1442 -0.4271  0.1618
  917MOL0     C26435  -1.059  10.074   5.665 -0.1659  0.0389  0.0718
  917MOL0     C26436  -0.984  10.165   5.571 -0.1937 -0.5856  0.1813
  917MOL0     C26437  -1.165  10.114   5.753  0.1728 -0.1617 -0.0743
  917MOL0     C26438  -1.215  10.251   5.766 -1.1265  0.0361  0.6123
  917MOL0     O26439  -1.341  10.259   5.810 -0.0018  0.0498 -0.4568
  917MOL0     C26440  -1.404  10.390   5.792 -0.4982  0.6479 -0.4763
  917MOL0     C26441  -1.427  10.467   5.902  0.1254 -0.4563  0.2157
  917MOL0     C26442  -1.502  10.585   5.888 -0.6172 -0.0864 -0.1094
  917MOL0     C26443  -1.536  10.627   5.763 -0.5263  0.4448 -1.4347
  917MOL0     O26444  -1.579  10.754   5.744  0.5431 -0.1718 -0.3791
  917MOL0     C26445  -1.545  10.825   5.624  0.4697 -0.3710 -0.5517
  917MOL0     C26446  -1.553  10.981   5.648 -0.7868  0.1903 -0.1782
  917MOL0     C26447  -1.447  11.043   5.743 -0.3061  0.0182  0.1367
  917MOL0     C26448  -1.303  11.014   5.693 -0.4511 -0.3250 -0.5454
  917MOL0     C26449  -1.195  11.085   5.779 -0.4531  0.2611  0.6187
  917MOL0     C26450  -1.170  11.231   5.739 -0.1591 -0.7502  0.7584
  917MOL0     C26451  -1.046  11.280   5.808  0.5090 -0.4099 -1.3278
  917MOL0     C26452  -1.023  11.424   5.773  0.3920 -0.5126 -0.2690
  917MOL0    Cl26453  -0.926  11.492   5.894 -0.1483  0.0571  0.5105
  917MOL0     C26454  -1.515  10.546   5.658 -0.5377 -0.3446 -0.3671
  917MOL0     C26455  -1.456  10.423   5.669 -0.1532 -0.2374  0.6822
  917MOL0     O26456  -1.139  10.341   5.732  0.0007  0.2219 -0.0184
  917MOL0     C26457  -1.226  10.007   5.827  0.4588  1.0967  0.2089
  917MOL0     C26458  -1.189   9.873   5.805  0.5097 -0.0375 -0.5263
  917MOL0     N26459  -1.042   9.026   5.689  0.4267  0.5117 -0.6571
  917MOL0     N26460  -0.998   8.915   5.728  0.0092  0.3870 -0.5107
  917MOL0     C26461  -0.057   8.577   6.060  0.2189 -0.0826 -0.3243
  917MOL0     C26462   0.074   8.622   6.087  0.9714  0.0363 -0.6637
  917MOL0     C26463   0.441   8.859   6.103  0.5346  0.2189 -0.3102
  917MOL0     C26464   0.479   8.870   6.239  0.2329 -0.6777  0.3363
  917MOL0     C26465   0.593   8.933   6.287  0.6818 -0.1328  0.4018
  917MOL0     C26466   0.682   8.990   6.196 -0.6538 -1.0855  0.2592
  917MOL0     O26467   0.792   9.073   6.224 -0.4999  0.6909 -0.2493
  917MOL0     C26468   0.817   9.101   6.366  0.1954  0.2952  0.5211
  917MOL0     C26469   0.942   9.185   6.385  1.1269 -0.0544 -0.8071
  917MOL0     C26470   0.964   9.219   6.532 -1.3524  0.7228 -0.3955
  917MOL0     C26471   1.062   9.341   6.546  0.6660  0.5325  0.1995
  917MOL0     C26472   1.123   9.340   6.684 -0.2978  0.8491  0.0312
  917MOL0     C26473   1.175   9.342   6.790  0.0916 -0.5119 -0.9964
  917MOL0     C26474   0.663   8.977   6.057 -0.2933  0.3362  0.6831
  917MOL0     C26475   0.538   8.915   6.016 -1.0205 -0.3309  0.5868
  917MOL0     C26476   0.519   8.911   5.868 -0.4979 -0.7136 -0.3870
  917MOL0     H26477   0.014   8.938   6.198  1.0532  1.4134 -2.2653
  917MOL0     H26478  -0.224   8.849   6.172  1.0759  1.3797 -1.0384
  917MOL0     H26479  -0.363   8.684   6.291 -0.2843  0.4516 -1.2970
  917MOL0     H26480  -0.309   8.521   6.310  1.6292  2.6318  0.0576
  917MOL0     H26481  -0.506   8.459   6.148 -3.2104  0.6259 -0.5692
  917MOL0     H26482  -0.540   8.503   6.318 -0.1778 -0.0157  0.2617
  917MOL0     H26483  -0.606   8.733   6.252 -2.7231  1.3858 -0.7074
  917MOL0     H26484  -0.582   8.678   6.086 -0.0528  0.2993 -0.2342
  917MOL0     H26485  -0.753   8.502   6.103 -1.4592 -2.4518  2.0219
  917MOL0     H26486  -0.769   8.506   6.268 -2.0125 -0.0485 -0.1047
  917MOL0     H26487  -0.890   8.722   6.257 -3.0005  1.5474 -0.6139
  917MOL0     H26488  -0.945   8.623   6.114  1.7893  0.0126 -3.3056
  917MOL0     H26489  -0.918   8.861   6.041 -0.0396  0.3028 -0.0595
  917MOL0     H26490  -0.745   8.850   6.083 -0.7326  1.8066 -1.3051
  917MOL0     H26491  -0.899   8.658   5.894 -0.0571 -0.0874 -0.6316
  917MOL0     H26492  -0.727   8.647   5.942 -1.2315 -1.1170 -0.4314
  917MOL0     H26493  -0.696   8.875   5.852 -0.4523  0.1370 -0.1115
  917MOL0     H26494  -0.753   8.760   5.726  1.0615 -1.5658  0.8179
  917MOL0     H26495  -0.745   9.109   5.804  0.5022  0.0633 -0.2819
  917MOL0     H26496  -1.029   9.232   5.579 -0.4683  0.1260  0.0979
  917MOL0     H26497  -0.869   9.284   5.602  0.9757 -0.2013  1.3995
  917MOL0     H26498  -1.110   9.351   5.781  0.0653  1.3177 -2.5878
  917MOL0     H26499  -0.958   9.332   5.866 -0.1247  0.3358  0.5963
  917MOL0     H26500  -0.869   9.532   5.771 -0.9722  1.8690  1.2564
  917MOL0     H26501  -0.958   9.490   5.608 -2.6107  0.0221  0.3632
  917MOL0     H26502  -1.169   9.564   5.708  0.2490  2.7754  0.0873
  917MOL0     H26503  -1.089   9.608   5.855 -1.9010 -0.6738 -0.1989
  917MOL0     H26504  -0.945   9.916   5.571  1.3018 -0.0184  1.2634
  917MOL0     H26505  -0.920  10.232   5.628  0.3394 -0.7450 -0.2276
  917MOL0     H26506  -1.050  10.227   5.510 -0.4405 -0.8198  0.2063
  917MOL0     H26507  -0.907  10.113   5.515  3.8289  3.9504  0.8523
  917MOL0     H26508  -1.402  10.430   6.001 -0.7237 -1.6618  0.0001
  917MOL0     H26509  -1.525  10.653   5.969 -3.1650 -2.3183  1.2260
  917MOL0     H26510  -1.441  10.805   5.597  0.2495 -1.9013 -0.3423
  917MOL0     H26511  -1.602  10.793   5.536  0.9238  1.6399 -1.6581
  917MOL0     H26512  -1.540  11.032   5.552 -0.4474 -2.2524 -1.5027
  917MOL0     H26513  -1.648  11.009   5.695 -0.5471 -0.1972  0.5396
  917MOL0     H26514  -1.454  10.989   5.838  2.9538 -0.8949 -0.0198
  917MOL0     H26515  -1.472  11.148   5.758 -1.2865 -0.2990  0.9006
  917MOL0     H26516  -1.283  11.042   5.589 -2.6635 -1.9503 -1.5108
  917MOL0     H26517  -1.272  10.909   5.697  4.9275  1.0163  1.0703
  917MOL0     H26518  -1.219  11.064   5.884 -0.7562 -3.2701 -0.0241
  917MOL0     H26519  -1.102  11.030   5.764  0.3122  1.4317  1.0022
  917MOL0     H26520  -1.260  11.289   5.761 -0.3660  0.9345 -3.4829
  917MOL0     H26521  -1.157  11.239   5.630  0.7377 -1.7700  0.7776
  917MOL0     H26522  -0.961  11.216   5.780 -0.4674 -1.8481 -1.1256
  917MOL0     H26523  -1.065  11.275   5.915 -1.8768 -3.6460 -1.7394
  917MOL0     H26524  -1.120  11.476   5.773  1.6797  2.0235 -0.3162
  917MOL0     H26525  -0.968  11.437   5.679 -1.5089  2.1053 -1.1710
  917MOL0     H26526  -1.527  10.592   5.560 -0.1640  1.7934  0.5462
  917MOL0     H26527  -1.430  10.370   5.577 -0.2955  1.2693 -0.2565
  917MOL0     H26528  -1.312  10.029   5.889 -0.9379 -1.9336 -0.4535
  917MOL0     H26529  -1.232   9.796   5.868  1.3969 -0.4504 -0.4113
  917MOL0     H26530  -0.080   8.480   6.018 -0.4963  1.0734 -2.7257
  917MOL0     H26531   0.154   8.558   6.050 -0.1298 -1.0231 -1.3115
  917MOL0     H26532   0.412   8.816   6.305 -1.0657 -3.8840 -3.2681
  917MOL0     H26533   0.607   8.932   6.395 -2.0176  1.6065  0.8722
  917MOL0     H26534   0.732   9.160   6.402 -0.6714 -0.3333 -0.4607
  917MOL0     H26535   0.820   9.013   6.431  3.1683 -0.7340 -0.8416
  917MOL0     H26536   0.924   9.278   6.330  1.4340  2.3194  2.8022
  917MOL0     H26537   1.029   9.136   6.341  0.9897 -0.8113 -0.2519
  917MOL0     H26538   0.865   9.238   6.575 -1.3715  1.2129 -0.6389
  917MOL0     H26539   1.008   9.131   6.579 -3.0479  0.2403  0.3666
  917MOL0     H26540   1.002   9.430   6.520  0.0446 -0.3028 -1.3855
  917MOL0     H26541   1.148   9.339   6.478  2.0449 -2.2777  1.8760
  917MOL0     H26542   1.220   9.329   6.887 -1.3637  0.7653 -0.1020
  917MOL0     H26543   0.742   9.006   5.989 -1.2443  5.0920  1.2136
  917MOL0     H26544   0.416   8.938   5.843 -0.8597 -1.4418  0.2729
  917MOL0     H26545   0.585   8.979   5.813  1.6093 -0.1201  2.6143
  917MOL0     H26546   0.540   8.808   5.839  4.0767  0.0762 -0.6270
  918MOL0     O26547   3.214   7.710   5.412  0.5352  0.9673 -0.2659
  918MOL0     C26548   3.133   7.624   5.399 -0.2475 -0.5387 -1.0110
  918MOL0     O26549   3.008   7.647   5.356 -0.0718 -0.0002 -0.1766
  918MOL0     C26550   2.972   7.774   5.324 -0.1938  0.8099 -0.6674
  918MOL0     C26551   2.849   7.817   5.384 -0.0904 -0.0936  0.3381
  918MOL0     C26552   2.810   7.946   5.378  0.0656  0.0859 -0.9640
  918MOL0     C26553   2.890   8.037   5.309  0.1276  0.5561 -0.3131
  918MOL0     O26554   2.839   8.164   5.310  0.1127  0.5750 -0.2930
  918MOL0     C26555   2.916   8.288   5.275 -1.1687  0.6807 -0.0451
  918MOL0     C26556   2.818   8.402   5.286 -0.0145 -0.2403 -0.1855
  918MOL0     C26557   2.769   8.440   5.422 -1.5700  0.4942 -0.3003
  918MOL0     C26558   2.669   8.551   5.426  0.4168  0.5231  0.6096
  918MOL0     C26559   2.621   8.580   5.561  0.0658 -0.2428 -0.2630
  918MOL0     C26560   2.728   8.619   5.656  0.3350 -0.1311 -0.2383
  918MOL0     C26561   2.680   8.655   5.799 -0.1263 -0.0363 -0.2225
  918MOL0     C26562   2.792   8.657   5.894 -0.6348 -0.4987 -1.0076
  918MOL0     N26563   2.753   8.704   6.032  0.4999 -0.2947  0.8868
  918MOL0     C26564   2.770   8.820   6.096  0.1869  0.7471 -0.0644
  918MOL0     C26565   2.718   8.805   6.221 -0.1900  0.2237  0.1892
  918MOL0     C26566   2.725   8.915   6.317 -0.1644 -0.1832 -0.5472
  918MOL0     C26567   2.833   8.885   6.410 -0.2123 -0.4601 -0.2854
  918MOL0     C26568   2.860   8.995   6.521  0.5232 -0.4882 -0.0729
  918MOL0     C26569   2.992   8.966   6.601  0.4949 -0.2561 -0.2226
  918MOL0     O26570   3.022   9.095   6.660  0.1062  1.1272  0.1583
  918MOL0     C26571   3.144   9.107   6.720  0.5045 -0.4785 -0.2822
  918MOL0     C26572   3.232   9.018   6.747  0.5191  0.9271 -0.8788
  918MOL0     C26573   3.367   9.041   6.797  0.1662  0.3244  0.0188
  918MOL0     C26574   3.449   8.917   6.822  0.2134 -0.6632 -0.1480
  918MOL0     C26575   3.396   9.173   6.835 -0.3431 -0.6943 -0.6799
  918MOL0     C26576   3.533   9.224   6.868 -0.1412 -0.1960 -0.4012
  918MOL0     O26577   3.546   9.335   6.934 -0.0090  0.8732  0.6977
  918MOL0     C26578   3.669   9.391   6.946 -0.3305  0.5426  0.5676
  918MOL0     C26579   3.697   9.498   6.865  0.5826 -0.3001  0.4353
  918MOL0     C26580   3.821   9.561   6.889 -0.1953  0.2528  0.1074
  918MOL0     C26581   3.910   9.524   6.990 -0.5305 -0.0399  0.1105
  918MOL0     O26582   4.028   9.591   7.021 -0.5823  0.7517  0.8949
  918MOL0     C26583   4.092   9.663   6.906 -0.8685 -0.1010  0.2185
  918MOL0     C26584   4.199   9.763   6.955 -0.4553 -0.6986  0.5529
  918MOL0     C26585   4.144   9.838   7.067 -0.0693  0.2319  0.9946
  918MOL0     C26586   4.233   9.964   7.095 -0.7751 -0.5109 -0.0596
  918MOL0     C26587   4.372   9.932   7.142  0.1991  0.4374 -0.4260
  918MOL0     C26588   4.453  10.042   7.195 -0.0985  0.3777  0.6354
  918MOL0     C26589   4.569   9.982   7.276  0.3179 -0.2250 -0.3614
  918MOL0     C26590   4.667  10.076   7.348 -0.6093  0.6215  0.9444
  918MOL0    Cl26591   4.712  10.216   7.250 -0.2446 -0.2749 -0.1626
  918MOL0     C26592   3.876   9.413   7.075 -0.1813 -0.5942 -0.3835
  918MOL0     C26593   3.756   9.348   7.047  0.0993 -0.7610 -0.1640
  918MOL0     O26594   3.628   9.154   6.834 -0.2049  0.0415  0.2841
  918MOL0     C26595   3.296   9.271   6.818  0.8725  0.6771  0.0574
  918MOL0     C26596   3.179   9.235   6.755 -0.6238 -0.1340  0.7440
  918MOL0     N26597   2.663   8.684   6.229  0.1373 -0.2386 -0.5510
  918MOL0     N26598   2.674   8.629   6.116 -0.0728  0.7692 -0.2131
  918MOL0     C26599   3.000   8.000   5.245  0.2448  1.3714  0.0465
  918MOL0     C26600   3.052   7.869   5.248  0.0528  1.0531 -0.3000
  918MOL0     C26601   3.156   7.485   5.443 -0.2621 -0.1051 -0.0720
  918MOL0     C26602   3.250   7.464   5.541  0.0726  0.5334 -0.9166
  918MOL0     C26603   3.266   7.339   5.603  0.2665  0.2709 -0.0087
  918MOL0     C26604   3.193   7.228   5.563 -0.5889 -1.2832 -0.2017
  918MOL0     O26605   3.233   7.101   5.593  0.1817 -0.2546  0.9245
  918MOL0     C26606   3.133   7.018   5.651 -1.1180 -0.9658  0.3022
  918MOL0     C26607   3.109   6.889   5.566 -0.5084  0.2092 -0.7300
  918MOL0     C26608   3.043   6.780   5.660 -0.8598  0.4618 -0.3324
  918MOL0     C26609   3.011   6.643   5.588 -0.5870  0.6904  0.0593
  918MOL0     C26610   2.901   6.581   5.669 -0.0706  0.2957 -0.5444
  918MOL0     C26611   2.821   6.526   5.744 -0.8942  0.3959  0.7914
  918MOL0     C26612   3.098   7.253   5.466  0.5669 -0.0058  0.4142
  918MOL0     C26613   3.078   7.372   5.393 -0.1085 -1.4991  0.0236
  918MOL0     C26614   2.979   7.371   5.276 -0.3290 -0.6002  0.4302
  918MOL0     H26615   2.799   7.754   5.458  1.1340  1.0488  2.2468
  918MOL0     H26616   2.732   7.979   5.444  2.5237 -0.5635  2.5570
  918MOL0     H26617   2.957   8.288   5.173  2.4189  1.7732  1.2604
  918MOL0     H26618   2.998   8.308   5.344 -3.3424  2.8335  2.0582
  918MOL0     H26619   2.864   8.487   5.235  1.4898 -1.7000 -1.3504
  918MOL0     H26620   2.733   8.371   5.224 -0.3843 -3.0388  1.5476
  918MOL0     H26621   2.716   8.350   5.456 -1.3959 -0.8224 -3.2379
  918MOL0     H26622   2.861   8.461   5.476 -0.3557  0.7012 -2.3593
  918MOL0     H26623   2.727   8.636   5.390  0.6223  1.4489  2.9787
  918MOL0     H26624   2.590   8.533   5.352  1.6893  0.3597 -0.7692
  918MOL0     H26625   2.570   8.493   5.603  0.1396 -0.7705 -1.2239
  918MOL0     H26626   2.550   8.662   5.548 -0.8914 -0.8713  0.8543
  918MOL0     H26627   2.797   8.534   5.663 -0.5641 -0.8975 -0.5039
  918MOL0     H26628   2.778   8.712   5.625 -1.4163  1.0757  0.3708
  918MOL0     H26629   2.616   8.572   5.832  1.5249 -0.1474  3.1721
  918MOL0     H26630   2.623   8.748   5.802 -2.1344 -1.0290 -2.9232
  918MOL0     H26631   2.852   8.566   5.907  1.6604  0.9170 -1.0571
  918MOL0     H26632   2.866   8.729   5.857 -0.1609  1.6639  3.3769
  918MOL0     H26633   2.823   8.905   6.055  1.2070  0.5248  0.7365
  918MOL0     H26634   2.630   8.916   6.372 -0.1222  0.5697 -0.4805
  918MOL0     H26635   2.743   9.002   6.253 -0.9741  2.3259  2.3823
  918MOL0     H26636   2.817   8.790   6.463 -1.9325  0.0787  0.2230
  918MOL0     H26637   2.927   8.877   6.355  1.1856  1.0127  1.7630
  918MOL0     H26638   2.854   9.092   6.471 -3.2851 -0.5428 -0.0006
  918MOL0     H26639   2.780   8.993   6.596  0.4505  1.2068 -0.0670
  918MOL0     H26640   2.975   8.885   6.672 -1.1802  0.0373 -0.2531
  918MOL0     H26641   3.064   8.937   6.524  0.7594  3.8085 -1.7651
  918MOL0     H26642   3.209   8.914   6.726 -0.1303  0.6835  0.8283
  918MOL0     H26643   3.543   8.935   6.769 -0.2965  0.8016 -0.6102
  918MOL0     H26644   3.399   8.828   6.782  1.6197 -0.4202 -2.6466
  918MOL0     H26645   3.473   8.901   6.927  2.1413 -1.5069 -0.6673
  918MOL0     H26646   3.634   9.532   6.783  0.5929  2.3261  1.4246
  918MOL0     H26647   3.823   9.653   6.832  1.0524  2.3224  3.2117
  918MOL0     H26648   4.156   9.597   6.847  0.1107  2.5372 -1.8807
  918MOL0     H26649   4.026   9.730   6.849  0.4212  2.8812  1.9898
  918MOL0     H26650   4.296   9.715   6.972 -0.2898 -1.1623 -1.4441
  918MOL0     H26651   4.218   9.825   6.867  0.9378 -1.1478  0.5082
  918MOL0     H26652   4.146   9.764   7.147 -1.4047 -2.0497 -0.9395
  918MOL0     H26653   4.041   9.872   7.052 -0.1642  0.7869  2.7326
  918MOL0     H26654   4.176  10.027   7.163  0.3325  0.0620  0.3669
  918MOL0     H26655   4.236  10.023   7.003 -4.9532 -1.4924 -1.0615
  918MOL0     H26656   4.354   9.860   7.222 -0.7444  3.1480  1.9847
  918MOL0     H26657   4.434   9.878   7.070  1.1917  1.1784 -0.1596
  918MOL0     H26658   4.388  10.102   7.259  0.3787 -2.8170  4.5555
  918MOL0     H26659   4.501  10.100   7.115 -0.2191 -0.9864 -0.4676
  918MOL0     H26660   4.626   9.924   7.203 -0.3089  0.9947 -1.8716
  918MOL0     H26661   4.530   9.906   7.345  2.0691 -0.0791  0.8513
  918MOL0     H26662   4.760  10.023   7.368 -1.1007  0.0592  1.8040
  918MOL0     H26663   4.618  10.104   7.441  0.8629 -0.3278  2.0460
  918MOL0     H26664   3.940   9.364   7.148  0.0975  2.2084  1.3966
  918MOL0     H26665   3.738   9.255   7.100  2.2901 -0.8270  0.5646
  918MOL0     H26666   3.314   9.373   6.850  0.1861  0.6641  0.5029
  918MOL0     H26667   3.113   9.319   6.738 -0.4007 -0.1824 -0.4222
  918MOL0     H26668   3.060   8.068   5.185 -1.0280  2.7991  0.3504
  918MOL0     H26669   3.144   7.840   5.199  0.5200  0.6836  0.7642
  918MOL0     H26670   3.312   7.546   5.575 -0.4407 -0.0958  1.7619
  918MOL0     H26671   3.350   7.315   5.666  1.4108 -1.6938 -2.1355
  918MOL0     H26672   3.170   6.986   5.749 -1.4379  0.4762  0.9147
  918MOL0     H26673   3.041   7.070   5.678 -0.3742  1.0781 -0.8504
  918MOL0     H26674   3.200   6.845   5.522  0.3268 -0.7534  1.8054
  918MOL0     H26675   3.042   6.912   5.482  0.6900 -1.6027 -2.2820
  918MOL0     H26676   3.103   6.762   5.750  1.6335 -1.7560 -2.2671
  918MOL0     H26677   2.954   6.828   5.702 -0.5749 -1.5693  2.8882
  918MOL0     H26678   3.089   6.566   5.596  0.0502  1.2626 -0.5392
  918MOL0     H26679   2.970   6.671   5.491 -1.1572  1.7841  0.5909
  918MOL0     H26680   2.744   6.475   5.798 -1.2472 -0.4613 -0.4681
  918MOL0     H26681   3.060   7.158   5.429  2.4234 -0.3654 -0.7142
  918MOL0     H26682   3.027   7.412   5.186  3.9320 -2.9028  1.3660
  918MOL0     H26683   2.965   7.266   5.248  1.8410 -0.9012  0.2940
  918MOL0     H26684   2.878   7.407   5.295  0.1552 -0.2143  2.5215
  919MOL0     O26685   8.399   7.061   6.437  1.0056 -0.2913  0.2318
  919MOL0     C26686   8.346   6.954   6.461  0.4323 -0.0323 -0.8240
  919MOL0     O26687   8.256   6.891   6.392  0.4055  0.5503  0.2867
  919MOL0     C26688   8.176   6.959   6.305  0.9794 -0.6328  0.4155
  919MOL0     C26689   8.133   6.907   6.183  0.7323  0.2699  0.4400
  919MOL0     C26690   8.062   6.987   6.091 -0.4652  0.9646  0.0897
  919MOL0     C26691   8.020   7.114   6.133  0.6548 -0.8895 -0.1434
  919MOL0     O26692   7.968   7.190   6.024 -0.9500  0.3147 -0.5203
  919MOL0     C26693   7.881   7.298   6.051 -0.8079 -0.2128 -0.8053
  919MOL0     C26694   7.742   7.245   6.086 -0.0817  0.3025 -0.3594
  919MOL0     C26695   7.676   7.148   5.983 -0.0165  1.1005  0.3011
  919MOL0     C26696   7.533   7.107   6.035 -0.8563 -0.8399 -0.4268
  919MOL0     C26697   7.454   7.011   5.941  0.8703 -0.8104  0.3037
  919MOL0     C26698   7.521   6.869   5.911  0.1997 -0.3625  0.3476
  919MOL0     C26699   7.424   6.758   5.868  0.6319  0.6392  0.7055
  919MOL0     C26700   7.344   6.784   5.737  0.2969  0.7302 -0.0490
  919MOL0     N26701   7.428   6.788   5.613  0.3515  0.5746  0.6419
  919MOL0     C26702   7.527   6.700   5.588  0.0724 -0.1055  0.1052
  919MOL0     C26703   7.564   6.707   5.459 -0.1747  0.6843 -1.1982
  919MOL0     C26704   7.673   6.630   5.386 -0.3101 -0.1024  0.3513
  919MOL0     C26705   7.723   6.501   5.446 -0.5308  0.2385  0.4663
  919MOL0     C26706   7.824   6.441   5.358 -0.1639 -0.1840  0.3702
  919MOL0     C26707   7.868   6.303   5.386 -0.7615 -0.1367 -0.2628
  919MOL0     O26708   7.745   6.238   5.353  0.5080 -0.4232 -0.4396
  919MOL0     C26709   7.732   6.107   5.396 -0.8946  0.2754 -0.5108
  919MOL0     C26710   7.602   6.059   5.421 -0.2216 -0.0868 -0.5987
  919MOL0     C26711   7.581   5.931   5.481  0.0674 -0.3967 -0.8266
  919MOL0     C26712   7.442   5.901   5.525 -0.3718  0.0423 -0.5988
  919MOL0     C26713   7.686   5.837   5.473 -0.5656 -0.3730 -0.8610
  919MOL0     C26714   7.675   5.690   5.505 -0.1027 -0.1476 -0.3854
  919MOL0     O26715   7.555   5.644   5.504  0.2244  0.0344  0.0349
  919MOL0     C26716   7.513   5.523   5.564 -0.1927  0.3582 -0.2298
  919MOL0     C26717   7.497   5.507   5.694 -0.3246  0.3801  0.2171
  919MOL0     C26718   7.446   5.386   5.744  0.3867  0.5589  0.9467
  919MOL0     C26719   7.438   5.272   5.664  0.2792  0.2716 -0.8214
  919MOL0     O26720   7.375   5.166   5.726 -0.3323 -0.0082  0.2605
  919MOL0     C26721   7.396   5.040   5.667  0.6889 -0.3823  0.0978
  919MOL0     C26722   7.343   4.946   5.772  0.2227 -0.6697 -0.0768
  919MOL0     C26723   7.376   4.797   5.743 -0.1143 -0.1883 -0.3443
  919MOL0     C26724   7.519   4.756   5.759  0.3424 -1.2656 -0.1897
  919MOL0     C26725   7.562   4.613   5.774 -0.0595 -0.3590 -0.0890
  919MOL0     C26726   7.513   4.548   5.907  0.4614 -0.3455  0.6992
  919MOL0     C26727   7.498   4.397   5.884 -0.7037 -0.1244  0.7222
  919MOL0     C26728   7.626   4.323   5.852 -0.3673 -0.7686  0.1734
  919MOL0    Cl26729   7.588   4.158   5.786 -0.1521  0.0401 -0.0290
  919MOL0     C26730   7.461   5.283   5.525  0.6831  0.4346 -1.6574
  919MOL0     C26731   7.484   5.418   5.476 -0.0518 -0.2405  0.1868
  919MOL0     O26732   7.775   5.625   5.527  0.8477  0.0334 -0.0446
  919MOL0     C26733   7.817   5.888   5.440 -0.0719  0.0412  0.5817
  919MOL0     C26734   7.842   6.022   5.409  0.4231 -0.0995 -0.6708
  919MOL0     N26735   7.471   6.790   5.409 -1.5652 -0.2205  0.1462
  919MOL0     N26736   7.383   6.830   5.499 -0.1755 -0.4609  0.2920
  919MOL0     C26737   8.041   7.161   6.262  0.5239  0.8902  0.9417
  919MOL0     C26738   8.128   7.088   6.344  0.0303 -0.7991  0.9260
  919MOL0     C26739   8.392   6.888   6.589 -0.2319 -0.4535  0.8132
  919MOL0     C26740   8.338   6.765   6.622  0.5561  0.7458 -0.3626
  919MOL0     C26741   8.385   6.697   6.736 -0.0251 -0.1577  0.4905
  919MOL0     C26742   8.474   6.747   6.823  0.5361  0.6459 -0.5620
  919MOL0     O26743   8.507   6.668   6.926 -0.2506  0.7080 -0.0900
  919MOL0     C26744   8.604   6.703   7.021 -0.2752 -1.0755  0.2695
  919MOL0     C26745   8.643   6.586   7.123 -0.2853  0.2502 -0.0049
  919MOL0     C26746   8.688   6.638   7.253 -0.9132  0.6864 -0.3179
  919MOL0     C26747   8.841   6.659   7.263 -0.0118 -0.2381 -0.3873
  919MOL0     C26748   8.911   6.537   7.208 -0.2379 -0.3261  0.2403
  919MOL0     C26749   8.950   6.433   7.149  0.0029  0.3501  0.4473
  919MOL0     C26750   8.531   6.868   6.786  0.4184 -0.3009 -0.4391
  919MOL0     C26751   8.494   6.938   6.672  0.6641 -0.2008  0.7563
  919MOL0     C26752   8.572   7.063   6.642 -0.0690 -0.3384  0.2474
  919MOL0     H26753   8.177   6.814   6.150 -0.7825 -0.6966  1.0603
  919MOL0     H26754   8.034   6.953   5.992  0.4689  2.3635 -0.6732
  919MOL0     H26755   7.872   7.364   5.964  1.4949  0.6113 -0.4973
  919MOL0     H26756   7.925   7.354   6.134 -1.0231 -1.9588  0.5549
  919MOL0     H26757   7.753   7.178   6.172 -2.4780 -2.2919 -1.8796
  919MOL0     H26758   7.687   7.334   6.116  1.2282  1.3100 -0.8266
  919MOL0     H26759   7.672   7.203   5.889  0.9506  0.5692 -0.0668
  919MOL0     H26760   7.739   7.059   5.971  1.6803  2.3058 -0.1523
  919MOL0     H26761   7.546   7.070   6.137  2.5760 -1.0877 -0.8528
  919MOL0     H26762   7.475   7.200   6.043  1.3705  0.5144  1.0914
  919MOL0     H26763   7.440   7.061   5.845  2.0011 -2.0813 -0.5461
  919MOL0     H26764   7.353   7.004   5.983  1.3009  1.6089  1.9801
  919MOL0     H26765   7.587   6.893   5.827 -2.7971  3.3157 -1.2615
  919MOL0     H26766   7.575   6.828   5.997  0.7664  0.1087  0.2257
  919MOL0     H26767   7.347   6.766   5.946  0.9429  0.7094  1.0051
  919MOL0     H26768   7.474   6.661   5.865  0.7580  0.7221 -0.6713
  919MOL0     H26769   7.262   6.714   5.716  0.6069  0.2972  0.1736
  919MOL0     H26770   7.296   6.883   5.741  0.5554  0.8733 -0.4211
  919MOL0     H26771   7.579   6.632   5.655 -4.3219 -3.2994  0.6441
  919MOL0     H26772   7.759   6.697   5.375  1.8142 -2.5880  0.7033
  919MOL0     H26773   7.632   6.593   5.291 -2.0937  1.6346  0.3950
  919MOL0     H26774   7.779   6.508   5.539 -1.9497  2.1367  1.2229
  919MOL0     H26775   7.638   6.434   5.462 -1.7740  1.9367  1.2732
  919MOL0     H26776   7.791   6.437   5.254  1.6763  0.5291 -0.2954
  919MOL0     H26777   7.918   6.497   5.362  1.4721 -2.8089  1.5729
  919MOL0     H26778   7.938   6.266   5.310 -2.8740 -0.9816 -1.9101
  919MOL0     H26779   7.909   6.289   5.486 -2.7990  0.6300  0.7323
  919MOL0     H26780   7.509   6.114   5.427  0.1003  0.3804  0.6136
  919MOL0     H26781   7.400   5.830   5.454  0.9474 -0.0203 -1.3516
  919MOL0     H26782   7.376   5.988   5.524  0.9416  1.0692 -0.4375
  919MOL0     H26783   7.451   5.858   5.625  0.0965 -0.9074 -1.0361
  919MOL0     H26784   7.512   5.592   5.760  1.2438 -0.1273  0.5345
  919MOL0     H26785   7.427   5.376   5.850  0.8307  2.2494  1.2144
  919MOL0     H26786   7.350   5.032   5.568  2.0139  0.6644 -0.6260
  919MOL0     H26787   7.504   5.029   5.658  1.1023  3.0704 -0.2936
  919MOL0     H26788   7.384   4.978   5.868  3.6701  0.9197 -1.8493
  919MOL0     H26789   7.234   4.948   5.775  0.1850 -0.3736 -1.0592
  919MOL0     H26790   7.328   4.776   5.648 -2.0573 -3.2994  1.1469
  919MOL0     H26791   7.324   4.733   5.815 -3.2626  2.1336 -0.3778
  919MOL0     H26792   7.548   4.820   5.843 -2.3405  2.7425 -1.9807
  919MOL0     H26793   7.564   4.791   5.666 -1.4846  0.9788 -0.3211
  919MOL0     H26794   7.509   4.561   5.694  1.9555 -2.4215 -0.1885
  919MOL0     H26795   7.668   4.595   5.753 -0.1233 -1.0903  0.1854
  919MOL0     H26796   7.414   4.576   5.945 -0.3888 -2.7112  0.4051
  919MOL0     H26797   7.585   4.585   5.980 -0.0302  0.9566  0.5630
  919MOL0     H26798   7.432   4.378   5.799  2.4811  2.2749 -2.5918
  919MOL0     H26799   7.459   4.357   5.978 -0.2636 -0.8752  0.5893
  919MOL0     H26800   7.689   4.328   5.942 -1.2418 -2.1685  0.8990
  919MOL0     H26801   7.683   4.373   5.773 -0.3707  1.7092  1.6083
  919MOL0     H26802   7.431   5.212   5.449 -0.8716 -0.9573  0.1782
  919MOL0     H26803   7.488   5.447   5.371  3.4555 -0.7606  0.0628
  919MOL0     H26804   7.899   5.819   5.430  0.6910  1.0592 -0.5644
  919MOL0     H26805   7.939   6.047   5.368 -0.1380 -0.1807 -2.1066
  919MOL0     H26806   7.992   7.254   6.290  0.3154  1.5697 -1.4518
  919MOL0     H26807   8.162   7.133   6.437  2.4560  0.7455 -0.5748
  919MOL0     H26808   8.251   6.719   6.577 -0.6086 -0.8873  3.1793
  919MOL0     H26809   8.334   6.603   6.757 -1.4125  0.5544  0.4422
  919MOL0     H26810   8.702   6.722   6.977 -0.0411 -2.1289  0.3158
  919MOL0     H26811   8.572   6.792   7.075 -2.9642 -2.9715  2.0439
  919MOL0     H26812   8.709   6.512   7.077 -1.3049 -1.2779  0.8951
  919MOL0     H26813   8.549   6.532   7.133  0.9183 -1.5378  3.0220
  919MOL0     H26814   8.632   6.728   7.281 -1.5204  0.1559  0.2262
  919MOL0     H26815   8.669   6.570   7.336 -0.0291  1.3279  0.4230
  919MOL0     H26816   8.867   6.671   7.368 -0.4524 -2.1079 -0.0371
  919MOL0     H26817   8.862   6.756   7.217 -0.1002  0.2853  0.6497
  919MOL0     H26818   8.977   6.339   7.105 -0.9862 -0.1890  0.9543
  919MOL0     H26819   8.607   6.909   6.852 -2.4045  0.1028  2.8596
  919MOL0     H26820   8.660   7.071   6.706 -1.2305  0.1766  1.8613
  919MOL0     H26821   8.600   7.068   6.537 -1.4676  1.0955 -0.0890
  919MOL0     H26822   8.506   7.148   6.663  4.3609  2.7631  3.4796
  920MOL0     O26823   5.207   7.935   0.447 -0.7038 -0.7828 -0.5512
  920MOL0     C26824   5.269   7.960   0.546 -0.2750 -0.5407 -0.3162
  920MOL0     O26825   5.242   8.065   0.632 -0.4882  1.0309  0.0727
  920MOL0     C26826   5.128   8.135   0.609 -0.4472 -0.2402 -0.9981
  920MOL0     C26827   5.089   8.191   0.484 -0.5713 -0.4565 -0.8274
  920MOL0     C26828   4.965   8.259   0.470 -0.1804  0.1695 -0.1643
  920MOL0     C26829   4.883   8.292   0.584 -0.4464 -0.0959  0.4016
  920MOL0     O26830   4.768   8.363   0.587 -0.5822 -0.6540 -0.3586
  920MOL0     C26831   4.730   8.412   0.455  0.0725 -0.0938 -0.7857
  920MOL0     C26832   4.597   8.495   0.459 -0.2380 -0.3925 -0.6368
  920MOL0     C26833   4.479   8.403   0.503 -0.2610  0.1733 -0.9628
  920MOL0     C26834   4.337   8.468   0.506 -0.2714  0.1029 -0.2929
  920MOL0     C26835   4.234   8.386   0.586 -0.4489 -0.3767  0.0413
  920MOL0     C26836   4.096   8.447   0.568  0.2816  0.0999 -0.2306
  920MOL0     C26837   3.993   8.398   0.671 -0.0553  0.3256 -0.1730
  920MOL0     C26838   3.854   8.453   0.654  0.4360 -0.5639  0.9359
  920MOL0     N26839   3.755   8.425   0.754 -0.2648 -0.1746 -0.3809
  920MOL0     C26840   3.757   8.317   0.827 -0.5708 -0.1249 -0.4633
  920MOL0     C26841   3.666   8.330   0.925  0.0575 -0.3305 -0.2955
  920MOL0     C26842   3.625   8.226   1.015 -0.4046  0.2816 -0.6122
  920MOL0     C26843   3.534   8.280   1.126  0.0100 -0.0606 -0.2410
  920MOL0     C26844   3.442   8.163   1.168 -0.1954 -0.1252 -0.5079
  920MOL0     C26845   3.324   8.195   1.263 -0.5531  0.2580  0.6134
  920MOL0     O26846   3.348   8.259   1.390 -0.9485  0.0623  1.0473
  920MOL0     C26847   3.245   8.267   1.481  0.9346 -0.3644 -0.4247
  920MOL0     C26848   3.121   8.190   1.481  0.0785  0.6905  0.2660
  920MOL0     C26849   3.022   8.208   1.584  1.2792  0.5395  0.4333
  920MOL0     C26850   2.898   8.113   1.587 -0.3985  0.1187 -0.3487
  920MOL0     C26851   3.040   8.306   1.685 -0.8119  1.3212  0.7523
  920MOL0     C26852   2.952   8.337   1.799 -0.2668 -0.2791  0.8118
  920MOL0     O26853   2.991   8.462   1.860  0.0031  0.2359  0.2486
  920MOL0     C26854   2.958   8.486   1.996 -0.3672  0.2839  0.1447
  920MOL0     C26855   2.963   8.614   2.031  1.1786  0.5884 -0.0573
  920MOL0     C26856   2.906   8.658   2.145 -0.4644 -0.3772 -0.4141
  920MOL0     C26857   2.862   8.572   2.243 -0.3688  0.3661  0.1534
  920MOL0     O26858   2.797   8.627   2.351 -0.0920  0.5846  0.0127
  920MOL0     C26859   2.719   8.552   2.441  0.8772 -0.0149 -0.0899
  920MOL0     C26860   2.613   8.643   2.499 -0.5356 -0.3476 -0.0115
  920MOL0     C26861   2.511   8.569   2.577  0.6776 -0.3809  0.0874
  920MOL0     C26862   2.539   8.531   2.724  0.6045 -0.3461 -0.8958
  920MOL0     C26863   2.567   8.379   2.761 -0.6165 -0.6583  0.7657
  920MOL0     C26864   2.441   8.286   2.776 -0.7901  0.6690  0.4506
  920MOL0     C26865   2.472   8.144   2.809  0.4820 -0.4236  0.7754
  920MOL0     C26866   2.546   8.105   2.937  0.2227 -0.2115  0.1195
  920MOL0    Cl26867   2.476   8.168   3.085  0.4325  0.2723  0.0214
  920MOL0     C26868   2.862   8.432   2.216  0.2829  0.0113 -0.1493
  920MOL0     C26869   2.918   8.392   2.093  0.5201 -0.2018  0.2992
  920MOL0     O26870   2.861   8.259   1.830  0.0182  1.0116  0.4012
  920MOL0     C26871   3.170   8.369   1.684 -0.4669  0.5771 -0.2557
  920MOL0     C26872   3.268   8.344   1.591  0.6143  0.1115 -0.0011
  920MOL0     N26873   3.608   8.458   0.899 -0.2341  0.4141  0.4092
  920MOL0     N26874   3.655   8.506   0.794  0.1194  0.2947 -0.3728
  920MOL0     C26875   4.931   8.243   0.704  0.3296  0.0758  0.5886
  920MOL0     C26876   5.049   8.165   0.725  0.3850  0.0908  0.2433
  920MOL0     C26877   5.382   7.873   0.590 -0.0029  0.2503  0.2256
  920MOL0     C26878   5.416   7.854   0.723  0.1161 -0.6726 -0.2154
  920MOL0     C26879   5.525   7.779   0.765 -0.4130 -0.1472  0.1512
  920MOL0     C26880   5.603   7.718   0.673  0.7030 -0.2806  0.1006
  920MOL0     O26881   5.703   7.655   0.735 -0.2278 -0.7545  0.1724
  920MOL0     C26882   5.790   7.564   0.670 -1.1049  0.2081 -0.2384
  920MOL0     C26883   5.888   7.488   0.758 -0.4803 -0.3458 -0.1582
  920MOL0     C26884   5.940   7.560   0.885  0.7922  0.1400  0.1130
  920MOL0     C26885   5.854   7.538   1.004 -0.4591  0.3645 -0.6532
  920MOL0     C26886   5.869   7.411   1.075 -0.5250 -0.4315  1.0712
  920MOL0     C26887   5.867   7.296   1.116 -0.0922 -0.5293  0.3953
  920MOL0     C26888   5.563   7.718   0.542  0.1763 -0.1538 -0.2037
  920MOL0     C26889   5.453   7.795   0.496 -0.4934 -0.3588 -0.1133
  920MOL0     C26890   5.432   7.797   0.345 -0.5926  0.2557  0.5071
  920MOL0     H26891   5.161   8.181   0.404  0.6842 -1.4125  0.3886
  920MOL0     H26892   4.935   8.300   0.374 -1.5560 -2.2527 -0.8695
  920MOL0     H26893   4.706   8.324   0.395 -2.0991 -0.0538 -0.0507
  920MOL0     H26894   4.818   8.469   0.424  1.0801 -0.6851  0.8709
  920MOL0     H26895   4.608   8.559   0.548  0.6198 -3.2749  1.4835
  920MOL0     H26896   4.573   8.553   0.369 -2.5573  1.1805  0.8835
  920MOL0     H26897   4.463   8.316   0.439 -0.3841 -0.8310  0.3857
  920MOL0     H26898   4.499   8.369   0.605  0.0598  0.9839 -0.7396
  920MOL0     H26899   4.345   8.567   0.552  1.8547 -0.6351  1.0698
  920MOL0     H26900   4.301   8.476   0.403 -1.4000  0.4162  0.1089
  920MOL0     H26901   4.254   8.399   0.693 -0.8663  1.4714 -0.0804
  920MOL0     H26902   4.225   8.280   0.562  2.4640 -0.6580 -0.1445
  920MOL0     H26903   4.111   8.555   0.578  4.4405 -0.3165 -0.1983
  920MOL0     H26904   4.058   8.434   0.466 -2.2283  1.3893  0.4474
  920MOL0     H26905   4.024   8.435   0.769 -2.4546  1.1679  0.3516
  920MOL0     H26906   3.981   8.290   0.659 -2.3335  0.7585 -2.8049
  920MOL0     H26907   3.869   8.560   0.638  2.2539 -0.6980  1.5258
  920MOL0     H26908   3.814   8.423   0.557  1.8545  1.5187 -0.3765
  920MOL0     H26909   3.824   8.232   0.826  3.2621  2.3956  3.7133
  920MOL0     H26910   3.711   8.173   1.057  0.4092  1.1116 -1.2021
  920MOL0     H26911   3.580   8.146   0.955  1.2635 -0.4865 -0.9017
  920MOL0     H26912   3.588   8.313   1.215  1.6517 -3.1341  0.0559
  920MOL0     H26913   3.468   8.359   1.089  0.5809  3.1224  4.5697
  920MOL0     H26914   3.411   8.116   1.074  2.4157 -3.4212  0.0771
  920MOL0     H26915   3.499   8.087   1.223 -0.7363  1.4891  2.4617
  920MOL0     H26916   3.270   8.263   1.196 -0.1990 -0.5185 -0.4911
  920MOL0     H26917   3.263   8.108   1.289  1.0434  0.1956  4.9741
  920MOL0     H26918   3.097   8.124   1.399  1.6279  0.2270  0.1555
  920MOL0     H26919   2.808   8.172   1.609  0.5713  0.8345  2.0434
  920MOL0     H26920   2.906   8.033   1.662 -0.7086  1.6057  1.3404
  920MOL0     H26921   2.890   8.063   1.491  0.0786  0.6048 -0.6462
  920MOL0     H26922   2.994   8.695   1.965  0.0874 -0.0770 -1.4329
  920MOL0     H26923   2.898   8.764   2.164 -2.4832 -0.3243 -1.3711
  920MOL0     H26924   2.663   8.475   2.388 -0.8854  0.3819  1.1154
  920MOL0     H26925   2.782   8.497   2.512  1.0019 -0.4278 -0.5152
  920MOL0     H26926   2.662   8.727   2.549 -1.8184  1.4273 -1.6059
  920MOL0     H26927   2.555   8.686   2.417  1.0711 -0.7833 -1.4626
  920MOL0     H26928   2.486   8.478   2.522 -0.8020  0.0108  0.0578
  920MOL0     H26929   2.425   8.636   2.583 -0.4944 -1.9528  2.4295
  920MOL0     H26930   2.449   8.571   2.771  0.4607 -1.4456 -0.1861
  920MOL0     H26931   2.620   8.594   2.763  1.9826  1.1772 -5.6082
  920MOL0     H26932   2.631   8.338   2.683  0.8841 -0.0786  1.6300
  920MOL0     H26933   2.634   8.377   2.848 -0.7297  1.3579  0.9571
  920MOL0     H26934   2.382   8.276   2.685 -0.6232 -0.2812  0.4295
  920MOL0     H26935   2.382   8.321   2.861 -0.2926  0.9183  0.6991
  920MOL0     H26936   2.540   8.105   2.733 -0.4179 -4.1360  1.6548
  920MOL0     H26937   2.376   8.092   2.811 -0.2309  0.7034 -1.2239
  920MOL0     H26938   2.650   8.138   2.928  0.7939 -1.8086  0.5028
  920MOL0     H26939   2.557   7.996   2.936 -0.7567 -0.3152 -1.3056
  920MOL0     H26940   2.819   8.355   2.281  2.5969 -0.2318  1.1789
  920MOL0     H26941   2.916   8.290   2.056 -0.5033  0.0363 -0.3460
  920MOL0     H26942   3.201   8.442   1.758 -1.7255  1.0070 -0.1324
  920MOL0     H26943   3.367   8.387   1.601  0.8695 -0.6078  0.6704
  920MOL0     H26944   4.861   8.252   0.786 -1.3922  0.3542 -0.8667
  920MOL0     H26945   5.073   8.129   0.824 -0.5427 -0.4055  0.3007
  920MOL0     H26946   5.346   7.906   0.787 -0.5466 -4.4354  2.4396
  920MOL0     H26947   5.553   7.791   0.869 -1.3294  2.4206  0.1653
  920MOL0     H26948   5.722   7.498   0.615 -0.8104  0.8619 -1.4155
  920MOL0     H26949   5.849   7.626   0.602  1.7535 -0.3298  1.5994
  920MOL0     H26950   5.977   7.476   0.695 -1.4099  1.4802 -1.9616
  920MOL0     H26951   5.844   7.392   0.787 -1.9337 -1.2874 -4.5522
  920MOL0     H26952   6.043   7.528   0.904  1.8796  0.6284 -3.8884
  920MOL0     H26953   5.952   7.667   0.867 -0.4501  0.9998  3.6301
  920MOL0     H26954   5.752   7.565   0.973 -0.7092  0.3357  0.1153
  920MOL0     H26955   5.883   7.624   1.064  1.0430  0.4311 -1.4361
  920MOL0     H26956   5.840   7.198   1.151 -0.1086 -0.4126  0.7191
  920MOL0     H26957   5.610   7.652   0.470 -2.3438 -0.4930 -1.6372
  920MOL0     H26958   5.514   7.745   0.295 -2.2430  0.1653 -2.3343
  920MOL0     H26959   5.334   7.762   0.313  0.4063 -0.9294 -1.4246
  920MOL0     H26960   5.443   7.899   0.306 -0.2514 -0.4201 -1.2525
  921MOL0     O26961   3.931   7.850   8.794  0.0791  0.4021 -0.7434
  921MOL0     C26962   3.916   7.855   8.672 -0.2837 -0.0854 -0.1174
  921MOL0     O26963   3.981   7.945   8.580 -0.4146 -0.4143  0.0472
  921MOL0     C26964   4.086   8.028   8.614 -0.3253 -0.2079 -0.6026
  921MOL0     C26965   4.097   8.148   8.547 -0.0140  0.1711  0.3777
  921MOL0     C26966   4.203   8.243   8.580  0.4853 -0.0178 -0.5758
  921MOL0     C26967   4.296   8.211   8.679 -0.0651  0.7591 -0.4726
  921MOL0     O26968   4.387   8.310   8.710 -0.5288  0.2133  0.5124
  921MOL0     C26969   4.450   8.297   8.837  0.0392 -1.1137  0.3606
  921MOL0     C26970   4.521   8.424   8.890  0.0310  1.3944 -0.3308
  921MOL0     C26971   4.523   8.441   9.045 -0.5915 -1.3613 -0.4404
  921MOL0     C26972   4.589   8.303   9.099  0.2964 -0.1531 -1.0018
  921MOL0     C26973   4.627   8.315   9.247  0.7161 -0.1191  0.0633
  921MOL0     C26974   4.518   8.269   9.343 -0.8560 -0.0498 -1.3048
  921MOL0     C26975   4.531   8.117   9.363  0.5883 -0.0195  0.4493
  921MOL0     C26976   4.396   8.060   9.384 -0.5132 -0.1026  0.2091
  921MOL0     N26977   4.333   8.001   9.261  0.1696  0.1341  0.8085
  921MOL0     C26978   4.225   7.912   9.264  0.5401 -0.6830 -0.0706
  921MOL0     C26979   4.197   7.872   9.139 -0.0986 -0.2722 -0.7533
  921MOL0     C26980   4.072   7.784   9.102 -0.6548 -0.2597 -0.6596
  921MOL0     C26981   4.047   7.667   9.201 -0.8863  0.2232 -0.4408
  921MOL0     C26982   3.951   7.568   9.146  0.5111 -0.2770 -0.0483
  921MOL0     C26983   3.925   7.448   9.239 -0.5246 -0.7293  0.0837
  921MOL0     O26984   3.908   7.500   9.379 -0.0593 -0.8095 -0.2498
  921MOL0     C26985   3.917   7.398   9.475 -0.1104  0.6869 -0.3094
  921MOL0     C26986   3.994   7.277   9.481 -0.0724  0.0883 -0.0072
  921MOL0     C26987   3.986   7.183   9.585 -0.2389 -0.1652 -0.2071
  921MOL0     C26988   4.064   7.056   9.573  0.1184  0.0549 -0.5103
  921MOL0     C26989   3.902   7.215   9.696 -1.1037 -0.5209 -0.5560
  921MOL0     C26990   3.898   7.139   9.824  0.1440  0.3665  0.5302
  921MOL0     O26991   4.013   7.077   9.857  0.2731  0.6472  0.5505
  921MOL0     C26992   4.005   6.979   9.946  0.2962  0.2064 -0.7195
  921MOL0     C26993   4.129   6.941   9.999 -0.4179 -0.3258  0.9550
  921MOL0     C26994   4.147   6.822  10.068 -0.4550 -0.5669  0.1019
  921MOL0     C26995   4.031   6.742  10.102 -1.2256 -0.5228 -0.5941
  921MOL0     O26996   4.037   6.623  10.175  0.3652 -0.4020  0.2122
  921MOL0     C26997   4.138   6.529  10.116  0.1665  0.1140 -0.0199
  921MOL0     C26998   4.105   6.483   9.977 -0.2276  1.2854  0.1719
  921MOL0     C26999   4.171   6.347   9.941  1.2678  0.3681  0.3753
  921MOL0     C27000   4.127   6.309   9.801  0.2831  0.3391 -0.2969
  921MOL0     C27001   4.087   6.158   9.790  0.2747 -0.7988  0.1280
  921MOL0     C27002   4.206   6.062   9.818  0.6362 -0.7579  0.3266
  921MOL0     C27003   4.163   5.912   9.803  0.5491 -0.3928 -0.6530
  921MOL0     C27004   4.277   5.816   9.837 -0.1494  0.4091  0.2171
  921MOL0    Cl27005   4.222   5.643   9.834  0.0743  0.3840  0.0024
  921MOL0     C27006   3.904   6.791  10.060 -0.2745  0.3540 -0.5623
  921MOL0     C27007   3.893   6.905   9.981  0.0116  0.4535  0.3851
  921MOL0     O27008   3.798   7.159   9.898 -0.5707 -0.0975  0.2049
  921MOL0     C27009   3.829   7.334   9.694 -0.7393 -0.2949 -0.9637
  921MOL0     C27010   3.838   7.421   9.584  0.1395  0.0294 -0.1319
  921MOL0     N27011   4.292   7.941   9.060 -0.1747 -0.4351 -0.7531
  921MOL0     N27012   4.367   8.021   9.133 -0.2149 -0.0931 -0.3196
  921MOL0     C27013   4.288   8.085   8.742  0.7115  0.2070 -0.0248
  921MOL0     C27014   4.182   7.996   8.706  0.0294  0.4083  0.0576
  921MOL0     C27015   3.805   7.779   8.618 -0.7394 -0.3865 -1.2658
  921MOL0     C27016   3.711   7.725   8.709  0.0506 -0.1094  0.9961
  921MOL0     C27017   3.615   7.638   8.673 -0.7690 -0.1725 -0.0578
  921MOL0     C27018   3.606   7.591   8.552  0.3677  0.2592  1.1449
  921MOL0     O27019   3.521   7.487   8.538  1.0421  0.7455  0.6325
  921MOL0     C27020   3.485   7.442   8.401 -0.4993 -0.5652 -0.8358
  921MOL0     C27021   3.365   7.342   8.410 -0.2741  0.3090  1.0018
  921MOL0     C27022   3.410   7.209   8.468  0.3782 -1.0211 -0.0533
  921MOL0     C27023   3.478   7.212   8.610  0.1011  0.8442 -0.1551
  921MOL0     C27024   3.512   7.078   8.655 -0.4112 -0.2016 -0.2822
  921MOL0     C27025   3.556   6.973   8.685 -0.2850  0.7543 -0.5168
  921MOL0     C27026   3.679   7.659   8.449 -0.0219  0.3955  1.2659
  921MOL0     C27027   3.785   7.748   8.486 -0.2907  0.9076  0.8010
  921MOL0     C27028   3.862   7.815   8.378 -0.2121  0.1635 -0.7857
  921MOL0     H27029   4.020   8.169   8.473 -0.8010 -1.9555  0.5382
  921MOL0     H27030   4.192   8.340   8.532 -2.7518 -1.1288 -2.4710
  921MOL0     H27031   4.528   8.221   8.834 -1.0821 -2.3294  0.7576
  921MOL0     H27032   4.373   8.275   8.912 -0.7873  0.3206 -0.0132
  921MOL0     H27033   4.624   8.432   8.852 -0.6495  0.1871 -2.5876
  921MOL0     H27034   4.468   8.510   8.848  0.5501  2.2826  0.8006
  921MOL0     H27035   4.584   8.528   9.071 -0.5498 -1.8830  1.3198
  921MOL0     H27036   4.428   8.457   9.097  0.5454  1.8872  0.8692
  921MOL0     H27037   4.524   8.219   9.073 -0.2755  0.5471 -1.8779
  921MOL0     H27038   4.679   8.281   9.040 -0.2586  0.4429 -2.0950
  921MOL0     H27039   4.652   8.421   9.260  0.1657  0.2226 -1.5164
  921MOL0     H27040   4.711   8.253   9.276  0.2471 -1.2188 -0.8613
  921MOL0     H27041   4.528   8.328   9.434  2.2985  2.0991 -2.8400
  921MOL0     H27042   4.416   8.294   9.311 -1.2381  1.2002  0.7197
  921MOL0     H27043   4.596   8.092   9.447  0.4950  0.2875  0.6144
  921MOL0     H27044   4.573   8.062   9.278 -1.2167  0.4434 -0.8093
  921MOL0     H27045   4.398   7.980   9.458 -2.6771 -1.4645 -1.1125
  921MOL0     H27046   4.321   8.131   9.421 -1.5694 -1.9997  1.9083
  921MOL0     H27047   4.177   7.887   9.358  1.3794  0.6576  0.7511
  921MOL0     H27048   4.084   7.747   9.000 -1.4558 -0.4371 -0.6946
  921MOL0     H27049   3.989   7.855   9.102  1.5198  2.7399  3.6831
  921MOL0     H27050   4.140   7.611   9.213  0.8679  2.2230 -3.4131
  921MOL0     H27051   4.018   7.710   9.297  2.0795  1.6183 -0.0486
  921MOL0     H27052   3.858   7.624   9.132  0.8023  0.8859  2.2996
  921MOL0     H27053   3.970   7.519   9.050  0.1369  0.4418 -0.4943
  921MOL0     H27054   3.830   7.401   9.212 -0.1722 -0.9871 -0.7504
  921MOL0     H27055   4.011   7.380   9.236 -0.9797 -1.2895 -1.8130
  921MOL0     H27056   4.051   7.256   9.391 -0.0589 -2.1843  0.4866
  921MOL0     H27057   4.117   7.053   9.477  0.9902 -2.4773 -0.0468
  921MOL0     H27058   3.983   6.983   9.578  0.7754 -0.6001  1.8870
  921MOL0     H27059   4.142   7.043   9.649 -0.6108 -2.7044 -0.1257
  921MOL0     H27060   4.214   6.999   9.964  1.0215 -1.4675  2.4181
  921MOL0     H27061   4.245   6.798  10.108 -1.2435 -2.9351  0.7978
  921MOL0     H27062   4.234   6.580  10.099  0.3892  0.5626  2.2060
  921MOL0     H27063   4.154   6.447  10.186 -1.6847  0.5733  0.9969
  921MOL0     H27064   3.997   6.470   9.981 -0.4239  2.3007 -1.1025
  921MOL0     H27065   4.115   6.556   9.897 -0.0941  0.3247 -0.7127
  921MOL0     H27066   4.147   6.265  10.010 -3.7032  2.3856  1.4808
  921MOL0     H27067   4.279   6.362   9.941  0.9260  3.5469  2.2728
  921MOL0     H27068   4.203   6.324   9.725 -1.9363  0.7923 -2.5464
  921MOL0     H27069   4.041   6.372   9.779  0.6576  1.3687  1.0519
  921MOL0     H27070   4.013   6.146   9.870  0.7789 -0.6312  0.6343
  921MOL0     H27071   4.052   6.127   9.692  0.1033  2.9153 -1.1363
  921MOL0     H27072   4.250   6.082   9.916 -0.7233 -1.5540  1.1340
  921MOL0     H27073   4.288   6.079   9.748  1.3156  1.1580  1.5285
  921MOL0     H27074   4.128   5.898   9.700 -3.1549  0.3340  0.3574
  921MOL0     H27075   4.079   5.896   9.872  1.3465  1.4137  0.8121
  921MOL0     H27076   4.316   5.835   9.937 -2.8242  0.3557  1.3525
  921MOL0     H27077   4.355   5.834   9.762 -2.0165  0.5750 -1.7904
  921MOL0     H27078   3.817   6.728  10.073 -0.2141  0.5595  1.0073
  921MOL0     H27079   3.795   6.919   9.937 -0.0223 -1.8199 -0.3940
  921MOL0     H27080   3.767   7.357   9.780  1.5502  1.6258  0.2871
  921MOL0     H27081   3.763   7.498   9.573  0.8331  0.4649 -2.2355
  921MOL0     H27082   4.369   8.051   8.805 -0.5595 -0.9299  1.0608
  921MOL0     H27083   4.172   7.893   8.740 -2.7552  0.6069  0.0436
  921MOL0     H27084   3.730   7.754   8.812 -1.8015  1.6326  0.9116
  921MOL0     H27085   3.549   7.593   8.748 -0.4630  0.4879  0.6195
  921MOL0     H27086   3.453   7.521   8.333 -0.6826  0.5111  0.4534
  921MOL0     H27087   3.569   7.390   8.354 -0.4118 -2.0679  0.8569
  921MOL0     H27088   3.333   7.315   8.309  1.6404  0.2580  0.3802
  921MOL0     H27089   3.275   7.388   8.452 -3.1877 -0.4950 -3.6641
  921MOL0     H27090   3.329   7.136   8.470  0.0345 -0.6505 -0.4489
  921MOL0     H27091   3.488   7.169   8.403  2.0359 -1.5953  2.1530
  921MOL0     H27092   3.418   7.260   8.687  1.1838 -2.0766  2.7876
  921MOL0     H27093   3.575   7.262   8.603  0.7834 -0.3875  0.0402
  921MOL0     H27094   3.601   6.878   8.709 -0.0324  1.4311  1.9457
  921MOL0     H27095   3.652   7.655   8.344  0.6472  1.1934  1.0524
  921MOL0     H27096   3.836   7.919   8.399 -0.9169 -0.6028  2.8361
  921MOL0     H27097   3.970   7.799   8.385  0.6812  3.0144 -4.4913
  921MOL0     H27098   3.828   7.783   8.279  0.5518 -0.1289 -0.9558
  922MOL0     O27099   6.842   0.118   1.913  0.0771 -0.4130 -0.0670
  922MOL0     C27100   6.862   0.232   1.857  0.8533 -0.8190 -0.0802
  922MOL0     O27101   6.767   0.311   1.791  0.2583  0.5522 -0.1567
  922MOL0     C27102   6.649   0.268   1.728 -0.8522 -0.6962  0.1971
  922MOL0     C27103   6.601   0.362   1.641  0.5784  0.3625 -0.1831
  922MOL0     C27104   6.489   0.325   1.564  0.7906  0.0820 -0.5031
  922MOL0     C27105   6.411   0.211   1.594 -1.0612 -0.3869  0.3457
  922MOL0     O27106   6.285   0.219   1.535 -0.2992  0.3838  0.2306
  922MOL0     C27107   6.173   0.168   1.611 -0.3025  0.2138 -0.2640
  922MOL0     C27108   6.049   0.248   1.574  1.1806  0.4290  0.0903
  922MOL0     C27109   6.046   0.335   1.442 -0.1339  0.6006 -0.0022
  922MOL0     C27110   5.926   0.435   1.462  0.2151 -0.0515 -0.2881
  922MOL0     C27111   5.901   0.538   1.345 -0.4487 -0.0416 -0.2244
  922MOL0     C27112   5.772   0.614   1.377  0.3229 -1.1605 -0.6138
  922MOL0     C27113   5.799   0.710   1.499 -0.4465 -0.0401 -0.0181
  922MOL0     C27114   5.724   0.847   1.483 -0.1220  0.1089 -0.5913
  922MOL0     N27115   5.793   0.942   1.397 -0.4693 -0.2902  0.0066
  922MOL0     C27116   5.912   1.011   1.414 -0.2154  0.4092 -0.8609
  922MOL0     C27117   5.917   1.097   1.313 -0.4099 -0.7243  1.0720
  922MOL0     C27118   6.050   1.173   1.278 -0.3988 -0.4715  0.0205
  922MOL0     C27119   6.065   1.321   1.305  1.1421  0.4482 -0.3382
  922MOL0     C27120   5.964   1.395   1.214 -0.7313  0.0775  0.8545
  922MOL0     C27121   6.026   1.455   1.093 -0.5965 -0.0140 -0.4348
  922MOL0     O27122   6.094   1.572   1.136  0.5980 -0.1566  0.5696
  922MOL0     C27123   6.228   1.561   1.165 -0.3186 -0.0458 -0.1422
  922MOL0     C27124   6.262   1.589   1.296 -0.1181 -1.2651  0.1595
  922MOL0     C27125   6.396   1.600   1.339  0.2153 -1.0575  0.7415
  922MOL0     C27126   6.421   1.662   1.477  0.9631 -0.0769  0.0055
  922MOL0     C27127   6.496   1.576   1.241  0.0754 -0.2802  0.8470
  922MOL0     C27128   6.643   1.578   1.274 -0.6650  0.5702 -0.5281
  922MOL0     O27129   6.720   1.645   1.185  0.0024  0.2159 -0.1255
  922MOL0     C27130   6.850   1.678   1.221  0.0921 -0.2503  0.6286
  922MOL0     C27131   6.879   1.799   1.285 -0.9043  0.1385  0.3985
  922MOL0     C27132   7.014   1.829   1.331 -0.1526  0.2984  0.1359
  922MOL0     C27133   7.115   1.728   1.306  0.0494 -0.4871  0.2839
  922MOL0     O27134   7.246   1.744   1.344 -0.1651 -0.7278  0.2237
  922MOL0     C27135   7.320   1.868   1.317  0.4226 -0.3933 -0.1640
  922MOL0     C27136   7.461   1.856   1.359 -0.0329  0.1647 -0.1510
  922MOL0     C27137   7.529   1.998   1.339 -0.2393 -0.3763 -0.2811
  922MOL0     C27138   7.679   1.994   1.336  0.8863  0.3606  0.0314
  922MOL0     C27139   7.728   1.956   1.483 -0.1947  0.1344 -0.2051
  922MOL0     C27140   7.878   2.007   1.514 -0.3604  0.2695  0.8873
  922MOL0     C27141   7.987   1.935   1.429  0.0746  0.0416  1.0529
  922MOL0     C27142   8.015   1.796   1.475 -0.2174 -0.2518 -0.1732
  922MOL0    Cl27143   8.063   1.792   1.647 -0.1662  0.1228  0.0080
  922MOL0     C27144   7.083   1.607   1.230 -1.1994  0.2720 -0.0562
  922MOL0     C27145   6.953   1.583   1.192  0.2871 -0.2348 -0.2479
  922MOL0     O27146   6.685   1.525   1.381 -0.6838  0.0486  0.3379
  922MOL0     C27147   6.461   1.551   1.107 -0.3098  0.1594  0.3131
  922MOL0     C27148   6.328   1.545   1.068  0.1002 -0.3169  0.3007
  922MOL0     N27149   5.803   1.076   1.237  0.8399  0.2619  0.3037
  922MOL0     N27150   5.723   0.996   1.297  0.8610 -0.1622 -0.4556
  922MOL0     C27151   6.462   0.123   1.686 -0.5228 -0.5904  0.1616
  922MOL0     C27152   6.589   0.141   1.751 -0.5533 -0.3300  1.0561
  922MOL0     C27153   6.997   0.286   1.889 -0.0598 -0.1260  0.7072
  922MOL0     C27154   7.036   0.403   1.822 -0.4719 -0.4844 -0.7578
  922MOL0     C27155   7.159   0.460   1.838  0.1758  0.1060  0.2748
  922MOL0     C27156   7.255   0.404   1.915  0.0596  0.1763  0.8401
  922MOL0     O27157   7.375   0.463   1.944 -0.1324  0.8209  0.5050
  922MOL0     C27158   7.431   0.537   1.837 -0.0634 -1.6340 -0.5542
  922MOL0     C27159   7.577   0.577   1.874  0.1120 -0.7696  0.2037
  922MOL0     C27160   7.650   0.452   1.906  0.4429  0.2087  0.7183
  922MOL0     C27161   7.801   0.484   1.907  1.8171 -0.3463  0.6469
  922MOL0     C27162   7.879   0.365   1.920 -0.7338  0.6362 -0.4671
  922MOL0     C27163   7.943   0.268   1.906  0.3640  0.0915 -0.7698
  922MOL0     C27164   7.229   0.284   1.976  0.1618 -0.0169 -0.3294
  922MOL0     C27165   7.102   0.220   1.966 -1.1422  0.5038 -0.4330
  922MOL0     C27166   7.079   0.094   2.062 -0.1670 -0.5298  0.0251
  922MOL0     H27167   6.659   0.454   1.631  2.5641 -0.6947  1.1324
  922MOL0     H27168   6.446   0.393   1.492  1.9434  0.9070 -0.4454
  922MOL0     H27169   6.202   0.182   1.716  1.3339  1.3784 -0.8331
  922MOL0     H27170   6.149   0.066   1.583 -1.8071  1.2106 -2.9953
  922MOL0     H27171   5.964   0.180   1.563  1.6309 -0.1323  0.0322
  922MOL0     H27172   6.036   0.315   1.660  0.5198 -0.6836  0.8784
  922MOL0     H27173   6.137   0.392   1.423 -0.1631  0.6401 -0.0252
  922MOL0     H27174   6.021   0.265   1.362  0.6157  0.7756 -0.3983
  922MOL0     H27175   5.845   0.366   1.485  0.1198 -0.0605 -0.6416
  922MOL0     H27176   5.943   0.494   1.553  0.5704  1.1343 -1.0842
  922MOL0     H27177   5.888   0.479   1.253 -0.0925  0.9275 -0.9116
  922MOL0     H27178   5.985   0.605   1.329  0.3471 -0.9689  0.0165
  922MOL0     H27179   5.752   0.677   1.290  2.3823 -2.4796 -2.1424
  922MOL0     H27180   5.687   0.546   1.390 -2.2026  1.2758 -3.1109
  922MOL0     H27181   5.905   0.734   1.499 -0.4825  0.1114  0.6271
  922MOL0     H27182   5.776   0.643   1.582 -1.4180 -2.5223 -2.1333
  922MOL0     H27183   5.620   0.823   1.460 -1.4068  0.3750  3.9896
  922MOL0     H27184   5.726   0.888   1.584  2.1798 -2.6886  0.6678
  922MOL0     H27185   5.992   0.998   1.485 -0.6356  0.4320 -0.3777
  922MOL0     H27186   6.061   1.151   1.172 -2.3814  0.6250 -0.4694
  922MOL0     H27187   6.133   1.121   1.328  0.4722 -0.6067 -1.5254
  922MOL0     H27188   6.044   1.329   1.411 -0.8257 -1.8923 -0.4782
  922MOL0     H27189   6.165   1.365   1.293  0.5615  2.3791  1.3177
  922MOL0     H27190   5.882   1.332   1.179  0.9522 -0.7375 -1.9061
  922MOL0     H27191   5.918   1.472   1.276 -1.1744 -1.1041  2.0385
  922MOL0     H27192   6.099   1.390   1.043  1.1215  1.3046  0.2434
  922MOL0     H27193   5.949   1.496   1.027 -1.2427 -2.7657 -1.5461
  922MOL0     H27194   6.190   1.612   1.374 -0.0081 -3.2409  0.8817
  922MOL0     H27195   6.527   1.657   1.505  1.2207  2.7411 -0.2447
  922MOL0     H27196   6.363   1.610   1.554 -2.7105  1.8082 -1.2482
  922MOL0     H27197   6.381   1.763   1.475 -0.2101 -0.4007  2.6277
  922MOL0     H27198   6.798   1.865   1.316  1.4868  3.7397 -0.3880
  922MOL0     H27199   7.046   1.916   1.389 -1.9398  1.6398 -0.7810
  922MOL0     H27200   7.315   1.902   1.213  0.2787 -1.6351 -0.5692
  922MOL0     H27201   7.272   1.943   1.381  1.2825  0.0780 -0.0674
  922MOL0     H27202   7.476   1.833   1.465 -1.5568 -0.2495 -0.0120
  922MOL0     H27203   7.522   1.787   1.301 -0.7270 -0.5888 -0.0011
  922MOL0     H27204   7.493   2.074   1.409  0.0456 -1.4186  1.0323
  922MOL0     H27205   7.513   2.041   1.240  1.8190 -1.1368 -1.0060
  922MOL0     H27206   7.732   2.083   1.300  2.2407 -0.3574  0.1913
  922MOL0     H27207   7.697   1.919   1.259 -1.7647 -1.3758  0.9531
  922MOL0     H27208   7.666   2.008   1.556 -0.7500  0.7718 -1.1166
  922MOL0     H27209   7.712   1.851   1.509  0.3594 -0.5575 -2.4488
  922MOL0     H27210   7.898   1.989   1.620 -0.1383 -2.5877  0.4215
  922MOL0     H27211   7.883   2.114   1.489 -0.4791 -0.0325 -0.5142
  922MOL0     H27212   8.079   1.987   1.405 -0.6749 -0.5506 -4.2397
  922MOL0     H27213   7.943   1.933   1.329 -1.6278  1.9277  1.6940
  922MOL0     H27214   8.092   1.754   1.410 -0.4530 -0.0730 -0.5722
  922MOL0     H27215   7.927   1.732   1.464  0.3909 -1.2630  0.6821
  922MOL0     H27216   7.167   1.540   1.212  1.7602  2.8806  2.7053
  922MOL0     H27217   6.928   1.495   1.134  1.4925 -0.0379 -1.0877
  922MOL0     H27218   6.530   1.537   1.024 -0.9130 -0.0675 -0.1586
  922MOL0     H27219   6.311   1.526   0.962  3.4416  2.9718 -1.0280
  922MOL0     H27220   6.397   0.037   1.702 -0.3290 -1.2603 -2.2392
  922MOL0     H27221   6.618   0.069   1.826  0.2015 -2.1273 -0.8762
  922MOL0     H27222   6.966   0.472   1.776 -1.0894 -1.0411 -0.6638
  922MOL0     H27223   7.171   0.549   1.777 -1.3461  0.3775  0.3301
  922MOL0     H27224   7.440   0.489   1.739 -0.5157  1.1173 -2.0404
  922MOL0     H27225   7.364   0.621   1.815 -0.3765 -2.2558 -2.0988
  922MOL0     H27226   7.567   0.645   1.958  0.0908 -1.7826  1.0406
  922MOL0     H27227   7.626   0.630   1.792 -1.6544 -1.7268 -1.5665
  922MOL0     H27228   7.609   0.424   2.004 -3.2556  1.8047 -0.2104
  922MOL0     H27229   7.628   0.378   1.828 -0.1823  1.3003 -0.1739
  922MOL0     H27230   7.821   0.559   1.984 -1.4163  2.6378 -1.1207
  922MOL0     H27231   7.833   0.527   1.812  1.6918 -1.1507  0.2325
  922MOL0     H27232   8.016   0.191   1.924  1.6733  1.3808 -0.4332
  922MOL0     H27233   7.301   0.240   2.043 -1.1244  0.3487  1.3623
  922MOL0     H27234   7.112   0.003   2.010 -3.0977 -1.9873  0.4934
  922MOL0     H27235   7.125   0.118   2.158 -2.8449  5.2675  0.2591
  922MOL0     H27236   6.975   0.074   2.088 -1.1524  1.6030 -2.0037
  923MOL0     O27237   9.717   1.431   1.002  0.1835 -0.3241 -0.2522
  923MOL0     C27238   9.654   1.519   0.941 -1.1330 -0.2886 -0.6068
  923MOL0     O27239   9.670   1.538   0.805 -0.0270  0.5844  0.0634
  923MOL0     C27240   9.730   1.435   0.734  0.7572  0.1032 -0.2805
  923MOL0     C27241   9.871   1.422   0.725  0.7523  0.0496 -0.8790
  923MOL0     C27242   9.924   1.319   0.649 -0.5472  0.4902 -0.7760
  923MOL0     C27243   9.850   1.221   0.590 -0.1904  0.1399  0.2592
  923MOL0     O27244   9.920   1.117   0.535  0.0863  0.3510  0.6752
  923MOL0     C27245   9.841   1.017   0.481  0.1691 -0.0457 -0.6370
  923MOL0     C27246   9.927   0.911   0.426 -0.1630 -0.7566  0.2783
  923MOL0     C27247   9.987   0.961   0.295  0.3840  0.2786 -0.2665
  923MOL0     C27248  10.130   0.909   0.264 -0.1829 -0.2774 -0.3857
  923MOL0     C27249  10.159   0.899   0.116  0.1326 -0.5048 -0.4201
  923MOL0     C27250  10.308   0.898   0.085 -0.1277 -0.4231 -0.0578
  923MOL0     C27251  10.373   0.760   0.124  0.3511 -0.1467  0.3852
  923MOL0     C27252  10.513   0.755   0.060 -0.3330 -0.5284  0.6056
  923MOL0     N27253  10.582   0.639   0.105  0.3939 -0.0131  0.3626
  923MOL0     C27254  10.586   0.517   0.055  0.5078 -0.1148 -0.0224
  923MOL0     C27255  10.640   0.444   0.159  0.5330  0.6057  0.5680
  923MOL0     C27256  10.671   0.297   0.146 -0.7168 -0.3293 -0.7623
  923MOL0     C27257  10.800   0.290   0.065  0.1964 -0.3121 -0.2649
  923MOL0     C27258  10.919   0.370   0.127 -0.7225 -0.1751 -1.1280
  923MOL0     C27259  11.053   0.308   0.115 -1.1093  0.6824 -0.2955
  923MOL0     O27260  11.132   0.331   0.240 -0.3777  0.6999 -0.5467
  923MOL0     C27261  11.267   0.298   0.248  0.4455 -0.0488 -0.2381
  923MOL0     C27262  11.323   0.189   0.183  0.0806 -0.4272 -0.5292
  923MOL0     C27263  11.450   0.137   0.210  0.4439 -0.2310  0.8562
  923MOL0     C27264  11.483  -0.000   0.163 -0.3470  0.5138  0.2297
  923MOL0     C27265  11.533   0.209   0.288 -0.7429 -0.3077 -0.0073
  923MOL0     C27266  11.675   0.163   0.311 -0.1287  0.8150  0.1762
  923MOL0     O27267  11.681   0.044   0.378  0.2556 -1.4548 -0.2617
  923MOL0     C27268  11.784  -0.042   0.387 -0.2754  0.6340 -0.2681
  923MOL0     C27269  11.910  -0.043   0.314 -0.1240 -1.0136 -0.3154
  923MOL0     C27270  11.996  -0.153   0.329 -0.6366 -0.7436 -0.0226
  923MOL0     C27271  11.966  -0.257   0.430  0.0671 -0.0781 -0.0950
  923MOL0     O27272  12.039  -0.366   0.461 -0.0899 -0.1797 -0.5247
  923MOL0     C27273  12.181  -0.331   0.478  0.9341  0.7016  0.3794
  923MOL0     C27274  12.208  -0.241   0.597 -0.1701  0.0931 -0.5020
  923MOL0     C27275  12.363  -0.250   0.609  0.9529  0.2134 -0.2763
  923MOL0     C27276  12.391  -0.189   0.751 -0.0425 -0.2220  0.2494
  923MOL0     C27277  12.539  -0.215   0.795  0.0644  0.2776 -0.1524
  923MOL0     C27278  12.644  -0.146   0.708  0.1819 -0.4759  0.0788
  923MOL0     C27279  12.785  -0.124   0.774 -0.1958  0.3171  0.0837
  923MOL0     C27280  12.873  -0.066   0.674  0.4088  0.4396  0.2845
  923MOL0    Cl27281  12.925  -0.173   0.541  0.2213 -0.3610  0.4768
  923MOL0     C27282  11.847  -0.253   0.504  0.6654  0.3149  0.6161
  923MOL0     C27283  11.756  -0.148   0.485 -0.2376 -0.2804  0.7639
  923MOL0     O27284  11.771   0.221   0.264 -0.0440 -0.5610 -0.1706
  923MOL0     C27285  11.492   0.326   0.339  0.4501  0.7398 -0.8786
  923MOL0     C27286  11.358   0.369   0.325  0.1302 -0.5836  0.2214
  923MOL0     N27287  10.680   0.533   0.262 -0.6093  0.1388 -0.4821
  923MOL0     N27288  10.648   0.655   0.228 -0.3959  0.2671  0.1867
  923MOL0     C27289   9.713   1.239   0.584  0.5900  0.0495 -0.5429
  923MOL0     C27290   9.652   1.343   0.660  0.0375  0.0242  0.4955
  923MOL0     C27291   9.584   1.620   1.027  0.0393 -0.2809  0.0080
  923MOL0     C27292   9.622   1.636   1.159  0.7634 -0.7128 -1.0314
  923MOL0     C27293   9.564   1.731   1.240  0.0234 -0.4741  0.3894
  923MOL0     C27294   9.459   1.811   1.191 -0.1984 -1.0144  0.7595
  923MOL0     O27295   9.391   1.907   1.261  0.4548  0.4222 -0.3404
  923MOL0     C27296   9.453   1.952   1.387  0.0057 -1.1589 -0.1744
  923MOL0     C27297   9.409   1.868   1.505  0.7341 -0.4718  0.2609
  923MOL0     C27298   9.405   1.955   1.636  0.5539  0.0196 -0.3866
  923MOL0     C27299   9.344   1.877   1.754 -0.6306  0.0769 -0.0453
  923MOL0     C27300   9.201   1.830   1.739 -0.4518 -0.1458  0.2092
  923MOL0     C27301   9.081   1.825   1.728 -0.1512 -0.1431  0.3693
  923MOL0     C27302   9.413   1.795   1.064  0.4192  0.5074  0.4310
  923MOL0     C27303   9.470   1.691   0.979 -1.1912 -0.5821  0.5301
  923MOL0     C27304   9.415   1.653   0.848 -0.4447 -0.0411 -0.3010
  923MOL0     H27305   9.940   1.487   0.778  2.2036 -0.9677 -1.4701
  923MOL0     H27306  10.032   1.311   0.649 -0.4103  1.9712 -0.1910
  923MOL0     H27307   9.785   1.061   0.398 -3.1275 -1.6294  0.6106
  923MOL0     H27308   9.783   0.973   0.562  0.6055 -2.5630 -1.6100
  923MOL0     H27309  10.010   0.881   0.491  1.3065  2.1102 -0.0978
  923MOL0     H27310   9.860   0.829   0.400 -1.7373  0.9649 -1.3451
  923MOL0     H27311   9.915   0.938   0.216  0.2686  0.9874 -0.3782
  923MOL0     H27312   9.992   1.069   0.314  1.7920 -0.1911  2.6614
  923MOL0     H27313  10.198   0.976   0.317 -0.9656 -0.4562  0.8854
  923MOL0     H27314  10.150   0.806   0.295  1.9352 -0.4313 -2.0307
  923MOL0     H27315  10.135   0.996   0.071  0.3670 -0.5102 -0.5564
  923MOL0     H27316  10.107   0.814   0.072 -2.3090  0.1399  1.0297
  923MOL0     H27317  10.332   0.915  -0.021  1.1902 -5.3252 -0.7681
  923MOL0     H27318  10.370   0.970   0.138  2.3605 -1.6688 -1.0810
  923MOL0     H27319  10.319   0.674   0.083 -0.2116  1.1657 -1.8043
  923MOL0     H27320  10.387   0.755   0.233  2.2976  4.6275  0.5981
  923MOL0     H27321  10.504   0.751  -0.049 -0.5394 -2.5727  0.6521
  923MOL0     H27322  10.571   0.845   0.083 -0.3359 -0.0437 -1.1375
  923MOL0     H27323  10.562   0.492  -0.048 -0.6685  2.2255 -0.3733
  923MOL0     H27324  10.587   0.244   0.101  0.7068 -2.7611 -0.7312
  923MOL0     H27325  10.684   0.248   0.243 -1.6792 -2.4854 -1.6615
  923MOL0     H27326  10.821   0.183   0.067 -0.3841 -0.4194  0.3547
  923MOL0     H27327  10.772   0.322  -0.036 -1.8261 -1.7350 -0.2187
  923MOL0     H27328  10.922   0.468   0.078 -1.0699  1.6915  2.2362
  923MOL0     H27329  10.892   0.398   0.229 -3.0481 -0.9872 -1.4701
  923MOL0     H27330  11.040   0.200   0.105  0.9385  0.3945 -0.3749
  923MOL0     H27331  11.091   0.349   0.021 -1.8698  1.7624 -0.1513
  923MOL0     H27332  11.268   0.127   0.112  2.2676 -1.8124 -1.1151
  923MOL0     H27333  11.494  -0.071   0.246  0.8079 -1.2304 -1.3283
  923MOL0     H27334  11.582  -0.011   0.117 -0.8017 -0.2997 -0.5758
  923MOL0     H27335  11.413  -0.045   0.092 -0.5545  1.9925 -0.5368
  923MOL0     H27336  11.927   0.036   0.241 -1.2431  1.1524  1.6519
  923MOL0     H27337  12.090  -0.162   0.277  0.8102 -2.7284  2.6631
  923MOL0     H27338  12.220  -0.427   0.512  0.6253  0.4294 -0.0173
  923MOL0     H27339  12.223  -0.303   0.381  0.9164 -0.0248  0.1496
  923MOL0     H27340  12.180  -0.138   0.572  0.0216  0.1264 -0.5815
  923MOL0     H27341  12.148  -0.272   0.683  0.5744 -3.5188 -1.1380
  923MOL0     H27342  12.418  -0.192   0.534  1.1809 -0.0558 -0.3196
  923MOL0     H27343  12.396  -0.354   0.613  0.8320  0.2015  1.6628
  923MOL0     H27344  12.323  -0.236   0.824  1.6606 -2.2515  0.6426
  923MOL0     H27345  12.364  -0.084   0.747  3.0258  0.6288 -0.5426
  923MOL0     H27346  12.544  -0.178   0.898  0.4271 -3.5518  1.3532
  923MOL0     H27347  12.550  -0.324   0.794  1.0968  0.3374  1.4378
  923MOL0     H27348  12.612  -0.042   0.692  3.0698  0.5656  0.4381
  923MOL0     H27349  12.654  -0.193   0.610  0.5148 -1.5931  0.6371
  923MOL0     H27350  12.833  -0.212   0.819  0.1929  0.5874  0.2066
  923MOL0     H27351  12.773  -0.049   0.852  2.5031 -0.6468  1.5705
  923MOL0     H27352  12.958  -0.032   0.734  0.1575 -0.6367  1.2768
  923MOL0     H27353  12.818   0.018   0.630 -0.6326 -1.3117 -1.9224
  923MOL0     H27354  11.825  -0.326   0.580  1.2868  0.9739  1.4524
  923MOL0     H27355  11.661  -0.161   0.536 -0.4565 -4.6272 -0.3315
  923MOL0     H27356  11.556   0.399   0.388  2.0218  0.5872 -2.6040
  923MOL0     H27357  11.323   0.455   0.381 -1.0592 -0.8795 -0.0317
  923MOL0     H27358   9.650   1.173   0.526  0.9237 -0.6103 -0.1653
  923MOL0     H27359   9.545   1.363   0.666  0.2493  1.3955 -0.1136
  923MOL0     H27360   9.697   1.571   1.204  0.0286 -1.3056 -0.6512
  923MOL0     H27361   9.606   1.751   1.338 -3.4293  1.4418  1.6817
  923MOL0     H27362   9.560   1.957   1.369 -0.1868  0.8911 -1.0387
  923MOL0     H27363   9.415   2.053   1.405 -1.1784 -1.1972 -2.1264
  923MOL0     H27364   9.478   1.785   1.524  2.7710  0.5449 -2.0942
  923MOL0     H27365   9.307   1.837   1.481  0.5825  2.4469 -3.9273
  923MOL0     H27366   9.504   1.990   1.669  0.7124 -0.5365 -0.2538
  923MOL0     H27367   9.335   2.037   1.622  0.8000  1.0854  3.4742
  923MOL0     H27368   9.344   1.938   1.844 -0.7466 -1.7413  1.2346
  923MOL0     H27369   9.409   1.790   1.767  0.3321  0.9650  1.2739
  923MOL0     H27370   8.974   1.831   1.735 -0.2052 -0.0273 -0.4028
  923MOL0     H27371   9.339   1.859   1.019 -0.5544 -1.8625 -1.5788
  923MOL0     H27372   9.484   1.685   0.769  1.6444 -0.5409  1.2402
  923MOL0     H27373   9.417   1.544   0.839  0.7694 -0.1298  0.7441
  923MOL0     H27374   9.315   1.691   0.823 -0.5617  0.9992  1.5244
  924MOL0     O27375   5.953  10.012   9.450 -1.3407  0.6048 -0.2623
  924MOL0     C27376   5.934   9.909   9.507  0.9471  0.1919 -0.4456
  924MOL0     O27377   5.925   9.788   9.442  0.0175  0.2883  0.7784
  924MOL0     C27378   5.860   9.785   9.323  0.6191  0.2900 -0.1701
  924MOL0     C27379   5.919   9.782   9.198  0.5540  0.0581  0.7700
  924MOL0     C27380   5.855   9.781   9.075 -0.5152  0.0005 -0.2906
  924MOL0     C27381   5.717   9.789   9.076 -0.1417  0.2787  0.5852
  924MOL0     O27382   5.633   9.803   8.972 -0.2246  0.0316 -0.0345
  924MOL0     C27383   5.629   9.680   8.897 -0.3298  0.3782  0.7391
  924MOL0     C27384   5.559   9.717   8.767  0.1278 -0.3716  0.4648
  924MOL0     C27385   5.414   9.767   8.797 -0.5983  0.1312 -0.3816
  924MOL0     C27386   5.344   9.798   8.662 -0.5215  0.1123  0.3478
  924MOL0     C27387   5.204   9.878   8.684 -0.4343  0.2468  0.0412
  924MOL0     C27388   5.089   9.797   8.725  0.3003  0.5993 -0.2037
  924MOL0     C27389   4.955   9.876   8.751 -0.3823  0.2779 -0.2241
  924MOL0     C27390   4.970   9.960   8.880  1.2784  0.3147 -0.5831
  924MOL0     N27391   4.865  10.058   8.898 -0.2949 -0.5036 -0.4236
  924MOL0     C27392   4.733  10.027   8.939 -0.6454 -0.8424  0.3755
  924MOL0     C27393   4.675  10.145   8.909  0.0696 -0.0385 -0.1220
  924MOL0     C27394   4.529  10.175   8.932 -0.7701  0.1663  0.2336
  924MOL0     C27395   4.447  10.057   8.878 -0.5951 -0.8067 -0.1710
  924MOL0     C27396   4.304  10.089   8.830 -0.2574 -0.2039  0.7757
  924MOL0     C27397   4.225  10.118   8.951 -0.2285 -0.4525 -1.1439
  924MOL0     O27398   4.110  10.199   8.908 -0.2970  0.0338 -1.0081
  924MOL0     C27399   3.996  10.129   8.942 -0.4551 -0.4804  0.5339
  924MOL0     C27400   3.920  10.171   9.054  0.1065 -0.2051  1.2480
  924MOL0     C27401   3.806  10.097   9.095 -0.5963  0.3237 -0.0586
  924MOL0     C27402   3.746  10.143   9.229 -0.1481 -0.1708 -0.5878
  924MOL0     C27403   3.762   9.985   9.015  0.3613 -0.4075  0.8489
  924MOL0     C27404   3.651   9.900   9.062  0.2841  0.5344  0.0001
  924MOL0     O27405   3.629   9.781   8.998  0.1323 -0.3061  0.4318
  924MOL0     C27406   3.535   9.686   9.042 -0.8405 -0.7663 -0.0547
  924MOL0     C27407   3.545   9.625   9.164 -0.3494 -0.5072  0.8631
  924MOL0     C27408   3.440   9.548   9.197 -0.0211  0.1555 -0.7518
  924MOL0     C27409   3.327   9.528   9.116  0.2705 -0.5044  1.3719
  924MOL0     O27410   3.215   9.452   9.148  0.1638 -0.3086  0.3645
  924MOL0     C27411   3.203   9.401   9.285 -0.3158 -0.4575  0.1387
  924MOL0     C27412   3.088   9.300   9.299 -1.0121 -0.3405 -0.8561
  924MOL0     C27413   2.955   9.373   9.283 -0.6532 -0.2890  0.2541
  924MOL0     C27414   2.850   9.286   9.369  0.2385 -0.2887  0.0921
  924MOL0     C27415   2.705   9.317   9.345 -0.1684  0.4102 -0.5914
  924MOL0     C27416   2.616   9.229   9.438 -0.6923  0.3380  0.1694
  924MOL0     C27417   2.471   9.265   9.407 -0.5994  0.0422  0.3536
  924MOL0     C27418   2.379   9.253   9.524 -0.3542 -0.2313 -0.1795
  924MOL0    Cl27419   2.223   9.299   9.463  0.1761  0.4064 -0.2340
  924MOL0     C27420   3.313   9.597   8.995 -0.6807  0.1085  0.0387
  924MOL0     C27421   3.423   9.676   8.966  0.6908 -0.6081  0.4085
  924MOL0     O27422   3.584   9.939   9.154 -0.0128  0.0794 -0.8004
  924MOL0     C27423   3.837   9.954   8.898 -0.3963  0.0202 -0.6175
  924MOL0     C27424   3.961  10.018   8.867  1.0245 -0.0435 -0.2368
  924MOL0     N27425   4.774  10.249   8.882  0.7107 -0.0433 -0.5389
  924MOL0     N27426   4.885  10.192   8.857  0.0958  1.1183 -0.2792
  924MOL0     C27427   5.649   9.804   9.199  0.2853  0.2923  0.1771
  924MOL0     C27428   5.714   9.788   9.319 -0.1905 -0.4412  1.4578
  924MOL0     C27429   5.905   9.922   9.651  0.6528 -0.2283 -0.7927
  924MOL0     C27430   5.876  10.046   9.712  0.8413 -0.2142 -0.3583
  924MOL0     C27431   5.842  10.063   9.844 -0.0596  1.0194  0.4153
  924MOL0     C27432   5.832   9.944   9.923 -0.0944  0.0635 -0.7785
  924MOL0     O27433   5.797   9.949  10.053 -0.2637  0.0667 -0.0678
  924MOL0     C27434   5.791  10.071  10.123  0.3263 -0.1728  0.0748
  924MOL0     C27435   5.834  10.048  10.259  0.0784 -0.0608 -0.6770
  924MOL0     C27436   5.851  10.179  10.338 -0.0577 -0.3289 -0.3065
  924MOL0     C27437   5.716  10.236  10.398  0.4130 -0.2598 -0.8268
  924MOL0     C27438   5.668  10.152  10.504  0.2246  0.2915 -0.4669
  924MOL0     C27439   5.618  10.089  10.592  0.8321  0.1012 -0.6243
  924MOL0     C27440   5.873   9.821   9.873  0.4166  0.3364 -0.6292
  924MOL0     C27441   5.904   9.807   9.738  0.0995  0.1144  0.0988
  924MOL0     C27442   5.943   9.668   9.688 -0.5054  0.5503 -0.4342
  924MOL0     H27443   6.027   9.790   9.192  0.7548 -2.2037  0.6177
  924MOL0     H27444   5.918   9.790   8.987 -2.3960  3.6964 -1.4671
  924MOL0     H27445   5.564   9.607   8.947 -0.9339 -0.0858 -0.6764
  924MOL0     H27446   5.724   9.637   8.866 -0.2415  1.8103 -1.1796
  924MOL0     H27447   5.610   9.807   8.729 -3.0055  1.6895  0.7095
  924MOL0     H27448   5.561   9.637   8.692  0.0819 -1.1771  1.3136
  924MOL0     H27449   5.356   9.702   8.862  0.0623  1.5308  1.7176
  924MOL0     H27450   5.419   9.863   8.850  0.8844  0.7610 -1.5719
  924MOL0     H27451   5.416   9.850   8.598 -2.9966  0.5463 -2.3290
  924MOL0     H27452   5.312   9.707   8.610 -2.3736  0.7384  0.3366
  924MOL0     H27453   5.175   9.909   8.583  1.1790 -0.9468 -0.8340
  924MOL0     H27454   5.231   9.959   8.752  0.9642  0.8401 -1.1587
  924MOL0     H27455   5.064   9.709   8.665  3.0958  0.3645 -1.1399
  924MOL0     H27456   5.124   9.772   8.826  0.8240 -0.3435 -0.6156
  924MOL0     H27457   4.870   9.808   8.757 -1.7936  2.0166  0.4767
  924MOL0     H27458   4.940   9.940   8.664  1.2430  0.1847 -0.6179
  924MOL0     H27459   4.951   9.886   8.958  2.8195 -1.8162 -2.0792
  924MOL0     H27460   5.065  10.015   8.886 -0.0443  2.6517  0.1562
  924MOL0     H27461   4.684   9.937   8.974  0.9027 -2.5661 -1.6345
  924MOL0     H27462   4.514  10.271   8.882  1.1661 -0.2055 -1.1738
  924MOL0     H27463   4.511  10.187   9.039 -0.9472 -0.7639  0.3162
  924MOL0     H27464   4.491  10.004   8.793  0.6564  1.1653 -0.8099
  924MOL0     H27465   4.442   9.981   8.957 -1.1608 -2.3846 -1.6418
  924MOL0     H27466   4.301  10.179   8.767 -1.5860 -0.4092  0.5132
  924MOL0     H27467   4.257  10.009   8.772  0.8274 -0.2388 -0.0992
  924MOL0     H27468   4.201  10.025   9.002  3.0264 -0.7391  0.1287
  924MOL0     H27469   4.285  10.173   9.024 -1.9254 -0.4123  0.2810
  924MOL0     H27470   3.955  10.255   9.113 -4.2010  1.3594  1.9406
  924MOL0     H27471   3.813  10.213   9.280 -0.7753  1.2827 -1.6777
  924MOL0     H27472   3.721  10.060   9.295 -1.5465 -0.2509 -1.1907
  924MOL0     H27473   3.656  10.204   9.217 -0.0208  0.0718 -0.3052
  924MOL0     H27474   3.634   9.655   9.219 -1.1219  0.5822  1.5566
  924MOL0     H27475   3.437   9.504   9.296 -0.9159 -1.9254 -1.6425
  924MOL0     H27476   3.301   9.356   9.303 -1.0070 -1.6293  1.1552
  924MOL0     H27477   3.200   9.485   9.355 -0.7233 -0.3217 -0.0392
  924MOL0     H27478   3.099   9.212   9.236  2.3185 -0.2442 -0.5529
  924MOL0     H27479   3.101   9.260   9.400 -0.1622  1.6150 -0.1460
  924MOL0     H27480   2.921   9.384   9.180 -1.1296  3.2485  0.6787
  924MOL0     H27481   2.959   9.475   9.321  0.7255  0.5489 -1.9632
  924MOL0     H27482   2.856   9.301   9.477  0.2657  2.2561 -0.2040
  924MOL0     H27483   2.874   9.182   9.345  0.5669 -0.3554  0.6927
  924MOL0     H27484   2.691   9.424   9.361  0.2733  0.3253  0.4088
  924MOL0     H27485   2.679   9.298   9.240  0.2731 -0.2464 -0.5932
  924MOL0     H27486   2.640   9.262   9.539  0.9207  1.4571 -0.5299
  924MOL0     H27487   2.641   9.123   9.428  0.2363  0.4572  1.0067
  924MOL0     H27488   2.434   9.216   9.317 -0.7563 -2.7502  1.8278
  924MOL0     H27489   2.458   9.373   9.394 -1.0130 -0.1420 -0.8912
  924MOL0     H27490   2.409   9.333   9.592  2.1187 -0.1411 -1.2778
  924MOL0     H27491   2.371   9.160   9.581 -0.8428  0.8709  1.6223
  924MOL0     H27492   3.227   9.588   8.931 -0.7242  1.0808 -0.0474
  924MOL0     H27493   3.430   9.719   8.866 -0.3637 -1.1114  0.1081
  924MOL0     H27494   3.809   9.876   8.827  1.9914 -1.0261 -0.5106
  924MOL0     H27495   4.025   9.992   8.784  0.7882 -2.3748  0.2622
  924MOL0     H27496   5.542   9.813   9.208  0.5342  2.0401  2.3504
  924MOL0     H27497   5.662   9.791   9.414  0.1299  0.3444  1.6105
  924MOL0     H27498   5.893  10.141   9.662  0.0439 -0.5983 -1.3993
  924MOL0     H27499   5.827  10.167   9.874 -0.0675  0.8275  1.0989
  924MOL0     H27500   5.865  10.136  10.076  0.9075 -1.6150 -1.1090
  924MOL0     H27501   5.690  10.111  10.114 -1.7512 -5.1168 -1.9777
  924MOL0     H27502   5.926   9.989  10.263 -0.5583 -1.0391  0.3150
  924MOL0     H27503   5.763   9.978  10.303 -0.9941  0.0053 -2.2365
  924MOL0     H27504   5.912  10.149  10.423 -0.7336 -0.4258  0.1474
  924MOL0     H27505   5.905  10.262  10.292 -1.1619  0.6523  0.1001
  924MOL0     H27506   5.635  10.240  10.326 -1.8971 -4.5582  1.1401
  924MOL0     H27507   5.732  10.340  10.427  0.5054 -0.8673  1.5295
  924MOL0     H27508   5.566  10.024  10.660 -0.2849  0.0870 -1.4668
  924MOL0     H27509   5.867   9.734   9.938  1.0392  1.7604  1.4288
  924MOL0     H27510   5.861   9.604   9.653 -1.2114  0.7143  0.8681
  924MOL0     H27511   6.022   9.672   9.612 -0.9430 -0.6417 -0.9717
  924MOL0     H27512   5.990   9.612   9.768  2.2814 -1.6698 -3.3808
  925MOL0     O27513   9.699   8.077  10.618  0.7883  0.3391  0.5319
  925MOL0     C27514   9.790   8.049  10.695  0.5705  0.1615  0.2594
  925MOL0     O27515   9.848   7.915  10.701  0.3991 -0.5685 -0.1844
  925MOL0     C27516   9.792   7.811  10.636  0.4638  0.6240 -0.3117
  925MOL0     C27517   9.882   7.710  10.603 -0.5105 -0.6431 -0.2320
  925MOL0     C27518   9.835   7.594  10.552  0.1251  0.0030  0.5785
  925MOL0     C27519   9.693   7.569  10.552  0.4407 -0.1984 -0.2726
  925MOL0     O27520   9.629   7.458  10.542  0.3217 -0.3451  0.0337
  925MOL0     C27521   9.677   7.367  10.645 -0.4576 -0.0426  0.3367
  925MOL0     C27522   9.586   7.252  10.647  0.4921  0.6806 -0.5447
  925MOL0     C27523   9.570   7.182  10.514  1.0472 -0.9888 -0.6761
  925MOL0     C27524   9.461   7.071  10.511 -0.6209  0.3116 -0.7454
  925MOL0     C27525   9.422   7.028  10.368 -0.9157  0.2575  0.2294
  925MOL0     C27526   9.364   7.135  10.277  0.6565 -0.1671 -0.5638
  925MOL0     C27527   9.363   7.081  10.132  0.4458 -0.8173  0.3216
  925MOL0     C27528   9.242   6.989  10.111 -0.9571 -0.3745 -0.3512
  925MOL0     N27529   9.224   6.949   9.975 -0.0450  0.2278 -0.2608
  925MOL0     C27530   9.248   7.020   9.859 -0.0182  0.4633  0.4608
  925MOL0     C27531   9.247   6.927   9.757  1.2768  0.9695 -0.3431
  925MOL0     C27532   9.299   6.951   9.616 -0.6588  0.1965 -0.5555
  925MOL0     C27533   9.453   6.936   9.598 -0.2040 -0.0927 -0.1347
  925MOL0     C27534   9.522   6.855   9.702  0.7177  0.2838  0.0037
  925MOL0     C27535   9.667   6.848   9.665 -0.5720  0.1514  0.8411
  925MOL0     O27536   9.692   6.775   9.536  0.0472 -0.0201  0.7801
  925MOL0     C27537   9.728   6.645   9.537  0.4946  0.4593  0.3039
  925MOL0     C27538   9.773   6.594   9.412  0.8945 -0.4903  1.1094
  925MOL0     C27539   9.827   6.467   9.401  0.0583 -0.3086  0.4292
  925MOL0     C27540   9.892   6.419   9.270  0.5637  0.1566 -0.1596
  925MOL0     C27541   9.822   6.380   9.507 -1.1191  0.3090 -0.4575
  925MOL0     C27542   9.884   6.252   9.502 -0.3395 -0.5142  0.4812
  925MOL0     O27543   9.808   6.139   9.526 -0.7078 -0.1856  0.3111
  925MOL0     C27544   9.865   6.011   9.522  0.8574 -0.6699  0.7728
  925MOL0     C27545   9.916   5.968   9.395  0.2539 -0.1675  0.1628
  925MOL0     C27546   9.965   5.844   9.384  0.0933  0.0986 -0.1619
  925MOL0     C27547   9.969   5.755   9.498 -0.3291  0.0677 -0.2179
  925MOL0     O27548  10.031   5.638   9.500 -0.3069  0.0971 -0.8897
  925MOL0     C27549  10.103   5.598   9.378  0.0125 -0.2683 -0.1143
  925MOL0     C27550  10.155   5.464   9.393 -0.1144 -0.0015 -0.4025
  925MOL0     C27551  10.216   5.401   9.270 -0.2925 -0.7322  0.3876
  925MOL0     C27552  10.340   5.473   9.199  0.2515 -0.7021  0.3344
  925MOL0     C27553  10.415   5.376   9.115  0.0576  0.0089  0.4779
  925MOL0     C27554  10.516   5.450   9.024 -0.3302 -0.0897  0.1379
  925MOL0     C27555  10.654   5.478   9.094  0.9546  0.5313 -0.3382
  925MOL0     C27556  10.750   5.526   8.994 -0.1652 -0.0984  0.6216
  925MOL0    Cl27557  10.914   5.557   9.076 -0.2550  0.3423 -0.0807
  925MOL0     C27558   9.902   5.790   9.616  0.1131 -0.0981 -0.2994
  925MOL0     C27559   9.850   5.918   9.628  0.5056 -0.5444  0.4879
  925MOL0     O27560  10.007   6.255   9.481 -0.3381  0.5703  0.3568
  925MOL0     C27561   9.768   6.422   9.627  0.1414  0.1244  0.2621
  925MOL0     C27562   9.727   6.558   9.644  0.4568  0.7358  0.0549
  925MOL0     N27563   9.228   6.797   9.811  0.0035 -0.2292 -0.4115
  925MOL0     N27564   9.218   6.812   9.937 -0.0033 -0.0428 -0.5908
  925MOL0     C27565   9.603   7.668  10.577 -0.1861 -0.1454 -0.7068
  925MOL0     C27566   9.654   7.789  10.628  0.6738 -0.1468  0.3444
  925MOL0     C27567   9.832   8.147  10.789 -1.1521  0.4900 -0.5045
  925MOL0     C27568   9.946   8.108  10.868  0.0921 -0.2078 -0.0008
  925MOL0     C27569  10.012   8.191  10.961 -0.1221  0.3588  0.1234
  925MOL0     C27570   9.969   8.321  10.983 -0.8177  0.2340  0.4830
  925MOL0     O27571  10.037   8.420  11.067  1.5218  0.0854  0.1781
  925MOL0     C27572  10.181   8.438  11.044 -0.9347  0.1161  0.3887
  925MOL0     C27573  10.221   8.537  11.147 -0.2980 -0.6692  0.8917
  925MOL0     C27574  10.326   8.482  11.245 -0.0567  0.3039  0.1753
  925MOL0     C27575  10.366   8.581  11.357 -0.6082  0.1506 -0.2401
  925MOL0     C27576  10.468   8.524  11.446  0.2185  0.4959  0.1682
  925MOL0     C27577  10.534   8.470  11.536 -0.0868 -0.3978 -0.0574
  925MOL0     C27578   9.863   8.363  10.904  1.2463  0.4552  0.2628
  925MOL0     C27579   9.794   8.287  10.807  0.2656  1.1009 -0.3378
  925MOL0     C27580   9.690   8.351  10.714 -0.3675 -0.9037 -0.0141
  925MOL0     H27581   9.987   7.736  10.605 -0.3366 -1.1803 -1.3230
  925MOL0     H27582   9.913   7.527  10.520 -0.8816 -0.9272 -0.0078
  925MOL0     H27583   9.679   7.413  10.744 -2.5105  3.2907 -0.9837
  925MOL0     H27584   9.773   7.326  10.614  0.5215  4.0125 -2.8248
  925MOL0     H27585   9.608   7.179  10.725 -1.1801  0.9402  0.2075
  925MOL0     H27586   9.489   7.292  10.677  0.2944  0.2973 -0.6659
  925MOL0     H27587   9.542   7.262  10.445 -1.0204 -0.1246  1.0466
  925MOL0     H27588   9.667   7.149  10.475  0.6455 -2.2146 -0.6911
  925MOL0     H27589   9.502   6.984  10.563  0.0736 -0.3554 -2.3584
  925MOL0     H27590   9.370   7.107  10.561  0.7475  1.7770  0.8228
  925MOL0     H27591   9.350   6.946  10.377 -1.5391  0.7322 -0.3579
  925MOL0     H27592   9.511   6.980  10.327 -0.0021  0.9069  1.3790
  925MOL0     H27593   9.261   7.161  10.302  1.0644 -0.4283  1.5750
  925MOL0     H27594   9.402   7.237  10.282 -0.5570  0.3807 -1.7942
  925MOL0     H27595   9.460   7.037  10.106  1.2686 -0.2216  2.2313
  925MOL0     H27596   9.351   7.166  10.064 -1.4894 -0.0992  1.4832
  925MOL0     H27597   9.254   6.906  10.181 -2.3248 -0.9715 -0.7966
  925MOL0     H27598   9.146   7.035  10.134 -1.1992 -0.8391 -0.4118
  925MOL0     H27599   9.255   7.126   9.836 -0.6476  0.7606  1.5756
  925MOL0     H27600   9.286   7.051   9.574  1.8950  0.8129 -0.0366
  925MOL0     H27601   9.258   6.869   9.556  0.1294 -0.2992 -0.4279
  925MOL0     H27602   9.473   6.885   9.503 -0.1163 -1.1089  0.4172
  925MOL0     H27603   9.495   7.037   9.588 -1.3046  0.3120 -0.9333
  925MOL0     H27604   9.512   6.890   9.806 -0.0911 -1.8738  0.6992
  925MOL0     H27605   9.472   6.758   9.709  0.5506  0.4602  2.0963
  925MOL0     H27606   9.691   6.954   9.655  0.0162  0.4130  4.0785
  925MOL0     H27607   9.735   6.820   9.745  1.9176  1.1446 -0.8035
  925MOL0     H27608   9.785   6.660   9.328  1.3161 -0.5289  1.1383
  925MOL0     H27609   9.879   6.315   9.239  0.2865  0.1002  0.1486
  925MOL0     H27610   9.995   6.455   9.279 -0.2682  2.1214  2.8626
  925MOL0     H27611   9.849   6.477   9.188 -2.0593  0.5658  1.3900
  925MOL0     H27612   9.939   6.031   9.309  0.1406  0.3157  0.4799
  925MOL0     H27613  10.019   5.813   9.295  0.4530 -0.0992  0.1164
  925MOL0     H27614  10.034   5.593   9.293  0.4711 -1.4115 -0.4354
  925MOL0     H27615  10.181   5.670   9.351 -2.2629  1.0634 -3.9825
  925MOL0     H27616  10.217   5.448   9.482  1.4713 -2.3806 -1.8303
  925MOL0     H27617  10.065   5.406   9.415 -2.1507  3.3614  1.1239
  925MOL0     H27618  10.132   5.387   9.202 -0.1111 -0.0785  0.0172
  925MOL0     H27619  10.253   5.301   9.295 -0.7343 -0.9267  0.2667
  925MOL0     H27620  10.408   5.526   9.266  4.3876 -3.2748 -1.4978
  925MOL0     H27621  10.295   5.545   9.130 -1.6552 -0.1935  2.0022
  925MOL0     H27622  10.466   5.305   9.180  0.4687  1.2188  1.5053
  925MOL0     H27623  10.343   5.323   9.052  3.3254 -1.6917 -2.1862
  925MOL0     H27624  10.474   5.546   8.994 -0.9720 -0.8925 -1.6803
  925MOL0     H27625  10.545   5.389   8.938  0.0751 -3.2759  2.3656
  925MOL0     H27626  10.687   5.392   9.152  2.2782  0.0333 -1.7530
  925MOL0     H27627  10.637   5.558   9.167 -1.5253 -0.6107  0.4390
  925MOL0     H27628  10.710   5.614   8.942  2.2609 -0.7847 -2.8245
  925MOL0     H27629  10.764   5.454   8.912 -1.1065  1.7142 -1.2447
  925MOL0     H27630   9.909   5.726   9.704 -1.6834  2.0196  1.4987
  925MOL0     H27631   9.810   5.960   9.720  1.2143 -1.0227  1.0221
  925MOL0     H27632   9.733   6.355   9.705 -0.6350 -1.0827 -1.0787
  925MOL0     H27633   9.658   6.592   9.721 -1.9877  0.4594 -1.9040
  925MOL0     H27634   9.495   7.669  10.571 -0.4047 -2.3605  1.4829
  925MOL0     H27635   9.576   7.861  10.649 -1.4177 -1.0343 -3.4969
  925MOL0     H27636   9.987   8.008  10.868 -1.4157 -0.8626 -0.8933
  925MOL0     H27637  10.092   8.153  11.024  0.2402 -0.6699 -0.9361
  925MOL0     H27638  10.230   8.342  11.063 -0.5367  0.0974 -0.6602
  925MOL0     H27639  10.213   8.473  10.945  0.8999 -0.4016  0.7700
  925MOL0     H27640  10.137   8.562  11.211 -0.4737  0.0776  0.3782
  925MOL0     H27641  10.254   8.627  11.094  0.3344 -0.5456  1.4871
  925MOL0     H27642  10.281   8.398  11.299 -0.6356  1.0948  0.9615
  925MOL0     H27643  10.418   8.450  11.197  1.0891  1.0343  1.8040
  925MOL0     H27644  10.276   8.624  11.403 -2.6926 -0.9237 -3.0099
  925MOL0     H27645  10.416   8.661  11.303 -0.7153  0.6510  0.3926
  925MOL0     H27646  10.588   8.419  11.613  1.2452  0.9917 -0.0353
  925MOL0     H27647   9.844   8.468  10.922  1.1436  1.1219 -3.1369
  925MOL0     H27648   9.727   8.362  10.612  0.2026  1.6743  0.3832
  925MOL0     H27649   9.600   8.290  10.720  0.9828 -2.8539  2.3851
  925MOL0     H27650   9.669   8.450  10.756  0.9454 -1.4939  2.2076
  926MOL0     O27651  10.092   5.225   2.446 -0.0099  0.9260 -0.0485
  926MOL0     C27652  10.048   5.154   2.360 -0.2728 -0.1173 -0.5419
  926MOL0     O27653  10.018   5.189   2.226 -0.3436  0.1747 -0.2151
  926MOL0     C27654  10.044   5.314   2.185 -0.8652  0.2851 -0.0960
  926MOL0     C27655   9.947   5.398   2.139  0.1181  0.1411  0.5011
  926MOL0     C27656   9.982   5.525   2.094 -0.6130  0.2481  0.2995
  926MOL0     C27657  10.116   5.570   2.083 -0.6037  0.7030  0.1301
  926MOL0     O27658  10.124   5.692   2.029 -0.3565 -0.7195  0.3423
  926MOL0     C27659  10.254   5.740   2.007  0.0285 -0.5961  0.7773
  926MOL0     C27660  10.325   5.785   2.131  0.3835 -0.7156  0.1919
  926MOL0     C27661  10.476   5.809   2.084  0.0754  0.0380  0.2649
  926MOL0     C27662  10.559   5.873   2.188 -0.1289 -0.3669  0.2109
  926MOL0     C27663  10.708   5.878   2.151 -0.2928  0.2745  0.4386
  926MOL0     C27664  10.802   5.964   2.247 -0.5521 -0.1716 -1.5795
  926MOL0     C27665  10.775   6.114   2.216  0.5119 -0.0189 -0.9429
  926MOL0     C27666  10.812   6.167   2.073 -0.0943 -0.3451 -0.9255
  926MOL0     N27667  10.947   6.139   2.027 -0.5913 -0.3338  0.1403
  926MOL0     C27668  11.063   6.163   2.102  0.1264 -0.3287 -1.3026
  926MOL0     C27669  11.165   6.117   2.039 -0.9775  0.2573  1.4378
  926MOL0     C27670  11.301   6.110   2.105 -0.5551  0.2052 -0.3825
  926MOL0     C27671  11.409   6.055   2.014  0.1100 -0.0553 -0.8740
  926MOL0     C27672  11.432   6.137   1.881 -0.4954 -0.2073 -0.3817
  926MOL0     C27673  11.504   6.266   1.904  0.2222 -0.1329  0.2915
  926MOL0     O27674  11.597   6.312   1.803  0.0786  0.0435  0.0994
  926MOL0     C27675  11.608   6.449   1.757 -0.0548  0.1575 -0.4390
  926MOL0     C27676  11.583   6.551   1.851  0.9998 -0.0146  0.2305
  926MOL0     C27677  11.596   6.684   1.828 -0.7458 -0.5979  0.6140
  926MOL0     C27678  11.535   6.773   1.933 -0.7672 -0.4939 -0.3425
  926MOL0     C27679  11.654   6.723   1.705  0.8718  0.0253  0.0508
  926MOL0     C27680  11.672   6.869   1.662 -0.2269  0.0963  0.2511
  926MOL0     O27681  11.777   6.890   1.572 -0.5993  0.4698  0.7172
  926MOL0     C27682  11.774   6.990   1.489 -0.4215  0.5575  1.0893
  926MOL0     C27683  11.894   6.993   1.409  0.3768  0.0135 -0.1476
  926MOL0     C27684  11.920   7.094   1.315 -0.3092 -0.3492 -0.1730
  926MOL0     C27685  11.825   7.193   1.280 -0.6942  0.5830  0.4472
  926MOL0     O27686  11.833   7.298   1.185 -0.2117 -0.6704 -0.0552
  926MOL0     C27687  11.887   7.264   1.051 -0.0806  0.4580  1.0655
  926MOL0     C27688  11.866   7.380   0.949  0.8028 -0.1386  0.0254
  926MOL0     C27689  11.874   7.336   0.804  0.8123  0.2857 -0.1570
  926MOL0     C27690  11.756   7.260   0.762  0.2842 -0.1656 -0.0039
  926MOL0     C27691  11.749   7.234   0.613 -0.9351  0.8929 -0.3127
  926MOL0     C27692  11.625   7.146   0.571 -0.2576 -0.2836 -1.4133
  926MOL0     C27693  11.635   7.010   0.645  0.1782 -0.0235  0.2664
  926MOL0     C27694  11.552   6.909   0.552  0.9543 -0.2359  0.5703
  926MOL0    Cl27695  11.377   6.949   0.556  0.1778  0.1987  0.4025
  926MOL0     C27696  11.711   7.192   1.351  0.4015  0.5746 -0.0509
  926MOL0     C27697  11.684   7.096   1.459  0.7691  0.1260  0.5187
  926MOL0     O27698  11.616   6.960   1.711  0.5858 -0.6751 -0.1865
  926MOL0     C27699  11.694   6.628   1.619 -0.1632 -0.4385  0.2351
  926MOL0     C27700  11.661   6.490   1.633 -0.0153 -0.3466 -0.0753
  926MOL0     N27701  11.114   6.072   1.912 -1.0361 -0.1967 -0.2663
  926MOL0     N27702  10.989   6.080   1.913 -0.7688 -0.4932 -0.4898
  926MOL0     C27703  10.215   5.489   2.137 -0.1439  0.2908  0.6494
  926MOL0     C27704  10.180   5.352   2.176  0.2382 -0.2748  0.4440
  926MOL0     C27705  10.020   5.015   2.394 -0.9594  0.7908 -0.5967
  926MOL0     C27706  10.031   4.921   2.280 -1.0828  0.1366 -0.1785
  926MOL0     C27707   9.991   4.789   2.303  0.0751  0.0932 -0.2417
  926MOL0     C27708   9.948   4.736   2.428 -0.9519 -0.1123 -0.5510
  926MOL0     O27709   9.920   4.602   2.431  0.8982 -0.1330 -0.1812
  926MOL0     C27710   9.823   4.560   2.521  0.3396  0.0554 -0.4167
  926MOL0     C27711   9.761   4.430   2.481 -0.2166 -0.5725  0.7533
  926MOL0     C27712   9.715   4.408   2.336  0.7720 -0.2833 -0.0784
  926MOL0     C27713   9.803   4.333   2.235 -1.4228  0.4906  0.0535
  926MOL0     C27714   9.856   4.211   2.292 -0.6608 -0.0666  0.0172
  926MOL0     C27715   9.908   4.115   2.342 -0.0807 -0.1462  0.7195
  926MOL0     C27716   9.947   4.828   2.538  0.6684 -0.8422 -0.4950
  926MOL0     C27717   9.975   4.965   2.526 -0.2724  0.2966  0.6299
  926MOL0     C27718  10.001   5.040   2.655  0.1643 -0.2225 -0.3142
  926MOL0     H27719   9.845   5.361   2.138  0.3101 -1.4768  5.8486
  926MOL0     H27720   9.914   5.581   2.030  1.2624  0.4903 -1.5645
  926MOL0     H27721  10.246   5.828   1.942  0.4280 -1.6814 -0.8093
  926MOL0     H27722  10.313   5.668   1.950  2.8471  0.4718  2.1437
  926MOL0     H27723  10.291   5.883   2.166 -0.4144 -0.7173 -0.5464
  926MOL0     H27724  10.318   5.717   2.216 -0.1760  1.7460  2.2273
  926MOL0     H27725  10.530   5.720   2.054  0.1479  0.0043  0.4963
  926MOL0     H27726  10.475   5.878   1.998 -0.1526  0.4295  0.5759
  926MOL0     H27727  10.530   5.976   2.212 -1.8065 -0.9433  0.8290
  926MOL0     H27728  10.548   5.817   2.282 -0.2880  1.6231  1.4489
  926MOL0     H27729  10.716   5.918   2.049 -1.3517  1.6410  0.8616
  926MOL0     H27730  10.737   5.773   2.147 -0.3129  0.2819  0.1089
  926MOL0     H27731  10.766   5.939   2.347 -1.8867  0.0215 -2.0006
  926MOL0     H27732  10.903   5.926   2.228 -0.1121  0.2188 -0.1470
  926MOL0     H27733  10.839   6.167   2.288 -1.2828  2.4859 -1.0322
  926MOL0     H27734  10.674   6.140   2.249  0.1357 -1.7187 -0.6959
  926MOL0     H27735  10.736   6.130   2.004  2.1345 -2.2356 -2.5137
  926MOL0     H27736  10.809   6.276   2.080 -0.4559 -0.4598  2.2915
  926MOL0     H27737  11.065   6.211   2.199  1.1000 -1.3598 -0.8022
  926MOL0     H27738  11.288   6.049   2.194 -0.8962  3.2142  1.8133
  926MOL0     H27739  11.334   6.207   2.144  0.2406 -0.3302  0.2963
  926MOL0     H27740  11.496   6.050   2.080 -0.1779 -0.2535 -0.5049
  926MOL0     H27741  11.386   5.949   1.997  0.6961 -0.2737 -0.3254
  926MOL0     H27742  11.505   6.073   1.832 -1.4587 -1.7317  0.0845
  926MOL0     H27743  11.347   6.165   1.818 -0.4216  4.4166  1.2042
  926MOL0     H27744  11.430   6.343   1.925  0.5492  0.4622 -0.6815
  926MOL0     H27745  11.560   6.262   1.998 -2.3377  0.8222  1.9680
  926MOL0     H27746  11.538   6.515   1.943 -0.2079 -0.5124 -0.5222
  926MOL0     H27747  11.614   6.842   1.963  1.1847 -2.7247 -0.0536
  926MOL0     H27748  11.511   6.718   2.025  0.0434 -1.7902 -0.8748
  926MOL0     H27749  11.446   6.822   1.891  1.0426  1.6957 -1.8973
  926MOL0     H27750  11.975   6.922   1.426 -0.6959 -1.4763 -1.0418
  926MOL0     H27751  12.012   7.095   1.258 -0.1529  0.8474  0.0725
  926MOL0     H27752  11.995   7.243   1.056  0.0135  0.0528 -1.3110
  926MOL0     H27753  11.842   7.169   1.019 -2.5352  1.4311  1.4200
  926MOL0     H27754  11.770   7.428   0.973  1.4832  1.3163 -0.0202
  926MOL0     H27755  11.941   7.456   0.973  2.9901 -2.1429 -0.1574
  926MOL0     H27756  11.957   7.265   0.800  1.2908  0.8063  0.2786
  926MOL0     H27757  11.895   7.424   0.742  0.3405  0.0834 -0.6088
  926MOL0     H27758  11.668   7.322   0.780  0.7320  0.0795  1.4240
  926MOL0     H27759  11.754   7.170   0.824 -1.7847 -1.0358 -1.2399
  926MOL0     H27760  11.746   7.328   0.556 -1.3330 -0.5254 -2.7481
  926MOL0     H27761  11.847   7.194   0.585  0.9468  2.9105  2.6985
  926MOL0     H27762  11.624   7.148   0.462  0.9727 -0.7172 -1.4407
  926MOL0     H27763  11.538   7.205   0.604 -0.3228  0.3305 -2.6367
  926MOL0     H27764  11.586   7.010   0.742 -2.8011 -2.6930 -1.0624
  926MOL0     H27765  11.739   6.984   0.668 -0.6074 -2.5265  1.2520
  926MOL0     H27766  11.564   6.810   0.596  0.0084  0.2474  1.9761
  926MOL0     H27767  11.591   6.910   0.450 -1.2327  1.6198 -0.3213
  926MOL0     H27768  11.636   7.266   1.325  0.6115  0.9969  0.5131
  926MOL0     H27769  11.597   7.090   1.523  0.9953  0.0765  0.8237
  926MOL0     H27770  11.758   6.663   1.538 -1.3107  1.5791  0.1466
  926MOL0     H27771  11.679   6.409   1.563 -1.1581 -0.4282 -0.2947
  926MOL0     H27772  10.314   5.516   2.103 -1.0643  0.7739 -1.8315
  926MOL0     H27773  10.262   5.283   2.193  0.8817 -0.1646 -1.8647
  926MOL0     H27774  10.067   4.954   2.183 -0.4330  2.6562  0.8393
  926MOL0     H27775   9.994   4.713   2.225  0.6900 -0.1043 -0.0324
  926MOL0     H27776   9.865   4.549   2.621  0.6327  2.0431 -0.2934
  926MOL0     H27777   9.746   4.637   2.519 -0.4462 -0.7177 -1.6748
  926MOL0     H27778   9.672   4.414   2.543 -0.0834 -1.4213  0.7304
  926MOL0     H27779   9.826   4.347   2.513  0.9848  1.3104  3.7124
  926MOL0     H27780   9.623   4.349   2.336  1.2490 -1.0793  1.3634
  926MOL0     H27781   9.686   4.499   2.283 -0.0542  0.2849  1.2800
  926MOL0     H27782   9.890   4.396   2.209  0.8356 -3.0087 -1.6677
  926MOL0     H27783   9.745   4.320   2.143  0.3775  1.1897 -1.2696
  926MOL0     H27784   9.954   4.032   2.391  0.1867  1.7875  4.0428
  926MOL0     H27785   9.924   4.784   2.634 -3.5422  2.3075  0.2036
  926MOL0     H27786   9.956   5.139   2.644  0.8556  0.0426 -0.8480
  926MOL0     H27787   9.960   4.992   2.744 -0.7714  0.5627 -0.3060
  926MOL0     H27788  10.110   5.053   2.661  0.2712  2.9657 -4.2420
  927MOL0     O27789   1.965   1.183   1.691  0.1447  0.0259 -0.3243
  927MOL0     C27790   1.887   1.166   1.782  0.1495 -1.0687 -0.3513
  927MOL0     O27791   1.926   1.104   1.899  0.4956 -0.4320 -0.0778
  927MOL0     C27792   2.059   1.084   1.935 -0.4437  0.0275 -0.3327
  927MOL0     C27793   2.155   1.182   1.933  0.0831 -0.1928  0.0098
  927MOL0     C27794   2.291   1.162   1.964  0.3312  0.8238 -0.3034
  927MOL0     C27795   2.332   1.035   2.008 -0.7629 -0.7118  0.7818
  927MOL0     O27796   2.464   1.026   2.041  0.0905 -0.4807  0.3898
  927MOL0     C27797   2.514   0.896   2.076  0.3117  0.2276 -0.0270
  927MOL0     C27798   2.660   0.904   2.051  0.3536  0.1317  0.2795
  927MOL0     C27799   2.698   0.934   1.901  0.0309  0.0033 -0.0848
  927MOL0     C27800   2.851   0.934   1.883  0.4440 -0.0347 -0.3831
  927MOL0     C27801   2.886   0.874   1.752 -0.7689 -0.8798 -0.2461
  927MOL0     C27802   2.896   0.720   1.738 -0.3818 -0.7001 -0.5893
  927MOL0     C27803   2.983   0.654   1.849 -0.4294  0.4945  0.2138
  927MOL0     C27804   2.977   0.505   1.834 -1.1049 -0.4877  0.0482
  927MOL0     N27805   3.055   0.443   1.942 -0.4649  0.2918  0.7966
  927MOL0     C27806   3.142   0.513   2.030  0.4975 -0.2449  0.7414
  927MOL0     C27807   3.149   0.432   2.136 -0.0260  0.1768  1.2073
  927MOL0     C27808   3.224   0.456   2.268  0.6584 -0.4162  0.4458
  927MOL0     C27809   3.367   0.508   2.253  0.7247  0.2157 -0.5739
  927MOL0     C27810   3.454   0.403   2.188  0.2576  0.3777  0.1145
  927MOL0     C27811   3.605   0.423   2.179 -0.2377 -0.0627 -0.0972
  927MOL0     O27812   3.623   0.554   2.108  0.6016 -0.1035  0.8796
  927MOL0     C27813   3.744   0.577   2.047  0.3537 -0.4181 -0.1577
  927MOL0     C27814   3.753   0.674   1.945 -0.1787  0.3176  0.2474
  927MOL0     C27815   3.874   0.723   1.894  1.0247  0.6030 -0.2413
  927MOL0     C27816   3.866   0.860   1.834 -0.8402  0.4533  0.1365
  927MOL0     C27817   3.994   0.653   1.929  0.0533  0.6706 -0.4999
  927MOL0     C27818   4.130   0.688   1.881 -0.0246 -0.0130  0.7770
  927MOL0     O27819   4.233   0.614   1.933  0.2628 -0.4588  0.4846
  927MOL0     C27820   4.365   0.614   1.884  0.0280  0.0372 -0.6303
  927MOL0     C27821   4.401   0.600   1.753  0.4548  0.5314  0.2831
  927MOL0     C27822   4.536   0.589   1.717 -1.0342  0.0410  0.3011
  927MOL0     C27823   4.637   0.595   1.811 -0.4134 -0.0290  0.4572
  927MOL0     O27824   4.766   0.582   1.759 -0.0761 -0.3836  0.2693
  927MOL0     C27825   4.850   0.491   1.823 -0.2587 -1.0604  0.4457
  927MOL0     C27826   4.983   0.478   1.747 -0.0502  1.1426  0.4957
  927MOL0     C27827   5.012   0.331   1.754 -0.9488  0.2453 -0.4600
  927MOL0     C27828   4.974   0.255   1.623 -0.5309 -0.1494 -0.1049
  927MOL0     C27829   5.006   0.106   1.634  0.0553  0.2228  0.1954
  927MOL0     C27830   5.151   0.070   1.609  0.3634 -0.1960 -0.1718
  927MOL0     C27831   5.166  -0.085   1.627  0.4263  0.1163  0.9512
  927MOL0     C27832   5.287  -0.158   1.573  0.3459  0.0591 -0.5985
  927MOL0    Cl27833   5.282  -0.138   1.395  0.4512 -0.1098  0.4811
  927MOL0     C27834   4.599   0.616   1.945  0.4850 -0.4083 -0.1615
  927MOL0     C27835   4.464   0.630   1.981 -0.4596  0.1401 -0.0851
  927MOL0     O27836   4.142   0.774   1.791  0.1675 -0.3765  0.2607
  927MOL0     C27837   3.983   0.559   2.029  0.1578  0.1950 -0.4831
  927MOL0     C27838   3.861   0.521   2.083  0.4590  0.3784  0.5017
  927MOL0     N27839   3.066   0.319   2.120  0.0570 -0.6585  0.2054
  927MOL0     N27840   3.010   0.334   2.011  0.0214 -0.3375 -0.2289
  927MOL0     C27841   2.230   0.936   2.028  1.3695  0.8262  0.3452
  927MOL0     C27842   2.101   0.961   1.987 -0.1411  1.2276  0.1973
  927MOL0     C27843   1.738   1.201   1.757  0.2371 -0.0675 -0.1790
  927MOL0     C27844   1.649   1.152   1.848 -0.1177  0.0836 -0.0804
  927MOL0     C27845   1.513   1.190   1.842  0.0507 -0.7788 -0.4553
  927MOL0     C27846   1.462   1.271   1.736 -0.6620  0.6725 -0.2716
  927MOL0     O27847   1.330   1.302   1.740 -0.6742  0.6198  0.0905
  927MOL0     C27848   1.273   1.375   1.640 -0.1734 -0.2668 -0.9021
  927MOL0     C27849   1.119   1.356   1.629 -0.1663  0.3571 -0.2999
  927MOL0     C27850   1.019   1.399   1.731  0.9691 -0.6239  0.7856
  927MOL0     C27851   1.086   1.422   1.872 -0.2580  0.2767  0.2501
  927MOL0     C27852   1.002   1.468   1.979 -0.2022  0.2936 -0.8917
  927MOL0     C27853   0.934   1.496   2.071 -0.2725 -0.2417 -0.2138
  927MOL0     C27854   1.556   1.308   1.638  0.7264 -0.0449  0.0887
  927MOL0     C27855   1.691   1.285   1.649 -0.6303 -0.3552 -0.1919
  927MOL0     C27856   1.779   1.356   1.552  0.0207  0.8612 -0.0947
  927MOL0     H27857   2.137   1.277   1.884 -2.1438  0.8112  2.4957
  927MOL0     H27858   2.362   1.244   1.954  1.1402  0.1891  0.1784
  927MOL0     H27859   2.469   0.816   2.017 -0.5580  0.3258  0.4940
  927MOL0     H27860   2.490   0.877   2.180  0.6940  2.0739  0.4419
  927MOL0     H27861   2.695   0.985   2.116 -0.8696 -1.7296  3.4435
  927MOL0     H27862   2.711   0.817   2.092 -0.4743 -0.0711  0.8764
  927MOL0     H27863   2.653   0.848   1.850  0.2417 -1.6133  2.2817
  927MOL0     H27864   2.653   1.026   1.863 -0.5585 -0.0665  0.4227
  927MOL0     H27865   2.890   1.036   1.894  1.6338 -0.6607  1.8413
  927MOL0     H27866   2.898   0.882   1.967  0.4562  0.1638 -0.2663
  927MOL0     H27867   2.986   0.908   1.723 -1.3996 -2.1886 -4.5742
  927MOL0     H27868   2.824   0.917   1.674 -0.3880 -0.5336 -0.3626
  927MOL0     H27869   2.792   0.684   1.735 -0.1344 -1.5929  0.7989
  927MOL0     H27870   2.939   0.698   1.640 -1.9820 -1.8111 -1.0937
  927MOL0     H27871   2.936   0.675   1.945 -2.5664  0.5733 -0.7931
  927MOL0     H27872   3.086   0.691   1.847 -1.0213  2.4269 -3.4312
  927MOL0     H27873   2.877   0.464   1.849 -0.4717 -1.7527  1.0193
  927MOL0     H27874   3.016   0.486   1.733  1.7441  1.1813  0.7267
  927MOL0     H27875   3.170   0.616   2.008 -1.6271  0.9456  3.0842
  927MOL0     H27876   3.218   0.364   2.327 -0.5992 -1.1679 -0.8001
  927MOL0     H27877   3.165   0.524   2.330  0.0144 -0.2028 -0.3774
  927MOL0     H27878   3.363   0.599   2.193 -1.1048  0.7636  0.3012
  927MOL0     H27879   3.397   0.525   2.357  1.5827 -3.7411 -0.0333
  927MOL0     H27880   3.425   0.302   2.220 -1.3008 -0.0590 -2.4645
  927MOL0     H27881   3.427   0.403   2.082  0.5088 -1.3629  0.0186
  927MOL0     H27882   3.639   0.424   2.283  0.0054  2.2854 -0.1413
  927MOL0     H27883   3.653   0.339   2.127  2.1355  1.3970 -0.4157
  927MOL0     H27884   3.663   0.728   1.917 -0.4328 -0.3245 -0.2064
  927MOL0     H27885   3.761   0.885   1.818 -0.2979  2.0504 -1.2566
  927MOL0     H27886   3.909   0.876   1.735  0.3762  0.4059  0.6371
  927MOL0     H27887   3.906   0.933   1.905 -3.1714 -1.4553  3.6839
  927MOL0     H27888   4.319   0.576   1.686 -0.9487  4.7833  0.1434
  927MOL0     H27889   4.555   0.589   1.611  1.9456  1.1271  0.7413
  927MOL0     H27890   4.862   0.526   1.926  1.0611  3.9548 -1.1499
  927MOL0     H27891   4.789   0.401   1.830  0.0285 -1.2519  0.5256
  927MOL0     H27892   4.983   0.509   1.642  3.9536  0.3497  0.1157
  927MOL0     H27893   5.056   0.547   1.791  1.0004  1.5641 -1.7859
  927MOL0     H27894   4.977   0.277   1.842 -0.8213  0.0257 -0.5441
  927MOL0     H27895   5.121   0.325   1.752 -0.7887  2.4317 -1.3383
  927MOL0     H27896   5.023   0.299   1.536  0.7916 -1.7280 -0.1904
  927MOL0     H27897   4.867   0.274   1.607 -0.5333  1.0868  1.1661
  927MOL0     H27898   4.966   0.059   1.725 -0.4355  3.5106  1.7986
  927MOL0     H27899   4.938   0.057   1.563  0.2915  0.9639 -0.5556
  927MOL0     H27900   5.214   0.130   1.675  1.1320 -1.1331 -0.0263
  927MOL0     H27901   5.167   0.094   1.504 -0.9935 -2.1744 -0.9021
  927MOL0     H27902   5.076  -0.130   1.584 -1.6229  1.5234  3.4766
  927MOL0     H27903   5.165  -0.110   1.733  2.8795 -0.5290  0.8813
  927MOL0     H27904   5.289  -0.263   1.604 -0.2860  0.6915  1.7675
  927MOL0     H27905   5.375  -0.109   1.617  0.1208  0.2430 -0.3475
  927MOL0     H27906   4.679   0.622   2.019  0.1119 -0.3733  0.2436
  927MOL0     H27907   4.442   0.645   2.086  1.9652  0.2284  0.4763
  927MOL0     H27908   4.070   0.510   2.072 -0.9874  0.2011  1.9837
  927MOL0     H27909   3.864   0.449   2.164  0.9075 -0.8288 -0.5542
  927MOL0     H27910   2.242   0.834   2.063  1.2026 -0.6213 -3.4004
  927MOL0     H27911   2.028   0.881   2.000 -1.8450  2.6453 -0.2815
  927MOL0     H27912   1.689   1.077   1.915  0.6948  0.2127 -0.4042
  927MOL0     H27913   1.453   1.145   1.920  1.0950  0.0096  0.8484
  927MOL0     H27914   1.295   1.481   1.651 -1.3543  0.0191 -1.0925
  927MOL0     H27915   1.309   1.339   1.543 -3.5002 -1.0255 -1.9908
  927MOL0     H27916   1.103   1.249   1.620  0.1439 -0.3307  4.4063
  927MOL0     H27917   1.073   1.401   1.541 -3.6339 -1.1699  0.5588
  927MOL0     H27918   0.966   1.491   1.704  2.6574  1.1356  3.0505
  927MOL0     H27919   0.939   1.325   1.746 -2.5767  2.2467 -2.0401
  927MOL0     H27920   1.170   1.492   1.870 -1.2736  1.5193 -0.3277
  927MOL0     H27921   1.130   1.326   1.901  1.2519  1.0204  0.5448
  927MOL0     H27922   0.869   1.532   2.148 -0.7182 -0.9124 -0.2742
  927MOL0     H27923   1.523   1.371   1.556  1.2701 -1.4521 -1.2760
  927MOL0     H27924   1.857   1.414   1.604  2.3341 -1.6325 -0.5618
  927MOL0     H27925   1.830   1.281   1.491  0.9776  1.6603 -0.3091
  927MOL0     H27926   1.724   1.431   1.494 -1.8537  2.0130  2.9502
  928MOL0     O27927   6.794   2.313   7.770  0.2971 -0.0212 -0.2947
  928MOL0     C27928   6.745   2.204   7.728  1.0113 -0.1305  0.0686
  928MOL0     O27929   6.658   2.191   7.613  0.4007  0.2076  0.0950
  928MOL0     C27930   6.639   2.314   7.561 -0.5739  0.1104  0.6510
  928MOL0     C27931   6.513   2.376   7.577  0.0756 -0.1465  0.1050
  928MOL0     C27932   6.497   2.508   7.521 -0.0060  0.9244 -0.3592
  928MOL0     C27933   6.608   2.562   7.440 -0.4185  0.5915 -0.3838
  928MOL0     O27934   6.592   2.681   7.368  0.9381 -0.4397 -0.1931
  928MOL0     C27935   6.689   2.735   7.279  0.0979  0.5424  0.0025
  928MOL0     C27936   6.637   2.863   7.211 -0.5458 -0.6154  0.0827
  928MOL0     C27937   6.537   2.827   7.101 -0.0291 -0.2096 -0.7352
  928MOL0     C27938   6.464   2.947   7.028 -0.0513  0.2729 -0.3486
  928MOL0     C27939   6.381   2.887   6.905  0.2146  1.0872  0.5479
  928MOL0     C27940   6.292   2.997   6.853  0.5190  0.1444 -0.3733
  928MOL0     C27941   6.215   2.973   6.724  0.7717  1.0836 -0.2811
  928MOL0     C27942   6.140   2.838   6.700  0.3189 -0.6811 -1.0859
  928MOL0     N27943   6.051   2.797   6.815  0.7125 -0.9636 -0.5569
  928MOL0     C27944   5.912   2.813   6.818 -0.3358 -0.9974 -0.1353
  928MOL0     C27945   5.871   2.724   6.907 -0.3334 -0.4031 -0.5756
  928MOL0     C27946   5.725   2.698   6.942 -0.3127 -0.6422  0.3324
  928MOL0     C27947   5.687   2.795   7.060  0.1631 -0.5953 -1.3818
  928MOL0     C27948   5.536   2.780   7.090 -0.4917 -0.4099  0.2759
  928MOL0     C27949   5.480   2.903   7.181  0.6949  0.0889  0.4230
  928MOL0     O27950   5.340   2.893   7.204 -0.5154 -0.9354  0.2728
  928MOL0     C27951   5.245   2.954   7.123  0.8395 -0.5228  0.9312
  928MOL0     C27952   5.127   2.990   7.189 -0.9731  0.4451  0.2024
  928MOL0     C27953   5.023   3.037   7.114  0.0567 -0.4898 -0.1341
  928MOL0     C27954   4.905   3.086   7.185  0.4447 -0.1733  0.3025
  928MOL0     C27955   5.028   3.042   6.979  0.0956  0.7203  0.8186
  928MOL0     C27956   4.911   3.062   6.886 -0.5016  0.1128  0.1470
  928MOL0     O27957   4.943   3.057   6.753  0.6385 -0.0947  0.0230
  928MOL0     C27958   4.854   3.075   6.651  0.0125 -0.7108 -0.3468
  928MOL0     C27959   4.885   3.174   6.551 -0.6983  0.9462  0.8912
  928MOL0     C27960   4.786   3.197   6.446 -0.2158  0.2978 -1.3244
  928MOL0     C27961   4.677   3.118   6.433 -0.5930 -0.5158  0.5673
  928MOL0     O27962   4.601   3.151   6.321  0.4598 -0.3763  0.3113
  928MOL0     C27963   4.538   3.045   6.245 -0.2805  0.2042  0.2381
  928MOL0     C27964   4.643   2.949   6.190  0.3330 -0.1451 -0.3678
  928MOL0     C27965   4.582   2.835   6.114  0.3317  0.0798 -0.1471
  928MOL0     C27966   4.500   2.887   5.989  0.3189  0.7986  0.2143
  928MOL0     C27967   4.460   2.764   5.907 -0.2504 -0.0361  0.4683
  928MOL0     C27968   4.570   2.659   5.873 -0.9063  0.2268  0.3838
  928MOL0     C27969   4.674   2.706   5.773  0.0328  0.6908  1.5068
  928MOL0     C27970   4.763   2.600   5.723 -0.7460 -0.5434  0.6190
  928MOL0    Cl27971   4.922   2.648   5.671 -0.2836 -0.2759  0.6117
  928MOL0     C27972   4.655   3.015   6.513  0.2928 -0.0104 -0.2909
  928MOL0     C27973   4.740   2.993   6.629  0.6627 -0.4105  0.6553
  928MOL0     O27974   4.808   3.107   6.926  0.1933 -0.6856 -0.9766
  928MOL0     C27975   5.148   3.022   6.914 -0.3629 -0.1663  0.4704
  928MOL0     C27976   5.257   2.983   6.987 -0.5010 -0.7962 -0.0173
  928MOL0     N27977   5.980   2.656   6.957  0.6016  0.1101 -0.1518
  928MOL0     N27978   6.086   2.700   6.904 -0.3517  0.4212  0.3531
  928MOL0     C27979   6.718   2.485   7.416 -0.6703  0.3024  0.8182
  928MOL0     C27980   6.735   2.367   7.479  0.2182  0.7669 -0.1410
  928MOL0     C27981   6.759   2.092   7.830  0.2964  0.0239  0.3555
  928MOL0     C27982   6.824   2.119   7.958 -0.0623  0.9961  0.0874
  928MOL0     C27983   6.859   2.020   8.047  1.0188 -0.6222 -0.6172
  928MOL0     C27984   6.822   1.890   8.024 -0.5602 -0.2136 -0.4216
  928MOL0     O27985   6.873   1.787   8.096  0.5079 -0.2901  0.3007
  928MOL0     C27986   6.823   1.652   8.087  1.0385 -0.4037  0.3609
  928MOL0     C27987   6.912   1.576   8.172 -0.2885  0.2394  0.1541
  928MOL0     C27988   7.067   1.576   8.132  0.5371  0.1426 -0.7557
  928MOL0     C27989   7.143   1.461   8.206  0.4742 -0.3253 -0.1603
  928MOL0     C27990   7.097   1.438   8.342 -0.0477  0.3534  0.4667
  928MOL0     C27991   7.035   1.412   8.444  0.5305  0.2432  0.1986
  928MOL0     C27992   6.737   1.859   7.912  0.4381 -0.3078 -0.4772
  928MOL0     C27993   6.702   1.962   7.822 -0.2192  0.3179 -0.0359
  928MOL0     C27994   6.613   1.905   7.710 -0.9704 -0.3174  0.1116
  928MOL0     H27995   6.443   2.330   7.646 -0.1258  2.4318  1.7728
  928MOL0     H27996   6.398   2.550   7.535  0.2165  0.4977  4.1183
  928MOL0     H27997   6.723   2.659   7.207  3.1333  1.5754  0.2011
  928MOL0     H27998   6.776   2.774   7.332 -0.5112  2.2158 -0.1909
  928MOL0     H27999   6.583   2.916   7.290 -2.9710 -2.8629  0.0843
  928MOL0     H28000   6.716   2.922   7.164  0.3925 -1.4715  0.5505
  928MOL0     H28001   6.590   2.766   7.027 -0.1908 -3.0134  1.2690
  928MOL0     H28002   6.461   2.753   7.130 -1.3564  1.1350 -0.6678
  928MOL0     H28003   6.404   3.004   7.100 -1.1551  0.8302 -1.6456
  928MOL0     H28004   6.531   3.024   6.987 -1.9493  1.5896 -1.1366
  928MOL0     H28005   6.340   2.789   6.931  1.6304 -0.1647 -1.6188
  928MOL0     H28006   6.443   2.855   6.821 -2.5643 -0.9663 -0.9293
  928MOL0     H28007   6.221   3.028   6.931  0.9454 -1.2131  0.5969
  928MOL0     H28008   6.358   3.081   6.831 -0.6854  0.8635 -1.3485
  928MOL0     H28009   6.272   2.988   6.632 -0.7572  1.0887 -1.2601
  928MOL0     H28010   6.144   3.055   6.708  0.4667  0.7376 -0.7302
  928MOL0     H28011   6.080   2.854   6.609 -0.0788  2.3929 -0.3833
  928MOL0     H28012   6.221   2.768   6.678  1.1254  0.4011 -1.6831
  928MOL0     H28013   5.860   2.867   6.739  0.0445  1.3462  1.1304
  928MOL0     H28014   5.731   2.597   6.982 -1.4030 -0.6436  0.5122
  928MOL0     H28015   5.657   2.702   6.856 -1.3198  3.7190  1.0621
  928MOL0     H28016   5.759   2.785   7.142 -1.9378 -1.9494  0.4180
  928MOL0     H28017   5.699   2.893   7.013 -0.0826  2.0974  3.5470
  928MOL0     H28018   5.479   2.776   6.997  0.9239  1.2019 -0.7242
  928MOL0     H28019   5.538   2.688   7.150 -0.9193 -0.7326 -0.1954
  928MOL0     H28020   5.528   2.888   7.278 -2.8755 -4.9053  1.8161
  928MOL0     H28021   5.504   2.998   7.132 -0.6595 -0.8384 -2.2496
  928MOL0     H28022   5.110   2.969   7.294 -0.4408 -1.4433 -0.0529
  928MOL0     H28023   4.933   3.076   7.290  4.2311  0.0866 -0.4997
  928MOL0     H28024   4.817   3.023   7.175  2.5172 -3.3376  0.6076
  928MOL0     H28025   4.876   3.184   7.147 -1.4435 -0.6121  0.5455
  928MOL0     H28026   4.978   3.229   6.554 -0.5025  0.7110 -0.3991
  928MOL0     H28027   4.790   3.285   6.382  0.2217  0.1180 -1.5511
  928MOL0     H28028   4.459   2.996   6.302  0.8516  0.1620  1.8381
  928MOL0     H28029   4.488   3.088   6.158 -1.9979  0.3059  1.2352
  928MOL0     H28030   4.719   3.007   6.136  0.7810 -0.3179  0.0649
  928MOL0     H28031   4.699   2.903   6.272 -0.7736 -0.4960  0.2100
  928MOL0     H28032   4.516   2.777   6.179 -1.2319  0.3917 -1.3962
  928MOL0     H28033   4.659   2.760   6.098 -0.3481 -0.9597  1.2766
  928MOL0     H28034   4.555   2.949   5.918 -0.5715  1.4753  0.1034
  928MOL0     H28035   4.418   2.954   6.016  0.3822  1.3454 -0.9166
  928MOL0     H28036   4.377   2.715   5.959 -1.1189  0.5325 -0.3292
  928MOL0     H28037   4.414   2.792   5.811  2.2032  1.7071 -0.3105
  928MOL0     H28038   4.519   2.576   5.823 -0.6493 -0.2827  0.9634
  928MOL0     H28039   4.622   2.617   5.959 -2.1134 -0.0592  0.9902
  928MOL0     H28040   4.731   2.787   5.818  2.3323  1.2043 -1.9002
  928MOL0     H28041   4.631   2.755   5.685  2.2519 -1.1102 -0.7236
  928MOL0     H28042   4.720   2.528   5.654  1.8868 -0.2040 -1.5645
  928MOL0     H28043   4.797   2.544   5.811  3.5102 -0.4642 -0.7389
  928MOL0     H28044   4.571   2.955   6.479 -0.8426 -0.3978  2.8056
  928MOL0     H28045   4.735   2.908   6.695  0.4402  0.1877  1.4259
  928MOL0     H28046   5.166   3.049   6.811 -3.3523  2.2728  0.4637
  928MOL0     H28047   5.349   2.969   6.931 -0.7042 -1.1593 -0.2646
  928MOL0     H28048   6.803   2.524   7.361 -0.6691  1.4718  1.6280
  928MOL0     H28049   6.825   2.309   7.460  1.2532  2.1502  0.4502
  928MOL0     H28050   6.864   2.215   7.989  0.2525  0.5690  1.0367
  928MOL0     H28051   6.925   2.047   8.128  2.6028  1.1752 -2.3989
  928MOL0     H28052   6.722   1.645   8.130 -0.5801  0.8806 -2.9106
  928MOL0     H28053   6.829   1.618   7.984 -0.1719 -1.4111  0.5982
  928MOL0     H28054   6.877   1.472   8.170 -2.5348  0.9564 -1.2160
  928MOL0     H28055   6.901   1.596   8.279  0.3173 -1.2328  0.5340
  928MOL0     H28056   7.068   1.547   8.026  1.3266 -1.6140 -0.2951
  928MOL0     H28057   7.114   1.674   8.143 -1.1653  1.0716 -1.3860
  928MOL0     H28058   7.249   1.486   8.207  0.3442  0.2496 -0.0663
  928MOL0     H28059   7.117   1.372   8.149 -0.7087 -1.1518  1.5905
  928MOL0     H28060   6.990   1.374   8.534 -2.0359  0.1420 -1.0389
  928MOL0     H28061   6.690   1.763   7.891 -2.1227  0.9853 -1.0707
  928MOL0     H28062   6.549   1.983   7.670 -1.3777 -1.2641 -1.1480
  928MOL0     H28063   6.679   1.858   7.636  1.3141  2.3707  0.2472
  928MOL0     H28064   6.538   1.835   7.748 -1.3962 -0.9947 -1.8719
  929MOL0     O28065   5.048   4.011   8.997 -0.2328  0.1340  0.1731
  929MOL0     C28066   5.080   4.038   8.881  0.5544 -0.0425  0.8753
  929MOL0     O28067   5.197   4.018   8.822 -0.0377  0.6768 -0.8845
  929MOL0     C28068   5.313   3.993   8.889 -0.5564  0.3770 -0.0856
  929MOL0     C28069   5.426   4.067   8.859 -0.4524 -0.5972 -0.0221
  929MOL0     C28070   5.542   4.050   8.931 -0.8407 -0.0524 -0.8208
  929MOL0     C28071   5.563   3.945   9.022 -0.4891  0.3463  0.5274
  929MOL0     O28072   5.673   3.905   9.087  0.7525  0.9729  0.7433
  929MOL0     C28073   5.769   4.004   9.099  0.1827 -0.1719 -0.2966
  929MOL0     C28074   5.876   3.992   8.986 -0.3470 -1.0448 -1.0445
  929MOL0     C28075   6.013   4.051   9.031 -0.7065 -0.0390  0.2114
  929MOL0     C28076   6.005   4.192   9.073  0.1838  0.1593  1.0253
  929MOL0     C28077   6.128   4.248   9.139  0.4081 -1.1994  0.1104
  929MOL0     C28078   6.125   4.399   9.168 -0.5211  0.8489 -0.3159
  929MOL0     C28079   6.256   4.465   9.204  0.5636 -0.2292  0.1787
  929MOL0     C28080   6.244   4.615   9.220  0.0842 -0.6120 -0.3848
  929MOL0     N28081   6.362   4.683   9.263 -0.3172 -0.2969 -0.4950
  929MOL0     C28082   6.415   4.681   9.392  0.3866  0.0878  0.3654
  929MOL0     C28083   6.544   4.728   9.384  0.5362 -0.2574  0.0841
  929MOL0     C28084   6.638   4.745   9.508  0.2876  0.2874  0.2101
  929MOL0     C28085   6.667   4.615   9.582  0.6326 -0.8785  0.8126
  929MOL0     C28086   6.787   4.627   9.681  0.9339 -0.3390 -0.9368
  929MOL0     C28087   6.925   4.658   9.629 -0.0675 -0.9933  0.0828
  929MOL0     O28088   7.014   4.647   9.731  0.5826 -0.2092 -0.0596
  929MOL0     C28089   7.127   4.719   9.721  0.2140 -0.1042  0.4557
  929MOL0     C28090   7.191   4.756   9.597 -0.1105  0.1652  0.1679
  929MOL0     C28091   7.309   4.842   9.602  0.3293  0.5975 -0.3987
  929MOL0     C28092   7.383   4.882   9.477 -1.2279 -0.4129 -0.2370
  929MOL0     C28093   7.360   4.893   9.734 -0.2262  0.3212 -0.2370
  929MOL0     C28094   7.457   5.010   9.749 -0.5681  0.9300 -0.7448
  929MOL0     O28095   7.480   5.045   9.882  0.8920 -0.1519  0.4202
  929MOL0     C28096   7.593   5.124   9.917  0.0907  1.3567 -0.0546
  929MOL0     C28097   7.632   5.237   9.851  0.0142 -0.1748 -0.0454
  929MOL0     C28098   7.734   5.312   9.893  0.3575 -0.0821 -0.8223
  929MOL0     C28099   7.816   5.273  10.001  0.6300 -0.4079  0.1258
  929MOL0     O28100   7.934   5.341  10.040  0.5335  0.2139  0.6375
  929MOL0     C28101   7.973   5.460   9.979 -0.3027  0.1540  1.1561
  929MOL0     C28102   8.101   5.510  10.053  0.4361  0.6120  0.2355
  929MOL0     C28103   8.048   5.569  10.186 -0.9576  0.7982 -0.6085
  929MOL0     C28104   8.021   5.475  10.309 -0.3228 -0.6336 -0.2198
  929MOL0     C28105   8.134   5.382  10.351  0.3130 -0.2834 -0.3587
  929MOL0     C28106   8.280   5.438  10.351 -0.2965  0.1446  0.4036
  929MOL0     C28107   8.387   5.329  10.373  0.4238  0.2226  0.2003
  929MOL0     C28108   8.382   5.264  10.510  0.2827 -0.1116  0.4085
  929MOL0    Cl28109   8.411   5.377  10.645  0.6035 -0.0352  0.2923
  929MOL0     C28110   7.786   5.158  10.065 -0.1523  1.0660  0.1866
  929MOL0     C28111   7.676   5.083  10.023  0.2295 -0.2017  0.2710
  929MOL0     O28112   7.527   5.048   9.649 -0.3164  0.8041  0.5264
  929MOL0     C28113   7.297   4.842   9.847  0.7338  0.8433 -0.7246
  929MOL0     C28114   7.192   4.751   9.846  0.0531 -0.7529  0.5984
  929MOL0     N28115   6.569   4.756   9.256  0.2399 -0.3604 -0.2269
  929MOL0     N28116   6.464   4.724   9.181 -0.0493  0.4264 -0.1930
  929MOL0     C28117   5.450   3.873   9.061  0.4466 -0.2678 -0.6281
  929MOL0     C28118   5.327   3.900   9.002 -0.6538  0.4995 -1.0889
  929MOL0     C28119   4.969   4.095   8.806  0.1587 -0.7391 -0.4828
  929MOL0     C28120   4.864   4.154   8.882 -0.2249  0.2355  0.5209
  929MOL0     C28121   4.748   4.206   8.814  0.0383  1.4545  0.2218
  929MOL0     C28122   4.740   4.207   8.670 -0.0502 -0.0213  0.6180
  929MOL0     O28123   4.627   4.215   8.590  0.2149 -0.2617  0.0331
  929MOL0     C28124   4.521   4.292   8.646  0.3363  0.5004 -0.0601
  929MOL0     C28125   4.415   4.303   8.535 -1.0132  0.0683  1.3154
  929MOL0     C28126   4.337   4.178   8.505 -0.2345  0.4994 -0.8518
  929MOL0     C28127   4.256   4.195   8.379  0.1163 -0.3216 -0.1204
  929MOL0     C28128   4.206   4.065   8.331 -0.3000  0.2078 -1.2566
  929MOL0     C28129   4.160   3.953   8.289  1.0411  0.4152 -0.2365
  929MOL0     C28130   4.854   4.156   8.596  0.2239 -0.6253 -0.2208
  929MOL0     C28131   4.958   4.095   8.664 -0.0322 -0.4070  0.0136
  929MOL0     C28132   5.050   4.022   8.568 -0.6713 -0.4377  0.3583
  929MOL0     H28133   5.418   4.152   8.791 -0.4424  1.8573  2.8543
  929MOL0     H28134   5.625   4.120   8.918 -3.0734  2.9879  0.1536
  929MOL0     H28135   5.824   3.982   9.191  1.4859 -1.7427 -1.3793
  929MOL0     H28136   5.728   4.104   9.114  0.6514 -0.3168  2.4836
  929MOL0     H28137   5.888   3.886   8.964  2.0080 -1.4484  1.6304
  929MOL0     H28138   5.850   4.044   8.893 -0.3667  1.6961  0.3917
  929MOL0     H28139   6.057   3.996   9.115 -1.1434  2.0726  1.9247
  929MOL0     H28140   6.082   4.040   8.947 -0.0885 -3.0870  1.0177
  929MOL0     H28141   5.980   4.245   8.980  0.1186 -0.5993  0.6065
  929MOL0     H28142   5.930   4.216   9.149 -1.5506 -0.1867 -0.5025
  929MOL0     H28143   6.204   4.224   9.064 -1.4099  1.1868 -2.7065
  929MOL0     H28144   6.137   4.191   9.232 -2.2270 -2.3841 -0.2623
  929MOL0     H28145   6.096   4.437   9.070 -0.6206  1.3280 -0.1020
  929MOL0     H28146   6.060   4.430   9.250  1.8096 -0.2591  2.1080
  929MOL0     H28147   6.321   4.444   9.119  3.1264  0.2258  1.9267
  929MOL0     H28148   6.304   4.421   9.291  1.2603 -0.4972 -0.3305
  929MOL0     H28149   6.216   4.653   9.122  1.4867  2.5519  0.3280
  929MOL0     H28150   6.168   4.629   9.297 -1.1237  0.8428 -1.7784
  929MOL0     H28151   6.353   4.647   9.475 -2.9852  1.6540 -1.3156
  929MOL0     H28152   6.586   4.809   9.580 -0.1467  1.7489 -1.3271
  929MOL0     H28153   6.730   4.795   9.475  0.1406  0.3107 -0.1709
  929MOL0     H28154   6.579   4.566   9.623 -1.4038  1.1467 -0.8785
  929MOL0     H28155   6.697   4.543   9.505 -2.1736 -1.6789  0.3793
  929MOL0     H28156   6.753   4.691   9.763  1.1298  1.0333 -1.8945
  929MOL0     H28157   6.792   4.528   9.729  0.5831 -0.5921 -1.4150
  929MOL0     H28158   6.942   4.585   9.549 -1.5689 -1.8227  0.4674
  929MOL0     H28159   6.929   4.762   9.598  0.5373 -0.1209  2.7972
  929MOL0     H28160   7.147   4.723   9.504  1.4008 -1.2229 -0.0997
  929MOL0     H28161   7.364   4.989   9.462  0.3263  0.3002  2.1933
  929MOL0     H28162   7.343   4.835   9.387  0.1637 -0.5499 -0.8045
  929MOL0     H28163   7.490   4.865   9.495 -1.3281 -0.4326  0.3773
  929MOL0     H28164   7.569   5.283   9.776  2.3059  1.2105 -1.2399
  929MOL0     H28165   7.744   5.412   9.853 -2.2742  1.7481  2.6319
  929MOL0     H28166   7.991   5.437   9.874  1.8334  2.5260  0.9028
  929MOL0     H28167   7.884   5.522   9.991  0.1713  1.1842 -0.3022
  929MOL0     H28168   8.166   5.424  10.073 -2.3077 -1.6353  0.0514
  929MOL0     H28169   8.158   5.581   9.993  2.5044 -0.8286  0.3866
  929MOL0     H28170   7.957   5.626  10.165 -1.6179 -0.3740 -1.0056
  929MOL0     H28171   8.118   5.649  10.212  0.7050  1.2834 -5.6216
  929MOL0     H28172   7.930   5.418  10.288 -2.0889  1.4985  1.1148
  929MOL0     H28173   7.999   5.539  10.395  1.1405 -1.6323  0.9452
  929MOL0     H28174   8.106   5.352  10.453 -2.8608  0.9026 -0.7685
  929MOL0     H28175   8.132   5.289  10.293  1.7077 -0.4236 -0.2246
  929MOL0     H28176   8.291   5.509  10.434  0.8986  1.1931 -0.6178
  929MOL0     H28177   8.297   5.501  10.263 -1.9872  3.8111  2.4274
  929MOL0     H28178   8.485   5.369  10.346 -1.3598  2.9867 -3.1050
  929MOL0     H28179   8.375   5.248  10.300 -0.3448 -1.5266  2.1681
  929MOL0     H28180   8.458   5.187  10.520  4.6785  3.7916  0.4987
  929MOL0     H28181   8.278   5.240  10.535 -0.3649  2.4348  0.4284
  929MOL0     H28182   7.847   5.120  10.147  2.9542 -0.7655 -2.6872
  929MOL0     H28183   7.649   4.990  10.073  0.3337  0.4606  1.5868
  929MOL0     H28184   7.318   4.896   9.939  1.2867  2.0028 -1.5085
  929MOL0     H28185   7.162   4.725   9.947  1.2914 -0.2203  1.1230
  929MOL0     H28186   5.466   3.819   9.154  2.9696  2.1513  0.4584
  929MOL0     H28187   5.240   3.846   9.037 -0.1536 -0.9456 -1.9885
  929MOL0     H28188   4.861   4.153   8.990 -1.9157 -2.4489  0.5552
  929MOL0     H28189   4.660   4.234   8.871  1.5937  1.0655  2.9876
  929MOL0     H28190   4.477   4.247   8.735  1.6835 -1.9910 -0.5688
  929MOL0     H28191   4.556   4.393   8.669 -1.2115  0.8618  0.8454
  929MOL0     H28192   4.471   4.334   8.447  0.4678 -0.1152  2.1606
  929MOL0     H28193   4.352   4.390   8.554 -1.5631 -0.3003  1.2179
  929MOL0     H28194   4.423   4.110   8.506 -0.1248  0.4809  2.9610
  929MOL0     H28195   4.279   4.151   8.593 -2.4620  2.8690 -1.4675
  929MOL0     H28196   4.314   4.234   8.295  1.9050 -0.1845  1.1259
  929MOL0     H28197   4.159   4.240   8.403 -1.0740 -4.0552  3.2300
  929MOL0     H28198   4.121   3.859   8.258  0.2773  0.2746  1.1205
  929MOL0     H28199   4.845   4.161   8.488 -0.5763 -1.0705 -0.1805
  929MOL0     H28200   5.155   4.023   8.600 -1.0121  1.1432  1.5138
  929MOL0     H28201   5.025   3.916   8.557  0.6085 -0.7911  0.7031
  929MOL0     H28202   5.041   4.062   8.466 -2.4589 -4.4766 -1.2996
  930MOL0     O28203  10.352   0.700   8.662 -0.2292  0.3267 -0.3918
  930MOL0     C28204  10.350   0.733   8.786 -0.1285 -0.1266  0.1749
  930MOL0     O28205  10.282   0.838   8.845  0.2214  0.5255  0.5263
  930MOL0     C28206  10.262   0.948   8.762  0.4739 -0.7826 -0.5233
  930MOL0     C28207  10.362   0.997   8.676 -0.7031  0.2382  0.3074
  930MOL0     C28208  10.344   1.121   8.606  0.0156  0.1797 -0.1413
  930MOL0     C28209  10.216   1.189   8.604  0.0916  0.1155 -0.4227
  930MOL0     O28210  10.204   1.311   8.539 -0.2432 -0.3179  0.6007
  930MOL0     C28211  10.084   1.341   8.464 -0.4761 -0.9183  0.2029
  930MOL0     C28212  10.100   1.462   8.375  0.1364  0.1673  1.0594
  930MOL0     C28213  10.101   1.587   8.455  0.8209 -0.3163 -0.6505
  930MOL0     C28214  10.134   1.707   8.371  0.3495 -0.3054 -0.5197
  930MOL0     C28215  10.142   1.832   8.460  0.4086 -0.2102 -0.1314
  930MOL0     C28216  10.279   1.864   8.512  0.4388  0.2907 -0.3875
  930MOL0     C28217  10.286   1.927   8.650 -0.0816  0.1307 -0.2416
  930MOL0     C28218  10.210   2.068   8.644  1.0147  0.7229 -0.3591
  930MOL0     N28219  10.229   2.159   8.533 -0.6480  0.2019 -0.1857
  930MOL0     C28220  10.362   2.195   8.486 -0.0820  0.5466  1.3161
  930MOL0     C28221  10.340   2.228   8.360  0.3697 -0.7779 -0.1081
  930MOL0     C28222  10.453   2.257   8.264  0.1437  0.8870  0.2776
  930MOL0     C28223  10.519   2.131   8.204 -0.2208 -0.2336 -0.0420
  930MOL0     C28224  10.624   2.073   8.305 -0.6521 -0.0939 -0.0870
  930MOL0     C28225  10.755   2.150   8.309  0.3762  0.4192  0.2058
  930MOL0     O28226  10.819   2.119   8.187 -0.0029  0.3058 -0.2164
  930MOL0     C28227  10.954   2.145   8.179  0.7528 -0.8233  0.1330
  930MOL0     C28228  11.038   2.052   8.111 -0.0211 -0.8414 -1.0266
  930MOL0     C28229  11.180   2.077   8.093  0.4893 -0.1968 -0.4911
  930MOL0     C28230  11.255   1.964   8.033 -0.2267  0.2251 -0.4260
  930MOL0     C28231  11.243   2.184   8.163  0.0996 -0.2455  0.5434
  930MOL0     C28232  11.387   2.217   8.155 -0.2500 -0.4606 -0.0840
  930MOL0     O28233  11.445   2.184   8.045  0.1158 -0.3257  0.3958
  930MOL0     C28234  11.568   2.245   8.021 -0.8067  0.2660 -0.3584
  930MOL0     C28235  11.599   2.383   8.016 -0.5784  0.4753 -0.0396
  930MOL0     C28236  11.727   2.441   7.990 -0.7646 -0.1188 -0.4146
  930MOL0     C28237  11.838   2.350   7.974  0.3786 -0.6566  1.2001
  930MOL0     O28238  11.968   2.386   7.946 -0.2373  0.3272  0.2397
  930MOL0     C28239  12.002   2.525   7.929 -0.6080  0.1903  0.1666
  930MOL0     C28240  12.158   2.543   7.904  0.1294 -0.3629  0.8437
  930MOL0     C28241  12.242   2.486   8.010 -0.4636 -0.3796 -0.2042
  930MOL0     C28242  12.395   2.521   7.994 -0.0483  0.8767 -0.0182
  930MOL0     C28243  12.475   2.409   8.077  0.4331 -0.3670 -0.3630
  930MOL0     C28244  12.629   2.429   8.077  0.1404  0.6192 -0.4493
  930MOL0     C28245  12.670   2.552   8.162  0.9263 -0.0050 -0.6177
  930MOL0     C28246  12.805   2.602   8.121 -0.1678  0.7720 -0.4069
  930MOL0    Cl28247  12.868   2.735   8.217  0.2678 -0.0938 -0.4956
  930MOL0     C28248  11.814   2.215   7.985  0.6451  0.9750  0.1457
  930MOL0     C28249  11.682   2.163   8.005  0.3577  0.2172  0.3495
  930MOL0     O28250  11.431   2.292   8.240  0.3258  0.2639 -0.0936
  930MOL0     C28251  11.155   2.260   8.248 -0.3286 -0.5600 -0.0319
  930MOL0     C28252  11.013   2.250   8.253 -0.5537  0.4347  0.6094
  930MOL0     N28253  10.208   2.223   8.329  0.4939 -0.3484  0.3202
  930MOL0     N28254  10.145   2.192   8.432  0.5665 -0.2595  0.0328
  930MOL0     C28255  10.118   1.136   8.692  0.1702 -0.3427 -0.5496
  930MOL0     C28256  10.143   1.016   8.774 -0.2936 -0.3320 -0.3984
  930MOL0     C28257  10.433   0.653   8.880 -0.2524 -0.0996  0.0043
  930MOL0     C28258  10.366   0.604   8.988 -0.1772  0.2952  0.3310
  930MOL0     C28259  10.425   0.518   9.084  1.0422 -0.0803 -0.0454
  930MOL0     C28260  10.559   0.486   9.075 -0.3882 -0.5595 -0.0393
  930MOL0     O28261  10.619   0.399   9.157  0.2801  0.9286  0.1527
  930MOL0     C28262  10.591   0.418   9.296 -0.2199 -0.2711 -0.1986
  930MOL0     C28263  10.682   0.339   9.392 -0.0115 -0.3375 -0.8276
  930MOL0     C28264  10.806   0.425   9.408 -0.3270 -0.3492  0.0199
  930MOL0     C28265  10.903   0.368   9.511 -0.3045  0.2623  0.0853
  930MOL0     C28266  11.010   0.465   9.533 -0.7601  0.7849 -0.0570
  930MOL0     C28267  11.103   0.547   9.553 -0.0539  0.5495 -0.2786
  930MOL0     C28268  10.630   0.525   8.958 -0.8798 -0.2201 -0.3331
  930MOL0     C28269  10.571   0.617   8.860  0.1942  0.8045 -1.0517
  930MOL0     C28270  10.657   0.682   8.768  0.1925 -0.0568 -0.0319
  930MOL0     H28271  10.459   0.948   8.674 -1.9836 -2.4964  0.8807
  930MOL0     H28272  10.431   1.166   8.559 -1.0390  2.1454 -0.3531
  930MOL0     H28273   9.999   1.349   8.533  0.1405  0.9260  0.8001
  930MOL0     H28274  10.062   1.262   8.391 -2.2364  1.1149 -1.6243
  930MOL0     H28275  10.197   1.449   8.327 -0.4324 -0.7775  0.1194
  930MOL0     H28276  10.017   1.462   8.303  0.5586 -1.7504  0.5207
  930MOL0     H28277  10.005   1.598   8.506  3.2718  0.5052  4.5280
  930MOL0     H28278  10.173   1.573   8.537  0.6556  0.7153 -0.3042
  930MOL0     H28279  10.231   1.689   8.323  1.4842  1.0010  1.1922
  930MOL0     H28280  10.050   1.733   8.306 -0.0383  1.3340  0.5898
  930MOL0     H28281  10.082   1.821   8.550  0.2429 -1.2811 -0.3589
  930MOL0     H28282  10.108   1.917   8.400  0.3686  2.7897  3.7474
  930MOL0     H28283  10.333   1.769   8.519 -0.7907 -0.4060  0.2060
  930MOL0     H28284  10.329   1.933   8.444  4.1030 -1.5981  0.1823
  930MOL0     H28285  10.390   1.945   8.679 -0.0127  0.1645 -0.5048
  930MOL0     H28286  10.235   1.875   8.731 -2.3641  1.4969 -0.7058
  930MOL0     H28287  10.103   2.042   8.637  0.9762  1.1862 -1.9237
  930MOL0     H28288  10.227   2.112   8.742  2.4514 -0.8156  0.1292
  930MOL0     H28289  10.453   2.175   8.541  0.2362 -0.1416  0.5591
  930MOL0     H28290  10.527   2.324   8.307  1.5001  3.0109 -4.6996
  930MOL0     H28291  10.410   2.322   8.187  0.5100 -0.2088 -0.8901
  930MOL0     H28292  10.438   2.061   8.181  0.7603 -0.9946 -1.2661
  930MOL0     H28293  10.567   2.157   8.110 -2.7479  0.9533 -1.0961
  930MOL0     H28294  10.581   2.060   8.404  0.0891  0.3777  0.3060
  930MOL0     H28295  10.662   1.975   8.274 -3.6714 -1.1742 -0.8104
  930MOL0     H28296  10.742   2.259   8.318  0.1234  0.5356 -1.3244
  930MOL0     H28297  10.803   2.113   8.400 -1.9896 -1.1013  0.9260
  930MOL0     H28298  10.993   1.961   8.073 -2.2389 -1.3799  2.4589
  930MOL0     H28299  11.362   1.959   8.056 -0.6357 -0.0200  1.5968
  930MOL0     H28300  11.261   1.985   7.926  2.8833  0.4112 -0.2901
  930MOL0     H28301  11.218   1.863   8.049  0.3165 -0.1346 -1.3723
  930MOL0     H28302  11.511   2.446   8.028  1.0905  4.1795 -4.2867
  930MOL0     H28303  11.745   2.548   7.980 -0.3619 -0.1513 -0.0706
  930MOL0     H28304  11.953   2.578   7.847  4.7849  2.3071 -2.1085
  930MOL0     H28305  11.979   2.582   8.020 -1.2326  0.2754 -0.0370
  930MOL0     H28306  12.186   2.496   7.809 -1.7310  0.7556 -0.3320
  930MOL0     H28307  12.177   2.649   7.883  4.4482 -1.7021 -4.1331
  930MOL0     H28308  12.218   2.379   8.014 -3.3737  0.2038  0.2292
  930MOL0     H28309  12.211   2.533   8.103 -1.2007 -3.3547  1.2028
  930MOL0     H28310  12.416   2.622   8.030  0.9666  0.1517  1.5188
  930MOL0     H28311  12.424   2.529   7.889 -2.5853  0.5563 -0.8163
  930MOL0     H28312  12.427   2.407   8.175  0.8142  1.1710 -0.1319
  930MOL0     H28313  12.458   2.311   8.030  0.8661  0.3712 -2.1278
  930MOL0     H28314  12.661   2.437   7.973  0.9326  0.5192 -0.2217
  930MOL0     H28315  12.680   2.344   8.124  1.1203 -0.0596 -2.6062
  930MOL0     H28316  12.669   2.520   8.267 -0.7649 -0.6758 -0.8070
  930MOL0     H28317  12.591   2.627   8.156 -1.5329 -2.2987  0.8758
  930MOL0     H28318  12.805   2.635   8.016  0.7069  0.7337 -0.4315
  930MOL0     H28319  12.875   2.518   8.124 -1.4168 -0.3282 -1.0538
  930MOL0     H28320  11.887   2.139   7.960 -1.4711 -0.5199 -1.9562
  930MOL0     H28321  11.662   2.058   8.022  1.5566  0.0796  0.9982
  930MOL0     H28322  11.208   2.333   8.309 -0.4633  0.6189 -1.2619
  930MOL0     H28323  10.948   2.316   8.308 -0.0469  2.5213 -1.1637
  930MOL0     H28324  10.028   1.191   8.718  1.0585 -0.0874  2.3238
  930MOL0     H28325  10.084   0.979   8.857  0.7662 -2.1496 -0.4262
  930MOL0     H28326  10.262   0.634   8.996  0.2849  1.7000  1.4462
  930MOL0     H28327  10.363   0.484   9.166 -2.1871  2.6111 -1.1203
  930MOL0     H28328  10.607   0.525   9.312 -0.0514 -0.1832 -0.9076
  930MOL0     H28329  10.485   0.391   9.299  0.0511 -1.4899 -1.0326
  930MOL0     H28330  10.700   0.237   9.356 -5.6296 -1.4628 -1.2742
  930MOL0     H28331  10.637   0.330   9.491 -2.3812  0.4996 -1.7707
  930MOL0     H28332  10.854   0.432   9.311 -0.7839 -0.3133 -0.2076
  930MOL0     H28333  10.780   0.528   9.433  0.4620 -0.1886  0.2143
  930MOL0     H28334  10.935   0.270   9.475  0.0289  0.8114 -1.1785
  930MOL0     H28335  10.850   0.367   9.607  1.0518 -2.0193  0.8936
  930MOL0     H28336  11.185   0.615   9.560 -0.1798  0.6689  0.0842
  930MOL0     H28337  10.738   0.514   8.955 -0.7670 -0.0025  1.4787
  930MOL0     H28338  10.610   0.718   8.676  1.9160 -0.1290 -0.9835
  930MOL0     H28339  10.687   0.774   8.818 -1.9209  0.5233  0.2670
  930MOL0     H28340  10.743   0.617   8.747  2.5025  2.5886  0.6888
  931MOL0     O28341  11.056   8.976   4.580 -0.1844  0.0211 -0.1915
  931MOL0     C28342  11.084   9.085   4.532 -0.1915 -0.1803 -0.5345
  931MOL0     O28343  11.160   9.181   4.601 -0.6836 -0.9246 -0.1377
  931MOL0     C28344  11.200   9.167   4.726 -0.0664  0.3829 -0.8243
  931MOL0     C28345  11.327   9.199   4.762 -0.1804  0.2029 -0.0457
  931MOL0     C28346  11.375   9.178   4.896  0.8110 -0.3336 -0.8337
  931MOL0     C28347  11.287   9.131   5.001  0.5629  0.1989  0.5657
  931MOL0     O28348  11.328   9.096   5.123  0.6245 -0.9172 -0.5275
  931MOL0     C28349  11.466   9.110   5.157  0.1855 -0.2275  0.2366
  931MOL0     C28350  11.486   9.078   5.305 -0.5518 -0.0756 -0.2571
  931MOL0     C28351  11.462   8.932   5.344  0.0705  0.1328  0.4044
  931MOL0     C28352  11.484   8.892   5.490  0.9046 -0.0219 -0.3720
  931MOL0     C28353  11.400   8.970   5.599  0.6336  0.0065  0.1912
  931MOL0     C28354  11.415   8.924   5.739 -0.8311  0.6905  0.6746
  931MOL0     C28355  11.351   9.020   5.832  0.0457  0.4062 -0.6817
  931MOL0     C28356  11.203   9.016   5.822 -0.0493 -0.1020  0.1091
  931MOL0     N28357  11.137   9.031   5.955  0.2564  0.0840 -0.3912
  931MOL0     C28358  11.184   9.119   6.053 -0.2135  0.0511 -0.3785
  931MOL0     C28359  11.105   9.093   6.164  0.1796 -0.2863  0.5597
  931MOL0     C28360  11.128   9.145   6.307  0.4458 -0.3602 -0.4172
  931MOL0     C28361  11.240   9.055   6.367  0.1817 -0.4523 -0.7118
  931MOL0     C28362  11.306   9.109   6.493  0.4165 -0.0447 -0.1814
  931MOL0     C28363  11.437   9.027   6.523  0.5807  0.2325  0.7945
  931MOL0     O28364  11.403   8.913   6.609  0.0344  0.7178  0.5205
  931MOL0     C28365  11.477   8.811   6.568  0.5841 -0.0658  0.2900
  931MOL0     C28366  11.614   8.814   6.595 -0.0976  1.1524  0.0523
  931MOL0     C28367  11.689   8.697   6.552 -0.9635 -0.2909 -0.0817
  931MOL0     C28368  11.838   8.702   6.573 -0.7077 -0.6753  0.8328
  931MOL0     C28369  11.616   8.591   6.499  0.1235 -0.3914 -0.9823
  931MOL0     C28370  11.688   8.487   6.460 -0.0717  0.7989 -0.1003
  931MOL0     O28371  11.737   8.406   6.556 -0.3352 -0.6119 -0.4310
  931MOL0     C28372  11.844   8.326   6.527 -0.5788 -1.2725  0.0792
  931MOL0     C28373  11.959   8.339   6.618 -0.0722  0.0849  0.8475
  931MOL0     C28374  12.078   8.259   6.596  0.0992 -0.7104 -0.0964
  931MOL0     C28375  12.093   8.174   6.488 -0.3656 -0.4207 -0.4505
  931MOL0     O28376  12.214   8.109   6.491  0.2094 -0.1743  0.5522
  931MOL0     C28377  12.253   8.042   6.369  0.4529 -0.3768  0.0282
  931MOL0     C28378  12.403   8.010   6.364 -0.1267  0.5775  1.3459
  931MOL0     C28379  12.486   8.137   6.377 -0.3418  0.1187  0.5703
  931MOL0     C28380  12.631   8.103   6.392  0.6223 -0.3243  0.0326
  931MOL0     C28381  12.704   8.213   6.466  0.6729  0.6680 -0.1620
  931MOL0     C28382  12.846   8.184   6.479  0.3653  0.0892 -0.1529
  931MOL0     C28383  12.922   8.297   6.549  1.5573  0.0372 -0.8030
  931MOL0     C28384  12.885   8.330   6.697  0.6323 -0.0931  0.3165
  931MOL0    Cl28385  13.022   8.358   6.802 -0.2937 -0.5133  0.1379
  931MOL0     C28386  11.983   8.162   6.399  0.8341  0.3340  0.0556
  931MOL0     C28387  11.858   8.236   6.429 -0.3632 -0.2037  0.2203
  931MOL0     O28388  11.728   8.495   6.345  0.3524  0.5197 -0.7568
  931MOL0     C28389  11.473   8.596   6.463 -0.2578  0.0407  0.8001
  931MOL0     C28390  11.412   8.709   6.502  0.7035  0.5803 -0.7643
  931MOL0     N28391  11.011   8.998   6.121  0.2000  0.0950  0.6927
  931MOL0     N28392  11.025   8.971   5.998 -0.1938  0.4828  0.1206
  931MOL0     C28393  11.150   9.105   4.962  0.6711 -1.0049 -0.4651
  931MOL0     C28394  11.111   9.122   4.831 -0.5870 -1.0614  0.6138
  931MOL0     C28395  11.037   9.114   4.395 -0.9043  0.3034  0.5556
  931MOL0     C28396  10.950   9.022   4.325  0.0148 -0.2088  0.1536
  931MOL0     C28397  10.891   9.052   4.202 -0.9750  0.0090  0.5060
  931MOL0     C28398  10.928   9.176   4.137 -0.0768 -0.1491 -0.5070
  931MOL0     O28399  10.880   9.230   4.018  0.8462 -0.0980 -0.0514
  931MOL0     C28400  10.770   9.171   3.954 -0.3058 -0.2802  0.7106
  931MOL0     C28401  10.642   9.200   4.035  0.1163  0.8722  0.2753
  931MOL0     C28402  10.611   9.353   4.027 -0.5038 -0.3333 -0.4350
  931MOL0     C28403  10.460   9.391   4.048  0.4682 -0.2144 -0.7106
  931MOL0     C28404  10.369   9.322   3.963 -0.2227  0.6077  0.2163
  931MOL0     C28405  10.289   9.272   3.884  0.6000 -0.2238  0.2598
  931MOL0     C28406  11.007   9.259   4.204 -0.6903  0.1194 -0.0444
  931MOL0     C28407  11.071   9.233   4.332 -0.5333 -0.3825 -0.1182
  931MOL0     C28408  11.167   9.338   4.384 -0.3262 -0.5017 -0.1595
  931MOL0     H28409  11.396   9.247   4.692 -1.9272  1.6573 -0.8396
  931MOL0     H28410  11.482   9.196   4.897  0.7321  0.4205 -2.7494
  931MOL0     H28411  11.498   9.214   5.149  0.0415 -0.2172 -0.2628
  931MOL0     H28412  11.530   9.055   5.087 -0.2113 -2.1940  1.3634
  931MOL0     H28413  11.582   9.116   5.340 -1.6975  1.3774  1.4909
  931MOL0     H28414  11.415   9.143   5.357 -1.7881  0.0949 -2.0323
  931MOL0     H28415  11.354   8.916   5.333  0.1076  1.2428 -2.1573
  931MOL0     H28416  11.523   8.861   5.287 -0.9048 -1.8828  1.7324
  931MOL0     H28417  11.463   8.786   5.501 -1.5348  0.4747  0.4806
  931MOL0     H28418  11.587   8.925   5.502  1.4494 -0.9863 -2.0916
  931MOL0     H28419  11.294   8.949   5.584  0.0217  2.9367 -0.1869
  931MOL0     H28420  11.412   9.078   5.587 -1.3538  0.1211 -1.1655
  931MOL0     H28421  11.381   8.821   5.742  0.9931 -0.0630 -1.6906
  931MOL0     H28422  11.519   8.904   5.768 -0.6389  0.0881 -0.4131
  931MOL0     H28423  11.392   9.121   5.823  1.4635  0.0045  0.8334
  931MOL0     H28424  11.378   8.975   5.928  1.4291  1.1074 -0.7177
  931MOL0     H28425  11.165   9.094   5.755  0.3731  1.1147  1.2558
  931MOL0     H28426  11.180   8.914   5.790  4.7253 -0.4853 -3.2305
  931MOL0     H28427  11.262   9.194   6.049  0.2599 -0.2423  1.8964
  931MOL0     H28428  11.039   9.135   6.370  2.6245 -0.3790  2.8686
  931MOL0     H28429  11.156   9.251   6.312 -0.8438 -0.0208 -0.0261
  931MOL0     H28430  11.204   8.954   6.389  2.6594 -1.4575 -0.9513
  931MOL0     H28431  11.320   9.043   6.293 -2.2193 -2.0984 -3.2501
  931MOL0     H28432  11.341   9.210   6.473 -0.7900  0.2468 -0.9586
  931MOL0     H28433  11.239   9.118   6.579  0.0060 -0.2541 -0.4753
  931MOL0     H28434  11.479   8.995   6.427 -1.1346  0.6998 -0.1656
  931MOL0     H28435  11.512   9.087   6.576  1.3094  0.8750 -0.8905
  931MOL0     H28436  11.659   8.899   6.645 -2.2565  1.1805  2.0650
  931MOL0     H28437  11.859   8.665   6.674 -0.0005 -1.3266  0.4583
  931MOL0     H28438  11.886   8.798   6.551 -0.7180 -0.9540 -0.4680
  931MOL0     H28439  11.899   8.640   6.507  1.0071  2.6200 -0.9382
  931MOL0     H28440  11.953   8.410   6.700  3.9765  1.8844 -0.1772
  931MOL0     H28441  12.165   8.270   6.661 -0.3970 -1.3030  0.6916
  931MOL0     H28442  12.200   7.946   6.363  2.0197 -1.2183 -1.2443
  931MOL0     H28443  12.235   8.114   6.289  0.0261  0.4862  0.8964
  931MOL0     H28444  12.403   7.935   6.443 -0.3835  0.6791  1.4401
  931MOL0     H28445  12.417   7.952   6.272  2.4992  2.5527  0.3675
  931MOL0     H28446  12.454   8.185   6.470  0.4351  0.6935  0.5451
  931MOL0     H28447  12.459   8.198   6.291 -2.3719  1.0429  1.7889
  931MOL0     H28448  12.670   8.103   6.289 -1.2645 -0.8779 -0.7225
  931MOL0     H28449  12.647   8.005   6.438  1.8516 -0.6560 -1.0213
  931MOL0     H28450  12.700   8.308   6.412  0.2083  0.5080 -0.4120
  931MOL0     H28451  12.663   8.227   6.567 -1.3213  0.4612 -0.9049
  931MOL0     H28452  12.882   8.167   6.377  1.0649 -0.8466  0.2285
  931MOL0     H28453  12.850   8.088   6.533 -3.6659 -3.0572 -4.6296
  931MOL0     H28454  12.910   8.391   6.494  2.2573  0.5882 -0.0436
  931MOL0     H28455  13.029   8.271   6.550  1.4671 -0.3520 -1.0546
  931MOL0     H28456  12.837   8.239   6.735 -1.9708  1.8414  1.9674
  931MOL0     H28457  12.820   8.417   6.703  0.7040 -0.0370  0.2853
  931MOL0     H28458  11.993   8.099   6.311  6.1024  2.2161 -1.0418
  931MOL0     H28459  11.771   8.209   6.369 -0.7385  1.5096 -0.0482
  931MOL0     H28460  11.422   8.514   6.414  0.5282 -0.6111  1.0621
  931MOL0     H28461  11.305   8.721   6.512  1.2592  5.5735  3.2837
  931MOL0     H28462  11.083   9.055   5.031 -2.5210  4.3183  0.8489
  931MOL0     H28463  11.021   9.068   4.807  0.9564 -2.9466 -1.3561
  931MOL0     H28464  10.924   8.929   4.374  3.6681 -2.0534 -1.0900
  931MOL0     H28465  10.815   8.985   4.164  1.0209 -1.4717 -1.0651
  931MOL0     H28466  10.758   9.214   3.854 -2.7068 -1.4597  0.4353
  931MOL0     H28467  10.785   9.065   3.934 -1.8511 -0.0653 -2.0594
  931MOL0     H28468  10.665   9.173   4.138  1.4478 -1.2544 -0.5026
  931MOL0     H28469  10.556   9.138   4.008  1.0681 -1.3682  2.0374
  931MOL0     H28470  10.666   9.397   4.111  1.3999 -2.2413 -0.5991
  931MOL0     H28471  10.655   9.381   3.931  0.8767  3.1005  1.0320
  931MOL0     H28472  10.428   9.494   4.033 -2.8816 -1.1011 -0.4122
  931MOL0     H28473  10.430   9.373   4.152 -0.2071 -0.8273 -1.0018
  931MOL0     H28474  10.228   9.229   3.807  0.7824 -0.2846  0.1489
  931MOL0     H28475  11.033   9.356   4.163 -1.4324  0.7924  1.0362
  931MOL0     H28476  11.264   9.296   4.414  0.8103  2.5895  0.9429
  931MOL0     H28477  11.194   9.417   4.314 -1.9222 -0.0461 -0.3026
  931MOL0     H28478  11.132   9.390   4.474  1.7611 -1.5354  1.3322
  932MOL0     O28479   2.845   8.033  11.140 -0.6696 -0.7706  0.0002
  932MOL0     C28480   2.775   8.131  11.157  0.4195 -0.2715 -0.0400
  932MOL0     O28481   2.741   8.187  11.281  0.6212 -0.1135  0.0360
  932MOL0     C28482   2.787   8.134  11.397 -0.2916 -0.6535 -0.8939
  932MOL0     C28483   2.839   8.221  11.500 -0.4409  0.2428  0.1651
  932MOL0     C28484   2.866   8.170  11.632 -0.1777 -0.9554 -0.4827
  932MOL0     C28485   2.845   8.041  11.667 -0.8716 -0.1925  0.0658
  932MOL0     O28486   2.845   8.001  11.795 -0.8256  0.2718 -0.7342
  932MOL0     C28487   2.842   7.868  11.833  0.4545 -0.1937  0.0467
  932MOL0     C28488   2.697   7.825  11.857 -0.0862  0.6796 -0.4924
  932MOL0     C28489   2.665   7.857  12.011  0.3110 -0.0417 -0.0797
  932MOL0     C28490   2.524   7.798  12.055 -1.2239 -0.2476  0.9794
  932MOL0     C28491   2.404   7.856  11.987 -0.5172 -0.7058  0.3069
  932MOL0     C28492   2.393   7.997  12.033 -0.5904 -0.5418  0.2398
  932MOL0     C28493   2.248   8.049  12.001 -0.0570  0.2941 -0.5956
  932MOL0     C28494   2.140   8.006  12.101  0.3827  0.2070  0.5833
  932MOL0     N28495   2.019   8.092  12.111 -0.3078 -0.3006  0.3067
  932MOL0     C28496   2.000   8.215  12.037 -0.3762 -0.2715 -0.1274
  932MOL0     C28497   1.871   8.255  12.058 -0.5709  0.0556  0.0828
  932MOL0     C28498   1.812   8.361  11.975 -1.4322 -0.3285 -0.4778
  932MOL0     C28499   1.700   8.434  12.054 -0.2126  0.4955  0.0062
  932MOL0     C28500   1.657   8.564  11.985 -0.1737  0.3960 -0.0347
  932MOL0     C28501   1.568   8.533  11.862 -0.1838 -0.5535  0.4353
  932MOL0     O28502   1.517   8.652  11.805  0.8255  0.5610 -0.2644
  932MOL0     C28503   1.416   8.647  11.716  0.4874 -1.2469 -0.2887
  932MOL0     C28504   1.407   8.540  11.628  0.0570 -0.8499 -0.0031
  932MOL0     C28505   1.304   8.537  11.538 -0.5658  0.0025  0.0316
  932MOL0     C28506   1.299   8.419  11.446  0.2729 -0.5316  0.3551
  932MOL0     C28507   1.214   8.645  11.529 -0.0144 -0.1271 -0.0420
  932MOL0     C28508   1.120   8.633  11.417 -0.8023 -0.4446 -0.2026
  932MOL0     O28509   1.158   8.706  11.314  1.1274 -0.1988  0.2327
  932MOL0     C28510   1.085   8.701  11.198  0.1715  0.9096  0.7146
  932MOL0     C28511   1.033   8.825  11.141 -0.2948 -0.2089 -0.7109
  932MOL0     C28512   0.962   8.823  11.023 -0.0862 -0.4407 -0.3124
  932MOL0     C28513   0.945   8.699  10.947  0.7445  0.1731 -0.8087
  932MOL0     O28514   0.876   8.704  10.827 -0.5667  0.1700  0.1507
  932MOL0     C28515   0.751   8.767  10.825  0.5700 -0.2279  0.5411
  932MOL0     C28516   0.685   8.758  10.691 -0.1582  0.1331 -0.2003
  932MOL0     C28517   0.754   8.845  10.588  0.0889  0.4037 -0.3964
  932MOL0     C28518   0.697   8.783  10.455 -0.3099  0.2457 -0.3307
  932MOL0     C28519   0.724   8.885  10.338  0.7658 -0.8976 -0.6742
  932MOL0     C28520   0.867   8.859  10.287 -0.2822 -0.1092 -0.4465
  932MOL0     C28521   0.920   8.951  10.184  0.4909 -0.4219  0.2403
  932MOL0     C28522   1.054   8.910  10.128  1.3709  0.2514  0.2371
  932MOL0    Cl28523   1.128   9.045  10.034  0.0140 -0.0528  0.3817
  932MOL0     C28524   0.993   8.581  11.004  0.8061 -0.2557  0.2309
  932MOL0     C28525   1.062   8.582  11.123  0.1498 -0.0414  0.0398
  932MOL0     O28526   1.018   8.563  11.431  1.6162 -0.5716  0.1877
  932MOL0     C28527   1.233   8.768  11.607  0.4846  0.0781 -0.6971
  932MOL0     C28528   1.331   8.759  11.705 -0.4520 -0.7667 -0.0879
  932MOL0     N28529   1.813   8.160  12.145  0.5761  1.0657 -0.0928
  932MOL0     N28530   1.898   8.067  12.174 -0.2888 -0.4119  0.4501
  932MOL0     C28531   2.798   7.954  11.567  0.2961 -0.8582 -0.7223
  932MOL0     C28532   2.764   7.997  11.438 -0.8414 -0.1527 -0.3305
  932MOL0     C28533   2.696   8.183  11.043 -0.4968  0.4177 -0.4105
  932MOL0     C28534   2.573   8.253  11.061  0.4687  0.0253 -0.0470
  932MOL0     C28535   2.502   8.301  10.952 -0.2192 -0.1117  0.3642
  932MOL0     C28536   2.542   8.277  10.822  0.0862 -1.4815  0.0713
  932MOL0     O28537   2.486   8.347  10.718  0.1366 -0.1667  0.2478
  932MOL0     C28538   2.552   8.335  10.590 -0.1939 -0.2491 -0.0705
  932MOL0     C28539   2.499   8.437  10.486  0.5280 -0.2098 -0.4643
  932MOL0     C28540   2.346   8.429  10.457 -0.1174  0.3514  0.3640
  932MOL0     C28541   2.322   8.481  10.313 -0.2248  0.3484 -0.4584
  932MOL0     C28542   2.373   8.626  10.301  0.5265 -0.4018  0.5637
  932MOL0     C28543   2.404   8.748  10.288 -0.0687 -1.2578 -0.0765
  932MOL0     C28544   2.653   8.192  10.804 -1.1725  0.0636 -0.7889
  932MOL0     C28545   2.740   8.160  10.912  0.1870  0.3805  0.2120
  932MOL0     C28546   2.878   8.111  10.879 -0.5938  0.1727  0.1314
  932MOL0     H28547   2.855   8.325  11.473  0.0801 -0.1347 -1.0795
  932MOL0     H28548   2.892   8.245  11.706 -2.7735 -1.3003  0.8976
  932MOL0     H28549   2.903   7.844  11.920  0.9271  0.0396 -0.2164
  932MOL0     H28550   2.869   7.796  11.755  1.7949  0.0513  0.2570
  932MOL0     H28551   2.632   7.873  11.783 -3.0310 -1.5018  0.4867
  932MOL0     H28552   2.691   7.716  11.861  3.2818  0.3887 -0.2641
  932MOL0     H28553   2.738   7.808  12.076  0.5652  2.5476  1.7204
  932MOL0     H28554   2.673   7.966  12.017  3.6313 -0.2097  0.5347
  932MOL0     H28555   2.536   7.692  12.036  0.0331 -0.1843  1.3741
  932MOL0     H28556   2.506   7.807  12.163  2.3118  4.1976  1.5285
  932MOL0     H28557   2.316   7.799  12.019 -1.2899  1.3240  2.0018
  932MOL0     H28558   2.409   7.840  11.879 -2.4005 -0.7025  0.1810
  932MOL0     H28559   2.402   8.005  12.141 -0.5189  0.1836  0.1899
  932MOL0     H28560   2.475   8.053  11.986 -0.8851  0.6893  1.1220
  932MOL0     H28561   2.222   8.030  11.897 -0.7014  1.1840 -0.6097
  932MOL0     H28562   2.266   8.157  12.003 -2.4649  0.7528 -0.8872
  932MOL0     H28563   2.112   7.902  12.079  0.8282  0.1977  0.0588
  932MOL0     H28564   2.181   8.018  12.201  0.2852  1.3925  0.4912
  932MOL0     H28565   2.063   8.275  11.972  1.4456 -2.3932 -0.4535
  932MOL0     H28566   1.766   8.315  11.888 -0.6084 -0.9685 -0.5888
  932MOL0     H28567   1.886   8.435  11.942 -1.2247 -0.5039 -0.4126
  932MOL0     H28568   1.617   8.365  12.072 -2.8565  3.4119 -0.2170
  932MOL0     H28569   1.746   8.458  12.151  3.8472 -0.9759 -1.3763
  932MOL0     H28570   1.607   8.619  12.066  0.8791 -1.3907  1.9226
  932MOL0     H28571   1.752   8.615  11.965 -0.4420  1.7650  1.8933
  932MOL0     H28572   1.622   8.475  11.787  1.5294  2.5253 -0.9304
  932MOL0     H28573   1.484   8.472  11.897  0.0717  0.2326  2.6099
  932MOL0     H28574   1.470   8.452  11.634  0.9459 -0.1701  0.8654
  932MOL0     H28575   1.369   8.337  11.462  0.2735 -1.2795 -2.7073
  932MOL0     H28576   1.318   8.437  11.339 -1.8245 -1.0836 -0.1602
  932MOL0     H28577   1.199   8.376  11.456 -0.4605  0.8174 -0.7732
  932MOL0     H28578   1.043   8.917  11.198 -1.8970  1.4911 -2.9540
  932MOL0     H28579   0.924   8.916  10.980 -1.4646 -0.8992 -0.1279
  932MOL0     H28580   0.694   8.717  10.904 -0.7244  0.3917  0.0175
  932MOL0     H28581   0.763   8.874  10.842  0.2003 -0.2824  1.1987
  932MOL0     H28582   0.692   8.650  10.673  0.9323  0.4310 -1.7304
  932MOL0     H28583   0.581   8.792  10.702 -0.1304  0.2024 -0.1512
  932MOL0     H28584   0.863   8.853  10.589  0.0073  2.6775  2.2748
  932MOL0     H28585   0.712   8.946  10.596 -1.7207 -0.4828  3.6812
  932MOL0     H28586   0.591   8.753  10.458 -0.0081 -0.7860  2.2655
  932MOL0     H28587   0.749   8.689  10.436 -1.6268 -0.8199  1.0720
  932MOL0     H28588   0.655   8.857  10.258  0.6984  0.7247 -1.2162
  932MOL0     H28589   0.702   8.987  10.370 -1.7640 -0.7934 -2.5179
  932MOL0     H28590   0.891   8.758  10.252 -0.3752 -0.0758 -0.6112
  932MOL0     H28591   0.929   8.869  10.376  0.7981 -4.3086 -0.5117
  932MOL0     H28592   0.921   9.057  10.211  2.4823  0.0833 -1.5290
  932MOL0     H28593   0.848   8.944  10.102  2.3013  0.5726 -1.5245
  932MOL0     H28594   1.036   8.839  10.047 -1.5225  1.5521 -0.4133
  932MOL0     H28595   1.125   8.868  10.200 -0.7904 -0.6166  2.0032
  932MOL0     H28596   0.981   8.489  10.948 -1.3362  0.6407 -0.9330
  932MOL0     H28597   1.108   8.492  11.163 -1.0755 -1.0785 -0.7955
  932MOL0     H28598   1.165   8.851  11.596 -2.0999 -1.2515  3.0311
  932MOL0     H28599   1.351   8.852  11.757  1.0421 -0.5967 -0.9164
  932MOL0     H28600   2.787   7.849  11.593  2.5959 -1.3265 -1.4254
  932MOL0     H28601   2.728   7.932  11.359  1.0754  0.2283 -1.5971
  932MOL0     H28602   2.543   8.277  11.163  0.3922 -1.6202  0.3350
  932MOL0     H28603   2.418   8.369  10.964  0.5607  0.9270  0.1016
  932MOL0     H28604   2.659   8.359  10.597  0.0840 -1.8768  2.2201
  932MOL0     H28605   2.552   8.235  10.547 -0.2835  0.2288 -1.2210
  932MOL0     H28606   2.547   8.421  10.390  2.1917 -0.0480  0.3159
  932MOL0     H28607   2.526   8.537  10.521 -0.0579  1.0102 -3.2872
  932MOL0     H28608   2.319   8.323  10.456 -0.6683  0.4946  0.1206
  932MOL0     H28609   2.285   8.496  10.518  0.0314 -0.2415  1.1852
  932MOL0     H28610   2.213   8.471  10.305 -0.1928 -0.0898 -0.3380
  932MOL0     H28611   2.368   8.420  10.235 -3.9583 -1.2330 -1.6422
  932MOL0     H28612   2.421   8.854  10.282  0.1811 -1.0937  2.4863
  932MOL0     H28613   2.688   8.170  10.704 -0.1078  4.9058 -1.7032
  932MOL0     H28614   2.948   8.166  10.942 -0.2526 -0.5901  0.4362
  932MOL0     H28615   2.888   8.003  10.896  0.9454  0.2144 -0.3877
  932MOL0     H28616   2.907   8.125  10.774 -0.1213 -3.0341 -0.2751
  933MOL0     O28617   0.809   4.076   5.986  0.3687  0.2645 -0.0371
  933MOL0     C28618   0.790   4.098   5.866  0.3099  0.0653 -0.3842
  933MOL0     O28619   0.875   4.085   5.760 -0.0423 -0.2928 -0.5346
  933MOL0     C28620   1.011   4.059   5.779  0.1925 -0.2521  0.3180
  933MOL0     C28621   1.071   3.974   5.682  0.4860 -0.5952 -0.2826
  933MOL0     C28622   1.211   3.951   5.691  0.3768 -0.3770  0.3663
  933MOL0     C28623   1.288   4.018   5.780 -0.0097  0.5093 -0.4864
  933MOL0     O28624   1.422   3.985   5.779 -0.8117 -0.9614  0.3013
  933MOL0     C28625   1.508   4.013   5.892 -0.0607  0.0171 -0.1380
  933MOL0     C28626   1.648   3.975   5.845  0.1942  0.7948 -0.2379
  933MOL0     C28627   1.752   4.050   5.936  0.4046 -0.1945 -0.5082
  933MOL0     C28628   1.887   4.065   5.866  0.8145  0.2891  0.1337
  933MOL0     C28629   1.971   4.177   5.931 -0.4758 -0.2645 -0.4590
  933MOL0     C28630   2.116   4.171   5.888 -0.1168 -0.6326  0.9001
  933MOL0     C28631   2.169   4.306   5.930  0.4261 -0.0529  0.2407
  933MOL0     C28632   2.316   4.317   5.898 -0.4327 -0.5157  0.1416
  933MOL0     N28633   2.374   4.439   5.960 -0.3943 -0.0609 -0.1164
  933MOL0     C28634   2.449   4.534   5.889  0.2049  0.1935 -0.3867
  933MOL0     C28635   2.523   4.601   5.980  0.1443  0.1892  0.1246
  933MOL0     C28636   2.625   4.711   5.968 -0.2225  0.9432  0.6607
  933MOL0     C28637   2.757   4.671   6.029  0.8003 -0.5050 -0.0498
  933MOL0     C28638   2.829   4.786   6.097  0.4570  0.1176  0.1798
  933MOL0     C28639   2.961   4.732   6.148 -0.1888 -0.1251 -0.2689
  933MOL0     O28640   3.025   4.846   6.224  0.3383 -0.4614 -0.1424
  933MOL0     C28641   3.162   4.851   6.241  0.4764  0.7271 -1.3963
  933MOL0     C28642   3.246   4.741   6.210 -0.4637 -0.6275  0.0544
  933MOL0     C28643   3.387   4.757   6.239 -0.6218  0.5482 -0.3762
  933MOL0     C28644   3.470   4.628   6.221  0.3553  0.2481  0.1051
  933MOL0     C28645   3.453   4.873   6.284  0.4738 -1.4715  0.2606
  933MOL0     C28646   3.598   4.896   6.310 -0.0652 -0.2150  1.4655
  933MOL0     O28647   3.629   5.024   6.357 -0.3918  0.1740  0.4351
  933MOL0     C28648   3.764   5.037   6.377 -0.1216  0.1044 -0.6699
  933MOL0     C28649   3.811   5.024   6.508  0.3668  1.7961 -0.2999
  933MOL0     C28650   3.942   5.033   6.545 -0.1396 -1.0048 -0.6281
  933MOL0     C28651   4.037   5.067   6.447 -0.4172 -0.1484  0.1514
  933MOL0     O28652   4.168   5.087   6.472 -0.0851  0.4330  0.6635
  933MOL0     C28653   4.215   5.062   6.602  0.2982  0.4332 -0.5463
  933MOL0     C28654   4.363   5.089   6.619  0.7140 -0.4350 -0.0942
  933MOL0     C28655   4.443   5.013   6.524 -1.8558  0.2219  0.1413
  933MOL0     C28656   4.587   5.004   6.578 -0.7527  0.3611  0.6560
  933MOL0     C28657   4.673   4.921   6.477  0.5523  0.2672  0.0904
  933MOL0     C28658   4.828   4.921   6.504  0.0585  0.3211 -0.2070
  933MOL0     C28659   4.867   4.843   6.631  1.0459  0.2237  0.8169
  933MOL0     C28660   5.015   4.857   6.665 -0.2738 -0.3738 -0.2805
  933MOL0    Cl28661   5.123   4.796   6.542 -0.2184 -0.1228 -0.0863
  933MOL0     C28662   3.993   5.095   6.313  0.3612 -0.2834  0.4323
  933MOL0     C28663   3.859   5.081   6.281  1.1356  0.3716  0.9007
  933MOL0     O28664   3.678   4.807   6.280  0.1504 -0.8504 -0.2025
  933MOL0     C28665   3.358   4.975   6.315 -0.9785 -1.2039 -0.2003
  933MOL0     C28666   3.222   4.962   6.298  0.0367  0.0177  0.0124
  933MOL0     N28667   2.483   4.550   6.101 -0.1151  0.1435 -1.4548
  933MOL0     N28668   2.404   4.448   6.090  0.1675 -0.3438  0.6589
  933MOL0     C28669   1.228   4.113   5.875 -0.1146 -0.2013 -0.3984
  933MOL0     C28670   1.089   4.140   5.867  0.6565 -0.1161  1.1145
  933MOL0     C28671   0.655   4.146   5.836 -0.5825  0.7191  0.2488
  933MOL0     C28672   0.599   4.097   5.714  0.6152  0.4986  0.2795
  933MOL0     C28673   0.467   4.145   5.678 -0.4579 -0.1603  0.3196
  933MOL0     C28674   0.385   4.205   5.769 -0.1043 -0.1446 -0.5717
  933MOL0     O28675   0.259   4.252   5.745  0.0138  0.1021  0.0717
  933MOL0     C28676   0.177   4.174   5.653 -1.2150 -0.3999  0.7370
  933MOL0     C28677   0.029   4.175   5.694 -0.1063  0.0108  0.2138
  933MOL0     C28678   0.010   4.188   5.856 -0.3840  0.5190  0.5049
  933MOL0     C28679  -0.122   4.129   5.903  0.0588 -0.1272 -0.1696
  933MOL0     C28680  -0.233   4.224   5.895 -1.1974 -0.5344 -0.0960
  933MOL0     C28681  -0.319   4.306   5.875  0.5045  0.0152 -0.1514
  933MOL0     C28682   0.439   4.253   5.883 -0.4932 -0.3695 -0.1912
  933MOL0     C28683   0.573   4.220   5.923  0.1729  0.3011  0.6177
  933MOL0     C28684   0.605   4.285   6.052 -0.6006  0.0549 -0.0666
  933MOL0     H28685   1.019   3.910   5.611  3.4327  0.0914 -3.3071
  933MOL0     H28686   1.251   3.892   5.609  0.2996 -0.6316  0.5108
  933MOL0     H28687   1.474   3.974   5.988 -2.3545  1.8435 -0.1268
  933MOL0     H28688   1.497   4.121   5.907 -0.4237  0.3181 -2.2777
  933MOL0     H28689   1.669   3.868   5.838 -3.5487 -0.1453  0.6939
  933MOL0     H28690   1.665   4.014   5.744 -3.0750  1.4962 -0.6379
  933MOL0     H28691   1.715   4.146   5.972  2.5669  0.8632 -0.8960
  933MOL0     H28692   1.769   3.978   6.017  0.2229 -1.1340 -1.2760
  933MOL0     H28693   1.947   3.974   5.873  0.8922  0.1863 -1.4609
  933MOL0     H28694   1.863   4.094   5.763  1.8578 -0.5904 -0.3660
  933MOL0     H28695   1.973   4.173   6.040  0.3657 -0.4392 -0.4738
  933MOL0     H28696   1.927   4.275   5.913  0.8873  0.4877  0.1976
  933MOL0     H28697   2.178   4.088   5.924  2.5811  1.7064  1.9594
  933MOL0     H28698   2.109   4.181   5.780 -1.2471  3.2783  1.1757
  933MOL0     H28699   2.157   4.322   6.038  2.6286 -2.0787  0.8632
  933MOL0     H28700   2.123   4.388   5.874  1.5931  2.3130  2.5416
  933MOL0     H28701   2.374   4.232   5.934 -0.5536 -1.9088 -2.6553
  933MOL0     H28702   2.319   4.325   5.789  0.1532 -0.4957  0.1589
  933MOL0     H28703   2.455   4.535   5.780 -1.3959 -0.9093 -0.5141
  933MOL0     H28704   2.582   4.805   6.004 -3.0747 -0.8053  2.1753
  933MOL0     H28705   2.634   4.712   5.859 -1.7328 -3.3558  0.2982
  933MOL0     H28706   2.743   4.593   6.104 -0.3896  1.8158  2.3040
  933MOL0     H28707   2.809   4.623   5.946 -0.0069  0.3914 -1.1113
  933MOL0     H28708   2.835   4.869   6.026  1.2696 -0.2917 -0.2330
  933MOL0     H28709   2.771   4.816   6.185 -0.1787 -2.8461  0.8632
  933MOL0     H28710   2.946   4.654   6.222  3.7889  1.5074  2.6501
  933MOL0     H28711   3.027   4.704   6.065 -0.8478 -0.1363 -0.7944
  933MOL0     H28712   3.218   4.641   6.179  0.9824 -1.2177  0.5662
  933MOL0     H28713   3.534   4.647   6.135  2.5636  1.7940  1.9861
  933MOL0     H28714   3.398   4.549   6.197  1.5100 -0.4701 -1.1461
  933MOL0     H28715   3.529   4.609   6.311 -3.1515 -0.3774  2.4978
  933MOL0     H28716   3.734   5.003   6.580 -0.8732  1.2857 -1.7202
  933MOL0     H28717   3.959   5.042   6.652 -0.0195  4.2946 -0.8409
  933MOL0     H28718   4.162   5.123   6.676 -0.4036 -0.5070 -0.2534
  933MOL0     H28719   4.189   4.960   6.634 -3.8784  1.5086  0.1149
  933MOL0     H28720   4.374   5.198   6.612 -1.1844 -0.1975  0.0946
  933MOL0     H28721   4.391   5.064   6.722 -1.7905  2.0427  1.3586
  933MOL0     H28722   4.428   5.065   6.428  0.3634 -1.9017 -1.4575
  933MOL0     H28723   4.415   4.909   6.504  2.1786 -0.9079 -0.3963
  933MOL0     H28724   4.589   4.953   6.675 -1.0086 -1.2323 -0.1587
  933MOL0     H28725   4.631   5.102   6.597  0.2817 -0.1325  0.8743
  933MOL0     H28726   4.633   4.819   6.476 -1.6475  1.0639  0.9766
  933MOL0     H28727   4.659   4.970   6.380 -0.2252 -1.7473 -0.8663
  933MOL0     H28728   4.865   5.024   6.499 -1.1080  0.7025 -1.2922
  933MOL0     H28729   4.875   4.875   6.417 -1.9103 -0.2740 -1.0059
  933MOL0     H28730   4.839   4.738   6.617 -2.9517  1.2491 -0.0229
  933MOL0     H28731   4.810   4.889   6.712 -1.2224 -1.2440  0.1508
  933MOL0     H28732   5.039   4.804   6.758  1.9124 -3.2234 -2.2455
  933MOL0     H28733   5.042   4.963   6.663 -1.8094  0.0675  0.7357
  933MOL0     H28734   4.061   5.127   6.235 -3.4182  1.4772 -2.5130
  933MOL0     H28735   3.818   5.100   6.182  1.7450  2.1624  0.9604
  933MOL0     H28736   3.398   5.069   6.351  1.3448 -2.3031  0.2702
  933MOL0     H28737   3.168   5.055   6.316  2.7421  2.3358 -2.7438
  933MOL0     H28738   1.297   4.156   5.948 -2.1780  1.5889  0.5917
  933MOL0     H28739   1.041   4.207   5.937  0.3387 -0.6207  1.3875
  933MOL0     H28740   0.655   4.038   5.642 -2.2800 -1.6149 -0.4449
  933MOL0     H28741   0.448   4.131   5.572 -2.0748  1.3133  0.3671
  933MOL0     H28742   0.175   4.211   5.551 -3.2819  1.5486  1.4051
  933MOL0     H28743   0.219   4.074   5.637  0.3114  0.3553 -0.1812
  933MOL0     H28744  -0.017   4.089   5.645  0.1890 -0.0136 -0.0267
  933MOL0     H28745  -0.016   4.264   5.647 -1.4454 -1.0646 -0.6168
  933MOL0     H28746   0.093   4.149   5.915 -0.5088  1.7439  1.5099
  933MOL0     H28747   0.004   4.295   5.875  1.8110  0.7369  0.1988
  933MOL0     H28748  -0.111   4.094   6.006 -0.8676  0.9433  0.3116
  933MOL0     H28749  -0.135   4.039   5.842  0.9444  0.6415 -1.5333
  933MOL0     H28750  -0.399   4.376   5.863  2.1925  2.1377  0.3346
  933MOL0     H28751   0.365   4.309   5.940 -1.4481  1.1084 -2.7098
  933MOL0     H28752   0.707   4.325   6.049  0.8889 -3.4401 -1.5149
  933MOL0     H28753   0.538   4.367   6.080  0.4001  0.9348 -0.1322
  933MOL0     H28754   0.595   4.207   6.128 -2.5994  0.4130  0.0975
  934MOL0     O28755   1.473   5.338   1.357 -0.8029 -0.5651 -0.1411
  934MOL0     C28756   1.415   5.324   1.461 -0.7690  0.8240 -0.4931
  934MOL0     O28757   1.476   5.287   1.584 -0.8409  0.8424  0.4804
  934MOL0     C28758   1.614   5.303   1.608 -0.9859 -0.4045 -0.7512
  934MOL0     C28759   1.688   5.225   1.697  0.6198  0.0764  0.1753
  934MOL0     C28760   1.820   5.256   1.713  0.1827  0.6986  1.1682
  934MOL0     C28761   1.889   5.355   1.638 -0.1165 -1.1765 -0.2841
  934MOL0     O28762   2.022   5.380   1.643 -0.0655  0.3491  0.8828
  934MOL0     C28763   2.107   5.299   1.728 -0.4456  0.0685 -0.7310
  934MOL0     C28764   2.248   5.350   1.715  0.2872 -0.4885 -0.6393
  934MOL0     C28765   2.337   5.278   1.818  0.0530 -0.4943  0.5486
  934MOL0     C28766   2.486   5.257   1.763 -0.4682  0.3603  0.0606
  934MOL0     C28767   2.583   5.188   1.868  0.1561  0.3504 -0.4355
  934MOL0     C28768   2.626   5.281   1.984 -0.1605  1.0894 -1.1029
  934MOL0     C28769   2.744   5.204   2.060 -0.2824  0.0118  0.8515
  934MOL0     C28770   2.786   5.270   2.190 -0.2019 -0.0932  0.5271
  934MOL0     N28771   2.879   5.183   2.267 -0.2580  0.5548 -0.0627
  934MOL0     C28772   2.950   5.219   2.376 -0.2939 -0.9004 -0.4757
  934MOL0     C28773   2.993   5.106   2.436  0.5960  0.1722 -0.0266
  934MOL0     C28774   3.076   5.090   2.558 -0.3554  0.2311 -0.1870
  934MOL0     C28775   3.189   4.983   2.546  0.0722 -0.0077  0.0433
  934MOL0     C28776   3.303   5.023   2.457  0.8038 -0.5301  0.2244
  934MOL0     C28777   3.391   5.132   2.523  0.8040  0.3562  0.2260
  934MOL0     O28778   3.493   5.164   2.426  0.7838 -0.4360 -0.5064
  934MOL0     C28779   3.463   5.253   2.322  0.0447  0.6175 -0.0068
  934MOL0     C28780   3.342   5.310   2.290  0.1757 -1.1172  0.4480
  934MOL0     C28781   3.330   5.409   2.184 -0.7200 -1.3947 -0.5893
  934MOL0     C28782   3.182   5.440   2.146  0.2270 -0.1070 -0.3903
  934MOL0     C28783   3.445   5.462   2.127 -0.1028 -0.2536  0.2180
  934MOL0     C28784   3.432   5.559   2.020  0.2433  0.0418  0.2299
  934MOL0     O28785   3.535   5.567   1.923  0.2134 -0.1941  0.1384
  934MOL0     C28786   3.492   5.615   1.807  0.0587 -0.6077 -0.6019
  934MOL0     C28787   3.429   5.525   1.716  0.2012  0.7573 -0.4526
  934MOL0     C28788   3.387   5.568   1.588  1.6452 -0.3314 -0.2952
  934MOL0     C28789   3.409   5.697   1.549 -0.2294 -0.2469 -0.4766
  934MOL0     O28790   3.364   5.751   1.425 -0.6300 -0.1972  0.1498
  934MOL0     C28791   3.341   5.659   1.316 -0.2527  0.2339 -0.3393
  934MOL0     C28792   3.338   5.724   1.184  0.4217  0.0661 -0.6053
  934MOL0     C28793   3.216   5.815   1.162  0.3183 -0.3405 -0.2183
  934MOL0     C28794   3.236   5.932   1.050  0.3141  0.3173  0.9088
  934MOL0     C28795   3.189   5.893   0.905 -0.0573  0.4830 -0.1146
  934MOL0     C28796   3.289   5.811   0.827 -0.4021 -0.0906 -0.0594
  934MOL0     C28797   3.211   5.740   0.711  0.0636  1.0246  0.2126
  934MOL0     C28798   3.312   5.682   0.619 -0.7346  0.7520  0.4489
  934MOL0    Cl28799   3.231   5.587   0.494 -0.4265  0.3069 -0.1331
  934MOL0     C28800   3.469   5.786   1.644  0.4685 -0.2360 -0.9742
  934MOL0     C28801   3.508   5.741   1.772  0.1773 -0.8607  0.1528
  934MOL0     O28802   3.337   5.645   2.020  0.6556 -0.3659 -0.1833
  934MOL0     C28803   3.568   5.402   2.159  0.1040  0.8058  0.5953
  934MOL0     C28804   3.573   5.291   2.251  0.0698  0.2934  0.0727
  934MOL0     N28805   2.948   4.993   2.360 -0.1440  0.6952 -0.3748
  934MOL0     N28806   2.879   5.041   2.257  0.3386  0.5311 -0.2944
  934MOL0     C28807   1.818   5.436   1.560  0.0505 -0.7673  0.0023
  934MOL0     C28808   1.676   5.419   1.552 -0.1594  0.0831  0.7294
  934MOL0     C28809   1.271   5.312   1.446  0.0636 -0.0976 -1.0811
  934MOL0     C28810   1.213   5.321   1.317 -0.2583  0.0746  0.6556
  934MOL0     C28811   1.079   5.320   1.290  0.4135  0.6786 -0.1372
  934MOL0     C28812   0.982   5.312   1.399 -0.8509 -0.0539 -0.0979
  934MOL0     O28813   0.848   5.312   1.394  0.6064  0.0626  0.5029
  934MOL0     C28814   0.799   5.278   1.259  0.0703  0.2276 -0.6611
  934MOL0     C28815   0.653   5.229   1.271  0.4477  0.2707 -0.3900
  934MOL0     C28816   0.566   5.328   1.345 -0.1061 -0.6819  0.4388
  934MOL0     C28817   0.425   5.267   1.358  0.7030 -1.3017  0.2482
  934MOL0     C28818   0.335   5.373   1.388 -0.3369  0.4277  0.0545
  934MOL0     C28819   0.263   5.461   1.413 -0.1962 -0.5161 -1.3216
  934MOL0     C28820   1.041   5.291   1.523 -0.2311  0.1603  0.3613
  934MOL0     C28821   1.180   5.294   1.555  0.4005  0.0907  0.3236
  934MOL0     C28822   1.216   5.264   1.697 -0.1461  0.4259 -0.7575
  934MOL0     H28823   1.647   5.139   1.749 -0.8180 -0.8447 -2.3141
  934MOL0     H28824   1.873   5.189   1.780  1.5030 -0.1776 -0.6466
  934MOL0     H28825   2.106   5.200   1.683 -1.6207  0.8334 -2.5214
  934MOL0     H28826   2.074   5.315   1.831 -1.1283  0.7314 -1.0430
  934MOL0     H28827   2.269   5.325   1.611 -2.2855  0.4187 -1.4799
  934MOL0     H28828   2.230   5.458   1.718 -5.4048 -1.1336  0.1998
  934MOL0     H28829   2.339   5.338   1.910  2.5858 -0.4149  0.5104
  934MOL0     H28830   2.297   5.178   1.834 -1.1683 -0.2612 -0.8430
  934MOL0     H28831   2.468   5.189   1.680 -1.1005 -2.6563  2.4560
  934MOL0     H28832   2.527   5.355   1.739 -0.0683 -0.1731 -1.5282
  934MOL0     H28833   2.672   5.161   1.810  0.4467  0.6145 -0.1111
  934MOL0     H28834   2.541   5.094   1.906  2.6882 -0.7398 -0.1815
  934MOL0     H28835   2.664   5.376   1.944 -0.4675  0.9205 -1.8186
  934MOL0     H28836   2.534   5.294   2.041  0.1387  0.9333 -0.5777
  934MOL0     H28837   2.835   5.190   2.001 -1.6554  2.3550 -2.1187
  934MOL0     H28838   2.717   5.099   2.070 -0.7639 -0.4380 -3.2906
  934MOL0     H28839   2.825   5.372   2.177  1.0927 -0.5406  0.7255
  934MOL0     H28840   2.699   5.276   2.256  0.6102  0.8478  1.5529
  934MOL0     H28841   2.947   5.320   2.416 -0.6924 -1.2889  0.5249
  934MOL0     H28842   3.018   5.066   2.648 -1.1218  3.2251  0.2072
  934MOL0     H28843   3.115   5.188   2.585 -0.3382  0.0560  0.4269
  934MOL0     H28844   3.241   4.961   2.640  1.9860  2.7152 -0.2625
  934MOL0     H28845   3.149   4.886   2.516  2.0396 -0.7116 -0.4622
  934MOL0     H28846   3.372   4.939   2.444  0.0739 -0.9268 -1.3996
  934MOL0     H28847   3.274   5.060   2.358  3.0410 -0.4602 -0.4692
  934MOL0     H28848   3.332   5.223   2.534  0.7850  0.4941 -0.8541
  934MOL0     H28849   3.438   5.101   2.617  2.3560  3.2247  0.5225
  934MOL0     H28850   3.254   5.273   2.342  0.3094 -0.9351  0.8111
  934MOL0     H28851   3.108   5.412   2.221  0.7903  0.5380  0.4238
  934MOL0     H28852   3.160   5.408   2.043  1.5127 -0.2477 -0.6349
  934MOL0     H28853   3.166   5.549   2.147 -0.8232 -0.2405 -0.7300
  934MOL0     H28854   3.412   5.421   1.744 -0.2564  1.2539  1.2071
  934MOL0     H28855   3.341   5.505   1.512  3.3668  0.4921 -2.1092
  934MOL0     H28856   3.425   5.589   1.324 -2.2247 -2.1750  0.5484
  934MOL0     H28857   3.251   5.599   1.329  2.4361 -3.8017  2.0314
  934MOL0     H28858   3.432   5.777   1.163 -0.8067  1.6542 -2.4289
  934MOL0     H28859   3.329   5.639   1.116  2.4127 -0.7572  0.0757
  934MOL0     H28860   3.198   5.870   1.255 -1.0410 -1.1680  0.0278
  934MOL0     H28861   3.131   5.751   1.137  0.7799 -0.6050 -1.1470
  934MOL0     H28862   3.338   5.968   1.041  0.8763 -1.0972  1.3090
  934MOL0     H28863   3.177   6.021   1.077  0.4968  0.2027  1.7145
  934MOL0     H28864   3.096   5.840   0.928 -1.4875  3.8439  2.6863
  934MOL0     H28865   3.165   5.975   0.836  0.5781  0.4684 -0.3544
  934MOL0     H28866   3.342   5.737   0.887  1.2394 -0.4888 -1.9221
  934MOL0     H28867   3.364   5.875   0.780 -0.5368  2.0614  2.4354
  934MOL0     H28868   3.152   5.809   0.651 -1.8481  0.3757  1.2559
  934MOL0     H28869   3.145   5.663   0.753 -2.8057  3.4263  0.4038
  934MOL0     H28870   3.382   5.624   0.680 -0.7449  1.6872  1.3776
  934MOL0     H28871   3.372   5.757   0.568 -1.2085  1.8950  1.5221
  934MOL0     H28872   3.482   5.891   1.621  4.9535  0.3942  2.9965
  934MOL0     H28873   3.556   5.815   1.836  0.8367 -1.0509 -0.1072
  934MOL0     H28874   3.657   5.422   2.099  1.3620 -1.0807  1.7247
  934MOL0     H28875   3.669   5.247   2.278 -0.6080 -0.6999  0.9189
  934MOL0     H28876   1.850   5.524   1.505 -2.3116  0.2749  0.1707
  934MOL0     H28877   1.621   5.484   1.484  0.7601 -0.6149 -0.7548
  934MOL0     H28878   1.271   5.324   1.226 -0.0942 -0.5804  0.7334
  934MOL0     H28879   1.049   5.315   1.185  3.3169 -0.9304 -0.9910
  934MOL0     H28880   0.812   5.364   1.192  0.7935  0.5596 -0.1171
  934MOL0     H28881   0.861   5.202   1.212  0.1634 -0.2168  0.1555
  934MOL0     H28882   0.654   5.137   1.330 -1.7544  0.7974  0.5391
  934MOL0     H28883   0.627   5.209   1.167  1.0175  0.8165 -0.6416
  934MOL0     H28884   0.605   5.349   1.445  0.6613 -1.6695  0.3598
  934MOL0     H28885   0.564   5.429   1.304  0.6797 -1.0396 -0.5000
  934MOL0     H28886   0.414   5.193   1.438 -1.4336  0.1111  1.3781
  934MOL0     H28887   0.391   5.237   1.258  4.6532  1.2961 -2.1759
  934MOL0     H28888   0.199   5.544   1.438  0.2830 -0.7146  0.7091
  934MOL0     H28889   0.971   5.271   1.604  1.1221 -0.9954  1.2930
  934MOL0     H28890   1.129   5.264   1.763  0.4999 -0.9292  0.1419
  934MOL0     H28891   1.276   5.173   1.711 -0.1680  0.2699 -1.6085
  934MOL0     H28892   1.285   5.339   1.737  1.3628 -1.5203  0.4691
  935MOL0     O28893   9.059  10.576   0.548 -0.3010  0.3066 -0.1151
  935MOL0     C28894   9.167  10.609   0.504  0.2947  0.7760  0.3652
  935MOL0     O28895   9.281  10.644   0.579 -0.1374  0.1934 -0.7166
  935MOL0     C28896   9.275  10.622   0.713 -1.0497 -0.2097  0.8523
  935MOL0     C28897   9.291  10.492   0.765  0.6902  0.0093 -0.8362
  935MOL0     C28898   9.296  10.479   0.900  0.3645  0.3463 -0.8917
  935MOL0     C28899   9.285  10.584   0.992 -0.4924 -0.1939  0.4993
  935MOL0     O28900   9.289  10.579   1.131  0.5032 -0.2805 -0.5190
  935MOL0     C28901   9.252  10.459   1.191 -0.4681  0.5925 -0.7134
  935MOL0     C28902   9.191  10.489   1.328  0.5305 -0.1510  0.1856
  935MOL0     C28903   9.273  10.582   1.419 -0.1204  0.3000  0.7787
  935MOL0     C28904   9.242  10.558   1.569 -0.1877  0.0448  0.2275
  935MOL0     C28905   9.323  10.659   1.650  0.3298 -0.5431 -0.0023
  935MOL0     C28906   9.326  10.632   1.804  0.2199  0.7664  0.2262
  935MOL0     C28907   9.312  10.761   1.885  0.8733 -0.0503  0.8219
  935MOL0     C28908   9.424  10.866   1.859 -0.6786 -0.4262  0.1676
  935MOL0     N28909   9.391  10.979   1.941 -0.0631 -0.4660 -0.2150
  935MOL0     C28910   9.258  11.037   1.968 -0.9569  0.5262  0.0121
  935MOL0     C28911   9.290  11.139   2.056 -0.4931 -0.2712 -0.8033
  935MOL0     C28912   9.194  11.229   2.130  0.0302  0.1763 -0.2564
  935MOL0     C28913   9.219  11.382   2.107 -0.3291  0.4540 -0.0619
  935MOL0     C28914   9.103  11.461   2.170  1.0316 -0.2271 -0.6725
  935MOL0     C28915   9.091  11.437   2.321 -1.2049 -0.0972 -0.0193
  935MOL0     O28916   8.984  11.514   2.371 -0.0225  0.8904 -0.1248
  935MOL0     C28917   8.937  11.470   2.493  0.2876  0.5489  0.4540
  935MOL0     C28918   8.803  11.504   2.525 -0.2430  0.3287  0.6588
  935MOL0     C28919   8.729  11.446   2.627 -0.6933  0.0880  0.2871
  935MOL0     C28920   8.585  11.485   2.642  0.2362 -0.0036  0.1451
  935MOL0     C28921   8.799  11.352   2.708  0.1633 -0.4678 -0.1416
  935MOL0     C28922   8.735  11.277   2.814  0.6868  0.1027 -0.1565
  935MOL0     O28923   8.776  11.151   2.833 -0.4013 -0.3401  0.1555
  935MOL0     C28924   8.690  11.058   2.898 -0.5448 -0.9238 -0.1729
  935MOL0     C28925   8.549  11.080   2.900 -0.1902  0.5951 -0.0049
  935MOL0     C28926   8.465  10.982   2.951  0.3907 -0.9024  0.1389
  935MOL0     C28927   8.520  10.860   2.997  0.3751 -0.4267 -0.7037
  935MOL0     O28928   8.441  10.760   3.048  0.1718 -0.1079  0.1592
  935MOL0     C28929   8.295  10.780   3.063 -0.1767  1.4030  0.4069
  935MOL0     C28930   8.234  10.636   3.062 -0.4270 -0.4431  0.0452
  935MOL0     C28931   8.227  10.584   3.209  0.1617 -0.3685 -0.6112
  935MOL0     C28932   8.204  10.425   3.224 -0.5631  0.9147 -0.8235
  935MOL0     C28933   8.224  10.365   3.363  0.2751  0.2199 -0.4669
  935MOL0     C28934   8.360  10.363   3.438 -0.2697  0.2165 -0.2090
  935MOL0     C28935   8.472  10.297   3.360  0.0521  0.9251  0.0706
  935MOL0     C28936   8.601  10.287   3.431  1.2252 -0.1412 -0.0802
  935MOL0    Cl28937   8.599  10.248   3.603 -0.1593  0.2438 -0.3950
  935MOL0     C28938   8.665  10.839   2.986 -0.0313 -0.3213 -0.2127
  935MOL0     C28939   8.751  10.942   2.945  0.0588 -0.1967 -0.4222
  935MOL0     O28940   8.669  11.345   2.892 -1.0167 -0.1807 -0.1552
  935MOL0     C28941   8.930  11.317   2.682 -0.4254 -0.8543 -0.4415
  935MOL0     C28942   9.005  11.379   2.579 -0.0550  0.4262  0.0403
  935MOL0     N28943   9.425  11.130   2.089 -0.5803 -0.0604 -0.7676
  935MOL0     N28944   9.480  11.041   2.015 -0.6155 -0.0663  0.1210
  935MOL0     C28945   9.265  10.711   0.935  0.3452 -0.4318 -0.8618
  935MOL0     C28946   9.264  10.726   0.798  0.0490  0.2346 -0.5724
  935MOL0     C28947   9.179  10.635   0.360 -0.3566  0.6401 -0.5935
  935MOL0     C28948   9.274  10.725   0.313  0.9144  0.0830  0.2100
  935MOL0     C28949   9.290  10.750   0.176 -0.0361  0.1228 -0.0029
  935MOL0     C28950   9.221  10.673   0.081 -0.0146 -0.1749  0.0492
  935MOL0     O28951   9.228  10.698  -0.056  0.7898 -0.1649  0.1030
  935MOL0     C28952   9.291  10.819  -0.119  0.4363  0.4659 -0.7139
  935MOL0     C28953   9.292  10.813  -0.268  0.2575  1.9000 -0.6865
  935MOL0     C28954   9.153  10.849  -0.319 -0.4061 -0.0630 -0.4610
  935MOL0     C28955   9.134  10.834  -0.470 -0.6861  0.0344  0.5574
  935MOL0     C28956   9.227  10.924  -0.540 -0.1422 -0.6821 -0.1015
  935MOL0     C28957   9.282  11.006  -0.606  0.9522  0.1239  0.2008
  935MOL0     C28958   9.128  10.569   0.125 -0.4739 -0.1974 -0.4694
  935MOL0     C28959   9.103  10.550   0.263 -0.7190 -0.3794 -0.2641
  935MOL0     C28960   9.002  10.444   0.306 -1.0562 -0.7049 -0.0015
  935MOL0     H28961   9.314  10.408   0.700 -0.4623 -2.0588  1.2700
  935MOL0     H28962   9.311  10.377   0.935  1.6245  1.0164  0.6149
  935MOL0     H28963   9.348  10.406   1.189  2.0179  4.5963  1.1093
  935MOL0     H28964   9.188  10.395   1.130  1.6080  1.2699 -3.8543
  935MOL0     H28965   9.089  10.529   1.316 -1.3020 -4.0948  1.0365
  935MOL0     H28966   9.170  10.398   1.384 -0.2522 -0.0721  0.0359
  935MOL0     H28967   9.378  10.558   1.402 -0.7036 -0.2999 -2.7150
  935MOL0     H28968   9.251  10.688   1.400 -2.2289  0.2730  2.6884
  935MOL0     H28969   9.135  10.567   1.589 -0.1167 -0.3274  0.8229
  935MOL0     H28970   9.261  10.452   1.589  0.5865 -0.3586 -2.2588
  935MOL0     H28971   9.288  10.758   1.619 -1.1149 -0.5706  1.4336
  935MOL0     H28972   9.427  10.660   1.617  0.6618  0.0477  1.0038
  935MOL0     H28973   9.234  10.575   1.821  0.5025  1.0521  3.3776
  935MOL0     H28974   9.419  10.585   1.838  1.9662  2.5849 -1.6964
  935MOL0     H28975   9.309  10.728   1.989 -0.6239 -3.1486 -0.0820
  935MOL0     H28976   9.211  10.795   1.862  0.6430 -0.8818  0.5822
  935MOL0     H28977   9.519  10.823   1.893 -0.5965 -0.1737  0.2595
  935MOL0     H28978   9.433  10.908   1.759 -2.5652 -1.3296 -0.4266
  935MOL0     H28979   9.165  11.006   1.919 -1.6484  4.8261 -1.8750
  935MOL0     H28980   9.193  11.210   2.238 -2.2411  0.0856 -0.2470
  935MOL0     H28981   9.097  11.201   2.089 -0.9433  3.9007 -0.8772
  935MOL0     H28982   9.315  11.404   2.155  1.5191 -4.8031 -0.6072
  935MOL0     H28983   9.236  11.397   2.000 -2.6533  1.6621 -0.3177
  935MOL0     H28984   9.117  11.568   2.153  2.7014 -0.3241 -0.0249
  935MOL0     H28985   9.010  11.429   2.122 -0.2913  1.2677  0.7774
  935MOL0     H28986   9.061  11.332   2.323  1.2798 -0.8938 -0.1030
  935MOL0     H28987   9.188  11.450   2.372 -1.1935  5.2543 -0.7752
  935MOL0     H28988   8.741  11.553   2.450 -0.7034 -1.4110 -0.1349
  935MOL0     H28989   8.542  11.397   2.691  0.6276 -1.0009 -1.2464
  935MOL0     H28990   8.525  11.502   2.553 -1.4608  1.4400  1.4688
  935MOL0     H28991   8.588  11.569   2.713 -1.9386 -0.2525  0.5930
  935MOL0     H28992   8.505  11.166   2.850  1.3724  2.7424  2.0370
  935MOL0     H28993   8.361  11.012   2.958  0.3262 -1.4242  1.8447
  935MOL0     H28994   8.284  10.833   3.158 -0.5645 -0.6303  1.5734
  935MOL0     H28995   8.254  10.831   2.976 -1.1882 -0.6760 -0.4125
  935MOL0     H28996   8.134  10.635   3.018 -0.1038 -1.5435 -0.7144
  935MOL0     H28997   8.280  10.555   3.004 -4.6548 -2.3182 -1.1367
  935MOL0     H28998   8.151  10.638   3.265 -0.8660  0.1431 -2.4318
  935MOL0     H28999   8.324  10.594   3.258  0.3508  0.8217 -1.1899
  935MOL0     H29000   8.281  10.376   3.164 -2.0763 -0.3983 -1.7802
  935MOL0     H29001   8.104  10.399   3.187  0.1444 -0.9676 -1.5139
  935MOL0     H29002   8.150  10.414   3.427  0.0127 -1.5363  0.6501
  935MOL0     H29003   8.189  10.261   3.355  0.4506  0.1638 -0.5024
  935MOL0     H29004   8.341  10.316   3.534 -3.9581  1.5037 -0.1372
  935MOL0     H29005   8.387  10.469   3.444 -1.0124  0.3390  1.2350
  935MOL0     H29006   8.491  10.343   3.262  0.1579  0.3736 -0.1703
  935MOL0     H29007   8.439  10.195   3.338 -0.3433  1.0882 -0.0987
  935MOL0     H29008   8.654  10.383   3.426  0.5724  0.1857 -4.5620
  935MOL0     H29009   8.655  10.220   3.364  0.6967  1.8377 -2.6302
  935MOL0     H29010   8.722  10.751   3.013  0.9077 -0.0157 -1.1531
  935MOL0     H29011   8.859  10.934   2.943  0.1962  1.4150 -1.2945
  935MOL0     H29012   8.987  11.250   2.746 -0.5345  0.2028  0.8035
  935MOL0     H29013   9.109  11.359   2.556  1.0447  3.6016  1.7424
  935MOL0     H29014   9.250  10.796   1.000  1.0339 -0.1956 -1.0052
  935MOL0     H29015   9.268  10.823   0.750  1.3209  0.3812 -0.2027
  935MOL0     H29016   9.334  10.777   0.386  0.9366 -3.2162  2.7702
  935MOL0     H29017   9.340  10.834   0.131 -0.2299 -0.1859 -0.8120
  935MOL0     H29018   9.246  10.910  -0.078 -2.5836 -1.6134  0.9314
  935MOL0     H29019   9.397  10.815  -0.091  0.6810  2.4705 -1.2356
  935MOL0     H29020   9.305  10.709  -0.299  0.1681  1.8146 -0.4420
  935MOL0     H29021   9.377  10.872  -0.304  0.3002  2.0289 -0.3750
  935MOL0     H29022   9.073  10.796  -0.266 -0.5532 -0.3267 -0.9460
  935MOL0     H29023   9.129  10.949  -0.280  0.0273  0.2824 -1.0622
  935MOL0     H29024   9.036  10.867  -0.507  0.6469  3.0587 -0.6719
  935MOL0     H29025   9.140  10.731  -0.505 -0.8972 -0.3110  1.5100
  935MOL0     H29026   9.328  11.085  -0.662 -0.8026 -0.1614 -1.7444
  935MOL0     H29027   9.073  10.513   0.050 -2.3466 -0.9847  1.3692
  935MOL0     H29028   8.911  10.489   0.346 -0.8364  0.0599 -0.3460
  935MOL0     H29029   8.971  10.389   0.217 -1.4986  0.7742 -0.7993
  935MOL0     H29030   9.037  10.376   0.385  1.4947  1.9449  1.3535
  936MOL0     O29031  10.121  11.424   3.122  0.2129 -0.4117 -0.2957
  936MOL0     C29032  10.169  11.508   3.193 -0.8688  0.2641 -0.1732
  936MOL0     O29033  10.129  11.545   3.314 -0.1648 -0.0355  0.1896
  936MOL0     C29034  10.018  11.486   3.360  0.6832 -0.2401 -0.0373
  936MOL0     C29035   9.892  11.512   3.313  0.1866  0.8201  0.1725
  936MOL0     C29036   9.776  11.453   3.363  0.1407  0.3639  0.0349
  936MOL0     C29037   9.785  11.342   3.450 -0.2377 -0.7887 -0.4582
  936MOL0     O29038   9.681  11.266   3.482  0.0520  0.6751  0.2049
  936MOL0     C29039   9.549  11.298   3.435  0.3687 -0.0636  0.5392
  936MOL0     C29040   9.471  11.165   3.452 -0.4435 -0.3969 -0.2466
  936MOL0     C29041   9.328  11.176   3.408  0.4372  0.2533  0.0333
  936MOL0     C29042   9.266  11.044   3.408  0.2890  0.8506  1.0267
  936MOL0     C29043   9.122  11.043   3.361  0.0967 -0.2171  1.1626
  936MOL0     C29044   9.089  11.082   3.212 -0.1416  0.0376 -0.1383
  936MOL0     C29045   9.146  10.983   3.113  0.1210  0.5907 -0.6175
  936MOL0     C29046   9.172  11.046   2.978 -0.2033  0.7613  0.2691
  936MOL0     N29047   9.278  11.145   2.976  0.6218 -0.2385  0.0406
  936MOL0     C29048   9.404  11.132   3.032 -0.1063  1.0781 -0.1718
  936MOL0     C29049   9.467  11.246   2.989 -0.4034 -0.0063 -1.5550
  936MOL0     C29050   9.611  11.269   3.009  0.0417 -1.1569 -0.2510
  936MOL0     C29051   9.700  11.215   2.896  0.8779 -0.4964  0.3603
  936MOL0     C29052   9.836  11.299   2.880 -1.4591  0.4876 -0.3970
  936MOL0     C29053   9.898  11.261   2.742  0.0576 -0.7127  0.1998
  936MOL0     O29054   9.905  11.125   2.718 -0.6029  0.0383  1.0080
  936MOL0     C29055  10.005  11.037   2.761  0.0443 -0.8919  0.4011
  936MOL0     C29056  10.125  11.074   2.813  0.3032  0.1577  0.3481
  936MOL0     C29057  10.228  10.992   2.855 -0.5645  0.3354 -0.2449
  936MOL0     C29058  10.346  11.060   2.924  0.0290 -0.3068 -0.1810
  936MOL0     C29059  10.215  10.857   2.840  1.0586  0.8620  0.2722
  936MOL0     C29060  10.299  10.746   2.898 -0.0636  0.8361 -0.0382
  936MOL0     O29061  10.272  10.614   2.863 -0.3877  0.4126 -0.3300
  936MOL0     C29062  10.312  10.513   2.944  0.6828 -0.4626  0.1215
  936MOL0     C29063  10.308  10.506   3.087  0.5117 -0.4093  0.8772
  936MOL0     C29064  10.348  10.389   3.146  0.1233 -0.5626  0.3335
  936MOL0     C29065  10.407  10.283   3.073 -0.3277  0.4697  0.1629
  936MOL0     O29066  10.447  10.173   3.136  0.3390  0.2218 -0.2591
  936MOL0     C29067  10.574  10.193   3.206  0.0845  0.9899 -0.3192
  936MOL0     C29068  10.596  10.078   3.302 -0.2816 -0.5265  0.0620
  936MOL0     C29069  10.497  10.074   3.425 -0.0788  0.0378 -0.5503
  936MOL0     C29070  10.531  10.190   3.526 -0.1114  0.1548  0.3005
  936MOL0     C29071  10.447  10.180   3.653 -0.4463 -0.7759  0.4077
  936MOL0     C29072  10.307  10.117   3.626  0.1286  0.1630 -0.0272
  936MOL0     C29073  10.225  10.116   3.756  0.0446 -0.2255 -0.3355
  936MOL0     C29074  10.088  10.042   3.740 -0.1743  0.0434  0.9514
  936MOL0    Cl29075  10.025  10.035   3.906  0.1949  0.3958 -0.5204
  936MOL0     C29076  10.402  10.291   2.935 -0.5883  0.2359 -0.0704
  936MOL0     C29077  10.361  10.407   2.874  0.2140  0.8440 -0.1876
  936MOL0     O29078  10.390  10.783   2.978 -0.0571  0.1482  0.0770
  936MOL0     C29079  10.108  10.813   2.759 -0.7088 -0.3320  0.3552
  936MOL0     C29080  10.013  10.905   2.714  0.6040  1.1688  0.4866
  936MOL0     N29081   9.374  11.327   2.924 -0.4928 -0.5013  0.4397
  936MOL0     N29082   9.265  11.263   2.903  0.1723  0.3637 -0.3181
  936MOL0     C29083   9.912  11.316   3.503  0.1695 -0.4738  1.0912
  936MOL0     C29084  10.023  11.388   3.462  0.5809 -0.0642  0.7099
  936MOL0     C29085  10.297  11.580   3.136 -0.3162 -0.7358 -0.6346
  936MOL0     C29086  10.279  11.711   3.083 -0.0599 -0.4899  1.2069
  936MOL0     C29087  10.393  11.792   3.047 -0.4995  0.0982  0.1429
  936MOL0     C29088  10.515  11.743   3.073  0.5925 -0.3619  0.3920
  936MOL0     O29089  10.620  11.819   3.029  0.2433  0.3663 -1.1168
  936MOL0     C29090  10.741  11.796   3.108 -0.1215  0.5471 -0.2113
  936MOL0     C29091  10.848  11.900   3.086  0.6179 -1.1440 -0.2193
  936MOL0     C29092  10.889  11.913   2.944  0.0400  0.0152  0.1104
  936MOL0     C29093  10.965  11.798   2.891  0.2395 -0.3873  0.3775
  936MOL0     C29094  11.040  11.853   2.776  0.9126  0.8833  0.3799
  936MOL0     C29095  11.102  11.889   2.680 -0.1875 -0.3306 -0.9460
  936MOL0     C29096  10.527  11.607   3.106 -0.4785 -0.4223  0.0743
  936MOL0     C29097  10.428  11.526   3.150  0.3686 -1.3627  1.4318
  936MOL0     C29098  10.452  11.389   3.213  0.4784  0.0485 -0.6989
  936MOL0     H29099   9.877  11.581   3.231 -3.2218 -1.8505 -1.7348
  936MOL0     H29100   9.683  11.486   3.319  0.2418  0.5572 -0.0308
  936MOL0     H29101   9.555  11.325   3.329 -0.9798 -0.7724  0.2713
  936MOL0     H29102   9.510  11.382   3.493 -1.4267 -1.1865  1.0284
  936MOL0     H29103   9.526  11.099   3.385 -0.0148 -0.5473  0.2495
  936MOL0     H29104   9.481  11.136   3.557  0.5081 -1.7360 -0.6855
  936MOL0     H29105   9.277  11.250   3.471 -0.4527 -0.3825  0.0735
  936MOL0     H29106   9.317  11.210   3.304 -1.8791  0.0613  0.1640
  936MOL0     H29107   9.332  10.977   3.351 -0.5500  2.6924 -2.3635
  936MOL0     H29108   9.267  11.002   3.509 -0.2293  1.2906  1.2198
  936MOL0     H29109   9.068  11.116   3.423 -0.4902  0.9503 -0.6623
  936MOL0     H29110   9.082  10.945   3.386 -0.2378 -0.1744  0.8071
  936MOL0     H29111   8.984  11.107   3.196 -0.1088 -0.7170 -1.7026
  936MOL0     H29112   9.142  11.176   3.199 -0.0867 -0.2302 -2.3145
  936MOL0     H29113   9.079  10.900   3.087  0.6670 -1.0132  2.6155
  936MOL0     H29114   9.240  10.943   3.152 -0.9651 -0.4491  1.0535
  936MOL0     H29115   9.205  10.964   2.913  0.1213  0.9019  0.2570
  936MOL0     H29116   9.079  11.089   2.939  0.1298  0.6406 -0.6947
  936MOL0     H29117   9.431  11.047   3.094 -1.3273  1.0540  0.3406
  936MOL0     H29118   9.632  11.229   3.108 -0.8033 -2.3110 -0.5177
  936MOL0     H29119   9.618  11.378   3.012 -0.0722 -1.1769  1.1277
  936MOL0     H29120   9.730  11.114   2.925  1.8372 -0.4193 -0.3181
  936MOL0     H29121   9.647  11.221   2.801  3.8495 -0.9807 -1.4632
  936MOL0     H29122   9.807  11.405   2.879 -3.1691  0.1458  2.4384
  936MOL0     H29123   9.901  11.285   2.966 -2.5868  0.2680  0.4363
  936MOL0     H29124   9.844  11.307   2.659  4.4351 -0.3255 -2.8270
  936MOL0     H29125  10.001  11.300   2.736  0.6845 -2.5043 -2.7501
  936MOL0     H29126  10.150  11.178   2.833 -0.8355  0.3447  0.9408
  936MOL0     H29127  10.320  11.161   2.956 -1.3135 -0.4095 -0.8625
  936MOL0     H29128  10.422  11.065   2.845  1.7632  1.2322  1.4870
  936MOL0     H29129  10.388  11.011   3.012 -0.5442  0.1546  0.3569
  936MOL0     H29130  10.266  10.590   3.142 -1.3936  1.0839 -2.5431
  936MOL0     H29131  10.343  10.377   3.253  1.5511 -0.6058  0.4224
  936MOL0     H29132  10.657  10.200   3.135 -0.5786  2.2109 -1.0124
  936MOL0     H29133  10.575  10.285   3.265  1.1474  0.1449  1.0392
  936MOL0     H29134  10.591   9.983   3.247  0.9758  1.1877 -3.2887
  936MOL0     H29135  10.699  10.075   3.338  0.0105 -3.1241 -0.7799
  936MOL0     H29136  10.513   9.979   3.479 -1.5962 -0.9427 -1.7485
  936MOL0     H29137  10.393  10.078   3.393 -1.2216 -0.5115  2.6653
  936MOL0     H29138  10.495  10.279   3.474  0.1591  0.1881  0.1694
  936MOL0     H29139  10.630  10.195   3.572 -0.9358  0.7751  2.0580
  936MOL0     H29140  10.497  10.110   3.721  1.1972 -2.1836 -2.0889
  936MOL0     H29141  10.442  10.282   3.694  2.0104 -0.6714  0.6262
  936MOL0     H29142  10.326  10.013   3.597  2.2110  0.3113  0.6689
  936MOL0     H29143  10.270  10.177   3.542  2.1279  1.3423 -0.1425
  936MOL0     H29144  10.203  10.217   3.793 -0.4116 -1.1746  2.1325
  936MOL0     H29145  10.297  10.081   3.831  0.7437  2.0554  0.1498
  936MOL0     H29146  10.092   9.937   3.710 -1.9566 -0.1755  1.3736
  936MOL0     H29147  10.015  10.099   3.681 -0.4719  1.4001  2.5531
  936MOL0     H29148  10.440  10.208   2.877  1.4236  0.9480  0.1368
  936MOL0     H29149  10.379  10.420   2.767  2.5062  0.8892  0.1515
  936MOL0     H29150  10.096  10.711   2.724 -0.1295 -0.2948  0.0324
  936MOL0     H29151   9.932  10.860   2.656  1.5166  2.8904 -2.3250
  936MOL0     H29152   9.917  11.253   3.592  0.9508 -0.4747  1.0499
  936MOL0     H29153  10.114  11.365   3.516  1.9073  0.2579 -1.3113
  936MOL0     H29154  10.173  11.735   3.070  0.2647 -0.3193 -2.0561
  936MOL0     H29155  10.385  11.891   3.004 -0.9016  0.6932  1.5195
  936MOL0     H29156  10.726  11.790   3.217  0.8102 -2.3663 -0.1574
  936MOL0     H29157  10.778  11.698   3.075 -0.0374  0.3107  0.5605
  936MOL0     H29158  10.934  11.882   3.152 -1.3025  0.3414  2.9360
  936MOL0     H29159  10.824  11.998   3.127  2.3723 -1.4123  1.6378
  936MOL0     H29160  10.792  11.924   2.894 -0.3233  0.4560  0.8831
  936MOL0     H29161  10.939  12.009   2.928  0.3415 -0.0990  0.3558
  936MOL0     H29162  10.901  11.716   2.859 -0.6039 -0.5896  2.4076
  936MOL0     H29163  11.042  11.762   2.960 -0.5722 -1.1356  0.9155
  936MOL0     H29164  11.160  11.929   2.600  2.0560 -1.6179 -0.0627
  936MOL0     H29165  10.622  11.557   3.095  0.1865  1.0196 -1.2767
  936MOL0     H29166  10.554  11.380   3.250 -0.1972  0.4822  1.4157
  936MOL0     H29167  10.390  11.387   3.303  0.4381  0.9917 -0.6899
  936MOL0     H29168  10.435  11.316   3.134 -1.2647 -1.9389  1.3730
  937MOL0     O29169   0.164   5.743   7.317 -0.3438 -0.6347 -0.7351
  937MOL0     C29170   0.215   5.847   7.263 -0.6242  1.1727 -0.1544
  937MOL0     O29171   0.349   5.874   7.262  0.0220 -0.1687 -0.7506
  937MOL0     C29172   0.441   5.788   7.316  0.2601  0.3788  0.6716
  937MOL0     C29173   0.530   5.825   7.410 -0.0753  0.0708 -0.4365
  937MOL0     C29174   0.619   5.736   7.464 -0.2867 -0.2754  1.1939
  937MOL0     C29175   0.625   5.605   7.419  0.8186 -0.2465  0.5548
  937MOL0     O29176   0.699   5.516   7.481  0.0838  0.6415  0.6154
  937MOL0     C29177   0.823   5.511   7.417 -0.9074  0.4851  0.4812
  937MOL0     C29178   0.931   5.450   7.514  0.4134  1.2299 -0.2872
  937MOL0     C29179   0.930   5.292   7.522  0.8775  0.3496 -0.1579
  937MOL0     C29180   0.881   5.262   7.667 -0.2271  0.9789  0.6532
  937MOL0     C29181   0.864   5.109   7.685 -0.3208  1.0374  0.0132
  937MOL0     C29182   0.997   5.022   7.704  0.5163 -0.6310 -0.0243
  937MOL0     C29183   0.963   4.880   7.753 -0.1710 -0.5493 -0.6351
  937MOL0     C29184   1.088   4.794   7.756  0.5753  0.2242  0.8105
  937MOL0     N29185   1.061   4.652   7.781 -0.0623  0.3290  0.0554
  937MOL0     C29186   0.972   4.563   7.716  0.5988 -0.1700  0.8683
  937MOL0     C29187   0.949   4.467   7.812 -1.0667 -0.8253 -0.8653
  937MOL0     C29188   0.858   4.348   7.792 -0.6316 -0.1558  0.2922
  937MOL0     C29189   0.719   4.400   7.768  0.1889 -0.3426 -0.1798
  937MOL0     C29190   0.634   4.282   7.739 -0.1727  0.4472 -0.6774
  937MOL0     C29191   0.508   4.315   7.663 -0.5885  0.3369 -0.6135
  937MOL0     O29192   0.446   4.190   7.619 -0.2050  0.4452  0.4091
  937MOL0     C29193   0.313   4.193   7.585  0.1767  0.5876 -0.5272
  937MOL0     C29194   0.249   4.073   7.560  1.0663 -0.6803  0.6224
  937MOL0     C29195   0.104   4.060   7.551 -1.4251 -0.4473 -0.2949
  937MOL0     C29196   0.069   3.917   7.517 -0.0308 -0.4399 -0.5816
  937MOL0     C29197   0.024   4.179   7.558 -0.2875  0.3866 -0.8627
  937MOL0     C29198  -0.119   4.171   7.539 -0.0083  0.2810  0.0427
  937MOL0     O29199  -0.175   4.053   7.483  0.0868 -0.0400 -0.0258
  937MOL0     C29200  -0.290   4.012   7.536 -0.6544  0.0900  0.2746
  937MOL0     C29201  -0.400   4.001   7.453 -0.3113 -0.0694  0.2903
  937MOL0     C29202  -0.524   3.962   7.508  0.1346  0.4230 -0.1244
  937MOL0     C29203  -0.540   3.905   7.631 -0.3353 -0.4219  0.6231
  937MOL0     O29204  -0.652   3.843   7.673  0.6691  0.1980 -0.0196
  937MOL0     C29205  -0.736   3.767   7.586  0.7090  0.1319 -0.5833
  937MOL0     C29206  -0.683   3.645   7.522 -0.0629 -0.3448  0.5783
  937MOL0     C29207  -0.780   3.524   7.504 -0.1075 -0.3360 -0.2764
  937MOL0     C29208  -0.726   3.418   7.404  0.2193  1.0831  1.0400
  937MOL0     C29209  -0.830   3.299   7.379  0.0802 -1.0167 -0.2876
  937MOL0     C29210  -0.803   3.205   7.266 -0.5358  1.0154 -0.2542
  937MOL0     C29211  -0.888   3.082   7.255 -0.2406 -0.2081  1.2663
  937MOL0     C29212  -0.865   2.985   7.364 -0.5075  0.0381 -0.0070
  937MOL0    Cl29213  -1.020   2.966   7.452  0.2973  0.0885 -0.1394
  937MOL0     C29214  -0.427   3.910   7.711 -0.8374  1.1974 -0.2232
  937MOL0     C29215  -0.302   3.959   7.665 -1.0684  0.3426 -1.4075
  937MOL0     O29216  -0.186   4.263   7.595  0.2489  0.0908  0.6660
  937MOL0     C29217   0.087   4.299   7.567  0.3379  0.0708 -0.0713
  937MOL0     C29218   0.227   4.305   7.592 -1.3246 -0.3136 -0.2262
  937MOL0     N29219   1.025   4.475   7.924  0.2941 -0.6805  1.0390
  937MOL0     N29220   1.082   4.598   7.910 -0.3818  0.5897 -1.3821
  937MOL0     C29221   0.533   5.562   7.319 -0.7364 -0.5858  0.5400
  937MOL0     C29222   0.442   5.653   7.279 -0.1202 -1.1052 -0.0993
  937MOL0     C29223   0.132   5.934   7.160 -0.6857 -0.1089  0.3787
  937MOL0     C29224   0.207   6.021   7.077 -0.0965 -1.0922 -0.2664
  937MOL0     C29225   0.157   6.115   6.994  0.2343  0.7978 -0.5905
  937MOL0     C29226   0.017   6.120   6.974 -0.5026  1.4009  0.2491
  937MOL0     O29227  -0.053   6.201   6.885  0.3509  0.2038 -0.1339
  937MOL0     C29228  -0.046   6.341   6.919 -0.0339 -0.2719 -0.0132
  937MOL0     C29229  -0.108   6.380   7.058 -0.5670  0.4774  0.0555
  937MOL0     C29230  -0.258   6.341   7.057  0.2943 -0.0099 -0.7413
  937MOL0     C29231  -0.328   6.384   7.195  0.4282  1.0143  0.2801
  937MOL0     C29232  -0.476   6.364   7.182  0.3799  0.2481 -0.3575
  937MOL0     C29233  -0.591   6.311   7.190 -0.3413  0.4023  0.3531
  937MOL0     C29234  -0.061   6.023   7.041 -0.0952 -0.0148 -0.2329
  937MOL0     C29235  -0.008   5.931   7.138  0.6631 -0.1182  1.3321
  937MOL0     C29236  -0.095   5.843   7.214  0.7859  1.0588 -0.1916
  937MOL0     H29237   0.526   5.927   7.448 -1.9206 -0.3430  0.6245
  937MOL0     H29238   0.686   5.774   7.540  1.4205 -0.5779 -0.0885
  937MOL0     H29239   0.860   5.608   7.382  0.7398  0.3097  1.6051
  937MOL0     H29240   0.821   5.448   7.327  3.3213  0.1161  0.4446
  937MOL0     H29241   1.026   5.492   7.482 -0.7057  3.8426 -0.4545
  937MOL0     H29242   0.916   5.491   7.615  0.1059  1.1429 -0.2971
  937MOL0     H29243   0.866   5.247   7.445  0.2575 -1.2164  1.2308
  937MOL0     H29244   1.033   5.258   7.512  0.3951 -1.5568  0.8383
  937MOL0     H29245   0.955   5.294   7.741 -0.8871 -1.9924  2.8057
  937MOL0     H29246   0.783   5.310   7.678 -0.1794  1.5767 -1.2102
  937MOL0     H29247   0.821   5.067   7.594  0.9278 -0.2272 -0.0317
  937MOL0     H29248   0.788   5.097   7.764  1.2907  0.7590  1.5820
  937MOL0     H29249   1.040   5.022   7.603  1.4890  0.9516  0.3597
  937MOL0     H29250   1.064   5.074   7.773  0.7773 -0.1047 -0.6612
  937MOL0     H29251   0.890   4.833   7.686 -1.8317 -0.6875  1.1909
  937MOL0     H29252   0.915   4.894   7.850 -0.0347  1.7820 -0.8562
  937MOL0     H29253   1.160   4.795   7.673  2.5442 -0.4218  2.4160
  937MOL0     H29254   1.150   4.838   7.835  2.5235 -2.5263  0.9817
  937MOL0     H29255   0.914   4.562   7.625  0.3109 -2.5094  1.0160
  937MOL0     H29256   0.870   4.279   7.876  0.7187  0.8280  0.9522
  937MOL0     H29257   0.907   4.302   7.705 -0.0528 -1.6712  1.3833
  937MOL0     H29258   0.686   4.455   7.856  1.6016  1.2293 -0.5773
  937MOL0     H29259   0.719   4.479   7.693 -0.3281  0.4100  0.6010
  937MOL0     H29260   0.687   4.210   7.677  0.2322 -1.1385  1.4157
  937MOL0     H29261   0.627   4.225   7.832  4.7305  1.2809  0.4691
  937MOL0     H29262   0.445   4.373   7.732 -1.4571  0.7180 -1.6976
  937MOL0     H29263   0.531   4.380   7.578  2.0126 -0.4073 -0.5690
  937MOL0     H29264   0.316   3.988   7.546  2.1153  0.4453 -1.5758
  937MOL0     H29265   0.151   3.850   7.545  2.0985  0.3625 -4.1933
  937MOL0     H29266   0.057   3.898   7.410 -1.6100 -5.8907  0.2547
  937MOL0     H29267  -0.027   3.888   7.560 -2.2162  4.0048 -1.8596
  937MOL0     H29268  -0.401   4.006   7.345  1.7517 -1.7212  0.1387
  937MOL0     H29269  -0.607   3.966   7.438 -0.6056 -0.7867  0.6521
  937MOL0     H29270  -0.818   3.733   7.650  0.2562  2.7340  0.3590
  937MOL0     H29271  -0.779   3.826   7.505  1.4237  0.5843 -0.6496
  937MOL0     H29272  -0.643   3.677   7.426 -1.9110 -0.6461 -0.3268
  937MOL0     H29273  -0.599   3.614   7.586 -0.3789  0.8906  1.6280
  937MOL0     H29274  -0.882   3.532   7.464 -0.7543 -0.0363  1.3705
  937MOL0     H29275  -0.792   3.473   7.600 -2.5239 -1.0767 -0.9009
  937MOL0     H29276  -0.630   3.371   7.430 -1.3114 -2.3345  1.0017
  937MOL0     H29277  -0.710   3.456   7.303  0.1966 -2.7612 -0.5469
  937MOL0     H29278  -0.842   3.256   7.479  0.3479  0.1761  0.2706
  937MOL0     H29279  -0.922   3.351   7.351  1.2982  0.5682 -1.5201
  937MOL0     H29280  -0.701   3.165   7.268 -0.8357  0.1887 -0.8489
  937MOL0     H29281  -0.809   3.262   7.172 -2.7983  0.2081 -0.6563
  937MOL0     H29282  -0.887   3.025   7.161  0.7240  0.1344  1.0529
  937MOL0     H29283  -0.984   3.132   7.266 -0.6134 -0.5856 -0.1027
  937MOL0     H29284  -0.798   3.025   7.441 -4.1106  5.9706  0.7247
  937MOL0     H29285  -0.818   2.893   7.329  1.2249  1.1958 -0.9088
  937MOL0     H29286  -0.425   3.868   7.812  0.9606  2.2692  0.2207
  937MOL0     H29287  -0.224   3.951   7.740 -2.3877  0.2172 -0.0167
  937MOL0     H29288   0.035   4.395   7.567 -1.8211 -0.9791  2.4502
  937MOL0     H29289   0.269   4.404   7.606  0.5242 -0.8304 -1.5943
  937MOL0     H29290   0.529   5.457   7.290 -2.8237 -0.0936 -1.1794
  937MOL0     H29291   0.366   5.612   7.213 -1.7361  1.4355  0.0749
  937MOL0     H29292   0.312   6.041   7.099 -0.6453 -1.4297  3.3177
  937MOL0     H29293   0.218   6.186   6.939  1.5536  0.3623  0.2470
  937MOL0     H29294   0.057   6.374   6.907 -0.1084  0.0715  0.2653
  937MOL0     H29295  -0.108   6.391   6.844  0.7244 -0.2948 -0.6657
  937MOL0     H29296  -0.105   6.489   7.050  0.8601  0.4963  0.5103
  937MOL0     H29297  -0.056   6.355   7.151  1.7192 -0.3831 -1.3562
  937MOL0     H29298  -0.311   6.394   6.978 -1.9848  1.7460  1.7769
  937MOL0     H29299  -0.265   6.233   7.044  0.2758  0.0350 -1.1308
  937MOL0     H29300  -0.299   6.489   7.205 -1.0427  1.7239 -2.0767
  937MOL0     H29301  -0.290   6.315   7.271 -1.7307 -0.0857  0.4527
  937MOL0     H29302  -0.689   6.269   7.202 -1.2929  1.4568 -2.5905
  937MOL0     H29303  -0.166   6.022   7.012  0.3924 -0.1057 -2.1485
  937MOL0     H29304  -0.203   5.855   7.197  0.6399  0.9347  0.6340
  937MOL0     H29305  -0.070   5.741   7.183 -1.2831  0.4961 -0.1807
  937MOL0     H29306  -0.088   5.853   7.322 -1.2512 -0.8779  0.2042
  938MOL0     O29307   6.759   2.090   4.126  0.5293  0.2001 -0.3425
  938MOL0     C29308   6.752   1.969   4.148  0.7398  0.3236 -0.3639
  938MOL0     O29309   6.749   1.865   4.054 -0.1886 -0.2096 -0.1520
  938MOL0     C29310   6.709   1.898   3.919  0.1688  0.1371 -0.6933
  938MOL0     C29311   6.574   1.923   3.895 -0.1685 -0.2070  0.1214
  938MOL0     C29312   6.527   1.957   3.767  0.0720  0.3102 -0.4298
  938MOL0     C29313   6.617   1.953   3.664  0.1580  0.4514  0.7683
  938MOL0     O29314   6.587   1.959   3.524 -0.0773  0.3821 -0.1211
  938MOL0     C29315   6.454   1.933   3.471  0.0500 -0.5517  0.3031
  938MOL0     C29316   6.439   2.029   3.353 -1.6317  0.2138  0.7890
  938MOL0     C29317   6.434   2.178   3.390  0.0883  0.6871 -0.0220
  938MOL0     C29318   6.390   2.271   3.273 -0.6192 -0.1322  0.3469
  938MOL0     C29319   6.361   2.415   3.316 -0.0503 -0.5421  0.9394
  938MOL0     C29320   6.339   2.504   3.190 -0.0169  0.0556  1.0220
  938MOL0     C29321   6.237   2.609   3.224  0.5083 -0.8813 -0.5532
  938MOL0     C29322   6.235   2.728   3.122  0.1381  0.6246 -0.1859
  938MOL0     N29323   6.162   2.693   2.997  0.2804  0.7418  0.5413
  938MOL0     C29324   6.213   2.628   2.890  0.0250 -0.7504  0.0685
  938MOL0     C29325   6.111   2.610   2.799  0.4031 -0.9893 -0.3760
  938MOL0     C29326   6.122   2.550   2.660  0.6995  0.6521 -0.2789
  938MOL0     C29327   6.224   2.638   2.584 -0.5175  0.1581  1.4283
  938MOL0     C29328   6.250   2.568   2.453  0.0433 -0.2221  1.5919
  938MOL0     C29329   6.386   2.604   2.389  0.2364  0.6308  0.0122
  938MOL0     O29330   6.388   2.743   2.375 -0.1632  0.1355 -0.1807
  938MOL0     C29331   6.496   2.813   2.415  0.5800 -0.7529 -0.7674
  938MOL0     C29332   6.475   2.945   2.450 -0.1976 -0.0688 -0.1442
  938MOL0     C29333   6.576   3.023   2.514 -0.5992  0.8133  0.2431
  938MOL0     C29334   6.537   3.166   2.546 -0.2831 -0.3963 -0.3789
  938MOL0     C29335   6.711   2.969   2.531  0.4302  0.4229  0.2347
  938MOL0     C29336   6.834   3.037   2.586  0.3544 -0.5535  0.1694
  938MOL0     O29337   6.806   3.161   2.640 -0.3878  0.6348  0.3481
  938MOL0     C29338   6.899   3.241   2.693 -0.2365  0.1389 -0.3711
  938MOL0     C29339   6.914   3.366   2.632  0.2709 -1.2219 -0.8426
  938MOL0     C29340   7.000   3.460   2.685  0.1477 -0.7709 -0.1883
  938MOL0     C29341   7.057   3.427   2.817 -0.1705 -0.8724  0.1938
  938MOL0     O29342   7.123   3.529   2.887  0.6661  0.2020  0.6425
  938MOL0     C29343   7.033   3.634   2.924  0.0023  0.6163  0.0836
  938MOL0     C29344   7.121   3.748   2.995  0.6463 -0.3880  0.5273
  938MOL0     C29345   7.018   3.857   3.033 -0.0007 -0.6142  0.5313
  938MOL0     C29346   7.087   3.972   3.122  0.4793  0.1002 -0.4718
  938MOL0     C29347   7.035   4.109   3.083 -0.0552 -0.2045  0.1854
  938MOL0     C29348   7.142   4.219   3.107  0.0968  0.1302  0.2738
  938MOL0     C29349   7.222   4.243   2.982  0.7547  0.7292  0.2032
  938MOL0     C29350   7.354   4.324   3.014  0.1479 -0.3621 -0.2664
  938MOL0    Cl29351   7.316   4.466   3.110  0.7557  0.4622 -0.1297
  938MOL0     C29352   7.046   3.304   2.884  0.0068  0.0114  0.6692
  938MOL0     C29353   6.964   3.209   2.821  0.3937 -0.4395  0.1884
  938MOL0     O29354   6.946   2.981   2.573  0.2493  0.8756  0.3862
  938MOL0     C29355   6.726   2.841   2.476 -0.3406  0.6713 -0.7276
  938MOL0     C29356   6.628   2.763   2.415  0.2020 -0.3163 -0.2093
  938MOL0     N29357   6.005   2.665   2.867 -0.1364  0.5898  0.1126
  938MOL0     N29358   6.027   2.709   2.983 -0.2075 -0.0732  0.4926
  938MOL0     C29359   6.755   1.934   3.687  1.2115 -0.4270  0.1212
  938MOL0     C29360   6.804   1.903   3.813 -0.0482 -0.6054  0.2374
  938MOL0     C29361   6.739   1.923   4.287  0.4141 -0.0428 -0.1217
  938MOL0     C29362   6.822   1.824   4.336  0.4079  1.1306 -0.0464
  938MOL0     C29363   6.807   1.770   4.468  0.2095  0.4048 -0.0081
  938MOL0     C29364   6.714   1.821   4.559  0.2521 -0.1125 -0.4752
  938MOL0     O29365   6.682   1.774   4.684  0.0102  0.2852 -0.0100
  938MOL0     C29366   6.741   1.654   4.732  0.1547 -0.0868 -0.9802
  938MOL0     C29367   6.704   1.635   4.879 -0.7602  0.7362 -1.0093
  938MOL0     C29368   6.751   1.753   4.967 -1.1022 -0.0555 -0.8879
  938MOL0     C29369   6.769   1.718   5.113  0.2292 -0.4002 -0.2079
  938MOL0     C29370   6.656   1.672   5.186  0.3898 -0.5271  0.7587
  938MOL0     C29371   6.571   1.624   5.254  1.6718  0.1135 -0.5617
  938MOL0     C29372   6.626   1.917   4.505  0.3767  0.6993  0.0826
  938MOL0     C29373   6.636   1.969   4.372  0.3200  0.8300 -0.1644
  938MOL0     C29374   6.521   2.054   4.331 -0.4261  0.3473 -0.0501
  938MOL0     H29375   6.509   1.911   3.981 -2.3139 -1.3736 -1.5735
  938MOL0     H29376   6.419   1.965   3.758 -0.4695 -4.3764 -0.7772
  938MOL0     H29377   6.376   1.963   3.542 -0.7109 -2.3488  0.2779
  938MOL0     H29378   6.450   1.830   3.435 -0.5205  0.6168 -3.4789
  938MOL0     H29379   6.528   2.016   3.290 -1.7620 -1.2481  0.8656
  938MOL0     H29380   6.355   2.002   3.289 -1.1488  2.0726 -0.7286
  938MOL0     H29381   6.360   2.195   3.469 -0.7374  4.3254 -1.3811
  938MOL0     H29382   6.527   2.207   3.440 -0.9484  3.4410  0.4906
  938MOL0     H29383   6.463   2.269   3.192 -2.3598 -1.5468 -1.2665
  938MOL0     H29384   6.302   2.229   3.223  1.6659 -1.4166 -2.8643
  938MOL0     H29385   6.448   2.451   3.370  0.9184  0.1499 -0.9788
  938MOL0     H29386   6.272   2.411   3.380 -0.9513 -2.3508 -0.3205
  938MOL0     H29387   6.439   2.543   3.169 -0.3329  1.0624  1.3494
  938MOL0     H29388   6.303   2.446   3.104  2.2284  2.3843 -1.7116
  938MOL0     H29389   6.266   2.650   3.321  0.2898  1.6958 -1.4801
  938MOL0     H29390   6.132   2.581   3.239  0.6548  0.1927  3.4881
  938MOL0     H29391   6.180   2.816   3.158 -0.2275 -0.1348  1.2207
  938MOL0     H29392   6.338   2.754   3.099 -0.1609 -0.0741 -2.5148
  938MOL0     H29393   6.319   2.607   2.878  0.7738  1.8247  1.2903
  938MOL0     H29394   6.020   2.540   2.624 -0.1373  1.3399  1.7384
  938MOL0     H29395   6.174   2.454   2.659 -0.0380  0.2495 -1.0150
  938MOL0     H29396   6.177   2.735   2.564  0.5805  0.5894  0.8524
  938MOL0     H29397   6.318   2.641   2.641 -1.8788  1.5249  3.7673
  938MOL0     H29398   6.255   2.459   2.459 -1.0347 -0.2301  2.5822
  938MOL0     H29399   6.175   2.586   2.376  2.9370 -2.0442 -2.0242
  938MOL0     H29400   6.464   2.565   2.455  1.2315  4.1272  1.0831
  938MOL0     H29401   6.379   2.548   2.296 -1.3701 -0.8904  0.9829
  938MOL0     H29402   6.378   2.991   2.439 -0.4928 -0.8038 -0.6563
  938MOL0     H29403   6.438   3.182   2.502 -0.7846 -2.2969 -0.0540
  938MOL0     H29404   6.602   3.233   2.490 -2.3919 -0.6322 -3.3597
  938MOL0     H29405   6.524   3.200   2.649  1.0721  3.0758 -1.2004
  938MOL0     H29406   6.854   3.386   2.544 -2.9193 -0.0318  1.3982
  938MOL0     H29407   7.022   3.556   2.640  1.4987 -0.9987 -0.0302
  938MOL0     H29408   6.982   3.693   2.847 -2.9799 -1.9060 -0.0670
  938MOL0     H29409   6.952   3.593   2.985 -1.0919  2.0211 -0.3847
  938MOL0     H29410   7.162   3.703   3.086  2.0464  1.0884  0.6641
  938MOL0     H29411   7.194   3.791   2.925 -2.2983  1.6025 -1.5933
  938MOL0     H29412   6.934   3.819   3.091  0.2609  0.1567  1.4384
  938MOL0     H29413   6.984   3.900   2.938  0.5011 -0.2572  0.5083
  938MOL0     H29414   7.194   3.974   3.102  0.9314 -0.8461  1.5931
  938MOL0     H29415   7.079   3.954   3.230 -0.4278 -1.3225 -0.7405
  938MOL0     H29416   7.002   4.123   2.980  1.4739  0.1217 -0.2931
  938MOL0     H29417   6.947   4.126   3.146 -0.3695 -3.5818  0.8778
  938MOL0     H29418   7.198   4.185   3.195 -2.1928 -2.0462  1.0136
  938MOL0     H29419   7.093   4.314   3.132 -1.1358 -0.4696  0.2050
  938MOL0     H29420   7.155   4.298   2.915 -1.7301 -2.0357  0.2379
  938MOL0     H29421   7.246   4.153   2.924  0.7064  1.9765 -1.8555
  938MOL0     H29422   7.386   4.361   2.916  0.8031  0.5266  0.2810
  938MOL0     H29423   7.427   4.260   3.064  0.2697  0.5618  0.7693
  938MOL0     H29424   7.098   3.275   2.975  2.5416 -2.6115 -1.4348
  938MOL0     H29425   6.968   3.109   2.865 -0.2677 -0.0228  1.2386
  938MOL0     H29426   6.824   2.796   2.479 -1.4172 -1.8967  2.9523
  938MOL0     H29427   6.642   2.666   2.368  1.8994  1.1817 -3.0548
  938MOL0     H29428   6.825   1.938   3.604  0.9540  3.0856 -0.0805
  938MOL0     H29429   6.909   1.880   3.829 -0.7500 -3.9724  0.7345
  938MOL0     H29430   6.899   1.786   4.270  0.5804 -0.3245  0.9543
  938MOL0     H29431   6.875   1.692   4.502  0.1289  0.9311  1.4391
  938MOL0     H29432   6.704   1.568   4.675 -0.2592 -1.1477  0.8134
  938MOL0     H29433   6.850   1.656   4.721  0.2625 -3.1773 -1.1984
  938MOL0     H29434   6.730   1.534   4.912 -0.8742  0.6703 -1.1245
  938MOL0     H29435   6.595   1.632   4.883 -0.7588 -2.9058  2.2345
  938MOL0     H29436   6.840   1.791   4.917 -0.2753  2.8974  2.3799
  938MOL0     H29437   6.683   1.838   4.953  1.5716  1.8351 -3.7743
  938MOL0     H29438   6.796   1.809   5.167 -2.4719  1.6079 -1.9962
  938MOL0     H29439   6.836   1.631   5.121  0.8506  0.0383 -0.5962
  938MOL0     H29440   6.496   1.570   5.309  2.4136 -0.5515 -0.1874
  938MOL0     H29441   6.545   1.963   4.560  0.2795  0.1187  0.4354
  938MOL0     H29442   6.553   2.154   4.362 -0.3820 -0.1172  1.4901
  938MOL0     H29443   6.516   2.053   4.222 -3.0258  0.5374  0.0151
  938MOL0     H29444   6.422   2.033   4.372 -0.5882 -1.7796 -1.3913
  939MOL0     O29445   4.396   8.529   5.373  0.5657 -0.4894  0.7837
  939MOL0     C29446   4.332   8.613   5.444 -0.4192  0.4083 -0.1906
  939MOL0     O29447   4.371   8.737   5.474 -0.0862 -0.2853  0.2265
  939MOL0     C29448   4.504   8.767   5.446 -0.2073 -0.6679  0.3947
  939MOL0     C29449   4.593   8.778   5.548 -0.3734  0.3971  0.0916
  939MOL0     C29450   4.724   8.800   5.520 -0.3226  0.5311  0.2027
  939MOL0     C29451   4.767   8.819   5.386  0.0535 -0.2708 -0.5386
  939MOL0     O29452   4.893   8.858   5.355 -0.1186  0.4151  0.4980
  939MOL0     C29453   4.976   8.898   5.463 -0.0273 -0.4114  0.7775
  939MOL0     C29454   5.090   8.983   5.396  0.1572  0.4896 -0.7759
  939MOL0     C29455   5.061   9.112   5.329  0.7023  0.3883  0.0568
  939MOL0     C29456   5.204   9.186   5.299  0.5117  0.0677  0.0465
  939MOL0     C29457   5.180   9.335   5.272  0.0145  0.3732 -0.4430
  939MOL0     C29458   5.302   9.413   5.246  0.7347  0.5706 -0.1027
  939MOL0     C29459   5.389   9.380   5.113  0.0040  0.7166 -0.4761
  939MOL0     C29460   5.292   9.394   4.992 -0.4140 -0.3002  0.4957
  939MOL0     N29461   5.274   9.540   4.956 -0.9469  0.2251 -0.4814
  939MOL0     C29462   5.204   9.628   5.031  0.0004  0.0048 -0.1112
  939MOL0     C29463   5.217   9.745   4.963  0.0013 -0.8480  0.1050
  939MOL0     C29464   5.131   9.870   4.972  0.2500  1.1278 -0.3061
  939MOL0     C29465   5.197   9.987   4.901 -0.0790 -0.0436 -0.3510
  939MOL0     C29466   5.137  10.125   4.919  0.4373  0.1636  0.0872
  939MOL0     C29467   5.191  10.225   4.826 -0.2109  0.4293  0.8373
  939MOL0     O29468   5.122  10.218   4.708 -0.3877  0.4378 -0.0290
  939MOL0     C29469   5.140  10.328   4.624  0.8482  0.6882 -0.8977
  939MOL0     C29470   5.251  10.410   4.618 -1.4173 -0.6564  0.4491
  939MOL0     C29471   5.251  10.514   4.527  0.1681  0.1027  0.5105
  939MOL0     C29472   5.370  10.600   4.523 -0.4436 -0.1941  0.0032
  939MOL0     C29473   5.138  10.550   4.450  0.1742  0.0086 -0.3975
  939MOL0     C29474   5.141  10.666   4.354 -1.2749  0.8364  0.2837
  939MOL0     O29475   5.027  10.737   4.341  0.7048  0.1221  0.2964
  939MOL0     C29476   5.007  10.853   4.263  0.6030  1.3028 -0.4547
  939MOL0     C29477   5.082  10.886   4.150 -0.0447  0.0769 -0.0215
  939MOL0     C29478   5.067  11.007   4.086  0.5986  0.0932  0.7210
  939MOL0     C29479   4.971  11.098   4.127 -1.2745  0.2372 -0.2645
  939MOL0     O29480   4.960  11.217   4.058  0.8345 -0.3616  0.4454
  939MOL0     C29481   4.845  11.302   4.065  0.4813  0.2448 -0.2585
  939MOL0     C29482   4.836  11.375   3.937  0.0560  0.0297 -0.2309
  939MOL0     C29483   4.914  11.498   3.954 -0.9483 -0.6431 -0.5194
  939MOL0     C29484   4.935  11.566   3.817 -0.4561  0.2806 -0.1063
  939MOL0     C29485   5.020  11.690   3.841 -0.8827 -0.8276 -0.1571
  939MOL0     C29486   4.937  11.808   3.903 -1.1328 -0.0339 -0.0075
  939MOL0     C29487   5.034  11.923   3.959 -1.0268 -0.2336 -0.3026
  939MOL0     C29488   4.965  12.049   4.016  0.0786 -0.5607  0.4699
  939MOL0    Cl29489   4.867  12.118   3.884 -0.1199  0.2000 -0.1208
  939MOL0     C29490   4.890  11.065   4.230 -0.2445  0.5759 -0.8075
  939MOL0     C29491   4.904  10.938   4.291  0.2270  0.1178  0.3811
  939MOL0     O29492   5.248  10.694   4.296 -0.3967 -0.4576 -0.6394
  939MOL0     C29493   5.029  10.464   4.459  0.1136 -0.3388  0.3519
  939MOL0     C29494   5.034  10.360   4.541  0.5607  0.5425  0.3643
  939MOL0     N29495   5.311   9.729   4.860  0.4964  0.9362  1.1522
  939MOL0     N29496   5.339   9.603   4.854 -0.8772  0.2537 -0.2647
  939MOL0     C29497   4.677   8.820   5.280 -0.3335 -0.1957 -0.2229
  939MOL0     C29498   4.544   8.787   5.307  0.4141 -0.2239 -0.0228
  939MOL0     C29499   4.200   8.579   5.499  0.1712 -0.1797  1.0992
  939MOL0     C29500   4.129   8.483   5.422 -0.7573  0.5411 -0.2284
  939MOL0     C29501   4.003   8.435   5.438  0.1347 -0.6592 -0.1476
  939MOL0     C29502   3.927   8.481   5.550  0.9682 -0.0589  1.2500
  939MOL0     O29503   3.797   8.440   5.556  0.6889 -0.0532 -0.2956
  939MOL0     C29504   3.709   8.502   5.655  0.1182  0.4584 -0.1185
  939MOL0     C29505   3.662   8.639   5.618  0.1156  0.3473 -0.3972
  939MOL0     C29506   3.625   8.735   5.729  0.1077  1.3054 -0.2278
  939MOL0     C29507   3.487   8.726   5.788 -0.1466 -0.0850  0.0342
  939MOL0     C29508   3.402   8.600   5.756  0.7071 -0.2322 -0.5193
  939MOL0     C29509   3.324   8.522   5.704  0.0095 -0.4614  0.0929
  939MOL0     C29510   3.987   8.578   5.639 -0.1214  1.0464 -0.1675
  939MOL0     C29511   4.118   8.626   5.607  0.9169  0.2889 -0.4187
  939MOL0     C29512   4.174   8.727   5.708 -0.1789  0.3946 -0.0508
  939MOL0     H29513   4.556   8.764   5.649 -1.5568  0.3487 -0.3308
  939MOL0     H29514   4.786   8.812   5.608  1.3420 -1.1123 -0.6800
  939MOL0     H29515   5.005   8.810   5.521  0.8004 -0.2536  0.6167
  939MOL0     H29516   4.926   8.963   5.535 -0.9111 -0.0683 -0.1266
  939MOL0     H29517   5.166   9.001   5.474  1.4254 -0.1790 -1.8136
  939MOL0     H29518   5.129   8.910   5.325  0.6452  1.9929 -2.1016
  939MOL0     H29519   5.013   9.098   5.232  1.5151  2.4540 -0.6981
  939MOL0     H29520   5.001   9.168   5.401  1.4767  0.0646  0.9753
  939MOL0     H29521   5.281   9.176   5.377 -0.7880  2.8673  1.8533
  939MOL0     H29522   5.237   9.124   5.215 -3.7706  0.8287 -2.4656
  939MOL0     H29523   5.121   9.371   5.357  0.1374  0.5151 -0.4177
  939MOL0     H29524   5.109   9.360   5.193 -0.6227  3.0954  0.8728
  939MOL0     H29525   5.287   9.521   5.257 -1.5955  0.1993  0.9442
  939MOL0     H29526   5.370   9.388   5.327 -0.1421  0.9918  0.7917
  939MOL0     H29527   5.433   9.280   5.127  1.9810  1.5558 -0.3996
  939MOL0     H29528   5.467   9.453   5.091  2.5918 -1.9673 -0.8148
  939MOL0     H29529   5.351   9.351   4.911 -0.4496 -1.9153  1.2682
  939MOL0     H29530   5.203   9.331   5.005  0.8299 -2.1790  0.3679
  939MOL0     H29531   5.141   9.612   5.118  0.7420  3.5320  1.2375
  939MOL0     H29532   5.130   9.881   5.081  1.3500  1.2764 -0.2948
  939MOL0     H29533   5.029   9.849   4.939 -0.1147 -0.5519  1.7111
  939MOL0     H29534   5.298  10.014   4.933 -0.7652  3.6340 -0.8993
  939MOL0     H29535   5.198   9.960   4.794  3.2166 -0.0111 -0.4209
  939MOL0     H29536   5.029  10.126   4.904  0.1619  0.2273  1.8005
  939MOL0     H29537   5.166  10.157   5.020 -0.6723 -0.9064  0.7851
  939MOL0     H29538   5.185  10.324   4.872  0.9492  0.1165  1.7031
  939MOL0     H29539   5.296  10.197   4.809 -0.4300  1.1425 -2.5182
  939MOL0     H29540   5.333  10.400   4.689 -1.0005  0.4918  0.1601
  939MOL0     H29541   5.333  10.703   4.536 -0.6400  0.2001 -2.9562
  939MOL0     H29542   5.436  10.596   4.437  1.9247  1.3987  1.6111
  939MOL0     H29543   5.446  10.575   4.598  1.5147 -0.9863 -2.1629
  939MOL0     H29544   5.139  10.811   4.096  0.6770  2.1612 -2.3603
  939MOL0     H29545   5.134  11.028   4.002  1.9584  4.5539  2.6043
  939MOL0     H29546   4.761  11.232   4.062 -0.7570  1.6816 -0.1568
  939MOL0     H29547   4.846  11.358   4.159 -0.1345 -1.1985  0.6491
  939MOL0     H29548   4.856  11.309   3.853 -1.1101 -0.6773  0.0262
  939MOL0     H29549   4.732  11.407   3.947  0.2744  0.5775  0.3948
  939MOL0     H29550   5.017  11.476   3.982 -0.2694 -0.1474 -2.5262
  939MOL0     H29551   4.861  11.562   4.026 -2.6923 -3.3054  0.7277
  939MOL0     H29552   4.837  11.595   3.778 -1.7355 -2.4299  0.8569
  939MOL0     H29553   4.970  11.492   3.744  2.8542  1.8531 -0.2984
  939MOL0     H29554   5.101  11.669   3.911 -0.7302 -1.2223 -0.4457
  939MOL0     H29555   5.078  11.717   3.752  0.4951 -3.3814 -0.1334
  939MOL0     H29556   4.874  11.780   3.987  1.5089  2.6014  3.1405
  939MOL0     H29557   4.868  11.847   3.828 -0.7707  0.6300 -0.0096
  939MOL0     H29558   5.089  11.955   3.870 -3.0084  0.4227 -1.3585
  939MOL0     H29559   5.101  11.870   4.027 -0.5216 -2.4551 -2.4011
  939MOL0     H29560   5.046  12.120   4.033  2.2775 -3.0095  0.8957
  939MOL0     H29561   4.899  12.027   4.100  0.1022  0.7005  0.8339
  939MOL0     H29562   4.805  11.130   4.250  0.8574  3.3927 -4.1956
  939MOL0     H29563   4.833  10.910   4.368  1.6512  1.1353  2.1227
  939MOL0     H29564   4.935  10.475   4.405  0.0404 -1.6619  0.1602
  939MOL0     H29565   4.943  10.302   4.554 -0.1704  1.7497  0.7875
  939MOL0     H29566   4.704   8.835   5.176 -4.9739 -0.7451 -1.7690
  939MOL0     H29567   4.471   8.777   5.228  1.0781 -2.4221 -0.4173
  939MOL0     H29568   4.178   8.438   5.336 -1.4657 -3.4175  1.2292
  939MOL0     H29569   3.950   8.362   5.377  0.6132 -1.1385  0.0004
  939MOL0     H29570   3.626   8.433   5.677  1.6952 -0.6745  2.8404
  939MOL0     H29571   3.753   8.505   5.755  0.9250  0.1198 -0.4545
  939MOL0     H29572   3.571   8.623   5.560 -1.1366 -1.0507  1.7802
  939MOL0     H29573   3.736   8.697   5.562 -2.0739  4.1745  0.2922
  939MOL0     H29574   3.695   8.709   5.809 -1.2107 -1.1521  0.2223
  939MOL0     H29575   3.653   8.835   5.696  2.1549  1.4827  1.8045
  939MOL0     H29576   3.439   8.808   5.734  1.8745  1.9602  1.2068
  939MOL0     H29577   3.487   8.747   5.895 -1.6941 -2.0428  0.4774
  939MOL0     H29578   3.263   8.443   5.665  2.3405 -1.7829 -1.1698
  939MOL0     H29579   3.931   8.614   5.724  0.4126 -3.6231  2.5254
  939MOL0     H29580   4.271   8.701   5.751 -0.5274  0.9438  1.0934
  939MOL0     H29581   4.183   8.822   5.655 -1.6888  0.6484  0.1114
  939MOL0     H29582   4.103   8.743   5.789 -1.4159  0.8383 -1.1763
  940MOL0     O29583   3.104  10.088   6.666 -0.6490  0.3319  0.0577
  940MOL0     C29584   3.114  10.210   6.632  0.4447  0.2494 -1.2631
  940MOL0     O29585   3.028  10.266   6.546  0.1765 -0.0254  0.0262
  940MOL0     C29586   2.901  10.212   6.525  0.1470  0.1536  0.3496
  940MOL0     C29587   2.803  10.293   6.574 -0.9388 -0.6162  0.4339
  940MOL0     C29588   2.661  10.265   6.566  0.1069 -0.0759 -0.5365
  940MOL0     C29589   2.624  10.150   6.497  0.8402 -0.6354  0.0481
  940MOL0     O29590   2.489  10.115   6.474  0.5712  0.0200  0.0819
  940MOL0     C29591   2.396  10.136   6.572  0.1494 -0.1817 -0.2879
  940MOL0     C29592   2.253  10.092   6.520 -0.3700 -0.6609  0.1497
  940MOL0     C29593   2.194  10.193   6.411 -0.4445  0.3906  0.2110
  940MOL0     C29594   2.252  10.171   6.263 -0.3311 -0.0705 -0.1107
  940MOL0     C29595   2.167  10.220   6.139 -0.6150 -0.6679  0.1432
  940MOL0     C29596   2.169  10.370   6.139 -0.3318 -0.5644 -0.5013
  940MOL0     C29597   2.030  10.420   6.102  0.3358  0.4362  0.3022
  940MOL0     C29598   1.986  10.377   5.973 -0.1129  0.5690 -0.6722
  940MOL0     N29599   2.058  10.429   5.858  0.0488  0.3512 -0.1675
  940MOL0     C29600   2.174  10.385   5.803 -0.1421 -0.5305 -1.0593
  940MOL0     C29601   2.198  10.478   5.702  0.3809 -0.0786  1.1687
  940MOL0     C29602   2.318  10.455   5.613 -0.9644 -0.4682 -0.4381
  940MOL0     C29603   2.360  10.594   5.533 -0.7402 -0.2846 -0.1267
  940MOL0     C29604   2.472  10.568   5.432  0.3060 -0.7555 -0.1230
  940MOL0     C29605   2.615  10.575   5.487  0.2328  0.1831  0.7114
  940MOL0     O29606   2.635  10.671   5.599  1.1329  0.3553  0.4199
  940MOL0     C29607   2.755  10.725   5.641 -1.3063  0.6481  0.3295
  940MOL0     C29608   2.771  10.861   5.622 -0.3509  0.7913 -0.2455
  940MOL0     C29609   2.884  10.920   5.670 -0.2320  0.7524 -0.0577
  940MOL0     C29610   2.884  11.066   5.679 -0.0053  1.2169 -0.0421
  940MOL0     C29611   2.995  10.843   5.712  0.3790 -0.4260 -0.0486
  940MOL0     C29612   3.123  10.898   5.746  0.1086  0.2290 -0.1565
  940MOL0     O29613   3.219  10.820   5.824  0.3669 -0.6662  0.3616
  940MOL0     C29614   3.350  10.865   5.813 -0.3421 -0.1071  0.6882
  940MOL0     C29615   3.383  10.999   5.842  0.0821  0.2914  0.4017
  940MOL0     C29616   3.513  11.049   5.810 -0.1540  0.2655  0.3648
  940MOL0     C29617   3.621  10.961   5.769  0.8358  0.3100 -0.5712
  940MOL0     O29618   3.747  11.014   5.757  0.1676  0.0116 -0.3170
  940MOL0     C29619   3.854  10.920   5.795 -0.6021 -0.0560  0.6040
  940MOL0     C29620   3.985  11.000   5.781 -0.4297 -0.0076  0.9918
  940MOL0     C29621   4.099  10.912   5.833  0.2816  0.2591 -0.2319
  940MOL0     C29622   4.245  10.960   5.800 -0.3561 -0.5789  0.1550
  940MOL0     C29623   4.264  11.006   5.650 -0.2333 -0.2755  0.1930
  940MOL0     C29624   4.406  11.061   5.615 -0.0890  0.3064 -0.2157
  940MOL0     C29625   4.510  10.949   5.597  0.1918  0.1546 -0.6274
  940MOL0     C29626   4.651  10.989   5.614 -0.0474  0.1152  0.1537
  940MOL0    Cl29627   4.683  11.132   5.501  0.3329 -0.1177  0.0097
  940MOL0     C29628   3.585  10.830   5.746  0.4384  0.8015 -0.2342
  940MOL0     C29629   3.456  10.786   5.765 -0.0359 -0.0822 -1.6208
  940MOL0     O29630   3.152  11.004   5.690  0.0189 -0.4680 -0.5111
  940MOL0     C29631   2.979  10.710   5.710 -0.8384  0.4362  1.1555
  940MOL0     C29632   2.863  10.647   5.662 -0.8151 -0.2976 -0.2769
  940MOL0     N29633   2.100  10.569   5.693  0.6682  0.1514  0.8611
  940MOL0     N29634   2.017  10.542   5.791  0.1535 -0.4854 -0.6665
  940MOL0     C29635   2.720  10.083   6.428 -1.1932  0.7678 -0.5341
  940MOL0     C29636   2.863  10.112   6.442  0.4239 -0.6157  0.2089
  940MOL0     C29637   3.224  10.285   6.686 -0.1540  0.3610  0.3574
  940MOL0     C29638   3.240  10.425   6.651 -0.0659  0.0837  1.4070
  940MOL0     C29639   3.339  10.506   6.689  1.0212  0.0445  0.2764
  940MOL0     C29640   3.436  10.450   6.771  0.5996  0.3177 -0.0288
  940MOL0     O29641   3.545  10.521   6.819  0.7732  0.9487 -0.6462
  940MOL0     C29642   3.574  10.645   6.756  0.9927  0.0726 -0.2275
  940MOL0     C29643   3.718  10.687   6.791  0.1855  0.3135  0.1243
  940MOL0     C29644   3.744  10.815   6.723 -0.2123 -0.4857 -0.1323
  940MOL0     C29645   3.879  10.874   6.757 -0.0809  0.2645 -0.0459
  940MOL0     C29646   3.883  11.012   6.719 -0.3223  0.8891  0.2702
  940MOL0     C29647   3.892  11.131   6.689 -0.5685 -0.3907 -0.5264
  940MOL0     C29648   3.424  10.318   6.824 -0.8199 -0.0394 -0.2346
  940MOL0     C29649   3.317  10.232   6.787  0.4018  0.1842  0.9164
  940MOL0     C29650   3.306  10.101   6.853  0.4899  0.2397  0.1833
  940MOL0     H29651   2.834  10.387   6.618  2.2890 -1.9162  1.2180
  940MOL0     H29652   2.596  10.336   6.615 -0.0377 -0.1111 -0.6761
  940MOL0     H29653   2.391  10.241   6.600 -0.8293 -0.6445  1.3857
  940MOL0     H29654   2.429  10.094   6.667  1.7761  1.5853 -0.0214
  940MOL0     H29655   2.248   9.989   6.484  0.4426 -0.1446 -1.5380
  940MOL0     H29656   2.191  10.095   6.610  1.7644 -2.7990  1.8174
  940MOL0     H29657   2.089  10.165   6.396  0.2528 -0.8140 -3.3708
  940MOL0     H29658   2.197  10.298   6.439 -1.3254  0.0670  1.6607
  940MOL0     H29659   2.356  10.201   6.248 -0.2520 -0.9154 -1.3453
  940MOL0     H29660   2.252  10.063   6.250 -2.7832 -0.0149 -1.0458
  940MOL0     H29661   2.065  10.183   6.152 -0.9664  0.5360  0.9634
  940MOL0     H29662   2.198  10.174   6.044  0.9473 -1.4083  0.9713
  940MOL0     H29663   2.182  10.398   6.244  1.8490  1.3790 -1.1857
  940MOL0     H29664   2.253  10.411   6.082  0.6729  1.0165  1.9792
  940MOL0     H29665   2.032  10.529   6.097  2.3825  0.5187  1.5274
  940MOL0     H29666   1.955  10.405   6.180 -0.1387 -0.1593 -0.2607
  940MOL0     H29667   1.982  10.268   5.965  0.5343  0.4322  0.6528
  940MOL0     H29668   1.885  10.416   5.954  0.0815  0.5358 -1.8677
  940MOL0     H29669   2.229  10.297   5.836  0.0076  0.4597  1.6179
  940MOL0     H29670   2.301  10.379   5.536 -1.5535  1.7499 -2.6419
  940MOL0     H29671   2.403  10.418   5.670 -1.0279 -1.0388 -0.7039
  940MOL0     H29672   2.274  10.635   5.480  0.0590  1.7001  0.0300
  940MOL0     H29673   2.395  10.659   5.614  2.2370  0.0508 -1.5483
  940MOL0     H29674   2.462  10.471   5.382 -1.0225 -1.7282  1.9047
  940MOL0     H29675   2.465  10.643   5.352  1.2932 -1.7089 -1.1445
  940MOL0     H29676   2.650  10.476   5.516  0.1491  0.3876  1.5699
  940MOL0     H29677   2.669  10.621   5.404 -0.7847  2.5094  1.2467
  940MOL0     H29678   2.693  10.917   5.573 -0.1052  0.4895 -0.9982
  940MOL0     H29679   2.943  11.114   5.600  1.0889  0.7303  0.4551
  940MOL0     H29680   2.921  11.091   5.779 -1.8888  1.8615  0.5214
  940MOL0     H29681   2.780  11.097   5.667 -1.7305 -3.6895  0.1594
  940MOL0     H29682   3.300  11.066   5.861 -2.2690 -2.1381 -0.7434
  940MOL0     H29683   3.544  11.152   5.802  0.8158 -0.1151 -1.4675
  940MOL0     H29684   3.837  10.887   5.898  0.2443  1.1880  1.1627
  940MOL0     H29685   3.859  10.832   5.730  2.1610  0.3754  0.0977
  940MOL0     H29686   4.012  11.021   5.678 -0.4010  3.1194  1.5566
  940MOL0     H29687   3.986  11.093   5.838  0.3838  1.3265 -1.1017
  940MOL0     H29688   4.091  10.814   5.784 -0.5027  0.4700 -0.5367
  940MOL0     H29689   4.089  10.901   5.941  3.3708  0.7001  0.2124
  940MOL0     H29690   4.321  10.882   5.811  0.8917  0.1489 -2.5380
  940MOL0     H29691   4.269  11.051   5.855  2.1781 -0.5049 -0.9530
  940MOL0     H29692   4.225  10.924   5.589  1.1760  0.1933 -1.4173
  940MOL0     H29693   4.193  11.087   5.631 -0.2489  0.3051  2.3643
  940MOL0     H29694   4.438  11.123   5.699  2.0776  1.9398 -2.1073
  940MOL0     H29695   4.408  11.129   5.529 -0.0729  2.6063  1.5109
  940MOL0     H29696   4.511  10.910   5.494  2.1816  1.7876 -1.2864
  940MOL0     H29697   4.481  10.869   5.666  0.9031  0.3403 -0.1064
  940MOL0     H29698   4.725  10.912   5.591  0.6903 -0.2382  3.3551
  940MOL0     H29699   4.665  11.017   5.718 -2.0013 -0.0065  0.4823
  940MOL0     H29700   3.659  10.752   5.735  3.2321  3.0258  1.3793
  940MOL0     H29701   3.435  10.682   5.740 -0.2571 -0.6402  0.6598
  940MOL0     H29702   3.060  10.647   5.745  1.0779  1.5874 -0.9407
  940MOL0     H29703   2.859  10.539   5.650  0.3571 -0.4116  0.1765
  940MOL0     H29704   2.693   9.989   6.380  0.4102 -0.8984  1.6515
  940MOL0     H29705   2.941  10.065   6.384  2.5164  1.4959  1.1475
  940MOL0     H29706   3.170  10.470   6.583 -1.3286 -0.6374  2.1855
  940MOL0     H29707   3.333  10.608   6.652  1.3041  0.4928  1.4395
  940MOL0     H29708   3.567  10.618   6.651 -2.6845 -2.5210  0.4806
  940MOL0     H29709   3.505  10.726   6.780  0.7803 -0.8102  2.4864
  940MOL0     H29710   3.792  10.613   6.759 -1.1510 -1.7705  1.5740
  940MOL0     H29711   3.728  10.703   6.899  2.1217  1.3279 -0.1641
  940MOL0     H29712   3.733  10.803   6.615 -1.1923 -2.0885  0.1161
  940MOL0     H29713   3.667  10.885   6.755  0.7563  1.2513 -1.4153
  940MOL0     H29714   3.959  10.816   6.710  0.3639 -0.7592  1.8936
  940MOL0     H29715   3.899  10.880   6.864 -1.6471  1.8016  0.1941
  940MOL0     H29716   3.899  11.236   6.667  0.6960 -0.6574 -1.5660
  940MOL0     H29717   3.502  10.284   6.891 -0.1174  2.4350  0.3026
  940MOL0     H29718   3.325  10.019   6.783 -1.9643 -0.2540  0.0145
  940MOL0     H29719   3.383  10.096   6.930 -0.7413 -2.3025  1.3898
  940MOL0     H29720   3.209  10.076   6.896  0.0846 -0.3335 -0.9990
  941MOL0     O29721   7.063   6.297   0.510  0.2444 -0.0568  0.4432
  941MOL0     C29722   7.173   6.332   0.552  0.2338  0.2468 -0.2823
  941MOL0     O29723   7.181   6.400   0.665  0.4233 -0.6076  0.0772
  941MOL0     C29724   7.068   6.453   0.719  0.4285  0.4299 -0.7169
  941MOL0     C29725   7.032   6.420   0.847  0.5970  0.2440  0.3947
  941MOL0     C29726   6.913   6.480   0.905  0.5519  0.4678  1.4315
  941MOL0     C29727   6.837   6.575   0.838  0.1642  0.3236 -1.3486
  941MOL0     O29728   6.715   6.618   0.884  0.3785 -0.1259  0.2652
  941MOL0     C29729   6.663   6.577   1.013  0.1574 -0.2948 -0.5402
  941MOL0     C29730   6.522   6.620   1.068 -0.0871  0.4144  0.2108
  941MOL0     C29731   6.492   6.579   1.214 -0.0164  0.0742  0.0007
  941MOL0     C29732   6.506   6.430   1.238 -0.1346  0.5148 -0.5338
  941MOL0     C29733   6.483   6.389   1.384  1.0447  0.5568 -1.0901
  941MOL0     C29734   6.506   6.232   1.404  0.1191 -0.7681  0.3936
  941MOL0     C29735   6.365   6.174   1.433 -0.9571  0.2358  0.0992
  941MOL0     C29736   6.366   6.039   1.497  0.0618  0.7542 -0.1466
  941MOL0     N29737   6.236   5.974   1.482  0.6101  0.3181  0.4438
  941MOL0     C29738   6.126   5.978   1.564 -0.3230 -1.2346  0.7436
  941MOL0     C29739   6.037   5.878   1.525 -0.3136 -0.4782  0.7577
  941MOL0     C29740   5.908   5.830   1.573  0.0467 -0.3240  0.5954
  941MOL0     C29741   5.778   5.892   1.512 -0.4016  0.0062 -0.3625
  941MOL0     C29742   5.724   6.014   1.586 -0.5929  1.0259 -0.4819
  941MOL0     C29743   5.627   6.091   1.500  0.3473 -0.7893 -0.3731
  941MOL0     O29744   5.588   6.208   1.569  0.5682  0.0041 -0.4922
  941MOL0     C29745   5.583   6.307   1.481  0.3243  0.6720  0.7044
  941MOL0     C29746   5.664   6.421   1.493 -0.4056 -0.6044 -0.7395
  941MOL0     C29747   5.663   6.534   1.406 -0.3492 -0.0250  0.4458
  941MOL0     C29748   5.755   6.644   1.440  0.0690 -0.1022  0.6193
  941MOL0     C29749   5.567   6.536   1.305 -0.3010  0.4934  0.1761
  941MOL0     C29750   5.549   6.651   1.219  0.6201 -0.7351  0.9509
  941MOL0     O29751   5.627   6.764   1.225  0.2120 -0.2354 -0.4655
  941MOL0     C29752   5.584   6.877   1.159 -0.2362 -0.1710 -0.4726
  941MOL0     C29753   5.487   6.960   1.225 -0.1039  1.2419 -0.5413
  941MOL0     C29754   5.434   7.064   1.155  0.3179 -0.0009  0.7113
  941MOL0     C29755   5.496   7.107   1.041 -0.4141  0.3799  0.2641
  941MOL0     O29756   5.445   7.229   0.994 -0.0784  0.0441 -0.0698
  941MOL0     C29757   5.512   7.292   0.883 -0.0070  0.3283 -0.1286
  941MOL0     C29758   5.455   7.435   0.865 -0.1069 -0.0316  0.5443
  941MOL0     C29759   5.297   7.427   0.861 -0.5089 -0.4839  0.5984
  941MOL0     C29760   5.235   7.564   0.834 -0.0770  0.3891  0.9692
  941MOL0     C29761   5.079   7.559   0.854  0.7961 -0.1860  0.3824
  941MOL0     C29762   5.016   7.683   0.803  0.0787 -0.5147  0.6334
  941MOL0     C29763   4.865   7.675   0.775  0.1633 -0.2019 -0.5143
  941MOL0     C29764   4.795   7.807   0.799  0.7590  0.1612 -0.1342
  941MOL0    Cl29765   4.795   7.839   0.971  0.8668 -0.3750 -0.1177
  941MOL0     C29766   5.603   7.035   0.988  0.2335  0.4976 -0.4294
  941MOL0     C29767   5.637   6.910   1.040 -0.9394  0.2290 -1.3253
  941MOL0     O29768   5.467   6.629   1.124 -0.0003 -0.0857 -0.8146
  941MOL0     C29769   5.481   6.426   1.297  0.4408  0.1507 -0.3431
  941MOL0     C29770   5.489   6.313   1.382  0.8464 -1.0490  0.5285
  941MOL0     N29771   6.098   5.819   1.420  0.4864 -0.3883  0.6328
  941MOL0     N29772   6.212   5.875   1.393  0.2710  0.0384 -0.2807
  941MOL0     C29773   6.885   6.618   0.714 -0.4615 -0.4732  0.3658
  941MOL0     C29774   6.999   6.558   0.665 -0.0326 -0.6431  0.3464
  941MOL0     C29775   7.294   6.263   0.492 -0.2929 -0.1544 -1.3033
  941MOL0     C29776   7.411   6.242   0.570 -0.2712 -0.3756  0.3955
  941MOL0     C29777   7.537   6.194   0.517 -0.0128 -0.4748  0.1919
  941MOL0     C29778   7.538   6.136   0.392 -0.3000 -1.6188 -0.1474
  941MOL0     O29779   7.658   6.083   0.367 -0.2202 -1.0197 -0.7573
  941MOL0     C29780   7.656   6.007   0.247 -0.6235 -0.2025  0.4503
  941MOL0     C29781   7.786   5.933   0.210 -0.6091  0.8334  0.6226
  941MOL0     C29782   7.807   5.806   0.289  0.7559  0.9102  0.6695
  941MOL0     C29783   7.922   5.712   0.229 -0.0942 -0.3244  0.2353
  941MOL0     C29784   8.047   5.761   0.291  0.1777 -0.8914  0.6541
  941MOL0     C29785   8.138   5.807   0.343  0.3233 -0.7121  0.1724
  941MOL0     C29786   7.423   6.161   0.313  0.5056 -0.2642  0.8961
  941MOL0     C29787   7.301   6.218   0.359  0.5467  0.2885  0.9840
  941MOL0     C29788   7.194   6.232   0.251 -0.3449 -0.2230 -0.4024
  941MOL0     H29789   7.074   6.339   0.907 -0.0884  0.2293  0.8661
  941MOL0     H29790   6.888   6.451   1.007 -3.0851  3.3678  1.5898
  941MOL0     H29791   6.739   6.592   1.090  1.6387 -0.6427 -1.8874
  941MOL0     H29792   6.660   6.467   1.006  1.5162 -0.5357  1.6280
  941MOL0     H29793   6.516   6.729   1.059  0.2263  0.4356  0.2667
  941MOL0     H29794   6.456   6.572   0.994  1.8065 -2.0087 -0.0140
  941MOL0     H29795   6.539   6.645   1.287  2.3610 -0.1301 -1.2179
  941MOL0     H29796   6.386   6.604   1.222 -0.0200 -0.4415  1.9114
  941MOL0     H29797   6.433   6.377   1.176 -1.8570  0.5343  1.3948
  941MOL0     H29798   6.606   6.397   1.207  0.4501  1.2562  0.4887
  941MOL0     H29799   6.388   6.433   1.417  1.0507  1.3316 -2.0650
  941MOL0     H29800   6.556   6.450   1.440  0.3982  1.3813 -1.1330
  941MOL0     H29801   6.552   6.180   1.320 -0.1185 -1.3422  0.6139
  941MOL0     H29802   6.572   6.214   1.490  0.0198 -2.3636  0.1647
  941MOL0     H29803   6.328   6.162   1.331 -1.1382  0.0045  0.1902
  941MOL0     H29804   6.307   6.239   1.499  0.0000  0.7463  0.4692
  941MOL0     H29805   6.442   5.973   1.454 -0.4610 -1.7813  2.4938
  941MOL0     H29806   6.402   6.046   1.600  0.2033 -0.8274 -0.0546
  941MOL0     H29807   6.122   6.041   1.653  0.3968 -0.8411  0.5024
  941MOL0     H29808   5.910   5.858   1.678  1.9401  1.0424  0.2425
  941MOL0     H29809   5.906   5.724   1.546 -1.4887 -0.2709  0.4269
  941MOL0     H29810   5.810   5.916   1.410 -0.5236  0.3830 -0.3149
  941MOL0     H29811   5.694   5.822   1.508 -0.5690  0.2223 -0.6409
  941MOL0     H29812   5.676   5.980   1.678 -1.3407 -2.8624 -2.1106
  941MOL0     H29813   5.805   6.081   1.616  0.2035  0.9470 -2.3330
  941MOL0     H29814   5.684   6.115   1.409 -1.0032  0.3044 -0.9664
  941MOL0     H29815   5.537   6.037   1.470 -0.0637 -1.5269  1.9759
  941MOL0     H29816   5.737   6.421   1.573  2.6988  0.3522 -3.3900
  941MOL0     H29817   5.809   6.669   1.348  0.4330  2.6015  1.4725
  941MOL0     H29818   5.836   6.609   1.505  2.7895  0.2873 -2.2943
  941MOL0     H29819   5.711   6.742   1.461 -1.3462  0.4009 -3.7733
  941MOL0     H29820   5.447   6.934   1.322 -4.0236  0.5992 -2.1345
  941MOL0     H29821   5.355   7.128   1.193 -0.0518 -0.1915  0.2782
  941MOL0     H29822   5.612   7.323   0.914 -0.5146  2.7343 -0.6549
  941MOL0     H29823   5.520   7.240   0.787  1.3207 -0.2094  0.2523
  941MOL0     H29824   5.490   7.497   0.948  2.7347  1.4535 -1.5734
  941MOL0     H29825   5.496   7.475   0.772  0.4172 -2.1322 -0.1701
  941MOL0     H29826   5.260   7.376   0.951 -0.7500 -1.9314 -0.2855
  941MOL0     H29827   5.256   7.350   0.796 -1.2370 -2.0348  2.8017
  941MOL0     H29828   5.263   7.599   0.735  1.2996 -1.2094  0.7526
  941MOL0     H29829   5.283   7.627   0.911  0.7010 -1.3673  1.9746
  941MOL0     H29830   5.030   7.471   0.814 -3.4991  0.9097  2.6227
  941MOL0     H29831   5.048   7.549   0.959  1.0207  2.0099  0.7170
  941MOL0     H29832   5.056   7.722   0.709 -0.7886 -1.8485 -0.3144
  941MOL0     H29833   5.050   7.767   0.866 -0.0075  2.1297 -2.5763
  941MOL0     H29834   4.824   7.602   0.845 -0.1653  0.0295 -0.4639
  941MOL0     H29835   4.841   7.636   0.675 -1.1985 -1.8931  0.4129
  941MOL0     H29836   4.692   7.786   0.769  0.9699  0.5513 -1.1402
  941MOL0     H29837   4.830   7.886   0.733 -2.5359  0.6538 -1.5042
  941MOL0     H29838   5.648   7.072   0.896  0.2763 -0.4096 -0.7884
  941MOL0     H29839   5.714   6.861   0.981  0.2124  0.1707  0.1533
  941MOL0     H29840   5.400   6.427   1.224  0.6303 -0.6556 -0.5721
  941MOL0     H29841   5.412   6.237   1.367  1.3028 -1.4838  0.3565
  941MOL0     H29842   6.828   6.695   0.663  1.7815  1.6909  0.9613
  941MOL0     H29843   7.037   6.595   0.570 -0.6430 -0.5091  0.1525
  941MOL0     H29844   7.415   6.257   0.677 -1.5607  0.7875  0.3088
  941MOL0     H29845   7.627   6.187   0.577  1.8798  0.3527 -2.3417
  941MOL0     H29846   7.580   5.928   0.245 -0.2837 -0.5232  0.0982
  941MOL0     H29847   7.634   6.085   0.173  0.2870  1.9483  2.3149
  941MOL0     H29848   7.870   6.002   0.214 -1.2055  1.8082 -1.6825
  941MOL0     H29849   7.777   5.907   0.104  2.1410 -2.4118  1.0149
  941MOL0     H29850   7.838   5.836   0.389  0.8250  1.1863  0.5662
  941MOL0     H29851   7.714   5.750   0.284  0.1272  1.9648  0.0043
  941MOL0     H29852   7.922   5.700   0.121 -0.6094 -1.7487  0.3761
  941MOL0     H29853   7.896   5.615   0.272  0.6121 -1.9299 -2.7013
  941MOL0     H29854   8.218   5.837   0.408 -0.8135  1.1680  0.7793
  941MOL0     H29855   7.425   6.124   0.211  3.4897 -0.2882  0.8733
  941MOL0     H29856   7.096   6.257   0.294  1.0722  3.7540  0.9104
  941MOL0     H29857   7.212   6.316   0.184  1.5463 -0.9701 -0.8926
  941MOL0     H29858   7.190   6.139   0.192  3.3273 -0.9873  0.3590
  942MOL0     O29859   0.405   4.618   7.556 -0.0339  0.1889 -0.1017
  942MOL0     C29860   0.316   4.693   7.596 -0.3093 -0.0895  0.3745
  942MOL0     O29861   0.287   4.717   7.726  0.0730  0.3280 -0.3262
  942MOL0     C29862   0.374   4.692   7.822 -0.6735  0.6156  0.6851
  942MOL0     C29863   0.492   4.767   7.837  0.7310  0.1988  0.1485
  942MOL0     C29864   0.571   4.751   7.960 -0.0266 -0.4308 -0.1140
  942MOL0     C29865   0.545   4.641   8.046 -0.6340 -0.4263  0.8207
  942MOL0     O29866   0.631   4.607   8.152  0.5174  0.0435 -0.2673
  942MOL0     C29867   0.718   4.710   8.213  0.3910 -0.1879  0.1114
  942MOL0     C29868   0.858   4.699   8.151 -0.2072  0.2602 -0.1601
  942MOL0     C29869   0.951   4.819   8.198 -0.0067  0.3092 -0.0830
  942MOL0     C29870   0.897   4.962   8.197  0.2628 -0.0881 -0.7705
  942MOL0     C29871   0.993   5.071   8.265 -0.8019  1.2965  0.7156
  942MOL0     C29872   1.146   5.063   8.228  0.0420  0.0396 -0.0351
  942MOL0     C29873   1.150   5.112   8.082 -0.8178 -0.7884 -0.0685
  942MOL0     C29874   1.308   5.120   8.060  0.5008 -0.1254 -0.1528
  942MOL0     N29875   1.340   5.175   7.928 -0.9840  0.3186 -0.0506
  942MOL0     C29876   1.327   5.303   7.880 -0.4513  0.9822  0.2274
  942MOL0     C29877   1.361   5.295   7.753 -0.1212  0.1850  0.4694
  942MOL0     C29878   1.345   5.415   7.662 -0.2068 -0.0703 -0.0401
  942MOL0     C29879   1.441   5.388   7.540  0.3134 -0.3716 -0.0867
  942MOL0     C29880   1.442   5.500   7.437  0.3351  0.1467  0.3311
  942MOL0     C29881   1.527   5.470   7.321  0.4716  0.1318  0.6602
  942MOL0     O29882   1.659   5.424   7.350  0.0883  0.0605 -0.4342
  942MOL0     C29883   1.744   5.512   7.404 -0.1347  0.5711  0.3871
  942MOL0     C29884   1.739   5.653   7.399  1.0176  0.0892  0.2885
  942MOL0     C29885   1.829   5.742   7.449 -0.3908  1.6838  0.2356
  942MOL0     C29886   1.804   5.884   7.411  0.7352 -0.0568 -1.3964
  942MOL0     C29887   1.944   5.697   7.524  0.6832  0.6446  0.5951
  942MOL0     C29888   2.049   5.785   7.579 -0.3415 -1.0355  0.2359
  942MOL0     O29889   2.154   5.718   7.640  0.6704  0.0182 -0.0203
  942MOL0     C29890   2.259   5.793   7.676 -0.7288  0.5144 -0.1835
  942MOL0     C29891   2.378   5.765   7.606 -0.0071 -0.5614 -0.1085
  942MOL0     C29892   2.493   5.827   7.647 -0.0822  0.2643 -0.5362
  942MOL0     C29893   2.491   5.930   7.748  0.4668 -0.2643 -0.0193
  942MOL0     O29894   2.595   5.999   7.805 -0.5829  0.5146 -0.3698
  942MOL0     C29895   2.726   5.976   7.759  0.0195  0.1916 -0.0430
  942MOL0     C29896   2.828   6.073   7.811 -0.0884  0.1055  0.7122
  942MOL0     C29897   2.850   6.046   7.956 -0.7145 -0.3460  0.1880
  942MOL0     C29898   2.861   6.175   8.039 -0.7539  0.2830 -0.4648
  942MOL0     C29899   3.005   6.234   8.024  0.3418 -0.5922 -0.7652
  942MOL0     C29900   3.008   6.375   8.095 -0.8535 -0.1901  0.0920
  942MOL0     C29901   3.088   6.377   8.218  0.4330 -0.9571  0.2619
  942MOL0     C29902   3.088   6.523   8.272  0.3750 -0.0620 -0.1006
  942MOL0    Cl29903   3.211   6.552   8.392 -0.2197 -0.2961 -0.7477
  942MOL0     C29904   2.362   5.961   7.804 -0.3004 -0.2815  0.5051
  942MOL0     C29905   2.246   5.883   7.780  0.1409  0.0982  0.5311
  942MOL0     O29906   2.042   5.909   7.575 -0.3977  0.1968  0.3097
  942MOL0     C29907   1.944   5.558   7.536 -0.0266  0.2270 -0.6069
  942MOL0     C29908   1.855   5.462   7.475  0.5043  0.2236 -0.1784
  942MOL0     N29909   1.394   5.164   7.719  0.2004  0.2048 -0.8161
  942MOL0     N29910   1.383   5.097   7.825  0.1359  0.6369 -0.6793
  942MOL0     C29911   0.428   4.563   8.011 -0.2643 -0.4328 -0.0481
  942MOL0     C29912   0.345   4.590   7.908  0.4145 -0.5607  0.8653
  942MOL0     C29913   0.227   4.738   7.487 -0.3403 -0.4340 -0.2940
  942MOL0     C29914   0.132   4.830   7.525  0.1808  0.3887 -0.1415
  942MOL0     C29915   0.029   4.873   7.441  0.2090  0.5591 -0.3317
  942MOL0     C29916   0.025   4.838   7.310  0.5323 -1.1243  0.4806
  942MOL0     O29917  -0.081   4.869   7.220 -0.5366  0.0335  0.0629
  942MOL0     C29918  -0.185   4.951   7.273 -0.3287 -0.2131  0.3666
  942MOL0     C29919  -0.279   4.995   7.155  0.5467 -0.1733 -0.3481
  942MOL0     C29920  -0.208   5.083   7.060 -0.0973 -1.0203 -0.6871
  942MOL0     C29921  -0.308   5.120   6.948  0.1845 -0.5855  0.1383
  942MOL0     C29922  -0.299   5.265   6.918  0.0033 -0.5746  0.1941
  942MOL0     C29923  -0.287   5.384   6.910 -0.1778  0.4326  0.0876
  942MOL0     C29924   0.126   4.763   7.258 -0.1195  1.6193  0.5845
  942MOL0     C29925   0.229   4.724   7.341  0.0943  0.5341 -0.2086
  942MOL0     C29926   0.333   4.650   7.265  0.0605  0.2335  0.3902
  942MOL0     H29927   0.524   4.851   7.777  0.3054  0.9652  0.9747
  942MOL0     H29928   0.662   4.807   7.977 -0.1247 -0.3559  0.1797
  942MOL0     H29929   0.721   4.687   8.320  2.1774  2.8435  0.8367
  942MOL0     H29930   0.670   4.808   8.204  1.4796  0.2411 -1.4353
  942MOL0     H29931   0.915   4.606   8.165 -1.1867 -0.2799  0.2894
  942MOL0     H29932   0.834   4.710   8.045  0.5206  1.4720 -0.2137
  942MOL0     H29933   0.969   4.786   8.301  2.0689 -1.6180 -0.9532
  942MOL0     H29934   1.046   4.808   8.144  0.8802 -2.8711  1.8704
  942MOL0     H29935   0.880   4.985   8.092 -0.0950  0.1093 -0.6689
  942MOL0     H29936   0.801   4.971   8.249  1.5281 -1.8372  2.1690
  942MOL0     H29937   0.975   5.060   8.372 -1.6356 -0.8179  0.4123
  942MOL0     H29938   0.950   5.169   8.243 -3.8001  0.5276  2.5533
  942MOL0     H29939   1.183   5.129   8.307 -1.5692  1.3025 -0.2790
  942MOL0     H29940   1.192   4.964   8.239  1.5005  0.1844 -3.5327
  942MOL0     H29941   1.102   5.210   8.076 -0.7145 -0.6713  0.8279
  942MOL0     H29942   1.111   5.047   8.003  2.3498 -1.1010 -1.5405
  942MOL0     H29943   1.359   5.184   8.132 -1.0478 -1.9706  2.7605
  942MOL0     H29944   1.348   5.019   8.073 -1.0324 -0.8135 -0.5557
  942MOL0     H29945   1.296   5.389   7.937  0.2686  0.2263  1.8173
  942MOL0     H29946   1.347   5.514   7.708  1.3391  1.5982 -3.2971
  942MOL0     H29947   1.241   5.409   7.628  0.7005 -2.3590 -2.9178
  942MOL0     H29948   1.541   5.367   7.580  0.1178  1.6833  1.6998
  942MOL0     H29949   1.407   5.295   7.493  0.2063 -2.4404  3.6615
  942MOL0     H29950   1.343   5.528   7.398 -0.0897  1.4465  2.2051
  942MOL0     H29951   1.474   5.588   7.493  2.2297 -1.8266  2.5680
  942MOL0     H29952   1.480   5.383   7.276 -0.9378  1.0540  0.2737
  942MOL0     H29953   1.524   5.539   7.236  0.1209  0.2420  0.7598
  942MOL0     H29954   1.665   5.697   7.332 -2.4229 -1.2799  2.8579
  942MOL0     H29955   1.707   5.892   7.359  0.8796 -1.4307 -1.9159
  942MOL0     H29956   1.886   5.928   7.354  2.3114  1.1139  1.6157
  942MOL0     H29957   1.800   5.937   7.507 -0.3669 -1.4872 -0.6123
  942MOL0     H29958   2.380   5.700   7.519  1.5527 -1.7729  0.7846
  942MOL0     H29959   2.590   5.798   7.610 -0.0136 -2.6957  1.6272
  942MOL0     H29960   2.757   5.874   7.786 -0.5314  0.2962  1.0494
  942MOL0     H29961   2.727   5.987   7.650  1.0316 -0.3922 -0.0978
  942MOL0     H29962   2.917   6.084   7.747 -0.5275  1.7319  0.3398
  942MOL0     H29963   2.776   6.168   7.799 -3.1397 -1.3618  1.5075
  942MOL0     H29964   2.940   5.985   7.965  1.1481  2.1049 -0.4974
  942MOL0     H29965   2.772   5.990   8.008 -0.6687 -0.2012  0.4182
  942MOL0     H29966   2.848   6.143   8.143 -1.6144 -3.2632 -1.5066
  942MOL0     H29967   2.786   6.251   8.020 -0.3542  0.8049  0.0135
  942MOL0     H29968   3.078   6.162   8.060  0.5031  0.3116  0.7922
  942MOL0     H29969   3.014   6.253   7.917  1.2666  0.9548 -0.4398
  942MOL0     H29970   2.909   6.411   8.122 -0.1127  0.2761  2.4346
  942MOL0     H29971   3.053   6.448   8.027  0.9150  0.7266  2.1012
  942MOL0     H29972   3.190   6.348   8.190  0.9126  0.7597  0.1528
  942MOL0     H29973   3.050   6.310   8.296 -0.2538  0.4823  1.1878
  942MOL0     H29974   2.987   6.554   8.302  0.3703 -0.9102  0.8106
  942MOL0     H29975   3.110   6.595   8.193  0.5810  1.2390  1.0954
  942MOL0     H29976   2.364   6.042   7.876  1.6205  2.7985 -2.7152
  942MOL0     H29977   2.144   5.894   7.816 -0.3936  0.0512 -0.9172
  942MOL0     H29978   2.020   5.517   7.602 -1.5051 -0.2577  0.8630
  942MOL0     H29979   1.874   5.355   7.480 -0.0379  0.1339  0.0924
  942MOL0     H29980   0.405   4.474   8.068 -0.3443  0.3745  1.2192
  942MOL0     H29981   0.253   4.532   7.901  0.0244  0.1977 -0.9770
  942MOL0     H29982   0.133   4.860   7.629 -0.1116  0.3218 -0.1202
  942MOL0     H29983  -0.053   4.924   7.489  1.5023  2.9263 -0.4724
  942MOL0     H29984  -0.250   4.899   7.345  0.8282 -1.0176  0.8707
  942MOL0     H29985  -0.147   5.041   7.321 -2.5594  0.8125  0.3471
  942MOL0     H29986  -0.359   5.053   7.202  1.9710  1.1010  0.6068
  942MOL0     H29987  -0.318   4.905   7.108  0.3256 -1.1053  1.5154
  942MOL0     H29988  -0.162   5.172   7.106 -1.7951 -1.1941  1.5341
  942MOL0     H29989  -0.127   5.021   7.020  0.5190 -1.8105  1.6246
  942MOL0     H29990  -0.406   5.115   6.995 -1.4345 -0.4526 -2.9827
  942MOL0     H29991  -0.302   5.049   6.865  2.2965  0.7513 -0.9457
  942MOL0     H29992  -0.270   5.490   6.906 -0.7982  0.5360  0.0577
  942MOL0     H29993   0.114   4.737   7.153  0.1479 -1.5658  1.2391
  942MOL0     H29994   0.363   4.694   7.170  1.1007  1.1620  1.1283
  942MOL0     H29995   0.422   4.654   7.328 -1.6323  2.4771  2.8281
  942MOL0     H29996   0.307   4.544   7.252 -0.5148  0.4266 -0.0722
  943MOL0     O29997   0.718   6.230   0.923  0.0936  0.0130 -0.2411
  943MOL0     C29998   0.792   6.321   0.949 -0.1255 -0.2036  0.5232
  943MOL0     O29999   0.763   6.431   1.013 -0.2837 -0.9447 -0.5035
  943MOL0     C30000   0.645   6.461   1.076 -0.4411  0.5463 -0.3660
  943MOL0     C30001   0.643   6.586   1.138 -0.2469  0.4272 -0.7884
  943MOL0     C30002   0.521   6.646   1.195  0.1177 -0.3252 -0.4574
  943MOL0     C30003   0.400   6.587   1.153 -0.3103  0.2091 -0.2655
  943MOL0     O30004   0.284   6.639   1.198  0.5197  0.2251  0.4895
  943MOL0     C30005   0.223   6.758   1.138  0.9017 -0.9897  0.1497
  943MOL0     C30006   0.083   6.784   1.190  0.4917  0.8651 -0.6897
  943MOL0     C30007  -0.003   6.877   1.116  0.0404 -0.6504 -0.0981
  943MOL0     C30008   0.050   7.020   1.131 -0.1320 -1.0385 -0.2815
  943MOL0     C30009   0.012   7.119   1.015  0.5090 -0.3305  0.4640
  943MOL0     C30010  -0.100   7.219   1.051  0.4942  0.2964 -0.3823
  943MOL0     C30011  -0.113   7.328   0.940 -0.5012  0.4068 -1.7302
  943MOL0     C30012  -0.198   7.451   0.981  0.3458  0.3281 -0.7606
  943MOL0     N30013  -0.147   7.527   1.094  0.2786  1.2172  1.1863
  943MOL0     C30014  -0.032   7.597   1.100 -0.3814  0.5620 -0.1701
  943MOL0     C30015  -0.020   7.633   1.230  0.5482  0.0620  0.0960
  943MOL0     C30016   0.098   7.712   1.271 -0.4003 -0.1553 -0.1678
  943MOL0     C30017   0.230   7.625   1.278  0.4879  0.0936 -0.2326
  943MOL0     C30018   0.353   7.724   1.284  0.3576 -1.0655 -0.0076
  943MOL0     C30019   0.487   7.651   1.301 -0.2259  0.1587 -0.2899
  943MOL0     O30020   0.500   7.554   1.197  0.6675  0.3127  0.2589
  943MOL0     C30021   0.631   7.513   1.187 -0.0943  0.3362  0.1224
  943MOL0     C30022   0.717   7.560   1.083  0.6244  0.3618  0.3034
  943MOL0     C30023   0.847   7.511   1.066 -0.5366  0.0593 -0.6115
  943MOL0     C30024   0.930   7.588   0.964 -0.3000 -0.2624 -0.5849
  943MOL0     C30025   0.893   7.420   1.166 -0.1040 -0.4971 -0.4239
  943MOL0     C30026   1.031   7.362   1.157 -0.5578  0.1143  0.1628
  943MOL0     O30027   1.087   7.347   1.027  0.2605 -0.5622 -0.2816
  943MOL0     C30028   1.184   7.266   0.975 -0.1373  0.0502  0.3803
  943MOL0     C30029   1.199   7.256   0.838  0.7699 -0.8741  0.4967
  943MOL0     C30030   1.313   7.188   0.783  0.3479  0.4235 -0.1523
  943MOL0     C30031   1.407   7.126   0.868  0.8593  1.4118 -0.5131
  943MOL0     O30032   1.512   7.051   0.820 -0.2232 -0.5297 -0.5172
  943MOL0     C30033   1.559   7.078   0.693  0.0643  0.4643 -0.0172
  943MOL0     C30034   1.668   6.986   0.652 -0.4438  0.6143  0.3014
  943MOL0     C30035   1.801   7.033   0.716  0.4562 -0.3835  0.8068
  943MOL0     C30036   1.923   6.938   0.706  0.3210 -0.2513  0.8459
  943MOL0     C30037   2.055   7.003   0.755  0.0577  0.3873 -0.0878
  943MOL0     C30038   2.170   6.911   0.785 -0.0234 -0.3544  0.5970
  943MOL0     C30039   2.132   6.804   0.880  0.7430  0.9280  0.1891
  943MOL0     C30040   2.238   6.769   0.982  0.0366 -0.0459 -0.8735
  943MOL0    Cl30041   2.243   6.884   1.122 -0.0957  0.0130  0.5985
  943MOL0     C30042   1.380   7.134   1.003 -0.4052  0.3662 -0.0317
  943MOL0     C30043   1.281   7.207   1.065 -1.5699  0.3780  0.3728
  943MOL0     O30044   1.078   7.321   1.260 -0.0727  1.0199  0.4920
  943MOL0     C30045   0.810   7.381   1.268  0.2680 -0.3418 -0.0902
  943MOL0     C30046   0.683   7.425   1.278  0.9768 -0.9605 -0.6686
  943MOL0     N30047  -0.124   7.586   1.309  0.5334 -0.0235  0.1855
  943MOL0     N30048  -0.200   7.523   1.222 -0.1396 -0.6753  0.4384
  943MOL0     C30049   0.400   6.464   1.081 -0.6899 -0.1040  0.9181
  943MOL0     C30050   0.514   6.406   1.038 -0.4052 -0.0192 -0.4868
  943MOL0     C30051   0.931   6.301   0.889 -0.4025 -0.2573 -0.3112
  943MOL0     C30052   0.966   6.177   0.838 -0.2970 -0.3658 -0.3161
  943MOL0     C30053   1.089   6.150   0.782 -0.8420  1.1978 -0.1497
  943MOL0     C30054   1.194   6.238   0.798  1.2108 -0.1596  0.6500
  943MOL0     O30055   1.319   6.204   0.757  0.2929 -0.2313  0.2025
  943MOL0     C30056   1.383   6.298   0.669  0.7624  0.2513 -0.4844
  943MOL0     C30057   1.492   6.205   0.617 -0.2749 -0.2898  0.1714
  943MOL0     C30058   1.598   6.274   0.515  0.7216  0.1661  0.0083
  943MOL0     C30059   1.694   6.365   0.574  0.9217  0.4930  0.4159
  943MOL0     C30060   1.636   6.501   0.562 -0.7765  0.3994  0.1388
  943MOL0     C30061   1.578   6.606   0.549 -0.7545  0.0097  0.5798
  943MOL0     C30062   1.161   6.360   0.855 -0.3132  0.6389 -0.0544
  943MOL0     C30063   1.034   6.394   0.904 -0.0690 -0.4557 -0.0143
  943MOL0     C30064   1.023   6.523   0.979 -0.8613 -0.9542 -0.7504
  943MOL0     H30065   0.737   6.636   1.158 -1.1818  1.7724  0.3909
  943MOL0     H30066   0.524   6.741   1.247 -2.5206 -0.6479  0.4347
  943MOL0     H30067   0.211   6.741   1.030 -2.5593  0.8269  0.1209
  943MOL0     H30068   0.283   6.848   1.152  0.2699 -0.3166 -1.2213
  943MOL0     H30069   0.044   6.682   1.189  0.6706  0.7212  1.3977
  943MOL0     H30070   0.072   6.805   1.297 -1.2472 -0.2483 -0.6045
  943MOL0     H30071   0.024   6.858   1.012  1.7077  5.0947 -1.0244
  943MOL0     H30072  -0.111   6.869   1.131 -0.5665  1.6619 -2.5008
  943MOL0     H30073   0.027   7.047   1.235  5.8860  0.0014  1.1282
  943MOL0     H30074   0.158   7.025   1.143 -0.4096  1.7359  2.2526
  943MOL0     H30075  -0.011   7.077   0.917 -1.5817  2.4165 -0.3584
  943MOL0     H30076   0.104   7.175   1.000  2.0421 -2.6412  0.7223
  943MOL0     H30077  -0.195   7.165   1.055  0.5709  0.2190  1.5480
  943MOL0     H30078  -0.086   7.254   1.154  2.2882 -1.3002 -0.0311
  943MOL0     H30079  -0.152   7.285   0.848  0.5566 -0.0368 -1.9847
  943MOL0     H30080  -0.013   7.367   0.922  0.2263 -0.1379  0.7753
  943MOL0     H30081  -0.201   7.528   0.903  1.0308  1.6149  0.4451
  943MOL0     H30082  -0.300   7.419   1.005  0.2450  1.3707  0.2506
  943MOL0     H30083   0.036   7.612   1.017  1.6521  0.3135  1.3969
  943MOL0     H30084   0.084   7.753   1.371  5.4066  2.7290 -0.1029
  943MOL0     H30085   0.116   7.794   1.200  0.7198  0.8006  1.1689
  943MOL0     H30086   0.227   7.577   1.376 -1.3059  0.9956  0.1983
  943MOL0     H30087   0.246   7.553   1.198  0.1884  2.6180 -2.7099
  943MOL0     H30088   0.375   7.774   1.189  2.2798 -2.9447 -0.6228
  943MOL0     H30089   0.336   7.794   1.366 -1.1725 -1.1373 -0.2346
  943MOL0     H30090   0.569   7.723   1.291  0.6058 -0.9973 -2.5328
  943MOL0     H30091   0.489   7.604   1.400  0.1371 -0.2340 -0.4800
  943MOL0     H30092   0.677   7.641   1.023  1.4990  1.2380  0.8713
  943MOL0     H30093   0.914   7.696   0.956  1.4126  0.0485 -0.1727
  943MOL0     H30094   0.919   7.552   0.861  0.0825 -1.1288 -0.3340
  943MOL0     H30095   1.037   7.587   0.988 -0.3495  4.1932  0.7214
  943MOL0     H30096   1.137   7.305   0.763 -0.5674 -0.9327  1.5253
  943MOL0     H30097   1.337   7.187   0.677 -0.1409  1.3755 -0.2772
  943MOL0     H30098   1.479   7.049   0.624  0.2260  0.9133 -0.3986
  943MOL0     H30099   1.581   7.185   0.686 -1.6515  0.7812 -1.2326
  943MOL0     H30100   1.643   6.887   0.693  0.4991  1.4858  3.2470
  943MOL0     H30101   1.679   6.968   0.545 -1.6247  1.0377  0.0979
  943MOL0     H30102   1.784   7.035   0.824  2.4434 -0.1508  1.1535
  943MOL0     H30103   1.820   7.134   0.679 -3.2129  0.3533  0.5675
  943MOL0     H30104   1.928   6.918   0.599 -0.9463  1.8998  0.3306
  943MOL0     H30105   1.904   6.844   0.759  1.4998 -1.5931 -1.0017
  943MOL0     H30106   2.088   7.082   0.688  0.3481  0.5292  0.2205
  943MOL0     H30107   2.043   7.050   0.853  2.8938 -1.8228  1.4595
  943MOL0     H30108   2.247   6.969   0.836  1.1137  2.1644 -3.5230
  943MOL0     H30109   2.209   6.877   0.688 -2.2753 -1.7151  0.1005
  943MOL0     H30110   2.109   6.719   0.816  0.4109  1.3020 -0.1917
  943MOL0     H30111   2.043   6.838   0.936  0.9681 -2.3329  2.8616
  943MOL0     H30112   2.331   6.750   0.928 -0.4118  1.9770 -2.4592
  943MOL0     H30113   2.207   6.677   1.034 -0.6493  1.6399  1.9180
  943MOL0     H30114   1.454   7.084   1.065  0.0171  1.0935  0.0587
  943MOL0     H30115   1.289   7.226   1.171  2.7832 -1.6041  0.6090
  943MOL0     H30116   0.834   7.308   1.345 -0.3569  0.6085  1.0431
  943MOL0     H30117   0.612   7.393   1.353 -1.7738  2.6087 -1.4869
  943MOL0     H30118   0.309   6.411   1.054  1.9240 -2.8757 -3.7306
  943MOL0     H30119   0.508   6.328   0.963  0.0944 -0.1013 -0.4438
  943MOL0     H30120   0.892   6.098   0.827 -3.3494  2.5221 -2.9171
  943MOL0     H30121   1.123   6.061   0.730 -0.2541  0.6916  1.0548
  943MOL0     H30122   1.311   6.325   0.592 -1.4602 -1.2164  0.9736
  943MOL0     H30123   1.413   6.388   0.724 -2.0576 -1.6999  5.0342
  943MOL0     H30124   1.449   6.123   0.558  3.3606 -0.7116 -2.2381
  943MOL0     H30125   1.552   6.165   0.700  1.0299 -2.7147 -1.8051
  943MOL0     H30126   1.653   6.191   0.469  0.4421 -0.0280  0.0197
  943MOL0     H30127   1.532   6.327   0.446 -0.5529  0.2098  1.2054
  943MOL0     H30128   1.782   6.359   0.509  0.8890 -0.8964  0.4704
  943MOL0     H30129   1.729   6.335   0.673  0.1781 -2.8851 -0.2484
  943MOL0     H30130   1.513   6.686   0.519  1.0119  1.9118  1.5585
  943MOL0     H30131   1.247   6.420   0.880 -0.3219  0.2931  0.8331
  943MOL0     H30132   1.122   6.570   0.977 -1.3912  0.1907 -1.0001
  943MOL0     H30133   0.950   6.585   0.926 -2.5020 -1.2483  1.0619
  943MOL0     H30134   0.984   6.523   1.081  2.6196  0.6949  0.7587
  944MOL0     O30135   6.918  10.045   1.305  0.2940 -0.4476  0.1849
  944MOL0     C30136   6.987  10.119   1.236  0.3282 -0.0516  1.1394
  944MOL0     O30137   6.938  10.222   1.161 -0.1133  0.0477 -0.8702
  944MOL0     C30138   6.806  10.254   1.162 -0.7779 -0.1468 -0.8274
  944MOL0     C30139   6.783  10.381   1.219  0.8507 -0.2802  0.1775
  944MOL0     C30140   6.649  10.433   1.224 -0.4068 -0.2543  0.3108
  944MOL0     C30141   6.541  10.357   1.174  0.0778 -0.4398  1.1514
  944MOL0     O30142   6.423  10.406   1.201  0.9823 -1.0389  0.0712
  944MOL0     C30143   6.309  10.315   1.195 -0.0327 -0.0030  0.8964
  944MOL0     C30144   6.178  10.384   1.222 -0.1466 -0.0163  0.2318
  944MOL0     C30145   6.130  10.510   1.137 -0.2541  0.5030 -0.4480
  944MOL0     C30146   6.003  10.558   1.219 -0.5212  0.3464  0.5038
  944MOL0     C30147   5.935  10.674   1.148  0.6040  0.0598 -0.8408
  944MOL0     C30148   5.803  10.700   1.217  0.3484  0.8659 -0.2532
  944MOL0     C30149   5.717  10.800   1.146 -0.0338  0.0755  0.7563
  944MOL0     C30150   5.761  10.943   1.178  0.0085  0.9909  0.5806
  944MOL0     N30151   5.668  11.035   1.115 -0.3548  0.1316 -1.0050
  944MOL0     C30152   5.554  11.087   1.160  0.1575  0.8619 -0.0468
  944MOL0     C30153   5.506  11.157   1.061 -0.5141 -0.6220  0.1329
  944MOL0     C30154   5.367  11.222   1.062 -0.0710 -0.1816 -0.0658
  944MOL0     C30155   5.309  11.223   0.917  0.0167 -0.0361  0.3960
  944MOL0     C30156   5.166  11.297   0.912  0.3640  0.3206  0.0459
  944MOL0     C30157   5.099  11.291   0.781 -0.0979 -0.4466  0.6778
  944MOL0     O30158   5.021  11.171   0.772  0.0844 -0.1011 -0.1091
  944MOL0     C30159   4.940  11.146   0.662 -0.1935 -0.0870 -1.1647
  944MOL0     C30160   4.887  11.242   0.576 -0.0966  0.6632 -0.8577
  944MOL0     C30161   4.810  11.203   0.469 -0.2473 -0.1377  0.0473
  944MOL0     C30162   4.768  11.313   0.373  0.1509  0.3999 -0.0373
  944MOL0     C30163   4.767  11.071   0.451 -0.1200 -0.4492 -0.2240
  944MOL0     C30164   4.668  11.026   0.351  0.4910  0.2233  0.1488
  944MOL0     O30165   4.572  10.936   0.392 -0.2838 -0.5409  0.1721
  944MOL0     C30166   4.473  10.915   0.298  0.3998  0.2610 -0.8390
  944MOL0     C30167   4.337  10.946   0.324  0.4776 -0.1784 -0.0612
  944MOL0     C30168   4.236  10.942   0.225 -0.4225 -0.5654  0.8662
  944MOL0     C30169   4.270  10.900   0.095 -0.6258 -0.0259  0.3577
  944MOL0     O30170   4.182  10.878  -0.006  0.6117 -0.4860  0.0553
  944MOL0     C30171   4.042  10.882   0.027  0.4149 -0.3111  0.0773
  944MOL0     C30172   3.954  10.834  -0.093  1.1970  0.1406  0.3894
  944MOL0     C30173   3.831  10.753  -0.045  0.4520  0.4638  0.2689
  944MOL0     C30174   3.716  10.766  -0.154 -0.3512 -0.3320 -0.6925
  944MOL0     C30175   3.604  10.669  -0.138  0.5320  0.1428  0.6987
  944MOL0     C30176   3.485  10.687  -0.238  0.1475  0.0403 -0.5747
  944MOL0     C30177   3.389  10.565  -0.223  0.3843 -0.5582  0.1793
  944MOL0     C30178   3.313  10.541  -0.354  0.2985  0.7803  1.2934
  944MOL0    Cl30179   3.196  10.409  -0.332 -0.1422 -0.1414  0.1234
  944MOL0     C30180   4.397  10.867   0.076 -0.6169 -1.0328 -0.1897
  944MOL0     C30181   4.495  10.872   0.171 -1.0763 -0.1237  0.3817
  944MOL0     O30182   4.670  11.083   0.237  0.4333  0.0704 -0.7041
  944MOL0     C30183   4.817  10.975   0.543 -0.0503  0.8708  0.0664
  944MOL0     C30184   4.902  11.013   0.645 -0.4537 -0.6545  1.1415
  944MOL0     N30185   5.593  11.154   0.954  0.5698  0.1059  0.7619
  944MOL0     N30186   5.695  11.095   0.998 -0.9016 -0.3806 -1.0578
  944MOL0     C30187   6.574  10.229   1.109 -0.5259  0.1133  0.2562
  944MOL0     C30188   6.702  10.180   1.103 -0.3385 -0.7296 -0.3200
  944MOL0     C30189   7.136  10.103   1.244 -0.2853  0.7819  0.3979
  944MOL0     C30190   7.179   9.979   1.293  0.4486  0.1472  0.3753
  944MOL0     C30191   7.309   9.946   1.308 -0.9902 -0.6656  0.2434
  944MOL0     C30192   7.407  10.033   1.261 -0.6239  0.1729 -0.1232
  944MOL0     O30193   7.542  10.020   1.282 -0.3323  0.2909 -0.0892
  944MOL0     C30194   7.592   9.885   1.318 -0.8627 -0.3677 -0.5141
  944MOL0     C30195   7.743   9.875   1.297 -0.3790 -0.4145 -0.1926
  944MOL0     C30196   7.789   9.940   1.168 -0.7409 -0.0238 -0.0550
  944MOL0     C30197   7.942   9.917   1.143  0.0470 -0.3335 -0.3361
  944MOL0     C30198   8.028   9.988   1.233 -0.0851 -0.3175  0.3477
  944MOL0     C30199   8.092  10.038   1.315 -0.6816 -0.0179  0.6215
  944MOL0     C30200   7.366  10.155   1.214 -0.8342  0.3406  0.9406
  944MOL0     C30201   7.236  10.196   1.208  0.6146 -0.2432  0.0970
  944MOL0     C30202   7.205  10.346   1.182 -0.6062 -0.6241 -0.2713
  944MOL0     H30203   6.869  10.420   1.272 -1.6142  1.0021  3.5994
  944MOL0     H30204   6.631  10.527   1.274 -0.9442 -0.5254  0.6251
  944MOL0     H30205   6.315  10.235   1.270  0.5290  0.6275  1.5307
  944MOL0     H30206   6.296  10.272   1.095  1.2701  2.0136 -0.2050
  944MOL0     H30207   6.093  10.314   1.222 -0.4448  0.3372  0.8378
  944MOL0     H30208   6.191  10.428   1.321 -0.3125  2.4981 -0.8026
  944MOL0     H30209   6.215  10.576   1.119  1.5176 -1.9478 -1.8227
  944MOL0     H30210   6.100  10.472   1.039  0.8331  0.9612 -0.9811
  944MOL0     H30211   5.932  10.476   1.232  1.3200 -1.4049  0.0533
  944MOL0     H30212   6.034  10.587   1.320  1.5416 -3.1810  1.0821
  944MOL0     H30213   5.901  10.637   1.051  0.0209 -1.8532  0.0428
  944MOL0     H30214   5.993  10.766   1.141 -0.2868  0.7023 -0.1657
  944MOL0     H30215   5.746  10.606   1.218  0.2980  0.8919 -0.5560
  944MOL0     H30216   5.816  10.723   1.323  0.1687  2.6381 -0.5773
  944MOL0     H30217   5.617  10.785   1.187 -1.3101  1.8536 -1.4556
  944MOL0     H30218   5.707  10.781   1.039  0.0705  0.0348  0.7540
  944MOL0     H30219   5.771  10.950   1.287  2.0348 -2.4772  0.7795
  944MOL0     H30220   5.860  10.947   1.132  0.7462  1.5353  2.1401
  944MOL0     H30221   5.502  11.070   1.253 -0.5364  1.1971 -0.3644
  944MOL0     H30222   5.383  11.324   1.098  2.3574 -0.5668  0.1537
  944MOL0     H30223   5.293  11.172   1.126 -0.0862  1.0835  0.9372
  944MOL0     H30224   5.375  11.272   0.845 -0.4552  1.5350  0.9824
  944MOL0     H30225   5.299  11.121   0.879  2.0354  0.4702 -1.7369
  944MOL0     H30226   5.106  11.271   0.999 -0.5512  1.2107 -0.2947
  944MOL0     H30227   5.170  11.406   0.925 -0.5934  0.6455 -1.9060
  944MOL0     H30228   5.029  11.375   0.782  1.9216  1.3765 -1.3713
  944MOL0     H30229   5.162  11.309   0.694  0.4337  0.7075  1.2815
  944MOL0     H30230   4.920  11.343   0.599  1.5277  0.6887 -2.9546
  944MOL0     H30231   4.808  11.299   0.272 -0.1680  1.0664 -0.2638
  944MOL0     H30232   4.816  11.406   0.407 -0.6163  0.5456  0.6976
  944MOL0     H30233   4.661  11.335   0.369 -0.0845  0.1467  2.8741
  944MOL0     H30234   4.310  10.978   0.424 -2.1970  0.1015 -0.8098
  944MOL0     H30235   4.133  10.963   0.253 -0.4232  0.7229 -0.0412
  944MOL0     H30236   4.034  10.801   0.100 -0.5572  0.3743  0.7614
  944MOL0     H30237   4.003  10.973   0.075  0.6587  0.6405 -1.4606
  944MOL0     H30238   3.917  10.915  -0.156 -4.7532 -2.3240  0.0245
  944MOL0     H30239   4.009  10.762  -0.154  1.8887  0.2595  0.8602
  944MOL0     H30240   3.797  10.772   0.057 -0.6066 -1.8390  0.4239
  944MOL0     H30241   3.863  10.649  -0.039 -1.4562 -0.1176  1.2786
  944MOL0     H30242   3.765  10.761  -0.252  2.1150  0.8914  0.3786
  944MOL0     H30243   3.673  10.866  -0.141  2.0668  0.7580 -0.3714
  944MOL0     H30244   3.643  10.570  -0.163 -0.9431 -0.7050  1.6027
  944MOL0     H30245   3.558  10.681  -0.039  1.4579 -0.5121  1.2261
  944MOL0     H30246   3.534  10.695  -0.335 -3.0316 -1.0138 -2.4419
  944MOL0     H30247   3.440  10.783  -0.214 -0.0902 -0.0017 -0.8380
  944MOL0     H30248   3.313  10.567  -0.144  1.2971  0.7662  1.0660
  944MOL0     H30249   3.442  10.470  -0.211 -1.6725 -1.9015 -0.8978
  944MOL0     H30250   3.381  10.506  -0.433  0.1413  0.4778  1.2949
  944MOL0     H30251   3.251  10.626  -0.382 -3.6302 -1.7739  1.4985
  944MOL0     H30252   4.422  10.835  -0.024  3.2892 -2.9124  1.1648
  944MOL0     H30253   4.587  10.830   0.131 -2.4835 -2.5197 -0.5386
  944MOL0     H30254   4.779  10.873   0.535  0.1365  0.4632  3.0849
  944MOL0     H30255   4.954  10.941   0.707  1.9625  1.0680  1.2691
  944MOL0     H30256   6.505  10.166   1.054 -0.9559  0.6384  0.1806
  944MOL0     H30257   6.729  10.089   1.051 -1.1269 -0.9355 -0.3894
  944MOL0     H30258   7.109   9.901   1.321  0.4045 -0.4675 -1.3179
  944MOL0     H30259   7.330   9.844   1.340  1.1475 -0.4812 -0.4215
  944MOL0     H30260   7.563   9.885   1.423 -2.7192  2.7098 -0.8728
  944MOL0     H30261   7.545   9.810   1.253 -0.7447  0.5221 -1.6676
  944MOL0     H30262   7.775   9.771   1.305 -2.8917 -1.2022  0.5026
  944MOL0     H30263   7.797   9.917   1.383 -0.1387 -0.3962 -0.3527
  944MOL0     H30264   7.727   9.889   1.093 -3.2181  0.0913  1.7728
  944MOL0     H30265   7.779  10.048   1.184  1.2760 -0.2258  3.9220
  944MOL0     H30266   7.960   9.946   1.039 -1.1178 -1.0610 -0.7544
  944MOL0     H30267   7.964   9.811   1.160 -2.6101 -0.9346 -0.1163
  944MOL0     H30268   8.162  10.091   1.376  1.3172  0.3206 -1.7748
  944MOL0     H30269   7.442  10.226   1.184 -1.0169  0.0620 -0.2081
  944MOL0     H30270   7.284  10.408   1.226 -0.2437  0.0683 -1.8181
  944MOL0     H30271   7.184  10.369   1.077  1.7534  1.5801 -0.3492
  944MOL0     H30272   7.117  10.360   1.245 -2.4118 -2.8957 -2.1108
  945MOL0     O30273  11.001  11.230   6.594 -0.2697  0.5028  0.2448
  945MOL0     C30274  11.027  11.319   6.672 -0.5100  0.2136  0.2576
  945MOL0     O30275  11.150  11.387   6.679 -0.5748  0.4962  0.2664
  945MOL0     C30276  11.262  11.382   6.597  0.5061  0.4931 -0.3096
  945MOL0     C30277  11.268  11.304   6.477 -0.0041  1.0581 -0.1678
  945MOL0     C30278  11.384  11.292   6.398 -0.5933 -0.7180 -0.1239
  945MOL0     C30279  11.490  11.378   6.421 -0.7690 -0.4405  0.0786
  945MOL0     O30280  11.600  11.377   6.334 -0.1141 -0.8453 -0.2053
  945MOL0     C30281  11.614  11.280   6.225  0.3831  1.2131 -0.2287
  945MOL0     C30282  11.720  11.332   6.121  0.4122  0.1664 -0.0362
  945MOL0     C30283  11.854  11.259   6.137  0.0962 -0.3007 -0.3809
  945MOL0     C30284  11.961  11.332   6.052 -0.6727  0.3687  0.3957
  945MOL0     C30285  12.098  11.272   6.050 -0.5248 -0.0983 -0.3477
  945MOL0     C30286  12.095  11.131   5.993  1.0942  0.2215  0.2163
  945MOL0     C30287  12.228  11.075   5.982  0.0440 -0.1811 -0.0972
  945MOL0     C30288  12.276  10.990   6.097 -0.7110 -0.5707  0.3055
  945MOL0     N30289  12.406  10.925   6.074 -0.4960 -0.5039  0.4183
  945MOL0     C30290  12.528  10.985   6.076  0.2241 -0.9498  0.2936
  945MOL0     C30291  12.615  10.897   6.042 -0.1083 -0.4395 -0.0157
  945MOL0     C30292  12.765  10.905   6.028  0.0858  0.6265  0.3123
  945MOL0     C30293  12.826  10.881   5.885  0.1713  0.1846 -0.1374
  945MOL0     C30294  12.976  10.895   5.880 -0.2237  0.1438  0.4149
  945MOL0     C30295  13.033  10.869   5.740  0.9348  0.0143 -0.1698
  945MOL0     O30296  13.172  10.881   5.761 -0.6846  0.4990  0.2339
  945MOL0     C30297  13.258  10.903   5.652 -0.3309 -0.3988 -0.6659
  945MOL0     C30298  13.212  10.929   5.526  0.8843  0.0723  0.0445
  945MOL0     C30299  13.293  10.906   5.411  0.2445  0.5687 -0.4122
  945MOL0     C30300  13.232  10.942   5.276  0.6790  0.2038 -0.5799
  945MOL0     C30301  13.417  10.849   5.422 -0.1089 -0.3020 -0.9043
  945MOL0     C30302  13.503  10.814   5.313  0.0365  0.6793  0.1978
  945MOL0     O30303  13.442  10.792   5.189  0.0410  0.1275 -0.7865
  945MOL0     C30304  13.529  10.790   5.084  1.3421 -0.5908 -0.5416
  945MOL0     C30305  13.532  10.670   5.007 -0.3261 -0.1018  0.3212
  945MOL0     C30306  13.596  10.662   4.884 -0.6819 -0.1409  0.3006
  945MOL0     C30307  13.685  10.770   4.854  1.2198  0.3682  0.6264
  945MOL0     O30308  13.766  10.775   4.739  0.4250 -0.5243  0.1130
  945MOL0     C30309  13.837  10.653   4.693 -0.1580  0.5343 -0.5044
  945MOL0     C30310  13.941  10.688   4.596  0.3809 -0.5906  0.3919
  945MOL0     C30311  13.879  10.717   4.454  0.2784 -0.4572 -0.2917
  945MOL0     C30312  13.982  10.797   4.369 -0.8029 -0.0272 -0.2580
  945MOL0     C30313  13.936  10.854   4.239  0.3312 -0.0994  0.3235
  945MOL0     C30314  14.047  10.870   4.131 -0.4891 -0.6578 -0.1489
  945MOL0     C30315  14.031  10.988   4.043 -0.2339  0.3553  0.7392
  945MOL0     C30316  13.913  10.971   3.947  1.2067  0.0493 -0.2632
  945MOL0    Cl30317  13.891  11.121   3.860 -0.0885  0.1514 -0.3330
  945MOL0     C30318  13.677  10.886   4.937 -0.7357  0.1229  0.1488
  945MOL0     C30319  13.603  10.897   5.056  0.5277 -0.1489  0.0854
  945MOL0     O30320  13.624  10.799   5.330  0.4959  0.8904  0.2801
  945MOL0     C30321  13.466  10.818   5.552 -0.4961 -0.7812 -0.3533
  945MOL0     C30322  13.390  10.843   5.668  0.3050 -0.4532 -0.3944
  945MOL0     N30323  12.541  10.782   6.023  0.2940 -0.2651  0.5621
  945MOL0     N30324  12.418  10.798   6.043  0.1357  0.2335  0.1209
  945MOL0     C30325  11.482  11.460   6.534 -0.3748  0.3670  0.2820
  945MOL0     C30326  11.372  11.459   6.619  0.1422 -0.2482  0.4241
  945MOL0     C30327  10.930  11.342   6.788  0.6348  0.1883  0.9493
  945MOL0     C30328  10.973  11.416   6.900 -0.5928 -0.6420  0.0068
  945MOL0     C30329  10.882  11.434   7.000 -0.2260  0.1128 -1.2717
  945MOL0     C30330  10.755  11.377   7.007 -0.3267  0.0070 -1.2322
  945MOL0     O30331  10.681  11.393   7.123  0.3843  0.1596  0.4147
  945MOL0     C30332  10.616  11.276   7.177  0.2601 -0.4699  0.8327
  945MOL0     C30333  10.582  11.303   7.324  0.0623 -0.8169  0.0297
  945MOL0     C30334  10.716  11.307   7.406  0.2041 -0.8773  0.5036
  945MOL0     C30335  10.701  11.340   7.556 -0.8907 -0.6644 -0.0333
  945MOL0     C30336  10.824  11.290   7.626  0.3932  0.4606 -0.8272
  945MOL0     C30337  10.917  11.242   7.680 -0.5252  0.5178  0.2445
  945MOL0     C30338  10.713  11.297   6.903  1.0192  0.8349  0.8345
  945MOL0     C30339  10.796  11.284   6.789 -0.6596 -0.3929 -0.3336
  945MOL0     C30340  10.741  11.194   6.681  0.1399 -0.3077  0.3036
  945MOL0     H30341  11.190  11.237   6.444  1.5485 -0.2804 -1.3064
  945MOL0     H30342  11.390  11.211   6.327  1.0776 -1.0028  0.3066
  945MOL0     H30343  11.531  11.275   6.153  0.1110 -0.8675  0.1899
  945MOL0     H30344  11.640  11.181   6.262  3.2272  1.2276 -1.8982
  945MOL0     H30345  11.679  11.307   6.023  0.1117  0.3775  0.0333
  945MOL0     H30346  11.738  11.438   6.139 -1.4654  0.4113  0.7081
  945MOL0     H30347  11.881  11.237   6.241  2.4162 -2.2823 -1.3167
  945MOL0     H30348  11.854  11.158   6.095  1.3087 -0.3931 -0.1682
  945MOL0     H30349  11.921  11.331   5.950  0.6753 -0.6827 -0.1441
  945MOL0     H30350  11.957  11.437   6.081  0.1535  0.8731 -1.2053
  945MOL0     H30351  12.152  11.270   6.146 -0.1769 -2.3019 -0.5438
  945MOL0     H30352  12.157  11.327   5.975  0.0397 -0.5750 -0.2677
  945MOL0     H30353  12.027  11.068   6.052 -0.9059  2.6330  0.6247
  945MOL0     H30354  12.056  11.132   5.891  2.3155  2.4505 -0.2936
  945MOL0     H30355  12.306  11.150   5.966  0.5464 -0.8910 -1.1199
  945MOL0     H30356  12.230  11.008   5.896 -0.7059 -0.6285  0.2253
  945MOL0     H30357  12.286  11.055   6.184 -0.0053 -2.3702  1.6453
  945MOL0     H30358  12.199  10.919   6.128 -0.8874 -0.2167  0.6817
  945MOL0     H30359  12.552  11.090   6.089  0.3573 -0.8172 -0.9637
  945MOL0     H30360  12.816  10.827   6.087  2.6120  0.1702 -2.2936
  945MOL0     H30361  12.798  11.004   6.061  1.3043  0.4899 -0.4588
  945MOL0     H30362  12.792  10.787   5.842  0.3553  0.0774 -0.0542
  945MOL0     H30363  12.780  10.961   5.827 -3.1207 -0.8126  0.8994
  945MOL0     H30364  12.999  10.994   5.922  0.5171  1.5473 -2.9800
  945MOL0     H30365  13.016  10.809   5.935 -0.3695 -1.1650 -1.4344
  945MOL0     H30366  12.997  10.778   5.692  2.1575  0.9776 -3.1245
  945MOL0     H30367  13.004  10.955   5.680  1.4663  1.4641  1.5566
  945MOL0     H30368  13.115  10.972   5.505 -0.2612 -2.1248  0.6075
  945MOL0     H30369  13.305  10.975   5.202 -0.3138  0.3851 -1.5085
  945MOL0     H30370  13.152  11.013   5.299 -0.5443 -1.5815  1.0575
  945MOL0     H30371  13.190  10.850   5.234 -0.2644  1.3270 -2.2276
  945MOL0     H30372  13.474  10.585   5.043  1.2114 -1.5758 -0.5873
  945MOL0     H30373  13.594  10.574   4.820 -2.1107  2.1728 -3.1794
  945MOL0     H30374  13.891  10.635   4.786  0.7423  3.2411 -0.4238
  945MOL0     H30375  13.777  10.571   4.652  1.3590  0.0951 -1.9430
  945MOL0     H30376  14.008  10.770   4.625  0.7315  0.6870 -3.5415
  945MOL0     H30377  14.011  10.603   4.594  0.4021 -0.6403 -3.2451
  945MOL0     H30378  13.784  10.772   4.457 -0.3451 -1.5181  0.0572
  945MOL0     H30379  13.861  10.623   4.401  1.3340  1.1015 -3.6677
  945MOL0     H30380  14.062  10.727   4.345  0.1675  1.1311 -0.4243
  945MOL0     H30381  14.037  10.880   4.413 -0.0833  0.2104 -1.5623
  945MOL0     H30382  13.860  10.785   4.201  0.6183 -0.7018  0.8283
  945MOL0     H30383  13.897  10.952   4.268 -1.5701 -0.7725  0.1507
  945MOL0     H30384  14.047  10.780   4.069 -0.6190 -0.5341 -0.3312
  945MOL0     H30385  14.138  10.891   4.187 -0.1497 -0.4065 -0.7779
  945MOL0     H30386  14.115  10.979   3.973 -2.4286 -1.6410 -1.8282
  945MOL0     H30387  14.040  11.087   4.088  1.6245 -0.9982  3.7124
  945MOL0     H30388  13.825  10.952   4.009  1.8641 -3.0663 -0.1191
  945MOL0     H30389  13.918  10.885   3.880 -1.8734  0.5170 -1.2602
  945MOL0     H30390  13.744  10.961   4.897  4.2732 -4.4217 -1.1687
  945MOL0     H30391  13.614  10.988   5.114 -0.6380  0.4841 -0.6632
  945MOL0     H30392  13.563  10.776   5.575  0.7809  1.0294 -2.1188
  945MOL0     H30393  13.440  10.820   5.762 -3.3983 -0.3378  1.7971
  945MOL0     H30394  11.555  11.538   6.556  0.9532 -1.4615  2.8670
  945MOL0     H30395  11.370  11.528   6.704  3.7989  1.1249 -0.3899
  945MOL0     H30396  11.069  11.465   6.909  0.2366 -2.2684  0.4084
  945MOL0     H30397  10.917  11.474   7.094 -0.0587  1.9049 -2.0471
  945MOL0     H30398  10.524  11.267   7.120  1.1303  1.9930 -1.1579
  945MOL0     H30399  10.675  11.186   7.157 -0.0832 -0.7014  0.8782
  945MOL0     H30400  10.510  11.229   7.360 -0.6128 -0.6150 -0.8644
  945MOL0     H30401  10.539  11.403   7.322 -2.8355 -1.9200 -2.7631
  945MOL0     H30402  10.761  11.207   7.400 -1.3521 -1.5065 -1.9605
  945MOL0     H30403  10.782  11.382   7.362 -1.3540  0.7169  0.7560
  945MOL0     H30404  10.620  11.280   7.598  0.1309 -1.3382  1.0295
  945MOL0     H30405  10.690  11.448   7.572  0.5421  0.0430 -3.0178
  945MOL0     H30406  10.985  11.175   7.728 -1.4686 -1.9841 -1.6651
  945MOL0     H30407  10.617  11.248   6.907  0.7409  0.9848 -1.8753
  945MOL0     H30408  10.750  11.240   6.582 -0.0712 -2.5530 -0.8062
  945MOL0     H30409  10.787  11.095   6.674 -1.9638 -1.3528  0.6951
  945MOL0     H30410  10.634  11.177   6.694 -0.4460  1.1954 -2.0000
  946MOL0     O30411   2.809   4.910   4.933 -0.2560  0.3580  0.4858
  946MOL0     C30412   2.754   4.974   5.019 -0.2353  0.4532 -0.5416
  946MOL0     O30413   2.800   4.995   5.151  0.5381 -0.0152  1.4582
  946MOL0     C30414   2.926   4.941   5.178  0.1378 -0.9112 -1.2305
  946MOL0     C30415   3.045   5.016   5.154 -1.0415 -0.4363 -0.2427
  946MOL0     C30416   3.170   4.969   5.180  0.1286 -0.1137  0.2535
  946MOL0     C30417   3.182   4.836   5.237  0.7541 -0.5094  0.3958
  946MOL0     O30418   3.294   4.780   5.298 -0.2707 -0.1392  0.3586
  946MOL0     C30419   3.410   4.753   5.214  0.1848  0.4997  0.2555
  946MOL0     C30420   3.484   4.630   5.277  0.0316  0.1682 -0.2633
  946MOL0     C30421   3.587   4.557   5.185  0.0541 -0.6364  1.1857
  946MOL0     C30422   3.709   4.651   5.158 -0.1484 -0.2195 -0.1672
  946MOL0     C30423   3.837   4.588   5.092 -0.0898 -0.6378 -0.1590
  946MOL0     C30424   3.934   4.698   5.063  0.0012 -0.1174 -0.3445
  946MOL0     C30425   4.041   4.664   4.958  0.2991  0.6623  0.0596
  946MOL0     C30426   4.077   4.513   4.955  0.2036  0.7094  0.2372
  946MOL0     N30427   4.175   4.482   4.849 -0.8111  0.8296  0.2046
  946MOL0     C30428   4.313   4.485   4.863  0.1089  0.8758 -0.1569
  946MOL0     C30429   4.356   4.421   4.751  0.0730 -0.6045  0.2485
  946MOL0     C30430   4.494   4.400   4.702 -0.4175 -0.3327 -0.4873
  946MOL0     C30431   4.555   4.543   4.699 -0.1241 -0.3838  0.3010
  946MOL0     C30432   4.698   4.556   4.638  0.6491 -0.0007 -0.9121
  946MOL0     C30433   4.714   4.538   4.492  0.6568  0.2551 -0.0971
  946MOL0     O30434   4.608   4.612   4.425 -0.2460 -0.5936 -0.5846
  946MOL0     C30435   4.619   4.612   4.290 -0.5696 -0.1608  0.5094
  946MOL0     C30436   4.641   4.728   4.220 -0.7598 -0.4792 -1.1394
  946MOL0     C30437   4.628   4.737   4.079 -0.4326  0.7963 -0.3060
  946MOL0     C30438   4.627   4.878   4.029 -0.3541 -0.7602 -0.7284
  946MOL0     C30439   4.594   4.621   3.993 -0.9872  0.0566  0.0657
  946MOL0     C30440   4.572   4.625   3.848 -0.0006 -0.1946 -0.4043
  946MOL0     O30441   4.518   4.521   3.783 -0.5223  0.2101 -0.7522
  946MOL0     C30442   4.491   4.537   3.650  0.8764  0.0655 -0.9770
  946MOL0     C30443   4.377   4.616   3.611  0.0185  0.1593 -0.1211
  946MOL0     C30444   4.337   4.616   3.479  1.0332 -0.3412 -0.8485
  946MOL0     C30445   4.404   4.542   3.381 -0.5415  0.3668  1.0422
  946MOL0     O30446   4.348   4.545   3.257  0.0876 -0.1818  0.1859
  946MOL0     C30447   4.420   4.491   3.142 -0.5818  0.2179  0.1059
  946MOL0     C30448   4.354   4.557   3.022  0.2321  0.1922 -0.4650
  946MOL0     C30449   4.378   4.703   3.028  0.0906  0.9649  0.1445
  946MOL0     C30450   4.297   4.773   2.920  0.1253 -0.4454  0.1403
  946MOL0     C30451   4.340   4.922   2.922  0.8286 -0.1342 -0.4479
  946MOL0     C30452   4.263   4.996   2.807  0.1037  0.0964  0.8722
  946MOL0     C30453   4.306   5.127   2.761 -0.2100  0.4135  0.8015
  946MOL0     C30454   4.307   5.235   2.863 -0.0269 -0.3598 -0.2881
  946MOL0    Cl30455   4.144   5.281   2.935 -0.8074 -0.1046  0.1775
  946MOL0     C30456   4.517   4.474   3.414 -0.1597 -0.5156 -0.7528
  946MOL0     C30457   4.557   4.474   3.547  0.3183  0.9535  0.0915
  946MOL0     O30458   4.597   4.730   3.791 -0.2063 -0.2287  0.3866
  946MOL0     C30459   4.572   4.504   4.064 -1.0187  1.1351  0.6656
  946MOL0     C30460   4.581   4.505   4.211  0.7455 -0.2470 -0.2415
  946MOL0     N30461   4.243   4.398   4.669 -0.5636  0.0648  0.3187
  946MOL0     N30462   4.132   4.426   4.735 -0.4561  0.2592  0.2255
  946MOL0     C30463   3.065   4.767   5.262  1.0728 -0.4488  0.5126
  946MOL0     C30464   2.942   4.814   5.223  0.8271  0.4779 -0.5366
  946MOL0     C30465   2.631   5.064   4.979  0.3315  0.5407 -0.3188
  946MOL0     C30466   2.563   5.118   5.085 -0.0319 -0.2599 -0.2902
  946MOL0     C30467   2.449   5.203   5.066 -0.5125  0.4504 -0.2295
  946MOL0     C30468   2.406   5.232   4.936  0.1279  0.4597  0.0698
  946MOL0     O30469   2.293   5.311   4.928  0.1556 -0.7302  1.0587
  946MOL0     C30470   2.293   5.422   4.823  0.0425 -0.0571 -0.5416
  946MOL0     C30471   2.322   5.553   4.898 -0.2189  0.1683  0.0664
  946MOL0     C30472   2.321   5.669   4.791  0.8573  0.3636  0.0297
  946MOL0     C30473   2.303   5.814   4.837 -0.0343 -0.4649  0.4539
  946MOL0     C30474   2.288   5.900   4.720 -0.0008 -0.0164 -0.1410
  946MOL0     C30475   2.278   5.971   4.617 -0.5391  0.5511 -0.4721
  946MOL0     C30476   2.488   5.191   4.830  0.1999 -1.1369  0.7213
  946MOL0     C30477   2.594   5.101   4.847  0.9092  0.0547  0.5093
  946MOL0     C30478   2.669   5.050   4.719 -0.0611  0.6368  0.4410
  946MOL0     H30479   3.032   5.115   5.110 -0.0453  0.1849  0.8239
  946MOL0     H30480   3.259   5.029   5.167 -1.0848  1.9027  0.8441
  946MOL0     H30481   3.475   4.840   5.230  0.5245  0.3654 -0.3593
  946MOL0     H30482   3.388   4.737   5.108  0.2108 -0.7741  0.4321
  946MOL0     H30483   3.512   4.658   5.379 -1.3635  1.0176 -0.0809
  946MOL0     H30484   3.412   4.549   5.290 -0.4087  0.7004  0.7490
  946MOL0     H30485   3.620   4.458   5.217  0.4617  0.2154  3.5928
  946MOL0     H30486   3.531   4.540   5.092  0.4164 -3.9999  1.4615
  946MOL0     H30487   3.683   4.734   5.091  1.6333 -0.5734 -1.3615
  946MOL0     H30488   3.721   4.687   5.261 -0.7871 -2.0479  0.5818
  946MOL0     H30489   3.806   4.528   5.006 -0.4642 -2.8311  1.4014
  946MOL0     H30490   3.883   4.511   5.156  0.2431  1.1819  1.9200
  946MOL0     H30491   3.882   4.782   5.018 -0.7481 -0.5433 -0.2920
  946MOL0     H30492   3.976   4.725   5.160 -1.0257 -3.3193  1.1408
  946MOL0     H30493   4.130   4.728   4.956 -1.1679  2.7954 -1.1506
  946MOL0     H30494   3.989   4.689   4.865 -1.9347  0.2664  1.1483
  946MOL0     H30495   4.115   4.486   5.054  1.8152 -0.3016 -0.6152
  946MOL0     H30496   3.992   4.445   4.945  2.8456 -2.7894 -0.1217
  946MOL0     H30497   4.367   4.530   4.947 -0.7716 -0.5708  1.2517
  946MOL0     H30498   4.482   4.365   4.599 -1.6496  0.8526 -0.7710
  946MOL0     H30499   4.546   4.326   4.763  0.1637  2.2077  2.3283
  946MOL0     H30500   4.489   4.607   4.639 -0.9491 -1.8023 -0.3518
  946MOL0     H30501   4.562   4.581   4.801  0.2993  2.0933 -0.5781
  946MOL0     H30502   4.747   4.651   4.659  1.4918 -0.4786 -0.6403
  946MOL0     H30503   4.752   4.480   4.694 -0.7467 -1.0543 -0.9320
  946MOL0     H30504   4.811   4.582   4.466  0.3076  0.9175 -0.3028
  946MOL0     H30505   4.716   4.432   4.467 -2.0195  0.2244 -0.4287
  946MOL0     H30506   4.684   4.808   4.278  0.7243 -2.4781  0.6593
  946MOL0     H30507   4.704   4.910   3.958 -0.8086  1.2389 -0.3651
  946MOL0     H30508   4.637   4.947   4.113  1.1832  1.2452 -2.4631
  946MOL0     H30509   4.528   4.895   3.987 -1.2367  0.7575  1.7793
  946MOL0     H30510   4.308   4.672   3.673  0.8758  2.9346 -1.5147
  946MOL0     H30511   4.257   4.683   3.449  1.3095  1.0833  1.3901
  946MOL0     H30512   4.526   4.517   3.145  0.1324 -2.1157 -1.5969
  946MOL0     H30513   4.410   4.382   3.128  1.2145  0.0372 -0.0875
  946MOL0     H30514   4.400   4.519   2.930  2.9771  0.4329  0.7122
  946MOL0     H30515   4.246   4.541   3.029  0.5922 -2.9913 -0.8098
  946MOL0     H30516   4.485   4.704   3.006  0.1415 -0.5369  0.2074
  946MOL0     H30517   4.348   4.751   3.122 -0.6657  2.8695 -1.0114
  946MOL0     H30518   4.189   4.763   2.934  0.1597  0.4451  1.1930
  946MOL0     H30519   4.312   4.723   2.824 -3.0805  1.1436 -1.3567
  946MOL0     H30520   4.301   4.971   3.011  3.3056  3.9056 -1.3273
  946MOL0     H30521   4.448   4.938   2.920  0.9287 -0.8114 -0.8600
  946MOL0     H30522   4.158   4.997   2.841  0.2130 -1.5446  1.3575
  946MOL0     H30523   4.269   4.929   2.720  1.2033 -0.3984  1.3140
  946MOL0     H30524   4.257   5.159   2.668 -0.1425 -1.2908  0.1486
  946MOL0     H30525   4.411   5.128   2.728  0.0534  2.5697  1.5503
  946MOL0     H30526   4.341   5.327   2.814  1.4652  1.3945  3.5898
  946MOL0     H30527   4.374   5.202   2.943 -3.0331 -0.5493  2.3565
  946MOL0     H30528   4.569   4.418   3.337  0.9955 -2.0270  1.0324
  946MOL0     H30529   4.646   4.415   3.564  1.7567  1.3828 -4.5446
  946MOL0     H30530   4.539   4.414   4.014  1.4364  1.4427 -1.7420
  946MOL0     H30531   4.553   4.414   4.264  5.1537 -0.4627  2.1918
  946MOL0     H30532   3.079   4.678   5.321  0.5412 -0.8547  0.0333
  946MOL0     H30533   2.854   4.753   5.237  2.1919 -1.4358  0.2091
  946MOL0     H30534   2.594   5.097   5.187 -4.7508  1.5796  1.8294
  946MOL0     H30535   2.389   5.241   5.148  0.2102  1.2996 -0.0829
  946MOL0     H30536   2.362   5.422   4.739 -2.6132 -1.7228 -2.8998
  946MOL0     H30537   2.192   5.421   4.780 -0.6025 -1.3815  0.9039
  946MOL0     H30538   2.422   5.545   4.940  0.5832 -2.2550 -2.0114
  946MOL0     H30539   2.237   5.569   4.965 -0.9715  0.6120 -0.9598
  946MOL0     H30540   2.413   5.662   4.733  1.8516 -2.9027  1.7789
  946MOL0     H30541   2.229   5.638   4.740  1.4557 -0.7577 -0.3929
  946MOL0     H30542   2.388   5.851   4.895  0.8836 -2.0104  0.1298
  946MOL0     H30543   2.215   5.828   4.901  0.1196  3.5609  0.0343
  946MOL0     H30544   2.254   6.039   4.537 -4.1263 -2.0435 -1.8655
  946MOL0     H30545   2.457   5.233   4.734  0.5941 -1.7629  0.3112
  946MOL0     H30546   2.636   5.100   4.627 -0.8416 -0.0750  0.3251
  946MOL0     H30547   2.778   5.059   4.724  0.1601 -1.8625  1.5295
  946MOL0     H30548   2.649   4.944   4.707 -2.5152  1.1369 -0.4720
  947MOL0     O30549   0.559   6.762  11.335  0.1183 -1.3629  0.1066
  947MOL0     C30550   0.537   6.819  11.224 -0.4691  0.5355 -0.4958
  947MOL0     O30551   0.626   6.822  11.121  0.0972 -1.0179 -0.5872
  947MOL0     C30552   0.753   6.774  11.142  0.1109 -0.3300  0.0765
  947MOL0     C30553   0.785   6.634  11.151  0.9699 -0.2525 -0.0553
  947MOL0     C30554   0.916   6.593  11.156  0.0500  0.7601  0.1424
  947MOL0     C30555   1.016   6.691  11.164  0.2716 -1.7974  0.0623
  947MOL0     O30556   1.142   6.639  11.192  0.3905 -0.3773 -0.6309
  947MOL0     C30557   1.251   6.730  11.213  0.7860  0.1397  0.4888
  947MOL0     C30558   1.376   6.661  11.256  0.7162 -0.1222  0.1348
  947MOL0     C30559   1.457   6.611  11.139  0.0087  0.0063 -0.0461
  947MOL0     C30560   1.596   6.588  11.184  0.4896 -0.5999 -0.2338
  947MOL0     C30561   1.622   6.462  11.273 -0.3952  0.4027  0.1653
  947MOL0     C30562   1.750   6.477  11.357  0.7428  0.0965  0.3636
  947MOL0     C30563   1.778   6.362  11.446  0.3123 -0.4846 -0.2663
  947MOL0     C30564   1.670   6.344  11.563  0.3547 -0.3021 -0.4557
  947MOL0     N30565   1.715   6.230  11.640  0.4899 -0.5970 -0.1978
  947MOL0     C30566   1.668   6.107  11.644  0.3255 -0.1796  0.0097
  947MOL0     C30567   1.748   6.028  11.719  1.0174  1.0630 -0.4056
  947MOL0     C30568   1.727   5.888  11.754 -0.0542 -0.8295  0.3436
  947MOL0     C30569   1.588   5.860  11.804 -0.5411  0.1569 -0.5092
  947MOL0     C30570   1.564   5.714  11.838 -0.4235  1.0199  0.2146
  947MOL0     C30571   1.566   5.615  11.727 -0.2666 -0.8962 -0.1453
  947MOL0     O30572   1.467   5.644  11.622  0.0621 -0.2843 -0.4667
  947MOL0     C30573   1.336   5.632  11.655  0.0008  0.2120  0.5492
  947MOL0     C30574   1.283   5.510  11.677  0.5622 -0.4389 -0.3595
  947MOL0     C30575   1.146   5.492  11.704 -0.0625 -1.1253 -0.8220
  947MOL0     C30576   1.118   5.347  11.732  0.3086  0.2219  0.2927
  947MOL0     C30577   1.066   5.610  11.704  0.4008  0.5474 -0.4653
  947MOL0     C30578   0.914   5.595  11.724 -0.5213  0.2444 -0.8035
  947MOL0     O30579   0.853   5.493  11.796  0.6655 -0.2303 -0.2040
  947MOL0     C30580   0.717   5.489  11.832 -0.1839  0.5547  0.0798
  947MOL0     C30581   0.666   5.364  11.855  0.0316  0.7262  0.3910
  947MOL0     C30582   0.534   5.347  11.894  0.4263  0.5494  0.2433
  947MOL0     C30583   0.457   5.455  11.940 -0.9624 -0.7077  1.1698
  947MOL0     O30584   0.334   5.431  12.001  0.4663 -0.0611 -0.2541
  947MOL0     C30585   0.269   5.540  12.064 -0.0089  0.1376  0.0218
  947MOL0     C30586   0.146   5.482  12.143 -0.1945  0.1440  0.9905
  947MOL0     C30587   0.019   5.474  12.066 -0.0284 -0.0697  0.0515
  947MOL0     C30588  -0.099   5.456  12.154  0.2584  0.1166 -0.3504
  947MOL0     C30589  -0.232   5.505  12.096 -0.2239  0.0941 -0.7554
  947MOL0     C30590  -0.342   5.509  12.200 -0.7096  0.0532 -0.5789
  947MOL0     C30591  -0.465   5.558  12.127  0.5050 -0.1518 -0.5175
  947MOL0     C30592  -0.463   5.706  12.074 -0.3449  0.3717 -0.6560
  947MOL0    Cl30593  -0.633   5.765  12.051  0.0759  0.3753  0.0537
  947MOL0     C30594   0.514   5.587  11.916  0.2521 -0.0516 -0.7343
  947MOL0     C30595   0.644   5.605  11.860  1.1529 -0.2758 -0.0635
  947MOL0     O30596   0.851   5.673  11.655 -0.0927  0.7960 -0.8274
  947MOL0     C30597   1.123   5.736  11.661  1.1706 -0.5317 -0.0442
  947MOL0     C30598   1.256   5.746  11.645 -0.4522 -0.3806  0.6625
  947MOL0     N30599   1.836   6.113  11.781 -0.1175 -0.2444 -0.0521
  947MOL0     N30600   1.825   6.232  11.720  0.6961  0.0765 -0.3336
  947MOL0     C30601   0.983   6.835  11.148 -0.3530  0.0731 -0.5384
  947MOL0     C30602   0.853   6.866  11.131  0.8385 -0.3430 -0.4687
  947MOL0     C30603   0.406   6.889  11.217 -0.5912  0.4971 -0.1060
  947MOL0     C30604   0.371   6.983  11.314  0.5735  1.2486 -0.5206
  947MOL0     C30605   0.249   7.051  11.303  0.3202  0.2878 -0.5609
  947MOL0     C30606   0.163   7.034  11.197  1.0186  0.2498  0.6401
  947MOL0     O30607   0.054   7.118  11.194  0.4777 -0.0320  0.4334
  947MOL0     C30608  -0.051   7.111  11.093  0.1406  0.4862 -0.0049
  947MOL0     C30609  -0.141   6.992  11.123  0.4337  0.8357  0.2632
  947MOL0     C30610  -0.253   6.957  11.020 -0.2632  0.1694  0.4076
  947MOL0     C30611  -0.381   7.027  11.050  0.0268  0.6160 -0.3030
  947MOL0     C30612  -0.475   6.997  10.944 -0.3890 -0.3501  0.4111
  947MOL0     C30613  -0.561   6.962  10.866 -0.1888 -0.2834  0.8678
  947MOL0     C30614   0.196   6.934  11.103 -0.0504 -0.0670 -0.2468
  947MOL0     C30615   0.313   6.861  11.115 -0.2730  0.4831  0.5569
  947MOL0     C30616   0.338   6.749  11.011  0.8940  0.1249 -0.0059
  947MOL0     H30617   0.700   6.568  11.146  0.5910  0.2454 -0.2701
  947MOL0     H30618   0.943   6.488  11.158 -3.4411 -0.2232  0.7033
  947MOL0     H30619   1.231   6.808  11.288  0.0381 -0.2430  0.6964
  947MOL0     H30620   1.273   6.773  11.115 -1.0664 -0.5200 -0.2581
  947MOL0     H30621   1.434   6.740  11.302  0.2175  1.1246 -1.2802
  947MOL0     H30622   1.358   6.591  11.339 -1.7724 -1.6712 -1.5336
  947MOL0     H30623   1.425   6.522  11.084 -0.0909  1.0484 -1.7358
  947MOL0     H30624   1.459   6.699  11.075  4.2136 -1.0489 -1.6698
  947MOL0     H30625   1.666   6.587  11.099 -0.8835  0.0867 -1.4133
  947MOL0     H30626   1.633   6.676  11.238 -0.2877 -0.0127 -0.6457
  947MOL0     H30627   1.620   6.369  11.216 -0.8976 -0.7646  1.9957
  947MOL0     H30628   1.537   6.451  11.341 -1.8392 -0.0339 -1.6192
  947MOL0     H30629   1.833   6.481  11.287  1.4340 -1.3110  1.0482
  947MOL0     H30630   1.749   6.570  11.415 -0.7966 -1.1731  2.5063
  947MOL0     H30631   1.869   6.388  11.501  0.8801  0.2456 -1.5111
  947MOL0     H30632   1.786   6.266  11.394  1.4961  0.0528 -1.1263
  947MOL0     H30633   1.675   6.428  11.634  2.4435 -1.2528  0.6079
  947MOL0     H30634   1.565   6.332  11.537 -0.5824 -1.6334  3.2483
  947MOL0     H30635   1.584   6.069  11.587  0.3418 -1.0019  0.5094
  947MOL0     H30636   1.799   5.865  11.833  0.9615  5.4964  1.8388
  947MOL0     H30637   1.741   5.822  11.669  1.5979  0.6649 -0.6088
  947MOL0     H30638   1.566   5.928  11.887 -0.3054 -1.0935  0.6168
  947MOL0     H30639   1.518   5.897  11.729  0.0984  1.5676 -0.4445
  947MOL0     H30640   1.642   5.690  11.910  0.5263 -2.0442 -1.6540
  947MOL0     H30641   1.468   5.704  11.890 -0.3458  1.0385  0.3636
  947MOL0     H30642   1.666   5.613  11.683 -0.7036 -1.8351 -1.1488
  947MOL0     H30643   1.553   5.508  11.749 -0.5694 -0.8923 -0.2950
  947MOL0     H30644   1.361   5.434  11.681  0.5493 -0.4507 -0.3274
  947MOL0     H30645   1.111   5.340  11.840  0.1254  2.3448  0.4652
  947MOL0     H30646   1.192   5.282  11.685  0.2600  0.1769  0.2780
  947MOL0     H30647   1.020   5.313  11.694  0.6613 -0.2102 -0.2554
  947MOL0     H30648   0.715   5.275  11.817 -0.8035  0.7677 -0.8475
  947MOL0     H30649   0.494   5.246  11.896  2.4472 -0.4038 -2.2992
  947MOL0     H30650   0.325   5.585  12.147 -2.2113 -0.5332  1.9771
  947MOL0     H30651   0.238   5.622  11.999 -1.6679 -0.3676  0.1211
  947MOL0     H30652   0.169   5.392  12.201  0.1398 -1.1071 -0.9826
  947MOL0     H30653   0.126   5.549  12.227  0.5501 -1.2645  2.3496
  947MOL0     H30654   0.019   5.390  11.995  1.9155  1.7322 -2.2480
  947MOL0     H30655   0.011   5.564  12.004  1.3888  0.1790  0.1953
  947MOL0     H30656  -0.082   5.497  12.254 -0.2195  1.0230 -0.6321
  947MOL0     H30657  -0.113   5.348  12.168 -0.8463  0.3890  0.9381
  947MOL0     H30658  -0.218   5.603  12.049 -0.1586 -0.7914 -2.6706
  947MOL0     H30659  -0.253   5.440  12.011  3.1005  1.4387 -2.7998
  947MOL0     H30660  -0.316   5.586  12.273 -0.0760  2.3357 -3.0813
  947MOL0     H30661  -0.357   5.412  12.250 -2.1387  0.5552  0.0369
  947MOL0     H30662  -0.552   5.537  12.190  1.4816 -2.4657  0.1921
  947MOL0     H30663  -0.486   5.499  12.037  0.5862  0.8173 -1.1849
  947MOL0     H30664  -0.405   5.720  11.982  2.5108  2.9564  1.3481
  947MOL0     H30665  -0.421   5.777  12.146 -0.7413 -0.9982  0.9884
  947MOL0     H30666   0.453   5.670  11.950  1.1258 -0.0187  0.8531
  947MOL0     H30667   0.683   5.704  11.838  2.1192 -1.1964 -2.8897
  947MOL0     H30668   1.064   5.826  11.660 -1.3464 -2.0865 -1.0378
  947MOL0     H30669   1.302   5.839  11.612  1.9865 -2.0932 -1.0569
  947MOL0     H30670   1.057   6.913  11.137  0.6344 -0.5788  1.1414
  947MOL0     H30671   0.816   6.968  11.124 -1.1789 -1.0707 -1.1130
  947MOL0     H30672   0.442   7.010  11.392 -0.9333  2.7057  0.4217
  947MOL0     H30673   0.241   7.136  11.370  1.2154  0.9323 -1.2518
  947MOL0     H30674  -0.111   7.203  11.103  1.3044  1.3452 -0.6949
  947MOL0     H30675   0.002   7.107  10.998  0.9827  2.8516  0.2866
  947MOL0     H30676  -0.190   7.003  11.220 -1.5929 -1.2183 -0.4494
  947MOL0     H30677  -0.072   6.907  11.125 -1.6041 -1.0606 -2.5016
  947MOL0     H30678  -0.219   6.976  10.918  0.8782  0.3707  0.8049
  947MOL0     H30679  -0.281   6.853  11.037  0.3311  0.0662  0.8107
  947MOL0     H30680  -0.351   7.132  11.051 -1.4987  1.1196 -1.8479
  947MOL0     H30681  -0.412   7.008  11.153  0.7074 -1.4358 -0.4250
  947MOL0     H30682  -0.633   6.932  10.793  2.4574 -0.6259 -1.7723
  947MOL0     H30683   0.131   6.917  11.018 -0.0412  1.4677 -0.5933
  947MOL0     H30684   0.244   6.696  10.992  1.1696 -0.4458  0.1968
  947MOL0     H30685   0.366   6.791  10.914 -0.0421  5.4131  1.6595
  947MOL0     H30686   0.406   6.674  11.051  0.2382 -1.8854 -2.3959
  948MOL0     O30687  11.241   9.853   2.684  0.0951 -0.1720 -0.4630
  948MOL0     C30688  11.179   9.770   2.757 -0.6445 -0.1434 -0.0807
  948MOL0     O30689  11.216   9.743   2.883 -0.1442 -0.3433  0.5752
  948MOL0     C30690  11.349   9.758   2.921  0.2400  0.5138 -0.2422
  948MOL0     C30691  11.383   9.808   3.058 -0.3879  0.4715 -0.0282
  948MOL0     C30692  11.520   9.816   3.094 -0.3583  0.2582 -0.6130
  948MOL0     C30693  11.618   9.757   3.006  0.0128 -0.9580  0.0074
  948MOL0     O30694  11.754   9.774   3.027 -0.7733 -0.0113 -0.0999
  948MOL0     C30695  11.805   9.761   3.162  0.6084  0.1696  0.4547
  948MOL0     C30696  11.955   9.778   3.156 -0.8330 -0.4539 -0.2456
  948MOL0     C30697  12.022   9.704   3.274 -0.1115  0.4908 -0.0219
  948MOL0     C30698  12.159   9.759   3.286 -0.3665 -0.2212 -0.3302
  948MOL0     C30699  12.214   9.730   3.424  0.4792  0.7039 -0.0175
  948MOL0     C30700  12.363   9.756   3.412  0.6558 -0.5869  0.2946
  948MOL0     C30701  12.434   9.782   3.547 -0.5582 -0.2980 -0.6817
  948MOL0     C30702  12.588   9.799   3.531 -0.3050 -0.1622 -0.9296
  948MOL0     N30703  12.647   9.866   3.650  0.0260 -0.4085 -0.7967
  948MOL0     C30704  12.656  10.002   3.671  0.2098 -0.0457  0.2830
  948MOL0     C30705  12.726  10.007   3.791  0.3906  0.1358 -0.5460
  948MOL0     C30706  12.777  10.125   3.856  0.1867  0.1595 -0.4125
  948MOL0     C30707  12.929  10.129   3.850  0.9141 -0.7330  0.3329
  948MOL0     C30708  12.972  10.232   3.951  0.6501  1.0889  0.4306
  948MOL0     C30709  13.119  10.200   3.991  0.6003  0.3667 -0.1833
  948MOL0     O30710  13.166  10.298   4.076  0.0761 -0.2110 -0.3352
  948MOL0     C30711  13.306  10.324   4.094  0.4276 -0.2055  0.1961
  948MOL0     C30712  13.409  10.240   4.047 -0.1464  0.0305  0.7760
  948MOL0     C30713  13.544  10.275   4.066 -0.3496 -0.2021 -0.2969
  948MOL0     C30714  13.641  10.183   3.989  0.0141 -0.4696  0.2454
  948MOL0     C30715  13.577  10.391   4.134  0.1474 -0.2597 -0.3124
  948MOL0     C30716  13.717  10.442   4.130  0.8668 -0.5687 -0.2234
  948MOL0     O30717  13.817  10.352   4.089  0.7678 -0.5988  0.5535
  948MOL0     C30718  13.941  10.417   4.097 -0.4299  0.3289 -0.0414
  948MOL0     C30719  14.009  10.410   4.224 -0.3303  0.5746 -0.3618
  948MOL0     C30720  14.133  10.474   4.241 -0.1888 -0.7571 -0.4745
  948MOL0     C30721  14.204  10.528   4.130 -0.1952  0.2289  0.4553
  948MOL0     O30722  14.331  10.577   4.118  0.6371 -0.4729 -0.3413
  948MOL0     C30723  14.420  10.566   4.232  0.2582 -0.1943 -0.3954
  948MOL0     C30724  14.560  10.606   4.188 -1.2335  0.4288  0.2875
  948MOL0     C30725  14.576  10.755   4.140 -0.2310 -0.5039  0.3413
  948MOL0     C30726  14.722  10.769   4.086  0.2065  0.0545 -0.1466
  948MOL0     C30727  14.737  10.875   3.980 -0.0219  0.2623  0.2443
  948MOL0     C30728  14.877  10.929   3.975 -1.5639  0.0869  0.4773
  948MOL0     C30729  14.887  11.065   3.888  0.8683 -0.0450 -0.6102
  948MOL0     C30730  15.017  11.135   3.904 -0.3706  0.3778  0.3831
  948MOL0    Cl30731  15.031  11.271   3.796 -0.5133 -0.1739 -0.3022
  948MOL0     C30732  14.140  10.530   4.007  0.8918  1.0623 -0.1233
  948MOL0     C30733  14.018  10.471   3.993  0.1154 -0.4756  0.2054
  948MOL0     O30734  13.731  10.559   4.168  0.7346  0.0793 -0.1600
  948MOL0     C30735  13.469  10.458   4.195 -0.4812  0.2454 -0.5646
  948MOL0     C30736  13.337  10.433   4.172  0.5246 -0.0759  0.1194
  948MOL0     N30737  12.744   9.885   3.852 -0.6021 -0.0412  0.6894
  948MOL0     N30738  12.699   9.802   3.760 -0.0248  0.6067  0.4716
  948MOL0     C30739  11.581   9.700   2.885 -0.1227  0.1724  0.5235
  948MOL0     C30740  11.447   9.707   2.842  0.0370 -0.2456  0.2848
  948MOL0     C30741  11.058   9.708   2.698  0.3235  0.0707 -0.7447
  948MOL0     C30742  10.959   9.659   2.792 -0.6424 -0.5226 -0.7042
  948MOL0     C30743  10.845   9.601   2.741 -0.6831  0.0858 -0.5307
  948MOL0     C30744  10.816   9.607   2.604 -0.9464  0.3355  0.6285
  948MOL0     O30745  10.694   9.582   2.539 -0.2680 -0.4591  0.1391
  948MOL0     C30746  10.578   9.560   2.618  0.0245  0.1560 -0.4534
  948MOL0     C30747  10.579   9.421   2.687 -0.5629  0.7932 -1.2097
  948MOL0     C30748  10.521   9.321   2.588  0.4433 -0.3960  0.4500
  948MOL0     C30749  10.613   9.272   2.475  0.7395 -1.1815 -0.0491
  948MOL0     C30750  10.582   9.135   2.427 -0.6414  0.2404  0.0196
  948MOL0     C30751  10.551   9.024   2.399  0.2379 -0.1378 -0.0260
  948MOL0     C30752  10.915   9.630   2.515 -0.4023  0.4694  0.2015
  948MOL0     C30753  11.042   9.678   2.562  0.1694 -0.4464  0.3040
  948MOL0     C30754  11.147   9.692   2.453  0.8399  0.8714 -0.3832
  948MOL0     H30755  11.304   9.850   3.120 -1.4803  1.7293 -2.1290
  948MOL0     H30756  11.563   9.863   3.181  2.5975  0.6855 -2.1862
  948MOL0     H30757  11.783   9.664   3.206  0.4288  0.6439  1.4325
  948MOL0     H30758  11.764   9.842   3.223  0.0291 -0.7341  1.2792
  948MOL0     H30759  12.000   9.752   3.060 -1.3164 -1.4592 -0.2186
  948MOL0     H30760  11.971   9.883   3.180 -4.6089  0.5541 -1.5930
  948MOL0     H30761  11.968   9.734   3.365  1.3526  0.8256  0.7592
  948MOL0     H30762  12.023   9.596   3.259  0.4990  0.2816  1.3956
  948MOL0     H30763  12.230   9.715   3.216 -0.6856 -3.3053  1.1078
  948MOL0     H30764  12.154   9.867   3.271 -0.9131 -0.0557  0.8739
  948MOL0     H30765  12.196   9.627   3.456 -1.3792  0.9647 -0.1042
  948MOL0     H30766  12.165   9.803   3.489  0.8506 -0.1214  1.2379
  948MOL0     H30767  12.428   9.673   3.382  2.9067  0.6825  1.3853
  948MOL0     H30768  12.377   9.842   3.346 -0.4459  1.7160  2.8745
  948MOL0     H30769  12.430   9.695   3.613  2.1568 -0.5607 -0.7314
  948MOL0     H30770  12.391   9.874   3.587  1.6974 -0.4270  2.4478
  948MOL0     H30771  12.643   9.706   3.515 -1.2612 -0.4563 -2.7301
  948MOL0     H30772  12.605   9.867   3.447 -1.6731  0.6954 -0.5394
  948MOL0     H30773  12.631  10.093   3.618 -2.3321 -0.4542  0.6629
  948MOL0     H30774  12.728  10.133   3.954 -0.2292 -3.2942 -0.2005
  948MOL0     H30775  12.743  10.214   3.802 -0.7009 -1.4683 -2.6576
  948MOL0     H30776  12.970  10.033   3.885 -0.3764 -0.8917  1.4979
  948MOL0     H30777  12.965  10.152   3.749  0.7365  0.8577  0.5975
  948MOL0     H30778  12.956  10.331   3.907 -1.2782  1.4388  1.8260
  948MOL0     H30779  12.916  10.228   4.044  2.8867 -1.5353  1.7974
  948MOL0     H30780  13.127  10.100   4.035  1.3763  0.9019  0.9502
  948MOL0     H30781  13.184  10.206   3.904  1.1052 -0.1778  0.1480
  948MOL0     H30782  13.382  10.144   4.003  0.3383  0.2606 -0.0543
  948MOL0     H30783  13.580  10.107   3.939 -1.3679  0.2494  0.8015
  948MOL0     H30784  13.715  10.134   4.052 -0.1082 -0.1918  0.6067
  948MOL0     H30785  13.700  10.239   3.916 -1.6216  2.3021  0.8807
  948MOL0     H30786  13.960  10.367   4.311 -0.7148 -0.1242 -0.9059
  948MOL0     H30787  14.172  10.491   4.340 -0.3624 -4.3916  0.3556
  948MOL0     H30788  14.373  10.632   4.305  0.2537 -0.4538 -0.1607
  948MOL0     H30789  14.430  10.471   4.286 -1.2679  0.7885  1.7362
  948MOL0     H30790  14.634  10.599   4.269 -1.4742  0.7767  0.5405
  948MOL0     H30791  14.598  10.538   4.112 -3.2959  0.9512 -1.2956
  948MOL0     H30792  14.562  10.825   4.223  3.4265 -0.3718  1.0012
  948MOL0     H30793  14.498  10.775   4.066  0.1280  2.1288  0.5796
  948MOL0     H30794  14.758  10.679   4.035 -0.5074  1.1535 -2.7829
  948MOL0     H30795  14.781  10.810   4.168 -2.8202  2.5934  0.9384
  948MOL0     H30796  14.722  10.845   3.876 -0.3083 -2.3553  0.9822
  948MOL0     H30797  14.672  10.960   4.003 -1.3986 -0.6401 -0.1626
  948MOL0     H30798  14.949  10.864   3.924 -1.9280  1.8349 -2.5381
  948MOL0     H30799  14.924  10.955   4.070  1.0836 -3.5400  0.3717
  948MOL0     H30800  14.799  11.127   3.910  0.6047  0.2101 -2.1994
  948MOL0     H30801  14.881  11.047   3.780 -1.6741 -0.8566 -0.4108
  948MOL0     H30802  15.098  11.067   3.875 -1.3203 -0.1912 -1.0393
  948MOL0     H30803  15.026  11.170   4.007 -1.0657  2.7345 -0.2916
  948MOL0     H30804  14.189  10.580   3.924 -3.8887 -0.6595 -4.5286
  948MOL0     H30805  13.977  10.461   3.893 -0.7995 -1.6957  0.6718
  948MOL0     H30806  13.491  10.553   4.243  0.1321 -0.2623  0.1748
  948MOL0     H30807  13.255  10.492   4.211  0.3268  0.6086 -1.2688
  948MOL0     H30808  11.654   9.650   2.821 -0.2667  0.6929 -0.0573
  948MOL0     H30809  11.419   9.678   2.741  2.0785 -0.8147 -0.1486
  948MOL0     H30810  10.971   9.682   2.898  1.8666  0.6923 -1.1781
  948MOL0     H30811  10.762   9.603   2.811  0.4822 -0.7800  0.9267
  948MOL0     H30812  10.576   9.625   2.707 -0.3926 -0.8918  0.3292
  948MOL0     H30813  10.482   9.565   2.566 -0.3399  0.9406  0.2551
  948MOL0     H30814  10.528   9.418   2.783  4.3639  1.2333  1.7723
  948MOL0     H30815  10.681   9.384   2.701 -1.0974 -1.1028 -2.0417
  948MOL0     H30816  10.494   9.235   2.650 -1.5628 -0.6311 -0.6844
  948MOL0     H30817  10.434   9.360   2.535  0.9192 -0.4925 -0.4169
  948MOL0     H30818  10.718   9.278   2.504  0.4511 -3.7018  1.8157
  948MOL0     H30819  10.606   9.343   2.392  0.0755 -1.6850 -0.4377
  948MOL0     H30820  10.532   8.922   2.373  0.3556 -0.9702  2.7925
  948MOL0     H30821  10.894   9.612   2.410 -2.5399  1.1579  0.4651
  948MOL0     H30822  11.102   9.683   2.354 -1.2633 -1.5630  0.6920
  948MOL0     H30823  11.196   9.790   2.447  0.9058  0.9810  1.3718
  948MOL0     H30824  11.220   9.612   2.467 -1.0051 -0.5659  1.7267
  949MOL0     O30825   6.511   0.623   4.470 -0.4533 -0.3527  0.8354
  949MOL0     C30826   6.433   0.651   4.382  1.0276 -0.2083  0.3190
  949MOL0     O30827   6.310   0.582   4.360 -0.7029  0.6296  0.3550
  949MOL0     C30828   6.312   0.441   4.382 -0.6053  0.1446 -0.6979
  949MOL0     C30829   6.308   0.357   4.274 -0.2830  1.6955 -0.3887
  949MOL0     C30830   6.327   0.216   4.293  0.3422 -0.6132 -0.1767
  949MOL0     C30831   6.315   0.161   4.422 -0.1164 -0.1441  0.0425
  949MOL0     O30832   6.309   0.030   4.457  0.0659  0.1913  0.0047
  949MOL0     C30833   6.334  -0.079   4.356 -0.2310 -0.3052  0.2330
  949MOL0     C30834   6.203  -0.095   4.284 -0.3686  0.7949 -0.5581
  949MOL0     C30835   6.201  -0.239   4.228 -0.1932  0.3351 -0.1231
  949MOL0     C30836   6.064  -0.265   4.165  0.1501 -0.1301  0.3462
  949MOL0     C30837   6.068  -0.414   4.129 -0.9635 -0.1727  0.1896
  949MOL0     C30838   5.931  -0.467   4.080 -0.1459  0.0240  0.2324
  949MOL0     C30839   5.958  -0.609   4.047 -0.6135 -0.4024  0.5047
  949MOL0     C30840   6.028  -0.636   3.914  0.1755  0.4893 -0.3417
  949MOL0     N30841   6.127  -0.747   3.929  0.7374 -0.0111 -0.4417
  949MOL0     C30842   6.110  -0.873   3.883  0.2537  0.1447  0.2122
  949MOL0     C30843   6.224  -0.931   3.906 -0.0472 -0.0305 -0.1545
  949MOL0     C30844   6.246  -1.075   3.864 -0.6039  0.0731 -0.8674
  949MOL0     C30845   6.339  -1.155   3.952  0.9468  0.0902 -1.0008
  949MOL0     C30846   6.318  -1.121   4.105 -0.4840  0.0409 -0.8625
  949MOL0     C30847   6.393  -1.219   4.190 -0.7560  0.4488  0.2878
  949MOL0     O30848   6.528  -1.204   4.156 -0.2690 -0.1280  0.0530
  949MOL0     C30849   6.605  -1.319   4.154 -1.0144 -0.3195  0.0716
  949MOL0     C30850   6.719  -1.315   4.076 -0.5890 -0.6238  0.5065
  949MOL0     C30851   6.802  -1.423   4.060 -0.7185  1.0142  0.9205
  949MOL0     C30852   6.928  -1.391   3.990 -0.4178 -0.2427  0.8121
  949MOL0     C30853   6.774  -1.544   4.120  1.1090  0.4202 -0.6965
  949MOL0     C30854   6.862  -1.668   4.099  0.1945 -0.5653  0.0583
  949MOL0     O30855   6.883  -1.764   4.193  0.2070  0.0110 -0.1308
  949MOL0     C30856   6.880  -1.722   4.323 -0.3217 -0.0795  0.9433
  949MOL0     C30857   6.816  -1.806   4.403 -0.1033  0.6313 -0.8084
  949MOL0     C30858   6.790  -1.771   4.537 -0.0537  0.3473  0.1747
  949MOL0     C30859   6.838  -1.649   4.579 -1.1005 -0.1287 -0.6740
  949MOL0     O30860   6.810  -1.602   4.707 -0.7632 -0.2900  0.0434
  949MOL0     C30861   6.744  -1.480   4.715 -1.1696 -0.4877 -0.0213
  949MOL0     C30862   6.682  -1.459   4.851 -0.6954  0.7744  0.2823
  949MOL0     C30863   6.790  -1.454   4.972 -0.0233  0.0467  0.7925
  949MOL0     C30864   6.728  -1.460   5.109 -0.6369  0.3240  0.8493
  949MOL0     C30865   6.616  -1.348   5.144 -1.4605 -0.0344 -0.1949
  949MOL0     C30866   6.594  -1.333   5.291 -0.3273  0.1054 -0.0752
  949MOL0     C30867   6.497  -1.420   5.356 -0.4595  0.1350 -0.2230
  949MOL0     C30868   6.354  -1.393   5.331 -0.2381  0.9783 -0.0627
  949MOL0    Cl30869   6.282  -1.498   5.453  0.1465 -0.6145 -0.2475
  949MOL0     C30870   6.920  -1.568   4.496 -0.4565 -0.3634  0.5607
  949MOL0     C30871   6.941  -1.605   4.363 -0.3263  0.3312 -0.4357
  949MOL0     O30872   6.912  -1.671   3.985 -0.0965  0.5201 -0.7547
  949MOL0     C30873   6.657  -1.557   4.195  0.1825 -0.0718  0.2508
  949MOL0     C30874   6.571  -1.443   4.210  0.7461 -0.5820  0.1810
  949MOL0     N30875   6.307  -0.842   3.967 -0.6561  0.3402  0.3832
  949MOL0     N30876   6.247  -0.728   3.987 -0.1428  0.6027 -0.2370
  949MOL0     C30877   6.308   0.249   4.534 -0.9534  0.3779  0.3128
  949MOL0     C30878   6.305   0.392   4.512  0.0053  0.3738 -0.4873
  949MOL0     C30879   6.450   0.784   4.316  0.0553  1.0426 -0.0633
  949MOL0     C30880   6.346   0.842   4.232 -0.7982  0.4312 -0.2907
  949MOL0     C30881   6.356   0.962   4.166  0.2563  0.4314  0.3568
  949MOL0     C30882   6.474   1.036   4.178  0.0256 -0.3342 -0.2676
  949MOL0     O30883   6.499   1.159   4.118  1.0199 -0.0007  0.5045
  949MOL0     C30884   6.507   1.136   3.972  0.1708 -0.4925  0.2664
  949MOL0     C30885   6.654   1.103   3.944  0.1307 -0.4206  0.2654
  949MOL0     C30886   6.673   1.086   3.788 -0.4932 -0.5005 -0.5034
  949MOL0     C30887   6.821   1.094   3.759  0.2387 -0.3554 -0.1049
  949MOL0     C30888   6.839   1.129   3.620  0.5361 -0.4079  0.1259
  949MOL0     C30889   6.848   1.161   3.504 -0.5272  0.5773  0.0566
  949MOL0     C30890   6.572   0.992   4.273 -0.2302  0.0371  0.2257
  949MOL0     C30891   6.567   0.866   4.329  0.7402  0.4149  0.1038
  949MOL0     C30892   6.681   0.823   4.415 -0.2615 -0.3643  0.8765
  949MOL0     H30893   6.295   0.390   4.171 -1.2808 -0.6927 -1.0827
  949MOL0     H30894   6.333   0.151   4.206  2.4330  0.3650 -0.8384
  949MOL0     H30895   6.362  -0.168   4.413 -3.9112 -0.1869  2.6151
  949MOL0     H30896   6.416  -0.051   4.290 -1.8989  0.5540 -1.5886
  949MOL0     H30897   6.121  -0.083   4.356 -0.4898 -0.2957 -0.5015
  949MOL0     H30898   6.179  -0.021   4.208 -2.6060 -0.8867 -1.6139
  949MOL0     H30899   6.290  -0.243   4.164 -1.2484 -0.0671 -1.5962
  949MOL0     H30900   6.221  -0.302   4.316  4.0418  2.4243  0.7156
  949MOL0     H30901   5.975  -0.250   4.227 -0.1700  0.7518 -0.3093
  949MOL0     H30902   6.055  -0.203   4.076  2.8363  1.6265  1.1847
  949MOL0     H30903   6.104  -0.478   4.210 -1.4432 -1.1141 -0.3308
  949MOL0     H30904   6.141  -0.424   4.049 -0.7671 -1.2896  0.4948
  949MOL0     H30905   5.855  -0.444   4.156  0.8055  5.2485  0.0271
  949MOL0     H30906   5.886  -0.425   3.990 -3.8827 -0.0699  1.8467
  949MOL0     H30907   5.864  -0.665   4.056 -1.0642  0.1943 -0.4073
  949MOL0     H30908   6.024  -0.653   4.123 -0.6338  0.6096  1.1253
  949MOL0     H30909   5.955  -0.647   3.833  1.7478  0.0167 -1.7612
  949MOL0     H30910   6.075  -0.544   3.879  0.8869 -0.1204 -1.0188
  949MOL0     H30911   6.031  -0.934   3.842 -0.3973 -0.8199  2.7373
  949MOL0     H30912   6.291  -1.070   3.764 -0.6170 -0.9749 -0.9387
  949MOL0     H30913   6.155  -1.135   3.849  0.5830 -1.4781 -2.3453
  949MOL0     H30914   6.308  -1.259   3.946  0.7944  0.0042  0.8065
  949MOL0     H30915   6.443  -1.155   3.917  0.3425  1.0774 -2.9230
  949MOL0     H30916   6.364  -1.025   4.128  0.0475 -0.6407  1.1522
  949MOL0     H30917   6.211  -1.105   4.122 -0.9045 -2.7425 -0.4142
  949MOL0     H30918   6.379  -1.187   4.294  2.8146  0.7389  0.7877
  949MOL0     H30919   6.339  -1.314   4.180  0.0471  0.1365 -1.5253
  949MOL0     H30920   6.736  -1.216   4.035 -0.8532 -1.2177 -1.1261
  949MOL0     H30921   6.950  -1.284   3.994 -0.7073 -0.2069  2.7923
  949MOL0     H30922   6.920  -1.417   3.885 -2.5215  1.5025  0.4577
  949MOL0     H30923   7.017  -1.442   4.029 -0.6343 -0.0904  1.5273
  949MOL0     H30924   6.765  -1.895   4.368  1.1350 -1.2715  1.8292
  949MOL0     H30925   6.726  -1.829   4.603  0.9571 -2.8937 -1.4441
  949MOL0     H30926   6.813  -1.395   4.706 -0.2365 -1.2760 -0.5244
  949MOL0     H30927   6.674  -1.462   4.633 -0.8730 -0.2767 -0.2333
  949MOL0     H30928   6.621  -1.368   4.857 -1.4264  0.2189  1.6287
  949MOL0     H30929   6.620  -1.549   4.861  2.6131 -1.7556 -0.4092
  949MOL0     H30930   6.846  -1.360   4.974  2.2399 -1.2428  2.1506
  949MOL0     H30931   6.866  -1.531   4.964  2.1386  2.1115  0.4589
  949MOL0     H30932   6.808  -1.470   5.183  0.4457 -2.6333 -0.5780
  949MOL0     H30933   6.672  -1.551   5.133 -1.2057  0.4619  0.0935
  949MOL0     H30934   6.642  -1.255   5.093 -2.9420  0.3234 -0.3428
  949MOL0     H30935   6.522  -1.379   5.099 -1.2285  0.0236 -0.7295
  949MOL0     H30936   6.565  -1.235   5.330  0.7371 -0.2612  1.7526
  949MOL0     H30937   6.693  -1.352   5.333  0.5672  0.2306 -2.0133
  949MOL0     H30938   6.507  -1.425   5.464  0.0240 -0.9949 -0.3067
  949MOL0     H30939   6.522  -1.521   5.321  1.0161  1.0029 -1.8915
  949MOL0     H30940   6.329  -1.433   5.232 -1.2675 -1.5131  1.0990
  949MOL0     H30941   6.324  -1.291   5.355  0.9587  1.3142  0.0416
  949MOL0     H30942   6.957  -1.472   4.532 -0.3705  0.6987 -2.1047
  949MOL0     H30943   6.983  -1.531   4.295 -0.8485  2.5535  1.5116
  949MOL0     H30944   6.617  -1.652   4.229 -3.5868  1.4374  0.6307
  949MOL0     H30945   6.477  -1.459   4.262  0.2265 -0.1854 -0.6038
  949MOL0     H30946   6.306   0.199   4.630  2.2270 -0.9297 -0.1782
  949MOL0     H30947   6.289   0.461   4.595 -2.0180 -0.5985  0.0093
  949MOL0     H30948   6.246   0.802   4.221 -1.3717  2.2994 -3.2500
  949MOL0     H30949   6.274   0.997   4.105  0.7083  1.7865  0.5115
  949MOL0     H30950   6.440   1.061   3.929  0.0857  0.5604 -1.5080
  949MOL0     H30951   6.476   1.227   3.920  0.5073 -1.3210 -1.4523
  949MOL0     H30952   6.679   1.008   3.993  1.1427  0.6759  1.9643
  949MOL0     H30953   6.724   1.177   3.984  0.0082  0.0750 -0.4192
  949MOL0     H30954   6.639   0.988   3.751  1.1959 -0.7776 -1.4338
  949MOL0     H30955   6.620   1.166   3.735  2.2148  1.5054 -0.3667
  949MOL0     H30956   6.869   0.998   3.776 -0.9050 -0.8333  0.5421
  949MOL0     H30957   6.871   1.167   3.824 -0.0723  1.2073 -1.5437
  949MOL0     H30958   6.857   1.164   3.397 -1.1550 -0.7720 -0.0607
  949MOL0     H30959   6.653   1.054   4.308 -0.5158  0.4886  0.0870
  949MOL0     H30960   6.654   0.846   4.519 -0.4541 -0.8832  0.9460
  949MOL0     H30961   6.705   0.717   4.405 -1.2271 -0.5153 -0.0428
  949MOL0     H30962   6.775   0.870   4.386 -0.1737 -0.6984  0.6111
  950MOL0     O30963   2.004   0.184   9.865  0.2532  0.3746  0.3241
  950MOL0     C30964   2.045   0.077   9.822 -0.0874  1.0685  0.4759
  950MOL0     O30965   2.002   0.021   9.701  0.3183 -0.3789  0.6527
  950MOL0     C30966   1.900   0.086   9.625 -0.0966  0.5361  0.3373
  950MOL0     C30967   1.906   0.098   9.488 -0.7302 -0.4726  0.5359
  950MOL0     C30968   1.789   0.126   9.412 -0.3133 -0.4375  0.1398
  950MOL0     C30969   1.682   0.166   9.477  0.5833 -0.6748  0.0876
  950MOL0     O30970   1.572   0.198   9.397  0.3447  0.5930 -0.8485
  950MOL0     C30971   1.465   0.287   9.450  0.2321  0.4717  0.5420
  950MOL0     C30972   1.359   0.305   9.332 -0.5272  0.8185  0.0072
  950MOL0     C30973   1.264   0.183   9.331 -0.2552  0.3555 -0.2238
  950MOL0     C30974   1.135   0.199   9.423  0.9056 -0.5404  0.3992
  950MOL0     C30975   1.030   0.096   9.409 -0.0587  0.8113  0.2515
  950MOL0     C30976   0.948   0.108   9.274  0.9650  0.3640 -0.7346
  950MOL0     C30977   0.835   0.013   9.254 -0.1774  0.2572  0.4904
  950MOL0     C30978   0.763   0.014   9.118 -0.1267 -0.4283 -0.7434
  950MOL0     N30979   0.749   0.142   9.050 -0.4116 -0.2492  0.7196
  950MOL0     C30980   0.715   0.264   9.102  1.0700  0.1844 -0.7906
  950MOL0     C30981   0.708   0.347   9.003 -0.7423 -0.8156  0.2912
  950MOL0     C30982   0.663   0.491   9.011 -0.3458  0.3937  0.1571
  950MOL0     C30983   0.528   0.525   8.960 -0.7485 -0.2867  0.2219
  950MOL0     C30984   0.522   0.675   8.922 -0.1614 -0.2127 -0.9580
  950MOL0     C30985   0.555   0.769   9.043 -0.3626 -1.2104 -0.4792
  950MOL0     O30986   0.476   0.750   9.154  0.6350 -0.2261 -1.1038
  950MOL0     C30987   0.343   0.786   9.149 -1.7698 -0.3439 -0.0423
  950MOL0     C30988   0.268   0.734   9.249  0.0832  0.7838 -0.2078
  950MOL0     C30989   0.129   0.756   9.277 -0.4204  0.7919  0.3171
  950MOL0     C30990   0.071   0.698   9.394  0.8001 -0.4817  0.0022
  950MOL0     C30991   0.064   0.835   9.174 -0.4688  0.5448  0.7566
  950MOL0     C30992  -0.084   0.847   9.163 -0.6465 -0.5152  0.4782
  950MOL0     O30993  -0.157   0.870   9.275  0.0990 -0.1445  0.2736
  950MOL0     C30994  -0.290   0.864   9.265  0.5767  0.2519 -0.1404
  950MOL0     C30995  -0.352   0.991   9.282  0.0104  0.1195 -0.4249
  950MOL0     C30996  -0.497   0.987   9.282  0.0880  0.0772 -0.1679
  950MOL0     C30997  -0.570   0.874   9.249 -0.4197 -0.5650 -0.1021
  950MOL0     O30998  -0.711   0.883   9.248 -1.1106  0.2637 -1.0470
  950MOL0     C30999  -0.783   0.816   9.143  0.4110 -0.3229 -0.0243
  950MOL0     C31000  -0.884   0.913   9.080 -0.0119 -0.4473  0.2083
  950MOL0     C31001  -0.989   0.982   9.178 -0.1854 -0.3785  0.9197
  950MOL0     C31002  -1.074   1.080   9.095  0.0659 -0.4625 -0.3247
  950MOL0     C31003  -1.149   1.180   9.177  0.1152  0.8121  0.2331
  950MOL0     C31004  -1.204   1.300   9.099  0.6198  1.0827 -0.2266
  950MOL0     C31005  -1.259   1.407   9.200 -0.0734 -0.3137 -0.0590
  950MOL0     C31006  -1.324   1.516   9.120  1.5110 -1.0262  1.3522
  950MOL0    Cl31007  -1.466   1.468   9.045  0.0082  0.2442  0.3878
  950MOL0     C31008  -0.509   0.757   9.234 -0.2849  0.3072 -0.2075
  950MOL0     C31009  -0.370   0.744   9.254 -0.0414  0.8317 -0.2484
  950MOL0     O31010  -0.120   0.867   9.051 -0.1417  0.3204 -0.4245
  950MOL0     C31011   0.148   0.897   9.078  0.6898  0.1770 -0.2239
  950MOL0     C31012   0.284   0.877   9.068  0.2438 -0.2719  0.1228
  950MOL0     N31013   0.749   0.276   8.893  0.1689  0.5259  0.1279
  950MOL0     N31014   0.777   0.156   8.916  0.5809  0.4785 -0.2732
  950MOL0     C31015   1.677   0.171   9.612  0.0501 -0.2582  0.0292
  950MOL0     C31016   1.779   0.116   9.691 -0.9781 -0.0343  0.3774
  950MOL0     C31017   2.133  -0.003   9.909 -1.3521 -0.2611  0.1609
  950MOL0     C31018   2.084  -0.123   9.979 -0.0243  0.4085 -0.1542
  950MOL0     C31019   2.172  -0.208  10.053 -0.7264 -0.1254  0.4956
  950MOL0     C31020   2.303  -0.169  10.064 -0.3701 -0.2401  0.5923
  950MOL0     O31021   2.388  -0.259  10.124  0.6828  0.1320  0.4540
  950MOL0     C31022   2.524  -0.231  10.155  0.4808  0.0095  0.0735
  950MOL0     C31023   2.585  -0.326  10.261  0.0753  0.2530 -0.4555
  950MOL0     C31024   2.520  -0.294  10.402 -0.3982 -0.2631 -0.6992
  950MOL0     C31025   2.567  -0.398  10.502 -1.0109 -0.2718 -0.2947
  950MOL0     C31026   2.465  -0.419  10.607  0.1821  0.4105  0.5181
  950MOL0     C31027   2.391  -0.435  10.704 -0.4199  1.3062  0.6481
  950MOL0     C31028   2.338  -0.044  10.027  0.4673 -0.4238  1.0317
  950MOL0     C31029   2.258   0.042   9.951 -0.2304 -0.5835  0.0526
  950MOL0     C31030   2.322   0.172   9.904  0.5485 -0.2882  0.3715
  950MOL0     H31031   1.987   0.050   9.435 -2.0303  0.1086 -2.1517
  950MOL0     H31032   1.789   0.123   9.304  2.7390 -3.0783  0.0470
  950MOL0     H31033   1.513   0.382   9.475  0.5900  0.6345 -0.6585
  950MOL0     H31034   1.424   0.244   9.541  1.0916 -0.4937  0.5032
  950MOL0     H31035   1.305   0.399   9.345 -1.1270  0.7300 -1.6837
  950MOL0     H31036   1.398   0.322   9.231 -0.8594  0.0230 -0.2590
  950MOL0     H31037   1.233   0.176   9.226 -1.3494  1.3258  0.0086
  950MOL0     H31038   1.321   0.092   9.353  0.7673  1.3171  1.2188
  950MOL0     H31039   1.153   0.212   9.530  0.2073 -2.2997  0.7578
  950MOL0     H31040   1.096   0.294   9.386  3.0290  0.2808  0.1169
  950MOL0     H31041   0.956   0.093   9.490 -0.5710 -2.2697 -0.2360
  950MOL0     H31042   1.076  -0.003   9.408 -1.8292 -0.1663 -3.9017
  950MOL0     H31043   0.913   0.212   9.274  0.7525  0.3003 -0.2324
  950MOL0     H31044   1.029   0.104   9.201  2.3067 -2.7666  0.7090
  950MOL0     H31045   0.760   0.025   9.333  0.6216 -2.4755  1.7795
  950MOL0     H31046   0.881  -0.086   9.255  0.8409  0.7069  0.1267
  950MOL0     H31047   0.808  -0.061   9.053  0.2379 -1.2928  0.4713
  950MOL0     H31048   0.659  -0.010   9.142 -0.0991  0.9615  0.9465
  950MOL0     H31049   0.667   0.285   9.198  0.8173 -2.8924 -0.1380
  950MOL0     H31050   0.736   0.559   8.965  1.8590  0.7341  3.7581
  950MOL0     H31051   0.676   0.517   9.116  0.7384  0.0293  0.1273
  950MOL0     H31052   0.504   0.462   8.874  0.7635 -1.0447  0.3128
  950MOL0     H31053   0.452   0.513   9.037 -1.7660  0.0415 -0.7114
  950MOL0     H31054   0.590   0.696   8.838  0.3155  2.2522 -0.0498
  950MOL0     H31055   0.417   0.697   8.906 -0.8837 -0.4730  2.5951
  950MOL0     H31056   0.660   0.755   9.071 -0.0126 -0.6532 -1.4786
  950MOL0     H31057   0.546   0.873   9.011  1.4447 -1.0680 -0.6659
  950MOL0     H31058   0.321   0.672   9.321 -2.7148  1.1242  2.3836
  950MOL0     H31059  -0.031   0.663   9.371  1.0199  0.0434 -1.9175
  950MOL0     H31060   0.057   0.772   9.473  1.9463  1.2286 -1.3345
  950MOL0     H31061   0.128   0.611   9.427 -2.5146 -2.2355  1.6039
  950MOL0     H31062  -0.301   1.087   9.289 -1.6555  1.1198 -1.3759
  950MOL0     H31063  -0.541   1.083   9.308 -1.2742 -0.9239  1.3905
  950MOL0     H31064  -0.721   0.764   9.069 -1.7602  1.7618 -3.5756
  950MOL0     H31065  -0.840   0.738   9.193  0.1449 -0.1373 -0.0329
  950MOL0     H31066  -0.825   0.980   9.017  1.6676 -1.8319  0.2389
  950MOL0     H31067  -0.950   0.859   9.011 -1.6441  1.5020  0.1469
  950MOL0     H31068  -0.924   1.043   9.241  2.5367  0.8094 -2.6915
  950MOL0     H31069  -1.049   0.912   9.236  0.4562 -0.0853  1.9703
  950MOL0     H31070  -1.145   1.029   9.029 -1.7199  2.1519 -0.5586
  950MOL0     H31071  -1.006   1.145   9.039  0.0402 -0.6401 -0.5654
  950MOL0     H31072  -1.229   1.131   9.233 -1.3122  1.2588 -1.3179
  950MOL0     H31073  -1.086   1.226   9.253 -1.7332  1.9970  1.1439
  950MOL0     H31074  -1.275   1.261   9.026 -1.1622 -1.4796  2.6879
  950MOL0     H31075  -1.119   1.329   9.036  0.9694  0.8336  0.1280
  950MOL0     H31076  -1.176   1.457   9.251  0.5909 -0.6353 -0.8143
  950MOL0     H31077  -1.334   1.370   9.271  2.0326  3.2365  4.5838
  950MOL0     H31078  -1.248   1.538   9.044 -0.4444 -3.7599 -1.6672
  950MOL0     H31079  -1.345   1.597   9.190  1.0403 -2.4404  2.8923
  950MOL0     H31080  -0.574   0.671   9.219  1.5931 -1.1373 -0.3765
  950MOL0     H31081  -0.314   0.651   9.257  0.4216  1.1275  1.2303
  950MOL0     H31082   0.098   0.959   9.004 -1.2259 -0.7998  0.1845
  950MOL0     H31083   0.351   0.923   8.996 -0.5221 -0.7702 -0.9283
  950MOL0     H31084   1.586   0.204   9.660 -0.7786 -0.3526 -1.4510
  950MOL0     H31085   1.763   0.092   9.796  1.3791  1.1898  1.0980
  950MOL0     H31086   1.982  -0.143   9.948 -0.0938  4.2530 -3.1630
  950MOL0     H31087   2.147  -0.301  10.101  0.5808 -0.6146  0.2744
  950MOL0     H31088   2.590  -0.231  10.068 -1.9792  1.4769 -1.9196
  950MOL0     H31089   2.549  -0.133  10.197  0.3848  0.2285 -0.3727
  950MOL0     H31090   2.691  -0.304  10.276 -0.3207  2.0420 -0.0168
  950MOL0     H31091   2.571  -0.429  10.228  1.5498 -1.2711  3.1914
  950MOL0     H31092   2.550  -0.196  10.440 -2.9995 -0.0556  1.1110
  950MOL0     H31093   2.412  -0.289  10.383 -0.0360  2.4498 -2.7336
  950MOL0     H31094   2.661  -0.379  10.555 -1.6566 -0.9587  1.1594
  950MOL0     H31095   2.592  -0.493  10.452 -1.2252  0.8053 -2.5844
  950MOL0     H31096   2.316  -0.443  10.780  0.6520 -5.2902  1.6054
  950MOL0     H31097   2.435  -0.001  10.049  0.2568  1.3295 -1.1032
  950MOL0     H31098   2.385   0.152   9.817 -0.3847 -0.3881 -0.3010
  950MOL0     H31099   2.247   0.244   9.870  2.5634  1.5386 -0.4237
  950MOL0     H31100   2.389   0.202   9.985 -0.1391  0.2087  0.7680
  951MOL0     O31101  10.514   2.031   7.859 -0.2457  0.3953  0.5142
  951MOL0     C31102  10.595   2.110   7.818 -0.3964  0.1699 -0.1761
  951MOL0     O31103  10.711   2.079   7.754  0.9502 -0.2652  0.7015
  951MOL0     C31104  10.726   1.947   7.708 -0.4484 -0.1819  0.8049
  951MOL0     C31105  10.644   1.906   7.601 -0.8272 -0.0229 -0.4256
  951MOL0     C31106  10.660   1.779   7.548 -0.1461  0.7242  0.4519
  951MOL0     C31107  10.761   1.692   7.597 -0.2335 -0.2026 -0.1594
  951MOL0     O31108  10.797   1.574   7.543 -1.0827  0.6467  0.1885
  951MOL0     C31109  10.692   1.476   7.534  0.9434  0.3118 -0.4763
  951MOL0     C31110  10.744   1.330   7.548 -0.4610 -0.8111  0.8549
  951MOL0     C31111  10.844   1.289   7.445 -0.0127 -0.1943 -0.5236
  951MOL0     C31112  10.913   1.157   7.478 -0.4432 -0.2667  0.2862
  951MOL0     C31113  10.944   1.072   7.344  0.5141 -0.9228 -0.3703
  951MOL0     C31114  11.017   0.939   7.384  0.4057 -1.3923 -0.1993
  951MOL0     C31115  11.060   0.854   7.266 -0.2370 -0.7026 -0.0328
  951MOL0     C31116  10.967   0.855   7.147  1.0354 -0.0522  0.0519
  951MOL0     N31117  10.999   0.756   7.046  0.5449  0.7100  0.3571
  951MOL0     C31118  10.918   0.646   7.014 -0.1524 -0.5077 -0.3020
  951MOL0     C31119  10.955   0.625   6.884  0.4768  0.2943  0.2939
  951MOL0     C31120  10.873   0.529   6.800  0.1271  0.2905 -0.6661
  951MOL0     C31121  10.937   0.389   6.810  0.2548  0.3693  0.4134
  951MOL0     C31122  11.080   0.387   6.756  0.1629  0.5864 -0.9747
  951MOL0     C31123  11.112   0.254   6.699  0.1173 -1.0233  0.0815
  951MOL0     O31124  11.218   0.276   6.603 -0.1240 -0.3745 -0.7069
  951MOL0     C31125  11.187   0.292   6.467  0.9416  0.2978 -0.0314
  951MOL0     C31126  11.283   0.251   6.380  0.4127 -0.5323  0.7437
  951MOL0     C31127  11.267   0.251   6.236  0.3527 -0.0358 -0.2425
  951MOL0     C31128  11.397   0.224   6.166 -0.4465 -1.0898 -1.2141
  951MOL0     C31129  11.137   0.281   6.181  0.4967  0.0286 -0.1173
  951MOL0     C31130  11.120   0.297   6.039  0.0258 -0.2202 -0.1581
  951MOL0     O31131  11.039   0.388   6.006  0.2829  0.3829  0.3541
  951MOL0     C31132  10.965   0.387   5.889 -0.6206  0.3247  0.2239
  951MOL0     C31133  11.007   0.457   5.776 -0.0629 -0.1193  0.4632
  951MOL0     C31134  10.935   0.462   5.655  0.2281  0.2603  0.0264
  951MOL0     C31135  10.803   0.408   5.662 -0.1046  0.6858 -0.6123
  951MOL0     O31136  10.712   0.384   5.562 -0.0199 -0.4686 -0.5576
  951MOL0     C31137  10.701   0.481   5.456 -1.7237 -0.7034 -0.6609
  951MOL0     C31138  10.567   0.487   5.397 -0.4661  0.6742 -0.2792
  951MOL0     C31139  10.560   0.577   5.274 -0.3752  0.7533  0.3368
  951MOL0     C31140  10.416   0.586   5.236  0.0459  0.6990 -0.1995
  951MOL0     C31141  10.407   0.679   5.109 -0.1321  0.3968 -0.2754
  951MOL0     C31142  10.270   0.737   5.064 -0.5536 -0.3108  0.4782
  951MOL0     C31143  10.288   0.827   4.932  0.2517  0.4032 -0.1992
  951MOL0     C31144  10.307   0.749   4.805 -0.0005  1.1619 -0.9432
  951MOL0    Cl31145  10.345   0.863   4.670 -0.0313 -0.1289  0.0313
  951MOL0     C31146  10.761   0.349   5.775 -0.0624 -0.3742 -0.2365
  951MOL0     C31147  10.838   0.336   5.890  0.6140  1.0584 -0.5727
  951MOL0     O31148  11.186   0.228   5.960 -0.2165  0.2138 -0.1590
  951MOL0     C31149  11.031   0.314   6.269  0.9411  0.4382  0.9769
  951MOL0     C31150  11.060   0.319   6.408  0.1360 -0.4366 -0.0914
  951MOL0     N31151  11.057   0.709   6.846 -0.6206  0.5509 -0.9053
  951MOL0     N31152  11.079   0.787   6.939  0.2135 -0.7170 -0.0847
  951MOL0     C31153  10.834   1.741   7.706  0.3344  1.0279 -0.7553
  951MOL0     C31154  10.827   1.865   7.764  1.2961 -0.4836  0.2372
  951MOL0     C31155  10.562   2.251   7.855  0.2886 -0.2170 -0.3319
  951MOL0     C31156  10.677   2.335   7.896 -0.2194  0.6058  0.4306
  951MOL0     C31157  10.668   2.464   7.949  0.8177  0.4591  0.3787
  951MOL0     C31158  10.536   2.522   7.966 -0.1421 -0.1586  0.0665
  951MOL0     O31159  10.509   2.649   7.997 -0.5124  0.0321  1.0788
  951MOL0     C31160  10.613   2.731   8.066  0.7004 -0.2962  0.5044
  951MOL0     C31161  10.575   2.872   8.067 -0.0920  0.1027  0.8602
  951MOL0     C31162  10.433   2.907   8.103  0.0969 -0.1538 -0.4989
  951MOL0     C31163  10.405   3.063   8.101 -0.3713  0.2937  0.1112
  951MOL0     C31164  10.492   3.151   8.186 -0.1546 -0.4749  0.0059
  951MOL0     C31165  10.537   3.245   8.258 -0.0723  0.4512  0.7147
  951MOL0     C31166  10.435   2.441   7.936  0.9331  0.4220 -0.2155
  951MOL0     C31167  10.442   2.315   7.878 -0.7828 -0.3879  0.2685
  951MOL0     C31168  10.304   2.246   7.838  0.0016  0.0900 -0.5362
  951MOL0     H31169  10.571   1.972   7.557  0.4889  0.1190 -2.5441
  951MOL0     H31170  10.591   1.736   7.475 -1.0371 -1.2594  2.3491
  951MOL0     H31171  10.644   1.486   7.436 -2.5602  0.7363  1.0982
  951MOL0     H31172  10.612   1.488   7.608  0.5058  1.7207 -1.1355
  951MOL0     H31173  10.782   1.321   7.651 -1.6586 -3.3255  1.1287
  951MOL0     H31174  10.659   1.265   7.531 -1.5430  0.7400  0.1112
  951MOL0     H31175  10.787   1.276   7.353  0.0337  0.7838 -0.7022
  951MOL0     H31176  10.919   1.366   7.422 -0.0445 -0.3776 -1.2369
  951MOL0     H31177  11.011   1.175   7.524  0.0856 -3.4791  0.6671
  951MOL0     H31178  10.854   1.094   7.545  1.7474 -0.1160  2.5318
  951MOL0     H31179  11.012   1.127   7.278 -1.6012  1.4418 -0.7209
  951MOL0     H31180  10.849   1.055   7.293 -0.9113  1.5033  1.3178
  951MOL0     H31181  11.105   0.966   7.443  1.3239  1.7503 -2.6879
  951MOL0     H31182  10.950   0.874   7.441  0.6475 -1.7503 -0.3218
  951MOL0     H31183  11.091   0.758   7.308  4.4547  1.6626  2.6803
  951MOL0     H31184  11.160   0.887   7.239  0.6021  0.0386  3.5732
  951MOL0     H31185  10.871   0.829   7.193  1.7783 -1.9350  0.6173
  951MOL0     H31186  10.968   0.952   7.097 -3.5698  0.7494  1.0868
  951MOL0     H31187  10.841   0.602   7.076  0.8871 -1.6356  0.2349
  951MOL0     H31188  10.877   0.564   6.697  0.1610  3.1150  0.2233
  951MOL0     H31189  10.775   0.543   6.848  1.4787  2.3248  1.6829
  951MOL0     H31190  10.941   0.360   6.915  0.2628 -0.9756  0.0534
  951MOL0     H31191  10.870   0.323   6.754  1.3435 -0.2740 -0.1630
  951MOL0     H31192  11.088   0.453   6.669 -1.8902  0.4339 -1.3321
  951MOL0     H31193  11.146   0.410   6.840  1.5326 -1.2283 -1.4915
  951MOL0     H31194  11.151   0.194   6.782 -0.7199 -1.4154  0.2031
  951MOL0     H31195  11.030   0.200   6.651  1.0517 -1.2482 -1.3255
  951MOL0     H31196  11.378   0.231   6.430  1.3368  0.4732 -0.5474
  951MOL0     H31197  11.426   0.119   6.176  2.5948 -0.3552 -1.1691
  951MOL0     H31198  11.479   0.274   6.218 -0.2866 -4.8239  2.6891
  951MOL0     H31199  11.396   0.258   6.062  1.8898 -4.1363 -2.3999
  951MOL0     H31200  11.100   0.509   5.794 -0.8408  0.5751  2.8917
  951MOL0     H31201  10.967   0.518   5.568 -0.0147 -0.1106 -0.3020
  951MOL0     H31202  10.718   0.585   5.487 -0.2237 -0.2325 -2.7905
  951MOL0     H31203  10.772   0.451   5.379  1.6436 -0.0619  1.9539
  951MOL0     H31204  10.550   0.380   5.380  1.4644  0.4804 -1.3255
  951MOL0     H31205  10.494   0.525   5.468 -2.1296  3.0347 -3.0350
  951MOL0     H31206  10.622   0.528   5.198  0.6505  1.1683  0.8865
  951MOL0     H31207  10.604   0.672   5.307  1.2108  0.6280 -1.2518
  951MOL0     H31208  10.369   0.632   5.323  3.9255  1.4412  1.7713
  951MOL0     H31209  10.379   0.484   5.223  0.6104  0.1925  1.8373
  951MOL0     H31210  10.480   0.760   5.119 -0.4767  1.4052 -4.1150
  951MOL0     H31211  10.453   0.622   5.028  0.6323 -0.8898  1.0172
  951MOL0     H31212  10.232   0.796   5.148 -4.3145 -2.6051  0.5906
  951MOL0     H31213  10.203   0.656   5.037  0.1038 -0.7952  0.2836
  951MOL0     H31214  10.375   0.892   4.947 -0.9201  1.5827  1.9413
  951MOL0     H31215  10.203   0.895   4.924  0.3097  0.6432  0.9588
  951MOL0     H31216  10.215   0.690   4.799  0.7255 -0.5476  2.5521
  951MOL0     H31217  10.392   0.683   4.825 -1.2660  0.0062  0.8849
  951MOL0     H31218  10.672   0.286   5.769  0.4861 -1.1969  0.1063
  951MOL0     H31219  10.800   0.296   5.984 -1.6761  1.8551 -1.0941
  951MOL0     H31220  10.933   0.330   6.225  0.0249 -0.9222  2.4200
  951MOL0     H31221  10.969   0.352   6.456 -0.5228  0.8805 -2.1152
  951MOL0     H31222  10.901   1.668   7.751  0.1646  0.2853 -1.6697
  951MOL0     H31223  10.889   1.896   7.848 -2.9555  3.5906  2.3224
  951MOL0     H31224  10.778   2.297   7.890  0.8772  3.4695 -2.7577
  951MOL0     H31225  10.762   2.514   7.975  1.5353  0.6067 -2.2589
  951MOL0     H31226  10.625   2.695   8.169 -1.3148  3.6611  2.3763
  951MOL0     H31227  10.708   2.717   8.013  1.2240 -0.6599  1.5112
  951MOL0     H31228  10.589   2.912   7.966 -3.0193  1.6266  0.9516
  951MOL0     H31229  10.654   2.928   8.118  1.3453 -0.9553 -0.1211
  951MOL0     H31230  10.363   2.858   8.034 -1.2053  1.3448 -0.2944
  951MOL0     H31231  10.404   2.869   8.201 -1.7100 -0.1141 -0.9791
  951MOL0     H31232  10.304   3.068   8.143  0.2975 -1.0999  2.0381
  951MOL0     H31233  10.409   3.085   7.994  0.1832  0.1788  0.1061
  951MOL0     H31234  10.567   3.330   8.315  2.9236 -0.5985  0.8493
  951MOL0     H31235  10.342   2.485   7.972  2.6151  3.5751  0.6738
  951MOL0     H31236  10.274   2.203   7.934  0.8201 -1.2353 -0.8469
  951MOL0     H31237  10.230   2.321   7.808  1.0532  0.8819 -1.2609
  951MOL0     H31238  10.314   2.163   7.767 -2.4326  0.2200 -1.1129
  952MOL0     O31239   7.396   4.981   3.797 -0.4264 -0.1972 -0.0253
  952MOL0     C31240   7.319   5.072   3.772  1.1762  0.5383  0.1976
  952MOL0     O31241   7.346   5.177   3.691  0.3857 -0.6062  0.2868
  952MOL0     C31242   7.463   5.179   3.610  0.1356 -0.5417  0.1258
  952MOL0     C31243   7.527   5.071   3.555 -1.0070  0.5667  0.4889
  952MOL0     C31244   7.649   5.091   3.489  0.5959  1.0776 -0.1665
  952MOL0     C31245   7.712   5.216   3.490 -0.7362 -0.5786  0.1381
  952MOL0     O31246   7.819   5.234   3.406  0.4600  0.3836  0.7375
  952MOL0     C31247   7.786   5.313   3.289  1.3337  0.2979 -0.4463
  952MOL0     C31248   7.876   5.269   3.171  0.0160  0.5009  0.4077
  952MOL0     C31249   8.025   5.306   3.162  0.8765 -0.3380  0.2663
  952MOL0     C31250   8.088   5.249   3.034 -0.8083 -0.2985  0.0063
  952MOL0     C31251   8.213   5.336   2.990  0.9236  1.2282  0.1371
  952MOL0     C31252   8.332   5.247   2.955  0.0568  0.2989 -0.0468
  952MOL0     C31253   8.326   5.207   2.803 -0.1434  0.4672 -0.8597
  952MOL0     C31254   8.440   5.106   2.771  0.4824  0.7397 -0.0145
  952MOL0     N31255   8.412   5.045   2.645 -0.2394  0.4526 -0.2239
  952MOL0     C31256   8.350   5.108   2.535 -1.3346  0.3579  0.6128
  952MOL0     C31257   8.323   5.007   2.451 -1.2818  1.0056  0.2576
  952MOL0     C31258   8.251   5.026   2.315  0.8731  0.1260 -0.5336
  952MOL0     C31259   8.169   4.894   2.282 -0.1780  0.0208 -0.6845
  952MOL0     C31260   8.063   4.874   2.387  0.3227  0.5389  0.6143
  952MOL0     C31261   7.952   4.781   2.336  0.1921 -0.4278  0.3604
  952MOL0     O31262   7.845   4.777   2.441  0.0054 -0.5384 -0.3089
  952MOL0     C31263   7.738   4.702   2.425 -0.5202  0.1602 -0.4539
  952MOL0     C31264   7.665   4.659   2.533 -0.6633  0.0021 -0.1759
  952MOL0     C31265   7.549   4.583   2.529  0.5979  1.4154 -0.1891
  952MOL0     C31266   7.467   4.537   2.655  0.2180  0.6741 -0.1928
  952MOL0     C31267   7.505   4.538   2.405 -0.3331 -0.1705  0.4924
  952MOL0     C31268   7.385   4.453   2.368  0.8037  0.5313 -0.9158
  952MOL0     O31269   7.385   4.398   2.241 -0.1028  0.7564 -0.3416
  952MOL0     C31270   7.270   4.335   2.196 -0.6121  0.1136 -0.6341
  952MOL0     C31271   7.156   4.411   2.164 -0.5062 -0.2231 -0.3702
  952MOL0     C31272   7.036   4.337   2.127  0.1023 -1.1793  0.5551
  952MOL0     C31273   7.026   4.201   2.142  0.0393 -0.1797 -0.3280
  952MOL0     O31274   6.904   4.151   2.114  0.1249 -0.1969 -0.3835
  952MOL0     C31275   6.883   4.013   2.122 -0.9981  0.0508  0.2660
  952MOL0     C31276   6.886   3.958   2.261 -0.4566  0.9068  0.6919
  952MOL0     C31277   6.770   4.003   2.362  0.2118  0.5343 -0.0323
  952MOL0     C31278   6.628   3.978   2.303  0.5600  0.3417 -0.3371
  952MOL0     C31279   6.531   4.010   2.416 -0.3747 -0.3362  0.0265
  952MOL0     C31280   6.391   3.964   2.402  0.0935  0.0672  0.5420
  952MOL0     C31281   6.309   3.995   2.528 -0.1634 -0.0327 -0.2988
  952MOL0     C31282   6.170   3.944   2.532  0.0807 -0.5585 -0.2289
  952MOL0    Cl31283   6.152   3.770   2.573 -0.2271 -0.0981 -0.1123
  952MOL0     C31284   7.142   4.136   2.156 -0.5066  0.4962 -1.1003
  952MOL0     C31285   7.269   4.199   2.185 -0.4994  0.2856  0.4683
  952MOL0     O31286   7.293   4.441   2.454  0.2302 -0.0722 -0.1569
  952MOL0     C31287   7.574   4.584   2.284 -0.8659  0.1008 -0.0410
  952MOL0     C31288   7.678   4.678   2.298 -0.1044 -0.0116 -0.5194
  952MOL0     N31289   8.360   4.888   2.518  0.3628 -0.3395  0.8380
  952MOL0     N31290   8.409   4.911   2.635  0.5158 -0.7655 -0.2194
  952MOL0     C31291   7.640   5.322   3.544 -0.4172  0.1596 -0.1659
  952MOL0     C31292   7.523   5.308   3.602  0.4717  0.0592  0.5197
  952MOL0     C31293   7.184   5.068   3.842 -0.5156  0.1529  0.2244
  952MOL0     C31294   7.100   5.181   3.823 -0.0052  0.1816  0.1046
  952MOL0     C31295   6.974   5.195   3.888 -0.2670 -0.7907 -0.2623
  952MOL0     C31296   6.934   5.094   3.978  0.3798 -0.2577  0.2039
  952MOL0     O31297   6.812   5.111   4.044 -0.2275  0.3647  0.3535
  952MOL0     C31298   6.787   5.041   4.163 -0.9787  0.2101  0.1949
  952MOL0     C31299   6.701   5.135   4.245 -1.3324  0.2066  0.0432
  952MOL0     C31300   6.555   5.126   4.209  0.1164 -0.2316 -0.5229
  952MOL0     C31301   6.490   5.267   4.209 -0.3398 -0.3520  0.8308
  952MOL0     C31302   6.352   5.262   4.158 -0.3308  0.1259  0.3238
  952MOL0     C31303   6.241   5.267   4.108  0.1354  0.6544 -0.3905
  952MOL0     C31304   7.004   4.976   3.974 -0.3689  0.6685 -1.1165
  952MOL0     C31305   7.133   4.961   3.922 -0.2668 -0.8827 -0.6760
  952MOL0     C31306   7.198   4.839   3.966  0.0779  0.4742  0.2530
  952MOL0     H31307   7.464   4.983   3.553 -0.2730  0.0162  0.8213
  952MOL0     H31308   7.689   5.003   3.440  0.3798  1.5401 -1.1919
  952MOL0     H31309   7.792   5.422   3.299  3.0644  0.2132 -0.3304
  952MOL0     H31310   7.684   5.297   3.251  1.2822  0.1358 -0.2405
  952MOL0     H31311   7.851   5.165   3.147  1.7216 -0.0437  0.9005
  952MOL0     H31312   7.831   5.314   3.082 -2.8634 -5.0212 -1.4086
  952MOL0     H31313   8.043   5.413   3.152  1.8160 -0.4543  0.5836
  952MOL0     H31314   8.072   5.272   3.255 -1.1021 -2.1023  0.7102
  952MOL0     H31315   8.117   5.144   3.046 -1.6427 -0.2635  3.1311
  952MOL0     H31316   8.013   5.248   2.954 -1.3317 -3.1105  0.4365
  952MOL0     H31317   8.244   5.397   3.075  4.1191 -2.9154  2.3892
  952MOL0     H31318   8.184   5.394   2.903  1.1955  1.2566  0.0627
  952MOL0     H31319   8.418   5.302   2.994 -0.6147  1.9632 -0.8284
  952MOL0     H31320   8.323   5.155   3.014 -2.9735  1.3965  1.3989
  952MOL0     H31321   8.344   5.293   2.738  3.0072 -0.0398 -0.7835
  952MOL0     H31322   8.232   5.156   2.781 -0.3711 -0.1018  1.2318
  952MOL0     H31323   8.537   5.155   2.777  0.0972  1.4219  0.9282
  952MOL0     H31324   8.449   5.029   2.848 -1.7607  2.7923  2.5224
  952MOL0     H31325   8.335   5.210   2.501  0.7174  0.0531 -1.4491
  952MOL0     H31326   8.331   5.034   2.241  3.0100 -3.3728  1.0989
  952MOL0     H31327   8.191   5.117   2.324 -0.3160 -0.0561 -4.5257
  952MOL0     H31328   8.119   4.902   2.185 -3.0713  1.0539  0.7452
  952MOL0     H31329   8.241   4.812   2.283  0.5501  0.3298  4.6317
  952MOL0     H31330   8.092   4.836   2.485 -2.6470 -1.1433  0.9816
  952MOL0     H31331   8.014   4.970   2.402  1.9606  1.0388  3.4968
  952MOL0     H31332   7.926   4.818   2.237  0.1862 -2.2382 -0.3433
  952MOL0     H31333   7.993   4.681   2.321 -2.2025 -1.3126 -0.7482
  952MOL0     H31334   7.696   4.686   2.634  0.3478  0.3327 -0.5651
  952MOL0     H31335   7.431   4.435   2.635  1.8465  0.3653 -1.7602
  952MOL0     H31336   7.382   4.605   2.664 -0.5746  0.9090 -5.9258
  952MOL0     H31337   7.527   4.540   2.746  0.6942  1.8082 -0.5303
  952MOL0     H31338   7.154   4.519   2.167 -0.5558 -0.2161 -0.6434
  952MOL0     H31339   6.945   4.390   2.100  1.7381  0.8615 -1.2674
  952MOL0     H31340   6.783   3.991   2.083 -0.0006 -1.6404 -1.4592
  952MOL0     H31341   6.951   3.961   2.054 -0.5659  1.8814 -0.7459
  952MOL0     H31342   6.872   3.850   2.247 -2.1595  1.2156 -0.2770
  952MOL0     H31343   6.983   3.987   2.301  0.3651 -0.6209 -0.0875
  952MOL0     H31344   6.778   4.110   2.385 -2.4608  1.1522 -1.5025
  952MOL0     H31345   6.783   3.939   2.449 -2.8551  0.5747  0.5742
  952MOL0     H31346   6.614   3.875   2.270  0.5837  0.5069 -0.8753
  952MOL0     H31347   6.613   4.050   2.222 -2.4750  1.9802  1.4912
  952MOL0     H31348   6.559   3.977   2.516  1.1096 -1.7948 -0.8265
  952MOL0     H31349   6.538   4.118   2.428 -0.2473 -0.5675  2.6300
  952MOL0     H31350   6.370   3.858   2.390  2.7234 -0.4217 -0.4274
  952MOL0     H31351   6.341   4.013   2.318 -0.1764  0.7532  1.0935
  952MOL0     H31352   6.305   4.102   2.550 -0.3902  0.0738 -0.8269
  952MOL0     H31353   6.355   3.946   2.614  0.1905  0.2098 -0.3505
  952MOL0     H31354   6.114   3.967   2.441 -0.6063  0.9662  0.5413
  952MOL0     H31355   6.113   3.995   2.610  0.9618 -2.1081  1.5295
  952MOL0     H31356   7.145   4.028   2.145 -0.0951  0.6487 -2.8549
  952MOL0     H31357   7.366   4.152   2.197 -0.5388  0.5993  2.1894
  952MOL0     H31358   7.546   4.557   2.182  0.3424  0.4781 -0.4901
  952MOL0     H31359   7.729   4.719   2.211  0.2173 -0.7690 -0.7000
  952MOL0     H31360   7.687   5.420   3.542 -1.8557  0.8757 -0.3921
  952MOL0     H31361   7.468   5.396   3.632  1.8351  0.3227  2.4797
  952MOL0     H31362   7.138   5.269   3.772  0.7821 -0.4880 -0.4889
  952MOL0     H31363   6.917   5.287   3.893 -1.1460 -1.1726 -2.2667
  952MOL0     H31364   6.738   4.944   4.151 -0.0704 -0.4551  1.5095
  952MOL0     H31365   6.885   5.024   4.209 -0.3483 -2.9503 -1.9538
  952MOL0     H31366   6.727   5.239   4.223 -4.1368  0.2731 -4.1694
  952MOL0     H31367   6.718   5.123   4.352 -0.9230 -0.8028 -0.1252
  952MOL0     H31368   6.541   5.099   4.104 -1.5304  1.7801 -0.8804
  952MOL0     H31369   6.505   5.048   4.267  3.1774 -0.6749  1.8106
  952MOL0     H31370   6.552   5.324   4.139 -0.5156  0.2872  1.1855
  952MOL0     H31371   6.492   5.328   4.301  0.3525  4.6534 -2.1084
  952MOL0     H31372   6.144   5.262   4.062 -0.2840  0.0066  0.5262
  952MOL0     H31373   6.964   4.898   4.039 -0.0998  0.4487 -1.2169
  952MOL0     H31374   7.131   4.753   3.975  0.4379  0.1965  0.3095
  952MOL0     H31375   7.268   4.806   3.889 -0.8096  2.1629 -1.3590
  952MOL0     H31376   7.249   4.854   4.062  2.8664 -2.7567 -0.5129
  953MOL0     O31377   0.365  10.311   0.627 -0.3865 -0.3678 -0.7517
  953MOL0     C31378   0.333  10.422   0.667 -0.4571  0.4155 -0.1906
  953MOL0     O31379   0.415  10.534   0.665  0.4022 -0.0028 -0.2895
  953MOL0     C31380   0.540  10.522   0.625 -0.7760  0.5539  0.4066
  953MOL0     C31381   0.640  10.506   0.702  0.1275 -0.3923 -0.3389
  953MOL0     C31382   0.762  10.479   0.655  0.7942 -0.3023 -0.1442
  953MOL0     C31383   0.791  10.484   0.519 -0.5719  0.6826 -0.0718
  953MOL0     O31384   0.920  10.474   0.470  0.1999  0.9222 -0.2636
  953MOL0     C31385   1.028  10.422   0.551  0.6335 -0.2167 -0.4164
  953MOL0     C31386   1.149  10.429   0.471  0.3820 -0.6135 -0.7857
  953MOL0     C31387   1.274  10.405   0.559  0.2248  0.0572  1.0765
  953MOL0     C31388   1.395  10.478   0.503 -0.0243  0.0026 -0.4004
  953MOL0     C31389   1.523  10.408   0.558 -0.8923 -0.4294 -0.5510
  953MOL0     C31390   1.655  10.484   0.523 -0.0631 -0.0507 -0.4868
  953MOL0     C31391   1.780  10.440   0.608  0.5043 -0.6582 -1.0202
  953MOL0     C31392   1.799  10.283   0.593 -0.6121 -0.0511 -0.1237
  953MOL0     N31393   1.924  10.239   0.647 -0.1595  0.1984 -0.0648
  953MOL0     C31394   1.963  10.219   0.777  0.2369  0.0295  0.1681
  953MOL0     C31395   2.094  10.180   0.775  0.4708  0.5457  1.1586
  953MOL0     C31396   2.184  10.151   0.882 -0.0773  1.0603 -0.4896
  953MOL0     C31397   2.327  10.211   0.868 -0.3089 -0.0975 -0.4353
  953MOL0     C31398   2.349  10.332   0.959  0.2810 -0.0582 -0.0447
  953MOL0     C31399   2.302  10.469   0.901  0.5714 -0.4552  0.0435
  953MOL0     O31400   2.413  10.526   0.818  0.4955  0.4676  0.2890
  953MOL0     C31401   2.379  10.553   0.688  0.4006 -1.2092 -0.5267
  953MOL0     C31402   2.279  10.489   0.608 -0.6696  0.0010 -0.3149
  953MOL0     C31403   2.241  10.538   0.482  0.3538  0.1430 -0.0498
  953MOL0     C31404   2.137  10.470   0.393 -0.4779  0.3006  0.1917
  953MOL0     C31405   2.314  10.651   0.427  0.1417  0.4420  0.1244
  953MOL0     C31406   2.292  10.714   0.293 -0.0148  0.1330  0.0969
  953MOL0     O31407   2.395  10.800   0.261 -0.6960 -0.3815 -0.3833
  953MOL0     C31408   2.432  10.833   0.134  0.1054 -0.5516  0.4880
  953MOL0     C31409   2.505  10.953   0.107 -0.7995  0.4227 -0.0601
  953MOL0     C31410   2.539  10.985  -0.021 -0.7271 -0.1468 -0.2625
  953MOL0     C31411   2.505  10.902  -0.127 -0.9755 -0.5328 -0.3695
  953MOL0     O31412   2.530  10.931  -0.259  0.0595  0.0606 -0.2506
  953MOL0     C31413   2.584  11.061  -0.290  0.5130  0.4907 -0.3092
  953MOL0     C31414   2.568  11.091  -0.440 -0.3450  0.5962  0.0054
  953MOL0     C31415   2.657  11.205  -0.477  0.8343 -0.1566 -0.2265
  953MOL0     C31416   2.640  11.254  -0.613 -0.2630  0.4536 -0.1366
  953MOL0     C31417   2.729  11.376  -0.649  0.3545 -0.6298  0.3177
  953MOL0     C31418   2.739  11.405  -0.806  0.8062  0.0639  0.4448
  953MOL0     C31419   2.874  11.484  -0.833  0.4968 -1.3805  1.2475
  953MOL0     C31420   2.921  11.446  -0.967 -0.2264 -0.5371  0.1599
  953MOL0    Cl31421   2.791  11.467  -1.092  0.1089  0.2245 -0.0485
  953MOL0     C31422   2.447  10.782  -0.103 -1.1713 -0.0058  0.0179
  953MOL0     C31423   2.407  10.747   0.024  0.6141  0.2433 -1.0222
  953MOL0     O31424   2.194  10.692   0.217  0.4167  0.4411  0.0045
  953MOL0     C31425   2.423  10.697   0.503 -0.4849 -0.2800  0.6673
  953MOL0     C31426   2.451  10.659   0.635  0.3792  0.0515  0.2726
  953MOL0     N31427   2.120  10.138   0.645  0.1068 -0.4180 -0.1292
  953MOL0     N31428   2.022  10.177   0.572 -0.7634 -0.2399  0.2115
  953MOL0     C31429   0.690  10.516   0.430 -0.0160 -1.0841  0.1958
  953MOL0     C31430   0.558  10.534   0.489  0.0346 -0.3058 -0.2869
  953MOL0     C31431   0.204  10.445   0.729 -0.0266 -0.5456  0.3696
  953MOL0     C31432   0.193  10.547   0.823 -0.5820 -1.0883 -0.1733
  953MOL0     C31433   0.066  10.594   0.881 -0.5076 -0.7370 -0.2428
  953MOL0     C31434  -0.053  10.530   0.846 -0.2168  0.5430 -0.3915
  953MOL0     O31435  -0.178  10.580   0.878 -0.2359  0.1504  0.2366
  953MOL0     C31436  -0.192  10.718   0.927  0.4733 -0.2012 -0.0358
  953MOL0     C31437  -0.343  10.730   0.949  0.3024 -0.7920 -0.2183
  953MOL0     C31438  -0.408  10.620   1.031  0.3560  0.2010 -0.0146
  953MOL0     C31439  -0.561  10.621   1.016 -0.7420 -0.7648  0.4262
  953MOL0     C31440  -0.630  10.738   1.077 -0.8657  0.8487 -1.1301
  953MOL0     C31441  -0.676  10.830   1.153  0.0813  0.5552 -0.4129
  953MOL0     C31442  -0.038  10.416   0.771  0.1643  0.7226  0.2870
  953MOL0     C31443   0.084  10.371   0.702 -0.0145  0.0331 -0.2970
  953MOL0     C31444   0.082  10.260   0.599 -0.0570  0.5071  0.1958
  953MOL0     H31445   0.617  10.499   0.808 -1.7927  2.3837 -0.4632
  953MOL0     H31446   0.819  10.461   0.745 -1.3668 -1.8261  0.9922
  953MOL0     H31447   1.012  10.321   0.590  1.5150 -0.3719 -0.4332
  953MOL0     H31448   1.028  10.494   0.634 -2.1976  0.2288 -0.7139
  953MOL0     H31449   1.136  10.355   0.391  3.7591 -0.2992 -1.7907
  953MOL0     H31450   1.154  10.532   0.434  0.1259  0.4400  1.9076
  953MOL0     H31451   1.256  10.451   0.656 -3.1523  0.0391  0.5697
  953MOL0     H31452   1.278  10.296   0.573 -0.2537 -0.0340  0.5375
  953MOL0     H31453   1.398  10.466   0.395  1.0806  3.4972 -0.8726
  953MOL0     H31454   1.397  10.584   0.530 -0.4454  0.2009 -1.1297
  953MOL0     H31455   1.537  10.303   0.531  1.3159 -0.8394  1.7613
  953MOL0     H31456   1.525  10.407   0.668  0.2695  0.6418 -0.5381
  953MOL0     H31457   1.666  10.472   0.415  1.1527  1.4001 -0.5595
  953MOL0     H31458   1.643  10.591   0.544 -0.4897 -0.4497  1.5233
  953MOL0     H31459   1.757  10.454   0.714 -0.1052 -1.9914 -0.9595
  953MOL0     H31460   1.860  10.501   0.566  1.5673  0.7549  2.6448
  953MOL0     H31461   1.721  10.221   0.638 -1.9809  1.7755  0.1162
  953MOL0     H31462   1.799  10.271   0.484 -0.2707 -2.5063  0.0982
  953MOL0     H31463   1.914  10.229   0.873  3.4790  0.2228  1.9050
  953MOL0     H31464   2.199  10.042   0.884 -0.8954  0.9378  1.6786
  953MOL0     H31465   2.139  10.169   0.980  0.1803 -2.4581  0.4093
  953MOL0     H31466   2.401  10.139   0.905 -1.1227 -0.0501  1.3934
  953MOL0     H31467   2.345  10.238   0.764 -2.6618  0.4702 -0.7486
  953MOL0     H31468   2.298  10.324   1.055  1.4693  1.7760  0.8025
  953MOL0     H31469   2.456  10.338   0.980  0.0237 -0.1352  1.3659
  953MOL0     H31470   2.206  10.451   0.852 -1.0244 -0.0144  2.7879
  953MOL0     H31471   2.288  10.540   0.983  2.3560 -0.4171  0.3587
  953MOL0     H31472   2.216  10.408   0.645 -1.8043  1.6289  1.5386
  953MOL0     H31473   2.088  10.386   0.443 -3.8672  1.7909 -0.3213
  953MOL0     H31474   2.179  10.425   0.302 -0.6377 -5.1751  2.4091
  953MOL0     H31475   2.056  10.534   0.356 -0.4057  1.3814  1.8311
  953MOL0     H31476   2.552  11.012   0.186  2.2834 -2.7898  0.7698
  953MOL0     H31477   2.592  11.076  -0.046 -0.8576 -0.6033 -2.4530
  953MOL0     H31478   2.530  11.139  -0.236  2.3446  0.3334  1.8959
  953MOL0     H31479   2.685  11.080  -0.251  1.2047  1.6859 -2.4548
  953MOL0     H31480   2.586  11.001  -0.499  0.1499 -2.4905  4.3328
  953MOL0     H31481   2.462  11.114  -0.453 -0.0056  1.2295 -2.0354
  953MOL0     H31482   2.760  11.173  -0.459  0.5749 -0.9236 -0.0816
  953MOL0     H31483   2.630  11.293  -0.417  0.4319 -1.7703  2.0626
  953MOL0     H31484   2.534  11.279  -0.620 -0.6293 -0.8946  0.3544
  953MOL0     H31485   2.653  11.176  -0.689 -3.4148  0.3859 -0.7338
  953MOL0     H31486   2.692  11.468  -0.602 -0.9448  0.8053 -3.1675
  953MOL0     H31487   2.833  11.356  -0.624  0.4653 -1.0431 -0.4541
  953MOL0     H31488   2.647  11.454  -0.840 -0.8403 -1.6330  2.1987
  953MOL0     H31489   2.745  11.313  -0.864  2.5180  1.1078 -1.1865
  953MOL0     H31490   2.967  11.468  -0.777  0.4624 -2.8847  0.8956
  953MOL0     H31491   2.851  11.591  -0.840  0.1723 -1.4892  0.6195
  953MOL0     H31492   2.962  11.345  -0.974  3.8560  0.7610  2.0351
  953MOL0     H31493   2.994  11.524  -0.992 -3.9099  3.1896 -0.0185
  953MOL0     H31494   2.439  10.717  -0.190  4.0325 -0.3305 -0.4906
  953MOL0     H31495   2.355  10.652   0.028  1.4740 -0.2054 -0.1110
  953MOL0     H31496   2.491  10.776   0.471  0.9438 -1.9107 -0.4600
  953MOL0     H31497   2.536  10.704   0.685 -0.3375  0.6579  0.9735
  953MOL0     H31498   0.710  10.506   0.324 -2.1191 -0.2192 -0.3328
  953MOL0     H31499   0.470  10.540   0.426  0.7571 -2.2956 -1.5895
  953MOL0     H31500   0.283  10.603   0.845 -0.7368 -0.2896 -1.4611
  953MOL0     H31501   0.068  10.679   0.949 -2.3954  0.3905 -1.5016
  953MOL0     H31502  -0.141  10.744   1.020 -2.2345  1.7798  1.0454
  953MOL0     H31503  -0.160  10.791   0.853 -1.0137  0.9622  0.4138
  953MOL0     H31504  -0.394  10.718   0.853 -2.9717 -1.6236  1.4863
  953MOL0     H31505  -0.369  10.824   0.999  0.3863 -1.4813  1.1513
  953MOL0     H31506  -0.370  10.522   1.003 -1.2295 -0.3756 -0.2847
  953MOL0     H31507  -0.374  10.636   1.133 -1.0120 -2.2596  0.9029
  953MOL0     H31508  -0.592  10.527   1.063 -1.0536 -1.5624 -1.2996
  953MOL0     H31509  -0.582  10.611   0.909  0.3838 -0.5617  0.1666
  953MOL0     H31510  -0.726  10.897   1.221  0.1438 -2.4482  2.9004
  953MOL0     H31511  -0.128  10.362   0.747 -0.6024  1.6505  1.0149
  953MOL0     H31512   0.100  10.297   0.497 -3.4889  2.5625  0.1940
  953MOL0     H31513   0.156  10.188   0.634  0.5030  1.8562  1.8921
  953MOL0     H31514  -0.013  10.207   0.602  0.1976 -0.0855 -1.2258
  954MOL0     O31515   3.996   7.556   8.202 -0.7271 -0.4504  0.5468
  954MOL0     C31516   3.943   7.445   8.189  0.4217 -0.1109  0.3249
  954MOL0     O31517   3.860   7.409   8.083  0.5466 -0.2410 -0.3163
  954MOL0     C31518   3.838   7.487   7.979  0.3779 -0.6292  1.0714
  954MOL0     C31519   3.859   7.437   7.851  0.6491  0.2777  0.0586
  954MOL0     C31520   3.854   7.513   7.734  0.6256 -0.5565  0.8460
  954MOL0     C31521   3.817   7.646   7.738 -0.6133 -0.1925 -0.5629
  954MOL0     O31522   3.811   7.725   7.628  0.0277 -0.1756  0.1367
  954MOL0     C31523   3.731   7.667   7.523 -0.1665 -0.7485 -0.3119
  954MOL0     C31524   3.585   7.709   7.527  0.0664 -0.0421 -0.0638
  954MOL0     C31525   3.577   7.855   7.551  0.0815 -0.7078  0.3128
  954MOL0     C31526   3.432   7.908   7.576 -0.2298  0.1615 -0.3914
  954MOL0     C31527   3.427   8.048   7.643  0.1189  0.3715  0.9070
  954MOL0     C31528   3.457   8.040   7.790  0.2919  0.7133  0.1513
  954MOL0     C31529   3.454   8.173   7.859  0.6081  1.0247  0.6770
  954MOL0     C31530   3.536   8.169   7.987 -0.2817 -0.2949  0.1420
  954MOL0     N31531   3.492   8.055   8.069  0.1494  0.3830  0.5208
  954MOL0     C31532   3.382   8.058   8.146  0.3094  0.0337 -0.4592
  954MOL0     C31533   3.365   7.944   8.213 -1.1582  0.1260 -0.0679
  954MOL0     C31534   3.273   7.911   8.328  0.7864 -0.3066 -0.2872
  954MOL0     C31535   3.308   7.789   8.411 -0.6249  0.0790 -0.2193
  954MOL0     C31536   3.196   7.726   8.495  0.0411 -1.2286  0.1529
  954MOL0     C31537   3.135   7.821   8.600 -0.0107  0.1757  0.3566
  954MOL0     O31538   3.233   7.868   8.690 -0.7055  0.1374  0.2456
  954MOL0     C31539   3.259   7.788   8.802 -0.1372 -0.2287 -0.3336
  954MOL0     C31540   3.364   7.834   8.900  0.3591 -0.4635 -0.9885
  954MOL0     C31541   3.430   7.740   8.986 -0.2027  0.2357  0.2387
  954MOL0     C31542   3.540   7.799   9.075 -0.2702 -0.1471 -0.1784
  954MOL0     C31543   3.403   7.602   8.971  0.5257 -0.1728 -0.4988
  954MOL0     C31544   3.468   7.492   9.050  0.0730 -0.4239  0.1850
  954MOL0     O31545   3.418   7.360   9.039  0.0388 -0.0575  0.0084
  954MOL0     C31546   3.508   7.267   9.079 -0.0259  0.1195  0.2770
  954MOL0     C31547   3.571   7.190   8.978  0.1500 -0.0658 -0.6078
  954MOL0     C31548   3.684   7.124   9.010 -0.3127 -0.9681 -0.3121
  954MOL0     C31549   3.717   7.103   9.143 -0.3318 -0.0702 -0.5814
  954MOL0     O31550   3.824   7.015   9.161  0.8324 -0.3649  0.8578
  954MOL0     C31551   3.843   6.962   9.285 -0.0314  0.1336 -0.0967
  954MOL0     C31552   3.742   6.848   9.304  0.2245 -0.6512 -0.6746
  954MOL0     C31553   3.773   6.771   9.433 -0.0536 -0.7939  0.1777
  954MOL0     C31554   3.648   6.695   9.486 -0.3019 -0.9261 -0.0372
  954MOL0     C31555   3.692   6.585   9.585 -0.0751 -0.9619  0.9448
  954MOL0     C31556   3.579   6.553   9.669  0.3105  0.2349 -0.2678
  954MOL0     C31557   3.603   6.439   9.768 -0.0990  1.1264 -0.1399
  954MOL0     C31558   3.729   6.465   9.854  0.4748  0.6061 -0.3797
  954MOL0    Cl31559   3.734   6.361   9.989 -0.0178  0.1260 -0.1188
  954MOL0     C31560   3.640   7.156   9.242 -0.4291  0.1046  0.1348
  954MOL0     C31561   3.534   7.246   9.216  0.3207 -0.5401 -0.1795
  954MOL0     O31562   3.565   7.517   9.119 -0.2601 -0.4775  0.0567
  954MOL0     C31563   3.293   7.570   8.884  0.4966 -1.0396 -0.3782
  954MOL0     C31564   3.218   7.658   8.807  0.4216  0.2494  0.0213
  954MOL0     N31565   3.479   7.864   8.170  0.6862  1.1110 -0.9644
  954MOL0     N31566   3.550   7.932   8.082  0.1475 -0.1038 -0.3455
  954MOL0     C31567   3.794   7.701   7.865 -0.4855 -0.3492 -0.6276
  954MOL0     C31568   3.800   7.621   7.981  0.7106 -0.3926 -0.0405
  954MOL0     C31569   3.971   7.348   8.303 -0.2157  0.3807 -0.6074
  954MOL0     C31570   4.070   7.384   8.399 -0.9785  0.3689  0.1923
  954MOL0     C31571   4.092   7.302   8.512 -0.5505  0.7830  0.0621
  954MOL0     C31572   4.022   7.182   8.529 -0.1488  0.0055  0.3507
  954MOL0     O31573   4.040   7.102   8.638  0.3791  0.2952  0.3594
  954MOL0     C31574   3.962   7.139   8.752 -0.2300 -1.0399 -0.0030
  954MOL0     C31575   4.012   7.070   8.879  0.0499 -0.0657  0.2346
  954MOL0     C31576   4.162   7.089   8.906  0.3876  0.5239  0.4105
  954MOL0     C31577   4.221   7.229   8.900 -0.5204  0.1926  0.4375
  954MOL0     C31578   4.359   7.231   8.915 -0.0713 -0.5538  0.5382
  954MOL0     C31579   4.475   7.238   8.945  0.0142 -0.3737 -0.4000
  954MOL0     C31580   3.924   7.148   8.440  1.7655 -0.1522 -0.3174
  954MOL0     C31581   3.901   7.222   8.323 -0.1485 -1.0605  0.5415
  954MOL0     C31582   3.771   7.184   8.251  0.3771  0.2993 -0.9733
  954MOL0     H31583   3.868   7.329   7.845 -0.1221  0.2056  0.0810
  954MOL0     H31584   3.876   7.458   7.643  2.2010  1.1063  0.1737
  954MOL0     H31585   3.727   7.558   7.508 -0.5001 -0.4742 -2.5688
  954MOL0     H31586   3.778   7.709   7.434 -0.1351  1.8675  0.8426
  954MOL0     H31587   3.532   7.684   7.435 -1.8695  0.4403  0.8705
  954MOL0     H31588   3.532   7.650   7.602 -0.1273 -1.6412 -1.4167
  954MOL0     H31589   3.633   7.881   7.642  1.1154  1.8357 -0.9572
  954MOL0     H31590   3.619   7.902   7.462  3.4723 -0.3424  1.9343
  954MOL0     H31591   3.378   7.906   7.481 -0.6130 -0.6795 -0.1619
  954MOL0     H31592   3.377   7.834   7.635 -2.3726  0.8828 -1.3938
  954MOL0     H31593   3.331   8.099   7.625  0.0075 -0.7532 -2.3912
  954MOL0     H31594   3.496   8.105   7.580  1.8554 -1.0357  1.4762
  954MOL0     H31595   3.379   7.976   7.832  0.8280  1.0098  1.6579
  954MOL0     H31596   3.549   7.982   7.804  0.0779  0.1410 -0.7730
  954MOL0     H31597   3.354   8.202   7.893  0.6461  1.0295  0.7871
  954MOL0     H31598   3.485   8.254   7.793  3.0550 -0.9314 -0.7665
  954MOL0     H31599   3.640   8.156   7.958 -0.2937  3.0356 -1.9866
  954MOL0     H31600   3.536   8.258   8.051 -0.1586  0.8518 -1.3987
  954MOL0     H31601   3.312   8.137   8.168 -0.9302 -1.6993  2.3511
  954MOL0     H31602   3.173   7.902   8.284  0.5109  1.8287 -0.2128
  954MOL0     H31603   3.288   7.998   8.392  3.2542 -2.3460  2.1345
  954MOL0     H31604   3.348   7.716   8.339  0.8646  0.2460  0.4086
  954MOL0     H31605   3.389   7.803   8.483 -0.2720 -0.0821 -0.5775
  954MOL0     H31606   3.116   7.691   8.430  0.9232 -1.4127 -0.8730
  954MOL0     H31607   3.236   7.646   8.559 -1.2119 -1.2429  0.9373
  954MOL0     H31608   3.095   7.911   8.552 -1.7832 -1.0656 -0.6210
  954MOL0     H31609   3.047   7.775   8.647 -0.5233  0.0816 -0.6552
  954MOL0     H31610   3.403   7.932   8.877 -2.5299  0.0957 -4.4452
  954MOL0     H31611   3.547   7.906   9.057 -0.6123 -0.3389 -1.5629
  954MOL0     H31612   3.641   7.766   9.050 -1.2123 -1.9132 -1.9461
  954MOL0     H31613   3.516   7.779   9.180  2.4023  0.8395  0.7057
  954MOL0     H31614   3.540   7.200   8.875 -3.5763  0.2999  0.3960
  954MOL0     H31615   3.748   7.071   8.939 -0.6337 -1.4760 -0.2249
  954MOL0     H31616   3.941   6.912   9.280  1.0636  2.1469  0.2046
  954MOL0     H31617   3.840   7.028   9.372  1.8706 -1.8052  1.5728
  954MOL0     H31618   3.640   6.889   9.305  0.3162 -0.3119 -2.0406
  954MOL0     H31619   3.744   6.778   9.220 -0.5398 -1.6114  0.0829
  954MOL0     H31620   3.798   6.850   9.505 -0.0117  0.2639 -0.9658
  954MOL0     H31621   3.855   6.701   9.412  1.1132  1.2340 -2.6305
  954MOL0     H31622   3.586   6.649   9.408  1.8822 -0.9245 -1.8662
  954MOL0     H31623   3.586   6.765   9.542  1.7730  2.3440 -1.4856
  954MOL0     H31624   3.730   6.496   9.534  0.3154  1.3530 -3.1950
  954MOL0     H31625   3.775   6.627   9.645 -0.7950  0.4956  0.9755
  954MOL0     H31626   3.502   6.514   9.602  0.8809  2.8141 -2.6072
  954MOL0     H31627   3.539   6.648   9.704 -1.9621 -1.2533  1.4795
  954MOL0     H31628   3.601   6.347   9.709 -0.8906  0.4061  0.9549
  954MOL0     H31629   3.519   6.435   9.839  1.0177 -0.9857  1.1650
  954MOL0     H31630   3.730   6.570   9.885  0.4566 -0.1918  2.6124
  954MOL0     H31631   3.811   6.446   9.785 -0.6479  2.7854 -2.4910
  954MOL0     H31632   3.657   7.154   9.349 -0.5879  6.0067  0.5901
  954MOL0     H31633   3.468   7.299   9.284  0.3344 -0.5405 -0.1656
  954MOL0     H31634   3.257   7.468   8.895  0.2256 -0.8959  0.0895
  954MOL0     H31635   3.134   7.618   8.751 -0.3586  1.4380  0.3097
  954MOL0     H31636   3.765   7.805   7.879  1.1229 -0.0752  0.9631
  954MOL0     H31637   3.788   7.674   8.075 -0.7133 -0.5346 -0.1242
  954MOL0     H31638   4.127   7.474   8.379  0.0424 -0.2431  0.2844
  954MOL0     H31639   4.175   7.323   8.578 -1.6566  2.4549  0.9922
  954MOL0     H31640   3.962   7.247   8.772  0.0112 -0.7106 -1.6562
  954MOL0     H31641   3.860   7.105   8.732  0.0340 -0.7236 -2.0542
  954MOL0     H31642   3.991   6.964   8.860 -0.8901  0.3208 -0.9935
  954MOL0     H31643   3.945   7.103   8.959  0.9284  3.3396 -0.2923
  954MOL0     H31644   4.181   7.054   9.008  0.9952 -1.6751 -0.3961
  954MOL0     H31645   4.203   7.025   8.829 -2.6138  1.1939 -1.9451
  954MOL0     H31646   4.182   7.282   8.988  0.3966 -3.3111  3.2344
  954MOL0     H31647   4.193   7.285   8.811 -1.3270  1.0635  1.2153
  954MOL0     H31648   4.576   7.235   8.979 -0.1045  1.1218  0.1314
  954MOL0     H31649   3.867   7.057   8.455 -1.0211  1.3560 -0.9658
  954MOL0     H31650   3.712   7.123   8.320 -0.6669  0.1897 -1.9307
  954MOL0     H31651   3.709   7.271   8.225 -1.0342 -0.3274  0.1728
  954MOL0     H31652   3.799   7.122   8.166  1.4521 -5.1585  2.8569
  955MOL0     O31653   3.574   4.413   1.958  0.4577  0.2058  0.3156
  955MOL0     C31654   3.491   4.330   2.007  0.1930  1.0559  0.0812
  955MOL0     O31655   3.366   4.293   1.945 -0.2579 -0.5091 -0.3016
  955MOL0     C31656   3.336   4.318   1.816 -0.3732  0.0979  0.2625
  955MOL0     C31657   3.332   4.449   1.765 -1.4634 -1.3591 -0.2924
  955MOL0     C31658   3.289   4.472   1.640 -0.2754  0.8057  0.0858
  955MOL0     C31659   3.255   4.361   1.558 -1.2493  0.1553  0.0169
  955MOL0     O31660   3.205   4.373   1.424 -0.1574 -0.2229 -0.1874
  955MOL0     C31661   3.204   4.502   1.359 -0.1783  0.3989  0.1584
  955MOL0     C31662   3.149   4.497   1.217 -0.0058  0.1634  1.0551
  955MOL0     C31663   3.014   4.421   1.202  0.5857 -0.2047 -0.0947
  955MOL0     C31664   2.975   4.373   1.059  0.0364 -0.3550  0.1153
  955MOL0     C31665   2.833   4.313   1.044 -0.5079  0.4431 -0.8720
  955MOL0     C31666   2.782   4.295   0.899 -0.0648 -0.0117  0.1722
  955MOL0     C31667   2.655   4.204   0.884 -0.1414  0.0271  0.0170
  955MOL0     C31668   2.529   4.242   0.965  0.7346 -0.7195  0.6689
  955MOL0     N31669   2.413   4.159   0.933  0.5254  0.7811 -0.0567
  955MOL0     C31670   2.375   4.057   1.015 -0.7299 -0.4265  0.6096
  955MOL0     C31671   2.269   4.009   0.950 -0.2099 -0.2188 -0.0744
  955MOL0     C31672   2.207   3.885   0.989  0.5684  0.5799  0.6825
  955MOL0     C31673   2.049   3.926   0.989 -0.6077  0.7182 -0.0838
  955MOL0     C31674   1.965   3.804   1.009 -0.4019  0.2769  0.1452
  955MOL0     C31675   1.822   3.838   1.048 -0.5886  0.4200 -0.5169
  955MOL0     O31676   1.825   3.851   1.189 -0.8825 -0.6359  0.0440
  955MOL0     C31677   1.709   3.845   1.254 -0.1886  0.7400 -0.3852
  955MOL0     C31678   1.731   3.802   1.388 -0.4659  0.6584 -0.6328
  955MOL0     C31679   1.623   3.780   1.471  0.0601 -0.0748 -0.0152
  955MOL0     C31680   1.654   3.753   1.619 -0.2318  0.1779 -0.7798
  955MOL0     C31681   1.492   3.815   1.428 -0.6984 -0.0380  0.1911
  955MOL0     C31682   1.368   3.787   1.512  0.8093 -0.3036  0.1106
  955MOL0     O31683   1.272   3.890   1.520  0.1460 -0.0947 -0.0747
  955MOL0     C31684   1.149   3.852   1.564  0.9868  0.2488  0.8806
  955MOL0     C31685   1.046   3.847   1.468 -0.1652  0.2288 -1.1118
  955MOL0     C31686   0.923   3.806   1.511  1.1338 -0.0171 -0.4527
  955MOL0     C31687   0.900   3.759   1.645 -0.0650  1.1770 -0.5738
  955MOL0     O31688   0.778   3.706   1.686 -0.0380  0.6257  0.9667
  955MOL0     C31689   0.761   3.562   1.666  0.2176  0.4842  0.4350
  955MOL0     C31690   0.621   3.517   1.707  1.0253  0.7941 -0.3037
  955MOL0     C31691   0.502   3.565   1.622  0.1532  0.6071  0.5418
  955MOL0     C31692   0.373   3.526   1.703  0.3506  0.4941  1.0219
  955MOL0     C31693   0.249   3.547   1.612 -0.5458  0.5144  0.8482
  955MOL0     C31694   0.127   3.492   1.681  0.2448  0.4782 -0.2398
  955MOL0     C31695   0.122   3.330   1.674  0.8465  0.0053 -0.0096
  955MOL0     C31696  -0.006   3.260   1.729 -0.5327  0.1540  0.1815
  955MOL0    Cl31697  -0.141   3.269   1.606 -0.0660  0.4837 -0.4792
  955MOL0     C31698   1.006   3.766   1.733  0.5793  0.9965 -0.9690
  955MOL0     C31699   1.127   3.815   1.691  0.2703  0.9474 -1.0494
  955MOL0     O31700   1.346   3.673   1.557  0.2723 -0.0290  0.4863
  955MOL0     C31701   1.469   3.855   1.294  0.0160 -0.5984  0.3135
  955MOL0     C31702   1.582   3.883   1.214 -0.6221  0.0558  1.1127
  955MOL0     N31703   2.236   4.085   0.831  0.3749  0.7056 -0.2071
  955MOL0     N31704   2.322   4.179   0.831  0.1511  0.5096 -0.6654
  955MOL0     C31705   3.281   4.229   1.606 -0.3978 -1.3551  1.2510
  955MOL0     C31706   3.311   4.210   1.733 -0.0210  0.0765 -0.2340
  955MOL0     C31707   3.524   4.277   2.149  0.2555 -0.3481  0.3185
  955MOL0     C31708   3.419   4.256   2.238 -0.2374 -0.4154  0.0827
  955MOL0     C31709   3.443   4.221   2.373  0.1550 -0.8213  1.1889
  955MOL0     C31710   3.568   4.194   2.416  0.3766  0.0151 -0.7421
  955MOL0     O31711   3.594   4.160   2.540  0.1549  1.3621  0.8877
  955MOL0     C31712   3.557   4.260   2.635  0.7010  0.7362  0.3875
  955MOL0     C31713   3.658   4.252   2.750  0.3758 -0.1285  1.2859
  955MOL0     C31714   3.805   4.295   2.705  0.6322 -0.0055 -0.9160
  955MOL0     C31715   3.888   4.288   2.824  0.5511  0.2936 -0.9445
  955MOL0     C31716   4.000   4.383   2.818  0.1436  0.9937  0.0186
  955MOL0     C31717   4.100   4.451   2.802 -0.3421  0.3312  0.0591
  955MOL0     C31718   3.674   4.205   2.327  0.6342 -0.4384 -0.1544
  955MOL0     C31719   3.654   4.246   2.198  0.3556  0.1270  0.2994
  955MOL0     C31720   3.773   4.280   2.121 -0.1235  0.0452 -0.5262
  955MOL0     H31721   3.369   4.531   1.826  3.0403 -1.6040 -2.3459
  955MOL0     H31722   3.280   4.578   1.619 -0.7442  0.9916  1.1501
  955MOL0     H31723   3.309   4.531   1.347 -0.2278  0.4899 -0.0574
  955MOL0     H31724   3.153   4.577   1.420 -2.0618 -0.0864 -0.7602
  955MOL0     H31725   3.148   4.595   1.169  0.2523  0.4032  1.5353
  955MOL0     H31726   3.220   4.435   1.161 -0.6171  1.1495 -0.9226
  955MOL0     H31727   3.015   4.340   1.275 -3.0746 -0.3402 -0.0211
  955MOL0     H31728   2.931   4.487   1.228  0.8116  1.0796 -2.3599
  955MOL0     H31729   2.994   4.447   0.981 -0.1114 -3.2411 -2.8789
  955MOL0     H31730   3.054   4.301   1.034  2.5981  1.6580  1.7929
  955MOL0     H31731   2.767   4.389   1.087  0.2679 -0.3128  1.8492
  955MOL0     H31732   2.827   4.222   1.105  2.5445  2.3440  2.6023
  955MOL0     H31733   2.750   4.393   0.864 -2.4135 -0.4042  1.0990
  955MOL0     H31734   2.854   4.237   0.840 -3.0930 -3.4256 -0.5002
  955MOL0     H31735   2.685   4.105   0.920  1.2020 -0.1401 -1.4470
  955MOL0     H31736   2.637   4.195   0.777  1.6436 -1.6619 -0.1888
  955MOL0     H31737   2.544   4.238   1.073 -1.8139 -1.6388  1.0546
  955MOL0     H31738   2.500   4.345   0.943 -1.5301 -0.2598  4.8127
  955MOL0     H31739   2.429   4.019   1.101 -1.6080  1.3870  2.0313
  955MOL0     H31740   2.229   3.859   1.093 -4.9896  1.1632  2.3211
  955MOL0     H31741   2.229   3.798   0.927 -1.7061 -3.4038  4.8444
  955MOL0     H31742   2.021   3.986   1.076 -2.4010 -1.2726  0.7881
  955MOL0     H31743   2.018   3.970   0.893  1.1220  1.5209 -0.3238
  955MOL0     H31744   1.965   3.741   0.920  0.0937 -0.4613  0.6519
  955MOL0     H31745   2.015   3.746   1.088 -0.8384 -1.6450 -0.9181
  955MOL0     H31746   1.784   3.925   0.993 -1.6996  0.3285  0.0826
  955MOL0     H31747   1.758   3.754   1.021 -2.6085  0.8037  2.5689
  955MOL0     H31748   1.830   3.776   1.424 -0.7346 -1.0506 -1.0559
  955MOL0     H31749   1.641   3.646   1.638  0.5427 -0.0848 -1.5840
  955MOL0     H31750   1.591   3.807   1.690  0.1186 -0.4261 -0.0058
  955MOL0     H31751   1.755   3.783   1.651  0.1292 -0.1017 -1.6158
  955MOL0     H31752   1.073   3.881   1.369  2.8471  1.6634  0.0787
  955MOL0     H31753   0.839   3.795   1.443 -1.3580  0.6271  2.2850
  955MOL0     H31754   0.783   3.531   1.563  0.5092  0.0934  0.6162
  955MOL0     H31755   0.830   3.506   1.729  0.0242 -0.3778 -0.0887
  955MOL0     H31756   0.612   3.408   1.712  1.9616  0.4924 -3.2492
  955MOL0     H31757   0.597   3.566   1.802 -0.9716  1.9490 -1.3459
  955MOL0     H31758   0.511   3.517   1.524  2.6978  0.6732  0.6791
  955MOL0     H31759   0.503   3.673   1.602 -1.7899  0.1101 -2.8570
  955MOL0     H31760   0.354   3.603   1.778  0.4243  1.7546 -0.2191
  955MOL0     H31761   0.380   3.424   1.744 -1.1222 -1.2039 -2.4955
  955MOL0     H31762   0.229   3.654   1.599  0.8213  0.7277  0.3292
  955MOL0     H31763   0.266   3.502   1.514  0.5395  4.2406 -0.8998
  955MOL0     H31764   0.046   3.532   1.619  1.0886  2.1278 -0.3435
  955MOL0     H31765   0.128   3.545   1.776  1.9664  3.8475 -1.9526
  955MOL0     H31766   0.208   3.296   1.733  0.8482 -0.8233 -0.4819
  955MOL0     H31767   0.127   3.287   1.574  1.1240 -0.8742  0.3725
  955MOL0     H31768  -0.032   3.306   1.825  2.5280  2.5498  0.0241
  955MOL0     H31769   0.021   3.157   1.753 -0.9967  0.2110  0.9922
  955MOL0     H31770   0.989   3.739   1.836 -0.4194 -0.5611 -1.5075
  955MOL0     H31771   1.213   3.828   1.755 -0.3002  2.8620 -0.6187
  955MOL0     H31772   1.366   3.870   1.265  0.1620 -1.7678 -0.9049
  955MOL0     H31773   1.577   3.924   1.114  3.2319  0.7491  1.0837
  955MOL0     H31774   3.243   4.157   1.534 -1.5805  3.9262 -4.3123
  955MOL0     H31775   3.317   4.109   1.771 -0.9422  0.8574  2.1202
  955MOL0     H31776   3.320   4.291   2.208  0.3483  0.6960 -0.6243
  955MOL0     H31777   3.357   4.216   2.440  0.2332  0.5266  1.4219
  955MOL0     H31778   3.555   4.363   2.600 -0.7058  1.2245  1.8339
  955MOL0     H31779   3.454   4.237   2.662  1.0979 -3.4062 -0.9142
  955MOL0     H31780   3.652   4.158   2.807 -1.2294 -1.1247 -0.4058
  955MOL0     H31781   3.622   4.326   2.821 -0.9541 -0.0991  0.6090
  955MOL0     H31782   3.841   4.224   2.629  2.4325 -0.5088  0.3305
  955MOL0     H31783   3.805   4.400   2.677 -0.9318  0.3191  0.1776
  955MOL0     H31784   3.911   4.183   2.845 -1.1089  0.2658  1.0342
  955MOL0     H31785   3.818   4.318   2.903 -1.0490  0.6660 -2.4351
  955MOL0     H31786   4.189   4.510   2.794 -1.5018  2.0726 -0.3664
  955MOL0     H31787   3.774   4.187   2.366  1.0974  1.2147 -0.4752
  955MOL0     H31788   3.770   4.262   2.014  3.3817 -2.2779 -0.4102
  955MOL0     H31789   3.797   4.380   2.158 -1.0559 -0.0464  0.3698
  955MOL0     H31790   3.856   4.214   2.149 -1.0659 -1.7604 -1.8024
  956MOL0     O31791   0.365   3.292   8.085  0.0656 -0.0556 -0.2471
  956MOL0     C31792   0.306   3.242   7.994  0.6610  0.6513 -0.7206
  956MOL0     O31793   0.359   3.204   7.871 -0.8546 -0.2471 -0.1472
  956MOL0     C31794   0.491   3.230   7.857 -0.6310  0.7497 -0.4812
  956MOL0     C31795   0.536   3.344   7.804  0.2661 -0.6095  0.4000
  956MOL0     C31796   0.672   3.366   7.795  0.4852  0.5193  1.2421
  956MOL0     C31797   0.773   3.269   7.811 -0.4009  1.1522  0.6758
  956MOL0     O31798   0.908   3.296   7.795  0.1182  0.3107  0.2966
  956MOL0     C31799   0.955   3.415   7.743  0.4364 -0.5745 -0.2998
  956MOL0     C31800   1.097   3.387   7.703  0.5661  0.6877  0.5768
  956MOL0     C31801   1.175   3.507   7.692  0.2409 -0.0796  0.2838
  956MOL0     C31802   1.325   3.465   7.676  0.3757  0.2774  0.1735
  956MOL0     C31803   1.423   3.582   7.687  0.2276 -0.1759  0.0154
  956MOL0     C31804   1.562   3.538   7.633 -0.1374  0.6884 -0.0695
  956MOL0     C31805   1.640   3.663   7.629 -0.1723 -0.0770 -1.0064
  956MOL0     C31806   1.780   3.638   7.574 -0.1631  0.2814  0.4813
  956MOL0     N31807   1.793   3.648   7.427 -0.2407  0.3666  0.5889
  956MOL0     C31808   1.829   3.759   7.358 -0.6941 -1.1948  0.1176
  956MOL0     C31809   1.822   3.744   7.224  0.3138  0.1021 -1.0354
  956MOL0     C31810   1.835   3.835   7.112  0.5413  0.2046 -0.0094
  956MOL0     C31811   1.699   3.899   7.068 -0.2515 -0.2859 -0.0192
  956MOL0     C31812   1.721   4.001   6.944  0.5252 -0.0043  0.6764
  956MOL0     C31813   1.592   4.024   6.858  0.8279 -0.2774 -1.4743
  956MOL0     O31814   1.486   4.050   6.945  0.2143  0.7661  0.1506
  956MOL0     C31815   1.368   4.082   6.887 -0.0542 -0.1049  1.0572
  956MOL0     C31816   1.262   4.088   6.976  0.1656 -0.1144 -0.3121
  956MOL0     C31817   1.130   4.096   6.924 -0.5021  0.2820  0.0962
  956MOL0     C31818   1.021   4.106   7.019 -0.4521  0.8507 -0.7034
  956MOL0     C31819   1.103   4.080   6.784 -0.0916 -0.2490 -0.5184
  956MOL0     C31820   0.969   4.085   6.719  0.2781  0.2915  0.0493
  956MOL0     O31821   0.882   4.158   6.786  0.1806 -0.4184 -0.2001
  956MOL0     C31822   0.754   4.149   6.752 -0.3502 -0.4988  0.7235
  956MOL0     C31823   0.652   4.109   6.843  0.5298  0.4308  0.5525
  956MOL0     C31824   0.516   4.107   6.805  0.4340 -0.8536  0.4060
  956MOL0     C31825   0.475   4.146   6.676  0.7580 -0.2583  0.2134
  956MOL0     O31826   0.344   4.138   6.646 -0.0967  0.1086  0.5313
  956MOL0     C31827   0.307   4.114   6.505  0.0484  0.0669  0.0724
  956MOL0     C31828   0.154   4.122   6.516 -0.4252 -0.6164 -0.3272
  956MOL0     C31829   0.092   4.038   6.407 -0.6878 -0.0379  0.5375
  956MOL0     C31830  -0.055   4.027   6.436  0.9253 -0.1986  0.8531
  956MOL0     C31831  -0.133   3.960   6.318 -0.2280 -0.4029 -0.6984
  956MOL0     C31832  -0.130   3.809   6.323 -0.4691 -0.8932  0.2138
  956MOL0     C31833  -0.109   3.743   6.181  1.3344  0.7760  0.5199
  956MOL0     C31834  -0.232   3.704   6.099 -0.4490 -0.8299  0.5475
  956MOL0    Cl31835  -0.364   3.639   6.194 -0.0076 -0.3448 -0.4607
  956MOL0     C31836   0.569   4.188   6.581  0.5693  0.1007  0.0178
  956MOL0     C31837   0.704   4.188   6.628  0.1260  0.0240  0.0332
  956MOL0     O31838   0.960   4.023   6.614  0.3992 -0.0566  0.3888
  956MOL0     C31839   1.219   4.083   6.700 -0.6450 -0.0682 -0.0640
  956MOL0     C31840   1.345   4.097   6.750  0.1522  0.1938 -0.2647
  956MOL0     N31841   1.789   3.608   7.206  0.1295  0.2280  0.3369
  956MOL0     N31842   1.772   3.559   7.325 -0.2439 -0.4768 -0.2071
  956MOL0     C31843   0.717   3.147   7.854  0.7298  0.0481 -0.3374
  956MOL0     C31844   0.586   3.125   7.878 -0.3269 -0.1627 -0.7192
  956MOL0     C31845   0.154   3.222   8.014 -0.5100 -0.9417  0.0067
  956MOL0     C31846   0.070   3.244   7.902  0.9055 -0.2003 -0.7637
  956MOL0     C31847  -0.061   3.207   7.904 -0.4325  0.5860  0.4843
  956MOL0     C31848  -0.123   3.155   8.020 -1.1347 -0.5400 -0.3424
  956MOL0     O31849  -0.256   3.106   8.033  0.2988  0.0205  0.0528
  956MOL0     C31850  -0.361   3.161   7.947  0.0007  0.4840  0.4704
  956MOL0     C31851  -0.369   3.080   7.811 -0.4592 -0.3410 -0.0172
  956MOL0     C31852  -0.451   3.154   7.700 -0.7486 -0.3953 -0.4199
  956MOL0     C31853  -0.595   3.104   7.675  0.5852 -0.8391  0.4389
  956MOL0     C31854  -0.673   3.126   7.803 -0.1873  0.1690  0.6292
  956MOL0     C31855  -0.724   3.164   7.902  0.0681  0.1652  0.7188
  956MOL0     C31856  -0.043   3.148   8.133 -0.1037  0.2261  0.3153
  956MOL0     C31857   0.097   3.176   8.137  0.6267  0.1278 -0.0987
  956MOL0     C31858   0.172   3.160   8.265 -0.1073 -0.0651 -0.2052
  956MOL0     H31859   0.461   3.420   7.784 -1.6155 -2.3909  0.2599
  956MOL0     H31860   0.701   3.463   7.758  3.4726 -0.8957 -0.5712
  956MOL0     H31861   0.942   3.500   7.812  0.0244 -0.6611 -0.2684
  956MOL0     H31862   0.895   3.455   7.662 -0.2618 -0.5036  0.2396
  956MOL0     H31863   1.141   3.323   7.779 -1.0205  1.0815  1.8883
  956MOL0     H31864   1.095   3.338   7.605  0.3351 -1.4707  1.6005
  956MOL0     H31865   1.149   3.576   7.611 -1.3411 -0.5871  0.3332
  956MOL0     H31866   1.158   3.574   7.777 -3.1069  0.1280 -0.4365
  956MOL0     H31867   1.354   3.388   7.748 -0.2688 -0.2756 -0.1487
  956MOL0     H31868   1.340   3.416   7.580  1.6100  0.2993  0.3391
  956MOL0     H31869   1.428   3.594   7.795 -2.3267 -0.9395  0.2665
  956MOL0     H31870   1.380   3.667   7.632 -2.3705 -2.1711 -1.2451
  956MOL0     H31871   1.616   3.467   7.696 -0.5552  0.4211 -0.0096
  956MOL0     H31872   1.554   3.496   7.533  0.7579 -0.4895  0.3437
  956MOL0     H31873   1.651   3.708   7.729 -1.0291 -1.6233 -0.1874
  956MOL0     H31874   1.600   3.743   7.566 -1.1161  0.2175 -0.0654
  956MOL0     H31875   1.837   3.725   7.609  1.9846  0.0292 -2.0419
  956MOL0     H31876   1.832   3.547   7.605  0.5341  0.0255 -1.3137
  956MOL0     H31877   1.838   3.860   7.396  0.6348 -2.4322  3.4491
  956MOL0     H31878   1.863   3.773   7.026  1.7133  0.9773 -0.2136
  956MOL0     H31879   1.915   3.906   7.133 -0.0406  0.4744  1.4108
  956MOL0     H31880   1.632   3.818   7.040  3.3003 -2.9769 -1.4818
  956MOL0     H31881   1.653   3.944   7.157 -2.1359 -2.9394  0.4558
  956MOL0     H31882   1.759   4.097   6.979  1.9906  0.8897 -2.8418
  956MOL0     H31883   1.795   3.947   6.883  0.3156 -1.9678  2.0502
  956MOL0     H31884   1.608   4.112   6.796  3.8320  1.0301  0.8674
  956MOL0     H31885   1.570   3.935   6.799 -1.9965 -0.5561 -0.1482
  956MOL0     H31886   1.293   4.083   7.080 -1.1188 -3.3070  0.0311
  956MOL0     H31887   1.058   4.076   7.117 -3.1687  1.2939  0.5376
  956MOL0     H31888   0.948   4.027   6.999  1.8297 -1.2682 -1.3128
  956MOL0     H31889   0.979   4.206   7.012  0.0316  1.0078 -1.6176
  956MOL0     H31890   0.671   4.063   6.939  0.8005 -1.7611 -0.4667
  956MOL0     H31891   0.438   4.068   6.870 -4.0617  1.3560 -3.0999
  956MOL0     H31892   0.346   4.187   6.433 -1.4854 -0.0048 -0.8761
  956MOL0     H31893   0.344   4.015   6.476 -3.1557 -0.7153 -1.8242
  956MOL0     H31894   0.117   4.087   6.613 -2.9373 -0.4524 -1.1537
  956MOL0     H31895   0.119   4.224   6.501  1.9936  0.4198  0.5095
  956MOL0     H31896   0.142   3.940   6.403  2.0509  1.3004 -0.2139
  956MOL0     H31897   0.121   4.086   6.313  0.2894  3.2470  2.3752
  956MOL0     H31898  -0.098   4.128   6.445 -1.5328 -0.8429 -1.9707
  956MOL0     H31899  -0.076   3.971   6.528  0.9244  1.2193  1.7484
  956MOL0     H31900  -0.238   3.989   6.312 -0.4753 -1.3691 -1.2809
  956MOL0     H31901  -0.088   3.991   6.223 -2.9535  1.8938 -1.4103
  956MOL0     H31902  -0.213   3.766   6.379 -0.1781 -0.7523  0.7606
  956MOL0     H31903  -0.036   3.792   6.376  0.4571  2.3057 -0.1730
  956MOL0     H31904  -0.061   3.645   6.188  0.7967  0.3143 -1.6042
  956MOL0     H31905  -0.043   3.801   6.115  1.2938  0.4638  0.2079
  956MOL0     H31906  -0.198   3.634   6.023 -1.1504  0.3524 -0.9066
  956MOL0     H31907  -0.259   3.792   6.040 -2.5608 -1.9778 -0.3195
  956MOL0     H31908   0.550   4.214   6.478 -1.1121  0.0397  0.2924
  956MOL0     H31909   0.776   4.218   6.553 -2.6636  3.3810 -1.5688
  956MOL0     H31910   1.215   4.083   6.592 -1.5013  1.3734 -0.0666
  956MOL0     H31911   1.424   4.086   6.677 -0.0806 -2.0749 -0.2381
  956MOL0     H31912   0.781   3.062   7.877 -1.3897 -1.1199  1.6394
  956MOL0     H31913   0.547   3.031   7.914  0.8458 -0.5395 -0.4151
  956MOL0     H31914   0.114   3.282   7.810 -0.4942 -3.2801 -2.8999
  956MOL0     H31915  -0.110   3.220   7.808  0.0037 -1.8006 -0.1317
  956MOL0     H31916  -0.451   3.137   8.003 -0.8867  1.5657 -0.4291
  956MOL0     H31917  -0.349   3.268   7.925 -2.2764  0.6995  0.1008
  956MOL0     H31918  -0.415   2.982   7.824 -1.1471  0.2008  1.9891
  956MOL0     H31919  -0.271   3.059   7.769  0.3743  2.2459  0.4640
  956MOL0     H31920  -0.457   3.261   7.720 -2.3786 -0.5930  0.2974
  956MOL0     H31921  -0.391   3.147   7.608 -0.6233 -0.1879 -0.3537
  956MOL0     H31922  -0.603   3.006   7.626  0.0131 -0.3949 -0.3771
  956MOL0     H31923  -0.637   3.179   7.607 -2.4708 -1.0632  1.9343
  956MOL0     H31924  -0.767   3.191   7.996 -0.2093 -0.2171  0.7024
  956MOL0     H31925  -0.090   3.111   8.223  0.5597  0.9821  0.9899
  956MOL0     H31926   0.140   3.239   8.333  0.1816 -0.1687  0.0556
  956MOL0     H31927   0.133   3.072   8.318  2.1661  0.1937  2.1460
  956MOL0     H31928   0.277   3.142   8.239  0.2606 -0.0737  1.2100
  957MOL0     O31929   5.391   7.407   7.182  0.7494  0.0332 -0.6940
  957MOL0     C31930   5.377   7.422   7.303  0.6653 -0.5677  0.3379
  957MOL0     O31931   5.472   7.407   7.398 -0.3729  0.1459 -0.5792
  957MOL0     C31932   5.609   7.387   7.364  0.4993  0.2457  0.4556
  957MOL0     C31933   5.659   7.287   7.277  0.2292  0.3154  0.3023
  957MOL0     C31934   5.796   7.260   7.264 -0.1481  0.0057  0.3889
  957MOL0     C31935   5.886   7.347   7.325  0.3667  0.6460 -1.1955
  957MOL0     O31936   6.018   7.323   7.301  0.0634  0.2691  0.5994
  957MOL0     C31937   6.118   7.417   7.334  0.6567  0.4556 -0.8526
  957MOL0     C31938   6.236   7.403   7.253  0.8421  0.7791  0.0680
  957MOL0     C31939   6.358   7.484   7.289 -0.0695  0.5638 -0.3030
  957MOL0     C31940   6.448   7.477   7.170 -0.6667 -0.7916 -0.2655
  957MOL0     C31941   6.560   7.576   7.183 -0.6003  0.7513 -0.3594
  957MOL0     C31942   6.659   7.555   7.064 -0.2971 -0.2940 -0.0036
  957MOL0     C31943   6.789   7.629   7.053 -0.7411  0.0933  0.6422
  957MOL0     C31944   6.757   7.769   7.010 -0.0501 -0.5866  0.0727
  957MOL0     N31945   6.874   7.854   7.034  0.9342 -0.4992  0.3701
  957MOL0     C31946   6.940   7.881   7.157  0.7549 -0.5754  0.5670
  957MOL0     C31947   7.069   7.909   7.121  0.1648  0.1999  0.1212
  957MOL0     C31948   7.182   7.939   7.215 -0.3421  0.2217  0.1647
  957MOL0     C31949   7.252   8.064   7.173  0.7160 -0.3766  0.1397
  957MOL0     C31950   7.167   8.192   7.172  0.1637 -0.6185  0.5743
  957MOL0     C31951   7.229   8.329   7.187  0.3030  0.1790  0.6348
  957MOL0     O31952   7.317   8.349   7.303  0.0496  0.2319 -0.5319
  957MOL0     C31953   7.257   8.400   7.420  0.1190 -0.2241  0.2511
  957MOL0     C31954   7.123   8.428   7.442  0.0812  0.4828  0.1220
  957MOL0     C31955   7.080   8.480   7.559 -0.0638  0.7658  0.1709
  957MOL0     C31956   6.929   8.476   7.567  0.1098  0.0769 -0.1552
  957MOL0     C31957   7.173   8.532   7.656  0.0379 -0.2956  0.2238
  957MOL0     C31958   7.132   8.609   7.776  1.0815  0.4103  0.5151
  957MOL0     O31959   7.208   8.609   7.885  1.1052  0.8093  0.4999
  957MOL0     C31960   7.168   8.680   7.995 -0.2858 -0.0722 -0.6128
  957MOL0     C31961   7.080   8.618   8.082 -0.0287  1.2016 -0.0881
  957MOL0     C31962   7.038   8.672   8.201  0.1033  0.6706 -0.2127
  957MOL0     C31963   7.103   8.789   8.249  0.2860  0.2651  0.3485
  957MOL0     O31964   7.089   8.834   8.381 -0.1421 -0.2060  0.4492
  957MOL0     C31965   6.946   8.849   8.426 -0.3013 -0.3779 -0.0166
  957MOL0     C31966   6.867   8.975   8.360  0.5989  0.2831 -0.3331
  957MOL0     C31967   6.902   9.124   8.394  0.1060  0.2470 -0.2644
  957MOL0     C31968   7.052   9.154   8.394 -0.7020 -0.3446  0.1009
  957MOL0     C31969   7.067   9.297   8.427 -0.5560 -0.5059 -1.4635
  957MOL0     C31970   7.214   9.346   8.452  0.6940 -0.3798 -0.3835
  957MOL0     C31971   7.216   9.502   8.487 -0.3275 -0.1619 -0.3014
  957MOL0     C31972   7.360   9.546   8.494  0.1636 -0.4161  0.8954
  957MOL0    Cl31973   7.381   9.717   8.538 -0.1416 -0.2594 -0.4618
  957MOL0     C31974   7.205   8.842   8.165  0.5021  0.0104  0.3962
  957MOL0     C31975   7.227   8.793   8.036  0.5677  0.8577  0.5308
  957MOL0     O31976   7.024   8.672   7.760 -0.1526  0.7207 -1.1053
  957MOL0     C31977   7.316   8.499   7.637  0.0791  0.0040 -0.2537
  957MOL0     C31978   7.355   8.438   7.515  0.0386  0.2149 -0.5725
  957MOL0     N31979   7.078   7.894   6.987 -1.2528 -0.1055  0.4666
  957MOL0     N31980   6.969   7.843   6.940  0.5505  0.1613 -0.2114
  957MOL0     C31981   5.841   7.444   7.416 -0.0258 -0.1757  0.1716
  957MOL0     C31982   5.702   7.463   7.435 -0.4275  0.3123  0.4928
  957MOL0     C31983   5.238   7.465   7.340 -0.1655  0.1456  0.6796
  957MOL0     C31984   5.194   7.590   7.287 -0.0621 -0.0076 -0.1711
  957MOL0     C31985   5.081   7.654   7.346  0.0067  0.1503  0.0467
  957MOL0     C31986   5.004   7.589   7.442 -0.2866 -0.4012 -0.2100
  957MOL0     O31987   4.914   7.664   7.514 -0.1107  0.8838  0.0374
  957MOL0     C31988   4.808   7.600   7.588 -0.4388  0.2949 -0.2366
  957MOL0     C31989   4.705   7.689   7.658 -0.5569  0.2373 -0.3098
  957MOL0     C31990   4.559   7.667   7.609  1.4407  0.9156 -0.5806
  957MOL0     C31991   4.502   7.530   7.651 -0.2612  0.5642  1.6986
  957MOL0     C31992   4.470   7.535   7.791  0.0326  0.2286 -0.1627
  957MOL0     C31993   4.455   7.565   7.904 -0.2264  1.1469  0.0765
  957MOL0     C31994   5.031   7.449   7.477  0.0919 -0.3300 -0.9910
  957MOL0     C31995   5.153   7.394   7.433 -0.7102  1.2632  0.6346
  957MOL0     C31996   5.205   7.260   7.490  0.7504 -0.7808  0.2059
  957MOL0     H31997   5.582   7.231   7.225  0.2001 -0.6043  1.3160
  957MOL0     H31998   5.827   7.187   7.190  1.5002  1.1369 -0.0983
  957MOL0     H31999   6.148   7.400   7.438 -2.8363 -3.0295 -0.1606
  957MOL0     H32000   6.078   7.518   7.320 -2.5112 -0.1339  2.3745
  957MOL0     H32001   6.260   7.296   7.255 -0.3403  0.5064  0.0917
  957MOL0     H32002   6.204   7.412   7.149 -1.1680 -0.7751  0.4942
  957MOL0     H32003   6.324   7.587   7.308  2.0626  1.5880 -1.6312
  957MOL0     H32004   6.422   7.444   7.368 -0.3699  1.5373  0.4685
  957MOL0     H32005   6.491   7.377   7.172  1.5513  0.0950 -0.1436
  957MOL0     H32006   6.398   7.508   7.078 -1.5610  2.9496  1.2738
  957MOL0     H32007   6.612   7.565   7.279  2.9879  1.3012 -2.0788
  957MOL0     H32008   6.525   7.680   7.182  2.5222  1.8952 -1.5272
  957MOL0     H32009   6.692   7.452   7.046 -0.4827 -0.5247  0.8986
  957MOL0     H32010   6.604   7.570   6.971  2.4451 -0.2628 -1.7367
  957MOL0     H32011   6.858   7.588   6.980 -0.5687  2.0557 -0.3767
  957MOL0     H32012   6.834   7.622   7.153 -0.6746  1.0015  0.6885
  957MOL0     H32013   6.736   7.774   6.903 -0.3859 -3.0182 -0.0251
  957MOL0     H32014   6.672   7.796   7.073  0.5658 -0.8553  1.0583
  957MOL0     H32015   6.895   7.904   7.253 -1.2767  0.8761 -0.6709
  957MOL0     H32016   7.255   7.859   7.205 -1.7239 -0.8853 -1.6256
  957MOL0     H32017   7.147   7.944   7.319 -0.0214  0.2949  0.2716
  957MOL0     H32018   7.327   8.093   7.248  0.8521  0.5608 -0.3439
  957MOL0     H32019   7.312   8.041   7.085 -1.0913 -1.4597 -0.8698
  957MOL0     H32020   7.106   8.196   7.081  0.3379 -0.3241  0.4687
  957MOL0     H32021   7.101   8.184   7.259 -1.3742  0.7322 -0.4094
  957MOL0     H32022   7.290   8.344   7.097  0.9066 -4.1022  0.1552
  957MOL0     H32023   7.147   8.401   7.177 -0.2965 -0.4137  1.2540
  957MOL0     H32024   7.044   8.443   7.369  0.8507 -0.1234 -0.8563
  957MOL0     H32025   6.888   8.413   7.488 -1.9021  1.0097  0.0622
  957MOL0     H32026   6.890   8.578   7.559 -1.4166 -0.4583  0.1391
  957MOL0     H32027   6.891   8.445   7.665  1.8935 -0.0707  0.5240
  957MOL0     H32028   7.053   8.516   8.058  2.0438  0.4470  0.5870
  957MOL0     H32029   6.954   8.627   8.253  0.2457  0.0289 -0.5269
  957MOL0     H32030   6.895   8.754   8.406  2.4814 -1.7062 -1.3712
  957MOL0     H32031   6.939   8.866   8.534  0.5405  1.8462 -0.2683
  957MOL0     H32032   6.868   8.954   8.253  0.9409 -0.4551 -0.1901
  957MOL0     H32033   6.761   8.958   8.382  0.1777  1.1308 -1.6006
  957MOL0     H32034   6.867   9.143   8.496  1.1889 -3.1354  0.8632
  957MOL0     H32035   6.850   9.189   8.323 -0.3860 -0.6871 -0.7866
  957MOL0     H32036   7.088   9.122   8.296  2.0232 -3.4075  1.8840
  957MOL0     H32037   7.104   9.093   8.469 -1.2283 -0.9000  0.0108
  957MOL0     H32038   7.022   9.357   8.347  0.2362  2.3356  0.0946
  957MOL0     H32039   7.011   9.322   8.517 -0.7784 -0.8321 -1.5087
  957MOL0     H32040   7.288   9.311   8.380  0.5682 -1.2049 -0.1174
  957MOL0     H32041   7.233   9.289   8.543 -3.7420 -3.8705 -1.3249
  957MOL0     H32042   7.178   9.516   8.588 -0.9422  2.2525 -0.8007
  957MOL0     H32043   7.159   9.560   8.414  0.7186  0.1618 -0.8904
  957MOL0     H32044   7.410   9.541   8.397  0.5728 -0.2211  1.0916
  957MOL0     H32045   7.411   9.479   8.565  1.5535  0.0588  0.3823
  957MOL0     H32046   7.244   8.938   8.197  0.3722 -0.7256  3.0125
  957MOL0     H32047   7.304   8.848   7.981 -1.1203  1.3072 -1.5454
  957MOL0     H32048   7.388   8.541   7.707 -1.0285  0.7708  0.4700
  957MOL0     H32049   7.458   8.432   7.481 -0.2757  0.1120 -1.5287
  957MOL0     H32050   5.911   7.506   7.471 -0.7983  0.1950  0.7465
  957MOL0     H32051   5.669   7.536   7.508  1.5848  0.8192  0.9357
  957MOL0     H32052   5.238   7.636   7.199  0.0815 -0.0828 -0.1404
  957MOL0     H32053   5.080   7.758   7.314  2.5218  0.4734  0.8101
  957MOL0     H32054   4.769   7.519   7.526  0.8448  1.2325 -2.3326
  957MOL0     H32055   4.867   7.555   7.668  1.2712  0.6559 -1.2608
  957MOL0     H32056   4.726   7.794   7.636 -0.5331  0.4464  0.6674
  957MOL0     H32057   4.707   7.674   7.766  0.6818  0.3807 -0.2996
  957MOL0     H32058   4.500   7.752   7.645  2.4385  0.9486  1.0793
  957MOL0     H32059   4.555   7.671   7.499 -0.0174 -1.4160 -0.6904
  957MOL0     H32060   4.571   7.449   7.628 -1.4673 -0.1437  0.4694
  957MOL0     H32061   4.410   7.514   7.595  0.9456 -3.2619  0.5414
  957MOL0     H32062   4.466   7.584   8.009  0.8116 -1.6029  0.5536
  957MOL0     H32063   4.974   7.396   7.553  1.8601  0.9056  1.3534
  957MOL0     H32064   5.223   7.182   7.415 -0.1596  1.5221 -2.5678
  957MOL0     H32065   5.305   7.259   7.535  2.0078  0.0008 -2.3757
  957MOL0     H32066   5.132   7.225   7.563 -1.9124  1.8124 -1.0212
  958MOL0     O32067   5.903   0.462   2.304 -0.7970 -0.1116  0.1805
  958MOL0     C32068   5.932   0.577   2.330  0.3715 -0.2690 -1.1769
  958MOL0     O32069   6.059   0.635   2.328 -0.5628  0.1660  0.6424
  958MOL0     C32070   6.184   0.572   2.341 -0.0252 -0.3952 -0.5021
  958MOL0     C32071   6.296   0.657   2.325  0.5219 -0.1579 -0.1276
  958MOL0     C32072   6.419   0.608   2.315  0.2512  0.2332  0.4386
  958MOL0     C32073   6.445   0.470   2.330 -0.3686 -0.0426  0.3924
  958MOL0     O32074   6.568   0.417   2.293 -0.2414 -0.5304  0.8896
  958MOL0     C32075   6.607   0.290   2.350 -0.2834  0.8931  0.9924
  958MOL0     C32076   6.646   0.302   2.496 -0.5432  0.1341 -1.0257
  958MOL0     C32077   6.730   0.187   2.542 -0.7220  1.1606 -0.1428
  958MOL0     C32078   6.883   0.221   2.511  0.3151  0.8432  0.1166
  958MOL0     C32079   6.970   0.121   2.586 -0.1166  0.2958  0.3076
  958MOL0     C32080   7.116   0.149   2.571  0.4852 -0.4210 -0.8552
  958MOL0     C32081   7.204   0.043   2.626 -0.6848 -0.1451 -0.0131
  958MOL0     C32082   7.206   0.031   2.781 -0.4699 -0.2630 -0.2352
  958MOL0     N32083   7.331  -0.030   2.824  0.0764  0.0626  0.6726
  958MOL0     C32084   7.444   0.036   2.858 -0.4862 -0.6399 -0.1982
  958MOL0     C32085   7.522  -0.056   2.928  0.0106 -0.5212  0.7462
  958MOL0     C32086   7.655  -0.032   2.978 -1.3960 -0.7474 -1.0582
  958MOL0     C32087   7.753  -0.144   2.942  0.6785  0.8317 -0.3074
  958MOL0     C32088   7.905  -0.098   2.948  0.3923 -0.1925  0.2517
  958MOL0     C32089   7.952  -0.112   3.098 -0.1026  0.8864  0.0800
  958MOL0     O32090   7.896   0.007   3.166 -0.4613 -0.1771  0.3733
  958MOL0     C32091   7.870   0.014   3.300 -0.6572 -0.3818 -0.0108
  958MOL0     C32092   7.872   0.143   3.355 -0.0187  0.0920  0.0723
  958MOL0     C32093   7.865   0.170   3.494 -0.5765  0.4506 -0.8737
  958MOL0     C32094   7.885   0.313   3.544  0.6876  0.4688  0.2514
  958MOL0     C32095   7.842   0.065   3.590 -1.0856 -0.5807  0.5219
  958MOL0     C32096   7.813   0.080   3.740  0.0187 -0.3436  0.4829
  958MOL0     O32097   7.838   0.199   3.799 -0.1667 -0.2261 -0.5764
  958MOL0     C32098   7.813   0.208   3.937 -1.0942 -0.5932 -0.5825
  958MOL0     C32099   7.690   0.217   3.984 -0.0308 -0.6141  0.5004
  958MOL0     C32100   7.672   0.217   4.121  0.2996 -0.4737  0.4212
  958MOL0     C32101   7.769   0.234   4.217 -0.4731  0.0596 -0.7756
  958MOL0     O32102   7.741   0.237   4.352 -0.1171 -0.1090  0.1032
  958MOL0     C32103   7.824   0.316   4.429  0.2602  0.4813 -0.9330
  958MOL0     C32104   7.912   0.227   4.515  0.0711 -0.9469  0.0225
  958MOL0     C32105   7.846   0.151   4.621  0.1644 -0.4692 -0.6485
  958MOL0     C32106   7.945   0.078   4.704 -0.8814  0.1915 -0.0810
  958MOL0     C32107   7.870  -0.026   4.790 -0.4299  1.0781  0.0028
  958MOL0     C32108   7.970  -0.069   4.893 -0.6134 -0.5539 -0.4682
  958MOL0     C32109   7.916  -0.198   4.963 -0.3510 -0.2484 -0.1501
  958MOL0     C32110   7.773  -0.179   5.004  0.0228 -0.0675 -0.8222
  958MOL0    Cl32111   7.745  -0.032   5.097 -0.2192  0.0679  0.5648
  958MOL0     C32112   7.896   0.228   4.163  0.7639  0.0895 -0.1254
  958MOL0     C32113   7.922   0.216   4.030  1.3240  0.7098  0.1838
  958MOL0     O32114   7.771  -0.023   3.794 -0.0163 -0.2023  0.4155
  958MOL0     C32115   7.836  -0.064   3.537 -0.2353  1.4853 -0.7214
  958MOL0     C32116   7.848  -0.088   3.396  1.1738 -0.4190 -0.1526
  958MOL0     N32117   7.440  -0.169   2.946 -0.3941  0.6699  0.3788
  958MOL0     N32118   7.325  -0.153   2.892 -0.3230  0.3015  0.0553
  958MOL0     C32119   6.334   0.390   2.367 -0.0075 -1.0006  0.3763
  958MOL0     C32120   6.201   0.442   2.381 -0.1788 -0.0872  0.0930
  958MOL0     C32121   5.817   0.666   2.378  0.0780 -0.4005 -0.1163
  958MOL0     C32122   5.695   0.644   2.315 -0.0555 -0.6655 -0.5600
  958MOL0     C32123   5.590   0.728   2.349 -0.2117  0.0108 -0.6249
  958MOL0     C32124   5.604   0.834   2.440 -0.2044 -0.4239 -0.4966
  958MOL0     O32125   5.490   0.903   2.469  0.3844  0.3712  0.5260
  958MOL0     C32126   5.490   0.996   2.571 -0.8412 -0.3350 -0.3702
  958MOL0     C32127   5.358   1.077   2.572 -0.0058 -0.0110 -0.6659
  958MOL0     C32128   5.237   0.982   2.557  0.4668 -0.1852 -0.0763
  958MOL0     C32129   5.113   1.039   2.610  0.5106 -0.0834  0.5012
  958MOL0     C32130   5.081   1.174   2.562 -0.1703 -0.1478  0.6830
  958MOL0     C32131   5.059   1.289   2.525  0.0252 -0.2651 -0.4315
  958MOL0     C32132   5.732   0.851   2.504 -0.2353  0.4991 -0.1719
  958MOL0     C32133   5.829   0.758   2.479 -0.3331 -0.5734 -0.0112
  958MOL0     C32134   5.959   0.763   2.558 -0.4291 -0.0592 -0.4786
  958MOL0     H32135   6.286   0.762   2.299  2.0955 -0.2928 -1.4675
  958MOL0     H32136   6.496   0.676   2.280 -0.0653 -0.0828 -0.9400
  958MOL0     H32137   6.694   0.255   2.292 -0.3427  5.5253 -2.4652
  958MOL0     H32138   6.530   0.213   2.346  1.1350 -0.5640  0.2120
  958MOL0     H32139   6.690   0.398   2.524  0.8998 -0.5850 -0.7172
  958MOL0     H32140   6.552   0.293   2.550  0.5318 -3.3923  0.5843
  958MOL0     H32141   6.702   0.153   2.642  0.6447  0.2705 -0.0440
  958MOL0     H32142   6.700   0.103   2.479  0.0791 -0.1815  1.2066
  958MOL0     H32143   6.906   0.202   2.406  0.4866 -1.9174  0.5817
  958MOL0     H32144   6.918   0.321   2.540  2.3924  0.5871 -1.2777
  958MOL0     H32145   6.950   0.028   2.531  1.4386  0.8108 -1.2438
  958MOL0     H32146   6.933   0.115   2.689 -0.4902  0.7113  0.1999
  958MOL0     H32147   7.135   0.169   2.466 -1.9455 -1.0329 -1.4831
  958MOL0     H32148   7.130   0.239   2.633 -1.3514  0.3686 -1.5163
  958MOL0     H32149   7.307   0.077   2.608 -0.6611 -0.0933  0.2302
  958MOL0     H32150   7.174  -0.049   2.574 -4.2085 -0.1411  1.7558
  958MOL0     H32151   7.213   0.137   2.809  2.0798 -0.3562 -0.2343
  958MOL0     H32152   7.119  -0.017   2.824 -1.9319  2.9624  0.7309
  958MOL0     H32153   7.460   0.140   2.832 -1.3112 -0.6868 -0.9596
  958MOL0     H32154   7.647  -0.028   3.087  0.0966 -1.2612 -0.9087
  958MOL0     H32155   7.690   0.065   2.941 -1.1434  1.4517  4.0964
  958MOL0     H32156   7.724  -0.228   3.005  4.1054  0.3329  0.8073
  958MOL0     H32157   7.737  -0.174   2.838  0.2176 -1.1887  0.3167
  958MOL0     H32158   7.955  -0.170   2.882 -2.0534 -2.7687  0.9865
  958MOL0     H32159   7.924   0.005   2.917  0.9569 -0.0612  1.0141
  958MOL0     H32160   7.919  -0.209   3.137  0.8471  0.1325 -0.9435
  958MOL0     H32161   8.061  -0.112   3.111  0.1840  0.6058 -2.0206
  958MOL0     H32162   7.886   0.218   3.277 -2.4249 -0.2535 -0.7890
  958MOL0     H32163   7.783   0.350   3.563 -1.4833 -2.9883 -3.1087
  958MOL0     H32164   7.924   0.378   3.465  0.8860  0.9168  0.7112
  958MOL0     H32165   7.944   0.318   3.635  1.6346 -2.5651 -0.0809
  958MOL0     H32166   7.607   0.207   3.914  0.1192 -2.5969  0.5660
  958MOL0     H32167   7.568   0.205   4.152  0.4955 -1.0548  0.8724
  958MOL0     H32168   7.873   0.389   4.365 -3.9425  0.3853 -4.7517
  958MOL0     H32169   7.761   0.382   4.490  0.5267  0.6265 -0.8105
  958MOL0     H32170   7.964   0.161   4.444 -0.4886 -4.2610  2.4382
  958MOL0     H32171   7.989   0.294   4.553  0.8658 -1.5640 -0.4567
  958MOL0     H32172   7.793   0.070   4.571  1.3155 -0.3648 -2.1021
  958MOL0     H32173   7.795   0.221   4.688  1.9081  1.9881 -1.6922
  958MOL0     H32174   7.995   0.151   4.768  0.8523  1.5208 -2.7822
  958MOL0     H32175   8.013   0.015   4.646 -3.0970 -3.9200  1.3275
  958MOL0     H32176   7.771   0.007   4.822 -1.8182 -0.4863 -2.3929
  958MOL0     H32177   7.856  -0.120   4.737  2.3768  0.4176  0.2405
  958MOL0     H32178   7.990  -0.001   4.976 -2.0524 -2.5100  1.5789
  958MOL0     H32179   8.059  -0.096   4.834 -0.5856  1.2942 -1.3312
  958MOL0     H32180   7.987  -0.211   5.045  0.5883 -5.9169 -1.4561
  958MOL0     H32181   7.933  -0.289   4.905  1.8560  1.1410 -1.8622
  958MOL0     H32182   7.759  -0.267   5.067  3.4561 -0.0483  0.2093
  958MOL0     H32183   7.709  -0.183   4.916 -2.1314 -2.6578  0.7329
  958MOL0     H32184   7.976   0.221   4.235 -2.8166 -0.5022  4.3057
  958MOL0     H32185   8.023   0.198   3.993  1.3976  2.3161 -0.4702
  958MOL0     H32186   7.823  -0.156   3.593  1.1270  1.1084 -0.9828
  958MOL0     H32187   7.834  -0.184   3.349  0.4024  0.8540 -2.6834
  958MOL0     H32188   6.341   0.282   2.367  1.2970 -0.9558 -1.7293
  958MOL0     H32189   6.114   0.379   2.394  1.6165 -2.5197  1.1842
  958MOL0     H32190   5.691   0.578   2.229  3.9552 -1.6901 -0.1466
  958MOL0     H32191   5.492   0.719   2.303 -1.6440 -1.6965  2.4007
  958MOL0     H32192   5.486   0.941   2.665  3.7400  0.2057  0.3715
  958MOL0     H32193   5.577   1.062   2.567  0.9399 -2.3954  1.5413
  958MOL0     H32194   5.374   1.139   2.483  3.0690  1.4979  0.7953
  958MOL0     H32195   5.338   1.145   2.656 -3.0025  0.5130 -1.6785
  958MOL0     H32196   5.226   0.962   2.450 -0.5996 -1.0163  0.1757
  958MOL0     H32197   5.246   0.888   2.612 -3.0964  0.4530  1.8440
  958MOL0     H32198   5.128   1.039   2.719  1.4073  0.6223  0.3947
  958MOL0     H32199   5.024   0.976   2.597 -1.1263  1.6097  2.6345
  958MOL0     H32200   5.039   1.390   2.493  0.0498 -0.6491 -1.7175
  958MOL0     H32201   5.736   0.909   2.596 -0.3666  1.8871 -1.0059
  958MOL0     H32202   5.941   0.809   2.655  0.6469  1.7518 -1.0901
  958MOL0     H32203   6.002   0.667   2.586  0.3755  0.1837 -0.8398
  958MOL0     H32204   6.035   0.819   2.503  1.1433 -2.6086 -1.0485
  959MOL0     O32205   0.896   3.012   4.816 -0.0616 -0.2934  0.2450
  959MOL0     C32206   0.968   3.032   4.720  0.9879 -0.1497  0.9977
  959MOL0     O32207   1.015   3.162   4.680 -0.5002 -0.5631  0.3331
  959MOL0     C32208   0.983   3.282   4.746 -0.7144 -0.1326  0.1281
  959MOL0     C32209   0.850   3.316   4.786  0.3391  0.5008  0.3937
  959MOL0     C32210   0.817   3.443   4.823 -0.7528  0.7549  0.5547
  959MOL0     C32211   0.922   3.536   4.852  0.6118 -0.7156  0.2086
  959MOL0     O32212   0.890   3.667   4.898  0.3864 -0.3666 -0.3039
  959MOL0     C32213   0.748   3.704   4.905 -0.0125 -0.0336 -0.5915
  959MOL0     C32214   0.728   3.849   4.960  0.6691  0.7294 -0.4956
  959MOL0     C32215   0.804   3.954   4.880  0.4402 -0.3159  0.0611
  959MOL0     C32216   0.945   3.975   4.918 -0.1117 -0.0487 -0.1467
  959MOL0     C32217   1.016   4.095   4.853  0.9666 -0.0729  0.4424
  959MOL0     C32218   1.168   4.093   4.839  0.6448  0.1537  0.5141
  959MOL0     C32219   1.210   4.233   4.795 -0.4995 -0.3166 -0.1943
  959MOL0     C32220   1.358   4.251   4.796 -0.1709 -0.1123  0.1192
  959MOL0     N32221   1.405   4.389   4.777  0.5268 -0.5785 -0.0139
  959MOL0     C32222   1.516   4.426   4.709 -0.1111  0.1340 -0.1744
  959MOL0     C32223   1.512   4.555   4.693  0.1982  0.4499  0.4363
  959MOL0     C32224   1.629   4.639   4.652 -0.6046  0.1689 -0.0995
  959MOL0     C32225   1.693   4.703   4.784 -0.1498 -0.0834 -0.4904
  959MOL0     C32226   1.810   4.796   4.751  0.3074  0.4996 -0.1793
  959MOL0     C32227   1.839   4.903   4.863 -0.2106  0.1088 -0.2199
  959MOL0     O32228   1.862   4.840   4.993 -0.8871 -0.2794  0.5175
  959MOL0     C32229   1.933   4.925   5.080  0.5153  0.3300 -0.3554
  959MOL0     C32230   1.946   5.066   5.080 -0.1517  0.2783  0.2961
  959MOL0     C32231   2.007   5.139   5.182 -0.2341 -0.4209  0.1616
  959MOL0     C32232   2.015   5.286   5.161 -0.0935 -0.6373  0.5185
  959MOL0     C32233   2.072   5.061   5.292  0.1438 -0.4574 -0.2545
  959MOL0     C32234   2.155   5.114   5.408 -0.0885  0.3046  0.6556
  959MOL0     O32235   2.214   5.029   5.499 -0.6538 -0.3251 -0.3179
  959MOL0     C32236   2.314   5.078   5.578 -0.0940  0.4236  0.6146
  959MOL0     C32237   2.284   5.106   5.709  0.7215  0.4199 -0.1104
  959MOL0     C32238   2.384   5.140   5.797  0.4759 -0.5033  0.4535
  959MOL0     C32239   2.518   5.152   5.764 -0.6682  0.5820 -0.0903
  959MOL0     O32240   2.634   5.182   5.840 -0.6344  0.7483 -0.2825
  959MOL0     C32241   2.601   5.202   5.977 -0.3285  0.7207 -0.8125
  959MOL0     C32242   2.725   5.272   6.034 -0.0230 -0.8602 -0.5392
  959MOL0     C32243   2.855   5.208   5.986 -0.5655 -1.3314  0.0223
  959MOL0     C32244   2.976   5.212   6.076  0.5711 -0.4709  0.1819
  959MOL0     C32245   3.106   5.169   5.997 -0.4572 -0.2132  0.0008
  959MOL0     C32246   3.162   5.291   5.930 -0.5469 -1.3207  0.4790
  959MOL0     C32247   3.312   5.270   5.880  0.5534 -0.5078 -0.2385
  959MOL0     C32248   3.320   5.152   5.789 -0.0719 -0.3625 -0.1592
  959MOL0    Cl32249   3.248   5.220   5.635  0.7262 -0.1613 -0.1608
  959MOL0     C32250   2.548   5.115   5.628  0.5074  0.3841  0.4285
  959MOL0     C32251   2.446   5.087   5.535 -0.1976  1.1257  0.6396
  959MOL0     O32252   2.169   5.232   5.413 -0.5837 -1.1697 -0.9324
  959MOL0     C32253   2.062   4.924   5.286  0.2320 -0.1585  0.2113
  959MOL0     C32254   1.992   4.859   5.184  0.8064 -0.0293  0.0640
  959MOL0     N32255   1.401   4.598   4.764 -0.6517 -0.8620  0.2042
  959MOL0     N32256   1.334   4.502   4.807  0.1846  0.8195 -0.4680
  959MOL0     C32257   1.055   3.503   4.828  0.8419  0.7146 -0.2300
  959MOL0     C32258   1.085   3.378   4.770 -0.4378  0.1614 -0.1270
  959MOL0     C32259   0.994   2.913   4.626 -0.0073  0.8195  0.5697
  959MOL0     C32260   0.918   2.799   4.645  0.5661  0.0594  0.3107
  959MOL0     C32261   0.930   2.683   4.559 -0.1604  0.0097 -0.5435
  959MOL0     C32262   1.042   2.666   4.483  0.3209  0.4089 -0.5386
  959MOL0     O32263   1.050   2.542   4.421 -0.5726 -0.4753  0.0838
  959MOL0     C32264   1.124   2.530   4.298  0.3375 -0.0827 -0.2848
  959MOL0     C32265   1.083   2.391   4.250 -0.8999  0.3161 -0.5892
  959MOL0     C32266   1.130   2.383   4.098  0.3207  0.0323  0.1727
  959MOL0     C32267   1.022   2.452   4.008 -0.3999  0.7218 -0.1310
  959MOL0     C32268   1.087   2.455   3.877 -0.7285 -0.1115 -0.6260
  959MOL0     C32269   1.131   2.480   3.773 -0.5644  0.0215 -0.3157
  959MOL0     C32270   1.121   2.776   4.470  0.5061 -0.2666 -0.1231
  959MOL0     C32271   1.099   2.901   4.534  1.0376 -0.1799  0.1738
  959MOL0     C32272   1.203   3.012   4.496 -0.4358  0.6439  0.8278
  959MOL0     H32273   0.774   3.239   4.798  1.0996 -0.5091 -0.9583
  959MOL0     H32274   0.712   3.472   4.833 -0.3940  2.5368 -0.4411
  959MOL0     H32275   0.692   3.637   4.972 -0.9654 -0.4763 -1.7878
  959MOL0     H32276   0.701   3.695   4.806  1.8043 -0.0911 -1.4813
  959MOL0     H32277   0.621   3.871   4.968  0.8155  0.9083  1.7471
  959MOL0     H32278   0.752   3.861   5.066  0.3117  1.1272 -0.4575
  959MOL0     H32279   0.789   3.940   4.773  1.1688 -0.6426 -0.0013
  959MOL0     H32280   0.760   4.051   4.903 -0.4150 -0.2434 -1.7086
  959MOL0     H32281   0.946   3.978   5.027 -3.3682  1.8431 -0.0287
  959MOL0     H32282   1.006   3.888   4.891  0.4475 -0.3244  1.8232
  959MOL0     H32283   0.982   4.180   4.913 -1.8432 -1.1708  0.5273
  959MOL0     H32284   0.980   4.127   4.755  1.6467 -1.2855 -0.2194
  959MOL0     H32285   1.208   4.057   4.935  0.1545 -0.4684  0.4874
  959MOL0     H32286   1.206   4.026   4.762 -0.0070 -0.7122  0.9319
  959MOL0     H32287   1.159   4.316   4.845  1.5156  1.0633 -0.3349
  959MOL0     H32288   1.176   4.257   4.694 -2.7684 -1.1023  0.3123
  959MOL0     H32289   1.407   4.226   4.890  2.1038  2.5327 -0.2393
  959MOL0     H32290   1.412   4.184   4.727 -0.9571  0.4947 -1.1308
  959MOL0     H32291   1.608   4.376   4.681 -0.5656  0.4350 -2.3236
  959MOL0     H32292   1.590   4.717   4.586  1.6053  1.2443 -0.2279
  959MOL0     H32293   1.713   4.590   4.602 -0.5720  1.1555 -1.0641
  959MOL0     H32294   1.617   4.756   4.843  0.3735  0.5428 -0.3720
  959MOL0     H32295   1.731   4.624   4.850 -0.7448  0.0039 -0.0230
  959MOL0     H32296   1.893   4.727   4.738 -1.7140 -1.7451 -2.2757
  959MOL0     H32297   1.790   4.844   4.655  0.9893  1.8521  0.3273
  959MOL0     H32298   1.920   4.964   4.824 -1.4074  2.2556  0.5011
  959MOL0     H32299   1.748   4.963   4.873 -0.5084 -0.6079  1.7562
  959MOL0     H32300   1.881   5.121   5.013 -0.9522  0.5291  1.2492
  959MOL0     H32301   1.997   5.319   5.058  2.8318  4.3525  1.2830
  959MOL0     H32302   2.117   5.323   5.168  0.3353 -1.3809 -1.1758
  959MOL0     H32303   1.945   5.343   5.222 -1.1108 -0.7967 -0.4727
  959MOL0     H32304   2.180   5.111   5.740  0.5444 -0.5776 -0.5158
  959MOL0     H32305   2.342   5.154   5.896  2.4902 -1.1810  1.4512
  959MOL0     H32306   2.511   5.263   5.989 -0.0666  0.6470  2.3264
  959MOL0     H32307   2.591   5.102   6.020  1.9861 -1.1650 -4.1971
  959MOL0     H32308   2.720   5.377   6.001 -0.7170 -1.7340 -3.5144
  959MOL0     H32309   2.725   5.268   6.143  2.5622 -4.3208 -0.5059
  959MOL0     H32310   2.878   5.249   5.887 -0.2352 -0.8282  0.2965
  959MOL0     H32311   2.845   5.102   5.966 -0.4460 -0.8895 -2.6623
  959MOL0     H32312   2.950   5.158   6.168 -1.3674 -1.2232 -0.7373
  959MOL0     H32313   2.993   5.315   6.109 -2.9768  0.8621 -1.5899
  959MOL0     H32314   3.175   5.137   6.076 -0.1701 -0.4931 -0.3549
  959MOL0     H32315   3.075   5.085   5.934 -1.0982  0.9769 -1.3317
  959MOL0     H32316   3.175   5.374   6.001 -1.5366  0.6304 -1.4845
  959MOL0     H32317   3.107   5.330   5.844 -0.3348  0.0497  0.9402
  959MOL0     H32318   3.370   5.247   5.970 -0.6343 -2.6763  0.0507
  959MOL0     H32319   3.344   5.364   5.833 -2.7516  0.8731  0.0023
  959MOL0     H32320   3.276   5.055   5.813  0.1529  0.1885  2.8094
  959MOL0     H32321   3.425   5.124   5.777 -0.1845 -1.9073  1.8663
  959MOL0     H32322   2.655   5.111   5.608  1.0728  0.6101  3.0475
  959MOL0     H32323   2.458   5.056   5.432 -1.2661 -1.1651  1.1590
  959MOL0     H32324   2.112   4.859   5.357 -1.3650  0.4753  2.0327
  959MOL0     H32325   1.989   4.750   5.185 -1.2303 -0.1107 -2.7981
  959MOL0     H32326   1.141   3.563   4.857  2.5994 -1.6933 -0.1622
  959MOL0     H32327   1.185   3.338   4.754 -0.0309  2.0137 -3.2520
  959MOL0     H32328   0.838   2.791   4.718 -1.0723 -3.7089 -1.6374
  959MOL0     H32329   0.853   2.608   4.574  0.8336 -1.1101 -0.8880
  959MOL0     H32330   1.091   2.609   4.230 -0.0158 -0.0387 -0.0691
  959MOL0     H32331   1.233   2.536   4.303  0.5562 -1.8513 -2.0227
  959MOL0     H32332   0.975   2.377   4.254 -0.5251 -2.7231  1.7366
  959MOL0     H32333   1.134   2.314   4.308  0.5318 -0.2370 -2.4759
  959MOL0     H32334   1.233   2.410   4.075 -0.0371 -0.4214 -2.1962
  959MOL0     H32335   1.119   2.278   4.069  1.2432  0.2972 -1.2148
  959MOL0     H32336   0.991   2.552   4.039 -1.1890  0.0546  1.3765
  959MOL0     H32337   0.933   2.389   4.010 -0.1748  0.3483 -1.1705
  959MOL0     H32338   1.183   2.496   3.681 -1.6541 -2.0052 -1.3619
  959MOL0     H32339   1.206   2.754   4.405 -0.2505 -3.5260 -0.2053
  959MOL0     H32340   1.151   3.096   4.449 -0.6183 -0.1878 -0.4995
  959MOL0     H32341   1.258   3.038   4.587  2.2223 -0.0246 -0.4789
  959MOL0     H32342   1.270   2.967   4.422 -0.2362  1.9399  0.1785
  960MOL0     O32343   3.638   1.549   8.512  0.6458  0.1234  0.4850
  960MOL0     C32344   3.575   1.622   8.431  0.5313 -0.1767 -0.7920
  960MOL0     O32345   3.636   1.714   8.346  0.7498 -0.0170 -0.4917
  960MOL0     C32346   3.770   1.727   8.334 -0.0562 -0.2007  0.7770
  960MOL0     C32347   3.823   1.765   8.209  0.1015  0.5851  0.6328
  960MOL0     C32348   3.959   1.807   8.198 -0.8001  0.3455 -0.4913
  960MOL0     C32349   4.039   1.809   8.307  0.8003 -0.6644 -0.4050
  960MOL0     O32350   4.166   1.870   8.291  0.5878  0.1476  0.3145
  960MOL0     C32351   4.238   1.919   8.413  0.9853  0.0251  0.8376
  960MOL0     C32352   4.358   2.011   8.368  0.2266  0.8202 -1.9256
  960MOL0     C32353   4.435   2.051   8.498 -0.1998 -1.1271  0.7407
  960MOL0     C32354   4.557   2.136   8.473 -1.2788  0.4112 -0.1344
  960MOL0     C32355   4.535   2.282   8.521  0.0813 -1.0221  0.0158
  960MOL0     C32356   4.556   2.298   8.668  0.4636 -0.4033  0.2998
  960MOL0     C32357   4.702   2.319   8.699 -0.7738  0.4062  0.0220
  960MOL0     C32358   4.714   2.445   8.791  0.3082 -0.1622  0.6985
  960MOL0     N32359   4.857   2.481   8.822 -0.1307  0.2582  0.1079
  960MOL0     C32360   4.897   2.605   8.848 -0.2427 -0.4874 -0.8061
  960MOL0     C32361   5.030   2.580   8.869  0.1124 -0.3299  0.6357
  960MOL0     C32362   5.129   2.686   8.897  0.1333  0.3757  0.0295
  960MOL0     C32363   5.238   2.703   8.787 -0.2928 -0.6084  1.7680
  960MOL0     C32364   5.176   2.708   8.641  0.0984 -0.4806  0.9020
  960MOL0     C32365   5.287   2.760   8.539  1.0785  0.4138 -0.1057
  960MOL0     O32366   5.392   2.660   8.537  0.1416 -0.1811  0.0615
  960MOL0     C32367   5.516   2.717   8.519 -0.5456  0.1376  0.6584
  960MOL0     C32368   5.555   2.805   8.411  0.1397  0.8363 -0.3746
  960MOL0     C32369   5.684   2.841   8.379 -0.7962  0.3425  0.3604
  960MOL0     C32370   5.713   2.925   8.261 -0.0904 -1.6206 -0.4265
  960MOL0     C32371   5.789   2.798   8.465 -0.1536  0.0026 -0.3828
  960MOL0     C32372   5.938   2.822   8.444  0.5145 -0.4481  0.1969
  960MOL0     O32373   6.014   2.747   8.525 -0.3784 -0.4380  0.2516
  960MOL0     C32374   6.149   2.765   8.512  0.2293  0.5197 -0.4987
  960MOL0     C32375   6.222   2.654   8.474  0.2428 -0.2168  0.1568
  960MOL0     C32376   6.363   2.659   8.455  0.3967  0.0058  0.6350
  960MOL0     C32377   6.433   2.772   8.474  0.3864  0.2705 -0.5509
  960MOL0     O32378   6.568   2.778   8.470  0.0320 -0.1028 -0.8671
  960MOL0     C32379   6.640   2.671   8.406  0.6475  0.2899 -0.5102
  960MOL0     C32380   6.785   2.707   8.391 -0.6290  0.0204  0.6105
  960MOL0     C32381   6.859   2.758   8.517 -0.5162 -0.1264 -0.1015
  960MOL0     C32382   7.008   2.796   8.499  0.0509 -0.0201 -0.3452
  960MOL0     C32383   7.086   2.823   8.621 -0.1976 -0.3959 -0.3208
  960MOL0     C32384   7.233   2.854   8.584  0.7330 -0.3345  0.3471
  960MOL0     C32385   7.266   3.000   8.532 -0.0350 -0.4979 -0.2112
  960MOL0     C32386   7.282   3.097   8.655  0.4037 -1.5363  0.5123
  960MOL0    Cl32387   7.408   3.229   8.626  0.3334  0.1955 -0.0556
  960MOL0     C32388   6.356   2.888   8.519  0.3784 -1.1219 -1.5966
  960MOL0     C32389   6.220   2.885   8.537  0.0676  0.0027 -0.6206
  960MOL0     O32390   5.983   2.898   8.360  0.3003  0.1915 -0.8161
  960MOL0     C32391   5.750   2.723   8.580 -0.6234 -0.2188  0.4037
  960MOL0     C32392   5.618   2.674   8.604  0.0920 -0.4920  0.4425
  960MOL0     N32393   5.062   2.446   8.854  0.1527 -0.3732 -0.0353
  960MOL0     N32394   4.950   2.382   8.838  0.8027 -0.5668 -0.2906
  960MOL0     C32395   3.996   1.771   8.437  0.4509  0.7211 -0.0756
  960MOL0     C32396   3.861   1.735   8.440  0.0563 -0.3239  0.4134
  960MOL0     C32397   3.429   1.614   8.429 -0.6455  0.2036 -0.2220
  960MOL0     C32398   3.370   1.535   8.532 -0.1654  0.2170  0.2428
  960MOL0     C32399   3.230   1.508   8.539 -0.1451 -0.5240 -0.4032
  960MOL0     C32400   3.143   1.565   8.441  0.2128  0.4923 -0.1048
  960MOL0     O32401   3.011   1.535   8.428 -0.0528  1.0238  0.4824
  960MOL0     C32402   2.934   1.460   8.521  0.2678  0.2601 -0.5035
  960MOL0     C32403   2.809   1.394   8.458 -0.0042 -0.0497  0.1017
  960MOL0     C32404   2.715   1.361   8.577 -0.8183 -0.6637  0.6265
  960MOL0     C32405   2.599   1.270   8.545 -0.0275  0.7779 -0.7925
  960MOL0     C32406   2.650   1.136   8.516 -0.9686  0.4713 -0.2634
  960MOL0     C32407   2.704   1.027   8.493 -0.5381 -0.2732  0.2926
  960MOL0     C32408   3.205   1.635   8.343 -0.0449 -0.2190 -0.5672
  960MOL0     C32409   3.346   1.663   8.329  0.5810  0.4282 -0.0728
  960MOL0     C32410   3.388   1.703   8.190 -0.3485 -0.1204  0.3718
  960MOL0     H32411   3.751   1.765   8.128 -0.9644  0.2165  1.5679
  960MOL0     H32412   3.999   1.846   8.105  3.7397 -0.8190  0.6947
  960MOL0     H32413   4.272   1.823   8.454 -0.2943  0.2142  2.4566
  960MOL0     H32414   4.172   1.966   8.487 -1.4586 -0.6824 -0.7769
  960MOL0     H32415   4.421   1.960   8.294  0.7584  2.4117 -2.5963
  960MOL0     H32416   4.320   2.104   8.326 -1.5681  0.7342 -0.6187
  960MOL0     H32417   4.369   2.107   8.564 -2.3616 -0.1861 -2.0301
  960MOL0     H32418   4.475   1.966   8.555 -0.7075 -1.5835  0.4289
  960MOL0     H32419   4.643   2.081   8.513 -2.1061 -1.7145 -1.1098
  960MOL0     H32420   4.580   2.136   8.366 -0.3525  2.4989  0.0176
  960MOL0     H32421   4.433   2.321   8.512  0.3239 -0.2632  0.5042
  960MOL0     H32422   4.595   2.356   8.468  1.1225 -1.0162  1.1458
  960MOL0     H32423   4.498   2.380   8.710 -1.0970  0.7083 -3.5811
  960MOL0     H32424   4.516   2.212   8.721 -0.4145  0.4293  1.0115
  960MOL0     H32425   4.764   2.333   8.611  0.1202 -1.3396  0.3246
  960MOL0     H32426   4.744   2.230   8.748  1.9734  1.7359  0.2950
  960MOL0     H32427   4.661   2.527   8.742  0.0624 -1.9526 -2.2690
  960MOL0     H32428   4.662   2.415   8.883  0.0373 -2.4556 -0.1441
  960MOL0     H32429   4.847   2.701   8.862 -0.7812 -0.4796 -2.5545
  960MOL0     H32430   5.175   2.666   8.995 -1.0599  0.9634  0.7241
  960MOL0     H32431   5.070   2.777   8.911 -2.2745 -0.9027 -1.1511
  960MOL0     H32432   5.299   2.791   8.808 -2.0609  0.1043  4.3464
  960MOL0     H32433   5.304   2.615   8.793  0.5785 -0.3319 -1.6176
  960MOL0     H32434   5.137   2.610   8.614 -0.1832  0.1866 -1.2651
  960MOL0     H32435   5.099   2.786   8.637  0.0048 -0.5594  1.1561
  960MOL0     H32436   5.239   2.776   8.442  2.8511  1.9096 -0.8130
  960MOL0     H32437   5.329   2.856   8.569  3.7477  0.6145 -3.6795
  960MOL0     H32438   5.475   2.841   8.346 -1.1103 -1.9409 -0.5061
  960MOL0     H32439   5.782   3.007   8.281 -0.9155 -1.4027  1.8020
  960MOL0     H32440   5.617   2.958   8.220  0.5746 -1.2055 -1.7105
  960MOL0     H32441   5.762   2.860   8.188  2.0046 -0.2966 -0.2868
  960MOL0     H32442   6.162   2.564   8.460  1.0669 -0.8123  0.3759
  960MOL0     H32443   6.414   2.565   8.432  1.1528  0.5561  0.0022
  960MOL0     H32444   6.627   2.577   8.460 -0.2143 -0.2345 -1.5898
  960MOL0     H32445   6.600   2.653   8.306  1.2172 -3.0714 -0.2425
  960MOL0     H32446   6.832   2.614   8.359 -0.1267  1.1015 -2.0915
  960MOL0     H32447   6.793   2.777   8.307  0.6334 -0.7640  0.0544
  960MOL0     H32448   6.851   2.684   8.597 -0.9998 -1.5546 -1.4312
  960MOL0     H32449   6.811   2.847   8.558 -1.6028 -0.9792  0.5140
  960MOL0     H32450   6.997   2.890   8.444 -1.7359  2.1174  3.2374
  960MOL0     H32451   7.066   2.722   8.443  2.9564  1.5107  0.4377
  960MOL0     H32452   7.040   2.908   8.672 -0.1082  1.6134 -3.2931
  960MOL0     H32453   7.093   2.739   8.689 -0.0265 -0.1651 -0.0501
  960MOL0     H32454   7.264   2.792   8.499  0.2370  0.5499 -0.4980
  960MOL0     H32455   7.295   2.822   8.669 -0.5518  1.4533  2.0293
  960MOL0     H32456   7.194   3.039   8.459  1.7930  1.7133 -0.9686
  960MOL0     H32457   7.352   2.987   8.466  0.7944 -0.6444  0.8798
  960MOL0     H32458   7.324   3.038   8.737 -1.4935 -0.3893  2.4126
  960MOL0     H32459   7.187   3.133   8.696  0.9276  0.6415 -0.0431
  960MOL0     H32460   6.405   2.985   8.522 -1.3291 -0.2444  0.0907
  960MOL0     H32461   6.171   2.973   8.577  0.4405 -0.3248  0.5969
  960MOL0     H32462   5.821   2.675   8.646 -0.3543  0.7013  0.8060
  960MOL0     H32463   5.596   2.613   8.691  0.4819 -0.4765  0.5505
  960MOL0     H32464   4.057   1.779   8.526 -0.3532  3.7467  0.3221
  960MOL0     H32465   3.828   1.712   8.541 -2.3675 -0.3505 -0.3221
  960MOL0     H32466   3.432   1.485   8.606  1.8714  1.5356 -0.5080
  960MOL0     H32467   3.189   1.456   8.625 -0.8276 -2.6826 -1.9218
  960MOL0     H32468   2.995   1.380   8.567 -2.0293 -0.4283  1.5723
  960MOL0     H32469   2.906   1.518   8.609 -1.4603 -1.5785  0.2431
  960MOL0     H32470   2.830   1.298   8.409 -0.8473 -0.0386 -0.3081
  960MOL0     H32471   2.763   1.462   8.386  0.2339  0.6867  0.6289
  960MOL0     H32472   2.778   1.319   8.656 -0.8263 -1.1432  0.3794
  960MOL0     H32473   2.680   1.460   8.610  0.7806  0.0886  0.1817
  960MOL0     H32474   2.543   1.305   8.458 -0.9305  0.6326 -0.2806
  960MOL0     H32475   2.527   1.266   8.627 -0.5537 -1.7826 -1.3129
  960MOL0     H32476   2.749   0.931   8.482 -0.1571 -0.0076 -0.5275
  960MOL0     H32477   3.144   1.683   8.266 -1.7141 -0.6286  0.4422
  960MOL0     H32478   3.405   1.811   8.185  2.0919 -0.4748  0.1518
  960MOL0     H32479   3.483   1.659   8.158  1.1050  0.8943  2.9861
  960MOL0     H32480   3.310   1.678   8.117  1.1034 -0.1533 -1.2068
  961MOL0     O32481   3.765   1.925   5.855  0.1156  0.2427  1.1725
  961MOL0     C32482   3.711   1.921   5.742 -0.3462 -0.1773  0.4047
  961MOL0     O32483   3.778   1.910   5.621 -0.2680 -0.1601  0.0083
  961MOL0     C32484   3.903   1.970   5.616 -0.3334  0.2590 -0.4691
  961MOL0     C32485   3.922   2.109   5.646 -0.2718  1.1110  1.0753
  961MOL0     C32486   4.053   2.154   5.633  0.8699 -0.0280 -0.5735
  961MOL0     C32487   4.163   2.078   5.610 -0.1713  0.5008  0.0669
  961MOL0     O32488   4.284   2.144   5.618 -0.2521  0.5695  0.4584
  961MOL0     C32489   4.375   2.091   5.725  0.1131  0.1397 -0.2008
  961MOL0     C32490   4.495   2.173   5.741  0.1919  0.3854 -0.1204
  961MOL0     C32491   4.598   2.131   5.843  0.5285  0.1443 -0.0743
  961MOL0     C32492   4.721   2.222   5.839  0.5220  0.4278  0.2679
  961MOL0     C32493   4.834   2.175   5.938 -0.4601 -0.7600  0.1462
  961MOL0     C32494   4.956   2.260   5.922  0.1834  0.8926  0.7916
  961MOL0     C32495   5.045   2.267   6.045 -0.4786 -0.2794 -0.2350
  961MOL0     C32496   5.161   2.371   6.025  0.3736 -0.1036 -0.0277
  961MOL0     N32497   5.106   2.506   6.005 -0.0497  0.7342 -0.1916
  961MOL0     C32498   5.038   2.583   6.098  0.2533 -0.7625  0.2614
  961MOL0     C32499   5.033   2.705   6.042  0.3195  0.1697  0.5901
  961MOL0     C32500   4.960   2.819   6.094  0.7853 -0.0296 -0.6776
  961MOL0     C32501   5.061   2.913   6.162 -0.7021 -0.6714  0.2621
  961MOL0     C32502   4.991   3.044   6.213  0.4299  0.1060  0.1411
  961MOL0     C32503   5.096   3.155   6.239  0.0856  0.4362  0.6347
  961MOL0     O32504   5.172   3.107   6.354  0.3437  0.1756  0.4248
  961MOL0     C32505   5.291   3.165   6.395  0.0905 -0.1782 -0.4960
  961MOL0     C32506   5.355   3.123   6.513  0.9017  1.0500 -0.3604
  961MOL0     C32507   5.478   3.177   6.560  0.1653  0.3823  0.0863
  961MOL0     C32508   5.527   3.117   6.683 -0.1809 -0.7951 -0.7040
  961MOL0     C32509   5.542   3.275   6.480 -0.6437 -1.0420 -0.3913
  961MOL0     C32510   5.678   3.339   6.502  0.2385  0.4986 -0.3460
  961MOL0     O32511   5.719   3.416   6.404  0.6394  0.0791  0.0749
  961MOL0     C32512   5.846   3.466   6.412 -0.9982  0.3511  0.4970
  961MOL0     C32513   5.896   3.547   6.514  0.9874  0.4732  0.4929
  961MOL0     C32514   6.020   3.599   6.518  0.3345 -0.7650  0.1069
  961MOL0     C32515   6.112   3.563   6.419 -0.0198  0.0864 -0.0407
  961MOL0     O32516   6.247   3.598   6.416 -0.3970 -1.2384 -0.1877
  961MOL0     C32517   6.308   3.655   6.526 -0.5860  0.2147 -0.1102
  961MOL0     C32518   6.433   3.733   6.490  0.3282 -0.0090  0.5770
  961MOL0     C32519   6.388   3.849   6.400 -0.3724  0.7013  0.4502
  961MOL0     C32520   6.514   3.932   6.365 -0.7963  0.0018 -0.4701
  961MOL0     C32521   6.504   4.058   6.286 -0.5018  0.3109  0.1532
  961MOL0     C32522   6.537   4.038   6.133  0.5558 -0.5584 -0.7393
  961MOL0     C32523   6.528   4.177   6.066 -0.5840 -0.7379 -0.2189
  961MOL0     C32524   6.643   4.267   6.081 -0.1501  0.2218 -0.0648
  961MOL0    Cl32525   6.626   4.411   5.979  0.0694 -0.0079  0.0044
  961MOL0     C32526   6.068   3.480   6.312  0.4849 -0.5048  0.4978
  961MOL0     C32527   5.934   3.435   6.311 -0.3004  0.0880 -0.0635
  961MOL0     O32528   5.732   3.315   6.610  0.6324  0.4133 -0.0463
  961MOL0     C32529   5.478   3.321   6.360 -0.4715 -0.8820 -0.5529
  961MOL0     C32530   5.346   3.271   6.328 -0.4433 -0.4425  0.3439
  961MOL0     N32531   5.086   2.696   5.916  0.3886 -0.0934 -0.0727
  961MOL0     N32532   5.128   2.578   5.899  0.5905  0.2552  1.1797
  961MOL0     C32533   4.141   1.950   5.568 -1.0742  1.1796  0.4753
  961MOL0     C32534   4.012   1.891   5.573  0.0980  0.5583  1.3773
  961MOL0     C32535   3.572   1.891   5.738  0.0004 -1.0777 -0.5197
  961MOL0     C32536   3.506   1.851   5.853 -0.1514  0.5536  0.0317
  961MOL0     C32537   3.370   1.806   5.861 -0.0807  0.8746 -0.0265
  961MOL0     C32538   3.297   1.804   5.749 -0.3872  0.1382  0.1577
  961MOL0     O32539   3.166   1.774   5.746 -0.6868  0.4658 -0.8032
  961MOL0     C32540   3.124   1.641   5.715  0.6757 -0.5034 -0.6854
  961MOL0     C32541   3.160   1.532   5.816 -0.3004 -0.1010  0.6274
  961MOL0     C32542   3.061   1.420   5.834 -0.1452  0.4813  0.2461
  961MOL0     C32543   3.026   1.348   5.701 -0.4590 -0.6702  0.0503
  961MOL0     C32544   3.129   1.304   5.605  0.1505  0.1476 -0.4357
  961MOL0     C32545   3.188   1.245   5.519 -0.1358  0.1537 -0.3100
  961MOL0     C32546   3.358   1.854   5.625  0.0211  1.0947  1.0992
  961MOL0     C32547   3.490   1.901   5.620 -0.7504  0.6071  0.2177
  961MOL0     C32548   3.530   1.960   5.482  0.1020  0.4970 -0.2355
  961MOL0     H32549   3.835   2.172   5.657 -2.3111 -1.5229  1.0846
  961MOL0     H32550   4.055   2.262   5.636 -1.3531  0.1200 -1.7778
  961MOL0     H32551   4.395   1.984   5.714  2.2922  0.7041 -2.4148
  961MOL0     H32552   4.308   2.099   5.812  1.1130  0.5721  0.5525
  961MOL0     H32553   4.549   2.160   5.647 -0.1395 -2.0955 -0.0284
  961MOL0     H32554   4.470   2.280   5.744 -2.3080 -0.0324 -2.7823
  961MOL0     H32555   4.550   2.127   5.941 -0.5794 -1.9214 -0.6429
  961MOL0     H32556   4.621   2.026   5.822 -2.5437 -0.7842  0.7468
  961MOL0     H32557   4.763   2.223   5.738  1.0665 -1.6039  0.4336
  961MOL0     H32558   4.695   2.327   5.855  0.0096  0.2356  0.7265
  961MOL0     H32559   4.858   2.071   5.913 -2.8251 -1.2520 -0.3229
  961MOL0     H32560   4.799   2.199   6.039 -0.3850  2.1097 -0.4281
  961MOL0     H32561   5.004   2.209   5.838  0.3883  0.8572  0.9280
  961MOL0     H32562   4.930   2.358   5.883 -0.1125  0.1550 -0.9718
  961MOL0     H32563   5.078   2.166   6.070 -1.1250 -0.3724  0.2853
  961MOL0     H32564   4.986   2.308   6.128  0.3508 -0.6508  0.5628
  961MOL0     H32565   5.221   2.375   6.117  1.0772 -1.6513 -0.3884
  961MOL0     H32566   5.235   2.350   5.947  0.2247 -1.7291  0.2285
  961MOL0     H32567   5.010   2.554   6.198  3.4572 -1.2252  1.1293
  961MOL0     H32568   4.880   2.782   6.158 -1.3598 -0.5304 -3.4796
  961MOL0     H32569   4.909   2.871   6.012 -2.1633 -0.3476  0.8321
  961MOL0     H32570   5.116   2.861   6.241 -0.3039 -4.1642 -2.0610
  961MOL0     H32571   5.132   2.937   6.083 -0.1432 -2.7756  0.0530
  961MOL0     H32572   4.924   3.096   6.144  1.0620  4.8047  2.6332
  961MOL0     H32573   4.934   3.012   6.301 -3.1150 -3.2341 -3.0208
  961MOL0     H32574   5.165   3.166   6.154 -1.2467  0.6835 -0.4501
  961MOL0     H32575   5.041   3.248   6.255 -0.6071  0.2009 -0.2836
  961MOL0     H32576   5.303   3.041   6.562  0.6265  0.6418 -1.3136
  961MOL0     H32577   5.548   3.193   6.759 -1.9564 -0.1660 -0.8095
  961MOL0     H32578   5.627   3.071   6.677 -0.2957 -1.9846  3.4632
  961MOL0     H32579   5.453   3.058   6.738 -0.4355 -0.6552 -0.8933
  961MOL0     H32580   5.829   3.567   6.597  2.0750  1.4081  1.1855
  961MOL0     H32581   6.052   3.660   6.601  0.1152  1.1565 -1.1389
  961MOL0     H32582   6.239   3.721   6.581 -2.1595 -1.0027 -0.5688
  961MOL0     H32583   6.339   3.568   6.584  1.4488 -0.7265 -2.4405
  961MOL0     H32584   6.483   3.769   6.581 -0.1446 -1.7385  1.5690
  961MOL0     H32585   6.497   3.663   6.436  1.0151 -1.6999  3.3853
  961MOL0     H32586   6.325   3.910   6.465  0.6838 -3.1447  5.6812
  961MOL0     H32587   6.335   3.824   6.307  2.2312  3.1641 -1.9147
  961MOL0     H32588   6.580   3.867   6.306  3.2424  4.8988 -2.1062
  961MOL0     H32589   6.560   3.963   6.459 -1.8372  0.3349 -0.0597
  961MOL0     H32590   6.403   4.098   6.298 -0.6506 -0.4191  1.5198
  961MOL0     H32591   6.561   4.135   6.338 -0.4875  0.6592 -0.3663
  961MOL0     H32592   6.468   3.962   6.094  0.9628  0.3707 -3.5313
  961MOL0     H32593   6.640   4.005   6.120  0.3459 -0.6898 -2.3590
  961MOL0     H32594   6.435   4.232   6.082  0.4807  1.4614 -1.0717
  961MOL0     H32595   6.508   4.157   5.960 -1.8034  0.2423 -0.1924
  961MOL0     H32596   6.732   4.208   6.056  0.6898  1.6094 -0.4698
  961MOL0     H32597   6.655   4.292   6.186  1.7199  3.2247 -0.8896
  961MOL0     H32598   6.136   3.447   6.234 -0.2174 -0.1698 -0.2760
  961MOL0     H32599   5.906   3.374   6.226 -1.7732  1.7437 -0.8243
  961MOL0     H32600   5.511   3.400   6.293 -1.8028 -0.6499 -0.9791
  961MOL0     H32601   5.301   3.333   6.250  0.6034 -0.2973 -0.1615
  961MOL0     H32602   4.236   1.900   5.548 -2.1900 -1.8628  2.1050
  961MOL0     H32603   3.990   1.792   5.536  2.3297  1.1280 -1.8690
  961MOL0     H32604   3.559   1.828   5.946  0.0052 -1.2900 -0.4799
  961MOL0     H32605   3.327   1.784   5.958 -0.1381 -0.5492 -0.3629
  961MOL0     H32606   3.016   1.646   5.703  0.3395 -2.6409  0.9475
  961MOL0     H32607   3.155   1.598   5.619 -2.1324 -3.6371 -0.3695
  961MOL0     H32608   3.176   1.581   5.912  0.6902  2.4892 -0.7598
  961MOL0     H32609   3.250   1.481   5.779  0.6738  2.9747 -1.6711
  961MOL0     H32610   3.087   1.342   5.906  0.2836  1.4120  1.1266
  961MOL0     H32611   2.972   1.465   5.879 -1.4954 -2.2450  0.4727
  961MOL0     H32612   2.952   1.407   5.647 -1.9395 -1.6683  0.9169
  961MOL0     H32613   2.958   1.266   5.725 -3.0812  1.3729  0.1082
  961MOL0     H32614   3.250   1.193   5.449 -1.1300  0.7124 -1.6660
  961MOL0     H32615   3.299   1.856   5.533  2.3798 -2.5560 -0.7474
  961MOL0     H32616   3.446   2.011   5.433 -1.4631 -0.8650  0.9426
  961MOL0     H32617   3.613   2.031   5.496 -1.5733  1.8099  5.6735
  961MOL0     H32618   3.557   1.873   5.422 -1.8795  0.2450 -0.8109
  962MOL0     O32619   6.813   3.529   4.015 -0.5672 -0.4056 -0.3628
  962MOL0     C32620   6.794   3.523   3.894  0.7009  0.4384 -0.8306
  962MOL0     O32621   6.886   3.568   3.803  0.0956 -0.0067  0.6386
  962MOL0     C32622   7.008   3.612   3.844  0.5939  0.9000 -0.2628
  962MOL0     C32623   7.043   3.664   3.975 -0.4498  0.6977 -0.1612
  962MOL0     C32624   7.169   3.722   3.987  0.5679  0.1186 -0.0665
  962MOL0     C32625   7.246   3.746   3.876 -0.3581 -0.2898  0.3205
  962MOL0     O32626   7.365   3.819   3.883  0.5856 -0.0046 -0.0699
  962MOL0     C32627   7.383   3.918   3.984 -0.8231  0.4570  0.0903
  962MOL0     C32628   7.427   3.863   4.127  0.3577  0.1654 -0.8082
  962MOL0     C32629   7.367   3.945   4.239  0.6072 -0.0869  0.0879
  962MOL0     C32630   7.408   3.904   4.386 -0.0108 -0.2239  0.4623
  962MOL0     C32631   7.555   3.917   4.402  0.0080 -0.0691  0.1930
  962MOL0     C32632   7.580   3.898   4.558  0.0707 -0.6571 -0.2903
  962MOL0     C32633   7.724   3.935   4.608 -0.1965 -0.2821  0.4487
  962MOL0     C32634   7.789   4.062   4.557 -0.3599  0.5919 -0.0040
  962MOL0     N32635   7.924   4.072   4.622  0.2186  0.3419  0.4918
  962MOL0     C32636   8.048   4.043   4.566 -0.0393  0.5439 -0.1516
  962MOL0     C32637   8.144   4.088   4.650  0.5994 -0.1214  0.0551
  962MOL0     C32638   8.299   4.081   4.629 -0.1673 -0.1157  0.3857
  962MOL0     C32639   8.376   3.963   4.708 -0.4143  0.2551 -0.0508
  962MOL0     C32640   8.520   3.950   4.666  0.1923  0.1267 -0.2564
  962MOL0     C32641   8.589   3.835   4.745  0.3757 -0.2474  0.6181
  962MOL0     O32642   8.587   3.847   4.886 -1.0190 -0.0123  0.5655
  962MOL0     C32643   8.672   3.952   4.925  0.1189 -0.3693 -0.9739
  962MOL0     C32644   8.678   3.966   5.063  0.7932 -0.4046  0.4187
  962MOL0     C32645   8.758   4.059   5.138 -0.4979 -0.5203 -0.4285
  962MOL0     C32646   8.725   4.075   5.288 -0.4646  0.7565  0.2193
  962MOL0     C32647   8.852   4.143   5.071 -0.3406 -0.2958  0.0857
  962MOL0     C32648   8.944   4.237   5.138  0.2456 -0.5398  0.3176
  962MOL0     O32649   9.002   4.336   5.066 -0.7098 -0.1176 -0.4149
  962MOL0     C32650   8.996   4.472   5.106 -0.4189  0.7213 -0.0101
  962MOL0     C32651   8.912   4.512   5.212  0.1128  0.7184  0.2459
  962MOL0     C32652   8.911   4.647   5.241  0.1203  0.0242  0.9144
  962MOL0     C32653   8.981   4.747   5.178  0.2450  0.5462  0.3785
  962MOL0     O32654   8.978   4.881   5.220 -0.4988  0.1249  0.6256
  962MOL0     C32655   8.897   4.923   5.327  0.0652  0.6775  0.7361
  962MOL0     C32656   8.888   5.075   5.327  0.0253 -0.7417 -0.3395
  962MOL0     C32657   9.013   5.148   5.384 -0.8119  0.1198  0.2922
  962MOL0     C32658   9.028   5.294   5.332  0.2020 -0.8383  0.2277
  962MOL0     C32659   9.141   5.369   5.401 -0.5752  0.1108 -0.8640
  962MOL0     C32660   9.125   5.389   5.554 -0.9302 -0.4692  0.5063
  962MOL0     C32661   8.996   5.441   5.597 -0.4703  0.3976  0.1884
  962MOL0     C32662   8.995   5.520   5.728 -0.3060 -0.6379 -0.4824
  962MOL0    Cl32663   9.048   5.425   5.873 -0.3686 -0.1305 -0.8129
  962MOL0     C32664   9.064   4.698   5.076  0.0553  0.6982 -0.0670
  962MOL0     C32665   9.062   4.569   5.030 -0.2074 -0.6521  0.3925
  962MOL0     O32666   8.967   4.227   5.256  0.5769  0.8145 -0.3567
  962MOL0     C32667   8.861   4.121   4.932  0.7113  0.6178 -0.4783
  962MOL0     C32668   8.770   4.033   4.864 -0.4764 -0.5428  0.0929
  962MOL0     N32669   8.081   4.154   4.753  0.7142  0.2883  0.9359
  962MOL0     N32670   7.946   4.139   4.740  0.3072  0.0225 -0.1024
  962MOL0     C32671   7.214   3.696   3.749 -0.1198  0.3735  0.1721
  962MOL0     C32672   7.095   3.629   3.736 -0.5807 -0.0532 -0.2577
  962MOL0     C32673   6.664   3.475   3.838  0.1111  0.6049 -0.5649
  962MOL0     C32674   6.649   3.473   3.693  0.4505  0.8792  0.1561
  962MOL0     C32675   6.533   3.431   3.622 -0.0180 -0.3515  0.0461
  962MOL0     C32676   6.434   3.371   3.697  1.1040 -0.9070  0.0542
  962MOL0     O32677   6.317   3.328   3.640 -0.4640 -0.1942 -0.3073
  962MOL0     C32678   6.301   3.310   3.501 -0.5821  1.0951  0.4089
  962MOL0     C32679   6.148   3.289   3.466 -0.3744 -0.3854 -0.2249
  962MOL0     C32680   6.126   3.188   3.354 -0.5008  0.0445 -0.5264
  962MOL0     C32681   5.969   3.179   3.340 -0.3655  0.1246  0.5333
  962MOL0     C32682   5.927   3.072   3.246  0.0561 -0.0678  0.0234
  962MOL0     C32683   5.900   2.985   3.164  0.1399  0.7405 -0.1603
  962MOL0     C32684   6.443   3.371   3.837  0.1450  0.0107  0.7586
  962MOL0     C32685   6.553   3.418   3.910  1.0880  0.4142 -0.4155
  962MOL0     C32686   6.548   3.407   4.064 -0.4112 -0.9859  0.1816
  962MOL0     H32687   6.990   3.675   4.069 -2.7093 -3.1371 -0.7867
  962MOL0     H32688   7.197   3.750   4.088  0.5714 -1.7295  0.4857
  962MOL0     H32689   7.289   3.970   4.004 -1.4876 -0.5189 -0.4341
  962MOL0     H32690   7.450   3.998   3.951  2.1940 -2.3011 -1.0480
  962MOL0     H32691   7.400   3.759   4.145 -1.3767  0.6735 -0.2770
  962MOL0     H32692   7.537   3.858   4.127  0.4882  1.7880 -2.4948
  962MOL0     H32693   7.387   4.052   4.226  2.3852 -0.4131 -0.0025
  962MOL0     H32694   7.258   3.936   4.239  0.2008  3.3058  1.4124
  962MOL0     H32695   7.357   3.978   4.448 -1.7142 -1.5634  0.7439
  962MOL0     H32696   7.366   3.805   4.408 -1.0424 -0.2949 -1.5647
  962MOL0     H32697   7.595   4.016   4.375  1.0236 -0.8092 -1.0924
  962MOL0     H32698   7.609   3.840   4.347  0.0655  1.6060 -2.2759
  962MOL0     H32699   7.510   3.963   4.611  3.1817  2.8254 -0.0013
  962MOL0     H32700   7.555   3.795   4.587 -1.4950 -0.4792 -0.8976
  962MOL0     H32701   7.773   3.845   4.568 -0.0100  0.0285 -0.0281
  962MOL0     H32702   7.710   3.926   4.716 -2.8602 -2.1543  0.0598
  962MOL0     H32703   7.808   4.069   4.450  1.2535 -3.2616 -0.1506
  962MOL0     H32704   7.741   4.156   4.587  2.2677  1.6195  1.3858
  962MOL0     H32705   8.072   3.995   4.471  0.4827 -1.1245  0.7885
  962MOL0     H32706   8.339   4.176   4.664 -1.5298  1.4371 -1.9461
  962MOL0     H32707   8.319   4.065   4.522  0.0900 -1.6096  0.6370
  962MOL0     H32708   8.363   3.967   4.817 -1.4613 -1.4016 -0.0806
  962MOL0     H32709   8.336   3.867   4.676  0.9398 -0.9556  1.6930
  962MOL0     H32710   8.517   3.934   4.558  1.0533 -2.9651  0.0621
  962MOL0     H32711   8.575   4.042   4.686  2.0412 -0.9565  0.0105
  962MOL0     H32712   8.530   3.747   4.719 -0.8491  0.9383 -0.8359
  962MOL0     H32713   8.691   3.821   4.707  0.4031  2.6203 -0.6161
  962MOL0     H32714   8.616   3.896   5.118  0.1006 -0.5138 -0.4710
  962MOL0     H32715   8.807   4.053   5.358  0.4776 -1.0447 -1.3656
  962MOL0     H32716   8.639   4.015   5.317 -0.0564  1.1802  2.4813
  962MOL0     H32717   8.693   4.178   5.305 -1.2096  0.2011  2.6757
  962MOL0     H32718   8.865   4.437   5.275 -0.4566  0.4809 -0.4503
  962MOL0     H32719   8.844   4.658   5.326  0.3569 -0.7795  1.2075
  962MOL0     H32720   8.798   4.880   5.311 -0.0183  1.5383 -1.3875
  962MOL0     H32721   8.934   4.888   5.424  0.3243  1.3880  0.9008
  962MOL0     H32722   8.865   5.104   5.224  1.0238 -1.6834 -0.8538
  962MOL0     H32723   8.800   5.111   5.380 -0.2677 -0.3444 -1.0872
  962MOL0     H32724   9.101   5.088   5.361 -1.1278 -0.3964  0.4287
  962MOL0     H32725   8.999   5.155   5.492  0.0868  2.8421  0.3293
  962MOL0     H32726   8.934   5.350   5.323  1.7370  1.6142 -1.4941
  962MOL0     H32727   9.053   5.289   5.226 -3.2461 -0.8390 -0.7244
  962MOL0     H32728   9.235   5.314   5.390 -0.4888  0.0131  0.2191
  962MOL0     H32729   9.156   5.469   5.359 -1.1027  0.4056 -0.3672
  962MOL0     H32730   9.209   5.452   5.583 -0.2151 -1.1649 -0.0100
  962MOL0     H32731   9.148   5.297   5.609 -2.7037 -1.9453 -1.0582
  962MOL0     H32732   8.914   5.368   5.598 -1.2616  1.1073 -2.8999
  962MOL0     H32733   8.957   5.506   5.518  0.9065  0.5584 -0.3723
  962MOL0     H32734   8.896   5.564   5.749 -1.4732 -2.4647 -1.8720
  962MOL0     H32735   9.065   5.603   5.713  2.1456 -2.4320  0.4222
  962MOL0     H32736   9.138   4.771   5.045  0.9256  1.1190  2.7672
  962MOL0     H32737   9.125   4.540   4.947 -0.3925  1.6587 -0.6212
  962MOL0     H32738   8.937   4.177   4.879 -1.1498  1.3204 -2.5868
  962MOL0     H32739   8.777   4.023   4.756  3.1538 -0.4453  0.2048
  962MOL0     H32740   7.278   3.718   3.664  1.0120  1.6476  1.2986
  962MOL0     H32741   7.052   3.581   3.649 -3.5187  0.8862  0.5457
  962MOL0     H32742   6.734   3.496   3.629 -0.2989 -1.0118 -1.6377
  962MOL0     H32743   6.519   3.423   3.514 -2.8591  0.7494  0.2599
  962MOL0     H32744   6.343   3.387   3.435 -2.0116  0.8086 -0.9130
  962MOL0     H32745   6.351   3.216   3.476 -0.3071  2.2224 -4.3088
  962MOL0     H32746   6.117   3.389   3.433 -2.2335 -1.2212 -1.1582
  962MOL0     H32747   6.093   3.272   3.559  1.8015  0.8403  1.4015
  962MOL0     H32748   6.188   3.209   3.266  1.7145 -2.3466  0.3109
  962MOL0     H32749   6.170   3.092   3.383 -1.6137  0.4692  2.9524
  962MOL0     H32750   5.938   3.272   3.292  2.7426 -0.6732 -3.5861
  962MOL0     H32751   5.923   3.180   3.439  2.1852 -0.4921  1.7959
  962MOL0     H32752   5.885   2.910   3.089  0.8927  0.4948 -0.0660
  962MOL0     H32753   6.360   3.340   3.899  0.3025  1.8320  1.9674
  962MOL0     H32754   6.541   3.501   4.120  0.7087 -0.7219 -0.0833
  962MOL0     H32755   6.460   3.350   4.094  1.2940 -3.1280  1.3833
  962MOL0     H32756   6.639   3.347   4.079  0.7452 -0.5427 -3.8383
  963MOL0     O32757   9.013   4.912   4.349  0.5695  0.2961 -1.2702
  963MOL0     C32758   8.894   4.907   4.338 -0.0401  0.2893 -0.3133
  963MOL0     O32759   8.828   4.899   4.214  0.2842  0.6560 -0.6929
  963MOL0     C32760   8.891   4.888   4.098  1.4448  0.2952 -0.0060
  963MOL0     C32761   9.021   4.925   4.062  0.4839 -0.0984 -0.0771
  963MOL0     C32762   9.067   4.888   3.935  0.6028 -0.3581  0.8576
  963MOL0     C32763   8.992   4.814   3.849  0.4132  0.3700  0.7706
  963MOL0     O32764   9.048   4.785   3.727 -0.5432 -0.1794  0.5255
  963MOL0     C32765   9.191   4.767   3.714 -0.3501  0.1953 -1.2512
  963MOL0     C32766   9.209   4.638   3.621 -0.5175  0.4799 -0.9426
  963MOL0     C32767   9.274   4.517   3.679  0.7431 -0.7299  0.5722
  963MOL0     C32768   9.423   4.532   3.661 -0.3058  0.3136  0.7427
  963MOL0     C32769   9.497   4.418   3.713 -0.1000 -0.1676  0.1414
  963MOL0     C32770   9.641   4.446   3.770  0.9547 -0.6669 -1.3385
  963MOL0     C32771   9.637   4.531   3.900 -0.4634 -0.0068  0.2862
  963MOL0     C32772   9.778   4.534   3.951 -0.4841 -0.3078 -0.0812
  963MOL0     N32773   9.784   4.554   4.094 -0.1760 -0.5004 -0.1891
  963MOL0     C32774   9.778   4.448   4.176 -0.1603 -0.1999 -0.4214
  963MOL0     C32775   9.780   4.511   4.296  0.8553 -0.2304  0.2776
  963MOL0     C32776   9.781   4.437   4.430  0.1265  0.2641 -0.3825
  963MOL0     C32777   9.924   4.414   4.482 -0.1989  0.7359 -0.7430
  963MOL0     C32778  10.000   4.286   4.438  0.7060 -0.2776 -0.0208
  963MOL0     C32779  10.137   4.279   4.500  0.4167 -0.4581 -0.6076
  963MOL0     O32780  10.224   4.390   4.463 -0.1495  0.1826  0.1523
  963MOL0     C32781  10.328   4.420   4.544  0.0362 -0.5070  0.3103
  963MOL0     C32782  10.385   4.545   4.536  0.0588 -0.6335 -0.2097
  963MOL0     C32783  10.478   4.597   4.630  0.5883 -0.3121  0.6581
  963MOL0     C32784  10.540   4.728   4.597  0.5026  0.1164 -0.1780
  963MOL0     C32785  10.535   4.500   4.728  0.9514 -0.2844  0.6614
  963MOL0     C32786  10.652   4.523   4.818 -0.3501  0.8305 -0.8303
  963MOL0     O32787  10.709   4.416   4.878 -0.8115 -0.0952 -0.0382
  963MOL0     C32788  10.849   4.423   4.900  0.6031  0.5089 -0.0495
  963MOL0     C32789  10.944   4.472   4.806  0.1120 -0.0682 -0.3047
  963MOL0     C32790  11.079   4.473   4.848 -0.2198  1.1493  0.4493
  963MOL0     C32791  11.121   4.434   4.977  0.3954  0.5742 -0.4518
  963MOL0     O32792  11.246   4.442   5.034 -0.0317 -0.8809  1.0157
  963MOL0     C32793  11.361   4.453   4.938 -0.1979 -1.1326  0.0826
  963MOL0     C32794  11.490   4.377   4.988  0.6196 -0.0613  0.4512
  963MOL0     C32795  11.540   4.410   5.128 -0.0078  0.5199  0.2630
  963MOL0     C32796  11.650   4.521   5.121  0.6200 -0.4018 -0.2597
  963MOL0     C32797  11.746   4.532   5.234 -0.5593 -0.3783  0.3534
  963MOL0     C32798  11.665   4.580   5.362 -0.0086  0.0693  0.2686
  963MOL0     C32799  11.753   4.605   5.490  0.7919  0.0621 -0.2607
  963MOL0     C32800  11.660   4.617   5.609  1.0532 -0.6454 -0.0730
  963MOL0    Cl32801  11.748   4.624   5.762  0.1200  0.1420  0.2937
  963MOL0     C32802  11.018   4.398   5.073  0.1097  0.3779 -0.1437
  963MOL0     C32803  10.882   4.400   5.034 -0.3212  0.1716 -0.3912
  963MOL0     O32804  10.687   4.636   4.837 -0.8188  0.3446  0.0597
  963MOL0     C32805  10.476   4.378   4.731 -0.0708  0.0170 -0.1243
  963MOL0     C32806  10.367   4.341   4.652  0.5062  0.2294  0.5309
  963MOL0     N32807   9.784   4.653   4.281 -0.9929 -1.0136 -0.3886
  963MOL0     N32808   9.796   4.676   4.161  1.2198  0.1459  0.8733
  963MOL0     C32809   8.863   4.781   3.883  0.6393  0.6014 -0.5345
  963MOL0     C32810   8.810   4.822   4.006 -0.1572 -0.1702  0.5750
  963MOL0     C32811   8.815   4.927   4.455  0.1304 -0.3957 -0.1828
  963MOL0     C32812   8.864   4.896   4.584  0.6714 -0.2276  0.4544
  963MOL0     C32813   8.787   4.907   4.697 -1.0263 -0.5020  0.5384
  963MOL0     C32814   8.663   4.949   4.702  0.5356 -0.0824  0.4067
  963MOL0     O32815   8.594   4.950   4.822 -0.3759 -0.3448  0.4547
  963MOL0     C32816   8.620   5.071   4.901 -0.8019 -0.6667 -1.0359
  963MOL0     C32817   8.564   5.196   4.841 -0.0794  0.1729  0.3686
  963MOL0     C32818   8.420   5.188   4.792 -0.3095  0.2229 -1.2020
  963MOL0     C32819   8.330   5.137   4.903  0.4142  0.0369  0.3076
  963MOL0     C32820   8.303   5.231   5.017 -0.7559 -1.0952 -0.3914
  963MOL0     C32821   8.262   5.294   5.113  0.2048  0.0344 -0.8514
  963MOL0     C32822   8.600   4.971   4.578 -0.5993  0.4987  0.5833
  963MOL0     C32823   8.677   4.964   4.457 -0.5259 -0.4996 -0.0947
  963MOL0     C32824   8.615   5.018   4.334  0.2763  0.2398 -0.1731
  963MOL0     H32825   9.077   4.983   4.133 -0.4392  1.9157 -0.9299
  963MOL0     H32826   9.166   4.928   3.917  1.1062 -1.6851  0.5787
  963MOL0     H32827   9.245   4.753   3.808  0.9300  1.9540 -1.6510
  963MOL0     H32828   9.238   4.857   3.672 -0.6843  0.0281 -2.0046
  963MOL0     H32829   9.109   4.600   3.600 -0.7757  1.5131 -1.6996
  963MOL0     H32830   9.252   4.687   3.533 -2.8027  1.1872 -1.7531
  963MOL0     H32831   9.252   4.507   3.786 -0.5250 -0.6078  0.3348
  963MOL0     H32832   9.240   4.426   3.628 -0.4370 -0.1891  0.3564
  963MOL0     H32833   9.458   4.551   3.559  0.7259 -0.0530  1.0171
  963MOL0     H32834   9.460   4.622   3.710 -1.3759  1.3185 -0.2169
  963MOL0     H32835   9.521   4.365   3.620  0.0884  3.4578 -2.0768
  963MOL0     H32836   9.452   4.365   3.797  4.3181 -0.7001  2.4759
  963MOL0     H32837   9.696   4.352   3.785  0.1276 -1.3332 -2.3341
  963MOL0     H32838   9.686   4.499   3.686  2.2182  1.6898  0.6953
  963MOL0     H32839   9.568   4.484   3.971  0.9835 -4.2647 -0.8621
  963MOL0     H32840   9.600   4.631   3.874 -3.5812 -1.2720 -0.6818
  963MOL0     H32841   9.834   4.441   3.935  0.3371 -0.3297  2.3965
  963MOL0     H32842   9.838   4.616   3.911  0.7614 -1.0007  0.2941
  963MOL0     H32843   9.758   4.343   4.157 -1.0294  0.1826 -1.7826
  963MOL0     H32844   9.733   4.339   4.428  0.4713  0.0073  1.9953
  963MOL0     H32845   9.718   4.495   4.497  0.3596  0.0835 -0.0036
  963MOL0     H32846   9.978   4.505   4.457 -0.4225  1.0945  0.0322
  963MOL0     H32847   9.918   4.420   4.591 -0.7454  2.9232 -0.8464
  963MOL0     H32848   9.926   4.207   4.458  1.6092 -1.0278  0.3999
  963MOL0     H32849  10.008   4.284   4.329 -0.1241 -0.7923 -0.0851
  963MOL0     H32850  10.116   4.285   4.607 -1.7639  3.4808 -1.0638
  963MOL0     H32851  10.199   4.193   4.472 -0.2148 -0.3953 -2.3098
  963MOL0     H32852  10.336   4.605   4.460 -0.2144  1.9236  1.8265
  963MOL0     H32853  10.489   4.796   4.529  1.2793 -0.1902 -1.0765
  963MOL0     H32854  10.639   4.709   4.555  1.2287 -0.5424  1.6955
  963MOL0     H32855  10.558   4.789   4.687 -0.5094 -0.0978  0.1858
  963MOL0     H32856  10.916   4.521   4.713 -0.4542 -1.2991 -0.8140
  963MOL0     H32857  11.142   4.509   4.768 -0.5574 -0.4808 -0.5917
  963MOL0     H32858  11.327   4.404   4.846 -3.0540  0.0676  0.4120
  963MOL0     H32859  11.379   4.560   4.923  0.7493 -1.3764 -0.6050
  963MOL0     H32860  11.466   4.272   4.970  0.9307  0.2182 -1.9644
  963MOL0     H32861  11.566   4.391   4.910 -1.6093  0.2361 -1.7750
  963MOL0     H32862  11.593   4.321   5.161  0.7823  1.7052  2.4286
  963MOL0     H32863  11.459   4.431   5.199 -0.1368 -1.1858  0.6471
  963MOL0     H32864  11.593   4.615   5.118 -1.3127 -1.3064  3.0590
  963MOL0     H32865  11.703   4.527   5.025 -1.5188  1.6176 -1.4257
  963MOL0     H32866  11.807   4.445   5.257 -0.8795 -0.5067  0.7096
  963MOL0     H32867  11.808   4.619   5.208 -0.9917 -0.5939 -1.6182
  963MOL0     H32868  11.594   4.503   5.392  0.1175 -0.1279  0.0714
  963MOL0     H32869  11.597   4.662   5.340 -2.6820 -2.4605 -1.6928
  963MOL0     H32870  11.818   4.693   5.487  0.7353  0.1123 -0.0510
  963MOL0     H32871  11.822   4.520   5.499  1.6028  0.0115 -4.7863
  963MOL0     H32872  11.598   4.528   5.623  1.1454 -0.5119  1.2797
  963MOL0     H32873  11.591   4.701   5.606 -1.9524 -2.8498  1.8499
  963MOL0     H32874  11.052   4.372   5.173  2.2389 -2.2208 -1.4231
  963MOL0     H32875  10.810   4.375   5.111  0.0118 -2.8738 -0.9473
  963MOL0     H32876  10.509   4.307   4.806  2.4239 -1.6280 -2.5931
  963MOL0     H32877  10.321   4.248   4.683  0.0702 -1.0986 -3.4991
  963MOL0     H32878   8.809   4.725   3.807  2.3523 -1.2104 -0.4787
  963MOL0     H32879   8.704   4.814   4.029 -0.6915  3.0938 -0.2985
  963MOL0     H32880   8.969   4.874   4.603  0.5946  0.0708  1.2950
  963MOL0     H32881   8.825   4.882   4.796 -0.5933  2.3695  1.1947
  963MOL0     H32882   8.565   5.064   4.995 -1.2371 -1.2045 -1.3256
  963MOL0     H32883   8.728   5.075   4.918 -0.9430  0.2702 -0.3268
  963MOL0     H32884   8.631   5.237   4.765 -0.1140  1.6951  1.1122
  963MOL0     H32885   8.575   5.276   4.915  1.9862 -0.3060  0.6433
  963MOL0     H32886   8.377   5.286   4.769 -1.9184 -0.5463 -1.6083
  963MOL0     H32887   8.401   5.137   4.697 -1.0511  2.5241 -2.3621
  963MOL0     H32888   8.364   5.041   4.942 -1.0571 -0.1527  1.2554
  963MOL0     H32889   8.232   5.122   4.856  0.9343  0.7005 -1.0145
  963MOL0     H32890   8.236   5.334   5.209  1.8028 -0.9876  0.0543
  963MOL0     H32891   8.496   4.995   4.560 -0.7478  0.5939  1.5026
  963MOL0     H32892   8.679   5.091   4.285 -0.6399  0.4008 -1.1671
  963MOL0     H32893   8.571   4.945   4.265 -0.2379  1.9706 -1.7292
  963MOL0     H32894   8.525   5.075   4.357  0.6519  1.1266 -0.8726
  964MOL0     O32895  11.383   1.494   8.182 -0.1003 -0.9572  0.3833
  964MOL0     C32896  11.365   1.585   8.268  0.5640  0.2003 -0.2265
  964MOL0     O32897  11.466   1.639   8.345  0.3738  0.7020  0.6896
  964MOL0     C32898  11.586   1.578   8.362 -0.1558  0.1057 -0.5037
  964MOL0     C32899  11.594   1.478   8.464 -0.1180 -0.6082 -0.1951
  964MOL0     C32900  11.723   1.417   8.497  0.2884  0.2121  0.5880
  964MOL0     C32901  11.836   1.448   8.422  0.5005  0.4488  0.2157
  964MOL0     O32902  11.954   1.378   8.434 -0.4163 -0.4970 -0.2359
  964MOL0     C32903  12.031   1.401   8.558 -0.8468  0.8581  0.7279
  964MOL0     C32904  12.164   1.317   8.555  0.7983  0.2482 -0.1279
  964MOL0     C32905  12.263   1.367   8.448 -0.9832 -0.2648 -0.8140
  964MOL0     C32906  12.379   1.270   8.451 -0.6588  0.5841  1.0006
  964MOL0     C32907  12.499   1.300   8.363  0.1968  0.4122  0.7558
  964MOL0     C32908  12.610   1.369   8.442  0.4440  0.0122 -0.4448
  964MOL0     C32909  12.720   1.427   8.354 -0.2701  0.2303  0.3801
  964MOL0     C32910  12.780   1.334   8.245  0.2857 -0.3367  0.3346
  964MOL0     N32911  12.887   1.244   8.282  0.1180 -0.6219  0.0499
  964MOL0     C32912  12.869   1.133   8.359 -0.3525 -0.7891  0.2829
  964MOL0     C32913  12.988   1.076   8.341 -0.6765  0.3956  0.1711
  964MOL0     C32914  13.038   0.941   8.396  0.2674  0.0113 -0.1575
  964MOL0     C32915  13.014   0.926   8.547  0.0606  0.4052 -0.0816
  964MOL0     C32916  13.097   1.021   8.633 -0.2893  0.2836  0.7294
  964MOL0     C32917  13.099   0.983   8.786  0.0763  0.9643 -0.5111
  964MOL0     O32918  13.207   0.886   8.808 -0.5436  0.2504 -0.0719
  964MOL0     C32919  13.316   0.917   8.885  0.0148  1.0112  0.0877
  964MOL0     C32920  13.427   0.831   8.882  0.0329 -0.4964 -0.3685
  964MOL0     C32921  13.534   0.840   8.966  0.1437 -0.0278 -0.7755
  964MOL0     C32922  13.646   0.733   8.941 -0.9958 -0.0322 -0.2751
  964MOL0     C32923  13.543   0.953   9.058 -0.3305  0.2051  0.8701
  964MOL0     C32924  13.659   0.990   9.144 -0.1553  0.0658  1.2033
  964MOL0     O32925  13.656   1.108   9.215  0.0249 -0.5640  0.4528
  964MOL0     C32926  13.776   1.140   9.272  0.7869  0.0095  0.5952
  964MOL0     C32927  13.867   1.239   9.218  0.3831 -0.0301  0.5500
  964MOL0     C32928  13.981   1.279   9.287 -0.0209  0.1957  0.1665
  964MOL0     C32929  14.008   1.220   9.413  0.5899  0.4605  0.4101
  964MOL0     O32930  14.120   1.256   9.474 -1.2786  0.8149 -0.0747
  964MOL0     C32931  14.138   1.241   9.619 -0.3125  0.3827  0.4444
  964MOL0     C32932  14.249   1.334   9.665  0.1824  0.0900 -1.1049
  964MOL0     C32933  14.399   1.316   9.619 -0.6586  0.5143  0.6302
  964MOL0     C32934  14.457   1.175   9.628  0.1741 -0.0303  0.9423
  964MOL0     C32935  14.464   1.135   9.777  0.4807  0.4826  0.5422
  964MOL0     C32936  14.601   1.063   9.802  0.3781 -0.6153  0.9583
  964MOL0     C32937  14.601   1.028   9.953 -0.2491  0.3988  1.5616
  964MOL0     C32938  14.744   0.982   9.978 -0.2910 -0.6824  0.3582
  964MOL0    Cl32939  14.850   1.124   9.997 -0.1549  0.2583  0.0160
  964MOL0     C32940  13.920   1.127   9.473  0.3945  0.5847  0.5010
  964MOL0     C32941  13.806   1.090   9.398  0.1828 -0.0554 -0.6288
  964MOL0     O32942  13.757   0.912   9.148  0.6263 -1.2512  0.6417
  964MOL0     C32943  13.439   1.052   9.053  0.5972  0.7012 -0.2797
  964MOL0     C32944  13.325   1.030   8.972 -0.4234  0.0417 -0.1653
  964MOL0     N32945  13.081   1.153   8.272  0.8750 -0.6561 -0.3105
  964MOL0     N32946  13.017   1.256   8.237 -0.0346  0.9095  0.0032
  964MOL0     C32947  11.822   1.541   8.318 -0.0978 -0.0518 -1.2646
  964MOL0     C32948  11.701   1.613   8.295 -0.2455 -0.2928  0.6963
  964MOL0     C32949  11.232   1.645   8.273  0.0102 -0.4864  0.2727
  964MOL0     C32950  11.125   1.565   8.229 -0.1656 -0.2732  0.0817
  964MOL0     C32951  10.999   1.598   8.250  0.6501 -0.4615 -1.2827
  964MOL0     C32952  10.966   1.718   8.316  0.4246  0.6486 -0.2297
  964MOL0     O32953  10.837   1.749   8.359 -0.3950 -0.8669 -0.3069
  964MOL0     C32954  10.742   1.631   8.359 -0.2936 -0.2509  0.2341
  964MOL0     C32955  10.654   1.646   8.481  0.5869  0.2562  0.3420
  964MOL0     C32956  10.743   1.615   8.607 -0.2442 -0.0916 -0.6723
  964MOL0     C32957  10.657   1.626   8.734  0.7919 -0.0096  0.2583
  964MOL0     C32958  10.533   1.542   8.736 -0.9038 -1.0794  1.0365
  964MOL0     C32959  10.431   1.479   8.716  0.4557  0.1443 -0.1920
  964MOL0     C32960  11.073   1.804   8.355 -0.1905  0.1030 -0.1921
  964MOL0     C32961  11.205   1.773   8.328 -0.9121 -0.2193 -1.2093
  964MOL0     C32962  11.312   1.876   8.369 -0.5459 -0.7834  0.8310
  964MOL0     H32963  11.508   1.444   8.521 -0.4570  0.3112 -0.1415
  964MOL0     H32964  11.753   1.335   8.562  1.0209 -0.1676 -0.2046
  964MOL0     H32965  11.971   1.371   8.644 -0.1864 -0.8479  0.6256
  964MOL0     H32966  12.061   1.504   8.582 -0.3396  1.3463 -1.7580
  964MOL0     H32967  12.209   1.332   8.654  0.4213 -2.9411  0.6183
  964MOL0     H32968  12.137   1.212   8.542 -2.1673  0.8530  0.4904
  964MOL0     H32969  12.220   1.376   8.347  0.1826 -3.9002 -1.7716
  964MOL0     H32970  12.293   1.467   8.482 -1.2341 -0.1436 -0.9405
  964MOL0     H32971  12.399   1.247   8.556 -3.5097  1.7271  1.8806
  964MOL0     H32972  12.334   1.181   8.406  1.7565 -0.4495  0.4413
  964MOL0     H32973  12.477   1.358   8.272  1.0027 -1.1554 -0.5009
  964MOL0     H32974  12.526   1.200   8.329 -0.9644 -0.6364  2.7529
  964MOL0     H32975  12.579   1.451   8.507  4.2564 -0.6854  2.6640
  964MOL0     H32976  12.641   1.294   8.515 -4.2132 -2.7832 -0.9481
  964MOL0     H32977  12.802   1.483   8.400  0.6957 -1.9001  1.3480
  964MOL0     H32978  12.673   1.510   8.301  0.3328  1.1279  1.2052
  964MOL0     H32979  12.700   1.289   8.185 -1.9422  1.6704  1.6355
  964MOL0     H32980  12.825   1.387   8.160 -2.5588 -1.7025 -2.2332
  964MOL0     H32981  12.788   1.097   8.421  0.5346 -0.3506  1.7382
  964MOL0     H32982  13.142   0.927   8.364 -0.1892 -2.6494 -0.6864
  964MOL0     H32983  12.992   0.854   8.348 -0.0262  0.6988 -1.1441
  964MOL0     H32984  12.912   0.937   8.584 -0.2461 -0.2183 -0.7207
  964MOL0     H32985  13.043   0.822   8.561  3.0316  0.3192 -4.6278
  964MOL0     H32986  13.202   1.017   8.605 -0.0529  2.3794  1.1626
  964MOL0     H32987  13.064   1.124   8.614  1.7065  1.5394  3.3858
  964MOL0     H32988  13.104   1.069   8.854  0.4467 -1.1318  2.2379
  964MOL0     H32989  13.002   0.942   8.814  1.1497  0.1436  2.3216
  964MOL0     H32990  13.431   0.743   8.818  2.1282 -0.2578 -0.6292
  964MOL0     H32991  13.750   0.762   8.959 -0.2819 -2.6089  0.1558
  964MOL0     H32992  13.643   0.697   8.838  0.7903 -0.2398 -0.2818
  964MOL0     H32993  13.620   0.644   8.999 -2.2063 -0.8548 -1.9858
  964MOL0     H32994  13.853   1.284   9.120  0.3683 -0.2234  0.4639
  964MOL0     H32995  14.053   1.351   9.249 -4.2427  4.7367 -0.1911
  964MOL0     H32996  14.042   1.260   9.669 -0.8522 -0.2585 -0.3222
  964MOL0     H32997  14.160   1.138   9.648 -1.2786  0.3338  1.0696
  964MOL0     H32998  14.210   1.432   9.637  0.3904  0.9552  1.3942
  964MOL0     H32999  14.249   1.338   9.774 -0.6283 -5.1389 -0.6286
  964MOL0     H33000  14.474   1.379   9.668  1.1589  0.7720 -2.2995
  964MOL0     H33001  14.402   1.355   9.517  1.1648  1.0840  0.8708
  964MOL0     H33002  14.550   1.167   9.570 -0.8779  3.5786 -1.5561
  964MOL0     H33003  14.382   1.118   9.572 -0.7971  3.3117 -1.4949
  964MOL0     H33004  14.461   1.219   9.846  0.9228 -1.8341  3.6038
  964MOL0     H33005  14.380   1.067   9.796 -0.3448  0.6205 -2.2003
  964MOL0     H33006  14.684   1.125   9.769  1.4467 -1.6072  1.7203
  964MOL0     H33007  14.597   0.972   9.742 -0.5717 -0.4104  0.6902
  964MOL0     H33008  14.527   0.955   9.986  1.9404 -2.9247 -0.2997
  964MOL0     H33009  14.582   1.114  10.017  2.7420  2.0530  0.4204
  964MOL0     H33010  14.769   0.923   9.889 -1.6501  0.9973 -1.2331
  964MOL0     H33011  14.743   0.922  10.069  2.8781 -0.2728  0.7733
  964MOL0     H33012  13.937   1.062   9.559 -2.9521 -2.4456 -0.8765
  964MOL0     H33013  13.742   1.012   9.436 -0.0023  1.0771  1.5931
  964MOL0     H33014  13.445   1.145   9.109 -1.6425  1.6168 -1.4518
  964MOL0     H33015  13.257   1.115   8.975 -1.3723 -0.7150  0.6114
  964MOL0     H33016  11.906   1.548   8.249 -0.0585  1.0881 -1.1255
  964MOL0     H33017  11.698   1.672   8.204  1.3545 -1.6540 -0.3140
  964MOL0     H33018  11.146   1.467   8.187 -3.2353 -2.1247  2.4153
  964MOL0     H33019  10.925   1.524   8.220  0.0776 -0.4448  0.0157
  964MOL0     H33020  10.693   1.636   8.261  2.2669  0.8946 -1.1019
  964MOL0     H33021  10.791   1.533   8.364  0.2656 -0.0303 -0.6619
  964MOL0     H33022  10.578   1.567   8.473 -0.9340  1.7559 -0.7884
  964MOL0     H33023  10.616   1.749   8.487  1.8857  1.1432 -3.8149
  964MOL0     H33024  10.785   1.515   8.600 -0.7452 -0.3324 -0.2578
  964MOL0     H33025  10.833   1.678   8.609 -1.0860  1.1272  0.7033
  964MOL0     H33026  10.628   1.730   8.747 -2.4853 -0.4802 -2.0684
  964MOL0     H33027  10.722   1.586   8.813 -1.1272 -2.4916  0.7373
  964MOL0     H33028  10.341   1.422   8.706  0.1971  0.4701  0.2522
  964MOL0     H33029  11.053   1.895   8.409 -2.7776 -2.0457  2.8288
  964MOL0     H33030  11.272   1.978   8.366  3.2979  0.9085  0.7973
  964MOL0     H33031  11.349   1.857   8.470  1.1704  1.1193  0.6439
  964MOL0     H33032  11.404   1.876   8.309 -1.5548  0.5283 -0.8102
  965MOL0     O33033   8.383   1.687   7.845  0.1173 -0.3931 -0.5882
  965MOL0     C33034   8.309   1.670   7.942  1.3813 -0.5401 -0.6848
  965MOL0     O33035   8.349   1.648   8.070  0.3214 -0.3019  0.3283
  965MOL0     C33036   8.475   1.604   8.103  1.4110 -0.3958  0.4826
  965MOL0     C33037   8.515   1.623   8.240  0.6674  0.3297 -0.2493
  965MOL0     C33038   8.640   1.574   8.279 -0.5173  0.1175  0.8289
  965MOL0     C33039   8.719   1.497   8.189 -0.5383  0.2520  0.0836
  965MOL0     O33040   8.837   1.434   8.233  0.3321 -0.5605 -1.0130
  965MOL0     C33041   8.871   1.437   8.371 -0.3475  0.5375 -0.6087
  965MOL0     C33042   9.001   1.363   8.406 -1.4189  1.0271 -0.3300
  965MOL0     C33043   8.978   1.219   8.355  0.0267 -0.6448  0.7213
  965MOL0     C33044   9.104   1.135   8.331  0.3884 -0.4945  0.5613
  965MOL0     C33045   9.230   1.155   8.423  0.1297  0.5808 -0.0063
  965MOL0     C33046   9.323   1.030   8.421 -0.0952  0.0390  0.1248
  965MOL0     C33047   9.414   1.020   8.301 -0.2865  0.2282  0.8226
  965MOL0     C33048   9.497   0.887   8.301 -1.2432 -0.1085  0.6395
  965MOL0     N33049   9.577   0.875   8.178  0.2535 -0.4018  0.0342
  965MOL0     C33050   9.712   0.853   8.185 -0.5334 -0.0394 -0.1991
  965MOL0     C33051   9.743   0.817   8.063 -0.4057 -0.3345  0.6905
  965MOL0     C33052   9.885   0.773   8.021 -0.3225 -0.0920 -0.1440
  965MOL0     C33053   9.912   0.622   8.024 -0.5564 -0.1176  0.7071
  965MOL0     C33054   9.847   0.552   7.907 -0.4696  0.2743 -0.4109
  965MOL0     C33055   9.865   0.397   7.917  1.1935  0.2891 -0.1383
  965MOL0     O33056   9.818   0.350   8.045  0.0599  0.4427 -1.0846
  965MOL0     C33057   9.860   0.218   8.075 -0.4950 -0.0261 -0.0796
  965MOL0     C33058   9.956   0.137   8.003  0.3271 -1.1543 -0.3796
  965MOL0     C33059   9.988   0.008   8.048 -0.0320 -0.4786  0.4706
  965MOL0     C33060  10.105  -0.068   7.985  0.3991 -0.1271 -0.1400
  965MOL0     C33061   9.915  -0.054   8.150  0.6978 -0.4217  0.1376
  965MOL0     C33062   9.917  -0.191   8.194 -1.3193  0.9440 -0.5794
  965MOL0     O33063   9.858  -0.217   8.319 -0.3428  0.0779 -0.3930
  965MOL0     C33064   9.885  -0.327   8.394  1.0759 -0.4271 -1.0940
  965MOL0     C33065   9.993  -0.418   8.378  0.5543 -0.4694  1.5671
  965MOL0     C33066   9.995  -0.533   8.460 -0.8954  0.0170 -0.0421
  965MOL0     C33067   9.895  -0.570   8.541 -0.1923 -0.8456 -0.0505
  965MOL0     O33068   9.889  -0.690   8.608 -0.5369  0.3222 -0.1123
  965MOL0     C33069   9.987  -0.792   8.608  0.5483  0.4639  0.0903
  965MOL0     C33070   9.922  -0.920   8.655  0.2534  0.3080  0.2323
  965MOL0     C33071  10.024  -1.028   8.699  0.1273 -0.0384  0.0746
  965MOL0     C33072   9.989  -1.170   8.645  0.0005  0.2808  0.2356
  965MOL0     C33073  10.089  -1.272   8.694 -0.3311 -0.2269  1.3930
  965MOL0     C33074  10.225  -1.248   8.631  0.3933 -0.0997 -0.0840
  965MOL0     C33075  10.324  -1.334   8.715  0.0953 -0.7440 -0.6474
  965MOL0     C33076  10.468  -1.302   8.675  0.4597  0.4727  0.5860
  965MOL0    Cl33077  10.512  -1.155   8.755 -0.1409  0.3596 -0.5183
  965MOL0     C33078   9.791  -0.480   8.561 -0.7115 -1.2299 -0.0283
  965MOL0     C33079   9.793  -0.353   8.494 -0.5832 -0.9225 -0.2123
  965MOL0     O33080   9.957  -0.282   8.117 -0.1583 -0.2733 -0.3381
  965MOL0     C33081   9.828   0.029   8.221  0.0981  0.4013  0.3265
  965MOL0     C33082   9.801   0.161   8.185  0.2399  0.3213 -0.6540
  965MOL0     N33083   9.627   0.817   7.980  0.1972 -0.6555 -0.6199
  965MOL0     N33084   9.527   0.845   8.053  0.1658 -1.4209 -1.1269
  965MOL0     C33085   8.675   1.473   8.060  0.6500  0.3510 -0.3148
  965MOL0     C33086   8.559   1.532   8.016 -0.3936  0.1800  0.3614
  965MOL0     C33087   8.170   1.682   7.913  1.2430  0.0612  0.0576
  965MOL0     C33088   8.085   1.720   8.014 -0.4213  0.1431  0.5228
  965MOL0     C33089   7.954   1.748   7.993  0.0373 -0.0328 -0.7575
  965MOL0     C33090   7.890   1.742   7.867  0.1385  0.9597 -0.1588
  965MOL0     O33091   7.755   1.763   7.858  0.7991  0.5746  0.6313
  965MOL0     C33092   7.691   1.653   7.788 -0.7406 -0.3540 -0.0186
  965MOL0     C33093   7.728   1.514   7.852 -0.3177  0.3241 -0.0591
  965MOL0     C33094   7.645   1.395   7.793 -0.6501  0.4231  0.3961
  965MOL0     C33095   7.493   1.387   7.822 -0.3413 -1.3813  0.0708
  965MOL0     C33096   7.423   1.281   7.755 -1.5001  0.4097  0.4196
  965MOL0     C33097   7.367   1.205   7.677 -0.2474  0.0438 -0.0486
  965MOL0     C33098   7.979   1.716   7.762  0.0760  0.8877  0.3731
  965MOL0     C33099   8.108   1.674   7.783  0.1089 -0.8404 -0.3514
  965MOL0     C33100   8.178   1.606   7.664  0.1399  0.7000  0.1676
  965MOL0     H33101   8.449   1.659   8.318 -0.3847 -1.6969 -0.1334
  965MOL0     H33102   8.679   1.600   8.377 -0.4273 -1.1496  1.1560
  965MOL0     H33103   8.793   1.378   8.418 -1.1702  0.7777 -1.6356
  965MOL0     H33104   8.877   1.540   8.409  1.6865  0.1808  0.1621
  965MOL0     H33105   9.089   1.412   8.364  0.0694 -0.9012  0.3328
  965MOL0     H33106   9.020   1.354   8.514 -3.0306  2.7298  0.1280
  965MOL0     H33107   8.908   1.179   8.428 -2.1401  1.0881 -0.2785
  965MOL0     H33108   8.931   1.217   8.256  3.4212  2.2787 -1.1882
  965MOL0     H33109   9.083   1.028   8.324 -2.5006  0.0151  0.0373
  965MOL0     H33110   9.135   1.159   8.229  1.2445 -3.4166  0.0574
  965MOL0     H33111   9.194   1.172   8.525  3.3091  0.5626  1.2470
  965MOL0     H33112   9.277   1.248   8.391  1.6047 -0.5996 -1.4243
  965MOL0     H33113   9.372   1.040   8.518  0.5382  1.1760 -0.2910
  965MOL0     H33114   9.262   0.941   8.436  0.5529 -0.6962 -1.3452
  965MOL0     H33115   9.478   1.108   8.303  0.4434 -0.2610  3.1222
  965MOL0     H33116   9.355   1.024   8.209  2.3551  1.2788 -0.9272
  965MOL0     H33117   9.567   0.894   8.385 -0.5665 -0.3699  0.1076
  965MOL0     H33118   9.432   0.800   8.314 -0.0366 -1.1641 -0.0945
  965MOL0     H33119   9.775   0.857   8.274 -0.8537 -0.9822  0.0826
  965MOL0     H33120   9.944   0.824   8.098 -1.8111 -0.9614  1.6787
  965MOL0     H33121   9.918   0.817   7.927 -0.9529  4.0974  1.3662
  965MOL0     H33122  10.019   0.602   8.020 -0.7985 -1.3229 -1.2776
  965MOL0     H33123   9.873   0.587   8.120  1.0475 -3.1445  0.3842
  965MOL0     H33124   9.741   0.576   7.906 -0.3010  1.0494 -0.6537
  965MOL0     H33125   9.896   0.590   7.817  0.1313  1.9490  0.5621
  965MOL0     H33126   9.816   0.348   7.832  2.4917  0.5470 -1.0851
  965MOL0     H33127   9.970   0.379   7.892  0.6126 -0.9865 -1.9099
  965MOL0     H33128  10.005   0.171   7.912  1.0674 -2.4769 -0.5059
  965MOL0     H33129  10.064  -0.148   7.923 -2.9532  1.9018 -0.8000
  965MOL0     H33130  10.187  -0.106   8.046  0.7142 -0.7921 -0.9510
  965MOL0     H33131  10.152  -0.001   7.912  2.2513 -2.8138 -1.5709
  965MOL0     H33132  10.068  -0.396   8.303  1.8736 -0.3368  2.8661
  965MOL0     H33133  10.057  -0.619   8.437 -2.6156 -2.0356  2.5271
  965MOL0     H33134  10.017  -0.821   8.507  0.2917  0.2244  0.0804
  965MOL0     H33135  10.074  -0.759   8.665 -1.4374  1.6043  2.7011
  965MOL0     H33136   9.867  -0.900   8.748  3.0662  0.9959  1.8441
  965MOL0     H33137   9.848  -0.966   8.589  2.3135 -1.3905 -0.9910
  965MOL0     H33138  10.008  -1.033   8.807 -3.0550 -0.9111 -0.3417
  965MOL0     H33139  10.123  -0.988   8.674 -0.4923  1.9721  0.6044
  965MOL0     H33140   9.982  -1.163   8.536 -2.4389 -2.3334  0.1225
  965MOL0     H33141   9.886  -1.191   8.674 -0.4896  3.2871  0.9776
  965MOL0     H33142  10.092  -1.283   8.803  1.1271 -2.1587  1.2112
  965MOL0     H33143  10.056  -1.369   8.655 -0.7889 -0.0825  1.4132
  965MOL0     H33144  10.264  -1.146   8.635 -0.1330  0.0642  1.1930
  965MOL0     H33145  10.223  -1.286   8.528  0.2578 -1.2256  0.3190
  965MOL0     H33146  10.304  -1.441   8.707  1.1656 -0.9888 -0.2689
  965MOL0     H33147  10.321  -1.299   8.819  1.1359  0.5147 -1.0186
  965MOL0     H33148  10.464  -1.280   8.568 -0.5222  4.2600  1.2555
  965MOL0     H33149  10.532  -1.388   8.695  0.6641  0.2063 -1.0712
  965MOL0     H33150   9.719  -0.519   8.633 -0.9842 -0.4627  0.1222
  965MOL0     H33151   9.709  -0.285   8.501 -0.6732 -0.8603 -1.5468
  965MOL0     H33152   9.774  -0.000   8.311 -1.2363 -1.1331 -0.9156
  965MOL0     H33153   9.721   0.219   8.230 -1.8201 -1.3380 -1.9879
  965MOL0     H33154   8.731   1.398   8.004  0.4116  1.4215 -2.0787
  965MOL0     H33155   8.525   1.508   7.915 -3.1311 -2.8559  1.8274
  965MOL0     H33156   8.134   1.747   8.107 -0.4619  1.3840  0.2006
  965MOL0     H33157   7.899   1.768   8.084 -1.5796 -2.8268 -0.9751
  965MOL0     H33158   7.584   1.675   7.796 -0.9063 -1.5937  2.1367
  965MOL0     H33159   7.716   1.655   7.682 -6.0782 -0.5225 -1.6155
  965MOL0     H33160   7.689   1.522   7.955 -2.4057 -1.1433 -0.6720
  965MOL0     H33161   7.836   1.502   7.837 -0.1492  3.0197 -1.6605
  965MOL0     H33162   7.659   1.377   7.686 -0.8398 -3.2428  0.8285
  965MOL0     H33163   7.685   1.297   7.823 -4.4771 -1.9725 -1.4378
  965MOL0     H33164   7.448   1.485   7.803 -1.4224 -1.5319  1.6450
  965MOL0     H33165   7.476   1.371   7.929  1.6551 -1.0854  0.4653
  965MOL0     H33166   7.320   1.141   7.606  1.8430 -0.9308 -0.6477
  965MOL0     H33167   7.947   1.711   7.659 -0.9369  3.2068  0.5044
  965MOL0     H33168   8.221   1.672   7.589 -0.2528 -1.4645 -2.1184
  965MOL0     H33169   8.255   1.533   7.688  0.9873  0.4102 -3.0219
  965MOL0     H33170   8.100   1.544   7.618 -1.3858 -1.4414  4.9134
  966MOL0     O33171  10.240   8.673   7.894 -0.5043  0.0380  0.1727
  966MOL0     C33172  10.302   8.582   7.950  0.5689  0.6559 -0.7445
  966MOL0     O33173  10.265   8.521   8.060  0.2625  0.0707  0.1633
  966MOL0     C33174  10.352   8.462   8.138  0.4151  0.2430 -0.0555
  966MOL0     C33175  10.469   8.532   8.191 -0.7101 -0.1817  0.7026
  966MOL0     C33176  10.551   8.473   8.282 -0.0999  0.5635  0.2427
  966MOL0     C33177  10.526   8.340   8.334  0.4792  0.2034 -0.1170
  966MOL0     O33178  10.606   8.275   8.425 -0.2530 -0.0264 -0.9622
  966MOL0     C33179  10.631   8.355   8.547 -0.2077  0.5692  0.1379
  966MOL0     C33180  10.715   8.286   8.651 -0.1618 -0.0948  0.2928
  966MOL0     C33181  10.861   8.269   8.607  0.7308 -0.2586 -0.3379
  966MOL0     C33182  10.893   8.148   8.516 -0.0202 -0.5729  0.2288
  966MOL0     C33183  11.041   8.146   8.475  0.6987  0.2116  0.3866
  966MOL0     C33184  11.088   8.267   8.384  0.5688 -0.0732 -0.3111
  966MOL0     C33185  11.231   8.249   8.327  0.9002 -0.2362  1.7196
  966MOL0     C33186  11.331   8.278   8.428  0.2437 -0.4501 -0.3634
  966MOL0     N33187  11.464   8.323   8.368  0.3424  0.4553  0.2432
  966MOL0     C33188  11.552   8.246   8.291 -0.2328  0.4023  0.5927
  966MOL0     C33189  11.636   8.338   8.245 -0.7890 -0.6889 -0.0002
  966MOL0     C33190  11.765   8.309   8.161  0.5184 -0.2515 -0.4704
  966MOL0     C33191  11.759   8.371   8.021  1.4212 -0.6090  0.4666
  966MOL0     C33192  11.647   8.321   7.924  1.1267 -0.8861 -0.2273
  966MOL0     C33193  11.664   8.176   7.881 -0.2106 -0.8477  1.3338
  966MOL0     O33194  11.614   8.084   7.972 -0.9580  0.5368 -0.0207
  966MOL0     C33195  11.478   8.065   7.966 -0.2253  0.2011  0.2263
  966MOL0     C33196  11.430   7.984   8.070  0.0466 -1.1840 -0.0342
  966MOL0     C33197  11.292   7.964   8.078  0.3426 -0.1435 -0.7865
  966MOL0     C33198  11.249   7.876   8.189 -0.1340  0.2315 -0.5958
  966MOL0     C33199  11.202   8.031   7.985 -0.3149 -0.7830  0.2983
  966MOL0     C33200  11.051   8.015   7.985 -0.1488  0.5545 -0.1298
  966MOL0     O33201  10.980   8.122   7.938 -0.2000  0.1945 -0.3676
  966MOL0     C33202  10.844   8.112   7.915 -0.2497  0.0421 -0.2300
  966MOL0     C33203  10.786   8.026   7.820 -0.3312 -0.0455  0.3489
  966MOL0     C33204  10.642   8.002   7.835  0.0176  0.1225 -0.8965
  966MOL0     C33205  10.559   8.079   7.933 -0.7581  0.9633  0.5572
  966MOL0     O33206  10.420   8.054   7.936  0.0169  0.1087  0.0530
  966MOL0     C33207  10.377   7.918   7.924  0.6039  0.9699 -0.2442
  966MOL0     C33208  10.225   7.910   7.925  1.3274  0.6132  0.1216
  966MOL0     C33209  10.169   7.771   7.885 -0.1386 -0.8441 -0.8150
  966MOL0     C33210  10.144   7.759   7.734 -0.5527  0.1505  0.0032
  966MOL0     C33211  10.184   7.618   7.683  0.5699 -0.5482  0.2771
  966MOL0     C33212  10.060   7.524   7.718 -0.5505 -0.0396 -0.4947
  966MOL0     C33213   9.935   7.518   7.634  0.1503  0.2159  0.9819
  966MOL0     C33214   9.877   7.378   7.668  0.0810 -0.0542 -0.4015
  966MOL0    Cl33215   9.726   7.337   7.592 -0.3066 -0.0768 -0.1619
  966MOL0     C33216  10.626   8.170   8.012 -0.4543 -0.1288  0.1786
  966MOL0     C33217  10.759   8.182   8.000 -0.0158  0.2502 -1.0266
  966MOL0     O33218  11.006   7.921   8.037 -0.2373 -0.3275  0.3600
  966MOL0     C33219  11.257   8.128   7.904  1.0711 -0.5845 -0.3867
  966MOL0     C33220  11.396   8.139   7.883 -0.4427 -0.0813  0.1303
  966MOL0     N33221  11.602   8.463   8.296  0.3160 -0.2300  0.4193
  966MOL0     N33222  11.500   8.450   8.372  0.2900 -0.2700 -0.1296
  966MOL0     C33223  10.417   8.268   8.287  0.1641 -0.2636  0.7907
  966MOL0     C33224  10.331   8.341   8.196 -0.4943  0.2299  0.0970
  966MOL0     C33225  10.438   8.581   7.892 -0.5757 -0.5073  0.0502
  966MOL0     C33226  10.520   8.695   7.920  0.3466 -0.3570 -0.3213
  966MOL0     C33227  10.652   8.690   7.875 -0.5413  0.0107  0.3140
  966MOL0     C33228  10.695   8.598   7.789  0.6035  1.1436  1.1973
  966MOL0     O33229  10.817   8.615   7.742 -0.1744 -0.0810  0.6636
  966MOL0     C33230  10.910   8.507   7.793  0.7775 -0.4254 -0.4417
  966MOL0     C33231  10.928   8.491   7.947  0.0875 -0.3444  0.0707
  966MOL0     C33232  11.017   8.599   8.005 -0.6118 -0.0776  0.4434
  966MOL0     C33233  10.999   8.607   8.160  0.0320 -0.5459 -0.8913
  966MOL0     C33234  11.120   8.670   8.219  0.0428  1.1206  0.6761
  966MOL0     C33235  11.229   8.682   8.270  0.2410  0.0230 -0.1216
  966MOL0     C33236  10.611   8.495   7.749  0.3417 -0.7022 -0.2626
  966MOL0     C33237  10.483   8.486   7.796  0.3479 -0.4649  0.3303
  966MOL0     C33238  10.403   8.355   7.777  0.2855 -0.2301 -0.5938
  966MOL0     H33239  10.488   8.636   8.165  1.0620 -1.1298 -2.4138
  966MOL0     H33240  10.633   8.535   8.317  0.2239 -0.6237  1.6868
  966MOL0     H33241  10.530   8.375   8.585 -0.5075  0.4548 -0.5800
  966MOL0     H33242  10.679   8.449   8.520 -0.8537  1.0378  0.5869
  966MOL0     H33243  10.712   8.336   8.748  0.6970  0.8461 -0.1520
  966MOL0     H33244  10.676   8.184   8.663 -0.1414 -0.3308 -1.4502
  966MOL0     H33245  10.911   8.361   8.576  0.7104  0.7758  2.4312
  966MOL0     H33246  10.904   8.249   8.706  1.2389  2.6821  0.1165
  966MOL0     H33247  10.878   8.055   8.570 -0.1521 -0.0757  1.0707
  966MOL0     H33248  10.836   8.149   8.423 -1.0261  1.3068  0.8093
  966MOL0     H33249  11.063   8.048   8.432  0.8885  0.5015 -0.1812
  966MOL0     H33250  11.097   8.150   8.570  0.7034  0.6240  0.3676
  966MOL0     H33251  11.018   8.280   8.301 -2.6362 -0.0893  2.1743
  966MOL0     H33252  11.071   8.354   8.448 -3.1314 -2.3303  2.2499
  966MOL0     H33253  11.241   8.324   8.249  0.6847  0.5173  2.4089
  966MOL0     H33254  11.235   8.149   8.282 -1.3525  0.2421  0.2969
  966MOL0     H33255  11.286   8.363   8.481  0.1976 -1.1490  0.7656
  966MOL0     H33256  11.341   8.196   8.500 -0.5565  1.1320  1.6883
  966MOL0     H33257  11.545   8.141   8.266  0.6947  0.6492 -0.8167
  966MOL0     H33258  11.772   8.200   8.164  3.0950 -0.1510 -0.6074
  966MOL0     H33259  11.850   8.353   8.215  0.2824 -1.2757  0.7783
  966MOL0     H33260  11.754   8.479   8.039 -0.3133 -0.5430 -0.2036
  966MOL0     H33261  11.856   8.363   7.973  0.7086 -1.9695 -0.7981
  966MOL0     H33262  11.551   8.341   7.973  1.3696  1.9159 -0.7342
  966MOL0     H33263  11.648   8.383   7.835 -0.3298  0.0513  0.3728
  966MOL0     H33264  11.636   8.169   7.775 -1.7909 -2.1774  1.8021
  966MOL0     H33265  11.772   8.164   7.871 -0.3091 -0.1400 -1.4103
  966MOL0     H33266  11.499   7.932   8.135 -1.9896 -4.2608 -0.0834
  966MOL0     H33267  11.330   7.859   8.260 -1.5757 -0.8670  0.8828
  966MOL0     H33268  11.210   7.778   8.160 -0.2844  0.7342 -2.1939
  966MOL0     H33269  11.160   7.914   8.241  0.8118  2.5247 -0.5360
  966MOL0     H33270  10.858   7.979   7.755  1.4515 -1.1928  2.9899
  966MOL0     H33271  10.601   7.928   7.768  1.5597 -3.6746  1.9746
  966MOL0     H33272  10.410   7.879   7.827  1.6315  0.3949  0.3254
  966MOL0     H33273  10.418   7.850   7.999  0.3036  0.2006 -0.7690
  966MOL0     H33274  10.195   7.945   8.024  1.5086  1.3349 -0.0761
  966MOL0     H33275  10.188   7.975   7.845 -0.1807 -0.5942 -0.2309
  966MOL0     H33276  10.084   7.748   7.951  0.9992  0.4805  1.2349
  966MOL0     H33277  10.241   7.691   7.906 -0.2447 -0.5226  1.0041
  966MOL0     H33278  10.202   7.836   7.682  0.1762  0.4100  1.1852
  966MOL0     H33279  10.036   7.776   7.730 -0.8413 -1.5020 -0.0509
  966MOL0     H33280  10.192   7.618   7.574 -2.1230  0.6844 -0.0161
  966MOL0     H33281  10.278   7.574   7.716 -0.7730 -2.9842  1.1465
  966MOL0     H33282  10.041   7.548   7.823  1.8646 -1.2678  0.2981
  966MOL0     H33283  10.109   7.427   7.716 -0.8395 -0.1939 -0.1727
  966MOL0     H33284   9.961   7.517   7.528  0.5707  1.7372  1.0474
  966MOL0     H33285   9.870   7.606   7.640 -1.9827 -0.9547 -2.3262
  966MOL0     H33286   9.868   7.355   7.775  1.5363 -4.0237 -0.9438
  966MOL0     H33287   9.940   7.299   7.625 -2.2233 -3.3361  1.7216
  966MOL0     H33288  10.572   8.233   8.082  0.9097  2.1450 -0.7335
  966MOL0     H33289  10.809   8.242   8.076  1.0551 -4.4051  2.3715
  966MOL0     H33290  11.191   8.166   7.827 -0.5907 -0.2303  1.1469
  966MOL0     H33291  11.426   8.205   7.802  1.1793 -0.1781  0.6209
  966MOL0     H33292  10.398   8.176   8.341  1.7329 -0.1174  1.6728
  966MOL0     H33293  10.239   8.291   8.168  0.9168 -1.7221 -1.3165
  966MOL0     H33294  10.506   8.780   7.986  0.3902 -0.1572 -0.5658
  966MOL0     H33295  10.736   8.755   7.899  0.2277 -0.4657 -0.9747
  966MOL0     H33296  10.891   8.414   7.740  0.6494 -0.8978  0.4041
  966MOL0     H33297  11.005   8.545   7.754 -0.6286  0.9076 -2.8083
  966MOL0     H33298  10.977   8.394   7.961  1.9366  0.7120  1.3911
  966MOL0     H33299  10.831   8.497   7.998 -0.0955  4.3157 -0.3514
  966MOL0     H33300  11.123   8.582   7.981 -0.5155  1.3113 -0.2521
  966MOL0     H33301  10.982   8.692   7.959 -0.0921 -0.2587 -0.3486
  966MOL0     H33302  10.972   8.506   8.192 -2.3074  0.1373 -0.5184
  966MOL0     H33303  10.914   8.670   8.189  1.3063  1.5370 -1.5242
  966MOL0     H33304  11.330   8.698   8.303  0.6418  0.7141 -1.6059
  966MOL0     H33305  10.648   8.420   7.679  1.7505  0.0131 -0.3111
  966MOL0     H33306  10.457   8.273   7.729  0.2784 -0.4768 -0.1874
  966MOL0     H33307  10.366   8.312   7.871 -1.3742  0.5422 -0.8669
  966MOL0     H33308  10.320   8.383   7.711  0.5597  1.9513 -0.0690
  967MOL0     O33309   5.714   4.254   9.591 -0.0021 -0.4591 -0.5672
  967MOL0     C33310   5.710   4.346   9.674  0.0741 -0.8219  0.4484
  967MOL0     O33311   5.613   4.364   9.760 -0.0552 -0.3310 -0.3102
  967MOL0     C33312   5.502   4.291   9.774 -0.3799 -0.2789 -0.0998
  967MOL0     C33313   5.476   4.170   9.706 -0.8159  0.7630  0.7607
  967MOL0     C33314   5.356   4.097   9.731 -0.6520  0.3751  0.0724
  967MOL0     C33315   5.260   4.146   9.821  0.3585 -0.7299 -0.1671
  967MOL0     O33316   5.134   4.097   9.857 -0.2637 -0.9231  0.5808
  967MOL0     C33317   5.106   3.960   9.856 -0.0269  0.0863 -0.0123
  967MOL0     C33318   4.967   3.927   9.910  0.1637 -0.6688 -0.3027
  967MOL0     C33319   4.942   3.776   9.925 -0.2509 -1.4268  0.4381
  967MOL0     C33320   5.016   3.706  10.036 -0.4585  0.3542 -0.0297
  967MOL0     C33321   4.973   3.562  10.047 -0.3329 -0.4974 -0.8108
  967MOL0     C33322   5.056   3.474  10.154  0.1813  0.3980  0.6226
  967MOL0     C33323   5.063   3.539  10.296 -0.9297  0.1414  0.4421
  967MOL0     C33324   4.936   3.502  10.369 -0.0867 -0.3026  0.1608
  967MOL0     N33325   4.926   3.537  10.511 -0.5816 -0.4039  0.0828
  967MOL0     C33326   4.813   3.523  10.588 -0.5529 -0.0117 -0.3718
  967MOL0     C33327   4.856   3.574  10.706  0.6059  0.1929  0.1071
  967MOL0     C33328   4.766   3.566  10.833  0.0088 -0.4175  0.2873
  967MOL0     C33329   4.667   3.690  10.834 -0.9600  0.3867  0.6588
  967MOL0     C33330   4.537   3.676  10.918 -0.2881  0.1430 -0.1699
  967MOL0     C33331   4.469   3.541  10.907 -0.1306  0.0511 -0.7239
  967MOL0     O33332   4.425   3.521  10.771 -0.5463 -0.1254 -0.1907
  967MOL0     C33333   4.386   3.394  10.763  1.1948 -0.3997 -0.6175
  967MOL0     C33334   4.451   3.305  10.682  0.1483  0.4611 -0.3678
  967MOL0     C33335   4.415   3.164  10.674 -0.2185 -0.2346  0.8437
  967MOL0     C33336   4.518   3.085  10.603 -0.3260  0.6552  0.3339
  967MOL0     C33337   4.296   3.118  10.731 -1.3557 -0.3756 -1.3033
  967MOL0     C33338   4.245   2.980  10.728 -0.3998  0.6588  0.4055
  967MOL0     O33339   4.128   2.967  10.797 -0.1397  0.1064 -0.3938
  967MOL0     C33340   4.078   2.838  10.826 -0.0155  0.1685  0.8460
  967MOL0     C33341   4.072   2.735  10.728  0.9233 -0.2484 -0.1008
  967MOL0     C33342   4.020   2.606  10.772 -0.3275 -0.8205  0.3227
  967MOL0     C33343   3.964   2.597  10.902 -0.5851 -0.7006  0.6569
  967MOL0     O33344   3.912   2.477  10.936  0.2722 -0.3355 -0.0668
  967MOL0     C33345   3.772   2.481  10.966 -1.6539 -0.5890  0.0051
  967MOL0     C33346   3.740   2.355  11.041 -0.6609 -0.8561  0.2238
  967MOL0     C33347   3.802   2.339  11.182 -0.5582 -0.8589  0.4154
  967MOL0     C33348   3.777   2.213  11.250  0.6901  0.4525 -0.2702
  967MOL0     C33349   3.872   2.203  11.378  1.1418 -0.6673  0.5128
  967MOL0     C33350   3.852   2.087  11.477 -0.2773  0.6155  0.6266
  967MOL0     C33351   3.705   2.079  11.528  0.1057  0.4647 -0.3972
  967MOL0     C33352   3.669   1.941  11.576  0.7912  0.4360  0.3074
  967MOL0    Cl33353   3.739   1.911  11.736  0.3735 -0.7144 -0.1851
  967MOL0     C33354   3.969   2.702  10.990 -0.6107 -0.9123 -0.8868
  967MOL0     C33355   4.036   2.823  10.962 -1.0403 -0.0266 -0.2144
  967MOL0     O33356   4.322   2.882  10.697 -0.1534  0.4701  0.3099
  967MOL0     C33357   4.234   3.215  10.812 -0.0445  0.6967 -0.1497
  967MOL0     C33358   4.267   3.351  10.828  0.2087 -0.2572 -0.5994
  967MOL0     N33359   4.981   3.622  10.696 -0.3496 -0.2125 -0.4233
  967MOL0     N33360   5.021   3.606  10.571  0.0979  0.8243  0.0723
  967MOL0     C33361   5.284   4.268   9.887 -1.1439 -0.2517 -0.3509
  967MOL0     C33362   5.410   4.334   9.866  0.0397  0.5172  0.2927
  967MOL0     C33363   5.825   4.437   9.687 -0.1888  0.7626  0.6995
  967MOL0     C33364   5.919   4.414   9.585  0.0860  0.1576 -0.3289
  967MOL0     C33365   6.045   4.472   9.599  0.7392 -0.1663 -0.6521
  967MOL0     C33366   6.093   4.540   9.719 -0.0831  0.3907  1.0235
  967MOL0     O33367   6.223   4.592   9.725 -0.0014  0.0850  0.3566
  967MOL0     C33368   6.271   4.638   9.847 -0.1896  0.4626  0.7214
  967MOL0     C33369   6.233   4.789   9.854 -0.1602  0.1225 -0.4391
  967MOL0     C33370   6.347   4.877   9.809 -0.2983  0.4944 -0.2193
  967MOL0     C33371   6.305   5.014   9.789  0.5241 -0.1130 -0.1776
  967MOL0     C33372   6.424   5.089   9.749  0.0651 -0.0843 -0.3609
  967MOL0     C33373   6.510   5.169   9.712 -0.2642 -0.7921 -0.1270
  967MOL0     C33374   5.990   4.553   9.818 -0.8096 -0.2740 -0.4078
  967MOL0     C33375   5.855   4.520   9.805  0.3626 -0.8976  0.2230
  967MOL0     C33376   5.760   4.564   9.917 -0.4373 -0.4052 -0.0586
  967MOL0     H33377   5.545   4.127   9.634 -0.0331  1.4147  1.0992
  967MOL0     H33378   5.330   3.999   9.693 -0.9358 -0.1365  1.5123
  967MOL0     H33379   5.185   3.906   9.909  0.0658 -0.4730 -0.7087
  967MOL0     H33380   5.112   3.912   9.758  0.2824  1.1485 -0.5261
  967MOL0     H33381   4.953   3.986  10.002  0.3670  1.0813 -1.3463
  967MOL0     H33382   4.902   3.981   9.841  2.7648  0.9630 -1.6506
  967MOL0     H33383   4.835   3.775   9.949 -0.1688 -2.4146  0.8203
  967MOL0     H33384   4.956   3.728   9.827  2.0543  0.2823 -0.1555
  967MOL0     H33385   5.124   3.717  10.018 -0.7480 -0.5342 -2.7044
  967MOL0     H33386   4.986   3.748  10.133 -2.3338 -0.4592 -0.2209
  967MOL0     H33387   4.970   3.514   9.949 -2.5658 -1.0904 -0.5197
  967MOL0     H33388   4.869   3.563  10.082 -0.0559  0.4211  0.0401
  967MOL0     H33389   5.010   3.376  10.150 -2.9714  1.7804  0.5755
  967MOL0     H33390   5.157   3.457  10.115 -0.5000 -1.1038 -0.5810
  967MOL0     H33391   5.086   3.646  10.300  1.1752  0.0717 -3.6190
  967MOL0     H33392   5.153   3.495  10.341 -0.3246  0.4335 -0.4583
  967MOL0     H33393   4.865   3.570  10.322  0.6790  1.8762  1.9848
  967MOL0     H33394   4.914   3.397  10.346 -0.1961 -0.1205 -0.6228
  967MOL0     H33395   4.718   3.472  10.578 -1.4441  1.2787  0.9695
  967MOL0     H33396   4.835   3.575  10.918  0.2178 -2.3560  0.3640
  967MOL0     H33397   4.719   3.468  10.835 -1.9909  0.4846  1.8289
  967MOL0     H33398   4.718   3.783  10.860 -0.3445  1.0714 -2.5742
  967MOL0     H33399   4.642   3.714  10.730  2.1149 -2.8299 -1.0471
  967MOL0     H33400   4.555   3.711  11.020 -0.9019  3.2676 -1.0465
  967MOL0     H33401   4.470   3.747  10.871  0.4972  0.2972 -1.0986
  967MOL0     H33402   4.523   3.453  10.945 -2.2797  0.5541  4.3004
  967MOL0     H33403   4.381   3.539  10.971  0.4033 -0.8347  0.0200
  967MOL0     H33404   4.545   3.344  10.645  0.4469  1.5024  1.3730
  967MOL0     H33405   4.471   3.044  10.513 -1.3279  4.8405 -1.2783
  967MOL0     H33406   4.556   3.006  10.669  0.2517  0.6584  0.0133
  967MOL0     H33407   4.598   3.151  10.568 -0.0016  0.2183  0.2414
  967MOL0     H33408   4.104   2.759  10.627 -0.9789  1.8117 -0.2693
  967MOL0     H33409   4.013   2.522  10.705  0.6298 -2.0808  1.7192
  967MOL0     H33410   3.752   2.574  11.021  1.2148 -0.3364  0.7554
  967MOL0     H33411   3.712   2.484  10.874 -2.1780  0.4346  0.3582
  967MOL0     H33412   3.632   2.344  11.059 -0.7271 -0.7066 -0.0726
  967MOL0     H33413   3.769   2.273  10.975  0.9019  1.0809 -1.6355
  967MOL0     H33414   3.768   2.427  11.238 -1.5657 -0.5994 -0.5642
  967MOL0     H33415   3.910   2.353  11.171 -0.8589 -0.4079 -2.6880
  967MOL0     H33416   3.804   2.127  11.187 -0.4873 -0.1344 -0.0174
  967MOL0     H33417   3.670   2.212  11.274  0.9352 -1.6861  1.0389
  967MOL0     H33418   3.979   2.208  11.359  1.3059 -1.2941  1.2142
  967MOL0     H33419   3.851   2.295  11.433 -3.3543  0.5892 -2.7201
  967MOL0     H33420   3.929   2.100  11.553  0.1001  1.9809  0.0523
  967MOL0     H33421   3.879   1.989  11.438  3.1506  1.2008  1.2105
  967MOL0     H33422   3.636   2.093  11.445 -0.2898  1.3207  0.0596
  967MOL0     H33423   3.689   2.154  11.606 -3.1031 -0.8927  0.3902
  967MOL0     H33424   3.707   1.865  11.508  1.2059 -0.3016  1.3276
  967MOL0     H33425   3.560   1.928  11.567  0.8947 -0.3270  0.0392
  967MOL0     H33426   3.936   2.694  11.093  1.9751 -0.2973  0.0748
  967MOL0     H33427   4.041   2.912  11.023 -3.3951  0.4547 -0.5953
  967MOL0     H33428   4.146   3.189  10.870 -0.6900  1.4918 -0.7613
  967MOL0     H33429   4.206   3.419  10.886  1.5549 -0.3412  0.9755
  967MOL0     H33430   5.211   4.313   9.954 -1.8469  2.3459 -2.6890
  967MOL0     H33431   5.424   4.416   9.936  2.6591 -0.8448  1.4960
  967MOL0     H33432   5.904   4.359   9.492 -1.9661  0.2420 -0.0965
  967MOL0     H33433   6.114   4.463   9.516 -0.7463  2.0415 -2.2698
  967MOL0     H33434   6.230   4.576   9.928 -1.1432  0.7253  0.4520
  967MOL0     H33435   6.380   4.629   9.843 -0.3374 -1.2752 -2.6190
  967MOL0     H33436   6.215   4.806   9.961  2.3627 -0.9011  0.2155
  967MOL0     H33437   6.139   4.816   9.804 -2.2421  3.2910  4.4387
  967MOL0     H33438   6.428   4.875   9.882  0.4570  3.6980 -0.8550
  967MOL0     H33439   6.392   4.839   9.717 -0.7185 -2.0926  0.5637
  967MOL0     H33440   6.264   5.051   9.884 -0.3930 -1.0398 -0.1955
  967MOL0     H33441   6.233   5.027   9.709  1.6113  2.0007 -0.8927
  967MOL0     H33442   6.582   5.241   9.677  1.3441 -0.8305  2.7675
  967MOL0     H33443   6.012   4.592   9.917 -2.8720  0.5637 -0.2231
  967MOL0     H33444   5.753   4.499  10.005 -0.8770  0.5667  0.6468
  967MOL0     H33445   5.796   4.661   9.952 -1.7503  0.3580 -0.7530
  967MOL0     H33446   5.659   4.579   9.879 -2.0677 -1.8359  3.2718
  968MOL0     O33447   8.587   7.580   3.901 -0.6751  0.5043 -0.3986
  968MOL0     C33448   8.492   7.656   3.892 -0.4791 -0.1612  0.3528
  968MOL0     O33449   8.486   7.779   3.948 -0.3311 -1.0192 -0.0150
  968MOL0     C33450   8.594   7.813   4.019 -0.4085 -0.1701  0.4990
  968MOL0     C33451   8.707   7.881   3.965 -0.0423 -0.2922  0.0423
  968MOL0     C33452   8.818   7.903   4.042 -0.3809  0.6303  0.4585
  968MOL0     C33453   8.818   7.865   4.178  0.2574 -0.8561  0.3416
  968MOL0     O33454   8.910   7.895   4.268  0.4275 -0.0292  0.3293
  968MOL0     C33455   9.008   7.995   4.239  0.3638 -0.1702 -1.3048
  968MOL0     C33456   9.098   8.002   4.367  0.0628 -0.4500 -0.7612
  968MOL0     C33457   9.179   7.869   4.399  0.3814  0.0013  0.1471
  968MOL0     C33458   9.291   7.888   4.507  0.2294 -0.7730 -0.7297
  968MOL0     C33459   9.229   7.900   4.646  0.3324  0.1653  0.0751
  968MOL0     C33460   9.341   7.933   4.746 -0.8793 -0.4724  0.2218
  968MOL0     C33461   9.438   7.824   4.784  0.7406  0.4660  0.7941
  968MOL0     C33462   9.539   7.885   4.882 -0.1604  0.0969 -0.1353
  968MOL0     N33463   9.604   7.791   4.978 -0.2051 -0.3606  0.3081
  968MOL0     C33464   9.633   7.656   4.955 -0.1776  0.5554  0.5290
  968MOL0     C33465   9.698   7.621   5.064  0.1444  0.4628 -0.9632
  968MOL0     C33466   9.732   7.484   5.117 -0.5295 -0.2881  0.6517
  968MOL0     C33467   9.883   7.476   5.146 -0.1071  0.0993  0.4087
  968MOL0     C33468   9.907   7.349   5.224  0.5945 -0.9079 -0.0507
  968MOL0     C33469  10.061   7.340   5.251  0.7116  1.1247 -0.3310
  968MOL0     O33470  10.082   7.241   5.353 -0.3189  0.6999 -0.1457
  968MOL0     C33471  10.203   7.225   5.410 -0.3879  0.3366 -0.1395
  968MOL0     C33472  10.290   7.115   5.378  0.3778  0.0884  0.2711
  968MOL0     C33473  10.413   7.096   5.431 -0.9811 -0.2224 -0.6567
  968MOL0     C33474  10.495   6.972   5.401  0.3670  0.1906  0.2228
  968MOL0     C33475  10.464   7.193   5.525  0.0178 -0.5422  0.5655
  968MOL0     C33476  10.592   7.184   5.609  0.0946  0.4554  1.0735
  968MOL0     O33477  10.644   7.298   5.666  0.4495 -0.6951 -1.0007
  968MOL0     C33478  10.776   7.299   5.684  0.6622 -0.1665  0.3610
  968MOL0     C33479  10.828   7.269   5.813 -0.1154  0.2035 -0.6295
  968MOL0     C33480  10.969   7.265   5.835  0.9819 -0.9234  0.5038
  968MOL0     C33481  11.051   7.305   5.722  0.6700 -0.2195  0.1822
  968MOL0     O33482  11.185   7.302   5.728  0.0204  0.0493 -0.0536
  968MOL0     C33483  11.246   7.348   5.850 -0.6413 -0.0241 -0.3907
  968MOL0     C33484  11.397   7.379   5.833 -0.1319 -0.0668 -0.3014
  968MOL0     C33485  11.453   7.429   5.961 -0.0834  0.1369 -0.5229
  968MOL0     C33486  11.601   7.462   5.934  1.1767  0.1942  0.6976
  968MOL0     C33487  11.675   7.504   6.056  0.0010  0.1369 -0.2716
  968MOL0     C33488  11.813   7.540   6.011 -0.2849 -0.4325 -0.6934
  968MOL0     C33489  11.900   7.595   6.122  0.5677  0.8581 -0.0247
  968MOL0     C33490  12.049   7.614   6.086 -0.7295  0.5962  0.2648
  968MOL0    Cl33491  12.124   7.704   6.215 -0.2344 -0.4611 -0.3517
  968MOL0     C33492  10.988   7.322   5.595 -0.6379 -0.3189 -1.0771
  968MOL0     C33493  10.853   7.321   5.577 -0.1535 -0.2182  1.1773
  968MOL0     O33494  10.638   7.070   5.622 -0.2979 -0.3547  0.0130
  968MOL0     C33495  10.379   7.305   5.551 -0.2327  0.9691  0.8910
  968MOL0     C33496  10.249   7.317   5.500 -0.5163 -0.8529  0.3674
  968MOL0     N33497   9.719   7.725   5.146 -1.0983 -0.7810 -0.0539
  968MOL0     N33498   9.661   7.820   5.097  0.4579 -0.2075 -0.0096
  968MOL0     C33499   8.700   7.810   4.228  0.3946 -1.0061  0.3429
  968MOL0     C33500   8.590   7.777   4.148  0.0044  0.7560 -0.7008
  968MOL0     C33501   8.369   7.602   3.830  1.1324  0.7015  0.2682
  968MOL0     C33502   8.245   7.654   3.877  0.5161  0.9440  0.0249
  968MOL0     C33503   8.121   7.605   3.827  0.1347 -0.6191  0.6243
  968MOL0     C33504   8.116   7.511   3.717  0.5278 -0.4729 -0.6920
  968MOL0     O33505   8.003   7.448   3.667 -0.2794  0.3093  0.7973
  968MOL0     C33506   7.877   7.497   3.714 -1.0429  0.6953 -0.1406
  968MOL0     C33507   7.756   7.451   3.633  0.9256  0.0258 -0.2104
  968MOL0     C33508   7.766   7.519   3.501 -0.2274 -0.7278 -0.6391
  968MOL0     C33509   7.654   7.468   3.406 -0.6304  0.0875  0.4265
  968MOL0     C33510   7.655   7.326   3.390  0.0533  0.6873  0.6464
  968MOL0     C33511   7.622   7.209   3.375  0.3898 -0.2225 -0.5435
  968MOL0     C33512   8.239   7.475   3.665 -0.4279 -0.2025  0.0230
  968MOL0     C33513   8.367   7.516   3.722 -0.4161  0.0283  0.7816
  968MOL0     C33514   8.495   7.457   3.654  0.2654 -0.8348 -0.0568
  968MOL0     H33515   8.725   7.908   3.862 -2.1442  2.7975  0.3473
  968MOL0     H33516   8.903   7.957   4.001  1.5283 -2.9676 -0.7097
  968MOL0     H33517   8.947   8.083   4.217 -0.2726  0.9037  3.6039
  968MOL0     H33518   9.073   7.961   4.159  0.8416  0.7105 -1.3023
  968MOL0     H33519   9.163   8.089   4.355  0.7650 -0.7182  0.8441
  968MOL0     H33520   9.026   8.015   4.448  2.7057  1.2189  1.4961
  968MOL0     H33521   9.113   7.791   4.438  1.2869  0.0353  1.8875
  968MOL0     H33522   9.235   7.837   4.311 -0.4668  0.8040 -0.6999
  968MOL0     H33523   9.365   7.808   4.491  0.4522 -0.0434 -4.2630
  968MOL0     H33524   9.346   7.980   4.487 -0.2332  0.3336  2.5380
  968MOL0     H33525   9.182   7.804   4.668 -0.8833  0.6958 -0.1278
  968MOL0     H33526   9.150   7.975   4.637 -0.2101 -0.4112 -0.0732
  968MOL0     H33527   9.399   8.012   4.698  0.7337 -1.2141  0.8732
  968MOL0     H33528   9.297   7.988   4.831  1.7800  1.5337  0.4171
  968MOL0     H33529   9.495   7.789   4.697  1.0528 -1.9440  1.8879
  968MOL0     H33530   9.383   7.737   4.822  3.5679 -2.2167 -0.7795
  968MOL0     H33531   9.620   7.918   4.816 -1.7597  0.5472 -2.0070
  968MOL0     H33532   9.496   7.974   4.929 -1.0675 -0.3801 -0.0387
  968MOL0     H33533   9.604   7.584   4.880 -0.8036 -1.1824  2.3510
  968MOL0     H33534   9.715   7.412   5.036  1.0606  1.3472 -1.2131
  968MOL0     H33535   9.657   7.458   5.193  0.5499 -0.9469  1.5203
  968MOL0     H33536   9.934   7.464   5.050 -1.3720 -2.3355 -0.0311
  968MOL0     H33537   9.917   7.565   5.199  1.1496 -1.0384  1.5798
  968MOL0     H33538   9.865   7.336   5.325  1.7635 -1.2414  0.4146
  968MOL0     H33539   9.876   7.259   5.170 -0.5122 -1.3193  1.1934
  968MOL0     H33540  10.120   7.304   5.166  0.9816  3.1262 -1.0390
  968MOL0     H33541  10.087   7.439   5.288  0.4839  1.4637 -1.0582
  968MOL0     H33542  10.252   7.037   5.312  0.4201  2.1359 -2.3770
  968MOL0     H33543  10.477   6.884   5.464 -2.5882 -1.4101 -2.5676
  968MOL0     H33544  10.602   6.995   5.399  0.3151  0.3707 -0.7140
  968MOL0     H33545  10.487   6.943   5.296 -1.3200 -2.8603  1.0698
  968MOL0     H33546  10.756   7.248   5.891  2.9002  3.2810  3.4593
  968MOL0     H33547  11.016   7.248   5.931  0.5659  0.2347  0.9219
  968MOL0     H33548  11.194   7.438   5.883  1.2820  1.1923 -0.5216
  968MOL0     H33549  11.241   7.278   5.933  0.0384 -0.2092 -0.4962
  968MOL0     H33550  11.451   7.289   5.801  0.3896 -0.1701  0.8339
  968MOL0     H33551  11.409   7.447   5.748  1.1938 -2.6029 -2.2853
  968MOL0     H33552  11.449   7.358   6.044  1.8361  0.8820  0.2773
  968MOL0     H33553  11.411   7.525   5.992  0.5633  1.0120 -2.2034
  968MOL0     H33554  11.609   7.551   5.871  0.1074  1.6591  2.5334
  968MOL0     H33555  11.661   7.378   5.897  1.5601 -0.0511  1.8387
  968MOL0     H33556  11.625   7.589   6.105 -2.6280 -3.3533  3.9205
  968MOL0     H33557  11.679   7.425   6.132  0.8121  1.4498  1.1098
  968MOL0     H33558  11.807   7.622   5.937 -1.3101 -1.1034 -1.3765
  968MOL0     H33559  11.859   7.452   5.966 -0.4822 -0.8515 -0.0757
  968MOL0     H33560  11.880   7.528   6.206 -2.9127 -1.4390 -2.4033
  968MOL0     H33561  11.855   7.685   6.165  0.0478 -0.5662  2.6646
  968MOL0     H33562  12.048   7.682   6.001 -0.8515  2.0424  1.3794
  968MOL0     H33563  12.103   7.522   6.060 -1.0275  0.7007 -0.7731
  968MOL0     H33564  11.059   7.311   5.513  0.4360 -3.2301  0.0966
  968MOL0     H33565  10.830   7.330   5.472  1.4972  0.0083  0.8002
  968MOL0     H33566  10.413   7.387   5.613  1.2539 -1.9904  4.4030
  968MOL0     H33567  10.191   7.407   5.516  2.8365  2.0038 -1.8469
  968MOL0     H33568   8.697   7.799   4.336  0.1201  0.0402  0.4527
  968MOL0     H33569   8.498   7.733   4.184  0.9374 -0.8007 -0.1278
  968MOL0     H33570   8.241   7.728   3.956 -2.3222 -1.1003  2.0074
  968MOL0     H33571   8.024   7.633   3.865 -0.3568  0.5134 -1.3154
  968MOL0     H33572   7.872   7.457   3.816  2.5829  1.6392  0.5498
  968MOL0     H33573   7.870   7.606   3.711 -0.5304  0.7145 -0.9098
  968MOL0     H33574   7.662   7.473   3.684 -0.9493  1.2979 -3.8841
  968MOL0     H33575   7.772   7.345   3.609  0.5354  0.1655 -1.0904
  968MOL0     H33576   7.771   7.628   3.512 -1.4163 -0.6460 -0.8294
  968MOL0     H33577   7.860   7.491   3.453  1.2467  0.3134  1.4353
  968MOL0     H33578   7.662   7.516   3.308  0.2013 -1.9642 -0.5814
  968MOL0     H33579   7.559   7.499   3.451 -1.0618  0.0507 -0.4239
  968MOL0     H33580   7.587   7.110   3.353 -1.9479  1.0614 -3.4213
  968MOL0     H33581   8.246   7.403   3.585 -0.7341 -1.4787  1.1100
  968MOL0     H33582   8.503   7.351   3.680  0.9201 -0.3333  2.0039
  968MOL0     H33583   8.493   7.467   3.545  0.2260 -2.5372 -0.2323
  968MOL0     H33584   8.585   7.515   3.678  0.7415 -0.8038 -1.7482
  969MOL0     O33585   0.815   3.425   1.105  0.0418 -0.4120 -0.1218
  969MOL0     C33586   0.724   3.407   1.187 -0.5103  0.2352 -0.1835
  969MOL0     O33587   0.748   3.387   1.314 -0.0787  0.3881  0.0744
  969MOL0     C33588   0.878   3.353   1.348 -0.3617  0.0505 -0.4045
  969MOL0     C33589   0.969   3.447   1.378  0.0630 -0.0798 -1.0182
  969MOL0     C33590   1.101   3.414   1.424  0.9200 -0.4202  0.6362
  969MOL0     C33591   1.137   3.281   1.446  0.8014  0.7307 -0.3588
  969MOL0     O33592   1.252   3.237   1.516  0.5289 -0.3435 -0.1060
  969MOL0     C33593   1.368   3.326   1.535 -0.0778  0.8263 -0.0240
  969MOL0     C33594   1.435   3.273   1.665 -0.1375 -0.2497  0.4032
  969MOL0     C33595   1.543   3.363   1.710 -0.5971 -0.2663 -0.4090
  969MOL0     C33596   1.618   3.303   1.815 -0.9084  0.6433 -1.0715
  969MOL0     C33597   1.729   3.391   1.868  0.0227  0.0324 -0.3350
  969MOL0     C33598   1.818   3.323   1.976  0.9033  0.0475  0.7243
  969MOL0     C33599   1.866   3.180   1.930 -0.7585  0.0193 -1.0839
  969MOL0     C33600   2.010   3.167   1.988 -0.0885 -0.5806 -0.2562
  969MOL0     N33601   2.015   3.122   2.135 -0.1613 -0.5980  0.7723
  969MOL0     C33602   2.039   2.993   2.172  0.4585  0.3860  0.0659
  969MOL0     C33603   2.057   3.000   2.309  0.5805  0.2001 -0.4981
  969MOL0     C33604   2.105   2.880   2.383 -0.0904 -0.8225  0.5243
  969MOL0     C33605   2.248   2.866   2.426  0.9206  0.6148 -0.0481
  969MOL0     C33606   2.307   2.981   2.511 -0.4196 -0.4605 -0.1071
  969MOL0     C33607   2.464   2.986   2.516  0.3139  0.0209  0.3184
  969MOL0     O33608   2.509   3.026   2.387  0.0952  0.2652 -0.3377
  969MOL0     C33609   2.643   3.026   2.366 -0.2960 -0.1537 -0.2090
  969MOL0     C33610   2.733   3.070   2.462  0.1592  0.4651 -0.2118
  969MOL0     C33611   2.871   3.093   2.434  0.8574  0.2643  0.3850
  969MOL0     C33612   2.957   3.162   2.539  0.0788  0.2183  0.2447
  969MOL0     C33613   2.921   3.054   2.307  1.3695  0.7090 -0.9299
  969MOL0     C33614   3.063   3.059   2.278 -0.0415 -0.4792 -0.4676
  969MOL0     O33615   3.089   3.081   2.146 -0.9249  0.4754  0.2349
  969MOL0     C33616   3.222   3.100   2.114 -0.1940 -0.0432  0.1168
  969MOL0     C33617   3.287   3.003   2.037  0.0017  0.0372 -0.7323
  969MOL0     C33618   3.421   3.028   2.002 -0.5020  0.0477 -0.0780
  969MOL0     C33619   3.489   3.141   2.032  0.0218 -0.3350 -0.7792
  969MOL0     O33620   3.615   3.163   1.975  0.4867 -1.4665  0.6866
  969MOL0     C33621   3.711   3.207   2.067 -0.0500 -0.2413 -0.0647
  969MOL0     C33622   3.844   3.267   2.003  0.1230 -0.3363  0.8955
  969MOL0     C33623   3.824   3.370   1.890  0.1164  0.4625  0.4647
  969MOL0     C33624   3.943   3.464   1.883  0.9842  0.8026 -0.3644
  969MOL0     C33625   3.937   3.541   1.754  0.5504  0.4124  0.7742
  969MOL0     C33626   4.033   3.670   1.765 -1.0948  0.3092  0.2070
  969MOL0     C33627   4.018   3.748   1.630 -0.6280 -0.6076 -0.4425
  969MOL0     C33628   4.093   3.878   1.628  0.7111  0.5466 -0.5915
  969MOL0    Cl33629   4.279   3.850   1.632 -0.1100 -0.2642 -0.1007
  969MOL0     C33630   3.411   3.245   2.080  0.0801  0.6036 -0.4884
  969MOL0     C33631   3.282   3.218   2.130  0.5753  0.1602  0.1123
  969MOL0     O33632   3.149   3.047   2.363 -0.2978 -0.1381  0.4364
  969MOL0     C33633   2.828   2.987   2.218  0.1494  1.0949  0.3577
  969MOL0     C33634   2.692   2.982   2.242 -0.0899 -1.0198  0.2292
  969MOL0     N33635   2.031   3.128   2.351  0.5677 -0.0240 -0.1126
  969MOL0     N33636   1.992   3.191   2.246 -0.2647  0.3221  0.3426
  969MOL0     C33637   1.042   3.183   1.408  0.0330  0.3634  0.9887
  969MOL0     C33638   0.916   3.220   1.363  0.5048  0.3348  0.2873
  969MOL0     C33639   0.583   3.425   1.137 -0.3570  0.3222  0.3314
  969MOL0     C33640   0.481   3.395   1.233  0.0730  0.1193 -0.3754
  969MOL0     C33641   0.341   3.414   1.198 -0.3308 -1.3291  0.7564
  969MOL0     C33642   0.303   3.465   1.069  0.7695  0.2744  0.4218
  969MOL0     O33643   0.168   3.488   1.045 -1.1625 -0.8396  0.6924
  969MOL0     C33644   0.138   3.630   1.031  0.7949 -0.3776 -0.4677
  969MOL0     C33645   0.130   3.718   1.157  0.2446  0.6002 -0.3361
  969MOL0     C33646   0.037   3.663   1.267 -0.0886  0.7157 -0.1076
  969MOL0     C33647   0.035   3.758   1.387  0.5920 -0.0992  0.1768
  969MOL0     C33648  -0.047   3.883   1.371 -0.3053 -0.0802  0.8692
  969MOL0     C33649  -0.115   3.982   1.349  0.3377 -1.1341  1.2493
  969MOL0     C33650   0.404   3.480   0.978  0.5706  0.9594 -0.5453
  969MOL0     C33651   0.537   3.456   1.005  0.1432  0.4532 -0.2265
  969MOL0     C33652   0.630   3.475   0.885  0.2854 -0.1767  0.0110
  969MOL0     H33653   0.956   3.553   1.361  1.1217  0.2145 -0.0854
  969MOL0     H33654   1.164   3.502   1.430  3.8905 -2.2852 -0.8379
  969MOL0     H33655   1.344   3.432   1.549 -1.4277  0.5137  0.1538
  969MOL0     H33656   1.431   3.317   1.446 -0.3867 -1.7324 -0.0715
  969MOL0     H33657   1.360   3.258   1.743  1.5688  0.1190  2.1674
  969MOL0     H33658   1.470   3.175   1.631 -0.6393 -0.3507  0.1580
  969MOL0     H33659   1.597   3.391   1.619  0.8058 -3.1339 -0.5795
  969MOL0     H33660   1.501   3.450   1.763  3.6713  0.2614  2.6910
  969MOL0     H33661   1.557   3.277   1.902  2.5178 -0.6412  1.1636
  969MOL0     H33662   1.657   3.209   1.775  2.7793  1.3091  0.4994
  969MOL0     H33663   1.687   3.478   1.918  0.3460 -0.1799  0.3103
  969MOL0     H33664   1.794   3.416   1.783 -2.7059  0.9228 -2.3144
  969MOL0     H33665   1.910   3.381   1.993  1.1780  0.5286 -2.0204
  969MOL0     H33666   1.766   3.299   2.069 -3.6018 -0.3983 -1.6223
  969MOL0     H33667   1.883   3.175   1.822  0.2213  0.3090 -0.9552
  969MOL0     H33668   1.801   3.097   1.956  0.8101 -2.2856 -3.8606
  969MOL0     H33669   2.059   3.088   1.930  0.2628  0.8560 -2.0196
  969MOL0     H33670   2.071   3.257   1.980 -0.4626 -0.0923  1.8183
  969MOL0     H33671   2.051   2.910   2.104 -0.5455  1.7871 -1.9035
  969MOL0     H33672   2.082   2.787   2.332 -0.5821 -0.0309 -0.7320
  969MOL0     H33673   2.043   2.897   2.471  0.6746  2.4441  0.5830
  969MOL0     H33674   2.254   2.779   2.491  1.1821  1.2712  0.8311
  969MOL0     H33675   2.301   2.846   2.332  0.4970 -1.0575  0.0444
  969MOL0     H33676   2.260   3.077   2.485 -0.7693 -0.7601 -0.6153
  969MOL0     H33677   2.273   2.960   2.613  0.8897 -0.8122  0.2656
  969MOL0     H33678   2.501   3.051   2.596  1.2595 -0.4853  0.2967
  969MOL0     H33679   2.508   2.890   2.544  0.7307  0.0165 -0.3515
  969MOL0     H33680   2.699   3.103   2.559  0.2119  0.7722 -0.2931
  969MOL0     H33681   3.004   3.087   2.604 -0.9508  0.9885  1.9309
  969MOL0     H33682   2.885   3.221   2.596  0.9199 -0.8755  2.5469
  969MOL0     H33683   3.033   3.229   2.496  1.0380 -0.1862  1.2646
  969MOL0     H33684   3.230   2.915   2.007 -0.0145 -0.1610 -0.1329
  969MOL0     H33685   3.472   2.962   1.932 -2.7139 -2.2153  0.3054
  969MOL0     H33686   3.675   3.279   2.141 -0.0558  1.7528 -1.8990
  969MOL0     H33687   3.744   3.119   2.122 -3.0131 -1.5502 -0.2037
  969MOL0     H33688   3.907   3.310   2.081  0.8924  3.1098 -1.3964
  969MOL0     H33689   3.899   3.190   1.949 -0.3323  0.0351 -0.1243
  969MOL0     H33690   3.741   3.441   1.905  0.7210  1.4789 -0.8096
  969MOL0     H33691   3.811   3.322   1.793 -0.3179  2.3120 -0.4528
  969MOL0     H33692   4.031   3.399   1.882  0.7935  0.5342  0.1007
  969MOL0     H33693   3.943   3.529   1.971  1.8600 -1.5562  1.4866
  969MOL0     H33694   3.983   3.473   1.682 -1.1180 -0.6820  0.6919
  969MOL0     H33695   3.835   3.567   1.724  0.9221 -0.5941 -1.5455
  969MOL0     H33696   4.135   3.635   1.784 -0.1828  1.3110 -2.3520
  969MOL0     H33697   4.009   3.731   1.852 -0.2095 -1.0877  1.4672
  969MOL0     H33698   3.917   3.779   1.602  0.4377  2.2941 -1.3962
  969MOL0     H33699   4.055   3.687   1.547 -1.6488  1.4445 -2.4954
  969MOL0     H33700   4.055   3.932   1.715  1.9464 -3.8877  3.0722
  969MOL0     H33701   4.076   3.929   1.532 -0.6456  1.2592  0.0040
  969MOL0     H33702   3.459   3.342   2.085  1.0842  0.0875  0.3087
  969MOL0     H33703   3.228   3.308   2.159  1.5445  1.5853 -2.2464
  969MOL0     H33704   2.871   2.945   2.128 -1.2264  1.2455 -0.4039
  969MOL0     H33705   2.623   2.940   2.169  2.9574 -3.5024 -1.4699
  969MOL0     H33706   1.076   3.081   1.421 -0.4599 -0.1189 -1.0905
  969MOL0     H33707   0.846   3.141   1.339  0.5358  1.0509 -2.5338
  969MOL0     H33708   0.501   3.352   1.331  0.9323 -2.2037 -1.5099
  969MOL0     H33709   0.269   3.391   1.276 -1.7272 -0.8343 -0.3475
  969MOL0     H33710   0.213   3.670   0.962  1.9796 -2.4579 -0.4468
  969MOL0     H33711   0.045   3.636   0.974  0.2393  1.6831  0.5545
  969MOL0     H33712   0.094   3.813   1.117 -1.0036 -0.4774 -1.9236
  969MOL0     H33713   0.228   3.720   1.207  0.1703 -0.0796 -0.1431
  969MOL0     H33714  -0.060   3.648   1.219  0.1061  0.6490 -0.4850
  969MOL0     H33715   0.063   3.559   1.291 -0.6064  0.5216 -0.3939
  969MOL0     H33716   0.138   3.773   1.421  1.4980 -1.3592 -1.8538
  969MOL0     H33717  -0.020   3.698   1.460 -0.5391 -0.1533 -0.6916
  969MOL0     H33718  -0.182   4.061   1.321  0.2579 -1.5525  0.1934
  969MOL0     H33719   0.368   3.525   0.886  0.3977  0.4147 -0.7467
  969MOL0     H33720   0.572   3.486   0.794 -2.2047 -2.8263  1.1008
  969MOL0     H33721   0.688   3.568   0.893 -2.8711  1.8975  0.2304
  969MOL0     H33722   0.692   3.387   0.863 -3.6424 -3.1205 -0.4373
  970MOL0     O33723   4.417   7.877   0.826  0.3020  0.3413  0.7198
  970MOL0     C33724   4.360   7.984   0.821 -0.5364  0.1644  0.7078
  970MOL0     O33725   4.374   8.074   0.717 -0.1327 -0.0636 -0.5948
  970MOL0     C33726   4.470   8.047   0.620 -0.4463 -0.8860  0.6115
  970MOL0     C33727   4.613   8.039   0.632 -0.0459  0.1191  0.4001
  970MOL0     C33728   4.692   8.006   0.519 -0.0074  0.2511 -0.0851
  970MOL0     C33729   4.639   7.958   0.400  0.1190  0.3693  1.3217
  970MOL0     O33730   4.709   7.893   0.304 -0.3624 -0.4364 -0.1289
  970MOL0     C33731   4.833   7.828   0.342  0.2852  0.0107  0.0625
  970MOL0     C33732   4.864   7.704   0.247 -0.1061 -0.1764 -0.1937
  970MOL0     C33733   4.994   7.626   0.273 -0.1060 -0.3620  0.5143
  970MOL0     C33734   5.008   7.562   0.408  0.0812 -0.0536  0.3082
  970MOL0     C33735   5.093   7.436   0.423 -0.5645  1.0086 -0.2603
  970MOL0     C33736   5.237   7.468   0.379 -0.2882  0.0072 -0.1834
  970MOL0     C33737   5.318   7.339   0.391 -0.6008 -0.3281 -0.7190
  970MOL0     C33738   5.468   7.392   0.400 -0.0202 -0.6478 -0.0333
  970MOL0     N33739   5.558   7.274   0.425  0.4790 -0.8966 -0.1881
  970MOL0     C33740   5.545   7.147   0.368  0.2829  0.0308 -0.1673
  970MOL0     C33741   5.653   7.082   0.417 -0.8291  0.0418  0.9332
  970MOL0     C33742   5.674   6.935   0.394  0.2886 -1.0627  0.3104
  970MOL0     C33743   5.566   6.854   0.453  1.0928  0.3955 -0.6397
  970MOL0     C33744   5.574   6.862   0.610 -0.3696  0.4330 -0.0971
  970MOL0     C33745   5.483   6.761   0.671  0.4380  0.0150 -1.2990
  970MOL0     O33746   5.346   6.791   0.662 -0.0912  0.8174  0.5489
  970MOL0     C33747   5.276   6.843   0.766  0.0204  0.0544 -0.5343
  970MOL0     C33748   5.221   6.761   0.858  0.2889  0.3520  0.5802
  970MOL0     C33749   5.152   6.811   0.972  0.0794 -0.5213  0.0423
  970MOL0     C33750   5.102   6.702   1.061  0.6760  0.2823 -0.0739
  970MOL0     C33751   5.149   6.949   1.002  0.0079 -0.4779 -0.0122
  970MOL0     C33752   5.090   7.012   1.123  0.3271 -0.7253 -0.3331
  970MOL0     O33753   5.084   7.154   1.131 -0.8277  0.0629 -0.3128
  970MOL0     C33754   5.022   7.222   1.238  0.4642 -0.4796 -0.2541
  970MOL0     C33755   5.038   7.205   1.375  0.2827  0.4320 -0.8865
  970MOL0     C33756   4.969   7.282   1.464  0.2145  0.2893 -0.5800
  970MOL0     C33757   4.893   7.397   1.422  0.0429  0.4023 -0.3252
  970MOL0     O33758   4.832   7.455   1.529 -0.5535  0.4532  0.1324
  970MOL0     C33759   4.805   7.599   1.523 -0.8029  0.1837  0.1329
  970MOL0     C33760   4.657   7.630   1.530 -0.1657 -0.4222 -0.3537
  970MOL0     C33761   4.625   7.775   1.522  0.6192  0.2945  0.1346
  970MOL0     C33762   4.485   7.797   1.487 -0.2280 -0.1931 -0.6766
  970MOL0     C33763   4.446   7.944   1.494  0.5263  0.6974 -0.3320
  970MOL0     C33764   4.531   8.038   1.408  0.4684 -0.1920 -0.8111
  970MOL0     C33765   4.449   8.166   1.394 -0.0895 -0.2398  0.1326
  970MOL0     C33766   4.533   8.291   1.408 -0.8963  0.0690 -0.2787
  970MOL0    Cl33767   4.434   8.441   1.407 -0.3881 -0.4496 -0.1601
  970MOL0     C33768   4.892   7.434   1.290  0.9739 -0.0061  0.3843
  970MOL0     C33769   4.952   7.338   1.196 -0.3562  0.3126  0.4029
  970MOL0     O33770   5.049   6.935   1.206 -0.1415  0.1857  0.2563
  970MOL0     C33771   5.191   7.036   0.897  0.2990 -0.3224  0.7646
  970MOL0     C33772   5.257   6.982   0.785  0.0108  0.0329 -0.5256
  970MOL0     N33773   5.729   7.165   0.499 -0.1368  0.1669  0.0779
  970MOL0     N33774   5.670   7.281   0.491 -0.4521  0.2222 -0.2951
  970MOL0     C33775   4.497   7.967   0.386  0.6695  0.2077 -0.4658
  970MOL0     C33776   4.417   8.010   0.491 -0.1544  1.2174 -0.2397
  970MOL0     C33777   4.269   8.028   0.927 -1.0258 -0.1892  0.2369
  970MOL0     C33778   4.189   8.144   0.912  0.3741 -0.4803 -0.1301
  970MOL0     C33779   4.096   8.179   1.015  0.5254 -0.8137  0.3826
  970MOL0     C33780   4.069   8.102   1.129  0.4165  0.7979  0.6137
  970MOL0     O33781   3.961   8.134   1.207  0.0692 -0.0124  0.1729
  970MOL0     C33782   3.914   8.032   1.288 -0.0199 -0.4381 -0.4389
  970MOL0     C33783   3.770   8.072   1.323 -0.4386  0.3707  0.7164
  970MOL0     C33784   3.745   8.027   1.469  0.0839  0.2964  0.6381
  970MOL0     C33785   3.614   8.075   1.532 -0.5896  0.7688 -0.9813
  970MOL0     C33786   3.626   8.224   1.546 -0.2184  0.2793  0.4585
  970MOL0     C33787   3.629   8.342   1.555  0.0299 -0.7674 -0.0881
  970MOL0     C33788   4.160   8.000   1.151  0.8963  0.7314  0.3729
  970MOL0     C33789   4.256   7.967   1.054  0.1552  0.1940  0.2451
  970MOL0     C33790   4.354   7.862   1.103 -0.5140  0.4318 -0.8001
  970MOL0     H33791   4.662   8.048   0.728  2.7810  0.0409 -0.9356
  970MOL0     H33792   4.799   8.022   0.521  0.8136 -3.8651 -0.5216
  970MOL0     H33793   4.848   7.804   0.447  0.0154  1.1752  0.3832
  970MOL0     H33794   4.908   7.907   0.330  1.1025 -0.1667  3.2181
  970MOL0     H33795   4.779   7.637   0.265  1.1892 -1.6952  0.5663
  970MOL0     H33796   4.863   7.729   0.141  0.6620 -1.6158 -0.5667
  970MOL0     H33797   4.990   7.548   0.195 -0.8770  2.3060 -2.3160
  970MOL0     H33798   5.079   7.686   0.241  0.9583 -2.2419 -0.3748
  970MOL0     H33799   5.036   7.628   0.491  0.1678 -1.0515  1.1008
  970MOL0     H33800   4.906   7.525   0.422 -0.1238 -0.9623 -2.9001
  970MOL0     H33801   5.059   7.361   0.351  1.2477  2.0495 -2.3430
  970MOL0     H33802   5.097   7.389   0.522 -0.0166  0.7366 -0.4037
  970MOL0     H33803   5.242   7.503   0.275  1.6515  0.4212  0.0143
  970MOL0     H33804   5.277   7.544   0.447  0.9678  0.4239 -1.3435
  970MOL0     H33805   5.311   7.275   0.303 -0.1932 -1.3593 -0.0232
  970MOL0     H33806   5.286   7.285   0.480 -0.7405 -3.0559 -2.3024
  970MOL0     H33807   5.505   7.443   0.310  0.2562 -1.0794 -0.1685
  970MOL0     H33808   5.470   7.460   0.486 -3.1334  0.8746 -1.0063
  970MOL0     H33809   5.475   7.112   0.293 -0.4370  0.9498  0.0627
  970MOL0     H33810   5.772   6.912   0.438  0.3574  2.4381  2.3789
  970MOL0     H33811   5.683   6.920   0.286 -1.2094  0.2205 -0.0230
  970MOL0     H33812   5.475   6.908   0.427 -0.5326 -0.9017  1.8885
  970MOL0     H33813   5.580   6.751   0.419  1.5208 -0.1424  1.0892
  970MOL0     H33814   5.675   6.849   0.650 -0.4697 -2.1963 -0.5152
  970MOL0     H33815   5.538   6.962   0.634 -0.7720  0.3673 -0.4239
  970MOL0     H33816   5.497   6.658   0.638 -2.3392 -1.1379  0.7142
  970MOL0     H33817   5.497   6.757   0.780 -0.0696  2.8918 -1.0311
  970MOL0     H33818   5.230   6.657   0.827 -1.2688  0.3848 -0.1015
  970MOL0     H33819   5.004   6.732   1.099  1.1401  3.0360 -0.8797
  970MOL0     H33820   5.177   6.681   1.138 -0.7866 -2.1116  0.8326
  970MOL0     H33821   5.095   6.605   1.009 -0.3615 -0.0025  0.5712
  970MOL0     H33822   5.097   7.126   1.420 -0.2280 -0.4127 -1.6882
  970MOL0     H33823   4.970   7.256   1.570  0.1630  1.3061 -0.3105
  970MOL0     H33824   4.844   7.650   1.612 -2.5246  1.2968  0.3019
  970MOL0     H33825   4.850   7.653   1.439 -1.6308 -0.7210 -0.9264
  970MOL0     H33826   4.603   7.579   1.450 -0.7403  0.5196 -0.5852
  970MOL0     H33827   4.618   7.589   1.624  2.3207 -2.7289 -0.2336
  970MOL0     H33828   4.678   7.827   1.441 -1.2006  0.3356 -1.0773
  970MOL0     H33829   4.639   7.830   1.615  1.0927 -1.0963  0.9174
  970MOL0     H33830   4.431   7.729   1.554  1.0492 -0.7183 -0.1521
  970MOL0     H33831   4.459   7.774   1.383 -3.1356  0.1452 -0.1151
  970MOL0     H33832   4.345   7.948   1.451  0.5173  1.5301 -0.2386
  970MOL0     H33833   4.435   7.968   1.600 -0.9073 -0.3482 -0.2039
  970MOL0     H33834   4.563   7.997   1.312  1.1760 -1.7205  0.0302
  970MOL0     H33835   4.621   8.060   1.465 -0.9222  2.3314  0.5972
  970MOL0     H33836   4.375   8.184   1.472  1.2952 -1.2926  1.7601
  970MOL0     H33837   4.406   8.158   1.294 -1.1612 -3.6207  0.7582
  970MOL0     H33838   4.607   8.301   1.327 -1.0580  1.4866 -0.2755
  970MOL0     H33839   4.594   8.286   1.499  0.1531  0.0334 -0.9643
  970MOL0     H33840   4.851   7.525   1.247  4.4019 -0.2348 -4.1160
  970MOL0     H33841   4.956   7.352   1.089  0.4263 -0.6354  0.2998
  970MOL0     H33842   5.181   7.144   0.912 -3.2776 -0.5803  1.3137
  970MOL0     H33843   5.302   7.046   0.710  2.8623  0.8936  1.7273
  970MOL0     H33844   4.431   7.947   0.302  0.9560 -1.4394 -0.3326
  970MOL0     H33845   4.309   8.000   0.482 -0.2157  1.5864  0.0989
  970MOL0     H33846   4.185   8.206   0.823  0.9995  0.5641  0.5469
  970MOL0     H33847   4.035   8.268   1.005  0.6806 -0.7139  0.3315
  970MOL0     H33848   3.917   7.926   1.261 -1.5267 -0.9865  1.3390
  970MOL0     H33849   3.979   8.035   1.376 -0.5514 -0.2510 -0.0490
  970MOL0     H33850   3.701   8.022   1.255 -0.6966 -2.4474  2.8633
  970MOL0     H33851   3.749   8.179   1.315 -0.5843  0.2243 -1.5475
  970MOL0     H33852   3.751   7.918   1.474  1.0930  0.1671 -1.9418
  970MOL0     H33853   3.824   8.070   1.532  0.0384  1.2470  0.0614
  970MOL0     H33854   3.592   8.023   1.625 -0.1010 -2.8030 -2.6841
  970MOL0     H33855   3.535   8.057   1.459 -0.1651  1.7052 -1.6989
  970MOL0     H33856   3.635   8.449   1.554 -3.3682 -0.4341 -2.1982
  970MOL0     H33857   4.156   7.940   1.241  1.0968 -0.1168 -0.1659
  970MOL0     H33858   4.359   7.778   1.033  1.6158 -2.6801  2.6653
  970MOL0     H33859   4.456   7.902   1.098 -0.2009 -0.0284  0.9217
  970MOL0     H33860   4.336   7.839   1.209  1.4478  3.7684  0.4006
  971MOL0     O33861   5.997   0.032   1.888  0.5549 -0.4816  0.1245
  971MOL0     C33862   5.876   0.010   1.904 -0.8824 -1.0803 -0.0409
  971MOL0     O33863   5.820  -0.096   1.976  0.3059  0.7461  0.5959
  971MOL0     C33864   5.883  -0.219   1.983  0.0754  0.5456  0.0783
  971MOL0     C33865   5.803  -0.329   1.984  0.5199  0.5108  0.1604
  971MOL0     C33866   5.843  -0.459   2.002 -0.7733 -0.0222 -0.1194
  971MOL0     C33867   5.977  -0.477   2.032 -0.2368 -0.5155  0.0682
  971MOL0     O33868   6.026  -0.603   2.050 -0.5397 -0.4591  0.4729
  971MOL0     C33869   5.948  -0.699   2.112 -0.4506 -0.2323  0.0914
  971MOL0     C33870   6.009  -0.832   2.086 -0.0757  0.0590 -0.8218
  971MOL0     C33871   6.166  -0.855   2.112 -0.1200 -1.0749 -0.6935
  971MOL0     C33872   6.195  -0.991   2.037  0.0446  0.0824 -0.2330
  971MOL0     C33873   6.348  -1.022   2.074  0.0790 -0.2295  0.0611
  971MOL0     C33874   6.391  -1.159   2.023 -0.8064  0.1422 -0.2636
  971MOL0     C33875   6.537  -1.195   2.051  0.9560  0.6715 -0.3608
  971MOL0     C33876   6.573  -1.326   1.988 -1.0332  0.4180  0.0678
  971MOL0     N33877   6.538  -1.437   2.068  0.5246  0.7243  0.5806
  971MOL0     C33878   6.424  -1.521   2.045 -0.2040 -0.0852  0.0991
  971MOL0     C33879   6.442  -1.618   2.134  0.5242 -0.0298  0.2683
  971MOL0     C33880   6.351  -1.731   2.146  0.2325  0.1831 -0.0992
  971MOL0     C33881   6.398  -1.852   2.084 -0.1502  1.1765 -0.6138
  971MOL0     C33882   6.301  -1.974   2.079 -0.0173 -0.4586 -0.1516
  971MOL0     C33883   6.370  -2.093   2.016  0.0426 -0.2592  0.3400
  971MOL0     O33884   6.492  -2.132   2.085  0.1387 -0.2552  0.4076
  971MOL0     C33885   6.484  -2.179   2.212  0.1646 -0.1755 -0.5147
  971MOL0     C33886   6.555  -2.117   2.315 -0.1655 -0.2978 -0.0738
  971MOL0     C33887   6.553  -2.162   2.449  0.0143  0.9630  0.7282
  971MOL0     C33888   6.621  -2.075   2.553 -0.2622 -0.0854 -0.3594
  971MOL0     C33889   6.481  -2.279   2.474  0.4639  0.2563  0.2613
  971MOL0     C33890   6.497  -2.353   2.596  0.7876 -0.5417 -0.6241
  971MOL0     O33891   6.395  -2.442   2.622  0.2903  0.6496 -0.9839
  971MOL0     C33892   6.420  -2.531   2.724  0.2666 -0.5169  1.2631
  971MOL0     C33893   6.360  -2.520   2.844 -0.0997  0.1142 -0.3135
  971MOL0     C33894   6.384  -2.616   2.941 -0.6116  0.5195 -0.7068
  971MOL0     C33895   6.475  -2.720   2.918 -0.1015 -0.2425 -1.3102
  971MOL0     O33896   6.498  -2.816   3.016 -0.8298 -0.1354 -0.5665
  971MOL0     C33897   6.547  -2.947   2.983 -0.0653  0.3617 -0.4019
  971MOL0     C33898   6.479  -3.049   3.074 -0.6636 -0.0642 -0.8819
  971MOL0     C33899   6.337  -3.076   3.016 -0.3478  0.7452  0.7394
  971MOL0     C33900   6.277  -3.197   3.089 -0.2460  0.0407  0.5457
  971MOL0     C33901   6.131  -3.220   3.043  0.3429 -0.3368  1.2065
  971MOL0     C33902   6.065  -3.337   3.111 -0.4708 -0.4314 -0.1495
  971MOL0     C33903   5.907  -3.324   3.102  0.5549 -0.1149 -0.7347
  971MOL0     C33904   5.842  -3.336   2.965 -0.3414  0.2727  0.5580
  971MOL0    Cl33905   5.815  -3.507   2.949  0.1515  0.3925 -0.4909
  971MOL0     C33906   6.546  -2.732   2.801  0.2097  0.3490 -0.1742
  971MOL0     C33907   6.517  -2.638   2.705  0.8561 -0.2687  0.5657
  971MOL0     O33908   6.605  -2.342   2.658 -0.5798 -0.5310 -0.1780
  971MOL0     C33909   6.414  -2.342   2.366 -0.2972  1.1276 -0.3723
  971MOL0     C33910   6.414  -2.287   2.238  0.3560  0.5926  0.1466
  971MOL0     N33911   6.549  -1.590   2.214 -1.0448  0.2473 -0.0815
  971MOL0     N33912   6.613  -1.490   2.164  0.0234 -0.6955  0.3634
  971MOL0     C33913   6.062  -0.363   2.033  0.0963 -0.0486 -0.5943
  971MOL0     C33914   6.021  -0.237   2.001  0.5233 -0.0993 -0.3971
  971MOL0     C33915   5.791   0.113   1.834  0.2812 -0.7939 -0.3123
  971MOL0     C33916   5.810   0.252   1.865  0.4089 -0.4337  0.1960
  971MOL0     C33917   5.726   0.353   1.816  1.0014  0.5835  0.3632
  971MOL0     C33918   5.607   0.325   1.748 -0.5333  0.1439  0.2815
  971MOL0     O33919   5.531   0.434   1.722  0.6577  0.3866  0.2053
  971MOL0     C33920   5.390   0.412   1.680 -0.1854  0.0992  0.1322
  971MOL0     C33921   5.331   0.549   1.638  0.4855  0.1380 -0.0675
  971MOL0     C33922   5.388   0.609   1.515 -1.1439 -0.5439  0.0307
  971MOL0     C33923   5.310   0.729   1.465 -0.3902 -0.6725 -0.5720
  971MOL0     C33924   5.362   0.762   1.333 -0.3566  1.9292  0.8337
  971MOL0     C33925   5.411   0.796   1.230  0.9072 -0.3179 -0.4772
  971MOL0     C33926   5.584   0.185   1.718 -0.2184 -0.7877  0.4256
  971MOL0     C33927   5.669   0.086   1.770  0.3667 -0.2534  0.1799
  971MOL0     C33928   5.618  -0.048   1.743 -0.4320  0.5085  0.9983
  971MOL0     H33929   5.697  -0.316   1.966  0.6974 -1.3599 -3.0650
  971MOL0     H33930   5.763  -0.531   1.994 -2.2323  1.6263 -1.1442
  971MOL0     H33931   5.854  -0.706   2.056 -0.3543  1.1079 -0.2969
  971MOL0     H33932   5.923  -0.674   2.216  0.9553  0.5161  0.2647
  971MOL0     H33933   5.955  -0.902   2.151  2.1253 -0.7839  0.1988
  971MOL0     H33934   5.987  -0.860   1.982 -2.0945  1.3157 -0.7892
  971MOL0     H33935   6.214  -0.768   2.066  0.9157  0.2470  2.5944
  971MOL0     H33936   6.189  -0.862   2.219 -1.2188 -2.3004 -0.5123
  971MOL0     H33937   6.132  -1.069   2.080  0.8884 -0.1968  0.5313
  971MOL0     H33938   6.183  -0.972   1.930 -2.5420  1.2250  0.1845
  971MOL0     H33939   6.360  -1.000   2.181 -0.1393  0.4631 -0.0507
  971MOL0     H33940   6.408  -0.948   2.020  0.5883 -0.6736  0.0080
  971MOL0     H33941   6.320  -1.239   2.048 -2.9818  2.3847  1.2069
  971MOL0     H33942   6.389  -1.149   1.915 -1.6134  0.5383 -0.2222
  971MOL0     H33943   6.543  -1.202   2.160 -0.0224  1.4498 -0.2426
  971MOL0     H33944   6.595  -1.110   2.015 -2.5209  2.8614 -1.3041
  971MOL0     H33945   6.539  -1.347   1.887  2.5259 -0.1788 -1.1713
  971MOL0     H33946   6.682  -1.319   1.976 -1.0935  1.4292  0.0642
  971MOL0     H33947   6.362  -1.512   1.956 -0.4616  2.4394  0.4665
  971MOL0     H33948   6.249  -1.711   2.114  0.4498 -0.5062 -1.2783
  971MOL0     H33949   6.337  -1.756   2.251 -1.6833  0.8068 -0.1712
  971MOL0     H33950   6.428  -1.851   1.979  1.3939 -0.7987 -0.2553
  971MOL0     H33951   6.480  -1.883   2.149 -1.4801  0.6463  0.8845
  971MOL0     H33952   6.270  -2.008   2.179  3.7067 -0.9906  0.9789
  971MOL0     H33953   6.210  -1.953   2.023  1.2714  1.6364 -1.5558
  971MOL0     H33954   6.297  -2.173   1.999 -0.0032 -0.2991  0.7327
  971MOL0     H33955   6.403  -2.055   1.918 -1.9013  0.0971 -0.2298
  971MOL0     H33956   6.610  -2.025   2.293  3.0184 -1.8285  0.8520
  971MOL0     H33957   6.547  -2.054   2.632  0.3903  1.6973 -0.1597
  971MOL0     H33958   6.640  -1.972   2.520 -3.6031  0.2571 -1.6189
  971MOL0     H33959   6.705  -2.131   2.595 -1.2360 -0.3679  1.3371
  971MOL0     H33960   6.292  -2.439   2.867  1.1173  0.8629  0.7990
  971MOL0     H33961   6.324  -2.601   3.030 -0.5309 -0.5545 -0.4523
  971MOL0     H33962   6.531  -2.973   2.878 -0.2081  0.4122 -0.3935
  971MOL0     H33963   6.655  -2.948   3.000 -0.0792  0.7921 -0.2754
  971MOL0     H33964   6.541  -3.138   3.068 -0.6803 -0.1351 -0.1583
  971MOL0     H33965   6.469  -3.026   3.181 -1.2712 -3.0206 -0.2081
  971MOL0     H33966   6.356  -3.101   2.911 -2.8123 -0.3912  0.5003
  971MOL0     H33967   6.270  -2.990   3.013 -0.9007  0.3156  0.6960
  971MOL0     H33968   6.285  -3.186   3.197 -1.9940  0.5807  0.6480
  971MOL0     H33969   6.334  -3.285   3.057 -3.6979 -1.5907 -1.7523
  971MOL0     H33970   6.074  -3.127   3.056  0.5076 -0.2470  1.2912
  971MOL0     H33971   6.122  -3.236   2.935  0.6429 -2.3332  1.4517
  971MOL0     H33972   6.092  -3.323   3.216 -3.0529  2.1481  0.2895
  971MOL0     H33973   6.109  -3.430   3.073 -1.6812 -0.9782 -0.2669
  971MOL0     H33974   5.887  -3.226   3.145  3.6898 -0.2498  1.3872
  971MOL0     H33975   5.865  -3.403   3.165  0.8827  0.3221  0.0399
  971MOL0     H33976   5.912  -3.305   2.888 -1.8739 -0.4126 -1.1766
  971MOL0     H33977   5.741  -3.295   2.951 -0.0808 -0.2328 -4.6929
  971MOL0     H33978   6.630  -2.799   2.781  1.2389  1.1503  1.3091
  971MOL0     H33979   6.548  -2.648   2.601 -0.1707  0.9514  0.1189
  971MOL0     H33980   6.374  -2.441   2.385  2.4974  0.0094  0.2092
  971MOL0     H33981   6.363  -2.339   2.157 -4.4855  1.3121  2.3681
  971MOL0     H33982   6.169  -0.371   2.051  0.1938  2.5950  0.4861
  971MOL0     H33983   6.086  -0.150   2.008 -0.4215  0.4743  2.6561
  971MOL0     H33984   5.890   0.282   1.930 -0.2499 -1.6561  1.6217
  971MOL0     H33985   5.754   0.450   1.854 -2.6473  1.5348  0.9677
  971MOL0     H33986   5.392   0.341   1.597  0.8057 -0.1328  0.3419
  971MOL0     H33987   5.321   0.364   1.751  2.0152 -0.3609  2.0599
  971MOL0     H33988   5.337   0.621   1.719 -0.4937  0.0378  0.1136
  971MOL0     H33989   5.228   0.519   1.614  1.1449 -1.9238 -0.5464
  971MOL0     H33990   5.494   0.628   1.534 -0.8229 -1.9338 -0.2556
  971MOL0     H33991   5.386   0.523   1.447  0.1664 -1.1864  0.7584
  971MOL0     H33992   5.310   0.817   1.529 -1.7654  1.0563 -2.7961
  971MOL0     H33993   5.203   0.705   1.463 -1.3819  3.2080 -1.7019
  971MOL0     H33994   5.456   0.844   1.146  1.7694  1.1514  0.7855
  971MOL0     H33995   5.504   0.151   1.652  0.2827 -0.6449 -0.2697
  971MOL0     H33996   5.584  -0.053   1.639  0.4520 -0.0070  0.7293
  971MOL0     H33997   5.692  -0.128   1.742 -0.7979  0.1451 -0.3950
  971MOL0     H33998   5.534  -0.086   1.802  0.6597 -1.5907  1.2719
  972MOL0     O33999   5.392  10.198  10.324  0.4541  0.0672 -0.3496
  972MOL0     C34000   5.281  10.166  10.295  0.5908  0.0758 -0.3900
  972MOL0     O34001   5.224  10.048  10.332  0.0153 -0.2309 -0.2716
  972MOL0     C34002   5.299   9.946  10.388 -0.4759 -0.5252  0.0866
  972MOL0     C34003   5.424   9.910  10.338 -1.4213  0.9299  0.1686
  972MOL0     C34004   5.488   9.792  10.391 -0.0488 -0.3558 -1.0390
  972MOL0     C34005   5.435   9.717  10.491  0.0340  0.2540  0.1795
  972MOL0     O34006   5.507   9.613  10.552  0.8525 -1.2931  0.0234
  972MOL0     C34007   5.437   9.495  10.581  0.1785  0.5019  0.0199
  972MOL0     C34008   5.550   9.384  10.592 -0.1800 -0.1152 -0.7045
  972MOL0     C34009   5.509   9.273  10.691  0.2092 -0.4591 -0.4296
  972MOL0     C34010   5.367   9.210  10.670 -0.4097  1.0727 -0.3083
  972MOL0     C34011   5.308   9.137  10.794  0.3477  0.5386 -0.5896
  972MOL0     C34012   5.167   9.086  10.767 -1.0267 -0.3839 -0.6632
  972MOL0     C34013   5.083   9.077  10.898 -0.3775  0.0271  0.4192
  972MOL0     C34014   5.054   9.220  10.952  0.0072 -0.0346  0.2835
  972MOL0     N34015   4.916   9.227  11.000 -0.2113  0.7322 -0.1875
  972MOL0     C34016   4.802   9.230  10.928 -0.6130  0.8210  0.0603
  972MOL0     C34017   4.706   9.269  11.014  0.3303  1.0135  0.7958
  972MOL0     C34018   4.563   9.316  10.982 -0.5269 -0.0082 -0.7852
  972MOL0     C34019   4.483   9.234  10.887 -0.7393 -0.0519  0.3483
  972MOL0     C34020   4.430   9.317  10.777  0.4720  0.0243  0.7254
  972MOL0     C34021   4.403   9.223  10.654 -0.0494 -0.1757 -0.7129
  972MOL0     O34022   4.397   9.323  10.545 -0.2849  0.4353  0.8819
  972MOL0     C34023   4.447   9.275  10.427 -0.4985  0.3966 -0.3643
  972MOL0     C34024   4.558   9.347  10.379  0.6151  0.2359  1.0860
  972MOL0     C34025   4.626   9.304  10.265  0.7148 -0.4183  1.0685
  972MOL0     C34026   4.743   9.384  10.212  0.0539 -0.3717 -0.3357
  972MOL0     C34027   4.581   9.183  10.198  0.1809  0.6015 -0.2234
  972MOL0     C34028   4.645   9.118  10.075 -0.1818 -0.3168 -0.9907
  972MOL0     O34029   4.680   8.988  10.090  0.2013 -0.4005  0.2050
  972MOL0     C34030   4.787   8.946  10.031 -0.3665  0.2425 -0.2190
  972MOL0     C34031   4.784   8.815   9.992  1.0577 -0.2299  0.2330
  972MOL0     C34032   4.880   8.761   9.917 -0.1991  0.2499  0.1009
  972MOL0     C34033   4.994   8.833   9.888  0.0173  0.0033 -0.5537
  972MOL0     O34034   5.085   8.772   9.806 -0.5282 -0.1085 -0.2779
  972MOL0     C34035   5.195   8.849   9.753  0.7296 -0.6298 -0.6480
  972MOL0     C34036   5.256   8.776   9.640 -0.0011 -0.0699  0.1258
  972MOL0     C34037   5.138   8.752   9.535 -0.6612  0.4823  0.5848
  972MOL0     C34038   5.198   8.660   9.428 -0.6563  0.6546  0.8895
  972MOL0     C34039   5.095   8.616   9.322  0.1096  0.0016  0.0007
  972MOL0     C34040   5.139   8.499   9.229  0.6176 -0.9307  0.1909
  972MOL0     C34041   5.263   8.528   9.159 -0.4306  0.2858 -1.0811
  972MOL0     C34042   5.255   8.658   9.070 -0.2807 -0.0069 -0.5620
  972MOL0    Cl34043   5.398   8.687   8.969 -0.2100  0.3201 -0.3254
  972MOL0     C34044   5.011   8.962   9.941 -0.5279 -0.1445 -0.3030
  972MOL0     C34045   4.910   9.015  10.026 -0.5321 -0.1773  0.6739
  972MOL0     O34046   4.682   9.198   9.989  0.4428  0.8551  0.0671
  972MOL0     C34047   4.468   9.118  10.248  1.0475 -0.6339  0.7009
  972MOL0     C34048   4.396   9.164  10.360 -0.5802  0.5007  0.4427
  972MOL0     N34049   4.758   9.273  11.143 -0.3185 -0.2342  0.2849
  972MOL0     N34050   4.881   9.255  11.137 -0.3243 -0.3582 -0.0630
  972MOL0     C34051   5.313   9.758  10.543 -0.0851  0.8476  0.5151
  972MOL0     C34052   5.247   9.868  10.491 -0.0595  0.0407  0.7426
  972MOL0     C34053   5.198  10.255  10.229  0.8122 -0.4148  0.7147
  972MOL0     C34054   5.063  10.258  10.254 -0.5756 -0.5478 -1.0117
  972MOL0     C34055   4.980  10.357  10.190 -0.2648 -0.2261  0.2657
  972MOL0     C34056   5.031  10.461  10.114  0.1298  0.5480 -0.2930
  972MOL0     O34057   4.946  10.552  10.071  0.4619 -0.2315 -0.0134
  972MOL0     C34058   5.001  10.663  10.008 -0.1744  0.2947  0.3745
  972MOL0     C34059   4.883  10.762   9.978  0.1459 -1.1247 -0.1980
  972MOL0     C34060   4.763  10.694   9.917 -0.1897 -0.5736 -0.1698
  972MOL0     C34061   4.657  10.790   9.866  0.0501 -0.0056  0.0970
  972MOL0     C34062   4.711  10.873   9.758  0.3475  1.0723  0.0091
  972MOL0     C34063   4.739  10.946   9.672  0.0467  0.3092 -0.5653
  972MOL0     C34064   5.171  10.462  10.090  0.2431  0.3752  0.1554
  972MOL0     C34065   5.247  10.353  10.136 -1.0259 -0.7585 -0.4522
  972MOL0     C34066   5.388  10.349  10.075  0.1418  0.6144 -0.2676
  972MOL0     H34067   5.487   9.967  10.270 -3.0124  1.0774 -1.2722
  972MOL0     H34068   5.585   9.759  10.356  0.2822  0.9393 -1.3820
  972MOL0     H34069   5.370   9.461  10.502 -0.9325  1.0831  0.6818
  972MOL0     H34070   5.378   9.507  10.673 -2.1029  4.4353 -1.6776
  972MOL0     H34071   5.562   9.330  10.498 -0.6858 -1.3537 -0.0728
  972MOL0     H34072   5.642   9.428  10.634 -0.8051 -0.1737  0.8001
  972MOL0     H34073   5.579   9.190  10.676 -0.6014 -1.4183  0.8837
  972MOL0     H34074   5.520   9.320  10.789  0.2525  1.4924 -1.3280
  972MOL0     H34075   5.298   9.291  10.643 -1.8431  0.0807  0.2362
  972MOL0     H34076   5.373   9.141  10.586  2.4182 -3.5469  3.1725
  972MOL0     H34077   5.311   9.199  10.884 -0.8270 -0.7486  0.3677
  972MOL0     H34078   5.372   9.050  10.810 -2.4387 -1.9495 -2.1058
  972MOL0     H34079   5.124   9.145  10.685  0.3318  0.0223 -1.1123
  972MOL0     H34080   5.177   8.986  10.724 -2.9771 -0.0611 -2.0268
  972MOL0     H34081   5.137   9.031  10.982  0.2201  1.5136  0.8726
  972MOL0     H34082   4.993   9.020  10.870 -0.8437  1.0134 -0.1547
  972MOL0     H34083   5.135   9.258  11.015  0.4265 -2.7590  1.5293
  972MOL0     H34084   5.063   9.275  10.859  2.3203 -0.6413  0.0795
  972MOL0     H34085   4.799   9.220  10.820  1.8945 -2.3314  0.1350
  972MOL0     H34086   4.569   9.422  10.953  1.9621 -0.8402 -3.8807
  972MOL0     H34087   4.507   9.318  11.076 -0.0314  1.2807 -0.4843
  972MOL0     H34088   4.547   9.156  10.844 -0.1644  0.0080  1.0597
  972MOL0     H34089   4.417   9.177  10.953 -1.9568 -1.5496 -2.0486
  972MOL0     H34090   4.336   9.368  10.801  0.3014  1.2200 -2.0820
  972MOL0     H34091   4.500   9.394  10.744 -0.8962  0.7759 -0.5689
  972MOL0     H34092   4.480   9.148  10.638 -1.8300 -1.8970 -1.7243
  972MOL0     H34093   4.304   9.176  10.663 -0.9275  1.7855  0.5641
  972MOL0     H34094   4.599   9.428  10.437  3.1370 -0.9234  1.0472
  972MOL0     H34095   4.718   9.406  10.108 -1.8281 -0.6041  0.0342
  972MOL0     H34096   4.835   9.326  10.229 -0.3596 -0.1208  3.8005
  972MOL0     H34097   4.749   9.477  10.269 -1.3706 -0.6502  0.3131
  972MOL0     H34098   4.692   8.757   9.994  1.1118 -0.3683 -0.6759
  972MOL0     H34099   4.867   8.667   9.865  2.1794 -0.2005  0.1796
  972MOL0     H34100   5.153   8.945   9.722 -2.0467 -0.7842  2.1088
  972MOL0     H34101   5.271   8.888   9.822  1.7854  0.2810 -2.2673
  972MOL0     H34102   5.347   8.829   9.608 -0.3338  1.3389  1.4025
  972MOL0     H34103   5.291   8.679   9.678 -1.2077 -0.3937  0.4485
  972MOL0     H34104   5.113   8.846   9.486  0.6986  0.5871  0.0366
  972MOL0     H34105   5.048   8.704   9.575 -1.4658  1.7934  0.3719
  972MOL0     H34106   5.236   8.565   9.466  0.4608 -0.3502 -2.3953
  972MOL0     H34107   5.284   8.710   9.383 -2.3281 -0.4274 -4.1314
  972MOL0     H34108   5.006   8.578   9.373 -0.2540 -2.3084 -2.1613
  972MOL0     H34109   5.067   8.699   9.256 -0.7952  2.8215  3.6013
  972MOL0     H34110   5.059   8.467   9.163  0.9130 -3.1392  0.8309
  972MOL0     H34111   5.144   8.406   9.286 -1.5644 -2.6892 -2.2888
  972MOL0     H34112   5.296   8.444   9.098  1.3756  1.2954 -1.5688
  972MOL0     H34113   5.342   8.530   9.235 -4.4659  1.7529  3.6424
  972MOL0     H34114   5.235   8.748   9.129  2.7296 -0.4317  1.3452
  972MOL0     H34115   5.173   8.630   9.003 -0.3942  0.0147 -0.4310
  972MOL0     H34116   5.105   9.015   9.936  0.1179 -1.1521  0.5871
  972MOL0     H34117   4.942   9.110  10.067  0.0009  0.2751 -0.7225
  972MOL0     H34118   4.433   9.024  10.205  1.7321 -0.2170 -0.8345
  972MOL0     H34119   4.314   9.113  10.408  1.8228 -2.6632  1.5245
  972MOL0     H34120   5.271   9.704  10.627 -0.8638  0.3498 -0.1718
  972MOL0     H34121   5.169   9.907  10.557 -2.9125 -5.0700  0.8836
  972MOL0     H34122   5.009  10.181  10.309 -0.3529 -0.3037 -0.4433
  972MOL0     H34123   4.875  10.368  10.211 -0.1910  4.2088 -0.6801
  972MOL0     H34124   5.071  10.698  10.084  0.7604  0.5533 -0.5914
  972MOL0     H34125   5.050  10.652   9.911  1.8353  0.9358  1.2616
  972MOL0     H34126   4.925  10.844   9.920  2.6977 -1.2995  1.2694
  972MOL0     H34127   4.857  10.810  10.073 -0.0843 -3.9275  1.2758
  972MOL0     H34128   4.799  10.639   9.830 -2.5097 -0.3099 -1.3556
  972MOL0     H34129   4.722  10.630   9.995 -3.1883  1.7868  0.3854
  972MOL0     H34130   4.618  10.860   9.940  1.3777  1.6404 -0.6789
  972MOL0     H34131   4.581  10.724   9.823  1.7856  0.6627 -4.6689
  972MOL0     H34132   4.751  11.012   9.588 -1.1985  0.7332 -0.4393
  972MOL0     H34133   5.214  10.540  10.028  0.5373  0.6953  0.7434
  972MOL0     H34134   5.450  10.408  10.143 -2.1795  0.9483  1.6785
  972MOL0     H34135   5.417  10.244  10.068 -1.5594  0.0717  0.2704
  972MOL0     H34136   5.388  10.390   9.973  0.9828  0.2230 -0.4389
  973MOL0     O34137   5.965   6.759   5.731  0.2222  0.6451 -0.0669
  973MOL0     C34138   5.866   6.708   5.787 -0.1269 -0.2901 -0.1842
  973MOL0     O34139   5.747   6.681   5.724  0.2650  0.3750 -0.6179
  973MOL0     C34140   5.718   6.734   5.597  0.2304  0.4239  0.1267
  973MOL0     C34141   5.676   6.645   5.493  0.4047  0.3809 -0.2781
  973MOL0     C34142   5.660   6.701   5.369 -0.5017 -0.2555  0.4789
  973MOL0     C34143   5.680   6.837   5.341 -0.0234 -0.1407  0.4122
  973MOL0     O34144   5.653   6.881   5.211  0.5215  0.2067 -0.3319
  973MOL0     C34145   5.661   7.021   5.191  0.6583 -0.4536  0.0607
  973MOL0     C34146   5.607   7.055   5.052 -0.5806  0.3327  0.0176
  973MOL0     C34147   5.714   7.028   4.953  0.2792 -0.0704  1.1162
  973MOL0     C34148   5.684   7.060   4.805 -0.8004 -0.0909  0.3391
  973MOL0     C34149   5.807   7.019   4.711  0.3638 -0.0636  0.0443
  973MOL0     C34150   5.770   7.055   4.569 -0.4529  0.0478 -0.2043
  973MOL0     C34151   5.904   7.068   4.492 -0.7859 -0.0225 -0.0063
  973MOL0     C34152   5.874   7.100   4.350  0.3415  0.1568 -0.0017
  973MOL0     N34153   5.993   7.102   4.271 -0.1568 -0.5846 -0.4097
  973MOL0     C34154   6.097   7.016   4.273 -0.3557  0.6470 -0.5226
  973MOL0     C34155   6.173   7.048   4.164 -0.3902  0.0046  0.2299
  973MOL0     C34156   6.305   6.995   4.107  0.2036  0.3001 -0.5075
  973MOL0     C34157   6.292   6.840   4.116  0.0908 -0.1461  0.1843
  973MOL0     C34158   6.427   6.767   4.092 -0.4445  0.1852  0.2149
  973MOL0     C34159   6.474   6.682   4.218 -1.0051 -0.5229 -0.1903
  973MOL0     O34160   6.393   6.564   4.241 -0.1396 -0.7329  0.6142
  973MOL0     C34161   6.292   6.552   4.332  0.3324 -0.6445  0.4192
  973MOL0     C34162   6.208   6.444   4.328 -0.2008  0.1653 -0.7348
  973MOL0     C34163   6.101   6.421   4.411  0.4367 -0.1406  1.4353
  973MOL0     C34164   6.016   6.294   4.383 -0.6249 -0.4291 -0.8106
  973MOL0     C34165   6.066   6.519   4.509  0.2439  0.2072  0.7629
  973MOL0     C34166   5.935   6.522   4.581 -0.2307  0.4747 -0.8888
  973MOL0     O34167   5.900   6.647   4.633  0.7228 -0.6085 -0.8494
  973MOL0     C34168   5.796   6.645   4.716  0.2136  0.5529  0.2688
  973MOL0     C34169   5.815   6.637   4.856  0.9935 -0.4977  0.7096
  973MOL0     C34170   5.704   6.644   4.940 -0.2784  0.3356 -0.3892
  973MOL0     C34171   5.574   6.648   4.889  0.1108  0.6742  0.1933
  973MOL0     O34172   5.472   6.641   4.983 -0.0610 -0.2297  0.4475
  973MOL0     C34173   5.344   6.691   4.950 -0.5881  0.6930 -0.1137
  973MOL0     C34174   5.250   6.696   5.079 -0.5167  0.0450  0.2330
  973MOL0     C34175   5.294   6.811   5.169  0.0373 -0.2606 -0.0266
  973MOL0     C34176   5.236   6.774   5.309 -0.1825  0.3329  0.4885
  973MOL0     C34177   5.237   6.897   5.406 -0.1708 -0.2211  0.0082
  973MOL0     C34178   5.179   6.871   5.541  0.4094  0.5535  0.0091
  973MOL0     C34179   5.259   6.755   5.619  0.4163 -0.9042 -0.8111
  973MOL0     C34180   5.264   6.788   5.770 -0.8991  0.1045  0.4486
  973MOL0    Cl34181   5.349   6.936   5.814 -0.0447  0.4749  0.4332
  973MOL0     C34182   5.553   6.660   4.756  0.6124 -0.7501 -0.0494
  973MOL0     C34183   5.668   6.663   4.673 -0.1891 -0.2638  0.8112
  973MOL0     O34184   5.865   6.421   4.597  0.1238 -0.1326  0.2412
  973MOL0     C34185   6.147   6.637   4.511 -0.5327 -0.2875  0.0862
  973MOL0     C34186   6.261   6.651   4.429  0.4686  0.1833  0.2026
  973MOL0     N34187   6.115   7.154   4.102 -0.1162  0.0424  0.1340
  973MOL0     N34188   6.017   7.197   4.172  0.0133  0.4591 -0.2804
  973MOL0     C34189   5.709   6.923   5.442 -0.2130  0.3427  0.0191
  973MOL0     C34190   5.732   6.875   5.573  0.2770 -0.1698  0.0081
  973MOL0     C34191   5.869   6.655   5.922 -0.4152 -0.0866  0.1406
  973MOL0     C34192   5.989   6.587   5.963  0.1921 -0.2347  0.2291
  973MOL0     C34193   5.997   6.536   6.096 -0.0952  1.3562  0.7283
  973MOL0     C34194   5.888   6.552   6.181  0.1029  0.8859  0.0297
  973MOL0     O34195   5.903   6.494   6.312 -0.5596 -0.6036 -0.0227
  973MOL0     C34196   5.820   6.515   6.426  0.5687 -0.3039 -0.0877
  973MOL0     C34197   5.845   6.658   6.463 -0.1205 -0.2937 -0.4499
  973MOL0     C34198   5.805   6.675   6.604  0.1305  0.4172  0.4454
  973MOL0     C34199   5.649   6.712   6.609  0.3949  0.0869 -0.3640
  973MOL0     C34200   5.625   6.849   6.556  0.5081  1.1700  0.1730
  973MOL0     C34201   5.611   6.963   6.527 -0.0079 -0.4723  0.5346
  973MOL0     C34202   5.773   6.612   6.147 -0.6536  0.4344  1.0920
  973MOL0     C34203   5.763   6.678   6.021 -1.3394  0.9198 -0.0108
  973MOL0     C34204   5.633   6.746   5.990  0.7498 -0.2270 -0.0317
  973MOL0     H34205   5.663   6.539   5.512 -1.0795  0.4553 -0.7865
  973MOL0     H34206   5.627   6.643   5.283 -1.6209 -0.7976  1.2468
  973MOL0     H34207   5.760   7.064   5.209  0.2387 -0.2981  2.2765
  973MOL0     H34208   5.589   7.068   5.259 -0.4425  1.0153 -2.0300
  973MOL0     H34209   5.516   6.997   5.030 -0.2212 -0.8932  1.5727
  973MOL0     H34210   5.574   7.159   5.052  0.6297  0.7625  2.2578
  973MOL0     H34211   5.803   7.086   4.978  1.5582 -2.3754  2.2105
  973MOL0     H34212   5.738   6.923   4.968 -0.0528 -0.2812  0.2225
  973MOL0     H34213   5.601   6.997   4.774 -0.5470 -0.7730  1.0043
  973MOL0     H34214   5.666   7.165   4.781  3.6402  1.4655  2.6790
  973MOL0     H34215   5.821   6.911   4.723  1.2244 -0.3680 -2.9007
  973MOL0     H34216   5.890   7.079   4.748 -2.7208  3.4854  1.8237
  973MOL0     H34217   5.709   6.970   4.535 -1.4080  1.1601 -1.3740
  973MOL0     H34218   5.713   7.148   4.562 -0.2987  0.4224  2.3923
  973MOL0     H34219   5.950   6.969   4.496  2.0918  1.2134 -0.1781
  973MOL0     H34220   5.975   7.139   4.535 -1.0032  0.5811 -0.6346
  973MOL0     H34221   5.819   7.013   4.313  2.0867 -0.0527 -2.3723
  973MOL0     H34222   5.820   7.195   4.347 -0.3183 -0.1997  0.3728
  973MOL0     H34223   6.104   6.929   4.338 -4.2101 -1.3995 -2.5092
  973MOL0     H34224   6.385   7.031   4.172  0.1029 -0.6947  0.1805
  973MOL0     H34225   6.320   7.032   4.005 -0.8574  2.8555  0.1766
  973MOL0     H34226   6.256   6.820   4.218  2.5197 -0.6778  1.0149
  973MOL0     H34227   6.219   6.798   4.045  3.0140 -1.2135 -2.4141
  973MOL0     H34228   6.406   6.703   4.005  1.4847 -0.2963  0.0449
  973MOL0     H34229   6.504   6.840   4.066  0.9974 -0.7039  1.7865
  973MOL0     H34230   6.569   6.633   4.193  0.1991 -1.0134  4.4243
  973MOL0     H34231   6.486   6.736   4.313  2.4812 -1.8773  0.2900
  973MOL0     H34232   6.232   6.377   4.246 -0.6543 -0.9403  0.0078
  973MOL0     H34233   6.036   6.231   4.469  0.4534  0.8097 -0.1148
  973MOL0     H34234   6.039   6.248   4.287  0.9840 -1.3738 -0.0011
  973MOL0     H34235   5.913   6.328   4.368 -0.1631  0.4814 -2.1581
  973MOL0     H34236   5.917   6.635   4.893  1.5048 -1.8042 -0.6605
  973MOL0     H34237   5.705   6.644   5.049  0.0336  2.4702 -0.3427
  973MOL0     H34238   5.347   6.796   4.921 -0.0903  1.4300  2.3581
  973MOL0     H34239   5.291   6.631   4.876  0.6468 -1.0981  0.3851
  973MOL0     H34240   5.142   6.696   5.061 -0.5436  0.1268  0.3892
  973MOL0     H34241   5.264   6.598   5.127  2.7997  0.4828  0.4074
  973MOL0     H34242   5.257   6.907   5.132  5.7733  1.4779 -2.2240
  973MOL0     H34243   5.402   6.830   5.174  0.0511  0.5823 -2.4335
  973MOL0     H34244   5.287   6.683   5.342  0.3287 -0.7813 -2.9931
  973MOL0     H34245   5.131   6.747   5.308  0.0599 -0.6934  1.3339
  973MOL0     H34246   5.341   6.927   5.421  0.7067 -2.6919 -0.6627
  973MOL0     H34247   5.187   6.984   5.363 -0.2348 -0.5556 -0.6131
  973MOL0     H34248   5.081   6.824   5.539  1.9370 -2.9876 -0.6008
  973MOL0     H34249   5.176   6.966   5.594 -0.5734  2.4248 -3.0867
  973MOL0     H34250   5.361   6.755   5.579  1.7102  2.4236  1.9731
  973MOL0     H34251   5.211   6.657   5.604 -0.2293 -1.0327  1.6313
  973MOL0     H34252   5.320   6.703   5.808 -2.3700 -0.9283  0.3727
  973MOL0     H34253   5.163   6.778   5.812 -2.2439  2.1272 -1.9784
  973MOL0     H34254   5.459   6.674   4.703 -0.1669 -0.1698  1.4447
  973MOL0     H34255   5.645   6.674   4.567 -0.9283  1.0123  1.0855
  973MOL0     H34256   6.129   6.721   4.576  1.2788 -0.2443  0.5935
  973MOL0     H34257   6.320   6.741   4.448  3.7908 -0.8713 -3.7270
  973MOL0     H34258   5.731   7.028   5.426  3.1934 -0.2168  0.3510
  973MOL0     H34259   5.751   6.938   5.659 -1.4665  1.7491 -0.9440
  973MOL0     H34260   6.079   6.572   5.904 -0.8436 -2.5860 -0.9157
  973MOL0     H34261   6.087   6.486   6.132 -1.3388 -0.1601  1.8838
  973MOL0     H34262   5.715   6.487   6.426  0.3129  0.6158 -0.9856
  973MOL0     H34263   5.860   6.443   6.499  0.5317 -1.2275 -0.9555
  973MOL0     H34264   5.814   6.733   6.391  2.5780 -1.0102 -2.5531
  973MOL0     H34265   5.954   6.666   6.454 -0.1843  2.1647  0.3805
  973MOL0     H34266   5.838   6.589   6.663  1.2459  0.3517 -0.2485
  973MOL0     H34267   5.853   6.758   6.656 -0.0207  1.4197 -0.9739
  973MOL0     H34268   5.609   6.701   6.710 -0.4324 -3.1371 -0.9336
  973MOL0     H34269   5.589   6.636   6.558 -2.6954 -0.5510  3.6561
  973MOL0     H34270   5.567   7.057   6.498  1.1262  0.5681  2.0457
  973MOL0     H34271   5.692   6.619   6.219  0.6606  0.7104  2.5999
  973MOL0     H34272   5.564   6.770   6.072  1.2243  0.1635  0.2562
  973MOL0     H34273   5.655   6.844   5.946  0.3495  0.0552  0.3786
  973MOL0     H34274   5.572   6.690   5.919 -0.0208 -0.1279  0.5358
  974MOL0     O34275   9.274   6.671   5.111  0.1310 -0.4352 -0.0189
  974MOL0     C34276   9.314   6.604   5.016 -0.3349  0.0884  0.3432
  974MOL0     O34277   9.430   6.528   5.015 -0.8140  0.8520  0.3136
  974MOL0     C34278   9.494   6.511   5.135 -0.2941 -0.0921  0.5528
  974MOL0     C34279   9.448   6.412   5.220  0.1256  0.9407  0.1711
  974MOL0     C34280   9.498   6.398   5.350 -0.3694 -0.2452  0.0636
  974MOL0     C34281   9.595   6.486   5.397  0.0119 -0.2188 -0.1191
  974MOL0     O34282   9.627   6.475   5.528  0.3793  0.4027  0.0318
  974MOL0     C34283   9.719   6.568   5.577 -0.1192  0.5369  0.5272
  974MOL0     C34284   9.779   6.504   5.697  0.4900  0.6399 -0.0168
  974MOL0     C34285   9.878   6.398   5.653 -0.2793  0.0231 -0.5236
  974MOL0     C34286   9.889   6.313   5.772 -1.1695 -0.7238 -0.5153
  974MOL0     C34287  10.000   6.205   5.738 -0.4418 -0.9297  0.9119
  974MOL0     C34288  10.011   6.107   5.853 -0.2753 -0.1593  0.6458
  974MOL0     C34289  10.102   5.986   5.822 -0.9398  0.1254 -0.0567
  974MOL0     C34290  10.241   6.023   5.774  0.3073  0.3262 -1.0302
  974MOL0     N34291  10.316   6.059   5.892 -0.1612  0.2687 -0.0495
  974MOL0     C34292  10.392   5.969   5.980 -0.5845 -0.5500 -0.6372
  974MOL0     C34293  10.456   6.050   6.079 -0.0648 -0.3468  0.6985
  974MOL0     C34294  10.548   6.000   6.191  0.0852 -0.7039 -0.3083
  974MOL0     C34295  10.701   6.014   6.172 -0.3156  0.0652  0.8094
  974MOL0     C34296  10.749   5.922   6.055 -0.6819 -0.3029  0.4564
  974MOL0     C34297  10.770   5.775   6.105  0.5264 -0.4249  0.3168
  974MOL0     O34298  10.645   5.710   6.128 -0.4577  0.2408  0.3330
  974MOL0     C34299  10.563   5.667   6.031  0.5480 -1.3378 -0.1453
  974MOL0     C34300  10.439   5.611   6.063 -0.8178  0.3000 -0.6385
  974MOL0     C34301  10.342   5.588   5.974 -0.0147 -0.0518 -0.4045
  974MOL0     C34302  10.208   5.544   6.019 -0.2339 -0.7930 -0.0513
  974MOL0     C34303  10.365   5.612   5.843  0.2646  0.0108  0.2687
  974MOL0     C34304  10.264   5.595   5.735  0.8970  0.4017  0.6746
  974MOL0     O34305  10.136   5.636   5.762  0.5723 -0.2772  0.5279
  974MOL0     C34306  10.040   5.645   5.669 -0.2160  0.4650 -0.5468
  974MOL0     C34307   9.935   5.563   5.686 -0.1991  0.8220  0.2413
  974MOL0     C34308   9.842   5.534   5.591 -0.1991  0.8152 -0.5602
  974MOL0     C34309   9.847   5.607   5.471 -0.2380  1.2426  0.0342
  974MOL0     O34310   9.746   5.591   5.382  0.0618 -0.4940  0.0012
  974MOL0     C34311   9.766   5.482   5.283  0.1344 -0.2268  0.6011
  974MOL0     C34312   9.655   5.374   5.307 -0.1093 -0.7547  0.4910
  974MOL0     C34313   9.701   5.243   5.239  0.9609  0.5852  0.3474
  974MOL0     C34314   9.605   5.198   5.134 -1.2017 -0.1020  0.0916
  974MOL0     C34315   9.612   5.297   5.015 -0.1042 -0.1773  0.2577
  974MOL0     C34316   9.529   5.266   4.892  1.1630 -0.0637 -0.3619
  974MOL0     C34317   9.545   5.388   4.797  0.0162 -0.8294 -0.5151
  974MOL0     C34318   9.439   5.379   4.681 -0.2498 -1.1448 -1.0503
  974MOL0    Cl34319   9.507   5.250   4.588  0.0904  0.5528  0.0281
  974MOL0     C34320   9.959   5.691   5.451  1.0645  0.9377 -0.2204
  974MOL0     C34321  10.047   5.719   5.549  0.5466  0.1661 -0.0420
  974MOL0     O34322  10.307   5.558   5.623 -0.3115  0.8298 -0.2914
  974MOL0     C34323  10.494   5.639   5.801  0.7279  0.5795  0.8418
  974MOL0     C34324  10.592   5.672   5.896 -0.5900  0.5315  0.8024
  974MOL0     N34325  10.418   6.180   6.045 -0.0935  0.3223  0.1635
  974MOL0     N34326  10.336   6.176   5.941  0.4872 -0.7646  0.0484
  974MOL0     C34327   9.647   6.583   5.308  0.2838 -0.5271  0.5219
  974MOL0     C34328   9.590   6.601   5.179  0.2369 -0.6786  0.1503
  974MOL0     C34329   9.250   6.619   4.890  0.1486  0.5987  0.4057
  974MOL0     C34330   9.244   6.512   4.800  0.7662  0.6339  0.1009
  974MOL0     C34331   9.196   6.521   4.669  0.5137  0.2716  0.2099
  974MOL0     C34332   9.159   6.645   4.617 -0.0588 -0.0636 -0.4315
  974MOL0     O34333   9.101   6.665   4.506 -0.2100 -0.7746 -0.1909
  974MOL0     C34334   9.134   6.586   4.393 -0.2659 -0.1961 -0.4813
  974MOL0     C34335   9.056   6.644   4.276 -0.6135 -0.1243 -0.0500
  974MOL0     C34336   8.904   6.611   4.288 -0.4821  0.2885  0.0259
  974MOL0     C34337   8.837   6.654   4.154  0.2013 -0.0214  0.1445
  974MOL0     C34338   8.847   6.799   4.120  0.2041  0.0492  0.8834
  974MOL0     C34339   8.849   6.917   4.090  0.0850 -0.1243  0.2832
  974MOL0     C34340   9.155   6.753   4.706  0.6122  0.1749  0.2193
  974MOL0     C34341   9.181   6.737   4.845 -0.1298 -0.7662 -0.2769
  974MOL0     C34342   9.137   6.852   4.933 -0.4194  0.6941 -0.2937
  974MOL0     H34343   9.376   6.341   5.182 -0.4873  1.6834 -0.0797
  974MOL0     H34344   9.459   6.321   5.416 -0.5305  0.9550  1.4060
  974MOL0     H34345   9.673   6.664   5.601  1.9153  2.2683 -2.0050
  974MOL0     H34346   9.806   6.592   5.515  0.2421 -0.5877  0.5773
  974MOL0     H34347   9.841   6.576   5.751 -1.3938  2.2798  0.0718
  974MOL0     H34348   9.710   6.473   5.775  0.9092  0.2116  0.1893
  974MOL0     H34349   9.838   6.348   5.564 -0.2930  0.8432 -0.9897
  974MOL0     H34350   9.979   6.436   5.632 -0.0635 -1.1763 -1.7988
  974MOL0     H34351   9.909   6.365   5.867 -3.7125 -0.5983  0.0133
  974MOL0     H34352   9.794   6.267   5.800 -0.2791 -0.7600  2.9572
  974MOL0     H34353  10.093   6.256   5.709 -1.5560  1.2720  0.9732
  974MOL0     H34354   9.964   6.151   5.650 -0.1040 -0.0778  0.2310
  974MOL0     H34355  10.045   6.159   5.943  2.6351  0.9306 -0.9438
  974MOL0     H34356   9.920   6.049   5.872  0.7142 -1.8848  0.4060
  974MOL0     H34357  10.061   5.925   5.742  0.3786  0.0787 -0.7252
  974MOL0     H34358  10.102   5.917   5.906 -2.9259 -1.6739 -1.4474
  974MOL0     H34359  10.294   5.935   5.736 -0.3237 -0.5714  0.1287
  974MOL0     H34360  10.238   6.110   5.707 -0.8929 -0.4647 -2.0601
  974MOL0     H34361  10.417   5.864   5.970  1.6352 -0.0907 -0.5171
  974MOL0     H34362  10.522   5.898   6.220  0.5657 -0.2395  1.9862
  974MOL0     H34363  10.525   6.057   6.282 -1.9252  0.2833 -1.3628
  974MOL0     H34364  10.732   6.119   6.161 -0.2176  0.3179  3.0039
  974MOL0     H34365  10.754   5.987   6.264 -2.4201 -1.2601  1.6978
  974MOL0     H34366  10.681   5.929   5.970  1.0534 -0.0915 -0.9747
  974MOL0     H34367  10.843   5.966   6.019 -1.8074  1.7741 -0.1250
  974MOL0     H34368  10.842   5.735   6.032  2.2760 -1.4663  2.4899
  974MOL0     H34369  10.823   5.767   6.201 -0.2129 -4.7088  0.5471
  974MOL0     H34370  10.420   5.602   6.169  1.0024  2.6106 -0.0191
  974MOL0     H34371  10.134   5.621   5.994  0.0103  0.0587  1.6963
  974MOL0     H34372  10.208   5.520   6.125  2.0120 -0.7964 -0.0134
  974MOL0     H34373  10.176   5.458   5.958 -1.3123  1.2595 -2.5575
  974MOL0     H34374   9.923   5.503   5.775  4.6634 -1.0156  0.0110
  974MOL0     H34375   9.759   5.465   5.604 -0.6240  0.7692 -3.1152
  974MOL0     H34376   9.770   5.529   5.185 -0.6166  0.2902  0.8113
  974MOL0     H34377   9.863   5.434   5.302  0.2263  0.5764  2.4696
  974MOL0     H34378   9.651   5.348   5.413  0.4282 -2.5817  0.0861
  974MOL0     H34379   9.555   5.411   5.282  1.7420  3.4861 -1.7182
  974MOL0     H34380   9.693   5.166   5.317 -0.4742  0.9971  0.6382
  974MOL0     H34381   9.799   5.239   5.191  0.6407  0.2059 -0.2892
  974MOL0     H34382   9.504   5.190   5.176 -0.3724 -0.7006  2.0772
  974MOL0     H34383   9.647   5.101   5.107  1.4591  0.9788  0.0703
  974MOL0     H34384   9.586   5.398   5.049 -1.4772 -1.3858  3.1335
  974MOL0     H34385   9.716   5.315   4.987 -0.2280  0.6245  0.2977
  974MOL0     H34386   9.420   5.265   4.908  1.1962  2.0484  0.2601
  974MOL0     H34387   9.567   5.174   4.848  1.5993  0.0017 -0.1272
  974MOL0     H34388   9.645   5.414   4.761 -0.3965  2.6627  0.4361
  974MOL0     H34389   9.509   5.476   4.852 -1.2257  1.0825 -4.0488
  974MOL0     H34390   9.436   5.472   4.624  2.5950  0.5823  1.3561
  974MOL0     H34391   9.342   5.350   4.724  0.7639 -1.1045  1.4032
  974MOL0     H34392   9.957   5.751   5.361  2.2873 -1.9564 -2.3292
  974MOL0     H34393  10.131   5.785   5.528 -0.1229  1.2369  0.5894
  974MOL0     H34394  10.510   5.648   5.694 -1.4199 -2.1479  0.1672
  974MOL0     H34395  10.674   5.729   5.853 -0.7049  1.5917  1.9224
  974MOL0     H34396   9.729   6.649   5.332  2.3154 -1.9208 -1.9794
  974MOL0     H34397   9.639   6.678   5.120  1.4067 -1.1352  0.4950
  974MOL0     H34398   9.291   6.415   4.816  2.1793  1.5633  1.9172
  974MOL0     H34399   9.206   6.427   4.615  1.0003  0.7088 -0.4878
  974MOL0     H34400   9.240   6.595   4.369 -0.6857 -0.3812 -2.6811
  974MOL0     H34401   9.107   6.480   4.405 -0.7621 -0.0072  0.1587
  974MOL0     H34402   9.092   6.609   4.179 -1.9690  1.2248 -1.1110
  974MOL0     H34403   9.067   6.753   4.269 -0.0229 -0.2500 -1.3921
  974MOL0     H34404   8.892   6.503   4.290 -0.2774  0.1275 -2.7345
  974MOL0     H34405   8.857   6.659   4.374  0.8333 -0.1163  0.9952
  974MOL0     H34406   8.737   6.615   4.173 -0.0164  1.2223  1.7578
  974MOL0     H34407   8.888   6.607   4.070 -1.0034  1.9113 -1.7838
  974MOL0     H34408   8.849   7.015   4.045  1.9657 -0.2372 -0.0535
  974MOL0     H34409   9.127   6.849   4.664  3.8288  0.9181 -0.5163
  974MOL0     H34410   9.221   6.886   4.996 -0.3225 -1.7335  0.9988
  974MOL0     H34411   9.111   6.944   4.879 -0.4090  0.7730 -0.1657
  974MOL0     H34412   9.058   6.828   5.005  0.3369  1.9946  1.0459
  975MOL0     O34413   4.926   7.796   9.379 -0.4513 -0.0277  0.3404
  975MOL0     C34414   5.012   7.853   9.303  0.4685  0.9181  0.2600
  975MOL0     O34415   5.142   7.835   9.309 -0.3822  0.7454 -0.7951
  975MOL0     C34416   5.195   7.736   9.380  0.0102  0.6971  0.2215
  975MOL0     C34417   5.267   7.626   9.319  0.1602  0.1301  0.2214
  975MOL0     C34418   5.323   7.526   9.395  0.0882  0.6149 -0.0295
  975MOL0     C34419   5.315   7.530   9.539 -0.2885  0.8790 -0.6330
  975MOL0     O34420   5.387   7.443   9.607 -0.2531  0.0045  0.2264
  975MOL0     C34421   5.399   7.441   9.745 -0.3173  0.2890  0.3950
  975MOL0     C34422   5.513   7.341   9.775 -0.6501 -0.8064 -0.1315
  975MOL0     C34423   5.660   7.389   9.741 -0.6061 -0.7051  0.2540
  975MOL0     C34424   5.703   7.349   9.598 -0.4246  0.2661 -0.8671
  975MOL0     C34425   5.838   7.413   9.563  1.1934  0.2283  0.2859
  975MOL0     C34426   5.953   7.328   9.594 -1.1581  0.0064 -0.0904
  975MOL0     C34427   6.091   7.397   9.613 -0.1204 -0.4377 -0.3260
  975MOL0     C34428   6.207   7.305   9.659  0.4716 -0.3026 -0.3329
  975MOL0     N34429   6.346   7.353   9.637 -0.1052 -0.0642 -0.4437
  975MOL0     C34430   6.414   7.372   9.521  0.4010  0.6644  0.1261
  975MOL0     C34431   6.529   7.433   9.549 -0.2714  0.7890  0.3891
  975MOL0     C34432   6.614   7.484   9.440  0.3723  0.6440 -0.0987
  975MOL0     C34433   6.533   7.592   9.361 -0.2856 -0.2742 -0.2937
  975MOL0     C34434   6.622   7.672   9.259 -0.2019 -0.5875 -0.1440
  975MOL0     C34435   6.554   7.781   9.182 -0.4490 -0.2967 -0.1758
  975MOL0     O34436   6.419   7.760   9.181  0.0943 -0.3770 -0.2499
  975MOL0     C34437   6.353   7.860   9.115  0.1122  0.9809 -0.3241
  975MOL0     C34438   6.322   7.819   8.986 -0.2279  0.0122 -0.4281
  975MOL0     C34439   6.272   7.919   8.903  0.1280  0.8018  0.1426
  975MOL0     C34440   6.266   7.881   8.757 -0.1676  0.0562  1.3110
  975MOL0     C34441   6.242   8.045   8.961 -0.3201 -0.3535 -0.3783
  975MOL0     C34442   6.202   8.167   8.869  0.5959  0.8037 -0.4582
  975MOL0     O34443   6.205   8.293   8.936  0.1907 -0.1338 -0.1160
  975MOL0     C34444   6.176   8.402   8.863 -0.2462 -0.6446  0.1834
  975MOL0     C34445   6.272   8.507   8.853 -0.4577  0.2990  0.0283
  975MOL0     C34446   6.244   8.611   8.764 -0.1027  0.5232 -0.2249
  975MOL0     C34447   6.127   8.620   8.690  0.9107 -0.4380  0.3844
  975MOL0     O34448   6.111   8.718   8.590  0.3127  0.1191 -0.1857
  975MOL0     C34449   6.116   8.673   8.455 -0.3514  0.1477 -0.5796
  975MOL0     C34450   6.260   8.690   8.394 -0.0693  0.4565 -0.0208
  975MOL0     C34451   6.303   8.827   8.363 -0.1114 -0.4018  0.3699
  975MOL0     C34452   6.361   8.892   8.491 -0.3151  0.5441 -0.6504
  975MOL0     C34453   6.427   9.037   8.458  0.4340  0.7315  0.2530
  975MOL0     C34454   6.445   9.119   8.579  0.0975 -0.4458 -0.4779
  975MOL0     C34455   6.564   9.067   8.664  0.4473 -0.3253  1.1105
  975MOL0     C34456   6.568   9.111   8.811 -0.8457  0.8007  0.2240
  975MOL0    Cl34457   6.570   9.291   8.835 -0.5437 -0.1055  0.1572
  975MOL0     C34458   6.024   8.526   8.713 -0.1716 -0.8803 -0.1642
  975MOL0     C34459   6.048   8.414   8.792  0.2954 -0.3243 -0.5660
  975MOL0     O34460   6.189   8.156   8.743 -0.6859 -0.1720 -0.2128
  975MOL0     C34461   6.265   8.072   9.099 -0.0208  0.2494  0.7403
  975MOL0     C34462   6.318   7.981   9.177 -0.4728 -0.8080 -0.5433
  975MOL0     N34463   6.548   7.441   9.682  0.0124  0.5049  0.0792
  975MOL0     N34464   6.424   7.401   9.733 -0.4569  0.2934  0.1818
  975MOL0     C34465   5.235   7.628   9.599 -1.0195 -0.3114 -0.7986
  975MOL0     C34466   5.189   7.732   9.520  1.2210 -0.1087 -0.9885
  975MOL0     C34467   4.942   7.942   9.201  0.1315 -0.4717  0.2567
  975MOL0     C34468   4.819   7.913   9.157 -0.4185  0.0962  0.4853
  975MOL0     C34469   4.761   7.982   9.051 -0.3121  0.1855 -0.3176
  975MOL0     C34470   4.835   8.072   8.985  0.3776 -0.3916 -0.3527
  975MOL0     O34471   4.783   8.114   8.865 -0.1383  0.1128 -0.5482
  975MOL0     C34472   4.851   8.038   8.763  0.7010 -0.1461  0.3948
  975MOL0     C34473   4.786   7.904   8.719  1.4022 -0.0155 -0.1740
  975MOL0     C34474   4.667   7.924   8.621  0.5709 -0.0488 -0.0139
  975MOL0     C34475   4.562   7.822   8.605  0.4802 -0.0660  0.3373
  975MOL0     C34476   4.466   7.776   8.705 -1.1481  0.0895 -0.2847
  975MOL0     C34477   4.390   7.738   8.795  0.4878 -0.3797  0.2470
  975MOL0     C34478   4.958   8.118   9.034 -0.4327  0.2784  0.6849
  975MOL0     C34479   5.020   8.049   9.137 -0.0099  0.3871  0.4063
  975MOL0     C34480   5.153   8.101   9.171 -0.0368 -0.1100  0.0066
  975MOL0     H34481   5.283   7.625   9.212 -1.4059  3.4208 -0.1550
  975MOL0     H34482   5.388   7.453   9.347  0.2164 -0.9955  2.4240
  975MOL0     H34483   5.303   7.416   9.791 -1.7500  0.5305 -2.2392
  975MOL0     H34484   5.427   7.543   9.772 -0.4688  0.5904 -0.5250
  975MOL0     H34485   5.509   7.311   9.880 -1.0743  1.3240  0.5088
  975MOL0     H34486   5.491   7.250   9.718  0.4362 -0.6723 -0.7908
  975MOL0     H34487   5.653   7.498   9.736  0.9716 -0.6422 -1.7238
  975MOL0     H34488   5.737   7.368   9.815  0.1533  2.8313  0.6088
  975MOL0     H34489   5.712   7.240   9.593 -2.2470  0.1078 -1.5145
  975MOL0     H34490   5.630   7.387   9.525  0.5607  0.0442 -1.9832
  975MOL0     H34491   5.861   7.513   9.601  1.8407  0.9037 -1.7540
  975MOL0     H34492   5.833   7.421   9.454  1.0254  0.8824  0.3369
  975MOL0     H34493   5.930   7.274   9.687  0.4796 -0.2933  0.1697
  975MOL0     H34494   5.958   7.250   9.518  1.3198  2.7968 -3.0590
  975MOL0     H34495   6.086   7.488   9.673 -0.5491 -0.3452 -0.4979
  975MOL0     H34496   6.136   7.428   9.518  3.2761 -0.3098  1.1956
  975MOL0     H34497   6.201   7.274   9.764  2.3847  0.0693 -0.0796
  975MOL0     H34498   6.183   7.212   9.606  1.8850 -1.5899  1.1809
  975MOL0     H34499   6.379   7.337   9.424  1.4635 -0.4532  0.1264
  975MOL0     H34500   6.637   7.396   9.379 -1.5083 -0.1906  0.3414
  975MOL0     H34501   6.703   7.527   9.488 -0.3324  0.1822  1.7361
  975MOL0     H34502   6.449   7.555   9.301 -1.9313  0.9910  1.1348
  975MOL0     H34503   6.493   7.669   9.427 -1.3402  0.5951 -1.8977
  975MOL0     H34504   6.692   7.724   9.324 -1.1482  0.9754 -0.3317
  975MOL0     H34505   6.674   7.605   9.190 -0.4180  0.8741 -1.7705
  975MOL0     H34506   6.579   7.879   9.225 -1.2598 -0.2161  0.1316
  975MOL0     H34507   6.597   7.789   9.082  0.1643 -2.4274 -0.1334
  975MOL0     H34508   6.347   7.714   8.968 -1.0605 -0.2132 -0.3319
  975MOL0     H34509   6.161   7.887   8.725 -0.2986 -1.9212  1.2570
  975MOL0     H34510   6.297   7.778   8.737 -1.7077 -0.2667  0.3661
  975MOL0     H34511   6.340   7.940   8.703  0.7786 -1.5762  0.7523
  975MOL0     H34512   6.371   8.494   8.895 -0.9741 -1.5666  0.7565
  975MOL0     H34513   6.317   8.685   8.732  0.5387 -0.3558 -0.8640
  975MOL0     H34514   6.083   8.569   8.450 -1.5606  0.5641 -3.8726
  975MOL0     H34515   6.044   8.735   8.400 -1.6933 -0.3079  0.6012
  975MOL0     H34516   6.324   8.629   8.457 -2.3738 -0.9725  1.0741
  975MOL0     H34517   6.263   8.638   8.298  0.8125 -0.9597  0.7414
  975MOL0     H34518   6.224   8.889   8.320 -0.1919 -1.1120 -0.5216
  975MOL0     H34519   6.384   8.836   8.290  1.6798  3.4215  2.5164
  975MOL0     H34520   6.437   8.822   8.528 -0.3138  0.3466 -1.0221
  975MOL0     H34521   6.289   8.903   8.573  0.8437  2.5794  0.1705
  975MOL0     H34522   6.529   9.013   8.426  0.0218  0.2467 -0.7425
  975MOL0     H34523   6.390   9.081   8.365 -0.7639  0.8333  0.7595
  975MOL0     H34524   6.349   9.116   8.632  0.7071  0.5782  0.7175
  975MOL0     H34525   6.482   9.219   8.552  0.7868 -0.5137  0.1784
  975MOL0     H34526   6.652   9.086   8.601 -0.8881  0.0691 -0.7414
  975MOL0     H34527   6.570   8.958   8.664  1.6862 -0.2641  1.3728
  975MOL0     H34528   6.652   9.064   8.863 -1.8688 -2.1869 -0.6224
  975MOL0     H34529   6.474   9.070   8.849 -0.3835  0.2338  0.7812
  975MOL0     H34530   5.923   8.529   8.676 -0.1177  0.4143 -0.2522
  975MOL0     H34531   5.985   8.326   8.790  0.9605 -0.8291 -0.0113
  975MOL0     H34532   6.234   8.166   9.143  2.0170  0.1861  2.5030
  975MOL0     H34533   6.336   7.996   9.283 -0.2640 -0.6245 -0.6043
  975MOL0     H34534   5.227   7.637   9.707 -2.9167 -1.1505 -0.8275
  975MOL0     H34535   5.163   7.812   9.588  3.4738 -1.3574  1.5275
  975MOL0     H34536   4.759   7.836   9.206  2.2337 -1.4016  1.5840
  975MOL0     H34537   4.660   7.967   9.016 -0.4058  1.2580 -0.5545
  975MOL0     H34538   4.857   8.101   8.673 -2.4653 -1.5891 -0.9724
  975MOL0     H34539   4.952   8.012   8.795  0.2204  0.0752  2.2226
  975MOL0     H34540   4.768   7.844   8.808 -1.9278  2.8644  1.3831
  975MOL0     H34541   4.854   7.858   8.647 -1.2888 -0.6579 -2.4708
  975MOL0     H34542   4.613   8.017   8.641 -0.9530 -0.7003 -0.9671
  975MOL0     H34543   4.716   7.946   8.526  0.8562  1.8785  0.5272
  975MOL0     H34544   4.620   7.734   8.577  1.8706  1.4292 -1.7705
  975MOL0     H34545   4.493   7.848   8.524 -2.1028 -1.4929  1.9025
  975MOL0     H34546   4.308   7.721   8.862  2.1649 -2.6861  1.8440
  975MOL0     H34547   5.000   8.199   8.976  1.0469 -0.7383  0.2753
  975MOL0     H34548   5.230   8.026   9.151 -2.0728 -2.4609  0.4153
  975MOL0     H34549   5.178   8.197   9.126  2.6846 -0.8621 -0.2880
  975MOL0     H34550   5.158   8.123   9.278  1.9663 -0.2586 -0.0242
  976MOL0     O34551   0.962   2.665   2.355 -0.3969 -0.0298 -0.4802
  976MOL0     C34552   0.967   2.665   2.480  0.4478  0.8776  0.2340
  976MOL0     O34553   0.866   2.666   2.567 -0.4934 -0.5090 -0.4511
  976MOL0     C34554   0.736   2.672   2.528  0.0079  0.2565 -0.3583
  976MOL0     C34555   0.666   2.783   2.478  0.2806  0.9734 -1.0835
  976MOL0     C34556   0.538   2.774   2.420 -0.6646  0.3520  0.3881
  976MOL0     C34557   0.472   2.655   2.438  0.1859 -0.4149 -0.2975
  976MOL0     O34558   0.340   2.633   2.392  0.8049 -0.0275  0.2507
  976MOL0     C34559   0.274   2.742   2.316 -0.3043 -0.3469  0.9007
  976MOL0     C34560   0.131   2.686   2.289 -0.3305  0.0557  0.3726
  976MOL0     C34561   0.115   2.550   2.216 -0.3283  1.0518  0.1273
  976MOL0     C34562  -0.023   2.550   2.148  0.1956  0.3951 -0.2893
  976MOL0     C34563  -0.057   2.438   2.048  0.1423 -0.0208  0.0874
  976MOL0     C34564  -0.088   2.307   2.118 -0.8721 -0.5954  0.1659
  976MOL0     C34565  -0.127   2.190   2.024  1.1435  0.3505 -0.3740
  976MOL0     C34566  -0.108   2.052   2.086 -0.4477  0.9511  0.4003
  976MOL0     N34567  -0.205   2.016   2.193 -0.4378 -0.9768  0.0207
  976MOL0     C34568  -0.170   1.979   2.323 -0.4853 -0.4094  0.6308
  976MOL0     C34569  -0.287   1.972   2.390 -0.3831  0.0202  0.3992
  976MOL0     C34570  -0.288   1.926   2.531  0.1756 -0.4263 -0.4356
  976MOL0     C34571  -0.313   1.781   2.544 -1.1628 -0.6806 -0.0604
  976MOL0     C34572  -0.337   1.736   2.687  0.3970 -0.8061 -0.0576
  976MOL0     C34573  -0.424   1.605   2.698 -0.3963  0.0794  0.2309
  976MOL0     O34574  -0.355   1.500   2.629  0.7106 -0.1031  0.0248
  976MOL0     C34575  -0.307   1.395   2.695 -0.5557 -0.5193 -0.1958
  976MOL0     C34576  -0.201   1.397   2.792  0.2406 -0.4407 -0.8013
  976MOL0     C34577  -0.135   1.280   2.854  0.8009 -0.2041 -0.8166
  976MOL0     C34578  -0.002   1.308   2.910 -0.3247 -0.1728  0.5150
  976MOL0     C34579  -0.192   1.156   2.830  0.3390  0.1613 -0.9198
  976MOL0     C34580  -0.146   1.032   2.890 -0.0766 -1.0237 -0.3468
  976MOL0     O34581  -0.204   0.918   2.848 -0.3494  0.9127 -0.2791
  976MOL0     C34582  -0.162   0.799   2.897  0.8772 -0.0706  0.5388
  976MOL0     C34583  -0.030   0.764   2.911  0.2708 -0.0818  0.7923
  976MOL0     C34584  -0.002   0.644   2.981  1.4491  0.0882 -0.9170
  976MOL0     C34585  -0.103   0.554   3.026 -0.7621 -0.4710  0.8093
  976MOL0     O34586  -0.055   0.457   3.105  0.4445 -0.1145  0.1799
  976MOL0     C34587  -0.153   0.395   3.199  0.3357 -0.0969  0.1826
  976MOL0     C34588  -0.160   0.247   3.177  0.0782 -0.1241  0.0556
  976MOL0     C34589  -0.141   0.208   3.023 -0.3678 -0.2454 -0.3909
  976MOL0     C34590  -0.192   0.072   3.002 -0.2650 -0.3665  0.2826
  976MOL0     C34591  -0.096  -0.033   3.068  0.6327  0.4172  0.4916
  976MOL0     C34592  -0.148  -0.176   3.058  0.5981 -0.3644 -0.6046
  976MOL0     C34593  -0.066  -0.277   3.143 -0.6307 -0.2446 -0.0408
  976MOL0     C34594  -0.115  -0.424   3.153  0.2748  0.0767  0.2048
  976MOL0    Cl34595  -0.270  -0.428   3.247  0.2755  0.6987 -0.4107
  976MOL0     C34596  -0.238   0.575   2.984  0.1985  1.1262  1.3281
  976MOL0     C34597  -0.265   0.700   2.922  0.5604 -0.5057  0.2544
  976MOL0     O34598  -0.073   1.044   2.991  0.2335  0.0608 -0.1144
  976MOL0     C34599  -0.314   1.156   2.750  0.8445  0.5415  0.2032
  976MOL0     C34600  -0.368   1.274   2.691  0.4359 -0.4217  0.9136
  976MOL0     N34601  -0.392   2.020   2.307 -0.3513  0.3606  0.0901
  976MOL0     N34602  -0.340   2.045   2.191 -0.4730  0.3768  0.1814
  976MOL0     C34603   0.534   2.545   2.490 -0.0247  0.7882 -0.7739
  976MOL0     C34604   0.669   2.550   2.537 -0.0103 -0.0819  0.6288
  976MOL0     C34605   1.112   2.655   2.524  0.7135  0.1004 -0.4427
  976MOL0     C34606   1.214   2.599   2.439  0.6147  0.0239 -0.6454
  976MOL0     C34607   1.347   2.584   2.486 -0.3921 -0.0604  0.8319
  976MOL0     C34608   1.372   2.612   2.619 -0.9031  0.3163  0.1135
  976MOL0     O34609   1.500   2.604   2.664 -0.7036 -0.3445  0.2519
  976MOL0     C34610   1.583   2.721   2.671 -0.7224  0.4984  0.3515
  976MOL0     C34611   1.624   2.785   2.537  0.0950  0.0473 -0.0946
  976MOL0     C34612   1.699   2.916   2.552 -1.1550 -0.2230  0.2185
  976MOL0     C34613   1.706   2.986   2.415  0.6336  0.4796  0.4013
  976MOL0     C34614   1.568   3.016   2.365  0.0916 -0.2899 -0.8491
  976MOL0     C34615   1.452   3.049   2.327  0.4292 -0.2673 -0.0703
  976MOL0     C34616   1.276   2.673   2.696  1.5463 -0.5179 -0.3937
  976MOL0     C34617   1.146   2.696   2.657  0.0566  0.3475  1.1610
  976MOL0     C34618   1.056   2.765   2.751  0.5637 -0.2741 -1.2097
  976MOL0     H34619   0.718   2.878   2.470 -0.7034  1.3453 -3.9572
  976MOL0     H34620   0.487   2.861   2.380 -1.4752  0.0226  0.6678
  976MOL0     H34621   0.324   2.772   2.223 -3.4653  5.0545  0.5519
  976MOL0     H34622   0.277   2.839   2.366 -0.8387  0.4263 -0.4892
  976MOL0     H34623   0.091   2.670   2.390  0.2534  2.2001  0.9842
  976MOL0     H34624   0.075   2.766   2.241 -1.2009  0.2967  1.7266
  976MOL0     H34625   0.185   2.541   2.132 -2.0382  1.5307 -1.4104
  976MOL0     H34626   0.122   2.461   2.279 -0.3351 -0.1570 -1.5148
  976MOL0     H34627  -0.091   2.552   2.234 -2.4672 -0.5799 -2.2534
  976MOL0     H34628  -0.040   2.637   2.084 -0.5782  2.3194  2.3431
  976MOL0     H34629   0.013   2.436   1.964  2.8458 -1.1806  2.2497
  976MOL0     H34630  -0.146   2.475   1.996  1.4773  2.3914 -0.6407
  976MOL0     H34631   0.009   2.280   2.161  0.6934 -1.2417 -3.3964
  976MOL0     H34632  -0.156   2.331   2.200 -1.4636 -1.6916  0.0102
  976MOL0     H34633  -0.079   2.202   1.926 -0.6784  2.5743 -1.0813
  976MOL0     H34634  -0.230   2.212   1.993  0.9804 -0.5553 -0.4938
  976MOL0     H34635  -0.117   1.980   2.005  2.7007  1.4199 -0.5025
  976MOL0     H34636  -0.007   2.042   2.127 -1.1628 -0.4756  1.9645
  976MOL0     H34637  -0.083   1.950   2.380 -0.2927 -0.4915  0.3026
  976MOL0     H34638  -0.370   1.974   2.586  1.4526 -0.1083  1.2749
  976MOL0     H34639  -0.198   1.959   2.585 -2.1396  0.0320  3.5976
  976MOL0     H34640  -0.386   1.732   2.479 -1.6593 -0.2080  0.1370
  976MOL0     H34641  -0.227   1.718   2.517 -1.3576 -0.8069 -0.3882
  976MOL0     H34642  -0.245   1.710   2.740  0.8111  0.4951 -0.1107
  976MOL0     H34643  -0.395   1.812   2.740 -1.1363 -1.2106 -1.0927
  976MOL0     H34644  -0.434   1.580   2.804  4.1824 -1.3531  0.5370
  976MOL0     H34645  -0.522   1.624   2.653  0.6029  1.9230 -1.3021
  976MOL0     H34646  -0.161   1.495   2.817  2.6854 -1.7281  0.8025
  976MOL0     H34647   0.069   1.237   2.865 -2.1679 -0.9865 -1.2805
  976MOL0     H34648   0.001   1.306   3.019 -1.5801  1.4482  0.6282
  976MOL0     H34649   0.039   1.405   2.878  0.4325 -0.6244  0.0796
  976MOL0     H34650   0.046   0.835   2.879 -0.6550  0.4380 -0.3452
  976MOL0     H34651   0.102   0.626   3.007  1.9479  2.2528 -1.1524
  976MOL0     H34652  -0.129   0.420   3.303 -0.0454 -1.9121  0.7480
  976MOL0     H34653  -0.258   0.425   3.187 -0.4408 -1.0306  3.5061
  976MOL0     H34654  -0.067   0.212   3.224  1.0950  2.6258  0.2422
  976MOL0     H34655  -0.252   0.199   3.212 -0.8562  1.8628  0.4292
  976MOL0     H34656  -0.037   0.215   2.991 -0.8472 -0.9744 -2.1840
  976MOL0     H34657  -0.188   0.278   2.954 -0.1557  0.7299  0.4281
  976MOL0     H34658  -0.196   0.043   2.896  0.0991 -0.1817  0.2166
  976MOL0     H34659  -0.296   0.064   3.036 -0.5778 -2.6205 -1.0202
  976MOL0     H34660  -0.004  -0.015   3.012  0.9769  1.6527  1.3972
  976MOL0     H34661  -0.063  -0.022   3.172  1.3314 -0.8331  0.4118
  976MOL0     H34662  -0.135  -0.200   2.952 -0.5568  0.7827 -1.0406
  976MOL0     H34663  -0.253  -0.185   3.089  0.8553  2.9784  1.7808
  976MOL0     H34664  -0.057  -0.244   3.247 -0.0201 -1.7137  0.4032
  976MOL0     H34665   0.038  -0.282   3.109 -1.7544  1.4107 -4.3172
  976MOL0     H34666  -0.045  -0.497   3.194 -1.8890 -1.9605  0.4799
  976MOL0     H34667  -0.134  -0.455   3.050  2.0949  0.9269 -0.4313
  976MOL0     H34668  -0.320   0.513   3.019  2.3615 -1.8283  1.6005
  976MOL0     H34669  -0.366   0.734   2.900 -0.0353 -3.2702 -1.8825
  976MOL0     H34670  -0.362   1.059   2.737 -1.5884  1.5808  1.0603
  976MOL0     H34671  -0.458   1.265   2.631  0.6095 -1.2687  0.7749
  976MOL0     H34672   0.472   2.457   2.502  0.0012  0.8302 -0.2854
  976MOL0     H34673   0.721   2.461   2.570 -1.4776 -2.2298 -2.3659
  976MOL0     H34674   1.195   2.579   2.334 -2.2833  1.0940 -0.4206
  976MOL0     H34675   1.423   2.549   2.417 -0.0675 -0.1357  1.2238
  976MOL0     H34676   1.523   2.800   2.717  2.6947  3.2121  0.5779
  976MOL0     H34677   1.667   2.696   2.736  0.1077 -3.2262 -1.8714
  976MOL0     H34678   1.525   2.794   2.492 -1.3345 -1.5769  2.4599
  976MOL0     H34679   1.680   2.719   2.470  1.8568  0.4786  0.8916
  976MOL0     H34680   1.639   2.982   2.615 -1.3480  0.5130 -0.7111
  976MOL0     H34681   1.791   2.909   2.610 -1.6903 -1.5406  0.9567
  976MOL0     H34682   1.751   2.917   2.342 -0.2148 -1.0541  1.2835
  976MOL0     H34683   1.766   3.077   2.419  0.3260  0.6684  0.7395
  976MOL0     H34684   1.354   3.064   2.286 -0.6417 -3.0816  1.2620
  976MOL0     H34685   1.312   2.698   2.795  2.4052 -1.2531 -0.5110
  976MOL0     H34686   0.988   2.842   2.712 -1.1698 -1.8778 -1.5045
  976MOL0     H34687   0.994   2.697   2.811  0.2687  1.3390  0.4247
  976MOL0     H34688   1.124   2.817   2.819 -0.6293 -1.1331  0.7376
  977MOL0     O34689  10.063   7.176   0.739  0.4467  0.8281  0.7346
  977MOL0     C34690   9.955   7.171   0.673 -0.0221 -0.2872 -0.5159
  977MOL0     O34691   9.942   7.161   0.539 -0.1337  0.0245 -0.4215
  977MOL0     C34692  10.059   7.157   0.465  0.0757 -0.4068 -0.3717
  977MOL0     C34693  10.063   7.064   0.362  1.0098  0.7532  0.4417
  977MOL0     C34694  10.172   7.075   0.279 -0.3794  0.4694  0.5889
  977MOL0     C34695  10.273   7.176   0.281  0.1893 -0.1324 -0.2547
  977MOL0     O34696  10.376   7.169   0.184 -0.3257 -0.4643  0.0282
  977MOL0     C34697  10.485   7.256   0.212 -0.2046 -0.3584 -0.6378
  977MOL0     C34698  10.603   7.218   0.109  0.4943 -0.4170 -0.1906
  977MOL0     C34699  10.727   7.295   0.148  0.6817  0.4533 -0.3911
  977MOL0     C34700  10.830   7.217   0.247 -0.4971  0.1442 -0.2081
  977MOL0     C34701  10.937   7.311   0.292 -0.6689 -0.5540 -0.0986
  977MOL0     C34702  11.055   7.254   0.375 -0.0900  0.9944  0.6751
  977MOL0     C34703  11.167   7.359   0.412  0.2104 -1.4217  0.2724
  977MOL0     C34704  11.293   7.295   0.471 -1.4397 -0.2832 -0.4022
  977MOL0     N34705  11.382   7.403   0.519  0.2262  0.0294 -0.3168
  977MOL0     C34706  11.444   7.494   0.436 -0.2205  0.5310  0.1225
  977MOL0     C34707  11.509   7.577   0.519  1.0478  0.0538  0.1234
  977MOL0     C34708  11.585   7.699   0.474  0.2986 -1.1576 -0.2950
  977MOL0     C34709  11.710   7.671   0.387 -0.2146  0.4958  0.0934
  977MOL0     C34710  11.832   7.671   0.482 -0.8856  1.3115 -0.6333
  977MOL0     C34711  11.960   7.616   0.425  0.2852 -0.0161 -0.0614
  977MOL0     O34712  12.069   7.654   0.514  0.5305  0.7215 -0.3947
  977MOL0     C34713  12.188   7.578   0.487  0.1153  0.3978 -0.4019
  977MOL0     C34714  12.273   7.615   0.393  0.5537 -0.2219  0.2717
  977MOL0     C34715  12.402   7.561   0.382  0.0496  0.1989 -0.1443
  977MOL0     C34716  12.484   7.618   0.268 -0.0873  0.2538 -0.3467
  977MOL0     C34717  12.437   7.446   0.459  0.5739 -0.1144 -0.4292
  977MOL0     C34718  12.575   7.386   0.456  0.3749  0.4297 -0.2362
  977MOL0     O34719  12.671   7.434   0.365  0.7646 -0.2880  0.0725
  977MOL0     C34720  12.805   7.386   0.382 -0.8511  0.3316  0.1651
  977MOL0     C34721  12.844   7.256   0.344  0.4011 -0.0093 -0.1771
  977MOL0     C34722  12.976   7.213   0.348  0.2338 -0.6097 -0.9585
  977MOL0     C34723  13.078   7.302   0.390  0.3756 -0.3472 -0.6287
  977MOL0     O34724  13.209   7.260   0.381 -0.2575  0.0566 -0.4170
  977MOL0     C34725  13.313   7.345   0.433  0.6464 -0.2329  0.8740
  977MOL0     C34726  13.452   7.281   0.454  0.8110  0.2310  1.1168
  977MOL0     C34727  13.493   7.202   0.327 -0.1419  0.3676  0.3437
  977MOL0     C34728  13.545   7.285   0.217 -1.2943 -0.1526  0.1145
  977MOL0     C34729  13.582   7.193   0.102  0.3494  0.6653 -0.0804
  977MOL0     C34730  13.606   7.266  -0.027 -0.8686  0.2466  0.1811
  977MOL0     C34731  13.688   7.192  -0.135 -0.0017  0.4768 -0.9578
  977MOL0     C34732  13.597   7.100  -0.208  0.1914 -0.0259  0.4836
  977MOL0    Cl34733  13.656   7.051  -0.370 -0.1122 -0.0188  0.4779
  977MOL0     C34734  13.033   7.423   0.443 -0.5109  0.3031 -0.1868
  977MOL0     C34735  12.902   7.467   0.435  0.3599 -0.3763 -0.6196
  977MOL0     O34736  12.589   7.293   0.536  0.3922  0.4829  0.4278
  977MOL0     C34737  12.344   7.410   0.562  0.4700  0.1064 -1.3692
  977MOL0     C34738  12.224   7.476   0.575  0.3424 -0.3803  0.3214
  977MOL0     N34739  11.481   7.553   0.647  0.1308 -0.4276 -0.2186
  977MOL0     N34740  11.402   7.451   0.640  0.1606 -0.1630 -0.4051
  977MOL0     C34741  10.263   7.271   0.383 -0.0831  0.1410  0.5511
  977MOL0     C34742  10.152   7.263   0.474  0.2943  0.6370 -0.0451
  977MOL0     C34743   9.827   7.186   0.749 -0.0108  0.0158  0.1576
  977MOL0     C34744   9.707   7.122   0.704 -0.3057 -0.4116  0.4376
  977MOL0     C34745   9.588   7.132   0.773  0.3077  0.2250 -0.2863
  977MOL0     C34746   9.592   7.207   0.894 -0.0936 -0.2655  0.0006
  977MOL0     O34747   9.484   7.209   0.980  0.2925 -1.0367  0.8485
  977MOL0     C34748   9.383   7.102   0.985  0.1175 -0.1898  0.3144
  977MOL0     C34749   9.266   7.115   0.892 -0.7859 -0.4862 -0.6187
  977MOL0     C34750   9.148   7.189   0.957 -0.9356  0.0586  0.2778
  977MOL0     C34751   9.031   7.220   0.858 -0.8465 -0.2675  0.0444
  977MOL0     C34752   8.945   7.105   0.823 -0.4068  0.6687 -0.4018
  977MOL0     C34753   8.884   6.997   0.806  0.5204  0.2887 -0.2161
  977MOL0     C34754   9.706   7.284   0.931  0.3361  0.3160  0.1097
  977MOL0     C34755   9.817   7.281   0.857 -1.0188  0.5641 -0.1713
  977MOL0     C34756   9.920   7.371   0.891 -0.3607  0.0048  0.1653
  977MOL0     H34757   9.997   6.977   0.360  0.4852  0.9917  3.0069
  977MOL0     H34758  10.198   6.996   0.208  0.2465  1.2427 -0.0592
  977MOL0     H34759  10.518   7.235   0.315 -0.6190 -1.2367 -0.6794
  977MOL0     H34760  10.455   7.360   0.201  1.0374  0.2248  1.0056
  977MOL0     H34761  10.618   7.110   0.100  0.0038 -0.6198  1.2058
  977MOL0     H34762  10.565   7.251   0.012 -1.1772  1.5098  1.0584
  977MOL0     H34763  10.782   7.311   0.055 -0.8996 -3.5377 -2.2813
  977MOL0     H34764  10.696   7.394   0.183 -3.3181 -0.0209 -2.0653
  977MOL0     H34765  10.779   7.189   0.339  0.5389 -2.5601 -0.3674
  977MOL0     H34766  10.868   7.125   0.203 -3.1236  0.0658 -2.6242
  977MOL0     H34767  10.885   7.389   0.349  0.8164  0.6868 -0.3523
  977MOL0     H34768  10.988   7.362   0.210 -1.6905 -0.6002 -0.7851
  977MOL0     H34769  11.013   7.204   0.463 -1.5496 -1.0432 -1.0937
  977MOL0     H34770  11.108   7.179   0.317 -0.9564  1.8327 -1.2832
  977MOL0     H34771  11.132   7.433   0.485  0.4841 -1.5634  0.5492
  977MOL0     H34772  11.200   7.416   0.325 -2.0971  0.3428  0.4686
  977MOL0     H34773  11.266   7.218   0.543  0.2789  1.4144  2.2067
  977MOL0     H34774  11.349   7.245   0.391  0.7926 -0.3713  1.1259
  977MOL0     H34775  11.447   7.500   0.327  1.7905 -0.7771  0.0388
  977MOL0     H34776  11.625   7.751   0.561 -0.1643 -2.4374  0.7055
  977MOL0     H34777  11.515   7.766   0.424  1.0183 -0.8378 -0.9053
  977MOL0     H34778  11.705   7.574   0.335  1.6605 -1.0393  2.5086
  977MOL0     H34779  11.715   7.752   0.314 -1.4173  2.1258  1.7553
  977MOL0     H34780  11.850   7.774   0.514  0.6398  1.9639 -3.3125
  977MOL0     H34781  11.801   7.619   0.573 -0.0466  1.9053  0.0014
  977MOL0     H34782  11.939   7.508   0.430  0.3670  0.0418  2.8335
  977MOL0     H34783  11.972   7.659   0.325 -2.9905 -0.8592 -0.9286
  977MOL0     H34784  12.232   7.703   0.345 -1.8871 -1.8330 -0.8302
  977MOL0     H34785  12.581   7.657   0.301  0.2022 -1.2800  0.7571
  977MOL0     H34786  12.436   7.695   0.207 -1.0630 -0.7475 -0.8860
  977MOL0     H34787  12.499   7.542   0.192 -1.2182 -0.5911  0.2412
  977MOL0     H34788  12.756   7.198   0.318 -0.0610  0.4428  0.3663
  977MOL0     H34789  12.997   7.115   0.307  1.5828 -0.6878 -0.1457
  977MOL0     H34790  13.327   7.418   0.352 -0.4928 -1.3197 -0.3549
  977MOL0     H34791  13.292   7.381   0.534  0.7574 -1.1825  1.2492
  977MOL0     H34792  13.532   7.350   0.478  0.3746  0.7758  1.0195
  977MOL0     H34793  13.438   7.206   0.532 -0.4335 -0.0618  0.6498
  977MOL0     H34794  13.406   7.147   0.291 -1.2314  2.0516  0.2767
  977MOL0     H34795  13.568   7.131   0.364  0.2472  0.4426 -0.3034
  977MOL0     H34796  13.636   7.333   0.253 -0.9614 -0.9172  0.3195
  977MOL0     H34797  13.473   7.358   0.179 -1.1012 -0.0131  0.0151
  977MOL0     H34798  13.666   7.134   0.141  0.8767  0.9843 -0.7128
  977MOL0     H34799  13.505   7.116   0.094 -1.4479  2.3809 -0.0109
  977MOL0     H34800  13.672   7.349   0.001  0.4517 -0.3197 -1.0949
  977MOL0     H34801  13.513   7.300  -0.073 -0.7575 -0.7693 -0.8256
  977MOL0     H34802  13.765   7.136  -0.082 -0.8634 -1.4438 -1.6488
  977MOL0     H34803  13.731   7.270  -0.198  0.4707  1.7395  0.8321
  977MOL0     H34804  13.495   7.138  -0.217 -1.6112 -2.7435  5.4106
  977MOL0     H34805  13.590   7.013  -0.142 -1.1228 -1.0327 -0.9039
  977MOL0     H34806  13.102   7.491   0.490 -0.3156  0.0392 -0.0892
  977MOL0     H34807  12.879   7.565   0.474 -0.5849 -0.6154 -0.5452
  977MOL0     H34808  12.358   7.317   0.617  2.6631 -1.3366 -4.1253
  977MOL0     H34809  12.149   7.446   0.648  1.3521 -0.5715  1.3008
  977MOL0     H34810  10.337   7.348   0.405 -1.8939  2.7003 -1.7097
  977MOL0     H34811  10.143   7.345   0.545  3.8670  1.0475  0.1277
  977MOL0     H34812   9.713   7.043   0.630 -0.6197  2.2670 -2.6649
  977MOL0     H34813   9.498   7.078   0.743 -0.9553  2.5223 -0.9064
  977MOL0     H34814   9.414   6.999   0.967 -1.5199 -1.0015  1.8559
  977MOL0     H34815   9.337   7.095   1.084 -2.1353 -2.4629 -0.7587
  977MOL0     H34816   9.226   7.015   0.876  0.0398 -0.8488 -0.4453
  977MOL0     H34817   9.308   7.175   0.810  1.5651  2.7708  2.6295
  977MOL0     H34818   9.107   7.128   1.038 -0.9279  1.5111  1.4304
  977MOL0     H34819   9.186   7.284   0.999 -0.9769  0.8640 -1.4277
  977MOL0     H34820   9.078   7.254   0.765 -1.8064 -1.7973 -1.0472
  977MOL0     H34821   8.966   7.294   0.906  0.4515  1.0241 -0.1368
  977MOL0     H34822   8.827   6.908   0.787  2.2173 -1.2109  1.3806
  977MOL0     H34823   9.681   7.346   1.016 -1.4662  0.6651 -0.6368
  977MOL0     H34824   9.896   7.434   0.977 -0.7993  0.1488 -0.0636
  977MOL0     H34825  10.010   7.315   0.919 -0.4039 -1.2664 -2.0508
  977MOL0     H34826   9.948   7.435   0.807 -0.8236  1.5561  1.1303
  978MOL0     O34827  11.087   4.303   7.986 -0.1618 -0.6766 -0.2873
  978MOL0     C34828  11.013   4.327   8.080 -0.5433 -0.1702 -0.4662
  978MOL0     O34829  11.063   4.359   8.205  0.8923 -0.1569  0.2482
  978MOL0     C34830  11.195   4.385   8.239 -1.2656  0.3936  0.5200
  978MOL0     C34831  11.313   4.388   8.152 -1.2098 -0.1539 -0.5730
  978MOL0     C34832  11.438   4.427   8.199 -0.5347 -0.1377 -0.6770
  978MOL0     C34833  11.453   4.459   8.331 -0.1632  0.3799  0.9073
  978MOL0     O34834  11.564   4.503   8.394  1.4968 -0.3759 -0.0828
  978MOL0     C34835  11.682   4.544   8.324 -0.1730  0.1454 -0.2442
  978MOL0     C34836  11.812   4.523   8.412  0.1012 -0.2876  0.0727
  978MOL0     C34837  11.854   4.656   8.480 -0.8291  0.9018 -0.2398
  978MOL0     C34838  11.997   4.638   8.539  0.1685 -0.0042  0.2542
  978MOL0     C34839  11.983   4.576   8.679 -0.3532  1.2816 -0.7707
  978MOL0     C34840  12.095   4.628   8.773 -0.2795  0.1104  0.5221
  978MOL0     C34841  12.238   4.597   8.717  0.7477 -0.9728 -0.7851
  978MOL0     C34842  12.347   4.665   8.799  0.6801  0.7088  0.1398
  978MOL0     N34843  12.364   4.807   8.767  0.1445  0.4628  0.3814
  978MOL0     C34844  12.312   4.865   8.657  0.5582 -0.3279  0.5702
  978MOL0     C34845  12.330   4.991   8.662 -0.4258 -0.3406  0.0069
  978MOL0     C34846  12.291   5.101   8.567  0.3016  0.1122  0.2576
  978MOL0     C34847  12.154   5.182   8.607  0.1126 -0.1821 -0.2146
  978MOL0     C34848  12.150   5.244   8.745 -0.3348  0.4146 -0.1169
  978MOL0     C34849  12.269   5.328   8.774  0.4134 -0.9311  0.2440
  978MOL0     O34850  12.242   5.407   8.894 -0.1370 -1.1789  0.2847
  978MOL0     C34851  12.284   5.371   9.019  0.3395 -0.5524 -0.3229
  978MOL0     C34852  12.296   5.480   9.112 -0.2514 -0.1881 -0.6024
  978MOL0     C34853  12.349   5.455   9.241  0.7060  0.3148  0.3202
  978MOL0     C34854  12.356   5.570   9.343  0.1147  0.4335  0.4290
  978MOL0     C34855  12.415   5.325   9.269  0.8189 -0.0057  0.5616
  978MOL0     C34856  12.483   5.294   9.399 -1.0006 -0.6475  0.3640
  978MOL0     O34857  12.478   5.168   9.444 -0.3474  0.4569  0.3247
  978MOL0     C34858  12.528   5.128   9.561  0.1381  0.3896 -0.2620
  978MOL0     C34859  12.669   5.112   9.574  0.0187  0.6226  0.7438
  978MOL0     C34860  12.715   5.040   9.687 -0.7330  0.2085 -0.2309
  978MOL0     C34861  12.627   4.989   9.780 -0.7032 -0.4581 -0.4519
  978MOL0     O34862  12.670   4.895   9.879  0.0159  0.2565  0.3628
  978MOL0     C34863  12.805   4.869   9.901  0.5382  0.1160  0.8985
  978MOL0     C34864  12.811   4.744   9.989 -0.3120 -0.1477  0.6538
  978MOL0     C34865  12.957   4.722  10.045  1.1907 -1.1030 -0.8263
  978MOL0     C34866  12.949   4.601  10.133  0.4141  0.3986  0.0423
  978MOL0     C34867  13.081   4.554  10.192  0.3163 -0.7109 -0.5799
  978MOL0     C34868  13.197   4.508  10.100  0.3487  0.2428  0.7309
  978MOL0     C34869  13.176   4.364  10.032  0.2734 -0.2556 -0.0669
  978MOL0     C34870  13.272   4.359   9.905  0.0042 -0.0469 -1.0009
  978MOL0    Cl34871  13.196   4.457   9.787 -0.0342 -0.4365  0.1986
  978MOL0     C34872  12.492   5.021   9.776  0.4201  0.4860  0.5233
  978MOL0     C34873  12.438   5.086   9.656  0.1139 -0.3514 -0.8543
  978MOL0     O34874  12.539   5.387   9.460 -0.2830 -0.1041 -0.6478
  978MOL0     C34875  12.410   5.230   9.172 -0.3441 -0.4841  0.8042
  978MOL0     C34876  12.339   5.246   9.050  0.4092 -0.8357 -0.4481
  978MOL0     N34877  12.407   5.014   8.776 -0.5179 -0.2545 -0.0945
  978MOL0     N34878  12.427   4.901   8.838  0.2873 -0.2807 -0.1953
  978MOL0     C34879  11.344   4.434   8.423  0.3630  0.2360 -0.4732
  978MOL0     C34880  11.218   4.392   8.380 -0.2939  0.3094  0.2089
  978MOL0     C34881  10.862   4.316   8.061 -0.5539 -0.1404 -0.6107
  978MOL0     C34882  10.793   4.369   8.170 -0.4386 -0.4959 -0.2640
  978MOL0     C34883  10.658   4.367   8.171  0.7010  0.0205 -0.0701
  978MOL0     C34884  10.589   4.286   8.083 -0.4671  0.2465 -0.7120
  978MOL0     O34885  10.454   4.275   8.111 -0.1109 -0.4520  0.5403
  978MOL0     C34886  10.381   4.161   8.089  0.0881  0.6539 -0.3345
  978MOL0     C34887  10.425   4.047   8.184 -0.5743  0.7585  0.2601
  978MOL0     C34888  10.437   4.084   8.332  0.0579 -0.0430  0.1864
  978MOL0     C34889  10.427   3.955   8.422  0.8827 -0.2515 -0.3782
  978MOL0     C34890  10.542   3.864   8.413 -0.4756  1.2101  1.3526
  978MOL0     C34891  10.633   3.783   8.394 -0.2586  0.1557  0.5371
  978MOL0     C34892  10.655   4.218   7.975 -0.0044 -0.5786 -0.4631
  978MOL0     C34893  10.794   4.240   7.955 -0.7327  0.1728 -0.7531
  978MOL0     C34894  10.866   4.162   7.843 -0.0900  0.2327 -0.0168
  978MOL0     H34895  11.303   4.371   8.045 -0.3389  2.3344 -1.1072
  978MOL0     H34896  11.517   4.424   8.125 -1.4443 -2.0566 -1.6373
  978MOL0     H34897  11.688   4.639   8.270  2.3860 -0.8965 -2.0206
  978MOL0     H34898  11.696   4.476   8.240 -0.6192  0.8060 -0.8602
  978MOL0     H34899  11.799   4.447   8.489  0.5722 -0.5151 -0.0706
  978MOL0     H34900  11.892   4.478   8.354  0.4452 -0.2141  0.4873
  978MOL0     H34901  11.858   4.721   8.392  1.8262  0.1644 -0.7351
  978MOL0     H34902  11.785   4.681   8.562  1.8303  3.2729  1.4651
  978MOL0     H34903  12.059   4.583   8.468 -2.5136 -0.6791 -1.7547
  978MOL0     H34904  12.051   4.732   8.554  0.9292 -0.4562  0.3869
  978MOL0     H34905  11.995   4.467   8.676 -1.2209  1.1967 -1.5238
  978MOL0     H34906  11.888   4.603   8.726  0.1833  1.9122 -0.0248
  978MOL0     H34907  12.082   4.737   8.783 -0.2574  0.3096 -1.3459
  978MOL0     H34908  12.077   4.565   8.860  2.3721 -2.5670 -0.7072
  978MOL0     H34909  12.243   4.623   8.611 -0.5095 -1.6846 -1.0387
  978MOL0     H34910  12.244   4.489   8.733 -1.0801 -0.8321  1.2971
  978MOL0     H34911  12.322   4.653   8.905  0.4082 -0.8368 -0.0692
  978MOL0     H34912  12.442   4.615   8.776  0.4188  0.0381  0.4650
  978MOL0     H34913  12.265   4.813   8.574  0.5701 -0.0062  0.3638
  978MOL0     H34914  12.282   5.051   8.470  0.6791 -0.0532  0.3050
  978MOL0     H34915  12.375   5.171   8.561 -1.3438  2.0839 -1.4316
  978MOL0     H34916  12.132   5.249   8.524 -1.1745  0.4993  0.6463
  978MOL0     H34917  12.067   5.117   8.620 -0.5294  0.6542 -0.3138
  978MOL0     H34918  12.063   5.309   8.760  1.2826  2.8407 -0.5535
  978MOL0     H34919  12.152   5.155   8.809 -0.4876  0.8683  0.5297
  978MOL0     H34920  12.358   5.269   8.797  0.2584 -0.3903  2.4351
  978MOL0     H34921  12.281   5.403   8.695  1.9250  0.3015  1.5745
  978MOL0     H34922  12.271   5.584   9.091  1.5362  0.6147  0.9435
  978MOL0     H34923  12.278   5.645   9.327  1.2442  1.4796 -0.3198
  978MOL0     H34924  12.450   5.623   9.330  0.3467  0.1865  1.0335
  978MOL0     H34925  12.357   5.522   9.442 -0.3624  1.9668  1.2102
  978MOL0     H34926  12.736   5.136   9.492 -0.1831 -0.6391  0.1830
  978MOL0     H34927  12.821   5.015   9.692 -0.7940 -0.0199 -0.0757
  978MOL0     H34928  12.863   4.840   9.813 -0.6295 -0.6896  0.3611
  978MOL0     H34929  12.856   4.953   9.949  0.3517  0.4493  0.5284
  978MOL0     H34930  12.750   4.749  10.079 -0.1052 -0.6654  0.8240
  978MOL0     H34931  12.767   4.661   9.934 -0.7258 -0.6494  1.7164
  978MOL0     H34932  12.969   4.810  10.109 -1.1256 -1.5540  0.3447
  978MOL0     H34933  13.038   4.712   9.973  2.4294 -0.5850  0.4479
  978MOL0     H34934  12.906   4.518  10.077  1.5784  0.8187 -1.5315
  978MOL0     H34935  12.874   4.625  10.210 -2.3269 -0.0098 -2.3216
  978MOL0     H34936  13.126   4.638  10.244 -0.6183 -1.6151  1.8366
  978MOL0     H34937  13.075   4.480  10.273  2.2561  0.0508  0.3021
  978MOL0     H34938  13.276   4.479  10.170 -2.6132 -1.1764  3.7749
  978MOL0     H34939  13.224   4.587  10.031 -2.3277  0.4296 -0.2421
  978MOL0     H34940  13.073   4.345   9.999 -0.8927  1.5545  2.2122
  978MOL0     H34941  13.204   4.278  10.094 -0.8702 -1.5267 -1.2348
  978MOL0     H34942  13.278   4.257   9.867  0.3819  0.9800 -3.9363
  978MOL0     H34943  13.375   4.385   9.933  0.0529 -3.0401  2.2402
  978MOL0     H34944  12.434   4.961   9.845  0.6912 -1.6349 -0.9928
  978MOL0     H34945  12.332   5.102   9.637  0.1421 -1.4343 -2.0586
  978MOL0     H34946  12.456   5.134   9.189 -0.6210 -0.8975 -0.6285
  978MOL0     H34947  12.340   5.168   8.975  0.9899 -0.0688 -1.2616
  978MOL0     H34948  11.363   4.446   8.530 -0.7682  2.1186 -0.4281
  978MOL0     H34949  11.149   4.371   8.461 -1.3346  1.0107 -0.4743
  978MOL0     H34950  10.837   4.423   8.253  0.0023 -0.6749 -0.3782
  978MOL0     H34951  10.602   4.420   8.248 -1.1242  0.1008 -1.3822
  978MOL0     H34952  10.276   4.185   8.107 -0.2459 -1.1300  0.3031
  978MOL0     H34953  10.375   4.116   7.989  0.3586 -2.1165  0.8039
  978MOL0     H34954  10.510   3.991   8.145 -0.6168  0.2114  0.9393
  978MOL0     H34955  10.335   3.986   8.171  0.3608 -0.4017 -0.9691
  978MOL0     H34956  10.521   4.152   8.354 -1.1240  1.4317  0.2881
  978MOL0     H34957  10.346   4.136   8.364 -0.6630  0.7752 -2.8881
  978MOL0     H34958  10.335   3.905   8.389 -0.5874 -0.0681  3.0296
  978MOL0     H34959  10.417   3.980   8.528 -0.9149  0.3029 -0.6325
  978MOL0     H34960  10.706   3.704   8.388  0.3296  0.5467  2.1068
  978MOL0     H34961  10.598   4.142   7.921 -0.0521  0.3214 -1.7399
  978MOL0     H34962  10.892   4.225   7.757  0.2977  3.9447  2.6147
  978MOL0     H34963  10.955   4.123   7.893  0.6823  0.2941 -1.2831
  978MOL0     H34964  10.808   4.073   7.816 -0.0821  0.2555 -0.1085
  979MOL0     O34965   6.915   6.329   2.699 -0.2814  0.5876 -0.1096
  979MOL0     C34966   7.024   6.386   2.713  0.7025 -0.1701  0.2317
  979MOL0     O34967   7.044   6.473   2.819 -0.2800 -0.5878 -0.2316
  979MOL0     C34968   6.947   6.487   2.918  0.5703  0.3283 -0.2935
  979MOL0     C34969   6.897   6.610   2.939 -0.4810  0.0209  0.1907
  979MOL0     C34970   6.787   6.636   3.014  0.2679  0.6744 -0.7289
  979MOL0     C34971   6.722   6.522   3.071 -0.3539  0.0794  0.2449
  979MOL0     O34972   6.597   6.554   3.118 -0.3922  0.7487  0.0637
  979MOL0     C34973   6.524   6.452   3.191 -0.1359  0.2990  0.0555
  979MOL0     C34974   6.425   6.374   3.106  0.2635 -1.0919 -0.3711
  979MOL0     C34975   6.495   6.278   3.010 -0.6451  0.0295  0.2531
  979MOL0     C34976   6.404   6.222   2.896 -0.0612 -0.5848  0.5189
  979MOL0     C34977   6.263   6.175   2.938 -0.5791  0.2792  0.2213
  979MOL0     C34978   6.190   6.132   2.805  0.2761  0.5576 -0.2964
  979MOL0     C34979   6.042   6.080   2.831  0.3754  0.1479  0.4307
  979MOL0     C34980   5.968   6.012   2.714  0.5497  0.2181 -0.2634
  979MOL0     N34981   5.971   6.088   2.592 -0.1470  0.3498 -0.2222
  979MOL0     C34982   5.861   6.101   2.512  0.3416 -0.7816  0.8418
  979MOL0     C34983   5.913   6.132   2.391  0.0723 -0.0956  0.0981
  979MOL0     C34984   5.841   6.172   2.266 -0.7683  0.7773  0.4001
  979MOL0     C34985   5.853   6.059   2.163  0.6189 -0.2468  0.2004
  979MOL0     C34986   5.758   6.068   2.040  0.3784  1.0558 -0.6246
  979MOL0     C34987   5.739   6.202   1.967 -0.1322 -0.2473 -0.5601
  979MOL0     O34988   5.831   6.243   1.872  0.2220  0.0842 -0.0473
  979MOL0     C34989   5.833   6.381   1.846 -0.2582 -0.5997 -0.8857
  979MOL0     C34990   5.729   6.471   1.872 -0.2081  0.3799 -0.3489
  979MOL0     C34991   5.740   6.608   1.842 -0.5023  0.3941 -0.4607
  979MOL0     C34992   5.627   6.692   1.899  0.1865  0.0863  0.3954
  979MOL0     C34993   5.853   6.664   1.779 -0.0051  0.2742 -0.9633
  979MOL0     C34994   5.882   6.808   1.758  0.3166  0.3306  0.5478
  979MOL0     O34995   5.991   6.839   1.671 -0.7461  0.1691 -0.2344
  979MOL0     C34996   5.994   6.968   1.633  0.3713 -1.1186  0.3184
  979MOL0     C34997   6.088   7.060   1.690 -0.4643  0.1136 -0.4803
  979MOL0     C34998   6.089   7.194   1.631 -0.4359  0.0287 -0.2558
  979MOL0     C34999   6.000   7.238   1.533  0.4526  1.0330  0.9745
  979MOL0     O35000   5.994   7.369   1.489 -0.2279  0.0295  0.6675
  979MOL0     C35001   6.122   7.405   1.426  0.3966  1.3150 -0.4956
  979MOL0     C35002   6.114   7.530   1.332  0.4695  0.5883 -0.1492
  979MOL0     C35003   6.246   7.597   1.300  0.0085  0.7745 -0.0116
  979MOL0     C35004   6.213   7.721   1.206  0.1256  0.0078  0.4522
  979MOL0     C35005   6.339   7.801   1.164 -0.2747 -0.3287 -0.1878
  979MOL0     C35006   6.393   7.745   1.040 -0.2600 -0.0765  0.2307
  979MOL0     C35007   6.523   7.808   0.978  0.7983 -1.0107  0.1936
  979MOL0     C35008   6.519   7.954   0.945 -0.0271 -0.2983 -0.0698
  979MOL0    Cl35009   6.363   8.008   0.879 -0.0337 -0.7641  0.1371
  979MOL0     C35010   5.907   7.146   1.482  0.1045  0.1512  0.2863
  979MOL0     C35011   5.905   7.012   1.531 -0.2169  0.9235 -0.1173
  979MOL0     O35012   5.808   6.886   1.809 -1.0882  0.0726 -0.0495
  979MOL0     C35013   5.949   6.564   1.737 -0.1521 -0.8503 -0.2560
  979MOL0     C35014   5.942   6.424   1.774  0.1365 -0.3372 -0.3175
  979MOL0     N35015   6.049   6.122   2.393  0.3065  0.3582 -0.3401
  979MOL0     N35016   6.083   6.094   2.516 -0.2435 -0.7019 -0.4588
  979MOL0     C35017   6.790   6.397   3.065  0.1071 -0.1357 -0.6801
  979MOL0     C35018   6.894   6.371   2.984 -0.6814 -0.0691 -1.3495
  979MOL0     C35019   7.129   6.377   2.604 -0.2754  0.2037 -0.2729
  979MOL0     C35020   7.248   6.442   2.637  0.5193 -0.8016 -0.2540
  979MOL0     C35021   7.358   6.423   2.555 -0.0059  0.2760 -1.4582
  979MOL0     C35022   7.351   6.338   2.440  0.0586 -0.2698 -0.9175
  979MOL0     O35023   7.449   6.299   2.351  0.0855 -0.2466 -0.4809
  979MOL0     C35024   7.576   6.372   2.365  0.4376  0.5832 -0.7400
  979MOL0     C35025   7.664   6.345   2.247  0.4683  1.4073 -0.2801
  979MOL0     C35026   7.698   6.185   2.240 -0.1060 -0.8219 -0.0776
  979MOL0     C35027   7.803   6.167   2.126 -0.0392  0.2934 -0.6522
  979MOL0     C35028   7.858   6.033   2.121 -0.2060  0.2498  0.6273
  979MOL0     C35029   7.888   5.919   2.106 -0.9786  0.4837 -0.2384
  979MOL0     C35030   7.227   6.290   2.412 -0.0761  1.1642 -0.5289
  979MOL0     C35031   7.112   6.305   2.483 -0.7972 -0.1314 -0.7803
  979MOL0     C35032   6.987   6.234   2.439  0.8328  1.3558 -0.1505
  979MOL0     H35033   6.957   6.692   2.902  0.9644 -1.5864 -1.2081
  979MOL0     H35034   6.743   6.735   3.011  3.2196  2.0816 -0.8208
  979MOL0     H35035   6.456   6.504   3.258 -2.5941 -2.8096  0.1658
  979MOL0     H35036   6.590   6.403   3.263  2.0096 -0.5582 -2.3218
  979MOL0     H35037   6.363   6.322   3.179  0.7659  3.3139  3.6914
  979MOL0     H35038   6.359   6.438   3.046 -4.1108 -1.8590  3.1172
  979MOL0     H35039   6.578   6.327   2.959 -0.9284  2.2530  1.7678
  979MOL0     H35040   6.533   6.194   3.068  0.9471  2.3653  2.8617
  979MOL0     H35041   6.386   6.306   2.828 -3.1791 -2.8096 -1.7313
  979MOL0     H35042   6.457   6.151   2.833  0.0584 -0.0925  0.0563
  979MOL0     H35043   6.202   6.252   2.986  0.1671  1.3768 -0.5503
  979MOL0     H35044   6.266   6.082   2.996  0.9252 -1.4145 -2.3368
  979MOL0     H35045   6.182   6.219   2.739 -0.3194 -0.9422 -2.3129
  979MOL0     H35046   6.242   6.058   2.743  1.8759  0.7653  0.7524
  979MOL0     H35047   5.969   6.153   2.868 -1.9774 -1.9281  0.1689
  979MOL0     H35048   6.056   6.008   2.912  1.4150 -0.5466 -0.3325
  979MOL0     H35049   6.005   5.912   2.693  0.5749  0.1649  0.0314
  979MOL0     H35050   5.863   6.000   2.745  1.3683 -0.7062  2.4233
  979MOL0     H35051   5.757   6.096   2.540  0.1448 -0.6041  0.1654
  979MOL0     H35052   5.890   6.262   2.229 -1.9386  1.9278  1.5479
  979MOL0     H35053   5.733   6.184   2.278 -0.9101 -1.6549  2.2959
  979MOL0     H35054   5.955   6.063   2.122 -0.0417 -0.4691 -1.5742
  979MOL0     H35055   5.839   5.964   2.216 -2.5347  1.1613  2.1942
  979MOL0     H35056   5.779   5.993   1.962 -2.2142  1.9996 -2.3581
  979MOL0     H35057   5.656   6.041   2.068 -0.4017 -2.4620 -5.4296
  979MOL0     H35058   5.642   6.188   1.918 -0.2071 -1.7113 -0.0497
  979MOL0     H35059   5.734   6.287   2.036  2.4045 -0.0967 -0.4644
  979MOL0     H35060   5.632   6.432   1.903  0.5328 -2.6071 -1.4441
  979MOL0     H35061   5.602   6.769   1.825  0.1955 -2.0066 -1.9395
  979MOL0     H35062   5.667   6.737   1.990  0.4475  0.6834 -0.0111
  979MOL0     H35063   5.538   6.630   1.915 -0.8337  1.1199 -1.0166
  979MOL0     H35064   6.149   7.046   1.779  0.4652  3.8152 -0.3533
  979MOL0     H35065   6.142   7.274   1.682 -1.1250  0.0546  0.4365
  979MOL0     H35066   6.186   7.441   1.507 -1.3916  5.8263 -0.8278
  979MOL0     H35067   6.160   7.323   1.364 -3.8640  0.0333 -1.7654
  979MOL0     H35068   6.067   7.503   1.237  3.1135  1.7318 -1.9108
  979MOL0     H35069   6.048   7.602   1.381 -0.7888  0.8253 -2.0964
  979MOL0     H35070   6.313   7.520   1.260  0.4171  1.2357 -0.2209
  979MOL0     H35071   6.285   7.633   1.396  0.8972  0.0137 -0.0756
  979MOL0     H35072   6.157   7.789   1.271  3.9099  3.8215  0.1928
  979MOL0     H35073   6.158   7.687   1.117  0.1377  1.5854 -0.2044
  979MOL0     H35074   6.305   7.903   1.149  0.8430  0.4001  1.7942
  979MOL0     H35075   6.410   7.798   1.248  2.0109 -1.3430 -2.0622
  979MOL0     H35076   6.334   7.758   0.949  0.4627  0.3027 -0.1949
  979MOL0     H35077   6.422   7.642   1.064  2.9075  0.2880 -1.4517
  979MOL0     H35078   6.538   7.755   0.884 -2.5773 -2.8112  0.5153
  979MOL0     H35079   6.616   7.779   1.028  1.4576 -0.3778 -0.6270
  979MOL0     H35080   6.599   7.979   0.875 -2.4945  1.8034 -2.3502
  979MOL0     H35081   6.529   8.008   1.039 -4.4680 -0.7819  0.9172
  979MOL0     H35082   5.843   7.184   1.402 -1.7613 -1.3785  0.9522
  979MOL0     H35083   5.832   6.941   1.494 -0.8893  0.6065  1.6965
  979MOL0     H35084   6.035   6.589   1.674 -0.6164  1.1952 -0.1169
  979MOL0     H35085   6.017   6.354   1.740  0.1386 -0.8763  0.7422
  979MOL0     H35086   6.734   6.318   3.114  2.7808 -0.4524  2.2213
  979MOL0     H35087   6.935   6.271   2.973  1.6346  0.8620 -1.7196
  979MOL0     H35088   7.267   6.500   2.726 -1.0683 -1.8936  0.8346
  979MOL0     H35089   7.451   6.460   2.598 -1.2788  0.2350  1.6342
  979MOL0     H35090   7.566   6.481   2.371 -0.1648  0.4455  1.4252
  979MOL0     H35091   7.619   6.341   2.461 -0.3069  0.8311 -0.3240
  979MOL0     H35092   7.758   6.400   2.256  1.5685  0.6228 -4.5288
  979MOL0     H35093   7.615   6.383   2.156  1.4091  0.8618 -1.0350
  979MOL0     H35094   7.740   6.161   2.338 -2.6821  0.7450  1.5137
  979MOL0     H35095   7.607   6.130   2.218 -1.2237  0.7878  0.3565
  979MOL0     H35096   7.885   6.233   2.154  2.0995 -2.0844 -1.0174
  979MOL0     H35097   7.754   6.208   2.037 -2.7855 -0.5504  0.3667
  979MOL0     H35098   7.927   5.819   2.105 -0.5757  0.6111  1.0818
  979MOL0     H35099   7.214   6.229   2.323 -4.3615 -0.3943  0.8835
  979MOL0     H35100   6.907   6.307   2.433  2.2888  2.8882 -2.9167
  979MOL0     H35101   6.992   6.193   2.337  0.4993  1.9904 -0.4281
  979MOL0     H35102   6.946   6.151   2.498  0.0419  0.1561 -2.2754
  980MOL0     O35103   7.452   9.973   0.672 -0.1168 -0.1472 -0.7754
  980MOL0     C35104   7.360   9.935   0.606 -0.6638 -0.0005  0.2645
  980MOL0     O35105   7.362   9.891   0.473  0.8200  0.4898  0.2200
  980MOL0     C35106   7.473   9.861   0.413  0.2766 -0.3371 -0.0398
  980MOL0     C35107   7.540   9.956   0.328 -0.7689 -0.2819 -0.5030
  980MOL0     C35108   7.664   9.923   0.278 -0.0639  0.0203  0.0108
  980MOL0     C35109   7.715   9.791   0.295  0.1458 -0.4358  0.8185
  980MOL0     O35110   7.845   9.750   0.264  0.0550 -0.0908 -0.0749
  980MOL0     C35111   7.935   9.850   0.200 -0.3747  1.0380  0.2449
  980MOL0     C35112   7.999   9.934   0.303 -0.2966  0.7033 -0.0239
  980MOL0     C35113   8.105  10.016   0.238 -0.9541 -0.4971 -0.0836
  980MOL0     C35114   8.054  10.135   0.148  0.0824 -0.2235 -0.8119
  980MOL0     C35115   8.167  10.214   0.081  0.1961 -0.9809  0.1019
  980MOL0     C35116   8.258  10.126  -0.013  0.4553  0.1183  0.5965
  980MOL0     C35117   8.376  10.196  -0.056  0.3082  0.5816  0.2651
  980MOL0     C35118   8.454  10.136  -0.176 -0.2079 -0.0476 -0.2321
  980MOL0     N35119   8.577  10.053  -0.145 -0.3477 -0.2346  0.3204
  980MOL0     C35120   8.681  10.107  -0.074  0.0478  0.0666 -0.4631
  980MOL0     C35121   8.779  10.012  -0.069 -0.0600  0.4928 -0.7120
  980MOL0     C35122   8.909   9.997   0.007  1.3809  0.3136  0.9042
  980MOL0     C35123   9.023  10.077  -0.064 -0.0988  0.7470  0.1708
  980MOL0     C35124   9.079  10.000  -0.183  0.6532 -0.3298  0.8139
  980MOL0     C35125   9.018  10.042  -0.325  0.1917 -0.0448 -0.1598
  980MOL0     O35126   9.094   9.965  -0.422  0.1477 -0.2214  0.0498
  980MOL0     C35127   9.071   9.828  -0.450  0.3000  0.5087  0.5346
  980MOL0     C35128   9.149   9.774  -0.551  0.8280  0.1430 -0.2845
  980MOL0     C35129   9.142   9.639  -0.599 -0.0409 -0.5496  0.1480
  980MOL0     C35130   9.255   9.599  -0.686 -0.0276  0.5282  0.0932
  980MOL0     C35131   9.039   9.557  -0.542  0.4689  0.0156 -0.7003
  980MOL0     C35132   9.014   9.413  -0.584 -0.2606  1.6505 -0.7551
  980MOL0     O35133   8.912   9.349  -0.517 -0.4651 -0.8685 -0.0358
  980MOL0     C35134   8.880   9.220  -0.560 -0.8090 -0.4688 -0.3861
  980MOL0     C35135   8.866   9.121  -0.464 -0.3034  1.1342  1.1848
  980MOL0     C35136   8.828   8.988  -0.503  0.2890 -0.0366  0.5080
  980MOL0     C35137   8.807   8.954  -0.632  0.0745  0.5317 -0.8355
  980MOL0     O35138   8.775   8.829  -0.672  0.6205  0.4614  0.1698
  980MOL0     C35139   8.796   8.709  -0.591  0.1241  0.2230 -0.0433
  980MOL0     C35140   8.723   8.589  -0.644  0.2977 -0.1843  0.8225
  980MOL0     C35141   8.764   8.555  -0.791  0.7697  0.7662 -0.3722
  980MOL0     C35142   8.898   8.478  -0.801  0.4230 -0.5554 -0.4310
  980MOL0     C35143   8.892   8.357  -0.897  0.3011  0.1570 -0.2232
  980MOL0     C35144   9.037   8.313  -0.947 -0.8017 -0.7626 -0.1472
  980MOL0     C35145   9.039   8.253  -1.084 -0.2970  0.0190 -0.5979
  980MOL0     C35146   9.188   8.267  -1.132 -0.1183  0.2768 -0.9015
  980MOL0    Cl35147   9.207   8.177  -1.289  0.3093 -0.1821  0.0933
  980MOL0     C35148   8.813   9.060  -0.725 -0.7621 -0.2623 -0.0634
  980MOL0     C35149   8.847   9.191  -0.690  0.0744 -0.3352  0.1712
  980MOL0     O35150   9.094   9.359  -0.667 -1.0183 -0.3089  0.3043
  980MOL0     C35151   8.962   9.610  -0.439  0.1013 -0.8850 -0.4462
  980MOL0     C35152   8.971   9.744  -0.395  0.2315 -0.0532 -0.0455
  980MOL0     N35153   8.739   9.909  -0.149  0.6045 -0.0425  0.1371
  980MOL0     N35154   8.616   9.926  -0.183 -0.0872  0.1104  0.2813
  980MOL0     C35155   7.640   9.701   0.365  0.6285 -0.3529  0.5690
  980MOL0     C35156   7.515   9.730   0.419  0.8255 -0.7101  0.1629
  980MOL0     C35157   7.219   9.938   0.658 -0.3037  0.0776 -0.0586
  980MOL0     C35158   7.123   9.845   0.610  0.3408  0.8007  0.6700
  980MOL0     C35159   6.993   9.838   0.666  0.0108  0.1283  0.3477
  980MOL0     C35160   6.948   9.935   0.757  0.0033 -0.0204 -0.4487
  980MOL0     O35161   6.826   9.933   0.824 -0.4867  0.0192  0.9045
  980MOL0     C35162   6.733   9.824   0.793 -0.5811 -1.3090 -0.2989
  980MOL0     C35163   6.616   9.829   0.897 -0.0891 -0.7630  0.5373
  980MOL0     C35164   6.648   9.739   1.019 -0.6109 -0.1288 -0.1647
  980MOL0     C35165   6.544   9.708   1.110 -0.1595 -0.7847 -0.1157
  980MOL0     C35166   6.516   9.819   1.201 -0.3710 -0.2562  0.8006
  980MOL0     C35167   6.470   9.909   1.269 -0.1960  0.3007 -0.0486
  980MOL0     C35168   7.043  10.026   0.798 -0.1053 -0.4874  0.1303
  980MOL0     C35169   7.177  10.024   0.761 -0.2302  0.0769  0.3912
  980MOL0     C35170   7.270  10.138   0.816  0.1950 -0.0582 -0.6296
  980MOL0     H35171   7.506  10.059   0.316  1.1475  0.3960 -0.5322
  980MOL0     H35172   7.718   9.998   0.221 -3.0695  1.2699 -1.4669
  980MOL0     H35173   7.887   9.922   0.133 -0.2693  1.8185  0.9895
  980MOL0     H35174   8.011   9.799   0.141  0.2484  0.4806  1.4950
  980MOL0     H35175   7.931  10.005   0.350 -1.9142 -1.3524  0.9091
  980MOL0     H35176   8.027   9.883   0.396 -2.1702  0.6763  0.5706
  980MOL0     H35177   8.157  10.074   0.315  1.3409 -3.6737  0.9526
  980MOL0     H35178   8.172   9.945   0.188 -0.0242  0.0398  0.3711
  980MOL0     H35179   7.994  10.085   0.071 -1.0992 -2.2563  1.3145
  980MOL0     H35180   7.983  10.188   0.212 -0.6399 -0.4216 -1.4321
  980MOL0     H35181   8.233  10.248   0.161 -1.0186  0.5656  0.4848
  980MOL0     H35182   8.136  10.305   0.030  0.2912 -1.6423 -1.1838
  980MOL0     H35183   8.289  10.039   0.046 -1.0415  0.8446  2.5693
  980MOL0     H35184   8.197  10.099  -0.099  1.3713 -0.1451  0.0186
  980MOL0     H35185   8.450  10.204   0.024  2.5114  1.1160 -1.6965
  980MOL0     H35186   8.348  10.296  -0.090  1.2704  0.9906  0.6234
  980MOL0     H35187   8.385  10.068  -0.226 -1.9111  2.2915 -1.2651
  980MOL0     H35188   8.493  10.218  -0.237 -1.4450  1.4607  0.9146
  980MOL0     H35189   8.683  10.207  -0.032 -0.9246  0.5570 -1.5453
  980MOL0     H35190   8.941   9.893   0.015 -0.5503 -0.1898  3.4874
  980MOL0     H35191   8.899  10.036   0.108  1.8601 -0.0098  1.0757
  980MOL0     H35192   8.978  10.173  -0.089  0.3780  0.4300 -2.1333
  980MOL0     H35193   9.098  10.088   0.015 -1.1400  1.0840  1.1236
  980MOL0     H35194   9.187  10.015  -0.186  0.7650 -1.2598 -0.5732
  980MOL0     H35195   9.070   9.892  -0.165 -0.3354 -0.5579 -0.8168
  980MOL0     H35196   8.910  10.034  -0.331  0.2056  0.4362 -1.2221
  980MOL0     H35197   9.053  10.145  -0.331  0.9121 -0.2463  0.3457
  980MOL0     H35198   9.231   9.837  -0.584  0.3716  2.9018  3.1726
  980MOL0     H35199   9.302   9.504  -0.657  0.1623  0.8915  0.9960
  980MOL0     H35200   9.339   9.668  -0.678  0.1618  0.3968 -0.6857
  980MOL0     H35201   9.226   9.584  -0.790 -2.0672 -4.8790  1.1098
  980MOL0     H35202   8.875   9.129  -0.357 -1.2883  0.6938  1.3114
  980MOL0     H35203   8.817   8.915  -0.424 -1.2893 -0.6156 -0.2036
  980MOL0     H35204   8.904   8.696  -0.593  0.6545  3.6278  0.6891
  980MOL0     H35205   8.762   8.718  -0.488  2.1466  1.1189  0.5815
  980MOL0     H35206   8.730   8.501  -0.579 -0.9164 -2.3464 -1.7840
  980MOL0     H35207   8.619   8.622  -0.649 -0.3087 -1.9765  0.9542
  980MOL0     H35208   8.783   8.650  -0.843 -0.9871 -0.4798 -3.5375
  980MOL0     H35209   8.679   8.494  -0.821 -0.9597  0.8817  3.7405
  980MOL0     H35210   8.925   8.445  -0.700  1.3777  0.8504 -0.1892
  980MOL0     H35211   8.976   8.555  -0.812 -0.3963  0.9582  2.9716
  980MOL0     H35212   8.842   8.268  -0.858  2.7627 -1.0083  0.4499
  980MOL0     H35213   8.840   8.388  -0.988  3.5299  1.3820 -1.8216
  980MOL0     H35214   9.086   8.256  -0.867  1.1063  1.4927  0.4344
  980MOL0     H35215   9.098   8.404  -0.949  0.8983 -1.7371  2.2508
  980MOL0     H35216   8.971   8.306  -1.151 -0.0109  4.9652  2.4954
  980MOL0     H35217   9.008   8.148  -1.076  0.3472 -0.3619 -2.5849
  980MOL0     H35218   9.258   8.227  -1.058  0.6759  0.4038 -1.5626
  980MOL0     H35219   9.217   8.372  -1.141 -0.2351  0.5866  1.6017
  980MOL0     H35220   8.770   9.032  -0.820  1.0885 -1.8286 -0.5067
  980MOL0     H35221   8.860   9.259  -0.773 -2.8850  1.4209  0.9944
  980MOL0     H35222   8.884   9.548  -0.396  0.5714 -1.1195  0.0837
  980MOL0     H35223   8.905   9.791  -0.323 -1.5204 -0.1552 -1.5068
  980MOL0     H35224   7.664   9.598   0.389 -2.7878 -0.9868  1.9225
  980MOL0     H35225   7.466   9.654   0.478  2.1264 -0.6945  1.3075
  980MOL0     H35226   7.143   9.766   0.539 -0.9239  0.8011  0.2837
  980MOL0     H35227   6.936   9.756   0.625  1.4727  0.0915 -1.7278
  980MOL0     H35228   6.676   9.848   0.703  0.7727  4.6167 -0.0251
  980MOL0     H35229   6.791   9.731   0.797  2.0788  0.2676  2.2200
  980MOL0     H35230   6.527   9.785   0.851 -0.7383  0.7424  0.3114
  980MOL0     H35231   6.591   9.933   0.920 -1.6862 -0.0558 -3.4778
  980MOL0     H35232   6.693   9.644   0.985 -0.9756  0.0761 -1.2615
  980MOL0     H35233   6.725   9.785   1.081 -0.4434 -2.2157  1.2889
  980MOL0     H35234   6.575   9.619   1.166 -0.4573  1.3382  3.8242
  980MOL0     H35235   6.450   9.687   1.058  0.0746  0.0530 -0.9063
  980MOL0     H35236   6.450   9.995   1.329  1.4301  0.2560  0.6027
  980MOL0     H35237   7.014  10.114   0.854  0.3462 -1.6427  2.2681
  980MOL0     H35238   7.217  10.228   0.850  0.3685 -0.9993  2.4243
  980MOL0     H35239   7.344  10.101   0.887 -0.6744  2.5279  1.8087
  980MOL0     H35240   7.328  10.173   0.730 -0.3726  1.2618 -0.5065
  981MOL0     O35241   4.418   9.114  11.470 -0.0937  0.9496 -0.7586
  981MOL0     C35242   4.301   9.086  11.450 -0.7128  0.8049  0.0575
  981MOL0     O35243   4.220   9.152  11.357 -0.2594 -0.7136 -0.2472
  981MOL0     C35244   4.266   9.266  11.295  0.6932 -1.1425  0.2964
  981MOL0     C35245   4.208   9.277  11.163 -0.6273  0.5718 -1.6330
  981MOL0     C35246   4.233   9.400  11.097  0.0741  0.1781 -0.5069
  981MOL0     C35247   4.309   9.504  11.150 -0.6172  0.3501 -0.6767
  981MOL0     O35248   4.307   9.608  11.066 -0.2769 -0.6786 -0.1601
  981MOL0     C35249   4.407   9.705  11.064 -0.4838 -0.4678  0.7642
  981MOL0     C35250   4.402   9.790  10.933 -1.3976  0.7095 -0.3868
  981MOL0     C35251   4.435   9.727  10.795  0.9296  0.5530 -1.0172
  981MOL0     C35252   4.447   9.844  10.693 -0.3435  0.2223 -0.2356
  981MOL0     C35253   4.480   9.810  10.547 -0.5010  0.1914 -0.5250
  981MOL0     C35254   4.379   9.711  10.487 -0.1452  0.6900 -0.1678
  981MOL0     C35255   4.417   9.675  10.346 -0.5163 -0.1099  0.3413
  981MOL0     C35256   4.325   9.566  10.287  0.4587  0.2158  0.2741
  981MOL0     N35257   4.343   9.527  10.145 -0.1668 -0.5662 -0.2714
  981MOL0     C35258   4.330   9.404  10.097 -0.1686  0.2070 -0.3610
  981MOL0     C35259   4.337   9.423   9.958 -0.8472 -0.4334 -0.3037
  981MOL0     C35260   4.326   9.308   9.861 -0.7924  0.6349 -0.7682
  981MOL0     C35261   4.202   9.213   9.878  0.2447 -0.5377 -0.3609
  981MOL0     C35262   4.122   9.188   9.743  0.2318 -0.3785  0.0904
  981MOL0     C35263   3.986   9.124   9.754 -0.4131 -0.5960 -1.1431
  981MOL0     O35264   3.982   9.010   9.850  0.1686 -0.4487  0.2680
  981MOL0     C35265   3.953   8.890   9.800  0.1545  0.2658 -0.3018
  981MOL0     C35266   3.874   8.806   9.879  0.0301 -0.1565 -0.8351
  981MOL0     C35267   3.839   8.678   9.847  0.2906 -0.1827  0.3066
  981MOL0     C35268   3.756   8.602   9.952 -0.9189  0.2578  0.6937
  981MOL0     C35269   3.897   8.617   9.728 -0.0119 -0.0383  0.6844
  981MOL0     C35270   3.886   8.475   9.692 -0.1435 -0.3109  0.0575
  981MOL0     O35271   3.969   8.425   9.602  0.2562  0.4978  0.2784
  981MOL0     C35272   3.957   8.296   9.578 -0.6255 -0.3384  0.4521
  981MOL0     C35273   3.901   8.243   9.455  0.0163  0.3478  0.1550
  981MOL0     C35274   3.893   8.108   9.435  0.1422  0.4454 -0.1640
  981MOL0     C35275   3.950   8.013   9.527 -0.1606  0.2338 -0.2493
  981MOL0     O35276   3.947   7.884   9.483  0.7135 -0.2920 -0.2472
  981MOL0     C35277   3.974   7.780   9.580 -0.2997  0.4144  0.7492
  981MOL0     C35278   4.123   7.747   9.577 -0.1368 -0.2853  0.3145
  981MOL0     C35279   4.186   7.693   9.707  0.5567  0.6483  0.9139
  981MOL0     C35280   4.174   7.539   9.735  0.0784 -0.0281  0.4170
  981MOL0     C35281   4.253   7.496   9.859 -0.3907 -0.4340 -1.2705
  981MOL0     C35282   4.232   7.341   9.892  0.2902 -0.3884  0.2609
  981MOL0     C35283   4.304   7.293  10.022  0.6841 -0.2750  0.0426
  981MOL0     C35284   4.415   7.206   9.980 -0.1042  0.3267 -0.2318
  981MOL0    Cl35285   4.550   7.301   9.902 -0.2093  0.3869 -0.2667
  981MOL0     C35286   4.012   8.062   9.642  0.5660  0.3959  1.0537
  981MOL0     C35287   3.995   8.198   9.677 -0.3661  0.2050  1.1703
  981MOL0     O35288   3.801   8.411   9.744  0.1018  0.1065  0.8252
  981MOL0     C35289   3.995   8.691   9.653 -0.1770  0.3327 -0.5150
  981MOL0     C35290   4.020   8.828   9.682  0.3354 -0.0570 -0.3341
  981MOL0     N35291   4.350   9.556   9.933  0.5614 -0.0944  0.0669
  981MOL0     N35292   4.356   9.618  10.043 -0.5106  0.5820  1.0088
  981MOL0     C35293   4.369   9.490  11.278 -0.6736  0.2869  0.8298
  981MOL0     C35294   4.348   9.370  11.348  0.1582  0.6169 -0.8785
  981MOL0     C35295   4.230   8.974  11.521 -0.1956 -0.3357  0.4393
  981MOL0     C35296   4.092   8.966  11.493 -0.5346 -0.4345  0.2501
  981MOL0     C35297   4.014   8.870  11.555 -0.1756  0.0749 -0.3845
  981MOL0     C35298   4.073   8.777  11.642 -0.0061 -0.4066  0.3690
  981MOL0     O35299   4.018   8.665  11.695 -0.5873  0.0070 -0.4267
  981MOL0     C35300   3.880   8.641  11.688 -0.0814 -0.7809 -0.1008
  981MOL0     C35301   3.800   8.740  11.764 -1.1402  0.2934  0.2134
  981MOL0     C35302   3.653   8.735  11.723  0.4085  0.0487  0.2330
  981MOL0     C35303   3.561   8.785  11.837  0.6296 -0.4109  0.0912
  981MOL0     C35304   3.422   8.801  11.791 -0.1692 -0.1272  0.1600
  981MOL0     C35305   3.314   8.829  11.741  0.2020  0.0313  0.1909
  981MOL0     C35306   4.215   8.774  11.657 -0.7174  0.5379  0.2844
  981MOL0     C35307   4.298   8.873  11.602  0.2613 -0.3757  0.0129
  981MOL0     C35308   4.450   8.861  11.618 -0.7819 -0.2702  0.3184
  981MOL0     H35309   4.151   9.199  11.114 -2.6416 -0.5773  2.1555
  981MOL0     H35310   4.188   9.407  10.998  1.0716 -0.6195 -1.0445
  981MOL0     H35311   4.510   9.669  11.065 -0.9010 -1.7140  0.0307
  981MOL0     H35312   4.406   9.771  11.151  3.4396  0.9060 -0.0397
  981MOL0     H35313   4.298   9.821  10.922 -1.9795 -1.6108 -2.4542
  981MOL0     H35314   4.470   9.874  10.945  2.1413 -1.8637 -0.8347
  981MOL0     H35315   4.531   9.674  10.801  0.4938 -0.1224  0.3852
  981MOL0     H35316   4.344   9.667  10.781 -0.7241  2.7434 -0.2881
  981MOL0     H35317   4.360   9.911  10.692  0.9220  1.9342  0.1817
  981MOL0     H35318   4.531   9.911  10.716  0.6530  0.0000 -2.8443
  981MOL0     H35319   4.579   9.764  10.539 -0.1317  0.2608  2.3866
  981MOL0     H35320   4.489   9.898  10.483 -0.7207 -0.7211 -1.8449
  981MOL0     H35321   4.378   9.621  10.550  2.1328  0.9230  0.2751
  981MOL0     H35322   4.280   9.757  10.494  0.0584  0.9824  0.9185
  981MOL0     H35323   4.524   9.654  10.334  0.3274  2.6225  1.9027
  981MOL0     H35324   4.393   9.768  10.293 -1.3334 -0.0299  0.8340
  981MOL0     H35325   4.325   9.479  10.354 -1.5633 -0.2074 -0.1775
  981MOL0     H35326   4.224   9.608  10.291  0.4262  0.0742  1.1861
  981MOL0     H35327   4.323   9.319  10.165  1.9175  0.9650  0.9183
  981MOL0     H35328   4.415   9.245   9.868 -0.6783  0.9735  2.0324
  981MOL0     H35329   4.326   9.346   9.759  0.2478  1.4081 -0.4999
  981MOL0     H35330   4.234   9.125   9.934  2.5876 -0.1936 -1.0543
  981MOL0     H35331   4.131   9.266   9.942 -2.6936 -0.8907 -3.0714
  981MOL0     H35332   4.124   9.277   9.679 -0.5348 -0.0929  0.4503
  981MOL0     H35333   4.189   9.127   9.682 -0.4744 -2.1047  0.9843
  981MOL0     H35334   3.916   9.207   9.770 -0.7770 -0.9963 -0.6245
  981MOL0     H35335   3.945   9.102   9.655  1.4130 -0.9075 -1.8745
  981MOL0     H35336   3.822   8.855   9.961  0.3749  0.2170 -0.8426
  981MOL0     H35337   3.718   8.661  10.036 -2.1567  0.4405  0.0223
  981MOL0     H35338   3.819   8.518   9.984 -0.6268  0.7550  1.4610
  981MOL0     H35339   3.668   8.562   9.901  0.7419 -1.1026 -1.2726
  981MOL0     H35340   3.873   8.311   9.375 -1.0167 -0.0120  0.1894
  981MOL0     H35341   3.857   8.069   9.340  1.3894  2.3467 -1.4906
  981MOL0     H35342   3.942   7.802   9.683  3.1294 -3.7589  3.0786
  981MOL0     H35343   3.933   7.686   9.542 -1.0890  0.8791  0.4141
  981MOL0     H35344   4.143   7.682   9.491 -1.6046 -1.2197  0.6502
  981MOL0     H35345   4.175   7.843   9.571 -1.3867  0.4366  0.8179
  981MOL0     H35346   4.143   7.741   9.796 -2.4896 -2.8944  1.5933
  981MOL0     H35347   4.292   7.724   9.708  0.3146  1.5238  0.9691
  981MOL0     H35348   4.204   7.482   9.647  1.9157  0.1919  0.8519
  981MOL0     H35349   4.071   7.503   9.746  0.2413 -0.6629 -0.0883
  981MOL0     H35350   4.359   7.522   9.845 -0.4986 -0.5833 -2.3972
  981MOL0     H35351   4.222   7.540   9.955 -1.8962 -1.4887 -1.2524
  981MOL0     H35352   4.244   7.274   9.807 -0.4020 -1.9567  1.3487
  981MOL0     H35353   4.129   7.330   9.928 -0.8396  1.8325 -2.0363
  981MOL0     H35354   4.235   7.231  10.080 -0.1428  1.2487  0.7265
  981MOL0     H35355   4.341   7.379  10.079 -0.9094 -0.2042  1.0177
  981MOL0     H35356   4.368   7.138   9.909  0.3736 -0.4234  0.1542
  981MOL0     H35357   4.449   7.147  10.066 -1.7929 -0.2748  0.0769
  981MOL0     H35358   4.061   7.997   9.713  0.7019 -2.5589 -1.5214
  981MOL0     H35359   4.042   8.238   9.767  1.0100  2.0229 -0.2930
  981MOL0     H35360   4.053   8.644   9.575  0.0291 -1.0536  0.4378
  981MOL0     H35361   4.088   8.889   9.624  1.1770 -0.2428  0.4285
  981MOL0     H35362   4.431   9.574  11.310 -0.9567  1.1232 -0.7128
  981MOL0     H35363   4.372   9.358  11.453 -1.1906  2.5315 -0.3101
  981MOL0     H35364   4.036   9.040  11.438  0.3390  3.3762  3.9507
  981MOL0     H35365   3.908   8.879  11.533 -0.0601  0.3508 -0.8365
  981MOL0     H35366   3.857   8.664  11.583  2.1851  3.2582  0.0873
  981MOL0     H35367   3.852   8.540  11.720 -1.4518  0.7072  4.1057
  981MOL0     H35368   3.835   8.843  11.751  1.7313 -0.8978 -3.2603
  981MOL0     H35369   3.810   8.715  11.870  3.4373  1.0122  0.1880
  981MOL0     H35370   3.637   8.796  11.634 -4.7433 -1.8772 -0.4944
  981MOL0     H35371   3.626   8.631  11.700 -0.3810  0.7809 -2.5911
  981MOL0     H35372   3.602   8.883  11.860  0.0683 -0.3716  0.9566
  981MOL0     H35373   3.558   8.724  11.928  0.2412 -0.9403 -0.2652
  981MOL0     H35374   3.216   8.846  11.702  0.4024  0.1779 -0.2582
  981MOL0     H35375   4.261   8.698  11.719  0.3011  0.4227 -0.5701
  981MOL0     H35376   4.494   8.874  11.519  0.7263 -2.2955  0.6688
  981MOL0     H35377   4.497   8.922  11.696 -1.4427  1.7816 -0.8205
  981MOL0     H35378   4.482   8.761  11.650 -0.5762 -0.1061  0.6322
  982MOL0     O35379   7.916   1.208  11.090 -0.4979  0.3203 -0.0317
  982MOL0     C35380   7.822   1.279  11.125 -0.2868 -0.6813 -0.5100
  982MOL0     O35381   7.702   1.248  11.183  0.4286  0.4508 -0.1052
  982MOL0     C35382   7.636   1.129  11.181 -0.5670  0.5459 -0.1786
  982MOL0     C35383   7.536   1.092  11.276  0.9481  0.6917 -0.4754
  982MOL0     C35384   7.468   0.970  11.267  0.3843  0.9313  0.9646
  982MOL0     C35385   7.480   0.899  11.148  0.3786  0.1514  0.5509
  982MOL0     O35386   7.410   0.777  11.132 -0.6666  0.1920 -0.4341
  982MOL0     C35387   7.295   0.763  11.218 -0.3546 -0.4278  0.2535
  982MOL0     C35388   7.192   0.660  11.158 -0.0017 -0.0653  0.8848
  982MOL0     C35389   7.263   0.550  11.080  0.5264  0.1647 -0.4526
  982MOL0     C35390   7.174   0.436  11.031 -0.5321 -1.0009  0.6077
  982MOL0     C35391   7.248   0.312  10.963 -0.3562 -0.9190  0.1746
  982MOL0     C35392   7.146   0.223  10.897 -0.7020 -1.4654  0.1507
  982MOL0     C35393   7.208   0.104  10.822 -0.4127  0.7763 -0.1448
  982MOL0     C35394   7.288   0.019  10.922 -0.5446 -0.1995 -0.6055
  982MOL0     N35395   7.300  -0.123  10.877  0.7991  0.1189 -0.1197
  982MOL0     C35396   7.360  -0.173  10.767 -0.4734 -0.3036 -0.6551
  982MOL0     C35397   7.336  -0.308  10.768  0.6544 -0.6023  0.2202
  982MOL0     C35398   7.381  -0.407  10.664 -0.0756 -0.0989  0.4656
  982MOL0     C35399   7.271  -0.416  10.556 -0.0982 -0.2761  0.2518
  982MOL0     C35400   7.126  -0.446  10.587  0.4490 -0.8977 -0.8986
  982MOL0     C35401   7.123  -0.591  10.628 -0.2059  0.6919  1.3030
  982MOL0     O35402   6.987  -0.627  10.648 -0.4518  0.0901 -0.5027
  982MOL0     C35403   6.952  -0.754  10.695 -0.5305  1.0229 -0.5880
  982MOL0     C35404   6.826  -0.758  10.741  0.5885  0.2359 -0.0846
  982MOL0     C35405   6.773  -0.873  10.804 -0.1667 -0.5305 -1.2484
  982MOL0     C35406   6.638  -0.854  10.884  0.0173  0.5581  0.0404
  982MOL0     C35407   6.848  -0.996  10.793 -0.0197 -0.3680  0.3879
  982MOL0     C35408   6.795  -1.129  10.841  0.4337 -0.6871 -0.4833
  982MOL0     O35409   6.662  -1.152  10.840 -0.4176  0.0080 -0.8389
  982MOL0     C35410   6.620  -1.278  10.881 -0.5649  0.0023  0.5824
  982MOL0     C35411   6.606  -1.312  11.016 -0.1671 -0.3516  1.2062
  982MOL0     C35412   6.605  -1.445  11.054  0.4381  0.0848 -0.4418
  982MOL0     C35413   6.608  -1.553  10.965 -0.2813  0.2988 -0.6689
  982MOL0     O35414   6.618  -1.681  11.003 -0.1837 -0.3384 -0.6810
  982MOL0     C35415   6.637  -1.788  10.908 -0.3252  0.2293 -0.4906
  982MOL0     C35416   6.657  -1.923  10.985  1.1024 -1.2358  0.2616
  982MOL0     C35417   6.679  -2.044  10.891  0.1326 -0.1782 -0.7454
  982MOL0     C35418   6.690  -2.187  10.964 -0.4053  0.6645 -0.7355
  982MOL0     C35419   6.829  -2.235  10.994 -0.2266  1.2271  0.5332
  982MOL0     C35420   6.904  -2.156  11.097 -0.4220 -0.7605  0.1745
  982MOL0     C35421   7.046  -2.214  11.117  0.0098 -0.1589 -1.2324
  982MOL0     C35422   7.128  -2.148  11.234  0.0702  0.5028  0.3647
  982MOL0    Cl35423   7.143  -1.965  11.213  0.3985  0.3160 -0.3880
  982MOL0     C35424   6.609  -1.518  10.832 -0.8153  0.1646  0.3281
  982MOL0     C35425   6.625  -1.381  10.793 -0.8421 -0.2046 -0.4812
  982MOL0     O35426   6.876  -1.206  10.895  0.1469  0.1009 -0.0147
  982MOL0     C35427   6.981  -0.985  10.735  0.1062  0.6682 -0.1621
  982MOL0     C35428   7.030  -0.868  10.681  0.6729 -0.9399  0.7522
  982MOL0     N35429   7.244  -0.325  10.871  0.2877  0.5391  0.1808
  982MOL0     N35430   7.237  -0.219  10.940  0.2452 -0.1812 -0.6803
  982MOL0     C35431   7.562   0.939  11.045  0.2971 -0.1214 -0.5864
  982MOL0     C35432   7.632   1.058  11.058 -0.3655  0.1678  0.0667
  982MOL0     C35433   7.838   1.422  11.103 -0.5663 -0.2650 -0.6981
  982MOL0     C35434   7.962   1.477  11.067  0.1195  1.7858 -0.3209
  982MOL0     C35435   7.976   1.594  11.013  0.0417  0.3356  0.4552
  982MOL0     C35436   7.875   1.689  11.016  0.6361  1.0784  0.6170
  982MOL0     O35437   7.880   1.797  10.940  0.1624 -0.1515  0.5807
  982MOL0     C35438   7.791   1.809  10.825  0.5752  1.3117 -0.0859
  982MOL0     C35439   7.829   1.925  10.725 -0.3107  0.9311  0.5453
  982MOL0     C35440   7.966   1.899  10.657  0.6001 -0.2837  0.4342
  982MOL0     C35441   8.006   2.002  10.556  0.8978  0.3790  0.1892
  982MOL0     C35442   8.126   1.970  10.481  0.1618 -0.1773  0.1346
  982MOL0     C35443   8.220   1.938  10.411  0.0865  0.4920  1.3015
  982MOL0     C35444   7.758   1.649  11.070 -0.7672 -0.2633  0.3206
  982MOL0     C35445   7.735   1.518  11.118 -0.6738 -0.6282  0.1866
  982MOL0     C35446   7.611   1.499  11.190 -0.5720  0.7900 -0.2830
  982MOL0     H35447   7.538   1.155  11.365 -0.2954  1.1377 -0.7473
  982MOL0     H35448   7.421   0.930  11.356  0.8035 -2.4533 -0.1916
  982MOL0     H35449   7.238   0.852  11.246  0.9409  0.2698  0.7531
  982MOL0     H35450   7.347   0.714  11.301  1.1886 -0.1454 -0.4993
  982MOL0     H35451   7.130   0.616  11.236  2.8928 -2.7082  1.8914
  982MOL0     H35452   7.128   0.710  11.085  3.2297  1.0630 -1.4082
  982MOL0     H35453   7.307   0.587  10.987  0.9375 -2.9196 -1.6023
  982MOL0     H35454   7.336   0.506  11.148  1.5557  2.0207 -0.2872
  982MOL0     H35455   7.110   0.405  11.115 -0.9402 -1.3472  0.1782
  982MOL0     H35456   7.109   0.491  10.962  2.9763  2.4233 -0.2880
  982MOL0     H35457   7.312   0.257  11.032 -0.6385 -1.4348  0.0294
  982MOL0     H35458   7.319   0.343  10.886  0.2791  1.9328  1.7847
  982MOL0     H35459   7.072   0.192  10.971  1.1137 -0.7555  2.3725
  982MOL0     H35460   7.109   0.276  10.809  0.7368 -0.9183 -0.1606
  982MOL0     H35461   7.273   0.117  10.736 -0.5288 -2.3931 -0.8382
  982MOL0     H35462   7.120   0.041  10.804  0.1840 -0.8637  2.1973
  982MOL0     H35463   7.390   0.053  10.941 -1.2909  0.1916  3.5633
  982MOL0     H35464   7.236   0.025  11.018  0.7625 -2.2754  0.3019
  982MOL0     H35465   7.434  -0.127  10.702  0.8887 -1.0206  0.3624
  982MOL0     H35466   7.411  -0.503  10.707  1.7839  0.5966  0.7761
  982MOL0     H35467   7.468  -0.374  10.607 -0.6378 -0.7471 -0.7938
  982MOL0     H35468   7.261  -0.314  10.518  1.5601  0.2967  1.2225
  982MOL0     H35469   7.311  -0.475  10.473  1.0816  1.4162 -0.4259
  982MOL0     H35470   7.086  -0.380  10.665 -0.5830  0.7680 -2.7454
  982MOL0     H35471   7.056  -0.438  10.503  1.3276  1.3308 -1.4819
  982MOL0     H35472   7.165  -0.635  10.537 -1.8809  0.3795  0.6492
  982MOL0     H35473   7.186  -0.613  10.714  0.0876  0.2711  0.9865
  982MOL0     H35474   6.771  -0.665  10.740  2.2057  1.2411  0.9155
  982MOL0     H35475   6.654  -0.817  10.985  3.1131 -2.1933  0.7341
  982MOL0     H35476   6.582  -0.948  10.891 -0.2183  0.8214  2.5064
  982MOL0     H35477   6.578  -0.777  10.834 -1.1839 -0.7600 -0.6246
  982MOL0     H35478   6.588  -1.235  11.090 -2.2373 -0.3654  0.7758
  982MOL0     H35479   6.604  -1.481  11.157 -0.4292 -0.4631 -0.6328
  982MOL0     H35480   6.549  -1.795  10.843  0.2428  0.4209 -1.2977
  982MOL0     H35481   6.728  -1.772  10.850  1.5042 -1.7573  1.6374
  982MOL0     H35482   6.747  -1.912  11.046  2.3912 -0.1242 -1.7605
  982MOL0     H35483   6.566  -1.930  11.046  0.0463  2.1321 -0.7189
  982MOL0     H35484   6.767  -2.036  10.826 -0.3981 -0.8384 -1.5636
  982MOL0     H35485   6.587  -2.043  10.833  0.7624 -1.7124 -1.8205
  982MOL0     H35486   6.634  -2.258  10.904 -2.4196  0.0384  1.6987
  982MOL0     H35487   6.626  -2.183  11.053 -3.4276 -0.5807 -2.6957
  982MOL0     H35488   6.833  -2.338  11.030  1.2464 -0.0883 -3.0437
  982MOL0     H35489   6.889  -2.238  10.903  2.6073 -2.5153  2.2496
  982MOL0     H35490   6.847  -2.151  11.191 -2.7605  1.8150 -1.2564
  982MOL0     H35491   6.928  -2.058  11.056  1.1752 -2.3531 -3.0662
  982MOL0     H35492   7.104  -2.200  11.026 -1.4355 -2.1161 -2.5256
  982MOL0     H35493   7.047  -2.323  11.124  3.4602 -0.2694 -1.7877
  982MOL0     H35494   7.233  -2.178  11.239  0.1252  0.8570  1.7511
  982MOL0     H35495   7.073  -2.161  11.328  0.2227  0.8785  0.5082
  982MOL0     H35496   6.622  -1.593  10.755  0.2983  0.7374 -0.0685
  982MOL0     H35497   6.639  -1.352  10.689  0.4942 -1.0340 -0.5639
  982MOL0     H35498   7.038  -1.077  10.729 -0.9443 -0.2210  2.2089
  982MOL0     H35499   7.132  -0.864  10.644  0.6656 -1.2820  0.6966
  982MOL0     H35500   7.578   0.875  10.959  0.8523  2.6437 -2.6739
  982MOL0     H35501   7.704   1.084  10.981  1.6058  0.2470  1.8576
  982MOL0     H35502   8.054   1.421  11.054 -1.2697 -0.3278 -1.5446
  982MOL0     H35503   8.064   1.620  10.954 -2.4636  0.7383 -3.4909
  982MOL0     H35504   7.782   1.720  10.762  0.1581  1.0466  0.3425
  982MOL0     H35505   7.686   1.826  10.853  0.7142  1.9495  0.0684
  982MOL0     H35506   7.831   2.003  10.801  0.8202  1.3151  0.1486
  982MOL0     H35507   7.755   1.940  10.646  2.5785  0.6117 -2.4256
  982MOL0     H35508   8.050   1.889  10.727 -1.6569 -0.0625  3.3895
  982MOL0     H35509   7.951   1.805  10.603 -3.1430  0.4855 -0.1804
  982MOL0     H35510   8.022   2.096  10.611  0.5698 -0.0537  1.0310
  982MOL0     H35511   7.928   2.018  10.481  0.0466 -0.5439  0.8611
  982MOL0     H35512   8.312   1.914  10.363  0.2967  3.4349  0.0077
  982MOL0     H35513   7.684   1.727  11.086 -1.1651 -0.7092  0.6657
  982MOL0     H35514   7.554   1.592  11.188 -0.5377  0.8051 -0.5900
  982MOL0     H35515   7.542   1.431  11.141 -0.7912  0.9334 -0.1747
  982MOL0     H35516   7.625   1.469  11.294  1.8749  0.8030 -0.5467
  983MOL0     O35517   4.151   1.065   5.573  0.3552 -0.3059  0.0689
  983MOL0     C35518   4.177   0.974   5.646  0.2886  0.1601 -0.5775
  983MOL0     O35519   4.251   0.981   5.758 -0.4828  0.4057 -0.0219
  983MOL0     C35520   4.333   1.088   5.805  0.7703  0.5997  0.5102
  983MOL0     C35521   4.439   1.051   5.887 -0.3124 -0.2726 -0.0360
  983MOL0     C35522   4.524   1.140   5.933  0.0495  0.1917 -0.1537
  983MOL0     C35523   4.514   1.276   5.890  0.0740  0.3666  0.5738
  983MOL0     O35524   4.610   1.369   5.902 -0.2173 -0.2440  0.2599
  983MOL0     C35525   4.741   1.330   5.951  0.8205  0.5129 -0.9021
  983MOL0     C35526   4.848   1.439   5.945 -0.3452 -0.0037 -0.3943
  983MOL0     C35527   4.979   1.395   5.993 -0.7222 -0.3550 -1.1064
  983MOL0     C35528   5.039   1.280   5.913 -0.4793 -0.3734  0.4531
  983MOL0     C35529   5.192   1.251   5.931  0.1339 -0.3997  0.1374
  983MOL0     C35530   5.217   1.190   6.066  0.0732 -0.5100 -0.0240
  983MOL0     C35531   5.186   1.039   6.057 -0.6530  0.0796  0.4157
  983MOL0     C35532   5.195   0.959   6.187  0.7446  0.4147  0.6555
  983MOL0     N35533   5.337   0.910   6.213 -0.1869  0.8106  0.2453
  983MOL0     C35534   5.391   0.796   6.155  0.3259  0.2389 -0.4335
  983MOL0     C35535   5.504   0.774   6.226  0.0087 -0.3431 -0.5395
  983MOL0     C35536   5.610   0.673   6.180 -0.5761 -0.1635 -0.5855
  983MOL0     C35537   5.619   0.568   6.296 -0.5265 -0.6193 -0.7298
  983MOL0     C35538   5.685   0.638   6.424 -0.2963  0.1605  0.8837
  983MOL0     C35539   5.722   0.539   6.523  0.0224 -0.3316  0.0167
  983MOL0     O35540   5.830   0.461   6.469 -0.6417 -0.6746 -0.6512
  983MOL0     C35541   5.953   0.445   6.534 -1.1821  0.4504  0.1922
  983MOL0     C35542   6.051   0.387   6.452  0.9017 -0.2692 -0.1367
  983MOL0     C35543   6.178   0.365   6.489  0.3397 -0.5016 -1.3046
  983MOL0     C35544   6.264   0.302   6.379 -0.1711  0.1783  0.1947
  983MOL0     C35545   6.226   0.410   6.617 -0.5445  0.3695 -0.2182
  983MOL0     C35546   6.368   0.390   6.673 -0.2313 -0.8162  0.1788
  983MOL0     O35547   6.434   0.283   6.628  0.4357  0.1494 -0.2843
  983MOL0     C35548   6.573   0.256   6.647 -0.1115  0.5817  0.6960
  983MOL0     C35549   6.662   0.313   6.743  0.5683 -0.2985  1.0658
  983MOL0     C35550   6.804   0.314   6.718  0.2442  0.2098 -0.8832
  983MOL0     C35551   6.848   0.242   6.611  0.2039  0.3732  0.1701
  983MOL0     O35552   6.983   0.224   6.591 -0.2467 -1.2623 -0.0757
  983MOL0     C35553   7.081   0.242   6.702 -0.2667 -0.0319 -0.3318
  983MOL0     C35554   7.066   0.142   6.819 -0.2007 -0.4133  0.6446
  983MOL0     C35555   7.139   0.175   6.946 -0.8667 -0.8413 -0.0853
  983MOL0     C35556   7.287   0.221   6.924 -0.0994  0.2303 -0.4728
  983MOL0     C35557   7.373   0.118   6.856  0.7848 -0.6860  0.1234
  983MOL0     C35558   7.519   0.154   6.866  0.5882 -0.5286 -0.4309
  983MOL0     C35559   7.616   0.040   6.811  0.6025 -0.0347 -0.3887
  983MOL0     C35560   7.661  -0.050   6.931  0.9553 -0.6670  0.5349
  983MOL0    Cl35561   7.781  -0.170   6.869  0.0745  0.1932 -0.1857
  983MOL0     C35562   6.765   0.176   6.530 -0.0846 -0.4818  0.0425
  983MOL0     C35563   6.630   0.187   6.544  0.8640 -0.0588 -0.1904
  983MOL0     O35564   6.408   0.471   6.758  0.1022  0.4336  0.0680
  983MOL0     C35565   6.133   0.479   6.699 -0.6075 -0.0107 -0.4319
  983MOL0     C35566   6.000   0.491   6.654 -0.3667 -0.8611 -0.4418
  983MOL0     N35567   5.510   0.870   6.327  0.2232  0.5073 -0.6896
  983MOL0     N35568   5.421   0.964   6.302 -0.0562  0.2588 -0.0184
  983MOL0     C35569   4.412   1.316   5.814 -0.1728  0.2328  1.0319
  983MOL0     C35570   4.320   1.223   5.762  0.1986  0.1113  0.8514
  983MOL0     C35571   4.119   0.833   5.611 -0.2296  0.1702 -0.3666
  983MOL0     C35572   4.160   0.725   5.684 -0.1591 -0.0504  0.3665
  983MOL0     C35573   4.119   0.593   5.648  0.2049  0.8877 -0.0459
  983MOL0     C35574   4.022   0.563   5.550  1.0793  0.7180  0.3569
  983MOL0     O35575   3.968   0.437   5.531 -0.2798  0.2612 -0.0608
  983MOL0     C35576   3.829   0.408   5.499  0.2085  0.1290 -0.7313
  983MOL0     C35577   3.733   0.426   5.627 -0.4595 -0.2947  1.2533
  983MOL0     C35578   3.754   0.310   5.728 -0.9697 -0.3675  0.0261
  983MOL0     C35579   3.621   0.287   5.811  0.0247  0.3171  0.2535
  983MOL0     C35580   3.642   0.152   5.866 -0.8380 -0.3181 -0.4398
  983MOL0     C35581   3.655   0.043   5.905  0.4005 -0.2968 -0.5376
  983MOL0     C35582   3.968   0.679   5.483 -0.4901  0.7604  0.2744
  983MOL0     C35583   4.017   0.807   5.517 -0.3725  0.6145  0.4420
  983MOL0     C35584   3.951   0.920   5.446 -0.8224  0.1548  0.3492
  983MOL0     H35585   4.445   0.947   5.918 -3.1428 -0.6482 -0.3855
  983MOL0     H35586   4.596   1.102   6.004  0.7497 -1.0923 -1.4974
  983MOL0     H35587   4.779   1.243   5.898  1.4148 -2.8767  4.3511
  983MOL0     H35588   4.732   1.311   6.058 -2.3771  6.8991  0.4871
  983MOL0     H35589   4.856   1.462   5.838  1.1964 -2.1986 -0.8240
  983MOL0     H35590   4.825   1.525   6.008  0.7461 -0.3268  0.4829
  983MOL0     H35591   5.037   1.487   5.981 -0.2077 -0.6535 -0.9826
  983MOL0     H35592   4.975   1.362   6.097 -0.0815 -2.5687 -1.7206
  983MOL0     H35593   4.988   1.185   5.934 -0.9229 -0.5357 -1.2042
  983MOL0     H35594   5.021   1.302   5.808  1.8493  0.3105  0.1367
  983MOL0     H35595   5.249   1.344   5.925 -1.4460  0.5056 -2.3568
  983MOL0     H35596   5.236   1.196   5.848 -0.9076 -0.8806 -0.1107
  983MOL0     H35597   5.323   1.208   6.083  0.1287 -1.5391  0.8866
  983MOL0     H35598   5.155   1.230   6.147 -0.4815 -3.0070  0.9030
  983MOL0     H35599   5.249   1.000   5.977 -1.9312 -0.2866 -0.4435
  983MOL0     H35600   5.083   1.019   6.026 -0.6468 -0.2451  0.5977
  983MOL0     H35601   5.168   1.015   6.278  0.8639  0.3346  0.7407
  983MOL0     H35602   5.131   0.871   6.189  0.0321  0.8977 -0.3612
  983MOL0     H35603   5.360   0.748   6.062  0.1653  0.5164 -0.5239
  983MOL0     H35604   5.710   0.710   6.154  0.6305 -1.5407  1.6944
  983MOL0     H35605   5.579   0.617   6.091  1.0031  1.1635 -2.0358
  983MOL0     H35606   5.520   0.529   6.317 -1.7083  1.0252 -2.7961
  983MOL0     H35607   5.675   0.482   6.259 -1.1617 -1.1021 -0.5784
  983MOL0     H35608   5.770   0.694   6.385 -1.2529  0.6941 -0.5203
  983MOL0     H35609   5.612   0.704   6.472 -1.8008 -1.0644  0.3627
  983MOL0     H35610   5.736   0.592   6.617  0.6067  2.9315 -1.7735
  983MOL0     H35611   5.638   0.473   6.546  1.1791 -1.9460 -0.2078
  983MOL0     H35612   6.021   0.344   6.357 -2.7406 -4.0989  2.3789
  983MOL0     H35613   6.300   0.201   6.403 -3.5044 -1.1477  0.1775
  983MOL0     H35614   6.348   0.372   6.371  0.0797  0.0667  1.4951
  983MOL0     H35615   6.220   0.303   6.279  3.1177 -1.7365 -1.4379
  983MOL0     H35616   6.627   0.366   6.831  1.1861 -0.3819  1.3715
  983MOL0     H35617   6.874   0.370   6.779 -1.8439  1.8567  0.1496
  983MOL0     H35618   7.178   0.219   6.657  0.0672 -0.2434  0.4760
  983MOL0     H35619   7.081   0.343   6.744 -2.3697  0.1565 -0.7006
  983MOL0     H35620   6.960   0.138   6.845 -0.3534  0.4339  0.1794
  983MOL0     H35621   7.089   0.044   6.776 -1.3200 -0.7026  0.6687
  983MOL0     H35622   7.129   0.092   7.016  2.8643 -0.6593  0.8639
  983MOL0     H35623   7.087   0.263   6.983  0.1732  0.1117 -0.8141
  983MOL0     H35624   7.336   0.252   7.017  0.6721 -2.9524  0.2980
  983MOL0     H35625   7.296   0.304   6.854  2.3692  1.3204  1.0119
  983MOL0     H35626   7.354   0.026   6.913 -2.6661  0.0844  0.4624
  983MOL0     H35627   7.346   0.118   6.750 -0.3598  2.9055  0.2773
  983MOL0     H35628   7.545   0.176   6.970 -1.7909 -0.9515  0.3212
  983MOL0     H35629   7.534   0.245   6.807 -1.9922  0.0399 -0.3288
  983MOL0     H35630   7.707   0.085   6.771  0.8805 -0.8608 -0.7015
  983MOL0     H35631   7.562  -0.024   6.740  0.6149 -0.2663 -0.1912
  983MOL0     H35632   7.570  -0.100   6.966  2.2064 -2.5717  1.2085
  983MOL0     H35633   7.710   0.009   7.009  0.9530 -0.1076  0.1198
  983MOL0     H35634   6.798   0.115   6.447  0.1889  0.1825 -0.3509
  983MOL0     H35635   6.566   0.165   6.459  1.2885  0.0397 -0.5423
  983MOL0     H35636   6.145   0.520   6.799  0.9728 -3.9646  1.1961
  983MOL0     H35637   5.934   0.546   6.720  1.5773  0.1814  0.7203
  983MOL0     H35638   4.407   1.424   5.800 -1.4360  0.7341  4.3133
  983MOL0     H35639   4.248   1.257   5.689  2.0975  5.1853  0.9313
  983MOL0     H35640   4.219   0.735   5.775 -1.5513  0.1590  1.2748
  983MOL0     H35641   4.162   0.518   5.712 -0.0649  1.1542  0.4614
  983MOL0     H35642   3.803   0.475   5.417  2.0469 -1.0013 -2.3184
  983MOL0     H35643   3.825   0.305   5.461 -0.4456 -0.1332  0.0155
  983MOL0     H35644   3.628   0.427   5.597 -0.5280  3.7477  1.1520
  983MOL0     H35645   3.754   0.520   5.679  0.8228  1.4982 -2.2067
  983MOL0     H35646   3.787   0.219   5.677 -2.9609 -0.8522 -0.4866
  983MOL0     H35647   3.840   0.340   5.789  0.5877 -3.8188 -0.2226
  983MOL0     H35648   3.539   0.284   5.739 -1.1285  1.7920  1.4382
  983MOL0     H35649   3.605   0.370   5.880  0.2584  0.5657  0.0073
  983MOL0     H35650   3.640  -0.056   5.942 -1.3888  0.1922  0.1464
  983MOL0     H35651   3.895   0.669   5.404 -3.0272 -0.2293  2.5737
  983MOL0     H35652   4.025   0.960   5.376 -0.5655 -2.1543 -0.8092
  983MOL0     H35653   3.859   0.888   5.397  0.6217 -2.6995 -0.7270
  983MOL0     H35654   3.923   0.980   5.533  2.0862 -0.4182  1.8102
  984MOL0     O35655   1.612   6.663   2.748 -0.3645  0.1602  0.4591
  984MOL0     C35656   1.667   6.756   2.702  0.0075  0.3214 -0.2793
  984MOL0     O35657   1.799   6.764   2.649 -0.3290  0.0753 -0.0562
  984MOL0     C35658   1.886   6.663   2.670  0.0979  0.7634  0.1065
  984MOL0     C35659   1.997   6.690   2.742 -0.5602  0.7033  0.1918
  984MOL0     C35660   2.087   6.596   2.778 -0.4935 -1.1212 -0.2615
  984MOL0     C35661   2.073   6.463   2.731  0.8166 -0.5871  0.2059
  984MOL0     O35662   2.168   6.365   2.749  0.0207  0.3716 -0.4365
  984MOL0     C35663   2.300   6.392   2.719  0.5425  0.0093  0.1748
  984MOL0     C35664   2.387   6.406   2.847  0.8899  0.1639  0.2356
  984MOL0     C35665   2.421   6.268   2.908  0.3366 -0.3897 -0.4181
  984MOL0     C35666   2.499   6.290   3.040  0.6488  0.6811  0.8878
  984MOL0     C35667   2.484   6.169   3.126  0.4650 -0.9513  0.0410
  984MOL0     C35668   2.546   6.193   3.268  0.4723 -1.1474  0.2717
  984MOL0     C35669   2.542   6.068   3.355  0.7079  0.0686 -0.1604
  984MOL0     C35670   2.597   6.100   3.495 -0.0010 -0.4538  0.3717
  984MOL0     N35671   2.744   6.104   3.497  0.2210  0.9345  0.3560
  984MOL0     C35672   2.824   5.991   3.492 -0.0502  0.4766 -0.2122
  984MOL0     C35673   2.946   6.045   3.502 -0.0896  0.9023 -0.7627
  984MOL0     C35674   3.074   5.973   3.516 -0.8285 -0.6596 -0.2089
  984MOL0     C35675   3.131   5.955   3.662 -0.3129  0.1105  1.1945
  984MOL0     C35676   3.144   5.809   3.701  0.6189 -0.4989 -0.5120
  984MOL0     C35677   3.235   5.785   3.821 -0.1567  0.1117 -0.2453
  984MOL0     O35678   3.364   5.795   3.773 -0.5336  0.1304 -0.2770
  984MOL0     C35679   3.468   5.793   3.875  0.0316  0.2204  0.6938
  984MOL0     C35680   3.601   5.814   3.821  0.1346 -0.1585 -0.7520
  984MOL0     C35681   3.713   5.820   3.912  0.4156 -0.1971  0.3941
  984MOL0     C35682   3.855   5.862   3.858 -0.1275  0.4427 -0.3487
  984MOL0     C35683   3.695   5.774   4.045  0.1049 -0.4251  0.1743
  984MOL0     C35684   3.809   5.738   4.124  1.0261 -0.0271 -0.2816
  984MOL0     O35685   3.811   5.818   4.235  0.3107  0.5939  0.0477
  984MOL0     C35686   3.903   5.785   4.340 -0.9516 -0.5234  0.3137
  984MOL0     C35687   4.001   5.883   4.362 -1.0199  0.1153 -0.2402
  984MOL0     C35688   4.092   5.858   4.457 -0.6640  0.2518 -0.4274
  984MOL0     C35689   4.090   5.733   4.536  0.7061 -1.2308 -0.7618
  984MOL0     O35690   4.175   5.715   4.631  0.1907 -0.6042  0.1720
  984MOL0     C35691   4.293   5.786   4.643 -0.0830  0.3881 -0.7423
  984MOL0     C35692   4.382   5.711   4.754 -0.0030 -0.0921  0.5937
  984MOL0     C35693   4.535   5.733   4.738 -0.0708 -0.0191  0.4265
  984MOL0     C35694   4.605   5.629   4.827 -0.6336 -0.6545  0.4319
  984MOL0     C35695   4.754   5.644   4.810 -0.2921  0.4201 -0.7269
  984MOL0     C35696   4.822   5.565   4.923  0.2773  0.1686 -0.1276
  984MOL0     C35697   4.975   5.559   4.905  0.4538  0.2677 -0.0536
  984MOL0     C35698   5.040   5.514   4.776 -0.0278 -0.1516 -0.7859
  984MOL0    Cl35699   5.005   5.337   4.752 -0.0387 -0.0455  0.3699
  984MOL0     C35700   3.991   5.647   4.513 -0.1155  0.7455  0.2837
  984MOL0     C35701   3.897   5.671   4.418  0.7980 -0.1533  0.4917
  984MOL0     O35702   3.885   5.646   4.097 -0.3244  0.2916 -0.1534
  984MOL0     C35703   3.562   5.761   4.093 -0.8840  0.6313 -0.2329
  984MOL0     C35704   3.454   5.768   4.010  0.0680  0.1457 -0.9059
  984MOL0     N35705   2.940   6.181   3.511 -0.3036  0.1797  0.2849
  984MOL0     N35706   2.815   6.210   3.510 -0.0829  0.6315  0.2436
  984MOL0     C35707   1.966   6.431   2.648 -0.1278  0.5959  0.1189
  984MOL0     C35708   1.876   6.533   2.616  1.0692  1.0744  0.3047
  984MOL0     C35709   1.583   6.872   2.656  0.5245  0.4564 -0.2853
  984MOL0     C35710   1.615   6.938   2.541  0.7063 -0.0490  0.0650
  984MOL0     C35711   1.536   7.045   2.493 -0.8352  0.4224  0.5100
  984MOL0     C35712   1.427   7.083   2.562 -0.1433  0.7952  0.3694
  984MOL0     O35713   1.344   7.179   2.526 -0.5694 -0.1516 -0.1550
  984MOL0     C35714   1.396   7.308   2.577  0.2269 -0.0869  0.2887
  984MOL0     C35715   1.346   7.425   2.497 -0.3165  0.2676  0.4903
  984MOL0     C35716   1.403   7.441   2.354 -0.2507  1.0718 -0.0771
  984MOL0     C35717   1.353   7.578   2.292 -0.1604  1.0716 -0.9439
  984MOL0     C35718   1.331   7.549   2.155  0.1435  0.5496  1.4818
  984MOL0     C35719   1.288   7.540   2.039  0.3582 -1.4166  0.3856
  984MOL0     C35720   1.389   7.013   2.676 -0.2196  0.9782  0.1006
  984MOL0     C35721   1.468   6.915   2.733 -0.4871  1.0418 -0.1572
  984MOL0     C35722   1.420   6.843   2.856 -0.2812  0.1171 -0.4624
  984MOL0     H35723   2.021   6.793   2.765  2.5215 -0.1643  1.3146
  984MOL0     H35724   2.178   6.613   2.834 -0.1542  3.8367 -1.8346
  984MOL0     H35725   2.297   6.483   2.658  0.7216 -0.5473 -0.6785
  984MOL0     H35726   2.336   6.307   2.660  0.7803 -0.1193  0.4993
  984MOL0     H35727   2.480   6.451   2.812  0.1030  2.1738  0.6131
  984MOL0     H35728   2.331   6.475   2.911 -0.7862 -0.0913 -0.9012
  984MOL0     H35729   2.335   6.204   2.926  0.8949 -0.7194  1.2051
  984MOL0     H35730   2.480   6.212   2.834 -0.1304 -1.7829  0.2346
  984MOL0     H35731   2.602   6.317   3.012  1.5152 -3.1175 -0.0967
  984MOL0     H35732   2.447   6.374   3.088  0.2753  0.5143  0.7736
  984MOL0     H35733   2.535   6.093   3.065 -0.5832 -2.5853  1.1053
  984MOL0     H35734   2.382   6.137   3.148  0.3207 -1.4988 -1.3330
  984MOL0     H35735   2.650   6.226   3.261  1.1095 -3.2138 -0.6389
  984MOL0     H35736   2.492   6.275   3.317 -1.2000 -3.3953  2.4826
  984MOL0     H35737   2.598   5.988   3.306 -1.1282 -0.9730 -0.6531
  984MOL0     H35738   2.438   6.035   3.359  0.1940  1.6583  0.5132
  984MOL0     H35739   2.559   6.196   3.530  1.4252 -0.3948  1.9042
  984MOL0     H35740   2.562   6.023   3.565 -0.0725  0.3190  1.2005
  984MOL0     H35741   2.791   5.888   3.491 -2.2000  0.9860 -4.0350
  984MOL0     H35742   3.152   6.028   3.462  2.8012 -4.2962  0.8022
  984MOL0     H35743   3.065   5.874   3.471 -3.9061  0.1561 -1.5990
  984MOL0     H35744   3.227   6.003   3.680  0.5350 -1.7273  1.9019
  984MOL0     H35745   3.050   6.000   3.720 -1.7999  0.2771 -0.9163
  984MOL0     H35746   3.048   5.768   3.735  0.4816 -0.0768 -0.3948
  984MOL0     H35747   3.180   5.758   3.611 -0.5917  0.6154 -1.6596
  984MOL0     H35748   3.219   5.846   3.910  0.3328 -1.0676  0.6650
  984MOL0     H35749   3.214   5.684   3.855 -1.3742  1.6114  4.1670
  984MOL0     H35750   3.633   5.831   3.719 -2.2775  1.3901 -1.3166
  984MOL0     H35751   3.921   5.775   3.867  1.0066  1.0484 -2.2188
  984MOL0     H35752   3.895   5.953   3.903  0.4211 -0.8382  1.8981
  984MOL0     H35753   3.853   5.874   3.749 -0.7224  1.5328 -0.2272
  984MOL0     H35754   4.016   5.965   4.293 -1.7651 -0.8797 -1.6266
  984MOL0     H35755   4.168   5.934   4.472 -0.2182  0.2502 -2.4116
  984MOL0     H35756   4.340   5.775   4.545 -0.7710 -1.0637 -0.9377
  984MOL0     H35757   4.278   5.892   4.667 -0.6728  0.5520 -1.7726
  984MOL0     H35758   4.351   5.743   4.853  1.3550  1.5884  0.5052
  984MOL0     H35759   4.358   5.604   4.754 -3.8455  0.5687 -1.1063
  984MOL0     H35760   4.555   5.835   4.773  3.0006 -0.8469  1.4665
  984MOL0     H35761   4.567   5.728   4.633  2.4648 -0.2815  1.1304
  984MOL0     H35762   4.575   5.527   4.800 -0.4734 -1.0068  1.5462
  984MOL0     H35763   4.578   5.654   4.930  1.4723  0.4367  0.7811
  984MOL0     H35764   4.793   5.605   4.716  0.8747  0.0520 -0.1037
  984MOL0     H35765   4.770   5.752   4.811 -0.0861  0.4405 -2.4425
  984MOL0     H35766   4.783   5.463   4.918  3.1750 -0.9960 -0.9118
  984MOL0     H35767   4.795   5.606   5.021 -2.1761 -1.0384 -0.2337
  984MOL0     H35768   5.005   5.491   4.985 -1.4154  0.0176  0.4900
  984MOL0     H35769   5.009   5.660   4.931  0.8279  0.1361 -0.0234
  984MOL0     H35770   5.147   5.538   4.773  0.2459 -1.3586 -1.9330
  984MOL0     H35771   4.998   5.581   4.701  2.8198  0.1112 -2.3233
  984MOL0     H35772   3.977   5.555   4.570  0.4962  0.6648  0.3068
  984MOL0     H35773   3.818   5.599   4.403 -2.3795  3.5112 -2.6884
  984MOL0     H35774   3.547   5.728   4.195  0.2213  0.3148 -0.1671
  984MOL0     H35775   3.353   5.765   4.051 -0.2301  2.0687 -1.4292
  984MOL0     H35776   1.963   6.332   2.605  1.0220  0.0066  1.3131
  984MOL0     H35777   1.787   6.509   2.559  0.5262  3.5084  0.0155
  984MOL0     H35778   1.710   6.924   2.490  0.0718  0.3877 -1.2926
  984MOL0     H35779   1.577   7.116   2.422 -0.4498  0.2573  0.5625
  984MOL0     H35780   1.358   7.330   2.678 -1.4702  0.1728 -0.3715
  984MOL0     H35781   1.505   7.318   2.576  0.4664 -2.2982 -0.6771
  984MOL0     H35782   1.368   7.516   2.554  2.9128 -0.6702  0.9394
  984MOL0     H35783   1.240   7.414   2.477 -1.2006  0.0432  4.5366
  984MOL0     H35784   1.512   7.442   2.359 -0.2014 -0.3602 -0.3679
  984MOL0     H35785   1.360   7.353   2.305 -3.1636  0.1298  3.6528
  984MOL0     H35786   1.437   7.643   2.317 -1.1497  3.1662 -2.7827
  984MOL0     H35787   1.266   7.620   2.342  3.2492  4.1762  3.1373
  984MOL0     H35788   1.250   7.536   1.938  1.8995 -2.6383 -0.1762
  984MOL0     H35789   1.287   7.029   2.710  0.2136 -0.7589  2.4228
  984MOL0     H35790   1.327   6.886   2.893  0.3509  2.5941 -1.5451
  984MOL0     H35791   1.399   6.737   2.838 -1.6418 -0.2706  2.8247
  984MOL0     H35792   1.492   6.861   2.937 -0.4326  0.6742 -0.4480
  985MOL0     O35793   3.825   9.134   0.256  0.1479  0.3250 -0.3999
  985MOL0     C35794   3.855   9.237   0.205 -0.2311 -0.9864 -0.3211
  985MOL0     O35795   3.982   9.295   0.213  0.2907 -0.5639  0.2931
  985MOL0     C35796   4.092   9.237   0.257 -0.7444 -0.0125 -1.3124
  985MOL0     C35797   4.207   9.309   0.260 -0.2464 -0.4488 -0.4995
  985MOL0     C35798   4.328   9.272   0.317  0.4158 -0.3748 -0.8723
  985MOL0     C35799   4.335   9.147   0.371  0.0444 -1.5366  0.2014
  985MOL0     O35800   4.465   9.113   0.417  0.4041 -0.1963  0.8023
  985MOL0     C35801   4.484   9.011   0.515 -0.0091  0.2651  0.2558
  985MOL0     C35802   4.629   9.017   0.575  0.1623  0.0080  0.7522
  985MOL0     C35803   4.671   8.871   0.606 -0.2080 -0.2250 -0.1207
  985MOL0     C35804   4.798   8.874   0.702  0.4405  0.2866  0.5444
  985MOL0     C35805   4.833   8.736   0.754 -0.5522 -0.0771  0.2759
  985MOL0     C35806   4.952   8.743   0.850 -0.2255  0.9133 -1.4542
  985MOL0     C35807   4.983   8.597   0.883  0.8208 -0.5602 -0.3992
  985MOL0     C35808   5.105   8.578   0.978  0.9606 -0.1001  0.1502
  985MOL0     N35809   5.156   8.444   0.943 -0.5991  0.1160  0.0891
  985MOL0     C35810   5.264   8.432   0.862  0.7118  0.4230  0.2949
  985MOL0     C35811   5.316   8.306   0.885 -0.4463 -0.1067 -0.4536
  985MOL0     C35812   5.443   8.245   0.824  0.5791  0.2069  0.2137
  985MOL0     C35813   5.569   8.282   0.900 -0.5403 -0.2792  0.0253
  985MOL0     C35814   5.700   8.236   0.818  0.0045  0.4634  0.7913
  985MOL0     C35815   5.723   8.081   0.812 -0.3803 -0.9288  0.2943
  985MOL0     O35816   5.870   8.067   0.821  0.5933 -0.3845 -0.0555
  985MOL0     C35817   5.933   8.091   0.943 -0.1920 -0.3657  0.4372
  985MOL0     C35818   5.884   8.068   1.070 -0.2935 -0.0910 -0.0230
  985MOL0     C35819   5.952   8.093   1.191 -0.1237  0.6062  0.2535
  985MOL0     C35820   5.874   8.063   1.316 -0.0785  0.2125  0.2685
  985MOL0     C35821   6.088   8.126   1.184  0.4180 -1.0018 -0.2651
  985MOL0     C35822   6.186   8.129   1.293 -0.3046  0.7698 -1.2850
  985MOL0     O35823   6.319   8.163   1.262  0.3157  0.0071 -0.0841
  985MOL0     C35824   6.409   8.155   1.368 -0.1704  0.0743 -0.2430
  985MOL0     C35825   6.506   8.062   1.363 -0.3814  0.2362  0.0170
  985MOL0     C35826   6.598   8.046   1.467 -0.0705 -0.1043  0.3979
  985MOL0     C35827   6.595   8.132   1.580 -0.3274 -0.1269  0.1971
  985MOL0     O35828   6.685   8.103   1.682 -0.4137  0.0620  0.1129
  985MOL0     C35829   6.728   8.200   1.781 -0.3273  0.0517  0.4116
  985MOL0     C35830   6.789   8.121   1.901  0.4903  0.1523  0.3554
  985MOL0     C35831   6.924   8.057   1.877 -0.6977 -0.0524 -0.2314
  985MOL0     C35832   6.988   8.002   2.011 -0.3647  0.3716  1.2429
  985MOL0     C35833   7.141   7.989   1.993  0.2135  0.5924  1.1606
  985MOL0     C35834   7.212   7.945   2.121  0.2070 -1.1422  0.0404
  985MOL0     C35835   7.357   7.987   2.120 -0.4694  0.5619  0.0118
  985MOL0     C35836   7.433   7.921   2.233  0.9917  0.6021 -1.0476
  985MOL0    Cl35837   7.594   8.006   2.246  0.0348 -0.0865 -0.0655
  985MOL0     C35838   6.494   8.233   1.583 -0.5476 -0.1572  0.2692
  985MOL0     C35839   6.402   8.242   1.478  0.4478  0.7399 -0.1714
  985MOL0     O35840   6.143   8.104   1.398  0.2320 -0.0639 -1.4269
  985MOL0     C35841   6.130   8.163   1.054 -0.0616 -0.1152  0.2500
  985MOL0     C35842   6.054   8.152   0.940  0.7253 -0.8822 -0.1617
  985MOL0     N35843   5.232   8.241   0.966 -0.3286  0.5906 -1.3974
  985MOL0     N35844   5.148   8.324   1.008 -0.3402  1.0055 -0.3743
  985MOL0     C35845   4.220   9.071   0.380 -0.3066 -0.0845 -0.5193
  985MOL0     C35846   4.103   9.108   0.315  0.1129 -0.2258 -0.2601
  985MOL0     C35847   3.743   9.318   0.130 -0.3194  0.0727 -0.4780
  985MOL0     C35848   3.784   9.445   0.088  0.1778  0.0505 -0.1406
  985MOL0     C35849   3.694   9.539   0.028 -0.0163 -0.4649 -0.0575
  985MOL0     C35850   3.564   9.502  -0.005 -0.0921 -0.1963  0.1586
  985MOL0     O35851   3.460   9.578  -0.047 -0.0168  0.7067  0.3102
  985MOL0     C35852   3.486   9.717  -0.060 -0.1289  0.7286  0.1096
  985MOL0     C35853   3.346   9.779  -0.053  0.1124 -0.8297 -0.7836
  985MOL0     C35854   3.258   9.759  -0.180  0.5741 -0.0643 -0.3389
  985MOL0     C35855   3.111   9.815  -0.171 -0.2154  0.0937 -0.5320
  985MOL0     C35856   3.113   9.956  -0.142  0.3725 -0.2328  0.4880
  985MOL0     C35857   3.113  10.078  -0.113  0.3263 -1.1297 -0.2072
  985MOL0     C35858   3.523   9.371   0.021 -0.5777  0.5221 -0.4370
  985MOL0     C35859   3.608   9.282   0.101 -0.4706 -0.3369  1.1449
  985MOL0     C35860   3.562   9.147   0.134  1.0606 -0.1973  0.4308
  985MOL0     H35861   4.199   9.408   0.216  3.3518 -0.7054 -2.0782
  985MOL0     H35862   4.409   9.345   0.315  0.6797 -0.4317  2.5591
  985MOL0     H35863   4.477   8.916   0.461  1.5560 -0.1927  0.8140
  985MOL0     H35864   4.415   9.020   0.600  1.5221 -2.0064  1.8272
  985MOL0     H35865   4.693   9.068   0.503 -2.5862  1.0095 -1.1303
  985MOL0     H35866   4.632   9.088   0.658 -2.2413  2.2365 -0.9132
  985MOL0     H35867   4.587   8.819   0.653 -2.0133  2.1359 -0.5307
  985MOL0     H35868   4.693   8.813   0.515 -0.6806 -1.7449  0.6967
  985MOL0     H35869   4.881   8.915   0.643  1.5169 -1.8573  0.4466
  985MOL0     H35870   4.780   8.940   0.787  2.1364  0.0674  1.1168
  985MOL0     H35871   4.865   8.680   0.665 -1.8091  1.9021 -1.5325
  985MOL0     H35872   4.747   8.688   0.803  0.7282 -2.5235  0.2996
  985MOL0     H35873   5.042   8.793   0.813 -0.7048  3.0655  0.1244
  985MOL0     H35874   4.935   8.784   0.950  0.2235 -3.8840  0.8778
  985MOL0     H35875   4.999   8.538   0.792 -1.5286  1.1547 -2.0355
  985MOL0     H35876   4.895   8.556   0.931  0.2399 -1.9919 -2.5489
  985MOL0     H35877   5.185   8.644   0.944 -0.1168  1.1854  0.0005
  985MOL0     H35878   5.078   8.600   1.082  1.8945  4.2393 -0.3408
  985MOL0     H35879   5.302   8.503   0.789 -0.5905  0.2022 -0.6440
  985MOL0     H35880   5.445   8.267   0.717  2.0351  0.4805  0.2731
  985MOL0     H35881   5.428   8.137   0.827  0.0183  0.3003  1.4703
  985MOL0     H35882   5.575   8.390   0.912  3.3676 -0.1498 -1.5125
  985MOL0     H35883   5.572   8.239   1.000 -0.0758  1.6499  0.8811
  985MOL0     H35884   5.696   8.281   0.718 -0.9257  1.8700  1.4244
  985MOL0     H35885   5.771   8.290   0.881 -2.9105  2.3139  2.7729
  985MOL0     H35886   5.666   8.041   0.896 -0.6863 -1.2221 -0.0488
  985MOL0     H35887   5.676   8.044   0.720 -0.5515  0.2668 -0.1235
  985MOL0     H35888   5.786   8.021   1.075 -1.0427  1.4621  0.5937
  985MOL0     H35889   5.880   7.956   1.334 -0.8531  0.2759  0.9829
  985MOL0     H35890   5.770   8.098   1.304 -0.1725  0.4027  1.5313
  985MOL0     H35891   5.922   8.115   1.399  0.3986  0.7069 -0.3051
  985MOL0     H35892   6.511   7.988   1.283  2.1063 -0.4051  0.6482
  985MOL0     H35893   6.671   7.966   1.471  1.1125  1.0033  2.5709
  985MOL0     H35894   6.802   8.269   1.739 -1.7801  1.3349 -0.0913
  985MOL0     H35895   6.636   8.245   1.819 -2.5461 -2.7998 -1.2045
  985MOL0     H35896   6.811   8.198   1.975 -2.9324 -0.8530  2.6459
  985MOL0     H35897   6.719   8.046   1.939  1.4728 -0.6070  0.7160
  985MOL0     H35898   6.991   8.130   1.830  0.2095 -1.7978 -1.8289
  985MOL0     H35899   6.908   7.975   1.806 -2.0027  2.2347 -2.7636
  985MOL0     H35900   6.944   7.904   2.027 -1.9722  0.5809 -1.4013
  985MOL0     H35901   6.959   8.063   2.098  0.1509 -1.7742  3.0142
  985MOL0     H35902   7.176   7.914   1.921 -2.5309 -2.0399  2.3323
  985MOL0     H35903   7.177   8.089   1.966 -0.4938  0.9848  1.6474
  985MOL0     H35904   7.191   7.840   2.141 -0.4004 -0.9104  0.6545
  985MOL0     H35905   7.169   7.997   2.207  0.7327 -1.9846  0.8445
  985MOL0     H35906   7.364   8.095   2.137  4.3993  0.2969  1.2440
  985MOL0     H35907   7.399   7.969   2.021 -0.3648  0.7920  0.0135
  985MOL0     H35908   7.433   7.812   2.221 -1.8973  0.1619  1.5873
  985MOL0     H35909   7.381   7.934   2.328 -2.0204 -2.5127 -2.0648
  985MOL0     H35910   6.482   8.315   1.653 -0.5434  3.2218 -3.3338
  985MOL0     H35911   6.325   8.318   1.489  0.8784  1.6095 -2.5430
  985MOL0     H35912   6.230   8.192   1.023 -1.6079  3.1349 -2.2312
  985MOL0     H35913   6.082   8.191   0.842 -0.0755  0.1049 -0.0195
  985MOL0     H35914   4.218   8.971   0.422  1.9693 -0.6427 -1.5714
  985MOL0     H35915   4.018   9.041   0.324  0.7128 -1.1778 -1.4091
  985MOL0     H35916   3.885   9.482   0.098 -0.0564  1.5981 -2.6463
  985MOL0     H35917   3.725   9.637  -0.007 -1.1035 -0.7784 -2.0270
  985MOL0     H35918   3.548   9.749   0.024  0.2659  2.3513 -0.7588
  985MOL0     H35919   3.529   9.741  -0.158  0.9521 -0.6166  0.2320
  985MOL0     H35920   3.346   9.886  -0.029 -0.0582 -1.5072  2.6657
  985MOL0     H35921   3.287   9.728   0.024  0.6151 -1.7322 -0.9783
  985MOL0     H35922   3.309   9.814  -0.259  0.2310  0.0891 -0.4540
  985MOL0     H35923   3.258   9.652  -0.204  0.1476 -0.3092  0.6869
  985MOL0     H35924   3.052   9.769  -0.091 -0.9009  2.6175  0.5178
  985MOL0     H35925   3.061   9.798  -0.267  2.0823  1.9449 -2.1934
  985MOL0     H35926   3.115  10.180  -0.081  1.6233 -0.5084 -2.0933
  985MOL0     H35927   3.418   9.346   0.013 -0.6625  0.9270 -0.6519
  985MOL0     H35928   3.620   9.076   0.074 -0.3945 -1.6080  0.6057
  985MOL0     H35929   3.563   9.127   0.242  0.6193 -2.0349  0.1435
  985MOL0     H35930   3.459   9.139   0.098  1.7175  1.3179 -1.9319
  986MOL0     O35931   6.324   5.264  10.947  0.1894 -0.1152  0.2931
  986MOL0     C35932   6.277   5.300  10.841  0.0678  0.5851 -0.5050
  986MOL0     O35933   6.145   5.298  10.819  0.0442  0.4076  0.1997
  986MOL0     C35934   6.065   5.248  10.916  0.4471  0.1962 -0.2481
  986MOL0     C35935   5.990   5.329  11.000 -1.5495 -0.8181 -0.1083
  986MOL0     C35936   5.908   5.278  11.097  0.0074  0.5553  0.9755
  986MOL0     C35937   5.890   5.143  11.117 -0.2216 -0.3468 -0.1206
  986MOL0     O35938   5.812   5.090  11.227 -0.4443 -0.1276  0.7117
  986MOL0     C35939   5.681   5.044  11.202 -0.2036 -0.2279 -0.1283
  986MOL0     C35940   5.581   5.151  11.246  0.2168  0.5673 -0.0445
  986MOL0     C35941   5.611   5.206  11.387  0.3042 -0.3853  0.2008
  986MOL0     C35942   5.535   5.330  11.411  0.2315 -0.0230 -0.2153
  986MOL0     C35943   5.557   5.373  11.548 -0.0826  0.3732 -0.4473
  986MOL0     C35944   5.497   5.513  11.563 -1.0710 -0.2585 -0.7000
  986MOL0     C35945   5.345   5.522  11.541  1.1301  0.4549 -0.1963
  986MOL0     C35946   5.288   5.664  11.529 -0.0420  0.3845  0.4104
  986MOL0     N35947   5.326   5.717  11.396  0.6933  0.0136 -0.1099
  986MOL0     C35948   5.417   5.809  11.350 -0.6494  0.4639  0.4526
  986MOL0     C35949   5.394   5.810  11.214 -0.6538  0.1721  0.6202
  986MOL0     C35950   5.465   5.894  11.113  0.2712 -0.0619  0.5351
  986MOL0     C35951   5.616   5.886  11.134  0.0022  0.4954 -0.0574
  986MOL0     C35952   5.685   5.747  11.142 -1.1307 -0.0224  0.6667
  986MOL0     C35953   5.840   5.760  11.147 -0.2644  0.3636 -0.3139
  986MOL0     O35954   5.888   5.785  11.275  0.3194  0.5920 -0.0807
  986MOL0     C35955   6.016   5.755  11.288 -0.7899  0.4865 -0.5969
  986MOL0     C35956   6.120   5.851  11.269 -0.4308 -0.6115  0.6953
  986MOL0     C35957   6.257   5.817  11.277  0.2455 -0.4025 -0.5808
  986MOL0     C35958   6.355   5.925  11.233 -0.7466  0.2713  0.2131
  986MOL0     C35959   6.283   5.687  11.317 -0.2269  0.0827  0.2044
  986MOL0     C35960   6.426   5.636  11.315  0.4138  0.4860  0.3617
  986MOL0     O35961   6.448   5.504  11.300 -0.0066 -0.7407 -0.1278
  986MOL0     C35962   6.577   5.455  11.329  0.0147 -0.5721  0.4657
  986MOL0     C35963   6.677   5.459  11.237  0.7243  0.1451 -0.2475
  986MOL0     C35964   6.797   5.402  11.274 -0.0532 -0.2872  1.0064
  986MOL0     C35965   6.819   5.336  11.390 -0.4109 -0.2431 -0.5764
  986MOL0     O35966   6.946   5.291  11.407  0.0515  0.4089 -0.0827
  986MOL0     C35967   6.954   5.163  11.482  0.6934 -0.3821  0.2428
  986MOL0     C35968   7.092   5.100  11.511 -0.3481  0.2399  0.5523
  986MOL0     C35969   7.148   5.046  11.382 -0.2799  0.1148 -0.4655
  986MOL0     C35970   7.292   5.009  11.412 -0.3682 -0.6392 -0.1800
  986MOL0     C35971   7.348   4.924  11.300 -0.6314 -0.7734  0.5037
  986MOL0     C35972   7.344   4.999  11.164  0.0262  0.2568 -0.1708
  986MOL0     C35973   7.426   5.133  11.169 -0.3892  0.0875  0.7224
  986MOL0     C35974   7.346   5.257  11.144  0.2939 -0.0664 -0.1073
  986MOL0    Cl35975   7.450   5.393  11.139 -0.3910  0.0738  0.3973
  986MOL0     C35976   6.708   5.322  11.474 -0.9739 -0.0870 -0.8683
  986MOL0     C35977   6.587   5.381  11.444  0.6264  0.2580  1.1816
  986MOL0     O35978   6.517   5.722  11.329 -0.4533  0.6288  0.1636
  986MOL0     C35979   6.182   5.600  11.345 -0.1096  1.0516  0.8132
  986MOL0     C35980   6.047   5.634  11.336  0.0488  0.2994 -0.4695
  986MOL0     N35981   5.310   5.711  11.176  0.2109  0.0245 -0.5728
  986MOL0     N35982   5.268   5.657  11.286 -0.3063 -0.3185 -0.4200
  986MOL0     C35983   5.965   5.058  11.039  0.8117 -0.0942 -0.2521
  986MOL0     C35984   6.050   5.108  10.939 -1.0490 -0.7658 -0.3232
  986MOL0     C35985   6.358   5.375  10.742 -0.4005 -0.4335  0.4654
  986MOL0     C35986   6.295   5.467  10.651  0.0935  0.2832 -0.1622
  986MOL0     C35987   6.368   5.544  10.556 -0.0034 -0.2076  0.3548
  986MOL0     C35988   6.500   5.522  10.543 -0.1294 -0.4174  0.6062
  986MOL0     O35989   6.551   5.600  10.440  0.0602 -0.0708  0.1785
  986MOL0     C35990   6.700   5.622  10.447  0.1503 -0.4686  1.2131
  986MOL0     C35991   6.744   5.754  10.363 -0.8425  0.9715 -1.1197
  986MOL0     C35992   6.661   5.880  10.418 -0.4597  0.5836 -0.4698
  986MOL0     C35993   6.694   6.006  10.341  0.6848 -0.1260  0.8607
  986MOL0     C35994   6.592   6.099  10.396  0.1117 -0.2538 -0.2263
  986MOL0     C35995   6.500   6.172  10.422 -0.6151 -1.0421 -0.6670
  986MOL0     C35996   6.571   5.441  10.634  0.2954 -0.5311  1.1840
  986MOL0     C35997   6.502   5.365  10.734 -0.6751  1.0946  0.3830
  986MOL0     C35998   6.581   5.284  10.837 -0.4392 -0.2132  0.7069
  986MOL0     H35999   6.004   5.436  11.004 -0.0348 -0.9491 -0.9974
  986MOL0     H36000   5.856   5.345  11.165 -2.7519 -1.2241  0.7657
  986MOL0     H36001   5.662   4.949  11.253  2.9954 -1.0257 -0.1862
  986MOL0     H36002   5.662   5.019  11.097  4.8248  1.4165 -1.7201
  986MOL0     H36003   5.597   5.236  11.178  1.5782  0.5083  0.1812
  986MOL0     H36004   5.480   5.112  11.234  0.7520 -0.3755 -1.9405
  986MOL0     H36005   5.592   5.128  11.461  1.8110  0.7883  1.9037
  986MOL0     H36006   5.718   5.227  11.396  0.4978 -0.7814 -0.9852
  986MOL0     H36007   5.581   5.396  11.336  1.2777 -1.1601 -0.6144
  986MOL0     H36008   5.428   5.313  11.403  0.4260 -0.9620 -1.0183
  986MOL0     H36009   5.660   5.362  11.585 -0.7217  0.3223  1.3892
  986MOL0     H36010   5.500   5.311  11.617  0.3040  2.8224  2.2580
  986MOL0     H36011   5.515   5.554  11.663  3.2376  1.2084 -1.8468
  986MOL0     H36012   5.554   5.581  11.500  0.4458 -0.2114  0.6477
  986MOL0     H36013   5.296   5.478  11.628  3.2816 -0.4583  0.6191
  986MOL0     H36014   5.320   5.468  11.449 -2.5010  2.6324 -0.6937
  986MOL0     H36015   5.179   5.665  11.541  0.0101 -1.0523  1.1614
  986MOL0     H36016   5.337   5.729  11.602  2.2134  2.8990 -2.9765
  986MOL0     H36017   5.480   5.875  11.409 -0.1683  1.9530 -1.6221
  986MOL0     H36018   5.438   5.999  11.128  0.4413 -0.1124  1.1926
  986MOL0     H36019   5.418   5.871  11.016  0.0703  0.5505  0.4777
  986MOL0     H36020   5.663   5.955  11.062 -0.5569  0.4129 -0.5147
  986MOL0     H36021   5.621   5.924  11.236 -0.6885  0.8345 -0.1440
  986MOL0     H36022   5.643   5.686  11.222 -3.7098 -0.2975 -0.7938
  986MOL0     H36023   5.665   5.691  11.050 -2.2266  1.4670 -0.0436
  986MOL0     H36024   5.884   5.669  11.105 -0.3215  0.2598 -0.1529
  986MOL0     H36025   5.858   5.839  11.074 -1.3113 -1.4076 -2.6377
  986MOL0     H36026   6.100   5.957  11.253  1.8820 -0.3358 -0.7535
  986MOL0     H36027   6.437   5.941  11.303 -0.2647  0.0528 -0.2953
  986MOL0     H36028   6.317   6.028  11.242  0.4795  0.9277 -1.5047
  986MOL0     H36029   6.386   5.904  11.130 -1.0709 -1.5560  0.4590
  986MOL0     H36030   6.662   5.505  11.140 -2.1585 -0.7575 -0.3153
  986MOL0     H36031   6.877   5.437  11.209  0.9881  2.0297  3.3040
  986MOL0     H36032   6.904   5.184  11.577 -3.3983  0.0629 -1.7865
  986MOL0     H36033   6.887   5.093  11.432 -0.2617  0.1153  0.8069
  986MOL0     H36034   7.168   5.169  11.548  0.2012  0.9345 -1.7345
  986MOL0     H36035   7.066   5.024  11.585  2.5951 -0.4889  0.9582
  986MOL0     H36036   7.135   5.127  11.309 -2.1491  2.5983  2.3958
  986MOL0     H36037   7.098   4.953  11.357  2.0268 -0.5570 -3.0354
  986MOL0     H36038   7.294   4.941  11.497 -0.6904 -2.6546 -1.6998
  986MOL0     H36039   7.361   5.090  11.435 -1.1639  0.5642 -1.7687
  986MOL0     H36040   7.453   4.900  11.317 -1.1766 -1.1235  4.1244
  986MOL0     H36041   7.303   4.824  11.298  1.4247 -1.7544  0.0744
  986MOL0     H36042   7.241   5.003  11.128  0.7008  1.6638 -2.1146
  986MOL0     H36043   7.392   4.936  11.089  0.0159 -0.1902  0.1898
  986MOL0     H36044   7.503   5.118  11.093 -0.5297 -0.9614  0.7787
  986MOL0     H36045   7.481   5.164  11.259 -0.6319 -0.2791  0.9977
  986MOL0     H36046   7.279   5.268  11.230 -0.1500  1.1355 -0.5995
  986MOL0     H36047   7.289   5.251  11.051 -2.2535  0.2243  1.3474
  986MOL0     H36048   6.705   5.267  11.567 -0.4018  1.4410  0.0832
  986MOL0     H36049   6.510   5.371  11.520  0.1489 -3.9046  0.3611
  986MOL0     H36050   6.204   5.497  11.367 -1.0879  0.3487 -1.2153
  986MOL0     H36051   5.963   5.569  11.356 -1.3691  1.3562 -2.5889
  986MOL0     H36052   5.939   4.954  11.050 -1.1286  0.3985  0.2683
  986MOL0     H36053   6.103   5.051  10.863  0.9785  1.6257 -0.8286
  986MOL0     H36054   6.187   5.470  10.657  0.1552  2.1590  0.5471
  986MOL0     H36055   6.328   5.611  10.479  1.8389  1.6323  0.9116
  986MOL0     H36056   6.737   5.631  10.549  2.6757 -1.2941  0.4297
  986MOL0     H36057   6.749   5.535  10.404 -1.8938 -1.0794 -0.0233
  986MOL0     H36058   6.731   5.725  10.258 -0.8445 -4.0316 -0.0216
  986MOL0     H36059   6.850   5.777  10.378 -0.6159  0.4190 -1.7777
  986MOL0     H36060   6.557   5.853  10.399 -0.3492 -1.3468  1.3140
  986MOL0     H36061   6.672   5.887  10.526 -0.7782 -0.5437 -0.3564
  986MOL0     H36062   6.680   5.999  10.233  1.9977 -1.3893  0.7353
  986MOL0     H36063   6.795   6.041  10.364  1.1786 -0.4447 -0.7257
  986MOL0     H36064   6.421   6.233  10.460  0.0833  1.8675 -3.5071
  986MOL0     H36065   6.677   5.422  10.640  0.6288  1.2416  1.5477
  986MOL0     H36066   6.679   5.267  10.791 -0.8291  4.5961 -2.7977
  986MOL0     H36067   6.597   5.339  10.930 -2.2680  0.2311  0.8025
  986MOL0     H36068   6.549   5.180  10.844  3.4379 -1.5942  0.2217
  987MOL0     O36069   7.823   2.297  11.243  0.3194  0.9798 -0.0197
  987MOL0     C36070   7.871   2.398  11.195  1.1988 -0.6939 -0.6392
  987MOL0     O36071   7.999   2.442  11.203  0.6523 -1.0295  0.2647
  987MOL0     C36072   8.098   2.367  11.250  0.0376 -0.4726 -0.1877
  987MOL0     C36073   8.167   2.404  11.362  0.6567  0.0726  0.1708
  987MOL0     C36074   8.280   2.332  11.397 -0.3009  0.7155 -0.0223
  987MOL0     C36075   8.306   2.210  11.327 -0.6800 -0.0587 -0.5911
  987MOL0     O36076   8.407   2.120  11.365  0.1026  0.1848 -0.4751
  987MOL0     C36077   8.503   2.168  11.455 -0.1094 -0.4143 -0.6217
  987MOL0     C36078   8.621   2.071  11.474  0.8480 -0.2362  0.0638
  987MOL0     C36079   8.587   1.927  11.440  0.1126  0.2678  0.4246
  987MOL0     C36080   8.708   1.839  11.436  1.0031 -0.2752  0.6413
  987MOL0     C36081   8.670   1.701  11.399  0.6926 -0.6341 -0.4770
  987MOL0     C36082   8.783   1.608  11.437  0.0327  0.0688  0.1503
  987MOL0     C36083   8.734   1.465  11.424  0.9828  0.9423 -0.8915
  987MOL0     C36084   8.826   1.365  11.499  0.5250 -0.5456  0.3435
  987MOL0     N36085   8.953   1.368  11.427 -0.2253  0.2060  0.7706
  987MOL0     C36086   8.973   1.367  11.286  0.3699 -0.5332  0.4647
  987MOL0     C36087   9.093   1.421  11.270  0.0253  1.7132 -0.4902
  987MOL0     C36088   9.177   1.427  11.145 -0.2208  0.4009 -0.6636
  987MOL0     C36089   9.319   1.378  11.165  0.5000  0.3536 -0.2058
  987MOL0     C36090   9.408   1.397  11.049  0.1407 -0.5221 -1.0087
  987MOL0     C36091   9.529   1.308  11.024 -0.1451 -0.9832  0.0521
  987MOL0     O36092   9.621   1.346  11.133 -0.2407  0.4395  0.1383
  987MOL0     C36093   9.742   1.267  11.148 -0.0830 -0.2706  0.0105
  987MOL0     C36094   9.821   1.327  11.250 -0.4786  1.0129  0.0423
  987MOL0     C36095   9.943   1.263  11.289 -0.7640  0.0723  1.1150
  987MOL0     C36096  10.018   1.320  11.402 -0.2942 -0.3315  0.0845
  987MOL0     C36097   9.974   1.142  11.225 -0.3376 -0.5619 -0.1049
  987MOL0     C36098  10.106   1.072  11.233  0.2755 -0.4899  0.3946
  987MOL0     O36099  10.100   0.938  11.191 -0.3767 -0.3015 -0.1519
  987MOL0     C36100  10.214   0.859  11.193 -0.1461 -0.0220 -0.4638
  987MOL0     C36101  10.193   0.731  11.236  0.1928 -0.5038  0.7241
  987MOL0     C36102  10.291   0.640  11.218  0.0435  0.4789  0.1431
  987MOL0     C36103  10.418   0.671  11.161  0.0912 -0.3436  0.5850
  987MOL0     O36104  10.506   0.576  11.168  0.4970  0.1634  0.1140
  987MOL0     C36105  10.628   0.616  11.113 -1.2786  0.1990  0.9712
  987MOL0     C36106  10.722   0.494  11.104 -0.2100  0.4526 -0.1838
  987MOL0     C36107  10.676   0.394  10.996 -0.7079  0.2288 -0.6750
  987MOL0     C36108  10.787   0.297  10.952 -0.2900 -0.0570  0.0188
  987MOL0     C36109  10.762   0.231  10.819  1.1520  0.2706 -0.0592
  987MOL0     C36110  10.895   0.177  10.778  0.9891 -0.4223  0.2124
  987MOL0     C36111  10.889   0.132  10.631 -0.7304  0.3897  0.5428
  987MOL0     C36112  10.991   0.023  10.607  0.5082  0.4649  0.2911
  987MOL0    Cl36113  11.158   0.105  10.584  0.0566 -0.3982  0.1471
  987MOL0     C36114  10.438   0.808  11.127  0.1561  0.5178 -0.0441
  987MOL0     C36115  10.332   0.898  11.135  0.8245  0.5476  0.3696
  987MOL0     O36116  10.212   1.129  11.259 -0.4015  0.6746  0.4135
  987MOL0     C36117   9.887   1.085  11.131 -0.0586  0.7638 -0.0719
  987MOL0     C36118   9.771   1.146  11.098 -0.0636  0.0043 -0.2291
  987MOL0     N36119   9.154   1.450  11.395  0.2637 -0.2954  0.8994
  987MOL0     N36120   9.068   1.418  11.486 -0.1258 -0.3024 -0.2257
  987MOL0     C36121   8.222   2.160  11.227  0.3107  0.6123  0.3992
  987MOL0     C36122   8.123   2.243  11.185  0.3091 -0.2943 -0.6426
  987MOL0     C36123   7.783   2.503  11.129 -0.1899  0.1156 -0.3416
  987MOL0     C36124   7.785   2.643  11.177 -0.6644 -0.4942 -1.3233
  987MOL0     C36125   7.693   2.732  11.121  0.2502  0.1163  0.0523
  987MOL0     C36126   7.601   2.692  11.023  0.2204 -0.1376 -0.1373
  987MOL0     O36127   7.523   2.791  10.985 -0.1674 -0.5502 -0.2744
  987MOL0     C36128   7.489   2.814  10.851 -0.4185  0.2932  0.5338
  987MOL0     C36129   7.352   2.754  10.802 -1.0126  0.1868  0.2572
  987MOL0     C36130   7.299   2.809  10.664 -0.8450 -0.4157 -1.2055
  987MOL0     C36131   7.154   2.768  10.628  0.1614  1.6879  0.1682
  987MOL0     C36132   7.075   2.882  10.569  0.2523 -0.7161  0.2063
  987MOL0     C36133   7.017   2.968  10.500 -1.2082  0.2839  0.1249
  987MOL0     C36134   7.594   2.564  10.986  0.5820 -0.1655  0.9869
  987MOL0     C36135   7.684   2.470  11.033  0.3462  0.0439  1.3163
  987MOL0     C36136   7.668   2.329  10.982  0.9116  0.1905 -0.2013
  987MOL0     H36137   8.143   2.491  11.422 -1.4576  0.1438 -0.7215
  987MOL0     H36138   8.338   2.372  11.480  0.5002 -1.6077  0.6362
  987MOL0     H36139   8.467   2.189  11.556  4.4238  1.5432  0.8382
  987MOL0     H36140   8.532   2.269  11.426 -2.1031 -0.0703 -1.5759
  987MOL0     H36141   8.702   2.109  11.410  2.4577  2.3194  3.3613
  987MOL0     H36142   8.660   2.073  11.576 -1.3517  1.1913  0.9482
  987MOL0     H36143   8.513   1.893  11.513 -0.2043 -1.2357 -0.5539
  987MOL0     H36144   8.537   1.919  11.343 -1.9072 -2.0063  1.5347
  987MOL0     H36145   8.764   1.875  11.349 -1.6101 -0.7543 -1.3763
  987MOL0     H36146   8.758   1.848  11.533  0.1105  0.2583  1.0645
  987MOL0     H36147   8.661   1.706  11.290 -1.6328  2.6662 -0.2835
  987MOL0     H36148   8.572   1.667  11.435 -0.3278  0.9454 -1.6292
  987MOL0     H36149   8.873   1.623  11.377  0.9661  0.7958  1.6465
  987MOL0     H36150   8.828   1.632  11.534  0.6293  1.3498 -0.4200
  987MOL0     H36151   8.711   1.426  11.325  0.4160 -5.0589  1.1582
  987MOL0     H36152   8.645   1.464  11.488  2.0337 -1.4917  0.7035
  987MOL0     H36153   8.843   1.394  11.603 -0.5567  1.2395  0.0602
  987MOL0     H36154   8.774   1.269  11.504  2.1082 -1.5614 -1.4030
  987MOL0     H36155   8.904   1.330  11.211 -0.1130 -1.2078  1.2358
  987MOL0     H36156   9.183   1.530  11.112  1.0131  0.4007 -0.4717
  987MOL0     H36157   9.124   1.366  11.071 -0.0319  0.0752 -0.5334
  987MOL0     H36158   9.358   1.427  11.255  0.6036 -1.3036  0.6974
  987MOL0     H36159   9.306   1.269  11.172 -0.6227  0.4070 -1.2445
  987MOL0     H36160   9.345   1.402  10.960  0.0814  2.3865 -0.9092
  987MOL0     H36161   9.447   1.499  11.047 -0.7913 -0.1607 -1.6767
  987MOL0     H36162   9.501   1.202  11.024  2.5371 -1.7702 -0.1320
  987MOL0     H36163   9.568   1.338  10.926 -2.6006  3.5162  0.1864
  987MOL0     H36164   9.782   1.407  11.312 -2.8504 -1.2211  1.6410
  987MOL0     H36165  10.097   1.386  11.367 -0.5578 -0.4528 -0.7423
  987MOL0     H36166  10.060   1.238  11.462  0.6153 -0.4235 -0.6631
  987MOL0     H36167   9.952   1.368  11.475  1.5234  1.2164  0.7601
  987MOL0     H36168  10.097   0.699  11.276 -1.7660  3.2395 -0.4921
  987MOL0     H36169  10.271   0.545  11.266  1.7251  0.3276  0.6057
  987MOL0     H36170  10.609   0.648  11.010  3.8790 -0.6247 -0.5513
  987MOL0     H36171  10.676   0.697  11.169 -3.1940  0.4320  2.3557
  987MOL0     H36172  10.822   0.532  11.083 -0.2242 -0.1631 -1.4517
  987MOL0     H36173  10.735   0.449  11.202 -0.1911 -0.2162 -0.4895
  987MOL0     H36174  10.644   0.448  10.907 -2.3274 -1.7022 -1.3455
  987MOL0     H36175  10.598   0.337  11.047  1.0842 -0.4609  1.4513
  987MOL0     H36176  10.803   0.221  11.029  2.4968 -2.1455 -2.4020
  987MOL0     H36177  10.878   0.357  10.946 -1.9030  2.4781 -1.8094
  987MOL0     H36178  10.691   0.148  10.817  2.7341 -1.1329 -1.4383
  987MOL0     H36179  10.729   0.308  10.749 -0.6012  0.8634  1.3560
  987MOL0     H36180  10.917   0.091  10.841  1.8992 -1.8257 -1.9516
  987MOL0     H36181  10.986   0.232  10.801  1.9587 -3.2712  4.3685
  987MOL0     H36182  10.916   0.221  10.574 -1.6324  1.1845  1.3282
  987MOL0     H36183  10.799   0.091  10.584 -0.3019  0.8691 -0.7504
  987MOL0     H36184  10.965  -0.029  10.515  1.9816  0.2795 -0.0452
  987MOL0     H36185  11.001  -0.054  10.684 -1.0181 -2.4768 -2.2136
  987MOL0     H36186  10.531   0.845  11.083  0.4181  0.2247  0.2556
  987MOL0     H36187  10.350   0.997  11.094  1.5557 -0.0273 -0.7637
  987MOL0     H36188   9.921   0.996  11.079 -1.8605  0.6287 -1.1033
  987MOL0     H36189   9.703   1.112  11.020 -1.6757  1.5423  0.4174
  987MOL0     H36190   8.245   2.066  11.177 -1.2758  0.4981 -0.1792
  987MOL0     H36191   8.059   2.210  11.103 -0.7546 -1.6671  0.6639
  987MOL0     H36192   7.848   2.673  11.261 -4.1373  1.2284  0.9101
  987MOL0     H36193   7.684   2.829  11.170  1.2185  1.2888 -1.9945
  987MOL0     H36194   7.485   2.922  10.834 -0.2321  0.4285  1.3162
  987MOL0     H36195   7.566   2.761  10.794 -3.1898 -0.5482 -2.7868
  987MOL0     H36196   7.276   2.775  10.877  1.3892  0.3587  2.7960
  987MOL0     H36197   7.371   2.646  10.802 -0.9687  0.1948  0.5200
  987MOL0     H36198   7.317   2.916  10.672  2.1578 -0.9120 -0.0683
  987MOL0     H36199   7.371   2.768  10.593 -1.1281 -0.1869 -1.6259
  987MOL0     H36200   7.113   2.731  10.723 -1.0772 -1.7368 -1.5260
  987MOL0     H36201   7.155   2.681  10.562 -0.6309 -0.1295  2.3792
  987MOL0     H36202   6.944   3.023  10.444 -0.0504  1.6765 -0.0853
  987MOL0     H36203   7.521   2.522  10.918 -1.1078 -0.3560  2.8328
  987MOL0     H36204   7.623   2.322  10.883 -0.0052  1.9379  0.0403
  987MOL0     H36205   7.760   2.271  10.986  2.0312  1.8242 -1.0482
  987MOL0     H36206   7.610   2.278  11.060  0.8565 -1.0522 -1.0428
  988MOL0     O36207   2.462   6.198   8.837  0.2657 -0.1069 -0.2168
  988MOL0     C36208   2.407   6.302   8.844 -0.0347 -0.4795  1.2395
  988MOL0     O36209   2.310   6.346   8.757  0.3079  0.4788  1.2605
  988MOL0     C36210   2.259   6.264   8.652 -0.8577 -0.7118  0.5661
  988MOL0     C36211   2.268   6.126   8.651  0.6639  0.3292  0.1283
  988MOL0     C36212   2.217   6.050   8.543 -0.4293 -0.0535  0.6578
  988MOL0     C36213   2.158   6.111   8.433  0.3524  0.9125  0.1383
  988MOL0     O36214   2.102   6.027   8.339 -0.2480 -0.4377  0.4808
  988MOL0     C36215   2.025   6.076   8.224 -0.4955 -0.3152 -0.3172
  988MOL0     C36216   1.952   5.962   8.155  0.0104  0.3202  0.4418
  988MOL0     C36217   1.939   5.986   8.010 -0.0553  0.5890  0.5973
  988MOL0     C36218   1.839   6.096   7.968 -1.5756  0.6797 -0.2529
  988MOL0     C36219   1.696   6.088   8.012 -0.1293  0.8089  0.1165
  988MOL0     C36220   1.616   6.172   7.925  0.0950  0.5426 -0.3603
  988MOL0     C36221   1.466   6.173   7.971  0.3323 -0.0008  0.1643
  988MOL0     C36222   1.373   6.262   7.887  0.0987 -0.9886 -0.4754
  988MOL0     N36223   1.396   6.405   7.922  0.3413 -0.1361 -0.4090
  988MOL0     C36224   1.384   6.470   8.047 -0.2474  0.2230  0.1363
  988MOL0     C36225   1.444   6.590   8.027  0.0096  0.0781 -0.5918
  988MOL0     C36226   1.464   6.696   8.129  0.1963  0.1764  0.6449
  988MOL0     C36227   1.348   6.795   8.107 -0.8538 -0.1270 -1.1355
  988MOL0     C36228   1.356   6.912   8.216 -0.0147 -0.0891 -0.1022
  988MOL0     C36229   1.250   7.025   8.199 -1.1345  0.2290  0.0499
  988MOL0     O36230   1.282   7.149   8.267 -0.1538  0.0681 -0.2912
  988MOL0     C36231   1.267   7.148   8.404  0.3475 -0.4694 -0.9663
  988MOL0     C36232   1.184   7.059   8.481 -0.7789  0.3555 -0.1133
  988MOL0     C36233   1.171   7.090   8.622 -0.3784  0.5731  0.7783
  988MOL0     C36234   1.071   7.013   8.697  0.2335 -0.0402  0.4290
  988MOL0     C36235   1.242   7.194   8.682 -0.8114 -0.2355  0.5721
  988MOL0     C36236   1.225   7.215   8.825  0.0617 -0.3173 -0.3774
  988MOL0     O36237   1.336   7.202   8.908 -0.7864 -0.4192  0.2434
  988MOL0     C36238   1.327   7.241   9.034 -0.8018  0.5016 -0.0051
  988MOL0     C36239   1.282   7.366   9.075  0.5874 -0.3966 -0.1898
  988MOL0     C36240   1.283   7.407   9.211 -0.6698  0.5345 -0.4334
  988MOL0     C36241   1.342   7.321   9.306  0.3060 -0.2438  0.0982
  988MOL0     O36242   1.346   7.382   9.437 -0.1832  0.8579  0.1789
  988MOL0     C36243   1.282   7.291   9.529  0.6667  1.1481 -1.3133
  988MOL0     C36244   1.273   7.353   9.674 -0.0126 -0.2765 -0.2804
  988MOL0     C36245   1.166   7.450   9.694 -0.2288 -0.5225 -0.5110
  988MOL0     C36246   1.112   7.463   9.842  0.4099  0.1672  0.7962
  988MOL0     C36247   1.025   7.595   9.844 -0.0797  0.3335 -0.6571
  988MOL0     C36248   1.097   7.729   9.871 -0.2414  0.6440 -1.0614
  988MOL0     C36249   1.147   7.739  10.018 -0.1262  0.0808 -0.6625
  988MOL0     C36250   1.242   7.870  10.038  0.6096  0.4555  0.2825
  988MOL0    Cl36251   1.366   7.873   9.909 -0.3087 -0.2055  0.2690
  988MOL0     C36252   1.395   7.197   9.273 -0.1248 -0.3088  0.6746
  988MOL0     C36253   1.390   7.162   9.133  0.5095  0.9629  0.1353
  988MOL0     O36254   1.108   7.241   8.853 -0.1983  0.0718  0.3713
  988MOL0     C36255   1.324   7.272   8.604 -0.5269  0.2444 -0.5500
  988MOL0     C36256   1.329   7.246   8.471 -0.5919  0.3316 -0.0340
  988MOL0     N36257   1.482   6.601   7.896  0.2792  0.5341 -0.5569
  988MOL0     N36258   1.448   6.494   7.834 -0.3430  0.3901  0.0911
  988MOL0     C36259   2.152   6.249   8.434  0.0202  0.4414  0.1796
  988MOL0     C36260   2.206   6.323   8.539  0.2305  0.0884 -0.2988
  988MOL0     C36261   2.444   6.396   8.958  0.4265 -0.3316 -0.3351
  988MOL0     C36262   2.354   6.497   8.988  0.2192 -0.2158  0.2507
  988MOL0     C36263   2.380   6.578   9.099  0.0262 -1.1548  0.0428
  988MOL0     C36264   2.492   6.573   9.184  0.9257  0.7046  0.6204
  988MOL0     O36265   2.484   6.673   9.277 -0.4656  0.6878  0.5707
  988MOL0     C36266   2.608   6.694   9.339 -0.8797  0.6056 -0.2037
  988MOL0     C36267   2.599   6.817   9.405 -0.2020 -0.4020  0.0330
  988MOL0     C36268   2.602   6.934   9.293  0.4462 -0.3453 -0.0903
  988MOL0     C36269   2.621   7.065   9.380  0.1875 -0.6135  0.1713
  988MOL0     C36270   2.611   7.177   9.283  0.5503 -0.1804 -0.7554
  988MOL0     C36271   2.609   7.269   9.201  0.3226  0.6879  0.4163
  988MOL0     C36272   2.590   6.474   9.147 -0.3235 -0.2930 -0.2927
  988MOL0     C36273   2.563   6.380   9.042  0.6568 -0.1438  0.9526
  988MOL0     C36274   2.678   6.284   9.005  0.0831  0.2752  0.2776
  988MOL0     H36275   2.308   6.069   8.735  1.8357  1.3409  0.2817
  988MOL0     H36276   2.216   5.942   8.558 -1.5238  0.2066  2.9484
  988MOL0     H36277   2.106   6.118   8.165 -0.4361  0.9549  0.6298
  988MOL0     H36278   1.953   6.154   8.250  0.3415  1.0145 -1.8828
  988MOL0     H36279   2.028   5.884   8.165  0.9206  0.5887 -2.9944
  988MOL0     H36280   1.855   5.935   8.196  1.1717 -4.0595  0.7897
  988MOL0     H36281   2.036   6.014   7.968 -0.6085  2.3435  0.4309
  988MOL0     H36282   1.908   5.890   7.966 -1.8310  0.7561  1.4106
  988MOL0     H36283   1.872   6.194   8.004  0.9570 -0.1402 -0.1095
  988MOL0     H36284   1.836   6.104   7.859  2.1605 -1.1054 -0.6513
  988MOL0     H36285   1.693   6.122   8.116  3.4935 -1.3937  1.1312
  988MOL0     H36286   1.661   5.985   8.005  0.8181  0.5685 -1.7310
  988MOL0     H36287   1.660   6.271   7.936 -0.8949  0.9538 -0.0581
  988MOL0     H36288   1.621   6.148   7.819 -3.4134  1.6947 -0.9128
  988MOL0     H36289   1.445   6.194   8.076 -1.9414 -0.5783 -0.1081
  988MOL0     H36290   1.444   6.066   7.970  1.1810 -0.1994  1.0416
  988MOL0     H36291   1.411   6.252   7.785 -0.8070  1.7079 -1.1709
  988MOL0     H36292   1.272   6.222   7.903  1.1509 -2.9677  2.0697
  988MOL0     H36293   1.345   6.432   8.140 -1.6483 -5.4866 -2.3424
  988MOL0     H36294   1.562   6.743   8.122 -0.4951  1.4297 -1.8957
  988MOL0     H36295   1.452   6.650   8.227  1.1414  0.0449  0.7011
  988MOL0     H36296   1.360   6.832   8.005  1.6409 -0.5564 -1.0587
  988MOL0     H36297   1.252   6.744   8.115 -0.8601 -0.0184 -0.4577
  988MOL0     H36298   1.342   6.864   8.313 -1.2396  0.3124 -0.0696
  988MOL0     H36299   1.454   6.960   8.212  0.6746 -1.5159 -1.1662
  988MOL0     H36300   1.230   7.034   8.092 -2.7294  2.8317  0.4670
  988MOL0     H36301   1.148   7.002   8.233 -1.5597  2.4485  0.4507
  988MOL0     H36302   1.130   6.972   8.446  0.0457 -0.8158  1.4150
  988MOL0     H36303   1.124   6.946   8.766  2.2602 -2.2331 -2.9459
  988MOL0     H36304   1.022   6.942   8.630 -0.2059  1.4147 -0.8361
  988MOL0     H36305   0.994   7.066   8.753 -0.0765 -1.1186  1.0560
  988MOL0     H36306   1.245   7.440   9.005 -0.6643 -0.3563  0.4915
  988MOL0     H36307   1.252   7.507   9.241 -0.5340  0.2446  0.7420
  988MOL0     H36308   1.182   7.284   9.485  0.5238 -0.3043 -0.7821
  988MOL0     H36309   1.328   7.193   9.538 -1.2246  0.3454  0.1008
  988MOL0     H36310   1.250   7.264   9.733 -0.4757 -1.7883 -2.5906
  988MOL0     H36311   1.367   7.401   9.702  1.4734 -2.3072 -1.5171
  988MOL0     H36312   1.079   7.425   9.633 -1.6012  0.3838  0.9870
  988MOL0     H36313   1.196   7.550   9.661  1.1342 -1.2026 -1.4290
  988MOL0     H36314   1.198   7.466   9.910  1.0250 -0.3662  0.0590
  988MOL0     H36315   1.052   7.375   9.866 -0.8258 -0.8070 -4.5095
  988MOL0     H36316   0.968   7.598   9.751 -3.2669 -0.6850  1.1330
  988MOL0     H36317   0.951   7.575   9.922  0.2753 -2.1755 -0.8919
  988MOL0     H36318   1.022   7.804   9.844 -0.1506  2.4042  2.8532
  988MOL0     H36319   1.187   7.737   9.810 -1.2982  0.2445 -2.7308
  988MOL0     H36320   1.196   7.647  10.049 -0.0229  0.9420  1.9612
  988MOL0     H36321   1.058   7.751  10.081 -1.5446 -2.3180 -2.0658
  988MOL0     H36322   1.289   7.876  10.137  0.2463 -0.9239  0.5680
  988MOL0     H36323   1.182   7.961  10.030  0.3568  0.1465 -1.8659
  988MOL0     H36324   1.442   7.133   9.347 -0.5612 -0.4197  0.8538
  988MOL0     H36325   1.428   7.065   9.103 -0.8690  0.0998  1.0702
  988MOL0     H36326   1.389   7.354   8.632  1.4818  0.1035 -4.0877
  988MOL0     H36327   1.396   7.303   8.407 -1.2352  0.5182 -0.5519
  988MOL0     H36328   2.109   6.308   8.354 -0.4430  1.4591  1.1568
  988MOL0     H36329   2.192   6.430   8.531 -4.5162 -0.1302  1.9615
  988MOL0     H36330   2.263   6.513   8.931  1.0644 -0.3528 -1.2043
  988MOL0     H36331   2.312   6.660   9.118  0.8243 -0.8892  1.9696
  988MOL0     H36332   2.636   6.617   9.411  1.3561  1.8888  0.3798
  988MOL0     H36333   2.688   6.704   9.265 -1.2285  2.2113 -0.3924
  988MOL0     H36334   2.685   6.822   9.473 -0.5192 -0.3452  0.4359
  988MOL0     H36335   2.513   6.817   9.473  0.2745  0.5916  0.6592
  988MOL0     H36336   2.669   6.917   9.208 -2.2079 -2.0246 -2.0280
  988MOL0     H36337   2.502   6.931   9.248 -0.4464 -0.0379  1.7852
  988MOL0     H36338   2.713   7.070   9.439  0.9639 -0.8237 -0.9935
  988MOL0     H36339   2.530   7.065   9.441 -0.6735  2.2999 -0.9006
  988MOL0     H36340   2.589   7.353   9.138 -3.3032  0.5781  1.2195
  988MOL0     H36341   2.670   6.465   9.219 -0.2703  1.1469 -0.1463
  988MOL0     H36342   2.714   6.309   8.904  2.3125 -0.8534  0.7289
  988MOL0     H36343   2.760   6.305   9.074 -0.1733 -0.7893  0.9140
  988MOL0     H36344   2.654   6.178   9.008  0.6187  0.1615  0.8481
  989MOL0     O36345   7.759   8.911   1.344  0.0947  0.3937 -0.2122
  989MOL0     C36346   7.753   9.034   1.332 -0.2804  0.0078  0.1713
  989MOL0     O36347   7.858   9.119   1.346 -0.2421  0.5026 -0.4150
  989MOL0     C36348   7.978   9.083   1.305 -0.6057 -0.1443 -0.1091
  989MOL0     C36349   8.015   8.980   1.215  0.2857 -0.1001 -0.4474
  989MOL0     C36350   8.140   8.970   1.163 -0.6922  0.3365  0.5011
  989MOL0     C36351   8.244   9.056   1.209  0.2285 -0.1662  1.0950
  989MOL0     O36352   8.375   9.050   1.180 -0.4528  0.0766 -0.0720
  989MOL0     C36353   8.432   8.929   1.148 -0.0942  0.5938 -0.4517
  989MOL0     C36354   8.582   8.937   1.187 -0.2921  0.4439  0.0827
  989MOL0     C36355   8.655   9.061   1.126 -0.0427  0.1526 -0.0617
  989MOL0     C36356   8.795   9.067   1.196  0.0299 -0.0481 -0.0842
  989MOL0     C36357   8.854   9.193   1.125  0.1207 -0.3155  0.0398
  989MOL0     C36358   8.996   9.235   1.174 -0.7795 -0.6253 -0.4825
  989MOL0     C36359   9.049   9.354   1.092  0.0002 -0.0902 -0.0717
  989MOL0     C36360   9.192   9.412   1.105 -0.1394  0.1315 -0.2762
  989MOL0     N36361   9.219   9.475   1.231 -0.3325  0.5062 -0.1755
  989MOL0     C36362   9.329   9.546   1.267 -0.0142  0.0325  0.9235
  989MOL0     C36363   9.310   9.588   1.394  0.7060 -0.1056 -0.6987
  989MOL0     C36364   9.393   9.678   1.485 -0.6435  0.1250 -0.3740
  989MOL0     C36365   9.491   9.610   1.574 -1.0324  0.3188  1.1967
  989MOL0     C36366   9.619   9.701   1.605  1.3375  0.9589  0.4184
  989MOL0     C36367   9.583   9.807   1.698  0.1875 -0.8151  0.2889
  989MOL0     O36368   9.685   9.816   1.798  1.0509  0.8425 -0.6148
  989MOL0     C36369   9.804   9.889   1.766  0.3945  0.5003 -0.1574
  989MOL0     C36370   9.902   9.896   1.866  0.5316  0.0864 -0.6085
  989MOL0     C36371  10.036   9.950   1.836  0.2258 -0.8917 -0.1513
  989MOL0     C36372  10.137   9.957   1.951  0.1170  1.6310  0.3029
  989MOL0     C36373  10.059  10.011   1.705  0.2347 -0.2911 -0.5659
  989MOL0     C36374  10.186  10.086   1.674 -0.0556  0.3464 -0.0324
  989MOL0     O36375  10.205  10.127   1.553  0.3485 -0.2782 -0.3105
  989MOL0     C36376  10.307  10.214   1.517 -0.6931  0.8421  0.2020
  989MOL0     C36377  10.439  10.180   1.519  0.2513 -0.2374 -0.9294
  989MOL0     C36378  10.535  10.268   1.474 -0.0426  0.9134  0.5770
  989MOL0     C36379  10.511  10.397   1.433  0.6850 -0.1849 -0.4467
  989MOL0     O36380  10.599  10.497   1.387 -0.1874 -0.3870 -0.1022
  989MOL0     C36381  10.721  10.452   1.333  0.3272 -0.7500 -0.2230
  989MOL0     C36382  10.819  10.482   1.452  0.5793  0.4239 -0.6198
  989MOL0     C36383  10.948  10.411   1.451  0.4607 -0.4002  0.5287
  989MOL0     C36384  11.049  10.474   1.355  0.1959 -0.0532  0.6686
  989MOL0     C36385  11.201  10.421   1.381  0.9245  0.1722 -0.6864
  989MOL0     C36386  11.293  10.513   1.306 -0.0249  0.1902 -0.6743
  989MOL0     C36387  11.439  10.507   1.371  0.0658 -0.9726  0.7676
  989MOL0     C36388  11.516  10.368   1.350  0.5036  1.0678 -1.0698
  989MOL0    Cl36389  11.677  10.377   1.433 -0.0411 -0.4802  0.4178
  989MOL0     C36390  10.375  10.434   1.424 -0.7960  0.3211  0.3035
  989MOL0     C36391  10.275  10.342   1.464  0.0263  0.0384 -0.1994
  989MOL0     O36392  10.262  10.101   1.768 -0.1307 -0.0679  0.4571
  989MOL0     C36393   9.957  10.004   1.611 -0.1771 -0.0177  0.2667
  989MOL0     C36394   9.837   9.943   1.647 -0.0989 -0.8245 -0.2672
  989MOL0     N36395   9.188   9.551   1.436 -0.5219  0.3635  0.5702
  989MOL0     N36396   9.133   9.477   1.341  0.1653  0.0646  0.1795
  989MOL0     C36397   8.211   9.161   1.293 -0.0164  0.1215  0.4432
  989MOL0     C36398   8.078   9.172   1.343 -0.4461  0.3475  0.2626
  989MOL0     C36399   7.622   9.102   1.338  0.9962  0.2211 -0.5439
  989MOL0     C36400   7.617   9.223   1.404 -0.0549  0.3099 -0.6016
  989MOL0     C36401   7.503   9.299   1.426 -0.5723 -0.5592 -0.8334
  989MOL0     C36402   7.378   9.243   1.387 -0.7909 -0.2606 -0.6007
  989MOL0     O36403   7.259   9.307   1.417  0.0166 -0.8643 -0.4419
  989MOL0     C36404   7.206   9.292   1.547 -0.4696  0.9923 -0.0901
  989MOL0     C36405   7.065   9.365   1.550 -0.0068  0.0014  0.0586
  989MOL0     C36406   6.988   9.341   1.686  1.0570 -0.5449  0.4584
  989MOL0     C36407   6.859   9.434   1.704  0.0817  0.6727  0.3615
  989MOL0     C36408   6.772   9.377   1.804  0.2383 -0.1247 -0.0507
  989MOL0     C36409   6.701   9.309   1.877  0.2812 -0.1226 -0.0430
  989MOL0     C36410   7.376   9.124   1.315 -0.0640  0.4882 -0.2363
  989MOL0     C36411   7.493   9.053   1.303 -0.1808  1.0929  0.8816
  989MOL0     C36412   7.485   8.925   1.214 -0.1030 -0.4970  0.1015
  989MOL0     H36413   7.938   8.915   1.175 -1.7978  0.9391  1.6028
  989MOL0     H36414   8.162   8.888   1.095 -1.8591  0.7501 -0.4220
  989MOL0     H36415   8.432   8.907   1.040  1.5616  0.0623 -0.3636
  989MOL0     H36416   8.374   8.846   1.189  2.1922 -1.2803 -0.7979
  989MOL0     H36417   8.596   8.952   1.294  3.0497  0.2184 -0.2072
  989MOL0     H36418   8.619   8.838   1.159 -3.8204 -1.0632  0.2389
  989MOL0     H36419   8.673   9.056   1.018 -0.3320  1.4959 -0.1903
  989MOL0     H36420   8.616   9.160   1.150 -0.4279  0.3010 -1.2261
  989MOL0     H36421   8.786   9.095   1.301  0.3465 -1.0865  0.2321
  989MOL0     H36422   8.857   8.979   1.176  2.2926  1.8935 -2.2760
  989MOL0     H36423   8.788   9.279   1.143 -2.7171 -1.9851 -1.6145
  989MOL0     H36424   8.863   9.174   1.018  1.6913 -3.0134  0.5774
  989MOL0     H36425   8.976   9.258   1.279  2.0847  1.1710 -0.2124
  989MOL0     H36426   9.065   9.150   1.178 -0.8535 -0.6837 -0.4409
  989MOL0     H36427   8.987   9.443   1.106  2.2373  1.3454  1.2644
  989MOL0     H36428   9.046   9.333   0.984 -1.9232  2.6516 -0.6544
  989MOL0     H36429   9.268   9.338   1.076  3.2220  3.6882 -1.4028
  989MOL0     H36430   9.204   9.499   1.039  1.1029 -2.0946 -3.2222
  989MOL0     H36431   9.420   9.546   1.209 -0.6982  2.4817 -0.2878
  989MOL0     H36432   9.329   9.738   1.550  5.0595  3.6771  2.7445
  989MOL0     H36433   9.441   9.759   1.431 -2.7690  1.0693 -0.9662
  989MOL0     H36434   9.455   9.576   1.671 -1.2697 -3.2299  0.0115
  989MOL0     H36435   9.520   9.519   1.520 -1.3750  1.6985 -1.4983
  989MOL0     H36436   9.696   9.646   1.658 -1.0734 -0.4760  2.6764
  989MOL0     H36437   9.666   9.749   1.519 -0.7144  0.4608 -1.0743
  989MOL0     H36438   9.573   9.903   1.647 -0.4282 -0.4229  1.1260
  989MOL0     H36439   9.489   9.785   1.749 -0.4683 -4.5959 -2.1493
  989MOL0     H36440   9.867   9.863   1.963 -1.2043  1.7565 -0.6012
  989MOL0     H36441  10.092   9.913   2.040  1.5031 -0.9345 -0.1835
  989MOL0     H36442  10.132  10.064   1.974 -2.4423  1.1271  2.6598
  989MOL0     H36443  10.229   9.899   1.936 -2.3499 -2.3421 -1.0035
  989MOL0     H36444  10.472  10.086   1.563  1.6708 -1.7100 -4.6768
  989MOL0     H36445  10.637  10.231   1.486 -0.2625 -0.7648 -2.0339
  989MOL0     H36446  10.724  10.352   1.290  0.2287  0.1936 -2.6208
  989MOL0     H36447  10.760  10.515   1.252  0.1538 -0.8464 -0.3811
  989MOL0     H36448  10.838  10.590   1.459 -1.8315  0.8289  0.8349
  989MOL0     H36449  10.763  10.474   1.546 -1.1383  1.3165 -1.5098
  989MOL0     H36450  10.940  10.304   1.431 -1.0098 -0.0088 -1.3666
  989MOL0     H36451  10.978  10.426   1.555 -0.9177  3.2365  0.5534
  989MOL0     H36452  11.049  10.583   1.362 -1.5041  0.0013  0.2994
  989MOL0     H36453  11.020  10.451   1.252  3.4622  1.0858 -0.6393
  989MOL0     H36454  11.230  10.423   1.486  1.2699  1.6625 -0.7830
  989MOL0     H36455  11.210  10.318   1.345  0.8490  0.4628 -1.5821
  989MOL0     H36456  11.273  10.619   1.328 -1.5138  0.0380 -1.1391
  989MOL0     H36457  11.286  10.510   1.197 -3.5105  2.9225 -0.7371
  989MOL0     H36458  11.437  10.536   1.476  2.8070  3.3355 -0.1319
  989MOL0     H36459  11.500  10.586   1.328  1.4488 -2.5721 -0.3229
  989MOL0     H36460  11.539  10.346   1.246  3.0177 -2.0705 -0.0471
  989MOL0     H36461  11.467  10.282   1.397 -1.2183  2.3206 -0.4814
  989MOL0     H36462  10.349  10.531   1.382 -2.1194  0.3154  1.0633
  989MOL0     H36463  10.169  10.360   1.449  0.2903  0.5176 -1.6471
  989MOL0     H36464   9.976  10.032   1.508 -4.1763  1.7533 -0.1638
  989MOL0     H36465   9.767   9.930   1.565 -2.8120  1.8725  1.3973
  989MOL0     H36466   8.292   9.234   1.296 -1.2608  1.5358  0.9964
  989MOL0     H36467   8.043   9.255   1.404 -0.8046 -0.8165  1.6899
  989MOL0     H36468   7.702   9.272   1.451 -0.7450 -0.5518  1.6465
  989MOL0     H36469   7.510   9.399   1.468  0.6400  0.1330 -2.5446
  989MOL0     H36470   7.189   9.186   1.568  0.4585  1.1850  1.8481
  989MOL0     H36471   7.270   9.330   1.626  0.4952  1.2884 -0.9880
  989MOL0     H36472   7.014   9.341   1.456  2.9166 -0.3219 -1.5651
  989MOL0     H36473   7.086   9.472   1.546 -0.1858  0.0406  0.1722
  989MOL0     H36474   6.957   9.236   1.696 -0.7497 -0.1353 -0.4249
  989MOL0     H36475   7.062   9.350   1.765 -0.7045  2.1155  1.9486
  989MOL0     H36476   6.810   9.429   1.606  0.4364 -3.8230  0.1745
  989MOL0     H36477   6.899   9.534   1.720  1.4506  0.2899 -0.4823
  989MOL0     H36478   6.643   9.247   1.942 -1.4713  1.3223 -0.1527
  989MOL0     H36479   7.278   9.080   1.299  0.5232 -0.6843 -0.7518
  989MOL0     H36480   7.549   8.940   1.127 -1.6323 -0.2762 -1.0253
  989MOL0     H36481   7.531   8.837   1.260  0.9579  1.4874  3.1843
  989MOL0     H36482   7.384   8.921   1.173  0.2533 -0.5239 -0.7906
  990MOL0     O36483   1.499  10.793   4.682  1.0714  0.2569  0.1074
  990MOL0     C36484   1.530  10.765   4.799 -1.0205 -0.2238 -0.0492
  990MOL0     O36485   1.600  10.841   4.877  0.5185  0.4653 -0.1463
  990MOL0     C36486   1.668  10.944   4.826  0.0060 -0.5880  0.2963
  990MOL0     C36487   1.605  11.063   4.784  0.4159 -0.2973  0.4383
  990MOL0     C36488   1.673  11.181   4.734  0.1580 -0.8955 -0.0246
  990MOL0     C36489   1.812  11.184   4.740 -0.2191  0.5425 -0.8360
  990MOL0     O36490   1.886  11.302   4.720 -0.0073 -0.3083  0.2115
  990MOL0     C36491   1.936  11.305   4.583 -0.8863  0.2545 -0.6139
  990MOL0     C36492   1.827  11.305   4.474 -0.2805  0.3477  0.2522
  990MOL0     C36493   1.888  11.352   4.340 -0.4241 -0.6809 -0.0003
  990MOL0     C36494   1.782  11.400   4.251  0.8751 -0.1334  0.4477
  990MOL0     C36495   1.840  11.490   4.138  1.1239  0.3341 -0.9531
  990MOL0     C36496   1.864  11.629   4.189  0.4462 -0.0838  0.0522
  990MOL0     C36497   1.915  11.731   4.082 -0.2771  0.7364  0.6108
  990MOL0     C36498   1.809  11.767   3.982  0.5050 -0.0486 -0.2300
  990MOL0     N36499   1.871  11.858   3.886  1.0174  0.0191 -0.4379
  990MOL0     C36500   1.951  11.830   3.779  0.5002  0.2360 -0.3333
  990MOL0     C36501   1.953  11.940   3.700 -0.1566  0.9176 -0.1391
  990MOL0     C36502   2.042  11.959   3.588 -0.1697 -0.1654  0.2643
  990MOL0     C36503   2.178  12.013   3.637 -0.3230  0.1104 -0.1101
  990MOL0     C36504   2.180  12.158   3.695  0.2580  0.1316  0.2211
  990MOL0     C36505   2.321  12.180   3.746  0.1320 -0.2139  0.7615
  990MOL0     O36506   2.359  12.314   3.704 -0.8125  0.2896 -0.3912
  990MOL0     C36507   2.472  12.365   3.760  0.1071 -0.1786  0.5166
  990MOL0     C36508   2.481  12.498   3.809  0.4262  1.5312 -0.2143
  990MOL0     C36509   2.589  12.549   3.878  0.3870 -0.6332  1.0136
  990MOL0     C36510   2.576  12.693   3.915  0.7412  0.5542  0.2416
  990MOL0     C36511   2.703  12.471   3.904  0.0353 -0.0430  0.3398
  990MOL0     C36512   2.822  12.528   3.967 -0.5400 -0.0094  0.1347
  990MOL0     O36513   2.885  12.642   3.919 -0.6025  0.7417 -0.1912
  990MOL0     C36514   2.952  12.734   4.004 -0.5588  0.0577 -0.4368
  990MOL0     C36515   3.009  12.850   3.945  0.3292  0.6346  0.3852
  990MOL0     C36516   3.075  12.948   4.017  0.4307  0.1946  0.5466
  990MOL0     C36517   3.097  12.938   4.152  0.4463 -0.2413 -0.7014
  990MOL0     O36518   3.160  13.048   4.206 -0.3932 -1.2353  0.7718
  990MOL0     C36519   3.173  13.044   4.350 -0.2899  0.3959 -0.5134
  990MOL0     C36520   3.238  13.179   4.403 -0.2949  0.2738  0.4887
  990MOL0     C36521   3.378  13.167   4.343  0.1270 -0.2113 -0.7011
  990MOL0     C36522   3.474  13.203   4.455  0.4110  1.2260 -0.0735
  990MOL0     C36523   3.610  13.257   4.408 -0.0992 -0.1301 -0.4817
  990MOL0     C36524   3.717  13.223   4.511 -1.0634 -0.1687 -0.1786
  990MOL0     C36525   3.856  13.249   4.449 -0.3329 -0.0368 -0.9553
  990MOL0     C36526   3.978  13.179   4.522 -0.6070 -0.0310 -0.4431
  990MOL0    Cl36527   4.124  13.201   4.436 -0.2111 -0.2831 -0.5788
  990MOL0     C36528   3.045  12.824   4.216  0.1981  0.3345 -0.8189
  990MOL0     C36529   2.977  12.717   4.143  0.4461  0.6222 -0.3291
  990MOL0     O36530   2.873  12.456   4.053  0.3724 -0.3984  0.0143
  990MOL0     C36531   2.694  12.340   3.851 -0.0309 -1.1873 -0.2232
  990MOL0     C36532   2.584  12.287   3.784 -0.3385 -1.2979 -0.5172
  990MOL0     N36533   1.869  12.038   3.758  0.3853  0.7162  0.4976
  990MOL0     N36534   1.816  11.982   3.864  0.4613  1.0649  0.0773
  990MOL0     C36535   1.874  11.064   4.789 -0.2722 -0.8864 -0.0761
  990MOL0     C36536   1.808  10.948   4.822  0.3410 -0.1268  1.1352
  990MOL0     C36537   1.484  10.626   4.841 -0.3547 -0.1487 -0.1574
  990MOL0     C36538   1.434  10.533   4.747  0.0184  0.7879 -0.3282
  990MOL0     C36539   1.380  10.410   4.777 -0.5324 -0.2097  0.1747
  990MOL0     C36540   1.368  10.373   4.909  0.7108  0.5300 -0.0350
  990MOL0     O36541   1.316  10.257   4.949  0.5225  0.5660 -0.1015
  990MOL0     C36542   1.184  10.223   4.898  0.1052  0.1490  0.2286
  990MOL0     C36543   1.168  10.080   4.906 -0.2128 -0.2944  1.0125
  990MOL0     C36544   1.025  10.034   4.861  0.5044  0.4727 -0.4058
  990MOL0     C36545   0.911  10.053   4.969 -0.1412 -1.2362  0.1236
  990MOL0     C36546   0.787   9.994   4.914  0.9763  0.1006 -0.7765
  990MOL0     C36547   0.678   9.968   4.869  0.7501  0.8458 -0.3395
  990MOL0     C36548   1.403  10.463   5.007 -0.4780  0.4697 -0.3434
  990MOL0     C36549   1.469  10.589   4.980 -0.4038  0.2404 -0.3943
  990MOL0     C36550   1.513  10.681   5.092  0.1471 -0.3720 -0.3903
  990MOL0     H36551   1.498  11.080   4.794  0.8670  2.9023  1.0020
  990MOL0     H36552   1.633  11.277   4.704  3.3354 -0.1416 -2.3762
  990MOL0     H36553   2.007  11.226   4.557 -1.7609  0.2902 -3.4175
  990MOL0     H36554   1.989  11.397   4.559 -0.1320 -0.0458 -0.1440
  990MOL0     H36555   1.776  11.209   4.469 -0.9798  0.7179  0.1027
  990MOL0     H36556   1.751  11.378   4.501 -0.0958  0.7380 -0.2468
  990MOL0     H36557   1.961  11.431   4.361  0.8380 -1.0410 -2.6410
  990MOL0     H36558   1.942  11.270   4.293 -0.9701  0.1385 -2.1654
  990MOL0     H36559   1.721  11.316   4.217  3.5715 -2.7526  1.5768
  990MOL0     H36560   1.720  11.473   4.304  2.7355  1.5208  0.4992
  990MOL0     H36561   1.763  11.499   4.061  1.0281 -0.0030 -0.9017
  990MOL0     H36562   1.939  11.451   4.113  0.6474  0.0256 -2.4169
  990MOL0     H36563   1.772  11.670   4.232 -0.1551 -0.2221 -1.0374
  990MOL0     H36564   1.941  11.619   4.266  1.3045 -1.1164 -0.8943
  990MOL0     H36565   2.000  11.688   4.029 -0.5087  0.9168  0.0850
  990MOL0     H36566   1.956  11.822   4.127  1.0906 -0.0193  0.9498
  990MOL0     H36567   1.778  11.673   3.936 -0.8805  0.5882 -0.6578
  990MOL0     H36568   1.726  11.814   4.036  1.2400  0.0102  0.8823
  990MOL0     H36569   2.009  11.742   3.754  1.3233  0.7967 -0.4320
  990MOL0     H36570   2.001  12.028   3.514  1.3275  0.4461 -0.0377
  990MOL0     H36571   2.056  11.856   3.552  1.2159 -0.3271  1.1660
  990MOL0     H36572   2.205  11.945   3.718 -4.8268 -1.3492  0.4501
  990MOL0     H36573   2.261  12.009   3.565 -0.0597  1.6079  0.0794
  990MOL0     H36574   2.150  12.235   3.624 -0.8526  1.0772  1.6442
  990MOL0     H36575   2.111  12.159   3.780 -1.9969  1.7489 -1.5039
  990MOL0     H36576   2.327  12.159   3.853 -1.4208  1.7773  1.3144
  990MOL0     H36577   2.391  12.112   3.697 -1.6705 -0.8727 -1.0428
  990MOL0     H36578   2.396  12.563   3.790  0.0145  0.9078 -0.5431
  990MOL0     H36579   2.614  12.729   4.011 -3.2186 -1.6175  2.9202
  990MOL0     H36580   2.471  12.723   3.928  0.2485 -0.9347  0.0026
  990MOL0     H36581   2.614  12.758   3.836  2.1887  1.8828  1.9505
  990MOL0     H36582   3.000  12.877   3.841 -2.2309 -0.4814  0.2553
  990MOL0     H36583   3.126  13.033   3.972  2.5125  0.6315  3.4373
  990MOL0     H36584   3.079  13.043   4.406  0.6738 -0.5114  1.1260
  990MOL0     H36585   3.228  12.956   4.385  1.1903 -0.1153 -3.7231
  990MOL0     H36586   3.196  13.270   4.360  0.9268  0.6585  0.0684
  990MOL0     H36587   3.241  13.176   4.512  1.9732 -3.4088  0.4858
  990MOL0     H36588   3.396  13.228   4.254  2.3813  0.4614  0.1589
  990MOL0     H36589   3.398  13.067   4.303 -2.4675 -1.5861  1.1111
  990MOL0     H36590   3.487  13.106   4.502 -0.7706 -0.0173 -2.1452
  990MOL0     H36591   3.435  13.275   4.527  0.7139  1.3034  0.0174
  990MOL0     H36592   3.630  13.210   4.312  3.1114  2.3579 -1.2303
  990MOL0     H36593   3.612  13.366   4.397  0.5780  0.6457  4.7538
  990MOL0     H36594   3.709  13.118   4.542  2.3685 -0.3300  0.6248
  990MOL0     H36595   3.695  13.278   4.603 -0.9250  0.0321 -0.2655
  990MOL0     H36596   3.857  13.358   4.456  0.4062 -0.0085 -1.3765
  990MOL0     H36597   3.859  13.225   4.342 -2.7659  0.8511 -1.2717
  990MOL0     H36598   3.948  13.074   4.518 -0.2818 -0.1595  0.2917
  990MOL0     H36599   3.987  13.211   4.627 -1.9980  2.9287 -1.1244
  990MOL0     H36600   3.046  12.816   4.324 -1.2493 -2.3182 -0.9113
  990MOL0     H36601   2.940  12.629   4.194 -1.2938  1.5477  0.0984
  990MOL0     H36602   2.770  12.273   3.890 -0.3336 -0.2214  2.2383
  990MOL0     H36603   2.593  12.184   3.750 -1.1999 -2.0645  1.4399
  990MOL0     H36604   1.983  11.061   4.788 -0.2094  0.2554  0.6884
  990MOL0     H36605   1.877  10.874   4.862 -0.3759 -0.7039  1.3276
  990MOL0     H36606   1.453  10.561   4.644 -0.9962  2.3761 -0.1107
  990MOL0     H36607   1.369  10.343   4.692 -0.5841  2.2599 -1.9112
  990MOL0     H36608   1.101  10.273   4.948  1.4573  0.2834  2.4832
  990MOL0     H36609   1.165  10.253   4.795  0.6300 -0.2466  0.0129
  990MOL0     H36610   1.200  10.037   5.001  3.4489 -0.1440 -0.0273
  990MOL0     H36611   1.237  10.040   4.832 -1.7844  1.3874 -1.5101
  990MOL0     H36612   0.993  10.078   4.766  0.9854 -1.2719 -1.4338
  990MOL0     H36613   1.031   9.926   4.840 -3.2894 -0.1024  0.6963
  990MOL0     H36614   0.882  10.158   4.975 -2.5033 -1.5860 -2.5591
  990MOL0     H36615   0.944  10.009   5.063  1.6324 -0.7419 -0.2306
  990MOL0     H36616   0.589   9.961   4.810  0.5775 -1.2906  0.0904
  990MOL0     H36617   1.371  10.445   5.109 -1.0503  0.1197 -0.5825
  990MOL0     H36618   1.483  10.640   5.189  2.4251  1.3763  1.1493
  990MOL0     H36619   1.621  10.697   5.096 -0.0566  1.0082  0.0831
  990MOL0     H36620   1.464  10.779   5.084  1.2405  0.2163 -0.1137
  991MOL0     O36621   8.647   7.002   1.674 -0.3261  0.0136 -0.1428
  991MOL0     C36622   8.673   7.054   1.784 -1.2689 -0.3349  0.4088
  991MOL0     O36623   8.581   7.123   1.857  0.0002 -0.4840  0.3336
  991MOL0     C36624   8.466   7.153   1.781  0.0085 -0.1227  0.5067
  991MOL0     C36625   8.469   7.243   1.679 -0.6513 -0.3307  0.4531
  991MOL0     C36626   8.351   7.267   1.613  0.4561  0.9079  0.4628
  991MOL0     C36627   8.226   7.215   1.661 -0.0930  1.1211 -0.3048
  991MOL0     O36628   8.106   7.255   1.601 -1.3074  0.0806  0.0092
  991MOL0     C36629   7.985   7.199   1.628 -0.1924 -0.5954 -0.1647
  991MOL0     C36630   7.863   7.275   1.565 -0.1041  0.4038  0.6587
  991MOL0     C36631   7.730   7.196   1.557 -0.1902  0.0467  0.5340
  991MOL0     C36632   7.662   7.179   1.692  0.3286  0.5127 -0.1527
  991MOL0     C36633   7.514   7.141   1.684  1.1608 -0.0625  1.3269
  991MOL0     C36634   7.510   7.023   1.574  0.3451  0.3830 -0.3949
  991MOL0     C36635   7.377   6.942   1.569  0.4069  0.4835 -0.3702
  991MOL0     C36636   7.401   6.801   1.563 -0.0326 -0.7328 -0.4952
  991MOL0     N36637   7.435   6.754   1.432 -0.5958  0.1287  0.2121
  991MOL0     C36638   7.345   6.710   1.330 -0.1145 -0.2195 -0.3790
  991MOL0     C36639   7.419   6.698   1.218  0.1984 -1.0139  0.3964
  991MOL0     C36640   7.357   6.666   1.090  0.4808  0.1907 -0.3448
  991MOL0     C36641   7.320   6.801   1.020  0.5759 -0.7436  0.1280
  991MOL0     C36642   7.245   6.780   0.884  0.0657  0.0711  0.3138
  991MOL0     C36643   7.319   6.691   0.779 -0.0872  0.5870  0.8071
  991MOL0     O36644   7.423   6.771   0.733 -0.4708  0.2861  0.0335
  991MOL0     C36645   7.513   6.723   0.644  0.1882  0.8441  0.8210
  991MOL0     C36646   7.606   6.805   0.588 -0.6192 -0.6583 -0.8919
  991MOL0     C36647   7.703   6.773   0.498  0.2387  0.1797  0.5415
  991MOL0     C36648   7.800   6.879   0.457 -0.5214  0.4130 -0.1777
  991MOL0     C36649   7.709   6.634   0.460  0.0491 -0.2090 -0.2077
  991MOL0     C36650   7.812   6.578   0.366 -0.0587 -0.8806 -0.5482
  991MOL0     O36651   7.778   6.450   0.312 -0.3048 -0.6488  0.1952
  991MOL0     C36652   7.874   6.392   0.243  0.2158  0.0719 -0.3540
  991MOL0     C36653   7.895   6.405   0.109  0.1218 -0.0514  0.5921
  991MOL0     C36654   7.992   6.324   0.041 -0.1515  0.0644  0.2167
  991MOL0     C36655   8.073   6.231   0.110  0.1248  0.1087  0.6501
  991MOL0     O36656   8.168   6.150   0.045  1.1987  0.5130 -0.1129
  991MOL0     C36657   8.222   6.026   0.096  0.6769  0.6273  0.5675
  991MOL0     C36658   8.312   5.965  -0.015  1.0540 -0.2410 -0.7101
  991MOL0     C36659   8.357   5.826   0.022 -0.5277  0.1686 -0.3773
  991MOL0     C36660   8.285   5.702  -0.026  0.0890  0.1926  0.1737
  991MOL0     C36661   8.356   5.586   0.043  0.6945  1.2613 -0.4238
  991MOL0     C36662   8.276   5.461   0.007  0.3992 -0.5043  0.0428
  991MOL0     C36663   8.333   5.333   0.085  0.1360 -0.3107  0.5477
  991MOL0     C36664   8.228   5.223   0.074 -0.2648  0.1533  0.6980
  991MOL0    Cl36665   8.226   5.146  -0.085 -0.0729  0.2180 -0.0894
  991MOL0     C36666   8.042   6.211   0.249 -0.1253  0.2995  0.3483
  991MOL0     C36667   7.939   6.284   0.303 -0.0328 -0.8164 -0.5274
  991MOL0     O36668   7.909   6.641   0.346 -0.5513  0.6077 -0.0210
  991MOL0     C36669   7.610   6.543   0.512 -0.2766 -0.0958 -0.8460
  991MOL0     C36670   7.517   6.589   0.604 -0.0421 -1.1507 -0.2692
  991MOL0     N36671   7.560   6.714   1.254  0.1515  0.0499 -0.6975
  991MOL0     N36672   7.568   6.754   1.380 -0.2136 -0.1987 -0.8751
  991MOL0     C36673   8.230   7.130   1.772  0.0055  0.0522 -0.2320
  991MOL0     C36674   8.353   7.101   1.834  0.0201  0.3164 -0.5756
  991MOL0     C36675   8.796   6.994   1.852  0.6444  0.5943  0.5106
  991MOL0     C36676   8.801   6.970   1.991 -0.2032 -0.4594 -0.0218
  991MOL0     C36677   8.916   6.926   2.064 -1.0040  0.5073  0.0168
  991MOL0     C36678   9.032   6.899   1.990  0.8894  0.1084 -0.3667
  991MOL0     O36679   9.144   6.861   2.047 -1.1537 -0.1950  0.9099
  991MOL0     C36680   9.174   6.925   2.176 -0.1114  1.1343  0.6348
  991MOL0     C36681   9.315   6.908   2.242  1.3237  1.2440  0.1555
  991MOL0     C36682   9.323   6.996   2.369  0.1748  0.5717 -0.9476
  991MOL0     C36683   9.467   7.047   2.395  0.1741  0.1941  0.2421
  991MOL0     C36684   9.571   6.952   2.439 -0.5684  0.8238 -0.3690
  991MOL0     C36685   9.654   6.873   2.479 -1.1619 -0.1489  0.1862
  991MOL0     C36686   9.028   6.921   1.852  0.0851  0.2242  0.4176
  991MOL0     C36687   8.919   6.980   1.786 -0.2465 -1.1470  0.5214
  991MOL0     C36688   8.950   7.026   1.642 -0.0630  0.1907 -0.4623
  991MOL0     H36689   8.555   7.298   1.642  0.1649 -0.0671  2.6279
  991MOL0     H36690   8.346   7.343   1.536 -3.1482 -0.5647 -0.9325
  991MOL0     H36691   7.965   7.203   1.736 -2.6581 -1.1195 -0.5525
  991MOL0     H36692   7.984   7.097   1.590 -0.3255 -0.3780 -0.7494
  991MOL0     H36693   7.851   7.372   1.615  1.8216  1.0749 -0.0949
  991MOL0     H36694   7.893   7.299   1.463  3.7801  0.7756  1.7258
  991MOL0     H36695   7.663   7.245   1.486 -0.9798 -1.5598  0.1272
  991MOL0     H36696   7.762   7.107   1.503  3.4444  3.3350 -3.4496
  991MOL0     H36697   7.722   7.107   1.748  0.0196  1.0471  0.8781
  991MOL0     H36698   7.674   7.273   1.747  2.1321  1.1567 -1.5272
  991MOL0     H36699   7.449   7.224   1.654 -0.5460 -1.3299  1.3654
  991MOL0     H36700   7.475   7.105   1.780 -2.1783  0.9726  0.4924
  991MOL0     H36701   7.522   7.075   1.478  3.5602  1.1527  0.3113
  991MOL0     H36702   7.597   6.957   1.585 -0.7446 -0.8438  1.1378
  991MOL0     H36703   7.332   6.959   1.471  3.1774 -0.4940 -1.9252
  991MOL0     H36704   7.296   6.958   1.642  0.0063  1.3254 -0.9877
  991MOL0     H36705   7.488   6.780   1.625 -0.1956 -1.2693 -0.4395
  991MOL0     H36706   7.320   6.742   1.608 -0.3043  1.8078  2.6851
  991MOL0     H36707   7.237   6.705   1.344 -0.0274 -0.7631  0.1106
  991MOL0     H36708   7.263   6.611   1.086  0.6891 -0.4292  1.8936
  991MOL0     H36709   7.430   6.606   1.036  0.5593 -0.9071  0.9397
  991MOL0     H36710   7.256   6.862   1.085  1.3692  0.2653 -0.0106
  991MOL0     H36711   7.403   6.871   1.007 -1.9895  2.5009 -0.4155
  991MOL0     H36712   7.138   6.761   0.898  0.2170 -0.6622  0.4746
  991MOL0     H36713   7.234   6.880   0.841  2.4288  0.1285 -0.2679
  991MOL0     H36714   7.356   6.595   0.817 -0.1026  0.0083 -0.6003
  991MOL0     H36715   7.250   6.668   0.698 -0.1867  3.2807  0.0590
  991MOL0     H36716   7.602   6.908   0.622  1.4198 -0.6473 -0.5542
  991MOL0     H36717   7.822   6.862   0.351 -0.9454 -4.4099  0.3135
  991MOL0     H36718   7.892   6.853   0.511 -0.7366  0.0678  0.0213
  991MOL0     H36719   7.767   6.982   0.474 -0.2044  0.2792  1.3734
  991MOL0     H36720   7.826   6.472   0.059  2.5397  1.0130 -1.5403
  991MOL0     H36721   7.995   6.339  -0.067  0.3342  3.2310  0.5674
  991MOL0     H36722   8.284   6.037   0.186  2.6355 -0.2495 -0.6165
  991MOL0     H36723   8.139   5.960   0.120  0.5829  1.4941  2.9174
  991MOL0     H36724   8.263   5.959  -0.112  1.2228  1.3317 -0.9253
  991MOL0     H36725   8.404   6.023  -0.024  1.6873 -1.0411  0.3764
  991MOL0     H36726   8.364   5.817   0.131  0.3646  0.3782 -0.4102
  991MOL0     H36727   8.458   5.819  -0.017 -0.5167 -0.0073 -0.3174
  991MOL0     H36728   8.280   5.697  -0.135 -0.4330 -1.0227  0.2294
  991MOL0     H36729   8.183   5.709   0.014  0.1308 -1.8578  0.7873
  991MOL0     H36730   8.460   5.576   0.012  0.2971 -2.3012 -0.9798
  991MOL0     H36731   8.368   5.585   0.152  3.9799  1.2534 -0.6829
  991MOL0     H36732   8.270   5.441  -0.100  1.8763  0.8686 -0.3437
  991MOL0     H36733   8.177   5.488   0.045  1.6590  2.9882  1.2039
  991MOL0     H36734   8.350   5.366   0.188  2.9935  0.2796 -0.0204
  991MOL0     H36735   8.421   5.294   0.033 -1.9560 -1.3132 -2.5055
  991MOL0     H36736   8.130   5.268   0.096  0.0822  1.0077  0.5552
  991MOL0     H36737   8.245   5.143   0.146 -1.0744  0.4496  1.2314
  991MOL0     H36738   8.091   6.135   0.310 -0.7216 -3.5374 -3.3956
  991MOL0     H36739   7.923   6.265   0.409 -0.3414  2.9646  0.2349
  991MOL0     H36740   7.607   6.438   0.482  0.1114  0.3799 -2.7196
  991MOL0     H36741   7.448   6.513   0.639  1.3449 -0.7234  3.9161
  991MOL0     H36742   8.138   7.078   1.798  0.5477 -1.5295 -1.3552
  991MOL0     H36743   8.357   7.031   1.917  1.2137 -1.5149 -2.0788
  991MOL0     H36744   8.709   6.972   2.049  0.6178 -0.7736  1.3266
  991MOL0     H36745   8.899   6.896   2.167  2.4469  1.0246  0.8759
  991MOL0     H36746   9.157   7.033   2.176 -1.0837  1.0027 -0.3516
  991MOL0     H36747   9.097   6.885   2.242 -1.0076 -2.6110 -2.3344
  991MOL0     H36748   9.398   6.929   2.175  0.2643  1.5887 -1.0872
  991MOL0     H36749   9.331   6.802   2.265 -0.0552  1.1493  0.7581
  991MOL0     H36750   9.249   7.074   2.355  0.1441  0.7432  0.1289
  991MOL0     H36751   9.303   6.938   2.460  2.3442 -2.0040 -1.9764
  991MOL0     H36752   9.464   7.125   2.471 -0.1327  2.0781 -1.5995
  991MOL0     H36753   9.500   7.087   2.299 -2.0566 -1.6132 -1.4018
  991MOL0     H36754   9.724   6.802   2.516 -2.7683 -0.1811  3.5044
  991MOL0     H36755   9.123   6.919   1.800  0.5946 -2.0343  1.3605
  991MOL0     H36756   8.885   7.102   1.599  0.9839 -0.7902 -4.1084
  991MOL0     H36757   9.048   7.075   1.640  0.1124 -0.1361 -0.1117
  991MOL0     H36758   8.949   6.938   1.578 -1.7658  1.7617 -2.7439
  992MOL0     O36759   9.748   3.158  11.042 -0.7663  0.1778  0.0928
  992MOL0     C36760   9.855   3.116  10.995 -1.0451 -0.2509 -0.1740
  992MOL0     O36761   9.971   3.120  11.058  0.5828 -0.0018  0.1052
  992MOL0     C36762   9.977   3.115  11.194  0.0726  0.1510  0.6967
  992MOL0     C36763  10.098   3.155  11.247  0.8967 -0.9606 -0.5759
  992MOL0     C36764  10.120   3.138  11.388 -0.4998  0.0288  0.6489
  992MOL0     C36765  10.020   3.086  11.472 -0.6439 -0.0519 -0.5740
  992MOL0     O36766  10.046   3.093  11.609  0.9318 -0.4122  0.6494
  992MOL0     C36767   9.979   3.003  11.695 -1.1746  0.6035 -0.5105
  992MOL0     C36768   9.852   3.055  11.758 -0.2595 -0.3387 -0.7366
  992MOL0     C36769   9.788   2.947  11.846  0.1074  0.1399 -0.5913
  992MOL0     C36770   9.638   2.970  11.868 -0.6174 -0.0360  0.3120
  992MOL0     C36771   9.603   3.086  11.956  1.0211  0.0897 -0.1438
  992MOL0     C36772   9.636   3.055  12.099 -0.4384  0.1975 -0.6340
  992MOL0     C36773   9.623   3.185  12.189  0.4301  0.5394 -0.0410
  992MOL0     C36774   9.758   3.241  12.216 -1.5570 -0.4079  0.0236
  992MOL0     N36775   9.735   3.353  12.307 -0.3414  0.6325 -0.7110
  992MOL0     C36776   9.705   3.489  12.269  0.1128 -0.0302  0.3355
  992MOL0     C36777   9.679   3.545  12.390 -0.0948 -0.2898  0.0881
  992MOL0     C36778   9.652   3.688  12.392 -0.0431 -0.5197  0.6988
  992MOL0     C36779   9.766   3.775  12.329  0.1881  0.1875  0.5315
  992MOL0     C36780   9.905   3.732  12.387  0.5109  0.2042  0.4542
  992MOL0     C36781   9.933   3.769  12.530  0.5599  0.5635  0.1113
  992MOL0     O36782   9.924   3.912  12.553 -0.4325  0.4379  0.8028
  992MOL0     C36783  10.004   3.971  12.648 -0.4826 -0.7134  0.5257
  992MOL0     C36784  10.000   4.108  12.651 -0.9573 -1.0349 -0.0346
  992MOL0     C36785  10.075   4.175  12.757 -0.1009  0.5178  0.5782
  992MOL0     C36786  10.051   4.320  12.772  0.5129 -0.7517  0.1788
  992MOL0     C36787  10.169   4.101  12.840 -0.1606  0.2887 -0.1059
  992MOL0     C36788  10.267   4.160  12.943 -0.0890  0.1204 -0.2412
  992MOL0     O36789  10.329   4.075  13.034  0.1021  0.4907 -0.0634
  992MOL0     C36790  10.419   4.134  13.126  0.0810 -0.4417 -0.9488
  992MOL0     C36791  10.525   4.211  13.071  0.8473  0.5162  0.1071
  992MOL0     C36792  10.608   4.282  13.162 -0.9377  0.1853 -0.2219
  992MOL0     C36793  10.594   4.272  13.299  1.3926 -0.2204  0.2456
  992MOL0     O36794  10.667   4.340  13.393 -0.4936  0.1811 -0.2433
  992MOL0     C36795  10.790   4.411  13.375  1.1273  0.3289  0.3588
  992MOL0     C36796  10.844   4.437  13.516 -0.3895 -0.2270  0.0040
  992MOL0     C36797  10.776   4.536  13.609  0.9152 -0.0705  0.3746
  992MOL0     C36798  10.753   4.668  13.539 -0.7195  0.0635 -1.2999
  992MOL0     C36799  10.715   4.778  13.641  0.1150  0.3099 -0.7922
  992MOL0     C36800  10.835   4.818  13.738  0.0691  0.2604 -0.2945
  992MOL0     C36801  10.832   4.968  13.789  0.8684 -0.0219  0.3425
  992MOL0     C36802  10.950   5.052  13.723  0.4446 -0.4397 -0.4731
  992MOL0    Cl36803  10.944   5.063  13.546  0.0221  0.2251  0.0937
  992MOL0     C36804  10.487   4.194  13.347 -0.4146 -0.4451 -0.7563
  992MOL0     C36805  10.404   4.131  13.266  0.2310  0.4435  0.5127
  992MOL0     O36806  10.285   4.284  12.934 -0.5054  0.1012  0.3984
  992MOL0     C36807  10.184   3.969  12.810 -0.3732 -0.1070 -0.2011
  992MOL0     C36808  10.090   3.902  12.729  0.2373 -0.4737  0.5005
  992MOL0     N36809   9.686   3.445  12.490  0.4341  0.0147  0.1166
  992MOL0     N36810   9.726   3.331  12.443 -0.1639 -0.1670 -0.4333
  992MOL0     C36811   9.897   3.048  11.411 -0.2046 -0.5663 -0.4543
  992MOL0     C36812   9.883   3.057  11.275  0.1901 -0.2741  0.0254
  992MOL0     C36813   9.859   3.068  10.851 -1.1940 -0.4417  0.7885
  992MOL0     C36814   9.737   3.061  10.778 -0.4496 -0.3573 -0.2403
  992MOL0     C36815   9.734   3.017  10.645  0.2663 -0.1240  0.2326
  992MOL0     C36816   9.854   2.987  10.579  1.1049 -0.2625  1.4140
  992MOL0     O36817   9.857   2.952  10.446 -0.3330 -0.2357  0.1241
  992MOL0     C36818   9.730   2.939  10.387  0.2403 -0.2120  0.3992
  992MOL0     C36819   9.757   2.907  10.233  0.5335 -0.7224 -0.1181
  992MOL0     C36820   9.807   3.032  10.156 -0.0905  0.1965 -0.4250
  992MOL0     C36821   9.704   3.127  10.092  0.3867 -0.0577 -0.3019
  992MOL0     C36822   9.629   3.217  10.185  1.0959  0.1152 -0.3650
  992MOL0     C36823   9.566   3.281  10.274 -0.7542  0.0068 -0.4717
  992MOL0     C36824   9.971   3.000  10.651  0.4622  0.3177  0.7102
  992MOL0     C36825   9.978   3.039  10.779  0.1383  0.4730 -0.3708
  992MOL0     C36826  10.115   3.041  10.838 -0.1438 -0.4481  0.3306
  992MOL0     H36827  10.173   3.198  11.181 -0.9296  1.2792 -1.3321
  992MOL0     H36828  10.211   3.182  11.427  0.0366 -0.0565 -0.4658
  992MOL0     H36829  10.055   2.980  11.771  1.1539  3.6221 -1.7473
  992MOL0     H36830   9.972   2.909  11.639 -0.4675 -0.9247  1.7959
  992MOL0     H36831   9.866   3.143  11.821 -0.8778 -1.8554  1.7000
  992MOL0     H36832   9.773   3.094  11.694 -0.3146 -1.0305 -1.0954
  992MOL0     H36833   9.815   2.857  11.790 -0.3130 -0.6210  0.3969
  992MOL0     H36834   9.841   2.955  11.941 -1.8237  2.0617  0.4019
  992MOL0     H36835   9.589   2.965  11.770 -2.4404  0.6098  1.1599
  992MOL0     H36836   9.601   2.880  11.918 -1.9802  1.5348  2.2855
  992MOL0     H36837   9.494   3.098  11.962  0.9720 -0.7641  0.9071
  992MOL0     H36838   9.660   3.165  11.907  1.5412 -0.5272 -0.5443
  992MOL0     H36839   9.569   2.974  12.127 -1.7519  1.2922 -0.5409
  992MOL0     H36840   9.736   3.010  12.103 -0.3027  0.4483 -1.0743
  992MOL0     H36841   9.579   3.156  12.285  2.0835 -3.0612 -0.1840
  992MOL0     H36842   9.568   3.261  12.132 -0.8657  1.5849  2.4536
  992MOL0     H36843   9.831   3.171  12.258 -1.4441  0.6453  1.6535
  992MOL0     H36844   9.803   3.278  12.124  0.0505 -0.5658  0.7171
  992MOL0     H36845   9.713   3.528  12.169 -0.1627 -2.4744 -0.7175
  992MOL0     H36846   9.631   3.716  12.496 -1.5494 -0.3344  0.3673
  992MOL0     H36847   9.561   3.699  12.333  0.7217 -3.4701 -1.2491
  992MOL0     H36848   9.770   3.759  12.221 -0.9093 -0.7402  0.6071
  992MOL0     H36849   9.749   3.881  12.348 -2.2193 -0.5048  2.8953
  992MOL0     H36850   9.920   3.623  12.383  0.8361  0.1574  2.2272
  992MOL0     H36851   9.982   3.780  12.327 -0.6177 -1.2427 -2.3771
  992MOL0     H36852   9.863   3.724  12.601  2.3540  1.4710  2.6019
  992MOL0     H36853  10.037   3.738  12.548  1.2165  1.4649 -1.8383
  992MOL0     H36854   9.925   4.167  12.599  1.2799  2.6364  0.6131
  992MOL0     H36855   9.981   4.351  12.694 -0.3761 -3.7560 -0.3342
  992MOL0     H36856  10.140   4.384  12.762 -0.0761  0.0321 -0.1662
  992MOL0     H36857  10.013   4.340  12.873 -2.3797  0.7623 -1.0878
  992MOL0     H36858  10.534   4.206  12.963 -4.3921 -0.7404 -0.5487
  992MOL0     H36859  10.700   4.331  13.131  0.7085 -1.6429  1.4622
  992MOL0     H36860  10.867   4.368  13.310  3.0669  0.9150  2.1740
  992MOL0     H36861  10.767   4.512  13.337 -1.3450  0.9122  3.1177
  992MOL0     H36862  10.831   4.342  13.569 -2.3439  0.5056  0.9336
  992MOL0     H36863  10.948   4.471  13.507 -0.5521  0.4239  0.4875
  992MOL0     H36864  10.822   4.540  13.708 -0.3898 -1.7294  1.1030
  992MOL0     H36865  10.678   4.494  13.634  0.5223  2.0362  2.7631
  992MOL0     H36866  10.670   4.672  13.467  0.3592 -0.2413 -2.5941
  992MOL0     H36867  10.843   4.700  13.486 -0.0067 -3.0069 -2.1235
  992MOL0     H36868  10.700   4.865  13.576 -0.3299  0.7893 -0.0621
  992MOL0     H36869  10.624   4.753  13.696 -0.8682  0.1832 -2.3954
  992MOL0     H36870  10.931   4.795  13.691  0.2688 -2.8606  1.4062
  992MOL0     H36871  10.834   4.759  13.831 -5.3416 -0.0265 -0.2580
  992MOL0     H36872  10.842   4.970  13.898 -0.1082  1.8369  0.4406
  992MOL0     H36873  10.743   5.020  13.754  0.1075 -1.1868  0.5244
  992MOL0     H36874  11.044   5.004  13.753  0.4200 -0.7543 -0.8894
  992MOL0     H36875  10.944   5.153  13.765 -0.1280 -2.1635  4.3107
  992MOL0     H36876  10.471   4.188  13.454 -3.1419  1.7383 -0.9546
  992MOL0     H36877  10.328   4.065  13.306  1.5625 -1.1831  0.4691
  992MOL0     H36878  10.257   3.906  12.860 -0.4948 -2.6692 -2.9638
  992MOL0     H36879  10.079   3.797  12.752 -2.1762 -0.7002 -1.3470
  992MOL0     H36880   9.810   3.010  11.463 -2.3527  1.6151 -2.2355
  992MOL0     H36881   9.803   3.010  11.220 -0.2819 -0.1912  0.6317
  992MOL0     H36882   9.639   3.078  10.822 -0.3060 -0.9028  0.3012
  992MOL0     H36883   9.635   3.013  10.601 -0.1129 -4.2017  1.0501
  992MOL0     H36884   9.669   2.860  10.432  2.2489 -2.4828 -0.5911
  992MOL0     H36885   9.679   3.035  10.382  0.2417 -0.2671 -1.4491
  992MOL0     H36886   9.660   2.868  10.201 -0.1270 -1.0500  2.0985
  992MOL0     H36887   9.825   2.823  10.220 -0.8633 -1.5068 -3.2394
  992MOL0     H36888   9.877   3.090  10.217  1.3716 -0.7664 -1.1247
  992MOL0     H36889   9.880   3.001  10.081  0.3003  0.4974 -0.1727
  992MOL0     H36890   9.626   3.066  10.045 -1.3983  2.6901 -1.0913
  992MOL0     H36891   9.759   3.189  10.021  3.8274  1.2606  3.1492
  992MOL0     H36892   9.526   3.350  10.345  3.7834  3.0404 -0.4502
  992MOL0     H36893  10.067   2.966  10.613 -0.4518 -3.8544  1.6654
  992MOL0     H36894  10.154   3.128  10.893  1.4419 -1.5622  1.0534
  992MOL0     H36895  10.106   2.968  10.919 -4.5795 -0.0101  0.4712
  992MOL0     H36896  10.189   3.008  10.765 -1.0025 -3.5042  0.7211
  993MOL0     O36897   8.850   3.690   1.680 -0.9491  0.6416 -0.4092
  993MOL0     C36898   8.940   3.773   1.672 -0.5192 -0.2894  0.0658
  993MOL0     O36899   8.993   3.819   1.550  0.3704 -0.2514  0.1560
  993MOL0     C36900   8.961   3.747   1.431  0.2234  0.2820 -0.2765
  993MOL0     C36901   8.947   3.607   1.420 -0.3751  0.3009 -0.3806
  993MOL0     C36902   8.925   3.554   1.291 -0.2644  0.0850 -0.5564
  993MOL0     C36903   8.885   3.632   1.186 -0.1255 -0.0650 -0.3824
  993MOL0     O36904   8.846   3.580   1.065 -0.1257  0.1895 -0.0729
  993MOL0     C36905   8.832   3.438   1.063  0.8951  0.3333  0.3731
  993MOL0     C36906   8.796   3.410   0.918  0.3493  0.9716 -0.6630
  993MOL0     C36907   8.909   3.443   0.820 -0.4296 -0.7755  0.8731
  993MOL0     C36908   8.903   3.382   0.674 -0.0021 -0.5694  0.1272
  993MOL0     C36909   9.045   3.344   0.621  0.8922  0.1659 -0.0715
  993MOL0     C36910   9.117   3.476   0.593  1.2946 -0.4456  0.4305
  993MOL0     C36911   9.272   3.471   0.572  0.6748 -0.0234 -0.1301
  993MOL0     C36912   9.336   3.606   0.533  0.0901 -0.8670 -0.8512
  993MOL0     N36913   9.475   3.589   0.497 -0.1989 -0.4791  0.8240
  993MOL0     C36914   9.545   3.488   0.432  0.2972  0.6399  0.0702
  993MOL0     C36915   9.672   3.528   0.418  0.3449  0.7031 -0.3666
  993MOL0     C36916   9.776   3.443   0.351  0.1978  0.4060  0.1475
  993MOL0     C36917   9.805   3.494   0.214  0.4864  0.1551  0.0395
  993MOL0     C36918   9.914   3.407   0.135  0.2738  0.1080 -0.3821
  993MOL0     C36919   9.942   3.469  -0.002 -0.0922  0.2709 -0.8631
  993MOL0     O36920  10.043   3.581   0.020  0.2084 -0.4260  0.3734
  993MOL0     C36921  10.183   3.556   0.014  0.0939 -0.5068  0.2161
  993MOL0     C36922  10.240   3.469  -0.073  0.5679  0.5328  0.3423
  993MOL0     C36923  10.379   3.438  -0.073  0.2398 -0.1846 -0.6092
  993MOL0     C36924  10.433   3.346  -0.180  0.0720  0.3521 -0.7233
  993MOL0     C36925  10.454   3.484   0.041  0.2400  0.4949 -0.7903
  993MOL0     C36926  10.594   3.441   0.074  0.3685  0.1359 -0.4383
  993MOL0     O36927  10.647   3.322   0.026  0.3951 -0.4307  0.0754
  993MOL0     C36928  10.780   3.317  -0.006  0.3530  0.2430  0.2679
  993MOL0     C36929  10.871   3.265   0.089  0.4021 -0.1765 -0.1153
  993MOL0     C36930  11.005   3.235   0.061  0.9115 -0.1629  0.0611
  993MOL0     C36931  11.052   3.249  -0.064 -0.1158 -1.0132  1.0826
  993MOL0     O36932  11.182   3.213  -0.105 -0.2884  0.5239  0.9328
  993MOL0     C36933  11.262   3.139  -0.013 -0.2288 -0.4349  0.4148
  993MOL0     C36934  11.395   3.108  -0.087  0.1260 -0.8815 -0.7921
  993MOL0     C36935  11.466   3.221  -0.148  0.4316  0.1148  0.1328
  993MOL0     C36936  11.541   3.175  -0.277 -0.4941 -0.7873  0.2876
  993MOL0     C36937  11.641   3.271  -0.332 -0.4971 -0.4836  0.4256
  993MOL0     C36938  11.579   3.396  -0.390  0.6586  0.6338  0.8064
  993MOL0     C36939  11.690   3.495  -0.440  0.5500  0.0549  0.6585
  993MOL0     C36940  11.635   3.625  -0.500 -0.2392  0.4508 -0.0271
  993MOL0    Cl36941  11.782   3.732  -0.525 -0.3179 -0.0759  0.4532
  993MOL0     C36942  10.963   3.296  -0.167  0.4706  0.2914  0.3941
  993MOL0     C36943  10.828   3.336  -0.142 -0.1729  0.7120 -0.2117
  993MOL0     O36944  10.664   3.525   0.132 -0.0543  0.4758  0.5078
  993MOL0     C36945  10.393   3.573   0.125 -0.9019 -0.2070  0.1529
  993MOL0     C36946  10.264   3.614   0.113 -0.1880  0.2347  0.5139
  993MOL0     N36947   9.682   3.643   0.484  0.1395 -0.0072 -0.7778
  993MOL0     N36948   9.570   3.687   0.527 -0.0114  0.6701  0.0586
  993MOL0     C36949   8.883   3.773   1.203  0.6990  0.0209 -0.2294
  993MOL0     C36950   8.927   3.828   1.324  0.2178  0.5195  0.2603
  993MOL0     C36951   8.996   3.824   1.797  0.1355 -1.7227 -0.1966
  993MOL0     C36952   9.128   3.859   1.790 -0.0849  0.1001  0.0887
  993MOL0     C36953   9.199   3.921   1.895  0.0670 -0.0094 -0.9004
  993MOL0     C36954   9.133   3.948   2.014  0.7371  0.0944 -0.7326
  993MOL0     O36955   9.194   3.995   2.130 -0.2817 -0.7654  0.4788
  993MOL0     C36956   9.334   4.042   2.122 -0.0187 -0.1496 -0.1423
  993MOL0     C36957   9.386   4.078   2.265 -0.3140 -0.1121 -0.1477
  993MOL0     C36958   9.409   3.946   2.336  0.4266  0.0415 -0.2039
  993MOL0     C36959   9.520   3.970   2.441 -0.0129  0.4041  0.6107
  993MOL0     C36960   9.501   4.086   2.535  0.1952  0.5827  0.2989
  993MOL0     C36961   9.493   4.189   2.602 -0.5545 -0.0779 -0.3647
  993MOL0     C36962   9.006   3.907   2.025  0.5950  0.3581  0.9446
  993MOL0     C36963   8.927   3.851   1.914 -0.0917 -0.0755  0.3758
  993MOL0     C36964   8.779   3.835   1.924  0.6916  0.0860  0.2638
  993MOL0     H36965   8.964   3.547   1.509  0.1803  3.3297  1.7295
  993MOL0     H36966   8.919   3.446   1.293 -2.9487  0.0019 -3.9245
  993MOL0     H36967   8.748   3.411   1.128  1.9749 -2.3780  0.7522
  993MOL0     H36968   8.919   3.377   1.089  0.4923 -2.1065 -3.3106
  993MOL0     H36969   8.772   3.304   0.924 -2.6395  1.6302  1.3650
  993MOL0     H36970   8.704   3.457   0.883 -0.0047 -0.1557 -1.3028
  993MOL0     H36971   8.929   3.551   0.814 -2.0436 -0.4985 -3.8018
  993MOL0     H36972   9.001   3.398   0.857 -1.0123 -0.5300  2.7276
  993MOL0     H36973   8.837   3.295   0.674  0.0552 -0.6712  2.2805
  993MOL0     H36974   8.861   3.455   0.604  1.3482 -0.7852 -0.9480
  993MOL0     H36975   9.044   3.276   0.536 -0.8530 -0.4584  0.3944
  993MOL0     H36976   9.113   3.296   0.691  3.5346  2.2368 -1.0395
  993MOL0     H36977   9.070   3.521   0.506  1.1928 -0.8735  0.2580
  993MOL0     H36978   9.109   3.542   0.680 -0.5797  0.5338 -0.4430
  993MOL0     H36979   9.294   3.399   0.492  0.4548  0.2671 -0.4574
  993MOL0     H36980   9.315   3.446   0.669  0.0672  0.4093  0.2548
  993MOL0     H36981   9.301   3.646   0.437  1.3549  0.4977 -0.7790
  993MOL0     H36982   9.333   3.679   0.614 -0.5221 -1.5510 -0.2420
  993MOL0     H36983   9.505   3.392   0.403  1.4848  0.5287 -1.3284
  993MOL0     H36984   9.745   3.338   0.348  1.5617 -0.1342  2.8068
  993MOL0     H36985   9.869   3.450   0.408 -0.5059 -2.6910  1.9107
  993MOL0     H36986   9.712   3.498   0.155  1.4878  3.6879 -1.5811
  993MOL0     H36987   9.850   3.593   0.217  1.0663 -0.1334  1.3618
  993MOL0     H36988  10.003   3.378   0.190  0.6480 -2.7375 -2.2261
  993MOL0     H36989   9.867   3.309   0.119 -2.1563  1.3790 -1.7471
  993MOL0     H36990   9.968   3.389  -0.071  0.5618 -0.9449  0.7112
  993MOL0     H36991   9.846   3.509  -0.035 -2.6457 -1.9752  3.0005
  993MOL0     H36992  10.174   3.441  -0.154 -0.4585  0.0463  1.3236
  993MOL0     H36993  10.358   3.319  -0.255  0.3570 -1.4210 -0.4153
  993MOL0     H36994  10.474   3.255  -0.134  0.6229  0.7568 -0.4003
  993MOL0     H36995  10.519   3.395  -0.227  2.6997  0.6418  3.7869
  993MOL0     H36996  10.836   3.260   0.191  0.5143  1.5870  0.0519
  993MOL0     H36997  11.060   3.192   0.144  1.2051  2.3416  1.2595
  993MOL0     H36998  11.284   3.193   0.080  3.2214  2.3254 -1.7553
  993MOL0     H36999  11.205   3.048   0.006 -0.7242  0.2837  2.7182
  993MOL0     H37000  11.461   3.067  -0.009 -0.9096  0.4255  0.8438
  993MOL0     H37001  11.381   3.031  -0.162  1.5136 -1.9283 -0.0288
  993MOL0     H37002  11.532   3.266  -0.073 -3.6058  1.1218  3.4298
  993MOL0     H37003  11.396   3.303  -0.168  0.1070  0.3792  2.1845
  993MOL0     H37004  11.462   3.171  -0.353 -0.4808  3.3527 -0.1783
  993MOL0     H37005  11.576   3.072  -0.264  1.2805 -0.7888 -3.1884
  993MOL0     H37006  11.714   3.303  -0.257 -0.4283 -0.8036  0.5011
  993MOL0     H37007  11.704   3.222  -0.407 -1.3765 -1.1834  0.1208
  993MOL0     H37008  11.510   3.439  -0.317  0.6507  2.0341 -0.0016
  993MOL0     H37009  11.518   3.365  -0.475  1.0357 -0.2565  0.8462
  993MOL0     H37010  11.756   3.441  -0.509  1.0742  1.2847  0.1660
  993MOL0     H37011  11.756   3.526  -0.360 -0.0373  0.1731  1.1030
  993MOL0     H37012  11.556   3.680  -0.448 -1.7676 -0.3506 -1.4029
  993MOL0     H37013  11.593   3.597  -0.597 -0.5579 -1.2440  0.5590
  993MOL0     H37014  11.008   3.311  -0.264 -1.6354  3.2154 -0.2313
  993MOL0     H37015  10.765   3.386  -0.215  1.1939 -1.3289 -3.0171
  993MOL0     H37016  10.450   3.625   0.202  1.7335 -1.7452 -0.6403
  993MOL0     H37017  10.220   3.680   0.188 -1.4820 -1.1636  1.0332
  993MOL0     H37018   8.852   3.833   1.117 -2.2170 -1.9421 -0.6820
  993MOL0     H37019   8.922   3.936   1.334 -1.5036  0.5310 -0.4774
  993MOL0     H37020   9.179   3.823   1.701 -0.3587 -0.1396  0.0269
  993MOL0     H37021   9.306   3.929   1.886  0.5307 -0.5373  2.7160
  993MOL0     H37022   9.402   3.969   2.078  1.7956  2.4201 -1.8435
  993MOL0     H37023   9.340   4.118   2.044 -2.4579 -0.5006 -0.7538
  993MOL0     H37024   9.319   4.146   2.318 -0.0305 -0.1223  0.2238
  993MOL0     H37025   9.480   4.133   2.258 -0.3592  0.5732  2.9918
  993MOL0     H37026   9.322   3.918   2.395  1.1630  1.3126  1.5948
  993MOL0     H37027   9.435   3.862   2.271  0.0683  0.1600 -0.5066
  993MOL0     H37028   9.618   3.983   2.394  0.2948 -1.5949  0.6307
  993MOL0     H37029   9.521   3.880   2.503  0.7789  0.4372  0.6634
  993MOL0     H37030   9.488   4.269   2.673 -0.7197 -3.1329  3.4075
  993MOL0     H37031   8.950   3.902   2.117 -0.1603  0.8675  0.5210
  993MOL0     H37032   8.745   3.731   1.925 -0.1160  0.3265  1.7864
  993MOL0     H37033   8.742   3.898   2.006  3.2384  1.5455  0.3861
  993MOL0     H37034   8.736   3.862   1.827  0.2224 -3.2539 -0.5621
  994MOL0     O37035  10.316   8.933   6.694 -0.1711  0.0819  0.3120
  994MOL0     C37036  10.435   8.908   6.720  0.2807  0.7315 -0.4540
  994MOL0     O37037  10.532   8.998   6.752 -0.0929 -0.3887  0.0709
  994MOL0     C37038  10.500   9.122   6.756  0.8652 -0.0738 -0.1346
  994MOL0     C37039  10.547   9.207   6.646 -0.6043 -0.0544 -0.1865
  994MOL0     C37040  10.522   9.340   6.647 -0.9057  0.9385  0.4362
  994MOL0     C37041  10.428   9.394   6.737  0.3215  0.4273  0.2236
  994MOL0     O37042  10.379   9.519   6.729 -0.4661 -0.1415  0.3252
  994MOL0     C37043  10.368   9.579   6.598  0.1990 -0.5346 -0.1200
  994MOL0     C37044  10.471   9.690   6.574  0.7011 -0.3997  0.3439
  994MOL0     C37045  10.437   9.820   6.645  0.1567  0.3720  0.0822
  994MOL0     C37046  10.530   9.936   6.610 -0.3997 -0.7728 -0.0727
  994MOL0     C37047  10.481  10.059   6.695  0.5567 -0.4047  0.4692
  994MOL0     C37048  10.578  10.174   6.696 -0.0321  0.0660  1.0975
  994MOL0     C37049  10.690  10.157   6.800  0.1026 -0.9166  0.7927
  994MOL0     C37050  10.802  10.265   6.788  0.1849  0.6374  0.2718
  994MOL0     N37051  10.915  10.257   6.886 -0.3565 -0.3836  0.6771
  994MOL0     C37052  10.901  10.218   7.015 -0.7132  0.0492 -0.6979
  994MOL0     C37053  11.028  10.243   7.067  0.4838  1.1217  0.9123
  994MOL0     C37054  11.056  10.225   7.215 -0.4892  0.9995  0.6541
  994MOL0     C37055  11.199  10.264   7.246 -0.5345 -0.0355 -0.2816
  994MOL0     C37056  11.308  10.166   7.195 -0.0487  0.2379  1.4277
  994MOL0     C37057  11.456  10.190   7.238  0.3722  1.1669 -0.8629
  994MOL0     O37058  11.488  10.326   7.244  0.5917 -0.7397  0.0170
  994MOL0     C37059  11.619  10.366   7.249 -0.0876  0.3316  0.0876
  994MOL0     C37060  11.727  10.273   7.256  0.5710 -0.6965 -0.2068
  994MOL0     C37061  11.860  10.311   7.254  0.3515 -1.5564  0.9150
  994MOL0     C37062  11.963  10.204   7.254  0.3828  0.1007 -0.2258
  994MOL0     C37063  11.898  10.454   7.248  0.1175 -0.7227 -0.1219
  994MOL0     C37064  12.038  10.509   7.246  0.3429  0.8255 -0.0116
  994MOL0     O37065  12.056  10.623   7.172  0.6110  0.5119  0.6183
  994MOL0     C37066  12.163  10.698   7.206  0.4652  0.3055  0.3178
  994MOL0     C37067  12.255  10.750   7.107  0.4684 -0.3204  0.7319
  994MOL0     C37068  12.379  10.794   7.148 -0.3341  0.1197 -0.4959
  994MOL0     C37069  12.415  10.820   7.281  1.3089  0.1016 -0.2725
  994MOL0     O37070  12.541  10.871   7.321 -0.5877  0.5792  0.7153
  994MOL0     C37071  12.575  10.894   7.456  1.1786 -0.4306  0.0599
  994MOL0     C37072  12.715  10.949   7.449  0.4595 -0.3819  0.3650
  994MOL0     C37073  12.707  11.095   7.404 -0.8729  0.1629 -0.9247
  994MOL0     C37074  12.843  11.157   7.424 -0.1187 -0.1105 -0.1348
  994MOL0     C37075  12.845  11.303   7.394  0.2852 -0.4502  0.3544
  994MOL0     C37076  12.986  11.367   7.422  0.8555 -1.2160 -0.1239
  994MOL0     C37077  13.090  11.323   7.331 -0.1876 -1.0745 -0.0288
  994MOL0     C37078  13.233  11.375   7.362 -0.2758  0.1066  0.6168
  994MOL0    Cl37079  13.237  11.560   7.331 -0.2566  0.2980  0.0911
  994MOL0     C37080  12.313  10.793   7.380  0.0103  0.3752  0.2787
  994MOL0     C37081  12.189  10.723   7.349  0.3801 -0.4231  0.4132
  994MOL0     O37082  12.127  10.457   7.322 -0.3746  0.1241 -0.8784
  994MOL0     C37083  11.790  10.547   7.242 -0.0347  0.7092 -0.0454
  994MOL0     C37084  11.655  10.509   7.242 -0.3761  0.8634  0.5327
  994MOL0     N37085  11.115  10.262   6.966  0.5031 -0.6215  0.3758
  994MOL0     N37086  11.047  10.271   6.856 -0.1969 -0.6246  0.0115
  994MOL0     C37087  10.382   9.318   6.843  1.4131  0.2456  0.0263
  994MOL0     C37088  10.414   9.181   6.856 -0.2459  0.4151  0.4416
  994MOL0     C37089  10.482   8.767   6.727 -0.3832 -0.1685  0.5394
  994MOL0     C37090  10.577   8.738   6.830  1.4930 -0.2951  0.2932
  994MOL0     C37091  10.635   8.613   6.833  0.1103 -0.5475 -0.7283
  994MOL0     C37092  10.599   8.508   6.755  0.5858 -0.8536  0.1059
  994MOL0     O37093  10.647   8.382   6.778 -1.3059 -0.3678  0.0755
  994MOL0     C37094  10.689   8.320   6.654  0.1814  0.5840  0.1597
  994MOL0     C37095  10.788   8.394   6.568 -0.1405  0.6534  0.0754
  994MOL0     C37096  10.913   8.412   6.658  0.0573 -0.5199  0.1751
  994MOL0     C37097  11.038   8.443   6.574  0.2219  0.1094  0.4572
  994MOL0     C37098  11.160   8.451   6.649  0.2028 -0.5505  0.0543
  994MOL0     C37099  11.262   8.432   6.706  0.4448 -0.5032  0.0556
  994MOL0     C37100  10.494   8.537   6.664  0.5348  0.4843 -0.6900
  994MOL0     C37101  10.443   8.662   6.640 -0.6778  0.0395 -0.4414
  994MOL0     C37102  10.358   8.674   6.520  0.3240 -0.2377  0.3470
  994MOL0     H37103  10.610   9.163   6.570  0.2300  0.6679  0.0734
  994MOL0     H37104  10.574   9.394   6.570  0.1731  1.3602  1.4426
  994MOL0     H37105  10.268   9.621   6.580  0.2204 -0.3110  0.2871
  994MOL0     H37106  10.388   9.509   6.516 -0.9679 -0.8907 -0.1227
  994MOL0     H37107  10.564   9.655   6.619  0.3747 -2.2537 -0.3158
  994MOL0     H37108  10.496   9.719   6.472  1.7102  0.1444  0.7347
  994MOL0     H37109  10.334   9.846   6.620  0.3493  2.7305  1.4037
  994MOL0     H37110  10.457   9.808   6.752  0.7790 -2.9639 -0.3029
  994MOL0     H37111  10.635   9.919   6.636  0.3216  0.7242 -1.8652
  994MOL0     H37112  10.528   9.969   6.506  0.5957 -2.4254 -0.6474
  994MOL0     H37113  10.451  10.036   6.798 -3.7608 -1.2524 -0.7861
  994MOL0     H37114  10.388  10.099   6.656  0.8013 -0.4634 -0.1903
  994MOL0     H37115  10.624  10.179   6.597  1.1958 -6.4421  0.8945
  994MOL0     H37116  10.525  10.265   6.726 -1.2150 -0.0203 -0.5855
  994MOL0     H37117  10.738  10.058   6.794  1.1308 -0.4468  1.0226
  994MOL0     H37118  10.631  10.157   6.892 -3.1542 -2.1289 -1.1387
  994MOL0     H37119  10.848  10.245   6.691 -2.3533 -1.2377 -0.6784
  994MOL0     H37120  10.750  10.361   6.783  0.7861  1.0071  0.9343
  994MOL0     H37121  10.817  10.177   7.071 -0.9538  0.6961 -0.5674
  994MOL0     H37122  11.044  10.119   7.239  2.8995 -0.0778 -1.5916
  994MOL0     H37123  10.990  10.291   7.272 -0.9498  1.3511 -0.2690
  994MOL0     H37124  11.218  10.365   7.207 -0.4214 -0.0540 -0.2750
  994MOL0     H37125  11.211  10.259   7.354  1.7667 -0.1615 -0.5003
  994MOL0     H37126  11.283  10.061   7.209 -4.8533  0.3210 -3.2503
  994MOL0     H37127  11.307  10.189   7.088 -0.3945 -1.8551  0.9480
  994MOL0     H37128  11.465  10.145   7.337 -1.1796 -0.0796 -1.2480
  994MOL0     H37129  11.516  10.129   7.170 -0.0824 -0.5647  0.2556
  994MOL0     H37130  11.722  10.165   7.244  2.4734 -0.6713 -1.6807
  994MOL0     H37131  11.925  10.106   7.222  2.0750 -0.7352  0.2337
  994MOL0     H37132  12.015  10.203   7.350 -2.0387 -1.4714  1.1733
  994MOL0     H37133  12.049  10.218   7.188  3.4426 -0.5855  3.3201
  994MOL0     H37134  12.226  10.733   7.003 -0.5822  0.6914  0.8380
  994MOL0     H37135  12.459  10.821   7.079  2.2151 -2.4357  1.2505
  994MOL0     H37136  12.500  10.963   7.497 -1.2278 -0.7989 -3.2751
  994MOL0     H37137  12.584  10.798   7.508  0.9601 -0.2437  0.4492
  994MOL0     H37138  12.764  10.939   7.547  1.9680 -2.4568 -0.5368
  994MOL0     H37139  12.771  10.884   7.382  0.6001 -0.1441  0.2514
  994MOL0     H37140  12.638  11.156   7.463  2.7579  3.2327  0.5677
  994MOL0     H37141  12.673  11.094   7.300  1.1901  1.3534 -1.6823
  994MOL0     H37142  12.914  11.109   7.356 -1.2459 -2.1195  0.0169
  994MOL0     H37143  12.881  11.128   7.523 -0.7837  0.3069  0.2446
  994MOL0     H37144  12.807  11.319   7.293  2.3730 -0.8538 -0.5288
  994MOL0     H37145  12.777  11.348   7.467 -0.1800  1.1921 -1.0194
  994MOL0     H37146  13.018  11.334   7.522 -1.0655 -1.2316  0.5312
  994MOL0     H37147  12.973  11.476   7.428  1.2815 -1.2266  3.1035
  994MOL0     H37148  13.069  11.364   7.232 -0.7362 -4.9825 -1.7371
  994MOL0     H37149  13.096  11.214   7.326 -1.2836 -1.1276 -0.6775
  994MOL0     H37150  13.314  11.329   7.305  0.7886 -1.5529  3.2775
  994MOL0     H37151  13.250  11.348   7.466  0.7116  1.0265  0.7104
  994MOL0     H37152  12.345  10.803   7.483  1.5574  0.0659 -0.1463
  994MOL0     H37153  12.129  10.699   7.435  0.6005  2.6589  1.5714
  994MOL0     H37154  11.815  10.652   7.232  1.5427  0.3330 -0.3107
  994MOL0     H37155  11.583  10.591   7.241 -0.5348  0.7213 -0.4353
  994MOL0     H37156  10.313   9.362   6.914 -0.4512  1.5172 -2.4078
  994MOL0     H37157  10.369   9.117   6.931 -1.1106  0.2859 -0.1751
  994MOL0     H37158  10.588   8.822   6.899 -0.4999  0.4573 -0.2291
  994MOL0     H37159  10.704   8.595   6.915  1.2376  0.0368 -1.5113
  994MOL0     H37160  10.744   8.229   6.678 -0.4780  0.5896  1.8384
  994MOL0     H37161  10.603   8.286   6.595 -0.2384  1.6779  0.1095
  994MOL0     H37162  10.751   8.484   6.519 -1.3101  0.0707 -0.1477
  994MOL0     H37163  10.806   8.339   6.475 -0.5717  0.0353  0.3508
  994MOL0     H37164  10.907   8.498   6.726 -0.7085 -0.2605 -0.2112
  994MOL0     H37165  10.945   8.324   6.715  3.1498  0.1756 -0.2924
  994MOL0     H37166  11.030   8.539   6.523 -0.5458  0.6619  1.5771
  994MOL0     H37167  11.052   8.369   6.494  0.5973  0.6143  0.0481
  994MOL0     H37168  11.360   8.414   6.746  0.2219 -1.7103  0.1111
  994MOL0     H37169  10.457   8.454   6.605  2.5546 -0.4307 -0.7451
  994MOL0     H37170  10.374   8.592   6.449  2.2704 -0.1148  0.5846
  994MOL0     H37171  10.260   8.659   6.567  0.3094  1.8403  1.0854
  994MOL0     H37172  10.375   8.767   6.467 -1.4443  0.3457  0.7404
  995MOL0     O37173   9.126   0.069  10.258  0.6463  0.1431 -0.4645
  995MOL0     C37174   9.188   0.113  10.353 -0.5261 -0.4960  0.0219
  995MOL0     O37175   9.300   0.058  10.391  0.5357  0.1473  0.0743
  995MOL0     C37176   9.363  -0.042  10.316  1.1230  0.0978  0.2345
  995MOL0     C37177   9.404  -0.031  10.178 -0.2190 -0.0532  0.5034
  995MOL0     C37178   9.468  -0.135  10.112  0.1893  0.4789 -0.0571
  995MOL0     C37179   9.504  -0.255  10.175 -0.0012 -0.0277  0.8177
  995MOL0     O37180   9.570  -0.362  10.133 -0.7820  0.4071 -1.0513
  995MOL0     C37181   9.638  -0.336  10.003  0.8982 -0.3797  0.1761
  995MOL0     C37182   9.720  -0.458   9.972 -0.6642 -0.0766  0.2455
  995MOL0     C37183   9.640  -0.583   9.952 -0.0209  0.5108 -0.3539
  995MOL0     C37184   9.712  -0.711   9.944 -0.2569  0.2453 -0.2028
  995MOL0     C37185   9.622  -0.822   9.893 -0.0198 -0.5133  0.0709
  995MOL0     C37186   9.700  -0.960   9.878  0.8254 -0.2480 -0.3980
  995MOL0     C37187   9.603  -1.075   9.832 -0.3794  0.0771  0.2830
  995MOL0     C37188   9.660  -1.213   9.850  0.3719  0.0085 -0.2834
  995MOL0     N37189   9.572  -1.307   9.785 -0.5471 -0.3543 -0.1112
  995MOL0     C37190   9.626  -1.416   9.717 -0.3774 -0.4420 -0.5231
  995MOL0     C37191   9.518  -1.488   9.702  1.0398 -1.2883  0.6841
  995MOL0     C37192   9.528  -1.630   9.642 -0.6763 -0.8268  0.8014
  995MOL0     C37193   9.604  -1.708   9.750  0.7204  0.1650 -0.2129
  995MOL0     C37194   9.661  -1.829   9.679 -0.5680 -0.5118  0.6474
  995MOL0     C37195   9.754  -1.912   9.767  0.4273 -0.4461  0.3889
  995MOL0     O37196   9.885  -1.853   9.757 -0.1816  0.2672  0.4638
  995MOL0     C37197   9.978  -1.858   9.856  1.0908 -0.4924  0.3998
  995MOL0     C37198  10.098  -1.783   9.852  0.0835  0.6826 -0.3936
  995MOL0     C37199  10.193  -1.791   9.954 -0.1950  0.4794 -0.7336
  995MOL0     C37200  10.301  -1.690   9.951 -1.0314  1.4162  0.2332
  995MOL0     C37201  10.170  -1.882  10.071 -0.2696  1.2450 -0.1480
  995MOL0     C37202  10.259  -1.887  10.194  0.4998 -1.0446 -0.4695
  995MOL0     O37203  10.246  -1.997  10.278 -0.5913 -0.1186  0.1955
  995MOL0     C37204  10.284  -1.988  10.409 -0.6685 -0.1750 -0.9614
  995MOL0     C37205  10.206  -1.911  10.488  1.1611  0.1004 -1.1090
  995MOL0     C37206  10.227  -1.901  10.625  0.1803 -0.4275  0.7332
  995MOL0     C37207  10.346  -1.965  10.690  1.0817 -0.0425  0.2668
  995MOL0     O37208  10.358  -1.943  10.824 -0.0138 -0.5331  0.5535
  995MOL0     C37209  10.488  -1.970  10.878  0.3482  0.0817 -0.8878
  995MOL0     C37210  10.519  -1.879  10.996  0.5097 -0.2202  0.9091
  995MOL0     C37211  10.422  -1.888  11.118 -0.4196 -0.7946 -0.2459
  995MOL0     C37212  10.475  -1.790  11.222  0.9370 -0.0538  0.0681
  995MOL0     C37213  10.423  -1.815  11.363 -0.2480 -0.5958  1.1230
  995MOL0     C37214  10.454  -1.707  11.465 -0.2499  1.0589 -0.4429
  995MOL0     C37215  10.605  -1.673  11.496  0.3399 -0.3775 -0.6902
  995MOL0     C37216  10.668  -1.581  11.397  0.1598 -0.7278  0.7393
  995MOL0    Cl37217  10.583  -1.426  11.393 -0.0513  0.1576 -0.0327
  995MOL0     C37218  10.430  -2.047  10.602 -0.6355  0.2638 -0.4662
  995MOL0     C37219  10.391  -2.061  10.470  0.5463 -1.6242  0.6943
  995MOL0     O37220  10.320  -1.785  10.230 -0.2567 -0.1824  0.7669
  995MOL0     C37221  10.049  -1.956  10.070  0.0832 -0.2157  0.4209
  995MOL0     C37222   9.956  -1.936   9.970 -0.0411  0.1515 -0.5504
  995MOL0     N37223   9.401  -1.412   9.731 -0.3711  0.5674 -0.0112
  995MOL0     N37224   9.440  -1.305   9.787 -0.1620  0.7013  0.4765
  995MOL0     C37225   9.456  -0.261  10.308  0.1385 -0.4067  0.0940
  995MOL0     C37226   9.396  -0.161  10.379  0.7738 -0.2014  0.2896
  995MOL0     C37227   9.120   0.210  10.444 -0.3117  0.0476 -0.3881
  995MOL0     C37228   9.138   0.217  10.579  0.3228  0.3553  0.3934
  995MOL0     C37229   9.077   0.318  10.663  0.3801 -0.4521  0.4398
  995MOL0     C37230   8.995   0.425  10.621 -0.5771  0.2381  0.0701
  995MOL0     O37231   8.907   0.510  10.689  0.4330  0.4256 -0.2485
  995MOL0     C37232   8.927   0.527  10.834 -0.3548  0.2104  0.7322
  995MOL0     C37233   8.929   0.684  10.866 -0.9617 -0.1979 -0.0399
  995MOL0     C37234   9.063   0.753  10.814  0.5829  0.6257  0.2819
  995MOL0     C37235   9.063   0.808  10.664  0.1583 -0.4300  0.7175
  995MOL0     C37236   8.979   0.928  10.652  0.1304 -0.4863  0.2120
  995MOL0     C37237   8.913   1.020  10.624 -0.1214  0.3000 -0.0839
  995MOL0     C37238   8.988   0.424  10.480  0.3175 -0.5602  0.3416
  995MOL0     C37239   9.034   0.318  10.394 -0.1821 -0.6260 -0.5363
  995MOL0     C37240   8.981   0.334  10.243  0.8049 -0.5602  0.5012
  995MOL0     H37241   9.400   0.064  10.127  1.3842  1.4011  2.8583
  995MOL0     H37242   9.485  -0.121  10.006  3.1187 -1.3612  0.0769
  995MOL0     H37243   9.712  -0.256  10.009 -0.0425  0.8763 -3.0777
  995MOL0     H37244   9.560  -0.330   9.927 -0.3452  1.2615  1.4900
  995MOL0     H37245   9.777  -0.441   9.880 -1.4239  0.4083 -0.1349
  995MOL0     H37246   9.789  -0.479  10.054 -1.9441 -1.4448  1.0277
  995MOL0     H37247   9.569  -0.598  10.035  1.7245 -0.4577  1.0258
  995MOL0     H37248   9.590  -0.548   9.861  2.6963  3.8176 -0.7795
  995MOL0     H37249   9.799  -0.700   9.879 -0.4172 -1.4192 -0.7542
  995MOL0     H37250   9.750  -0.742  10.041  2.4887 -0.8165 -1.5336
  995MOL0     H37251   9.580  -0.793   9.796  3.0718  1.0797 -0.9151
  995MOL0     H37252   9.542  -0.827   9.968 -2.1511  0.7620 -1.9626
  995MOL0     H37253   9.779  -0.962   9.803 -0.2405 -0.5213 -1.5347
  995MOL0     H37254   9.736  -0.984   9.979  1.0427 -0.6548 -0.5699
  995MOL0     H37255   9.583  -1.050   9.727 -0.3690 -0.7535  0.0775
  995MOL0     H37256   9.513  -1.061   9.893 -0.9472  0.2861 -0.5801
  995MOL0     H37257   9.759  -1.223   9.804  1.2969 -2.1275  1.8980
  995MOL0     H37258   9.655  -1.238   9.957 -0.8945  0.4535 -0.2194
  995MOL0     H37259   9.731  -1.439   9.709  0.0065  1.2340 -0.7138
  995MOL0     H37260   9.575  -1.629   9.543  2.5240 -2.5300  2.1660
  995MOL0     H37261   9.423  -1.660   9.636 -1.2100  1.0943 -0.1771
  995MOL0     H37262   9.686  -1.644   9.784  0.8954  0.6735 -1.5168
  995MOL0     H37263   9.528  -1.733   9.824 -0.9576  2.3997 -1.0646
  995MOL0     H37264   9.580  -1.882   9.628 -1.1897  2.5797 -1.9634
  995MOL0     H37265   9.721  -1.789   9.597 -1.9750 -0.8806 -0.6015
  995MOL0     H37266   9.713  -1.920   9.868 -3.5313 -2.1173 -1.1748
  995MOL0     H37267   9.754  -2.015   9.729 -0.8390  0.2023 -1.4766
  995MOL0     H37268  10.100  -1.715   9.767  0.9512 -2.8866 -3.5170
  995MOL0     H37269  10.285  -1.617   9.870  1.1117  1.7674  0.0791
  995MOL0     H37270  10.404  -1.725   9.949 -0.8744  1.8822 -0.9863
  995MOL0     H37271  10.279  -1.633  10.042  1.8479 -0.1681  2.0303
  995MOL0     H37272  10.131  -1.847  10.442  0.4458 -0.4026 -0.6755
  995MOL0     H37273  10.149  -1.844  10.675 -1.4032  0.0710 -2.1052
  995MOL0     H37274  10.489  -2.072  10.917  0.6230  0.9399  1.4829
  995MOL0     H37275  10.570  -1.953  10.807  0.8670 -0.1857 -0.3628
  995MOL0     H37276  10.616  -1.914  11.032  1.1009 -0.8772 -1.1424
  995MOL0     H37277  10.536  -1.780  10.954  2.2878 -0.6181  0.6174
  995MOL0     H37278  10.423  -1.990  11.159  0.9650 -0.0557  1.7441
  995MOL0     H37279  10.318  -1.870  11.089 -0.0207 -1.5665 -2.3075
  995MOL0     H37280  10.449  -1.690  11.185 -0.0394 -0.5841 -0.7497
  995MOL0     H37281  10.584  -1.793  11.233  0.9638  2.3654  1.1988
  995MOL0     H37282  10.317  -1.836  11.348 -0.2119 -0.3197  0.4640
  995MOL0     H37283  10.459  -1.916  11.384  0.0376 -0.9442 -0.8540
  995MOL0     H37284  10.399  -1.736  11.555 -0.3903 -0.7803 -1.0784
  995MOL0     H37285  10.402  -1.616  11.432 -1.4870  0.6687  0.3623
  995MOL0     H37286  10.674  -1.757  11.508  0.8029  0.0643 -0.1791
  995MOL0     H37287  10.593  -1.627  11.595 -3.6649 -2.1616 -0.1309
  995MOL0     H37288  10.681  -1.629  11.299 -1.8092  2.0911 -1.0807
  995MOL0     H37289  10.768  -1.553  11.431  1.7535 -1.3463 -2.9317
  995MOL0     H37290  10.507  -2.112  10.643 -1.7068 -0.9277 -0.2767
  995MOL0     H37291  10.448  -2.134  10.413  1.5284 -3.2197  3.5464
  995MOL0     H37292  10.031  -2.033  10.144  0.4865  1.5457  2.4443
  995MOL0     H37293   9.867  -1.998   9.981 -0.9760  1.4241 -0.7002
  995MOL0     H37294   9.472  -0.357  10.356 -0.0578 -1.2233 -1.4074
  995MOL0     H37295   9.367  -0.173  10.482  2.6523 -0.5640  0.8100
  995MOL0     H37296   9.194   0.134  10.620 -0.9569 -0.6654  0.1390
  995MOL0     H37297   9.079   0.297  10.770 -2.3445  1.1945  0.9282
  995MOL0     H37298   8.849   0.476  10.892 -1.7711  0.2242 -1.0912
  995MOL0     H37299   9.024   0.482  10.858 -0.3497  0.0368  0.3848
  995MOL0     H37300   8.915   0.701  10.973 -2.3029  0.1381 -0.2506
  995MOL0     H37301   8.844   0.733  10.818  0.4520 -0.9188 -3.5512
  995MOL0     H37302   9.086   0.830  10.888  0.4356  2.7081 -1.7020
  995MOL0     H37303   9.145   0.681  10.819  2.7557  2.9370 -0.0325
  995MOL0     H37304   9.018   0.730  10.602  3.9959 -0.7414 -1.9690
  995MOL0     H37305   9.162   0.838  10.629 -1.7168  2.0603 -3.1383
  995MOL0     H37306   8.877   1.111  10.582  1.6145  1.0850  0.0534
  995MOL0     H37307   8.917   0.489  10.432  0.8788  0.8800  1.3796
  995MOL0     H37308   9.051   0.298  10.166 -0.3468  4.2894 -3.2906
  995MOL0     H37309   8.882   0.290  10.231  0.8569 -0.9644  1.4807
  995MOL0     H37310   8.988   0.439  10.214 -3.1801 -0.7570 -1.7761
  996MOL0     O37311   3.972   4.190   7.050 -0.0353  0.3388  0.2709
  996MOL0     C37312   3.915   4.099   7.116  0.5335 -0.7578  0.6720
  996MOL0     O37313   3.958   4.047   7.232 -0.0630 -0.4691  0.6261
  996MOL0     C37314   4.084   4.077   7.269 -0.0776  0.3295  0.8334
  996MOL0     C37315   4.107   4.131   7.394  0.2668 -0.6936  0.0366
  996MOL0     C37316   4.239   4.131   7.444 -0.8149 -0.9716 -0.3054
  996MOL0     C37317   4.349   4.082   7.371 -0.3217  0.1963  0.4783
  996MOL0     O37318   4.484   4.084   7.413 -0.3132  0.0872  0.0128
  996MOL0     C37319   4.528   4.208   7.470 -0.6003  0.4075  0.3182
  996MOL0     C37320   4.634   4.193   7.578 -0.0048  0.0400 -0.2124
  996MOL0     C37321   4.569   4.136   7.702 -0.0498  0.3318 -0.0759
  996MOL0     C37322   4.676   4.089   7.800 -0.0371 -0.3356 -0.9423
  996MOL0     C37323   4.612   4.048   7.936  0.6531 -0.2497  0.4842
  996MOL0     C37324   4.691   4.012   8.064  0.4775 -0.6088  1.1752
  996MOL0     C37325   4.610   3.988   8.185 -0.3409  0.0685  0.1066
  996MOL0     C37326   4.688   3.979   8.316 -0.2492  0.7117  0.8605
  996MOL0     N37327   4.743   3.847   8.323 -0.0352 -0.2077 -0.0045
  996MOL0     C37328   4.869   3.814   8.357  0.0654 -0.2647 -0.3502
  996MOL0     C37329   4.869   3.687   8.388  1.2003  0.1548 -0.2691
  996MOL0     C37330   4.986   3.599   8.423 -0.6134  0.2533 -0.4414
  996MOL0     C37331   4.980   3.578   8.562  0.4588  0.7436 -0.1859
  996MOL0     C37332   5.107   3.508   8.627  1.0956 -0.5953 -0.9684
  996MOL0     C37333   5.227   3.590   8.646 -0.1841  0.0301  0.1887
  996MOL0     O37334   5.340   3.507   8.687  0.1761 -0.0612  0.2701
  996MOL0     C37335   5.459   3.567   8.697 -0.5965  0.0976  0.6979
  996MOL0     C37336   5.489   3.695   8.668 -0.3884  0.6176 -0.5197
  996MOL0     C37337   5.614   3.743   8.654  0.4422  0.5972 -0.0493
  996MOL0     C37338   5.625   3.889   8.594  0.4551 -0.1543 -0.3932
  996MOL0     C37339   5.727   3.653   8.679  0.5215 -0.3916  0.4060
  996MOL0     C37340   5.867   3.704   8.682 -0.5909 -0.0773  0.3737
  996MOL0     O37341   5.893   3.833   8.641 -0.6255 -0.0019 -0.0552
  996MOL0     C37342   6.015   3.871   8.596  0.1972  0.5658  0.7494
  996MOL0     C37343   6.096   3.803   8.501  0.2984  0.8119  0.3237
  996MOL0     C37344   6.217   3.847   8.454  0.3766  0.3957  0.5361
  996MOL0     C37345   6.268   3.965   8.493 -0.8029 -0.2615 -0.1352
  996MOL0     O37346   6.391   4.020   8.469 -0.1130  0.1728 -0.4578
  996MOL0     C37347   6.461   3.956   8.367  0.4884 -0.1860 -0.0295
  996MOL0     C37348   6.582   4.043   8.344  0.1412 -0.6975  0.3586
  996MOL0     C37349   6.546   4.155   8.236  0.5983  0.5949 -0.5021
  996MOL0     C37350   6.611   4.290   8.236 -0.4464 -1.0043  0.1702
  996MOL0     C37351   6.763   4.291   8.213 -0.3629 -0.4683 -0.2150
  996MOL0     C37352   6.851   4.257   8.334  0.2888  1.0746  0.1192
  996MOL0     C37353   6.995   4.288   8.320 -0.0149  0.0153  0.0934
  996MOL0     C37354   7.052   4.208   8.202  0.1441 -1.0939  0.2946
  996MOL0    Cl37355   7.014   4.040   8.217 -0.4169 -0.0623 -0.3534
  996MOL0     C37356   6.191   4.045   8.573  0.1193 -0.2323 -0.8411
  996MOL0     C37357   6.063   4.003   8.630  0.3426 -0.4052  0.2546
  996MOL0     O37358   5.956   3.621   8.706 -0.1513  0.2454  0.5421
  996MOL0     C37359   5.706   3.521   8.713 -0.4727  0.0958  0.0867
  996MOL0     C37360   5.570   3.481   8.723 -0.9525 -0.1689  0.2830
  996MOL0     N37361   4.734   3.639   8.392  0.3616 -0.1332 -0.1306
  996MOL0     N37362   4.664   3.739   8.340  0.5112 -0.5174  0.1986
  996MOL0     C37363   4.320   4.024   7.243 -0.3661  0.1382 -0.1490
  996MOL0     C37364   4.190   4.023   7.190  0.5588 -0.4380 -0.2712
  996MOL0     C37365   3.779   4.053   7.065  0.3554 -0.3922  0.5282
  996MOL0     C37366   3.740   3.928   7.116  0.0957  0.0812 -0.3598
  996MOL0     C37367   3.603   3.886   7.095  0.0978 -0.8694 -0.0064
  996MOL0     C37368   3.509   3.960   7.017 -0.4373 -0.2450 -0.8513
  996MOL0     O37369   3.376   3.923   6.985 -0.3748 -0.6230 -0.0894
  996MOL0     C37370   3.314   3.808   7.053 -1.7276  0.7404 -0.4039
  996MOL0     C37371   3.245   3.847   7.183 -0.3795  0.1478  0.3927
  996MOL0     C37372   3.130   3.958   7.147 -0.5330 -0.5224  0.4738
  996MOL0     C37373   3.004   3.940   7.237  0.2762  0.9235 -0.1902
  996MOL0     C37374   2.915   4.053   7.213  0.3914  0.2030  0.4531
  996MOL0     C37375   2.851   4.153   7.190 -0.7007 -0.4867  0.6995
  996MOL0     C37376   3.556   4.087   6.975  0.4831  0.6372  0.7234
  996MOL0     C37377   3.690   4.134   6.990 -0.3004 -0.6933 -0.3283
  996MOL0     C37378   3.722   4.275   6.943  0.1136  0.3851 -0.8229
  996MOL0     H37379   4.023   4.158   7.456  0.0123  0.1340 -0.6533
  996MOL0     H37380   4.247   4.181   7.540  0.0585  1.0993 -1.3913
  996MOL0     H37381   4.443   4.265   7.510 -0.7154  0.6053 -0.1975
  996MOL0     H37382   4.571   4.270   7.391 -1.8313  0.0781 -0.6280
  996MOL0     H37383   4.716   4.134   7.536  1.0419  1.9630 -0.9945
  996MOL0     H37384   4.679   4.289   7.603 -1.8989  1.2234 -1.1196
  996MOL0     H37385   4.509   4.217   7.744  0.4911 -0.2833  1.9575
  996MOL0     H37386   4.504   4.053   7.674  1.8640 -0.7782 -1.4795
  996MOL0     H37387   4.726   4.002   7.756  0.5067  0.7343 -2.5301
  996MOL0     H37388   4.760   4.156   7.822  1.3642 -2.8167  2.1965
  996MOL0     H37389   4.546   3.963   7.917  0.4483  0.3481 -1.8593
  996MOL0     H37390   4.544   4.133   7.950 -0.5532 -1.1315  0.0615
  996MOL0     H37391   4.748   3.922   8.041 -1.6526 -1.8146  0.2126
  996MOL0     H37392   4.762   4.090   8.090 -0.3512 -0.3666  2.8730
  996MOL0     H37393   4.540   3.905   8.171 -0.4156  0.5616 -3.3043
  996MOL0     H37394   4.550   4.079   8.195 -0.2388  0.1817 -0.2983
  996MOL0     H37395   4.769   4.050   8.339 -0.1877  0.7420  0.5584
  996MOL0     H37396   4.619   3.976   8.401 -1.1085 -0.9940  0.1490
  996MOL0     H37397   4.953   3.881   8.345 -0.0492 -0.3559 -1.8986
  996MOL0     H37398   5.083   3.638   8.392 -0.6449  0.4171 -0.3392
  996MOL0     H37399   4.976   3.505   8.367  2.8055  0.1073 -1.0257
  996MOL0     H37400   4.963   3.671   8.616 -0.4014  0.1052  0.6957
  996MOL0     H37401   4.890   3.525   8.595 -0.2720  1.8201 -0.3888
  996MOL0     H37402   5.074   3.472   8.725 -0.5552  1.5152 -0.6576
  996MOL0     H37403   5.127   3.429   8.554 -0.0731 -2.2049  0.3784
  996MOL0     H37404   5.236   3.652   8.557 -2.3945  2.2860  1.4197
  996MOL0     H37405   5.206   3.665   8.722 -1.2176 -0.5681  0.5118
  996MOL0     H37406   5.411   3.763   8.637  1.2514  2.0488 -1.6858
  996MOL0     H37407   5.525   3.929   8.576  1.7931  3.6866 -0.1772
  996MOL0     H37408   5.682   3.895   8.501  2.0798 -1.7545  0.4368
  996MOL0     H37409   5.676   3.962   8.658 -1.8542  1.1116  0.1230
  996MOL0     H37410   6.057   3.713   8.454  1.3809 -0.0376  0.9917
  996MOL0     H37411   6.278   3.782   8.391 -0.6028 -1.3033  1.2673
  996MOL0     H37412   6.480   3.850   8.381 -0.5828 -0.0135  3.8213
  996MOL0     H37413   6.398   3.969   8.278  2.7782  0.0646 -1.7146
  996MOL0     H37414   6.617   4.102   8.429  0.3040  1.1986 -0.9390
  996MOL0     H37415   6.667   3.987   8.305  0.6266  0.3128 -0.0715
  996MOL0     H37416   6.442   4.183   8.255  0.6160 -1.0545  2.7578
  996MOL0     H37417   6.566   4.113   8.137  0.6114 -0.9936  0.1529
  996MOL0     H37418   6.577   4.337   8.329 -0.1701  1.7418 -1.0022
  996MOL0     H37419   6.570   4.356   8.160 -1.3751  1.3638  2.5386
  996MOL0     H37420   6.797   4.231   8.129  0.6456  0.0803 -0.2135
  996MOL0     H37421   6.784   4.391   8.174 -2.6960  0.4606  0.7174
  996MOL0     H37422   6.833   4.157   8.375 -1.1934  0.8476 -1.0347
  996MOL0     H37423   6.818   4.322   8.416 -1.3953  2.6414 -1.7008
  996MOL0     H37424   7.048   4.266   8.413 -1.9677 -0.8403  1.0700
  996MOL0     H37425   7.012   4.392   8.291  0.2034 -0.5181 -1.8220
  996MOL0     H37426   7.160   4.227   8.202 -0.3095  2.3261  2.6018
  996MOL0     H37427   7.020   4.249   8.106  3.1623 -1.6255 -1.0575
  996MOL0     H37428   6.221   4.149   8.585  0.0867 -0.4676  2.0281
  996MOL0     H37429   6.005   4.081   8.679 -0.9775  0.3127 -2.2602
  996MOL0     H37430   5.788   3.451   8.721  1.0070  1.5869 -1.1334
  996MOL0     H37431   5.545   3.379   8.747  3.4942 -1.8307 -1.2112
  996MOL0     H37432   4.394   3.968   7.186 -1.5813 -0.7043 -0.9355
  996MOL0     H37433   4.187   3.982   7.090 -0.8009  0.8354 -0.7894
  996MOL0     H37434   3.813   3.868   7.170  2.0500  2.6310 -0.0089
  996MOL0     H37435   3.578   3.786   7.127  0.2523 -1.1296 -0.6880
  996MOL0     H37436   3.246   3.762   6.980 -0.3848  1.4900 -2.2285
  996MOL0     H37437   3.367   3.714   7.072 -2.4312  0.5271  0.5791
  996MOL0     H37438   3.320   3.896   7.246 -0.2892  0.8550 -0.2495
  996MOL0     H37439   3.209   3.760   7.239  0.1755 -1.5606 -1.7404
  996MOL0     H37440   3.176   4.057   7.155 -1.2640 -0.1254 -0.1207
  996MOL0     H37441   3.096   3.961   7.043 -0.6987  1.9370  0.5453
  996MOL0     H37442   3.031   3.938   7.343  1.9548  0.8510 -0.5857
  996MOL0     H37443   2.940   3.855   7.212 -0.3907  2.1395 -2.9997
  996MOL0     H37444   2.802   4.247   7.173 -0.1468 -0.4816 -1.0680
  996MOL0     H37445   3.483   4.155   6.932 -0.9854 -0.2962  1.6490
  996MOL0     H37446   3.642   4.307   6.875  1.8562  0.5367 -2.9036
  996MOL0     H37447   3.720   4.348   7.025 -3.4368  0.8631 -1.1720
  996MOL0     H37448   3.818   4.276   6.891 -0.1828 -1.0588 -1.4542
  997MOL0     O37449  10.528   1.402   0.205 -0.1025  0.6606  0.8002
  997MOL0     C37450  10.476   1.317   0.141  0.8453  0.4560 -0.5532
  997MOL0     O37451  10.336   1.285   0.142  0.4724 -0.2749  0.4574
  997MOL0     C37452  10.247   1.380   0.188 -0.3770 -0.4367  0.8414
  997MOL0     C37453  10.154   1.361   0.293 -0.2525  0.2606 -0.6889
  997MOL0     C37454  10.058   1.458   0.324 -0.8692 -0.2438 -0.1581
  997MOL0     C37455  10.057   1.589   0.263 -0.8429 -0.3907 -0.6726
  997MOL0     O37456   9.985   1.696   0.293  0.2664 -0.4613 -0.6047
  997MOL0     C37457   9.845   1.669   0.324 -0.0881 -0.4043  0.5811
  997MOL0     C37458   9.786   1.813   0.324 -0.3630 -0.8970  0.4056
  997MOL0     C37459   9.655   1.817   0.412  0.2761 -0.1586 -0.0287
  997MOL0     C37460   9.621   1.964   0.435 -0.2818  0.7115 -1.0874
  997MOL0     C37461   9.543   1.984   0.561  0.7635  0.2715  0.6958
  997MOL0     C37462   9.625   1.995   0.691  0.7064  0.5034 -0.1863
  997MOL0     C37463   9.550   2.024   0.819  0.0622 -0.6357  0.4126
  997MOL0     C37464   9.462   2.143   0.804 -0.5074 -0.4147  1.1383
  997MOL0     N37465   9.413   2.195   0.933  0.3165 -0.2169 -0.2915
  997MOL0     C37466   9.485   2.257   1.026  0.5400  0.0082 -0.0257
  997MOL0     C37467   9.410   2.249   1.143 -0.6252  0.5773  0.1552
  997MOL0     C37468   9.429   2.327   1.268  0.0699 -0.8832 -0.0900
  997MOL0     C37469   9.452   2.476   1.250 -0.5304  0.2918 -0.3858
  997MOL0     C37470   9.337   2.557   1.189 -0.3065  0.1797 -0.3119
  997MOL0     C37471   9.331   2.556   1.039 -0.0103  1.1481  0.3484
  997MOL0     O37472   9.264   2.678   1.004 -0.3773  0.3410  0.8971
  997MOL0     C37473   9.248   2.706   0.867 -0.7850  0.5230 -0.5564
  997MOL0     C37474   9.229   2.842   0.819  0.2109  0.4539 -0.8435
  997MOL0     C37475   9.222   2.871   0.687 -0.1407  0.4778 -0.1646
  997MOL0     C37476   9.209   3.017   0.652  0.6390 -0.6279  0.5174
  997MOL0     C37477   9.230   2.761   0.592 -1.0765  0.2429  0.3224
  997MOL0     C37478   9.229   2.787   0.441 -0.1195 -0.2967  0.1239
  997MOL0     O37479   9.194   2.676   0.366  0.7735 -0.3275 -0.1744
  997MOL0     C37480   9.183   2.667   0.224 -0.1613  0.0221 -0.3500
  997MOL0     C37481   9.155   2.775   0.136  0.1339 -0.1046 -0.9655
  997MOL0     C37482   9.167   2.740  -0.002 -0.0569 -0.7596 -0.0515
  997MOL0     C37483   9.207   2.615  -0.048  0.1264  0.3165  0.0983
  997MOL0     O37484   9.210   2.611  -0.183  0.3853  0.5806  0.0880
  997MOL0     C37485   9.247   2.483  -0.242  0.0406 -0.5289 -0.6074
  997MOL0     C37486   9.400   2.503  -0.266 -0.6437 -0.1905  0.4928
  997MOL0     C37487   9.434   2.382  -0.366  0.1965  0.5467  0.0729
  997MOL0     C37488   9.590   2.371  -0.382 -0.2779 -0.2315 -0.3094
  997MOL0     C37489   9.632   2.268  -0.486 -0.2597  0.1597  0.3329
  997MOL0     C37490   9.635   2.121  -0.435 -0.4342 -0.0670 -0.3258
  997MOL0     C37491   9.664   2.021  -0.540 -0.2229  0.3500 -0.5434
  997MOL0     C37492   9.813   2.019  -0.601  0.3619  0.3382  1.5547
  997MOL0    Cl37493   9.894   1.853  -0.624  0.2126 -0.9236  0.2783
  997MOL0     C37494   9.233   2.511   0.040 -0.3260 -0.7260 -0.5677
  997MOL0     C37495   9.216   2.540   0.175  1.0165 -0.3731  0.8877
  997MOL0     O37496   9.262   2.890   0.391 -0.0084 -0.1261 -0.5807
  997MOL0     C37497   9.232   2.631   0.640 -0.3787  0.2828 -0.1320
  997MOL0     C37498   9.238   2.602   0.772  0.4896  0.5598 -0.4655
  997MOL0     N37499   9.296   2.188   1.111 -0.3173 -0.5481  0.0888
  997MOL0     N37500   9.300   2.150   0.982 -0.5856  0.5159  0.3369
  997MOL0     C37501  10.152   1.609   0.163 -0.3895 -0.2835 -0.1333
  997MOL0     C37502  10.244   1.508   0.126 -0.1205  1.0370  0.6073
  997MOL0     C37503  10.559   1.222   0.074  0.2485  1.1537  0.9960
  997MOL0     C37504  10.516   1.164  -0.058 -1.2863  0.0019 -0.7687
  997MOL0     C37505  10.590   1.068  -0.124 -0.2075 -0.0737 -0.3821
  997MOL0     C37506  10.717   1.029  -0.071 -1.0504  1.0472 -0.8990
  997MOL0     O37507  10.780   0.912  -0.123  0.4430 -0.5897 -0.3016
  997MOL0     C37508  10.902   0.872  -0.067  0.1006 -0.2815  0.4047
  997MOL0     C37509  10.957   0.753  -0.148 -0.4123 -0.6841  0.5407
  997MOL0     C37510  11.084   0.696  -0.074  0.3780  0.0893 -0.3162
  997MOL0     C37511  11.146   0.570  -0.136 -1.0565 -1.1198 -0.5343
  997MOL0     C37512  11.262   0.530  -0.060 -0.9191 -0.1795 -0.5476
  997MOL0     C37513  11.356   0.463  -0.011  1.4322 -0.2882 -0.4699
  997MOL0     C37514  10.766   1.091   0.045  0.9476  0.4525 -0.0831
  997MOL0     C37515  10.683   1.181   0.121 -0.6182 -0.0115  0.3127
  997MOL0     C37516  10.736   1.219   0.258 -0.2182 -0.8509  0.2723
  997MOL0     H37517  10.143   1.268   0.349 -1.8057  1.3330  0.8879
  997MOL0     H37518   9.977   1.428   0.391 -3.4779  3.0690 -1.5061
  997MOL0     H37519   9.820   1.628   0.423 -0.4750  0.7515  0.9789
  997MOL0     H37520   9.796   1.612   0.244 -1.5739  0.8632  0.5275
  997MOL0     H37521   9.854   1.891   0.358 -1.7619  0.8708 -0.7084
  997MOL0     H37522   9.751   1.842   0.225 -1.2983  0.7126  1.1657
  997MOL0     H37523   9.574   1.771   0.355 -1.8813 -1.5775  3.8173
  997MOL0     H37524   9.670   1.770   0.509 -0.0561  0.4732  0.3336
  997MOL0     H37525   9.710   2.027   0.442 -1.9503  3.3828 -2.1740
  997MOL0     H37526   9.569   2.003   0.347  2.2354  0.8220 -2.6362
  997MOL0     H37527   9.470   1.903   0.562 -1.2175  1.8744 -1.4437
  997MOL0     H37528   9.489   2.079   0.549 -3.3348 -2.0416 -1.3401
  997MOL0     H37529   9.675   1.898   0.700 -1.7999 -0.8317  0.1146
  997MOL0     H37530   9.700   2.075   0.689  2.6617 -1.2445 -0.9692
  997MOL0     H37531   9.624   2.046   0.896 -0.2077  1.8984  0.0347
  997MOL0     H37532   9.489   1.933   0.825 -1.1759 -0.0013 -1.4182
  997MOL0     H37533   9.506   2.225   0.747 -0.4806 -1.1909  0.0121
  997MOL0     H37534   9.376   2.103   0.749 -0.1816 -1.6343  1.4813
  997MOL0     H37535   9.572   2.321   1.014  0.8445 -0.0364  1.6778
  997MOL0     H37536   9.507   2.282   1.330 -0.7366  0.6510  2.1725
  997MOL0     H37537   9.331   2.317   1.315 -0.7950  1.0935 -1.3403
  997MOL0     H37538   9.489   2.512   1.347  0.3346  0.6484 -0.8382
  997MOL0     H37539   9.542   2.479   1.187 -0.5335 -0.1611 -0.4123
  997MOL0     H37540   9.245   2.514   1.229  0.5966 -0.2251  1.4619
  997MOL0     H37541   9.345   2.659   1.228  2.6622 -0.6679  1.6728
  997MOL0     H37542   9.432   2.550   0.997 -0.4226  3.8395 -1.2771
  997MOL0     H37543   9.265   2.474   1.009  1.3162 -0.2127  1.0106
  997MOL0     H37544   9.245   2.917   0.896 -1.4134 -0.4929  0.4792
  997MOL0     H37545   9.198   3.079   0.742  0.0750  0.4557 -0.2739
  997MOL0     H37546   9.121   3.038   0.590  0.2542 -0.5058  1.1011
  997MOL0     H37547   9.293   3.060   0.597  0.8079 -0.7174  0.7025
  997MOL0     H37548   9.128   2.870   0.181  0.3377 -0.5762  0.1829
  997MOL0     H37549   9.136   2.818  -0.071 -0.4848  0.1455  1.1349
  997MOL0     H37550   9.226   2.404  -0.169 -2.4995  1.4477  1.0074
  997MOL0     H37551   9.181   2.470  -0.328 -1.6728  0.5422  0.4741
  997MOL0     H37552   9.426   2.602  -0.303  0.7237 -0.1327  1.5612
  997MOL0     H37553   9.455   2.475  -0.176  1.4650  2.1196  0.0199
  997MOL0     H37554   9.386   2.392  -0.464  1.2462  1.1083 -0.4049
  997MOL0     H37555   9.401   2.289  -0.318  0.3488  0.8479  0.7671
  997MOL0     H37556   9.637   2.344  -0.287  2.0573  0.9117 -1.0649
  997MOL0     H37557   9.627   2.470  -0.412 -0.7335  0.2535  0.6660
  997MOL0     H37558   9.560   2.282  -0.567  1.1379  1.4133 -0.7752
  997MOL0     H37559   9.735   2.279  -0.522 -1.0645  1.1256 -1.8794
  997MOL0     H37560   9.542   2.098  -0.383  0.6006 -2.2078  0.7076
  997MOL0     H37561   9.703   2.104  -0.351 -1.2859 -0.9425  0.2035
  997MOL0     H37562   9.593   2.042  -0.620 -1.9947  0.7332  1.0477
  997MOL0     H37563   9.648   1.926  -0.488  1.2759  1.3307  1.8872
  997MOL0     H37564   9.872   2.070  -0.524 -0.3572  1.1845  1.5654
  997MOL0     H37565   9.814   2.066  -0.700 -0.3688 -0.7626  0.9971
  997MOL0     H37566   9.268   2.412   0.014  2.6876  0.3393 -0.9791
  997MOL0     H37567   9.248   2.468   0.250  0.9046  0.2701  1.5746
  997MOL0     H37568   9.243   2.543   0.578  2.5623  0.4048  0.0795
  997MOL0     H37569   9.237   2.496   0.794 -3.1377  0.6073  0.2187
  997MOL0     H37570  10.144   1.708   0.118 -0.2236 -1.0093 -1.8226
  997MOL0     H37571  10.321   1.521   0.050  0.1400 -0.0603  0.6789
  997MOL0     H37572  10.425   1.207  -0.100 -1.3695  1.6177  0.8900
  997MOL0     H37573  10.546   1.042  -0.220 -1.8144  1.2374 -0.0427
  997MOL0     H37574  10.977   0.951  -0.073  0.7583 -0.6301  2.6842
  997MOL0     H37575  10.880   0.848   0.038 -0.8070 -0.2771  0.2227
  997MOL0     H37576  10.972   0.781  -0.253  0.9134  2.2157  1.4277
  997MOL0     H37577  10.874   0.681  -0.149 -0.8607 -0.3201 -2.9586
  997MOL0     H37578  11.160   0.767  -0.041 -0.3289 -0.5260  2.8843
  997MOL0     H37579  11.048   0.659   0.022 -1.4281  2.0492 -0.1537
  997MOL0     H37580  11.179   0.582  -0.239  1.1223 -0.3870  0.1911
  997MOL0     H37581  11.072   0.489  -0.130 -1.7083 -0.5423 -0.5871
  997MOL0     H37582  11.427   0.395   0.031  1.4855 -1.4468 -2.3086
  997MOL0     H37583  10.858   1.057   0.092  0.2591  0.4226  1.2832
  997MOL0     H37584  10.672   1.211   0.346  1.2506  1.3934  1.6751
  997MOL0     H37585  10.832   1.169   0.273 -0.1449 -0.1418  2.5071
  997MOL0     H37586  10.758   1.326   0.250 -0.9909 -0.6239  1.0335
  998MOL0     O37587   0.019   5.470   8.413 -0.4253  0.5749 -0.4719
  998MOL0     C37588   0.116   5.428   8.360 -0.3507  0.9984 -0.0151
  998MOL0     O37589   0.243   5.440   8.402  0.0034 -0.1823 -0.1259
  998MOL0     C37590   0.267   5.540   8.498 -0.8104  0.8230 -0.2019
  998MOL0     C37591   0.356   5.512   8.601 -0.3404 -0.3417  0.5156
  998MOL0     C37592   0.382   5.597   8.707  0.6168 -0.9514  0.2932
  998MOL0     C37593   0.309   5.721   8.708  0.4685 -0.0630 -0.2836
  998MOL0     O37594   0.339   5.803   8.810  0.5614 -0.0996 -0.3212
  998MOL0     C37595   0.234   5.887   8.860 -0.6949  0.1974 -0.5531
  998MOL0     C37596   0.266   5.935   8.995  0.4375  0.2497  0.2393
  998MOL0     C37597   0.387   6.035   8.999  0.2356 -0.0526 -0.6185
  998MOL0     C37598   0.467   6.007   9.126 -1.0036  0.0872  0.0112
  998MOL0     C37599   0.561   5.893   9.117  0.2265  0.0730 -0.2494
  998MOL0     C37600   0.623   5.890   9.266  0.6908 -0.1043  0.1495
  998MOL0     C37601   0.780   5.924   9.266 -0.1194 -0.5897 -0.8757
  998MOL0     C37602   0.835   5.977   9.408  0.0534 -0.0796 -0.4394
  998MOL0     N37603   0.970   6.028   9.403  0.1325  0.4077  0.5279
  998MOL0     C37604   1.014   6.136   9.480  0.7973  0.2879 -0.3839
  998MOL0     C37605   1.145   6.134   9.494 -0.3680  0.9775 -0.7240
  998MOL0     C37606   1.250   6.214   9.562 -0.0235  0.2708 -1.1255
  998MOL0     C37607   1.354   6.278   9.457 -0.2950  0.0449 -0.5704
  998MOL0     C37608   1.488   6.312   9.514  0.5120 -0.0435 -0.1010
  998MOL0     C37609   1.577   6.197   9.545 -0.1686 -0.7514 -0.3897
  998MOL0     O37610   1.723   6.231   9.562  0.1725 -0.0389 -0.0920
  998MOL0     C37611   1.812   6.131   9.602 -0.2174 -0.9136  0.6529
  998MOL0     C37612   1.793   5.995   9.585 -0.4087  0.2482 -1.1193
  998MOL0     C37613   1.901   5.905   9.609 -0.9064 -0.2439 -0.9943
  998MOL0     C37614   1.859   5.761   9.577 -0.0401 -0.6404 -0.1151
  998MOL0     C37615   2.029   5.953   9.661  0.1437 -0.0965 -0.7866
  998MOL0     C37616   2.149   5.865   9.698  0.2810  0.1867 -0.1805
  998MOL0     O37617   2.263   5.922   9.741  0.1964 -0.0693 -0.2570
  998MOL0     C37618   2.385   5.862   9.741 -0.1326  0.2530  0.9873
  998MOL0     C37619   2.411   5.727   9.711 -0.2556  0.7236 -0.1047
  998MOL0     C37620   2.541   5.678   9.715  0.7241  0.7387 -0.2409
  998MOL0     C37621   2.649   5.762   9.752 -0.2875 -0.0677  0.3268
  998MOL0     O37622   2.772   5.702   9.755 -0.5390  0.7224 -1.2030
  998MOL0     C37623   2.870   5.735   9.855 -0.1623  0.5231  0.1985
  998MOL0     C37624   2.807   5.683   9.985  0.0675 -0.4641  0.7392
  998MOL0     C37625   2.798   5.532   9.989  0.6309  0.5382 -0.2823
  998MOL0     C37626   2.910   5.442   9.945  0.4074 -0.6583  0.4153
  998MOL0     C37627   2.901   5.291   9.971  0.1913 -0.0119 -0.7609
  998MOL0     C37628   3.028   5.222   9.921 -0.5810 -0.0373 -0.5124
  998MOL0     C37629   3.162   5.269   9.987 -0.1141 -0.2297  0.5093
  998MOL0     C37630   3.282   5.186   9.951 -0.2652  1.4136 -0.4715
  998MOL0    Cl37631   3.313   5.202   9.770  0.5756  0.3866 -0.3856
  998MOL0     C37632   2.621   5.895   9.786  0.3250 -0.2826  0.1585
  998MOL0     C37633   2.488   5.954   9.773  0.2314 -0.6809 -0.8389
  998MOL0     O37634   2.139   5.753   9.658  0.2634  0.4482 -0.1185
  998MOL0     C37635   2.038   6.092   9.677 -0.5972  1.1571  0.1067
  998MOL0     C37636   1.930   6.177   9.652  0.5757  0.6909 -0.2660
  998MOL0     N37637   1.181   6.010   9.437  0.3167 -0.3573 -0.7428
  998MOL0     N37638   1.080   5.947   9.381  0.7029 -0.3958  0.3938
  998MOL0     C37639   0.215   5.752   8.610 -0.3631  0.6348 -1.1382
  998MOL0     C37640   0.196   5.658   8.503  0.5376 -0.1148 -0.2096
  998MOL0     C37641   0.073   5.338   8.249 -0.1421 -0.0755  0.3006
  998MOL0     C37642  -0.043   5.257   8.259 -0.3890  0.2824 -1.0420
  998MOL0     C37643  -0.078   5.170   8.162 -0.0720  0.0099 -0.8886
  998MOL0     C37644  -0.009   5.158   8.046 -0.9618  0.3041  0.9693
  998MOL0     O37645  -0.028   5.065   7.946 -0.0044  0.5015 -0.3994
  998MOL0     C37646  -0.076   4.936   7.987  0.5665 -0.5000  0.0538
  998MOL0     C37647  -0.074   4.851   7.866 -0.5731  0.0032  0.2716
  998MOL0     C37648  -0.088   4.706   7.907  0.1883 -0.4890 -0.6816
  998MOL0     C37649  -0.035   4.621   7.793  0.0499 -0.4048 -0.5611
  998MOL0     C37650  -0.088   4.650   7.659  0.4622 -0.0772  0.2924
  998MOL0     C37651  -0.140   4.650   7.550  0.5281 -0.3994 -0.5341
  998MOL0     C37652   0.092   5.251   8.026 -0.5460  0.3489 -0.5646
  998MOL0     C37653   0.135   5.346   8.126 -0.8217  0.5717  0.5205
  998MOL0     C37654   0.245   5.445   8.086 -0.3082  0.4235 -0.8718
  998MOL0     H37655   0.409   5.417   8.598  0.3303  0.0228  0.6228
  998MOL0     H37656   0.459   5.576   8.781  0.8672  1.8664  0.9535
  998MOL0     H37657   0.140   5.834   8.870  0.4896 -1.5540  3.1015
  998MOL0     H37658   0.225   5.968   8.787  0.4004  1.5464  0.7105
  998MOL0     H37659   0.175   5.986   9.028 -0.3315 -1.2447  0.5143
  998MOL0     H37660   0.277   5.845   9.056  1.0500 -0.6169 -1.0974
  998MOL0     H37661   0.451   6.034   8.909 -0.0615 -1.6834 -0.8447
  998MOL0     H37662   0.356   6.138   9.014  0.2031 -0.6008  4.8650
  998MOL0     H37663   0.508   6.106   9.149  0.8552 -0.8205  0.7279
  998MOL0     H37664   0.396   5.984   9.205 -0.1744 -2.9873 -0.0153
  998MOL0     H37665   0.625   5.896   9.029  1.8637  3.3523  0.9147
  998MOL0     H37666   0.505   5.799   9.113  0.4679 -0.2662  2.2721
  998MOL0     H37667   0.564   5.954   9.333 -0.7092  0.4908 -1.5646
  998MOL0     H37668   0.600   5.792   9.309 -0.4793 -1.1636 -2.6886
  998MOL0     H37669   0.815   5.994   9.189  0.9931 -0.6955 -0.4820
  998MOL0     H37670   0.823   5.827   9.238 -2.0516 -0.6496 -4.2686
  998MOL0     H37671   0.773   6.062   9.439 -0.6007 -1.2496  1.5873
  998MOL0     H37672   0.818   5.901   9.484 -1.1557  1.1176  0.5185
  998MOL0     H37673   0.944   6.200   9.534  0.6896 -1.7951  2.1574
  998MOL0     H37674   1.287   6.151   9.644 -0.2596  2.1858  0.5536
  998MOL0     H37675   1.217   6.300   9.622  2.3281  0.2388  0.3493
  998MOL0     H37676   1.375   6.211   9.374  2.4325 -3.4527  2.5739
  998MOL0     H37677   1.316   6.375   9.425 -0.6194 -0.0166 -0.3850
  998MOL0     H37678   1.548   6.364   9.438  2.0426 -2.6003 -0.7640
  998MOL0     H37679   1.480   6.376   9.603 -0.4583  0.6062 -0.6403
  998MOL0     H37680   1.539   6.158   9.640 -3.1122 -0.4966 -1.3809
  998MOL0     H37681   1.550   6.117   9.476 -0.0283 -2.2807  1.2430
  998MOL0     H37682   1.706   5.941   9.548  2.1004 -3.0320 -2.8230
  998MOL0     H37683   1.774   5.733   9.641 -1.6218  1.8617 -0.9569
  998MOL0     H37684   1.937   5.691   9.607  2.2934  2.1846  0.8044
  998MOL0     H37685   1.846   5.764   9.468  1.4954 -0.0412 -0.3040
  998MOL0     H37686   2.340   5.650   9.687  0.5696 -0.2090  0.3805
  998MOL0     H37687   2.562   5.573   9.700  0.2912  0.7940 -1.3253
  998MOL0     H37688   2.964   5.682   9.838  0.0135  1.3440 -1.6614
  998MOL0     H37689   2.897   5.840   9.859  0.2768  0.3802  1.1335
  998MOL0     H37690   2.885   5.700  10.059  1.2718 -1.8621 -0.1612
  998MOL0     H37691   2.708   5.717  10.019  0.0644 -2.1692  2.6724
  998MOL0     H37692   2.704   5.499   9.944  2.0885 -0.8252 -2.4962
  998MOL0     H37693   2.801   5.506  10.096 -1.5267 -2.0916 -0.7535
  998MOL0     H37694   2.999   5.471  10.002  0.0388 -0.1821  0.7497
  998MOL0     H37695   2.921   5.462   9.838 -1.2593  0.2059  0.3742
  998MOL0     H37696   2.900   5.267  10.078 -1.1731 -0.2345 -0.8122
  998MOL0     H37697   2.812   5.244   9.929 -0.0497 -1.3206  1.0925
  998MOL0     H37698   3.027   5.238   9.813 -3.0055  2.7275 -0.2036
  998MOL0     H37699   3.014   5.117   9.951 -2.0336  0.8367  2.2926
  998MOL0     H37700   3.149   5.264  10.095  1.8323 -3.1197  0.7358
  998MOL0     H37701   3.185   5.374   9.968  1.7178 -0.6024  0.4348
  998MOL0     H37702   3.264   5.079   9.967 -0.3078  1.4678 -0.1575
  998MOL0     H37703   3.364   5.204  10.021 -1.3595 -0.2603  1.3580
  998MOL0     H37704   2.707   5.952   9.820  1.4260 -2.3705  1.0391
  998MOL0     H37705   2.478   6.061   9.786 -1.0145 -0.7313 -1.1987
  998MOL0     H37706   2.138   6.111   9.713 -0.2999 -0.1330 -0.0233
  998MOL0     H37707   1.946   6.284   9.661 -0.7655  0.8338  0.7386
  998MOL0     H37708   0.153   5.838   8.636  0.4319  1.2673 -1.2776
  998MOL0     H37709   0.118   5.685   8.432  0.6022 -0.9238 -0.6047
  998MOL0     H37710  -0.096   5.258   8.354  1.2952  2.0993 -0.0796
  998MOL0     H37711  -0.158   5.103   8.191  0.9211 -1.5931 -1.6802
  998MOL0     H37712  -0.015   4.901   8.071  0.8840  2.1173  0.9957
  998MOL0     H37713  -0.180   4.946   8.021 -0.1113 -2.2795 -1.3396
  998MOL0     H37714   0.024   4.866   7.820  0.3516 -0.8367  1.8772
  998MOL0     H37715  -0.155   4.892   7.805  0.6177  3.7181  0.9511
  998MOL0     H37716  -0.016   4.683   7.986  0.3850  1.1964 -0.3375
  998MOL0     H37717  -0.186   4.674   7.942  0.0293  0.9800  0.2970
  998MOL0     H37718  -0.054   4.519   7.825 -1.3499 -0.2652 -0.8869
  998MOL0     H37719   0.073   4.635   7.784 -0.1372  1.1744 -0.6050
  998MOL0     H37720  -0.171   4.649   7.447 -0.6639 -2.7466 -0.2257
  998MOL0     H37721   0.140   5.254   7.928 -0.2656 -0.9498 -0.4755
  998MOL0     H37722   0.228   5.544   8.131  2.9032  0.4979  0.4440
  998MOL0     H37723   0.340   5.406   8.123 -0.6214 -0.0684 -0.5863
  998MOL0     H37724   0.252   5.447   7.977 -1.9321  3.1501 -1.0352
  999MOL0     O37725   7.772   8.664   1.665 -0.2555 -0.2006  0.3402
  999MOL0     C37726   7.781   8.585   1.577 -0.5649 -0.1215  1.0094
  999MOL0     O37727   7.890   8.556   1.502 -0.9972 -0.6203 -0.1671
  999MOL0     C37728   8.008   8.625   1.527 -0.2020 -0.4139  0.4728
  999MOL0     C37729   8.042   8.729   1.445 -0.3526 -0.6032  0.5967
  999MOL0     C37730   8.169   8.787   1.466 -0.1211 -0.6072 -0.1906
  999MOL0     C37731   8.266   8.733   1.556 -0.0557  0.1499  0.0330
  999MOL0     O37732   8.384   8.794   1.557 -0.9188 -0.0193 -0.3261
  999MOL0     C37733   8.492   8.763   1.646  0.7928  0.4774 -0.0398
  999MOL0     C37734   8.611   8.864   1.648 -0.7942 -0.2051 -0.0258
  999MOL0     C37735   8.574   9.006   1.693 -0.0745  0.0068  0.5672
  999MOL0     C37736   8.685   9.111   1.675 -0.4327  0.3183  0.1202
  999MOL0     C37737   8.819   9.084   1.733 -0.0797 -0.4534 -0.2047
  999MOL0     C37738   8.902   9.208   1.700  0.0068  0.2098 -0.6169
  999MOL0     C37739   9.048   9.193   1.748 -0.5297  1.2788  0.4816
  999MOL0     C37740   9.139   9.313   1.715  0.0646 -0.0343  0.0873
  999MOL0     N37741   9.273   9.293   1.763 -0.2443 -0.1592 -0.8885
  999MOL0     C37742   9.320   9.373   1.869 -0.6692  0.0810  0.4038
  999MOL0     C37743   9.446   9.324   1.887  0.7855 -0.6459 -0.6799
  999MOL0     C37744   9.551   9.397   1.972  0.2927  0.1213  0.6351
  999MOL0     C37745   9.493   9.498   2.064 -0.4462 -0.2842  0.1838
  999MOL0     C37746   9.599   9.554   2.157 -0.2810 -0.9524  0.7285
  999MOL0     C37747   9.529   9.627   2.264  0.2797 -0.1414  0.5702
  999MOL0     O37748   9.596   9.645   2.388  0.0402  0.5998 -0.2678
  999MOL0     C37749   9.667   9.765   2.400 -0.1721 -0.4868 -1.2947
  999MOL0     C37750   9.730   9.839   2.299  0.5672  0.6411 -0.0991
  999MOL0     C37751   9.809   9.949   2.332  0.0208 -0.4148  0.2163
  999MOL0     C37752   9.868  10.023   2.224 -0.0556 -0.8466 -0.0326
  999MOL0     C37753   9.820   9.992   2.468  0.1811 -0.3373 -0.0390
  999MOL0     C37754   9.904  10.107   2.504  0.4873  0.0199  1.5194
  999MOL0     O37755   9.899  10.223   2.431 -0.7578  0.8714 -0.7117
  999MOL0     C37756   9.983  10.328   2.461  0.0805 -0.6270  0.6620
  999MOL0     C37757   9.986  10.413   2.346 -0.4570  0.3798  0.2606
  999MOL0     C37758  10.058  10.534   2.347  0.0723  0.4863 -0.0722
  999MOL0     C37759  10.132  10.570   2.460  0.3022 -0.2093  0.3208
  999MOL0     O37760  10.198  10.689   2.472 -0.5668 -0.0928  0.3470
  999MOL0     C37761  10.305  10.719   2.377  0.0792 -0.3715 -0.4412
  999MOL0     C37762  10.387  10.838   2.436 -0.2655  0.0222  0.9246
  999MOL0     C37763  10.291  10.968   2.435  0.2855 -0.6177 -0.3865
  999MOL0     C37764  10.353  11.089   2.502 -0.1953 -0.2959  0.1410
  999MOL0     C37765  10.248  11.202   2.508 -0.6591 -0.4680 -0.1333
  999MOL0     C37766  10.273  11.314   2.605 -0.1616 -0.2128 -1.0015
  999MOL0     C37767  10.368  11.425   2.549 -0.3630 -0.1169 -0.5656
  999MOL0     C37768  10.392  11.529   2.657 -0.0690 -0.4811  0.2309
  999MOL0    Cl37769  10.260  11.642   2.700 -0.0285  0.0453  0.0106
  999MOL0     C37770  10.127  10.486   2.574 -1.0499 -0.4023 -0.0227
  999MOL0     C37771  10.052  10.371   2.575 -0.7111  0.0797  0.0643
  999MOL0     O37772   9.985  10.084   2.592 -0.5163  0.2967 -0.5627
  999MOL0     C37773   9.741   9.932   2.563 -0.2037 -0.4143  0.2562
  999MOL0     C37774   9.675   9.811   2.536  0.6841 -0.3119  1.0250
  999MOL0     N37775   9.463   9.207   1.812 -0.7414 -0.4834 -0.6811
  999MOL0     N37776   9.363   9.190   1.740  0.6657 -0.1965  0.0446
  999MOL0     C37777   8.230   8.626   1.637  1.0402 -0.4968  0.4562
  999MOL0     C37778   8.101   8.573   1.621 -0.8102  1.0527  0.7547
  999MOL0     C37779   7.679   8.502   1.542  0.4165  1.1524  0.1687
  999MOL0     C37780   7.565   8.573   1.491 -0.1660 -0.0303 -1.3232
  999MOL0     C37781   7.460   8.502   1.439  1.1749  0.7054  0.0237
  999MOL0     C37782   7.467   8.363   1.405 -0.0888 -0.2502  0.3016
  999MOL0     O37783   7.361   8.296   1.350  0.2064 -0.2643  0.4371
  999MOL0     C37784   7.298   8.356   1.240  0.2052  0.0428 -0.1119
  999MOL0     C37785   7.278   8.255   1.128  0.7311 -0.0506 -0.4447
  999MOL0     C37786   7.401   8.220   1.049 -0.5036  0.0660  0.2875
  999MOL0     C37787   7.368   8.111   0.932 -0.8974 -0.3659 -1.3545
  999MOL0     C37788   7.363   7.967   0.993 -0.4963 -1.1581 -0.1906
  999MOL0     C37789   7.377   7.856   1.030  0.2246  0.6808  0.2675
  999MOL0     C37790   7.580   8.295   1.441 -1.3100 -0.3197  0.2507
  999MOL0     C37791   7.685   8.360   1.507 -0.3093  0.0593  0.4334
  999MOL0     C37792   7.798   8.270   1.554  0.9155 -1.1324 -0.1208
  999MOL0     H37793   7.987   8.747   1.353  0.1765  0.8704  0.5329
  999MOL0     H37794   8.215   8.865   1.406  1.6989 -0.0552  1.7997
  999MOL0     H37795   8.529   8.661   1.636 -0.4671  0.2495 -5.0018
  999MOL0     H37796   8.455   8.765   1.749  0.9706  0.0938  0.0336
  999MOL0     H37797   8.687   8.822   1.715 -0.3836  1.4426  0.6072
  999MOL0     H37798   8.656   8.892   1.553 -2.6160 -1.5191 -1.3418
  999MOL0     H37799   8.482   9.041   1.645  0.0125  2.4214  1.9567
  999MOL0     H37800   8.544   9.002   1.798 -1.6991  1.5578  0.2191
  999MOL0     H37801   8.697   9.137   1.570  1.8318  1.8453  0.6901
  999MOL0     H37802   8.657   9.203   1.728 -0.5058 -0.4031  1.3866
  999MOL0     H37803   8.869   9.002   1.681 -1.3221 -0.5445 -1.3003
  999MOL0     H37804   8.801   9.071   1.840 -2.8068 -2.1528 -0.7684
  999MOL0     H37805   8.906   9.208   1.590 -2.4911 -1.6266 -0.7866
  999MOL0     H37806   8.849   9.297   1.735 -3.2428 -1.6318 -0.4872
  999MOL0     H37807   9.081   9.110   1.685 -0.9462  2.5153 -1.4340
  999MOL0     H37808   9.057   9.156   1.851  1.7070 -2.2271 -0.7833
  999MOL0     H37809   9.143   9.321   1.606  2.8533 -2.1796 -0.0623
  999MOL0     H37810   9.101   9.411   1.745 -2.7559 -1.5397  1.8779
  999MOL0     H37811   9.276   9.465   1.904 -0.3909  1.1793 -1.9267
  999MOL0     H37812   9.622   9.436   1.899 -0.9905 -3.2153 -2.7538
  999MOL0     H37813   9.604   9.314   2.020  1.7558  0.9611  0.5278
  999MOL0     H37814   9.466   9.580   1.997  0.5217 -0.0676  0.0548
  999MOL0     H37815   9.402   9.472   2.119 -0.1551 -1.4754  0.1303
  999MOL0     H37816   9.654   9.467   2.195  2.2302  0.5362  0.7341
  999MOL0     H37817   9.677   9.614   2.109  1.6549 -3.0825  1.0525
  999MOL0     H37818   9.493   9.719   2.215  2.4285 -0.4958 -1.8684
  999MOL0     H37819   9.434   9.575   2.279 -0.4692  0.9836 -0.1135
  999MOL0     H37820   9.717   9.817   2.193 -2.4203  1.6967 -0.0250
  999MOL0     H37821   9.796  10.092   2.179 -0.0326 -0.2712  0.8067
  999MOL0     H37822   9.894   9.963   2.136  0.4213 -0.1921 -0.3467
  999MOL0     H37823   9.962  10.074   2.246  1.8562 -3.6454 -1.1017
  999MOL0     H37824   9.936  10.387   2.253 -0.9011  0.2771  0.5282
  999MOL0     H37825  10.060  10.591   2.255 -3.7128  1.0141  0.0392
  999MOL0     H37826  10.364  10.627   2.371 -0.0840 -0.4768 -0.4075
  999MOL0     H37827  10.272  10.736   2.274  1.2355  0.1730 -0.7426
  999MOL0     H37828  10.411  10.808   2.538 -2.1478  1.6163  1.8948
  999MOL0     H37829  10.482  10.845   2.381 -0.2014 -1.3135  0.8321
  999MOL0     H37830  10.197  10.946   2.486  0.4063 -2.2057 -0.7971
  999MOL0     H37831  10.275  10.995   2.330 -1.6536  2.8500  0.6660
  999MOL0     H37832  10.429  11.132   2.437  0.5759  1.7108  2.2402
  999MOL0     H37833  10.414  11.060   2.588  1.8943 -3.1427 -2.0895
  999MOL0     H37834  10.232  11.250   2.411 -0.2390 -0.2041 -0.0730
  999MOL0     H37835  10.152  11.159   2.537 -0.6508 -1.9588 -2.1264
  999MOL0     H37836  10.308  11.272   2.700 -1.4172  0.5449 -0.1679
  999MOL0     H37837  10.182  11.365   2.636  0.4243  1.3893 -1.7853
  999MOL0     H37838  10.326  11.471   2.458  0.0327 -3.1082 -2.4039
  999MOL0     H37839  10.462  11.373   2.527  0.4480  0.9728  0.2231
  999MOL0     H37840  10.478  11.594   2.640 -1.2440  0.5647 -2.1116
  999MOL0     H37841  10.417  11.469   2.745  2.1997 -0.3732 -0.2899
  999MOL0     H37842  10.182  10.521   2.661 -1.0639  2.3607 -1.0152
  999MOL0     H37843  10.054  10.309   2.664 -2.4091 -1.3106 -0.7880
  999MOL0     H37844   9.755   9.967   2.665 -1.5512 -2.7765  1.3481
  999MOL0     H37845   9.611   9.764   2.610 -0.5075 -0.0902  0.1670
  999MOL0     H37846   8.292   8.574   1.710 -2.0889 -3.9985  0.9042
  999MOL0     H37847   8.072   8.483   1.674  0.8411  1.2372  2.0632
  999MOL0     H37848   7.561   8.681   1.481 -0.0882  0.0857 -0.2602
  999MOL0     H37849   7.370   8.558   1.415  1.8733  2.6785  1.6707
  999MOL0     H37850   7.201   8.397   1.272  0.0432 -0.1957 -0.2926
  999MOL0     H37851   7.352   8.446   1.207  0.1805 -0.2167 -0.8793
  999MOL0     H37852   7.212   8.301   1.055  2.0313  0.5366 -1.2938
  999MOL0     H37853   7.219   8.170   1.162 -0.6973  1.3075  0.5862
  999MOL0     H37854   7.442   8.312   1.007  0.5303  0.0406  1.2080
  999MOL0     H37855   7.479   8.182   1.116 -1.2925 -1.0499  0.6012
  999MOL0     H37856   7.441   8.112   0.850  1.0445  0.7329  0.3138
  999MOL0     H37857   7.265   8.131   0.902 -0.5823 -0.2413 -2.4279
  999MOL0     H37858   7.393   7.757   1.067 -1.0604 -0.9808 -3.1411
  999MOL0     H37859   7.578   8.191   1.409 -1.5922 -0.9411  2.1963
  999MOL0     H37860   7.821   8.302   1.656  0.8078  1.9163 -0.9577
  999MOL0     H37861   7.774   8.163   1.556  2.5813 -1.5544 -0.9976
  999MOL0     H37862   7.890   8.289   1.498  1.4097 -0.1749  0.9751
 1000MOL0     O37863   2.084   3.464   9.991 -0.4302 -0.3221 -0.1639
 1000MOL0     C37864   2.121   3.464   9.876  0.5339 -0.1739 -0.3987
 1000MOL0     O37865   2.239   3.398   9.838 -0.5419 -0.5454 -0.2000
 1000MOL0     C37866   2.335   3.367   9.936  0.5791  0.1009  0.3366
 1000MOL0     C37867   2.362   3.230   9.952 -0.2776 -0.1553 -0.8924
 1000MOL0     C37868   2.467   3.193  10.034  0.3814 -0.2501 -0.2674
 1000MOL0     C37869   2.560   3.286  10.089 -0.6970  0.3660  0.1042
 1000MOL0     O37870   2.651   3.244  10.177  1.0070 -0.0679 -0.1058
 1000MOL0     C37871   2.735   3.135  10.147 -0.5023 -0.0499  0.2039
 1000MOL0     C37872   2.817   3.104  10.275 -0.4607  0.4098 -0.1483
 1000MOL0     C37873   2.750   2.999  10.362 -0.7970  0.9687 -0.0209
 1000MOL0     C37874   2.835   2.946  10.486 -0.1734 -0.4356  0.5670
 1000MOL0     C37875   2.973   2.887  10.453 -0.2215 -0.2425 -0.2963
 1000MOL0     C37876   3.042   2.830  10.587 -0.8883 -0.9664 -0.7384
 1000MOL0     C37877   3.187   2.789  10.549 -0.3409 -0.3571  0.7334
 1000MOL0     C37878   3.264   2.725  10.664 -0.6112  0.1169 -0.4323
 1000MOL0     N37879   3.396   2.677  10.623  0.6564 -0.1208  0.3448
 1000MOL0     C37880   3.463   2.704  10.507 -0.5863  0.6136  0.2928
 1000MOL0     C37881   3.583   2.636  10.511  0.6248  0.0406  0.9441
 1000MOL0     C37882   3.694   2.634  10.410 -0.0156  0.7526  0.3721
 1000MOL0     C37883   3.793   2.513  10.418  0.0350 -0.4741  0.0925
 1000MOL0     C37884   3.945   2.531  10.374 -0.6635  0.3037 -0.4255
 1000MOL0     C37885   4.026   2.396  10.384  1.1172 -0.1611 -0.3537
 1000MOL0     O37886   3.974   2.288  10.309 -0.2911  0.0697 -0.1016
 1000MOL0     C37887   4.022   2.158  10.323  0.6596  0.8516  1.0515
 1000MOL0     C37888   3.964   2.048  10.258 -0.4784 -0.9682 -0.2562
 1000MOL0     C37889   4.016   1.917  10.272  0.2614 -0.6237  0.6888
 1000MOL0     C37890   3.938   1.809  10.205  0.2230  0.1186  0.1481
 1000MOL0     C37891   4.141   1.887  10.346  0.6656  0.7086 -0.5966
 1000MOL0     C37892   4.204   1.755  10.346 -0.0495 -0.1438 -0.4268
 1000MOL0     O37893   4.338   1.755  10.371 -0.3527 -0.8726 -0.8524
 1000MOL0     C37894   4.419   1.650  10.399 -1.1005  0.3250  0.3334
 1000MOL0     C37895   4.528   1.620  10.317 -0.3470 -0.1823  0.5632
 1000MOL0     C37896   4.608   1.512  10.342 -0.8094  0.6308  0.4312
 1000MOL0     C37897   4.586   1.428  10.453  0.0987  1.1200  0.3042
 1000MOL0     O37898   4.670   1.325  10.479  0.1941  0.2511  0.1910
 1000MOL0     C37899   4.753   1.318  10.591 -0.3564  0.0749 -0.1495
 1000MOL0     C37900   4.877   1.243  10.540 -0.5058 -0.4201  0.5402
 1000MOL0     C37901   4.973   1.196  10.655 -0.0615  0.3317  0.0588
 1000MOL0     C37902   5.047   1.301  10.746  0.3053 -1.4200  0.5504
 1000MOL0     C37903   5.154   1.240  10.843  0.6514 -1.1217 -0.8071
 1000MOL0     C37904   5.292   1.224  10.778 -0.6745  0.4532  0.0942
 1000MOL0     C37905   5.391   1.187  10.893 -0.7131  0.9998  0.8540
 1000MOL0     C37906   5.372   1.059  10.967  1.1674 -0.6813  0.9315
 1000MOL0    Cl37907   5.400   0.925  10.843  0.4209  0.0395 -0.2790
 1000MOL0     C37908   4.477   1.451  10.537  0.9899 -0.2126  0.0742
 1000MOL0     C37909   4.398   1.574  10.514  0.1137 -0.8579  0.7144
 1000MOL0     O37910   4.138   1.656  10.338  0.0153 -0.0819 -0.4063
 1000MOL0     C37911   4.194   1.997  10.416 -0.3969 -0.4774 -0.1720
 1000MOL0     C37912   4.134   2.128  10.405  0.7068  0.2357  0.2641
 1000MOL0     N37913   3.576   2.553  10.623 -0.8169 -0.3189  0.1117
 1000MOL0     N37914   3.470   2.584  10.691  0.3695 -0.1340 -0.0422
 1000MOL0     C37915   2.528   3.419  10.076  0.3697 -0.4192 -0.1957
 1000MOL0     C37916   2.417   3.462   9.995  0.6987  0.2619  0.0336
 1000MOL0     C37917   2.041   3.524   9.772  0.1955 -0.6465  0.2012
 1000MOL0     C37918   2.079   3.503   9.634 -0.8213 -0.3469 -0.5301
 1000MOL0     C37919   2.017   3.569   9.526  0.4666 -0.0200 -1.3602
 1000MOL0     C37920   1.900   3.642   9.541 -0.1188 -0.7422 -0.1066
 1000MOL0     O37921   1.861   3.702   9.426 -0.4848 -0.5188  0.2582
 1000MOL0     C37922   1.723   3.725   9.418  0.6945 -0.8106  0.1025
 1000MOL0     C37923   1.660   3.652   9.301  0.0862  0.0932  0.3049
 1000MOL0     C37924   1.512   3.671   9.294  0.2104  0.0016 -0.4427
 1000MOL0     C37925   1.464   3.585   9.179  0.2086  0.4715  0.4161
 1000MOL0     C37926   1.317   3.608   9.155  0.4924  0.4007  0.4646
 1000MOL0     C37927   1.196   3.603   9.126 -0.1400  0.9124 -0.2063
 1000MOL0     C37928   1.859   3.652   9.676 -0.9022 -0.6872 -0.3839
 1000MOL0     C37929   1.923   3.604   9.789 -0.0711 -0.6085 -0.2659
 1000MOL0     C37930   1.874   3.657   9.930 -0.3189  0.1173  0.0129
 1000MOL0     H37931   2.300   3.156   9.902 -0.6792 -0.1099 -0.4574
 1000MOL0     H37932   2.491   3.088  10.049  0.7216 -0.3934 -1.6505
 1000MOL0     H37933   2.795   3.166  10.062  0.0635  1.3536  1.0724
 1000MOL0     H37934   2.684   3.046  10.110  0.0386 -0.6161  0.7840
 1000MOL0     H37935   2.914   3.066  10.242 -2.0024 -3.2024 -0.9531
 1000MOL0     H37936   2.835   3.197  10.330 -0.0977 -0.2090  0.8097
 1000MOL0     H37937   2.663   3.052  10.402 -0.3709  0.8184  1.1290
 1000MOL0     H37938   2.719   2.913  10.302  1.3308 -0.3340  0.6439
 1000MOL0     H37939   2.868   3.033  10.543 -0.8093  0.8630 -0.9564
 1000MOL0     H37940   2.763   2.891  10.548 -2.6711  2.1428  0.1930
 1000MOL0     H37941   3.040   2.964  10.414 -0.0104  1.6266  3.2892
 1000MOL0     H37942   2.948   2.801  10.390 -1.2327 -0.1332 -0.0547
 1000MOL0     H37943   3.051   2.905  10.666  0.6882 -2.0792  0.2046
 1000MOL0     H37944   2.989   2.749  10.638 -1.0699  0.0230  0.7161
 1000MOL0     H37945   3.249   2.866  10.502  0.5604 -1.9734 -0.8445
 1000MOL0     H37946   3.172   2.719  10.466  0.1466  0.6780 -0.2635
 1000MOL0     H37947   3.279   2.804  10.738  2.7543  0.3560 -1.2216
 1000MOL0     H37948   3.202   2.645  10.707  1.1749  0.1053  2.3838
 1000MOL0     H37949   3.439   2.779  10.431  3.0260  0.6769 -0.9816
 1000MOL0     H37950   3.755   2.724  10.419  3.4641 -1.3016 -0.6502
 1000MOL0     H37951   3.648   2.620  10.312 -1.3444  1.9451  0.7929
 1000MOL0     H37952   3.784   2.467  10.517 -0.5672 -2.2921 -0.7599
 1000MOL0     H37953   3.753   2.432  10.356 -2.4870  0.5914  0.2243
 1000MOL0     H37954   3.960   2.568  10.272  2.2832  0.7193  0.0863
 1000MOL0     H37955   3.990   2.609  10.436  0.5655 -0.0522 -0.8371
 1000MOL0     H37956   4.127   2.415  10.345  0.4337 -1.4380 -2.9588
 1000MOL0     H37957   4.029   2.364  10.488  3.4781  1.1612  0.0758
 1000MOL0     H37958   3.868   2.055  10.207 -0.8679 -3.0663  0.0653
 1000MOL0     H37959   4.006   1.763  10.132  2.3857 -0.6131  2.4905
 1000MOL0     H37960   3.842   1.841  10.165 -0.4539  1.2407  2.5365
 1000MOL0     H37961   3.919   1.737  10.285 -0.8520  1.0193  0.7077
 1000MOL0     H37962   4.548   1.671  10.224  2.1543  0.4164  1.3443
 1000MOL0     H37963   4.700   1.493  10.287 -0.9986 -0.1050  0.3529
 1000MOL0     H37964   4.776   1.417  10.631  0.8070 -0.8003  1.4477
 1000MOL0     H37965   4.711   1.262  10.675  0.3436  1.9920  1.5632
 1000MOL0     H37966   4.848   1.153  10.486 -2.7630  0.0582  0.8837
 1000MOL0     H37967   4.935   1.303  10.470 -1.5226  1.8055  1.5189
 1000MOL0     H37968   5.054   1.133  10.618  0.2280  0.5747  0.2728
 1000MOL0     H37969   4.915   1.131  10.722 -0.4639  0.6963  0.0681
 1000MOL0     H37970   4.972   1.352  10.806 -1.9052 -2.0162 -1.5571
 1000MOL0     H37971   5.089   1.379  10.681 -0.8136 -1.1137  0.1809
 1000MOL0     H37972   5.166   1.313  10.924 -1.7060 -1.2835 -0.2371
 1000MOL0     H37973   5.114   1.146  10.882 -0.3850 -0.9154 -1.3307
 1000MOL0     H37974   5.324   1.312  10.720 -0.3346 -0.6926 -1.5357
 1000MOL0     H37975   5.290   1.138  10.711 -2.0366 -0.5772  1.3993
 1000MOL0     H37976   5.394   1.276  10.957 -3.2404  2.6825 -1.1635
 1000MOL0     H37977   5.491   1.182  10.848 -0.7666  1.9661  0.5978
 1000MOL0     H37978   5.274   1.048  11.013 -0.5461  1.4922 -1.8657
 1000MOL0     H37979   5.451   1.035  11.038  1.1561 -1.2549  0.7577
 1000MOL0     H37980   4.461   1.393  10.627  0.1000  0.4315  0.3508
 1000MOL0     H37981   4.317   1.586  10.586  1.5476 -1.0179  2.4094
 1000MOL0     H37982   4.279   1.983  10.482 -1.4919  0.2806  1.4661
 1000MOL0     H37983   4.191   2.210  10.448 -0.3488  1.4386 -0.5326
 1000MOL0     H37984   2.588   3.490  10.132 -0.0511 -0.0023 -0.2596
 1000MOL0     H37985   2.406   3.569   9.977  0.2852  0.4753  1.4545
 1000MOL0     H37986   2.167   3.445   9.609 -1.6053 -0.1619 -4.2914
 1000MOL0     H37987   2.056   3.551   9.426  0.2616  1.1475 -1.6701
 1000MOL0     H37988   1.683   3.704   9.518  1.3267  0.5694  0.6726
 1000MOL0     H37989   1.727   3.833   9.401  1.5524 -0.7736  0.4715
 1000MOL0     H37990   1.692   3.548   9.308 -1.9257 -0.5885 -0.1404
 1000MOL0     H37991   1.696   3.689   9.204 -4.0757 -0.6910 -1.7587
 1000MOL0     H37992   1.464   3.639   9.387  0.9989  2.0501  0.7232
 1000MOL0     H37993   1.490   3.776   9.275  0.4489  0.4060  1.3918
 1000MOL0     H37994   1.493   3.480   9.181  3.8561  1.0849 -3.5574
 1000MOL0     H37995   1.511   3.619   9.086  0.0808 -0.2887  0.0674
 1000MOL0     H37996   1.093   3.591   9.097 -1.3396  2.0171  3.1702
 1000MOL0     H37997   1.774   3.718   9.689 -1.4343 -0.5923 -3.5061
 1000MOL0     H37998   1.944   3.729   9.971 -0.7009 -1.1754  3.2105
 1000MOL0     H37999   1.777   3.709   9.933  0.8475  2.3229  2.1174
 1000MOL0     H38000   1.876   3.576  10.003  0.6817  1.9706  2.1471
 1001MOL0     O38001   7.592  10.252   5.102 -0.2975 -0.7965 -0.1951
 1001MOL0     C38002   7.587  10.376   5.099 -0.1572  0.1063  1.6198
 1001MOL0     O38003   7.652  10.443   5.007 -0.3998 -0.6476 -0.0532
 1001MOL0     C38004   7.668  10.403   4.875 -1.0621  0.1758  0.2667
 1001MOL0     C38005   7.733  10.499   4.795 -0.1903  0.6128 -0.5696
 1001MOL0     C38006   7.766  10.470   4.667  0.7677  0.1257 -0.1358
 1001MOL0     C38007   7.743  10.344   4.604 -0.0620 -0.6720 -0.9206
 1001MOL0     O38008   7.781  10.307   4.466 -0.0744 -0.1600  0.5561
 1001MOL0     C38009   7.760  10.180   4.417 -0.3099 -0.0453 -0.0990
 1001MOL0     C38010   7.792  10.156   4.269  0.6748  0.0536 -0.0994
 1001MOL0     C38011   7.755  10.277   4.180  0.4430  0.5979  0.0759
 1001MOL0     C38012   7.783  10.255   4.043  0.1323  0.3351 -0.1611
 1001MOL0     C38013   7.688  10.146   3.981 -0.5954  0.4428  0.5686
 1001MOL0     C38014   7.700  10.121   3.830  0.5552 -0.2721  0.2118
 1001MOL0     C38015   7.821  10.032   3.792 -0.7018 -0.1586 -0.1474
 1001MOL0     C38016   7.836  10.012   3.643  0.8253  0.7157 -0.5411
 1001MOL0     N38017   7.960   9.937   3.611 -0.2831 -1.0050  0.5850
 1001MOL0     C38018   8.076   9.993   3.562  0.7635  0.2218  0.7804
 1001MOL0     C38019   8.154   9.888   3.540  1.3603 -0.3249  0.5907
 1001MOL0     C38020   8.295   9.886   3.484  0.8918  0.0597 -0.8066
 1001MOL0     C38021   8.402   9.831   3.582  0.3689 -0.4865  0.1286
 1001MOL0     C38022   8.536   9.844   3.517 -0.3337  0.0974 -0.5386
 1001MOL0     C38023   8.641   9.775   3.597 -0.7754 -0.2843 -0.8231
 1001MOL0     O38024   8.635   9.633   3.600  0.0386 -0.1611 -0.3165
 1001MOL0     C38025   8.753   9.558   3.615 -0.3552  0.0260  0.7349
 1001MOL0     C38026   8.740   9.431   3.562  0.1723  0.1921 -0.6530
 1001MOL0     C38027   8.853   9.341   3.571  0.1527  0.0393 -0.0235
 1001MOL0     C38028   8.828   9.207   3.512 -0.2099 -0.1605 -0.6067
 1001MOL0     C38029   8.965   9.378   3.644 -1.9148  0.2541  1.1543
 1001MOL0     C38030   9.088   9.293   3.669  0.2240  0.9418  0.3099
 1001MOL0     O38031   9.086   9.172   3.620 -0.2799  0.1335  0.1128
 1001MOL0     C38032   9.176   9.075   3.658  0.9708  0.8233  0.0375
 1001MOL0     C38033   9.135   8.945   3.606 -0.4004  0.0066  0.8990
 1001MOL0     C38034   9.201   8.830   3.646  0.6913  0.4971  0.2871
 1001MOL0     C38035   9.313   8.836   3.733  0.6241 -0.0038 -1.1194
 1001MOL0     O38036   9.352   8.714   3.780  0.4148  0.6380 -0.3777
 1001MOL0     C38037   9.479   8.712   3.843  0.0104 -0.4488  0.2347
 1001MOL0     C38038   9.534   8.565   3.846 -0.7042 -0.2687 -0.4801
 1001MOL0     C38039   9.651   8.560   3.946  0.2573 -0.7541  0.4062
 1001MOL0     C38040   9.722   8.429   3.937 -0.4137 -0.6550  0.3532
 1001MOL0     C38041   9.828   8.441   4.044 -0.0985 -0.8518  0.7765
 1001MOL0     C38042   9.923   8.323   4.058 -0.0163  0.4037  0.8366
 1001MOL0     C38043   9.979   8.247   3.933  0.6149  0.7280 -0.4021
 1001MOL0     C38044  10.097   8.153   3.980 -0.2044 -1.0705 -0.8342
 1001MOL0    Cl38045  10.046   8.038   4.115  0.2084  0.2527 -0.1971
 1001MOL0     C38046   9.357   8.959   3.772  0.2903  0.1991 -0.3218
 1001MOL0     C38047   9.289   9.080   3.741  0.5380 -0.3868  0.5151
 1001MOL0     O38048   9.181   9.347   3.735  0.5764 -0.3785 -0.3126
 1001MOL0     C38049   8.973   9.511   3.700  0.4246  0.0010  0.8386
 1001MOL0     C38050   8.868   9.597   3.680  0.1833  0.1155  0.3567
 1001MOL0     N38051   8.088   9.774   3.579  0.1169  0.6998 -0.7488
 1001MOL0     N38052   7.965   9.797   3.612  0.5054  0.8173  0.8292
 1001MOL0     C38053   7.673  10.251   4.684 -0.5576 -0.2885 -0.2737
 1001MOL0     C38054   7.631  10.282   4.812 -0.1066  0.1410 -0.4366
 1001MOL0     C38055   7.516  10.457   5.199 -0.6026 -0.1597 -0.0225
 1001MOL0     C38056   7.516  10.595   5.190 -0.0180  0.0559 -0.1729
 1001MOL0     C38057   7.479  10.672   5.294 -0.5515  0.1996  0.4968
 1001MOL0     C38058   7.426  10.622   5.414 -0.3214 -0.2718  0.2341
 1001MOL0     O38059   7.385  10.707   5.514  0.6180 -0.3387  0.1389
 1001MOL0     C38060   7.362  10.848   5.496  0.3985 -0.8593 -0.5789
 1001MOL0     C38061   7.251  10.887   5.393  0.1094 -0.5423 -0.8663
 1001MOL0     C38062   7.127  10.796   5.405  0.8621 -0.8939 -0.0879
 1001MOL0     C38063   6.998  10.863   5.342 -0.3081  0.0827  0.7313
 1001MOL0     C38064   7.014  10.898   5.198  0.1731  0.0093 -0.6869
 1001MOL0     C38065   7.018  10.921   5.083  0.7646 -0.8872  0.5186
 1001MOL0     C38066   7.404  10.485   5.423 -0.4328 -0.6459 -0.5148
 1001MOL0     C38067   7.438  10.403   5.311 -0.7144  0.5886  0.2955
 1001MOL0     C38068   7.417  10.246   5.322  0.2259  0.6090 -0.1559
 1001MOL0     H38069   7.765  10.592   4.841  3.0568 -0.1550 -1.0451
 1001MOL0     H38070   7.801  10.550   4.603  1.7064  0.2701  0.5439
 1001MOL0     H38071   7.654  10.157   4.430 -0.3006  0.2582  0.5417
 1001MOL0     H38072   7.826  10.118   4.479  1.7592  0.5201 -1.6138
 1001MOL0     H38073   7.897  10.123   4.265  0.9588  0.8592  0.5888
 1001MOL0     H38074   7.728  10.070   4.248  0.5011 -1.1441  4.2268
 1001MOL0     H38075   7.655  10.317   4.202  1.7238  3.9692  0.2516
 1001MOL0     H38076   7.828  10.355   4.203  1.4448  0.0638 -1.1580
 1001MOL0     H38077   7.768  10.354   3.998  2.4971  0.9635  0.2758
 1001MOL0     H38078   7.887  10.223   4.027 -0.1677  0.4142 -2.7880
 1001MOL0     H38079   7.587  10.184   3.997  0.5327  3.9493  0.3054
 1001MOL0     H38080   7.694  10.047   4.027  4.4459  0.3140  0.2389
 1001MOL0     H38081   7.607  10.079   3.791 -0.9061  4.4961 -2.1400
 1001MOL0     H38082   7.709  10.223   3.791 -1.7490  0.5808  1.7323
 1001MOL0     H38083   7.813   9.936   3.843 -1.0216 -1.5393 -2.6023
 1001MOL0     H38084   7.913  10.076   3.831 -1.0241  0.4322 -0.0418
 1001MOL0     H38085   7.753   9.954   3.602  0.9318  0.4937 -0.4455
 1001MOL0     H38086   7.832  10.109   3.594 -0.0060  1.3231  0.6601
 1001MOL0     H38087   8.097  10.098   3.541 -0.6123  0.4828  0.6009
 1001MOL0     H38088   8.314   9.992   3.462 -5.0231  1.1765 -2.2369
 1001MOL0     H38089   8.297   9.835   3.387 -3.8395 -1.5098 -0.3052
 1001MOL0     H38090   8.395   9.887   3.676  2.0270  1.3485 -0.7763
 1001MOL0     H38091   8.378   9.724   3.591 -0.4533 -0.5159 -1.8634
 1001MOL0     H38092   8.538   9.790   3.422 -1.9759 -3.2511  1.1653
 1001MOL0     H38093   8.554   9.951   3.500  0.7120  0.1084  0.5096
 1001MOL0     H38094   8.741   9.798   3.558 -0.8218 -2.7719 -2.5995
 1001MOL0     H38095   8.636   9.807   3.702  1.2862  1.3641 -1.1605
 1001MOL0     H38096   8.647   9.406   3.513 -1.4966  2.9141  0.9243
 1001MOL0     H38097   8.906   9.167   3.447  0.0344 -2.1156  0.8076
 1001MOL0     H38098   8.740   9.206   3.447  1.8700  1.2831 -3.6974
 1001MOL0     H38099   8.813   9.142   3.599 -0.8477 -2.1597 -2.1249
 1001MOL0     H38100   9.047   8.925   3.545 -0.4705 -0.3319  1.1044
 1001MOL0     H38101   9.155   8.735   3.619  0.3986  0.7050  0.0538
 1001MOL0     H38102   9.557   8.770   3.793  2.0032 -3.6588 -0.6893
 1001MOL0     H38103   9.470   8.751   3.945 -1.4097 -1.2135  0.4180
 1001MOL0     H38104   9.455   8.492   3.866 -2.4739  1.3952 -1.0828
 1001MOL0     H38105   9.561   8.532   3.745  0.0427  0.2997 -0.4802
 1001MOL0     H38106   9.610   8.575   4.046 -0.1256  2.2027 -0.1107
 1001MOL0     H38107   9.724   8.638   3.922  0.0990 -0.6159  0.3756
 1001MOL0     H38108   9.770   8.412   3.840 -1.4048 -2.4773  0.1435
 1001MOL0     H38109   9.657   8.345   3.961  0.0131 -0.3553  2.8568
 1001MOL0     H38110   9.888   8.531   4.033 -0.6234 -0.4372  1.2136
 1001MOL0     H38111   9.782   8.439   4.143 -1.8138  0.3185  0.0487
 1001MOL0     H38112   9.875   8.245   4.117  1.8469 -0.3362  1.4219
 1001MOL0     H38113  10.006   8.356   4.121  0.7511 -0.3049  0.2211
 1001MOL0     H38114  10.008   8.326   3.863 -2.8627  1.5486 -1.0853
 1001MOL0     H38115   9.904   8.180   3.888 -1.8665  2.7077  0.5909
 1001MOL0     H38116  10.165   8.221   4.033 -2.0738  0.9321 -0.8108
 1001MOL0     H38117  10.149   8.099   3.901 -0.3310 -3.3011  0.5243
 1001MOL0     H38118   9.438   8.970   3.844  0.0094 -1.1835  0.2287
 1001MOL0     H38119   9.334   9.176   3.764 -2.3352  1.4106 -0.8025
 1001MOL0     H38120   9.062   9.558   3.740 -1.2967  3.6789  0.7231
 1001MOL0     H38121   8.868   9.700   3.713  0.3289 -0.0183  0.7871
 1001MOL0     H38122   7.636  10.157   4.645  0.3187 -1.0087  0.5779
 1001MOL0     H38123   7.581  10.205   4.869  1.2981 -1.8863 -1.8051
 1001MOL0     H38124   7.558  10.641   5.102  1.3873  0.1177  0.4981
 1001MOL0     H38125   7.488  10.780   5.287  1.8137 -0.0177 -0.9798
 1001MOL0     H38126   7.332  10.886   5.594 -2.8893 -1.2832 -1.3123
 1001MOL0     H38127   7.460  10.890   5.471  0.6876 -3.2307 -4.1622
 1001MOL0     H38128   7.287  10.880   5.290 -1.6970 -0.5366 -1.5413
 1001MOL0     H38129   7.230  10.990   5.420  1.5410 -0.2902 -0.6213
 1001MOL0     H38130   7.149  10.707   5.347  1.2211  0.6145 -2.4167
 1001MOL0     H38131   7.107  10.782   5.511  2.0144 -2.0599 -0.0067
 1001MOL0     H38132   6.963  10.948   5.402 -3.0011 -1.6596  1.8753
 1001MOL0     H38133   6.918  10.789   5.350 -0.8672  0.6189  0.1656
 1001MOL0     H38134   7.016  10.940   4.978 -3.0053 -1.1864  0.3861
 1001MOL0     H38135   7.361  10.451   5.517 -1.5615  1.9379  0.0018
 1001MOL0     H38136   7.349  10.224   5.406  0.4894  1.1874  0.2143
 1001MOL0     H38137   7.369  10.204   5.233 -0.3339  0.7856  0.0554
 1001MOL0     H38138   7.512  10.193   5.330  2.5167  4.1686 -1.3548
 1002MOL0     O38139   2.848   7.803   8.855  0.4652  0.5241  0.2425
 1002MOL0     C38140   2.909   7.806   8.960 -1.0613  0.2832  0.0058
 1002MOL0     O38141   2.954   7.929   9.015  0.2476 -0.4664 -0.2691
 1002MOL0     C38142   2.934   8.040   8.946  0.0244 -0.3495  0.7423
 1002MOL0     C38143   2.812   8.105   8.938 -0.6842 -0.0113  1.1890
 1002MOL0     C38144   2.802   8.224   8.854  0.7527 -0.5961  0.5454
 1002MOL0     C38145   2.912   8.276   8.790 -0.1484  0.7640  0.7543
 1002MOL0     O38146   2.915   8.383   8.700  0.0917 -0.1652  0.2224
 1002MOL0     C38147   2.789   8.442   8.663 -0.0722 -1.0841 -0.3204
 1002MOL0     C38148   2.792   8.576   8.582  0.3737 -0.7600  0.9174
 1002MOL0     C38149   2.894   8.688   8.627 -0.2386 -0.5688  0.3123
 1002MOL0     C38150   2.907   8.806   8.533  0.3826 -0.9796 -0.3169
 1002MOL0     C38151   3.054   8.856   8.523 -1.3188 -0.4394  0.5099
 1002MOL0     C38152   3.074   8.966   8.415 -0.1722 -0.0443 -0.3500
 1002MOL0     C38153   3.223   9.020   8.409  0.5536  0.4248 -0.3229
 1002MOL0     C38154   3.323   8.925   8.345  0.0968 -0.9033 -0.6624
 1002MOL0     N38155   3.461   8.975   8.362 -0.4159  0.2656  0.3210
 1002MOL0     C38156   3.506   9.046   8.467 -0.0741 -0.0495  0.2156
 1002MOL0     C38157   3.617   9.111   8.423 -0.5228  0.1715 -0.1537
 1002MOL0     C38158   3.703   9.219   8.494  0.0118 -0.0071  0.1548
 1002MOL0     C38159   3.840   9.242   8.422  0.1488  0.7094 -0.5207
 1002MOL0     C38160   3.928   9.116   8.458  0.1882 -0.4014  0.2578
 1002MOL0     C38161   4.067   9.163   8.432  1.2417  0.1705 -0.2987
 1002MOL0     O38162   4.155   9.049   8.465  0.4253 -0.2291 -0.2366
 1002MOL0     C38163   4.287   9.071   8.488 -0.2096 -0.1564  0.1471
 1002MOL0     C38164   4.347   9.196   8.476  0.0263 -0.3670 -0.4679
 1002MOL0     C38165   4.482   9.212   8.521 -0.1602 -0.2748 -0.0920
 1002MOL0     C38166   4.532   9.352   8.517 -0.2520 -0.8655  0.1186
 1002MOL0     C38167   4.565   9.093   8.534  0.7630  0.7493  0.3287
 1002MOL0     C38168   4.710   9.094   8.561  0.0454 -0.9302  0.4778
 1002MOL0     O38169   4.771   8.991   8.636 -0.0874  0.1545  0.9189
 1002MOL0     C38170   4.912   8.971   8.620  0.2304  1.3036  0.3375
 1002MOL0     C38171   5.009   8.973   8.723  0.2924  0.0747  0.1994
 1002MOL0     C38172   5.147   8.966   8.694  0.7086  1.6793  0.4608
 1002MOL0     C38173   5.187   8.951   8.556 -0.4306  0.0024  0.8688
 1002MOL0     O38174   5.325   8.956   8.519 -0.0513 -0.1458 -0.3343
 1002MOL0     C38175   5.422   8.898   8.621 -0.1339 -0.7058  0.5891
 1002MOL0     C38176   5.571   8.937   8.569 -0.1411 -0.2168  0.1722
 1002MOL0     C38177   5.688   8.870   8.652  1.3691 -0.0197 -0.0734
 1002MOL0     C38178   5.829   8.899   8.587  0.0796 -0.3218 -0.2825
 1002MOL0     C38179   5.865   9.049   8.605 -0.2293  0.3958 -0.8130
 1002MOL0     C38180   5.926   9.077   8.736  0.0640  0.8439 -0.8253
 1002MOL0     C38181   5.985   9.217   8.743  0.5019  0.9058  0.4770
 1002MOL0     C38182   6.068   9.235   8.867 -0.7380  0.7431  0.2780
 1002MOL0    Cl38183   6.107   9.408   8.898 -0.2803  0.0878  0.2911
 1002MOL0     C38184   5.092   8.947   8.463 -0.5623  0.9537  0.5482
 1002MOL0     C38185   4.957   8.950   8.490 -0.1930 -0.4561  0.4030
 1002MOL0     O38186   4.769   9.190   8.510 -0.6194 -0.2054  0.9718
 1002MOL0     C38187   4.502   8.966   8.529  0.5100 -0.3527 -0.5470
 1002MOL0     C38188   4.366   8.959   8.510 -0.1583  1.1213  1.0638
 1002MOL0     N38189   3.640   9.064   8.298 -0.1163  0.1536  0.3612
 1002MOL0     N38190   3.548   8.987   8.254 -0.1929 -0.1483 -0.1728
 1002MOL0     C38191   3.040   8.214   8.805 -0.4409 -0.1409  1.5312
 1002MOL0     C38192   3.048   8.095   8.880 -0.4459  0.3368  0.4096
 1002MOL0     C38193   2.945   7.672   9.031 -0.0820  0.2887  0.2161
 1002MOL0     C38194   3.055   7.682   9.117  0.5870 -1.7078  0.2929
 1002MOL0     C38195   3.106   7.574   9.178  0.3494  0.0248 -0.5080
 1002MOL0     C38196   3.047   7.443   9.173  0.5077 -0.1735  0.2745
 1002MOL0     O38197   3.089   7.333   9.240  0.1662  0.7566  0.6159
 1002MOL0     C38198   3.151   7.343   9.366 -0.3641 -1.5285  0.0264
 1002MOL0     C38199   3.067   7.280   9.466  0.0072  0.2772  0.2967
 1002MOL0     C38200   2.918   7.314   9.481 -0.1819 -0.1616  0.2161
 1002MOL0     C38201   2.841   7.249   9.596  0.1599  0.1248 -0.4481
 1002MOL0     C38202   2.865   7.311   9.725 -0.4902  0.1270  0.1272
 1002MOL0     C38203   2.875   7.364   9.836  1.0355  0.5062 -0.3777
 1002MOL0     C38204   2.933   7.433   9.087  0.1837 -0.0330  0.2142
 1002MOL0     C38205   2.883   7.545   9.015  0.2779 -0.7435  0.2453
 1002MOL0     C38206   2.781   7.529   8.910  0.3674  0.1158 -0.5201
 1002MOL0     H38207   2.723   8.065   8.986 -1.9011  1.5487  0.2934
 1002MOL0     H38208   2.697   8.250   8.844 -0.1898 -4.0547  0.0832
 1002MOL0     H38209   2.724   8.466   8.748  0.7523  0.7819 -0.1733
 1002MOL0     H38210   2.745   8.362   8.603 -0.6871 -0.8098 -0.2363
 1002MOL0     H38211   2.823   8.550   8.480  2.5968  0.7531  1.1229
 1002MOL0     H38212   2.690   8.615   8.577  0.4097 -0.8403 -1.1269
 1002MOL0     H38213   2.869   8.709   8.732 -0.4211 -1.2430  0.4153
 1002MOL0     H38214   2.991   8.639   8.620  1.6177  3.1139 -3.8905
 1002MOL0     H38215   2.870   8.771   8.436 -4.8580 -2.5281  1.8788
 1002MOL0     H38216   2.844   8.884   8.576 -0.6968 -1.1422 -1.5521
 1002MOL0     H38217   3.125   8.774   8.508 -1.6300 -0.4250 -1.2813
 1002MOL0     H38218   3.081   8.887   8.624  0.0932 -0.6947  0.2282
 1002MOL0     H38219   3.045   8.925   8.318  0.4519  0.8684 -0.9349
 1002MOL0     H38220   3.005   9.048   8.436 -1.7569 -0.8006 -2.3262
 1002MOL0     H38221   3.251   9.053   8.510  0.3397  2.2076 -0.8195
 1002MOL0     H38222   3.213   9.112   8.352  0.2834  1.2301  0.9822
 1002MOL0     H38223   3.314   8.827   8.393 -1.3862 -2.0417 -3.0599
 1002MOL0     H38224   3.297   8.909   8.240 -0.5857 -0.3086 -0.5933
 1002MOL0     H38225   3.467   9.056   8.568  2.4452 -1.3245  1.4104
 1002MOL0     H38226   3.721   9.175   8.593  2.2149 -0.0619 -0.2254
 1002MOL0     H38227   3.646   9.311   8.507 -2.5469 -1.4803  0.2023
 1002MOL0     H38228   3.831   9.256   8.314 -0.1029  2.5827 -0.2904
 1002MOL0     H38229   3.880   9.331   8.473  0.0569  0.2020  0.4525
 1002MOL0     H38230   3.916   9.082   8.561 -2.5428 -0.0568  0.1343
 1002MOL0     H38231   3.892   9.038   8.390 -1.5628 -1.9345  2.7829
 1002MOL0     H38232   4.077   9.197   8.329  1.0426 -1.6349 -0.9410
 1002MOL0     H38233   4.075   9.244   8.505 -0.7972 -1.1506  1.5109
 1002MOL0     H38234   4.300   9.281   8.430  4.4885  0.9397 -3.2798
 1002MOL0     H38235   4.626   9.374   8.569  2.8132 -0.3652 -4.9084
 1002MOL0     H38236   4.460   9.423   8.558 -0.3183  0.8202 -2.6976
 1002MOL0     H38237   4.553   9.375   8.412  0.5089  1.7723  0.7867
 1002MOL0     H38238   4.985   8.989   8.827  0.0127 -1.2680  0.3583
 1002MOL0     H38239   5.222   8.965   8.772  1.7148  1.0717 -0.4858
 1002MOL0     H38240   5.416   8.937   8.724 -0.7772  1.6637 -0.2795
 1002MOL0     H38241   5.413   8.790   8.634 -0.2678 -0.7471  0.1331
 1002MOL0     H38242   5.566   8.906   8.464 -0.3679  0.5022 -0.0328
 1002MOL0     H38243   5.582   9.045   8.576  0.8909 -0.1788 -1.3642
 1002MOL0     H38244   5.670   8.763   8.638  0.2906 -0.1908  2.1900
 1002MOL0     H38245   5.681   8.902   8.756  1.0018 -2.0813  0.5841
 1002MOL0     H38246   5.823   8.883   8.479 -0.0368 -0.0307 -0.3209
 1002MOL0     H38247   5.904   8.835   8.635 -1.3288 -0.5823  1.7260
 1002MOL0     H38248   5.939   9.078   8.530 -0.3266 -0.7861 -1.3773
 1002MOL0     H38249   5.778   9.114   8.595 -1.2344 -0.5031  1.4688
 1002MOL0     H38250   6.005   9.005   8.759 -1.1725 -0.7961 -1.4799
 1002MOL0     H38251   5.849   9.073   8.814  0.2406  0.5144 -0.6674
 1002MOL0     H38252   5.904   9.291   8.743 -1.6338 -1.2954  0.8717
 1002MOL0     H38253   6.048   9.232   8.655 -1.2389  0.7543 -0.8517
 1002MOL0     H38254   6.159   9.174   8.864  0.4133  2.3354  1.0859
 1002MOL0     H38255   6.014   9.194   8.953  1.3427  0.4706  1.5472
 1002MOL0     H38256   5.123   8.962   8.360  0.4188  1.0254  0.8415
 1002MOL0     H38257   4.898   8.942   8.400 -2.5819  0.5913  1.7860
 1002MOL0     H38258   4.560   8.875   8.541 -0.5111 -0.7724  1.6583
 1002MOL0     H38259   4.311   8.865   8.515  0.6155  0.3304 -2.4531
 1002MOL0     H38260   3.130   8.263   8.768 -1.2670  1.8952  2.0587
 1002MOL0     H38261   3.144   8.046   8.883 -0.8970 -0.9695 -2.4584
 1002MOL0     H38262   3.100   7.781   9.122 -0.6536 -1.1733  3.3209
 1002MOL0     H38263   3.185   7.590   9.251 -2.0735  2.9664  1.7713
 1002MOL0     H38264   3.251   7.299   9.361  0.4576  0.1912  0.4367
 1002MOL0     H38265   3.162   7.449   9.392 -0.7339 -1.0995 -1.4770
 1002MOL0     H38266   3.111   7.298   9.565  3.9587  1.0130 -1.3849
 1002MOL0     H38267   3.075   7.173   9.447  0.8460  0.2832  0.5531
 1002MOL0     H38268   2.910   7.419   9.510 -0.8244 -0.2956  0.5256
 1002MOL0     H38269   2.880   7.295   9.380  0.8525  0.2220 -0.2666
 1002MOL0     H38270   2.870   7.144   9.602  0.3286  0.2821  2.6447
 1002MOL0     H38271   2.736   7.259   9.566 -0.3044  1.1922  1.4369
 1002MOL0     H38272   2.879   7.413   9.932 -1.2670  3.5256 -1.6391
 1002MOL0     H38273   2.888   7.337   9.069  1.8745 -0.9175  0.5025
 1002MOL0     H38274   2.755   7.422   8.914 -1.3679  0.5107 -0.3899
 1002MOL0     H38275   2.695   7.594   8.927  0.7419  0.5322 -0.2212
 1002MOL0     H38276   2.824   7.551   8.812 -0.5324  0.4524 -0.8452
 1003MOL0     O38277   2.113   1.684   1.975  1.0712  0.4743 -0.1117
 1003MOL0     C38278   2.096   1.654   1.856 -0.1543 -0.8917 -1.5302
 1003MOL0     O38279   2.192   1.666   1.763  1.2810  0.4045 -0.1862
 1003MOL0     C38280   2.321   1.667   1.799  0.0817  0.3712 -0.3576
 1003MOL0     C38281   2.409   1.758   1.742  0.1865 -0.0760  0.6082
 1003MOL0     C38282   2.542   1.748   1.770 -0.0281 -0.6882  0.0685
 1003MOL0     C38283   2.597   1.673   1.868 -0.4154  1.8273  0.5863
 1003MOL0     O38284   2.733   1.700   1.898  0.1919  0.8863 -0.0942
 1003MOL0     C38285   2.791   1.601   1.974  0.3645 -0.1851  0.3602
 1003MOL0     C38286   2.945   1.628   1.975 -0.7312  0.2603 -0.3103
 1003MOL0     C38287   3.012   1.609   1.833  0.0141  0.6483 -0.4253
 1003MOL0     C38288   3.155   1.662   1.838 -0.0083 -0.6463 -0.8678
 1003MOL0     C38289   3.215   1.667   1.690 -0.1953  0.6284  0.5554
 1003MOL0     C38290   3.210   1.541   1.610  0.2427  0.1356 -0.3102
 1003MOL0     C38291   3.265   1.555   1.467  0.6211 -0.1392  0.0669
 1003MOL0     C38292   3.250   1.420   1.393 -0.0174  0.0790  0.1164
 1003MOL0     N38293   3.289   1.430   1.259 -0.5472 -0.1727 -0.1724
 1003MOL0     C38294   3.215   1.492   1.164 -0.3813  0.4811 -0.2787
 1003MOL0     C38295   3.290   1.475   1.048  0.4975 -0.4167 -0.1183
 1003MOL0     C38296   3.262   1.541   0.908  0.0672 -0.2249  0.1298
 1003MOL0     C38297   3.309   1.682   0.900 -0.5774  0.0514 -0.4632
 1003MOL0     C38298   3.251   1.756   0.775 -0.6218 -0.0413 -0.5883
 1003MOL0     C38299   3.306   1.891   0.730  0.1617  0.1111 -0.0116
 1003MOL0     O38300   3.308   1.982   0.841 -0.6067 -0.7400 -0.4765
 1003MOL0     C38301   3.425   1.996   0.920 -0.2161 -0.3335 -0.0736
 1003MOL0     C38302   3.415   2.089   1.023 -0.1766  0.3105 -0.3781
 1003MOL0     C38303   3.525   2.139   1.097 -0.5862  0.1553 -0.6408
 1003MOL0     C38304   3.496   2.260   1.178  0.3452 -0.2382  0.3676
 1003MOL0     C38305   3.653   2.087   1.069 -0.8096  0.7130 -1.4855
 1003MOL0     C38306   3.785   2.122   1.136  0.7773  0.2233  0.1976
 1003MOL0     O38307   3.895   2.061   1.078 -0.4229 -0.1811 -0.9923
 1003MOL0     C38308   4.025   2.092   1.126  0.5156 -0.4596 -0.2802
 1003MOL0     C38309   4.083   2.222   1.124 -0.7417  0.1995  0.1283
 1003MOL0     C38310   4.231   2.237   1.135  0.3528 -0.7466 -0.2887
 1003MOL0     C38311   4.304   2.131   1.181 -0.2796  0.3306 -0.1064
 1003MOL0     O38312   4.437   2.137   1.202  0.5447  0.4083 -0.1994
 1003MOL0     C38313   4.492   2.267   1.223 -0.0857  0.3577 -0.2268
 1003MOL0     C38314   4.649   2.253   1.217  0.4521  0.0317 -0.3956
 1003MOL0     C38315   4.691   2.155   1.104  0.3941  0.0989 -0.1989
 1003MOL0     C38316   4.840   2.135   1.102 -0.0817  0.3289 -0.1607
 1003MOL0     C38317   4.918   2.263   1.090 -0.4756  0.0384 -0.5138
 1003MOL0     C38318   5.061   2.231   1.028  0.7388  0.4072 -0.0342
 1003MOL0     C38319   5.151   2.354   1.056  0.1852 -0.4645  0.6692
 1003MOL0     C38320   5.213   2.416   0.924 -0.4588  0.1626  0.1722
 1003MOL0    Cl38321   5.080   2.506   0.842 -0.2434 -0.0343  0.7814
 1003MOL0     C38322   4.234   2.017   1.216  0.2524 -0.4527 -0.1881
 1003MOL0     C38323   4.106   1.994   1.178  0.4277  0.5157 -0.9877
 1003MOL0     O38324   3.787   2.197   1.235 -0.0619 -0.6333 -0.2796
 1003MOL0     C38325   3.648   1.985   0.967 -0.3120  0.8285  0.2403
 1003MOL0     C38326   3.541   1.938   0.896  0.2239  0.5327 -0.0226
 1003MOL0     N38327   3.415   1.439   1.091 -1.1393  0.0865  0.2619
 1003MOL0     N38328   3.418   1.408   1.216 -0.5225 -0.5741 -0.1755
 1003MOL0     C38329   2.512   1.588   1.928  0.4416  0.3951 -0.5355
 1003MOL0     C38330   2.380   1.575   1.888  0.9264 -1.0216 -0.2518
 1003MOL0     C38331   1.952   1.643   1.813  0.4304  0.1973  0.2816
 1003MOL0     C38332   1.913   1.720   1.696 -0.2790 -0.6570  0.1061
 1003MOL0     C38333   1.777   1.736   1.664  0.0543 -0.4118  0.2229
 1003MOL0     C38334   1.687   1.680   1.748 -0.5937 -0.2885 -0.2201
 1003MOL0     O38335   1.556   1.686   1.703  0.2093 -0.0705  0.7046
 1003MOL0     C38336   1.449   1.693   1.789  0.2486  0.3512 -0.3836
 1003MOL0     C38337   1.435   1.812   1.890 -0.3495  0.0533 -0.0059
 1003MOL0     C38338   1.536   1.796   1.997 -0.1497  0.6104  0.5341
 1003MOL0     C38339   1.521   1.913   2.101 -0.0469  0.7636  0.2702
 1003MOL0     C38340   1.606   1.894   2.212 -0.0740  0.0248  0.6191
 1003MOL0     C38341   1.687   1.865   2.299 -0.6568 -0.2241  0.5977
 1003MOL0     C38342   1.720   1.596   1.862 -0.4624  0.7572 -0.4505
 1003MOL0     C38343   1.854   1.583   1.895  0.1650 -0.0437  0.1481
 1003MOL0     C38344   1.882   1.491   2.010 -0.1004 -0.1386  0.1109
 1003MOL0     H38345   2.363   1.839   1.686  1.8023  0.6002  0.2161
 1003MOL0     H38346   2.602   1.823   1.719 -1.8107  1.2991  0.7321
 1003MOL0     H38347   2.766   1.511   1.919 -3.7419  0.8714  0.1672
 1003MOL0     H38348   2.747   1.600   2.074 -1.1905 -2.3706 -0.2996
 1003MOL0     H38349   2.964   1.730   2.010  1.4046  0.7729 -2.6431
 1003MOL0     H38350   2.983   1.554   2.046  0.8161  0.2953 -1.0661
 1003MOL0     H38351   3.018   1.504   1.801 -2.8141  0.5901 -1.0364
 1003MOL0     H38352   2.960   1.665   1.754 -1.1750  1.2124  0.7249
 1003MOL0     H38353   3.160   1.763   1.877  1.0131 -1.2951  0.7599
 1003MOL0     H38354   3.219   1.599   1.900  1.9528  1.2552 -0.8646
 1003MOL0     H38355   3.322   1.686   1.705  0.2340 -1.2299  0.0751
 1003MOL0     H38356   3.167   1.757   1.650 -1.3100  0.2754  1.0584
 1003MOL0     H38357   3.251   1.459   1.671 -1.2716 -0.8330 -0.5469
 1003MOL0     H38358   3.104   1.518   1.596  0.6839 -2.7059  0.4025
 1003MOL0     H38359   3.366   1.599   1.465  0.4514  0.3010 -2.4582
 1003MOL0     H38360   3.204   1.636   1.426 -3.0155 -0.4829  4.0493
 1003MOL0     H38361   3.321   1.347   1.434  2.3459  2.5328  0.7382
 1003MOL0     H38362   3.146   1.389   1.395  0.5906 -2.0911  0.3972
 1003MOL0     H38363   3.113   1.527   1.167 -0.0835  1.4717 -1.3237
 1003MOL0     H38364   3.156   1.534   0.882 -0.4027  0.7394  1.6288
 1003MOL0     H38365   3.314   1.481   0.833 -0.4456 -0.8684  0.2708
 1003MOL0     H38366   3.273   1.730   0.991  2.3369 -1.7620  1.8196
 1003MOL0     H38367   3.419   1.680   0.901 -0.4538  2.1910  2.3865
 1003MOL0     H38368   3.262   1.675   0.702 -1.2834 -0.7153  0.0321
 1003MOL0     H38369   3.143   1.755   0.796 -0.3264 -2.5746  1.3892
 1003MOL0     H38370   3.405   1.869   0.690 -0.0304 -0.6809 -0.0613
 1003MOL0     H38371   3.249   1.930   0.645  0.2704 -1.5839 -0.8925
 1003MOL0     H38372   3.318   2.137   1.029  1.4849  3.8070  3.8444
 1003MOL0     H38373   3.391   2.265   1.206 -0.3976 -2.7574 -1.6329
 1003MOL0     H38374   3.538   2.353   1.138  1.0586 -0.1664  1.2431
 1003MOL0     H38375   3.540   2.243   1.277 -1.2540 -3.3087  0.6724
 1003MOL0     H38376   4.008   2.297   1.101 -0.6305  0.1211 -0.5108
 1003MOL0     H38377   4.273   2.332   1.102 -1.2963  0.1223 -0.0264
 1003MOL0     H38378   4.478   2.347   1.150  0.6297  1.8198  1.1469
 1003MOL0     H38379   4.457   2.298   1.322  0.1928 -0.6309  0.1994
 1003MOL0     H38380   4.696   2.349   1.197  0.1664  0.5357  1.2553
 1003MOL0     H38381   4.691   2.204   1.306  1.9447  0.1997 -0.9807
 1003MOL0     H38382   4.651   2.187   1.008 -0.5787 -0.9246 -0.1487
 1003MOL0     H38383   4.646   2.058   1.127 -1.0472  0.9156  0.6106
 1003MOL0     H38384   4.865   2.063   1.023 -2.6610 -1.9875  0.9367
 1003MOL0     H38385   4.870   2.077   1.190  1.1534  2.2462  0.7414
 1003MOL0     H38386   4.865   2.334   1.025 -2.1556 -1.0105 -0.3338
 1003MOL0     H38387   4.927   2.300   1.193 -0.4851  0.9930 -0.8434
 1003MOL0     H38388   5.054   2.228   0.918  0.7427 -0.9229 -0.0090
 1003MOL0     H38389   5.107   2.134   1.046 -1.1765 -0.5578 -0.1373
 1003MOL0     H38390   5.234   2.319   1.119  0.6325  0.8578  0.8380
 1003MOL0     H38391   5.098   2.434   1.108 -1.0886 -2.3254  2.3872
 1003MOL0     H38392   5.268   2.348   0.857 -0.2729  1.1748 -0.7170
 1003MOL0     H38393   5.279   2.499   0.952 -1.5804  1.3866 -0.7207
 1003MOL0     H38394   4.291   1.943   1.271  1.0618 -1.0574 -1.7585
 1003MOL0     H38395   4.076   1.890   1.180  0.4876  0.4585 -2.1734
 1003MOL0     H38396   3.731   1.916   0.958 -1.4151 -0.3544 -1.4961
 1003MOL0     H38397   3.555   1.859   0.822 -0.2342  0.2246  0.2168
 1003MOL0     H38398   2.538   1.524   2.012 -0.2262  2.1866  1.0891
 1003MOL0     H38399   2.322   1.504   1.945 -1.8181  0.5314 -0.9200
 1003MOL0     H38400   1.992   1.769   1.639 -0.2775 -1.0739 -0.2573
 1003MOL0     H38401   1.738   1.790   1.579 -3.9689 -1.0431  1.4211
 1003MOL0     H38402   1.356   1.692   1.733  1.0628 -4.4224 -2.0862
 1003MOL0     H38403   1.437   1.597   1.841 -1.8257 -0.1305 -1.6445
 1003MOL0     H38404   1.339   1.802   1.941 -0.3830 -0.5514 -0.1802
 1003MOL0     H38405   1.443   1.909   1.840  1.9577  0.8246  1.6817
 1003MOL0     H38406   1.532   1.698   2.045  1.6240 -0.8748 -2.0878
 1003MOL0     H38407   1.644   1.802   1.978  0.1220 -1.6938  1.0514
 1003MOL0     H38408   1.419   1.908   2.141 -0.2160 -0.7876 -0.2872
 1003MOL0     H38409   1.539   2.010   2.054  1.9005 -0.1042 -0.8542
 1003MOL0     H38410   1.754   1.826   2.373  1.7790  2.0098 -0.2722
 1003MOL0     H38411   1.637   1.556   1.920 -0.5453 -1.5623 -2.0090
 1003MOL0     H38412   1.909   1.541   2.104 -1.4824 -1.3200  1.1769
 1003MOL0     H38413   1.799   1.424   2.035 -0.8906  1.1405  1.0949
 1003MOL0     H38414   1.964   1.425   1.981 -1.1242 -1.6354  0.4868
 1004MOL0     O38415   1.907   4.471   6.964 -0.9655 -0.3520 -0.0748
 1004MOL0     C38416   1.824   4.550   7.001  0.2244  0.2464 -0.6046
 1004MOL0     O38417   1.851   4.662   7.086 -0.7948  0.8034  0.0478
 1004MOL0     C38418   1.973   4.722   7.080 -0.0590  0.4858  0.3230
 1004MOL0     C38419   2.072   4.704   6.978 -0.0343 -0.1719 -0.8866
 1004MOL0     C38420   2.197   4.769   6.990 -0.7446  0.3066 -1.0651
 1004MOL0     C38421   2.231   4.850   7.102  1.0050  0.7997  0.7227
 1004MOL0     O38422   2.356   4.901   7.104  0.4671  0.4062 -0.0541
 1004MOL0     C38423   2.390   4.961   7.226 -0.5582  0.1908 -0.1872
 1004MOL0     C38424   2.528   5.012   7.194 -0.0830 -0.9269 -0.6440
 1004MOL0     C38425   2.630   4.997   7.310 -0.7401  0.3925  0.4280
 1004MOL0     C38426   2.743   5.103   7.299 -0.0663 -0.0560  0.1547
 1004MOL0     C38427   2.870   5.049   7.364 -0.9973  0.0651 -0.0744
 1004MOL0     C38428   2.990   5.138   7.333  0.3144 -0.3207 -0.4903
 1004MOL0     C38429   3.124   5.049   7.311  0.5477 -0.3259 -0.1321
 1004MOL0     C38430   3.157   4.955   7.425  0.5778 -0.9989 -0.0124
 1004MOL0     N38431   3.288   4.898   7.427  0.0488  0.4801 -0.1950
 1004MOL0     C38432   3.387   4.924   7.520  0.4877  0.1088 -0.3053
 1004MOL0     C38433   3.487   4.842   7.502 -0.1651 -0.1392  0.1085
 1004MOL0     C38434   3.625   4.842   7.554  0.4731  0.4144 -0.0155
 1004MOL0     C38435   3.712   4.941   7.484 -0.2010 -0.0872 -0.2280
 1004MOL0     C38436   3.863   4.920   7.543  0.4166 -0.0551 -0.3702
 1004MOL0     C38437   3.972   4.991   7.462 -0.8627 -0.2963 -0.5127
 1004MOL0     O38438   4.096   4.935   7.517 -0.0992 -0.3952 -0.2235
 1004MOL0     C38439   4.154   4.973   7.636  0.0026  0.4825  0.1058
 1004MOL0     C38440   4.103   5.058   7.728  0.0704 -0.2050  0.5592
 1004MOL0     C38441   4.162   5.089   7.851  0.2265  0.7111 -0.6204
 1004MOL0     C38442   4.101   5.192   7.934  0.3402 -1.1096 -0.6050
 1004MOL0     C38443   4.276   5.015   7.888 -0.0902  0.0272 -0.8419
 1004MOL0     C38444   4.345   5.023   8.024 -0.0036 -0.0287 -0.0489
 1004MOL0     O38445   4.315   5.126   8.116 -0.4101 -0.3879  0.0006
 1004MOL0     C38446   4.378   5.138   8.237 -0.0566  0.8388  0.8621
 1004MOL0     C38447   4.517   5.158   8.249 -0.0538  0.0249 -0.5373
 1004MOL0     C38448   4.574   5.166   8.378  0.0630 -0.2306 -0.4373
 1004MOL0     C38449   4.491   5.179   8.489  0.6987  0.5592 -0.9416
 1004MOL0     O38450   4.537   5.201   8.617 -0.5710 -0.2366  0.1731
 1004MOL0     C38451   4.678   5.228   8.625 -0.3009  0.5611  0.6699
 1004MOL0     C38452   4.689   5.282   8.768  0.2247  0.2587  0.4870
 1004MOL0     C38453   4.826   5.234   8.817 -0.1108 -0.1642 -0.4306
 1004MOL0     C38454   4.839   5.285   8.957 -0.1323 -0.4163 -0.5100
 1004MOL0     C38455   4.961   5.221   9.036  0.0250 -0.1671  0.6362
 1004MOL0     C38456   4.959   5.071   9.049 -0.2293 -0.1483  0.3495
 1004MOL0     C38457   5.040   5.020   9.171  0.2947 -0.1366 -0.6108
 1004MOL0     C38458   5.191   5.038   9.141  1.1398  0.2916 -0.2157
 1004MOL0    Cl38459   5.256   4.935   9.027 -0.2213  0.1917  0.3022
 1004MOL0     C38460   4.355   5.161   8.477  0.0767 -0.5183 -0.2954
 1004MOL0     C38461   4.301   5.143   8.348  0.3199  0.1566 -0.2029
 1004MOL0     O38462   4.430   4.932   8.052  0.1114  0.1404  0.2515
 1004MOL0     C38463   4.323   4.915   7.794 -0.9644  0.1968 -0.4222
 1004MOL0     C38464   4.266   4.896   7.669  0.6763  0.1357 -0.6536
 1004MOL0     N38465   3.451   4.762   7.396  0.7674  0.8862  0.0834
 1004MOL0     N38466   3.330   4.793   7.353 -0.1125  0.2564  0.3688
 1004MOL0     C38467   2.127   4.874   7.193 -0.0232  0.8420 -0.4597
 1004MOL0     C38468   2.002   4.816   7.178 -0.6136 -0.3216 -0.3948
 1004MOL0     C38469   1.679   4.514   6.988  0.0141 -0.5920 -1.0277
 1004MOL0     C38470   1.594   4.567   7.097  0.6308 -0.3797  0.4030
 1004MOL0     C38471   1.456   4.547   7.101  0.1457  0.1309 -0.8135
 1004MOL0     C38472   1.404   4.464   7.004 -0.2878 -0.8439 -0.2634
 1004MOL0     O38473   1.270   4.442   7.020 -0.2596 -0.4077  0.3895
 1004MOL0     C38474   1.203   4.444   6.886  0.0440 -0.0928  0.5141
 1004MOL0     C38475   1.053   4.497   6.896 -0.1782 -0.0668 -0.2795
 1004MOL0     C38476   1.042   4.636   6.981  0.5228  0.4070  0.8841
 1004MOL0     C38477   0.895   4.689   6.985 -0.2040  0.3374  0.3527
 1004MOL0     C38478   0.859   4.768   6.864  0.7642 -0.3941  0.3177
 1004MOL0     C38479   0.844   4.800   6.750  0.1468 -0.9566  0.5464
 1004MOL0     C38480   1.486   4.422   6.888  0.7182 -0.2936 -0.2970
 1004MOL0     C38481   1.625   4.429   6.886  0.7329 -0.0273 -0.3728
 1004MOL0     C38482   1.708   4.363   6.779  0.0630 -0.9720  0.2956
 1004MOL0     H38483   2.062   4.632   6.897  1.3720 -3.4914  1.6338
 1004MOL0     H38484   2.265   4.764   6.906  0.8773  0.4604  0.1782
 1004MOL0     H38485   2.398   4.888   7.307 -0.2233 -1.7879 -1.8819
 1004MOL0     H38486   2.328   5.043   7.263 -2.1228 -2.1448  2.8835
 1004MOL0     H38487   2.570   4.962   7.107 -0.5475  0.5751 -1.7730
 1004MOL0     H38488   2.511   5.117   7.167 -1.8121 -0.1448  2.8482
 1004MOL0     H38489   2.575   5.008   7.404  1.4924  2.0867  1.6467
 1004MOL0     H38490   2.669   4.895   7.310 -1.0320  0.2039 -2.2174
 1004MOL0     H38491   2.756   5.132   7.194 -1.3513  1.1437  0.2904
 1004MOL0     H38492   2.715   5.183   7.368  0.9568 -1.8546  2.8052
 1004MOL0     H38493   2.905   4.947   7.347  3.3625  1.0000  1.9864
 1004MOL0     H38494   2.846   5.046   7.470  2.4295 -1.2735  0.7629
 1004MOL0     H38495   2.975   5.195   7.242 -2.2229  3.6570  2.1223
 1004MOL0     H38496   3.004   5.212   7.412  1.6411 -0.6659 -0.3771
 1004MOL0     H38497   3.205   5.121   7.300  0.8943 -0.7317 -0.2834
 1004MOL0     H38498   3.114   4.990   7.219 -1.1851 -1.5918  0.8088
 1004MOL0     H38499   3.141   5.015   7.515  0.8254  2.8702 -2.3211
 1004MOL0     H38500   3.096   4.869   7.400 -0.7933  0.7628 -3.3446
 1004MOL0     H38501   3.385   5.009   7.587  1.8577 -1.0936  1.3439
 1004MOL0     H38502   3.662   4.740   7.543 -0.4935  0.2800 -3.4814
 1004MOL0     H38503   3.616   4.865   7.660  0.5729 -1.1515  0.3524
 1004MOL0     H38504   3.716   4.936   7.375  1.1908  0.6575 -0.2370
 1004MOL0     H38505   3.687   5.048   7.489  3.5677  0.8965  1.3572
 1004MOL0     H38506   3.864   4.932   7.652 -1.3860 -2.8488  0.0606
 1004MOL0     H38507   3.887   4.815   7.525 -0.1830 -0.2916  0.1894
 1004MOL0     H38508   3.960   4.959   7.358  0.3442 -1.6680 -0.2492
 1004MOL0     H38509   3.964   5.100   7.474 -0.7936 -0.5733  3.2160
 1004MOL0     H38510   4.012   5.110   7.699 -2.1153 -4.7854 -2.0188
 1004MOL0     H38511   4.025   5.247   7.879  2.8045  0.9122 -2.2710
 1004MOL0     H38512   4.177   5.265   7.964 -0.1089  0.0267 -2.0934
 1004MOL0     H38513   4.065   5.149   8.027 -0.9930  0.3544 -0.4069
 1004MOL0     H38514   4.583   5.158   8.163  0.6909  0.7419  0.0132
 1004MOL0     H38515   4.680   5.150   8.398 -0.1482 -0.7161  0.3378
 1004MOL0     H38516   4.730   5.132   8.616  1.1945  1.5377 -2.9079
 1004MOL0     H38517   4.719   5.299   8.553 -1.1435  0.1104 -0.2781
 1004MOL0     H38518   4.682   5.391   8.773 -1.2659  0.2253 -0.2412
 1004MOL0     H38519   4.618   5.233   8.835  1.0619  2.9137  3.5518
 1004MOL0     H38520   4.895   5.281   8.746 -1.0687  1.5691 -0.2778
 1004MOL0     H38521   4.823   5.125   8.810 -4.2069 -0.4784  2.6167
 1004MOL0     H38522   4.747   5.277   9.016 -1.9756  0.9549 -2.9767
 1004MOL0     H38523   4.874   5.388   8.960  0.1771 -0.5559  1.0058
 1004MOL0     H38524   5.047   5.255   8.978  0.0493  3.6270  2.5411
 1004MOL0     H38525   4.964   5.277   9.130  2.5739  0.5947  0.1696
 1004MOL0     H38526   4.980   5.029   8.951 -0.5668 -0.8113  0.5539
 1004MOL0     H38527   4.853   5.050   9.065 -1.6045  4.6193 -0.9285
 1004MOL0     H38528   5.021   4.916   9.197  0.9852  0.2375  1.5774
 1004MOL0     H38529   5.010   5.085   9.254 -0.7968  0.7091 -1.6159
 1004MOL0     H38530   5.238   5.012   9.236  3.8939  0.1892 -1.5073
 1004MOL0     H38531   5.213   5.143   9.121 -2.0259  0.8163 -1.5167
 1004MOL0     H38532   4.283   5.174   8.557 -0.1308  1.8900 -0.7929
 1004MOL0     H38533   4.196   5.133   8.320  1.1375  0.6205 -3.9165
 1004MOL0     H38534   4.407   4.850   7.815 -2.9935 -1.5963  3.0972
 1004MOL0     H38535   4.314   4.825   7.603  0.0674 -1.3034  0.3974
 1004MOL0     H38536   2.141   4.934   7.283 -2.3447  0.6636  0.0898
 1004MOL0     H38537   1.936   4.842   7.260  1.5261  0.9396  1.0316
 1004MOL0     H38538   1.644   4.628   7.171  4.0356  0.5303 -2.3691
 1004MOL0     H38539   1.397   4.592   7.180 -0.9837 -1.0003 -0.9717
 1004MOL0     H38540   1.247   4.518   6.818  4.3205 -1.8828  1.0053
 1004MOL0     H38541   1.206   4.348   6.834  1.6377  1.5668 -2.7343
 1004MOL0     H38542   1.008   4.417   6.956 -0.0398 -0.5595 -0.8282
 1004MOL0     H38543   0.997   4.507   6.803 -2.3404 -0.0364  0.9356
 1004MOL0     H38544   1.072   4.622   7.085 -3.0464 -1.1559  1.8555
 1004MOL0     H38545   1.096   4.712   6.924 -0.4651 -0.0970 -0.8005
 1004MOL0     H38546   0.881   4.753   7.073  0.5813  0.6246  0.2764
 1004MOL0     H38547   0.819   4.614   7.008  0.6370 -0.1876  1.5353
 1004MOL0     H38548   0.837   4.815   6.644 -0.8017 -0.7968  0.6306
 1004MOL0     H38549   1.433   4.361   6.816  1.1883  0.7922 -1.5913
 1004MOL0     H38550   1.648   4.322   6.697 -0.3417  1.3534 -0.6317
 1004MOL0     H38551   1.767   4.445   6.736 -0.6078 -1.3622 -1.4489
 1004MOL0     H38552   1.777   4.287   6.819  0.8969 -0.2279  0.3050
 1005MOL0     O38553   4.380   7.206   6.194 -0.7686 -0.4254 -0.3192
 1005MOL0     C38554   4.334   7.144   6.289 -0.2405  0.2934  0.6716
 1005MOL0     O38555   4.409   7.066   6.373  0.3570 -0.0797 -0.2513
 1005MOL0     C38556   4.546   7.062   6.374  0.6044 -0.0871  0.6448
 1005MOL0     C38557   4.604   6.957   6.443  0.0350 -0.5605  0.3571
 1005MOL0     C38558   4.736   6.952   6.474 -0.1178  0.3690  0.5657
 1005MOL0     C38559   4.822   7.050   6.433  0.1451 -0.1101  0.0255
 1005MOL0     O38560   4.961   7.044   6.448 -0.4635 -0.4038 -0.1698
 1005MOL0     C38561   5.021   6.943   6.521  0.0389  1.3238 -0.2956
 1005MOL0     C38562   5.024   6.976   6.678  0.5702 -0.1334  0.3759
 1005MOL0     C38563   5.106   7.097   6.712 -0.3788  0.1335  0.3504
 1005MOL0     C38564   5.256   7.086   6.697 -0.0701  0.0225  0.1887
 1005MOL0     C38565   5.321   7.190   6.793 -0.7143 -1.2534 -0.4599
 1005MOL0     C38566   5.457   7.215   6.748 -0.8429 -0.2263 -0.1220
 1005MOL0     C38567   5.534   7.322   6.825  0.0529 -0.5903 -0.3754
 1005MOL0     C38568   5.689   7.329   6.798  0.0610  0.3086  0.3873
 1005MOL0     N38569   5.747   7.458   6.846  0.7748 -0.6087  0.9041
 1005MOL0     C38570   5.766   7.489   6.976 -0.2298 -0.1518  0.6772
 1005MOL0     C38571   5.802   7.613   6.976 -0.5664 -0.6031 -0.0476
 1005MOL0     C38572   5.824   7.705   7.089  0.3836  0.1428  0.7803
 1005MOL0     C38573   5.954   7.794   7.073 -0.2758  0.2222  0.8527
 1005MOL0     C38574   6.094   7.722   7.046  0.5100 -0.4258 -0.1080
 1005MOL0     C38575   6.206   7.808   7.004  0.9994  0.7093 -0.7892
 1005MOL0     O38576   6.248   7.879   7.118  0.0175  0.0767 -0.4768
 1005MOL0     C38577   6.367   7.957   7.112  0.0644 -0.4748 -0.3069
 1005MOL0     C38578   6.409   8.030   7.222  0.3194  0.4251  0.2072
 1005MOL0     C38579   6.526   8.112   7.219  0.0243 -0.7428  0.8433
 1005MOL0     C38580   6.571   8.177   7.349 -0.2589 -0.8177  0.1393
 1005MOL0     C38581   6.595   8.134   7.092  0.0265  0.4521 -0.3978
 1005MOL0     C38582   6.729   8.204   7.083  0.6095 -1.1147  0.7999
 1005MOL0     O38583   6.786   8.185   6.957 -0.0348 -0.6136 -0.3162
 1005MOL0     C38584   6.894   8.264   6.922 -0.2098 -0.1290 -0.7879
 1005MOL0     C38585   7.012   8.209   6.862 -0.2409  0.0988  0.6059
 1005MOL0     C38586   7.113   8.292   6.823  0.5713 -0.0736 -0.4487
 1005MOL0     C38587   7.115   8.427   6.853 -0.3271 -0.8319  1.0758
 1005MOL0     O38588   7.220   8.499   6.816  1.0335 -0.1601  0.0477
 1005MOL0     C38589   7.208   8.647   6.796  0.4264  0.9368  0.2039
 1005MOL0     C38590   7.353   8.695   6.773  0.6199  0.0091  0.2165
 1005MOL0     C38591   7.399   8.642   6.632  0.1518 -0.6730 -0.9401
 1005MOL0     C38592   7.553   8.618   6.628  0.0857  0.3626 -0.0590
 1005MOL0     C38593   7.591   8.565   6.487  0.6813 -0.4190 -1.0137
 1005MOL0     C38594   7.739   8.547   6.479  0.5824  0.7644 -0.0557
 1005MOL0     C38595   7.774   8.448   6.366  0.2369  0.9075 -0.1385
 1005MOL0     C38596   7.708   8.459   6.229 -0.7005  0.4659  0.2851
 1005MOL0    Cl38597   7.786   8.331   6.117  0.1043  0.0837 -0.2293
 1005MOL0     C38598   6.994   8.488   6.900  0.2440 -0.7769  0.0016
 1005MOL0     C38599   6.889   8.409   6.944 -0.3712  0.2657 -0.0086
 1005MOL0     O38600   6.764   8.281   7.175 -0.7602  0.3509  1.1410
 1005MOL0     C38601   6.549   8.060   6.983 -0.2805 -0.2522  0.3244
 1005MOL0     C38602   6.440   7.982   6.992  1.0268  0.2147  0.1695
 1005MOL0     N38603   5.812   7.656   6.839 -0.4282 -0.7603 -0.2683
 1005MOL0     N38604   5.793   7.552   6.764 -0.0039 -0.9320 -0.7288
 1005MOL0     C38605   4.767   7.163   6.373 -0.6343  0.3356  0.4473
 1005MOL0     C38606   4.631   7.163   6.342  0.2629 -0.2879  0.8773
 1005MOL0     C38607   4.189   7.163   6.333  0.2931 -0.2815 -0.1458
 1005MOL0     C38608   4.133   7.112   6.456 -0.5523 -0.3569 -0.4325
 1005MOL0     C38609   4.003   7.155   6.493 -0.3013 -0.8818 -0.2241
 1005MOL0     C38610   3.917   7.217   6.404 -0.8544 -0.4489 -0.0812
 1005MOL0     O38611   3.781   7.247   6.420 -0.5641 -0.3692  0.7682
 1005MOL0     C38612   3.702   7.149   6.492  0.1515 -0.2282  0.4221
 1005MOL0     C38613   3.551   7.139   6.454  0.1751  0.1903 -0.9356
 1005MOL0     C38614   3.497   7.191   6.321  0.1310 -0.2696 -0.8944
 1005MOL0     C38615   3.350   7.145   6.312  0.0292  0.2984  0.1082
 1005MOL0     C38616   3.332   7.001   6.303 -0.8910  0.1673  0.1565
 1005MOL0     C38617   3.308   6.883   6.303 -0.9527 -0.0223 -0.9714
 1005MOL0     C38618   3.967   7.254   6.282  0.5511  0.0152 -0.3854
 1005MOL0     C38619   4.101   7.224   6.244  0.3924 -0.0661  0.0038
 1005MOL0     C38620   4.128   7.244   6.094 -0.1866  0.4437 -0.5464
 1005MOL0     H38621   4.538   6.880   6.481 -0.0869 -0.2830  0.7146
 1005MOL0     H38622   4.759   6.874   6.546 -1.2946  0.6406  1.2664
 1005MOL0     H38623   5.127   6.923   6.502 -0.4525 -2.0246 -0.0350
 1005MOL0     H38624   4.965   6.851   6.500  1.4456  0.5323 -0.6849
 1005MOL0     H38625   4.920   6.986   6.709  0.9151  1.5330  1.0942
 1005MOL0     H38626   5.057   6.880   6.719  0.4051  0.6970  2.5283
 1005MOL0     H38627   5.070   7.175   6.644  0.1452  1.3706  1.4330
 1005MOL0     H38628   5.078   7.137   6.810 -0.6367  1.4957 -0.2494
 1005MOL0     H38629   5.278   6.987   6.737  1.2664  0.3516  0.3283
 1005MOL0     H38630   5.294   7.093   6.595  0.2688  0.1296  0.3178
 1005MOL0     H38631   5.303   7.158   6.896 -1.8158 -0.2883 -0.3371
 1005MOL0     H38632   5.270   7.286   6.785 -1.3948 -1.5419  0.2134
 1005MOL0     H38633   5.502   7.116   6.758 -0.6175 -0.0358  0.8290
 1005MOL0     H38634   5.463   7.240   6.641 -0.3184  1.9905  0.3663
 1005MOL0     H38635   5.521   7.307   6.933 -0.4845  0.3452 -0.2999
 1005MOL0     H38636   5.497   7.420   6.795 -2.8281 -1.8487 -1.2741
 1005MOL0     H38637   5.738   7.241   6.841  2.2010  1.1236 -0.2324
 1005MOL0     H38638   5.697   7.324   6.689  2.3790 -0.8121  0.5378
 1005MOL0     H38639   5.764   7.426   7.064  3.6900  1.3243  2.0604
 1005MOL0     H38640   5.835   7.651   7.184  1.6992 -0.1757  0.4648
 1005MOL0     H38641   5.739   7.772   7.100 -0.2688 -0.7340  1.1905
 1005MOL0     H38642   5.929   7.880   7.012 -0.8790  0.6946  1.7410
 1005MOL0     H38643   5.968   7.838   7.172 -0.1776 -0.6400  1.2318
 1005MOL0     H38644   6.116   7.659   7.133  0.0288  0.4482  0.6682
 1005MOL0     H38645   6.079   7.648   6.967  2.6630  1.2846 -2.3040
 1005MOL0     H38646   6.289   7.741   6.979 -1.5078 -2.8672 -0.3574
 1005MOL0     H38647   6.174   7.866   6.917  0.5758 -0.4930 -1.4613
 1005MOL0     H38648   6.366   8.014   7.320  2.6663 -2.6205  0.9036
 1005MOL0     H38649   6.506   8.142   7.429 -1.0310  1.3005  0.5197
 1005MOL0     H38650   6.549   8.284   7.355  0.0096 -0.8724  3.1043
 1005MOL0     H38651   6.676   8.148   7.364 -0.2990 -0.3986  1.2876
 1005MOL0     H38652   7.027   8.104   6.838 -0.9083 -0.1526  1.2801
 1005MOL0     H38653   7.199   8.248   6.774 -0.3305  1.9230 -4.2802
 1005MOL0     H38654   7.138   8.670   6.715  2.2192 -0.4328 -1.8813
 1005MOL0     H38655   7.168   8.698   6.884 -2.0394  2.3832 -1.6380
 1005MOL0     H38656   7.367   8.804   6.781  1.1757 -0.0890  0.6389
 1005MOL0     H38657   7.416   8.660   6.855 -1.4031 -0.3706  1.6801
 1005MOL0     H38658   7.361   8.715   6.560  0.6283  0.4823 -0.0557
 1005MOL0     H38659   7.355   8.545   6.610  0.8809 -0.7573 -2.0764
 1005MOL0     H38660   7.581   8.538   6.697  2.1127 -1.6231 -2.9330
 1005MOL0     H38661   7.603   8.713   6.650 -0.7742  0.8917 -0.3098
 1005MOL0     H38662   7.541   8.470   6.466  2.3101 -1.5131 -0.1266
 1005MOL0     H38663   7.550   8.630   6.409 -1.2518 -1.0096 -0.5459
 1005MOL0     H38664   7.783   8.506   6.569  0.6856  0.6240 -0.1703
 1005MOL0     H38665   7.785   8.645   6.461  1.1813  0.1752 -1.9643
 1005MOL0     H38666   7.756   8.349   6.409  0.8878  1.6906  2.1314
 1005MOL0     H38667   7.881   8.455   6.345  0.3330 -1.5137 -0.7314
 1005MOL0     H38668   7.724   8.564   6.202 -0.6896  0.7817  1.4560
 1005MOL0     H38669   7.602   8.436   6.241 -0.0235 -1.6108  3.6934
 1005MOL0     H38670   6.973   8.594   6.902  0.8133 -0.5890 -2.2575
 1005MOL0     H38671   6.801   8.466   6.971 -0.3866  0.2250  0.0271
 1005MOL0     H38672   6.607   8.060   6.891 -0.1430  0.6806  0.4021
 1005MOL0     H38673   6.401   7.928   6.905 -2.0267  1.2196  0.7820
 1005MOL0     H38674   4.838   7.241   6.348 -1.1036  0.3634 -0.8948
 1005MOL0     H38675   4.589   7.252   6.297 -0.1545 -1.7977 -1.9867
 1005MOL0     H38676   4.183   7.051   6.531 -0.2668 -0.9193 -1.0740
 1005MOL0     H38677   3.975   7.119   6.591  1.3361 -2.6241 -0.3507
 1005MOL0     H38678   3.746   7.051   6.469  1.8611  0.7580 -0.7758
 1005MOL0     H38679   3.711   7.169   6.599  0.1606 -1.1381  0.5970
 1005MOL0     H38680   3.505   7.203   6.531  1.4535 -2.1664  2.0081
 1005MOL0     H38681   3.516   7.038   6.479 -0.1062  0.9045  1.8977
 1005MOL0     H38682   3.494   7.298   6.301  2.4698 -0.0666 -0.4953
 1005MOL0     H38683   3.568   7.147   6.250 -0.4397  2.8566 -3.6466
 1005MOL0     H38684   3.298   7.195   6.230  1.0185  1.1755 -0.0074
 1005MOL0     H38685   3.294   7.173   6.402 -2.0785 -0.5371 -0.8837
 1005MOL0     H38686   3.300   6.777   6.299  1.7174 -0.4613  1.5597
 1005MOL0     H38687   3.891   7.292   6.214 -2.4969  0.2278  2.8407
 1005MOL0     H38688   4.173   7.343   6.082  0.1401  0.5006  0.9614
 1005MOL0     H38689   4.200   7.172   6.053  2.0309  1.4800  1.2831
 1005MOL0     H38690   4.036   7.224   6.038 -1.2866 -1.8327  1.8281
 1006MOL0     O38691   5.111   3.341   4.258  0.0242  0.2222  0.4830
 1006MOL0     C38692   5.108   3.226   4.208 -0.0502 -0.4283  0.3033
 1006MOL0     O38693   5.160   3.195   4.086 -0.4593 -0.0144  0.7529
 1006MOL0     C38694   5.211   3.297   4.017  0.2142  0.3509  0.5002
 1006MOL0     C38695   5.145   3.365   3.923  0.4070 -0.7822 -0.0053
 1006MOL0     C38696   5.211   3.470   3.844  0.5869  0.1482 -0.0268
 1006MOL0     C38697   5.344   3.498   3.864  0.8599 -0.6522  0.1595
 1006MOL0     O38698   5.423   3.577   3.786 -0.2376  0.2155 -0.0987
 1006MOL0     C38699   5.354   3.673   3.706 -0.5162 -0.4546 -1.0057
 1006MOL0     C38700   5.360   3.626   3.566 -0.2935  0.1748  0.2838
 1006MOL0     C38701   5.334   3.735   3.461  0.8142  0.5436  0.2617
 1006MOL0     C38702   5.356   3.691   3.313 -0.5672  0.0424 -0.5295
 1006MOL0     C38703   5.330   3.801   3.207  0.5719 -0.4251 -0.3594
 1006MOL0     C38704   5.449   3.895   3.205  0.0933  0.4065  1.1582
 1006MOL0     C38705   5.415   4.012   3.117  0.1964 -0.2729  0.5951
 1006MOL0     C38706   5.544   4.101   3.071  0.2472 -0.5686 -0.1739
 1006MOL0     N38707   5.498   4.230   3.015  0.4791  0.7898  0.6283
 1006MOL0     C38708   5.494   4.359   3.069  0.8802 -0.1244 -0.3892
 1006MOL0     C38709   5.433   4.435   2.967 -0.6060  0.7945 -0.9721
 1006MOL0     C38710   5.383   4.572   2.950  0.3063  0.3798 -0.7270
 1006MOL0     C38711   5.239   4.572   2.907 -0.7952 -0.1437  0.4659
 1006MOL0     C38712   5.147   4.545   3.023  0.4250  0.3600  1.0544
 1006MOL0     C38713   5.155   4.403   3.082 -0.5133 -0.2663 -0.5650
 1006MOL0     O38714   5.029   4.380   3.144 -0.5000  0.3145  1.2715
 1006MOL0     C38715   5.026   4.370   3.281 -0.9138  0.6134 -0.3268
 1006MOL0     C38716   5.047   4.238   3.333 -0.3019 -0.0860 -0.2690
 1006MOL0     C38717   5.027   4.209   3.473 -0.0326  0.1828 -0.2847
 1006MOL0     C38718   5.039   4.062   3.516 -0.1674 -0.0850 -0.3479
 1006MOL0     C38719   4.997   4.313   3.563 -0.2948 -1.0277 -0.1035
 1006MOL0     C38720   4.969   4.285   3.710 -0.4441 -0.1208 -0.2302
 1006MOL0     O38721   4.858   4.335   3.758 -0.2121  0.0331 -0.0511
 1006MOL0     C38722   4.838   4.302   3.888 -0.3138  0.5768  0.2406
 1006MOL0     C38723   4.893   4.380   3.985  0.3973  0.5364 -0.4158
 1006MOL0     C38724   4.906   4.328   4.108  0.4168 -0.4815 -0.5484
 1006MOL0     C38725   4.860   4.197   4.142  0.6285  0.3772  0.8315
 1006MOL0     O38726   4.866   4.158   4.275 -0.1192 -0.2043 -0.3403
 1006MOL0     C38727   4.816   4.023   4.305 -0.7072  0.7838  0.5416
 1006MOL0     C38728   4.656   4.002   4.312  0.0604  0.7933 -0.5374
 1006MOL0     C38729   4.593   4.067   4.438 -0.4834 -0.2603  0.2422
 1006MOL0     C38730   4.440   4.059   4.439  0.4478  0.1987 -0.8505
 1006MOL0     C38731   4.389   4.050   4.586 -0.1686 -0.5872  0.5068
 1006MOL0     C38732   4.396   3.898   4.634 -0.2814 -0.5320 -0.2674
 1006MOL0     C38733   4.279   3.823   4.562 -0.3119 -0.2411  0.4259
 1006MOL0     C38734   4.195   3.741   4.650 -0.2404  0.2472 -0.4322
 1006MOL0    Cl38735   4.271   3.575   4.693  0.1949  0.4431 -0.2760
 1006MOL0     C38736   4.800   4.125   4.039  0.2281  0.2012 -0.0864
 1006MOL0     C38737   4.790   4.167   3.911 -0.5209 -0.8691 -0.4888
 1006MOL0     O38738   5.052   4.218   3.771 -0.5230  0.0461 -0.5475
 1006MOL0     C38739   4.984   4.439   3.508 -0.3147  0.2903 -0.1959
 1006MOL0     C38740   4.994   4.470   3.370  0.1294  0.9340  0.0033
 1006MOL0     N38741   5.419   4.344   2.859  1.3859  0.2959 -0.0138
 1006MOL0     N38742   5.462   4.226   2.884  0.6058 -0.1884  0.2390
 1006MOL0     C38743   5.412   3.416   3.950 -0.9748 -1.0427 -0.0029
 1006MOL0     C38744   5.350   3.322   4.027  0.0887 -0.1116 -0.3895
 1006MOL0     C38745   5.029   3.125   4.279 -0.1137  0.5162 -0.4023
 1006MOL0     C38746   4.935   3.052   4.197 -0.8691  0.1513 -0.0043
 1006MOL0     C38747   4.858   2.957   4.250 -0.1384  0.0870  0.7957
 1006MOL0     C38748   4.861   2.937   4.387  0.3822  0.4294  0.2146
 1006MOL0     O38749   4.771   2.844   4.438  0.2133 -0.1493  0.1781
 1006MOL0     C38750   4.832   2.720   4.476  0.1299  0.5764 -0.1786
 1006MOL0     C38751   4.732   2.599   4.479  0.8229  1.0688 -0.3836
 1006MOL0     C38752   4.595   2.627   4.537 -0.1077 -0.2968 -0.3829
 1006MOL0     C38753   4.612   2.667   4.682  0.2318  0.4026  0.3372
 1006MOL0     C38754   4.494   2.671   4.764  0.3277  0.0482 -0.4832
 1006MOL0     C38755   4.397   2.692   4.830 -0.1432 -0.4381  0.2627
 1006MOL0     C38756   4.942   3.009   4.473  0.0621 -0.0672  0.7666
 1006MOL0     C38757   5.022   3.114   4.418 -0.5919 -0.3146 -0.3735
 1006MOL0     C38758   5.099   3.190   4.520  0.8575 -0.4911 -0.2879
 1006MOL0     H38759   5.037   3.366   3.914  0.3851  3.4478 -2.0559
 1006MOL0     H38760   5.145   3.510   3.768  0.1249 -0.4089  0.0721
 1006MOL0     H38761   5.408   3.768   3.703 -2.2261  0.5788 -4.3723
 1006MOL0     H38762   5.256   3.705   3.741  1.1812  1.5572  2.4378
 1006MOL0     H38763   5.462   3.590   3.549 -0.2299  1.4323 -2.5415
 1006MOL0     H38764   5.291   3.543   3.549 -1.9592  1.3735  0.9572
 1006MOL0     H38765   5.230   3.764   3.479  0.8976 -0.6624  3.1563
 1006MOL0     H38766   5.403   3.817   3.483  0.3538  1.1047 -0.3280
 1006MOL0     H38767   5.453   3.644   3.292 -1.1728 -0.4588 -2.3670
 1006MOL0     H38768   5.281   3.611   3.307  0.8737 -1.4289  0.1147
 1006MOL0     H38769   5.241   3.860   3.228  1.9436  1.8505 -0.5338
 1006MOL0     H38770   5.318   3.758   3.107  0.1599 -3.2125  0.7929
 1006MOL0     H38771   5.481   3.923   3.306 -1.2767 -2.8436  2.6310
 1006MOL0     H38772   5.528   3.835   3.158  1.0350  1.6573  1.0741
 1006MOL0     H38773   5.335   4.071   3.161  0.5091 -0.1149  0.9543
 1006MOL0     H38774   5.373   3.976   3.022 -1.1502  1.4867  0.4841
 1006MOL0     H38775   5.619   4.125   3.147  1.7443  0.1165 -1.8106
 1006MOL0     H38776   5.590   4.052   2.984  5.7231  2.4130  0.5750
 1006MOL0     H38777   5.518   4.397   3.168  1.8348 -0.8715 -0.3118
 1006MOL0     H38778   5.450   4.620   2.878 -0.2850 -1.0879 -2.3167
 1006MOL0     H38779   5.388   4.624   3.046  1.1893  0.4209 -0.7871
 1006MOL0     H38780   5.219   4.675   2.876  1.4591 -0.4714 -2.4420
 1006MOL0     H38781   5.224   4.502   2.824 -1.6168 -0.5935  0.9821
 1006MOL0     H38782   5.160   4.628   3.092  2.2526  0.7483  0.3042
 1006MOL0     H38783   5.048   4.554   2.978 -0.2753 -3.0048  1.6264
 1006MOL0     H38784   5.163   4.328   3.004  0.3890  2.8234 -3.6759
 1006MOL0     H38785   5.230   4.392   3.161 -0.6982  2.3509  0.0784
 1006MOL0     H38786   5.079   4.166   3.259  2.4972 -1.2063  1.8337
 1006MOL0     H38787   5.046   3.990   3.434 -2.0191 -0.0413 -0.5848
 1006MOL0     H38788   4.950   4.032   3.573  2.2414 -3.1483  2.1831
 1006MOL0     H38789   5.125   4.044   3.582 -0.6333  0.8312  0.5282
 1006MOL0     H38790   4.933   4.480   3.969  3.1160 -0.5564 -1.1212
 1006MOL0     H38791   4.938   4.393   4.188 -3.7650  1.0395  0.1690
 1006MOL0     H38792   4.854   3.956   4.228 -1.7031  0.5702  0.2255
 1006MOL0     H38793   4.860   3.987   4.398  0.6660 -3.4177 -1.4924
 1006MOL0     H38794   4.595   4.031   4.226  0.2105 -2.1170 -1.7529
 1006MOL0     H38795   4.631   3.896   4.320  1.2295  0.5957  0.7012
 1006MOL0     H38796   4.622   4.170   4.459 -1.8269  0.5123 -1.4785
 1006MOL0     H38797   4.619   4.007   4.526  3.6928 -3.5264 -2.7792
 1006MOL0     H38798   4.412   3.972   4.379  5.8143 -1.5396 -1.3975
 1006MOL0     H38799   4.405   4.151   4.390  1.3787  1.6690  1.1238
 1006MOL0     H38800   4.436   4.124   4.651  0.8138 -1.3866  0.7288
 1006MOL0     H38801   4.285   4.085   4.586 -0.8585 -2.4048 -1.4050
 1006MOL0     H38802   4.375   3.879   4.740  0.8936 -4.4528 -0.5749
 1006MOL0     H38803   4.497   3.859   4.614 -0.2526 -0.6396  0.0802
 1006MOL0     H38804   4.313   3.765   4.476  2.3276  2.2589 -0.3777
 1006MOL0     H38805   4.215   3.895   4.511 -0.7255 -0.3653  0.7584
 1006MOL0     H38806   4.101   3.708   4.605 -0.8110  0.9941  0.1764
 1006MOL0     H38807   4.157   3.807   4.729 -0.3880 -0.5552  0.1885
 1006MOL0     H38808   4.757   4.027   4.061 -0.1501  0.4806  0.4341
 1006MOL0     H38809   4.759   4.100   3.832  1.3524 -3.6970  1.0050
 1006MOL0     H38810   4.946   4.517   3.573 -1.6555 -2.5040  2.6588
 1006MOL0     H38811   4.973   4.570   3.334 -3.7838 -0.1180 -1.0519
 1006MOL0     H38812   5.520   3.415   3.967 -1.4884 -0.1415  4.6980
 1006MOL0     H38813   5.418   3.270   4.094 -1.2682 -0.2087  0.9647
 1006MOL0     H38814   4.937   3.069   4.090 -1.2102  1.6006  0.1936
 1006MOL0     H38815   4.787   2.903   4.189 -0.1874 -0.0278  0.9540
 1006MOL0     H38816   4.909   2.694   4.403  0.8999  0.6147  0.6017
 1006MOL0     H38817   4.886   2.723   4.571  2.1609 -2.9215 -1.0467
 1006MOL0     H38818   4.771   2.517   4.539 -0.6868 -2.1381 -3.4434
 1006MOL0     H38819   4.721   2.558   4.378 -0.3385  4.7165 -1.9489
 1006MOL0     H38820   4.555   2.704   4.471 -2.4581 -1.6472 -0.6779
 1006MOL0     H38821   4.528   2.541   4.526 -0.0555 -0.2510 -1.1539
 1006MOL0     H38822   4.665   2.763   4.671  1.1817  0.0247  1.4126
 1006MOL0     H38823   4.684   2.605   4.737  1.6260  0.9198 -0.8230
 1006MOL0     H38824   4.310   2.713   4.889 -0.9626 -0.5367 -0.8846
 1006MOL0     H38825   4.927   2.982   4.577 -0.4856 -0.9358  0.4724
 1006MOL0     H38826   5.033   3.256   4.576  1.4749 -0.0931 -0.0146
 1006MOL0     H38827   5.142   3.119   4.591  0.2742  0.6855  1.2883
 1006MOL0     H38828   5.177   3.255   4.479 -0.6828  1.7302  0.1448
 1007MOL0     O38829   4.275   7.473   5.206  0.3503 -0.1632  0.1704
 1007MOL0     C38830   4.307   7.354   5.237  0.5256  0.6012  1.0346
 1007MOL0     O38831   4.246   7.273   5.324 -0.5112  0.5119 -0.5156
 1007MOL0     C38832   4.113   7.300   5.359 -0.7441 -0.2585  0.6075
 1007MOL0     C38833   4.028   7.194   5.330 -0.6979 -0.3832 -0.2111
 1007MOL0     C38834   3.892   7.208   5.356  0.9309  0.0374 -0.6001
 1007MOL0     C38835   3.841   7.328   5.411 -0.3541  0.2300 -0.5123
 1007MOL0     O38836   3.709   7.340   5.444 -0.6366  0.0464 -0.0714
 1007MOL0     C38837   3.660   7.472   5.463 -0.2329 -0.1301  0.2871
 1007MOL0     C38838   3.675   7.555   5.340 -0.6324 -0.4371  0.2049
 1007MOL0     C38839   3.596   7.681   5.349  0.4699 -0.0079 -0.1352
 1007MOL0     C38840   3.660   7.788   5.435 -0.2011  0.3311  0.6880
 1007MOL0     C38841   3.561   7.871   5.509  0.4191 -0.3116  0.2806
 1007MOL0     C38842   3.457   7.939   5.412 -0.3942  0.0977  0.9064
 1007MOL0     C38843   3.331   7.984   5.502 -0.8418 -0.4598  0.3414
 1007MOL0     C38844   3.359   8.110   5.591  0.2255 -0.2453  0.0818
 1007MOL0     N38845   3.354   8.223   5.489  0.3868  1.0410  0.2686
 1007MOL0     C38846   3.456   8.281   5.433  0.1002 -0.5957  0.4041
 1007MOL0     C38847   3.394   8.384   5.367  0.2308  0.0721  0.5812
 1007MOL0     C38848   3.466   8.473   5.269 -0.0043 -0.0584  0.1334
 1007MOL0     C38849   3.612   8.428   5.240  0.0790 -0.4368 -0.1090
 1007MOL0     C38850   3.659   8.492   5.113  0.6002 -0.4403  0.7213
 1007MOL0     C38851   3.673   8.644   5.130 -0.9569 -0.1587  0.2614
 1007MOL0     O38852   3.750   8.670   5.244  0.3933 -0.2439 -1.2729
 1007MOL0     C38853   3.736   8.801   5.302 -0.2421  0.3573  0.1853
 1007MOL0     C38854   3.614   8.868   5.310  0.3753  0.1905  1.1279
 1007MOL0     C38855   3.606   8.989   5.378 -0.5816 -0.1272  0.6620
 1007MOL0     C38856   3.477   9.064   5.373  0.7327  0.4363  0.0644
 1007MOL0     C38857   3.714   9.030   5.462  0.4148  0.0820  0.0401
 1007MOL0     C38858   3.701   9.143   5.552  0.3616 -0.0271 -0.5259
 1007MOL0     O38859   3.822   9.204   5.582 -0.0805  0.5155  0.1216
 1007MOL0     C38860   3.827   9.319   5.666 -0.3791 -0.7107 -0.7166
 1007MOL0     C38861   3.736   9.423   5.649  0.2182 -0.3374 -0.8011
 1007MOL0     C38862   3.749   9.537   5.739  0.4708 -0.1943  0.7259
 1007MOL0     C38863   3.830   9.542   5.849 -0.9616 -0.7972 -0.4308
 1007MOL0     O38864   3.822   9.658   5.935 -0.3962  1.3112 -0.5434
 1007MOL0     C38865   3.943   9.682   5.993  0.6880 -0.6535  0.4523
 1007MOL0     C38866   3.944   9.821   6.046  0.5509  0.4146  1.4812
 1007MOL0     C38867   4.078   9.854   6.094  0.0266  0.0023 -0.3771
 1007MOL0     C38868   4.096   9.975   6.185  0.2477 -0.4410 -0.4225
 1007MOL0     C38869   4.240   9.957   6.246  0.0823  0.0984 -0.1287
 1007MOL0     C38870   4.284  10.069   6.345 -0.6769 -0.9541 -0.6193
 1007MOL0     C38871   4.211  10.058   6.478  0.8036 -1.1804  0.5732
 1007MOL0     C38872   4.291  10.143   6.585  0.1649  0.2552  0.3327
 1007MOL0    Cl38873   4.215  10.124   6.753 -0.1861  0.2852  0.0910
 1007MOL0     C38874   3.921   9.434   5.862 -0.1177  0.4165 -0.6162
 1007MOL0     C38875   3.920   9.332   5.769 -0.1429  0.4577  0.6933
 1007MOL0     O38876   3.592   9.164   5.609 -0.1101  0.4677  0.8647
 1007MOL0     C38877   3.837   8.955   5.453  0.0007  0.1456 -0.1742
 1007MOL0     C38878   3.849   8.843   5.375  1.1209 -1.0668  0.8805
 1007MOL0     N38879   3.258   8.388   5.393  0.4976  0.2506 -0.6043
 1007MOL0     N38880   3.230   8.285   5.462  0.4194  0.5454  0.1763
 1007MOL0     C38881   3.935   7.433   5.447 -0.7033  0.6739 -0.8957
 1007MOL0     C38882   4.071   7.415   5.418  0.1379  0.1926  0.9464
 1007MOL0     C38883   4.447   7.311   5.192  0.4928  0.1207  0.5261
 1007MOL0     C38884   4.530   7.277   5.299 -0.5552  1.1323  0.7098
 1007MOL0     C38885   4.668   7.255   5.278 -0.1448  0.2578  0.3676
 1007MOL0     C38886   4.722   7.276   5.156 -0.0524 -0.8771  0.2482
 1007MOL0     O38887   4.851   7.255   5.133  0.1561  0.4141 -0.2147
 1007MOL0     C38888   4.937   7.349   5.197 -0.1457 -0.3647 -0.3662
 1007MOL0     C38889   5.080   7.303   5.219 -0.4830  0.2477 -0.0791
 1007MOL0     C38890   5.162   7.282   5.097 -0.0076 -0.0856 -0.1909
 1007MOL0     C38891   5.191   7.415   5.016 -0.4633 -0.0538 -1.2968
 1007MOL0     C38892   5.075   7.435   4.930 -0.5101 -0.1682  1.1554
 1007MOL0     C38893   4.979   7.447   4.860  0.6670 -0.4682 -0.3333
 1007MOL0     C38894   4.639   7.310   5.040  0.7929 -0.1083 -0.0019
 1007MOL0     C38895   4.500   7.320   5.058 -0.2857  0.0935 -0.0923
 1007MOL0     C38896   4.407   7.353   4.952  0.6804 -0.6296 -0.0026
 1007MOL0     H38897   4.054   7.106   5.271  2.1535  0.6739 -0.6803
 1007MOL0     H38898   3.820   7.133   5.325  1.6101 -0.9568  0.1714
 1007MOL0     H38899   3.703   7.526   5.548 -0.4577 -1.8652  1.5520
 1007MOL0     H38900   3.552   7.469   5.480 -0.1348 -0.1428  0.9144
 1007MOL0     H38901   3.780   7.582   5.326 -0.5626 -0.2145  1.0738
 1007MOL0     H38902   3.657   7.499   5.247  0.3545 -2.3175  1.0836
 1007MOL0     H38903   3.586   7.721   5.248  0.3349 -0.3672 -0.2615
 1007MOL0     H38904   3.498   7.661   5.392  0.7140  1.0847  1.0155
 1007MOL0     H38905   3.719   7.744   5.515 -0.8825  0.4687  1.2776
 1007MOL0     H38906   3.719   7.857   5.373  1.3163 -0.8997  0.7032
 1007MOL0     H38907   3.613   7.952   5.562 -2.9045  2.7403 -0.7162
 1007MOL0     H38908   3.521   7.808   5.589 -2.3089 -1.5834 -1.9126
 1007MOL0     H38909   3.501   8.023   5.357 -3.6248  3.1565  2.5950
 1007MOL0     H38910   3.424   7.872   5.333  1.9521  1.1688 -1.1241
 1007MOL0     H38911   3.292   7.901   5.562 -3.9512 -1.0746 -2.2168
 1007MOL0     H38912   3.252   8.005   5.428  0.0275  0.0542 -0.4567
 1007MOL0     H38913   3.280   8.123   5.666  0.2156  2.8640 -0.3100
 1007MOL0     H38914   3.454   8.106   5.646  1.5676 -0.9322 -2.1802
 1007MOL0     H38915   3.563   8.260   5.430  0.5589  1.5761 -0.7699
 1007MOL0     H38916   3.462   8.568   5.323 -0.3963 -1.0194  1.8789
 1007MOL0     H38917   3.413   8.493   5.176  2.1061  1.2035 -0.8747
 1007MOL0     H38918   3.685   8.458   5.316 -0.5304  2.9288 -0.6557
 1007MOL0     H38919   3.609   8.322   5.216 -3.4590 -0.3016 -0.8239
 1007MOL0     H38920   3.759   8.452   5.094  1.5586  1.6107  1.0787
 1007MOL0     H38921   3.600   8.466   5.025  0.6414  2.6198 -0.3551
 1007MOL0     H38922   3.731   8.686   5.047 -0.7264 -0.3215  0.3384
 1007MOL0     H38923   3.571   8.682   5.130 -0.4033  1.3974 -0.3425
 1007MOL0     H38924   3.528   8.835   5.253  0.8536 -1.0274  1.0893
 1007MOL0     H38925   3.417   9.030   5.288  0.7050  0.3914  0.1023
 1007MOL0     H38926   3.499   9.168   5.345 -2.0004  0.5390 -2.1677
 1007MOL0     H38927   3.416   9.072   5.464 -3.2099  0.9941 -2.3710
 1007MOL0     H38928   3.671   9.428   5.561  0.9242  0.7232 -1.2918
 1007MOL0     H38929   3.674   9.615   5.735  1.4865  0.8368  1.1067
 1007MOL0     H38930   3.952   9.620   6.083 -1.1639 -0.5850  0.7120
 1007MOL0     H38931   4.028   9.674   5.924  1.9973 -2.5935  2.1527
 1007MOL0     H38932   3.911   9.896   5.974 -1.8580 -2.4616 -0.6744
 1007MOL0     H38933   3.863   9.818   6.120 -2.9671 -1.9207 -2.0843
 1007MOL0     H38934   4.144   9.864   6.007 -0.3323  0.5072 -0.5999
 1007MOL0     H38935   4.120   9.766   6.143  1.2847 -0.4955 -2.2130
 1007MOL0     H38936   4.019   9.972   6.264  0.9139 -2.2973  0.2193
 1007MOL0     H38937   4.106  10.067   6.127  1.3992  1.2115  2.2216
 1007MOL0     H38938   4.239   9.861   6.299  0.0442  0.2486  0.1452
 1007MOL0     H38939   4.311   9.937   6.166 -1.7921 -1.4675 -1.4881
 1007MOL0     H38940   4.266  10.171   6.310 -2.5287 -0.0058  2.6347
 1007MOL0     H38941   4.391  10.053   6.360 -0.5283 -0.2688 -0.9287
 1007MOL0     H38942   4.207   9.951   6.502  1.4583 -1.4365 -0.3915
 1007MOL0     H38943   4.118  10.115   6.466  2.5045  2.2349  2.1141
 1007MOL0     H38944   4.285  10.248   6.555  0.1144  0.6111  1.5440
 1007MOL0     H38945   4.397  10.117   6.584 -0.1385 -1.1606  1.7008
 1007MOL0     H38946   3.995   9.425   5.941 -1.4967 -1.9463  0.5352
 1007MOL0     H38947   4.004   9.264   5.763  0.3296  1.1269 -3.7317
 1007MOL0     H38948   3.925   9.001   5.496 -0.8737  3.2158 -1.3455
 1007MOL0     H38949   3.932   8.775   5.363  2.0170  0.4404 -3.1076
 1007MOL0     H38950   3.898   7.518   5.503 -0.8928 -0.8980  1.5100
 1007MOL0     H38951   4.145   7.492   5.437  0.2603  1.2807 -2.9944
 1007MOL0     H38952   4.490   7.269   5.399  1.4811  1.7356  1.6491
 1007MOL0     H38953   4.735   7.227   5.359  0.1540  1.5073  0.5788
 1007MOL0     H38954   4.945   7.444   5.143  1.1540 -0.9180 -1.1802
 1007MOL0     H38955   4.903   7.367   5.299  0.1111 -1.6342 -0.0396
 1007MOL0     H38956   5.078   7.211   5.278 -3.8892  0.0394 -0.2961
 1007MOL0     H38957   5.120   7.373   5.292 -3.0561 -0.6046  2.3301
 1007MOL0     H38958   5.257   7.247   5.140 -0.5168  0.8319  1.8073
 1007MOL0     H38959   5.118   7.207   5.032 -1.7317 -0.5226  1.3993
 1007MOL0     H38960   5.282   7.414   4.955 -0.0068  1.2167 -0.6672
 1007MOL0     H38961   5.193   7.494   5.091  1.0359  1.1888 -2.5671
 1007MOL0     H38962   4.896   7.476   4.800  1.0251  1.2355 -0.0802
 1007MOL0     H38963   4.682   7.326   4.942  0.4682  0.0908 -0.1151
 1007MOL0     H38964   4.439   7.337   4.848 -0.4678 -1.3145 -0.2692
 1007MOL0     H38965   4.312   7.299   4.962  0.5444 -0.4903 -0.5114
 1007MOL0     H38966   4.387   7.460   4.965 -0.2553 -0.9472  1.4350
 1008MOL0     O38967   0.053   7.788   5.793 -0.4480  0.4576  0.3717
 1008MOL0     C38968  -0.034   7.834   5.871 -0.0339 -0.1231  0.1015
 1008MOL0     O38969  -0.009   7.927   5.966  0.1396 -0.2069 -0.0941
 1008MOL0     C38970   0.107   7.985   5.992  0.2119 -0.3106  0.6053
 1008MOL0     C38971   0.110   8.132   5.982 -0.2500  0.5128 -0.3639
 1008MOL0     C38972   0.233   8.200   6.005  0.6339  1.3131 -0.1720
 1008MOL0     C38973   0.346   8.126   6.017 -0.1951 -0.2614 -0.9663
 1008MOL0     O38974   0.461   8.192   6.047 -0.1215  0.2806 -0.4452
 1008MOL0     C38975   0.454   8.327   6.079 -0.6726 -0.5960  0.1790
 1008MOL0     C38976   0.593   8.377   6.121 -0.2760  0.1656  0.1025
 1008MOL0     C38977   0.586   8.521   6.173  0.8365 -0.0725 -0.3714
 1008MOL0     C38978   0.721   8.584   6.202 -0.5559 -0.2632  0.3431
 1008MOL0     C38979   0.776   8.561   6.344 -0.6304 -0.2548  0.7408
 1008MOL0     C38980   0.923   8.597   6.361 -0.5238 -1.0353  0.0069
 1008MOL0     C38981   0.947   8.756   6.349  0.4790 -0.5103  0.5567
 1008MOL0     C38982   1.079   8.785   6.412 -0.2910 -0.2349 -0.5170
 1008MOL0     N38983   1.197   8.723   6.339  0.6688  0.2801  0.8834
 1008MOL0     C38984   1.231   8.759   6.218  0.0967 -0.3642 -0.1806
 1008MOL0     C38985   1.316   8.664   6.182 -0.5750  0.3149 -0.4879
 1008MOL0     C38986   1.397   8.668   6.052 -0.4030 -0.4292 -0.0328
 1008MOL0     C38987   1.481   8.798   6.036  0.9055 -0.2114 -0.7999
 1008MOL0     C38988   1.561   8.785   5.913 -0.3218 -0.4768  1.0931
 1008MOL0     C38989   1.679   8.891   5.898  0.1410 -0.3696 -1.0671
 1008MOL0     O38990   1.781   8.885   6.008  0.0686 -0.1293 -0.0735
 1008MOL0     C38991   1.837   8.995   6.071 -0.2425 -1.1215  0.3464
 1008MOL0     C38992   1.773   9.119   6.088  0.1136 -0.6473  0.2907
 1008MOL0     C38993   1.822   9.226   6.179 -0.0165  0.5820 -0.0750
 1008MOL0     C38994   1.735   9.351   6.193 -0.5313 -0.7549  0.2661
 1008MOL0     C38995   1.938   9.200   6.247  0.5962  0.8216  0.4433
 1008MOL0     C38996   1.995   9.305   6.332  0.0033  0.3527  0.1563
 1008MOL0     O38997   1.915   9.375   6.422  0.6316  0.2915 -0.0282
 1008MOL0     C38998   1.972   9.453   6.522  0.2821 -0.8576 -0.4101
 1008MOL0     C38999   2.005   9.393   6.647  0.4320  0.5240  1.1462
 1008MOL0     C39000   2.051   9.470   6.749  0.4450  0.2167  0.4068
 1008MOL0     C39001   2.069   9.610   6.731  0.4260 -0.7225 -0.4662
 1008MOL0     O39002   2.135   9.673   6.839  0.4180 -0.1007  0.5115
 1008MOL0     C39003   2.191   9.807   6.811 -0.4964 -0.0724  0.3801
 1008MOL0     C39004   2.254   9.878   6.941  0.1131  0.0867  0.7210
 1008MOL0     C39005   2.337  10.005   6.920 -0.3195  0.1717 -0.2512
 1008MOL0     C39006   2.343  10.105   7.040  0.1622 -0.3425 -0.5532
 1008MOL0     C39007   2.421  10.231   6.997  0.3643 -0.1962  0.6536
 1008MOL0     C39008   2.417  10.321   7.114  1.1097  0.6154 -0.2443
 1008MOL0     C39009   2.494  10.450   7.097  0.6623 -0.0632 -0.4609
 1008MOL0     C39010   2.501  10.540   7.212 -0.2646  0.8902 -0.7836
 1008MOL0    Cl39011   2.629  10.666   7.200  0.3191 -0.5177 -0.1052
 1008MOL0     C39012   2.039   9.669   6.610  0.3593 -0.4405  0.7154
 1008MOL0     C39013   1.977   9.591   6.509  0.1482 -0.5064 -0.5819
 1008MOL0     O39014   2.118   9.299   6.347  0.3220 -0.4011 -0.2327
 1008MOL0     C39015   2.001   9.075   6.228 -0.3381 -0.2234 -0.2575
 1008MOL0     C39016   1.957   8.984   6.136 -0.9123 -0.6077 -0.2027
 1008MOL0     N39017   1.338   8.572   6.280  0.2382 -0.4603 -0.8511
 1008MOL0     N39018   1.266   8.620   6.382 -0.2266  0.9962 -0.7174
 1008MOL0     C39019   0.341   7.993   6.021  0.3634  0.4270 -0.3003
 1008MOL0     C39020   0.220   7.916   6.011  0.0282 -0.6726 -0.4637
 1008MOL0     C39021  -0.184   7.801   5.868  0.7339 -0.1855  0.4634
 1008MOL0     C39022  -0.230   7.739   5.755  0.2913  0.0708  0.0815
 1008MOL0     C39023  -0.364   7.705   5.724  0.5921  0.1235  0.2739
 1008MOL0     C39024  -0.464   7.743   5.817 -0.6397 -0.1292 -1.2031
 1008MOL0     O39025  -0.600   7.723   5.802 -0.3357 -1.0730 -0.0705
 1008MOL0     C39026  -0.641   7.667   5.682  0.0748  0.3853  0.9895
 1008MOL0     C39027  -0.795   7.630   5.657 -0.1175  0.2237 -0.4219
 1008MOL0     C39028  -0.868   7.763   5.628  0.1697  1.4143  0.2689
 1008MOL0     C39029  -1.022   7.741   5.624 -0.6589 -0.5491 -0.6811
 1008MOL0     C39030  -1.098   7.869   5.610  0.0010 -1.1054  0.1503
 1008MOL0     C39031  -1.159   7.980   5.606 -0.3804 -0.2321  0.0198
 1008MOL0     C39032  -0.425   7.798   5.938  0.9020 -0.5435 -0.9557
 1008MOL0     C39033  -0.291   7.826   5.971 -0.3961  0.3409  0.0148
 1008MOL0     C39034  -0.257   7.900   6.097  0.1129 -0.1703 -0.3694
 1008MOL0     H39035   0.019   8.186   5.961  0.7592  0.8791 -4.7317
 1008MOL0     H39036   0.224   8.306   5.984 -0.1296  1.0148 -1.4985
 1008MOL0     H39037   0.394   8.349   6.169 -1.5970 -0.1669 -0.5211
 1008MOL0     H39038   0.416   8.388   5.996  2.3302 -0.8107 -1.5016
 1008MOL0     H39039   0.643   8.316   6.198  1.9496  1.4741 -0.2142
 1008MOL0     H39040   0.659   8.373   6.034 -0.1062  0.8919  0.1895
 1008MOL0     H39041   0.546   8.571   6.084 -2.9908  3.3442  2.8622
 1008MOL0     H39042   0.513   8.541   6.252  1.3261 -1.2400  0.3990
 1008MOL0     H39043   0.790   8.555   6.123 -1.6511  3.2529 -2.1320
 1008MOL0     H39044   0.699   8.688   6.177 -0.7708 -1.1246 -3.8141
 1008MOL0     H39045   0.764   8.455   6.366 -2.8965  0.0820  1.3123
 1008MOL0     H39046   0.726   8.618   6.423 -0.9612 -0.4162  0.6488
 1008MOL0     H39047   0.953   8.578   6.464  0.1781  3.3295  0.7860
 1008MOL0     H39048   0.989   8.542   6.293  0.2665 -0.4971  0.3255
 1008MOL0     H39049   0.863   8.809   6.393 -0.3274 -1.2200 -0.0948
 1008MOL0     H39050   0.955   8.772   6.241  0.7553  0.8567  0.7657
 1008MOL0     H39051   1.101   8.892   6.414  3.1840 -0.8321 -0.6257
 1008MOL0     H39052   1.078   8.757   6.517 -0.4121  1.7833  0.0714
 1008MOL0     H39053   1.198   8.846   6.163 -3.1001 -1.8655 -0.8376
 1008MOL0     H39054   1.326   8.657   5.970 -0.6849 -0.9812  0.2832
 1008MOL0     H39055   1.468   8.584   6.050  0.2121  0.0511  0.9388
 1008MOL0     H39056   1.410   8.880   6.031  3.0927  1.7500 -1.2652
 1008MOL0     H39057   1.548   8.809   6.122 -1.6240  2.3306  1.0125
 1008MOL0     H39058   1.616   8.691   5.902 -0.7635 -0.6679  0.4631
 1008MOL0     H39059   1.494   8.795   5.827  0.5473 -3.6855 -0.1030
 1008MOL0     H39060   1.726   8.895   5.799  1.6232 -3.1243 -0.5636
 1008MOL0     H39061   1.616   8.980   5.899  0.2029 -0.3227  0.2610
 1008MOL0     H39062   1.685   9.132   6.026 -0.2312  0.2001  0.9392
 1008MOL0     H39063   1.644   9.347   6.132 -0.0500  0.3393 -0.5647
 1008MOL0     H39064   1.794   9.442   6.179 -1.6231  0.2218  1.7548
 1008MOL0     H39065   1.701   9.360   6.296  1.2479 -0.9428  0.9076
 1008MOL0     H39066   1.985   9.287   6.658  5.5132 -1.0294 -1.3400
 1008MOL0     H39067   2.066   9.424   6.847 -1.2527 -0.1596  0.5194
 1008MOL0     H39068   2.275   9.774   6.750  2.5382  0.9884  3.6129
 1008MOL0     H39069   2.136   9.882   6.755  0.9699  1.2249  0.6204
 1008MOL0     H39070   2.167   9.895   7.006  1.4281  0.2661  2.5008
 1008MOL0     H39071   2.311   9.797   6.989  1.7256 -0.3297 -1.7486
 1008MOL0     H39072   2.277  10.057   6.845 -0.0482 -1.5296 -1.7119
 1008MOL0     H39073   2.435   9.983   6.878 -0.0082  0.5484  0.2632
 1008MOL0     H39074   2.384  10.063   7.132  1.4544 -0.1232 -1.0096
 1008MOL0     H39075   2.245  10.146   7.065  1.3413  1.6410  1.1781
 1008MOL0     H39076   2.518  10.204   6.956  0.8603 -0.1816  1.8091
 1008MOL0     H39077   2.377  10.288   6.914 -0.8593 -1.4922  0.3622
 1008MOL0     H39078   2.447  10.263   7.202 -0.4201  0.1085 -0.0197
 1008MOL0     H39079   2.315  10.358   7.129  0.0073 -2.1942 -0.1514
 1008MOL0     H39080   2.443  10.496   7.012  1.5447 -1.6135 -1.8961
 1008MOL0     H39081   2.592  10.435   7.050  0.1353 -2.8683 -0.8630
 1008MOL0     H39082   2.519  10.484   7.304 -0.6658  0.4361 -0.9764
 1008MOL0     H39083   2.406  10.591   7.231 -0.4830 -0.0387  0.7992
 1008MOL0     H39084   2.050   9.773   6.581  0.7445 -0.3973  1.0077
 1008MOL0     H39085   1.945   9.631   6.413 -2.3815  1.5806  0.9980
 1008MOL0     H39086   2.097   9.053   6.275 -1.2350  1.0361  2.3005
 1008MOL0     H39087   2.000   8.885   6.120  1.4715 -0.1820  2.7318
 1008MOL0     H39088   0.435   7.941   6.036 -0.8027 -2.1955 -1.3489
 1008MOL0     H39089   0.233   7.809   6.008  0.1901 -0.6408 -1.9949
 1008MOL0     H39090  -0.152   7.708   5.685  0.6009 -0.6543  0.7382
 1008MOL0     H39091  -0.371   7.649   5.631  1.2222  0.3599  0.0789
 1008MOL0     H39092  -0.615   7.732   5.598 -2.5599 -1.1664 -1.1868
 1008MOL0     H39093  -0.577   7.581   5.661  2.2500  1.6767  2.0588
 1008MOL0     H39094  -0.835   7.586   5.749 -2.0129  1.9579 -0.3524
 1008MOL0     H39095  -0.803   7.564   5.570  2.4551  1.0785 -1.3732
 1008MOL0     H39096  -0.847   7.820   5.719 -1.7861 -0.9212  2.3183
 1008MOL0     H39097  -0.828   7.808   5.537 -0.1442 -2.9056 -2.2541
 1008MOL0     H39098  -1.046   7.685   5.715  0.6776 -0.0372  0.0179
 1008MOL0     H39099  -1.044   7.682   5.535  0.0457 -4.9064  1.7622
 1008MOL0     H39100  -1.199   8.076   5.628  2.0759  1.1468 -1.1814
 1008MOL0     H39101  -0.496   7.834   6.011  2.0935  2.2869 -1.0504
 1008MOL0     H39102  -0.180   7.858   6.162  0.3761 -0.5035 -0.8923
 1008MOL0     H39103  -0.228   7.998   6.059 -1.2740 -0.0531 -1.1978
 1008MOL0     H39104  -0.347   7.915   6.158  1.7081  2.6135  1.4954
 1009MOL0     O39105   3.085   3.525   2.124 -0.2358  0.3088 -0.3869
 1009MOL0     C39106   3.003   3.471   2.059  0.9024  0.3723 -0.9012
 1009MOL0     O39107   2.998   3.452   1.919 -0.7233  0.7747  0.1127
 1009MOL0     C39108   3.112   3.433   1.846  0.1736  0.1154 -0.4998
 1009MOL0     C39109   3.237   3.497   1.878  1.8922 -0.4775  0.2195
 1009MOL0     C39110   3.340   3.486   1.786  0.3887 -0.4994  0.6309
 1009MOL0     C39111   3.318   3.423   1.662 -0.2822 -0.3517 -0.2082
 1009MOL0     O39112   3.408   3.419   1.558  0.2260  0.3785  0.1557
 1009MOL0     C39113   3.549   3.447   1.585  1.0183  0.4937  0.2924
 1009MOL0     C39114   3.619   3.425   1.458 -0.2620 -1.0049 -0.0588
 1009MOL0     C39115   3.766   3.399   1.468 -0.0710  1.7937 -0.1298
 1009MOL0     C39116   3.853   3.457   1.354  0.1553 -0.6834 -0.7064
 1009MOL0     C39117   4.007   3.428   1.353 -0.4681 -0.1564  0.0503
 1009MOL0     C39118   4.076   3.493   1.227  0.2258 -1.2808 -0.3245
 1009MOL0     C39119   4.196   3.427   1.162 -0.8708 -0.4358  0.0843
 1009MOL0     C39120   4.167   3.326   1.053  0.7340 -0.4371  0.4935
 1009MOL0     N39121   4.079   3.215   1.102 -0.2186 -0.3230 -0.3023
 1009MOL0     C39122   4.117   3.116   1.186  0.3698 -0.6265  0.3695
 1009MOL0     C39123   3.997   3.047   1.196 -0.7036  0.1926 -0.1471
 1009MOL0     C39124   3.979   2.924   1.283 -0.4185 -0.0486 -0.0892
 1009MOL0     C39125   3.996   2.805   1.184 -1.0083 -0.4439  0.3214
 1009MOL0     C39126   3.988   2.665   1.250 -0.7659 -1.2691  0.2405
 1009MOL0     C39127   3.861   2.615   1.315  0.2950  0.2327  0.1201
 1009MOL0     O39128   3.740   2.669   1.253  0.4624 -0.4236 -0.3537
 1009MOL0     C39129   3.620   2.619   1.304 -0.0984  0.5217 -0.1576
 1009MOL0     C39130   3.501   2.662   1.246  0.4550  0.0711  0.4065
 1009MOL0     C39131   3.376   2.620   1.302 -0.0088  0.2612  0.5797
 1009MOL0     C39132   3.248   2.679   1.251  0.3753  0.6103 -0.2590
 1009MOL0     C39133   3.374   2.539   1.421 -0.7613 -0.1648 -0.4645
 1009MOL0     C39134   3.251   2.490   1.493 -0.4439 -0.2651 -0.4132
 1009MOL0     O39135   3.258   2.496   1.624 -0.1369  0.1064  0.5143
 1009MOL0     C39136   3.171   2.416   1.696  0.2605  0.7069  0.9700
 1009MOL0     C39137   3.081   2.473   1.782 -0.4088  0.2862  0.2374
 1009MOL0     C39138   3.002   2.388   1.873 -0.3475  0.0135  0.5945
 1009MOL0     C39139   3.017   2.242   1.869 -0.1562 -0.5730  0.3268
 1009MOL0     O39140   2.944   2.158   1.956 -0.3846 -0.3197 -0.2305
 1009MOL0     C39141   2.836   2.202   2.033 -0.0629  0.1240  0.4331
 1009MOL0     C39142   2.881   2.210   2.179  0.2873 -0.0680 -0.5562
 1009MOL0     C39143   2.960   2.080   2.232 -1.3323  0.3372  0.2685
 1009MOL0     C39144   3.011   2.100   2.370  0.1663  0.3367  0.6275
 1009MOL0     C39145   3.128   2.199   2.376 -0.0787  0.5102  0.2741
 1009MOL0     C39146   3.247   2.162   2.287 -0.3510  0.6491  0.8147
 1009MOL0     C39147   3.374   2.201   2.356 -0.6202  0.4646 -0.3048
 1009MOL0     C39148   3.392   2.354   2.366 -0.2749 -0.7595 -0.0030
 1009MOL0    Cl39149   3.560   2.402   2.349  0.0254 -0.4121 -0.0540
 1009MOL0     C39150   3.108   2.182   1.769  0.6155 -0.5105  0.5953
 1009MOL0     C39151   3.176   2.268   1.686  1.0459 -0.3923 -0.1302
 1009MOL0     O39152   3.150   2.464   1.432  0.3534 -0.3033  0.1716
 1009MOL0     C39153   3.499   2.485   1.467  0.9962  0.3135  0.6028
 1009MOL0     C39154   3.619   2.523   1.408 -0.2293  0.9204  0.5588
 1009MOL0     N39155   3.894   3.106   1.125  0.3605  0.5436 -0.1061
 1009MOL0     N39156   3.945   3.208   1.076 -0.4327 -0.2247 -0.8303
 1009MOL0     C39157   3.203   3.352   1.638  0.1056 -0.2190  0.4328
 1009MOL0     C39158   3.096   3.363   1.721  0.4815  0.7405  0.4508
 1009MOL0     C39159   2.887   3.432   2.133  0.2623  0.6984  0.6751
 1009MOL0     C39160   2.869   3.468   2.263 -0.2161  0.1607 -0.1096
 1009MOL0     C39161   2.764   3.431   2.348 -0.0532 -0.5266 -0.1591
 1009MOL0     C39162   2.653   3.357   2.295  0.5081 -0.2047 -0.6991
 1009MOL0     O39163   2.539   3.336   2.365 -0.8863  0.6800 -0.5091
 1009MOL0     C39164   2.410   3.305   2.303 -0.0132 -0.5501  1.0889
 1009MOL0     C39165   2.341   3.434   2.264  0.2616  0.5775 -1.3845
 1009MOL0     C39166   2.415   3.517   2.164  0.5651  0.8709 -0.3718
 1009MOL0     C39167   2.316   3.595   2.089  0.1686  0.8850  0.5996
 1009MOL0     C39168   2.385   3.686   2.007  0.7654 -0.5984  0.4624
 1009MOL0     C39169   2.448   3.772   1.956  0.1252 -0.4681  0.4762
 1009MOL0     C39170   2.671   3.306   2.164 -0.0456 -0.6998  0.7750
 1009MOL0     C39171   2.784   3.341   2.091  0.6357  0.2535 -0.3987
 1009MOL0     C39172   2.795   3.252   1.963 -0.8224 -0.4891 -0.6029
 1009MOL0     H39173   3.253   3.560   1.965  3.0834  0.9123 -0.9571
 1009MOL0     H39174   3.431   3.544   1.802  0.3901  0.6051 -2.6137
 1009MOL0     H39175   3.590   3.379   1.661  2.0911 -0.1951 -0.8736
 1009MOL0     H39176   3.561   3.551   1.619  3.3004 -0.6314  3.4106
 1009MOL0     H39177   3.578   3.337   1.407 -2.7632  1.7315 -3.2568
 1009MOL0     H39178   3.602   3.514   1.396 -3.2082 -2.3921 -1.4619
 1009MOL0     H39179   3.795   3.454   1.558  1.0884 -0.2466  0.8109
 1009MOL0     H39180   3.793   3.293   1.469  1.2302  2.1016 -0.5188
 1009MOL0     H39181   3.793   3.432   1.267 -4.0071  2.4321  0.9473
 1009MOL0     H39182   3.851   3.566   1.363  0.5678 -0.8267  3.2968
 1009MOL0     H39183   4.016   3.319   1.349  1.2990 -0.1031  1.3870
 1009MOL0     H39184   4.052   3.458   1.448 -1.7870 -2.6539  1.5737
 1009MOL0     H39185   3.996   3.518   1.157 -0.7306  2.8990  1.9219
 1009MOL0     H39186   4.117   3.589   1.259 -0.8108 -0.8657 -0.1781
 1009MOL0     H39187   4.253   3.380   1.243  0.5447  0.9900 -0.0309
 1009MOL0     H39188   4.265   3.505   1.128 -0.9295  0.1857  1.3343
 1009MOL0     H39189   4.129   3.367   0.959  0.1830 -1.5591  0.2175
 1009MOL0     H39190   4.266   3.292   1.021  0.0406 -0.6306 -1.6276
 1009MOL0     H39191   4.206   3.105   1.247  0.0568 -0.9552  0.7760
 1009MOL0     H39192   3.877   2.917   1.319 -0.5911 -0.4332 -0.6322
 1009MOL0     H39193   4.044   2.934   1.370 -2.7854  0.2834  1.7410
 1009MOL0     H39194   3.912   2.807   1.114 -1.2407 -1.4637  0.5509
 1009MOL0     H39195   4.099   2.814   1.148  0.1405  0.4348  3.5493
 1009MOL0     H39196   4.015   2.586   1.179  2.0979  0.3739 -0.6703
 1009MOL0     H39197   4.061   2.652   1.330 -2.3574 -2.8665  1.5170
 1009MOL0     H39198   3.860   2.506   1.304 -0.3347  0.1327  1.1266
 1009MOL0     H39199   3.859   2.632   1.423  4.6226 -0.0972  0.4515
 1009MOL0     H39200   3.516   2.737   1.169  2.3675 -1.4290 -0.7864
 1009MOL0     H39201   3.259   2.743   1.163  2.8877 -0.4078 -0.7845
 1009MOL0     H39202   3.193   2.737   1.326 -0.2645 -1.7240  1.1606
 1009MOL0     H39203   3.182   2.601   1.210 -0.7339  1.2986  0.1765
 1009MOL0     H39204   3.061   2.580   1.785 -0.1308  0.3621 -0.4732
 1009MOL0     H39205   2.952   2.440   1.954 -0.6808  1.3106 -0.4073
 1009MOL0     H39206   2.791   2.290   1.985  0.4863 -0.3275 -0.9663
 1009MOL0     H39207   2.768   2.118   2.016  1.7309 -1.2794 -0.2289
 1009MOL0     H39208   2.938   2.302   2.193 -2.6148  1.8145 -0.3725
 1009MOL0     H39209   2.789   2.216   2.238  0.4659 -2.4701  0.1062
 1009MOL0     H39210   3.041   2.043   2.169 -0.0940 -0.1037  2.0543
 1009MOL0     H39211   2.889   1.999   2.251 -0.1627 -0.5119  1.0639
 1009MOL0     H39212   3.037   2.005   2.418 -0.5662 -1.0095 -1.4946
 1009MOL0     H39213   2.921   2.150   2.408 -3.0619 -1.8851 -3.2066
 1009MOL0     H39214   3.101   2.303   2.355 -0.8421 -0.1302 -2.3140
 1009MOL0     H39215   3.163   2.195   2.479  1.9776 -1.7219 -0.4164
 1009MOL0     H39216   3.247   2.204   2.187  4.2892 -1.2624 -0.2507
 1009MOL0     H39217   3.239   2.053   2.280 -1.7633  0.7996 -0.4304
 1009MOL0     H39218   3.457   2.161   2.298 -1.7889 -0.5954 -1.3008
 1009MOL0     H39219   3.388   2.146   2.450 -1.5126  1.3256  0.3465
 1009MOL0     H39220   3.364   2.390   2.466 -1.6005 -2.7982  0.4243
 1009MOL0     H39221   3.328   2.399   2.290 -0.5955  0.3747  0.9061
 1009MOL0     H39222   3.108   2.075   1.749 -0.7963 -1.0382  3.0167
 1009MOL0     H39223   3.256   2.224   1.627  1.6125  1.5747 -0.9443
 1009MOL0     H39224   3.505   2.421   1.553  0.3211 -1.6136 -0.7213
 1009MOL0     H39225   3.709   2.474   1.444 -0.7741  1.7834  3.4076
 1009MOL0     H39226   3.184   3.296   1.547  1.6258 -1.8970  1.0994
 1009MOL0     H39227   3.001   3.313   1.703  0.9025  0.5635 -1.5310
 1009MOL0     H39228   2.927   3.541   2.319 -1.4888  0.8970  0.3050
 1009MOL0     H39229   2.753   3.466   2.451  0.1758 -1.0751  0.0569
 1009MOL0     H39230   2.414   3.248   2.210 -3.2271  0.2921  0.3198
 1009MOL0     H39231   2.348   3.244   2.371  0.4511 -2.1556  0.1252
 1009MOL0     H39232   2.303   3.501   2.342 -0.2755 -0.5122 -0.6803
 1009MOL0     H39233   2.250   3.394   2.218 -0.3778 -0.0681  0.3579
 1009MOL0     H39234   2.495   3.580   2.204  0.6069 -0.1291  1.2197
 1009MOL0     H39235   2.455   3.448   2.089  0.6521 -2.4226  2.4111
 1009MOL0     H39236   2.239   3.635   2.156 -0.2549 -1.4334  1.5858
 1009MOL0     H39237   2.269   3.521   2.023  2.3470 -1.4327  1.4915
 1009MOL0     H39238   2.503   3.854   1.915 -0.2388 -0.4175  0.0841
 1009MOL0     H39239   2.604   3.225   2.135 -0.6816  0.3253 -0.7579
 1009MOL0     H39240   2.781   3.315   1.875 -0.5634 -0.1979 -0.4395
 1009MOL0     H39241   2.892   3.202   1.959  0.8204  2.4690 -0.8094
 1009MOL0     H39242   2.715   3.179   1.956 -0.1507 -1.4914  1.4100
 1010MOL0     O39243  10.575   9.838   8.515 -0.8081 -0.0199 -0.7863
 1010MOL0     C39244  10.492   9.806   8.435 -0.0106 -0.6704  0.5977
 1010MOL0     O39245  10.516   9.795   8.305  0.6877 -0.2178  0.1659
 1010MOL0     C39246  10.634   9.835   8.245  0.5238  0.4549 -0.2562
 1010MOL0     C39247  10.763   9.876   8.301 -0.0103  0.9969  0.4926
 1010MOL0     C39248  10.864   9.917   8.218 -0.5437  0.3005 -0.0670
 1010MOL0     C39249  10.852   9.935   8.078  0.2040 -0.3717 -0.8430
 1010MOL0     O39250  10.953   9.980   8.000 -0.4334  0.1999  0.2471
 1010MOL0     C39251  11.070   9.893   8.013  0.9899 -0.0527  0.1226
 1010MOL0     C39252  11.039   9.751   7.965  0.4280  0.7259 -0.3668
 1010MOL0     C39253  11.005   9.731   7.820 -0.7238 -0.1270 -0.1653
 1010MOL0     C39254  11.122   9.691   7.729  0.3086  0.4365  0.8430
 1010MOL0     C39255  11.056   9.670   7.583 -0.1566 -0.2495 -0.2079
 1010MOL0     C39256  11.077   9.796   7.491  0.2356 -0.0054 -0.3502
 1010MOL0     C39257  10.994   9.799   7.361  0.0496 -0.1310  0.8550
 1010MOL0     C39258  10.847   9.769   7.376  0.2396  0.2014 -1.3884
 1010MOL0     N39259  10.768   9.879   7.447 -0.0228 -0.5865  0.2089
 1010MOL0     C39260  10.750  10.004   7.409 -0.0370 -1.2992 -0.2005
 1010MOL0     C39261  10.683  10.075   7.502  0.4783  0.7447  0.1662
 1010MOL0     C39262  10.643  10.220   7.494 -0.2886  0.1191 -0.7741
 1010MOL0     C39263  10.638  10.274   7.637  0.3173  1.0105 -0.3709
 1010MOL0     C39264  10.662  10.419   7.662 -0.6382  0.2215  0.0856
 1010MOL0     C39265  10.806  10.454   7.690  0.0564 -1.2807 -0.2689
 1010MOL0     O39266  10.891  10.406   7.582  0.4432 -0.5333  0.2537
 1010MOL0     C39267  11.005  10.346   7.609  1.1145  0.6217 -0.0444
 1010MOL0     C39268  11.126  10.407   7.597 -0.2736  0.1837 -0.1418
 1010MOL0     C39269  11.249  10.353   7.631  0.1764  0.8879 -0.8473
 1010MOL0     C39270  11.379  10.428   7.597  0.6264  0.4357 -0.4755
 1010MOL0     C39271  11.239  10.223   7.694 -0.1364 -0.2226 -0.0525
 1010MOL0     C39272  11.357  10.144   7.741 -0.0549 -0.1176  0.0985
 1010MOL0     O39273  11.332  10.024   7.799 -0.5663  0.0671 -0.7537
 1010MOL0     C39274  11.435   9.940   7.836 -0.3081 -0.9980  0.4593
 1010MOL0     C39275  11.437   9.897   7.969  0.5135  0.2883  0.3726
 1010MOL0     C39276  11.535   9.811   8.018 -0.3184  0.0058  0.3510
 1010MOL0     C39277  11.633   9.764   7.931 -0.3796  0.0194  0.2013
 1010MOL0     O39278  11.724   9.667   7.962  0.0962  0.3544 -0.3428
 1010MOL0     C39279  11.764   9.663   8.096  0.1146  0.3453  0.1709
 1010MOL0     C39280  11.904   9.598   8.106  0.5124  0.7438 -0.9461
 1010MOL0     C39281  11.974   9.589   8.244  0.8236  0.1745  0.1776
 1010MOL0     C39282  11.909   9.504   8.350  0.2804 -0.4005 -1.2326
 1010MOL0     C39283  12.002   9.500   8.475 -0.3228  0.2372 -0.1606
 1010MOL0     C39284  11.963   9.393   8.578 -0.3778  0.1552  0.0368
 1010MOL0     C39285  12.101   9.350   8.642 -0.3600  0.4466 -0.5588
 1010MOL0     C39286  12.083   9.236   8.745  0.6688  0.0332 -0.0587
 1010MOL0    Cl39287  11.979   9.290   8.877  0.3579  0.0589 -0.3730
 1010MOL0     C39288  11.636   9.809   7.801  0.0601 -1.1725  0.1019
 1010MOL0     C39289  11.537   9.906   7.748 -0.6356  0.4388 -0.2544
 1010MOL0     O39290  11.466  10.205   7.744  0.0250  0.1169  0.7719
 1010MOL0     C39291  11.114  10.158   7.710 -0.4941  0.4951 -0.3285
 1010MOL0     C39292  11.002  10.218   7.654  0.0945 -0.1049  0.7380
 1010MOL0     N39293  10.674   9.985   7.603 -0.1911 -0.2319 -0.6992
 1010MOL0     N39294  10.729   9.863   7.572 -0.9355  0.6292 -1.3311
 1010MOL0     C39295  10.724   9.921   8.035  0.6257 -0.1759 -0.5159
 1010MOL0     C39296  10.619   9.868   8.111  0.4020  0.4849  0.3521
 1010MOL0     C39297  10.353   9.780   8.468 -0.2930  0.0397 -0.9054
 1010MOL0     C39298  10.258   9.784   8.369  0.5963 -1.6121  0.2064
 1010MOL0     C39299  10.119   9.773   8.387 -0.0652 -0.3999 -0.2496
 1010MOL0     C39300  10.071   9.750   8.524 -0.1657 -0.0907  0.0164
 1010MOL0     O39301   9.932   9.739   8.546  0.6119 -0.3186  0.4841
 1010MOL0     C39302   9.878   9.684   8.667 -0.3940  1.0212 -0.6684
 1010MOL0     C39303   9.837   9.807   8.753 -0.3636 -0.5184  0.5284
 1010MOL0     C39304   9.739   9.905   8.691  1.0782  0.0208  0.2679
 1010MOL0     C39305   9.603   9.838   8.644  0.5510  0.3632 -0.7950
 1010MOL0     C39306   9.530   9.830   8.768  0.5391 -0.3661 -0.6633
 1010MOL0     C39307   9.472   9.790   8.862  0.3896  0.8003  0.0839
 1010MOL0     C39308  10.168   9.733   8.628 -1.0909  1.5387  0.0690
 1010MOL0     C39309  10.305   9.748   8.603 -0.8749 -0.4748 -0.5747
 1010MOL0     C39310  10.401   9.723   8.726  0.6187  0.1224 -0.6496
 1010MOL0     H39311  10.788   9.873   8.406 -1.0592 -1.7935  0.7281
 1010MOL0     H39312  10.960   9.942   8.262  0.1632  0.8860 -1.8893
 1010MOL0     H39313  11.113   9.889   8.114  1.9704 -1.5466 -0.3200
 1010MOL0     H39314  11.149   9.926   7.946 -0.8452  3.4858 -0.5076
 1010MOL0     H39315  11.112   9.679   8.003 -4.0726 -3.9070  0.5736
 1010MOL0     H39316  10.947   9.722   8.017  0.2460 -0.1079 -1.1300
 1010MOL0     H39317  10.925   9.657   7.818 -0.2578 -0.6299 -0.3167
 1010MOL0     H39318  10.954   9.824   7.792 -1.7109 -0.5928  0.0260
 1010MOL0     H39319  11.189   9.778   7.733 -2.6122  3.0810 -1.8996
 1010MOL0     H39320  11.178   9.603   7.763 -1.3587 -1.1079 -0.2195
 1010MOL0     H39321  10.951   9.649   7.602  0.2547  0.2182  3.1262
 1010MOL0     H39322  11.104   9.584   7.534 -0.9810  0.4708 -2.4341
 1010MOL0     H39323  11.047   9.883   7.550 -0.2133  0.4713 -1.2701
 1010MOL0     H39324  11.181   9.804   7.458  0.2969 -2.4633 -0.9406
 1010MOL0     H39325  11.039   9.734   7.286 -0.3238  0.9889 -0.3801
 1010MOL0     H39326  10.993   9.894   7.307  1.0291 -0.4303  0.2862
 1010MOL0     H39327  10.813   9.758   7.272  2.1978  1.0416 -2.1812
 1010MOL0     H39328  10.824   9.681   7.435  2.7019  1.0999  1.1352
 1010MOL0     H39329  10.788  10.047   7.317 -0.9733 -1.2417 -0.5714
 1010MOL0     H39330  10.542  10.216   7.451  0.2129 -2.3220 -1.9251
 1010MOL0     H39331  10.708  10.279   7.428 -0.2331  2.5062  1.2651
 1010MOL0     H39332  10.535  10.256   7.670 -0.0334  0.7049 -1.5653
 1010MOL0     H39333  10.707  10.214   7.697  0.6465  2.1891  0.4561
 1010MOL0     H39334  10.618  10.477   7.580 -0.6727  1.9698  1.3069
 1010MOL0     H39335  10.607  10.453   7.750 -3.2482 -0.7071 -1.0885
 1010MOL0     H39336  10.811  10.563   7.699 -2.2744 -0.9867 -1.6713
 1010MOL0     H39337  10.839  10.415   7.786  1.7446  0.1203 -0.2206
 1010MOL0     H39338  11.128  10.498   7.538 -0.4574 -1.8150 -3.4802
 1010MOL0     H39339  11.428  10.452   7.692  1.8227 -1.5583 -0.5447
 1010MOL0     H39340  11.366  10.520   7.539  2.3309 -0.7050 -2.8410
 1010MOL0     H39341  11.437  10.363   7.531 -0.8246 -0.2994 -1.0630
 1010MOL0     H39342  11.361   9.924   8.042 -2.9964 -2.2661 -1.9886
 1010MOL0     H39343  11.534   9.770   8.119  1.2163  0.2176  0.4886
 1010MOL0     H39344  11.773   9.765   8.135 -1.4031  0.5387  0.0946
 1010MOL0     H39345  11.692   9.604   8.153 -0.2033 -0.8316 -1.3713
 1010MOL0     H39346  11.896   9.492   8.080  1.2310 -0.3329  2.6068
 1010MOL0     H39347  11.971   9.648   8.036  1.1317 -2.8478 -3.2039
 1010MOL0     H39348  11.993   9.689   8.283  4.5541  0.0147 -0.8018
 1010MOL0     H39349  12.072   9.542   8.235  0.3963 -0.3421 -2.6342
 1010MOL0     H39350  11.909   9.405   8.304  2.1083 -0.4490 -1.2303
 1010MOL0     H39351  11.809   9.534   8.383  0.8017 -3.2997  4.1073
 1010MOL0     H39352  12.099   9.475   8.432 -1.2766 -0.5171 -1.9997
 1010MOL0     H39353  11.995   9.602   8.513  0.4781  0.9460 -1.8079
 1010MOL0     H39354  11.912   9.304   8.539  1.0424 -1.6913  2.1373
 1010MOL0     H39355  11.895   9.438   8.652  1.0581  2.5512  0.0166
 1010MOL0     H39356  12.144   9.443   8.682 -0.1386  0.8812 -1.7555
 1010MOL0     H39357  12.171   9.319   8.565  0.1146  2.2336 -0.8970
 1010MOL0     H39358  12.178   9.214   8.794 -0.4090  0.9081  2.6279
 1010MOL0     H39359  12.040   9.150   8.692 -0.8680  1.0389 -0.5314
 1010MOL0     H39360  11.711   9.764   7.737  1.2445  2.1974 -1.0817
 1010MOL0     H39361  11.558   9.948   7.650  1.6730 -2.7534 -1.2921
 1010MOL0     H39362  11.096  10.056   7.740  0.8888 -0.1961 -1.6887
 1010MOL0     H39363  10.905  10.170   7.662 -0.5941  0.9028 -1.0400
 1010MOL0     H39364  10.710   9.927   7.927 -1.8198 -0.7971 -0.2863
 1010MOL0     H39365  10.516   9.860   8.078  0.5140 -0.3336  0.1792
 1010MOL0     H39366  10.282   9.814   8.267 -0.2063 -1.1519  0.1458
 1010MOL0     H39367  10.043   9.779   8.311 -0.3984  1.0137  0.1756
 1010MOL0     H39368   9.790   9.626   8.637  1.2395 -2.0429 -0.0367
 1010MOL0     H39369   9.950   9.621   8.721  0.1442  0.1759 -2.2985
 1010MOL0     H39370   9.925   9.867   8.781 -0.6952  0.4240 -0.4031
 1010MOL0     H39371   9.783   9.777   8.844 -3.8413  3.1480 -0.0664
 1010MOL0     H39372   9.713   9.978   8.768 -2.9525 -0.5355 -0.3396
 1010MOL0     H39373   9.769   9.965   8.606 -3.2293  3.7850  1.0087
 1010MOL0     H39374   9.620   9.747   8.586  0.8599 -0.0251 -0.0944
 1010MOL0     H39375   9.547   9.909   8.582  0.5863 -1.5124 -3.1233
 1010MOL0     H39376   9.409   9.751   8.940  0.2679  0.0623 -0.3722
 1010MOL0     H39377  10.146   9.692   8.726 -0.4326 -2.1406 -1.1564
 1010MOL0     H39378  10.467   9.643   8.692  2.2148  1.0451  0.1355
 1010MOL0     H39379  10.459   9.812   8.752 -2.5935  2.3835 -0.6467
 1010MOL0     H39380  10.344   9.699   8.817  0.5597 -1.8413 -1.1695
 1011MOL0     O39381   5.990   4.989   5.597 -0.0608 -0.0017 -0.3164
 1011MOL0     C39382   6.009   4.917   5.693 -0.0997  0.3820 -0.7152
 1011MOL0     O39383   6.129   4.895   5.738 -0.9736  0.1824  0.4206
 1011MOL0     C39384   6.241   4.935   5.663 -0.1530 -0.5331 -0.2362
 1011MOL0     C39385   6.291   4.850   5.574 -0.2131  0.1024  0.8007
 1011MOL0     C39386   6.405   4.871   5.508 -0.1419 -0.3522 -0.6152
 1011MOL0     C39387   6.468   4.996   5.517 -0.1488 -0.1261 -0.0301
 1011MOL0     O39388   6.575   5.030   5.437  0.2108 -0.0993 -0.1820
 1011MOL0     C39389   6.704   4.992   5.491  1.3694  0.0097 -1.3600
 1011MOL0     C39390   6.810   5.092   5.433  0.7817  0.1925 -0.3687
 1011MOL0     C39391   6.823   5.118   5.283  0.3958  0.8681 -0.8924
 1011MOL0     C39392   6.859   4.991   5.196  0.7139  0.6179 -0.8162
 1011MOL0     C39393   6.877   5.022   5.050  0.4887  0.3944 -0.2837
 1011MOL0     C39394   7.008   5.097   5.023 -0.6636 -0.3647 -0.4608
 1011MOL0     C39395   7.029   5.112   4.876 -0.1812  0.2506 -0.0183
 1011MOL0     C39396   6.906   5.179   4.811 -0.1024 -0.6543 -0.0588
 1011MOL0     N39397   6.883   5.320   4.843 -1.0530 -0.0399  0.4167
 1011MOL0     C39398   6.973   5.410   4.840 -0.7059  0.0583 -1.2988
 1011MOL0     C39399   6.902   5.524   4.861 -0.2406 -0.9936  0.1914
 1011MOL0     C39400   6.956   5.661   4.870 -0.1070  0.4832 -0.4850
 1011MOL0     C39401   7.090   5.667   4.946  1.0003 -0.8450  0.6102
 1011MOL0     C39402   7.060   5.692   5.102 -0.3882  0.7455  0.2595
 1011MOL0     C39403   7.191   5.711   5.194 -0.7312 -0.1630  0.6395
 1011MOL0     O39404   7.308   5.639   5.161 -0.4642  0.3596  0.6032
 1011MOL0     C39405   7.304   5.499   5.149  0.7529 -0.1472 -0.2863
 1011MOL0     C39406   7.222   5.418   5.236 -0.6129 -0.4549  0.2856
 1011MOL0     C39407   7.234   5.280   5.259  0.3279 -0.1606 -0.4187
 1011MOL0     C39408   7.143   5.223   5.369 -0.5363 -0.9540  0.1956
 1011MOL0     C39409   7.331   5.208   5.180  0.8693 -0.0683 -1.1590
 1011MOL0     C39410   7.372   5.058   5.206  0.8517 -0.2872  0.6034
 1011MOL0     O39411   7.298   4.982   5.294  0.3465 -0.1514  0.4260
 1011MOL0     C39412   7.328   4.845   5.317  0.6056 -0.1090  0.2029
 1011MOL0     C39413   7.222   4.757   5.334  0.5319 -0.7653 -0.9063
 1011MOL0     C39414   7.247   4.637   5.398  0.7438  1.0040 -0.0804
 1011MOL0     C39415   7.375   4.595   5.432  0.1594 -0.3905  0.4187
 1011MOL0     O39416   7.396   4.479   5.494  0.1523 -0.5497 -0.7081
 1011MOL0     C39417   7.474   4.382   5.419  0.3468 -0.2516 -0.0506
 1011MOL0     C39418   7.402   4.255   5.459 -0.0970 -0.8312 -0.3527
 1011MOL0     C39419   7.421   4.136   5.361  0.6532 -0.1905 -0.0940
 1011MOL0     C39420   7.553   4.110   5.295 -0.0353 -0.6167 -0.8955
 1011MOL0     C39421   7.566   3.983   5.206  0.5515 -0.1178  1.1085
 1011MOL0     C39422   7.724   3.961   5.184 -0.2545 -0.4845  0.0206
 1011MOL0     C39423   7.756   3.812   5.150  0.0181 -0.1901  0.1552
 1011MOL0     C39424   7.891   3.774   5.091  0.0977 -0.7989 -0.3995
 1011MOL0    Cl39425   7.906   3.590   5.080 -0.3039  0.0578  0.1093
 1011MOL0     C39426   7.476   4.682   5.407 -0.8601 -0.3203 -0.4418
 1011MOL0     C39427   7.458   4.810   5.353  0.7245 -1.0706 -0.0855
 1011MOL0     O39428   7.470   5.019   5.140 -0.2177  0.2157 -0.6416
 1011MOL0     C39429   7.410   5.285   5.097  0.6328 -0.3417 -0.4225
 1011MOL0     C39430   7.405   5.423   5.082  0.3317  0.1408  0.1937
 1011MOL0     N39431   6.761   5.496   4.862 -0.8845 -0.7931  0.2286
 1011MOL0     N39432   6.761   5.375   4.846  0.5878 -0.0676  0.4090
 1011MOL0     C39433   6.423   5.091   5.600  0.7749 -0.1998  0.0018
 1011MOL0     C39434   6.301   5.065   5.674 -0.6453  0.8393  0.2946
 1011MOL0     C39435   5.897   4.848   5.765  0.9280 -0.6960  0.4710
 1011MOL0     C39436   5.924   4.766   5.876  0.1986 -0.8586 -0.4745
 1011MOL0     C39437   5.826   4.693   5.938 -0.1552  0.1740 -0.8240
 1011MOL0     C39438   5.689   4.720   5.904 -0.5672 -0.3226  0.3069
 1011MOL0     O39439   5.597   4.648   5.982 -0.2570 -0.3363  0.7589
 1011MOL0     C39440   5.527   4.711   6.096 -0.3219  0.4639 -0.1747
 1011MOL0     C39441   5.624   4.735   6.212 -0.3984 -0.3756 -0.5352
 1011MOL0     C39442   5.552   4.775   6.342 -0.4416 -0.4602  0.1764
 1011MOL0     C39443   5.451   4.885   6.341 -0.0723 -0.1584 -0.6007
 1011MOL0     C39444   5.429   4.935   6.473  0.4032 -0.4199 -0.3137
 1011MOL0     C39445   5.416   4.978   6.585 -0.1153  0.3429 -0.3990
 1011MOL0     C39446   5.652   4.800   5.800 -0.6384  0.4527  0.2037
 1011MOL0     C39447   5.752   4.872   5.734 -1.0566  0.5777  0.1210
 1011MOL0     C39448   5.710   4.942   5.609  0.3582  0.2092  0.1830
 1011MOL0     H39449   6.239   4.757   5.553 -0.3700  0.6635 -1.6256
 1011MOL0     H39450   6.440   4.808   5.427 -3.6388 -0.3770 -2.2755
 1011MOL0     H39451   6.722   4.888   5.460  0.2574 -0.5416 -0.2254
 1011MOL0     H39452   6.699   5.002   5.599  1.6460 -1.3819 -1.2022
 1011MOL0     H39453   6.783   5.182   5.489  2.4409  0.8177 -0.5137
 1011MOL0     H39454   6.911   5.063   5.466  0.7365  1.6061  1.1062
 1011MOL0     H39455   6.730   5.164   5.247 -1.2802 -1.0372  0.7695
 1011MOL0     H39456   6.898   5.196   5.268  2.1768 -0.7946 -1.0530
 1011MOL0     H39457   6.955   4.960   5.237 -0.1693  0.7365  1.4866
 1011MOL0     H39458   6.780   4.918   5.214 -1.2668  2.8194  0.0390
 1011MOL0     H39459   6.793   5.080   5.013  2.8088  2.4789 -2.6800
 1011MOL0     H39460   6.888   4.926   4.998 -0.0140  1.4186 -2.3859
 1011MOL0     H39461   7.021   5.192   5.074  0.7304  0.3795 -2.1115
 1011MOL0     H39462   7.093   5.035   5.052  0.5130 -0.6162 -4.0093
 1011MOL0     H39463   7.040   5.014   4.829 -4.2566  0.9125 -2.8282
 1011MOL0     H39464   7.118   5.172   4.858  0.4011 -0.4185  0.5649
 1011MOL0     H39465   6.935   5.205   4.709  0.9583  5.0021  1.3452
 1011MOL0     H39466   6.812   5.123   4.800 -0.2516 -1.1608  2.9169
 1011MOL0     H39467   7.080   5.399   4.831 -0.0970  2.3500  1.6777
 1011MOL0     H39468   6.894   5.718   4.939  2.4142 -1.7805  4.2098
 1011MOL0     H39469   6.967   5.703   4.770  0.8747 -0.5147 -0.8270
 1011MOL0     H39470   7.152   5.580   4.920  1.0499 -0.3410 -1.0585
 1011MOL0     H39471   7.150   5.753   4.916  3.0484 -1.8592  1.5940
 1011MOL0     H39472   6.994   5.776   5.123 -0.4110  0.6432  0.6166
 1011MOL0     H39473   7.013   5.598   5.136  1.9423 -0.5160  0.2131
 1011MOL0     H39474   7.223   5.815   5.187 -1.3854 -0.0371 -4.8161
 1011MOL0     H39475   7.163   5.684   5.296 -1.0677 -2.0151  0.1030
 1011MOL0     H39476   7.140   5.463   5.291  0.2321  0.6209  0.6971
 1011MOL0     H39477   7.090   5.139   5.323  0.2835  0.0764 -2.8935
 1011MOL0     H39478   7.067   5.300   5.388  1.5789  1.1442  0.6009
 1011MOL0     H39479   7.201   5.197   5.458 -2.5589 -0.9550  1.5698
 1011MOL0     H39480   7.122   4.793   5.312  1.1388  0.2464 -2.2376
 1011MOL0     H39481   7.169   4.566   5.424  2.5844  0.4654  5.0962
 1011MOL0     H39482   7.467   4.404   5.312  1.0156 -0.6593 -0.1816
 1011MOL0     H39483   7.579   4.375   5.451  0.3243 -0.9524 -0.1337
 1011MOL0     H39484   7.446   4.220   5.553  1.5085 -1.1255 -1.1704
 1011MOL0     H39485   7.294   4.268   5.472  0.0179 -0.7665  0.5801
 1011MOL0     H39486   7.352   4.151   5.278 -0.2112  0.7808  0.7595
 1011MOL0     H39487   7.389   4.045   5.413  0.4568 -1.6075 -2.5552
 1011MOL0     H39488   7.630   4.122   5.372 -0.7636  3.3891 -0.6043
 1011MOL0     H39489   7.579   4.194   5.230  2.5355 -1.1856 -0.7058
 1011MOL0     H39490   7.521   3.903   5.267  1.0722 -1.1389  0.1841
 1011MOL0     H39491   7.502   3.995   5.118 -0.1056  0.8227  1.6984
 1011MOL0     H39492   7.781   3.980   5.276  1.8569 -1.7530 -0.9497
 1011MOL0     H39493   7.764   4.028   5.108  0.0041 -0.0138  0.5653
 1011MOL0     H39494   7.680   3.780   5.079  0.9072  0.3293 -1.0741
 1011MOL0     H39495   7.758   3.757   5.245  0.6715  0.3602  0.4660
 1011MOL0     H39496   7.967   3.815   5.158  1.7009 -2.4321 -1.1029
 1011MOL0     H39497   7.908   3.816   4.991  3.2633 -0.1075  0.3105
 1011MOL0     H39498   7.578   4.662   5.438 -1.1911 -1.2367  0.0940
 1011MOL0     H39499   7.545   4.874   5.338  0.6555 -0.3113  2.3248
 1011MOL0     H39500   7.490   5.235   5.044  3.2215  0.2389  2.6359
 1011MOL0     H39501   7.479   5.464   5.014  1.0583 -1.8993 -0.3301
 1011MOL0     H39502   6.471   5.188   5.600 -0.3127  0.4070 -2.2461
 1011MOL0     H39503   6.261   5.134   5.747  0.5576 -2.3806  4.3795
 1011MOL0     H39504   6.027   4.753   5.909  0.2780  0.1783 -0.2703
 1011MOL0     H39505   5.857   4.619   6.011 -0.2866  0.5968 -0.3344
 1011MOL0     H39506   5.466   4.799   6.074 -2.4121 -1.2416 -1.6672
 1011MOL0     H39507   5.455   4.634   6.126 -0.5431  0.4956 -0.6046
 1011MOL0     H39508   5.680   4.825   6.182 -2.9238  1.6701  0.5469
 1011MOL0     H39509   5.695   4.655   6.235  0.2190  0.6983  1.5590
 1011MOL0     H39510   5.511   4.683   6.384  0.2708  0.2938  2.7477
 1011MOL0     H39511   5.633   4.806   6.408 -0.9118  2.0983 -0.3084
 1011MOL0     H39512   5.357   4.853   6.294 -2.1824  3.6202  0.5533
 1011MOL0     H39513   5.485   4.973   6.284 -1.2769  0.7336  0.0121
 1011MOL0     H39514   5.406   5.014   6.685 -0.3349  1.9439 -0.9693
 1011MOL0     H39515   5.550   4.812   5.767 -0.8689  0.0073  0.7344
 1011MOL0     H39516   5.601   4.950   5.611  0.3538  0.1182  0.3538
 1011MOL0     H39517   5.764   5.036   5.590 -0.6303  0.6115 -0.7255
 1011MOL0     H39518   5.736   4.883   5.521 -0.6744  0.7619 -0.5216
 1012MOL0     O39519   2.877  10.357   7.191  0.0994  0.5439 -0.5126
 1012MOL0     C39520   2.899  10.295   7.090 -0.0241 -0.8993 -0.2778
 1012MOL0     O39521   2.997  10.343   7.005  0.3538  0.1691  0.3088
 1012MOL0     C39522   3.053  10.471   7.006  0.2984  0.1394  0.7717
 1012MOL0     C39523   2.974  10.584   7.044  0.2441  0.0748  0.4260
 1012MOL0     C39524   3.030  10.717   7.062 -0.8886  0.2262 -0.4900
 1012MOL0     C39525   3.173  10.737   7.060 -0.5678  0.8759 -0.3640
 1012MOL0     O39526   3.225  10.860   7.089  0.3886  1.0006 -0.0407
 1012MOL0     C39527   3.365  10.876   7.062 -0.0178  0.6788 -1.2492
 1012MOL0     C39528   3.400  11.013   7.107  0.5843 -0.1394  0.0453
 1012MOL0     C39529   3.526  11.057   7.045 -0.2662  0.0342  0.6904
 1012MOL0     C39530   3.562  11.205   7.052  0.4898 -0.4202 -0.2228
 1012MOL0     C39531   3.707  11.238   7.015  0.2881  0.5569 -1.0504
 1012MOL0     C39532   3.727  11.391   7.044  1.1552 -0.2490 -0.9644
 1012MOL0     C39533   3.809  11.458   6.935  0.2249 -0.2615 -0.1948
 1012MOL0     C39534   3.959  11.433   6.946  0.7826  0.4572 -0.1780
 1012MOL0     N39535   4.027  11.527   7.042 -0.0209  0.5251  0.0044
 1012MOL0     C39536   4.054  11.657   7.013 -0.2615  0.3913  0.5603
 1012MOL0     C39537   4.108  11.709   7.130  0.1148  0.4602 -0.4156
 1012MOL0     C39538   4.157  11.851   7.147 -0.2052 -0.6210 -1.2045
 1012MOL0     C39539   4.041  11.936   7.193 -0.9532  0.9652  0.3224
 1012MOL0     C39540   4.081  12.072   7.254 -0.2968 -0.3505  0.6171
 1012MOL0     C39541   4.172  12.072   7.377  0.2353  0.2560 -0.5508
 1012MOL0     O39542   4.101  11.990   7.473 -0.3111 -0.3902 -0.9973
 1012MOL0     C39543   4.166  11.947   7.582 -0.4638 -0.2342  0.4275
 1012MOL0     C39544   4.091  11.890   7.681 -0.2282  0.0091  0.5659
 1012MOL0     C39545   4.134  11.862   7.810  0.1942 -0.4255 -0.8453
 1012MOL0     C39546   4.031  11.808   7.907  0.1374  0.0387  0.4667
 1012MOL0     C39547   4.269  11.893   7.845  0.4347 -0.3970 -0.8252
 1012MOL0     C39548   4.323  11.837   7.973  0.8819 -0.5850  1.2761
 1012MOL0     O39549   4.440  11.766   7.970 -0.1023  0.3682  0.1105
 1012MOL0     C39550   4.529  11.772   8.070 -0.0626 -0.4346 -0.2708
 1012MOL0     C39551   4.556  11.898   8.142  0.1777  0.6107  1.1267
 1012MOL0     C39552   4.656  11.905   8.240  0.4962 -0.3393 -0.0001
 1012MOL0     C39553   4.726  11.791   8.277 -0.0190 -0.3654 -0.0046
 1012MOL0     O39554   4.820  11.783   8.372  1.0142  0.5296 -0.1950
 1012MOL0     C39555   4.841  11.892   8.455 -0.3106  0.0374  0.7482
 1012MOL0     C39556   4.922  11.835   8.574 -0.9331  0.1841  0.3054
 1012MOL0     C39557   5.079  11.849   8.555 -0.1748  0.3696 -0.1310
 1012MOL0     C39558   5.143  11.763   8.664  0.2943  0.2273 -0.4402
 1012MOL0     C39559   5.288  11.795   8.680  0.0163 -0.3700  0.3611
 1012MOL0     C39560   5.351  11.711   8.783  0.9254 -0.8935  0.9992
 1012MOL0     C39561   5.500  11.693   8.774  0.3164 -0.1689 -0.3757
 1012MOL0     C39562   5.544  11.607   8.657 -0.2752  0.3283  0.8216
 1012MOL0    Cl39563   5.710  11.539   8.691 -0.0541 -0.3014 -0.7737
 1012MOL0     C39564   4.702  11.671   8.208  0.1970  0.1486  0.1904
 1012MOL0     C39565   4.615  11.663   8.107  0.8205  0.4781  0.6877
 1012MOL0     O39566   4.270  11.869   8.076  0.5120  0.1659 -0.1071
 1012MOL0     C39567   4.357  11.944   7.748 -0.2009  0.1295 -0.4153
 1012MOL0     C39568   4.307  11.968   7.612  0.1274  0.0860 -0.0494
 1012MOL0     N39569   4.102  11.603   7.228 -0.1603  0.0758  0.2625
 1012MOL0     N39570   4.043  11.496   7.172 -0.6571  0.7684  0.5328
 1012MOL0     C39571   3.246  10.628   7.024  0.1138  0.2584 -0.0448
 1012MOL0     C39572   3.188  10.499   7.001  0.0722  1.2579  0.2667
 1012MOL0     C39573   2.832  10.161   7.064  0.3250 -0.7810 -0.3013
 1012MOL0     C39574   2.856  10.109   6.935 -0.1043 -0.1188 -0.2528
 1012MOL0     C39575   2.804   9.984   6.909  0.6136 -0.5713  0.3089
 1012MOL0     C39576   2.722   9.914   6.997 -0.5717 -0.3282 -0.2286
 1012MOL0     O39577   2.647   9.804   6.977  0.5954 -1.0896 -0.2394
 1012MOL0     C39578   2.647   9.732   6.850  0.0423 -0.0618 -0.3067
 1012MOL0     C39579   2.604   9.589   6.878  0.0701  0.1412 -0.3035
 1012MOL0     C39580   2.691   9.497   6.973  1.0625 -0.0339  0.3889
 1012MOL0     C39581   2.840   9.478   6.939 -0.4981 -0.8401  0.0601
 1012MOL0     C39582   2.857   9.437   6.797  0.3179  0.4420 -0.2832
 1012MOL0     C39583   2.866   9.402   6.681 -0.0252 -0.6278 -0.0013
 1012MOL0     C39584   2.711   9.967   7.121  0.0947 -0.1693  0.4378
 1012MOL0     C39585   2.760  10.089   7.160 -0.2978  0.4310 -0.1706
 1012MOL0     C39586   2.727  10.132   7.299  0.5521 -0.3736  0.5240
 1012MOL0     H39587   2.876  10.560   7.085 -0.9550  0.4422 -2.0214
 1012MOL0     H39588   2.965  10.801   7.083  0.2100  0.3215  3.1239
 1012MOL0     H39589   3.395  10.860   6.959 -1.7431 -1.2512 -1.5022
 1012MOL0     H39590   3.432  10.809   7.116  2.0188  3.0820 -0.6063
 1012MOL0     H39591   3.315  11.078   7.083  0.5442  0.4471  1.6848
 1012MOL0     H39592   3.412  11.016   7.215  0.2062  3.5780  0.1069
 1012MOL0     H39593   3.600  10.999   7.100 -0.3770  0.7948  1.6666
 1012MOL0     H39594   3.536  11.026   6.940 -0.9870 -2.1709  1.2215
 1012MOL0     H39595   3.494  11.261   6.986  1.6166  1.0446 -0.2053
 1012MOL0     H39596   3.552  11.248   7.152 -1.1713 -1.1205 -0.0631
 1012MOL0     H39597   3.707  11.198   6.913 -2.4019 -2.2251 -0.1288
 1012MOL0     H39598   3.785  11.192   7.075 -1.2473 -0.1901  0.4624
 1012MOL0     H39599   3.631  11.440   7.026  0.5292 -1.7305 -1.8005
 1012MOL0     H39600   3.770  11.408   7.143  0.3966  0.6230 -0.7637
 1012MOL0     H39601   3.791  11.565   6.944 -0.3793 -0.0597 -2.9044
 1012MOL0     H39602   3.775  11.434   6.833 -0.8661  1.0590 -0.1676
 1012MOL0     H39603   3.963  11.330   6.982 -0.6900  1.1240  2.1911
 1012MOL0     H39604   4.006  11.448   6.849 -0.1347 -3.2744 -1.3356
 1012MOL0     H39605   4.047  11.701   6.914 -2.3245 -2.1197 -0.5200
 1012MOL0     H39606   4.200  11.884   7.052 -2.3141  0.2949 -1.9211
 1012MOL0     H39607   4.229  11.840   7.229  0.9030  2.1080 -1.7132
 1012MOL0     H39608   3.975  11.946   7.106  1.0256 -0.2865 -1.4280
 1012MOL0     H39609   3.989  11.875   7.268  2.9340  0.6475  3.0154
 1012MOL0     H39610   4.135  12.136   7.183 -1.4496 -0.4895 -0.4169
 1012MOL0     H39611   3.988  12.123   7.282  1.1734  2.4620  0.7720
 1012MOL0     H39612   4.275  12.038   7.360  0.1071 -1.1178  1.0946
 1012MOL0     H39613   4.170  12.177   7.408 -3.0113  0.2600 -0.4243
 1012MOL0     H39614   3.987  11.873   7.653  0.0410 -1.2374  0.2799
 1012MOL0     H39615   3.946  11.786   7.843  1.2282  2.3401 -1.9643
 1012MOL0     H39616   4.015  11.889   7.979 -2.0272  1.6019 -1.6189
 1012MOL0     H39617   4.063  11.716   7.956  0.4345  1.4340  3.0991
 1012MOL0     H39618   4.506  11.993   8.123  1.6940  1.1331 -0.5242
 1012MOL0     H39619   4.655  11.992   8.305 -0.9404 -1.6366  1.8390
 1012MOL0     H39620   4.896  11.972   8.406 -0.0558  0.8555  2.3033
 1012MOL0     H39621   4.746  11.931   8.493 -0.1344 -0.6861  2.0143
 1012MOL0     H39622   4.884  11.893   8.659  1.9337  0.2123  1.6771
 1012MOL0     H39623   4.881  11.734   8.584 -1.9646  0.6984  1.6001
 1012MOL0     H39624   5.120  11.949   8.570 -2.5238  1.0842  2.5344
 1012MOL0     H39625   5.106  11.812   8.456  1.5058 -0.5126  0.6152
 1012MOL0     H39626   5.128  11.657   8.646 -4.4797  0.4247  0.8562
 1012MOL0     H39627   5.098  11.795   8.759 -0.2941 -0.4704 -0.4755
 1012MOL0     H39628   5.340  11.796   8.584  0.8136 -2.8778  0.6917
 1012MOL0     H39629   5.296  11.896   8.722  0.7060  1.5796 -3.9380
 1012MOL0     H39630   5.294  11.618   8.788 -0.6435  0.0301  1.1500
 1012MOL0     H39631   5.325  11.757   8.879  2.1421  1.4656  0.2731
 1012MOL0     H39632   5.532  11.647   8.868  1.2301 -3.7964 -2.2809
 1012MOL0     H39633   5.539  11.795   8.765 -2.4653  0.8921 -1.7607
 1012MOL0     H39634   5.537  11.665   8.565 -2.0764 -0.4267  0.4394
 1012MOL0     H39635   5.474  11.523   8.654 -2.2718  1.9307  0.2516
 1012MOL0     H39636   4.761  11.587   8.246  0.0158  0.1051  0.3767
 1012MOL0     H39637   4.595  11.570   8.055 -1.8450  0.6309  1.2957
 1012MOL0     H39638   4.464  11.956   7.763 -0.1533 -1.2880  0.5250
 1012MOL0     H39639   4.379  12.009   7.541 -0.5158  1.0654 -0.1619
 1012MOL0     H39640   3.354  10.632   7.014  0.3622 -0.9073  1.6472
 1012MOL0     H39641   3.260  10.419   6.991 -1.0085 -0.0334  2.1554
 1012MOL0     H39642   2.912  10.161   6.858 -0.0336 -3.8262 -2.9741
 1012MOL0     H39643   2.811   9.934   6.813 -1.7428 -1.6680  0.6424
 1012MOL0     H39644   2.582   9.788   6.782 -2.2007 -0.4015  1.4103
 1012MOL0     H39645   2.750   9.727   6.815  1.0188  1.3403  2.0888
 1012MOL0     H39646   2.597   9.543   6.779 -1.8701 -0.0991 -0.0837
 1012MOL0     H39647   2.499   9.601   6.904  0.5578  2.0121  0.9855
 1012MOL0     H39648   2.693   9.534   7.076  2.3216  2.2106 -0.3672
 1012MOL0     H39649   2.641   9.400   6.980  0.3164 -0.0171 -3.0176
 1012MOL0     H39650   2.894   9.418   7.012  0.1236  0.9594  1.1601
 1012MOL0     H39651   2.889   9.576   6.950 -0.3425 -1.1576  3.2010
 1012MOL0     H39652   2.859   9.382   6.576 -2.2186  5.5091 -1.4499
 1012MOL0     H39653   2.647   9.909   7.186 -1.6139 -0.1708 -1.1757
 1012MOL0     H39654   2.674  10.061   7.363 -0.1532 -0.3827 -0.0602
 1012MOL0     H39655   2.812  10.160   7.363 -1.3410 -0.3890  3.2297
 1012MOL0     H39656   2.665  10.221   7.302  0.0739 -0.6926  0.1908
 1013MOL0     O39657   7.503   3.565  10.746 -0.1723 -0.0579 -0.6974
 1013MOL0     C39658   7.458   3.450  10.742  0.1690 -0.2620 -0.7784
 1013MOL0     O39659   7.478   3.359  10.840  1.3203 -0.1006  0.5895
 1013MOL0     C39660   7.552   3.391  10.949  0.8433  0.4339 -0.1556
 1013MOL0     C39661   7.476   3.405  11.063 -0.5372 -0.4163  0.0645
 1013MOL0     C39662   7.543   3.444  11.179  0.6029  0.6103 -0.0026
 1013MOL0     C39663   7.675   3.484  11.178 -0.0551 -0.6138 -0.2057
 1013MOL0     O39664   7.750   3.536  11.280  0.5619 -0.4027  0.3018
 1013MOL0     C39665   7.685   3.585  11.394  0.1897  0.1687  0.0479
 1013MOL0     C39666   7.782   3.662  11.483 -0.3335  0.6419 -0.3115
 1013MOL0     C39667   7.895   3.563  11.541 -0.8000  0.0463  0.5270
 1013MOL0     C39668   7.957   3.623  11.669 -0.2776 -0.8268  0.3876
 1013MOL0     C39669   8.100   3.572  11.702  1.0661 -0.2441  0.0807
 1013MOL0     C39670   8.088   3.443  11.771 -0.0637  0.0448  0.6152
 1013MOL0     C39671   8.230   3.377  11.791  0.2689  0.1481  0.6331
 1013MOL0     C39672   8.312   3.414  11.918  0.1666 -0.3593 -0.4583
 1013MOL0     N39673   8.451   3.381  11.913 -1.0133 -0.3905  0.9168
 1013MOL0     C39674   8.487   3.256  11.881 -0.3071 -0.4399 -1.1586
 1013MOL0     C39675   8.622   3.273  11.868  0.5486  0.3890  0.0959
 1013MOL0     C39676   8.722   3.163  11.831 -0.4016 -1.1343 -0.1824
 1013MOL0     C39677   8.691   3.117  11.695  0.1094  0.4113 -0.1212
 1013MOL0     C39678   8.763   2.985  11.666  0.1108  0.0881 -0.8540
 1013MOL0     C39679   8.679   2.883  11.591  0.4158 -0.0877 -0.8446
 1013MOL0     O39680   8.747   2.802  11.499  0.5262  0.5743  0.2717
 1013MOL0     C39681   8.792   2.682  11.536 -0.5743 -0.0030  0.8392
 1013MOL0     C39682   8.802   2.632  11.659  0.5538 -0.8977 -0.0632
 1013MOL0     C39683   8.858   2.501  11.680 -0.7417  0.0661 -0.6737
 1013MOL0     C39684   8.871   2.455  11.822  0.3630  0.0257  0.0172
 1013MOL0     C39685   8.896   2.420  11.567  0.6874 -0.6379  0.0479
 1013MOL0     C39686   8.955   2.287  11.571  0.0371  0.0413 -0.0235
 1013MOL0     O39687   9.032   2.247  11.460  0.7806  0.1349 -0.0228
 1013MOL0     C39688   9.092   2.126  11.444  0.0692  0.0603 -0.1803
 1013MOL0     C39689   9.212   2.112  11.366 -0.5154  0.3885  0.1044
 1013MOL0     C39690   9.277   1.988  11.344  0.1222 -0.2155 -0.1156
 1013MOL0     C39691   9.220   1.867  11.398 -0.3236 -0.2044 -0.3354
 1013MOL0     O39692   9.287   1.746  11.418  0.1481 -0.1203  0.1712
 1013MOL0     C39693   9.403   1.724  11.345  0.5951  0.5858  0.2467
 1013MOL0     C39694   9.517   1.766  11.439  0.9558  0.1384 -0.7061
 1013MOL0     C39695   9.656   1.725  11.410 -0.5171 -0.8610  0.4038
 1013MOL0     C39696   9.716   1.799  11.283  0.5349  0.0770  0.1641
 1013MOL0     C39697   9.804   1.705  11.193  1.1837 -0.5434  0.9696
 1013MOL0     C39698   9.938   1.674  11.247  0.0304 -0.1207  1.0689
 1013MOL0     C39699  10.055   1.784  11.245 -0.0421  0.3024  0.6545
 1013MOL0     C39700  10.185   1.744  11.312 -0.1527  1.3000 -0.0827
 1013MOL0    Cl39701  10.258   1.609  11.217  0.6982  0.1895  0.0344
 1013MOL0     C39702   9.095   1.876  11.467  0.1049  0.4875  0.5752
 1013MOL0     C39703   9.038   2.003  11.488  0.0370  0.2380 -0.0135
 1013MOL0     O39704   8.952   2.224  11.678 -0.2139 -0.3590  0.7540
 1013MOL0     C39705   8.895   2.485  11.445 -0.1953  1.2859  0.2161
 1013MOL0     C39706   8.833   2.609  11.425 -0.6124 -0.1603 -0.5954
 1013MOL0     N39707   8.663   3.404  11.886  0.0636 -0.1964 -0.1095
 1013MOL0     N39708   8.560   3.466  11.911  0.5212 -0.0349 -0.0966
 1013MOL0     C39709   7.751   3.463  11.056 -1.1790  0.4102 -0.4428
 1013MOL0     C39710   7.694   3.408  10.945  0.7346 -0.4376  0.2090
 1013MOL0     C39711   7.380   3.418  10.621  0.9112 -0.0774  0.6454
 1013MOL0     C39712   7.340   3.281  10.604  0.4611  0.7672 -0.0811
 1013MOL0     C39713   7.290   3.228  10.490 -0.3583  0.0828 -0.9097
 1013MOL0     C39714   7.266   3.316  10.383  0.4562 -0.0423 -0.2708
 1013MOL0     O39715   7.209   3.273  10.266 -0.0234  0.3737 -0.0365
 1013MOL0     C39716   7.247   3.138  10.224 -0.8959 -0.5811  0.8292
 1013MOL0     C39717   7.226   3.122  10.067 -0.5557 -0.7501 -0.0582
 1013MOL0     C39718   7.240   2.977  10.030 -0.1756 -0.1334 -0.2479
 1013MOL0     C39719   7.244   2.964   9.878 -0.2421  0.3025 -0.6669
 1013MOL0     C39720   7.123   2.989   9.798 -0.9831  0.3934  0.1634
 1013MOL0     C39721   7.026   3.015   9.730  1.0131 -0.0519 -0.2046
 1013MOL0     C39722   7.289   3.452  10.389  0.8565 -0.6541  0.0911
 1013MOL0     C39723   7.354   3.503  10.504 -0.2586  0.7605 -0.5622
 1013MOL0     C39724   7.416   3.647  10.482 -0.0075 -0.7853 -0.4172
 1013MOL0     H39725   7.369   3.411  11.052 -0.6056 -0.1870  0.8012
 1013MOL0     H39726   7.482   3.475  11.263 -0.7702 -0.0556 -0.7301
 1013MOL0     H39727   7.660   3.502  11.460  0.8713 -0.6681 -0.7320
 1013MOL0     H39728   7.613   3.664  11.368 -0.0817 -1.1274 -3.6913
 1013MOL0     H39729   7.827   3.741  11.423  1.3477  0.0205  0.0859
 1013MOL0     H39730   7.729   3.714  11.562  2.2076  2.8747  0.0436
 1013MOL0     H39731   7.849   3.466  11.563 -1.6960 -0.0166 -1.3879
 1013MOL0     H39732   7.979   3.549  11.471  0.9536  1.8356  2.1497
 1013MOL0     H39733   7.960   3.731  11.653 -0.6280 -0.6541  1.4452
 1013MOL0     H39734   7.892   3.609  11.755 -3.2770 -1.2672 -1.8104
 1013MOL0     H39735   8.149   3.643  11.769 -0.7335  2.9810 -1.7962
 1013MOL0     H39736   8.155   3.563  11.608 -0.9398  0.3005 -1.2005
 1013MOL0     H39737   8.048   3.459  11.872 -2.0931  1.3729 -0.3445
 1013MOL0     H39738   8.019   3.377  11.718 -3.1046  2.6451  1.0644
 1013MOL0     H39739   8.291   3.379  11.700  0.1457 -1.4919  0.4813
 1013MOL0     H39740   8.213   3.269  11.785  0.4181  0.0376  1.9101
 1013MOL0     H39741   8.311   3.522  11.934  0.0496  0.0162 -2.5891
 1013MOL0     H39742   8.263   3.362  12.001 -0.3144  0.7895  0.0014
 1013MOL0     H39743   8.430   3.166  11.859  0.6154 -0.8347 -2.0533
 1013MOL0     H39744   8.728   3.091  11.913  1.4114 -0.1862  0.5825
 1013MOL0     H39745   8.811   3.227  11.820 -2.6387  2.4888  1.1129
 1013MOL0     H39746   8.583   3.100  11.692  0.1464  0.2760 -1.4521
 1013MOL0     H39747   8.711   3.197  11.623 -4.3115  0.1662 -1.9864
 1013MOL0     H39748   8.852   3.020  11.613  0.1060 -0.1959 -1.0533
 1013MOL0     H39749   8.800   2.948  11.762 -1.6895  0.5527  0.0546
 1013MOL0     H39750   8.628   2.826  11.669 -0.6722 -1.6555 -2.6112
 1013MOL0     H39751   8.597   2.931  11.537  0.3876  0.5908 -0.2076
 1013MOL0     H39752   8.783   2.690  11.749  1.5725 -1.7556  0.7308
 1013MOL0     H39753   8.973   2.429  11.851  1.0478  1.0925 -1.3213
 1013MOL0     H39754   8.810   2.367  11.844 -0.7378  1.2149  2.0687
 1013MOL0     H39755   8.831   2.535  11.886 -1.9763 -0.8580 -0.2474
 1013MOL0     H39756   9.263   2.197  11.323  0.2024  1.0544  2.1369
 1013MOL0     H39757   9.367   1.986  11.284  0.0280 -0.2951 -0.2537
 1013MOL0     H39758   9.420   1.617  11.326 -0.6134  0.3492  0.3803
 1013MOL0     H39759   9.396   1.770  11.246 -1.7653  0.8364  0.4661
 1013MOL0     H39760   9.510   1.875  11.445 -3.0459  0.1105 -2.2717
 1013MOL0     H39761   9.505   1.722  11.538  1.7058  1.1098 -0.1654
 1013MOL0     H39762   9.661   1.617  11.393  0.7768 -0.6922 -0.4356
 1013MOL0     H39763   9.721   1.743  11.496  0.6780 -4.7700  0.5282
 1013MOL0     H39764   9.779   1.882  11.315  1.5216 -0.3362 -0.6464
 1013MOL0     H39765   9.638   1.843  11.220  2.2884 -0.2704 -2.3857
 1013MOL0     H39766   9.748   1.612  11.182 -0.3225  0.4419  0.0576
 1013MOL0     H39767   9.819   1.743  11.092 -0.7059 -5.0800 -1.3280
 1013MOL0     H39768   9.971   1.594  11.180 -3.1118 -1.0746  0.5135
 1013MOL0     H39769   9.927   1.613  11.338  1.1347 -0.5059  0.9645
 1013MOL0     H39770  10.015   1.876  11.289 -0.5358 -0.5941  2.1606
 1013MOL0     H39771  10.085   1.828  11.149 -2.0263  0.4613  0.0636
 1013MOL0     H39772  10.162   1.699  11.409  0.4524  3.3865  1.0882
 1013MOL0     H39773  10.253   1.829  11.311 -3.2187  3.9434 -1.5807
 1013MOL0     H39774   9.045   1.790  11.511 -0.0944 -0.5148 -1.4768
 1013MOL0     H39775   8.947   2.005  11.546  0.1864  2.3898  0.2224
 1013MOL0     H39776   8.935   2.436  11.357 -1.1855  0.4519  0.2091
 1013MOL0     H39777   8.831   2.641  11.321 -0.6668 -2.1704 -1.2604
 1013MOL0     H39778   7.859   3.459  11.061 -1.0839 -1.0172 -2.5321
 1013MOL0     H39779   7.756   3.379  10.861 -0.0399  0.4174 -0.6781
 1013MOL0     H39780   7.352   3.206  10.682  0.2909  1.2017  0.3654
 1013MOL0     H39781   7.275   3.121  10.499 -0.5357 -0.0683 -2.7159
 1013MOL0     H39782   7.353   3.117  10.239 -0.2903  1.0637 -0.8583
 1013MOL0     H39783   7.190   3.065  10.282 -2.7610  2.5844  3.3354
 1013MOL0     H39784   7.294   3.184  10.008 -0.6985  1.3085  1.7862
 1013MOL0     H39785   7.125   3.162  10.050 -0.6058 -0.1847  1.4426
 1013MOL0     H39786   7.343   2.948  10.054  0.9664  1.9684 -2.1746
 1013MOL0     H39787   7.157   2.922  10.074 -0.9103  1.3821  0.3519
 1013MOL0     H39788   7.277   2.861   9.860  2.3033  0.9403  0.0078
 1013MOL0     H39789   7.324   3.029   9.840 -1.2957 -0.0638 -3.8635
 1013MOL0     H39790   6.943   3.025   9.664  1.1217 -3.1658 -0.9492
 1013MOL0     H39791   7.261   3.509  10.301 -2.6952 -3.0768 -0.5549
 1013MOL0     H39792   7.357   3.687  10.399  0.3305  1.3632  0.3246
 1013MOL0     H39793   7.420   3.718  10.565 -1.3936  0.2005 -1.1476
 1013MOL0     H39794   7.520   3.647  10.446 -0.3569 -3.1246 -1.6203
 1014MOL0     O39795  11.184   2.480   6.085  0.4862 -0.1481 -0.0722
 1014MOL0     C39796  11.263   2.478   5.986  0.5778  0.6399 -0.3355
 1014MOL0     O39797  11.235   2.436   5.858 -0.4341  0.1250 -0.7392
 1014MOL0     C39798  11.117   2.375   5.827  0.6440 -0.1736  0.0746
 1014MOL0     C39799  10.986   2.427   5.860 -0.1730  0.3731  0.4339
 1014MOL0     C39800  10.868   2.358   5.819 -0.1146  0.6307  0.7145
 1014MOL0     C39801  10.885   2.245   5.740 -0.1403  0.3668 -0.3213
 1014MOL0     O39802  10.775   2.168   5.695 -0.1819 -0.4029  0.1674
 1014MOL0     C39803  10.696   2.121   5.806 -0.6176  1.2139  0.3248
 1014MOL0     C39804  10.636   1.989   5.773  0.5315  1.4023  0.1269
 1014MOL0     C39805  10.747   1.890   5.724 -0.3317  0.3141 -0.4170
 1014MOL0     C39806  10.712   1.744   5.746 -0.0352  0.4964  0.1773
 1014MOL0     C39807  10.841   1.670   5.777  0.2493 -0.2699 -0.5174
 1014MOL0     C39808  10.933   1.631   5.662  0.2701 -0.7216  0.1891
 1014MOL0     C39809  11.075   1.597   5.708  0.4058 -0.5523 -0.0348
 1014MOL0     C39810  11.127   1.514   5.596  0.0926 -0.5316  0.4735
 1014MOL0     N39811  11.264   1.494   5.619 -0.1506  0.0995 -0.2209
 1014MOL0     C39812  11.366   1.507   5.528 -0.0040  0.1372 -0.2032
 1014MOL0     C39813  11.467   1.436   5.581 -0.5493  0.3027 -0.5108
 1014MOL0     C39814  11.610   1.422   5.524  0.4740 -0.0524 -0.2650
 1014MOL0     C39815  11.617   1.279   5.473 -0.6551  0.1454  0.2727
 1014MOL0     C39816  11.755   1.242   5.420 -0.2330  0.6050 -0.6774
 1014MOL0     C39817  11.874   1.269   5.528  0.7628 -0.0280 -0.1103
 1014MOL0     O39818  11.992   1.221   5.463  0.4187  0.4571 -0.2857
 1014MOL0     C39819  12.116   1.253   5.521  0.3774  0.2609  0.4000
 1014MOL0     C39820  12.226   1.196   5.450 -0.5686 -0.1770 -0.9781
 1014MOL0     C39821  12.362   1.210   5.488  0.1180 -0.2583 -0.4559
 1014MOL0     C39822  12.477   1.152   5.414 -0.2992 -0.5441  0.2058
 1014MOL0     C39823  12.390   1.274   5.617 -0.3543  0.0724 -0.7615
 1014MOL0     C39824  12.522   1.304   5.697  0.3760  0.0163  0.6799
 1014MOL0     O39825  12.501   1.323   5.829  0.4871 -0.0709 -0.7074
 1014MOL0     C39826  12.605   1.337   5.919  0.5388  0.3614  0.1770
 1014MOL0     C39827  12.724   1.401   5.890 -0.4449 -0.7877  0.0201
 1014MOL0     C39828  12.825   1.404   5.993 -1.2180 -0.2269  1.1269
 1014MOL0     C39829  12.809   1.323   6.108 -1.0447 -0.1058 -0.2905
 1014MOL0     O39830  12.898   1.324   6.218 -0.2466 -0.4909 -0.2325
 1014MOL0     C39831  13.023   1.400   6.221  0.5495  0.1022  0.4368
 1014MOL0     C39832  13.114   1.378   6.345 -0.2554 -0.5364 -0.3227
 1014MOL0     C39833  13.108   1.221   6.382  0.7343 -0.3577 -0.2303
 1014MOL0     C39834  13.151   1.131   6.266  0.0864 -0.2155 -0.1031
 1014MOL0     C39835  13.189   0.985   6.310 -0.1402  0.7044 -0.5991
 1014MOL0     C39836  13.161   0.881   6.198 -0.4119 -0.6689 -0.3532
 1014MOL0     C39837  13.010   0.878   6.153 -0.2317  0.5108 -1.0461
 1014MOL0     C39838  12.910   0.816   6.256  0.0723  0.2833 -0.7854
 1014MOL0    Cl39839  12.755   0.753   6.189 -0.0162 -0.3870  0.0275
 1014MOL0     C39840  12.693   1.250   6.126  0.1062  0.5206  0.3765
 1014MOL0     C39841  12.588   1.258   6.039  0.8560  0.0175  0.7905
 1014MOL0     O39842  12.630   1.300   5.641  0.1545 -0.4766  0.4194
 1014MOL0     C39843  12.281   1.335   5.687  0.2043  0.5766 -0.1799
 1014MOL0     C39844  12.148   1.315   5.651 -0.5548 -0.5134 -0.0331
 1014MOL0     N39845  11.426   1.370   5.694  0.0005  0.1165  0.6603
 1014MOL0     N39846  11.311   1.408   5.712  0.6948 -0.0603 -0.8879
 1014MOL0     C39847  11.015   2.197   5.705 -0.4949 -0.4336 -1.0180
 1014MOL0     C39848  11.134   2.262   5.754  0.4763 -0.2095  0.6399
 1014MOL0     C39849  11.397   2.519   6.019  0.2514 -0.6146 -0.6910
 1014MOL0     C39850  11.421   2.631   6.090  0.2935 -0.1321 -0.3614
 1014MOL0     C39851  11.557   2.681   6.109  0.3067 -0.0764  1.7227
 1014MOL0     C39852  11.667   2.597   6.078 -0.0721  1.0418  1.1403
 1014MOL0     O39853  11.799   2.632   6.096 -0.1335  0.0317 -0.2036
 1014MOL0     C39854  11.837   2.759   6.023 -0.3635  0.7989 -0.0711
 1014MOL0     C39855  11.977   2.811   6.062  0.0684  0.1176 -0.2396
 1014MOL0     C39856  12.091   2.713   6.033  0.6359  1.0206  0.2386
 1014MOL0     C39857  12.227   2.759   6.103  0.4279  0.0024  0.5619
 1014MOL0     C39858  12.338   2.678   6.056  0.4093 -0.8098 -0.5005
 1014MOL0     C39859  12.412   2.598   6.005  0.2450  0.2949  0.3948
 1014MOL0     C39860  11.636   2.466   6.029  0.3221 -0.3583  0.1301
 1014MOL0     C39861  11.506   2.430   5.996  0.6177  0.1262  0.0690
 1014MOL0     C39862  11.491   2.290   5.927  0.9731  0.2906  0.2255
 1014MOL0     H39863  10.983   2.524   5.909 -1.6565  0.6634 -0.1660
 1014MOL0     H39864  10.770   2.400   5.840 -0.1289  2.4099 -2.2942
 1014MOL0     H39865  10.604   2.177   5.825 -1.1039 -0.5348  4.1133
 1014MOL0     H39866  10.748   2.106   5.902  0.2100  1.0330 -0.1433
 1014MOL0     H39867  10.593   1.951   5.866 -0.0760  1.7415 -0.0116
 1014MOL0     H39868  10.560   2.000   5.695  1.3563 -0.2414 -0.9887
 1014MOL0     H39869  10.761   1.908   5.617 -0.7989  2.0715 -0.2158
 1014MOL0     H39870  10.845   1.908   5.769  0.5940 -1.1011 -1.7649
 1014MOL0     H39871  10.646   1.733   5.833 -0.5251  1.9251  0.0175
 1014MOL0     H39872  10.658   1.689   5.668  3.1384 -2.9787  0.1700
 1014MOL0     H39873  10.807   1.573   5.814 -1.7966 -0.0630 -1.6985
 1014MOL0     H39874  10.892   1.717   5.861  1.1955 -0.7006 -0.8389
 1014MOL0     H39875  10.877   1.553   5.609  1.3347 -2.4410  1.4965
 1014MOL0     H39876  10.947   1.727   5.611  1.5901  0.2375  2.2300
 1014MOL0     H39877  11.069   1.528   5.793  0.6542 -3.4212 -2.2219
 1014MOL0     H39878  11.130   1.691   5.720  1.1146 -1.0847  1.0370
 1014MOL0     H39879  11.073   1.419   5.592 -1.6520  0.4224  0.3349
 1014MOL0     H39880  11.116   1.556   5.495  0.8252 -1.9728 -0.2323
 1014MOL0     H39881  11.380   1.576   5.446 -4.0022  3.0748  1.2391
 1014MOL0     H39882  11.664   1.444   5.616 -0.2650  0.0139  0.1626
 1014MOL0     H39883  11.640   1.488   5.442  2.3796 -0.1973  0.2746
 1014MOL0     H39884  11.593   1.202   5.547 -0.6099 -2.5458 -2.3284
 1014MOL0     H39885  11.539   1.261   5.399  1.6616 -3.1205 -1.6161
 1014MOL0     H39886  11.755   1.137   5.388 -1.5065  0.2201  0.4932
 1014MOL0     H39887  11.772   1.307   5.334 -1.5997  0.4330 -1.1028
 1014MOL0     H39888  11.872   1.377   5.545 -0.7550 -0.1191  0.3893
 1014MOL0     H39889  11.871   1.220   5.625  2.5718 -1.5145 -0.7461
 1014MOL0     H39890  12.203   1.142   5.359 -0.5994  0.3090 -1.2607
 1014MOL0     H39891  12.545   1.225   5.369  0.8090 -2.2370 -1.0154
 1014MOL0     H39892  12.440   1.101   5.324  0.7800 -0.0095 -0.5718
 1014MOL0     H39893  12.524   1.076   5.477 -1.9863 -0.4804  1.6062
 1014MOL0     H39894  12.737   1.455   5.797  1.8050 -2.3164 -0.6394
 1014MOL0     H39895  12.918   1.459   5.981  0.3922 -2.9016  0.3369
 1014MOL0     H39896  13.079   1.370   6.132 -3.3997 -0.6054 -2.0667
 1014MOL0     H39897  12.996   1.506   6.214  0.3563  0.1268  1.3367
 1014MOL0     H39898  13.216   1.406   6.319  1.5112 -3.8569  2.1981
 1014MOL0     H39899  13.079   1.444   6.426  2.4339  1.2503 -0.5049
 1014MOL0     H39900  13.005   1.196   6.410  0.6919  2.0727  2.2638
 1014MOL0     H39901  13.158   1.201   6.477 -0.5152 -0.6213  0.3996
 1014MOL0     H39902  13.243   1.168   6.219  0.6628 -0.6286  0.6691
 1014MOL0     H39903  13.062   1.142   6.204 -0.6569 -0.1386  0.9655
 1014MOL0     H39904  13.293   0.969   6.337 -0.4740  2.0147  1.7133
 1014MOL0     H39905  13.131   0.952   6.397  1.3271 -0.2527  0.0518
 1014MOL0     H39906  13.195   0.780   6.220  1.6657 -0.1208 -0.8722
 1014MOL0     H39907  13.211   0.920   6.109  1.2385  0.2424  0.9060
 1014MOL0     H39908  13.004   0.802   6.074 -1.5571 -0.4457 -0.0578
 1014MOL0     H39909  12.968   0.972   6.116 -1.8197  0.3583  0.2331
 1014MOL0     H39910  12.891   0.894   6.331  1.2668  2.9042 -3.0449
 1014MOL0     H39911  12.944   0.727   6.311 -0.3395 -1.2158 -2.8647
 1014MOL0     H39912  12.687   1.190   6.215 -0.4382  1.7703  1.2128
 1014MOL0     H39913  12.500   1.198   6.060 -1.1675  2.0009 -1.4003
 1014MOL0     H39914  12.300   1.400   5.772 -1.7778  0.5962  0.2919
 1014MOL0     H39915  12.069   1.351   5.715 -0.3137  2.0363 -1.0381
 1014MOL0     H39916  11.029   2.108   5.644  1.4144 -1.5686  0.9221
 1014MOL0     H39917  11.232   2.220   5.736  0.7620 -0.1485  1.9936
 1014MOL0     H39918  11.339   2.698   6.110 -0.7576 -1.8389  1.4274
 1014MOL0     H39919  11.561   2.776   6.161  1.8987  0.9533 -0.1470
 1014MOL0     H39920  11.823   2.733   5.917  0.1011  0.1547  0.0176
 1014MOL0     H39921  11.765   2.839   6.042  0.5743  1.8902 -0.9740
 1014MOL0     H39922  11.982   2.838   6.168 -1.3589  1.1012 -0.3934
 1014MOL0     H39923  11.997   2.896   5.997 -3.3211 -0.5593 -2.4294
 1014MOL0     H39924  12.075   2.609   6.066  1.9515  0.5328 -0.6076
 1014MOL0     H39925  12.099   2.720   5.925  4.5053  2.4269  0.4863
 1014MOL0     H39926  12.223   2.759   6.212  1.7977  2.5583  0.6944
 1014MOL0     H39927  12.245   2.863   6.074 -0.5772 -0.0241 -0.2125
 1014MOL0     H39928  12.496   2.545   5.965  1.3682  1.6089  0.9572
 1014MOL0     H39929  11.710   2.390   6.005  1.7551  0.6268  1.2618
 1014MOL0     H39930  11.448   2.212   5.991 -1.6730  0.9381 -0.6357
 1014MOL0     H39931  11.440   2.311   5.833 -1.4148 -0.6488  1.2446
 1014MOL0     H39932  11.581   2.239   5.889 -0.2755 -0.3443 -2.0676
 1015MOL0     O39933  11.430   7.984   0.683 -0.6731 -0.8651 -0.1844
 1015MOL0     C39934  11.421   7.909   0.777 -0.1777  0.6927  0.1938
 1015MOL0     O39935  11.519   7.835   0.831  0.5712  0.1736 -0.0611
 1015MOL0     C39936  11.643   7.883   0.860  0.4064  0.3618  0.6084
 1015MOL0     C39937  11.674   8.012   0.907 -0.3511  0.3569 -0.3741
 1015MOL0     C39938  11.809   8.057   0.907  1.2153 -0.3621 -0.0275
 1015MOL0     C39939  11.914   7.974   0.875  0.4157 -0.3765 -0.7118
 1015MOL0     O39940  12.045   8.023   0.880 -0.2282 -0.3253  0.6344
 1015MOL0     C39941  12.150   7.933   0.933  0.0188  0.6174  0.2422
 1015MOL0     C39942  12.286   8.006   0.949 -0.7420 -0.5451  0.5186
 1015MOL0     C39943  12.297   8.050   1.106  0.8049  0.3741  0.6787
 1015MOL0     C39944  12.382   7.971   1.202  0.1005  0.1243  0.2195
 1015MOL0     C39945  12.533   7.984   1.178 -0.2341  0.1239 -0.7453
 1015MOL0     C39946  12.611   7.899   1.283 -0.1701 -0.1453 -0.0480
 1015MOL0     C39947  12.600   7.745   1.289  1.1230 -0.6833  0.0064
 1015MOL0     C39948  12.703   7.691   1.191  0.3205  0.0470 -1.0437
 1015MOL0     N39949  12.824   7.648   1.258  0.0417 -0.1278 -0.1819
 1015MOL0     C39950  12.930   7.738   1.255  0.4262 -0.2744  0.6149
 1015MOL0     C39951  13.027   7.667   1.321  0.8154 -0.9895 -1.2180
 1015MOL0     C39952  13.158   7.713   1.347 -0.7129 -0.0809 -0.3957
 1015MOL0     C39953  13.267   7.614   1.285  0.6645 -0.3477 -0.5237
 1015MOL0     C39954  13.390   7.593   1.368  0.1010  0.1483 -0.2686
 1015MOL0     C39955  13.487   7.503   1.303  0.2612 -0.1084 -0.3136
 1015MOL0     O39956  13.553   7.571   1.198 -0.1468 -0.0623  0.6399
 1015MOL0     C39957  13.672   7.509   1.167 -0.1395  0.0527  0.5476
 1015MOL0     C39958  13.749   7.577   1.068 -0.2869 -0.0249  0.0063
 1015MOL0     C39959  13.867   7.529   1.007  0.0186  0.2661 -0.0774
 1015MOL0     C39960  13.933   7.621   0.899  0.6146 -0.0026 -0.2080
 1015MOL0     C39961  13.915   7.406   1.054  0.0788 -0.5404 -0.4701
 1015MOL0     C39962  14.044   7.347   1.011  0.2490 -0.0564  0.4447
 1015MOL0     O39963  14.087   7.245   1.084 -0.3719 -0.0948  0.0704
 1015MOL0     C39964  14.212   7.196   1.051 -0.2751 -0.2930 -0.7956
 1015MOL0     C39965  14.227   7.090   0.973 -0.5510  0.5177  0.7272
 1015MOL0     C39966  14.353   7.033   0.965 -0.9016 -0.1843  0.0273
 1015MOL0     C39967  14.468   7.086   1.041  0.3300  0.4404  0.0190
 1015MOL0     O39968  14.595   7.031   1.046 -0.8236  0.1394  0.2871
 1015MOL0     C39969  14.627   6.945   0.940 -0.4407 -0.1638  0.1588
 1015MOL0     C39970  14.761   6.890   0.961 -1.2399 -0.2546  0.1939
 1015MOL0     C39971  14.791   6.805   0.831  0.8134 -0.1463  0.2002
 1015MOL0     C39972  14.907   6.704   0.857  0.3930 -0.1657  0.5991
 1015MOL0     C39973  14.929   6.625   0.723  0.7409 -0.2842  0.2491
 1015MOL0     C39974  15.024   6.687   0.624 -0.1511  0.2487 -0.3571
 1015MOL0     C39975  15.040   6.599   0.504  0.3858 -0.0572  0.6392
 1015MOL0     C39976  15.150   6.652   0.426 -0.5180  0.1044 -0.1018
 1015MOL0    Cl39977  15.141   6.816   0.349 -0.3705  0.0925 -0.6111
 1015MOL0     C39978  14.443   7.200   1.119 -0.5791 -0.0630  0.3410
 1015MOL0     C39979  14.319   7.253   1.127  0.2621 -0.4682 -0.7971
 1015MOL0     O39980  14.100   7.394   0.914  0.6019  0.5172 -0.6339
 1015MOL0     C39981  13.843   7.336   1.152 -0.0871  0.4830 -0.2533
 1015MOL0     C39982  13.723   7.384   1.205  0.1311  0.5334  0.4418
 1015MOL0     N39983  12.983   7.539   1.346  0.5640  0.0017 -0.2188
 1015MOL0     N39984  12.861   7.523   1.304 -0.0436  0.3674 -0.0686
 1015MOL0     C39985  11.887   7.842   0.846  0.2106  0.3565  0.1809
 1015MOL0     C39986  11.753   7.799   0.834  0.2978 -0.2186 -0.0724
 1015MOL0     C39987  11.274   7.883   0.825 -0.3266  0.6208  0.1193
 1015MOL0     C39988  11.209   7.780   0.754  0.6769  0.9382  0.4206
 1015MOL0     C39989  11.085   7.722   0.795 -0.7485  0.0394 -0.6235
 1015MOL0     C39990  11.023   7.776   0.906  0.0817  0.4157  0.0041
 1015MOL0     O39991  10.904   7.717   0.936 -0.3581  0.2827  0.1042
 1015MOL0     C39992  10.836   7.739   1.059 -0.6442  0.3160 -0.4130
 1015MOL0     C39993  10.740   7.623   1.074 -0.1062  0.1791  0.6929
 1015MOL0     C39994  10.805   7.488   1.077 -0.2065  0.6692  0.3589
 1015MOL0     C39995  10.901   7.461   1.200 -0.3084  0.5369  0.6730
 1015MOL0     C39996  10.940   7.313   1.195 -0.1386 -0.7394 -0.4190
 1015MOL0     C39997  10.991   7.205   1.202  0.2236  0.5596 -0.2033
 1015MOL0     C39998  11.085   7.875   0.980  0.3973  0.3697 -0.9094
 1015MOL0     C39999  11.214   7.927   0.947 -0.2261 -0.1188 -0.6930
 1015MOL0     C40000  11.276   8.017   1.042 -0.0199  0.5611  0.1594
 1015MOL0     H40001  11.606   8.094   0.933 -1.5643 -1.2833  1.9451
 1015MOL0     H40002  11.808   8.162   0.935  0.2474 -0.6924  1.2924
 1015MOL0     H40003  12.168   7.841   0.877  0.3204 -1.6193  3.7202
 1015MOL0     H40004  12.120   7.905   1.034 -1.8187  0.7622 -0.2312
 1015MOL0     H40005  12.365   7.936   0.920 -1.3118 -0.0257 -2.6021
 1015MOL0     H40006  12.286   8.091   0.880  0.9811 -1.4562 -0.6628
 1015MOL0     H40007  12.319   8.157   1.117 -0.9283  1.1230 -2.0881
 1015MOL0     H40008  12.199   8.037   1.153  1.5324 -2.7079  1.5313
 1015MOL0     H40009  12.366   8.008   1.304  2.5174  2.9714 -0.2779
 1015MOL0     H40010  12.348   7.868   1.189  0.4815  0.1653 -1.2953
 1015MOL0     H40011  12.548   8.092   1.188  2.1673  0.0715 -2.8112
 1015MOL0     H40012  12.550   7.944   1.078 -1.5827 -0.1650 -0.8719
 1015MOL0     H40013  12.716   7.921   1.265 -0.3729  0.0722 -0.9866
 1015MOL0     H40014  12.588   7.936   1.384 -0.0101  0.1364 -0.1158
 1015MOL0     H40015  12.496   7.734   1.259  0.9648  1.1678 -0.2546
 1015MOL0     H40016  12.627   7.697   1.384 -1.6450 -4.2961 -0.8018
 1015MOL0     H40017  12.651   7.613   1.135 -0.2203  0.2483 -0.8325
 1015MOL0     H40018  12.726   7.769   1.118 -0.2711 -0.6886 -2.0278
 1015MOL0     H40019  12.938   7.836   1.209  0.3557 -0.5402  0.0278
 1015MOL0     H40020  13.169   7.721   1.455 -0.1794 -0.0368 -0.4489
 1015MOL0     H40021  13.172   7.813   1.305  1.2449 -0.4139 -0.6505
 1015MOL0     H40022  13.224   7.516   1.261 -2.2766  0.7194  0.0017
 1015MOL0     H40023  13.290   7.656   1.186  2.1165 -0.6945 -0.3580
 1015MOL0     H40024  13.436   7.692   1.382  1.8333 -0.5996 -0.4254
 1015MOL0     H40025  13.373   7.539   1.462  0.3030  1.8020  0.7796
 1015MOL0     H40026  13.549   7.473   1.388 -1.8693 -0.2358  1.2857
 1015MOL0     H40027  13.436   7.413   1.267  0.3676 -1.0309  1.7118
 1015MOL0     H40028  13.701   7.667   1.031 -1.4986 -0.4656  0.4431
 1015MOL0     H40029  13.885   7.718   0.887  2.1556  1.2590  2.7722
 1015MOL0     H40030  13.929   7.560   0.808  0.2860  0.2735 -0.3760
 1015MOL0     H40031  14.034   7.659   0.919  0.0722  0.9409  0.8214
 1015MOL0     H40032  14.149   7.037   0.918  0.5310 -1.0248  0.6141
 1015MOL0     H40033  14.358   6.947   0.899 -2.9585  0.0993 -0.5723
 1015MOL0     H40034  14.559   6.860   0.938 -1.1451  0.3510  1.0554
 1015MOL0     H40035  14.632   7.005   0.849 -3.4393 -0.2984 -0.1770
 1015MOL0     H40036  14.839   6.967   0.961  1.9528 -3.2431 -0.7972
 1015MOL0     H40037  14.770   6.829   1.051 -0.7791 -1.5477 -0.6924
 1015MOL0     H40038  14.825   6.869   0.748  1.7450 -0.5928  0.2167
 1015MOL0     H40039  14.698   6.752   0.812  0.0015  0.4628  2.2655
 1015MOL0     H40040  14.860   6.637   0.929 -1.0545 -0.1774 -0.3170
 1015MOL0     H40041  14.995   6.758   0.894  0.6141  0.6599 -1.0197
 1015MOL0     H40042  14.972   6.528   0.750  0.3880 -0.7312 -0.7648
 1015MOL0     H40043  14.830   6.614   0.676  1.0687 -0.8724 -0.3088
 1015MOL0     H40044  15.125   6.704   0.664  0.5763  3.9019 -3.2613
 1015MOL0     H40045  14.986   6.787   0.602  1.2044  0.2364 -3.0853
 1015MOL0     H40046  14.942   6.604   0.456  0.0649 -1.2869  1.1353
 1015MOL0     H40047  15.058   6.498   0.541 -3.3597 -1.1721 -0.1975
 1015MOL0     H40048  15.174   6.582   0.345  2.8916 -0.9361  1.6463
 1015MOL0     H40049  15.240   6.647   0.487 -0.5288  0.3357 -0.0658
 1015MOL0     H40050  14.523   7.252   1.171  1.3073  0.0696 -2.4941
 1015MOL0     H40051  14.307   7.356   1.161 -2.8430  0.5965 -4.4291
 1015MOL0     H40052  13.884   7.244   1.192 -2.6137  0.4322  2.6288
 1015MOL0     H40053  13.665   7.310   1.260 -0.6091 -0.2712 -1.3494
 1015MOL0     H40054  11.958   7.774   0.801  1.9395  2.2467 -0.0705
 1015MOL0     H40055  11.735   7.696   0.804  0.1872  0.3157 -1.9656
 1015MOL0     H40056  11.258   7.744   0.664 -0.3887 -1.1181  0.5919
 1015MOL0     H40057  11.032   7.639   0.748  0.2752 -1.4278  0.7260
 1015MOL0     H40058  10.906   7.752   1.142  0.0787 -0.7610 -0.8302
 1015MOL0     H40059  10.775   7.828   1.040 -0.0279  1.0832  1.0805
 1015MOL0     H40060  10.667   7.644   0.995 -0.7744  1.6768  1.6615
 1015MOL0     H40061  10.678   7.635   1.164 -2.9479  4.4632 -1.5006
 1015MOL0     H40062  10.730   7.409   1.085  0.4875  0.1436  2.4682
 1015MOL0     H40063  10.861   7.466   0.986 -3.6172 -0.8783 -1.5439
 1015MOL0     H40064  10.850   7.489   1.292  1.1988  0.5167  1.5432
 1015MOL0     H40065  10.987   7.528   1.191  0.7561 -0.7873  0.7873
 1015MOL0     H40066  11.045   7.113   1.216 -0.7293 -0.4461 -2.6312
 1015MOL0     H40067  11.050   7.898   1.080  2.3202 -0.2445 -0.0462
 1015MOL0     H40068  11.251   8.120   1.017 -4.8546 -0.7702 -1.7742
 1015MOL0     H40069  11.254   7.986   1.145 -2.4499  1.3131 -0.0698
 1015MOL0     H40070  11.384   8.001   1.048 -0.1815 -1.2934 -0.8181
 1016MOL0     O40071   5.651   2.838   4.644 -0.6065 -0.6961  0.4172
 1016MOL0     C40072   5.590   2.768   4.563  0.1893 -0.3288  0.3142
 1016MOL0     O40073   5.573   2.796   4.434 -0.4897 -0.1726  0.3323
 1016MOL0     C40074   5.601   2.921   4.394 -0.0111 -0.6057 -0.3649
 1016MOL0     C40075   5.494   3.017   4.404 -0.2647 -0.3819 -0.3368
 1016MOL0     C40076   5.517   3.135   4.337 -0.2755 -0.5077 -0.2038
 1016MOL0     C40077   5.633   3.175   4.267 -0.5556  0.5485  0.8017
 1016MOL0     O40078   5.641   3.300   4.217 -0.0067  0.1544  0.1855
 1016MOL0     C40079   5.754   3.377   4.247  0.1434  0.0248  0.0823
 1016MOL0     C40080   5.845   3.390   4.127  0.6303 -0.1738 -0.6278
 1016MOL0     C40081   5.975   3.471   4.152  0.4313  0.6585  0.6149
 1016MOL0     C40082   6.066   3.392   4.264 -0.9456  0.1027  0.7438
 1016MOL0     C40083   6.209   3.451   4.282  0.5382  0.1918  0.1398
 1016MOL0     C40084   6.286   3.349   4.350 -0.2900  0.2312 -0.4080
 1016MOL0     C40085   6.418   3.411   4.407  0.1116  0.7941 -0.7639
 1016MOL0     C40086   6.517   3.296   4.452  0.4178  0.8890 -0.0139
 1016MOL0     N40087   6.651   3.345   4.480 -0.2330 -0.0694  0.4966
 1016MOL0     C40088   6.682   3.479   4.514 -0.0880  0.0016  0.1679
 1016MOL0     C40089   6.813   3.488   4.531 -0.1745 -0.5367  0.7320
 1016MOL0     C40090   6.896   3.622   4.532  0.1644  0.0613  0.0694
 1016MOL0     C40091   6.959   3.650   4.395 -0.2357 -1.3367 -0.5873
 1016MOL0     C40092   7.074   3.557   4.342 -0.0337 -0.0362 -0.0770
 1016MOL0     C40093   7.156   3.509   4.453 -0.3491  0.3057 -0.0230
 1016MOL0     O40094   7.226   3.624   4.509 -0.5230  0.2287  0.3486
 1016MOL0     C40095   7.282   3.608   4.629 -0.0168  0.6542 -0.5633
 1016MOL0     C40096   7.274   3.488   4.703  0.1091 -0.4677 -0.3083
 1016MOL0     C40097   7.318   3.463   4.833 -0.1794 -0.4152 -0.7314
 1016MOL0     C40098   7.295   3.332   4.904 -0.2952  0.3611  0.3873
 1016MOL0     C40099   7.374   3.582   4.893  0.0291  0.8982  1.0878
 1016MOL0     C40100   7.420   3.584   5.028 -0.7670  0.4376  0.8412
 1016MOL0     O40101   7.471   3.458   5.077 -0.8285  0.2767 -0.5223
 1016MOL0     C40102   7.523   3.456   5.205  0.4974 -0.1909 -0.2168
 1016MOL0     C40103   7.653   3.431   5.233 -0.2227 -0.8154  0.1964
 1016MOL0     C40104   7.708   3.429   5.363  0.3678 -0.1058 -0.4072
 1016MOL0     C40105   7.627   3.467   5.475  0.0726  0.5035  0.2292
 1016MOL0     O40106   7.677   3.479   5.593  0.4491  0.1456 -0.4004
 1016MOL0     C40107   7.652   3.601   5.664  0.1928 -0.4917  0.6407
 1016MOL0     C40108   7.713   3.716   5.593 -0.7812 -0.4678  0.3381
 1016MOL0     C40109   7.769   3.832   5.673  0.3527 -0.7493  0.5624
 1016MOL0     C40110   7.871   3.900   5.584  1.0800 -0.5736 -0.2477
 1016MOL0     C40111   8.012   3.867   5.618 -0.3471  0.1357 -0.4229
 1016MOL0     C40112   8.124   3.936   5.543  1.4468  0.2927  0.4604
 1016MOL0     C40113   8.253   3.875   5.593  0.1650 -1.0019  0.1488
 1016MOL0     C40114   8.371   3.942   5.527 -0.8224  0.3897 -0.4535
 1016MOL0    Cl40115   8.380   4.129   5.565  0.4328 -0.1619 -0.6385
 1016MOL0     C40116   7.491   3.478   5.448 -0.1275  0.5978 -0.0827
 1016MOL0     C40117   7.436   3.470   5.317  0.8520  0.3137  0.1917
 1016MOL0     O40118   7.405   3.682   5.098 -0.2974 -0.1673 -0.5145
 1016MOL0     C40119   7.381   3.704   4.829 -0.7235 -0.0549  0.0037
 1016MOL0     C40120   7.341   3.710   4.700 -0.5831 -0.0107 -0.0612
 1016MOL0     N40121   6.871   3.358   4.524  0.7484 -0.2243  0.7152
 1016MOL0     N40122   6.767   3.274   4.501 -0.5729 -0.1928  0.5006
 1016MOL0     C40123   5.736   3.078   4.280 -0.4591 -0.0762  0.0950
 1016MOL0     C40124   5.719   2.953   4.336 -0.3708 -0.2636  1.1640
 1016MOL0     C40125   5.557   2.626   4.605 -0.6607 -1.0910  0.8606
 1016MOL0     C40126   5.606   2.514   4.533 -0.4313  1.0560 -0.2600
 1016MOL0     C40127   5.573   2.390   4.574 -0.1924  0.3496  0.1790
 1016MOL0     C40128   5.482   2.369   4.682 -0.5381  0.0412 -0.7513
 1016MOL0     O40129   5.438   2.247   4.700 -0.4425  0.1198  0.1203
 1016MOL0     C40130   5.348   2.223   4.812 -0.1803  0.7014 -0.1412
 1016MOL0     C40131   5.328   2.073   4.853 -0.1434 -0.9294 -0.2831
 1016MOL0     C40132   5.298   2.043   5.002  0.3005 -0.4480  0.0485
 1016MOL0     C40133   5.153   2.088   5.047  0.1327 -0.1028  0.0154
 1016MOL0     C40134   5.042   2.026   4.982  0.4394 -0.2355 -0.8624
 1016MOL0     C40135   4.960   1.967   4.909  0.1267  0.4726 -0.1898
 1016MOL0     C40136   5.433   2.480   4.757 -0.5768 -0.4262  0.0362
 1016MOL0     C40137   5.475   2.612   4.717  0.0144 -0.2801 -0.0922
 1016MOL0     C40138   5.407   2.738   4.791  0.2714  0.1844  0.0947
 1016MOL0     H40139   5.402   3.000   4.457  0.3146  3.9309  2.5159
 1016MOL0     H40140   5.440   3.211   4.333 -1.9026 -2.0947 -0.1899
 1016MOL0     H40141   5.802   3.348   4.341  2.6965  0.1638 -1.0858
 1016MOL0     H40142   5.721   3.480   4.267 -1.8066  0.0821 -2.9332
 1016MOL0     H40143   5.875   3.289   4.100  1.4217  0.4083 -2.0278
 1016MOL0     H40144   5.793   3.428   4.038 -1.2816 -0.6783  0.2221
 1016MOL0     H40145   6.023   3.475   4.054 -2.8826 -0.8717 -1.2324
 1016MOL0     H40146   5.952   3.576   4.174 -0.9617  0.9252 -1.8499
 1016MOL0     H40147   6.013   3.402   4.359  0.8886  2.4670  1.6344
 1016MOL0     H40148   6.072   3.286   4.238  0.3003  0.4954 -0.7430
 1016MOL0     H40149   6.206   3.544   4.340 -1.1780  0.7837 -0.8344
 1016MOL0     H40150   6.260   3.477   4.189  0.8243  1.6854  0.6863
 1016MOL0     H40151   6.230   3.287   4.422  3.5691 -0.8798  1.9498
 1016MOL0     H40152   6.305   3.280   4.267 -0.5933  1.9066 -1.9279
 1016MOL0     H40153   6.398   3.483   4.486 -2.5368 -1.5007  0.8430
 1016MOL0     H40154   6.461   3.477   4.330 -1.2848  0.0743 -2.2057
 1016MOL0     H40155   6.472   3.246   4.539 -3.0522  0.9539 -1.6105
 1016MOL0     H40156   6.519   3.236   4.361 -0.6387  0.8948 -0.0526
 1016MOL0     H40157   6.622   3.568   4.506  5.0100  3.7148 -2.2008
 1016MOL0     H40158   6.968   3.619   4.614  0.4681 -0.3670 -0.2073
 1016MOL0     H40159   6.827   3.703   4.556 -0.1853 -0.1963 -0.0438
 1016MOL0     H40160   6.882   3.656   4.317  1.2608  0.7636 -2.0485
 1016MOL0     H40161   6.989   3.755   4.399  0.1815 -1.4759  0.0036
 1016MOL0     H40162   7.023   3.470   4.300  0.1748 -0.7658  1.1150
 1016MOL0     H40163   7.123   3.607   4.259  1.7429  0.0855  1.0017
 1016MOL0     H40164   7.105   3.443   4.523 -3.6098  3.9423  1.4111
 1016MOL0     H40165   7.228   3.444   4.402 -1.8555  0.4200 -2.4393
 1016MOL0     H40166   7.230   3.399   4.659 -0.3612  0.6950 -2.3257
 1016MOL0     H40167   7.223   3.267   4.852  1.1898 -1.2244  0.2320
 1016MOL0     H40168   7.233   3.350   4.993 -0.8757 -1.2856  0.3435
 1016MOL0     H40169   7.392   3.288   4.926 -0.7917 -2.0420 -1.7521
 1016MOL0     H40170   7.724   3.409   5.154 -0.0001  1.2944 -0.2432
 1016MOL0     H40171   7.813   3.414   5.388  0.1254 -2.0391 -0.3589
 1016MOL0     H40172   7.547   3.612   5.693 -0.4662  2.0727 -2.1513
 1016MOL0     H40173   7.721   3.602   5.748  1.0846  0.2485 -0.0787
 1016MOL0     H40174   7.795   3.679   5.531  0.0678 -0.6150  1.5158
 1016MOL0     H40175   7.637   3.767   5.533 -0.4500 -1.3372 -0.8518
 1016MOL0     H40176   7.808   3.794   5.768  1.3899 -1.7317 -0.2399
 1016MOL0     H40177   7.693   3.907   5.697 -2.4635 -2.4305 -2.4506
 1016MOL0     H40178   7.861   4.007   5.602 -0.7792 -0.9402  1.1143
 1016MOL0     H40179   7.858   3.892   5.476  0.2292 -1.1957 -0.1089
 1016MOL0     H40180   8.023   3.898   5.723 -2.6792  2.4499 -0.7411
 1016MOL0     H40181   8.013   3.759   5.602  1.3207  0.2326 -1.2520
 1016MOL0     H40182   8.118   4.044   5.563 -0.5644 -0.0471  2.0983
 1016MOL0     H40183   8.114   3.911   5.437  1.0578 -1.6954  0.9403
 1016MOL0     H40184   8.256   3.767   5.573  0.5057 -1.5110  2.6841
 1016MOL0     H40185   8.263   3.880   5.701 -1.4281  0.9421  0.2582
 1016MOL0     H40186   8.387   3.915   5.422 -1.6451 -0.4172 -0.3829
 1016MOL0     H40187   8.463   3.900   5.569 -0.8913 -0.9972 -1.6142
 1016MOL0     H40188   7.424   3.490   5.533 -2.5358 -1.7354 -1.5098
 1016MOL0     H40189   7.328   3.469   5.302  1.1556 -0.3826 -2.3278
 1016MOL0     H40190   7.420   3.793   4.877 -1.5590 -0.3284  1.2242
 1016MOL0     H40191   7.350   3.805   4.648 -1.6904 -0.1963 -0.6245
 1016MOL0     H40192   5.828   3.107   4.232  0.0136 -1.8896 -0.1733
 1016MOL0     H40193   5.802   2.884   4.322  0.3923  1.2472 -2.9547
 1016MOL0     H40194   5.673   2.522   4.448 -1.8350 -0.6801 -1.6063
 1016MOL0     H40195   5.595   2.302   4.515  1.7782 -0.2599  1.7267
 1016MOL0     H40196   5.401   2.259   4.901  1.4287 -1.1471 -0.2738
 1016MOL0     H40197   5.253   2.276   4.812 -0.0208  1.0954  2.0356
 1016MOL0     H40198   5.412   2.006   4.833 -1.5445 -2.4868 -1.1711
 1016MOL0     H40199   5.243   2.034   4.797 -1.9687  0.2991  1.4936
 1016MOL0     H40200   5.313   1.938   5.028  2.3699 -0.7789 -2.2044
 1016MOL0     H40201   5.379   2.092   5.057  2.3198 -0.8655 -2.3617
 1016MOL0     H40202   5.136   2.193   5.021  0.1069 -0.3682 -1.0767
 1016MOL0     H40203   5.156   2.088   5.157 -0.2471 -0.8423  0.0299
 1016MOL0     H40204   4.885   1.926   4.844 -1.7359 -2.6497  3.4425
 1016MOL0     H40205   5.345   2.466   4.820  0.3470 -2.0317  1.0552
 1016MOL0     H40206   5.483   2.801   4.838  0.2624  1.2090 -1.2235
 1016MOL0     H40207   5.353   2.798   4.718 -1.5079 -3.0081 -1.4517
 1016MOL0     H40208   5.339   2.700   4.869 -2.6481  1.3470 -1.7065
 1017MOL0     O40209   3.527   7.539   5.773  0.1102  0.2926 -0.8698
 1017MOL0     C40210   3.521   7.474   5.883  0.1206  0.2001 -0.6481
 1017MOL0     O40211   3.617   7.462   5.973 -0.1841  0.2238 -0.2432
 1017MOL0     C40212   3.751   7.493   5.940  0.6984  0.7571  0.1490
 1017MOL0     C40213   3.809   7.433   5.827  0.7054  0.6262 -0.3767
 1017MOL0     C40214   3.945   7.450   5.804 -0.5742 -0.0995  0.3318
 1017MOL0     C40215   4.028   7.523   5.885 -0.0332  0.8346  0.6832
 1017MOL0     O40216   4.152   7.548   5.844 -0.0208 -0.3964 -0.4901
 1017MOL0     C40217   4.218   7.659   5.911 -0.6067  0.4821 -0.1202
 1017MOL0     C40218   4.359   7.675   5.852 -0.0930  0.2862  0.5288
 1017MOL0     C40219   4.350   7.733   5.715 -0.4497  0.0465 -0.2126
 1017MOL0     C40220   4.468   7.820   5.683 -0.3584 -0.0878 -0.3061
 1017MOL0     C40221   4.608   7.755   5.678 -1.0472 -0.1655 -0.0810
 1017MOL0     C40222   4.688   7.794   5.548 -0.3825  0.6026 -0.6467
 1017MOL0     C40223   4.828   7.739   5.541  0.5929 -0.2005 -0.5086
 1017MOL0     C40224   4.884   7.750   5.403  0.1865  0.1431  0.4243
 1017MOL0     N40225   5.020   7.703   5.387 -0.0058  0.3094  0.0120
 1017MOL0     C40226   5.129   7.783   5.395 -0.2340 -0.6408 -0.3924
 1017MOL0     C40227   5.242   7.712   5.415 -0.5407 -0.6411  0.3504
 1017MOL0     C40228   5.383   7.750   5.427 -0.7822 -0.2273 -0.6689
 1017MOL0     C40229   5.419   7.859   5.330  0.1640 -0.6110  0.9264
 1017MOL0     C40230   5.557   7.912   5.365  0.1109  0.7654 -0.1371
 1017MOL0     C40231   5.613   8.008   5.259 -0.0739 -0.1973 -0.2324
 1017MOL0     O40232   5.519   8.112   5.211 -0.1930  0.2548  0.5899
 1017MOL0     C40233   5.557   8.166   5.090  0.1533  0.4263 -0.0865
 1017MOL0     C40234   5.458   8.233   5.020  0.6092 -0.0375 -0.8841
 1017MOL0     C40235   5.475   8.294   4.893  0.2287 -1.8147 -0.3441
 1017MOL0     C40236   5.349   8.357   4.834 -0.0545 -0.3371 -0.2108
 1017MOL0     C40237   5.605   8.299   4.836  1.0085 -0.5324 -0.1978
 1017MOL0     C40238   5.634   8.376   4.714 -0.4541  0.3398  0.0070
 1017MOL0     O40239   5.755   8.340   4.666  0.1117 -0.3168  0.1177
 1017MOL0     C40240   5.829   8.411   4.571 -0.3043  0.2076 -0.1291
 1017MOL0     C40241   5.961   8.366   4.546 -0.0133  0.3369 -0.2052
 1017MOL0     C40242   6.036   8.427   4.448 -0.0159  0.3719  0.4055
 1017MOL0     C40243   5.990   8.537   4.376  0.1692  0.8960 -0.5591
 1017MOL0     O40244   6.075   8.598   4.280  0.0387  0.2040 -0.6950
 1017MOL0     C40245   6.024   8.695   4.193  0.5244 -0.6103 -0.4625
 1017MOL0     C40246   6.110   8.713   4.080  0.0367 -0.1890 -0.9258
 1017MOL0     C40247   6.075   8.842   3.998 -0.4357  0.2755 -0.0910
 1017MOL0     C40248   6.187   8.870   3.893  0.1810  0.2345  0.4394
 1017MOL0     C40249   6.169   9.005   3.829 -0.1214 -0.1748  0.0602
 1017MOL0     C40250   6.296   9.056   3.763  0.3374  0.4306  0.8630
 1017MOL0     C40251   6.292   9.182   3.695  0.1786  0.0473  0.2675
 1017MOL0     C40252   6.425   9.253   3.689  0.6560  1.1743  0.1941
 1017MOL0    Cl40253   6.527   9.181   3.561  0.0597  0.7253  0.3998
 1017MOL0     C40254   5.868   8.591   4.413 -0.2521  0.4006 -0.0343
 1017MOL0     C40255   5.789   8.529   4.510  1.2342 -0.7752  0.0791
 1017MOL0     O40256   5.567   8.469   4.674  0.0247  0.7046  0.3516
 1017MOL0     C40257   5.706   8.239   4.920  0.1378  0.1147 -0.3384
 1017MOL0     C40258   5.680   8.177   5.038  0.0807  0.2000  0.9015
 1017MOL0     N40259   5.194   7.582   5.415  1.0258 -0.1562  0.6055
 1017MOL0     N40260   5.065   7.578   5.399 -0.4606  0.9226  0.6207
 1017MOL0     C40261   3.962   7.587   6.001 -0.8408 -0.0523 -0.2846
 1017MOL0     C40262   3.827   7.570   6.029 -0.1294 -0.1040 -0.0964
 1017MOL0     C40263   3.411   7.382   5.904  0.4138  1.0060  0.4875
 1017MOL0     C40264   3.275   7.426   5.902 -0.1556 -0.6987  0.0363
 1017MOL0     C40265   3.171   7.340   5.942  0.1344 -0.5205 -0.9362
 1017MOL0     C40266   3.198   7.208   5.969 -0.0179  0.2994 -0.2492
 1017MOL0     O40267   3.097   7.118   6.007  0.5506 -0.3757 -0.6326
 1017MOL0     C40268   2.979   7.161   6.088  0.0599  0.2203  0.3446
 1017MOL0     C40269   2.891   7.042   6.128  0.5398  0.3195 -0.0589
 1017MOL0     C40270   2.979   6.933   6.185  0.8563 -0.0850  0.4534
 1017MOL0     C40271   2.910   6.816   6.256  0.2494  0.0376  0.5274
 1017MOL0     C40272   2.999   6.727   6.326 -0.4685 -0.2059  0.7820
 1017MOL0     C40273   3.066   6.649   6.396 -0.1385 -0.3224 -0.1502
 1017MOL0     C40274   3.328   7.154   5.951  0.2307  1.0839 -0.0452
 1017MOL0     C40275   3.433   7.245   5.920 -0.2626  0.8905  0.5341
 1017MOL0     C40276   3.564   7.180   5.900 -1.0295 -0.7705  0.0444
 1017MOL0     H40277   3.750   7.380   5.754  0.9404 -3.8031  2.3068
 1017MOL0     H40278   3.992   7.407   5.715 -0.8922 -1.4384  0.7866
 1017MOL0     H40279   4.226   7.640   6.018  1.4522  0.1710 -0.2911
 1017MOL0     H40280   4.166   7.755   5.898  0.3337  1.2607  1.5795
 1017MOL0     H40281   4.415   7.745   5.915 -0.7119  2.0577 -0.8003
 1017MOL0     H40282   4.416   7.582   5.861  1.1688  1.1244  1.5943
 1017MOL0     H40283   4.323   7.652   5.647 -0.4547  1.9228 -2.5976
 1017MOL0     H40284   4.261   7.796   5.717  0.3390  1.2171 -0.7435
 1017MOL0     H40285   4.450   7.866   5.586  0.3878  0.8708 -0.0088
 1017MOL0     H40286   4.457   7.906   5.749 -2.7675 -0.0993 -0.6275
 1017MOL0     H40287   4.600   7.646   5.681 -0.5586 -0.1923  0.5207
 1017MOL0     H40288   4.671   7.789   5.761  1.2517 -2.2232 -0.8855
 1017MOL0     H40289   4.627   7.750   5.469 -0.7604 -0.1373  0.0471
 1017MOL0     H40290   4.690   7.903   5.539 -0.8687  0.8190  1.3860
 1017MOL0     H40291   4.821   7.632   5.562 -0.9174  0.3934  2.6425
 1017MOL0     H40292   4.898   7.787   5.611  1.0486  0.2243 -1.2419
 1017MOL0     H40293   4.832   7.684   5.333  2.3852  1.1427 -2.3337
 1017MOL0     H40294   4.869   7.853   5.371  1.2549  1.0112  2.5556
 1017MOL0     H40295   5.132   7.891   5.380  1.9986 -0.7943 -1.4897
 1017MOL0     H40296   5.447   7.666   5.401  1.0863  1.7034 -2.7973
 1017MOL0     H40297   5.397   7.776   5.532  2.2618 -0.1743 -1.0165
 1017MOL0     H40298   5.417   7.819   5.228 -1.9615  1.7023 -0.0360
 1017MOL0     H40299   5.353   7.946   5.329  1.6006  0.5241 -0.6118
 1017MOL0     H40300   5.553   7.977   5.453  1.9423  3.1170 -1.6807
 1017MOL0     H40301   5.612   7.818   5.375 -3.2862 -1.4161 -0.2387
 1017MOL0     H40302   5.694   8.065   5.306 -1.4043 -0.0455  2.0161
 1017MOL0     H40303   5.651   7.939   5.183 -2.8888 -2.7825  0.5191
 1017MOL0     H40304   5.361   8.231   5.070  1.1062 -0.5967  0.0823
 1017MOL0     H40305   5.336   8.464   4.851  0.4776  0.2674 -3.1311
 1017MOL0     H40306   5.267   8.300   4.880  1.3539  0.9817  4.4813
 1017MOL0     H40307   5.367   8.340   4.727 -0.1554 -1.8680 -0.0126
 1017MOL0     H40308   5.997   8.272   4.586  0.2116  0.3223 -0.4460
 1017MOL0     H40309   6.130   8.382   4.416  0.6519  2.2067 -0.3208
 1017MOL0     H40310   5.929   8.656   4.156  0.5318  0.1555 -1.3319
 1017MOL0     H40311   6.011   8.788   4.250  1.3850  0.4811 -1.9502
 1017MOL0     H40312   6.213   8.726   4.113 -0.6898  1.1037  1.0301
 1017MOL0     H40313   6.101   8.622   4.019 -0.2318  0.9319 -2.6283
 1017MOL0     H40314   6.071   8.919   4.075 -0.3034 -0.6672  0.8774
 1017MOL0     H40315   5.977   8.822   3.953  1.1529 -1.6377 -3.0377
 1017MOL0     H40316   6.170   8.796   3.814  0.2783  0.5876  0.0880
 1017MOL0     H40317   6.290   8.869   3.929  0.0261 -0.0541  0.8875
 1017MOL0     H40318   6.077   9.019   3.772 -1.6765 -0.0264  2.4898
 1017MOL0     H40319   6.163   9.074   3.914  0.4905  1.8754 -1.4733
 1017MOL0     H40320   6.309   8.979   3.686 -0.9639  1.9229 -0.9163
 1017MOL0     H40321   6.386   9.041   3.823  0.9977 -0.9772 -0.4189
 1017MOL0     H40322   6.232   9.261   3.741 -1.4277  0.2732 -2.0333
 1017MOL0     H40323   6.244   9.172   3.597 -0.1495  1.8947  0.1932
 1017MOL0     H40324   6.468   9.234   3.788 -2.3134 -2.1046  1.0421
 1017MOL0     H40325   6.406   9.358   3.664 -0.8630  0.3845 -2.2768
 1017MOL0     H40326   5.832   8.683   4.368  3.2985  2.1659  0.3914
 1017MOL0     H40327   5.693   8.580   4.519  1.1349 -0.2817 -2.8279
 1017MOL0     H40328   5.809   8.239   4.886  0.8924 -0.7846  1.7461
 1017MOL0     H40329   5.768   8.145   5.094  0.7621 -0.6240 -0.5659
 1017MOL0     H40330   4.021   7.641   6.074  0.7791 -1.0007 -0.8363
 1017MOL0     H40331   3.781   7.605   6.121  0.0734  1.9505 -0.7164
 1017MOL0     H40332   3.257   7.532   5.887  0.3085 -0.6596 -0.2657
 1017MOL0     H40333   3.069   7.377   5.941 -0.4729 -2.0517  0.2183
 1017MOL0     H40334   3.003   7.218   6.178 -1.0040 -1.3589  1.6970
 1017MOL0     H40335   2.921   7.239   6.037  1.6894  0.6620 -0.9302
 1017MOL0     H40336   2.843   6.989   6.045  1.3576 -2.2306  0.9692
 1017MOL0     H40337   2.825   7.082   6.205 -0.7708  2.3541 -2.1057
 1017MOL0     H40338   3.044   6.891   6.108  1.0333  1.2986 -0.1725
 1017MOL0     H40339   3.048   6.976   6.259  0.8344 -2.0643  1.7233
 1017MOL0     H40340   2.852   6.750   6.191 -2.2090  1.3045  1.2939
 1017MOL0     H40341   2.832   6.856   6.323 -0.2897 -2.3417  1.4049
 1017MOL0     H40342   3.125   6.589   6.462  2.0806  0.0706 -1.6948
 1017MOL0     H40343   3.348   7.050   5.973  0.9524  1.0630 -0.7443
 1017MOL0     H40344   3.614   7.171   5.997  3.2020  0.3979 -1.8125
 1017MOL0     H40345   3.557   7.080   5.857  0.7593 -0.9318  0.0817
 1017MOL0     H40346   3.623   7.228   5.821 -1.5415  0.2407  0.2590
 1018MOL0     O40347   6.189   9.324   9.761 -0.3655  0.7492  0.4053
 1018MOL0     C40348   6.303   9.370   9.744 -0.4599  0.7970  0.6869
 1018MOL0     O40349   6.403   9.298   9.675  0.0439 -0.1683 -0.4839
 1018MOL0     C40350   6.392   9.165   9.692  0.1459  0.5114  1.4764
 1018MOL0     C40351   6.457   9.104   9.795  0.3730  0.0422 -1.3884
 1018MOL0     C40352   6.454   8.968   9.801  0.4478  0.1212 -0.3938
 1018MOL0     C40353   6.376   8.884   9.713  0.2019 -0.4475 -0.3327
 1018MOL0     O40354   6.387   8.746   9.730 -0.6466 -0.3128 -0.7999
 1018MOL0     C40355   6.275   8.666   9.661 -0.0695 -0.7806  0.7239
 1018MOL0     C40356   6.299   8.511   9.666  0.1544 -0.1888 -0.4572
 1018MOL0     C40357   6.190   8.451   9.583  0.3403  0.8636 -0.3040
 1018MOL0     C40358   6.207   8.451   9.425 -0.4890  0.2441  1.0841
 1018MOL0     C40359   6.120   8.347   9.344  0.9955 -0.1621  0.1554
 1018MOL0     C40360   5.965   8.377   9.348  0.8741  0.4920  0.0676
 1018MOL0     C40361   5.877   8.282   9.259 -0.8308 -0.2553  0.1481
 1018MOL0     C40362   5.903   8.293   9.102 -0.1856  0.6744  0.2816
 1018MOL0     N40363   5.863   8.168   9.042 -0.3060  0.6767  0.1780
 1018MOL0     C40364   5.761   8.160   8.955  0.1585  0.3577  0.1992
 1018MOL0     C40365   5.732   8.029   8.953  0.6168  0.1256  0.2186
 1018MOL0     C40366   5.625   7.959   8.866 -0.1061 -0.3300 -0.2855
 1018MOL0     C40367   5.495   7.945   8.947 -0.2306  0.4779  0.5374
 1018MOL0     C40368   5.519   7.834   9.061  0.0382  0.6890  0.1084
 1018MOL0     C40369   5.574   7.689   9.023  0.0519  0.0191  0.1680
 1018MOL0     O40370   5.565   7.587   9.133 -0.5097 -0.2459  0.6901
 1018MOL0     C40371   5.624   7.464   9.095  0.3870 -0.5339 -0.8617
 1018MOL0     C40372   5.656   7.379   9.207  0.0858  0.0774  0.3798
 1018MOL0     C40373   5.695   7.244   9.187 -0.3000 -0.0912  0.0047
 1018MOL0     C40374   5.704   7.154   9.303  0.7108  0.8170 -0.0742
 1018MOL0     C40375   5.711   7.204   9.057 -0.1906 -0.1827  0.8050
 1018MOL0     C40376   5.739   7.062   9.018 -0.0136  0.2448 -0.0296
 1018MOL0     O40377   5.704   6.972   9.101  0.1876 -0.3899 -0.0652
 1018MOL0     C40378   5.729   6.845   9.059 -0.3346  0.4510  0.7447
 1018MOL0     C40379   5.638   6.777   8.988 -0.2921  0.1732 -0.0120
 1018MOL0     C40380   5.668   6.663   8.928  0.5762  0.1109  0.4219
 1018MOL0     C40381   5.791   6.594   8.955 -0.9758 -0.3566  0.4957
 1018MOL0     O40382   5.820   6.461   8.932 -0.1095  0.0100 -0.2934
 1018MOL0     C40383   5.712   6.374   8.910  0.7103  0.1561  0.3641
 1018MOL0     C40384   5.639   6.346   9.043 -0.3832 -1.2475  0.8659
 1018MOL0     C40385   5.530   6.236   9.046  0.3936 -1.0265 -0.1828
 1018MOL0     C40386   5.492   6.214   9.195  0.4202  0.2648 -0.1877
 1018MOL0     C40387   5.415   6.078   9.212  0.1109  0.7676 -0.1656
 1018MOL0     C40388   5.357   6.072   9.356 -1.3183  1.2592  0.7714
 1018MOL0     C40389   5.463   6.071   9.464 -0.0955  0.4422 -0.2020
 1018MOL0     C40390   5.397   6.069   9.599 -0.0218  0.2237 -0.1580
 1018MOL0    Cl40391   5.528   6.084   9.715 -0.1751  0.0868 -0.1893
 1018MOL0     C40392   5.881   6.661   9.045  1.0789 -0.1292 -0.5613
 1018MOL0     C40393   5.854   6.787   9.095 -0.8655 -0.0268  0.2008
 1018MOL0     O40394   5.796   7.041   8.908 -0.2274  0.2142 -0.5644
 1018MOL0     C40395   5.698   7.296   8.956  0.0458  0.1903 -0.3798
 1018MOL0     C40396   5.645   7.422   8.966  0.6116 -0.3675  0.5784
 1018MOL0     N40397   5.825   7.954   9.019 -0.1321 -0.8247 -0.8586
 1018MOL0     N40398   5.904   8.043   9.078  0.0754 -0.2328  0.3715
 1018MOL0     C40399   6.319   8.953   9.597  0.5195 -0.4686 -0.5621
 1018MOL0     C40400   6.322   9.092   9.596  0.2962 -0.0901 -0.3630
 1018MOL0     C40401   6.322   9.516   9.771  0.3733  0.5885  0.5130
 1018MOL0     C40402   6.260   9.562   9.882 -0.8775 -0.9004  0.1641
 1018MOL0     C40403   6.261   9.695   9.918  0.6679 -0.6729  0.3094
 1018MOL0     C40404   6.310   9.793   9.832  0.4591  0.0843  0.6631
 1018MOL0     O40405   6.295   9.924   9.869 -0.2126 -0.2587 -0.1181
 1018MOL0     C40406   6.365  10.028   9.796 -0.0531  0.3726  0.6890
 1018MOL0     C40407   6.327  10.162   9.852  0.8759 -0.6223 -0.5771
 1018MOL0     C40408   6.176  10.192   9.837  0.1757 -0.4471 -0.4758
 1018MOL0     C40409   6.134  10.336   9.880 -0.6221 -0.0342 -0.2122
 1018MOL0     C40410   6.148  10.346  10.028 -0.8938 -0.1957  0.2362
 1018MOL0     C40411   6.155  10.366  10.146 -0.2214 -0.6122  0.6900
 1018MOL0     C40412   6.385   9.747   9.718  1.2306  0.4193 -0.3515
 1018MOL0     C40413   6.395   9.609   9.685  0.6038  0.1122 -0.3555
 1018MOL0     C40414   6.485   9.552   9.581 -0.8826 -0.3313 -0.0772
 1018MOL0     H40415   6.506   9.160   9.874 -1.6515  0.9626 -0.7032
 1018MOL0     H40416   6.511   8.918   9.879 -0.1802  2.9705  2.0859
 1018MOL0     H40417   6.284   8.702   9.559  1.0661 -1.0760  0.7148
 1018MOL0     H40418   6.182   8.701   9.707 -1.2913 -0.7581 -1.6248
 1018MOL0     H40419   6.399   8.512   9.621  0.3272  2.0355 -0.1695
 1018MOL0     H40420   6.302   8.457   9.760  1.5226 -0.8476 -0.8592
 1018MOL0     H40421   6.165   8.349   9.614 -3.5130  1.1655 -1.8709
 1018MOL0     H40422   6.094   8.500   9.598 -0.0571  0.1739 -0.5343
 1018MOL0     H40423   6.191   8.552   9.386 -0.5316 -0.3350 -0.4884
 1018MOL0     H40424   6.314   8.436   9.403 -0.9164 -1.0903 -0.2769
 1018MOL0     H40425   6.136   8.256   9.402 -1.2756  0.7917  2.4768
 1018MOL0     H40426   6.151   8.349   9.239 -0.6465  3.5014 -0.4245
 1018MOL0     H40427   5.929   8.384   9.451  0.4542 -1.0007  0.0429
 1018MOL0     H40428   5.953   8.480   9.311 -0.8177  0.3327  0.1088
 1018MOL0     H40429   5.770   8.302   9.274 -0.5989 -0.5872  2.6948
 1018MOL0     H40430   5.893   8.180   9.294 -3.1541 -0.6214  0.3040
 1018MOL0     H40431   5.838   8.377   9.073 -1.0983  0.4254  1.5032
 1018MOL0     H40432   6.003   8.305   9.060 -0.8143 -1.6922 -2.1593
 1018MOL0     H40433   5.697   8.234   8.909 -0.1656  0.2789  0.5138
 1018MOL0     H40434   5.660   7.861   8.833  0.8583 -0.5668  1.3066
 1018MOL0     H40435   5.610   8.007   8.769  0.6518 -2.4883 -1.5361
 1018MOL0     H40436   5.467   8.037   8.999 -0.9187  0.2265  0.6189
 1018MOL0     H40437   5.409   7.915   8.886 -1.1120  1.1955  1.4033
 1018MOL0     H40438   5.588   7.878   9.132 -1.2660  0.6461  1.4542
 1018MOL0     H40439   5.431   7.828   9.126  1.2928 -0.0273  1.7852
 1018MOL0     H40440   5.512   7.665   8.936  0.1127 -0.8375  0.3473
 1018MOL0     H40441   5.675   7.695   8.980 -1.2102 -1.4117 -3.4158
 1018MOL0     H40442   5.643   7.419   9.307  0.5275 -3.5070  2.0449
 1018MOL0     H40443   5.792   7.088   9.305 -0.1721 -0.3947  1.1843
 1018MOL0     H40444   5.613   7.093   9.303 -1.2370  3.5720  0.6513
 1018MOL0     H40445   5.702   7.217   9.392 -2.4898 -0.7552  1.1269
 1018MOL0     H40446   5.548   6.820   8.946  0.6541 -0.6818 -3.2020
 1018MOL0     H40447   5.591   6.617   8.867 -1.3837  2.5237  0.8717
 1018MOL0     H40448   5.644   6.410   8.833  0.8708  1.5225  0.8327
 1018MOL0     H40449   5.752   6.278   8.875 -0.4914  0.4478 -2.0132
 1018MOL0     H40450   5.717   6.340   9.120  1.3237 -1.0931 -0.7713
 1018MOL0     H40451   5.596   6.443   9.072 -0.0585  0.4023 -3.4935
 1018MOL0     H40452   5.563   6.141   9.002 -0.6967 -0.7898 -1.5891
 1018MOL0     H40453   5.438   6.258   8.991 -0.5003 -0.7945  1.3483
 1018MOL0     H40454   5.432   6.300   9.226  0.5757  0.4504 -0.3950
 1018MOL0     H40455   5.580   6.225   9.259  1.5382  1.8881 -1.9139
 1018MOL0     H40456   5.325   6.081   9.150 -1.1055  0.4264  1.5116
 1018MOL0     H40457   5.484   5.996   9.193 -0.2960  0.0169  1.4194
 1018MOL0     H40458   5.300   5.980   9.374 -2.0841  0.6812 -3.4991
 1018MOL0     H40459   5.286   6.155   9.358 -1.7997  0.8606  0.4818
 1018MOL0     H40460   5.525   6.161   9.461  1.6019 -0.7032 -1.5157
 1018MOL0     H40461   5.525   5.981   9.463  1.4890  1.4676  0.6478
 1018MOL0     H40462   5.345   5.973   9.603 -1.4732  0.8762 -1.9106
 1018MOL0     H40463   5.324   6.149   9.617  1.7286  1.5262  1.5142
 1018MOL0     H40464   5.971   6.610   9.077 -0.7224 -1.4764  2.9073
 1018MOL0     H40465   5.915   6.834   9.171 -1.4523 -1.1894  1.4172
 1018MOL0     H40466   5.711   7.265   8.853 -0.8721  1.4687 -0.9177
 1018MOL0     H40467   5.629   7.476   8.874  2.1352 -2.0004 -0.7304
 1018MOL0     H40468   6.262   8.905   9.517  3.6273  0.0369 -3.3200
 1018MOL0     H40469   6.282   9.155   9.516  1.2284 -0.7432 -1.3738
 1018MOL0     H40470   6.201   9.503   9.951 -2.1015 -0.2186 -0.2618
 1018MOL0     H40471   6.216   9.728  10.011  2.6159  1.8250  0.4758
 1018MOL0     H40472   6.473  10.021   9.807 -0.2889 -1.1959  2.3705
 1018MOL0     H40473   6.338  10.031   9.690  0.0579  1.3759  0.6801
 1018MOL0     H40474   6.392  10.233   9.799  0.6488 -0.6927 -0.9538
 1018MOL0     H40475   6.361  10.160   9.956  0.2022  3.2735 -0.1123
 1018MOL0     H40476   6.146  10.153   9.740  0.6525  1.6920 -1.5272
 1018MOL0     H40477   6.121  10.127   9.907  0.7580  1.8556  2.3137
 1018MOL0     H40478   6.033  10.373   9.858 -0.4977  1.0145  0.8632
 1018MOL0     H40479   6.200  10.406   9.828  0.3059 -1.6424 -1.2597
 1018MOL0     H40480   6.164  10.385  10.251  3.0104  2.4842  0.0119
 1018MOL0     H40481   6.431   9.827   9.661  0.2228 -0.8006 -3.0206
 1018MOL0     H40482   6.428   9.495   9.506  0.6626 -1.2660 -0.5748
 1018MOL0     H40483   6.537   9.634   9.530  1.0606 -1.1295  0.5408
 1018MOL0     H40484   6.561   9.482   9.614  1.6963  1.2073 -2.3107
 1019MOL0     O40485   3.752  11.452   2.782  0.0039  0.0976  0.0176
 1019MOL0     C40486   3.725  11.395   2.884  0.3779 -0.5081 -1.1042
 1019MOL0     O40487   3.804  11.356   2.986 -0.1052  0.3466  0.7996
 1019MOL0     C40488   3.925  11.407   2.992 -0.1174  0.1945  0.4149
 1019MOL0     C40489   4.028  11.378   2.892 -0.5058 -0.1365 -0.9314
 1019MOL0     C40490   4.153  11.444   2.902 -0.3104  0.1631 -0.1123
 1019MOL0     C40491   4.177  11.546   2.999 -0.6126  0.5011  0.0714
 1019MOL0     O40492   4.288  11.617   3.005  0.0905 -0.7238  0.7828
 1019MOL0     C40493   4.416  11.560   2.959 -0.9930 -0.7310 -0.1817
 1019MOL0     C40494   4.524  11.657   3.016  0.7015  0.5930 -0.3521
 1019MOL0     C40495   4.668  11.614   2.983 -0.4773  0.0164 -0.8886
 1019MOL0     C40496   4.769  11.693   3.064 -0.0508 -0.3006  0.5739
 1019MOL0     C40497   4.916  11.664   3.030 -0.3047 -0.1135 -0.2743
 1019MOL0     C40498   4.984  11.792   3.078 -0.1979 -0.3416  0.2372
 1019MOL0     C40499   5.137  11.753   3.083 -0.2610 -0.7048  0.1000
 1019MOL0     C40500   5.198  11.731   2.945 -0.3727  0.4005 -0.4468
 1019MOL0     N40501   5.342  11.677   2.941 -0.0002 -0.5790 -0.1434
 1019MOL0     C40502   5.397  11.572   3.013 -0.2337  0.3108 -0.2376
 1019MOL0     C40503   5.511  11.529   2.952 -0.0869  0.2727 -0.8237
 1019MOL0     C40504   5.615  11.435   3.002  0.6641 -0.2406 -0.5130
 1019MOL0     C40505   5.639  11.315   2.895 -0.2903  0.5688 -0.0918
 1019MOL0     C40506   5.740  11.211   2.949 -0.2606 -0.6145  0.1452
 1019MOL0     C40507   5.780  11.111   2.839  0.5282  0.1659 -0.4374
 1019MOL0     O40508   5.838  10.998   2.902  0.1151 -0.9536  0.3002
 1019MOL0     C40509   5.976  10.990   2.925  0.8127 -0.1055 -0.2775
 1019MOL0     C40510   6.070  11.096   2.895 -0.4575  0.9194 -0.1624
 1019MOL0     C40511   6.206  11.072   2.917 -0.4638  0.3990  0.1020
 1019MOL0     C40512   6.307  11.182   2.892  0.6359  0.7230 -0.5171
 1019MOL0     C40513   6.253  10.952   2.953  0.7357  1.0831 -0.7096
 1019MOL0     C40514   6.395  10.915   2.995 -0.0072  0.7424  0.5705
 1019MOL0     O40515   6.437  10.799   2.932  0.0550  0.7980  0.5762
 1019MOL0     C40516   6.564  10.740   2.943  1.3857 -0.2295  0.1226
 1019MOL0     C40517   6.597  10.642   2.848  0.7267 -0.6995 -0.5260
 1019MOL0     C40518   6.724  10.583   2.852  0.1782  0.2421 -0.1458
 1019MOL0     C40519   6.817  10.611   2.955 -0.4782  0.2653  0.0336
 1019MOL0     O40520   6.939  10.547   2.972 -0.4450  0.3773  0.6141
 1019MOL0     C40521   7.057  10.630   3.003 -0.7981  0.0266  0.5705
 1019MOL0     C40522   7.178  10.583   2.917 -1.0925  0.1968  0.1234
 1019MOL0     C40523   7.236  10.444   2.945  0.8663 -0.1728  0.9847
 1019MOL0     C40524   7.325  10.437   3.069  0.3137  0.9149 -0.4000
 1019MOL0     C40525   7.375  10.294   3.094 -0.1432 -0.4230 -0.6563
 1019MOL0     C40526   7.432  10.275   3.233  2.0933  0.3180  0.1143
 1019MOL0     C40527   7.521  10.147   3.218 -0.4602  0.2955 -0.7446
 1019MOL0     C40528   7.582  10.116   3.349  0.4850 -0.4399  0.1647
 1019MOL0    Cl40529   7.461  10.065   3.472  0.2151 -0.0593  0.0669
 1019MOL0     C40530   6.777  10.714   3.044  0.5952 -0.1792 -0.2876
 1019MOL0     C40531   6.651  10.779   3.040  0.4346 -0.3791  0.8278
 1019MOL0     O40532   6.470  10.996   3.047  0.0786  0.6999 -0.6931
 1019MOL0     C40533   6.162  10.847   2.963 -0.1560  0.2948  0.7795
 1019MOL0     C40534   6.022  10.863   2.954  0.0767  0.1268  0.3948
 1019MOL0     N40535   5.521  11.602   2.837  0.4834  0.2726  0.9109
 1019MOL0     N40536   5.425  11.683   2.833 -0.1257  0.5201  0.0246
 1019MOL0     C40537   4.069  11.575   3.087 -0.1050 -0.0405  1.1683
 1019MOL0     C40538   3.947  11.506   3.090 -0.0689 -0.8640 -0.3939
 1019MOL0     C40539   3.587  11.345   2.904  0.5914 -0.0317 -1.1478
 1019MOL0     C40540   3.545  11.335   3.040  0.5001 -1.0282 -1.0682
 1019MOL0     C40541   3.424  11.270   3.071  0.4139  0.3640  0.1246
 1019MOL0     C40542   3.340  11.228   2.974  0.2827  0.4763 -0.2178
 1019MOL0     O40543   3.214  11.174   3.000 -0.1005 -0.0076  0.1134
 1019MOL0     C40544   3.164  11.160   3.124 -0.8251  0.1504 -0.1678
 1019MOL0     C40545   3.069  11.040   3.121 -0.9274 -0.0982  0.0092
 1019MOL0     C40546   3.147  10.913   3.090 -0.6335 -0.5483 -0.4158
 1019MOL0     C40547   3.053  10.797   3.108 -0.4124 -0.0827  0.1181
 1019MOL0     C40548   3.017  10.772   3.251 -0.0724 -0.2817  0.4278
 1019MOL0     C40549   2.990  10.739   3.363 -0.3991 -0.9008 -0.4464
 1019MOL0     C40550   3.374  11.237   2.842 -0.4008  0.2076 -0.4159
 1019MOL0     C40551   3.490  11.305   2.804 -0.1869 -0.5605 -0.3255
 1019MOL0     C40552   3.516  11.326   2.655  0.1684  0.8259 -0.6229
 1019MOL0     H40553   3.991  11.307   2.818 -1.6083 -0.6323  0.0692
 1019MOL0     H40554   4.229  11.416   2.831 -0.4842  1.5178 -0.8757
 1019MOL0     H40555   4.420  11.543   2.851  2.7184 -0.4054 -0.2280
 1019MOL0     H40556   4.426  11.463   3.008  3.8274 -1.0386 -1.2886
 1019MOL0     H40557   4.517  11.757   2.972  1.0964  2.4384  3.3528
 1019MOL0     H40558   4.505  11.671   3.123 -0.1746  1.1154 -0.5693
 1019MOL0     H40559   4.691  11.508   2.987  0.8392  0.3043  2.3653
 1019MOL0     H40560   4.684  11.647   2.879 -0.8655  0.8047 -0.7072
 1019MOL0     H40561   4.736  11.793   3.036  2.4688  0.2971 -0.5683
 1019MOL0     H40562   4.764  11.692   3.173  1.9618 -0.2530  0.7148
 1019MOL0     H40563   4.936  11.638   2.925  1.3257  0.2704 -0.0740
 1019MOL0     H40564   4.948  11.582   3.094 -1.4643 -1.2191 -1.0480
 1019MOL0     H40565   4.959  11.886   3.028 -2.6896  1.6567  4.6714
 1019MOL0     H40566   4.948  11.816   3.178  1.2915 -1.6354  1.1393
 1019MOL0     H40567   5.147  11.658   3.135 -0.8819 -0.0543  1.4556
 1019MOL0     H40568   5.187  11.832   3.141 -1.2646 -2.2102  3.2327
 1019MOL0     H40569   5.135  11.655   2.899 -1.4565  1.8218 -1.3813
 1019MOL0     H40570   5.199  11.823   2.887 -1.5638  0.6825 -0.0610
 1019MOL0     H40571   5.355  11.531   3.105  0.6737  0.3824  0.2222
 1019MOL0     H40572   5.577  11.411   3.102 -1.9923  0.4415 -1.2702
 1019MOL0     H40573   5.710  11.487   3.018 -0.2319  1.4631 -0.4876
 1019MOL0     H40574   5.542  11.266   2.878 -1.0205  2.7913 -3.1453
 1019MOL0     H40575   5.678  11.354   2.801  0.7050  2.0731  0.9129
 1019MOL0     H40576   5.832  11.258   2.986  0.6535  0.1189 -2.7911
 1019MOL0     H40577   5.677  11.158   3.021 -1.9382  1.5776  0.4109
 1019MOL0     H40578   5.695  11.070   2.783  0.5411 -1.4639  0.6636
 1019MOL0     H40579   5.838  11.169   2.766  0.9320  0.4334  0.0946
 1019MOL0     H40580   6.041  11.185   2.841 -0.2198  0.8992 -0.3263
 1019MOL0     H40581   6.406  11.156   2.854  1.2081  4.5991 -2.2033
 1019MOL0     H40582   6.338  11.236   2.982  0.5185  5.1430 -2.8477
 1019MOL0     H40583   6.265  11.253   2.821 -0.3795 -0.9379 -1.6197
 1019MOL0     H40584   6.524  10.612   2.774 -1.1721  0.6023  0.7037
 1019MOL0     H40585   6.746  10.509   2.776  0.2885 -1.0827  1.1286
 1019MOL0     H40586   7.036  10.735   2.981  1.3479  0.1159 -1.3814
 1019MOL0     H40587   7.091  10.621   3.106 -0.5499 -0.7576  0.4266
 1019MOL0     H40588   7.142  10.586   2.814 -0.9235  3.3622  0.0745
 1019MOL0     H40589   7.265  10.649   2.926 -0.6750 -0.2030 -0.8723
 1019MOL0     H40590   7.302  10.432   2.858  0.8566 -0.6780  1.0452
 1019MOL0     H40591   7.159  10.367   2.957 -0.2089  0.5757 -0.7174
 1019MOL0     H40592   7.274  10.475   3.159 -1.4448  1.9210 -1.7616
 1019MOL0     H40593   7.422  10.487   3.060  0.8066  0.0985  0.2014
 1019MOL0     H40594   7.293  10.222   3.098  0.3155 -0.9092  1.8766
 1019MOL0     H40595   7.452  10.268   3.021  2.2875  0.8693  1.3000
 1019MOL0     H40596   7.350  10.256   3.303  1.3975  0.6715 -0.6001
 1019MOL0     H40597   7.493  10.363   3.258  1.2001  0.6273  1.2966
 1019MOL0     H40598   7.609  10.170   3.157  0.4081  0.1972  0.4394
 1019MOL0     H40599   7.468  10.054   3.195  0.9130 -0.1605 -2.2741
 1019MOL0     H40600   7.625  10.209   3.388 -0.1947 -0.3070  0.6163
 1019MOL0     H40601   7.672  10.054   3.345  1.1708  0.5856 -1.4141
 1019MOL0     H40602   6.840  10.750   3.124 -0.4508 -0.7979  0.8406
 1019MOL0     H40603   6.625  10.849   3.120 -4.5373  0.0800 -0.8513
 1019MOL0     H40604   6.193  10.749   2.995 -1.6681  0.1688  1.9830
 1019MOL0     H40605   5.964  10.771   2.959  1.7605 -1.0021  0.1631
 1019MOL0     H40606   4.092  11.652   3.161 -1.3454 -0.4461  2.0114
 1019MOL0     H40607   3.866  11.527   3.158  0.7324 -0.7502  0.5428
 1019MOL0     H40608   3.602  11.370   3.125  0.1106  1.5942 -1.7837
 1019MOL0     H40609   3.400  11.256   3.177  2.1364  1.0161  0.6285
 1019MOL0     H40610   3.243  11.133   3.195  0.1448 -0.4864 -1.4469
 1019MOL0     H40611   3.115  11.256   3.141  0.8402  1.1237 -0.6574
 1019MOL0     H40612   2.990  11.044   3.045 -3.5266  0.3528  2.5692
 1019MOL0     H40613   3.016  11.032   3.216 -0.9394  2.3488  0.2879
 1019MOL0     H40614   3.174  10.913   2.984  1.3127  0.4996  0.0469
 1019MOL0     H40615   3.230  10.900   3.160 -0.4589 -1.0511 -0.7023
 1019MOL0     H40616   3.102  10.702   3.084  1.8846  0.5986  1.8165
 1019MOL0     H40617   2.959  10.802   3.052  0.0513  3.4759 -0.5201
 1019MOL0     H40618   2.965  10.706   3.461  2.2315 -2.3910 -0.1867
 1019MOL0     H40619   3.299  11.197   2.775 -1.6781 -1.3188  1.7957
 1019MOL0     H40620   3.562  11.425   2.641 -2.9491  2.2065 -1.9881
 1019MOL0     H40621   3.560  11.236   2.612 -0.5984 -0.3634  0.9888
 1019MOL0     H40622   3.417  11.342   2.612 -0.9391  1.8952  2.0634
 1020MOL0     O40623   1.993   6.208   5.159  0.9973 -0.5557 -0.2012
 1020MOL0     C40624   2.108   6.187   5.199 -0.1886  0.2091 -0.4702
 1020MOL0     O40625   2.193   6.285   5.255  0.3790  0.3786 -0.3570
 1020MOL0     C40626   2.141   6.407   5.284  0.4089  0.0199  0.0643
 1020MOL0     C40627   2.050   6.424   5.391 -0.1994  0.6887 -1.0452
 1020MOL0     C40628   2.001   6.552   5.426 -0.3022 -0.1158  1.0144
 1020MOL0     C40629   2.024   6.660   5.336  0.2731 -0.0016 -0.8065
 1020MOL0     O40630   1.974   6.785   5.343  0.2549 -1.2629 -0.5287
 1020MOL0     C40631   1.871   6.821   5.445  0.4358  0.7059  0.9565
 1020MOL0     C40632   1.875   6.975   5.452  0.2971  1.1427 -0.1852
 1020MOL0     C40633   1.777   7.024   5.562  1.1365  0.4631 -0.4131
 1020MOL0     C40634   1.772   7.178   5.571  0.3241 -0.2053 -0.0101
 1020MOL0     C40635   1.904   7.234   5.636  0.1790 -0.4043 -1.1821
 1020MOL0     C40636   1.889   7.374   5.688 -0.4622  0.1231  0.8258
 1020MOL0     C40637   2.026   7.415   5.736  0.3640 -0.0289  0.3540
 1020MOL0     C40638   2.022   7.516   5.851 -0.1086  0.5781 -0.5503
 1020MOL0     N40639   2.159   7.572   5.893  0.6304  0.1433 -0.6253
 1020MOL0     C40640   2.240   7.555   6.004 -0.8860 -0.5421 -0.6696
 1020MOL0     C40641   2.344   7.641   5.987  0.8339 -0.1080 -0.8738
 1020MOL0     C40642   2.453   7.648   6.092 -0.0764  0.0795  0.0361
 1020MOL0     C40643   2.539   7.525   6.090 -0.8941 -0.1223  1.3601
 1020MOL0     C40644   2.627   7.501   6.217  0.7528  0.3943 -0.1109
 1020MOL0     C40645   2.759   7.426   6.182 -0.0055  0.2360 -0.3366
 1020MOL0     O40646   2.836   7.424   6.304 -0.0664  0.0854  0.4984
 1020MOL0     C40647   2.901   7.540   6.346 -0.1300  0.4144  0.7278
 1020MOL0     C40648   2.918   7.657   6.271  0.8199 -0.4226  0.3153
 1020MOL0     C40649   2.984   7.772   6.321  0.5374 -0.1636  0.1195
 1020MOL0     C40650   2.998   7.883   6.221 -0.0278 -0.4253 -1.1401
 1020MOL0     C40651   3.017   7.771   6.458  0.3486  0.1746 -0.2089
 1020MOL0     C40652   3.066   7.884   6.542 -0.0374 -0.5489  0.2285
 1020MOL0     O40653   3.054   7.880   6.679  0.2399 -0.7291 -0.5337
 1020MOL0     C40654   3.116   7.980   6.747 -0.1935 -0.0334 -0.6226
 1020MOL0     C40655   3.252   7.979   6.773 -0.1128  0.2593 -0.6883
 1020MOL0     C40656   3.314   8.090   6.831 -0.4790  0.3710 -0.6714
 1020MOL0     C40657   3.231   8.198   6.874  0.6037  0.0512 -0.1626
 1020MOL0     O40658   3.289   8.296   6.956 -0.4640 -0.0499  0.1425
 1020MOL0     C40659   3.418   8.347   6.919 -0.3644 -0.0722  0.7550
 1020MOL0     C40660   3.445   8.489   6.964 -0.2484 -0.0811  0.3049
 1020MOL0     C40661   3.584   8.556   6.916  0.5034  0.5093 -0.8018
 1020MOL0     C40662   3.630   8.660   7.026 -0.1231 -0.8416  0.1931
 1020MOL0     C40663   3.754   8.740   6.979  0.5672  0.0351  0.1351
 1020MOL0     C40664   3.792   8.856   7.071  0.7237 -0.1790  0.2632
 1020MOL0     C40665   3.928   8.916   7.017  0.1485 -0.2293  1.2017
 1020MOL0     C40666   4.012   8.964   7.131 -0.9639 -0.4312  0.7784
 1020MOL0    Cl40667   4.115   8.839   7.191 -0.1172  0.1534  0.2729
 1020MOL0     C40668   3.094   8.205   6.833 -0.6081  0.3442 -0.9098
 1020MOL0     C40669   3.043   8.105   6.764  0.2738 -0.0334  0.7241
 1020MOL0     O40670   3.117   7.977   6.481 -0.2603  0.2464  0.2955
 1020MOL0     C40671   3.006   7.646   6.532 -0.5252 -0.0478  0.7384
 1020MOL0     C40672   2.951   7.539   6.474  0.2941  0.6258 -0.1298
 1020MOL0     N40673   2.336   7.694   5.866  0.7094 -0.5175  0.2379
 1020MOL0     N40674   2.221   7.650   5.808 -0.1341  0.0746 -0.1110
 1020MOL0     C40675   2.114   6.644   5.232 -0.0240 -0.0140  0.5223
 1020MOL0     C40676   2.171   6.521   5.202  0.4748 -0.2581 -0.5394
 1020MOL0     C40677   2.151   6.044   5.208  1.2089 -0.1937  0.2178
 1020MOL0     C40678   2.292   6.031   5.193 -0.3812  0.4093  0.0684
 1020MOL0     C40679   2.357   5.910   5.207 -0.8453  0.6869  0.4132
 1020MOL0     C40680   2.284   5.794   5.215  0.3103  0.5787  0.6039
 1020MOL0     O40681   2.356   5.674   5.218  0.2753 -0.1064 -0.8754
 1020MOL0     C40682   2.291   5.566   5.287 -0.0656 -0.8021  0.1573
 1020MOL0     C40683   2.395   5.469   5.334 -0.4505 -0.1860  0.1822
 1020MOL0     C40684   2.447   5.500   5.479 -0.4252 -0.4432  0.6982
 1020MOL0     C40685   2.513   5.634   5.513 -0.3055 -0.5245  0.3130
 1020MOL0     C40686   2.616   5.680   5.412 -0.1735  0.3032  0.5324
 1020MOL0     C40687   2.697   5.735   5.346  0.7682  0.6258 -0.5349
 1020MOL0     C40688   2.145   5.806   5.212 -0.2496  0.4241 -0.0429
 1020MOL0     C40689   2.079   5.924   5.201  0.8926 -0.2073 -0.1522
 1020MOL0     C40690   1.926   5.915   5.215  0.2171  0.7654  0.5584
 1020MOL0     H40691   2.036   6.339   5.457 -1.7903  1.8529  0.2008
 1020MOL0     H40692   1.930   6.569   5.507 -2.7084  4.1182 -1.6038
 1020MOL0     H40693   1.891   6.776   5.542  0.4576  1.1584  1.1662
 1020MOL0     H40694   1.776   6.790   5.402  0.6320  0.0395  0.9971
 1020MOL0     H40695   1.979   6.999   5.476  0.5216  1.2233 -1.1807
 1020MOL0     H40696   1.854   7.015   5.352  0.7550 -0.8114 -1.1008
 1020MOL0     H40697   1.679   6.984   5.532  0.8504  0.1233  0.9061
 1020MOL0     H40698   1.800   6.984   5.661 -0.4618 -2.5698 -1.1628
 1020MOL0     H40699   1.753   7.232   5.478  2.8764  1.7804  0.5173
 1020MOL0     H40700   1.687   7.206   5.634 -0.5657  1.4709 -1.8522
 1020MOL0     H40701   1.972   7.233   5.551  0.2681 -1.0140 -1.1058
 1020MOL0     H40702   1.948   7.175   5.717 -0.7119  0.5479  0.0352
 1020MOL0     H40703   1.868   7.441   5.604  0.4012  0.8524  1.1775
 1020MOL0     H40704   1.809   7.390   5.761 -1.3732  2.9817 -0.6439
 1020MOL0     H40705   2.085   7.459   5.654 -1.2406  0.9150 -0.3391
 1020MOL0     H40706   2.087   7.343   5.792  0.7731 -0.1839 -0.2698
 1020MOL0     H40707   1.949   7.596   5.832  0.9420  1.7363  0.1143
 1020MOL0     H40708   1.992   7.454   5.936  0.5911 -0.7273 -1.2187
 1020MOL0     H40709   2.210   7.491   6.087  0.2092 -0.4753 -0.2015
 1020MOL0     H40710   2.398   7.664   6.186 -1.3911  1.6828 -0.9460
 1020MOL0     H40711   2.518   7.735   6.085  0.0487  0.4025  3.3760
 1020MOL0     H40712   2.479   7.439   6.061 -1.9876  0.3272  2.2078
 1020MOL0     H40713   2.611   7.543   6.010 -0.4117  1.5613  2.1234
 1020MOL0     H40714   2.637   7.596   6.269  0.9146  0.4837 -0.3054
 1020MOL0     H40715   2.568   7.432   6.278 -2.0218  2.2456 -0.5384
 1020MOL0     H40716   2.747   7.323   6.148  1.3836 -0.6194  1.6184
 1020MOL0     H40717   2.808   7.481   6.101  1.0805 -1.4241 -0.8521
 1020MOL0     H40718   2.872   7.669   6.173 -0.8255  0.3885  1.1503
 1020MOL0     H40719   2.912   7.946   6.243 -0.4978 -0.6564 -2.2227
 1020MOL0     H40720   2.999   7.859   6.114  0.0771  0.8726 -1.4446
 1020MOL0     H40721   3.091   7.940   6.234  0.6022 -1.1536 -2.3040
 1020MOL0     H40722   3.302   7.883   6.768 -1.6856 -0.5646 -1.2309
 1020MOL0     H40723   3.418   8.085   6.859 -1.0152 -0.5191  1.3209
 1020MOL0     H40724   3.491   8.281   6.967  1.0089 -0.3507 -1.5830
 1020MOL0     H40725   3.426   8.328   6.812 -2.2813  2.5354  0.0440
 1020MOL0     H40726   3.365   8.550   6.921  0.9412  1.5474  0.2761
 1020MOL0     H40727   3.437   8.483   7.073 -1.9163  2.6320  0.4371
 1020MOL0     H40728   3.570   8.603   6.819 -0.7621 -0.3309 -1.0395
 1020MOL0     H40729   3.647   8.467   6.902  0.4563  0.0841  1.2873
 1020MOL0     H40730   3.656   8.604   7.116  3.4904 -2.2521 -1.5199
 1020MOL0     H40731   3.549   8.732   7.042 -0.3816 -0.5771 -1.9524
 1020MOL0     H40732   3.837   8.671   6.966  1.8975  1.8651 -2.0097
 1020MOL0     H40733   3.737   8.783   6.879  1.0744 -1.3062 -0.5539
 1020MOL0     H40734   3.808   8.814   7.171  2.4304 -1.1032 -0.3663
 1020MOL0     H40735   3.712   8.932   7.074  1.4102  0.5257  1.1439
 1020MOL0     H40736   3.897   9.004   6.961  2.2424  1.3970  2.4387
 1020MOL0     H40737   3.982   8.846   6.953  0.5474 -1.3472  2.6906
 1020MOL0     H40738   3.949   9.000   7.213  2.1120  3.4965  1.7690
 1020MOL0     H40739   4.074   9.049   7.099  0.4199 -0.5974  2.8187
 1020MOL0     H40740   3.027   8.287   6.856 -2.4263 -1.2714 -0.1838
 1020MOL0     H40741   2.939   8.111   6.734 -0.5347  0.7933  3.3690
 1020MOL0     H40742   3.033   7.647   6.637  3.6584  3.3367 -0.1033
 1020MOL0     H40743   2.926   7.442   6.517  0.0567  0.0947 -1.4177
 1020MOL0     H40744   2.114   6.734   5.171 -1.6594  0.3214  0.9589
 1020MOL0     H40745   2.235   6.526   5.114 -0.7251  1.5442 -1.3737
 1020MOL0     H40746   2.363   6.113   5.186  2.3218 -1.4812  2.8356
 1020MOL0     H40747   2.464   5.906   5.189 -1.2163  0.5191 -2.0355
 1020MOL0     H40748   2.221   5.598   5.365 -0.7993 -0.6242 -0.5673
 1020MOL0     H40749   2.236   5.517   5.206  1.0018  0.6857 -1.5406
 1020MOL0     H40750   2.481   5.481   5.268  2.3920 -2.6813  3.0671
 1020MOL0     H40751   2.369   5.365   5.315  1.7280 -0.9515  1.1032
 1020MOL0     H40752   2.374   5.481   5.557  0.2971  0.2078  1.5545
 1020MOL0     H40753   2.513   5.414   5.494  0.0318 -0.4177 -0.9611
 1020MOL0     H40754   2.554   5.617   5.613  0.0397 -0.4254  0.1901
 1020MOL0     H40755   2.427   5.701   5.528  0.2884  0.7019 -1.4890
 1020MOL0     H40756   2.758   5.787   5.276 -0.3083 -1.2055 -2.9724
 1020MOL0     H40757   2.085   5.716   5.213 -0.5666  0.6268  1.9281
 1020MOL0     H40758   1.900   5.815   5.179 -0.5838  1.1002  0.1771
 1020MOL0     H40759   1.904   5.933   5.320  0.6668  0.2845  0.7414
 1020MOL0     H40760   1.869   5.985   5.153  0.6563 -1.5038 -2.6440
 1021MOL0     O40761   4.666   0.896   0.904  0.3075  0.1927 -0.8954
 1021MOL0     C40762   4.682   1.000   0.843 -0.3558  0.0253  0.3742
 1021MOL0     O40763   4.796   1.043   0.795 -0.5596  0.7323 -0.1658
 1021MOL0     C40764   4.908   0.968   0.780  0.2791 -0.7517 -0.6378
 1021MOL0     C40765   5.037   1.034   0.771 -0.5314  0.1454  0.7038
 1021MOL0     C40766   5.152   0.953   0.750  0.1244 -0.3214  0.7729
 1021MOL0     C40767   5.141   0.817   0.725  0.2127  0.5926 -0.2652
 1021MOL0     O40768   5.257   0.742   0.707  0.2411  0.0413 -0.1199
 1021MOL0     C40769   5.224   0.599   0.668 -0.0006 -0.0532 -0.0000
 1021MOL0     C40770   5.362   0.525   0.649  0.7639  0.2607 -0.1265
 1021MOL0     C40771   5.459   0.519   0.772  0.0333 -0.7056 -0.3255
 1021MOL0     C40772   5.580   0.615   0.751 -0.3094  1.1475 -0.4621
 1021MOL0     C40773   5.666   0.631   0.880 -0.0097 -0.0481 -0.1923
 1021MOL0     C40774   5.806   0.680   0.845 -0.2292  0.0373 -0.2178
 1021MOL0     C40775   5.908   0.682   0.969 -0.4331 -0.9466 -0.3357
 1021MOL0     C40776   6.044   0.742   0.920  0.3306  0.2181  0.3628
 1021MOL0     N40777   6.126   0.784   1.034  0.3185  0.2995 -0.0827
 1021MOL0     C40778   6.169   0.709   1.136  0.4253  0.0784 -0.3324
 1021MOL0     C40779   6.266   0.782   1.199  0.7968  0.8098  0.8235
 1021MOL0     C40780   6.327   0.745   1.331 -0.3394 -0.6433  0.8939
 1021MOL0     C40781   6.235   0.793   1.438 -0.8827 -0.0293 -0.0658
 1021MOL0     C40782   6.221   0.711   1.560 -0.3014  0.9381 -1.0458
 1021MOL0     C40783   6.359   0.688   1.635  0.3154 -0.9248 -0.4706
 1021MOL0     O40784   6.404   0.805   1.699  0.2015 -0.4976  0.4663
 1021MOL0     C40785   6.533   0.794   1.731 -0.0602  0.4343  0.4161
 1021MOL0     C40786   6.562   0.722   1.844  0.0190 -0.5910 -0.0410
 1021MOL0     C40787   6.689   0.693   1.887  0.0220  0.2563 -0.3929
 1021MOL0     C40788   6.704   0.592   2.002  0.5101 -0.0681  0.1726
 1021MOL0     C40789   6.795   0.765   1.830 -0.3425  0.8898  0.1302
 1021MOL0     C40790   6.923   0.782   1.890 -0.1585 -0.1555 -0.4559
 1021MOL0     O40791   7.023   0.800   1.800 -0.8969 -0.7107 -0.2968
 1021MOL0     C40792   7.150   0.862   1.837  0.2113 -0.3248 -0.6460
 1021MOL0     C40793   7.220   0.801   1.941 -0.6085  0.2457 -0.2589
 1021MOL0     C40794   7.348   0.850   1.973  0.2398 -0.1358 -0.8086
 1021MOL0     C40795   7.400   0.965   1.917  0.2902  0.0285  0.6813
 1021MOL0     O40796   7.512   1.022   1.968  0.7331  0.7735 -0.6994
 1021MOL0     C40797   7.578   1.137   1.920 -0.1677 -1.1403 -0.3460
 1021MOL0     C40798   7.722   1.125   1.973  0.2007  0.9479 -0.0538
 1021MOL0     C40799   7.839   1.181   1.887  0.6978 -0.9180  0.0042
 1021MOL0     C40800   7.969   1.223   1.963 -0.8911 -0.6752  0.0197
 1021MOL0     C40801   8.054   1.327   1.890  0.2841 -0.0934 -0.3054
 1021MOL0     C40802   8.177   1.386   1.970 -0.6194 -0.0957 -0.0909
 1021MOL0     C40803   8.262   1.476   1.873 -0.6986  0.2574 -0.8091
 1021MOL0     C40804   8.376   1.402   1.813 -0.0133  0.4159  0.7876
 1021MOL0    Cl40805   8.519   1.399   1.920 -0.1132 -0.1238 -0.1325
 1021MOL0     C40806   7.316   1.028   1.815 -1.0724  0.2156 -1.0265
 1021MOL0     C40807   7.201   0.969   1.770  0.2728  0.2893  0.5875
 1021MOL0     O40808   6.923   0.776   2.010  0.3431 -1.0754 -0.5697
 1021MOL0     C40809   6.764   0.838   1.717 -0.2368  0.1251  0.4948
 1021MOL0     C40810   6.640   0.840   1.655 -0.6561 -0.4724 -0.3815
 1021MOL0     N40811   6.258   0.915   1.153  0.8217  0.6655 -0.5953
 1021MOL0     N40812   6.165   0.918   1.066  0.9413 -0.3000  0.1868
 1021MOL0     C40813   5.006   0.760   0.717 -0.7340  1.1264 -0.4393
 1021MOL0     C40814   4.896   0.833   0.741 -0.6666 -0.8846 -0.2307
 1021MOL0     C40815   4.558   1.082   0.814  0.3066  0.7586 -0.4143
 1021MOL0     C40816   4.549   1.145   0.693 -0.2663  0.4007 -0.0881
 1021MOL0     C40817   4.438   1.214   0.656  0.4907 -0.4185 -0.3416
 1021MOL0     C40818   4.319   1.223   0.738  0.2416 -0.3853  0.7670
 1021MOL0     O40819   4.203   1.281   0.683  0.2753  0.3453 -0.0983
 1021MOL0     C40820   4.084   1.283   0.757  0.9338 -0.0207 -0.3712
 1021MOL0     C40821   3.969   1.335   0.672  0.5992  0.9078  0.9023
 1021MOL0     C40822   3.968   1.290   0.523  0.1357 -0.0707  0.0552
 1021MOL0     C40823   3.974   1.138   0.501 -1.0388 -0.3154  0.5537
 1021MOL0     C40824   3.884   1.108   0.382  0.0812  1.3456  0.3719
 1021MOL0     C40825   3.816   1.088   0.284 -0.1425  0.6829  0.6919
 1021MOL0     C40826   4.325   1.148   0.853 -0.3305 -0.6819  0.2733
 1021MOL0     C40827   4.440   1.082   0.899 -0.1334  0.1728 -0.3801
 1021MOL0     C40828   4.442   1.009   1.032 -0.2579  0.1298 -0.4529
 1021MOL0     H40829   5.058   1.139   0.783  0.2753  0.3977 -2.1958
 1021MOL0     H40830   5.255   0.985   0.748  1.1536 -3.3329  1.0619
 1021MOL0     H40831   5.167   0.597   0.574  1.5007  0.5540 -0.9548
 1021MOL0     H40832   5.171   0.554   0.752 -1.1923  3.3154  1.2487
 1021MOL0     H40833   5.350   0.417   0.635  0.6683 -0.0108  1.7471
 1021MOL0     H40834   5.409   0.563   0.559  0.2410  0.6767 -0.2310
 1021MOL0     H40835   5.401   0.552   0.858 -0.0802  2.3230 -1.4301
 1021MOL0     H40836   5.492   0.418   0.796 -1.0989 -1.4108 -1.6159
 1021MOL0     H40837   5.643   0.573   0.672  1.0694  0.4858  0.9539
 1021MOL0     H40838   5.550   0.715   0.718  3.7756  2.2049 -1.4399
 1021MOL0     H40839   5.681   0.537   0.933  1.1203 -0.8474 -1.8252
 1021MOL0     H40840   5.618   0.701   0.949  0.5957  0.1461  0.0414
 1021MOL0     H40841   5.844   0.605   0.775 -1.2228 -1.8613  1.1859
 1021MOL0     H40842   5.802   0.778   0.797  0.6394  0.1042 -0.1622
 1021MOL0     H40843   5.921   0.580   1.006  4.3477  0.1759  1.8942
 1021MOL0     H40844   5.865   0.750   1.043  1.1686 -0.7668  0.4819
 1021MOL0     H40845   6.099   0.664   0.868 -1.9887 -1.6494  0.5049
 1021MOL0     H40846   6.029   0.826   0.851 -0.3415 -0.4150 -0.2762
 1021MOL0     H40847   6.151   0.604   1.152 -1.7965  0.4232 -0.2665
 1021MOL0     H40848   6.433   0.772   1.339  0.4150 -2.4447 -1.5552
 1021MOL0     H40849   6.319   0.636   1.335 -1.4730 -0.5598  1.2381
 1021MOL0     H40850   6.272   0.890   1.470  4.2997 -2.1618  1.4867
 1021MOL0     H40851   6.137   0.799   1.390 -0.7582  0.5895 -0.2445
 1021MOL0     H40852   6.152   0.761   1.628  1.5376 -0.6928  2.3053
 1021MOL0     H40853   6.181   0.615   1.526  2.3058 -0.4184 -0.5881
 1021MOL0     H40854   6.345   0.626   1.724 -2.6546 -2.4889 -1.8642
 1021MOL0     H40855   6.437   0.644   1.571  1.2926 -0.1804  0.1792
 1021MOL0     H40856   6.482   0.703   1.915  1.1255 -3.5158  0.5625
 1021MOL0     H40857   6.627   0.517   1.979 -0.0204  0.6490 -0.4599
 1021MOL0     H40858   6.691   0.637   2.101  0.0688 -0.4633  0.2991
 1021MOL0     H40859   6.804   0.552   2.016  0.7434  0.7693  0.9612
 1021MOL0     H40860   7.173   0.725   2.003 -1.7916  1.2571  0.1227
 1021MOL0     H40861   7.413   0.803   2.046 -0.0863  1.0047  0.2423
 1021MOL0     H40862   7.580   1.133   1.811 -0.6389  3.0159 -0.6455
 1021MOL0     H40863   7.536   1.226   1.967  0.0232 -1.8986  1.3486
 1021MOL0     H40864   7.715   1.163   2.075  2.6909  0.0923  0.4986
 1021MOL0     H40865   7.760   1.023   1.987  0.1732  0.5096 -2.6871
 1021MOL0     H40866   7.792   1.277   1.860  3.0150 -0.3175 -2.3018
 1021MOL0     H40867   7.864   1.123   1.798  1.5254 -1.1829  0.4050
 1021MOL0     H40868   8.030   1.134   1.981  2.8191  1.4287 -0.9289
 1021MOL0     H40869   7.942   1.255   2.064  0.3064  0.5328 -0.0087
 1021MOL0     H40870   8.097   1.288   1.798  1.7821  1.8983 -0.5189
 1021MOL0     H40871   7.984   1.407   1.863 -1.9236 -0.1348  4.3296
 1021MOL0     H40872   8.238   1.303   2.007 -1.1502 -0.5711 -0.2708
 1021MOL0     H40873   8.158   1.443   2.062  0.0962 -0.9176  0.5806
 1021MOL0     H40874   8.290   1.567   1.926  0.4264 -0.6525  0.2203
 1021MOL0     H40875   8.189   1.519   1.803 -2.2935 -0.1091  0.5544
 1021MOL0     H40876   8.404   1.454   1.721  0.6229  1.7226  1.6714
 1021MOL0     H40877   8.333   1.302   1.804 -2.6454  1.5095  0.3954
 1021MOL0     H40878   7.326   1.130   1.780 -0.5916  0.4643 -0.2000
 1021MOL0     H40879   7.154   1.017   1.684  0.5238  0.3374  0.4786
 1021MOL0     H40880   6.834   0.893   1.656 -0.3270  2.5638  2.4077
 1021MOL0     H40881   6.619   0.902   1.569  0.8499  2.0362  0.9206
 1021MOL0     H40882   4.983   0.654   0.709 -1.2919  1.2656 -0.7190
 1021MOL0     H40883   4.794   0.798   0.733 -2.0994  2.9686 -0.7670
 1021MOL0     H40884   4.631   1.141   0.622  0.2646  0.3905  0.5195
 1021MOL0     H40885   4.445   1.274   0.565 -2.2732  0.5634 -0.0240
 1021MOL0     H40886   4.058   1.184   0.796  1.5008 -1.4103 -3.3234
 1021MOL0     H40887   4.103   1.345   0.845  1.6170 -1.6672  0.6929
 1021MOL0     H40888   3.982   1.443   0.660 -1.8552  0.9137 -3.7805
 1021MOL0     H40889   3.876   1.327   0.728  1.8090  0.5279  2.9787
 1021MOL0     H40890   3.875   1.332   0.485 -0.0459 -0.8149 -0.3489
 1021MOL0     H40891   4.052   1.337   0.473  0.1582 -2.1917 -2.0678
 1021MOL0     H40892   3.945   1.086   0.593  0.3976 -0.5564  0.8950
 1021MOL0     H40893   4.080   1.116   0.485  0.4040  2.1628  4.9111
 1021MOL0     H40894   3.764   1.084   0.191  0.8092 -1.4992  0.1956
 1021MOL0     H40895   4.244   1.140   0.924 -0.9607 -2.7160 -0.6023
 1021MOL0     H40896   4.541   1.020   1.076 -0.7641  0.6583  0.5953
 1021MOL0     H40897   4.365   1.047   1.099 -0.4359 -3.0780  1.3527
 1021MOL0     H40898   4.418   0.906   1.005  1.3496  0.2775 -2.8027
 1022MOL0     O40899   5.030   4.927   7.657  0.4616 -0.1157  0.5121
 1022MOL0     C40900   4.942   4.924   7.570  1.0701  0.3975 -0.1031
 1022MOL0     O40901   4.955   4.979   7.443  0.2787  0.6201 -0.0894
 1022MOL0     C40902   5.067   5.053   7.420 -0.3255 -1.0041  0.0030
 1022MOL0     C40903   5.162   5.002   7.335  0.4306 -0.2179  0.3164
 1022MOL0     C40904   5.282   5.070   7.307  0.7545 -0.5671  0.2174
 1022MOL0     C40905   5.306   5.190   7.371  0.1128  0.2287  0.2304
 1022MOL0     O40906   5.424   5.262   7.347 -0.6914  0.2253 -0.2470
 1022MOL0     C40907   5.420   5.404   7.348  0.2297  0.4172 -0.0638
 1022MOL0     C40908   5.508   5.450   7.241  0.1563 -0.1289 -0.3519
 1022MOL0     C40909   5.450   5.427   7.100  0.2123 -0.0109 -0.4902
 1022MOL0     C40910   5.559   5.414   6.996 -0.0860  0.9840 -0.1060
 1022MOL0     C40911   5.498   5.376   6.866  0.3934  0.2049  0.7698
 1022MOL0     C40912   5.576   5.408   6.745  0.1228 -0.8075 -0.3342
 1022MOL0     C40913   5.507   5.366   6.615 -0.4410 -0.0708 -0.5565
 1022MOL0     C40914   5.562   5.422   6.490 -1.0201 -0.3611  0.4339
 1022MOL0     N40915   5.596   5.563   6.480 -0.0474 -0.1410 -0.4344
 1022MOL0     C40916   5.693   5.633   6.547  0.4452 -0.5050 -0.1733
 1022MOL0     C40917   5.663   5.764   6.503  0.3369  0.6557  0.3356
 1022MOL0     C40918   5.709   5.888   6.581  0.0640 -0.4615 -0.2946
 1022MOL0     C40919   5.756   6.003   6.496 -0.5443  0.3571 -0.1507
 1022MOL0     C40920   5.854   5.966   6.385 -0.3334 -0.5309  0.5828
 1022MOL0     C40921   5.980   5.916   6.448 -0.1719 -0.3668 -0.0473
 1022MOL0     O40922   6.045   6.030   6.516  0.2546 -0.3775  0.1487
 1022MOL0     C40923   6.118   6.100   6.426  0.3429 -0.4734  0.2213
 1022MOL0     C40924   6.235   6.047   6.372 -0.4937  0.5460 -0.7351
 1022MOL0     C40925   6.327   6.120   6.297  0.5705 -0.0514 -0.3678
 1022MOL0     C40926   6.439   6.039   6.241  0.0548  0.2342 -0.8993
 1022MOL0     C40927   6.312   6.263   6.280  0.0495  0.4310 -0.4222
 1022MOL0     C40928   6.402   6.347   6.200  0.3230  1.0088  0.3241
 1022MOL0     O40929   6.360   6.470   6.173 -0.0705 -0.2754 -0.5153
 1022MOL0     C40930   6.468   6.536   6.113  0.6396 -1.0024  0.0543
 1022MOL0     C40931   6.485   6.534   5.973 -0.5083 -0.4321 -0.2997
 1022MOL0     C40932   6.587   6.614   5.912  0.0256  0.3433  0.2583
 1022MOL0     C40933   6.671   6.689   5.989  0.9267  0.2027  1.0224
 1022MOL0     O40934   6.760   6.787   5.935  0.7239  0.1445 -0.5701
 1022MOL0     C40935   6.776   6.789   5.783  0.4252  0.0693  0.2064
 1022MOL0     C40936   6.872   6.906   5.759  0.2868  0.3528  0.5771
 1022MOL0     C40937   6.910   6.923   5.608  0.7880 -0.1004 -0.3194
 1022MOL0     C40938   7.026   7.019   5.596 -0.4164 -0.3481 -0.2179
 1022MOL0     C40939   7.086   7.012   5.459 -0.2592 -0.5975 -0.2129
 1022MOL0     C40940   7.193   7.126   5.458 -0.3591  0.4104  0.7130
 1022MOL0     C40941   7.269   7.114   5.327  0.3685 -0.1027  0.1033
 1022MOL0     C40942   7.336   7.239   5.269  0.0601  0.1794  0.6378
 1022MOL0    Cl40943   7.414   7.199   5.107  0.1679 -0.3561  0.1904
 1022MOL0     C40944   6.662   6.690   6.127  0.0005  0.8469  0.1098
 1022MOL0     C40945   6.564   6.612   6.196  0.7244 -0.7836  0.6736
 1022MOL0     O40946   6.508   6.305   6.165  1.0926  0.4711  0.3540
 1022MOL0     C40947   6.199   6.316   6.335  0.1719 -0.0236 -0.3689
 1022MOL0     C40948   6.102   6.240   6.409  0.0576 -0.8657  0.2202
 1022MOL0     N40949   5.572   5.756   6.393 -0.1836  0.6175 -0.9761
 1022MOL0     N40950   5.540   5.633   6.381 -1.1467 -0.3669  0.4335
 1022MOL0     C40951   5.215   5.232   7.467  0.0079  0.1138  0.9619
 1022MOL0     C40952   5.092   5.173   7.485  0.1842 -0.2857 -0.4895
 1022MOL0     C40953   4.817   4.836   7.589 -0.6667 -0.0466 -0.5312
 1022MOL0     C40954   4.745   4.775   7.481 -0.8188  0.1940 -0.3954
 1022MOL0     C40955   4.641   4.681   7.494  0.7753 -0.2982 -0.5600
 1022MOL0     C40956   4.587   4.676   7.623 -0.2599 -0.3037 -0.6750
 1022MOL0     O40957   4.480   4.604   7.654  0.3816 -0.1610 -0.6517
 1022MOL0     C40958   4.400   4.548   7.545  0.7729  0.0945 -0.4198
 1022MOL0     C40959   4.276   4.472   7.592 -0.1601  0.3179 -0.2765
 1022MOL0     C40960   4.166   4.564   7.655 -0.0578 -0.5448 -0.3752
 1022MOL0     C40961   4.038   4.484   7.692 -0.8898 -0.6652 -1.0981
 1022MOL0     C40962   3.937   4.574   7.749  0.9167  1.6447  0.1053
 1022MOL0     C40963   3.830   4.618   7.799  1.0640 -0.8749 -0.6171
 1022MOL0     C40964   4.646   4.733   7.725 -0.1936  0.5393  0.1313
 1022MOL0     C40965   4.765   4.808   7.722 -0.4671  0.0145 -0.3610
 1022MOL0     C40966   4.833   4.856   7.855  0.6692  0.0080 -0.6138
 1022MOL0     H40967   5.134   4.916   7.274 -1.3416  0.1744  0.5250
 1022MOL0     H40968   5.345   5.037   7.225 -0.0847 -0.7583 -0.3664
 1022MOL0     H40969   5.460   5.436   7.445  3.2464 -1.2311 -0.6443
 1022MOL0     H40970   5.317   5.432   7.324  0.0459 -1.1443 -1.2275
 1022MOL0     H40971   5.530   5.556   7.259 -1.9311  0.3977 -0.6569
 1022MOL0     H40972   5.606   5.401   7.244  1.4960  2.4070  0.3509
 1022MOL0     H40973   5.387   5.338   7.105  0.0769  0.1665  1.7515
 1022MOL0     H40974   5.379   5.509   7.081 -2.3877 -0.9174  3.7891
 1022MOL0     H40975   5.609   5.511   6.995 -1.0618  1.5106 -1.5462
 1022MOL0     H40976   5.622   5.329   7.024 -2.7639 -0.7909  0.9830
 1022MOL0     H40977   5.406   5.434   6.858 -0.8403 -1.8543 -1.1748
 1022MOL0     H40978   5.468   5.270   6.866 -0.5636  0.2233 -4.2222
 1022MOL0     H40979   5.572   5.517   6.748 -2.0805 -0.8075  3.5373
 1022MOL0     H40980   5.675   5.361   6.744  0.5902  0.1200  0.4654
 1022MOL0     H40981   5.405   5.403   6.631 -1.1706 -2.3879  0.6317
 1022MOL0     H40982   5.508   5.257   6.609  1.9127 -0.3021  2.1258
 1022MOL0     H40983   5.653   5.371   6.459 -0.6133  1.0437 -0.7937
 1022MOL0     H40984   5.492   5.399   6.410  1.6427 -0.4117 -2.0369
 1022MOL0     H40985   5.755   5.598   6.629  4.0612  0.8300 -2.1716
 1022MOL0     H40986   5.788   5.848   6.646 -0.7021 -3.6909 -1.1663
 1022MOL0     H40987   5.628   5.926   6.644  0.0906 -1.5101  0.3830
 1022MOL0     H40988   5.664   6.034   6.446 -0.1711 -1.0661 -1.8124
 1022MOL0     H40989   5.792   6.075   6.570  1.7964 -0.6518 -0.2274
 1022MOL0     H40990   5.811   5.899   6.310 -3.2397  1.7328  0.0579
 1022MOL0     H40991   5.860   6.061   6.331 -4.0690  2.6151  4.8718
 1022MOL0     H40992   5.953   5.835   6.516  2.1526 -1.6660 -0.5626
 1022MOL0     H40993   6.048   5.863   6.380 -1.1642 -1.3252 -0.3107
 1022MOL0     H40994   6.263   5.944   6.388 -0.0331  0.9406  1.2611
 1022MOL0     H40995   6.412   5.933   6.247  1.1651 -0.1188 -1.8555
 1022MOL0     H40996   6.519   6.054   6.313 -0.2738 -0.3111 -0.4031
 1022MOL0     H40997   6.458   6.053   6.134  1.8936  1.5289 -0.4323
 1022MOL0     H40998   6.416   6.481   5.908  0.5662 -0.2003 -1.6881
 1022MOL0     H40999   6.580   6.610   5.803  0.0767  0.0673  0.2651
 1022MOL0     H41000   6.822   6.694   5.753 -3.5512 -1.0762 -3.2860
 1022MOL0     H41001   6.674   6.800   5.743 -0.6751 -0.3985  2.7051
 1022MOL0     H41002   6.828   6.999   5.796 -1.8031 -0.4387  0.2223
 1022MOL0     H41003   6.960   6.886   5.820  0.5791  0.8008  0.3064
 1022MOL0     H41004   6.832   6.973   5.551  1.3599  0.4183 -0.6551
 1022MOL0     H41005   6.944   6.829   5.564  1.3374  0.4174 -1.0255
 1022MOL0     H41006   7.101   6.990   5.671  0.5338 -2.6215 -1.9111
 1022MOL0     H41007   7.002   7.121   5.624  1.9636  0.6387 -1.4147
 1022MOL0     H41008   7.135   6.914   5.450  1.9725  0.3361  0.9562
 1022MOL0     H41009   7.009   7.022   5.381  0.9050  0.4172 -1.2808
 1022MOL0     H41010   7.267   7.119   5.538  1.1529 -1.9777 -0.7624
 1022MOL0     H41011   7.160   7.228   5.478  0.0433  1.1148 -1.8995
 1022MOL0     H41012   7.199   7.094   5.246  2.2689  1.0355 -1.9210
 1022MOL0     H41013   7.349   7.039   5.333  1.6428  0.9672 -2.1230
 1022MOL0     H41014   7.415   7.273   5.336  3.7122 -1.7493 -2.3518
 1022MOL0     H41015   7.257   7.313   5.252 -1.8042 -2.0609 -1.0942
 1022MOL0     H41016   6.740   6.737   6.186  1.7125  0.4300 -1.6941
 1022MOL0     H41017   6.564   6.611   6.305  0.0691  0.7874  0.7097
 1022MOL0     H41018   6.175   6.422   6.333  0.3899  0.0859  1.1430
 1022MOL0     H41019   6.019   6.292   6.456  1.6374  2.2966 -0.2528
 1022MOL0     H41020   5.250   5.315   7.529  3.4021 -1.8063  1.8336
 1022MOL0     H41021   5.018   5.213   7.553  1.4964 -2.2567  2.2940
 1022MOL0     H41022   4.766   4.799   7.377 -2.7075  0.5651 -0.7184
 1022MOL0     H41023   4.591   4.649   7.403 -1.6455 -0.0384  0.5750
 1022MOL0     H41024   4.361   4.621   7.474 -0.3651 -2.2563 -2.3321
 1022MOL0     H41025   4.462   4.472   7.496  0.1914 -0.2301 -0.6547
 1022MOL0     H41026   4.308   4.409   7.675 -0.3331  0.7387  0.1130
 1022MOL0     H41027   4.226   4.417   7.512  0.4591 -2.9713  1.4269
 1022MOL0     H41028   4.213   4.613   7.740  0.7772  1.6176 -2.0153
 1022MOL0     H41029   4.156   4.639   7.576  0.3216  0.0134  0.1009
 1022MOL0     H41030   4.051   4.404   7.765 -0.7274 -1.1856 -1.6918
 1022MOL0     H41031   3.991   4.439   7.605 -4.5306  0.0068  0.3587
 1022MOL0     H41032   3.744   4.675   7.824  1.2145 -1.5429  1.6314
 1022MOL0     H41033   4.606   4.710   7.823 -1.4211 -1.3761 -0.7727
 1022MOL0     H41034   4.755   4.848   7.932 -1.9217  2.8601 -2.6468
 1022MOL0     H41035   4.914   4.791   7.889 -1.3348  0.0465  5.2796
 1022MOL0     H41036   4.875   4.957   7.859  1.9444 -0.3258 -3.3065
 1023MOL0     O41037   0.854   5.797   6.913 -0.1765  0.8877  0.8126
 1023MOL0     C41038   0.792   5.687   6.915  0.0101  0.9692  0.1160
 1023MOL0     O41039   0.859   5.561   6.907 -0.2932 -1.3498 -0.0498
 1023MOL0     C41040   0.994   5.562   6.929  0.4133 -0.1553 -0.4629
 1023MOL0     C41041   1.053   5.602   7.046 -0.0151  0.1738 -0.3855
 1023MOL0     C41042   1.188   5.583   7.071  0.1521 -0.8094 -0.2800
 1023MOL0     C41043   1.281   5.545   6.971  0.2184 -0.4080 -0.1650
 1023MOL0     O41044   1.417   5.535   7.003 -0.0848 -0.4021  0.3775
 1023MOL0     C41045   1.507   5.479   6.905  0.3048  0.0294  0.5793
 1023MOL0     C41046   1.641   5.444   6.966 -0.0862 -0.0467 -0.4927
 1023MOL0     C41047   1.741   5.555   6.949  0.6101  0.3446 -0.0114
 1023MOL0     C41048   1.860   5.522   7.027  0.5636  0.2160  0.3023
 1023MOL0     C41049   1.964   5.639   7.040  0.2131  0.3348 -0.2917
 1023MOL0     C41050   2.097   5.587   7.087  0.3053 -0.3142  0.2028
 1023MOL0     C41051   2.190   5.705   7.092  0.0134 -0.8504 -0.5195
 1023MOL0     C41052   2.194   5.754   7.236 -0.5914 -0.6993  0.3479
 1023MOL0     N41053   2.267   5.877   7.278  0.7048 -0.2007 -0.0725
 1023MOL0     C41054   2.224   5.990   7.342 -0.1638 -0.7217 -0.3170
 1023MOL0     C41055   2.343   6.063   7.358  0.3426 -0.2153  0.9334
 1023MOL0     C41056   2.357   6.181   7.454  0.4742  0.5886  0.1372
 1023MOL0     C41057   2.491   6.247   7.433  0.1295 -0.4530  0.5688
 1023MOL0     C41058   2.495   6.383   7.503 -0.0763 -0.2324 -0.0765
 1023MOL0     C41059   2.494   6.402   7.656  0.2836 -0.2450 -0.6977
 1023MOL0     O41060   2.606   6.331   7.720 -0.0746 -0.3983  0.5531
 1023MOL0     C41061   2.714   6.418   7.739  0.0059  0.6191 -0.4101
 1023MOL0     C41062   2.718   6.509   7.837  0.4488 -0.0178 -0.7017
 1023MOL0     C41063   2.835   6.582   7.863  0.0560  0.4075  1.0664
 1023MOL0     C41064   2.837   6.680   7.979 -0.2176  0.3561 -0.4911
 1023MOL0     C41065   2.951   6.560   7.782 -0.9101  0.5324 -0.4558
 1023MOL0     C41066   3.081   6.624   7.807  0.0561  0.1396 -0.4340
 1023MOL0     O41067   3.189   6.553   7.772  0.1649 -0.3035 -0.3716
 1023MOL0     C41068   3.310   6.623   7.796  0.8257 -0.0945 -0.5657
 1023MOL0     C41069   3.399   6.610   7.697 -0.1211  0.8306  0.8881
 1023MOL0     C41070   3.531   6.659   7.719  0.0042 -1.2012 -1.4719
 1023MOL0     C41071   3.563   6.718   7.842 -0.1673 -0.0519 -1.0516
 1023MOL0     O41072   3.687   6.767   7.873 -0.4519 -1.0569 -0.7993
 1023MOL0     C41073   3.800   6.763   7.780 -0.0521 -0.2387  0.0576
 1023MOL0     C41074   3.780   6.873   7.675  0.5744 -0.2596 -0.3495
 1023MOL0     C41075   3.912   6.896   7.598  0.0474 -0.0956 -1.1646
 1023MOL0     C41076   3.878   7.025   7.519 -0.4252  0.0450  0.6609
 1023MOL0     C41077   4.014   7.052   7.438 -0.6015  0.5640  0.7130
 1023MOL0     C41078   3.995   7.175   7.347  0.0914  0.5159  0.9560
 1023MOL0     C41079   4.120   7.260   7.320 -0.1465  0.3826  0.2089
 1023MOL0     C41080   4.220   7.212   7.211 -0.2829 -0.3674  0.0265
 1023MOL0    Cl41081   4.396   7.271   7.219 -0.1281 -0.5743 -0.6048
 1023MOL0     C41082   3.470   6.732   7.950 -0.3825  0.7252 -0.3941
 1023MOL0     C41083   3.346   6.677   7.921  0.2548 -0.0330 -0.3045
 1023MOL0     O41084   3.078   6.735   7.858 -0.1640 -1.0253 -0.4178
 1023MOL0     C41085   2.948   6.475   7.673  0.6398 -0.7482  0.1523
 1023MOL0     C41086   2.825   6.405   7.653  0.7056  0.2281 -0.2242
 1023MOL0     N41087   2.445   6.000   7.291 -0.3880  0.5143 -0.2896
 1023MOL0     N41088   2.396   5.896   7.238 -0.0269  0.1671 -0.0371
 1023MOL0     C41089   1.218   5.514   6.849 -0.1976  0.2239  0.1151
 1023MOL0     C41090   1.080   5.513   6.830 -0.2001  0.4388 -0.6211
 1023MOL0     C41091   0.644   5.684   6.929 -0.0762 -0.8635 -0.3951
 1023MOL0     C41092   0.592   5.554   6.924 -0.0162  0.1221 -0.2279
 1023MOL0     C41093   0.456   5.537   6.904 -0.3269  0.0493 -0.4428
 1023MOL0     C41094   0.366   5.637   6.897  1.1813 -0.2149  0.4780
 1023MOL0     O41095   0.241   5.593   6.864 -0.2912  0.3681  0.0748
 1023MOL0     C41096   0.128   5.640   6.929  0.8024 -0.2590 -0.2505
 1023MOL0     C41097   0.011   5.637   6.841  0.8876 -0.1144 -0.0281
 1023MOL0     C41098   0.011   5.738   6.732 -0.1152  1.0619 -0.2791
 1023MOL0     C41099  -0.080   5.702   6.622 -0.3026  0.3597  0.0719
 1023MOL0     C41100  -0.074   5.802   6.515  0.4918  0.5996  0.1875
 1023MOL0     C41101  -0.063   5.888   6.430  0.1097 -0.1074  0.9815
 1023MOL0     C41102   0.408   5.766   6.915  0.0242 -0.6773 -0.5131
 1023MOL0     C41103   0.552   5.790   6.922  0.9251 -0.3245  0.3257
 1023MOL0     C41104   0.601   5.940   6.937  0.8822 -0.0079  0.0484
 1023MOL0     H41105   0.992   5.654   7.119 -3.3070  0.3264 -3.0085
 1023MOL0     H41106   1.225   5.612   7.169  0.4909  1.8941 -1.1375
 1023MOL0     H41107   1.513   5.537   6.813 -1.0043  0.1251  0.5348
 1023MOL0     H41108   1.459   5.387   6.870  0.0627  0.6938 -0.9113
 1023MOL0     H41109   1.636   5.427   7.074  0.7503  2.9817  0.1371
 1023MOL0     H41110   1.672   5.360   6.904  0.0071 -0.2171 -0.2179
 1023MOL0     H41111   1.772   5.570   6.845  2.9781 -0.8296  0.4562
 1023MOL0     H41112   1.700   5.650   6.983 -0.1288  0.3140 -0.7709
 1023MOL0     H41113   1.826   5.498   7.129 -3.5301  3.5476  0.0130
 1023MOL0     H41114   1.910   5.439   6.976  1.4921  1.5948 -1.1152
 1023MOL0     H41115   1.917   5.700   7.118 -1.4256  1.2165 -1.8835
 1023MOL0     H41116   1.973   5.702   6.951  3.3782  1.6773  0.8485
 1023MOL0     H41117   2.090   5.540   7.186  0.3176 -1.9457 -0.5437
 1023MOL0     H41118   2.131   5.508   7.020  0.6459 -1.3661  1.5586
 1023MOL0     H41119   2.150   5.776   7.019  1.9471  0.0141 -0.7830
 1023MOL0     H41120   2.287   5.677   7.050  0.6211 -2.2760  1.6930
 1023MOL0     H41121   2.088   5.777   7.253 -0.2321  0.8076  0.7734
 1023MOL0     H41122   2.225   5.671   7.301  3.2451 -1.8659 -2.6023
 1023MOL0     H41123   2.126   6.027   7.370 -0.0927  0.2638 -1.3090
 1023MOL0     H41124   2.350   6.146   7.557 -0.6654  3.0357  0.9582
 1023MOL0     H41125   2.275   6.250   7.433 -0.5444 -1.1990 -2.2733
 1023MOL0     H41126   2.573   6.182   7.464  0.7914 -1.2095 -2.4138
 1023MOL0     H41127   2.508   6.266   7.326 -3.1665 -2.4750 -0.4373
 1023MOL0     H41128   2.579   6.445   7.468  2.1606 -2.8567  0.3339
 1023MOL0     H41129   2.407   6.437   7.464  0.3874  0.0553 -0.7505
 1023MOL0     H41130   2.502   6.510   7.670  2.7961 -0.6028  1.3387
 1023MOL0     H41131   2.398   6.363   7.693 -1.1126  4.0761  0.7963
 1023MOL0     H41132   2.638   6.534   7.906 -0.8844 -0.3145 -2.0755
 1023MOL0     H41133   2.925   6.674   8.044  0.1488  0.6519 -0.9502
 1023MOL0     H41134   2.752   6.653   8.043  0.5605 -1.8856 -0.3177
 1023MOL0     H41135   2.816   6.783   7.946 -1.1447  0.8256  1.4021
 1023MOL0     H41136   3.400   6.556   7.603  3.1706 -1.8381  2.2732
 1023MOL0     H41137   3.613   6.644   7.649  1.7127  2.6841 -0.5809
 1023MOL0     H41138   3.899   6.763   7.828  0.0467  1.4478 -0.1158
 1023MOL0     H41139   3.809   6.668   7.726 -0.3204 -0.1415 -0.1594
 1023MOL0     H41140   3.702   6.834   7.609 -0.9022 -1.8556  2.1376
 1023MOL0     H41141   3.745   6.961   7.729 -1.3951 -1.0950 -0.1503
 1023MOL0     H41142   3.951   6.819   7.531 -0.7248 -0.5133 -1.1451
 1023MOL0     H41143   3.992   6.908   7.671 -0.3400 -0.8393 -0.5978
 1023MOL0     H41144   3.854   7.104   7.591  0.4080  0.4767  0.4827
 1023MOL0     H41145   3.794   7.014   7.450 -1.0273  1.1082  1.1957
 1023MOL0     H41146   4.105   7.044   7.498 -0.0102 -4.4301 -0.3518
 1023MOL0     H41147   4.025   6.973   7.363 -0.1832  0.4963  0.8433
 1023MOL0     H41148   3.919   7.249   7.374 -0.7332  0.4071 -0.9163
 1023MOL0     H41149   3.959   7.136   7.252 -0.2462 -1.0862  1.7160
 1023MOL0     H41150   4.173   7.288   7.412  2.6995  1.0994 -1.5287
 1023MOL0     H41151   4.085   7.352   7.272 -0.7785 -1.1344 -2.3919
 1023MOL0     H41152   4.184   7.227   7.109  1.5308  2.9247 -0.2585
 1023MOL0     H41153   4.232   7.104   7.213 -0.7544 -0.4319 -0.2579
 1023MOL0     H41154   3.492   6.781   8.044  1.3065 -0.5268 -0.0910
 1023MOL0     H41155   3.276   6.673   8.004 -0.6260 -4.8858 -0.9797
 1023MOL0     H41156   3.038   6.460   7.613 -0.3863 -2.7462 -0.9882
 1023MOL0     H41157   2.806   6.342   7.567  0.5259  0.2352 -0.1894
 1023MOL0     H41158   1.279   5.485   6.764 -0.0407 -3.2189  1.2243
 1023MOL0     H41159   1.051   5.478   6.732  0.2829 -1.0873 -0.2438
 1023MOL0     H41160   0.650   5.463   6.918  0.6337  0.5677 -0.7901
 1023MOL0     H41161   0.439   5.431   6.889 -0.6996  0.1760 -0.9222
 1023MOL0     H41162   0.107   5.575   7.015  1.0238 -2.9447 -2.0978
 1023MOL0     H41163   0.143   5.741   6.969 -0.9152  0.3156 -0.9592
 1023MOL0     H41164  -0.086   5.654   6.889 -1.5668 -2.8659 -3.4254
 1023MOL0     H41165   0.011   5.532   6.812  1.5646 -0.9877  2.8321
 1023MOL0     H41166  -0.021   5.833   6.777 -1.1542  2.1916 -3.1657
 1023MOL0     H41167   0.110   5.745   6.688 -0.0371 -1.6637 -0.7249
 1023MOL0     H41168  -0.185   5.691   6.649 -0.2564 -0.6071 -0.0931
 1023MOL0     H41169  -0.050   5.606   6.577 -0.3708 -0.1708  1.1426
 1023MOL0     H41170  -0.055   5.963   6.355  0.0802 -1.0104  0.0468
 1023MOL0     H41171   0.344   5.852   6.901  2.2190  1.2472  0.6394
 1023MOL0     H41172   0.520   6.012   6.920  0.4261 -0.5815 -0.2298
 1023MOL0     H41173   0.633   5.966   7.039 -1.2382 -0.3047  0.8357
 1023MOL0     H41174   0.675   5.954   6.858  0.9531 -0.2728  0.0665
 1024MOL0     O41175   1.485   4.344   8.519 -0.2071 -0.1724 -0.2296
 1024MOL0     C41176   1.566   4.256   8.554  0.5305 -0.6979  0.0344
 1024MOL0     O41177   1.546   4.120   8.550  0.6560 -0.0832  0.1619
 1024MOL0     C41178   1.429   4.069   8.502  0.4891  0.3549  0.1463
 1024MOL0     C41179   1.410   4.024   8.367 -0.1726 -0.6667  0.5396
 1024MOL0     C41180   1.285   3.986   8.322  0.4219 -0.8419 -0.5747
 1024MOL0     C41181   1.176   3.978   8.400 -0.9311 -0.4673 -1.7014
 1024MOL0     O41182   1.060   3.951   8.337  0.6464  0.1779 -0.0351
 1024MOL0     C41183   0.958   3.897   8.418  0.1190  1.0494 -0.2070
 1024MOL0     C41184   0.855   3.819   8.328 -0.3612 -0.6793  0.7351
 1024MOL0     C41185   0.739   3.790   8.413  1.1350  0.1457  0.5219
 1024MOL0     C41186   0.627   3.741   8.322  0.1470  0.4029  0.2543
 1024MOL0     C41187   0.507   3.701   8.422  0.5506 -0.8999  0.1016
 1024MOL0     C41188   0.386   3.680   8.329 -1.2073  0.4043  0.7897
 1024MOL0     C41189   0.256   3.634   8.403 -0.0005  0.3064 -0.6244
 1024MOL0     C41190   0.129   3.651   8.311 -0.2264  0.2367 -0.8543
 1024MOL0     N41191   0.008   3.605   8.374 -0.4212 -0.5339  0.9161
 1024MOL0     C41192  -0.056   3.489   8.343  0.2205 -0.3151  0.8336
 1024MOL0     C41193  -0.179   3.497   8.403 -0.3326  0.7114 -0.4173
 1024MOL0     C41194  -0.276   3.385   8.400  0.0526 -0.0884 -0.2342
 1024MOL0     C41195  -0.413   3.452   8.397  0.0478 -0.2798  1.2549
 1024MOL0     C41196  -0.524   3.344   8.395  0.4989  0.8397  0.8987
 1024MOL0     C41197  -0.548   3.289   8.258 -0.6725  0.5258  1.1746
 1024MOL0     O41198  -0.629   3.174   8.272  0.0880  0.2584  0.0709
 1024MOL0     C41199  -0.578   3.060   8.329 -0.2017 -0.1014  0.6639
 1024MOL0     C41200  -0.662   2.957   8.349  0.2537 -0.2827 -0.2490
 1024MOL0     C41201  -0.637   2.835   8.404 -0.0564  0.2620  0.0856
 1024MOL0     C41202  -0.745   2.732   8.407  1.4416  0.4842  0.1607
 1024MOL0     C41203  -0.502   2.802   8.439  0.3537 -0.0543  0.6512
 1024MOL0     C41204  -0.472   2.672   8.495  0.1583  0.0030  0.5106
 1024MOL0     O41205  -0.564   2.592   8.555 -0.0286  0.2640 -0.4714
 1024MOL0     C41206  -0.532   2.472   8.620 -0.2082 -0.2137  0.2741
 1024MOL0     C41207  -0.632   2.379   8.625 -0.0615  0.8693 -1.4407
 1024MOL0     C41208  -0.608   2.259   8.693 -0.2061  0.0049  0.3399
 1024MOL0     C41209  -0.488   2.222   8.742 -0.8701 -0.5340  0.2886
 1024MOL0     O41210  -0.478   2.096   8.786 -0.1342 -0.2678 -0.1210
 1024MOL0     C41211  -0.368   2.040   8.845 -1.3955 -0.4852  0.3214
 1024MOL0     C41212  -0.349   2.067   8.990  0.1955  0.2939 -0.1793
 1024MOL0     C41213  -0.448   1.973   9.063 -0.0649  0.0869  0.7040
 1024MOL0     C41214  -0.598   1.986   9.027  0.3429 -0.3733  0.7920
 1024MOL0     C41215  -0.683   1.952   9.149 -0.5119  0.6109  0.9769
 1024MOL0     C41216  -0.690   1.797   9.187  0.8919  1.0615 -0.4648
 1024MOL0     C41217  -0.783   1.709   9.100  0.1704 -0.4512  0.4309
 1024MOL0     C41218  -0.919   1.771   9.076  0.7298 -0.1685 -0.8466
 1024MOL0    Cl41219  -1.000   1.847   9.221  0.2545 -0.0334 -0.5633
 1024MOL0     C41220  -0.385   2.317   8.735 -0.1964 -0.3603 -0.6706
 1024MOL0     C41221  -0.406   2.446   8.677  0.2047  0.4939 -0.4328
 1024MOL0     O41222  -0.368   2.633   8.451 -1.1932  0.5595  0.3324
 1024MOL0     C41223  -0.403   2.903   8.395  0.6424  0.2147 -0.2969
 1024MOL0     C41224  -0.444   3.026   8.345 -0.0482 -0.3222  0.0990
 1024MOL0     N41225  -0.184   3.614   8.480 -0.3073  0.3595  0.2602
 1024MOL0     N41226  -0.071   3.676   8.463  0.0154  0.8164  0.2241
 1024MOL0     C41227   1.190   4.008   8.539 -1.0731  0.2276  0.1644
 1024MOL0     C41228   1.316   4.052   8.586  0.1643  0.1348  0.1624
 1024MOL0     C41229   1.696   4.307   8.614 -0.3942 -0.7359  0.0289
 1024MOL0     C41230   1.805   4.214   8.629 -0.4582 -0.4758  0.1510
 1024MOL0     C41231   1.926   4.261   8.686 -0.4317 -0.2664  0.7284
 1024MOL0     C41232   1.948   4.394   8.719  0.0720 -0.0529  0.1220
 1024MOL0     O41233   2.071   4.419   8.776  0.1626 -0.1439  0.4478
 1024MOL0     C41234   2.089   4.543   8.840  0.4005 -0.8377  0.1862
 1024MOL0     C41235   2.226   4.553   8.908  0.3616  0.4844  0.2709
 1024MOL0     C41236   2.257   4.438   9.011  0.3752 -0.5519  0.3471
 1024MOL0     C41237   2.139   4.396   9.092  0.6735  1.3713  0.2774
 1024MOL0     C41238   2.149   4.364   9.232  0.2141 -0.3231  0.9239
 1024MOL0     C41239   2.132   4.348   9.350 -0.4889  0.2916 -0.3504
 1024MOL0     C41240   1.842   4.484   8.691 -1.6689  0.3956 -0.0200
 1024MOL0     C41241   1.720   4.446   8.637 -0.1346  0.7472  0.0936
 1024MOL0     C41242   1.617   4.556   8.633 -0.3947 -0.2251  0.0944
 1024MOL0     H41243   1.496   4.027   8.301  2.3405 -0.5634  3.6173
 1024MOL0     H41244   1.266   3.961   8.218 -1.7754 -0.2500 -0.3521
 1024MOL0     H41245   0.910   3.979   8.473  0.4685  0.1463  1.5183
 1024MOL0     H41246   0.995   3.827   8.493 -1.3443 -0.3097 -0.6911
 1024MOL0     H41247   0.835   3.873   8.235  3.6113 -1.5535 -0.8258
 1024MOL0     H41248   0.902   3.724   8.301  5.1279  2.0331 -0.7282
 1024MOL0     H41249   0.768   3.712   8.485 -1.6344 -1.7736 -0.2715
 1024MOL0     H41250   0.704   3.875   8.472  2.1962  0.8257  0.1970
 1024MOL0     H41251   0.586   3.814   8.252 -3.3802 -1.8885 -0.3137
 1024MOL0     H41252   0.661   3.658   8.259  1.8458  1.2843 -0.0620
 1024MOL0     H41253   0.484   3.791   8.479  3.3511  1.3855 -2.0421
 1024MOL0     H41254   0.526   3.613   8.485  2.3207  0.1683  1.1342
 1024MOL0     H41255   0.365   3.779   8.287 -0.4682  1.4454  2.7404
 1024MOL0     H41256   0.405   3.610   8.246 -3.1390  0.8153 -0.0785
 1024MOL0     H41257   0.245   3.694   8.494  0.8104 -1.5066  0.7302
 1024MOL0     H41258   0.264   3.533   8.443 -1.3610  1.2448  2.3701
 1024MOL0     H41259   0.133   3.755   8.279  2.3825  1.1520  2.0091
 1024MOL0     H41260   0.164   3.586   8.229  0.5850 -0.5797  0.1117
 1024MOL0     H41261  -0.018   3.414   8.274  4.3801  0.3674  2.1270
 1024MOL0     H41262  -0.266   3.318   8.486  1.6647 -0.6688 -0.8523
 1024MOL0     H41263  -0.266   3.320   8.313 -0.9595 -3.6934  2.1271
 1024MOL0     H41264  -0.426   3.515   8.486  3.1886  0.7806  1.0836
 1024MOL0     H41265  -0.429   3.512   8.307  1.1220 -0.9736  0.5898
 1024MOL0     H41266  -0.508   3.263   8.466 -0.3304 -2.3693 -2.2547
 1024MOL0     H41267  -0.618   3.393   8.422 -0.9837 -0.9259 -0.7448
 1024MOL0     H41268  -0.603   3.363   8.200  1.0636  0.0363 -1.2856
 1024MOL0     H41269  -0.460   3.260   8.199 -0.3646  0.1736  1.7879
 1024MOL0     H41270  -0.768   2.961   8.326  0.4491 -0.9313 -1.3605
 1024MOL0     H41271  -0.766   2.712   8.513  1.3667  2.5760  0.5864
 1024MOL0     H41272  -0.717   2.643   8.351 -1.6074  1.6391 -3.6357
 1024MOL0     H41273  -0.836   2.776   8.365  1.7189  0.4383 -0.4954
 1024MOL0     H41274  -0.729   2.404   8.584 -1.0194 -0.0144  0.1905
 1024MOL0     H41275  -0.696   2.195   8.693 -1.7466  1.8696 -3.0079
 1024MOL0     H41276  -0.384   1.933   8.832  0.4036 -0.7571 -0.0090
 1024MOL0     H41277  -0.269   2.060   8.802  0.3807 -1.8900  3.3643
 1024MOL0     H41278  -0.247   2.035   9.012  1.3393 -0.2130 -5.0808
 1024MOL0     H41279  -0.355   2.175   9.010 -0.4283  0.0689  0.9527
 1024MOL0     H41280  -0.437   2.015   9.164  1.3239  1.9383 -0.1535
 1024MOL0     H41281  -0.429   1.866   9.067  1.6269  0.3758  0.9570
 1024MOL0     H41282  -0.619   1.921   8.942 -2.4369 -0.2263  1.2692
 1024MOL0     H41283  -0.628   2.084   8.991 -1.0187 -2.1375 -3.4236
 1024MOL0     H41284  -0.647   2.014   9.231 -0.8921  0.2621  1.4089
 1024MOL0     H41285  -0.776   2.005   9.126  0.4280  1.0180 -2.5990
 1024MOL0     H41286  -0.721   1.795   9.293 -0.4330 -1.1597 -0.8244
 1024MOL0     H41287  -0.587   1.761   9.188  0.9697  0.9726  3.3390
 1024MOL0     H41288  -0.794   1.608   9.142 -2.3634 -1.3484 -2.0463
 1024MOL0     H41289  -0.735   1.692   9.003  1.8435 -2.9696  1.5738
 1024MOL0     H41290  -0.993   1.703   9.032 -0.9032  2.6472 -2.7485
 1024MOL0     H41291  -0.918   1.843   8.994 -2.7980 -0.5653 -1.3959
 1024MOL0     H41292  -0.286   2.290   8.771 -0.4514  0.4824  0.7132
 1024MOL0     H41293  -0.326   2.519   8.683  1.6695 -1.2135  2.7750
 1024MOL0     H41294  -0.297   2.894   8.412  0.4352  0.2525  1.1052
 1024MOL0     H41295  -0.380   3.110   8.319 -2.1732  0.9905 -1.1784
 1024MOL0     H41296   1.102   4.010   8.602 -0.5591 -1.5808  0.9812
 1024MOL0     H41297   1.323   4.081   8.690 -1.5426  2.8204 -0.3864
 1024MOL0     H41298   1.790   4.110   8.603  0.6812  0.0893 -3.3099
 1024MOL0     H41299   2.008   4.192   8.700  1.1822  0.8047 -2.4087
 1024MOL0     H41300   2.085   4.621   8.763 -0.1941 -1.0991 -0.0530
 1024MOL0     H41301   2.014   4.561   8.918  1.9859 -0.3413  1.6606
 1024MOL0     H41302   2.219   4.651   8.956 -4.3635  1.5070 -1.8693
 1024MOL0     H41303   2.309   4.558   8.837  0.2167 -0.6257 -0.0006
 1024MOL0     H41304   2.300   4.352   8.959  2.9255  0.0909  1.2350
 1024MOL0     H41305   2.343   4.462   9.074 -0.6712  1.5390  1.0747
 1024MOL0     H41306   2.097   4.307   9.044  1.3198  0.0359  2.0758
 1024MOL0     H41307   2.055   4.466   9.096 -1.1419 -0.7470  1.5670
 1024MOL0     H41308   2.123   4.315   9.452 -0.2292  0.9390 -0.1140
 1024MOL0     H41309   1.861   4.585   8.726 -0.9423  0.8413 -1.6332
 1024MOL0     H41310   1.648   4.649   8.680 -1.7255  1.2714 -1.8385
 1024MOL0     H41311   1.585   4.584   8.532 -2.7989  0.8294  1.0900
 1024MOL0     H41312   1.532   4.519   8.692  0.2357  0.4644  1.4730
  11.48756  11.48756  11.48756
